/*--------------------------------*- C++ -*----------------------------------*\
| =========                 |                                                 |
| \\      /  F ield         | OpenFOAM: The Open Source CFD Toolbox           |
|  \\    /   O peration     | Version:  v2106                                 |
|   \\  /    A nd           | Website:  www.openfoam.com                      |
|    \\/     M anipulation  |                                                 |
\*---------------------------------------------------------------------------*/
FoamFile
{
    version     2.0;
    format      ascii;
    arch        "LSB;label=32;scalar=64";
    class       volScalarField;
    location    "0.000176";
    object      T;
}
// * * * * * * * * * * * * * * * * * * * * * * * * * * * * * * * * * * * * * //

dimensions      [0 0 0 1 0 0 0];

internalField   nonuniform List<scalar> 
144746
(
290.308
290.387
290.355
290.381
290.535
290.771
291.134
291.417
291.572
291.556
291.404
291.068
290.847
290.768
290.538
290.661
290.666
290.733
290.88
291.087
291.35
291.545
291.636
291.574
291.378
291.062
290.882
290.875
290.931
291.134
291.237
291.329
291.429
291.569
291.701
291.768
291.773
291.651
291.382
291.023
290.746
290.671
291.314
291.522
291.685
291.804
291.901
291.976
292.02
292.008
291.939
291.751
291.438
291.065
290.748
290.586
291.519
291.758
291.974
292.115
292.207
292.251
292.264
292.213
292.093
291.847
291.498
291.105
290.748
290.574
291.542
291.808
292.062
292.238
292.344
292.39
292.399
292.35
292.211
291.94
291.59
291.193
290.798
290.546
291.365
291.718
292.058
292.28
292.396
292.449
292.459
292.426
292.285
292.032
291.675
291.259
290.847
290.545
291.05
291.51
291.974
292.255
292.4
292.458
292.469
292.445
292.316
292.072
291.731
291.314
290.88
290.518
290.567
291.164
291.779
292.17
292.345
292.409
292.417
292.384
292.246
291.998
291.639
291.198
290.706
290.228
290.089
290.723
291.445
291.932
292.165
292.239
292.235
292.171
291.993
291.71
291.301
290.821
290.3
289.771
289.625
290.198
290.994
291.528
291.825
291.909
291.873
291.744
291.484
291.113
290.64
290.108
289.509
288.994
289.289
289.668
290.451
290.989
291.323
291.416
291.331
291.116
290.754
290.298
289.812
289.309
288.82
288.436
289.092
289.182
289.804
290.359
290.716
290.835
290.707
290.405
289.953
289.461
288.996
288.586
288.328
288.07
288.802
288.817
289.24
289.706
290.032
290.206
290.081
289.8
289.343
288.915
288.595
288.398
288.451
288.334
289.813
289.776
289.739
289.794
290.025
290.353
290.797
291.164
291.369
291.354
291.115
290.496
289.915
289.607
290.212
290.302
290.342
290.444
290.643
290.888
291.183
291.4
291.503
291.413
291.11
290.512
289.951
289.637
290.815
291.005
291.162
291.29
291.399
291.529
291.657
291.708
291.706
291.52
291.127
290.495
289.854
289.476
291.278
291.486
291.699
291.844
291.948
291.973
292.002
291.963
291.868
291.615
291.181
290.525
289.845
289.394
291.461
291.73
291.987
292.138
292.203
292.216
292.202
292.127
291.98
291.701
291.234
290.57
289.873
289.399
291.455
291.774
292.055
292.232
292.312
292.315
292.289
292.209
292.053
291.77
291.305
290.666
289.993
289.496
291.249
291.697
292.058
292.264
292.347
292.346
292.312
292.228
292.082
291.791
291.337
290.754
290.152
289.668
290.891
291.469
291.951
292.195
292.294
292.315
292.288
292.223
292.062
291.783
291.344
290.801
290.234
289.785
290.389
291.115
291.738
292.079
292.208
292.24
292.2
292.146
291.967
291.677
291.244
290.747
290.217
289.759
289.846
290.616
291.356
291.79
291.987
292.043
291.998
291.939
291.723
291.38
290.941
290.481
290.018
289.624
289.349
290.078
290.885
291.387
291.636
291.704
291.644
291.537
291.242
290.844
290.399
289.959
289.515
289.18
289.016
289.55
290.338
290.864
291.159
291.234
291.114
290.901
290.508
290.075
289.651
289.278
288.9
288.661
288.842
289.107
289.75
290.259
290.556
290.591
290.406
290.042
289.547
289.098
288.745
288.499
288.308
288.138
288.596
288.754
289.227
289.652
289.886
289.844
289.596
289.165
288.658
288.27
288.044
287.989
288.079
287.985
290.679
290.543
290.392
290.39
290.595
290.896
291.348
291.701
291.877
291.756
291.229
290.219
289.19
288.456
291.515
291.634
291.605
291.644
291.753
291.907
292.108
292.199
292.204
291.949
291.304
290.323
289.263
288.426
292.367
292.613
292.667
292.683
292.71
292.677
292.688
292.613
292.47
292.088
291.373
290.356
289.154
288.177
292.912
293.134
293.207
293.208
293.147
293.075
292.976
292.812
292.584
292.141
291.397
290.359
289.111
288.096
293.089
293.312
293.393
293.371
293.307
293.19
293.055
292.875
292.616
292.156
291.409
290.37
289.151
288.139
293.018
293.287
293.405
293.389
293.323
293.196
293.038
292.838
292.565
292.098
291.398
290.403
289.287
288.302
292.769
293.161
293.333
293.336
293.267
293.132
292.963
292.756
292.469
292.027
291.344
290.457
289.48
288.604
292.36
292.911
293.172
293.216
293.158
293.016
292.837
292.613
292.313
291.892
291.262
290.474
289.632
288.864
291.785
292.528
292.919
293.028
292.994
292.863
292.67
292.415
292.097
291.676
291.101
290.425
289.708
289.022
291.161
292.023
292.542
292.724
292.722
292.615
292.417
292.122
291.77
291.324
290.782
290.19
289.594
289.009
290.497
291.4
292.053
292.294
292.324
292.221
291.983
291.618
291.209
290.719
290.194
289.665
289.163
288.682
289.952
290.729
291.435
291.678
291.689
291.554
291.237
290.796
290.328
289.808
289.326
288.882
288.44
288.039
289.557
290.136
290.727
290.926
290.874
290.645
290.198
289.672
289.12
288.586
288.144
287.822
287.58
287.277
289.137
289.42
289.821
289.978
289.892
289.577
289.017
288.432
287.829
287.356
287.003
286.876
286.915
286.801
291.454
292.369
293.061
293.949
294.62
295.069
290.641
291.449
292.41
293.78
294.834
295.878
290.73
291.602
292.465
293.809
294.77
296.083
290.517
291.205
291.891
293.326
294.409
296.021
290.533
290.94
291.392
292.655
293.759
295.584
290.456
290.696
290.894
291.821
292.679
294.808
290.361
290.406
290.364
290.936
291.409
292.951
290.129
289.913
289.67
290.014
290.148
291.581
289.69
289.334
289.062
289.378
289.516
290.603
289.162
288.834
288.693
289.054
289.176
290.261
288.626
288.552
288.598
289.017
289.254
290.236
288.361
288.496
288.793
289.335
289.785
290.735
288.43
288.711
289.389
290.145
290.898
291.876
288.332
288.788
290.032
291.304
292.306
293.013
290.049
290.918
291.517
292.434
293
293.687
289.261
289.848
290.783
292.312
293.454
294.722
289.308
289.943
290.886
292.416
293.403
295.104
289.094
289.572
290.376
292.027
293.116
295.133
289.144
289.419
289.97
291.417
292.48
294.692
289.24
289.38
289.641
290.654
291.381
293.789
289.373
289.374
289.361
289.898
290.122
291.802
289.442
289.241
289.008
289.069
288.828
290.013
289.333
289.01
288.648
288.422
288.013
288.848
289.16
288.774
288.337
288.074
287.586
288.386
288.812
288.531
288.203
288.025
287.583
288.247
288.481
288.382
288.282
288.294
287.946
288.742
288.352
288.42
288.761
289.058
289.19
290.038
287.892
288.106
288.91
289.915
290.725
291.605
288.614
288.975
288.97
289.457
289.919
290.603
287.612
287.762
288.076
289.387
291.045
292.93
287.494
287.61
288.118
289.623
291.588
294.105
287.328
287.287
287.683
289.354
291.465
294.209
287.432
287.24
287.547
289.022
290.866
293.351
287.622
287.341
287.535
288.672
289.825
291.604
287.958
287.618
287.588
288.133
288.443
289.694
288.274
287.839
287.572
287.504
287.021
287.284
288.434
287.893
287.343
286.661
285.705
285.423
288.406
287.784
287.008
285.984
284.845
284.306
288.125
287.48
286.688
285.715
284.604
283.973
287.574
287.078
286.536
285.758
284.824
284.203
287.099
286.763
286.588
286.274
285.822
285.64
286.432
286.121
286.319
286.777
287.164
287.746
288.96
290.054
291.04
292.306
293.289
294.083
288.033
289.087
290.224
291.968
293.18
294.606
288.191
289.067
289.904
291.594
292.907
294.587
288.243
288.865
289.426
291.008
292.322
294.123
288.568
288.892
289.091
290.298
291.347
293.13
288.936
288.954
288.834
289.565
290.053
291.692
289.251
288.971
288.635
289.001
288.839
290.41
289.363
288.846
288.268
288.37
287.955
289.474
289.378
288.69
288.003
288.054
287.687
288.849
289.165
288.556
287.872
287.892
287.521
288.484
288.955
288.44
287.907
287.976
287.719
288.53
288.714
288.426
288.14
288.294
288.161
288.961
288.775
288.679
288.702
288.909
289.112
289.824
288.549
288.662
289.068
289.632
290.073
290.666
288.271
289.133
289.85
290.978
291.874
292.851
287.509
288.143
289.032
290.683
291.779
293.37
287.517
287.993
288.74
290.377
291.453
293.403
287.461
287.656
288.199
289.741
290.847
293.036
287.675
287.585
287.826
289.009
289.922
292.085
287.945
287.628
287.613
288.335
288.791
290.743
288.358
287.815
287.56
287.881
287.693
289.574
288.764
288.092
287.53
287.498
286.98
288.248
288.997
288.294
287.54
287.108
286.36
287.314
289.078
288.415
287.508
286.907
286.124
286.792
288.961
288.366
287.532
286.905
286.132
286.658
288.703
288.277
287.627
287.133
286.438
286.965
288.601
288.346
287.995
287.789
287.402
287.997
288.227
288.073
288.151
288.525
288.626
289.312
286.814
287.072
287.286
287.963
288.999
289.944
286.077
286.101
286.33
287.56
289.329
291.352
286.023
285.939
286.169
287.492
289.348
291.789
286.059
285.802
285.799
286.977
288.836
291.528
286.323
285.847
285.74
286.663
288.076
290.488
286.685
286.032
285.896
286.554
287.299
289.038
287.268
286.483
286.274
286.6
286.561
287.5
287.9
287.082
286.58
286.357
285.816
286.254
288.527
287.665
286.867
286.129
285.138
284.916
288.909
287.997
286.964
285.778
284.427
283.79
289.024
288.085
286.931
285.568
284.142
283.432
288.845
287.922
286.85
285.533
284.115
283.461
288.682
287.926
287.103
286.143
285.118
284.837
288.129
287.534
287.057
286.942
286.579
286.863
292.747
292.101
291.654
290.946
290.502
290.302
292.439
291.671
291.349
290.848
290.7
290.68
292.135
291.427
291.063
290.703
290.737
290.806
292.26
291.614
291.226
290.887
290.986
291.098
292.896
291.98
291.43
291.018
291.097
291.248
293.69
292.52
291.746
291.142
291.23
291.303
294.498
292.438
291.654
290.946
291.012
291.102
294.288
292.465
291.452
290.609
290.631
290.726
294.12
292.285
291.1
290.106
290.102
290.191
293.799
291.996
290.807
289.698
289.671
289.676
293.365
291.689
290.574
289.422
289.321
289.186
292.823
291.367
290.425
289.36
289.194
288.876
292.197
290.988
290.175
289.211
288.922
288.572
291.4
290.788
290.37
289.818
289.681
289.132
290.756
290.185
290.215
289.85
289.752
289.722
290.614
289.943
290.216
290.155
290.288
290.386
290.578
290.113
290.398
290.436
290.626
290.727
291.183
290.841
291.048
291.013
291.084
291.145
292.416
291.78
291.617
291.289
291.237
291.252
293.601
292.543
291.992
291.32
291.177
291.203
294.428
292.593
291.816
290.953
290.813
290.893
294.381
292.357
291.427
290.399
290.217
290.409
294.078
292.053
290.917
289.747
289.563
289.818
293.648
291.612
290.505
289.267
289.096
289.307
293.077
291.15
290.14
288.903
288.754
288.823
292.355
290.714
289.883
288.738
288.603
288.506
291.58
290.213
289.377
288.408
288.358
288.273
290.531
289.821
289.471
288.998
289.053
288.764
288.054
287.968
288.663
289.112
289.648
290.231
287.716
287.978
289.042
290.028
290.795
291.37
288.115
288.747
289.864
290.944
291.589
292.093
289.457
290.202
291.111
291.932
292.257
292.65
291.126
291.621
291.97
292.324
292.469
292.769
292.998
292.539
292.237
292.146
292.292
292.614
294.207
292.972
291.976
291.584
291.739
292.176
294.803
292.973
291.511
290.768
290.951
291.562
294.908
292.482
290.81
289.894
290.096
290.834
294.631
291.957
290.26
289.273
289.431
290.112
293.918
291.315
289.685
288.689
288.828
289.404
292.718
290.626
289.136
288.252
288.418
288.908
291.246
289.597
288.452
287.862
288.154
288.524
289.168
288.575
288.41
288.443
288.744
288.964
294.347
293.752
293.132
292.287
291.504
291.083
293.819
293.037
292.617
292.021
291.611
291.38
293.508
292.781
292.336
291.822
291.529
291.319
293.657
292.955
292.399
291.871
291.613
291.499
294.139
293.309
292.555
291.941
291.662
291.58
294.926
293.73
292.815
292.006
291.65
291.524
295.41
294.078
292.958
291.92
291.552
291.361
296.217
294.011
292.869
291.682
291.267
291.045
295.991
294.024
292.783
291.44
290.961
290.655
295.711
293.934
292.695
291.293
290.766
290.393
295.157
293.563
292.497
291.158
290.636
290.181
294.48
293.173
292.331
291.248
290.724
290.213
293.66
292.805
292.004
291.066
290.54
290.055
292.942
292.588
292.215
291.532
291.189
290.653
292.355
291.758
291.398
290.645
289.991
289.728
291.599
290.95
290.969
290.682
290.395
290.318
291.544
291.001
291.006
290.833
290.706
290.668
292.056
291.553
291.435
291.277
291.169
291.194
293.16
292.416
291.998
291.661
291.396
291.353
294.328
293.23
292.446
291.715
291.343
291.288
295.312
293.774
292.649
291.564
291.135
291.019
295.955
293.841
292.607
291.16
290.63
290.581
296.043
293.656
292.32
290.687
290.084
290.068
295.579
293.437
292.072
290.333
289.715
289.663
294.836
292.887
291.719
290.077
289.503
289.383
293.856
292.237
291.317
290.045
289.575
289.352
292.632
291.581
290.724
289.73
289.472
289.239
291.521
290.961
290.782
290.307
290.346
290.031
288.468
288.364
288.462
288.397
288.212
288.395
287.818
288.1
288.706
289.092
289.208
289.465
288.038
288.566
289.293
289.948
290.133
290.353
289.146
289.819
290.443
291.014
291.084
291.29
291.027
291.362
291.547
291.701
291.51
291.63
293.11
292.741
292.212
291.697
291.445
291.596
295.101
293.493
292.21
291.327
291.037
291.239
296.197
293.843
291.938
290.644
290.363
290.668
296.594
293.783
291.561
289.958
289.657
290.034
296.531
293.427
291.131
289.467
289.194
289.59
295.927
292.901
290.679
289.14
288.989
289.33
294.52
291.971
290.176
289.086
289.12
289.372
292.291
290.597
289.429
288.831
289.147
289.452
289.643
289.23
289.483
289.704
290.183
290.431
292.283
292.116
292.027
292.028
292.1
292.173
292.339
292.488
292.598
292.55
292.211
291.362
290.229
289.056
293.159
293.265
293.228
293.189
293.181
293.158
293.146
293.121
293.054
292.846
292.365
291.477
290.223
288.777
293.779
293.942
293.961
293.909
293.811
293.685
293.585
293.46
293.297
292.997
292.449
291.515
290.133
288.556
294.083
294.209
294.217
294.141
294.007
293.845
293.705
293.556
293.367
293.033
292.45
291.468
290.059
288.459
294.144
294.275
294.267
294.175
294.017
293.838
293.68
293.515
293.31
292.97
292.385
291.403
290.069
288.557
294.086
294.243
294.233
294.124
293.946
293.753
293.582
293.413
293.204
292.856
292.261
291.319
290.067
288.685
293.911
294.121
294.13
294.015
293.828
293.623
293.437
293.253
293.03
292.675
292.093
291.224
290.078
288.866
293.647
293.938
293.979
293.878
293.696
293.484
293.283
293.077
292.835
292.466
291.911
291.112
290.113
289.054
293.272
293.683
293.788
293.723
293.567
293.361
293.137
292.898
292.621
292.234
291.706
290.988
290.157
289.288
292.811
293.319
293.501
293.498
293.392
293.203
292.957
292.677
292.357
291.944
291.443
290.819
290.109
289.386
292.273
292.86
293.125
293.172
293.098
292.925
292.664
292.347
291.98
291.541
291.06
290.531
289.958
289.312
291.759
292.298
292.6
292.665
292.58
292.382
292.087
291.733
291.329
290.872
290.427
289.991
289.547
288.944
291.321
291.723
291.951
291.965
291.812
291.53
291.17
290.765
290.31
289.81
289.344
288.959
288.682
288.273
290.791
290.939
291.089
291.057
290.808
290.441
289.99
289.504
288.985
288.461
287.991
287.71
287.595
287.592
294.201
294.075
294.017
293.913
293.864
293.793
293.715
293.659
293.616
293.533
293.344
292.838
291.974
290.846
294.699
294.73
294.701
294.611
294.51
294.378
294.264
294.145
294.012
293.83
293.531
292.954
291.958
290.488
294.941
294.987
294.962
294.85
294.72
294.577
294.445
294.305
294.155
293.94
293.592
292.973
291.862
290.277
295.015
295.051
295.007
294.88
294.726
294.567
294.428
294.287
294.126
293.911
293.564
292.913
291.738
290.125
294.983
295.022
294.963
294.811
294.632
294.459
294.315
294.176
294.025
293.808
293.446
292.772
291.628
290.115
294.894
294.954
294.868
294.689
294.484
294.295
294.142
294.004
293.857
293.644
293.278
292.595
291.5
290.071
294.741
294.818
294.725
294.535
294.317
294.113
293.948
293.804
293.655
293.437
293.067
292.395
291.369
290.054
294.554
294.647
294.57
294.386
294.169
293.956
293.775
293.615
293.45
293.218
292.832
292.192
291.251
290.061
294.311
294.432
294.392
294.243
294.044
293.83
293.631
293.447
293.253
292.998
292.586
291.999
291.17
290.152
294.011
294.172
294.178
294.082
293.915
293.712
293.501
293.289
293.053
292.751
292.348
291.809
291.097
290.268
293.617
293.839
293.904
293.866
293.739
293.549
293.324
293.087
292.814
292.467
292.076
291.601
291.012
290.324
293.205
293.422
293.494
293.466
293.351
293.188
292.987
292.749
292.44
292.055
291.664
291.254
290.781
290.168
292.792
292.944
292.951
292.893
292.738
292.55
292.323
292.059
291.71
291.289
290.879
290.521
290.2
289.722
292.295
292.309
292.27
292.125
291.866
291.575
291.256
290.925
290.51
290.053
289.634
289.362
289.173
289.168
295.579
295.505
295.503
295.416
295.311
295.146
294.961
294.784
294.613
294.442
294.274
293.997
293.568
292.845
295.744
295.718
295.688
295.575
295.457
295.316
295.18
295.017
294.86
294.67
294.442
294.104
293.548
292.585
295.762
295.726
295.678
295.555
295.434
295.302
295.175
295.035
294.884
294.706
294.485
294.141
293.512
292.458
295.734
295.702
295.619
295.468
295.32
295.18
295.059
294.931
294.797
294.633
294.423
294.077
293.419
292.293
295.649
295.619
295.494
295.31
295.135
294.987
294.865
294.75
294.629
294.482
294.283
293.935
293.263
292.13
295.543
295.507
295.35
295.144
294.946
294.782
294.65
294.534
294.419
294.282
294.091
293.74
293.053
291.924
295.399
295.349
295.18
294.964
294.754
294.579
294.436
294.316
294.201
294.068
293.872
293.499
292.808
291.725
295.239
295.182
295.019
294.805
294.595
294.412
294.256
294.124
293.997
293.854
293.646
293.235
292.558
291.543
295.047
294.989
294.855
294.662
294.462
294.274
294.105
293.955
293.807
293.637
293.398
292.983
292.341
291.404
294.831
294.782
294.689
294.534
294.352
294.165
293.983
293.809
293.628
293.423
293.141
292.744
292.155
291.337
294.549
294.527
294.491
294.386
294.23
294.053
293.865
293.672
293.458
293.211
292.907
292.524
291.999
291.322
294.227
294.199
294.179
294.121
294.009
293.868
293.693
293.493
293.247
292.948
292.631
292.279
291.831
291.248
293.827
293.806
293.768
293.682
293.56
293.433
293.282
293.103
292.846
292.507
292.181
291.862
291.525
291.081
293.33
293.27
293.171
293.015
292.834
292.686
292.529
292.34
292.051
291.684
291.347
291.088
290.852
290.745
296.316
296.271
296.278
296.196
296.102
295.975
295.826
295.643
295.445
295.232
295.029
294.821
294.616
294.208
296.344
296.283
296.256
296.163
296.077
295.969
295.849
295.7
295.536
295.351
295.14
294.885
294.586
294.078
296.309
296.25
296.182
296.064
295.965
295.861
295.756
295.634
295.492
295.328
295.14
294.9
294.586
294.064
296.243
296.183
296.071
295.922
295.798
295.685
295.585
295.476
295.351
295.203
295.041
294.821
294.511
293.945
296.141
296.067
295.914
295.735
295.588
295.465
295.363
295.26
295.147
295.015
294.875
294.679
294.371
293.757
296.02
295.925
295.748
295.554
295.392
295.258
295.144
295.034
294.923
294.799
294.675
294.492
294.175
293.503
295.863
295.75
295.565
295.364
295.197
295.054
294.929
294.812
294.702
294.588
294.473
294.289
293.932
293.228
295.689
295.571
295.393
295.19
295.022
294.871
294.733
294.608
294.494
294.384
294.263
294.063
293.655
292.95
295.495
295.382
295.223
295.03
294.862
294.702
294.553
294.417
294.294
294.176
294.038
293.804
293.395
292.712
295.287
295.186
295.062
294.893
294.727
294.559
294.397
294.246
294.105
293.967
293.803
293.542
293.139
292.499
295.037
294.966
294.89
294.759
294.608
294.442
294.272
294.103
293.934
293.764
293.558
293.294
292.899
292.324
294.76
294.692
294.653
294.568
294.449
294.306
294.141
293.963
293.766
293.554
293.312
293.041
292.682
292.187
294.401
294.361
294.323
294.243
294.155
294.06
293.937
293.775
293.55
293.292
293.02
292.751
292.436
292.069
293.935
293.859
293.778
293.68
293.591
293.523
293.428
293.298
293.102
292.83
292.563
292.318
292.038
291.822
296.739
296.715
296.723
296.674
296.622
296.546
296.452
296.311
296.141
295.944
295.732
295.505
295.331
295.06
296.749
296.693
296.673
296.604
296.545
296.469
296.386
296.272
296.127
295.951
295.748
295.501
295.28
294.97
296.716
296.651
296.579
296.48
296.403
296.32
296.246
296.15
296.029
295.875
295.698
295.481
295.275
294.997
296.639
296.569
296.455
296.326
296.225
296.136
296.059
295.966
295.854
295.708
295.55
295.367
295.186
294.921
296.533
296.442
296.298
296.151
296.04
295.946
295.861
295.76
295.644
295.505
295.366
295.213
295.052
294.776
296.392
296.281
296.127
295.975
295.862
295.761
295.662
295.55
295.426
295.292
295.169
295.034
294.878
294.564
296.215
296.094
295.938
295.783
295.672
295.566
295.457
295.338
295.214
295.091
294.984
294.861
294.692
294.318
296.026
295.902
295.753
295.595
295.482
295.366
295.247
295.124
295.004
294.894
294.8
294.677
294.482
294.047
295.822
295.705
295.573
295.414
295.292
295.162
295.032
294.907
294.792
294.692
294.602
294.477
294.23
293.808
295.618
295.509
295.404
295.254
295.12
294.974
294.83
294.697
294.579
294.479
294.383
294.241
293.992
293.566
295.39
295.301
295.233
295.11
294.972
294.818
294.661
294.516
294.385
294.269
294.152
293.981
293.73
293.324
295.132
295.064
295.034
294.946
294.825
294.682
294.526
294.373
294.219
294.07
293.908
293.724
293.462
293.099
294.797
294.771
294.761
294.711
294.634
294.528
294.387
294.233
294.061
293.877
293.674
293.456
293.194
292.909
294.357
294.303
294.27
294.224
294.178
294.139
294.082
294.003
293.859
293.642
293.392
293.139
292.846
292.614
297.054
297.034
297.038
297.012
296.996
296.965
296.915
296.83
296.712
296.546
296.351
296.108
295.902
295.647
297.055
297.009
296.987
296.931
296.895
296.848
296.804
296.735
296.637
296.491
296.306
296.06
295.832
295.568
297.026
296.97
296.9
296.817
296.758
296.697
296.65
296.584
296.497
296.367
296.208
296.001
295.813
295.599
296.944
296.885
296.785
296.684
296.608
296.54
296.482
296.405
296.309
296.177
296.028
295.855
295.705
295.522
296.824
296.744
296.633
296.533
296.455
296.388
296.322
296.229
296.115
295.974
295.834
295.685
295.562
295.395
296.666
296.572
296.46
296.368
296.296
296.228
296.15
296.044
295.914
295.77
295.636
295.504
295.391
295.231
296.471
296.374
296.269
296.18
296.113
296.042
295.955
295.843
295.713
295.578
295.458
295.346
295.238
295.074
296.266
296.169
296.078
295.981
295.912
295.83
295.734
295.623
295.503
295.386
295.283
295.189
295.081
294.878
296.057
295.963
295.886
295.777
295.696
295.598
295.493
295.386
295.282
295.189
295.109
295.03
294.913
294.652
295.851
295.768
295.699
295.584
295.484
295.367
295.249
295.142
295.048
294.972
294.907
294.837
294.697
294.44
295.636
295.559
295.515
295.409
295.29
295.158
295.027
294.913
294.818
294.746
294.683
294.604
294.455
294.201
295.394
295.336
295.32
295.236
295.114
294.984
294.85
294.727
294.615
294.525
294.435
294.324
294.167
293.933
295.076
295.059
295.067
295.026
294.94
294.837
294.712
294.583
294.451
294.329
294.184
294.038
293.85
293.645
294.674
294.652
294.666
294.657
294.627
294.598
294.53
294.439
294.308
294.138
293.94
293.725
293.47
293.308
297.364
297.35
297.357
297.334
297.328
297.312
297.298
297.25
297.174
297.048
296.891
296.676
296.491
296.239
297.346
297.321
297.311
297.261
297.229
297.188
297.165
297.123
297.06
296.957
296.814
296.604
296.398
296.149
297.316
297.281
297.232
297.164
297.114
297.062
297.028
296.976
296.912
296.812
296.682
296.502
296.332
296.15
297.229
297.19
297.118
297.048
296.992
296.936
296.89
296.825
296.746
296.633
296.501
296.341
296.205
296.064
297.101
297.045
296.965
296.909
296.871
296.824
296.776
296.695
296.591
296.459
296.322
296.177
296.063
295.941
296.932
296.86
296.795
296.756
296.731
296.688
296.633
296.54
296.419
296.277
296.14
296.006
295.902
295.783
296.72
296.65
296.602
296.575
296.554
296.514
296.452
296.356
296.233
296.097
295.97
295.85
295.756
295.639
296.497
296.436
296.407
296.378
296.348
296.3
296.231
296.139
296.026
295.907
295.798
295.699
295.609
295.492
296.275
296.223
296.21
296.165
296.116
296.053
295.977
295.893
295.799
295.708
295.626
295.553
295.466
295.327
296.066
296.025
296.015
295.946
295.876
295.792
295.706
295.626
295.55
295.486
295.429
295.38
295.293
295.126
295.867
295.822
295.81
295.732
295.639
295.538
295.439
295.359
295.294
295.248
295.206
295.172
295.077
294.905
295.644
295.613
295.614
295.539
295.433
295.324
295.215
295.126
295.055
295.004
294.95
294.907
294.801
294.642
295.349
295.349
295.359
295.32
295.237
295.144
295.039
294.94
294.852
294.774
294.684
294.602
294.483
294.344
294.979
295.009
295.045
295.055
295.01
294.958
294.885
294.807
294.705
294.574
294.431
294.28
294.097
293.991
297.68
297.675
297.694
297.677
297.674
297.667
297.677
297.66
297.629
297.553
297.443
297.28
297.131
296.895
297.646
297.638
297.648
297.618
297.593
297.562
297.552
297.524
297.489
297.424
297.331
297.171
297.002
296.771
297.61
297.602
297.578
297.535
297.503
297.465
297.44
297.398
297.353
297.278
297.182
297.037
296.896
296.731
297.521
297.504
297.46
297.422
297.399
297.366
297.331
297.277
297.213
297.121
297.01
296.871
296.75
296.626
297.388
297.348
297.313
297.294
297.296
297.28
297.245
297.18
297.092
296.977
296.853
296.719
296.613
296.511
297.204
297.162
297.152
297.151
297.165
297.157
297.12
297.049
296.947
296.82
296.69
296.562
296.461
296.366
296.984
296.957
296.966
296.98
297
296.993
296.956
296.884
296.78
296.655
296.532
296.417
296.321
296.225
296.76
296.746
296.77
296.786
296.801
296.786
296.743
296.674
296.58
296.471
296.364
296.265
296.174
296.08
296.54
296.532
296.564
296.566
296.565
296.537
296.489
296.428
296.351
296.268
296.187
296.113
296.029
295.932
296.334
296.324
296.357
296.333
296.303
296.257
296.204
296.15
296.091
296.035
295.98
295.935
295.86
295.755
296.122
296.111
296.139
296.093
296.032
295.969
295.909
295.859
295.816
295.786
295.755
295.735
295.66
295.553
295.896
295.904
295.933
295.875
295.79
295.712
295.638
295.583
295.542
295.517
295.488
295.482
295.398
295.291
295.605
295.638
295.66
295.63
295.556
295.481
295.41
295.347
295.292
295.253
295.206
295.178
295.097
295.003
295.273
295.351
295.398
295.408
295.356
295.317
295.248
295.174
295.103
295.025
294.931
294.84
294.719
294.653
298.016
298.04
298.074
298.07
298.075
298.075
298.085
298.079
298.059
298.018
297.958
297.851
297.752
297.574
297.96
297.977
297.994
297.985
297.991
297.983
297.975
297.956
297.935
297.892
297.833
297.723
297.608
297.416
297.904
297.918
297.918
297.909
297.913
297.903
297.883
297.853
297.819
297.766
297.696
297.587
297.484
297.345
297.8
297.8
297.795
297.798
297.814
297.816
297.797
297.759
297.71
297.641
297.553
297.438
297.34
297.236
297.657
297.637
297.651
297.678
297.717
297.732
297.72
297.68
297.616
297.529
297.427
297.313
297.224
297.139
297.478
297.46
297.498
297.543
297.593
297.614
297.609
297.569
297.498
297.401
297.292
297.182
297.096
297.019
297.268
297.276
297.329
297.386
297.44
297.463
297.461
297.422
297.354
297.259
297.154
297.055
296.969
296.892
297.062
297.091
297.155
297.208
297.254
297.271
297.265
297.23
297.171
297.089
296.996
296.91
296.824
296.746
296.863
296.897
296.968
297.004
297.034
297.041
297.029
297
296.954
296.893
296.82
296.753
296.668
296.586
296.673
296.704
296.77
296.775
296.781
296.774
296.755
296.731
296.698
296.659
296.608
296.563
296.481
296.397
296.466
296.495
296.549
296.529
296.508
296.487
296.46
296.438
296.417
296.4
296.372
296.352
296.271
296.195
296.243
296.292
296.34
296.3
296.248
296.205
296.166
296.141
296.122
296.113
296.093
296.091
296.001
295.93
295.962
296.026
296.07
296.054
296.001
295.962
295.91
295.869
295.837
295.814
295.789
295.784
295.701
295.627
295.666
295.774
295.832
295.843
295.803
295.761
295.699
295.647
295.599
295.556
295.5
295.444
295.345
295.285
291.668
290.822
289.593
288.291
287.278
286.379
290.611
289.622
288.63
288.102
288.319
288.51
290.367
289.309
288.719
288.768
289.705
290.837
290.369
289.243
288.701
289.134
290.762
293.007
290.599
289.53
289.106
289.723
291.873
294.724
290.904
290.029
289.772
290.49
292.947
295.909
291.311
290.686
290.621
291.415
293.786
296.22
291.735
291.313
291.419
292.289
294.159
295.821
292.103
291.832
291.969
292.667
293.919
294.476
292.234
292.046
292.155
292.528
293.029
292.702
292.035
291.803
291.719
291.538
291.559
290.685
291.209
290.88
290.636
290.069
289.68
288.617
290.137
289.634
289.332
288.688
288.116
287.076
288.71
288.118
287.965
287.63
287.228
286.468
293.687
292.773
291.081
289.263
287.586
286.761
292.967
291.686
289.998
288.648
287.799
287.846
292.769
291.255
289.76
288.91
288.632
289.32
292.676
291.055
289.647
289.012
289.239
290.735
292.639
291.091
289.858
289.47
290.187
292.222
292.602
291.183
290.255
290.165
291.304
293.675
292.651
291.48
290.875
291.122
292.552
294.795
292.775
291.932
291.622
292.084
293.423
295.082
292.976
292.479
292.369
292.79
293.653
294.358
293.099
292.792
292.751
292.96
293.226
293.076
293.076
292.804
292.645
292.429
292.041
291.044
292.615
292.236
291.836
291.104
290.142
288.63
291.774
291.159
290.443
289.376
288.153
286.745
290.324
289.467
288.621
287.653
286.676
285.867
295.287
294.814
293.579
291.761
289.513
287.88
294.978
294.154
292.6
290.637
288.842
287.961
294.886
293.846
292.092
290.273
289.076
288.736
294.761
293.595
291.756
290.146
289.393
289.554
294.612
293.371
291.636
290.372
289.959
290.591
294.426
293.142
291.606
290.758
290.751
291.844
294.248
293.016
291.844
291.343
291.829
293.208
294.078
293.031
292.279
292.16
292.947
294.252
293.998
293.239
292.855
292.995
293.737
294.46
293.968
293.51
293.35
293.518
293.961
294.241
293.943
293.646
293.553
293.569
293.61
293.173
293.741
293.449
293.254
292.925
292.353
291.209
293.372
292.906
292.41
291.55
290.404
288.959
292.402
291.634
290.746
289.565
288.293
287.146
296.207
296.075
295.525
294.463
292.592
290.574
296.146
295.816
294.972
293.438
291.265
289.441
296.139
295.662
294.547
292.731
290.708
289.411
296.055
295.451
294.161
292.189
290.439
289.637
295.931
295.205
293.813
291.944
290.599
290.21
295.74
294.917
293.463
291.871
291.029
291.121
295.496
294.6
293.235
292.08
291.72
292.303
295.229
294.309
293.186
292.505
292.612
293.478
294.988
294.188
293.406
293.142
293.552
294.307
294.798
294.205
293.825
293.824
294.228
294.576
294.688
294.326
294.186
294.256
294.496
294.584
294.569
294.342
294.276
294.244
294.179
293.808
294.491
294.256
294.062
293.695
293.073