/*--------------------------------*- C++ -*----------------------------------*\
| =========                 |                                                 |
| \\      /  F ield         | OpenFOAM: The Open Source CFD Toolbox           |
|  \\    /   O peration     | Version:  v2106                                 |
|   \\  /    A nd           | Website:  www.openfoam.com                      |
|    \\/     M anipulation  |                                                 |
\*---------------------------------------------------------------------------*/
FoamFile
{
    version     2.0;
    format      ascii;
    arch        "LSB;label=32;scalar=64";
    class       volScalarField;
    location    "0.000182";
    object      epsilon;
}
// * * * * * * * * * * * * * * * * * * * * * * * * * * * * * * * * * * * * * //

dimensions      [0 2 -3 0 0 0 0];

internalField   nonuniform List<scalar> 
18109
(
240.381
129.453
77.4087
52.8209
43.995
44.0174
51.3165
93.9933
36.0653
18.2068
11.9795
10.1422
10.369
12.4784
41.9087
10.5229
3.7878
2.26947
1.94154
2.0497
2.69231
23.3098
4.39679
0.952936
0.395354
0.314969
0.362261
0.621929
16.8696
3.13325
0.541629
0.111378
0.0524604
0.0760048
0.225643
15.7014
3.12852
0.543923
0.0827897
0.0183834
0.0350795
0.156491
18.4456
3.75538
0.634819
0.0906427
0.0202921
0.0405704
0.177514
24.934
4.92443
0.803998
0.135036
0.0607422
0.0995405
0.302188
168.519
89.4271
50.9966
31.7231
23.2692
20.3776
21.5734
27.0015
41.7844
78.4587
168.539
377.368
830.807
1787.35
61.5859
22.588
10.6253
6.19607
4.53278
4.03845
4.49715
6.35166
12.4156
30.9996
84.4897
223.723
553.018
1281.65
26.1294
6.1228
1.95566
0.986733
0.712305
0.66065
0.857473
1.69283
4.84578
15.6342
48.9488
141.143
372.983
919.163
14.6738
2.70459
0.521148
0.157732
0.0950648
0.100583
0.202674
0.65958
2.4839
9.014
30.0863
91.8124
258.425
683.588
11.5114
2.20359
0.379338
0.063731
0.0169571
0.0223616
0.083956
0.371685
1.56394
5.99593
20.9182
66.961
199.085
557.574
11.8841
2.41176
0.419563
0.0612073
0.00941721
0.0121996
0.058538
0.279901
1.21798
4.79982
17.2389
56.9398
174.566
500.877
15.164
3.05848
0.50735
0.0704979
0.0128356
0.0163152
0.0638195
0.287959
1.23717
4.87207
17.5278
57.8326
176.048
497.525
21.4939
4.13799
0.654257
0.106434
0.0443937
0.0568072
0.128417
0.433834
1.66705
6.22908
21.5857
68.6032
200.439
541.42
31.4766
5.97382
1.05767
0.303156
0.232841
0.286322
0.452202
1.01064
3.00587
9.83824
31.3607
92.9668
254.572
645.821
48.6342
10.5384
2.75423
1.30734
1.15178
1.36168
1.88615
3.21348
7.05166
18.5722
51.508
138.299
348.728
823.207
85.4982
25.4014
9.91703
5.73475
4.962
5.63456
7.43166
11.2124
19.8588
41.5326
96.1936
227.689
521.927
1139.78
177.349
72.7929
35.8415
22.347
18.6945
20.3683
26.0622
37.2051
58.5342
102.784
198.971
408.034
840.924
1697.17
391.407
201.005
113.32
75.007
62.1133
65.4837
81.5021
112.529
166.126
261.677
439.797
783.614
1441.83
2686.68
847.858
498.009
307.299
217.359
183.53
190.488
230.976
309.196
437.041
642.081
972.85
1526.41
2492.55
4290.93
655.856
1527.16
3410.42
7275.48
15521.3
34896.6
489.97
1195.74
2774.13
6043.74
12941.9
28694.2
314.883
904.065
2351.36
5609.73
12946.3
30487.5
200.203
657.255
1903.22
5001.45
12492.1
31184.5
131.402
478.284
1521.96
4362.42
11660
30416.6
97.4085
375.555
1269.25
3861.88
10848
29597.7
84.4922
330.126
1139.91
3569.43
10309.3
28639.6
87.2751
334.596
1144.01
3567.22
10292.2
28506.3
104.761
384.844
1262.08
3778.13
10536.5
28316.1
148.376
510.934
1563.01
4365.68
11430.8
28860.1
238.125
751.887
2097.31
5337.54
12789.8
29779.4
416.564
1179.15
2960.48
6812.58
14888.7
31987
757.714
1898.43
4289.85
9034.95
18421.5
37358.8
1373.33
3045.76
6298.99
12546.1
24751.8
48566.2
2405.02
4796.77
9343.88
18086.1
34945.8
66217.9
3950.86
7073.24
12879.6
23855.4
44655.1
82589.5
2873.67
5814.94
11787.2
23876.7
47843.7
93034.7
2192.18
4962.01
11022.7
23916
50353.5
101031
1748
4341.76
10310
23335.9
50328.5
102272
1491.18
3911.01
9616.74
22187.7
48318.8
98837.8
1351.75
3613.23
8952.99
20659.4
44955.5
92340.5
1310.47
3451.94
8416.14
19129.8
41218.8
85596.2
1359.86
3433.89
8082.85
17907.4
38055.6
80479.4
1527.87
3631.54
8137.43
17439.5
36724
79109.6
1830.22
4059.21
8603.49
17796.6
37385.5
82502
2373.65
4889.91
9804.55
19695.1
41345.7
92027.6
3317.33
6353.08
12121.8
23806
49526.9
107395
4940.23
8839.4
16178.3
31061.4
62800.4
128983
7607
12816.8
22468.8
41418.7
79288.1
152695
5349.58
10100.5
20119.4
40433
81017.5
156569
4023.43
8150.11
16644.2
34701.1
72119
146287
3003.67
6361.64
13386.9
28564.8
61272.8
131924
2179.18
4826.98
10598.9
23474.9
51968.3
116514
1556.15
3621.25
8362.97
19280.7
44064
102885
1111.9
2718.71
6593.45
15788.2
37117.4
87995.1
812.195
2079.06
5255.31
12923.3
30899.1
74244.5
619.868
1643.51
4276.7
10693.2
25582.6
61847.1
514.567
1385.84
3632.05
9104.31
21657.4
53407.3
486.938
1290.21
3316.46
8126.86
19036.8
47433.3
548.047
1365.4
3327.15
7777.9
17608.1
44189.8
722.161
1634.22
3640.7
7983.19
17148.2
44370.3
1087.02
2237.68
4535.91
9204.43
19729
51983.8
1719.96
3271.52
6209.1
12030
25196.9
61316.4
105.227
371.869
1183.08
3374.03
8778.76
24300.6
137.828
428.039
1255.15
3356.73
8737.9
24511.1
195.159
508.966
1381.62
3692.4
9809.3
26984.6
328.162
735.846
1821.34
4822.52
12279.2
31600.4
1260.34
2559.43
5814.97
12609.9
27005.5
63528.9
783.204
1979.95
4982.79
11216.9
24802.9
60280.5
494.684
1513.21
4004.76
9306.53
21608.2
54853.1
327.777
1110.34
3042.96
7430.59
18353.7
48797.2
224.214
780.133
2212.58
5771.93
15321.3
42823.9
152.833
534.469
1575.24
4439.25
12663.8
37101.2
102.349
365.192
1142.13
3493.53
10537.2
31553.8
70.4819
262.702
888.523
2907.41
8975.57
26684.7
56.2953
219.196
781.663
2604.42
7892.59
22765.4
56.7991
220.421
775.525
2478.37
7091.54
19569.7
69.1561
251.581
827.454
2445.65
6517.31
17394.6
93.1445
301.318
910.275
2487.33
6380.24
17523.1
135.423
371.602
1041.12
2794.02
7333.47
20032.5
233.994
552.246
1420.22
3860.45
9811.21
24778.3
67731.3
277964
1.14932e+06
907526
557858
74374.1
317700
1.10974e+06
875095
542100
81051.4
348220
1.05876e+06
834503
546388
84992.5
357391
1.01525e+06
836206
578899
86224.3
346531
956560
837895
608162
83263.2
309871
844086
823394
626536
77669.6
267449
723951
798115
637482
70304.2
229027
632948
781102
644202
862953
67146
205320
573703
757457
647095
944400
65447.9
198851
546513
694157
606808
973905
66372.7
205078
545781
606499
526808
924999
1.57457e+06
73780.4
229547
566399
529063
431175
780012
1.77944e+06
2.45134e+06
91317.3
276545
616849
489042
379296
589637
1.64325e+06
5.52179e+06
117525
339893
686544
496278
391961
518025
852869
3.2652e+06
144598
394062
745992
526104
422290
533347
801865
3.50743e+06
167326
417703
768017
553158
445840
576785
856022
2.68765e+06
184443
428250
785644
594961
487056
634589
883560
3.23493e+06
187474
420934
804668
665082
549646
708831
827924
1.2216e+06
182524
406275
819595
725685
603910
788041
886721
725216
172172
388848
835083
760453
637455
867767
990336
615842
160864
380930
881478
771446
659063
962086
1.1432e+06
1.03817e+06
157053
396185
988719
773310
686944
1.07657e+06
1.3597e+06
811261
163962
442016
1.09437e+06
739025
710137
1.19408e+06
178968
511966
1.10627e+06
648384
688756
1.23596e+06
197722
567935
999321
529405
602018
1.20812e+06
219164
606918
891231
450444
486661
1.04289e+06
246093
643787
818387
420511
400761
777528
272840
691559
815236
459099
387956
282776
738100
835385
542001
438056
277204
737580
829070
609821
475484
278711
672782
815049
680013
525791
267136
577250
819228
783127
591914
248498
497278
834822
890002
646425
217267
426058
864680
970907
657563
184997
375556
944831
1.00813e+06
630555
157624
348047
1.12016e+06
1.04575e+06
619735
137241
341924
1.37671e+06
1.04883e+06
590340
120129
354088
1.59223e+06
965851
523983
110411
399643
1.61766e+06
848868
474143
113416
480351
1.50721e+06
810665
454315
130011
575201
1.3499e+06
816945
482823
146744
652275
1.29084e+06
873987
537384
156173
694598
1.27922e+06
917881
569701
163611
691177
1.20056e+06
894031
572324
169014
637768
1.08993e+06
878236
596290
165048
545262
992291
910689
646590
154635
454837
897185
955969
685919
136054
367071
776871
977246
691447
115079
293722
662513
973006
662263
94691.2
235712
592064
988462
639541
76806.6
190718
579349
1.0194e+06
612049
61559.7
158013
621301
1.01185e+06
559234
50655
144539
708285
947369
506080
46708
157125
830936
875074
479675
50133.8
190218
976154
844202
498459
59063.9
233239
1.10376e+06
875616
537862
137.664
75.9089
43.6305
26.1765
17.5832
13.4236
12.3575
14.1357
21.8676
43.9557
102.263
246.147
574.434
1287.87
46.7079
17.885
8.58406
4.76078
3.11771
2.37007
2.29183
3.07533
6.46279
17.9247
52.8659
148.467
384.024
919.766
18.7444
4.4827
1.46672
0.694824
0.43705
0.339385
0.398897
0.842623
2.71924
9.48882
31.2308
93.7439
256.639
650.835
10.6739
1.98891
0.383148
0.105123
0.0516081
0.0461372
0.0979563
0.360913
1.46189
5.53767
19.1069
60.1801
174.738
475.158
8.99758
1.74467
0.300919
0.0483623
0.00990507
0.0105763
0.0435408
0.205446
0.90197
3.58682
12.9442
42.8166
131.41
378.91
9.9834
2.01584
0.346668
0.0497408
0.00676651
0.00606838
0.0290341
0.144106
0.654298
2.69425
10.0953
34.719
110.648
329.213
13.3801
2.64555
0.429514
0.0585661
0.00991505
0.00935141
0.0309253
0.137548
0.613591
2.54079
9.62436
33.3782
106.525
314.455
19.5604
3.67054
0.563889
0.0891803
0.0363096
0.0421158
0.0759975
0.217342
0.811532
3.13611
11.4274
38.2808
117.68
333.033
29.3783
5.3937
0.909993
0.251171
0.194163
0.23504
0.333576
0.622301
1.63474
5.22201
17.0963
52.907
151.618
401.48
46.0571
9.43589
2.30112
1.06884
0.959722
1.14659
1.52998
2.36162
4.57307
11.1568
30.5492
83.7856
218.08
532.005
79.9355
21.976
8.10522
4.65236
4.11173
4.76283
6.2275
9.00332
14.8112
28.7841
64.1451
151.448
352.424
785.863
160.842
61.4433
29.0456
18.0292
15.4043
17.1918
22.0909
31.0518
47.197
79.1852
147.512
297.653
614.445
1254.94
346.18
168.23
91.6204
60.3394
51.0133
55.2147
69.584
95.9353
139.863
215.582
353.379
618.938
1133.39
2131.29
747.944
419.121
249.161
174.859
150.477
160.618
198.685
268.297
379.354
553.897
829.951
1285.15
2075.33
3575.06
72.9355
46.9124
30.0331
18.8304
12.374
8.6157
6.7581
6.14163
7.44201
13.3407
32.8363
89.9824
241.623
608.532
19.1972
9.26029
5.34627
3.16287
1.99646
1.34974
1.07268
1.07605
1.80396
5.07452
17.1537
56.0559
166.348
445.462
6.34243
1.79738
0.763273
0.407327
0.246451
0.165192
0.144814
0.222787
0.707036
2.83965
10.9028
37.6331
116.346
326.562
4.29524
0.83767
0.174729
0.0517289
0.0240478
0.0165748
0.0241183
0.0861478
0.406849
1.81255
7.21064
25.6612
82.7635
246.371
4.83924
0.934443
0.157208
0.0240337
0.00407993
0.00237448
0.00905516
0.0507088
0.264958
1.22796
5.06052
18.7744
63.6305
200.191
6.45699
1.23321
0.197982
0.0263967
0.00307279
0.00125407
0.00603997
0.0358258
0.191558
0.910406
3.87644
14.9633
52.9243
172.915
9.56801
1.74749
0.259762
0.032117
0.00463142
0.00285328
0.00698545
0.0316253
0.161634
0.774744
3.3733
13.3459
48.1817
159.012
14.7697
2.54162
0.34973
0.0477518
0.0172426
0.0182601
0.0258774
0.0555238
0.196668
0.844708
3.56072
13.8427
49.0367
157.858
22.8396
3.77675
0.539031
0.125735
0.0963983
0.116004
0.150777
0.224864
0.466507
1.40878
5.04077
17.8998
59.1073
178.589
35.8539
6.19873
1.20573
0.524805
0.499678
0.609791
0.792721
1.09821
1.75699
3.62836
9.64452
28.5827
83.5086
229.845
58.8982
12.7331
3.93011
2.32159
2.24165
2.69818
3.52545
4.84565
7.14466
11.9852
24.1808
57.1498
142.161
348.207
108.336
33.0869
14.0234
9.2528
8.76708
10.335
13.4588
18.4629
26.4392
40.3344
68.2507
132.113
277.816
602.308
218.898
91.1325
45.7814
32.1377
30.2314
35.0875
45.2965
61.713
86.9089
126.695
194.429
324.925
588.303
1140.77
477.141
240.342
131.828
97.6447
93.0668
107.625
137.826
185.784
257.454
364.116
524.617
781.344
1219.97
2075.52
24.5698
15.1515
9.76654
6.02871
3.85033
2.53987
1.9161
1.65475
1.84356
3.10417
7.91403
23.9941
72.7939
206.848
5.50734
2.51601
1.50101
0.88464
0.543795
0.342463
0.252643
0.226385
0.336793
0.978385
3.76931
14.1955
48.1312
144.738
1.97888
0.479423
0.185625
0.0948234
0.0551417
0.0336921
0.0260861
0.0347877
0.116642
0.550365
2.46895
9.76356
33.8556
103.854
1.91834
0.350387
0.0612106
0.0130135
0.00450865
0.00246838
0.00307298
0.012182
0.0696332
0.367907
1.69342
6.79837
24.0665
76.4293
2.61618
0.477193
0.0752068
0.0101316
0.00127487
0.000313597
0.00109942
0.00760784
0.0475922
0.257094
1.20558
4.96599
18.2631
61.3028
3.83983
0.678366
0.101795
0.0123922
0.00130601
0.000249779
0.000805786
0.00546776
0.0343431
0.188374
0.906117
3.87572
15.0025
53.5767
6.03264
1.01222
0.140117
0.0156275
0.0020005
0.00099827
0.00156001
0.0052985
0.0281795
0.152927
0.755482
3.36762
13.684
51.2227
9.66078
1.52411
0.192821
0.0226894
0.00730244
0.00777503
0.00993062
0.0150053
0.0380768
0.159022
0.752414
3.39188
14.0516
53.2526
15.2759
2.30315
0.287865
0.0552969
0.0424262
0.0533069
0.0684874
0.0898266
0.138472
0.321738
1.12619
4.5296
17.6826
63.8689
24.1163
3.69721
0.588147
0.230621
0.233976
0.299458
0.392287
0.518427
0.721476
1.19443
2.72548
8.28284
27.4893
88.8766
38.8784
7.16075
1.83367
1.07797
1.12132
1.41173
1.86269
2.49635
3.42416
5.0691
8.91228
20.1326
53.3071
147.232
70.0016
18.165
6.79988
4.61071
4.67661
5.7365
7.52909
10.1384
13.873
19.7226
30.4778
55.5352
118.307
276.942
140.488
51.7848
23.9819
17.3937
17.3301
20.7548
26.8655
35.9352
48.8082
67.9827
98.5314
156.593
279.139
562.326
301.645
145.798
75.9787
58.0032
57.7205
68.266
87.2202
115.378
154.763
211.601
294.319
425.656
647.603
1092.19
4.72592
2.54628
1.61943
1.02866
0.663953
0.445253
0.331312
0.273211
0.266857
0.375964
0.935487
3.21613
11.5436
38.6726
1.20256
0.376191
0.197023
0.119036
0.0742647
0.0485259
0.0354171
0.0291123
0.0348149
0.0948049
0.425003
1.91786
7.68923
26.9227
0.727068
0.126315
0.0268294
0.0101492
0.0054426
0.00342019
0.00255511
0.00290684
0.00967602
0.0548952
0.298263
1.4018
5.66988
19.8988
0.935585
0.161407
0.0230815
0.00326731
0.000540252
0.000175543
0.000183056
0.00085249
0.00615603
0.0399404
0.220337
1.03784
4.21585
14.971
1.38062
0.239076
0.0335318
0.00421452
0.000447446
4.90247e-05
6.75467e-05
0.00058352
0.00455472
0.0298595
0.165763
0.788744
3.26321
11.9622
2.09776
0.350643
0.0461543
0.00524797
0.000511488
7.33344e-05
8.42734e-05
0.000475926
0.00347484
0.0227152
0.127538
0.620238
2.65954
10.2878
3.31907
0.530875
0.0640406
0.00655514
0.000800171
0.00042485
0.000515927
0.000896395
0.00332328
0.0188266
0.10557
0.532006
2.41133
10.0032
5.26126
0.797477
0.0880951
0.00937562
0.00308564
0.00353894
0.00452214
0.00575881
0.00885456
0.0242632
0.109217
0.542917
2.55329
11.0798
8.28615
1.19344
0.129739
0.0225678
0.0182512
0.024208
0.0317062
0.0402737
0.0520584
0.0816082
0.20626
0.80163
3.49349
14.684
13.0799
1.87957
0.253538
0.0946018
0.101579
0.135393
0.179352
0.232347
0.298641
0.408159
0.700104
1.8074
6.20861
22.8596
20.5215
3.48667
0.766813
0.456305
0.497446
0.643675
0.850342
1.11427
1.44738
1.92941
2.85451
5.47145
14.0325
42.2612
34.5019
8.55345
2.92577
2.07388
2.17464
2.69458
3.49837
4.57325
5.96265
7.90835
11.0338
17.8516
35.8528
87.4435
63.7462
24.3247
11.0807
8.52391
8.65906
10.2603
12.9291
16.5933
21.4269
28.2331
38.3222
56.4677
95.0333
192.472
137.84
71.4542
38.6973
31.5576
31.7048
36.368
44.3947
55.3462
69.7549
90.2092
119.594
166.348
245.644
413.795
0.612093
0.23103
0.130565
0.0828696
0.0538261
0.036874
0.0285798
0.0234339
0.0206601
0.0237545
0.0561878
0.226174
0.982118
3.94232
0.252502
0.0449387
0.0125441
0.00633508
0.00392863
0.00268867
0.00213023
0.00178879
0.00191156
0.00496915
0.0264212
0.144366
0.689635
2.84022
0.240981
0.0398833
0.0056764
0.000857274
0.000217572
0.000108174
8.6087e-05
0.000106623
0.000429939
0.00305204
0.0201769
0.113445
0.542387
2.22316
0.35004
0.0618525
0.00903039
0.00112779
0.000132994
1.41447e-05
4.86603e-06
3.12617e-05
0.000295746
0.0023737
0.0158639
0.0892006
0.426498
1.75214
0.531083
0.0937351
0.0134844
0.0016104
0.000176855
1.61839e-05
3.80148e-06
2.44126e-05
0.000234342
0.00189225
0.0127099
0.0718191
0.345661
1.43585
0.810533
0.139011
0.0188013
0.00203741
0.000207719
2.61218e-05
1.50465e-05
3.22125e-05
0.000197728
0.00151071
0.0101598
0.0580364
0.284136
1.21162
1.25794
0.208861
0.0260404
0.00255053
0.000299795
0.000128826
0.000143117
0.000176247
0.000323254
0.00139834
0.00853242
0.0490368
0.248012
1.11189
1.91591
0.31121
0.035546
0.0034748
0.000913509
0.000959189
0.00119868
0.00143062
0.00173891
0.0028722
0.00957503
0.0482823
0.247861
1.17344
2.83369
0.456185
0.050502
0.00708111
0.00483034
0.006315
0.0081066
0.0098906
0.0117461
0.0147159
0.0249149
0.07705
0.342309
1.58979
4.13277
0.688283
0.0897365
0.0259973
0.0263494
0.0351091
0.0454702
0.0566276
0.0684711
0.0833754
0.11278
0.219973
0.693625
2.75628
6.10457
1.18493
0.242108
0.122085
0.130403
0.168731
0.217665
0.274349
0.337385
0.414193
0.530919
0.827949
1.87479
5.86182
9.92665
2.69147
0.88909
0.569732
0.586162
0.721574
0.913126
1.15026
1.42706
1.77144
2.24501
3.1621
5.66198
13.883
18.8766
7.57308
3.45261
2.47202
2.43784
2.83052
3.45512
4.27677
5.2854
6.59878
8.37006
11.2586
17.2996
34.2658
43.6261
22.9192
12.7995
9.86527
9.50751
10.4702
12.1839
14.5435
17.5879
21.8169
27.6743
36.5352
51.0985
84.4065
0.0894073
0.0185779
0.00657256
0.00371475
0.00246861
0.00184228
0.00162541
0.00146003
0.00128493
0.00128069
0.00291204
0.0143278
0.0754503
0.353972
0.0519112
0.00804369
0.00112976
0.000212431
8.80813e-05
6.44552e-05
6.34842e-05
6.44309e-05
7.81026e-05
0.000242828
0.00158821
0.0102825
0.0570488
0.269866
0.060184
0.0107882
0.00162766
0.000211516
2.58946e-05
3.5068e-06
1.53887e-06
2.97012e-06
1.85685e-05
0.000164096
0.00128663
0.00845575
0.0468087
0.220377
0.0890265
0.0170254
0.00270177
0.000360755
4.26418e-05
4.28223e-06
4.7556e-07
1.20621e-06
1.34514e-05
0.00012973
0.0010304
0.00680799
0.0378662
0.179062
0.131956
0.0253663
0.00393496
0.000505152
5.64172e-05
5.42658e-06
6.75959e-07
1.11896e-06
1.07955e-05
0.000104073
0.00083532
0.00557486
0.0312936
0.149367
0.194806
0.036764
0.00535857
0.000631351
6.52463e-05
7.53738e-06
3.0693e-06
3.61023e-06
1.12936e-05
8.5306e-05
0.000673457
0.0045409
0.025864
0.125607
0.28981
0.053326
0.00721965
0.000773716
8.39372e-05
2.62816e-05
2.68376e-05
3.06815e-05
3.90104e-05
0.000100335
0.0005836
0.0038132
0.02206
0.11035
0.423002
0.0755533
0.00955378
0.000984922
0.000191398
0.000172347
0.000213649
0.00024971
0.000281992
0.000356525
0.000803304
0.0037493
0.020843
0.10754
0.597417
0.103881
0.0127592
0.00162608
0.00086124
0.00111038
0.0014236
0.00170092
0.00194213
0.00222049
0.00294194
0.00675558
0.0280693
0.137858
0.828088
0.144594
0.0198272
0.00476264
0.00456799
0.0062237
0.00804252
0.00978245
0.011398
0.0130979
0.015652
0.0241382
0.0634195
0.251445
1.16315
0.227525
0.0454881
0.0206517
0.0227398
0.0304357
0.0392252
0.0482938
0.0572634
0.0669221
0.0791477
0.10661
0.202881
0.606461
1.83595
0.487711
0.156209
0.0960071
0.103358
0.132271
0.168026
0.207698
0.249365
0.296352
0.353548
0.45311
0.711897
1.64763
3.58249
1.38599
0.61287
0.426171
0.434481
0.522877
0.644747
0.790731
0.954138
1.14952
1.39061
1.75423
2.4577
4.58667
8.78645
4.36965
2.36744
1.76631
1.71676
1.92885
2.2692
2.71527
3.25463
3.94922
4.84338
6.12497
8.06973
12.7367
0.0185501
0.0031709
0.00065819
0.000258385
0.000161623
0.000132877
0.000133986
0.000133628
0.000124447
0.000119014
0.000254922
0.00141211
0.00835754
0.0428348
0.0117188
0.00197019
0.000280962
3.75847e-05
7.22005e-06
4.23052e-06
5.2458e-06
6.67348e-06
8.70482e-06
2.30599e-05
0.000151114
0.00107141
0.00651049
0.0334886
0.0145508
0.00282171
0.000465713
6.60037e-05
8.48864e-06
1.04177e-06
2.98771e-07
4.21855e-07
1.69084e-06
1.4246e-05
0.000122044
0.000886997
0.00539852
0.0277561
0.0215165
0.00436855
0.000749946
0.000108579
1.37869e-05
1.48152e-06
1.57273e-07
1.17936e-07
1.04913e-06
1.10149e-05
9.73789e-05
0.000714943
0.00439085
0.0228195
0.0312982
0.00631288
0.00106098
0.000148087
1.7906e-05
1.84236e-06
2.17543e-07
1.4121e-07
8.61464e-07
8.77039e-06
7.84967e-05
0.000584803
0.00364393
0.0192091
0.0448301
0.00878911
0.00139269
0.000180028
2.0314e-05
2.33391e-06
7.72946e-07
7.52862e-07
1.33753e-06
7.55504e-06
6.33075e-05
0.000475565
0.00301526
0.0162053
0.0642861
0.0121728
0.00179572
0.000213273
2.44604e-05
6.27361e-06
5.85055e-06
6.55042e-06
7.4662e-06
1.26924e-05
5.81819e-05
0.000399191
0.00254632
0.0140024
0.0905219
0.0165022
0.0022756
0.000259609
4.6288e-05
3.59052e-05
4.39809e-05
5.10217e-05
5.65651e-05
6.45888e-05
0.000107208
0.000411817
0.00235548
0.013052
0.123801
0.0218171
0.00290078
0.00038824
0.000178304
0.000222575
0.000285341
0.000338116
0.000381511
0.000422676
0.000501244
0.00089178
0.00320864
0.015947
0.166761
0.0292433
0.00420099
0.000984493
0.000900007
0.00123428
0.00159669
0.00192381
0.00221293
0.00248868
0.0028248
0.00376437
0.00806641
0.0297474
0.227913
0.0440905
0.00878103
0.00392805
0.00441229
0.00603157
0.00779678
0.00951393
0.0111287
0.0127499
0.014541
0.0179887
0.0292129
0.0784749
0.354227
0.0913931
0.0285373
0.0176842
0.0198643
0.0262515
0.0336197
0.0413075
0.048949
0.0570423
0.065963
0.0799319
0.112544
0.23565
0.707307
0.259795
0.110977
0.0773462
0.0824334
0.103414
0.129766
0.159321
0.190382
0.225185
0.264633
0.32018
0.415934
0.715146
1.8025
0.835652
0.432665
0.318821
0.320341
0.376333
0.455523
0.5518
0.659889
0.789147
0.942518
1.15156
1.43893
2.14322
0.00377073
0.000660316
0.000126059
4.14709e-05
2.50021e-05
2.24564e-05
2.4869e-05
2.67105e-05
2.60657e-05
2.29674e-05
3.09029e-05
0.000141091
0.000877012
0.00478232
0.00255767
0.000462367
7.20002e-05
1.03221e-05
1.8955e-06
1.02543e-06
1.31491e-06
1.73943e-06
2.10238e-06
3.2685e-06
1.49282e-05
0.000107807
0.000700879
0.00384879
0.00337587
0.000692799
0.000122398
1.86056e-05
2.54806e-06
3.3474e-07
1.01057e-07
1.18072e-07
2.43229e-07
1.35251e-06
1.15946e-05
9.03842e-05
0.000591684
0.00325928
0.00507163
0.001078
0.000196649
3.03324e-05
4.09651e-06
4.71321e-07
5.9586e-08
2.95179e-08
1.04783e-07
9.83524e-07
9.25141e-06
7.34901e-05
0.00048759
0.00272835
0.00733942
0.00154268
0.000275674
4.10644e-05
5.30318e-06
5.80645e-07
7.33769e-08
3.44975e-08
9.05141e-08
7.85842e-07
7.46836e-06
6.03715e-05
0.000408024
0.00232657
0.010334
0.0020988
0.000355183
4.93336e-05
5.96232e-06
6.79034e-07
1.75253e-07
1.47489e-07
1.93923e-07
7.36298e-07
6.07246e-06
4.92106e-05
0.000339155
0.00197729
0.014481
0.00282178
0.000447231
5.74609e-05
6.81856e-06
1.37325e-06
1.07934e-06
1.17038e-06
1.26949e-06
1.71498e-06
6.03817e-06
4.15286e-05
0.000285303
0.00169681
0.019916
0.00371741
0.000553806
6.79293e-05
1.07521e-05
6.59175e-06
7.79565e-06
8.89344e-06
9.64661e-06
1.03786e-05
1.43557e-05
4.53546e-05
0.000260237
0.00153043
0.0266178
0.00477999
0.000685324
9.27079e-05
3.40659e-05
3.96013e-05
5.03528e-05
5.8702e-05
6.48644e-05
6.94903e-05
7.71332e-05
0.000115544
0.000359705
0.00178175
0.035002
0.00618849
0.000929122
0.000198104
0.000161983
0.00022052
0.000283981
0.000336377
0.000378468
0.000413187
0.00045033
0.000546055
0.000991976
0.00334164
0.0463543
0.00880279
0.00171547
0.000706004
0.000789069
0.00109155
0.00140699
0.00168821
0.00193036
0.00214964
0.00236808
0.00275538
0.00396307
0.00947705
0.0694951
0.0169698
0.00505821
0.00306379
0.00356186
0.00481877
0.00617538
0.00747363
0.00865961
0.009815
0.0109827
0.0127087
0.0164317
0.0310078
0.136707
0.0465702
0.0190752
0.0132323
0.0147568
0.0191644
0.0242385
0.0294535
0.0344908
0.0397199
0.0451931
0.0526035
0.0642605
0.10153
0.352856
0.150237
0.0742972
0.0542153
0.0568311
0.0697361
0.0860051
0.103979
0.122435
0.142875
0.165343
0.194944
0.232497
0.324883
0.000696201
0.000126823
2.49921e-05
8.11092e-06
5.03654e-06
4.83948e-06
5.63758e-06
6.3015e-06
6.35067e-06
5.47039e-06
4.91056e-06
1.35223e-05
8.23776e-05
0.000476223
0.000505616
9.67836e-05
1.61701e-05
2.49079e-06
4.82203e-07
2.68224e-07
3.47855e-07
4.67075e-07
5.56091e-07
6.32589e-07
1.50842e-06
9.7742e-06
6.72912e-05
0.000394396
0.000706719
0.000151848
2.82544e-05
4.54427e-06
6.61968e-07
1.00413e-07
3.89412e-08
4.285e-08
5.88206e-08
1.4789e-07
1.01143e-06
8.24274e-06
5.79268e-05
0.000341769
0.00108029
0.000239196
4.57029e-05
7.42239e-06
1.05996e-06
1.369e-07
2.7177e-08
1.77585e-08
2.31561e-08
9.23489e-08
7.96577e-07
6.74403e-06
4.82809e-05
0.000290783
0.00156136
0.000341509
6.38696e-05
1.00386e-05
1.37282e-06
1.66388e-07
2.98863e-08
1.79829e-08
2.13473e-08
7.56591e-08
6.44177e-07
5.5469e-06
4.05817e-05
0.000250333
0.00216725
0.000457421
8.11046e-05
1.19659e-05
1.53352e-06
1.83539e-07
4.45726e-08
3.4252e-08
3.6949e-08
7.84898e-08
5.29664e-07
4.51416e-06
3.37363e-05
0.000213683
0.00297511
0.000601605
0.00010003
1.37406e-05
1.68706e-06
2.81577e-07
1.74615e-07
1.80119e-07
1.88529e-07
2.19536e-07
5.79459e-07
3.83139e-06
2.82497e-05
0.000182503
0.00400655
0.00077595
0.000121388
1.58429e-05
2.28058e-06
1.03937e-06
1.15033e-06
1.28627e-06
1.36762e-06
1.41284e-06
1.7247e-06
4.49294e-06
2.55402e-05
0.000160554
0.00524154
0.00097669
0.000146447
2.00313e-05
5.7389e-06
5.9225e-06
7.42583e-06
8.51902e-06
9.23719e-06
9.62674e-06
1.01992e-05
1.34219e-05
3.61699e-05
0.000178814
0.00673658
0.00122753
0.000187578
3.60745e-05
2.49579e-05
3.32617e-05
4.26052e-05
4.96772e-05
5.48223e-05
5.83256e-05
6.15168e-05
6.9449e-05
0.000109402
0.000334761
0.00863049
0.00164235
0.000304967
0.000111327
0.0001207
0.000168068
0.000216037
0.000255293
0.000286213
0.000310685
0.000332007
0.000366965
0.000476725
0.00101393
0.0123114
0.00286812
0.000790255
0.000459869
0.000550286
0.000759301
0.000973279
0.00116146
0.00131927
0.00145715
0.00158155
0.00175383
0.00210736
0.00359198
0.0231662
0.00733669
0.00282467
0.00195931
0.00229783
0.0030817
0.00392043
0.00471176
0.00541356
0.00607419
0.00669871
0.00750449
0.00867451
0.0126303
0.0592952
0.0232824
0.010885
0.00797722
0.00885073
0.0113627
0.0142276
0.0171093
0.0198123
0.0225336
0.0252568
0.0286998
0.0327356
0.0429193
0.000115257
2.16843e-05
4.48399e-06
1.51572e-06
1.00896e-06
1.03647e-06
1.25306e-06
1.44126e-06
1.49181e-06
1.29877e-06
9.71302e-07
1.38045e-06
7.06171e-06
4.30264e-05
8.97019e-05
1.78906e-05
3.16263e-06
5.26591e-07
1.17225e-07
7.4026e-08
9.46157e-08
1.24995e-07
1.47907e-07
1.5171e-07
1.92619e-07
8.2911e-07
5.81913e-06
3.65276e-05
0.000132458
2.93559e-05
5.68178e-06
9.65793e-07
1.55929e-07
3.44088e-08
2.08291e-08
2.19715e-08
2.49094e-08
3.17795e-08
9.53596e-08
6.84436e-07
5.0889e-06
3.22859e-05
0.000206639
4.69998e-05
9.29585e-06
1.58577e-06
2.44699e-07
4.27092e-08
1.7741e-08
1.54672e-08
1.58283e-08
2.0726e-08
7.39224e-08
5.63147e-07
4.28146e-06
2.7841e-05
0.000299702
6.72104e-05
1.29995e-05
2.1484e-06
3.15414e-07
4.96852e-08
1.82447e-08
1.5323e-08
1.53796e-08
1.91476e-08
6.21307e-08
4.65998e-07
3.61391e-06
2.41579e-05
0.000412122
8.89904e-05
1.63362e-05
2.54568e-06
3.50069e-07
5.25475e-08
2.00163e-08
1.72793e-08
1.72799e-08
2.00722e-08
5.404e-08
3.81834e-07
3.0096e-06
2.07155e-05
0.000556732
0.000114904
1.98131e-05
2.88522e-06
3.7458e-07
6.39925e-08
3.58368e-08
3.49895e-08
3.54309e-08
3.69936e-08
6.34431e-08
3.2952e-07
2.51817e-06
1.76655e-05
0.000737424
0.000145529
2.36566e-05
3.25664e-06
4.51762e-07
1.57939e-07
1.57343e-07
1.71133e-07
1.77982e-07
1.7808e-07
1.97296e-07
4.1703e-07
2.27117e-06
1.52703e-05
0.000948502
0.000179909
2.79867e-05
3.88688e-06
8.95108e-07
7.81474e-07
9.56456e-07
1.07945e-06
1.14761e-06
1.16492e-06
1.18617e-06
1.41222e-06
3.31092e-06
1.63485e-05
0.00119607
0.000220749
3.43299e-05
6.03822e-06
3.40754e-06
4.36897e-06
5.55576e-06
6.38183e-06
6.9047e-06
7.15754e-06
7.31366e-06
7.7999e-06
1.08958e-05
3.0341e-05
0.00148627
0.000280368
4.98763e-05
1.58301e-05
1.62041e-05
2.25747e-05
2.89118e-05
3.36617e-05
3.6986e-05
3.91092e-05
4.05405e-05
4.28592e-05
5.11314e-05
9.73972e-05
0.00200402
0.000442015
0.000111571
6.13278e-05
7.48913e-05
0.000104849
0.000134211
0.000157855
0.00017568
0.000188946
0.000198876
0.000211992
0.000239017
0.000370984
0.00351544
0.00102801
0.000369876
0.000257701
0.000317656
0.000437179
0.000557407
0.000661149
0.000744463
0.00081308
0.000868944
0.000937809
0.00103069
0.00139271
0.00869971
0.00315355
0.0013978
0.00104517
0.00123496
0.00164847
0.00208238
0.00247974
0.00281766
0.00311879
0.00338444
0.00370538
0.00404775
0.00500022
1.71626e-05
3.32303e-06
7.31475e-07
2.71559e-07
2.00806e-07
2.18851e-07
2.69828e-07
3.15162e-07
3.31995e-07
2.94635e-07
2.11986e-07
1.8249e-07
5.90966e-07
3.61782e-06
1.43369e-05
2.95352e-06
5.52149e-07
1.06388e-07
3.45618e-08
2.74745e-08
3.23734e-08
3.93204e-08
4.46876e-08
4.48837e-08
4.24352e-08
8.31863e-08
4.79756e-07
3.14074e-06
2.23126e-05
5.0523e-06
1.01232e-06
1.87767e-07
4.12016e-08
1.86497e-08
1.61308e-08
1.6458e-08
1.70934e-08
1.77132e-08
2.17747e-08
6.55673e-08
4.24858e-07
2.82724e-06
3.55803e-05
8.23842e-06
1.67547e-06
3.04862e-07
5.83885e-08
2.02519e-08
1.53896e-08
1.49362e-08
1.49709e-08
1.53072e-08
1.89807e-08
5.59018e-08
3.61659e-07
2.46713e-06
5.18934e-05
1.18237e-05
2.34883e-06
4.11397e-07
7.23302e-08
2.16926e-08
1.54805e-08
1.48792e-08
1.4854e-08
1.50953e-08
1.80639e-08
4.84973e-08
3.07492e-07
2.1531e-06
7.0816e-05
1.55051e-05
2.92748e-06
4.83477e-07
7.89231e-08
2.21679e-08
1.56647e-08
1.50788e-08
1.50462e-08
1.52142e-08
1.75395e-08
4.21165e-08
2.57757e-07
1.85101e-06
9.42451e-05
1.9682e-05
3.4979e-06
5.3999e-07
8.24015e-08
2.32518e-08
1.73028e-08
1.69224e-08
1.69042e-08
1.6926e-08
1.86536e-08
3.8409e-08
2.16927e-07
1.57531e-06
0.000122845
2.44962e-05
4.10958e-06
5.96964e-07
9.10335e-08
3.32802e-08
3.04171e-08
3.14534e-08
3.18182e-08
3.13287e-08
3.20458e-08
4.76498e-08
1.96074e-07
1.34156e-06
0.000155345
2.97798e-05
4.77233e-06
6.80926e-07
1.40589e-07
1.0286e-07
1.1932e-07
1.31095e-07
1.36001e-07
1.34609e-07
1.32451e-07
1.449e-07
2.87624e-07
1.38208e-06
0.000192358
3.581e-05
5.65482e-06
9.37191e-07
4.29708e-07
5.1663e-07
6.47247e-07
7.30792e-07
7.7356e-07
7.80752e-07
7.73115e-07
7.86599e-07
9.91042e-07
2.51398e-06
0.000232941
4.35632e-05
7.49504e-06
2.06903e-06
1.9437e-06
2.68606e-06
3.41863e-06
3.91904e-06
4.21543e-06
4.33938e-06
4.36196e-06
4.43308e-06
4.91756e-06
8.46477e-06
0.000297857
6.24173e-05
1.44514e-05
7.38127e-06
9.08128e-06
1.28247e-05
1.63569e-05
1.89473e-05
2.06442e-05
2.16106e-05
2.20536e-05
2.26568e-05
2.41386e-05
3.44288e-05
0.000480404
0.00012996
4.3605e-05
3.05484e-05
3.93348e-05
5.51573e-05
7.0228e-05
8.20639e-05
9.04645e-05
9.612e-05
9.95271e-05
0.0001036
0.000108637
0.000137271
0.00112589
0.000379154