/*--------------------------------*- C++ -*----------------------------------*\
| =========                 |                                                 |
| \\      /  F ield         | OpenFOAM: The Open Source CFD Toolbox           |
|  \\    /   O peration     | Version:  v2106                                 |
|   \\  /    A nd           | Website:  www.openfoam.com                      |
|    \\/     M anipulation  |                                                 |
\*---------------------------------------------------------------------------*/
FoamFile
{
    version     2.0;
    format      ascii;
    arch        "LSB;label=32;scalar=64";
    class       volScalarField;
    location    "0.000182";
    object      k;
}
// * * * * * * * * * * * * * * * * * * * * * * * * * * * * * * * * * * * * * //

dimensions      [0 2 -2 0 0 0 0];

internalField   nonuniform List<scalar> 
18109
(
0.0193054
0.0107228
0.00656494
0.00451993
0.0037079
0.00357766
0.00399507
0.00762736
0.0030353
0.00158062
0.00105614
0.000884762
0.000874889
0.00101113
0.00348391
0.000914968
0.000338947
0.000205182
0.000173746
0.000177967
0.000226228
0.00208459
0.000425945
9.53362e-05
3.78182e-05
2.89178e-05
3.23012e-05
5.46609e-05
0.00166156
0.000339207
6.22203e-05
1.24372e-05
5.14447e-06
7.03821e-06
2.07576e-05
0.00163924
0.000349135
6.33859e-05
9.83956e-06
2.00338e-06
3.32129e-06
1.43519e-05
0.00193484
0.000410985
7.16835e-05
1.04942e-05
2.23257e-06
3.78847e-06
1.55273e-05
0.00254314
0.000518478
8.69095e-05
1.50425e-05
6.70283e-06
9.727e-06
2.60078e-05
0.0136085
0.00746476
0.00439133
0.00279924
0.00206787
0.00177837
0.00180386
0.00215192
0.00324537
0.00611779
0.0133017
0.0298757
0.064948
0.134904
0.00503469
0.00191691
0.000936347
0.000563978
0.00041864
0.000368074
0.000393316
0.00053096
0.00102052
0.00256105
0.00699203
0.0183373
0.0442504
0.0979602
0.00221501
0.000544238
0.000179098
9.24263e-05
6.76749e-05
6.20538e-05
7.75007e-05
0.000148346
0.000421947
0.00135677
0.00419932
0.0118444
0.0301562
0.0699214
0.00137447
0.000276363
5.54328e-05
1.61454e-05
9.34361e-06
9.64683e-06
1.88919e-05
6.06517e-05
0.000226243
0.000808619
0.00263467
0.00775493
0.0206981
0.0507266
0.00119403
0.000248246
4.5003e-05
7.61186e-06
1.84712e-06
2.2021e-06
8.085e-06
3.52534e-05
0.00014536
0.000541929
0.00182
0.00553708
0.0154067
0.0397178
0.00127872
0.000273209
4.91925e-05
7.35105e-06
1.10427e-06
1.22749e-06
5.67269e-06
2.64149e-05
0.00011132
0.000421525
0.00144117
0.00448611
0.0128368
0.03411
0.00160608
0.000335637
5.72567e-05
8.1639e-06
1.48087e-06
1.66123e-06
5.99893e-06
2.58674e-05
0.000106662
0.000401515
0.00137301
0.00428355
0.0122812
0.0326235
0.00219267
0.00043499
7.05577e-05
1.18679e-05
5.05243e-06
6.02892e-06
1.20717e-05
3.70785e-05
0.000134449
0.000479951
0.00159103
0.00483188
0.0134777
0.0347572
0.00306672
0.000594121
0.000106904
3.24017e-05
2.6032e-05
3.09547e-05
4.45543e-05
8.80554e-05
0.00023807
0.000734551
0.00224389
0.00640705
0.0169226
0.0414414
0.00448471
0.000969674
0.000255839
0.000132377
0.000124766
0.000146216
0.000191044
0.000296011
0.000584901
0.00142217
0.00374349
0.00967683
0.0236157
0.0540575
0.00741991
0.00216363
0.000861875
0.000546783
0.000513982
0.000591469
0.000753325
0.001066
0.00173979
0.00335995
0.00732102
0.0165899
0.0367283
0.0777241
0.014634
0.00590359
0.00296798
0.00200196
0.00182759
0.00205928
0.00259596
0.00355321
0.00528071
0.0087096
0.0159199
0.0311665
0.0618099
0.120423
0.0312113
0.0157819
0.00900391
0.00631566
0.0056648
0.00626445
0.00783076
0.0105588
0.0150093
0.022609
0.0362923
0.061919
0.109369
0.195464
0.0657314
0.0379939
0.0234845
0.017232
0.0154898
0.0169124
0.0209168
0.0278322
0.0385271
0.0549817
0.0805813
0.121878
0.19083
0.311616
0.0517539
0.117051
0.249356
0.491968
0.929638
1.77557
0.0388894
0.0922347
0.204408
0.413234
0.787384
1.49084
0.0256564
0.0708977
0.173602
0.376708
0.759897
1.52501
0.0166735
0.0520566
0.139598
0.32792
0.711308
1.52953
0.0110951
0.0378976
0.11006
0.279509
0.652475
1.49147
0.00820618
0.0293745
0.0898406
0.242345
0.602098
1.46165
0.00695219
0.0250944
0.0784232
0.219853
0.571391
1.43412
0.00687912
0.0244174
0.0762642
0.216603
0.572678
1.44755
0.00789763
0.0271045
0.0824993
0.229326
0.594705
1.46688
0.0109074
0.0354743
0.102222
0.268748
0.65861
1.5253
0.0175344
0.0527659
0.140009
0.337419
0.755939
1.60321
0.0311245
0.0844359
0.20241
0.440355
0.891929
1.72278
0.0572555
0.137592
0.295674
0.581993
1.07996
1.93683
0.103535
0.21877
0.423966
0.771696
1.35561
2.33537
0.177205
0.331309
0.591059
1.02367
1.74911
2.94736
0.278303
0.459748
0.756918
1.2529
2.09855
3.51494
0.202597
0.372499
0.675177
1.21892
2.19595
3.89429
0.151556
0.308826
0.613091
1.19464
2.28481
4.21614
0.117043
0.262142
0.562173
1.15927
2.29921
4.32584
0.0964774
0.230789
0.520505
1.11037
2.2462
4.26724
0.0849546
0.210484
0.486274
1.05148
2.14208
4.08602
0.08083
0.200689
0.462944
0.996555
2.02078
3.87763
0.0834554
0.201417
0.453515
0.957809
1.91684
3.71098
0.0947313
0.217336
0.469043
0.960247
1.89184
3.67135
0.116635
0.251061
0.51347
1.00987
1.95278
3.78909
0.156935
0.313972
0.604311
1.13672
2.14234
4.10736
0.226933
0.419518
0.75706
1.35861
2.47953
4.61805
0.342443
0.582946
0.987295
1.69394
2.98235
5.337
0.515635
0.812333
1.29626
2.12342
3.58151
6.14023
0.387028
0.677319
1.19255
2.07813
3.64595
6.31699
0.303269
0.564555
1.0135
1.82292
3.31688
6.02335
0.233171
0.451368
0.83217
1.53709
2.90366
5.58784
0.173455
0.348978
0.669239
1.2887
2.53415
5.09718
0.12653
0.2653
0.533842
1.07718
2.20653
4.63143
0.0918762
0.200712
0.424362
0.89754
1.90979
4.09433
0.0676027
0.153592
0.340203
0.748414
1.63721
3.56635
0.0513031
0.120618
0.278139
0.631264
1.39867
3.07216
0.0415967
0.100277
0.237299
0.548861
1.22194
2.7272
0.0378651
0.0918316
0.218334
0.5027
1.11108
2.4921
0.0410121
0.0962861
0.222346
0.49603
1.06456
2.37965
0.0531984
0.116096
0.249508
0.52734
1.07504
2.40964
0.0806947
0.161968
0.319498
0.624381
1.237
2.69948
0.130142
0.241761
0.444196
0.811341
1.50761
3.00137
0.00864961
0.0286707
0.0857752
0.231571
0.570196
1.41769
0.0110431
0.0329819
0.0928257
0.238313
0.584355
1.43945
0.0156112
0.0397226
0.104609
0.268205
0.654371
1.53503
0.0262167
0.0576549
0.138524
0.34575
0.784798
1.69195
0.0973962
0.193607
0.421171
0.840664
1.56187
3.02552
0.0624434
0.15461
0.369652
0.754016
1.42491
2.86254
0.0409597
0.122101
0.304426
0.631482
1.23918
2.6265
0.0283377
0.0926739
0.236787
0.50747
1.05298
2.37176
0.0202519
0.0674651
0.176041
0.395805
0.881695
2.11834
0.0143932
0.047788
0.127376
0.304212
0.733038
1.87189
0.0100091
0.0334057
0.0923212
0.237383
0.615633
1.63305
0.00705158
0.0239581
0.0701082
0.195001
0.531816
1.42289
0.00553094
0.0191741
0.0593376
0.173542
0.478233
1.25626
0.00520747
0.0181328
0.0571905
0.166731
0.44442
1.12452
0.00585348
0.0197841
0.0606406
0.16867
0.425598
1.04055
0.00755261
0.0234092
0.0676711
0.177342
0.432331
1.06433
0.0108969
0.0291288
0.0791321
0.204396
0.499121
1.18312
0.0187936
0.0434709
0.108563
0.279081
0.639015
1.36937
2.95976
9.96551
33.8751
27.9666
19.4013
3.18888
11.3353
32.8626
27.1956
19.0294
3.45155
12.4087
31.4841
26.2619
19.1784
3.64027
12.8092
30.1965
26.2713
20.0255
3.73754
12.5697
28.5771
26.2976
20.7811
3.68552
11.5511
25.8192
26.0187
21.2711
3.52248
10.3026
22.8915
25.5434
21.5863
3.28272
9.09778
20.5921
25.2628
21.8102
25.8296
3.18463
8.25608
19.0464
24.8251
21.924
27.6101
3.12646
7.9271
18.3766
23.4303
21.0519
28.405
3.1352
8.0137
18.4918
21.4131
19.2931
27.7191
39.2515
3.34431
8.69937
19.2686
19.5576
17.1453
25.0815
44.4535
52.6748
3.89553
10.1296
20.9179
18.5573
15.9722
21.3378
42.8375
112.121
4.75864
12.1165
23.092
18.777
16.3792
19.7702
26.9184
85.144
5.68896
13.8962
24.8906
19.6353
17.2377
20.0618
25.3742
82.8808
6.51527
14.8451
25.6055
20.4522
17.9118
21.0788
26.1617
69.4209
7.18334
15.394
26.0287
21.6733
19.0605
22.4119
26.5532
57.4531
7.40351
15.3408
26.3308
23.599
20.751
24.0913
25.4007
40.9136
7.32819
14.9277
26.4959
25.2233
22.131
25.7321
25.9229
31.9005
7.04296
14.3199
26.7332
26.1612
22.882
27.278
27.2576
26.2379
6.68836
13.9106
27.8004
26.4653
23.2547
29.0864
29.8986
22.5131
6.53043
14.1097
30.3937
26.4642
23.7115
31.3323
33.9157
20.9161
6.68018
15.1962
33.056
25.5131
23.9842
33.3684
7.07214
17.0768
33.644
23.1342
23.2207
33.9945
7.61311
18.7907
31.5255
20.0783
21.1724
33.651
8.29183
20.1734
29.2899
18.0377
18.6198
30.8011
9.17857
21.5524
27.7779
17.2278
16.7365
25.7786
10.08
23.2036
27.7919
18.2665
16.5438
10.4967
24.8175
28.1966
20.5332
17.9278
10.471
25.1886
27.896
22.3235
18.9082
10.6749
23.5372
27.305
24.104
20.1992
10.4638
20.7261
26.9635
26.5952
21.851
9.9475
18.1628
26.79
29.0357
23.1092
8.96162
15.8295
26.9971
30.8256
23.2123
7.86331
14.0713
28.5211
31.6414
22.3443
6.87631
12.9711
32.413
32.452
21.8501
6.10428
12.5085
38.3616
32.4502
20.8944
5.44639
12.6265
43.7472
30.5284
19.0796
5.02308
13.7743
45.3091
27.8386
17.7687
4.99934
16.0683
43.6824
26.9237
17.3586
5.43215
18.9428
40.4714
27.0644
18.1429
5.94082
21.4434
38.8697
28.3468
19.5239
6.28732
22.9478
38.1868
29.2243
20.2821
6.608
23.0639
36.0667
28.5238
20.279
6.86845
21.6612
33.1422
27.9745
20.8087
6.81384
19.0471
30.3361
28.453
21.9601
6.50223
16.3466
27.5496
29.179
22.8042
5.88305
13.6771
24.2912
29.4415
22.8575
5.14367
11.3774
21.237
29.2793
22.1299
4.39441
9.49118
19.2287
29.6462
21.5516
3.71337
7.96558
18.6528
30.4163
20.8439
3.11425
6.78169
19.5258
30.3742
19.5312
2.65892
6.14004
21.7067
29.0333
18.2123
2.43527
6.29779
25.0302
27.4088
17.5658
2.46512
7.18451
29.1275
26.6564
17.9933
2.70082
8.4982
32.6913
27.3157
18.9329
0.0111002
0.00631641
0.00374363
0.00230704
0.00157549
0.00120296
0.00107854
0.00117514
0.00174764
0.00348924
0.00817884
0.0197153
0.0454799
0.0989687
0.00382318
0.00151651
0.000754904
0.000433724
0.000291466
0.000223198
0.000210376
0.000268318
0.000545855
0.00150616
0.00443103
0.0123182
0.0311825
0.0718163
0.00160495
0.000401382
0.000134516
6.52788e-05
4.21568e-05
3.3054e-05
3.76932e-05
7.6248e-05
0.000241723
0.000836172
0.002718
0.00799357
0.0211665
0.0508552
0.0010261
0.000208074
4.14488e-05
1.09568e-05
5.19106e-06
4.57555e-06
9.39284e-06
3.38745e-05
0.000135483
0.000505435
0.00170558
0.00519832
0.0143755
0.0364096
0.000954379
0.00019916
3.59356e-05
5.84869e-06
1.12754e-06
1.07037e-06
4.28081e-06
1.98944e-05
8.57334e-05
0.000332352
0.00115796
0.00365102
0.0105129
0.0279459
0.00108272
0.000228778
4.05918e-05
5.96564e-06
8.09484e-07
6.32652e-07
2.9029e-06
1.40612e-05
6.19713e-05
0.000245639
0.000877057
0.00284226
0.0084418
0.0231978
0.001416
0.000289596
4.83116e-05
6.75912e-06
1.15856e-06
1.0047e-06
3.06035e-06
1.29621e-05
5.54233e-05
0.000219009
0.000786363
0.00256881
0.00768706
0.021233
0.00198743
0.000384392
6.05801e-05
9.91475e-06
4.16675e-06
4.6357e-06
7.60968e-06
1.9656e-05
6.8465e-05
0.000251132
0.000871172
0.00277602
0.00811297
0.021844
0.00284726
0.000534523
9.16884e-05
2.67974e-05
2.18034e-05
2.58354e-05
3.42816e-05
5.74708e-05
0.000135531
0.000402109
0.00125162
0.00371437
0.0102371
0.026119
0.00422717
0.000866709
0.000212939
0.000108011
0.00010424
0.000124099
0.000158227
0.000226114
0.000396133
0.000881854
0.00226574
0.00594602
0.0149321
0.0352707
0.006919
0.00186771
0.00070024
0.000442381
0.000426596
0.000502007
0.000637581
0.000873045
0.00133472
0.00239283
0.00497883
0.0111819
0.0250377
0.0540073
0.0132466
0.00496411
0.00239011
0.0016101
0.00150668
0.00174093
0.00220975
0.00299204
0.00431884
0.0068237
0.011981
0.0229921
0.0455381
0.0896567
0.0275534
0.0131579
0.00723818
0.00506274
0.00464774
0.0052777
0.00668457
0.00901824
0.0126932
0.0187519
0.0293804
0.0492329
0.0864451
0.155849
0.0578554
0.0318666
0.0189493
0.0138105
0.01267
0.0142175
0.0179186
0.0240515
0.0333371
0.0473485
0.0687197
0.102703
0.159261
0.260697
0.00585238
0.00386851
0.00254245
0.00162601
0.00107792
0.000750169
0.000580879
0.000510692
0.000592313
0.00104547
0.00260066
0.00717113
0.0191045
0.047017
0.00157837
0.000781889
0.000464942
0.000283194
0.000182569
0.000124913
9.86615e-05
9.54178e-05
0.000152802
0.000424739
0.00143398
0.00464674
0.0135329
0.0350719
0.000570099
0.000164903
6.94846e-05
3.76158e-05
2.33235e-05
1.59551e-05
1.3914e-05
2.04869e-05
6.3025e-05
0.000250453
0.000950485
0.00321945
0.00965651
0.0258266
0.000452263
9.39352e-05
1.93925e-05
5.3441e-06
2.38476e-06
1.64796e-06
2.34918e-06
8.13369e-06
3.78356e-05
0.000166149
0.000647542
0.00223485
0.0068834
0.0191487
0.000537754
0.000109265
1.89335e-05
2.91643e-06
4.73009e-07
2.44964e-07
8.97171e-07
4.946e-06
2.54062e-05
0.00011502
0.000458545
0.00162384
0.00516487
0.0149645
0.000705299
0.000139698
2.30377e-05
3.14486e-06
3.7123e-07
1.36128e-07
6.14927e-07
3.56207e-06
1.85246e-05
8.48623e-05
0.00034426
0.00124936
0.00410056
0.0123074
0.0010049
0.000189536
2.89286e-05
3.67306e-06
5.43662e-07
3.22163e-07
7.26211e-07
3.10111e-06
1.51356e-05
6.89627e-05
0.000282981
0.00104665
0.00351386
0.0107709
0.00148336
0.000263292
3.7189e-05
5.2661e-06
1.9916e-06
2.06446e-06
2.75177e-06
5.36411e-06
1.73542e-05
6.96545e-05
0.000276414
0.00101244
0.00338224
0.0102974
0.00218937
0.000371466
5.39796e-05
1.33698e-05
1.08871e-05
1.29207e-05
1.60525e-05
2.22046e-05
4.12166e-05
0.000111948
0.000372537
0.00125456
0.00395965
0.0114863
0.00326932
0.000569683
0.000111087
5.29852e-05
5.4452e-05
6.6401e-05
8.3387e-05
0.000109403
0.000161459
0.00030031
0.000727239
0.002024
0.005658
0.0150275
0.00509248
0.0010821
0.00033607
0.000220214
0.000232504
0.000284413
0.000363048
0.000478669
0.00066686
0.00103785
0.00192655
0.00424892
0.0100493
0.0236746
0.00891376
0.00265057
0.00113732
0.000820649
0.000852735
0.00103898
0.00134066
0.00178541
0.00245314
0.00355223
0.0056546
0.0103037
0.0205785
0.0427441
0.017332
0.007032
0.00355463
0.00266234
0.00272089
0.00329898
0.00428301
0.00574164
0.00786165
0.0110519
0.0162492
0.0259121
0.0447755
0.0829876
0.0366255
0.0179978
0.00983204
0.00756924
0.00768303
0.00927664
0.0120697
0.0162191
0.0221517
0.0306431
0.0429496
0.0619154
0.0931238
0.151366
0.00197623
0.00126377
0.000846556
0.000542266
0.000355613
0.000237035
0.000176734
0.000146685
0.000152521
0.000243484
0.00062057
0.00190303
0.00577364
0.0162171
0.000458443
0.000214802
0.000132542
8.13829e-05
5.19021e-05
3.35916e-05
2.49176e-05
2.15791e-05
2.96794e-05
8.2568e-05
0.000316444
0.00118626
0.00397881
0.0117521
0.000192053
4.73181e-05
1.75292e-05
8.97143e-06
5.38797e-06
3.41219e-06
2.66953e-06
3.36612e-06
1.05875e-05
4.90545e-05
0.000218007
0.000851656
0.00290026
0.00865437
0.000214404
4.1539e-05
7.2969e-06
1.45895e-06
4.70992e-07
2.56236e-07
3.1084e-07
1.1698e-06
6.56525e-06
3.43053e-05
0.000155775
0.000613431
0.00210996
0.00641079
0.000295354
5.62382e-05
9.11289e-06
1.2516e-06
1.57184e-07
3.4827e-08
1.10883e-07
7.55984e-07
4.67409e-06
2.4865e-05
0.000114082
0.000455189
0.00159734
0.00500968
0.000419411
7.66656e-05
1.18019e-05
1.47223e-06
1.58508e-07
2.89997e-08
8.4744e-08
5.62344e-07
3.46538e-06
1.8527e-05
8.59643e-05
0.000349642
0.00126421
0.00413738
0.000630838
0.000109285
1.55225e-05
1.77828e-06
2.34965e-07
1.15859e-07
1.71029e-07
5.50753e-07
2.81937e-06
1.46706e-05
6.86762e-05
0.000286076
0.00107223
0.00367008
0.00096474
0.000157101
2.0397e-05
2.48756e-06
8.46933e-07
8.8951e-07
1.08959e-06
1.55138e-06
3.64055e-06
1.41303e-05
6.24542e-05
0.000262261
0.00100944
0.00355903
0.00145599
0.000225741
2.87441e-05
5.84493e-06
4.80699e-06
5.97899e-06
7.40852e-06
9.24283e-06
1.31948e-05
2.7445e-05
8.69572e-05
0.000325563
0.00119906
0.00411415
0.00219041
0.000340052
5.38914e-05
2.30362e-05
2.54419e-05
3.26755e-05
4.15922e-05
5.26922e-05
6.9236e-05
0.000105081
0.000214722
0.000596463
0.00186376
0.00576393
0.00335526
0.000608662
0.000154075
0.000100306
0.000115021
0.000148009
0.000191927
0.000248608
0.000325959
0.000453932
0.000734924
0.00152292
0.00376988
0.00991712
0.00574558
0.00144381
0.000537757
0.000397694
0.000444844
0.000567589
0.000743348
0.0009785
0.00129409
0.00175963
0.00256843
0.00437936
0.00876459
0.0195006
0.0110455
0.00393915
0.00181034
0.00139191
0.00150782
0.00189617
0.0024873
0.00329952
0.00438942
0.0059306
0.00826696
0.0125276
0.0212199
0.0407211
0.0228923
0.0107285
0.00550384
0.00432627
0.00456585
0.00564789
0.00737686
0.0098044
0.0130722
0.0176067
0.0239541
0.0336152
0.049344
0.0798798
0.000386145
0.000216671
0.000144084
9.59701e-05
6.48203e-05
4.51718e-05
3.42357e-05
2.77929e-05
2.53388e-05
3.19062e-05
7.52507e-05
0.000259371
0.000932826
0.00310442
0.000104398
3.34011e-05
1.7879e-05
1.12677e-05
7.37772e-06
5.05238e-06
3.80841e-06
3.12224e-06
3.43367e-06
8.3812e-06
3.65612e-05
0.000163995
0.000652633
0.00226141
7.60221e-05
1.4188e-05
2.90907e-06
1.02626e-06
5.53212e-07
3.62834e-07
2.80288e-07
3.06047e-07
9.15839e-07
5.02027e-06
2.70054e-05
0.000125797
0.000503186
0.00174006
0.000106878
1.96611e-05
2.91672e-06
4.14761e-07
6.51749e-08
1.96353e-08
1.94018e-08
8.40796e-08
5.9472e-07
3.82386e-06
2.08999e-05
9.72925e-05
0.000388972
0.00134995
0.000156486
2.83323e-05
4.09809e-06
5.27628e-07
5.71577e-08
6.17463e-09
7.05233e-09
5.94866e-08
4.60515e-07
2.98996e-06
1.6387e-05
7.6586e-05
0.000308628
0.00108727
0.000229492
3.97617e-05
5.3804e-06
6.27246e-07
6.26109e-08
8.93389e-09
9.35867e-09
5.07405e-08
3.65308e-07
2.35221e-06
1.29296e-05
6.09701e-05
0.000249877
0.00090551
0.000348011
5.74976e-05
7.12724e-06
7.49749e-07
9.4843e-08
5.00805e-08
5.82993e-08
9.72103e-08
3.51825e-07
1.94568e-06
1.05183e-05
5.03287e-05
0.000212792
0.00080851
0.000527792
8.2495e-05
9.35377e-06
1.03036e-06
3.60929e-07
4.09431e-07
5.03981e-07
6.14509e-07
9.01097e-07
2.34705e-06
9.97866e-06
4.63385e-05
0.000201399
0.000802403
0.000794313
0.000117537
1.29849e-05
2.37181e-06
2.07593e-06
2.73974e-06
3.47374e-06
4.23314e-06
5.20438e-06
7.58727e-06
1.73565e-05
6.16661e-05
0.000249828
0.000983699
0.00119629
0.00017434
2.32043e-05
9.31878e-06
1.10245e-05
1.48616e-05
1.92255e-05
2.401e-05
2.95078e-05
3.798e-05
5.94137e-05
0.000137528
0.000434444
0.00150796
0.00178731
0.000299721
6.37783e-05
4.16084e-05
5.05603e-05
6.75633e-05
8.83685e-05
0.000112569
0.000140736
0.000178699
0.000247163
0.00043315
0.00101879
0.00287778
0.00285759
0.000684447
0.000227724
0.000174372
0.00020311
0.000264989
0.000346908
0.000446848
0.00056636
0.000722637
0.000958946
0.00145362
0.00271609
0.00622401
0.00503395
0.00184843
0.000821533
0.000662444
0.000732815
0.000922777
0.0011945
0.00153852
0.00196134
0.00251783
0.00329525
0.00463042
0.00737187
0.0141373
0.0104537
0.00522622
0.0027504
0.00228208
0.00242198
0.00293199
0.0037141
0.00473064
0.00600594
0.0077084
0.0100177
0.0134949
0.0191468
0.0308678
5.20297e-05
2.03608e-05
1.2029e-05
8.0289e-06
5.50048e-06
3.97835e-06
3.22801e-06
2.72368e-06
2.37388e-06
2.43888e-06
4.93292e-06
1.90463e-05
8.22822e-05
0.000327978
2.38443e-05
4.49249e-06
1.24296e-06
6.28967e-07
4.07476e-07
2.95065e-07
2.45767e-07
2.12919e-07
2.1726e-07
4.77356e-07
2.37223e-06
1.28032e-05
6.07093e-05
0.000247956
2.71351e-05
4.91006e-06
7.35812e-07
1.09243e-07
2.53864e-08
1.22529e-08
1.00593e-08
1.20375e-08
4.25287e-08
2.89242e-07
1.89193e-06
1.05546e-05
5.00307e-05
0.00020303
4.14089e-05
7.73969e-06
1.17191e-06
1.50271e-07
1.8029e-08
1.91295e-09
5.57155e-10
3.16814e-09
2.95042e-08
2.35102e-07
1.55992e-06
8.69772e-06
4.11653e-05
0.00016696
6.17081e-05
1.13253e-05
1.6759e-06
2.05225e-07
2.30175e-08
2.14136e-09
4.4632e-10
2.57805e-09
2.45105e-08
1.96525e-07
1.30906e-06
7.31954e-06
3.47415e-05
0.000141536
9.07948e-05
1.60617e-05
2.2281e-06
2.47642e-07
2.58407e-08
3.27727e-09
1.77892e-09
3.59014e-09
2.15986e-08
1.6358e-07
1.08761e-06
6.11478e-06
2.92647e-05
0.000120679
0.000135216
2.30654e-05
2.94735e-06
2.96582e-07
3.61465e-08
1.56592e-08
1.67105e-08
1.97316e-08
3.53635e-08
1.53165e-07
9.23159e-07
5.16587e-06
2.50986e-05
0.000106243
0.000197386
3.28479e-05
3.84144e-06
3.88036e-07
1.09559e-07
1.14783e-07
1.38163e-07
1.58045e-07
1.84284e-07
2.96282e-07
9.73616e-07
4.73607e-06
2.29342e-05
0.000100561
0.000279549
4.59103e-05
5.16307e-06
7.58804e-07
5.6856e-07
7.41431e-07
9.20732e-07
1.07834e-06
1.22516e-06
1.46117e-06
2.32502e-06
6.69107e-06
2.77136e-05
0.000119751
0.000389709
6.54958e-05
8.45249e-06
2.62775e-06
2.97536e-06
4.01308e-06
5.0691e-06
6.08288e-06
7.04921e-06
8.17948e-06
1.0371e-05
1.8377e-05
5.26131e-05
0.000194635
0.000547829
0.000104879
2.06783e-05
1.1452e-05
1.38464e-05
1.85405e-05
2.36427e-05
2.89214e-05
3.42232e-05
4.01836e-05
4.87748e-05
7.03584e-05
0.000144756
0.00041844
0.000844031
0.000220842
7.06052e-05
4.92732e-05
5.73425e-05
7.4783e-05
9.53905e-05
0.000118089
0.000142032
0.000169465
0.000204971
0.00027193
0.000451153
0.00102801
0.00152212
0.000586694
0.000260367
0.000197182
0.000215957
0.000269911
0.000339933
0.000421561
0.000511849
0.00061939
0.000755226
0.000968091
0.00140272
0.00261296
0.00336858
0.00170402
0.000924314
0.000729923
0.000756623
0.000896305
0.00109697
0.00134388
0.00163081
0.00199002
0.00245159
0.00311293
0.00415683
0.00653267
8.0021e-06
1.72631e-06
6.3338e-07
3.75405e-07
2.64237e-07
2.09585e-07
1.94762e-07
1.8241e-07
1.64379e-07
1.53759e-07
2.8066e-07
1.26244e-06
6.55689e-06
3.05089e-05
5.41234e-06
9.18987e-07
1.38084e-07
2.53618e-08
9.99462e-09
7.56992e-09
7.85725e-09
8.29726e-09
9.66205e-09
2.45288e-08
1.47845e-07
9.43959e-07
5.19788e-06
2.43942e-05
7.3182e-06
1.40742e-06
2.23057e-07
2.99579e-08
3.72972e-09
4.95644e-10
2.03612e-10
3.53584e-10
1.89242e-09
1.60471e-08
1.24578e-07
8.13068e-07
4.46765e-06
2.08554e-05
1.10995e-05
2.20905e-06
3.60929e-07
4.93626e-08
5.95208e-09
6.08656e-10
6.56614e-11
1.28341e-10
1.38414e-09
1.32462e-08
1.04558e-07
6.8612e-07
3.78616e-06
1.77362e-05
1.60372e-05
3.16809e-06
5.03277e-07
6.60942e-08
7.5365e-09
7.38265e-10
8.92985e-11
1.24764e-10
1.16401e-09
1.1142e-08
8.88555e-08
5.88535e-07
3.27304e-06
1.54371e-05
2.27629e-05
4.38958e-06
6.53928e-07
7.88345e-08
8.33452e-09
9.76513e-10
3.78829e-10
4.20474e-10
1.27108e-09
9.54051e-09
7.48208e-08
4.99647e-07
2.80888e-06
1.33945e-05
3.2461e-05
6.08811e-06
8.41934e-07
9.24399e-08
1.03685e-08
3.30493e-09
3.24467e-09
3.55069e-09
4.35869e-09
1.12771e-08
6.62663e-08
4.28414e-07
2.42573e-06
1.17499e-05
4.53973e-05
8.25491e-06
1.0656e-06
1.1314e-07
2.36238e-08
2.14152e-08
2.55376e-08
2.85894e-08
3.0928e-08
3.79123e-08
8.62182e-08
4.03965e-07
2.18096e-06
1.06945e-05
6.1397e-05
1.08473e-05
1.35449e-06
1.81064e-07
1.06102e-07
1.35996e-07
1.68133e-07
1.92611e-07
2.10465e-07
2.30119e-07
2.9204e-07
6.46174e-07
2.57469e-06
1.1936e-05
8.13598e-05
1.43282e-05
1.96489e-06
5.11208e-07
5.47425e-07
7.47142e-07
9.36301e-07
1.09451e-06
1.22136e-06
1.34102e-06
1.52208e-06
2.18678e-06
5.27323e-06
1.94758e-05
0.000108663
2.10157e-05
4.10935e-06
2.08717e-06
2.5987e-06
3.55004e-06
4.4812e-06
5.3269e-06
6.06201e-06
6.77619e-06
7.63289e-06
9.65062e-06
1.6812e-05
4.62054e-05
0.000161974
4.15916e-05
1.30541e-05
8.99445e-06
1.10434e-05
1.47831e-05
1.86852e-05
2.24894e-05
2.60253e-05
2.96461e-05
3.37859e-05
4.10425e-05
6.00616e-05
0.000128689
0.000298535
0.000111153
4.84491e-05
3.67809e-05
4.25326e-05
5.48617e-05
6.88195e-05
8.33705e-05
9.77611e-05
0.000113369
0.000131424
0.000158129
0.000209295
0.000366662
0.00070032
0.000335948
0.000178731
0.000140584
0.00015156
0.00018522
0.000227435
0.000274716
0.000324678
0.00038234
0.000451534
0.000547104
0.000686829
0.00102899
1.73265e-06
3.09666e-07
6.68141e-08
2.71928e-08
1.80488e-08
1.58601e-08
1.68612e-08
1.75786e-08
1.69423e-08
1.56525e-08
2.6088e-08
1.27555e-07
7.41715e-07
3.7717e-06
1.32342e-06
2.42536e-07
3.74351e-08
5.25277e-09
9.74628e-10
5.46014e-10
6.96683e-10
9.17406e-10
1.17277e-09
2.51131e-09
1.44393e-08
1.00326e-07
6.05255e-07
3.09183e-06
1.8707e-06
3.82329e-07
6.55698e-08
9.55611e-09
1.2534e-09
1.54973e-10
4.27874e-11
5.67881e-11
1.8797e-10
1.43115e-09
1.20366e-08
8.68806e-08
5.25418e-07
2.68234e-06
2.78838e-06
5.83067e-07
1.02531e-07
1.51643e-08
1.96193e-09
2.14767e-10
2.30925e-11
1.43186e-11
1.11233e-10
1.14468e-09
1.00541e-08
7.33894e-08
4.47823e-07
2.30995e-06
3.92964e-06
8.09665e-07
1.389e-07
1.97914e-08
2.44032e-09
2.55873e-10
3.01133e-11
1.72607e-11
9.53589e-11
9.55356e-10
8.49986e-09
6.29418e-08
3.89398e-07
2.03471e-06
5.39948e-06
1.07756e-06
1.74073e-07
2.29782e-08
2.64839e-09
3.09332e-10
9.83501e-11
9.04476e-11
1.53731e-10
8.58742e-10
7.16955e-09
5.34977e-08
3.36107e-07
1.78442e-06
7.41661e-06
1.42753e-06
2.14621e-07
2.6059e-08
3.0783e-09
8.06587e-10
7.24206e-10
7.75668e-10
8.48843e-10
1.43012e-09
6.72263e-09
4.61733e-08
2.90862e-07
1.56755e-06
1.00058e-05
1.8532e-06
2.60391e-07
3.05167e-08
5.81089e-09
4.57136e-09
5.38529e-09
5.98223e-09
6.34932e-09
6.98457e-09
1.16208e-08
4.60304e-08
2.61606e-07
1.40554e-06
1.31078e-05
2.34412e-06
3.16871e-07
4.44394e-08
2.25988e-08
2.8027e-08
3.45837e-08
3.92665e-08
4.23984e-08
4.4944e-08
5.11829e-08
8.89529e-08
3.15603e-07
1.51487e-06
1.68863e-05
2.98708e-06
4.31745e-07
1.10425e-07
1.12301e-07
1.53055e-07
1.91284e-07
2.21164e-07
2.43546e-07
2.6187e-07
2.83583e-07
3.56976e-07
7.12862e-07
2.47231e-06
2.19412e-05
4.20454e-06
8.29663e-07
4.22089e-07
5.31618e-07
7.32102e-07
9.20675e-07
1.08128e-06
1.2123e-06
1.32835e-06
1.44628e-06
1.69388e-06
2.54687e-06
6.29916e-06
3.21365e-05
8.03245e-06
2.49783e-06
1.78063e-06
2.2716e-06
3.08917e-06
3.89341e-06
4.62977e-06
5.27207e-06
5.88175e-06
6.50087e-06
7.49614e-06
9.89984e-06
1.92205e-05
6.04881e-05
2.14368e-05
9.18288e-06
7.21147e-06
8.77801e-06
1.16226e-05
1.46059e-05
1.75253e-05
2.02267e-05
2.29558e-05
2.58226e-05
2.98303e-05
3.6727e-05
5.93729e-05
0.000147593
6.61482e-05
3.41534e-05
2.74013e-05
3.11637e-05
3.95496e-05
4.90893e-05
5.90504e-05
6.88429e-05
7.93652e-05
9.09597e-05
0.000106357
0.000126681
0.000179124
3.66085e-07
6.71716e-08
1.33613e-08
4.53153e-09
2.8936e-09
2.7736e-09
3.227e-09
3.61791e-09
3.67215e-09
3.27166e-09
3.62668e-09
1.32049e-08
7.92191e-08
4.28588e-07
3.06419e-07
5.97614e-08
9.9617e-09
1.49246e-09
2.68382e-10
1.37167e-10
1.78875e-10
2.4482e-10
3.01391e-10
4.1452e-10
1.49719e-09
1.02687e-08
6.61774e-08
3.61257e-07
4.51182e-07
9.64544e-08
1.75799e-08
2.73723e-09
3.81783e-10
5.06335e-11
1.49128e-11
1.71466e-11
3.15722e-11
1.43351e-10
1.1632e-09
8.98028e-09
5.84596e-08
3.20155e-07
6.75312e-07
1.46984e-07
2.73776e-08
4.30517e-09
5.91907e-10
6.94782e-11
9.07214e-12
4.35999e-12
1.2265e-11
1.04492e-10
9.68318e-10
7.64877e-09
5.048e-08
2.80777e-07
9.43444e-07
2.01948e-07
3.67619e-08
5.58095e-09
7.34293e-10
8.21043e-11
1.06484e-11
4.87547e-12
1.08898e-11
8.73305e-11
8.19645e-10
6.58932e-09
4.42856e-08
2.50841e-07
1.2729e-06
2.62654e-07
4.52416e-08
6.40676e-09
7.89988e-10
9.18187e-11
2.32264e-11
1.85518e-11
2.32129e-11
8.51402e-11
6.97222e-10
5.6213e-09
3.84864e-08
2.22474e-07
1.70822e-06
3.37884e-07
5.4496e-08
7.14581e-09
8.70211e-10
1.79608e-10
1.36415e-10
1.41482e-10
1.47157e-10
1.94534e-10
7.04033e-10
4.89507e-09
3.3414e-08
1.96227e-07
2.25144e-06
4.26498e-07
6.46575e-08
8.12506e-09
1.36014e-09
8.53926e-10
9.72124e-10
1.06203e-09
1.10298e-09
1.1404e-09
1.56579e-09
5.17548e-09
3.00769e-08
1.74127e-07
2.88403e-06
5.25348e-07
7.6582e-08
1.08002e-08
4.38866e-09
5.08789e-09
6.22056e-09
6.9474e-09
7.34785e-09
7.53482e-09
8.03596e-09
1.18207e-08
3.71627e-08
1.82204e-07
3.63068e-06
6.48453e-07
9.84613e-08
2.28734e-08
2.08001e-08
2.79955e-08
3.47398e-08
3.94564e-08
4.24985e-08
4.43825e-08
4.62497e-08
5.33815e-08
9.16673e-08
2.94913e-07
4.57718e-06
8.6511e-07
1.68949e-07
7.96105e-08
9.89065e-08
1.36343e-07
1.70147e-07
1.96122e-07
2.14826e-07
2.2884e-07
2.41009e-07
2.66847e-07
3.58909e-07
7.94793e-07
6.4664e-06
1.53776e-06
4.62656e-07
3.28243e-07
4.29234e-07
5.88398e-07
7.35953e-07
8.58681e-07
9.54582e-07
1.03539e-06
1.10802e-06
1.22335e-06
1.4925e-06
2.622e-06
1.19685e-05
3.94849e-06
1.64846e-06
1.32415e-06
1.68184e-06
2.26393e-06
2.83074e-06
3.33745e-06
3.76129e-06
4.15008e-06
4.51867e-06
5.02736e-06
5.8382e-06
8.69831e-06
2.95738e-05
1.2208e-05
6.12075e-06
5.01961e-06
6.01226e-06
7.84579e-06
9.74875e-06
1.15607e-05
1.31768e-05
1.47704e-05
1.6377e-05
1.84768e-05
2.10279e-05
2.79353e-05
6.99713e-08
1.33593e-08
2.73548e-09
9.10465e-10
5.96839e-10
6.09429e-10
7.43343e-10
8.65891e-10
9.08748e-10
8.09779e-10
6.72811e-10
1.35994e-09
7.57533e-09
4.33229e-08
6.35464e-08
1.29996e-08
2.30153e-09
3.67953e-10
6.98772e-11
3.67243e-11
4.81091e-11
6.66358e-11
8.18355e-11
9.0984e-11
1.68507e-10
9.5142e-10
6.43869e-09
3.75272e-08
9.72765e-08
2.1599e-08
4.12484e-09
6.77574e-10
1.00469e-10
1.54638e-11
5.95794e-12
6.52269e-12
8.72742e-12
1.80431e-11
1.04635e-10
8.29794e-10
5.79474e-09
3.40195e-08
1.46943e-07
3.31938e-08
6.46068e-09
1.06794e-09
1.55228e-10
2.05745e-11
4.29882e-12
2.86484e-12
3.43857e-12
1.07751e-11
8.50595e-11
7.10374e-10
5.05909e-09
3.03194e-08
2.04599e-07
4.54818e-08
8.65128e-09
1.38378e-09
1.92764e-10
2.40368e-11
4.59878e-12
2.85703e-12
3.18996e-12
9.19975e-12
7.20957e-11
6.12664e-10
4.45852e-09
2.73586e-08
2.72e-07
5.82461e-08
1.04981e-08
1.57689e-09
2.06141e-10
2.54389e-11
6.39187e-12
4.84221e-12
5.04151e-12
9.7827e-12
6.20332e-11
5.22221e-10
3.88027e-09
2.4424e-08
3.57604e-07
7.33186e-08
1.23914e-08
1.73451e-09
2.1812e-10
3.76071e-11
2.28541e-11
2.26066e-11
2.27408e-11
2.56838e-11
6.83991e-11
4.58205e-10
3.36899e-09
2.15906e-08
4.6167e-07
9.06493e-08
1.44164e-08
1.92275e-09
2.89822e-10
1.36693e-10
1.46019e-10
1.56413e-10
1.59334e-10
1.58077e-10
1.89778e-10
5.19118e-10
3.03751e-09
1.90067e-08
5.79269e-07
1.09421e-07
1.66785e-08
2.36323e-09
7.44923e-10
7.73365e-10
9.32164e-10
1.02451e-09
1.06371e-09
1.06167e-09
1.08092e-09
1.39765e-09
3.87362e-09
1.9412e-08
7.13573e-07
1.31496e-07
2.03877e-08
4.24032e-09
3.27216e-09
4.30226e-09
5.30064e-09
5.9239e-09
6.25974e-09
6.37424e-09
6.43736e-09
6.95037e-09
1.04669e-08
3.11412e-08
8.72045e-07
1.66036e-07
3.11679e-08
1.30385e-08
1.56069e-08
2.14672e-08
2.662e-08
3.01851e-08
3.24145e-08
3.36719e-08
3.44397e-08
3.63515e-08
4.45202e-08
8.83518e-08
1.17413e-06
2.6835e-07
7.54618e-08
5.20683e-08
6.917e-08
9.53696e-08
1.18567e-07
1.36068e-07
1.4817e-07
1.56626e-07
1.62695e-07
1.72506e-07
1.96548e-07
3.13399e-07
2.07561e-06
6.3992e-07
2.55123e-07
2.09741e-07
2.77038e-07
3.78039e-07
4.70585e-07
5.46064e-07
6.02569e-07
6.4741e-07
6.83381e-07
7.32595e-07
8.07171e-07
1.11187e-06
5.07851e-06
1.94164e-06
9.37404e-07
7.96386e-07
1.00727e-06
1.34696e-06
1.67306e-06
1.95607e-06
2.18291e-06
2.38052e-06
2.555e-06
2.77915e-06