/*--------------------------------*- C++ -*----------------------------------*\
| =========                 |                                                 |
| \\      /  F ield         | OpenFOAM: The Open Source CFD Toolbox           |
|  \\    /   O peration     | Version:  v2106                                 |
|   \\  /    A nd           | Website:  www.openfoam.com                      |
|    \\/     M anipulation  |                                                 |
\*---------------------------------------------------------------------------*/
FoamFile
{
    version     2.0;
    format      ascii;
    arch        "LSB;label=32;scalar=64";
    class       volScalarField;
    location    "0.000182";
    object      rho;
}
// * * * * * * * * * * * * * * * * * * * * * * * * * * * * * * * * * * * * * //

dimensions      [1 -3 0 0 0 0 0];

internalField   nonuniform List<scalar> 
18109
(
2.48718
2.48589
2.48441
2.48278
2.48102
2.47929
2.47787
2.48556
2.48423
2.48267
2.48114
2.4795
2.47783
2.47628
2.48322
2.48162
2.4803
2.47889
2.47747
2.47593
2.47445
2.47991
2.47857
2.47743
2.47612
2.47476
2.47324
2.47172
2.47622
2.4752
2.47402
2.47277
2.47144
2.46995
2.46846
2.47225
2.47143
2.47029
2.46905
2.46766
2.46613
2.4646
2.46819
2.46751
2.46641
2.46512
2.46368
2.46211
2.46054
2.46381
2.46327
2.46228
2.46096
2.45949
2.45782
2.45622
2.49312
2.49169
2.49017
2.48846
2.48665
2.48503
2.4837
2.48256
2.48177
2.4811
2.48062
2.47931
2.47718
2.47329
2.49099
2.48964
2.48807
2.48644
2.48488
2.48337
2.48201
2.48071
2.47963
2.47844
2.47719
2.47516
2.47263
2.46833
2.48847
2.48699
2.48563
2.48412
2.48277
2.48146
2.48028
2.47905
2.47786
2.47643
2.47474
2.47214
2.469
2.46416
2.48486
2.48386
2.48273
2.48144
2.48026
2.47902
2.47789
2.47664
2.47534
2.47364
2.47151
2.46836
2.46454
2.45938
2.48142
2.48083
2.47977
2.47856
2.4774
2.47618
2.47512
2.47393
2.47261
2.47074
2.46825
2.46468
2.46035
2.45504
2.47766
2.47735
2.47653
2.47535
2.4742
2.47298
2.47189
2.47063
2.46918
2.46712
2.46432
2.46052
2.45592
2.45071
2.4739
2.47386
2.47316
2.47201
2.47083
2.46954
2.46838
2.46704
2.46546
2.46324
2.46024
2.45639
2.45181
2.4469
2.46984
2.47015
2.46957
2.4685
2.46729
2.4659
2.46464
2.46311
2.4613
2.45889
2.45571
2.45189
2.44741
2.44286
2.46554
2.46601
2.46562
2.46463
2.46354
2.4621
2.46069
2.45896
2.45686
2.45423
2.45091
2.44722
2.44282
2.43891
2.46098
2.46132
2.46127
2.46052
2.4596
2.45803
2.45643
2.45446
2.45208
2.44928
2.44583
2.44236
2.43785
2.43468
2.45624
2.45614
2.4563
2.45566
2.45484
2.4532
2.45143
2.44929
2.44671
2.44379
2.44031
2.43689
2.43255
2.4303
2.45061
2.45032
2.45083
2.45025
2.44945
2.44789
2.44589
2.4436
2.44084
2.43787
2.43454
2.43125
2.42722
2.42543
2.44452
2.4437
2.44453
2.44427
2.44347
2.44202
2.43984
2.43748
2.4346
2.43159
2.42829
2.42486
2.42089
2.41925
2.43778
2.43791
2.43895
2.4386
2.43748
2.43591
2.43344
2.43093
2.4279
2.42494
2.42175
2.41883
2.41511
2.41187
2.48703
2.48738
2.48753
2.48754
2.48859
2.49265
2.49333
2.49385
2.49386
2.49304
2.49303
2.49469
2.4934
2.49438
2.4945
2.49433
2.4945
2.49835
2.49193
2.49345
2.49417
2.49455
2.49638
2.50196
2.4904
2.49226
2.49367
2.49529
2.49873
2.50492
2.48855
2.4909
2.49338
2.49633
2.50144
2.50881
2.48684
2.4894
2.49269
2.49717
2.50439
2.51266
2.48553
2.48865
2.493
2.49889
2.50764
2.51728
2.48453
2.48819
2.49328
2.50026
2.51016
2.52109
2.48402
2.4881
2.49373
2.50128
2.51134
2.52254
2.48358
2.48777
2.49331
2.50058
2.50968
2.52017
2.48317
2.48707
2.49162
2.49745
2.50393
2.5127
2.48188
2.48484
2.48781
2.49139
2.49489
2.50096
2.47946
2.48154
2.4827
2.48386
2.48496
2.48843
2.47494
2.47531
2.47458
2.47433
2.47408
2.47705
2.4698
2.46992
2.46843
2.46704
2.46668
2.47083
2.465
2.46251
2.45953
2.45804
2.45889
2.46511
2.45983
2.4565
2.45283
2.4513
2.45356
2.45979
2.45378
2.44967
2.4457
2.44505
2.44878
2.45372
2.44905
2.44452
2.4409
2.44155
2.44593
2.44985
2.44487
2.4406
2.43775
2.43964
2.44387
2.44762
2.44165
2.438
2.43647
2.43929
2.44332
2.44742
2.43835
2.43536
2.43501
2.43812
2.4416
2.44529
2.43504
2.43277
2.43292
2.43565
2.43821
2.44159
2.43086
2.42889
2.42847
2.42979
2.4306
2.43326
2.42628
2.4242
2.42249
2.42167
2.42063
2.42231
2.42092
2.41782
2.41431
2.41127
2.40884
2.40911
2.4157
2.41148
2.40699
2.4029
2.39938
2.39782
2.40713
2.40107
2.39487
2.38974
2.3872
2.38827
2.40539
2.39944
2.39357
2.38873
2.387
2.38797
2.40775
2.3997
2.39277
2.3879
2.38635
2.3873
2.4109
2.40252
2.39538
2.39091
2.38994
2.39155
2.41378
2.40522
2.39865
2.39526
2.39548
2.39847
2.41739
2.4093
2.40361
2.40125
2.40309
2.4072
2.4206
2.41326
2.40883
2.40791
2.4112
2.4158
2.42401
2.4178
2.41445
2.41506
2.41939
2.42384
2.427
2.422
2.41951
2.42129
2.42516
2.42941
2.42987
2.42559
2.42348
2.42472
2.42719
2.43144
2.43171
2.42775
2.42554
2.42608
2.4275
2.43036
2.43278
2.42893
2.42627
2.42525
2.42502
2.42576
2.43293
2.42913
2.42559
2.42273
2.42066
2.41994
2.43277
2.4289
2.42477
2.42077
2.41737
2.41555
2.43239
2.4278
2.42269
2.41805
2.41447
2.41295
2.48161
2.48574
2.49029
2.49576
2.50189
2.5112
2.48446
2.4881
2.4913
2.49516
2.49864
2.50488
2.48666
2.48932
2.49087
2.4927
2.49423
2.49735
2.48905
2.49026
2.49015
2.48998
2.49012
2.49206
2.43396
2.42999
2.42644
2.42182
2.41856
2.4177
2.44168
2.43644
2.43207
2.42762
2.42574
2.42621
2.44739
2.44259
2.43879
2.43539
2.43456
2.4371
2.45372
2.44933
2.44599
2.44343
2.44447
2.44919
2.45921
2.45591
2.45407
2.45332
2.45637
2.46325
2.4646
2.46257
2.46196
2.46353
2.46894
2.47783
2.46955
2.46901
2.47009
2.47406
2.48161
2.49261
2.4741
2.47508
2.47774
2.48336
2.49257
2.50426
2.47838
2.48073
2.48443
2.49101
2.5002
2.51196
2.48259
2.48571
2.48989
2.49618
2.50443
2.51552
2.48621
2.48982
2.49379
2.49893
2.50484
2.51426
2.48945
2.49301
2.4961
2.49976
2.50325
2.5092
2.492
2.49495
2.4966
2.49838
2.49938
2.50298
2.49448
2.49622
2.49615
2.49623
2.49521
2.49674
2.50825
2.53286
2.5758
2.66568
2.83929
2.51029
2.52754
2.56073
2.65035
2.82798
2.51189
2.52375
2.55274
2.65034
2.86312
2.51351
2.52084
2.54667
2.64534
2.84994
2.51772
2.52514
2.55422
2.65369
2.84691
2.52233
2.53336
2.56788
2.67222
2.85816
2.52956
2.54565
2.58967
2.7076
2.92397
2.53544
2.55771
2.61086
2.73455
2.94175
3.17371
2.53968
2.56738
2.6294
2.75438
2.93745
3.14077
2.53835
2.57122
2.64334
2.76931
2.94043
3.12475
2.53131
2.56874
2.65056
2.77737
2.94892
3.1354
3.26821
2.51849
2.56024
2.64603
2.77182
2.95668
3.1718
3.38931
3.53221
2.50517
2.54734
2.62475
2.74387
2.95742
3.23609
3.59309
3.94137
2.49519
2.53169
2.59432
2.70043
2.90453
3.19098
3.51815
3.73193
2.48545
2.51287
2.5588
2.65393
2.82013
3.06379
3.31101
3.44737
2.4751
2.49358
2.52845
2.6261
2.80208
3.0691
3.26446
3.39888
2.46481
2.475
2.50943
2.61183
2.82259
3.15609
3.49702
3.6346
2.45601
2.46086
2.49422
2.59564
2.80709
3.12858
3.45543
3.80818
2.45139
2.45378
2.48899
2.58942
2.78074
3.0433
3.29848
3.44039
2.44974
2.45554
2.50005
2.60695
2.79349
3.03808
3.22072
3.32916
2.45134
2.46526
2.52168
2.64569
2.86465
3.14829
3.40013
3.47628
2.45119
2.47542
2.53937
2.66585
2.86086
3.11014
3.3734
3.69606
2.44975
2.48321
2.55375
2.66759
2.81472
2.98465
2.44419
2.48265
2.55766
2.658
2.78861
2.94472
2.43522
2.47396
2.54957
2.64769
2.79558
2.97663
2.42049
2.45361
2.52081
2.62586
2.80627
3.02153
2.40776
2.43261
2.4893
2.59526
2.81975
3.11611
2.39705
2.411
2.45745
2.55976
2.77459
2.38924
2.39402
2.42876
2.52328
2.69802
2.38605
2.38598
2.41328
2.50872
2.69262
2.38914
2.38859
2.41622
2.51802
2.73689
2.39778
2.39743
2.42543
2.52095
2.73769
2.40773
2.40923
2.44258
2.53083
2.71966
2.41855
2.42528
2.46795
2.56394
2.74892
2.42913
2.44204
2.49607
2.61266
2.83312
2.43732
2.45838
2.51506
2.63944
2.84175
2.44222
2.46722
2.52483
2.64126
2.80564
2.44118
2.46782
2.52517
2.62827
2.78522
2.43506
2.46081
2.51269
2.60602
2.77945
2.42689
2.44764
2.49317
2.58376
2.78271
2.41996
2.43572
2.47436
2.5601
2.77258
2.41681
2.42589
2.4567
2.5355
2.72869
2.4194
2.42228
2.447
2.52631
2.695
2.4275
2.42762
2.449
2.53901
2.72666
2.43923
2.44019
2.46282
2.56393
2.79398
2.45423
2.4587
2.48177
2.57649
2.79586
2.47211
2.48051
2.50723
2.5974
2.79359
2.49079
2.50456
2.53831
2.63122
2.82413
2.50777
2.52709
2.57178
2.68261
2.90684
2.52217
2.54678
2.59848
2.72228
2.94567
2.53045
2.55949
2.61657
2.74796
2.95903
2.53305
2.56327
2.62424
2.75849
2.96723
2.53022
2.56092
2.62436
2.75211
2.95769
2.5217
2.55382
2.61613
2.73446
2.94415
2.51283
2.54561
2.60337
2.71076
2.92502
2.50804
2.53962
2.59031
2.6901
2.89086
2.50773
2.50694
2.50567
2.50399
2.50228
2.50071
2.49946
2.49842
2.49767
2.49703
2.49668
2.49584
2.49428
2.49109
2.50496
2.50391
2.5028
2.50131
2.49989
2.49846
2.49728
2.4962
2.49545
2.49475
2.49394
2.4926
2.49085
2.48783
2.50222
2.50118
2.50027
2.49882
2.49756
2.49629
2.49537
2.49455
2.49396
2.49326
2.4925
2.49095
2.48896
2.48547
2.49821
2.49774
2.49702
2.49583
2.49482
2.49385
2.49319
2.49255
2.49206
2.49132
2.49039
2.48855
2.48616
2.48232
2.4949
2.49478
2.49424
2.49324
2.4923
2.4915
2.49097
2.49045
2.49
2.48921
2.48804
2.48591
2.48301
2.47878
2.49104
2.49147
2.49111
2.49042
2.4896
2.48893
2.48841
2.48787
2.48732
2.48638
2.48488
2.48242
2.47905
2.47457
2.48724
2.48805
2.48793
2.48755
2.48683
2.4862
2.48562
2.48498
2.48422
2.48303
2.48117
2.4784
2.4747
2.47018
2.48329
2.4846
2.48471
2.48459
2.48392
2.48321
2.48244
2.48155
2.48045
2.47891
2.47667
2.47367
2.46989
2.46552
2.47922
2.4807
2.48123
2.48121
2.48066
2.47983
2.47886
2.47766
2.47619
2.47431
2.47176
2.46871
2.46491
2.4611
2.47496
2.4765
2.47759
2.47755
2.47704
2.47599
2.47471
2.47318
2.47135
2.4692
2.46636
2.46346
2.45951
2.45647
2.47046
2.47169
2.47312
2.47313
2.47269
2.47149
2.46989
2.46801
2.46581
2.46341
2.46041
2.45773
2.45398
2.45209
2.46548
2.46651
2.46822
2.46823
2.46771
2.46626
2.46431
2.46213
2.45965
2.45712
2.45424
2.45167
2.4481
2.44704
2.46002
2.46039
2.46234
2.46267
2.46201
2.46049
2.45822
2.45576
2.45298
2.45023
2.44733
2.44455
2.44115
2.44061
2.45388
2.45563
2.45733
2.45719
2.45614
2.45435
2.45163
2.44884
2.44577
2.44295
2.44027
2.43771
2.43474
2.43228
2.54004
2.5397
2.53963
2.53883
2.53755
2.53579
2.53434
2.53295
2.53192
2.53103
2.53033
2.52923
2.52813
2.52531
2.53676
2.53691
2.53646
2.5356
2.53428
2.53289
2.5317
2.53056
2.52964
2.52873
2.52786
2.52639
2.52506
2.52225
2.53329
2.53365
2.53351
2.53297
2.53183
2.5306
2.52953
2.52855
2.52784
2.52718
2.52657
2.52534
2.52412
2.52145
2.5299
2.53058
2.53052
2.53007
2.52903
2.52796
2.52703
2.52626
2.52575
2.52528
2.52476
2.52357
2.52224
2.51958
2.5264
2.52724
2.52746
2.52715
2.52634
2.52546
2.52475
2.52418
2.52384
2.52352
2.52308
2.52192
2.52033
2.51744
2.52288
2.52412
2.52456
2.52437
2.5238
2.523
2.52241
2.52192
2.5216
2.52127
2.52073
2.51944
2.51748
2.51427
2.51909
2.52077
2.52151
2.52154
2.52124
2.52049
2.51995
2.51946
2.51907
2.51864
2.51784
2.51628
2.5139
2.51042
2.51527
2.51735
2.51855
2.51866
2.51851
2.51778
2.51716
2.51653
2.51592
2.51522
2.51402
2.51212
2.50934
2.50578
2.51135
2.51355
2.51521
2.51539
2.51532
2.51462
2.51383
2.51299
2.5121
2.51108
2.50946
2.50727
2.5042
2.50088
2.5074
2.50954
2.51167
2.51191
2.5118
2.51101
2.50994
2.50879
2.50752
2.50606
2.50395
2.50163
2.49827
2.49556
2.50329
2.50491
2.5073
2.50776
2.50749
2.50658
2.50522
2.50373
2.50205
2.50022
2.49779
2.49573
2.49242
2.49093
2.49868
2.50034
2.50269
2.50323
2.5027
2.50159
2.49983
2.49792
2.49586
2.49374
2.49119
2.48905
2.48582
2.48493
2.49307
2.49493
2.49714
2.49785
2.49711
2.49578
2.49361
2.49123
2.48873
2.48626
2.48368
2.48149
2.47891
2.47839
2.48725
2.4904
2.49208
2.49233
2.49103
2.48935
2.48667
2.4838
2.48096
2.47842
2.47617
2.4739
2.47152
2.46972
2.57971
2.58066
2.58156
2.58144
2.58122
2.5803
2.57932
2.57825
2.5773
2.5764
2.57562
2.57472
2.57401
2.57207
2.5763
2.57771
2.57832
2.57828
2.57781
2.57684
2.57589
2.57489
2.57404
2.57323
2.57241
2.57135
2.57042
2.56843
2.5727
2.57434
2.57499
2.57511
2.57468
2.5738
2.57293
2.57209
2.57145
2.57091
2.57043
2.56968
2.56887
2.56727
2.56924
2.57105
2.57159
2.57171
2.57129
2.57047
2.56973
2.5691
2.56867
2.56837
2.5681
2.56755
2.56679
2.56535
2.56567
2.5676
2.56822
2.5684
2.56811
2.56748
2.5669
2.56648
2.56627
2.56619
2.56612
2.56577
2.56505
2.56367
2.56218
2.56414
2.56505
2.5653
2.56518
2.56472
2.56427
2.564
2.56393
2.56396
2.56397
2.56368
2.56288
2.56141
2.5587
2.56069
2.56198
2.56234
2.56239
2.56211
2.56175
2.56159
2.5616
2.56169
2.56169
2.56134
2.56032
2.55869
2.55536
2.55736
2.55902
2.55949
2.55962
2.55942
2.55909
2.55894
2.55892
2.55897
2.55881
2.55828
2.55695
2.55512
2.55198
2.5539
2.55581
2.55641
2.55656
2.5564
2.55608
2.55587
2.55575
2.55569
2.55528
2.55449
2.5528
2.55091
2.54862
2.55046
2.55252
2.55322
2.55329
2.55306
2.55263
2.55226
2.55192
2.55158
2.55079
2.54971
2.54769
2.54598
2.54486
2.54661
2.54854
2.54935
2.54932
2.54902
2.54846
2.54789
2.5473
2.54666
2.54556
2.54436
2.54202
2.54095
2.54078
2.54283
2.54443
2.54527
2.54505
2.54457
2.54371
2.54284
2.54183
2.5408
2.53935
2.53798
2.53548
2.53505
2.53595
2.53812
2.53938
2.54024
2.53984
2.53916
2.53796
2.53671
2.53526
2.53392
2.53242
2.53109
2.5291
2.52887
2.53103
2.53377
2.53473
2.53521
2.53422
2.53314
2.53144
2.52974
2.52792
2.52645
2.52497
2.52347
2.52184
2.52064
2.62506
2.62611
2.62711
2.62736
2.62744
2.62719
2.6268
2.62635
2.62596
2.62565
2.62548
2.62531
2.62542
2.62516
2.62118
2.62278
2.62372
2.62402
2.62407
2.62384
2.62349
2.6231
2.62273
2.6224
2.62215
2.62186
2.6217
2.6214
2.61761
2.61942
2.62021
2.62059
2.62064
2.62049
2.62023
2.61994
2.61969
2.61948
2.61937
2.61921
2.61909
2.61879
2.61402
2.61585
2.61662
2.61703
2.61711
2.61702
2.61688
2.6167
2.61657
2.61649
2.61649
2.61641
2.61632
2.61611
2.6105
2.61223
2.6131
2.61359
2.61377
2.61379
2.61378
2.61376
2.61379
2.61387
2.614
2.61406
2.61405
2.61388
2.60707
2.6087
2.60976
2.61033
2.61064
2.61078
2.61089
2.61101
2.6112
2.61141
2.61163
2.61177
2.61178
2.61161
2.60376
2.60531
2.60659
2.60727
2.60771
2.60798
2.60821
2.60846
2.60877
2.60911
2.60938
2.60955
2.60951
2.6093
2.60066
2.60215
2.60358
2.60438
2.6049
2.60526
2.60557
2.6059
2.60628
2.60668
2.60694
2.60706
2.60687
2.6066
2.59751
2.59898
2.6005
2.60144
2.60203
2.60246
2.60282
2.6032
2.60358
2.60399
2.60417
2.60417
2.60376
2.60342
2.59453
2.59598
2.59746
2.59847
2.59904
2.59949
2.59983
2.6002
2.60051
2.60083
2.60085
2.60067
2.59993
2.59958
2.59092
2.59252
2.59389
2.59501
2.59561
2.59606
2.59639
2.59672
2.59694
2.59713
2.59697
2.59663
2.59556
2.59538
2.58761
2.58923
2.59038
2.59145
2.59194
2.5923
2.59253
2.59274
2.59278
2.5928
2.59239
2.59186
2.59051
2.59057
2.58302
2.58488
2.58585
2.58698
2.5874
2.58769
2.58783
2.58792
2.58781
2.58774
2.58732
2.58683
2.58571
2.58576
2.57889
2.58105
2.58193
2.58276
2.58276
2.58275
2.58263
2.58256
2.58231
2.58221
2.58173
2.58116
2.58005
2.57977
2.66439
2.66499
2.66577
2.6663
2.66676
2.66713
2.66747
2.66778
2.66813
2.66853
2.66908
2.66975
2.67075
2.67137
2.66087
2.66182
2.66256
2.66309
2.66356
2.66397
2.66435
2.6647
2.66506
2.66545
2.66594
2.66652
2.66726
2.66787
2.65772
2.65873
2.65937
2.65993
2.66042
2.66086
2.66128
2.66167
2.66206
2.66248
2.66298
2.66359
2.66435
2.66505
2.65456
2.65553
2.65617
2.65672
2.65723
2.65771
2.65816
2.65858
2.659
2.65945
2.65996
2.66057
2.66132
2.66218
2.65148
2.65239
2.65306
2.65363
2.65418
2.6547
2.65521
2.65569
2.65615
2.65666
2.65721
2.65788
2.65868
2.65965
2.64852
2.64934
2.65007
2.65068
2.65128
2.65186
2.65242
2.65296
2.65348
2.65404
2.65462
2.65534
2.65615
2.65722
2.6457
2.64646
2.64727
2.64793
2.64859
2.64922
2.64984
2.65045
2.65103
2.65164
2.65226
2.65301
2.65381
2.65493
2.643
2.64373
2.6446
2.64532
2.64603
2.64673
2.6474
2.64808
2.64871
2.64937
2.64999
2.65074
2.65147
2.65259
2.64038
2.64108
2.64199
2.64279
2.64355
2.64431
2.64505
2.64579
2.64647
2.64717
2.64778
2.64848
2.64909
2.65012
2.63782
2.6385
2.63939
2.64025
2.64107
2.64189
2.64268
2.64349
2.64422
2.64495
2.64553
2.64614
2.64657
2.64744
2.63509
2.6358
2.63664
2.63758
2.63844
2.63933
2.6402
2.64108
2.64187
2.64263
2.64317
2.64369
2.6439
2.64463
2.6325
2.63316
2.63387
2.63479
2.63564
2.63657
2.6375
2.63848
2.63933
2.64012
2.64062
2.64105
2.64106
2.64172
2.62919
2.62996
2.63058
2.63157
2.63243
2.6334
2.63441
2.63548
2.63642
2.6373
2.63786
2.63834
2.63836
2.63899
2.62666
2.62725
2.62777
2.62854
2.62917
2.63004
2.63106
2.63222
2.63326
2.63425
2.63486
2.63532
2.63525
2.63604
2.6934
2.69374
2.69424
2.69483
2.69554
2.69629
2.69709
2.69791
2.69875
2.69964
2.70065
2.70174
2.70316
2.7043
2.69061
2.69111
2.69162
2.69221
2.69294
2.69374
2.69459
2.69545
2.69631
2.69721
2.69817
2.69925
2.70052
2.70173
2.68815
2.68866
2.68911
2.68971
2.69045
2.69127
2.69214
2.69302
2.69388
2.69477
2.69573
2.69679
2.69808
2.69933
2.68556
2.68605
2.68653
2.68716
2.68794
2.68879
2.68969
2.69058
2.69144
2.69233
2.69325
2.69432
2.69558
2.69699
2.68305
2.68349
2.68402
2.68468
2.6855
2.68639
2.68729
2.68819
2.68905
2.68994
2.69086
2.69196
2.69326
2.69481
2.68056
2.681
2.68158
2.68229
2.68315
2.68406
2.68498
2.68589
2.68673
2.68762
2.68852
2.68967
2.69098
2.6927
2.67818
2.6786
2.67927
2.68003
2.68093
2.68187
2.68281
2.68372
2.68456
2.68544
2.68633
2.6875
2.68882
2.6907
2.6759
2.67632
2.67705
2.67788
2.67883
2.67981
2.68076
2.68168
2.68252
2.68341
2.68427
2.68545
2.68673
2.68872
2.67373
2.67416
2.67494
2.67584
2.67683
2.67785
2.67884
2.6798
2.68065
2.68155
2.68239
2.68355
2.68475
2.68678
2.67166
2.6721
2.67291
2.67386
2.67491
2.67599
2.67704
2.67806
2.67896
2.67989
2.68072
2.68184
2.68291
2.68489
2.66969
2.67014
2.67093
2.67192
2.67301
2.67416
2.6753
2.67643
2.67742
2.67841
2.67925
2.68033
2.68127
2.68312
2.66786
2.66828
2.66898
2.66997
2.67109
2.67233
2.6736
2.67488
2.67601
2.67711
2.67798
2.67905
2.67987
2.68154
2.66593
2.66633
2.66696
2.66796
2.6691
2.67042
2.67183
2.67328
2.67459
2.67585
2.67684
2.67796
2.67876
2.68029
2.66463
2.66481
2.66526
2.66609
2.66712
2.66844
2.66999
2.67165
2.67319
2.67466
2.67577
2.6769
2.67755
2.67927
2.71338
2.71378
2.71433
2.71499
2.71571
2.71648
2.71725
2.71805
2.71884
2.71968
2.7206
2.72162
2.72292
2.72409
2.7111
2.71171
2.71225
2.71292
2.71367
2.71449
2.71532
2.71618
2.71704
2.71795
2.7189
2.71998
2.72123
2.72251
2.70919
2.70978
2.7103
2.71097
2.71174
2.71257
2.71343
2.71433
2.71522
2.71616
2.71715
2.71824
2.71956
2.72086
2.70702
2.70763
2.70821
2.70893
2.70976
2.71065
2.71157
2.71253
2.71347
2.71447
2.71549
2.71663
2.71796
2.71939
2.70494
2.70555
2.70619
2.70697
2.70785
2.70879
2.70976
2.71075
2.71173
2.71276
2.71382
2.71502
2.71642
2.71797
2.70291
2.70354
2.70425
2.70508
2.70601
2.70701
2.70801
2.70905
2.71005
2.71111
2.71219
2.71346
2.7149
2.71662
2.70103
2.70166
2.70243
2.70331
2.70429
2.70532
2.70635
2.7074
2.70841
2.70949
2.71059
2.71192
2.7134
2.71528
2.6993
2.69993
2.70074
2.70166
2.70267
2.70373
2.70477
2.70583
2.70684
2.70794
2.70903
2.71041
2.7119
2.71393
2.69776
2.69836
2.6992
2.70014
2.70117
2.70224
2.70329
2.70435
2.70536
2.70647
2.70754
2.70895
2.71041
2.71256
2.69639
2.69694
2.69778
2.69874
2.69978
2.70086
2.70193
2.70301
2.70403
2.70514
2.70619
2.70761
2.709
2.71119
2.6952
2.69571
2.6965
2.69745
2.69849
2.69959
2.70069
2.70182
2.70287
2.704
2.70504
2.70645
2.70775
2.70992
2.69416
2.69461
2.69531
2.69623
2.69727
2.69842
2.69959
2.7008
2.70192
2.70309
2.70415
2.70553
2.70676
2.7088
2.69319
2.69359
2.6942
2.6951
2.69615
2.69735
2.69861
2.69993
2.70116
2.70244
2.70355
2.70495
2.70614
2.70805
2.69264
2.69291
2.69337
2.69417
2.69515
2.69637
2.69773
2.69917
2.70055
2.70191
2.70306
2.70439
2.70545
2.70742
2.72492
2.72571
2.7264
2.7271
2.72775
2.72839
2.72902
2.72969
2.73033
2.73106
2.73182
2.73268
2.73374
2.73472
2.72309
2.72404
2.72474
2.72547
2.72617
2.72688
2.72758
2.72834
2.72908
2.72991
2.73076
2.73172
2.7328
2.73392
2.72162
2.72254
2.72325
2.72399
2.72472
2.72546
2.72621
2.72701
2.7278
2.72868
2.72959
2.73059
2.73176
2.73292
2.71992
2.72086
2.72161
2.72241
2.72321
2.72404
2.72488
2.72577
2.72665
2.72762
2.7286
2.72969
2.73089
2.73215
2.71834
2.71927
2.72007
2.72093
2.7218
2.72269
2.7236
2.72456
2.72552
2.72654
2.7276
2.72875
2.73003
2.73139
2.71685
2.71777
2.71862
2.71954
2.72047
2.72143
2.72241
2.72344
2.72446
2.72556
2.72668
2.72791
2.72925
2.73072
2.71554
2.71643
2.71732
2.71826
2.71924
2.72025
2.72128
2.72236
2.72345
2.72461
2.72579
2.72711
2.72851
2.73008
2.7144
2.71526
2.71616
2.71712
2.71813
2.71917
2.72023
2.72134
2.72246
2.72367
2.72491
2.7263
2.72774
2.72941
2.71343
2.71424
2.71514
2.71611
2.71712
2.71817
2.71923
2.72036
2.7215
2.72274
2.72399
2.72544
2.7269
2.72867
2.71262
2.71339
2.71427
2.71523
2.71623
2.71726
2.71832
2.71944
2.72057
2.7218
2.72304
2.72452
2.72594
2.7278
2.71195
2.71268
2.71352
2.71445
2.71543
2.71645
2.7175
2.71861
2.71971
2.72094
2.72213
2.72361
2.72496
2.72686
2.71145
2.71215
2.71291
2.7138
2.71475
2.71575
2.71679
2.71788
2.71896
2.72015
2.7213
2.72272
2.72402
2.72586
2.71098
2.71163
2.71231
2.71319
2.71413
2.71516
2.71622
2.71733
2.71841
2.71959
2.7207
2.72208
2.7233
2.72504
2.71083
2.71143
2.71201
2.71285
2.71375
2.71476
2.71582
2.71692
2.71798
2.71909
2.72013
2.72135
2.72246
2.72414
2.72941
2.73046
2.73139
2.73228
2.73308
2.73385
2.73453
2.73526
2.73593
2.73671
2.73744
2.73828
2.73912
2.74006
2.72806
2.72928
2.73024
2.73121
2.73209
2.73296
2.73375
2.73457
2.73534
2.73618
2.73701
2.73795
2.73888
2.7399
2.72711
2.72831
2.72931
2.7303
2.73123
2.73214
2.73299
2.73387
2.73469
2.73557
2.73644
2.73741
2.73841
2.73946
2.72605
2.72726
2.7283
2.72935
2.73034
2.73133
2.73226
2.73322
2.73412
2.73508
2.73604
2.73707
2.7381
2.73916
2.7251
2.72631
2.72739
2.72848
2.72952
2.73056
2.73156
2.73257
2.73356
2.73457
2.73559
2.73664
2.73771
2.73881
2.72425
2.72545
2.72656
2.72768
2.72877
2.72985
2.73092
2.73199
2.73304
2.73411
2.73518
2.73628
2.73738
2.73852
2.72354
2.72471
2.72583
2.72698
2.72809
2.72921
2.73032
2.73144
2.73256
2.73368
2.73481
2.73595
2.7371
2.73827
2.72302
2.72417
2.72527
2.72641
2.72753
2.72866
2.7298
2.73094
2.7321
2.73326
2.73443
2.73561
2.73679
2.73799
2.72263
2.72373
2.72481
2.72593
2.72705
2.72818
2.72932
2.73048
2.73165
2.73283
2.73402
2.73524
2.73642
2.73766
2.72242
2.72347
2.72451
2.7256
2.72668
2.72778
2.7289
2.73002
2.73117
2.73234
2.73351
2.73475
2.73591
2.7372
2.72228
2.7233
2.72428
2.72532
2.72637
2.72743
2.7285
2.72959
2.73069
2.73183
2.73295
2.73418
2.73528
2.73662
2.72229
2.72328
2.72419
2.72517
2.72616
2.72716
2.72817
2.72917
2.73019
2.73124
2.73228
2.73345
2.73449
2.73583
2.72222
2.72319
2.72405
2.72501
2.72597
2.72692
2.72787
2.72883
2.72976
2.73073
2.73168
2.73277
2.73374
2.73503
2.72244
2.72339
2.72421
2.72511
2.72598
2.72684
2.72771
2.72854
2.72935
2.73018
2.73101
2.73194
2.73283
2.73401
2.73065
2.7319
2.73297
2.73401
2.73495
2.73584
2.73662
2.73741
2.73812
2.73887
2.73956
2.74031
2.74097
2.74181
2.72989
2.73124
2.73241
2.73356
2.73461
2.73561
2.7365
2.7374
2.73819
2.73901
2.73977
2.74057
2.74131
2.74209
2.7294
2.73078
2.73201
2.73322
2.73433
2.73541
2.73639
2.73735
2.73822
2.73909
2.73988
2.7407
2.74145
2.74225
2.72894
2.73035
2.73164
2.73291
2.73408
2.73522
2.73627
2.73729
2.73822
2.73914
2.73998
2.74083
2.74162
2.74241
2.72862
2.73002
2.73134
2.73264
2.73386
2.73504
2.73614
2.73721
2.7382
2.73916
2.74005
2.74092
2.74174
2.74253
2.72842
2.7298
2.73114
2.73245
2.7337
2.73489
2.73603
2.73712
2.73814
2.73913
2.74005
2.74094
2.74178
2.74258
2.72833
2.72967
2.731
2.7323
2.73355
2.73475
2.73591
2.73702
2.73807
2.73907
2.74001
2.74092
2.74176
2.74256
2.72838
2.72969
2.73099
2.73225
2.73346
2.73464
2.73579
2.73687
2.73792
2.73891
2.73986
2.74077
2.74161
2.74242
2.7285
2.72976
2.731
2.73221
2.73338
2.73451
2.73563
2.73668
2.73772
2.73869
2.73964
2.74054
2.74137
2.74219
2.72877
2.72997
2.73112
2.73224
2.73334
2.7344
2.73544
2.73645
2.73745
2.73839
2.73931
2.7402
2.74102
2.74186
2.72904
2.73019
2.73124
2.73227
2.7333
2.73427
2.73526
2.7362
2.73713
2.73804
2.73891
2.73979
2.74056
2.74143
2.72945
2.73053
2.73146
2.73239
2.73331
2.73418
2.73506
2.73591
2.73675
2.73758
2.73838
2.73922
2.73995
2.74085
2.72979
2.73077
2.73161
2.73246
2.73329
2.73408
2.73487
2.73562
2.73637
2.73712
2.73784
2.73862
2.73929
2.74017
2.73032
2.73127
2.73199
2.73271
2.7334
2.73406
2.73471
2.73531
2.73592
2.73652
2.73712
2.73776
2.7384
2.73921
2.73114
2.73234
2.73334
2.73431
2.73519
2.73603
2.7368
2.73757
2.73826
2.73895
2.73956
2.74021
2.74077
2.74142
2.73104
2.73228
2.73338
2.73443
2.7354
2.73632
2.73716
2.73799
2.73873
2.73947
2.74011
2.7408
2.74136
2.74204
2.73104
2.7323
2.73349
2.73462
2.73565
2.73662
2.73752
2.7384
2.73919
2.73996
2.74063
2.74132
2.74188
2.74253
2.73115
2.73244
2.73369
2.73487
2.73595
2.73696
2.73788
2.73877
2.73959
2.74038
2.74108
2.74177
2.74236
2.74299
2.73136
2.73266
2.73393
2.73512
2.73623
2.73727
2.73822
2.73912
2.73995
2.74075
2.74147
2.74217
2.74277
2.74338
2.73168
2.73297
2.73423
2.73543
2.73654
2.73758
2.73853
2.73942
2.74026
2.74105
2.74177
2.74246
2.74308
2.74368
2.73206
2.73331
2.73455
2.73572
2.73682
2.73784
2.73879
2.73967
2.7405
2.74127
2.742
2.74268
2.74329
2.74387
2.73252
2.73372
2.7349
2.73602
2.73708
2.73807
2.73899
2.73984
2.74065
2.7414
2.74212
2.74278
2.7434
2.74396
2.73299
2.73412
2.73524
2.73628
2.7373
2.73824
2.73912
2.73994
2.74074
2.74147
2.74218
2.74282
2.74342
2.74397
2.73352
2.73458
2.73559
2.73654
2.73748
2.73834
2.73918
2.73996
2.74073
2.74143
2.74211
2.74273
2.74331
2.74386
2.73402
2.735
2.7359
2.73676
2.7376
2.73838
2.73916
2.73989
2.7406
2.74126
2.74191
2.74251
2.74306
2.74362
2.73458
2.73548
2.73624
2.73698
2.7377
2.73838
2.73906
2.7397
2.74034
2.74094
2.74154
2.74211
2.74264
2.74325
2.73506
2.73587
2.7365
2.73712
2.73773
2.7383
2.73888
2.73943
2.73999
2.74054
2.74108
2.74163
2.74213
2.74273
2.73564
2.73637
2.73685
2.73732
2.73777
2.73821
2.73864
2.73907
2.73951
2.73995
2.74041
2.74091
2.74142
2.74205
2.73091
2.73199
2.73293
2.73385
2.73472
2.73556
2.73634
2.7371
2.73777
2.73843
2.73899
2.73955
2.74
2.7405
2.73126
2.73233
2.73333
2.73428
2.7352
2.73608
2.73691
2.73771
2.73842
2.73912
2.73973
2.74033
2.74081
2.74135
2.73172
2.73275
2.73378
2.73477
2.73571
2.73662
2.73747
2.7383
2.73904
2.73975
2.74036
2.74097
2.74145
2.74198
2.73222
2.73325
2.73429
2.73529
2.73625
2.73717
2.73803
2.73886
2.7396
2.74032
2.74094
2.74154
2.74204
2.74256
2.73277
2.73379
2.73482
2.73581
2.73677
2.73768
2.73854
2.73936
2.7401
2.7408
2.74143
2.74202
2.74251
2.74302
2.73336
2.73435
2.73535
2.73632
2.73726
2.73815
2.739
2.7398
2.74053
2.74121
2.74183
2.7424
2.74291
2.74339
2.73396
2.7349
2.73585
2.73678
2.73769
2.73855
2.73937
2.74015
2.74087
2.74153
2.74213
2.74269
2.74319
2.74367
2.73457
2.73544
2.73633
2.7372
2.73806
2.73888
2.73967
2.7404
2.7411
2.74174
2.74233
2.74287
2.74338
2.74385
2.73513
2.73594
2.73677
2.73756
2.73836
2.73912
2.73986
2.74056
2.74123
2.74184
2.74243
2.74296
2.74348
2.74395
2.73568
2.73643
2.73717
2.73787
2.7386
2.73929
2.73997
2.74062
2.74126
2.74184
2.74242
2.74294
2.74347
2.74395
2.73618
2.73688
2.73752
2.73814
2.73878
2.73938
2.74
2.7406
2.7412
2.74177
2.74234
2.74287
2.74341
2.74392
2.73669
2.73734
2.73785
2.73837
2.7389
2.73941
2.73996
2.7405
2.74106
2.74159
2.74215
2.74268
2.74323
2.74379
2.73714
2.73771
2.73811
2.73854
2.73896
2.7394
2.73986
2.74033
2.74083
2.74135
2.74189
2.74244
2.743
2.74362
2.73772
2.73811
2.7384
2.7387
2.739
2.73934
2.7397
2.7401
2.74054
2.74102
2.74153
2.7421
2.74272
2.74344
2.72944
2.73045
2.73133
2.73218
2.73298
2.73375
2.73448
2.73518
2.73582
2.73643
2.73696
2.73749
2.73793
2.73842
2.73019
2.73104
2.73193
2.73278
2.73361
2.73441
2.73517
2.73589
2.73655
2.73719
2.73775
2.73831
2.73877
2.7393
2.73089
2.73174
2.73262
2.73346
2.73429
2.73508
2.73584
2.73657
2.73723
2.73786
2.73843
2.73899
2.73946
2.73997
2.73161
2.73242
2.73329
2.73411
2.73493
2.73572
2.73648
2.7372
2.73787
2.7385
2.73907
2.73963
2.74011
2.74062
2.73232
2.7331
2.73394
2.73474
2.73554
2.73631
2.73705
2.73777
2.73843
2.73905
2.73962
2.74018
2.74067
2.74117
2.73302
2.73377
2.73456
2.73533
2.73609
2.73684
2.73757
2.73827
2.73892
2.73954
2.74011
2.74066
2.74116
2.74166
2.7337
2.7344
2.73514
2.73586
2.73659
2.7373
2.73801
2.73868
2.73933
2.73993
2.74051
2.74105
2.74157
2.74207
2.73435
2.73499
2.73567
2.73634
2.73702
2.7377
2.73838
2.73903
2.73966
2.74025
2.74082
2.74137
2.74191
2.74241
2.73493
2.73553
2.73615
2.73676
2.73739
2.73802
2.73867
2.73929
2.7399
2.74048
2.74106
2.74161
2.74217
2.74269
2.73549
2.73604
2.73658
2.73713
2.7377
2.73828
2.73889
2.73947
2.74007
2.74064
2.74122
2.74178
2.74236
2.74291
2.73598
2.7365
2.73697
2.73746
2.73797
2.73849
2.73905
2.7396
2.74018
2.74074
2.74133
2.74191
2.74252
2.74311
2.73647
2.73694
2.7373
2.73773
2.73817
2.73865
2.73916
2.73968
2.74024
2.7408
2.74139
2.74199
2.74262
2.74328
2.73691
2.73731
2.73761
2.73797
2.73834
2.73877
2.73923
2.73974
2.74028
2.74085
2.74146
2.7421
2.74277
2.7435
2.73743
2.73768
2.73789
2.73815
2.73846
2.73883
2.73926
2.73975
2.74029
2.74088
2.7415
2.74219
2.7429
2.74373
2.72709
2.72788
2.72859
2.72927
2.72995
2.73061
2.73127
2.73191
2.73251
2.73309
2.73362
2.73414
2.73461
2.73514
2.72796
2.72859
2.72929
2.72996
2.73064
2.7313
2.73195
2.73259
2.73321
2.7338
2.73435
2.7349
2.73538
2.73595
2.72882
2.72942
2.73009
2.73072
2.73137
2.732
2.73263
2.73325
2.73385
2.73444
2.73499
2.73554
2.73604
2.7366
2.72965
2.7302
2.73082
2.73142
2.73204
2.73266
2.73328
2.73389
2.73448
2.73507
2.73563
2.73618
2.7367
2.73726
2.73044
2.73096
2.73154
2.73211
2.7327
2.73329
2.73388
2.73448
2.73506
2.73564
2.73621
2.73677
2.7373
2.73786
2.7312
2.73169
2.73222
2.73275
2.73331
2.73387
2.73445
2.73503
2.73561
2.73619
2.73676
2.73733
2.73788
2.73844
2.73192
2.73236
2.73286
2.73335
2.73388
2.73442
2.73498
2.73554
2.73612
2.73669
2.73727
2.73785
2.73843
2.73899
2.7326
2.733
2.73346
2.73392
2.73442
2.73493
2.73547
2.73602
2.7366
2.73717
2.73776
2.73835
2.73896
2.73954
2.73322
2.7336
2.73401
2.73444
2.73491
2.7354
2.73593
2.73647
2.73705
2.73763
2.73823
2.73884
2.73947
2.74008
2.7338
2.73418
2.73453
2.73494
2.73538
2.73585
2.73637
2.7369
2.73748
2.73807
2.73869
2.73932
2.73999
2.74061
2.73434
2.73471
2.73502
2.7354
2.73581
2.73627
2.73677
2.73731
2.7379
2.73851
2.73916
2.73981
2.74051
2.74116
2.73486
2.73519
2.73546
2.73582
2.73621
2.73666
2.73716
2.73771
2.7383
2.73893
2.7396
2.74029
2.74102
2.74172
2.73531
2.73565
2.73587
2.73622
2.73658
2.73703
2.73753
2.7381
2.73871
2.73938
2.74008
2.74081
2.74157
2.74234
2.73577
2.736
2.7362
2.73653
2.73688
2.73734
2.73785
2.73844
2.73908
2.73977
2.74051
2.7413
2.7421
2.74297
2.72298
2.72355
2.7241