/*--------------------------------*- C++ -*----------------------------------*\
| =========                 |                                                 |
| \\      /  F ield         | OpenFOAM: The Open Source CFD Toolbox           |
|  \\    /   O peration     | Version:  v2106                                 |
|   \\  /    A nd           | Website:  www.openfoam.com                      |
|    \\/     M anipulation  |                                                 |
\*---------------------------------------------------------------------------*/
FoamFile
{
    version     2.0;
    format      ascii;
    arch        "LSB;label=32;scalar=64";
    class       volScalarField;
    location    "0.000182";
    object      T;
}
// * * * * * * * * * * * * * * * * * * * * * * * * * * * * * * * * * * * * * //

dimensions      [0 0 0 1 0 0 0];

internalField   nonuniform List<scalar> 
18109
(
297.115
297.078
297.041
297.006
296.967
296.929
296.899
297.054
296.995
296.915
296.842
296.781
296.733
296.698
296.982
296.882
296.779
296.682
296.605
296.545
296.502
296.871
296.75
296.631
296.523
296.439
296.368
296.309
296.727
296.59
296.459
296.354
296.273
296.201
296.134
296.542
296.397
296.267
296.172
296.098
296.027
295.952
296.329
296.188
296.067
295.981
295.914
295.845
295.766
296.092
295.966
295.859
295.779
295.714
295.64
295.56
297.397
297.339
297.286
297.231
297.176
297.135
297.107
297.079
297.048
296.99
296.912
296.787
296.646
296.481
297.311
297.241
297.155
297.071
297.003
296.953
296.919
296.891
296.865
296.816
296.745
296.63
296.502
296.328
297.23
297.129
297.027
296.925
296.849
296.792
296.756
296.723
296.691
296.64
296.57
296.457
296.336
296.17
297.097
296.991
296.881
296.78
296.705
296.645
296.601
296.554
296.506
296.438
296.355
296.24
296.12
295.974
296.953
296.843
296.728
296.635
296.567
296.508
296.461
296.405
296.341
296.255
296.157
296.04
295.924
295.799
296.767
296.662
296.561
296.479
296.421
296.367
296.315
296.247
296.164
296.062
295.952
295.837
295.728
295.626
296.564
296.474
296.388
296.318
296.267
296.213
296.157
296.08
295.987
295.877
295.763
295.655
295.558
295.475
296.344
296.278
296.209
296.148
296.098
296.04
295.978
295.893
295.794
295.682
295.566
295.464
295.376
295.301
296.118
296.076
296.025
295.967
295.917
295.849
295.778
295.689
295.587
295.476
295.361
295.264
295.171
295.107
295.888
295.869
295.844
295.792
295.733
295.645
295.559
295.464
295.361
295.255
295.139
295.044
294.918
294.851
295.671
295.662
295.662
295.609
295.534
295.423
295.32
295.216
295.108
295.003
294.886
294.778
294.613
294.518
295.415
295.443
295.477
295.423
295.34
295.224
295.099
294.977
294.852
294.735
294.612
294.487
294.277
294.112
295.123
295.164
295.237
295.216
295.155
295.055
294.919
294.778
294.623
294.478
294.324
294.152
293.894
293.678
294.747
294.862
294.984
295.002
294.969
294.905
294.776
294.623
294.437
294.256
294.059
293.857
293.578
293.284
297.115
297.13
297.143
297.102
296.877
296.328
297.414
297.435
297.444
297.395
297.216
296.757
297.448
297.529
297.561
297.508
297.207
296.516
297.435
297.581
297.644
297.557
297.15
296.27
297.424
297.596
297.666
297.567
297.067
296.076
297.382
297.572
297.654
297.525
296.981
296.053
297.333
297.503
297.572
297.424
296.915
296.156
297.289
297.435
297.481
297.332
296.925
296.457
297.236
297.347
297.366
297.237
297.01
296.852
297.177
297.251
297.25
297.18
297.129
297.176
297.088
297.133
297.119
297.105
297.148
297.271
296.973
296.998
296.979
297.008
297.099
297.218
296.815
296.823
296.807
296.862
296.97
297.094
296.643
296.66
296.651
296.698
296.744
296.744
296.468
296.467
296.43
296.432
296.311
295.952
296.38
296.417
296.378
296.219
295.754
294.9
296.235
296.238
296.134
295.782
294.976
293.77
296.066
296.066
295.871
295.304
294.211
292.767
295.845
295.816
295.517
294.796
293.569
292.068
295.673
295.595
295.207
294.409
293.188
291.826
295.504
295.368
294.921
294.115
292.988
291.908
295.353
295.146
294.671
293.935
293.024
292.29
295.162
294.871
294.391
293.774
293.104
292.626
294.914
294.557
294.088
293.603
293.141
292.805
294.566
294.158
293.702
293.315
292.967
292.686
294.146
293.735
293.301
292.966
292.68
292.401
293.691
293.289
292.887
292.566
292.229
291.766
293.314
292.956
292.608
292.266
291.766
290.924
292.942
292.583
292.188
291.653
290.866
289.794
292.995
292.707
292.323
291.625
290.464
289.059
293.256
292.9
292.433
291.594
290.234
288.606
293.542
293.198
292.704
291.778
290.293
288.578
293.787
293.457
292.971
292.023
290.521
288.862
294.05
293.766
293.295
292.361
290.948
289.482
294.276
294.036
293.576
292.694
291.452
290.259
294.485
294.264
293.79
292.992
291.981
291.084
294.628
294.377
293.888
293.203
292.415
291.805
294.711
294.414
293.908
293.29
292.707
292.324
294.714
294.369
293.86
293.333
292.874
292.545
294.689
294.3
293.803
293.312
292.889
292.52
294.603
294.202
293.731
293.264
292.83
292.367
294.479
294.107
293.701
293.288
292.803
292.112
294.387
294.035
293.645
293.213
292.611
291.703
296.965
297.06
297.05
297.043
297.027
297.114
297.034
297.118
297.096
297.081
297.057
297.138
297.088
297.162
297.133
297.098
297.058
297.004
297.185
297.228
297.206
297.144
296.999
296.665
294.474
294.2
293.918
293.449
292.666
291.53
294.926
294.635
294.355
293.827
292.917
291.631
295.269
295.058
294.829
294.29
293.314
292.044
295.613
295.473
295.281
294.754
293.838
292.69
295.9
295.836
295.713
295.292
294.528
293.537
296.178
296.165
296.102
295.808
295.22
294.452
296.437
296.474
296.469
296.279
295.85
295.386
296.676
296.762
296.777
296.637
296.365
296.184
296.892
297.005
297.011
296.922
296.779
296.794
297.072
297.184
297.191
297.158
297.115
297.2
297.198
297.307
297.31
297.315
297.306
297.394
297.293
297.395
297.387
297.386
297.365
297.435
297.358
297.454
297.436
297.394
297.341
297.384
297.45
297.519
297.495
297.455
297.31
297.108
295.066
292.274
290.215
288.183
283.357
294.572
291.874
290.04
288.405
283.257
294.315
291.99
290.559
289.001
284.154
294.378
292.602
291.387
289.091
282.04
294.806
293.616
292.527
288.893
279.486
295.381
294.739
293.563
288.599
277.806
296.13
295.839
294.344
288.615
278.039
296.785
296.579
294.68
288.148
277.558
269.195
297.253
296.886
294.32
287.063
276.531
268.362
297.361
296.679
293.442
286.08
277.094
270.115
297.198
295.957
292.179
285.495
278.811
273.865
270.968
296.601
294.496
290.703
285.671
281.298
277.637
276.371
276.807
295.5
292.555
289.195
286.072
283.741
281.282
283.077
289.02
294.06
290.708
288.087
286.287
284.736
281.281
281.79
280.762
292.554
289.411
287.377
285.714
281.696
275.12
271.488
269.565
291.318
288.707
287.088
285.649
281.459
274.5
268.084
266.86
290.495
288.472
287.314
285.826
281.962
276.386
273.938
271.204
290.159
288.514
287.403
284.909
279.207
272.023
268.376
270.644
290.286
288.913
287.741
283.925
275.586
265.203
259.236
256.222
290.823
289.714
288.05
282.926
273.838
263.547
254.793
251.486
291.518
290.369
288.014
282.179
274.272
266.158
260.379
255.46
291.901
290.512
286.903
280.232
272.231
264.613
259.518
259.882
291.999
290.089
285.508
278.295
270.012
261.169
291.675
289.14
284.289
277.489
270.012
261.906
291.047
287.951
283.69
278.325
272.912
266.906
289.934
286.616
283.364
279.813
275.862
271.432
288.736
285.647
283.511
281.132
278.233
275.158
287.623
284.94
283.672
282.023
279.093
286.787
284.487
283.388
281.556
276.256
286.337
284.308
283.291
282.011
276.597
286.361
284.71
284.182
283.057
278.077
286.95
285.679
285.488
283.612
278.069
288.019
287.093
286.691
283.047
274.163
289.297
288.606
287.475
282.152
271.879
290.432
289.758
287.919
281.753
272.29
291.291
290.391
287.343
280.24
270.624
291.813
290.438
286.483
278.99
268.88
291.918
290.038
285.783
278.913
269.748
291.62
289.356
285.418
279.991
272.938
291.053
288.352
285.091
281.409
276.402
290.299
287.439
284.94
282.273
278.656
289.592
286.721
284.785
282.671
278.874
289.266
286.526
284.867
283.216
277.679
289.38
286.841
285.492
284.275
278.062
289.955
287.853
287.001
285.817
280.157
290.948
289.462
288.792
286.67
279.887
292.253
291.278
290.538
286.857
276.812
293.639
293.077
292.037
286.602
274.709
294.952
294.666
293.204
286.795
274.823
296.088
295.907
293.862
286.351
273.794
296.862
296.571
294.107
285.839
272.925
297.251
296.747
293.66
285.697
273.936
297.255
296.318
293.006
286.23
276.793
297.001
295.47
292.133
287.064
280.531
296.465
294.273
291.161
287.711
283.653
295.729
293.146
290.539
288.377
285.3
298.116
298.078
298.015
297.939
297.87
297.815
297.781
297.758
297.742
297.714
297.681
297.612
297.512
297.361
297.999
297.931
297.856
297.768
297.696
297.636
297.6
297.574
297.563
297.545
297.512
297.447
297.369
297.248
297.894
297.807
297.726
297.628
297.554
297.493
297.461
297.438
297.429
297.409
297.383
297.321
297.251
297.139
297.722
297.643
297.561
297.474
297.413
297.365
297.338
297.315
297.299
297.27
297.234
297.168
297.098
296.995
297.563
297.491
297.417
297.347
297.296
297.258
297.236
297.21
297.185
297.144
297.093
297.021
296.943
296.841
297.361
297.312
297.259
297.212
297.175
297.148
297.125
297.093
297.054
296.998
296.931
296.85
296.763
296.661
297.148
297.125
297.098
297.077
297.049
297.026
296.999
296.96
296.909
296.84
296.758
296.669
296.577
296.481
296.935
296.944
296.939
296.936
296.911
296.883
296.847
296.796
296.731
296.651
296.558
296.463
296.373
296.287
296.733
296.759
296.775
296.776
296.751
296.714
296.665
296.603
296.528
296.442
296.342
296.248
296.158
296.092
296.539
296.579
296.621
296.612
296.577
296.52
296.454
296.379
296.295
296.207
296.101
296.012
295.902
295.856
296.34
296.393
296.453
296.434
296.385
296.306
296.219
296.127
296.031
295.938
295.828
295.742
295.614
295.582
296.116
296.206
296.288
296.258
296.193
296.091
295.978
295.864
295.75
295.647
295.538
295.449
295.29
295.226
295.854
295.962
296.072
296.062
296.004
295.899
295.763
295.625
295.481
295.351
295.222
295.099
294.911
294.812
295.545
295.722
295.859
295.868
295.821
295.731
295.582
295.419
295.244
295.084
294.932
294.777
294.582
294.389
299.687
299.655
299.632
299.579
299.511
299.433
299.381
299.339
299.316
299.296
299.275
299.218
299.153
299.031
299.548
299.519
299.46
299.391
299.315
299.25
299.205
299.169
299.147
299.123
299.097
299.035
298.982
298.884
299.392
299.355
299.307
299.256
299.191
299.131
299.084
299.046
299.023
299.003
298.982
298.935
298.899
298.816
299.225
299.189
299.15
299.114
299.061
299.011
298.968
298.933
298.911
298.889
298.865
298.819
298.784
298.714
299.034
299.006
298.993
298.975
298.941
298.904
298.872
298.844
298.822
298.799
298.771
298.724
298.682
298.614
298.835
298.839
298.849
298.847
298.829
298.798
298.773
298.746
298.721
298.692
298.655
298.601
298.549
298.478
298.633
298.671
298.706
298.718
298.712
298.685
298.662
298.634
298.604
298.568
298.519
298.457
298.393
298.318
298.445
298.508
298.567
298.584
298.583
298.555
298.527
298.493
298.454
298.408
298.346
298.275
298.199
298.126
298.264
298.337
298.413
298.428
298.428
298.397
298.36
298.317
298.269
298.215
298.143
298.066
297.982
297.919
298.09
298.167
298.257
298.264
298.256
298.215
298.163
298.106
298.046
297.981
297.896
297.819
297.721
297.68
297.914
297.982
298.077
298.081
298.057
298.001
297.929
297.857
297.781
297.706
297.615
297.552
297.447
297.451
297.718
297.811
297.904
297.904
297.859
297.781
297.682
297.586
297.491
297.403
297.309
297.241
297.124
297.12
297.472
297.596
297.698
297.714
297.657
297.561
297.433
297.306
297.183
297.071
296.966
296.885
296.776
296.752
297.198
297.401
297.513
297.529
297.456
297.355
297.203
297.045
296.894
296.765
296.655
296.543
296.422
296.317
301.593
301.583
301.594
301.577
301.558
301.515
301.477
301.443
301.422
301.405
301.388
301.354
301.316
301.219
301.429
301.438
301.426
301.405
301.371
301.323
301.281
301.243
301.219
301.199
301.177
301.139
301.103
301.026
301.244
301.259
301.254
301.247
301.223
301.181
301.14
301.104
301.079
301.06
301.046
301.021
300.999
300.957
301.057
301.08
301.083
301.086
301.071
301.036
301.001
300.971
300.95
300.933
300.919
300.898
300.883
300.86
300.865
300.898
300.92
300.935
300.93
300.907
300.882
300.861
300.846
300.833
300.82
300.804
300.793
300.781
300.683
300.729
300.771
300.795
300.799
300.785
300.767
300.753
300.742
300.732
300.718
300.702
300.691
300.682
300.512
300.57
300.63
300.661
300.672
300.664
300.651
300.641
300.634
300.626
300.612
300.595
300.579
300.569
300.355
300.421
300.497
300.529
300.542
300.536
300.523
300.513
300.506
300.497
300.481
300.461
300.436
300.423
300.202
300.267
300.352
300.385
300.394
300.388
300.373
300.362
300.352
300.343
300.324
300.301
300.265
300.249
300.054
300.121
300.208
300.235
300.234
300.222
300.2
300.182
300.165
300.15
300.125
300.1
300.051
300.037
299.896
299.964
300.039
300.062
300.049
300.025
299.995
299.967
299.941
299.919
299.889
299.87
299.806
299.812
299.733
299.821
299.877
299.896
299.867
299.824
299.774
299.73
299.684
299.647
299.604
299.582
299.506
299.525
299.54
299.643
299.687
299.71
299.67
299.61
299.535
299.468
299.398
299.342
299.293
299.263
299.199
299.212
299.327
299.473
299.525
299.543
299.482
299.408
299.306
299.21
299.115
299.044
298.982
298.925
298.861
298.814
303.71
303.701
303.71
303.708
303.707
303.694
303.677
303.665
303.661
303.664
303.673
303.677
303.686
303.672
303.509
303.535
303.541
303.541
303.539
303.526
303.509
303.493
303.483
303.478
303.48
303.478
303.478
303.472
303.32
303.356
303.365
303.377
303.381
303.374
303.362
303.347
303.337
303.331
303.333
303.333
303.336
303.329
303.13
303.169
303.189
303.212
303.222
303.222
303.216
303.207
303.199
303.194
303.193
303.192
303.196
303.198
302.949
302.988
303.023
303.054
303.073
303.079
303.08
303.079
303.078
303.077
303.077
303.078
303.085
303.1
302.78
302.825
302.871
302.907
302.931
302.944
302.951
302.956
302.961
302.965
302.967
302.97
302.981
303.005
302.623
302.672
302.729
302.768
302.797
302.815
302.827
302.838
302.849
302.857
302.862
302.869
302.881
302.91
302.48
302.531
302.595
302.636
302.666
302.686
302.702
302.717
302.729
302.742
302.752
302.761
302.77
302.798
302.337
302.391
302.457
302.501
302.53
302.552
302.569
302.586
302.599
302.617
302.63
302.641
302.644
302.665
302.207
302.261
302.323
302.364
302.387
302.406
302.422
302.438
302.451
302.471
302.484
302.496
302.487
302.502
302.056
302.118
302.17
302.209
302.226
302.241
302.253
302.268
302.28
302.299
302.312
302.326
302.304
302.32
301.929
301.993
302.029
302.06
302.065
302.07
302.074
302.082
302.088
302.1
302.105
302.118
302.084
302.105
301.753
301.831
301.856
301.886
301.886
301.883
301.877
301.875
301.871
301.876
301.877
301.888
301.864
301.884
301.591
301.692
301.719
301.744
301.73
301.713
301.692
301.675
301.658
301.655
301.642
301.634
301.603
301.61
305.473
305.475
305.485
305.498
305.515
305.53
305.545
305.56
305.58
305.607
305.642
305.683
305.736
305.77
305.298
305.318
305.328
305.344
305.365
305.384
305.4
305.415
305.433
305.454
305.483
305.517
305.558
305.594
305.14
305.162
305.172
305.195
305.221
305.244
305.263
305.28
305.297
305.318
305.343
305.375
305.414
305.453
304.981
305.001
305.019
305.047
305.077
305.102
305.125
305.144
305.162
305.182
305.205
305.234
305.27
305.314
304.829
304.848
304.875
304.906
304.938
304.967
304.992
305.015
305.035
305.057
305.08
305.109
305.146
305.196
304.687
304.707
304.74
304.773
304.807
304.837
304.865
304.891
304.914
304.938
304.961
304.991
305.027
305.086
304.554
304.579
304.615
304.65
304.684
304.717
304.747
304.776
304.801
304.827
304.851
304.883
304.92
304.985
304.432
304.457
304.497
304.532
304.567
304.601
304.634
304.665
304.693
304.721
304.746
304.779
304.816
304.886
304.315
304.341
304.38
304.417
304.452
304.488
304.523
304.558
304.588
304.619
304.645
304.679
304.713
304.785
304.205
304.23
304.265
304.3
304.335
304.372
304.409
304.448
304.482
304.516
304.544
304.578
304.608
304.678
304.093
304.116
304.146
304.18
304.212
304.249
304.289
304.332
304.37
304.409
304.438
304.473
304.5
304.567
303.993
304.014
304.033
304.061
304.088
304.123
304.163
304.208
304.251
304.293
304.324
304.36
304.387
304.449
303.865
303.894
303.907
303.935
303.959
303.992
304.032
304.078
304.123
304.169
304.204
304.245
304.278
304.332
303.778
303.801
303.812
303.833
303.848
303.874
303.909
303.954
303.999
304.047
304.082
304.12
304.144
304.199
306.753
306.759
306.771
306.793
306.824
306.857
306.892
306.928
306.967
307.009
307.059
307.113
307.183
307.24
306.617
306.631
306.645
306.67
306.705
306.742
306.78
306.818
306.857
306.899
306.944
306.997
307.058
307.118
306.497
306.512
306.526
306.554
306.591
306.631
306.671
306.711
306.75
306.79
306.834
306.884
306.945
307.005
306.373
306.388
306.406
306.437
306.477
306.518
306.56
306.601
306.64
306.681
306.723
306.772
306.83
306.895
306.254
306.269
306.292
306.326
306.366
306.409
306.452
306.493
306.533
306.574
306.615
306.665
306.723
306.794
306.139
306.154
306.183
306.218
306.26
306.304
306.347
306.389
306.428
306.469
306.509
306.56
306.618
306.696
306.029
306.046
306.079
306.117
306.16
306.204
306.248
306.29
306.329
306.369
306.408
306.46
306.518
306.605
305.926
305.945
305.981
306.02
306.064
306.11
306.154
306.198
306.236
306.276
306.314
306.366
306.423
306.518
305.831
305.85
305.887
305.927
305.972
306.02
306.066
306.111
306.151
306.191
306.228
306.28
306.335
306.435
305.744
305.761
305.796
305.837
305.883
305.932
305.982
306.031
306.073
306.116
306.152
306.204
306.256
306.357
305.664
305.678
305.708
305.748
305.794
305.846
305.899
305.953
306.001
306.048
306.086
306.138
306.188
306.287
305.591
305.603
305.627
305.664
305.708
305.761
305.818
305.879
305.933
305.987
306.031
306.085
306.133
306.226
305.517
305.53
305.549
305.583
305.626
305.679
305.74
305.806
305.869
305.931
305.983
306.042
306.091
306.179
305.478
305.481
305.492
305.519
305.554
305.605
305.669
305.742
305.813
305.884
305.942
306.004
306.046
306.138
307.632
307.647
307.671
307.7
307.733
307.768
307.802
307.838
307.873
307.911
307.954
308.001
308.062
308.116
307.525
307.55
307.574
307.606
307.641
307.678
307.716
307.755
307.793
307.835
307.878
307.927
307.985
308.045
307.435
307.46
307.484
307.517
307.553
307.592
307.631
307.672
307.712
307.755
307.8
307.85
307.91
307.969
307.335
307.362
307.39
307.425
307.464
307.505
307.547
307.591
307.634
307.679
307.726
307.778
307.838
307.903
307.239
307.268
307.299
307.336
307.377
307.421
307.465
307.511
307.555
307.603
307.651
307.705
307.768
307.838
307.146
307.177
307.212
307.251
307.294
307.34
307.386
307.433
307.479
307.528
307.577
307.635
307.699
307.776
307.061
307.093
307.13
307.171
307.216
307.264
307.311
307.359
307.405
307.455
307.505
307.565
307.631
307.715
306.985
307.016
307.054
307.097
307.143
307.192
307.24
307.288
307.335
307.385
307.434
307.496
307.563
307.654
306.919
306.946
306.985
307.028
307.075
307.124
307.172
307.222
307.268
307.319
307.367
307.43
307.496
307.593
306.861
306.885
306.921
306.964
307.011
307.061
307.11
307.161
307.208
307.259
307.306
307.37
307.433
307.534
306.812
306.831
306.864
306.905
306.952
307.002
307.053
307.106
307.155
307.207
307.255
307.319
307.379
307.48
306.77
306.785
306.813
306.851
306.896
306.947
307.001
307.057
307.11
307.166
307.215
307.28
307.337
307.434
306.731
306.745
306.768
306.804
306.847
306.9
306.956
307.017
307.075
307.136
307.19
307.257
307.314
307.406
306.713
306.723
306.739
306.768
306.808
306.859
306.92
306.986
307.05
307.114
307.17
307.234
307.286
307.381
308.141
308.179
308.211
308.243
308.273
308.302
308.33
308.36
308.389
308.423
308.457
308.496
308.544
308.588
308.058
308.103
308.136
308.17
308.202
308.234
308.266
308.3
308.334
308.371
308.41
308.453
308.502
308.553
307.991
308.036
308.069
308.103
308.136
308.17
308.204
308.24
308.276
308.316
308.357
308.403
308.455
308.508
307.914
307.959
307.995
308.032
308.068
308.106
308.144
308.184
308.224
308.268
308.313
308.362
308.417
308.473
307.843
307.888
307.925
307.965
308.004
308.045
308.086
308.129
308.173
308.22
308.268
308.32
308.378
308.439
307.776
307.82
307.86
307.902
307.944
307.988
308.032
308.079
308.126
308.175
308.227
308.283
308.343
308.408
307.717
307.76
307.801
307.844
307.889
307.935
307.981
308.03
308.08
308.133
308.187
308.247
308.309
308.38
307.667
307.707
307.748
307.793
307.838
307.886
307.934
307.985
308.036
308.091
308.147
308.21
308.275
308.35
307.624
307.662
307.703
307.747
307.793
307.841
307.889
307.941
307.992
308.049
308.106
308.172
308.237
308.316
307.589
307.624
307.663
307.707
307.752
307.8
307.848
307.899
307.951
308.007
308.063
308.13
308.194
308.277
307.561
307.592
307.63
307.672
307.716
307.763
307.811
307.862
307.912
307.968
308.022
308.089
308.15
308.236
307.54
307.569
307.603
307.642
307.685
307.731
307.778
307.828
307.878
307.933
307.985
308.05
308.108
308.191
307.52
307.547
307.576
307.615
307.657
307.703
307.751
307.802
307.852
307.907
307.958
308.021
308.077
308.156
307.514
307.54
307.564
307.6
307.639
307.685
307.733
307.783
307.832
307.883
307.932
307.988
308.039
308.116
308.342
308.392
308.434
308.475
308.511
308.546
308.577
308.61
308.641
308.676
308.709
308.747
308.785
308.827
308.282
308.339
308.384
308.427
308.467
308.506
308.542
308.579
308.614
308.652
308.69
308.732
308.774
308.82
308.239
308.296
308.342
308.387
308.428
308.47
308.508
308.547
308.585
308.624
308.664
308.708
308.753
308.8
308.191
308.248
308.296
308.344
308.388
308.433
308.475
308.518
308.559
308.602
308.646
308.692
308.739
308.787
308.149
308.205
308.254
308.304
308.351
308.398
308.443
308.489
308.533
308.579
308.625
308.673
308.722
308.771
308.11
308.166
308.216
308.268
308.317
308.366
308.414
308.462
308.51
308.558
308.607
308.657
308.707
308.758
308.078
308.132
308.183
308.236
308.286
308.337
308.387
308.438
308.488
308.539
308.59
308.643
308.694
308.747
308.055
308.108
308.158
308.21
308.261
308.312
308.363
308.415
308.467
308.52
308.573
308.627
308.681
308.734
308.038
308.088
308.137
308.188
308.239
308.29
308.342
308.394
308.447
308.501
308.555
308.611
308.664
308.72
308.028
308.076
308.124
308.173
308.223
308.272
308.323
308.374
308.426
308.479
308.533
308.589
308.641
308.699
308.023
308.069
308.113
308.161
308.209
308.257
308.306
308.355
308.405
308.456
308.507
308.563
308.613
308.673
308.023
308.068
308.109
308.154
308.199
308.245
308.29
308.336
308.382
308.43
308.477
308.53
308.577
308.637
308.02
308.064
308.103
308.146
308.19
308.233
308.276
308.32
308.362
308.406
308.449
308.499
308.543
308.601
308.03
308.072
308.109
308.15
308.189
308.228
308.267
308.305
308.342
308.38
308.418
308.46
308.501
308.554
308.399
308.456
308.506
308.552
308.595
308.635
308.671
308.707
308.739
308.773
308.804
308.838
308.868
308.905
308.365
308.428
308.481
308.533
308.58
308.625
308.666
308.706
308.742
308.78
308.814
308.85
308.883
308.918
308.343
308.407
308.463
308.518
308.568
308.616
308.66
308.704
308.743
308.783
308.818
308.855
308.889
308.925
308.323
308.387
308.446
308.503
308.556
308.608
308.655
308.701
308.743
308.785
308.823
308.861
308.897
308.933
308.308
308.372
308.432
308.491
308.546
308.599
308.649
308.697
308.742
308.785
308.826
308.865
308.902
308.938
308.299
308.362
308.423
308.482
308.538
308.592
308.644
308.693
308.739
308.784
308.826
308.866
308.904
308.94
308.295
308.356
308.416
308.475
308.532
308.586
308.638
308.688
308.736
308.781
308.824
308.865
308.903
308.94
308.297
308.357
308.416
308.473
308.528
308.581
308.633
308.682
308.729
308.774
308.817
308.858
308.897
308.933
308.302
308.36
308.416
308.471
308.524
308.575
308.626
308.673
308.72
308.764
308.807
308.848
308.886
308.923
308.315
308.37
308.422
308.473
308.523
308.57
308.618
308.663
308.708
308.751
308.793
308.833
308.87
308.908
308.327
308.379
308.427
308.474
308.521
308.565
308.609
308.652
308.694
308.735
308.774
308.815
308.85
308.889
308.346
308.395
308.438
308.48
308.521
308.561
308.601
308.639
308.677
308.714
308.751
308.789
308.822
308.862
308.361
308.406
308.444
308.483
308.521
308.556
308.592
308.626
308.659
308.693
308.726
308.761
308.792
308.831
308.385
308.428
308.461
308.493
308.524
308.554
308.584
308.611
308.638
308.665
308.693
308.722
308.75
308.787
308.422
308.477
308.523
308.566
308.606
308.644
308.679
308.714
308.745
308.776
308.804
308.833
308.858
308.887
308.418
308.475
308.524
308.572
308.616
308.657
308.695
308.733
308.766
308.8
308.829
308.86
308.885
308.915
308.418
308.476
308.53
308.58
308.627
308.671
308.711
308.751
308.787
308.822
308.852
308.883
308.908
308.938
308.423
308.482
308.538
308.591
308.64
308.686
308.727
308.768
308.805
308.84
308.872
308.903
308.93
308.958
308.432
308.492
308.549
308.603
308.653
308.7
308.742
308.783
308.821
308.857
308.89
308.921
308.948
308.976
308.447
308.505
308.563
308.617
308.667
308.713
308.756
308.797
308.834
308.87
308.903
308.934
308.962
308.989
308.464
308.521
308.577
308.629
308.679
308.725
308.768
308.808
308.845
308.88
308.913
308.944
308.972
308.998
308.484
308.539
308.592
308.643
308.691
308.735
308.777
308.815
308.852
308.886
308.919
308.949
308.977
309.002
308.506
308.557
308.608
308.655
308.701
308.743
308.783
308.82
308.856
308.889
308.921
308.95
308.978
309.003
308.53
308.578
308.624
308.667
308.709
308.748
308.786
308.821
308.855
308.887
308.918
308.947
308.973
308.998
308.553
308.597
308.638
308.677
308.715
308.75
308.785
308.818
308.85
308.88
308.909
308.937
308.962
308.987
308.578
308.619
308.654
308.687
308.72
308.75
308.781
308.809
308.838
308.865
308.892
308.918
308.942
308.97
308.6
308.636
308.665
308.694
308.721
308.747
308.773
308.797
308.822
308.847
308.872
308.896
308.919
308.947
308.625
308.659
308.68
308.702
308.723
308.742
308.762
308.781
308.8
308.82
308.841
308.864
308.887
308.915
308.412
308.461
308.504
308.545
308.584
308.622
308.657
308.692
308.723
308.752
308.778
308.803
308.823
308.846
308.428
308.477
308.522
308.565
308.606
308.646
308.683
308.719
308.752
308.783
308.811
308.838
308.86
308.884
308.449
308.496
308.542
308.587
308.629
308.67
308.709
308.746
308.779
308.811
308.839
308.867
308.888
308.912
308.472
308.518
308.565
308.61
308.653
308.695
308.734
308.771
308.805
308.837
308.865
308.892
308.915
308.938
308.496
308.542
308.589
308.634
308.677
308.718
308.757
308.794
308.827
308.859
308.887
308.914
308.936
308.959
308.523
308.568
308.613
308.657
308.699
308.739
308.777
308.813
308.846
308.877
308.905
308.931
308.954
308.976
308.55
308.592
308.635
308.677
308.718
308.757
308.794
308.829
308.862
308.892
308.919
308.944
308.967
308.988
308.577
308.617
308.657
308.696
308.735
308.772
308.807
308.841
308.872
308.901
308.928
308.952
308.976
308.997
308.603
308.639
308.677
308.713
308.749
308.783
308.816
308.848
308.878
308.906
308.932
308.956
308.98
309.001
308.628
308.662
308.695
308.727
308.759
308.79
308.821
308.85
308.879
308.906
308.932
308.956
308.98
309.002
308.65
308.682
308.711
308.739
308.768
308.795
308.823
308.85
308.877
308.902
308.928
308.952
308.977
309
308.674
308.703
308.726
308.749
308.773
308.796
308.821
308.845
308.87
308.895
308.92
308.944
308.969
308.994
308.694
308.72
308.738
308.757
308.777
308.796
308.817
308.838
308.86
308.884
308.908
308.933
308.958
308.986
308.72
308.738
308.751
308.764
308.778
308.793
308.81
308.827
308.847
308.868
308.891
308.917
308.946
308.978
308.345
308.391
308.431
308.469
308.505
308.54
308.573
308.605
308.634
308.661
308.685
308.709
308.73
308.752
308.379
308.418
308.458
308.496
308.534
308.57
308.604
308.637
308.667
308.696
308.721
308.746
308.767
308.791
308.411
308.449
308.489
308.527
308.565
308.6
308.635
308.667
308.697
308.726
308.752
308.777
308.798
308.821
308.444
308.48
308.519
308.557
308.593
308.629
308.663
308.696
308.726
308.755
308.781
308.806
308.828
308.851
308.476
308.511
308.549
308.585
308.621
308.656
308.69
308.722
308.751
308.78
308.806
308.831
308.853
308.876
308.508
308.541
308.577
308.612
308.646
308.68
308.713
308.744
308.774
308.802
308.828
308.852
308.875
308.898
308.538
308.57
308.603
308.636
308.668
308.701
308.733
308.763
308.792
308.82
308.845
308.87
308.893
308.916
308.567
308.597
308.627
308.657
308.688
308.719
308.749
308.779
308.807
308.834
308.86
308.884
308.909
308.932
308.594
308.621
308.649
308.676
308.705
308.733
308.762
308.79
308.818
308.844
308.87
308.895
308.92
308.944
308.619
308.644
308.668
308.693
308.719
308.745
308.772
308.799
308.826
308.851
308.878
308.903
308.929
308.954
308.641
308.665
308.686
308.708
308.731
308.755
308.78
308.805
308.831
308.856
308.883
308.909
308.937
308.963
308.664
308.685
308.701
308.72
308.74
308.762
308.785
308.808
308.833
308.859
308.885
308.913
308.941
308.971
308.683
308.702
308.715
308.731
308.748
308.767
308.788
308.811
308.835
308.861
308.889
308.918
308.948
308.981
308.707
308.718
308.728
308.74
308.753
308.77
308.789
308.812
308.836
308.863
308.89
308.922
308.954
308.991
308.239
308.274
308.306
308.338
308.368
308.398
308.428
308.457
308.484
308.51
308.534
308.558
308.579
308.603
308.278
308.307
308.338
308.369
308.399
308.429
308.459
308.488
308.515
308.542
308.567
308.592
308.614
308.64
308.317
308.344
308.374
308.403
308.432
308.461
308.49
308.518
308.545
308.571
308.596
308.621
308.644
308.669
308.355
308.38
308.408
308.435
308.463
308.491
308.519
308.546
308.573
308.6
308.625
308.65
308.673
308.699
308.39
308.414
308.44
308.466
308.493
308.519
308.546
308.573
308.6
308.626
308.651
308.677
308.701
308.726
308.425
308.447
308.471
308.495
308.52
308.546
308.572
308.598
308.624
308.651
308.676
308.702
308.727
308.752
308.458
308.477
308.5
308.522
308.546
308.571
308.596
308.621
308.647
308.673
308.7
308.726
308.752
308.777
308.489
308.507
308.527
308.548
308.57
308.594
308.618
308.643
308.669
308.695
308.722
308.748
308.776
308.802
308.516
308.534
308.552
308.572
308.593
308.615
308.639
308.663
308.689
308.716
308.743
308.77
308.799
308.826
308.543
308.56
308.576
308.594
308.614
308.635
308.659
308.683
308.709
308.735
308.764
308.792
308.822
308.85
308.567
308.584
308.598
308.615
308.633
308.654
308.677
308.701
308.728
308.755
308.785
308.814
308.846
308.875
308.591
308.606
308.617
308.634
308.651
308.672
308.695
308.719
308.746
308.775
308.805
308.836
308.869
308.9
308.611
308.626
308.636
308.652
308.668
308.689
308.711
308.737
308.765
308.795
308.826
308.859
308.894
308.929
308.632
308.642
308.652
308.666
308.682
308.703
308.726
308.753
308.781
308.813
308.846
308.882
308.918
308.957