/*--------------------------------*- C++ -*----------------------------------*\
| =========                 |                                                 |
| \\      /  F ield         | OpenFOAM: The Open Source CFD Toolbox           |
|  \\    /   O peration     | Version:  v2106                                 |
|   \\  /    A nd           | Website:  www.openfoam.com                      |
|    \\/     M anipulation  |                                                 |
\*---------------------------------------------------------------------------*/
FoamFile
{
    version     2.0;
    format      ascii;
    arch        "LSB;label=32;scalar=64";
    class       volScalarField;
    location    "0.000183";
    object      k;
}
// * * * * * * * * * * * * * * * * * * * * * * * * * * * * * * * * * * * * * //

dimensions      [0 2 -2 0 0 0 0];

internalField   nonuniform List<scalar> 
18109
(
0.0192769
0.011043
0.00682651
0.00470136
0.00383406
0.00368646
0.00413038
0.00745629
0.0031472
0.00169293
0.00113585
0.0009446
0.000931813
0.00108361
0.00329783
0.000925808
0.000370242
0.000229556
0.000193622
0.000198525
0.000254988
0.00190674
0.000401578
9.80005e-05
4.29121e-05
3.39158e-05
3.81983e-05
6.47819e-05
0.00149269
0.000305204
5.70682e-05
1.24942e-05
6.09288e-06
8.6689e-06
2.48287e-05
0.00146602
0.000310862
5.62829e-05
8.88731e-06
2.11084e-06
3.94738e-06
1.66104e-05
0.00172812
0.000365092
6.34064e-05
9.31261e-06
2.16067e-06
4.16145e-06
1.7198e-05
0.00227134
0.000460434
7.68639e-05
1.3389e-05
6.23899e-06
9.68079e-06
2.71421e-05
0.0140979
0.00805324
0.00481901
0.00308658
0.00226819
0.00193836
0.00196518
0.0023783
0.0036684
0.00699777
0.0150859
0.0331839
0.070529
0.143967
0.00508494
0.00209236
0.00107125
0.000652768
0.000481163
0.000420124
0.000449434
0.000617161
0.00120164
0.0029862
0.00795877
0.0203387
0.0480291
0.104779
0.00214505
0.000571916
0.000208896
0.000112699
8.24437e-05
7.51999e-05
9.40464e-05
0.000180488
0.00050565
0.00158563
0.00478336
0.013182
0.0329108
0.075205
0.00127346
0.000262644
5.73247e-05
1.9205e-05
1.20157e-05
1.2478e-05
2.39262e-05
7.45721e-05
0.000270429
0.00094256
0.00300152
0.00864994
0.0226476
0.0546096
0.00108295
0.000224546
4.10235e-05
7.35421e-06
2.18898e-06
2.8897e-06
1.0174e-05
4.2864e-05
0.000172044
0.000626347
0.00205798
0.0061353
0.0167495
0.04244
0.00115327
0.000245088
4.39399e-05
6.60025e-06
1.09862e-06
1.51529e-06
6.92177e-06
3.14104e-05
0.000129239
0.000478671
0.00160319
0.00489556
0.0137595
0.0359637
0.00144533
0.00030046
5.1066e-05
7.29199e-06
1.40065e-06
1.83511e-06
6.94711e-06
2.97525e-05
0.000120412
0.000444438
0.00149175
0.00457511
0.0129157
0.0338341
0.00197386
0.000389605
6.30071e-05
1.06745e-05
4.70752e-06
5.91918e-06
1.27081e-05
4.04663e-05
0.000146605
0.000516384
0.00168551
0.00504538
0.0138975
0.0354548
0.0027693
0.000533209
9.55559e-05
2.93961e-05
2.41474e-05
2.92646e-05
4.36174e-05
9.01172e-05
0.000249429
0.000769545
0.00232762
0.00657177
0.0171923
0.041773
0.00406229
0.000869023
0.000228054
0.000120203
0.000115506
0.000137127
0.000182217
0.000289887
0.000588922
0.00145146
0.00381792
0.0098106
0.0237992
0.054219
0.00672665
0.00193056
0.000766582
0.000495217
0.00047486
0.00055361
0.000713175
0.00102416
0.00170461
0.00335033
0.00736057
0.0166884
0.0368773
0.0779037
0.0132578
0.00526597
0.00264261
0.00180908
0.00168451
0.00192536
0.00245206
0.0033894
0.00510089
0.00853775
0.0157993
0.0311327
0.0619278
0.120856
0.0283439
0.0141466
0.00804829
0.00570527
0.00521159
0.00585179
0.00739309
0.0100515
0.0144129
0.021943
0.0356389
0.0614094
0.109252
0.196038
0.0600829
0.0343255
0.0211191
0.0155903
0.0142292
0.0157753
0.0197348
0.0264808
0.0369065
0.0530413
0.0784079
0.119775
0.189498
0.311789
0.0519607
0.116432
0.246181
0.483635
0.910578
1.7345
0.0404357
0.0944857
0.206683
0.414476
0.787165
1.4904
0.0270377
0.0729554
0.175607
0.377681
0.758119
1.51514
0.0176528
0.0536018
0.141115
0.327849
0.705625
1.50393
0.0117716
0.0390524
0.111148
0.278476
0.642985
1.45736
0.00868186
0.0302071
0.0904923
0.240622
0.590742
1.42689
0.00732338
0.0257421
0.0789451
0.218308
0.561055
1.39785
0.00724417
0.0250929
0.0770211
0.215878
0.565339
1.42406
0.00839982
0.0281422
0.0841668
0.230941
0.593912
1.46016
0.0118174
0.0374935
0.106081
0.275287
0.66939
1.54887
0.0193426
0.056745
0.147836
0.351984
0.783974
1.66615
0.0346299
0.0916882
0.216156
0.465803
0.941735
1.83162
0.0635145
0.149471
0.316925
0.62069
1.15598
2.09678
0.113665
0.236605
0.455029
0.828583
1.46611
2.55126
0.192794
0.357857
0.637339
1.10685
1.89935
3.2058
0.294476
0.487711
0.806381
1.34116
2.25011
3.75391
0.215498
0.395101
0.715049
1.28809
2.31047
4.06091
0.161604
0.326827
0.644
1.24381
2.35362
4.28987
0.124385
0.275235
0.583066
1.18682
2.32268
4.3174
0.101537
0.239487
0.532598
1.11999
2.23638
4.21038
0.0882524
0.215593
0.491469
1.04926
2.1152
4.01697
0.0827901
0.203094
0.463509
0.98883
1.9918
3.82653
0.0843257
0.201755
0.451066
0.94816
1.8949
3.70048
0.0948599
0.216553
0.466024
0.954267
1.89125
3.73492
0.116508
0.250376
0.512865
1.01443
1.98714
3.94565
0.157021
0.314508
0.608343
1.15591
2.2165
4.34381
0.227676
0.421865
0.766131
1.39128
2.5806
4.89246
0.343198
0.585831
0.998448
1.73055
3.08771
5.60436
0.515462
0.813941
1.30427
2.1501
3.6586
6.33027
0.38156
0.655092
1.15624
2.05039
3.63281
6.33448
0.294263
0.54413
0.980591
1.76314
3.22116
5.86408
0.225447
0.436262
0.805048
1.4818
2.78494
5.35324
0.167814
0.337562
0.645446
1.23399
2.40827
4.82245
0.122324
0.255922
0.511896
1.02341
2.07791
4.32689
0.0885097
0.192437
0.403573
0.84519
1.78217
3.80318
0.0647001
0.145986
0.320354
0.698526
1.51718
3.29844
0.0486151
0.113397
0.259117
0.584319
1.29046
2.8416
0.0389107
0.0930988
0.218889
0.504448
1.12465
2.52987
0.0349003
0.0842445
0.199863
0.460608
1.02391
2.33032
0.0373655
0.0878185
0.203164
0.455411
0.986652
2.24676
0.0483676
0.106195
0.229452
0.488141
1.00541
2.29435
0.0738484
0.149457
0.297155
0.585729
1.1696
2.58445
0.120261
0.225337
0.417603
0.768432
1.4344
2.87916
0.00779609
0.0258947
0.0781013
0.213304
0.536956
1.37961
0.0101228
0.0301637
0.085666
0.224922
0.567932
1.42175
0.0147968
0.0373085
0.0987102
0.260805
0.644728
1.52536
0.0258387
0.0563653
0.135283
0.340903
0.774847
1.67389
0.0914578
0.182283
0.397176
0.797021
1.48743
2.89831
0.0585704
0.145885
0.349225
0.716234
1.35813
2.73238
0.0381844
0.114764
0.287281
0.599564
1.17896
2.49328
0.0262842
0.0865528
0.222408
0.479285
0.995899
2.23267
0.0186712
0.0626978
0.164618
0.371586
0.827546
1.97754
0.0131939
0.0441599
0.118408
0.283408
0.68161
1.73317
0.00912837
0.0306866
0.0852012
0.219274
0.56789
1.50582
0.00641047
0.0218901
0.0642331
0.17868
0.487772
1.31171
0.00502286
0.0174596
0.0541051
0.158352
0.437903
1.16207
0.00473377
0.0165079
0.0521493
0.152435
0.408685
1.0498
0.00534744
0.018069
0.055589
0.155544
0.396413
0.994082
0.00701162
0.021598
0.0627772
0.166297
0.41738
1.04731
0.0105176
0.0276817
0.0753114
0.199432
0.495165
1.18532
0.0190823
0.0434896
0.107975
0.279936
0.641423
1.37651
2.9601
10.1719
34.0922
28.6043
19.8951
3.16138
11.458
32.8286
27.7488
19.5502
3.41777
12.3684
31.3388
26.7946
19.7369
3.59116
12.6344
30.0542
26.8502
20.628
3.67885
12.3394
28.4847
26.947
21.4024
3.62647
11.3633
25.8466
26.7009
21.8518
3.47162
10.2505
23.2833
26.2294
22.051
3.28567
9.19449
21.3513
25.8458
22.1963
26.4183
3.26618
8.62275
20.2003
25.2646
22.2477
28.2006
3.29271
8.55393
19.926
23.6629
21.3605
29.0379
3.38907
8.88334
20.1985
21.4879
19.5821
28.394
40.0368
3.67625
9.71524
20.8459
19.5574
17.4172
25.7739
45.368
53.9939
4.28241
11.1469
22.2065
18.6535
16.2494
21.9277
43.6607
114.29
5.14961
12.975
24.1226
19.1417
16.7246
20.2147
27.4609
86.1047
6.01716
14.4557
25.7968
20.3258
17.7365
20.5206
25.8379
83.5329
6.72361
15.0835
26.436
21.3557
18.5069
21.5578
26.614
69.6467
7.22859
15.4538
26.6719
22.6666
19.7081
22.9016
26.9997
57.5243
7.31782
15.3195
26.9416
24.6184
21.395
24.615
25.8961
41.1201
7.21746
14.9644
27.3548
26.1957
22.7552
26.2796
26.4399
32.2624
6.95425
14.5413
28.0804
27.0116
23.3956
27.8307
27.7613
26.6789
6.66388
14.4235
29.8463
27.0328
23.6323
29.637
30.413
23.0498
6.6461
14.9485
32.9532
26.6465
24.039
31.9197
34.481
21.4781
6.98927
16.4905
35.5338
25.4103
24.3415
33.9336
7.56344
18.7491
35.1123
22.9959
23.5941
34.4614
8.21474
20.4703
32.1003
20.093
21.5254
34.0564
8.89792
21.6105
29.6185
18.3113
18.9906
31.1427
9.70678
22.6512
28.1957
17.7606
17.1409
26.0135
10.4222
23.9836
28.3574
19.1288
17.0594
10.5553
25.209
28.8466
21.6566
18.5537
10.3669
24.8754
28.451
23.5634
19.608
10.417
22.6751
27.6253
25.3151
20.848
10.0545
19.7939
27.1266
27.7845
22.4477
9.44333
17.3729
27.1172
30.2865
23.6593
8.4778
15.3011
27.8155
32.1145
23.6139
7.46132
13.7763
30.005
32.8345
22.592
6.57246
12.8774
34.6701
33.5012
22.0703
5.86446
12.6007
41.2151
33.3831
21.11
5.26984
12.9288
46.4442
31.4816
19.375
4.91132
14.276
47.0957
29.0302
18.1917
4.9253
16.6462
44.6223
28.2672
17.9513
5.36344
19.3598
40.9935
28.3916
18.855
5.86044
21.5228
39.4197
29.6301
20.3012
6.17186
22.6103
38.5271
30.3641
21.0472
6.43188
22.2669
35.9086
29.4937
21.0127
6.59936
20.52
32.5863
28.7891
21.4925
6.46226
17.853
29.5938
29.2088
22.5999
6.10398
15.3104
26.8391
29.9565
23.3578
5.50513
12.9271
23.8713
30.3375
23.2492
4.82432
10.8924
21.2485
30.2758
22.3399
4.14401
9.19856
19.7463
30.7456
21.6483
3.52358
7.82318
19.7597
31.5195
20.8471
2.97791
6.78697
21.2053
31.2636
19.5224
2.59476
6.34604
23.677
29.6051
18.2871
2.42417
6.6251
26.919
27.9208
17.7736
2.49452
7.52436
30.5723
27.2775
18.3478
2.73748
8.74102
33.5076
27.9859
19.3658
0.0118357
0.00699967
0.00422287
0.00262004
0.00178055
0.00135057
0.00120882
0.00133763
0.00203206
0.00408254
0.00943937
0.0222393
0.050154
0.107356
0.00397866
0.00171849
0.000896752
0.000522602
0.000349465
0.000265859
0.000250615
0.000324881
0.00066438
0.00179929
0.00514706
0.0139277
0.0344889
0.0782228
0.00158486
0.000436774
0.000164088
8.38362e-05
5.4413e-05
4.24856e-05
4.8284e-05
9.65752e-05
0.00029779
0.000999956
0.00316423
0.00908971
0.0235983
0.055842
0.00095493
0.000199134
4.34936e-05
1.34667e-05
7.12318e-06
6.35192e-06
1.24895e-05
4.30505e-05
0.000166506
0.000604389
0.00199139
0.00594117
0.0161211
0.0401589
0.000865586
0.000180067
3.27083e-05
5.59383e-06
1.32243e-06
1.47448e-06
5.62001e-06
2.51357e-05
0.000105138
0.000396908
0.00135042
0.00416811
0.0117705
0.0307327
0.000976498
0.000205276
3.62748e-05
5.34457e-06
7.8277e-07
8.03393e-07
3.71435e-06
1.75243e-05
7.52156e-05
0.000290735
0.00101437
0.00321879
0.00937456
0.0252876
0.00127516
0.000259472
4.31366e-05
6.03819e-06
1.07907e-06
1.09439e-06
3.66115e-06
1.5671e-05
6.58804e-05
0.000254655
0.000894741
0.00286457
0.00841289
0.0228348
0.00179274
0.000344986
5.42219e-05
8.92995e-06
3.86225e-06
4.46617e-06
7.91952e-06
2.19973e-05
7.8124e-05
0.000283845
0.000967924
0.00303036
0.00871171
0.0231037
0.0025793
0.00048117
8.22668e-05
2.44098e-05
2.02488e-05
2.4292e-05
3.31527e-05
5.86427e-05
0.000145157
0.000437182
0.00135194
0.00396011
0.0107766
0.0271805
0.00384325
0.000780192
0.000191017
9.87896e-05
9.69767e-05
0.000116495
0.000150369
0.000220293
0.000400374
0.000916981
0.0023741
0.00620165
0.0154575
0.0362545
0.00630192
0.00167671
0.00062785
0.000404437
0.000397157
0.000472096
0.000604617
0.000838387
0.00130853
0.00240276
0.005077
0.0114467
0.0255911
0.0550582
0.0120675
0.00445945
0.0021473
0.00147113
0.00140259
0.00164006
0.00209803
0.00286353
0.00418184
0.00671352
0.0119744
0.0232027
0.0461628
0.0910911
0.0251728
0.011886
0.00653215
0.00462817
0.00432511
0.00497782
0.0063585
0.00863554
0.0122462
0.018275
0.0289933
0.0491549
0.0870948
0.157877
0.0531881
0.0290127
0.0172062
0.0126493
0.0117883
0.0134144
0.0170658
0.0230597
0.0321411
0.0459252
0.0671916
0.101439
0.159176
0.263091
0.0066244
0.00446542
0.00294228
0.00188515
0.0012486
0.000866943
0.00066951
0.000593785
0.000706957
0.00127693
0.0031599
0.0085103
0.0220718
0.0531562
0.00177647
0.000943612
0.000572048
0.000349782
0.000225303
0.000153652
0.000121124
0.000118745
0.00019408
0.000535062
0.00175722
0.00552715
0.0156819
0.0398452
0.000589291
0.00019229
8.95117e-05
5.01215e-05
3.12925e-05
2.13209e-05
1.85341e-05
2.72203e-05
8.17396e-05
0.000314757
0.00116092
0.00383205
0.0112357
0.029487
0.000421044
9.03235e-05
2.07916e-05
6.83269e-06
3.43611e-06
2.42905e-06
3.34166e-06
1.09431e-05
4.89189e-05
0.000208301
0.000790508
0.00266411
0.00803646
0.0219623
0.00048948
9.92515e-05
1.73217e-05
2.79317e-06
5.47158e-07
3.62177e-07
1.26252e-06
6.63238e-06
3.29308e-05
0.000144692
0.000561403
0.0019402
0.0060399
0.0171702
0.000642117
0.000126592
2.0812e-05
2.84036e-06
3.47523e-07
1.73833e-07
8.423e-07
4.75005e-06
2.39581e-05
0.000106593
0.000420984
0.00149106
0.00478554
0.0140594
0.000916523
0.000171852
2.61426e-05
3.31344e-06
5.00317e-07
3.32796e-07
8.85387e-07
4.01658e-06
1.94099e-05
8.62583e-05
0.000344875
0.00124446
0.00407976
0.0122149
0.0013577
0.000239339
3.36945e-05
4.79407e-06
1.858e-06
1.96311e-06
2.77002e-06
6.06105e-06
2.10893e-05
8.51259e-05
0.000331797
0.00118795
0.00387743
0.0115384
0.00201287
0.000338832
4.91077e-05
1.23741e-05
1.02518e-05
1.22268e-05
1.53979e-05
2.22479e-05
4.4681e-05
0.000128563
0.000432131
0.00143626
0.00444778
0.0126597
0.00301939
0.000521529
0.000101698
4.95376e-05
5.15531e-05
6.31343e-05
7.9753e-05
0.000106244
0.000162516
0.000318753
0.000800332
0.0022406
0.00620727
0.0162903
0.00472591
0.000994174
0.000309428
0.000206641
0.000220898
0.000271774
0.000348553
0.00046306
0.000655559
0.00105136
0.00202067
0.0045441
0.0107851
0.0253212
0.00831834
0.00244738
0.00105229
0.000771551
0.000812112
0.000996647
0.0012921
0.00172937
0.00239584
0.00352487
0.00574786
0.0107029
0.0216538
0.0452049
0.0162734
0.00653564
0.00330667
0.00250886
0.00259673
0.00317434
0.00414199
0.00557682
0.0076776
0.0108907
0.0162562
0.026404
0.0464257
0.0870514
0.0345334
0.0168537
0.00920265
0.00715353
0.00734478
0.00894643
0.0117055
0.0158018
0.0216752
0.0301282
0.0425398
0.062001
0.094798
0.157339
0.00233048
0.00152151
0.00102155
0.0006554
0.000430875
0.00028847
0.000215985
0.000181705
0.000195084
0.00032237
0.000816092
0.00242296
0.00709785
0.0193373
0.000536132
0.000271982
0.000171279
0.000105431
6.74056e-05
4.36982e-05
3.24627e-05
2.85691e-05
4.05443e-05
0.000112256
0.000415263
0.00150134
0.0048795
0.0140386
0.000196139
5.44113e-05
2.32723e-05
1.26089e-05
7.70302e-06
4.88964e-06
3.82567e-06
4.84539e-06
1.48639e-05
6.61522e-05
0.000283485
0.00107275
0.00355338
0.0103609
0.000200274
3.9234e-05
7.36528e-06
1.7605e-06
6.99024e-07
4.12217e-07
4.88709e-07
1.71408e-06
9.15037e-06
4.60096e-05
0.000202002
0.000771952
0.0025872
0.00769858
0.000274405
5.20001e-05
8.39805e-06
1.16928e-06
1.60785e-07
5.02613e-08
1.7005e-07
1.09639e-06
6.50413e-06
3.33642e-05
0.000148124
0.000574113
0.00196676
0.00605922
0.000390846
7.10302e-05
1.08593e-05
1.34983e-06
1.46214e-07
3.29765e-08
1.23008e-07
8.09127e-07
4.81482e-06
2.48575e-05
0.000111754
0.000442337
0.00156458
0.00503568
0.000589667
0.000101445
1.42987e-05
1.63235e-06
2.1872e-07
1.14606e-07
1.95739e-07
7.37134e-07
3.86847e-06
1.96773e-05
8.95725e-05
0.000363876
0.0013355
0.00448927
0.000905692
0.000146322
1.88476e-05
2.30811e-06
8.11446e-07
8.61957e-07
1.07742e-06
1.67249e-06
4.50374e-06
1.84784e-05
8.11879e-05
0.000334147
0.00125923
0.00434779
0.00137748
0.000211088
2.67078e-05
5.55198e-06
4.66814e-06
5.81865e-06
7.23253e-06
9.19258e-06
1.39815e-05
3.22465e-05
0.000108266
0.000406647
0.00147456
0.00495706
0.00208793
0.000320813
5.06778e-05
2.22148e-05
2.48361e-05
3.19684e-05
4.07628e-05
5.19572e-05
6.97292e-05
0.000111795
0.00024606
0.000710878
0.00222497
0.00679442
0.00322471
0.000581559
0.000147622
9.76966e-05
0.000112693
0.000145452
0.000189079
0.000246165
0.000326734
0.000468364
0.000797069
0.00173099
0.00436056
0.011437
0.00556287
0.001398
0.000520882
0.000389909
0.00043794
0.00056069
0.000736674
0.000974913
0.00130133
0.00180112
0.00271005
0.00479596
0.00983995
0.0220358
0.0107593
0.00384543
0.0017627
0.00136626
0.00148679
0.00187843
0.0024741
0.00330185
0.00442821
0.00605704
0.00861045
0.0133953
0.0232811
0.0453229
0.0226363
0.0105471
0.00537049
0.00423757
0.0044906
0.00559171
0.00734313
0.00982749
0.0132142
0.0179903
0.0248089
0.0353509
0.0528531
0.087181
0.000470241
0.000274725
0.000184438
0.00012296
8.33304e-05
5.81144e-05
4.40337e-05
3.59961e-05
3.3721e-05
4.48418e-05
0.000107617
0.000359265
0.00124128
0.00398805
0.000117248
4.28271e-05
2.46296e-05
1.56883e-05
1.03195e-05
7.0487e-06
5.28405e-06
4.35524e-06
4.95122e-06
1.2317e-05
5.19559e-05
0.000223959
0.000860968
0.0028968
7.44564e-05
1.45659e-05
3.5471e-06
1.49487e-06
8.65435e-07
5.72771e-07
4.39504e-07
4.79832e-07
1.40054e-06
7.33892e-06
3.79004e-05
0.000170327
0.000660047
0.0022208
0.000101847
1.86582e-05
2.79121e-06
4.2092e-07
8.25691e-08
3.34418e-08
3.46404e-08
1.35809e-07
9.02359e-07
5.54843e-06
2.91725e-05
0.000131172
0.000508592
0.00171986
0.000149595
2.6917e-05
3.87342e-06
4.96283e-07
5.41887e-08
6.70699e-09
1.15853e-08
9.44398e-08
6.96906e-07
4.33451e-06
2.28589e-05
0.000103257
0.000404187
0.00139174
0.000220283
3.78951e-05
5.09918e-06
5.9074e-07
5.88679e-08
8.84507e-09
1.25262e-08
7.78322e-08
5.50349e-07
3.40781e-06
1.80493e-05
8.24287e-05
0.000329207
0.00117133
0.000336692
5.50301e-05
6.77036e-06
7.07933e-07
9.07266e-08
4.92654e-08
5.97614e-08
1.1756e-07
4.98883e-07
2.79916e-06
1.47446e-05
6.86704e-05
0.000284289
0.00106518
0.000513706
7.94285e-05
8.93581e-06
9.93065e-07
3.66882e-07
4.1998e-07
5.18167e-07
6.48534e-07
1.05084e-06
3.13426e-06
1.38865e-05
6.39302e-05
0.000273502
0.00107451
0.000777203
0.000113811
1.25546e-05
2.40811e-06
2.18069e-06
2.87625e-06
3.64915e-06
4.48152e-06
5.6582e-06
8.91355e-06
2.26476e-05
8.41048e-05
0.000340078
0.00131898
0.0011938
0.000170789
2.31779e-05
9.82425e-06
1.1717e-05
1.57701e-05
2.04326e-05
2.56677e-05
3.19592e-05
4.25445e-05
7.13375e-05
0.000177386
0.000574233
0.00197931
0.0018295
0.000300412
6.60848e-05
4.43827e-05
5.39616e-05
7.20327e-05
9.4425e-05
0.000120945
0.000152683
0.00019776
0.000284528
0.000527434
0.0012867
0.00365205
0.00299377
0.000702483
0.000239582
0.000186177
0.000216831
0.000282874
0.000371366
0.000480919
0.000614645
0.000795522
0.00108168
0.00170257
0.00329221
0.0076401
0.0053205
0.00193213
0.000865755
0.000704933
0.000780786
0.000984705
0.00127915
0.00165648
0.00212795
0.00276344
0.00367696
0.00529574
0.00866883
0.0169272
0.0110495
0.00550663
0.00288959
0.00241285
0.00256781
0.00312172
0.00397559
0.00509748
0.00652362
0.00845854
0.0111237
0.0152069
0.0219362
0.0359034
5.99831e-05
2.59672e-05
1.60095e-05
1.07583e-05
7.40095e-06
5.34662e-06
4.30149e-06
3.61487e-06
3.18748e-06
3.45662e-06
7.39258e-06
2.79526e-05
0.000115894
0.000445381
2.45902e-05
5.05556e-06
1.68267e-06
9.34384e-07
6.1652e-07
4.44019e-07
3.63386e-07
3.11772e-07
3.24158e-07
7.37222e-07
3.56627e-06
1.84676e-05
8.44027e-05
0.000334014
2.66562e-05
4.808e-06
7.37187e-07
1.24636e-07
3.80236e-08
2.16546e-08
1.79119e-08
2.08842e-08
6.99458e-08
4.50591e-07
2.81894e-06
1.51253e-05
6.92505e-05
0.000272549
4.06707e-05
7.53851e-06
1.13349e-06
1.44794e-07
1.7582e-08
2.12757e-09
9.96089e-10
5.53187e-09
4.81379e-08
3.64799e-07
2.3172e-06
1.2428e-05
5.68135e-05
0.000223454
6.13643e-05
1.10753e-05
1.62605e-06
1.97758e-07
2.20248e-08
2.05537e-09
6.08623e-10
4.38207e-09
3.99846e-08
3.0536e-07
1.94614e-06
1.04628e-05
4.79704e-05
0.000189678
9.16833e-05
1.58023e-05
2.17165e-06
2.39378e-07
2.48593e-08
3.2611e-09
1.98244e-09
5.1445e-09
3.44271e-08
2.53748e-07
1.61784e-06
8.75041e-06
4.05014e-05
0.000162543
0.000138549
2.27783e-05
2.87972e-06
2.87907e-07
3.62011e-08
1.70133e-08
1.84663e-08
2.27888e-08
4.79511e-08
2.30684e-07
1.37432e-06
7.44444e-06
3.51147e-05
0.000145406
0.000205292
3.26231e-05
3.76847e-06
3.85635e-07
1.19606e-07
1.29122e-07
1.55579e-07
1.79316e-07
2.16642e-07
3.89298e-07
1.40845e-06
6.89275e-06
3.27786e-05
0.000141548
0.000294815
4.64467e-05
5.13553e-06
8.06579e-07
6.45694e-07
8.44024e-07
1.04835e-06
1.23388e-06
1.41886e-06
1.75565e-06
3.05967e-06
9.56331e-06
4.02677e-05
0.000172696
0.000417385
6.79466e-05
8.7524e-06
2.96195e-06
3.4114e-06
4.58754e-06
5.7994e-06
6.9939e-06
8.17715e-06
9.66438e-06
1.2823e-05
2.46682e-05
7.47333e-05
0.000278861
0.000596966
0.00011251
2.26571e-05
1.31767e-05
1.59099e-05
2.12141e-05
2.70785e-05
3.32839e-05
3.9702e-05
4.72541e-05
5.89093e-05
8.96384e-05
0.000195601
0.000578321
0.000935427
0.000244784
7.97359e-05
5.696e-05
6.59383e-05
8.55732e-05
0.000109206
0.000135747
0.000164459
0.000198478
0.000244549
0.000335685
0.000582751
0.00136295
0.00169886
0.000659211
0.000296517
0.000227913
0.000248602
0.000309183
0.000389178
0.000483963
0.000591235
0.000722563
0.000893597
0.00117186
0.00175378
0.00335475
0.00375551
0.00192177
0.00105236
0.000841383
0.000871923
0.00102986
0.00125934
0.00154471
0.00188287
0.00231603
0.00288473
0.00372006
0.005071
0.0081385
8.40183e-06
1.98317e-06
8.2927e-07
5.12237e-07
3.62383e-07
2.84606e-07
2.59194e-07
2.39016e-07
2.14458e-07
2.07948e-07
4.10795e-07
1.83325e-06
9.15985e-06
4.11786e-05
5.53542e-06
9.27993e-07
1.47651e-07
3.30996e-08
1.57681e-08
1.21374e-08
1.19889e-08
1.2114e-08
1.40386e-08
3.73687e-08
2.21541e-07
1.35923e-06
7.21211e-06
3.27644e-05
7.44548e-06
1.3944e-06
2.19494e-07
2.94135e-08
3.75183e-09
5.96935e-10
3.25746e-10
5.70652e-10
3.07457e-09
2.51786e-08
1.86967e-07
1.17106e-06
6.20311e-06
2.80245e-05
1.13981e-05
2.20013e-06
3.56587e-07
4.84076e-08
5.79609e-09
5.90047e-10
7.15582e-11
2.17408e-10
2.29708e-09
2.08936e-08
1.57303e-07
9.8954e-07
5.25902e-06
2.38282e-05
1.66117e-05
3.1731e-06
4.98834e-07
6.49686e-08
7.35033e-09
7.18046e-10
9.56631e-11
2.00986e-10
1.93707e-09
1.76793e-08
1.3439e-07
8.52579e-07
4.56291e-06
2.07995e-05
2.37839e-05
4.43467e-06
6.49396e-07
7.75579e-08
8.16156e-09
9.98699e-10
4.3402e-10
5.36863e-10
1.97038e-09
1.51125e-08
1.13761e-07
7.27738e-07
3.93544e-06
1.8137e-05
3.42188e-05
6.20914e-06
8.375e-07
9.12255e-08
1.05259e-08
3.78177e-09
3.83712e-09
4.25072e-09
5.58613e-09
1.66842e-08
1.00475e-07
6.28375e-07
3.42966e-06
1.60893e-05
4.82739e-05
8.50205e-06
1.06279e-06
1.13644e-07
2.64558e-08
2.54956e-08
3.04964e-08
3.42526e-08
3.75329e-08
4.86746e-08
1.23305e-07
5.9375e-07
3.1336e-06
1.49758e-05
6.58905e-05
1.12978e-05
1.36528e-06
1.93765e-07
1.25887e-07
1.62955e-07
2.01353e-07
2.31325e-07
2.54373e-07
2.82885e-07
3.79111e-07
9.15227e-07
3.7506e-06
1.72123e-05
8.82393e-05
1.51803e-05
2.05498e-06
5.92002e-07
6.56954e-07
8.9453e-07
1.1204e-06
1.31374e-06
1.47425e-06
1.63543e-06
1.90343e-06
2.90964e-06
7.51618e-06
2.82873e-05
0.000119677
2.29961e-05
4.60217e-06
2.50057e-06
3.11898e-06
4.23764e-06
5.34656e-06
6.37515e-06
7.29503e-06
8.22701e-06
9.42044e-06
1.23621e-05
2.28765e-05
6.51442e-05
0.00018191
4.73721e-05
1.53169e-05
1.08694e-05
1.32384e-05
1.75898e-05
2.22076e-05
2.67991e-05
3.11788e-05
3.5814e-05
4.13452e-05
5.14471e-05
7.85738e-05
0.000174352
0.000340299
0.00012939
5.77687e-05
4.45462e-05
5.10031e-05
6.51644e-05
8.15154e-05
9.88877e-05
0.000116508
0.000136177
0.000159624
0.000195335
0.000266134
0.000480281
0.000802397
0.000393426
0.000213815
0.000170315
0.000182231
0.000220338
0.000269148
0.00032483
0.000385177
0.000456709
0.000544594
0.000668379
0.000855354
0.00131041
1.77012e-06
3.20334e-07
7.55842e-08
3.35293e-08
2.26871e-08
1.95785e-08
2.025e-08
2.0664e-08
1.96903e-08
1.88465e-08
3.62701e-08
1.83721e-07
1.0357e-06
5.10215e-06
1.34856e-06
2.43096e-07
3.74656e-08
5.34012e-09
1.06921e-09
6.36445e-10
7.89011e-10
1.01161e-09
1.33499e-09
3.44061e-09
2.12873e-08
1.44013e-07
8.3956e-07
4.15822e-06
1.91398e-06
3.83877e-07
6.5482e-08
9.49386e-09
1.23922e-09
1.53447e-10
4.40966e-11
6.49059e-11
2.69871e-10
2.19549e-09
1.79245e-08
1.24546e-07
7.27682e-07
3.60267e-06
2.86085e-06
5.85398e-07
1.02296e-07
1.50357e-08
1.93329e-09
2.10516e-10
2.31264e-11
2.01524e-11
1.78834e-10
1.78396e-09
1.50044e-08
1.05237e-07
6.19935e-07
3.0994e-06
4.0462e-06
8.12936e-07
1.38422e-07
1.9578e-08
2.39758e-09
2.51102e-10
3.13753e-11
2.35625e-11
1.53064e-10
1.49626e-09
1.27425e-08
9.0592e-08
5.40558e-07
2.73522e-06
5.58671e-06
1.08309e-06
1.73459e-07
2.27115e-08
2.60783e-09
3.17975e-10
1.16218e-10
1.13952e-10
2.20206e-10
1.32932e-09
1.0787e-08
7.73418e-08
4.68365e-07
2.40652e-06
7.708e-06
1.4402e-06
2.13859e-07
2.57968e-08
3.1224e-09
9.3705e-10
8.89401e-10
9.62236e-10
1.08196e-09
2.01134e-09
1.00048e-08
6.70719e-08
4.07997e-07
2.12977e-06
1.04436e-05
1.8776e-06
2.59768e-07
3.0638e-08
6.48476e-09
5.56756e-09
6.61108e-09
7.37446e-09
7.89398e-09
8.92925e-09
1.60597e-08
6.65257e-08
3.71216e-07
1.94071e-06
1.37515e-05
2.38962e-06
3.18786e-07
4.719e-08
2.70355e-08
3.41728e-08
4.21924e-08
4.80764e-08
5.22329e-08
5.60211e-08
6.58111e-08
1.22584e-07
4.50921e-07
2.14364e-06
1.78384e-05
3.08473e-06
4.48957e-07
1.27274e-07
1.35951e-07
1.8533e-07
2.31594e-07
2.68729e-07
2.97644e-07
3.22914e-07
3.55508e-07
4.6666e-07
9.92472e-07
3.53123e-06
2.34951e-05
4.48336e-06
9.23566e-07
5.05493e-07
6.41115e-07
8.79293e-07
1.10569e-06
1.30323e-06
1.46956e-06
1.62362e-06
1.79016e-06
2.15198e-06
3.40107e-06
8.76459e-06
3.52258e-05
8.98089e-06
2.92595e-06
2.1482e-06
2.72369e-06
3.6815e-06
4.6383e-06
5.53426e-06
6.33831e-06
7.12852e-06
7.96609e-06
9.35467e-06
1.27913e-05
2.57848e-05
6.79004e-05
2.46905e-05
1.09374e-05
8.69754e-06
1.04802e-05
1.37645e-05
1.72745e-05
2.07839e-05
2.412e-05
2.75925e-05
3.13558e-05
3.67334e-05
4.63243e-05
7.71836e-05
0.000167311
7.68444e-05
4.0763e-05
3.30017e-05
3.7152e-05
4.6674e-05
5.77458e-05
6.95581e-05
8.14871e-05
9.46639e-05
0.000109547
0.000129625
0.000157017
0.000227037
3.83308e-07
7.01213e-08
1.40715e-08
4.87321e-09
3.13814e-09
2.99275e-09
3.44876e-09
3.83386e-09
3.8646e-09
3.50456e-09
4.57074e-09
1.92397e-08
1.13748e-07
5.95174e-07
3.2145e-07
6.23503e-08
1.03343e-08
1.54186e-09
2.78296e-10
1.44009e-10
1.87214e-10
2.54842e-10
3.1797e-10
5.05332e-10
2.21505e-09
1.52063e-08
9.46183e-08
4.992e-07
4.73751e-07
1.00549e-07
1.8206e-08
2.81632e-09
3.9034e-10
5.1537e-11
1.5304e-11
1.81445e-11
3.93351e-11
2.1882e-10
1.78963e-09
1.32999e-08
8.33794e-08
4.4142e-07
7.09206e-07
1.52911e-07
2.82642e-08
4.41098e-09
6.01979e-10
7.01894e-11
9.1703e-12
4.89362e-12
1.84793e-11
1.67843e-10
1.49962e-09
1.13464e-08
7.20252e-08
3.86957e-07
9.92171e-07
2.09955e-07
3.78803e-08
5.70027e-09
7.43847e-10
8.28718e-11
1.11123e-11
5.73917e-12
1.64695e-11
1.41157e-10
1.27613e-09
9.81803e-09
6.33966e-08
3.46425e-07
1.34273e-06
2.73423e-07
4.66299e-08
6.53964e-09
8.012e-10
9.58769e-11
2.79026e-11
2.38972e-11
3.25368e-11
1.34665e-10
1.08933e-09
8.41798e-09
5.5328e-08
3.08234e-07
1.80777e-06
3.52286e-07
5.62144e-08
7.30608e-09
9.01884e-10
2.12401e-10
1.76156e-10
1.85287e-10
1.96082e-10
2.7767e-10
1.0802e-09
7.36002e-09
4.83168e-08
2.73482e-07
2.39005e-06
4.45361e-07
6.68152e-08
8.39716e-09
1.53578e-09
1.08544e-09
1.25548e-09
1.37854e-09
1.44292e-09
1.52105e-09
2.21465e-09
7.7021e-09
4.39039e-08
2.45839e-07
3.07316e-06
5.502e-07
7.97051e-08
1.16788e-08
5.4133e-09
6.48851e-09
7.94698e-09
8.90933e-09
9.48132e-09
9.82413e-09
1.07162e-08
1.66737e-08
5.44077e-08
2.62915e-07
3.88955e-06
6.85011e-07
1.05285e-07
2.6884e-08
2.61635e-08
3.53395e-08
4.38469e-08
4.99758e-08
5.41351e-08
5.70239e-08
6.02311e-08
7.17954e-08
1.30356e-07
4.30442e-07
4.96468e-06
9.40136e-07
1.92575e-07
9.82581e-08
1.23768e-07
1.70083e-07
2.12184e-07
2.45413e-07
2.70294e-07
2.90246e-07
3.09098e-07
3.49561e-07
4.90393e-07
1.13249e-06
7.20157e-06
1.75802e-06
5.58553e-07
4.08972e-07
5.32244e-07
7.25604e-07
9.07184e-07
1.06194e-06
1.18697e-06
1.29755e-06
1.40279e-06
1.57348e-06
1.97754e-06
3.6063e-06
1.37634e-05
4.68447e-06
2.0306e-06
1.64685e-06
2.06862e-06
2.76366e-06
3.45221e-06
4.08201e-06
4.62496e-06
5.14245e-06
5.65406e-06
6.37185e-06
7.55857e-06
1.15959e-05
3.44956e-05
1.46387e-05
7.55486e-06
6.22353e-06
7.35564e-06
9.50297e-06
1.17795e-05
1.39975e-05
1.60344e-05
1.81128e-05
2.02769e-05
2.31417e-05
2.67513e-05
3.63158e-05
7.61257e-08
1.44667e-08
2.95101e-09
9.83237e-10
6.43553e-10
6.54226e-10
7.93311e-10
9.18959e-10
9.58355e-10
8.55284e-10
7.73509e-10
1.95674e-09
1.12025e-08
6.19039e-08
6.92939e-08
1.41083e-08
2.48321e-09
3.94493e-10
7.43879e-11
3.88847e-11
5.07556e-11
7.00195e-11
8.59619e-11
1.01123e-10
2.36877e-10
1.44825e-09
9.50265e-09
5.3359e-08
1.05763e-07
2.33468e-08
4.42971e-09
7.22564e-10
1.06315e-10
1.61495e-11
6.12731e-12
6.7429e-12
9.52564e-12
2.48004e-11
1.64023e-10
1.27079e-09
8.52525e-09
4.82131e-08
1.59288e-07
3.57329e-08
6.90239e-09
1.13195e-09
1.63194e-10
2.13821e-11
4.36801e-12
2.91095e-12
3.9443e-12
1.63263e-11
1.35522e-10
1.09062e-09
7.44838e-09
4.29613e-08
2.21612e-07
4.8875e-08
9.21673e-09
1.46095e-09
2.01725e-10
2.49287e-11
4.73864e-12
2.97039e-12
3.67893e-12
1.39222e-11
1.15313e-10
9.44448e-10
6.58621e-09
3.88524e-08
2.95057e-07
6.26596e-08
1.1188e-08
1.66374e-09
2.15762e-10
2.69102e-11
7.3018e-12
5.77725e-12
6.28694e-12
1.44975e-11
9.92651e-11
8.08838e-10
5.75671e-09
3.47983e-08
3.88652e-07
7.90111e-08
1.32243e-08
1.83283e-09
2.31552e-10
4.42148e-11
3.00857e-11
3.03902e-11
3.09776e-11
3.6698e-11
1.06883e-10
7.11761e-10
5.02424e-09
3.09164e-08
5.02673e-07
9.78643e-08
1.54194e-08
2.0478e-09
3.29179e-10
1.79007e-10
1.96993e-10
2.12447e-10
2.18191e-10
2.19846e-10
2.75855e-10
7.95189e-10
4.56726e-09
2.75139e-08
6.32261e-07
1.18462e-07
1.79436e-08
2.60333e-09
9.37723e-10
1.02759e-09
1.2439e-09
1.37327e-09
1.43578e-09
1.44804e-09
1.50158e-09
2.02965e-09
5.83052e-09
2.86637e-08
7.81705e-07
1.43365e-07
2.2391e-08
5.05098e-09
4.26013e-09
5.65146e-09
6.96576e-09
7.8162e-09
8.31204e-09
8.542e-09
8.73615e-09
9.67889e-09
1.52949e-08
4.66225e-08
9.65507e-07
1.85332e-07
3.61927e-08
1.65068e-08
2.02303e-08
2.77847e-08
3.44506e-08
3.92152e-08
4.23647e-08
4.43855e-08
4.58987e-08
4.93478e-08
6.2645e-08
1.29461e-07
1.33506e-06
3.1448e-07
9.33195e-08
6.68324e-08
8.86128e-08
1.21639e-07
1.51202e-07
1.74165e-07
1.90762e-07
2.03313e-07
2.1338e-07
2.29623e-07
2.68529e-07
4.43722e-07
2.45107e-06
7.82184e-07
3.23819e-07
2.68424e-07
3.50818e-07
4.75696e-07
5.91926e-07
6.89288e-07
7.64948e-07
8.28492e-07
8.8328e-07
9.5895e-07
1.07742e-06
1.52585e-06
6.1046e-06
2.40525e-06
1.19379e-06
1.01392e-06
1.26379e-06
1.67529e-06
2.0783e-06
2.43707e-06
2.73468e-06
3.00636e-06
3.25887e-06
3.5865e-06
3.96839e-06