/*--------------------------------*- C++ -*----------------------------------*\
| =========                 |                                                 |
| \\      /  F ield         | OpenFOAM: The Open Source CFD Toolbox           |
|  \\    /   O peration     | Version:  v2106                                 |
|   \\  /    A nd           | Website:  www.openfoam.com                      |
|    \\/     M anipulation  |                                                 |
\*---------------------------------------------------------------------------*/
FoamFile
{
    version     2.0;
    format      ascii;
    arch        "LSB;label=32;scalar=64";
    class       volScalarField;
    location    "0.000183";
    object      nut;
}
// * * * * * * * * * * * * * * * * * * * * * * * * * * * * * * * * * * * * * //

dimensions      [0 2 -1 0 0 0 0];

internalField   nonuniform List<scalar> 
18109
(
1.4078e-07
8.30151e-08
5.24498e-08
3.63988e-08
2.9223e-08
2.70943e-08
2.90825e-08
5.50835e-08
2.40673e-08
1.3325e-08
9.06538e-09
7.45447e-09
7.10908e-09
7.94002e-09
2.49465e-08
7.29815e-09
2.99661e-09
1.87788e-09
1.56756e-09
1.55848e-09
1.93753e-09
1.54886e-08
3.50573e-09
8.73436e-10
3.67823e-10
2.81194e-10
3.0785e-10
5.14496e-10
1.33631e-08
2.99068e-09
5.88353e-10
1.23153e-10
5.32469e-11
7.24114e-11
2.0621e-10
1.39262e-08
3.15236e-09
5.9523e-10
9.5268e-11
2.03166e-11
3.37017e-11
1.37834e-10
1.64962e-08
3.63457e-09
6.51148e-10
9.79037e-11
2.12259e-11
3.49465e-11
1.36216e-10
2.10823e-08
4.41164e-09
7.56198e-10
1.35608e-10
6.19312e-11
8.45173e-11
2.10334e-10
1.03398e-07
6.08946e-08
3.7478e-08
2.45222e-08
1.81084e-08
1.51822e-08
1.47532e-08
1.70556e-08
2.57238e-08
4.93335e-08
1.07596e-07
2.37147e-07
4.96688e-07
9.75137e-07
3.77958e-08
1.61073e-08
8.5377e-09
5.35732e-09
3.99773e-09
3.43974e-09
3.53062e-09
4.64437e-09
8.9165e-09
2.22868e-08
5.94879e-08
1.50448e-07
3.46138e-07
7.1864e-07
1.64952e-08
4.58657e-09
1.72167e-09
9.51106e-10
7.05386e-10
6.35343e-10
7.64742e-10
1.42576e-09
3.97322e-09
1.24191e-08
3.70219e-08
9.96901e-08
2.39335e-07
5.13193e-07
1.07805e-08
2.40324e-09
5.37901e-10
1.73816e-10
1.05971e-10
1.07803e-10
2.01062e-10
6.18408e-10
2.22142e-09
7.62326e-09
2.36826e-08
6.57698e-08
1.63122e-07
3.64142e-07
1.01708e-08
2.28575e-09
4.37835e-10
7.79005e-11
2.09556e-11
2.56084e-11
8.83706e-11
3.66643e-10
1.4417e-09
5.10211e-09
1.6132e-08
4.56994e-08
1.16781e-07
2.72571e-07
1.12663e-08
2.52086e-09
4.67706e-10
7.18083e-11
1.14595e-11
1.36985e-11
6.05331e-11
2.67545e-10
1.06603e-09
3.79372e-09
1.20978e-08
3.48328e-08
9.14529e-08
2.21629e-07
1.39155e-08
2.9976e-09
5.23924e-10
7.67181e-11
1.45269e-11
1.67024e-11
5.8875e-11
2.41617e-10
9.39132e-10
3.31453e-09
1.05793e-08
3.06978e-08
8.16826e-08
2.01309e-07
1.83127e-08
3.72539e-09
6.18171e-10
1.08226e-10
4.83753e-11
5.6186e-11
1.06914e-10
3.11926e-10
1.07048e-09
3.60683e-09
1.12692e-08
3.22503e-08
8.48529e-08
2.06798e-07
2.45446e-08
4.82764e-09
8.80284e-10
2.86276e-10
2.44565e-10
2.84877e-10
3.84776e-10
7.04145e-10
1.78274e-09
5.20403e-09
1.51074e-08
4.11136e-08
1.03796e-07
2.43566e-07
3.40946e-08
7.28947e-09
1.93525e-09
1.11162e-09
1.13642e-09
1.33107e-09
1.66146e-09
2.3972e-09
4.39443e-09
1.00409e-08
2.5134e-08
6.22516e-08
1.46242e-07
3.23206e-07
5.31667e-08
1.49982e-08
6.08975e-09
4.31881e-09
4.47811e-09
5.26605e-09
6.53079e-09
8.77523e-09
1.34487e-08
2.4453e-08
5.06633e-08
1.10127e-07
2.35183e-07
4.81573e-07
9.96421e-08
3.89368e-08
1.99958e-08
1.48339e-08
1.50257e-08
1.76781e-08
2.2114e-08
2.92551e-08
4.15441e-08
6.53156e-08
1.14251e-07
2.1513e-07
4.11942e-07
7.75894e-07
2.05833e-07
1.01234e-07
5.84017e-08
4.39673e-08
4.34396e-08
5.0954e-08
6.44402e-08
8.53999e-08
1.17784e-07
1.71396e-07
2.65865e-07
4.38678e-07
7.4891e-07
1.28746e-06
4.24048e-07
2.38633e-07
1.47321e-07
1.13072e-07
1.09862e-07
1.27768e-07
1.62498e-07
2.16243e-07
2.94769e-07
4.1121e-07
5.87614e-07
8.64452e-07
1.30903e-06
2.03814e-06
3.7219e-07
8.08903e-07
1.62891e-06
2.9558e-06
4.93267e-06
8.00681e-06
2.90794e-07
6.58934e-07
1.37317e-06
2.54818e-06
4.30143e-06
6.97303e-06
1.99102e-07
5.16005e-07
1.1666e-06
2.27884e-06
4.00695e-06
6.86693e-06
1.32513e-07
3.8199e-07
9.30185e-07
1.93423e-06
3.63431e-06
6.72109e-06
8.93453e-08
2.77883e-07
7.22251e-07
1.60931e-06
3.26678e-06
6.52722e-06
6.56346e-08
2.12032e-07
5.76122e-07
1.365e-06
2.98306e-06
6.4344e-06
5.40608e-08
1.75726e-07
4.89291e-07
1.21762e-06
2.83035e-06
6.38697e-06
5.12884e-08
1.64767e-07
4.63608e-07
1.18876e-06
2.86152e-06
6.57719e-06
5.70263e-08
1.78856e-07
4.97938e-07
1.27211e-06
3.04418e-06
6.85419e-06
7.84717e-08
2.35517e-07
6.28686e-07
1.53642e-06
3.48985e-06
7.3693e-06
1.28849e-07
3.60465e-07
8.93165e-07
2.00974e-06
4.16457e-06
7.99666e-06
2.339e-07
5.93104e-07
1.33204e-06
2.70087e-06
5.02097e-06
8.69371e-06
4.32834e-07
9.74692e-07
1.9563e-06
3.55467e-06
5.97196e-06
9.51443e-06
7.69927e-07
1.52012e-06
2.72134e-06
4.49557e-06
7.04852e-06
1.07741e-05
1.26912e-06
2.19509e-06
3.5598e-06
5.51703e-06
8.38851e-06
1.26592e-05
1.8509e-06
2.81593e-06
4.20159e-06
6.25545e-06
9.4314e-06
1.43228e-05
1.35646e-06
2.25567e-06
3.65501e-06
5.89123e-06
9.54507e-06
1.53633e-05
9.99862e-07
1.82201e-06
3.21956e-06
5.61041e-06
9.68359e-06
1.62762e-05
7.4867e-07
1.49749e-06
2.87571e-06
5.3535e-06
9.66324e-06
1.66515e-05
5.93196e-07
1.27944e-06
2.6178e-06
5.10442e-06
9.48527e-06
1.658e-05
5.02681e-07
1.14059e-06
2.42932e-06
4.86831e-06
9.19424e-06
1.61862e-05
4.63846e-07
1.07396e-06
2.32188e-06
4.69427e-06
8.89358e-06
1.57343e-05
4.70524e-07
1.07676e-06
2.30405e-06
4.6159e-06
8.66874e-06
1.54077e-05
5.34666e-07
1.17847e-06
2.44194e-06
4.76897e-06
8.80058e-06
1.55128e-05
6.74166e-07
1.40566e-06
2.77454e-06
5.1978e-06
9.29762e-06
1.60665e-05
9.40961e-07
1.82799e-06
3.38373e-06
5.98327e-06
1.02112e-05
1.71333e-05
1.40791e-06
2.51197e-06
4.29618e-06
7.086e-06
1.14735e-05
1.86688e-05
2.14365e-06
3.47204e-06
5.45777e-06
8.43064e-06
1.30896e-05
2.07281e-05
3.13978e-06
4.63134e-06
6.75442e-06
9.90502e-06
1.48722e-05
2.29388e-05
2.48612e-06
3.97632e-06
6.23152e-06
9.57027e-06
1.48473e-05
2.32127e-05
2.00586e-06
3.42204e-06
5.44045e-06
8.46948e-06
1.35568e-05
2.20833e-05
1.58558e-06
2.81255e-06
4.56319e-06
7.29471e-06
1.20988e-05
2.07875e-05
1.21085e-06
2.21868e-06
3.71877e-06
6.20124e-06
1.07685e-05
1.9357e-05
9.02088e-07
1.70596e-06
2.98384e-06
5.23514e-06
9.54013e-06
1.78813e-05
6.63944e-07
1.2942e-06
2.37355e-06
4.39889e-06
8.40392e-06
1.62178e-05
4.89682e-07
9.83858e-07
1.89622e-06
3.70215e-06
7.36143e-06
1.45051e-05
3.66687e-07
7.60258e-07
1.5413e-06
3.15498e-06
6.45311e-06
1.29008e-05
2.87294e-07
6.15896e-07
1.30744e-06
2.7796e-06
5.79689e-06
1.17882e-05
2.48138e-07
5.4808e-07
1.20187e-06
2.60134e-06
5.4524e-06
1.11477e-05
2.55447e-07
5.65295e-07
1.23877e-06
2.64887e-06
5.43753e-06
1.0999e-05
3.24965e-07
6.87695e-07
1.43321e-06
2.93833e-06
5.74219e-06
1.13224e-05
4.99508e-07
9.85321e-07
1.90594e-06
3.61689e-06
6.67684e-06
1.22086e-05
8.28531e-07
1.51545e-06
2.71678e-06
4.71004e-06
7.81034e-06
1.28381e-05
5.8481e-08
1.82458e-07
5.17656e-07
1.33782e-06
3.17966e-06
7.27449e-06
7.40032e-08
2.12241e-07
5.78531e-07
1.45572e-06
3.43874e-06
7.49685e-06
1.07863e-07
2.65452e-07
6.81169e-07
1.71933e-06
3.87558e-06
7.77299e-06
1.87704e-07
4.01259e-07
9.33756e-07
2.21047e-06
4.46269e-06
8.06561e-06
6.43003e-07
1.25313e-06
2.61147e-06
4.82201e-06
7.82744e-06
1.25945e-05
4.24838e-07
1.0345e-06
2.34973e-06
4.36626e-06
7.10157e-06
1.18607e-05
2.87577e-07
8.40708e-07
1.97989e-06
3.68928e-06
6.15729e-06
1.09243e-05
2.06624e-07
6.55907e-07
1.56917e-06
2.9705e-06
5.20897e-06
9.93667e-06
1.5331e-07
4.92277e-07
1.18783e-06
2.31542e-06
4.34637e-06
8.9555e-06
1.12946e-07
3.58575e-07
8.69182e-07
1.76789e-06
3.60462e-06
8.00398e-06
8.11425e-08
2.55072e-07
6.2644e-07
1.3591e-06
3.03302e-06
7.12793e-06
5.82833e-08
1.81597e-07
4.62125e-07
1.09517e-06
2.64325e-06
6.39269e-06
4.48231e-08
1.39105e-07
3.75139e-07
9.65126e-07
2.42739e-06
5.85755e-06
3.94257e-08
1.23811e-07
3.51444e-07
9.38013e-07
2.34282e-06
5.50355e-06
4.1182e-08
1.29646e-07
3.72229e-07
9.80561e-07
2.36509e-06
5.40412e-06
5.18054e-08
1.53129e-07
4.26168e-07
1.0823e-06
2.56798e-06
5.7287e-06
7.70723e-08
1.97746e-07
5.21593e-07
1.32467e-06
3.03628e-06
6.26106e-06
1.39223e-07
3.10675e-07
7.47818e-07
1.82544e-06
3.74797e-06
6.8069e-06
1.17198e-05
3.30936e-05
9.08518e-05
7.94893e-05
6.24588e-05
1.23521e-05
3.71263e-05
8.78428e-05
7.78265e-05
6.1939e-05
1.32831e-05
4.00552e-05
8.41505e-05
7.6107e-05
6.24921e-05
1.40386e-05
4.11492e-05
8.06261e-05
7.60901e-05
6.43332e-05
1.45361e-05
4.06253e-05
7.67001e-05
7.62436e-05
6.5914e-05
1.46024e-05
3.83635e-05
7.12205e-05
7.60728e-05
6.6888e-05
1.42828e-05
3.55848e-05
6.604e-05
7.57101e-05
6.74074e-05
1.38305e-05
3.26921e-05
6.20428e-05
7.55373e-05
6.78594e-05
7.10462e-05
1.38263e-05
3.06573e-05
5.96313e-05
7.49706e-05
6.80571e-05
7.40649e-05
1.38831e-05
2.99158e-05
5.94454e-05
7.2503e-05
6.68711e-05
7.60302e-05
1.40031e-05
3.04144e-05
6.08752e-05
6.9082e-05
6.47262e-05
7.63314e-05
8.94505e-05
1.45826e-05
3.2478e-05
6.34734e-05
6.59936e-05
6.25988e-05
7.42784e-05
0.000101538
0.000103622
1.6135e-05
3.63676e-05
6.77737e-05
6.4489e-05
6.19493e-05
7.11714e-05
0.000102019
0.000207383
1.8618e-05
4.15321e-05
7.31744e-05
6.55991e-05
6.31741e-05
6.94184e-05
7.77486e-05
0.000200991
2.13146e-05
4.6052e-05
7.75589e-05
6.8294e-05
6.51871e-05
6.93932e-05
7.33486e-05
0.000176943
2.37099e-05
4.86551e-05
7.92686e-05
7.08302e-05
6.67733e-05
7.07752e-05
7.29607e-05
0.000161622
2.56117e-05
5.04948e-05
7.94023e-05
7.39566e-05
6.91656e-05
7.26315e-05
7.28155e-05
9.17535e-05
2.63354e-05
5.06443e-05
7.9103e-05
7.82005e-05
7.24167e-05
7.5071e-05
7.12264e-05
0.000123661
2.63624e-05
4.95917e-05
7.90936e-05
8.15156e-05
7.47204e-05
7.69436e-05
6.92398e-05
0.000127014
2.58029e-05
4.79378e-05
8.00471e-05
8.32521e-05
7.52976e-05
7.84124e-05
6.84603e-05
0.000101457
2.4998e-05
4.6775e-05
8.3445e-05
8.33171e-05
7.484e-05
8.0312e-05
7.13236e-05
4.45753e-05
2.47021e-05
4.70435e-05
8.9805e-05
8.23053e-05
7.44803e-05
8.32553e-05
7.71781e-05
4.97025e-05
2.52083e-05
4.99811e-05
9.55165e-05
7.95058e-05
7.37713e-05
8.50482e-05
2.63548e-05
5.52964e-05
9.57624e-05
7.45223e-05
7.14424e-05
8.51819e-05
2.7983e-05
6.02676e-05
9.15436e-05
6.92123e-05
6.81526e-05
8.5389e-05
2.99866e-05
6.43073e-05
8.8202e-05
6.63241e-05
6.55064e-05
8.28867e-05
3.24667e-05
6.82338e-05
8.65439e-05
6.53989e-05
6.45487e-05
7.79223e-05
3.47411e-05
7.26535e-05
8.71695e-05
6.79662e-05
6.53471e-05
3.5561e-05
7.67743e-05
8.76249e-05
7.30776e-05
6.8034e-05
3.56691e-05
7.72647e-05
8.61175e-05
7.67612e-05
6.97287e-05
3.64294e-05
7.23819e-05
8.32513e-05
7.99126e-05
7.16916e-05
3.60353e-05
6.48407e-05
8.0253e-05
8.40732e-05
7.42276e-05
3.46168e-05
5.77625e-05
7.79427e-05
8.80234e-05
7.57797e-05
3.19687e-05
5.14927e-05
7.7388e-05
9.08774e-05
7.48135e-05
2.89034e-05
4.65196e-05
8.04474e-05
9.20137e-05
7.20089e-05
2.60325e-05
4.30764e-05
8.90771e-05
9.30228e-05
7.0051e-05
2.36454e-05
4.12742e-05
0.000102232
9.25841e-05
6.73625e-05
2.1623e-05
4.12487e-05
0.000114173
8.92254e-05
6.36374e-05
2.01721e-05
4.41319e-05
0.000118722
8.51061e-05
6.14625e-05
1.96128e-05
5.01924e-05
0.000116772
8.38018e-05
6.16573e-05
2.03235e-05
5.77604e-05
0.000110923
8.40542e-05
6.35744e-05
2.1591e-05
6.42698e-05
0.000106825
8.59703e-05
6.61709e-05
2.26755e-05
6.79107e-05
0.000103565
8.66155e-05
6.72604e-05
2.3758e-05
6.76963e-05
9.74402e-05
8.43909e-05
6.68461e-05
2.45704e-05
6.37174e-05
8.96951e-05
8.22946e-05
6.73892e-05
2.44649e-05
5.71326e-05
8.19685e-05
8.18831e-05
6.90158e-05
2.35368e-05
5.0369e-05
7.46348e-05
8.20323e-05
6.99112e-05
2.17942e-05
4.39294e-05
6.73893e-05
8.19626e-05
6.93489e-05
1.96947e-05
3.83173e-05
6.11484e-05
8.17239e-05
6.75262e-05
1.75253e-05
3.35217e-05
5.71549e-05
8.2738e-05
6.60711e-05
1.55011e-05
2.94442e-05
5.63229e-05
8.44372e-05
6.43718e-05
1.36861e-05
2.60403e-05
5.89098e-05
8.44175e-05
6.1818e-05
1.22704e-05
2.37783e-05
6.44874e-05
8.18248e-05
5.96298e-05
1.12762e-05
2.34921e-05
7.26442e-05
7.89255e-05
5.88902e-05
1.09201e-05
2.5438e-05
8.22525e-05
7.76387e-05
5.98079e-05
1.12273e-05
2.88103e-05
8.96901e-05
7.86935e-05
6.15447e-05
8.6566e-08
5.26891e-08
3.26645e-08
2.07342e-08
1.42762e-08
1.08035e-08
9.4115e-09
9.94573e-09
1.46105e-08
2.92664e-08
6.82125e-08
1.6079e-07
3.57635e-07
7.39854e-07
2.95754e-08
1.3199e-08
7.12113e-09
4.28286e-09
2.92781e-09
2.23638e-09
2.05222e-09
2.5373e-09
5.0522e-09
1.36449e-08
3.89419e-08
1.042e-07
2.51896e-07
5.46942e-07
1.22772e-08
3.51464e-09
1.35031e-09
7.07802e-10
4.70884e-10
3.70177e-10
4.08306e-10
7.85639e-10
2.38599e-09
7.9457e-09
2.48154e-08
6.97278e-08
1.74593e-07
3.89879e-07
8.26851e-09
1.85683e-09
4.12361e-10
1.23085e-10
6.38875e-11
5.6514e-11
1.07787e-10
3.64077e-10
1.39018e-09
4.96583e-09
1.59812e-08
4.60495e-08
1.18723e-07
2.74904e-07
8.30109e-09
1.85619e-09
3.51413e-10
6.0068e-11
1.31273e-11
1.33853e-11
4.97712e-11
2.19103e-10
8.98746e-10
3.30368e-09
1.08375e-08
3.18434e-08
8.42988e-08
2.02982e-07
9.61008e-09
2.11485e-09
3.85598e-10
5.81101e-11
8.37002e-12
7.48654e-12
3.33901e-11
1.53674e-10
6.39673e-10
2.37809e-09
7.90206e-09
2.36285e-08
6.41899e-08
1.60217e-07
1.22636e-08
2.58156e-09
4.41016e-10
6.33134e-11
1.13733e-11
1.04673e-11
3.24387e-11
1.32614e-10
5.34574e-10
1.97201e-09
6.57062e-09
1.98348e-08
5.47048e-08
1.39212e-07
1.6561e-08
3.28518e-09
5.29761e-10
9.02677e-11
4.00845e-11
4.40796e-11
7.06282e-11
1.77971e-10
5.92636e-10
2.04804e-09
6.65661e-09
1.98469e-08
5.43128e-08
1.37236e-07
2.27319e-08
4.339e-09
7.55085e-10
2.37246e-10
2.06071e-10
2.40823e-10
3.05252e-10
4.83131e-10
1.07859e-09
3.03401e-09
8.94538e-09
2.51643e-08
6.59281e-08
1.60374e-07
3.20908e-08
6.52894e-09
1.61392e-09
9.11407e-10
9.56506e-10
1.14031e-09
1.40117e-09
1.89189e-09
3.10721e-09
6.51943e-09
1.59016e-08
3.98296e-08
9.58923e-08
2.17959e-07
4.96546e-08
1.29905e-08
4.95594e-09
3.5157e-09
3.74908e-09
4.50815e-09
5.59341e-09
7.32737e-09
1.06062e-08
1.79761e-08
3.55578e-08
7.64187e-08
1.64591e-07
3.4279e-07
9.04886e-08
3.2835e-08
1.61384e-08
1.20158e-08
1.25043e-08
1.50717e-08
1.89959e-08
2.49345e-08
3.45351e-08
5.21821e-08
8.77866e-08
1.61959e-07
3.09384e-07
5.886e-07
1.82411e-07
8.47016e-08
4.71041e-08
3.55076e-08
3.59645e-08
4.32523e-08
5.53692e-08
7.3471e-08
1.00497e-07
1.43651e-07
2.17789e-07
3.53259e-07
6.00029e-07
1.04186e-06
3.74449e-07
2.00938e-07
1.19368e-07
9.12964e-08
9.06447e-08
1.08112e-07
1.39739e-07
1.87359e-07
2.5576e-07
3.55298e-07
5.03252e-07
7.32642e-07
1.10194e-06
1.72605e-06
4.80793e-08
3.32234e-08
2.23974e-08
1.45738e-08
9.69797e-09
6.70876e-09
5.10577e-09
4.38534e-09
5.03015e-09
9.01593e-09
2.2596e-08
6.11848e-08
1.57108e-07
3.68243e-07
1.32073e-08
7.19397e-09
4.48347e-09
2.81197e-09
1.84152e-09
1.26524e-09
9.87999e-10
9.34727e-10
1.47202e-09
4.03419e-09
1.32431e-08
4.12562e-08
1.14561e-07
2.80339e-07
4.73913e-09
1.5668e-09
7.28745e-10
4.15484e-10
2.65194e-10
1.83595e-10
1.58352e-10
2.23711e-10
6.55241e-10
2.49971e-09
9.10483e-09
2.94277e-08
8.34073e-08
2.07506e-07
3.97561e-09
8.97286e-10
2.00361e-10
6.15829e-11
3.02913e-11
2.15749e-11
2.91789e-11
9.29451e-11
4.09321e-10
1.71605e-09
6.36737e-09
2.07494e-08
5.95496e-08
1.51516e-07
4.92256e-09
1.04974e-09
1.87963e-10
3.01123e-11
5.49569e-12
3.32419e-12
1.12527e-11
5.81469e-11
2.83394e-10
1.21395e-09
4.5454e-09
1.49549e-08
4.35942e-08
1.14065e-07
6.3637e-09
1.30137e-09
2.19726e-10
3.06731e-11
3.77623e-12
1.67166e-12
7.68814e-12
4.2312e-11
2.07195e-10
8.86815e-10
3.33107e-09
1.10817e-08
3.30204e-08
8.93307e-08
8.73846e-09
1.69229e-09
2.64306e-10
3.43975e-11
5.31552e-12
3.35337e-12
8.18749e-12
3.51346e-11
1.62114e-10
6.84411e-10
2.57908e-09
8.711e-09
2.66218e-08
7.4284e-08
1.23805e-08
2.25153e-09
3.25401e-10
4.80227e-11
1.94246e-11
1.99932e-11
2.62928e-11
5.19106e-11
1.65655e-10
6.27063e-10
2.30605e-09
7.7968e-09
2.40628e-08
6.7908e-08
1.75213e-08
3.02755e-09
4.47165e-10
1.19723e-10
1.04862e-10
1.22983e-10
1.47441e-10
1.95842e-10
3.50058e-10
9.11568e-10
2.8673e-09
9.06862e-09
2.69056e-08
7.36679e-08
2.5006e-08
4.35727e-09
8.53767e-10
4.55914e-10
5.09435e-10
6.21555e-10
7.56896e-10
9.51082e-10
1.33346e-09
2.35206e-09
5.41078e-09
1.42971e-08
3.80049e-08
9.64215e-08
3.7123e-08
7.68609e-09
2.41372e-09
1.78873e-09
2.08078e-09
2.59287e-09
3.24319e-09
4.12562e-09
5.50126e-09
8.1596e-09
1.44411e-08
3.04106e-08
6.88216e-08
1.55689e-07
6.21941e-08
1.78388e-08
7.78259e-09
6.24634e-09
7.18451e-09
9.08095e-09
1.16443e-08
1.51125e-08
2.00602e-08
2.79618e-08
4.28531e-08
7.51793e-08
1.44685e-07
2.89705e-07
1.17119e-07
4.58829e-08
2.33943e-08
1.89621e-08
2.12786e-08
2.70907e-08
3.5482e-08
4.69551e-08
6.27982e-08
8.582e-08
1.22608e-07
1.89925e-07
3.18664e-07
5.70925e-07
2.40941e-07
1.148e-07
6.24907e-08
5.05437e-08
5.52202e-08
7.00812e-08
9.3009e-08
1.25033e-07
1.68918e-07
2.29538e-07
3.15096e-07
4.44132e-07
6.52969e-07
1.03182e-06
1.69566e-08
1.1468e-08
7.98314e-09
5.29183e-09
3.54787e-09
2.37938e-09
1.74712e-09
1.40708e-09
1.41812e-09
2.25649e-09
5.75976e-09
1.73245e-08
5.07319e-08
1.36372e-07
4.01937e-09
2.09406e-09
1.36484e-09
8.73213e-10
5.76231e-10
3.80918e-10
2.82076e-10
2.38578e-10
3.15951e-10
8.49452e-10
3.13876e-09
1.12987e-08
3.62779e-08
1.02207e-07
1.68834e-09
4.69837e-10
1.9481e-10
1.07051e-10
6.75483e-11
4.41843e-11
3.46853e-11
4.16268e-11
1.21036e-10
5.30619e-10
2.25256e-09
8.40927e-09
2.72821e-08
7.70195e-08
2.013e-09
4.15709e-10
7.68571e-11
1.70085e-11
6.42812e-12
3.8179e-12
4.42984e-12
1.48094e-11
7.76353e-11
3.85739e-10
1.66805e-09
6.23587e-09
2.02189e-08
5.71932e-08
2.80286e-09
5.54536e-10
9.19564e-11
1.29785e-11
1.74521e-12
4.88062e-13
1.54324e-12
9.797e-12
5.73587e-11
2.89162e-10
1.25234e-09
4.68203e-09
1.52209e-08
4.35548e-08
3.86684e-09
7.27261e-10
1.14053e-10
1.45238e-11
1.60425e-12
3.3854e-13
1.15789e-12
7.4566e-12
4.34393e-11
2.17902e-10
9.41206e-10
3.5267e-09
1.16049e-08
3.41668e-08
5.58679e-09
9.92482e-10
1.43535e-10
1.68302e-11
2.32478e-12
1.196e-12
1.91527e-12
6.8269e-12
3.44046e-11
1.67222e-10
7.18972e-10
2.72346e-09
9.21925e-09
2.84182e-08
8.19579e-09
1.36693e-09
1.80705e-10
2.29434e-11
8.50934e-12
8.89474e-12
1.06305e-11
1.54082e-11
3.80801e-11
1.45095e-10
5.95652e-10
2.28682e-09
8.03148e-09
2.59149e-08
1.18942e-08
1.87556e-09
2.41879e-10
5.32957e-11
4.7831e-11
5.89047e-11
7.05216e-11
8.48839e-11
1.18199e-10
2.42583e-10
7.41534e-10
2.60652e-09
8.9525e-09
2.86943e-08
1.71763e-08
2.67415e-09
4.2175e-10
2.01873e-10
2.445e-10
3.15058e-10
3.89942e-10
4.7562e-10
5.99449e-10
8.7344e-10
1.72063e-09
4.57571e-09
1.35555e-08
3.9731e-08
2.52051e-08
4.48009e-09
1.12761e-09
8.27501e-10
1.04812e-09
1.37881e-09
1.75931e-09
2.21145e-09
2.79932e-09
3.7575e-09
5.86744e-09
1.17192e-08
2.77273e-08
6.94906e-08
4.13641e-08
1.0077e-08
3.74445e-09
3.05982e-09
3.78109e-09
5.02219e-09
6.57466e-09
8.49719e-09
1.09488e-08
1.44635e-08
2.05059e-08
3.39478e-08
6.55749e-08
1.39887e-07
7.66799e-08
2.65393e-08
1.20889e-08
9.94142e-09
1.17501e-08
1.55562e-08
2.07328e-08
2.74075e-08
3.59614e-08
4.76529e-08
6.50552e-08
9.64113e-08
1.59259e-07
2.95533e-07
1.55748e-07
7.04207e-08
3.53296e-08
2.87261e-08
3.22851e-08
4.19915e-08
5.63031e-08
7.56026e-08
1.00898e-07
1.35106e-07
1.81974e-07
2.51384e-07
3.62428e-07
5.73139e-07
3.46907e-09
2.11174e-09
1.48149e-09
1.03395e-09
7.30594e-10
5.25769e-10
4.01377e-10
3.18875e-10
2.766e-10
3.33298e-10
7.74145e-10
2.60772e-09
9.03891e-09
2.8841e-08
9.1191e-10
3.40429e-10
2.01243e-10
1.33881e-10
9.22342e-11
6.57065e-11
5.04523e-11
4.09895e-11
4.26931e-11
9.70563e-11
4.01887e-10
1.72448e-09
6.57857e-09
2.18779e-08
6.95515e-10
1.43727e-10
3.31486e-11
1.33421e-11
7.88602e-12
5.44782e-12
4.29817e-12
4.48806e-12
1.18864e-11
6.04035e-11
3.08939e-10
1.37527e-09
5.26356e-09
1.74072e-08
1.04914e-09
2.04763e-10
3.16076e-11
4.69783e-12
8.54201e-13
3.29023e-13
3.3005e-13
1.20775e-12
7.85043e-12
4.7804e-11
2.48787e-10
1.10384e-09
4.20099e-09
1.38212e-08
1.53235e-09
2.88255e-10
4.27721e-11
5.61031e-12
6.23034e-13
7.4136e-14
1.08348e-13
8.66415e-13
6.33589e-12
3.89775e-11
2.02521e-10
8.95607e-10
3.39742e-09
1.1159e-08
2.17887e-09
3.885e-10
5.37386e-11
6.38282e-12
6.51209e-13
9.66818e-14
1.23911e-13
7.44427e-13
5.18657e-12
3.15521e-11
1.62973e-10
7.17679e-10
2.71952e-09
8.98997e-09
3.19083e-09
5.38851e-10
6.81257e-11
7.32126e-12
9.71588e-13
5.23277e-13
6.07491e-13
1.14416e-12
4.71734e-12
2.5672e-11
1.2956e-10
5.69228e-10
2.18528e-09
7.47344e-09
4.65669e-09
7.42649e-10
8.57511e-11
9.86792e-12
3.87078e-12
4.37584e-12
5.19953e-12
6.22068e-12
9.54696e-12
2.67652e-11
1.1114e-10
4.76192e-10
1.88215e-09
6.81179e-09
6.73104e-09
1.0127e-09
1.13439e-10
2.28637e-11
2.23344e-11
2.92934e-11
3.59794e-11
4.23631e-11
5.06629e-11
7.33696e-11
1.67427e-10
5.69464e-10
2.14846e-09
7.84258e-09
9.85631e-09
1.42962e-09
1.91174e-10
8.73049e-11
1.1438e-10
1.55634e-10
1.96968e-10
2.38522e-10
2.83539e-10
3.53435e-10
5.35934e-10
1.19603e-09
3.58145e-09
1.16915e-08
1.4377e-08
2.32831e-09
4.95991e-10
3.64906e-10
4.92906e-10
6.79048e-10
8.81556e-10
1.09806e-09
1.33385e-09
1.64216e-09
2.19869e-09
3.71914e-09
8.35169e-09
2.23275e-08
2.23834e-08
5.07306e-09
1.68513e-09
1.41139e-09
1.81934e-09
2.49556e-09
3.30369e-09
4.21762e-09
5.24232e-09
6.52525e-09
8.42539e-09
1.24064e-08
2.23475e-08
4.88645e-08
3.79655e-08
1.32706e-08
5.80359e-09
4.94238e-09
5.93936e-09
7.94033e-09
1.05862e-08
1.37587e-08
1.74598e-08
2.21031e-08
2.8361e-08
3.8943e-08
6.03353e-08
1.11716e-07
7.5773e-08
3.64344e-08
1.85766e-08
1.57568e-08
1.76602e-08
2.25838e-08
2.97744e-08
3.89481e-08
5.01972e-08
6.46331e-08
8.34138e-08
1.10559e-07
1.53431e-07
2.40576e-07
4.59752e-10
2.06442e-10
1.33106e-10
9.40291e-11
6.81442e-11
5.18601e-11
4.3514e-11
3.73473e-11
3.20738e-11
3.07361e-11
5.75481e-11
2.11592e-10
8.74978e-10
3.34014e-09
2.08305e-10
4.47469e-11
1.47471e-11
8.32242e-12
5.75521e-12
4.37952e-12
3.75723e-12
3.30535e-12
3.24557e-12
6.30621e-12
2.88068e-11
1.47578e-10
6.6956e-10
2.62687e-09
2.69904e-10
5.30828e-11
8.47016e-12
1.36465e-12
3.82908e-13
2.18393e-13
1.87323e-13
2.11131e-13
6.23021e-13
3.84831e-12
2.38184e-11
1.2677e-10
5.75173e-10
2.23933e-09
4.33987e-10
8.5084e-11
1.3266e-11
1.73806e-12
2.1355e-13
2.51264e-14
1.00429e-14
5.06147e-14
4.32879e-13
3.25526e-12
2.05189e-11
1.09053e-10
4.92945e-10
1.91074e-09
6.43112e-10
1.20781e-10
1.82421e-11
2.27488e-12
2.58729e-13
2.44944e-14
6.23601e-15
4.16225e-14
3.76608e-13
2.85446e-12
1.80243e-11
9.57443e-11
4.31867e-10
1.66822e-09
9.257e-10
1.64764e-10
2.32266e-11
2.62616e-12
2.79126e-13
3.68403e-14
2.10006e-14
5.14406e-14
3.38266e-13
2.46794e-12
1.55234e-11
8.23746e-11
3.70902e-10
1.42911e-09
1.34175e-09
2.26993e-10
2.94151e-11
3.0218e-12
3.94051e-13
1.86044e-13
1.93972e-13
2.29663e-13
4.72945e-13
2.26309e-12
1.32284e-11
6.93334e-11
3.11772e-10
1.2081e-09
1.90504e-09
3.10664e-10
3.674e-11
3.88573e-12
1.29182e-12
1.38854e-12
1.61238e-12
1.78164e-12
2.06434e-12
3.59624e-12
1.26564e-11
5.90936e-11
2.63135e-10
1.04762e-09
2.61927e-09
4.21382e-10
4.72687e-11
7.77561e-12
6.81567e-12
8.89319e-12
1.0697e-11
1.20912e-11
1.32951e-11
1.55981e-11
2.52607e-11
7.27552e-11
2.84614e-10
1.13656e-09
3.54397e-09
5.81973e-10
7.39136e-11
2.68173e-11
3.44361e-11
4.69689e-11
5.80082e-11
6.74708e-11
7.5615e-11
8.49992e-11
1.04968e-10
1.82005e-10
5.01101e-10
1.74666e-09
4.82409e-09
8.95286e-10
1.73486e-10
1.10491e-10
1.50572e-10
2.08211e-10
2.63348e-10
3.1468e-10
3.61492e-10
4.11352e-10
4.84106e-10
6.77765e-10
1.34337e-09
3.6857e-09
7.16644e-09
1.80786e-09
5.69075e-10
4.40224e-10
5.73522e-10
7.89253e-10
1.01809e-09
1.24688e-09
1.46711e-09
1.70323e-09
2.00133e-09
2.58131e-09
4.14787e-09
9.03517e-09
1.23555e-08
4.60405e-09
2.01247e-09
1.62625e-09
1.95617e-09
2.61412e-09
3.40148e-09
4.25105e-09
5.11734e-09
6.07437e-09
7.2277e-09
9.02909e-09
1.27372e-08
2.2938e-08
2.61731e-08
1.28921e-08
6.84565e-09
5.57957e-09
6.17229e-09
7.80243e-09
1.0025e-08
1.2647e-08
1.55254e-08
1.88539e-08
2.28673e-08
2.83995e-08
3.69942e-08
5.65469e-08
6.79941e-11
1.66218e-11
7.20488e-12
4.67049e-12
3.49593e-12
2.91311e-12
2.79066e-12
2.67713e-12
2.44267e-12
2.18484e-12
3.50905e-12
1.45534e-11
7.18821e-11
3.20546e-10
5.1899e-11
9.50728e-12
1.58981e-12
3.41018e-13
1.58208e-13
1.27369e-13
1.32594e-13
1.39038e-13
1.53352e-13
3.36602e-13
1.8598e-12
1.12661e-11
5.93316e-11
2.67391e-10
8.14699e-11
1.64048e-11
2.71159e-12
3.74894e-13
4.81851e-14
7.30885e-15
3.76418e-15
5.99239e-15
2.80937e-14
2.22141e-13
1.63432e-12
1.01648e-11
5.34313e-11
2.39269e-10
1.28033e-10
2.5763e-11
4.29914e-12
5.97792e-13
7.30131e-14
7.56472e-15
8.62498e-16
2.06411e-15
2.13219e-14
1.92589e-13
1.44083e-12
8.99931e-12
4.7429e-11
2.12718e-10
1.81917e-10
3.57584e-11
5.75744e-12
7.67152e-13
8.8616e-14
8.81206e-15
1.1219e-15
2.00134e-15
1.88413e-14
1.70805e-13
1.28955e-12
8.11374e-12
4.29758e-11
1.93248e-10
2.50441e-10
4.77697e-11
7.15193e-12
8.74103e-13
9.41093e-14
1.16564e-14
4.81247e-15
5.61807e-15
1.99977e-14
1.5236e-13
1.13794e-12
7.19872e-12
3.83355e-11
1.72861e-10
3.45417e-10
6.3949e-11
8.81473e-12
9.83906e-13
1.17494e-13
4.2815e-14
4.17515e-14
4.42962e-14
5.63501e-14
1.69378e-13
1.02359e-12
6.30627e-12
3.35294e-11
1.51345e-10
4.66928e-10
8.37874e-11
1.06963e-11
1.17862e-12
2.94841e-13
2.84869e-13
3.27962e-13
3.52967e-13
3.70656e-13
4.66637e-13
1.18647e-12
5.6626e-12
2.8772e-11
1.29707e-10
6.10278e-10
1.06355e-10
1.30568e-11
1.94448e-12
1.39228e-12
1.79229e-12
2.13812e-12
2.3566e-12
2.4803e-12
2.63572e-12
3.36812e-12
7.7449e-12
3.01132e-11
1.29762e-10
7.81146e-10
1.3541e-10
1.82606e-11
5.69093e-12
7.03678e-12
9.62608e-12
1.17152e-11
1.32149e-11
1.42082e-11
1.50528e-11
1.65873e-11
2.3434e-11
5.52571e-11
1.93561e-10
1.00704e-09
1.908e-10
3.71858e-11
2.25253e-11
3.17326e-11
4.41838e-11
5.47633e-11
6.31537e-11
6.94153e-11
7.4883e-11
8.15494e-11
1.00004e-10
1.68756e-10
4.42338e-10
1.44562e-09
3.63065e-10
1.14742e-10
9.05922e-11
1.25425e-10
1.75016e-10
2.20766e-10
2.60133e-10
2.9218e-10
3.21926e-10
3.54915e-10
4.17785e-10
5.9281e-10
1.21824e-09
2.55655e-09
9.34432e-10
4.10069e-10
3.42099e-10
4.41338e-10
6.05561e-10
7.74272e-10
9.31702e-10
1.06981e-09
1.20557e-09
1.35504e-09
1.58081e-09
2.03242e-09
3.44281e-09
5.76994e-09
2.72679e-09
1.451e-09
1.20842e-09
1.4209e-09
1.86477e-09
2.38582e-09
2.92165e-09
3.43152e-09
3.9611e-09
4.55654e-09
5.36134e-09
6.53815e-09
9.51074e-09
1.49774e-11
2.82968e-12
6.91178e-13
3.17881e-13
2.28079e-13
2.10128e-13
2.29124e-13
2.44249e-13
2.39863e-13
2.17024e-13
3.25841e-13
1.49558e-12
8.30938e-12
4.06201e-11
1.37615e-11
2.70489e-12
4.50115e-13
6.68041e-14
1.27682e-14
7.34013e-15
9.41507e-15
1.24806e-14
1.57792e-14
3.26417e-14
1.83024e-13
1.21908e-12
7.05803e-12
3.47128e-11
2.22123e-11
4.69894e-12
8.32664e-13
1.2412e-13
1.65196e-14
2.05909e-15
5.67212e-16
7.61657e-16
2.62e-15
1.98417e-14
1.5979e-13
1.10303e-12
6.40278e-12
3.14686e-11
3.34579e-11
7.05588e-12
1.26295e-12
1.89626e-13
2.48431e-14
2.75544e-15
3.04334e-16
2.1138e-16
1.70332e-15
1.67538e-14
1.40061e-13
9.76523e-13
5.71384e-12
2.83402e-11
4.58466e-11
9.41519e-12
1.63652e-12
2.36309e-13
2.95115e-14
3.14844e-15
3.88852e-16
2.53919e-16
1.52508e-15
1.47279e-14
1.24689e-13
8.8079e-13
5.21503e-12
2.61319e-11
6.07306e-11
1.19922e-11
1.95822e-12
2.61854e-13
3.07158e-14
3.80084e-15
1.32826e-15
1.23116e-15
2.28151e-15
1.36485e-14
1.10266e-13
7.8461e-13
4.70208e-12
2.38184e-11
8.02706e-11
1.52545e-11
2.30898e-12
2.84798e-13
3.5548e-14
1.08639e-14
9.91873e-15
1.02699e-14
1.10991e-14
2.05198e-14
1.04214e-13
6.96744e-13
4.17297e-12
2.12625e-11
1.04213e-10
1.90447e-11
2.685e-12
3.25558e-13
7.37306e-14
6.38533e-14
7.29364e-14
7.79315e-14
7.98837e-14
8.7138e-14
1.57089e-13
6.64175e-13
3.65308e-12
1.83971e-11
1.31443e-10
2.31814e-11
3.14174e-12
4.88183e-13
3.08626e-13
3.872e-13
4.6059e-13
5.03122e-13
5.23185e-13
5.368e-13
6.04651e-13
1.09233e-12
3.91367e-12
1.78196e-11
1.63026e-10
2.8403e-11
4.14591e-12
1.28329e-12
1.52084e-12
2.06525e-12
2.49735e-12
2.78288e-12
2.95178e-12
3.06151e-12
3.21128e-12
3.96211e-12
7.79688e-12
2.59713e-11
2.03996e-10
3.84271e-11
7.81538e-12
4.85334e-12
6.90041e-12
9.57232e-12
1.17391e-11
1.3334e-11
1.44203e-11
1.52394e-11
1.60302e-11
1.81936e-11
2.65065e-11
6.28167e-11
2.88087e-10
7.09388e-11
2.29749e-11
1.92695e-11
2.77197e-11
3.87382e-11
4.82032e-11
5.57793e-11
6.1456e-11
6.62012e-11
7.06996e-11
7.89053e-11
1.00948e-10
1.88501e-10
5.23936e-10
1.83569e-10
8.13202e-11
7.21838e-11
9.89554e-11
1.37738e-10
1.73933e-10
2.05189e-10
2.30434e-10
2.53196e-10
2.75513e-10
3.0806e-10
3.67775e-10
5.75679e-10
1.23745e-09
5.48905e-10
2.89425e-10
2.52717e-10
3.19691e-10
4.34513e-10
5.54023e-10
6.65817e-10
7.62895e-10
8.56034e-10
9.51553e-10
1.07784e-09
1.24423e-09
1.70759e-09
3.37361e-12
6.46442e-13
1.34979e-13
4.81466e-14
3.28243e-14
3.34035e-14
4.0449e-14
4.69299e-14
4.91125e-14
4.43146e-14
4.5982e-14
1.61276e-13
9.29072e-13
4.82595e-12
3.48239e-12
7.28564e-13
1.29211e-13
2.01303e-14
3.55343e-15
1.74055e-15
2.30406e-15
3.24186e-15
4.07025e-15
5.49176e-15
1.9764e-14
1.30895e-13
8.08349e-13
4.23982e-12
5.71613e-12
1.26408e-12
2.36139e-13
3.74173e-14
5.28163e-15
7.03965e-16
2.0389e-16
2.35061e-16
4.38057e-16
2.05708e-15
1.62127e-14
1.19538e-13
7.45282e-13
3.9224e-12
8.52371e-12
1.88243e-12
3.55332e-13
5.65403e-14
7.85578e-15
9.34449e-16
1.25835e-16
6.27334e-17
1.88593e-16
1.60574e-15
1.41934e-14
1.06818e-13
6.74411e-13
3.60083e-12
1.15125e-11
2.48168e-12
4.562e-13
6.99761e-14
9.30423e-15
1.0583e-15
1.44712e-16
7.09376e-17
1.74122e-16
1.4136e-15
1.26608e-14
9.68814e-14
6.21901e-13
3.37405e-12
1.49318e-11
3.09011e-12
5.36501e-13
7.67289e-14
9.59283e-15
1.16993e-15
3.30969e-16
2.68698e-16
3.48304e-16
1.40369e-15
1.12969e-14
8.68273e-14
5.66523e-13
3.12582e-12
1.92559e-11
3.81024e-12
6.18849e-13
8.21093e-14
1.04138e-14
2.50684e-15
2.00478e-15
2.01767e-15
2.04841e-15
2.84801e-15
1.13766e-14
7.81036e-14
5.08446e-13
2.8347e-12
2.44012e-11
4.61589e-12
7.04785e-13
9.08195e-14
1.76254e-14
1.26779e-14
1.41116e-14
1.48425e-14
1.48777e-14
1.50815e-14
2.18345e-14
7.88715e-14
4.52028e-13
2.47924e-12
3.00735e-11
5.46148e-12
8.04088e-13
1.23134e-13
6.29877e-14
7.50771e-14
8.84822e-14
9.50694e-14
9.68573e-14
9.60611e-14
1.00622e-13
1.53109e-13
4.98535e-13
2.36165e-12
3.64291e-11
6.47376e-12
1.00407e-12
2.79896e-13
3.01771e-13
4.03632e-13
4.83225e-13