/*--------------------------------*- C++ -*----------------------------------*\
| =========                 |                                                 |
| \\      /  F ield         | OpenFOAM: The Open Source CFD Toolbox           |
|  \\    /   O peration     | Version:  v2106                                 |
|   \\  /    A nd           | Website:  www.openfoam.com                      |
|    \\/     M anipulation  |                                                 |
\*---------------------------------------------------------------------------*/
FoamFile
{
    version     2.0;
    format      ascii;
    arch        "LSB;label=32;scalar=64";
    class       volScalarField;
    location    "0.000183";
    object      Ttot;
}
// * * * * * * * * * * * * * * * * * * * * * * * * * * * * * * * * * * * * * //

dimensions      [0 0 0 1 0 0 0];

internalField   nonuniform List<scalar> 
18109
(
299.916
299.89
299.884
299.894
299.897
299.895
299.89
299.842
299.815
299.772
299.74
299.716
299.7
299.69
299.797
299.72
299.65
299.583
299.534
299.5
299.474
299.71
299.6
299.506
299.422
299.359
299.309
299.265
299.579
299.448
299.331
299.247
299.183
299.132
299.08
299.402
299.256
299.133
299.059
299.005
298.953
298.896
299.183
299.035
298.921
298.859
298.816
298.767
298.708
298.94
298.805
298.708
298.653
298.614
298.561
298.498
300.05
300.003
299.976
299.957
299.937
299.927
299.928
299.914
299.891
299.819
299.675
299.463
299.252
299.033
299.982
299.927
299.868
299.815
299.777
299.756
299.748
299.73
299.703
299.625
299.491
299.29
299.08
298.843
299.943
299.848
299.767
299.688
299.632
299.596
299.573
299.542
299.503
299.423
299.301
299.118
298.925
298.71
299.836
299.723
299.625
299.541
299.482
299.44
299.406
299.357
299.296
299.199
299.074
298.904
298.736
298.567
299.705
299.582
299.466
299.39
299.333
299.292
299.251
299.189
299.113
299.004
298.878
298.73
298.595
298.475
299.526
299.396
299.282
299.222
299.176
299.137
299.09
299.015
298.926
298.812
298.688
298.559
298.453
298.369
299.312
299.186
299.087
299.041
299.007
298.969
298.917
298.834
298.74
298.63
298.515
298.411
298.331
298.269
299.084
298.976
298.896
298.857
298.825
298.78
298.724
298.636
298.539
298.432
298.325
298.243
298.179
298.121
298.859
298.766
298.704
298.665
298.632
298.581
298.519
298.427
298.327
298.226
298.129
298.061
298.007
297.96
298.648
298.579
298.538
298.487
298.44
298.367
298.298
298.207
298.107
298.012
297.917
297.861
297.778
297.733
298.45
298.403
298.382
298.322
298.259
298.168
298.08
297.983
297.876
297.785
297.687
297.622
297.502
297.446
298.253
298.231
298.243
298.173
298.1
298.005
297.892
297.787
297.666
297.567
297.456
297.376
297.217
297.111
298.019
298.014
298.066
298.016
297.953
297.876
297.75
297.634
297.49
297.368
297.228
297.099
296.889
296.751
297.745
297.793
297.879
297.851
297.812
297.77
297.652
297.532
297.364
297.216
297.039
296.869
296.636
296.415
299.931
299.992
300.034
300.038
299.845
299.188
300.053
300.12
300.171
300.191
300.122
299.679
300.066
300.149
300.198
300.197
299.934
299.212
300.063
300.153
300.192
300.105
299.678
298.74
300.088
300.184
300.19
300.03
299.484
298.49
300.089
300.187
300.167
299.957
299.374
298.491
300.081
300.167
300.132
299.892
299.332
298.621
300.075
300.142
300.078
299.821
299.356
298.94
300.044
300.095
299.994
299.752
299.468
299.316
300.003
300.032
299.93
299.76
299.605
299.586
299.905
299.908
299.815
299.714
299.652
299.682
299.736
299.739
299.671
299.658
299.68
299.732
299.512
299.528
299.5
299.565
299.616
299.676
299.282
299.328
299.347
299.432
299.406
299.339
299.05
299.069
299.045
299.056
298.837
298.407
298.895
298.958
298.872
298.688
298.09
297.147
298.711
298.72
298.55
298.122
297.147
295.786
298.578
298.565
298.3
297.631
296.362
294.684
298.437
298.384
298
297.154
295.747
294.003
298.359
298.251
297.782
296.852
295.449
293.857
298.251
298.085
297.562
296.64
295.351
294.055
298.144
297.904
297.354
296.505
295.404
294.476
297.972
297.649
297.098
296.356
295.499
294.838
297.762
297.377
296.835
296.209
295.563
295.104
297.457
297.045
296.531
296.026
295.53
295.102
297.116
296.732
296.277
295.875
295.43
294.894
296.753
296.407
296.011
295.654
295.143
294.341
296.463
296.161
295.824
295.466
294.803
293.624
296.131
295.815
295.425
294.855
293.928
292.591
296.187
295.946
295.57
294.832
293.57
291.967
296.388
296.106
295.662
294.8
293.363
291.533
296.628
296.357
295.909
294.984
293.437
291.521
296.846
296.576
296.126
295.176
293.631
291.8
297.09
296.857
296.4
295.478
294.057
292.464
297.274
297.079
296.626
295.77
294.534
293.289
297.448
297.261
296.811
296.062
295.026
294.162
297.54
297.325
296.857
296.221
295.405
294.855
297.613
297.352
296.879
296.287
295.699
295.359
297.598
297.313
296.839
296.342
295.916
295.593
297.594
297.289
296.849
296.404
296.038
295.652
297.56
297.244
296.853
296.441
296.105
295.609
297.49
297.214
296.888
296.532
296.145
295.411
297.452
297.169
296.878
296.528
296.006
295.046
299.778
299.875
299.837
299.793
299.695
299.798
299.83
299.927
299.895
299.907
299.861
299.957
299.866
299.97
299.966
299.991
299.973
299.92
300.002
300.088
300.089
300.091
299.995
299.644
297.506
297.294
297.089
296.709
296.025
294.896
297.876
297.656
297.432
296.996
296.121
294.858
298.146
297.984
297.812
297.339
296.432
295.23
298.444
298.35
298.21
297.757
296.936
295.814
298.706
298.669
298.594
298.256
297.574
296.606
298.972
298.987
298.962
298.73
298.168
297.448
299.218
299.302
299.301
299.115
298.683
298.28
299.463
299.588
299.566
299.401
299.088
298.938
299.68
299.81
299.778
299.637
299.427
299.45
299.838
299.954
299.925
299.832
299.705
299.8
299.926
300.038
300.021
299.987
299.908
300.046
299.985
300.092
300.077
300.104
300.079
300.204
300.015
300.13
300.126
300.157
300.178
300.269
300.111
300.212
300.21
300.254
300.203
300.089
297.92
295.392
296.291
303.815
313.37
297.26
295.052
297.04
305.573
314.669
296.812
295.197
298.251
306.572
314.038
296.873
296.182
300.124
308.055
313.056
297.401
297.652
302.182
309.338
312.94
298.049
299.138
303.446
309.221
312.061
298.863
300.437
304.187
308.399
310.322
299.54
301.098
303.948
306.481
308.072
307.663
299.962
301.337
303.179
304.777
306.804
307.782
300.123
300.924
301.581
303.041
306.579
309.021
299.981
299.713
299.316
301.403
306.628
310.12
309.74
299.309
297.716
296.937
300.522
307.246
310.738
310.603
307.625
298.081
295.445
295.028
300.107
307.592
309.833
309.986
313.319
296.432
293.421
294.019
300.459
309.257
313.085
312.921
309.529
294.664
291.994
294.081
301.756
309.418
312.392
311.481
306.027
293.192
291.312
294.517
302.491
309.921
312.117
310.242
307.799
292.206
291.328
295.518
302.583
308.835
309.68
309.038
305.319
291.923
291.943
296.648
302.815
307.242
307.306
305.044
300.135
292.21
293.103
298.148
303.55
306.585
305.431
303.456
297.064
293.007
294.466
298.964
303.261
305.898
305.206
302.105
297.655
293.922
295.598
298.891
301.665
303.795
302.768
301.603
297.37
294.519
295.863
297.524
299.647
302.278
302.531
299.712
296.852
294.747
295.358
295.799
298.581
302.225
302.801
294.42
293.731
293.786
298.08
303.358
304.701
293.677
291.602
291.825
297.403
303.814
305.742
292.423
289.566
290.392
297.553
305.115
306.872
291.007
288.036
289.432
296.194
303.477
304.939
289.697
286.92
289.076
295.984
303.807
288.85
286.325
289.241
296.861
303.898
288.509
286.322
289.551
297.476
304.232
288.67
287.221
291.005
297.841
302.752
289.514
289.005
293.211
298.869
303.29
290.821
291.305
295.489
299.592
302.122
292.25
293.383
296.853
299.5
301.406
293.545
294.712
297.15
297.963
299.358
294.521
295.272
296.031
296.48
299.076
295.071
295.119
294.546
296.25
300.431
295.191
294.462
292.911
296.319
303.195
294.933
293.286
291.5
295.992
304.183
294.344
291.786
290.455
296.208
305.883
293.576
290.446
289.984
295.918
305.199
292.721
289.49
290.116
297.081
306.744
292.336
289.234
290.803
299.698
309.708
292.368
289.694
291.872
301.203
309.676
292.946
291.047
294.072
302.08
308.596
294.01
293.037
296.398
302.985
308.576
295.362
295.23
298.834
304.294
307.702
296.721
297.332
300.528
304.138
306.616
297.956
298.926
301.315
303.139
304.3
298.911
299.937
301.51
301.829
302.233
299.571
300.383
301.237
301.2
301.932
299.901
300.386
300.156
300.822
303.279
299.937
299.821
298.684
300.268
304.876
299.772
298.845
297.219
300.13
307.274
299.266
297.595
296.111
300.367
308.46
298.607
296.366
295.88
301.722
310.651
300.514
300.413
300.328
300.242
300.185
300.159
300.174
300.196
300.22
300.224
300.19
300.088
299.952
299.738
300.428
300.319
300.209
300.106
300.046
300.023
300.037
300.06
300.081
300.076
300.033
299.929
299.799
299.597
300.344
300.219
300.106
299.998
299.94
299.915
299.922
299.937
299.951
299.936
299.889
299.782
299.65
299.45
300.177
300.064
299.954
299.865
299.818
299.804
299.808
299.814
299.811
299.774
299.71
299.59
299.455
299.278
300.015
299.906
299.805
299.737
299.699
299.69
299.692
299.685
299.665
299.61
299.533
299.411
299.281
299.133
299.812
299.715
299.629
299.59
299.564
299.561
299.558
299.538
299.498
299.425
299.335
299.218
299.098
298.983
299.588
299.517
299.449
299.432
299.418
299.418
299.41
299.378
299.323
299.239
299.143
299.042
298.944
298.861
299.364
299.333
299.29
299.279
299.266
299.261
299.24
299.193
299.123
299.032
298.934
298.851
298.784
298.727
299.163
299.147
299.128
299.119
299.107
299.092
299.054
298.991
298.909
298.82
298.731
298.668
298.63
298.608
299.011
298.995
299.005
298.979
298.951
298.914
298.852
298.773
298.681
298.597
298.511
298.472
298.422
298.431
298.864
298.854
298.89
298.858
298.803
298.743
298.653
298.555
298.448
298.362
298.274
298.246
298.173
298.207
298.717
298.743
298.805
298.75
298.672
298.591
298.474
298.356
298.232
298.135
298.043
298.013
297.9
297.901
298.513
298.569
298.668
298.631
298.551
298.469
298.33
298.193
298.042
297.918
297.804
297.73
297.571
297.533
298.3
298.402
298.519
298.491
298.43
298.366
298.224
298.076
297.897
297.743
297.6
297.469
297.3
297.153
301.456
301.346
301.262
301.151
301.085
301.033
301.029
301.032
301.048
301.062
301.084
301.049
301.006
300.873
301.322
301.236
301.098
300.995
300.922
300.897
300.902
300.917
300.936
300.947
300.949
300.902
300.865
300.751
301.196
301.106
300.987
300.906
300.841
300.822
300.824
300.836
300.852
300.859
300.857
300.811
300.769
300.659
301.043
300.967
300.867
300.807
300.756
300.746
300.747
300.756
300.764
300.756
300.732
300.672
300.615
300.511
300.882
300.805
300.737
300.691
300.663
300.661
300.665
300.671
300.67
300.649
300.61
300.539
300.468
300.366
300.707
300.65
300.609
300.579
300.565
300.563
300.566
300.562
300.546
300.506
300.45
300.37
300.293
300.203
300.515
300.49
300.47
300.458
300.452
300.445
300.444
300.428
300.394
300.337
300.268
300.189
300.119
300.056
300.34
300.342
300.346
300.336
300.332
300.313
300.298
300.262
300.207
300.136
300.057
299.989
299.932
299.91
300.179
300.19
300.217
300.201
300.194
300.162
300.126
300.067
299.994
299.918
299.843
299.799
299.759
299.776
300.048
300.06
300.108
300.081
300.057
300.007
299.94
299.858
299.767
299.685
299.609
299.585
299.545
299.58
299.921
299.917
299.99
299.959
299.915
299.845
299.745
299.636
299.527
299.441
299.368
299.377
299.332
299.396
299.794
299.811
299.89
299.856
299.781
299.695
299.561
299.429
299.302
299.207
299.131
299.13
299.055
299.112
299.588
299.641
299.747
299.745
299.656
299.563
299.405
299.247
299.093
298.97
298.871
298.834
298.749
298.794
299.368
299.511
299.608
299.617
299.526
299.451
299.288
299.114
298.937
298.789
298.671
298.579
298.469
298.395
302.639
302.575
302.533
302.452
302.413
302.369
302.36
302.361
302.372
302.387
302.402
302.395
302.386
302.319
302.483
302.456
302.378
302.301
302.246
302.209
302.199
302.2
302.213
302.227
302.237
302.226
302.222
302.182
302.319
302.303
302.237
302.18
302.133
302.11
302.105
302.108
302.121
302.135
302.149
302.148
302.151
302.126
302.153
302.149
302.099
302.063
302.029
302.017
302.016
302.02
302.033
302.046
302.056
302.053
302.054
302.033
301.99
301.993
301.966
301.951
301.931
301.928
301.931
301.937
301.948
301.958
301.963
301.956
301.953
301.937
301.832
301.844
301.842
301.84
301.833
301.832
301.835
301.839
301.846
301.848
301.843
301.83
301.82
301.806
301.684
301.704
301.722
301.728
301.73
301.727
301.728
301.726
301.724
301.715
301.699
301.68
301.667
301.663
301.555
301.574
301.613
301.62
301.623
301.614
301.605
301.592
301.573
301.55
301.523
301.503
301.491
301.507
301.434
301.443
301.497
301.502
301.502
301.486
301.463
301.434
301.398
301.364
301.332
301.319
301.315
301.356
301.337
301.335
301.396
301.396
301.384
301.352
301.308
301.257
301.201
301.154
301.12
301.125
301.125
301.177
301.237
301.223
301.279
301.281
301.251
301.203
301.133
301.06
300.986
300.933
300.905
300.941
300.936
301.002
301.136
301.151
301.189
301.186
301.129
301.061
300.963
300.867
300.773
300.711
300.677
300.71
300.688
300.765
300.985
301.039
301.066
301.073
301
300.918
300.795
300.677
300.563
300.488
300.45
300.468
300.452
300.519
300.818
300.942
300.967
300.963
300.87
300.791
300.657
300.528
300.402
300.317
300.261
300.224
300.188
300.164
304.124
304.072
304.04
303.995
303.963
303.933
303.919
303.92
303.933
303.955
303.985
304.01
304.041
304.067
303.935
303.929
303.886
303.846
303.811
303.782
303.765
303.76
303.768
303.785
303.811
303.833
303.865
303.897
303.764
303.774
303.732
303.704
303.676
303.655
303.642
303.64
303.651
303.67
303.701
303.732
303.768
303.804
303.595
303.61
303.582
303.568
303.551
303.538
303.531
303.532
303.545
303.567
303.598
303.632
303.673
303.715
303.438
303.454
303.446
303.443
303.437
303.43
303.429
303.434
303.452
303.476
303.509
303.546
303.591
303.635
303.296
303.313
303.322
303.328
303.328
303.326
303.327
303.336
303.355
303.381
303.413
303.451
303.494
303.537
303.166
303.184
303.207
303.217
303.222
303.223
303.226
303.236
303.253
303.277
303.306
303.343
303.382
303.421
303.052
303.066
303.101
303.112
303.117
303.118
303.12
303.126
303.138
303.158
303.182
303.212
303.244
303.283
302.938
302.95
302.991
303.005
303.008
303.007
303.005
303.005
303.01
303.023
303.043
303.068
303.093
303.137
302.846
302.854
302.892
302.904
302.899
302.891
302.879
302.87
302.865
302.871
302.886
302.911
302.933
302.98
302.732
302.751
302.779
302.791
302.779
302.761
302.738
302.718
302.703
302.705
302.721
302.757
302.777
302.831
302.644
302.679
302.689
302.696
302.669
302.635
302.597
302.562
302.534
302.53
302.541
302.579
302.592
302.656
302.503
302.57
302.564
302.576
302.542
302.497
302.444
302.395
302.356
302.349
302.364
302.407
302.432
302.492
302.358
302.466
302.47
302.474
302.427
302.377
302.314
302.258
302.211
302.195
302.195
302.22
302.225
302.24
305.504
305.486
305.47
305.453
305.444
305.44
305.444
305.458
305.485
305.524
305.578
305.637
305.712
305.774
305.333
305.337
305.319
305.302
305.293
305.288
305.29
305.3
305.323
305.358
305.407
305.464
305.532
305.601
305.184
305.194
305.173
305.16
305.153
305.15
305.153
305.165
305.189
305.226
305.277
305.339
305.413
305.491
305.041
305.048
305.032
305.023
305.019
305.018
305.024
305.038
305.064
305.102
305.155
305.22
305.296
305.382
304.908
304.91
304.902
304.899
304.898
304.9
304.908
304.925
304.954
304.997
305.052
305.121
305.2
305.291
304.785
304.784
304.785
304.785
304.787
304.791
304.801
304.821
304.853
304.899
304.956
305.026
305.103
305.196
304.673
304.671
304.679
304.682
304.686
304.692
304.705
304.728
304.762
304.809
304.867
304.937
305.01
305.102
304.571
304.568
304.58
304.585
304.591
304.6
304.614
304.639
304.675
304.723
304.779
304.845
304.912
305.001
304.476
304.472
304.486
304.493
304.5
304.51
304.527
304.553
304.589
304.636
304.69
304.751
304.812
304.898
304.387
304.383
304.395
304.403
304.408
304.419
304.436
304.464
304.498
304.544
304.595
304.655
304.714
304.795
304.294
304.295
304.303
304.312
304.315
304.325
304.341
304.367
304.4
304.445
304.496
304.558
304.62
304.696
304.214
304.221
304.221
304.225
304.223
304.229
304.241
304.263
304.294
304.339
304.39
304.456
304.521
304.594
304.099
304.127
304.119
304.128
304.124
304.128
304.134
304.152
304.179
304.225
304.283
304.357
304.427
304.5
304.011
304.045
304.043
304.051
304.041
304.038
304.04
304.053
304.077
304.121
304.175
304.242
304.303
304.374
306.663
306.652
306.648
306.649
306.661
306.683
306.715
306.755
306.804
306.863
306.935
307.015
307.112
307.197
306.524
306.521
306.517
306.518
306.531
306.553
306.583
306.621
306.667
306.724
306.792
306.87
306.962
307.054
306.405
306.405
306.398
306.399
306.41
306.431
306.459
306.496
306.54
306.595
306.663
306.743
306.84
306.94
306.289
306.289
306.283
306.284
306.294
306.314
306.341
306.377
306.42
306.474
306.54
306.621
306.718
306.826
306.183
306.18
306.176
306.177
306.187
306.206
306.233
306.268
306.31
306.365
306.431
306.513
306.612
306.726
306.083
306.076
306.075
306.077
306.088
306.108
306.134
306.169
306.212
306.266
306.331
306.415
306.511
306.63
305.989
305.978
305.98
305.985
305.999
306.02
306.048
306.084
306.127
306.183
306.247
306.33
306.423
306.544
305.899
305.886
305.891
305.899
305.916
305.94
305.971
306.01
306.055
306.112
306.175
306.257
306.344
306.465
305.812
305.799
305.806
305.818
305.839
305.868
305.903
305.946
305.995
306.053
306.116
306.196
306.278
306.395
305.729
305.717
305.725
305.741
305.766
305.799
305.84
305.889
305.942
306.004
306.068
306.147
306.225
306.337
305.65
305.64
305.648
305.668
305.696
305.733
305.778
305.833
305.891
305.958
306.026
306.107
306.185
306.292
305.576
305.571
305.578
305.6
305.628
305.668
305.717
305.776
305.84
305.915
305.988
306.074
306.153
306.257
305.496
305.501
305.509
305.534
305.563
305.604
305.654
305.717
305.786
305.867
305.95
306.043
306.127
306.23
305.448
305.453
305.461
305.482
305.508
305.546
305.596
305.661
305.734
305.821
305.907
306.004
306.085
306.199
307.581
307.578
307.585
307.6
307.627
307.661
307.703
307.75
307.803
307.863
307.93
308.004
308.094
308.174
307.471
307.477
307.483
307.499
307.525
307.56
307.602
307.65
307.702
307.761
307.827
307.901
307.987
308.074
307.385
307.391
307.394
307.408
307.432
307.465
307.505
307.55
307.6
307.657
307.722
307.797
307.888
307.978
307.293
307.299
307.304
307.317
307.34
307.373
307.411
307.456
307.505
307.561
307.625
307.7
307.791
307.889
307.209
307.213
307.218
307.231
307.254
307.285
307.322
307.365
307.412
307.467
307.531
307.608
307.701
307.805
307.126
307.128
307.134
307.148
307.172
307.203
307.24
307.282
307.328
307.382
307.444
307.522
307.614
307.725
307.046
307.045
307.054
307.071
307.097
307.129
307.166
307.208
307.253
307.307
307.368
307.446
307.536
307.651
306.968
306.966
306.978
306.999
307.028
307.062
307.101
307.145
307.19
307.245
307.304
307.382
307.469
307.586
306.896
306.893
306.908
306.932
306.965
307.003
307.046
307.092
307.14
307.196
307.255
307.332
307.415
307.533
306.83
306.827
306.844
306.871
306.908
306.951
306.998
307.05
307.102
307.162
307.222
307.3
307.379
307.495
306.771
306.769
306.787
306.817
306.857
306.905
306.958
307.016
307.074
307.14
307.204
307.284
307.362
307.474
306.719
306.72
306.737
306.77
306.812
306.864
306.922
306.988
307.054
307.128
307.198
307.282
307.36
307.47
306.672
306.677
306.695
306.729
306.773
306.828
306.891
306.965
307.04
307.123
307.202
307.292
307.373
307.481
306.652
306.656
306.671
306.702
306.743
306.799
306.865
306.944
307.026
307.117
307.202
307.296
307.377
307.494
308.249
308.262
308.278
308.301
308.328
308.36
308.395
308.435
308.475
308.522
308.572
308.627
308.694
308.754
308.161
308.183
308.197
308.219
308.246
308.28
308.317
308.359
308.402
308.45
308.503
308.561
308.628
308.695
308.096
308.114
308.127
308.147
308.173
308.205
308.241
308.282
308.325
308.374
308.427
308.487
308.559
308.63
308.019
308.036
308.049
308.071
308.098
308.132
308.169
308.211
308.256
308.307
308.362
308.425
308.498
308.575
307.947
307.962
307.977
308
308.028
308.062
308.099
308.142
308.188
308.24
308.297
308.363
308.439
308.523
307.874
307.89
307.908
307.933
307.963
307.998
308.036
308.08
308.126
308.179
308.237
308.305
308.384
308.473
307.806
307.823
307.843
307.87
307.902
307.939
307.978
308.022
308.069
308.122
308.181
308.251
308.33
308.424
307.743
307.761
307.784
307.814
307.848
307.887
307.928
307.972
308.019
308.072
308.13
308.201
308.28
308.378
307.688
307.706
307.73
307.763
307.799
307.84
307.883
307.93
307.977
308.032
308.089
308.161
308.238
308.338
307.641
307.658
307.684
307.718
307.757
307.801
307.847
307.896
307.945
308.001
308.058
308.131
308.205
308.306
307.601
307.618
307.643
307.679
307.721
307.768
307.817
307.87
307.923
307.983
308.041
308.115
308.186
308.286
307.57
307.587
307.611
307.648
307.691
307.74
307.793
307.85
307.908
307.972
308.033
308.108
308.178
308.274
307.54
307.557
307.581
307.62
307.665
307.718
307.776
307.84
307.904
307.973
308.038
308.116
308.186
308.279
307.531
307.548
307.57
307.606
307.651
307.705
307.766
307.834
307.901
307.974
308.041
308.118
308.185
308.278
308.622
308.653
308.68
308.709
308.737
308.768
308.797
308.83
308.862
308.9
308.938
308.982
309.031
309.08
308.552
308.59
308.617
308.647
308.677
308.71
308.742
308.779
308.815
308.856
308.897
308.945
308.995
309.05
308.502
308.537
308.564
308.593
308.623
308.657
308.69
308.728
308.765
308.807
308.851
308.899
308.953
309.01
308.44
308.475
308.503
308.535
308.568
308.604
308.64
308.681
308.722
308.768
308.814
308.866
308.922
308.983
308.386
308.42
308.449
308.483
308.518
308.555
308.594
308.637
308.681
308.729
308.779
308.834
308.894
308.958
308.333
308.367
308.399
308.435
308.472
308.512
308.553
308.598
308.644
308.695
308.748
308.806
308.868
308.936
308.285
308.32
308.354
308.392
308.431
308.473
308.516
308.563
308.611
308.663
308.719
308.78
308.845
308.916
308.245
308.281
308.316
308.357
308.397
308.44
308.485
308.532
308.582
308.635
308.692
308.754
308.821
308.894
308.211
308.247
308.284
308.326
308.368
308.413
308.459
308.507
308.558
308.612
308.669
308.732
308.798
308.874
308.187
308.223
308.26
308.303
308.347
308.392
308.439
308.487
308.537
308.591
308.647
308.711
308.775
308.853
308.166
308.202
308.239
308.283
308.328
308.375
308.423
308.473
308.523
308.578
308.632
308.696
308.756
308.834
308.156
308.193
308.23
308.274
308.319
308.365
308.414
308.463
308.513
308.567
308.62
308.682
308.739
308.813
308.145
308.183
308.217
308.262
308.308
308.356
308.407
308.459
308.511
308.566
308.618
308.679
308.733
308.802
308.153
308.19
308.224
308.265
308.31
308.358
308.408
308.459
308.509
308.562
308.612
308.667
308.716
308.782
308.762
308.806
308.846
308.886
308.922
308.958
308.99
309.025
309.056
309.091
309.123
309.159
309.194
309.235
308.714
308.764
308.806
308.849
308.888
308.928
308.965
309.003
309.038
309.077
309.115
309.156
309.194
309.235
308.681
308.732
308.775
308.819
308.86
308.901
308.94
308.981
309.019
309.06
309.1
309.143
309.185
309.228
308.644
308.696
308.741
308.787
308.831
308.875
308.917
308.96
309.001
309.045
309.087
309.132
309.176
309.221
308.612
308.664
308.71
308.758
308.804
308.85
308.895
308.94
308.985
309.031
309.076
309.123
309.169
309.216
308.585
308.637
308.686
308.735
308.782
308.829
308.876
308.923
308.969
309.017
309.064
309.113
309.161
309.21
308.562
308.613
308.663
308.714
308.762
308.81
308.859
308.907
308.955
309.004
309.054
309.104
309.154
309.204
308.548
308.6
308.65
308.7
308.749
308.797
308.845
308.893
308.942
308.991
309.042
309.093
309.144
309.195
308.54
308.591
308.64
308.69
308.739
308.786
308.835
308.882
308.931
308.98
309.031
309.082
309.133
309.186
308.541
308.591
308.639
308.687
308.735
308.781
308.828
308.873
308.921
308.969
309.018
309.069
309.118
309.172
308.543
308.593
308.64
308.687
308.733
308.778
308.823
308.867
308.913
308.959
309.005
309.056
309.101
309.156
308.556
308.605
308.649
308.693
308.737
308.779
308.822
308.863
308.905
308.948
308.991
309.039
309.08
309.133
308.563
308.611
308.653
308.697
308.74
308.78
308.821
308.861
308.9
308.941
308.98
309.024
309.062
309.11
308.585
308.63
308.67
308.711
308.75
308.787
308.824
308.859
308.894
308.93
308.964
309.001
309.033
309.075
308.815
308.865
308.908
308.95
308.987
309.023
309.055
309.089
309.119
309.151
309.181
309.213
309.24
309.272
308.791
308.847
308.896
308.942
308.983
309.023
309.059
309.094
309.126
309.161
309.192
309.226
309.255
309.287
308.773
308.833
308.886
308.936
308.981
309.024
309.063
309.101
309.136
309.172
309.205
309.24
309.27
309.303
308.761
308.823
308.879
308.932
308.98
309.026
309.067
309.107
309.144
309.181
309.216
309.251
309.283
309.316
308.755
308.817
308.875
308.93
308.98
309.028
309.072
309.114
309.153
309.191
309.227
309.263
309.296
309.329
308.755
308.818
308.877
308.933
308.984
309.032
309.077
309.12
309.16
309.198
309.235
309.272
309.305
309.338
308.758
308.821
308.881
308.937
308.989
309.037
309.083
309.126
309.166
309.205
309.243
309.279
309.313
309.346
308.77
308.831
308.89
308.945
308.997
309.044
309.089
309.131
309.171
309.21
309.248
309.284
309.319
309.351
308.785
308.844
308.902
308.954
309.004
309.05
309.095
309.136
309.175
309.212
309.249
309.285
309.318
309.351
308.807
308.863
308.917
308.966
309.013
309.057
309.099
309.137
309.174
309.21
309.245
309.279
309.311
309.344
308.829
308.882
308.931
308.976
309.02
309.06
309.099
309.134
309.169
309.202
309.235
309.268
309.297
309.33
308.856
308.905
308.949
308.989
309.027
309.062
309.096
309.127
309.158
309.188
309.218
309.249
309.274
309.306
308.879
308.924
308.963
308.998
309.032
309.062
309.091
309.118
309.145
309.171
309.197
309.225
309.248
309.279
308.908
308.95
308.982
309.011
309.038
309.062
309.085
309.106
309.127
309.149
309.17
309.193
309.213
309.24
308.816
308.867
308.909
308.951
308.989
309.025
309.058
309.091
309.12
309.15
309.178
309.205
309.229
309.254
308.814
308.866
308.914
308.96
309.002
309.041
309.076
309.111
309.142
309.174
309.204
309.234
309.258
309.285
308.82
308.873
308.923
308.971
309.015
309.057
309.095
309.132
309.166
309.199
309.229
309.259
309.284
309.31
308.83
308.885
308.937
308.987
309.032
309.076
309.116
309.154
309.189
309.222
309.253
309.283
309.308
309.334
308.846
308.9
308.953
309.003
309.05
309.094
309.135
309.174
309.21
309.244
309.275
309.305
309.33
309.355
308.867
308.92
308.972
309.022
309.069
309.113
309.154
309.193
309.229
309.262
309.293
309.323
309.348
309.373
308.889
308.941
308.992
309.041
309.087
309.131
309.171
309.209
309.244
309.277
309.308
309.337
309.362
309.386
308.916
308.965
309.014
309.06
309.105
309.146
309.185
309.222
309.256
309.288
309.318
309.346
309.371
309.394
308.942
308.989
309.035
309.078
309.12
309.159
309.196
309.231
309.264
309.295
309.324
309.351
309.375
309.398
308.97
309.013
309.055
309.094
309.132
309.168
309.203
309.235
309.267
309.296
309.324
309.35
309.374
309.396
308.997
309.036
309.073
309.107
309.142
309.174
309.205
309.234
309.262
309.29
309.316
309.342
309.365
309.388
309.024
309.059
309.09
309.119
309.148
309.175
309.202
309.228
309.254
309.279
309.304
309.328
309.35
309.373
309.048
309.079
309.104
309.128
309.152
309.174
309.196
309.218
309.24
309.263
309.285
309.308
309.328
309.353
309.074
309.1
309.118
309.136
309.154
309.171
309.188
309.205
309.223
309.242
309.261
309.282
309.3
309.32
308.766
308.816
308.862
308.905
308.943
308.979
309.012
309.044
309.071
309.098
309.123
309.146
309.167
309.188
308.786
308.835
308.882
308.926
308.968
309.006
309.041
309.075
309.104
309.132
309.158
309.183
309.205
309.228
308.808
308.857
308.905
308.951
308.993
309.033
309.069
309.104
309.135
309.164
309.191
309.216
309.237
309.259
308.832
308.88
308.929
308.975
309.019
309.059
309.097
309.132
309.164
309.194
309.221
309.246
309.268
309.29
308.859
308.907
308.955
309.001
309.044
309.085
309.122
309.158
309.19
309.22
309.247
309.273
309.295
309.316
308.888
308.934
308.981
309.025
309.068
309.108
309.145
309.181
309.213
309.243
309.27
309.295
309.318
309.338
308.919
308.962
309.006
309.049
309.09
309.128
309.165
309.199
309.231
309.26
309.288
309.312
309.335
309.355
308.949
308.989
309.03
309.07
309.108
309.145
309.18
309.213
309.244
309.273
309.3
309.324
309.347
309.367
308.977
309.014
309.052
309.088
309.124
309.159
309.192
309.223
309.253
309.281
309.307
309.331
309.354
309.375
309.005
309.038
309.071
309.104
309.137
309.168
309.199
309.228
309.257
309.284
309.31
309.334
309.357
309.378
309.029
309.059
309.088
309.117
309.146
309.173
309.202
309.229
309.256
309.282
309.308
309.333
309.356
309.379
309.053
309.08
309.103
309.127
309.151
309.175
309.201
309.225
309.251
309.276
309.301
309.326
309.349
309.374
309.074
309.096
309.115
309.134
309.154
309.174
309.196
309.217
309.24
309.264
309.289
309.314
309.338
309.365
309.099
309.113
309.126
309.139
309.154
309.171
309.188
309.207
309.228
309.25
309.273
309.298
309.323
309.349
308.669
308.713
308.754
308.792
308.828
308.862
308.895
308.925
308.953
308.979
309.003
309.025
309.045
309.065
308.701
308.74
308.781
308.82
308.858
308.894
308.927
308.959
308.988
309.015
309.039
309.063
309.084
309.106
308.734
308.774
308.815
308.853
308.891
308.926
308.96
308.992
309.021
309.048
309.073
309.097
309.117
309.139
308.77
308.807
308.847
308.885
308.922
308.957
308.991
309.023
309.052
309.08
309.105
309.129
309.15
309.172
308.804
308.841
308.879
308.916
308.952
308.987
309.02
309.051
309.081
309.108
309.134
309.158
309.18
309.2
308.839
308.874
308.91
308.945
308.98
309.014
309.046
309.077
309.106
309.134
309.159
309.183
309.206
309.227
308.872
308.905
308.939
308.972
309.005
309.038
309.069
309.099
309.128
309.155
309.181
309.205
309.228
309.249
308.903
308.934
308.966
308.997
309.028
309.058
309.089
309.118
309.146
309.173
309.199
309.223
309.247
309.269
308.932
308.96
308.99
309.018
309.047
309.076
309.104
309.132
309.16
309.187
309.213
309.238
309.263
309.286
308.959
308.985
309.011
309.036
309.063
309.09
309.117
309.144
309.171
309.198
309.224
309.25
309.276
309.301
308.984
309.007
309.03
309.053
309.077
309.101
309.126
309.152
309.179
309.206
309.233
309.26
309.287
309.314
309.007
309.028
309.045
309.065
309.086
309.109
309.133
309.158
309.184
309.211
309.238
309.267
309.295
309.325
309.026
309.044
309.059
309.077
309.095
309.115
309.136
309.16
309.185
309.213
309.241
309.271
309.301
309.334
309.048
309.059
309.069
309.083
309.098
309.116
309.136
309.16
309.186
309.214
309.244
309.275
309.305
309.339
308.507
308.541
308.574
308.606
308.637
308.668
308.698
308.727