/*--------------------------------*- C++ -*----------------------------------*\
| =========                 |                                                 |
| \\      /  F ield         | OpenFOAM: The Open Source CFD Toolbox           |
|  \\    /   O peration     | Version:  v2106                                 |
|   \\  /    A nd           | Website:  www.openfoam.com                      |
|    \\/     M anipulation  |                                                 |
\*---------------------------------------------------------------------------*/
FoamFile
{
    version     2.0;
    format      ascii;
    arch        "LSB;label=32;scalar=64";
    class       volScalarField;
    location    "0.000202";
    object      alphat;
}
// * * * * * * * * * * * * * * * * * * * * * * * * * * * * * * * * * * * * * //

dimensions      [1 -1 -1 0 0 0 0];

internalField   nonuniform List<scalar> 
144746
(
7.29825e-05
5.80207e-05
4.66663e-05
3.90346e-05
3.82697e-05
4.50936e-05
5.96338e-05
7.95291e-05
9.91667e-05
0.00011274
0.000117294
0.000113458
0.000110198
0.000111492
6.81147e-05
5.1885e-05
3.82204e-05
2.7871e-05
2.33252e-05
2.4072e-05
3.10617e-05
4.3959e-05
6.0449e-05
7.60622e-05
8.76065e-05
9.1953e-05
9.07336e-05
9.47263e-05
6.44937e-05
4.6984e-05
3.18808e-05
2.07399e-05
1.52581e-05
1.3609e-05
1.61313e-05
2.32315e-05
3.44127e-05
4.76534e-05
5.95945e-05
6.94648e-05
7.19149e-05
7.87189e-05
5.78415e-05
3.853e-05
2.4249e-05
1.4915e-05
1.00246e-05
8.01331e-06
8.61952e-06
1.23311e-05
1.94029e-05
2.88083e-05
3.84126e-05
4.63202e-05
5.25937e-05
6.25868e-05
4.59442e-05
2.84052e-05
1.66302e-05
9.63983e-06
6.07785e-06
4.54543e-06
4.59806e-06
6.57056e-06
1.09998e-05
1.76291e-05
2.5159e-05
3.1889e-05
3.84299e-05
5.06365e-05
3.30072e-05
1.85923e-05
1.00235e-05
5.45335e-06
3.26967e-06
2.36957e-06
2.38655e-06
3.55346e-06
6.41592e-06
1.11381e-05
1.70551e-05
2.30546e-05
2.93937e-05
4.2154e-05
2.14036e-05
1.07879e-05
5.2983e-06
2.69634e-06
1.55417e-06
1.133e-06
1.23163e-06
2.04786e-06
4.04163e-06
7.53507e-06
1.22886e-05
1.76946e-05
2.43338e-05
4.05964e-05
1.30371e-05
5.81428e-06
2.57067e-06
1.21658e-06
6.83541e-07
5.36538e-07
7.07382e-07
1.38157e-06
2.93138e-06
5.69662e-06
9.68418e-06
1.47232e-05
2.25232e-05
4.4014e-05
8.42567e-06
3.39999e-06
1.37207e-06
6.16185e-07
3.56211e-07
3.35018e-07
5.52592e-07
1.18283e-06
2.53361e-06
4.92159e-06
8.50756e-06
1.37171e-05
2.42249e-05
5.1672e-05
7.27546e-06
2.95413e-06
1.21536e-06
5.91509e-07
3.89747e-07
4.03639e-07
6.50091e-07
1.28936e-06
2.59408e-06
4.88675e-06
8.56583e-06
1.50762e-05
3.02028e-05
6.11895e-05
9.54405e-06
4.45095e-06
2.0254e-06
1.10804e-06
7.9814e-07
7.79265e-07
1.04345e-06
1.73936e-06
3.14513e-06
5.69235e-06
1.02524e-05
1.98202e-05
3.99113e-05
7.01239e-05
1.66796e-05
1.0055e-05
5.39568e-06
2.89265e-06
1.9393e-06
1.72618e-06
1.98431e-06
2.80634e-06
4.51172e-06
7.7911e-06
1.43062e-05
2.80804e-05
5.10565e-05
7.77684e-05
2.84084e-05
2.11291e-05
1.38369e-05
8.1048e-06
5.00145e-06
3.90911e-06
3.97893e-06
4.97273e-06
7.17258e-06
1.15448e-05
2.02758e-05
3.71293e-05
6.00656e-05
8.32278e-05
4.20056e-05
3.53719e-05
2.74054e-05
1.9239e-05
1.28508e-05
9.25522e-06
8.18091e-06
9.00391e-06
1.16251e-05
1.695e-05
2.67915e-05
4.41555e-05
6.51227e-05
8.49217e-05
6.12686e-05
4.64085e-05
3.62542e-05
2.96355e-05
2.77692e-05
3.01394e-05
3.69157e-05
4.66195e-05
5.71528e-05
6.64741e-05
7.55105e-05
8.56363e-05
9.60501e-05
0.00010672
4.92444e-05
3.65473e-05
2.7142e-05
2.04515e-05
1.73722e-05
1.72896e-05
2.06584e-05
2.72227e-05
3.59713e-05
4.5164e-05
5.39921e-05
6.31632e-05
7.32846e-05
8.40385e-05
3.99052e-05
2.88343e-05
2.0603e-05
1.46572e-05
1.13874e-05
1.02926e-05
1.15775e-05
1.54351e-05
2.17459e-05
2.96048e-05
3.80211e-05
4.60991e-05
5.46627e-05
6.50576e-05
3.14303e-05
2.21439e-05
1.50561e-05
1.01258e-05
7.31819e-06
6.10829e-06
6.44745e-06
8.60079e-06
1.2876e-05
1.89329e-05
2.58645e-05
3.27615e-05
3.92181e-05
4.91922e-05
2.38535e-05
1.58498e-05
1.01224e-05
6.41727e-06
4.36964e-06
3.44618e-06
3.48216e-06
4.68703e-06
7.49515e-06
1.1958e-05
1.75125e-05
2.33634e-05
2.90886e-05
3.83394e-05
1.71283e-05
1.04079e-05
6.13125e-06
3.63851e-06
2.34963e-06
1.78786e-06
1.7929e-06
2.52129e-06
4.3788e-06
7.60325e-06
1.19769e-05
1.69867e-05
2.23905e-05
3.05741e-05
1.15008e-05
6.22209e-06
3.31801e-06
1.82875e-06
1.12533e-06
8.464e-07
8.93548e-07
1.39816e-06
2.69228e-06
5.06997e-06
8.53463e-06
1.28737e-05
1.81045e-05
2.66968e-05
7.42832e-06
3.5025e-06
1.65132e-06
8.31656e-07
4.88697e-07
3.80919e-07
4.70938e-07
8.80308e-07
1.87507e-06
3.74178e-06
6.61098e-06
1.04809e-05
1.57771e-05
2.57921e-05
5.20782e-06
2.15422e-06
8.8203e-07
3.95085e-07
2.23338e-07
1.9915e-07
3.19264e-07
6.99594e-07
1.56332e-06
3.17505e-06
5.73675e-06
9.46127e-06
1.53464e-05
2.75768e-05
4.80919e-06
1.91248e-06
7.3741e-07
3.19394e-07
1.89548e-07
1.9336e-07
3.34682e-07
7.25236e-07
1.56969e-06
3.12831e-06
5.68311e-06
9.74384e-06
1.70743e-05
3.1612e-05
6.29343e-06
2.75343e-06
1.15379e-06
5.6212e-07
3.72267e-07
3.63288e-07
5.22652e-07
9.59268e-07
1.88386e-06
3.59583e-06
6.52633e-06
1.16623e-05
2.09885e-05
3.73306e-05
1.0683e-05
5.74946e-06
2.82873e-06
1.44458e-06
9.47519e-07
8.50548e-07
1.02308e-06
1.55504e-06
2.68223e-06
4.80356e-06
8.6185e-06
1.55156e-05
2.69997e-05
4.4934e-05
1.83068e-05
1.19084e-05
7.05984e-06
3.94079e-06
2.46085e-06
2.01505e-06
2.15087e-06
2.829e-06
4.2888e-06
7.05555e-06
1.2116e-05
2.11933e-05
3.60344e-05
5.49482e-05
2.80281e-05
2.05611e-05
1.43235e-05
9.36178e-06
6.1401e-06
4.6764e-06
4.49705e-06
5.28546e-06
7.13766e-06
1.06209e-05
1.6858e-05
2.80596e-05
4.61019e-05
6.52703e-05
4.65808e-05
3.46816e-05
2.68327e-05
2.18012e-05
1.98461e-05
1.99526e-05
2.21654e-05
2.58324e-05
3.07258e-05
3.57187e-05
4.10316e-05
4.83067e-05
6.38253e-05
8.85729e-05
2.97895e-05
2.26253e-05
1.73743e-05
1.37326e-05
1.19394e-05
1.1557e-05
1.26589e-05
1.50659e-05
1.87524e-05
2.31362e-05
2.84094e-05
3.51524e-05
4.67145e-05
6.42627e-05
1.97437e-05
1.50441e-05
1.14428e-05
8.78379e-06
7.28632e-06
6.73303e-06
7.17199e-06
8.62826e-06
1.12684e-05
1.49348e-05
1.96526e-05
2.56171e-05
3.43718e-05
4.68753e-05
1.39199e-05
1.01345e-05
7.43157e-06
5.48269e-06
4.34325e-06
3.84001e-06
3.9692e-06
4.81496e-06
6.64555e-06
9.53434e-06
1.34976e-05
1.85605e-05
2.52124e-05
3.45429e-05
1.00671e-05
6.72036e-06
4.60632e-06
3.22117e-06
2.43305e-06
2.06977e-06
2.09367e-06
2.58877e-06
3.83086e-06
6.01647e-06
9.20365e-06
1.34088e-05
1.88286e-05
2.62836e-05
7.28336e-06
4.31032e-06
2.67302e-06
1.73864e-06
1.2465e-06
1.02743e-06
1.03686e-06
1.34529e-06
2.18667e-06
3.7966e-06
6.30786e-06
9.78729e-06
1.43683e-05
2.08012e-05
5.26816e-06
2.68947e-06
1.4538e-06
8.55452e-07
5.76219e-07
4.6452e-07
4.86389e-07
7.02084e-07
1.29489e-06
2.49255e-06
4.48029e-06
7.39412e-06
1.14195e-05
1.72692e-05
4.00399e-06
1.74347e-06
7.86147e-07
3.97144e-07
2.44068e-07
1.96067e-07
2.32079e-07
4.07076e-07
8.66064e-07
1.81354e-06
3.45868e-06
5.99592e-06
9.69159e-06
1.53127e-05
3.40027e-06
1.31056e-06
4.91542e-07
2.0101e-07
1.06776e-07
8.9972e-08
1.37089e-07
3.01533e-07
7.07763e-07
1.54115e-06
3.01775e-06
5.37545e-06
8.97078e-06
1.46953e-05
3.47008e-06
1.30166e-06
4.53871e-07
1.6507e-07
8.04034e-08
7.37366e-08
1.30456e-07
3.04552e-07
7.15099e-07
1.54165e-06
3.00713e-06
5.38549e-06
9.12354e-06
1.52708e-05
4.2574e-06
1.72341e-06
6.53557e-07
2.67857e-07
1.49527e-07
1.36985e-07
2.04459e-07
4.07516e-07
8.71313e-07
1.78612e-06
3.39501e-06
6.00693e-06
1.01384e-05
1.6993e-05
6.3344e-06
2.97549e-06
1.33274e-06
6.36368e-07
3.91527e-07
3.44093e-07
4.24783e-07
6.83961e-07
1.25949e-06
2.36936e-06
4.29281e-06
7.36792e-06
1.21511e-05
2.0111e-05
9.94449e-06
5.46149e-06
2.92859e-06
1.60177e-06
1.03065e-06
8.73767e-07
9.62571e-07
1.31384e-06
2.07108e-06
3.49639e-06
5.94115e-06
9.8525e-06
1.60339e-05
2.5388e-05
1.50004e-05
9.19987e-06
5.73244e-06
3.60669e-06
2.47789e-06
2.07258e-06
2.14339e-06
2.63018e-06
3.66091e-06
5.54494e-06
8.74773e-06
1.41481e-05
2.33393e-05
3.59111e-05
0.00012283
0.000143873
0.000163395
0.000177429
0.000184626
0.000237463
0.000108727
0.000136587
0.000163937
0.000183852
0.000198762
0.000262974
9.6783e-05
0.000133001
0.000167089
0.000188088
0.000207894
0.000286056
8.6595e-05
0.000133294
0.000173037
0.000189346
0.000210131
0.000305606
8.08978e-05
0.000137803
0.000179492
0.000188497
0.000207075
0.000322455
8.02275e-05
0.000144853
0.000182451
0.000184476
0.000200268
0.000335377
8.47134e-05
0.000148563
0.000178477
0.000177308
0.000192266
0.00034432
9.23798e-05
0.000147349
0.000168904
0.000169901
0.000185771
0.000347876
9.76346e-05
0.000139581
0.000157325
0.000163444
0.000180784
0.00034605
9.82681e-05
0.000128394
0.000145985
0.0001574
0.000176319
0.000337873
9.59856e-05
0.000117622
0.000135742
0.000151909
0.000172928
0.000323026
9.3813e-05
0.00011004
0.000127706
0.000147075
0.000170531
0.000302063
9.25643e-05
0.000105642
0.00012284
0.000144133
0.00016893
0.000275544
9.06457e-05
0.000103296
0.000121039
0.000144152
0.000168371
0.000243556
0.000119775
0.000141335
0.000160821
0.000177583
0.000186349
0.000220553
9.7198e-05
0.000122451
0.000151527
0.000177275
0.000198076
0.00024504
7.98388e-05
0.000108848
0.000146805
0.000179174
0.000204954
0.000267419
6.49949e-05
9.83904e-05
0.000145437
0.000181405
0.000206434
0.000285408
5.50621e-05
9.25154e-05
0.000147121
0.000183858
0.000204295
0.000300171
4.90044e-05
9.11785e-05
0.000150042
0.000184463
0.000199272
0.000310453
4.74525e-05
9.25032e-05
0.000150236
0.000180677
0.000193628
0.000317522
4.93211e-05
9.4443e-05
0.000146561
0.000174301
0.000188872
0.000320847
5.26257e-05
9.38635e-05
0.000138995
0.000167211
0.000185863
0.000320584
5.58772e-05
9.03533e-05
0.000129788
0.000160596
0.000184163
0.000314776
5.8531e-05
8.61238e-05
0.000121271
0.000154593
0.000182882
0.00030264
6.19748e-05
8.45173e-05
0.000115838
0.000149259
0.000180894
0.000283393
6.81565e-05
8.72131e-05
0.000114516
0.000145265
0.000178232
0.000257892
7.39367e-05
9.21608e-05
0.000115996
0.000142745
0.000174872
0.000226604
0.000115482
0.00014337
0.00016498
0.000177151
0.000188392
0.000196366
8.63588e-05
0.000113034
0.000140697
0.00016575
0.000191448
0.000220124
6.50387e-05
9.03962e-05
0.000122435
0.00015741
0.000192919
0.000242796
4.84442e-05
7.30662e-05
0.00010848
0.000151866
0.000192992
0.000260197
3.83257e-05
6.09563e-05
9.89796e-05
0.000149227
0.000192608
0.000273975
3.13758e-05
5.31041e-05
9.41197e-05
0.000149147
0.000192019
0.000283884
2.71029e-05
4.90554e-05
9.30502e-05
0.000149237
0.000190109
0.000292253
2.52018e-05
4.81962e-05
9.33513e-05
0.000147737
0.000187788
0.000298473
2.52059e-05
4.8899e-05
9.25467e-05
0.000144719
0.000186283
0.000301342
2.6434e-05
4.91461e-05
8.95691e-05
0.00014068
0.00018645
0.000298555
2.82975e-05
4.86621e-05
8.56192e-05
0.000136762
0.00018686
0.000288113
3.08451e-05
4.9036e-05
8.33358e-05
0.000133323
0.000184678
0.000269488
3.62603e-05
5.35336e-05
8.56898e-05
0.000131608
0.000180637
0.000243897
4.36471e-05
6.2448e-05
9.29856e-05
0.000131255
0.000176891
0.000212009
8.76068e-05
0.000103415
0.000124704
0.000150508
0.000174638
0.00024869
6.821e-05
8.40881e-05
0.00010986
0.000143705
0.000181485
0.000273068
5.05318e-05
6.67181e-05
9.67692e-05
0.000137154
0.000184346
0.00029344
3.53976e-05
5.25779e-05
8.64412e-05
0.000131048
0.000182619
0.000307986
2.61672e-05
4.39435e-05
8.01986e-05
0.000127077
0.000177828
0.000318153
2.09215e-05
4.08608e-05
7.95595e-05
0.000125283
0.00017153
0.000323713
1.90607e-05
4.16739e-05
8.15067e-05
0.000123741
0.000164738
0.000327131
2.0151e-05
4.5202e-05
8.37838e-05
0.000121145
0.00015781
0.000329046
2.38699e-05
4.92776e-05
8.35676e-05
0.000116165
0.000151275
0.000329705
2.93495e-05
5.2181e-05
8.0506e-05
0.000109618
0.000146401
0.000326406
3.51504e-05
5.35415e-05
7.6202e-05
0.000103263
0.000144497
0.000317148
4.02114e-05
5.42609e-05
7.2782e-05
9.89848e-05
0.000145475
0.000300136
4.42185e-05
5.54649e-05
7.24327e-05
9.95049e-05
0.000148951
0.00027562
4.70361e-05
5.84068e-05
7.70679e-05
0.000107187
0.000157908
0.0002452
7.65475e-05
9.57972e-05
0.000118069
0.000144333
0.000176405
0.000230049
5.42792e-05
7.09645e-05
9.52753e-05
0.000128576
0.00017386
0.000251672
3.64021e-05
5.10627e-05
7.59426e-05
0.000114347
0.000169134
0.000268659
2.43315e-05
3.65909e-05
6.09011e-05
0.000102506
0.000161894
0.000279341
1.72589e-05
2.87098e-05
5.21271e-05
9.35605e-05
0.00015284
0.00028543
1.30607e-05
2.42496e-05
4.78403e-05
8.86292e-05
0.000145141
0.000288365
1.09068e-05
2.24582e-05
4.66465e-05
8.583e-05
0.000138673
0.000290134
1.04172e-05
2.2882e-05
4.74056e-05
8.41829e-05
0.000133464
0.000291035
1.15824e-05
2.47561e-05
4.83631e-05
8.21357e-05
0.000129392
0.000291752
1.42693e-05
2.71176e-05
4.82586e-05
7.93697e-05
0.000129273
0.000290809
1.79823e-05
2.94765e-05
4.78276e-05
7.74777e-05
0.000133372
0.000284813
2.22067e-05
3.21124e-05
4.86418e-05
7.86624e-05
0.000140746
0.000271428
2.68409e-05
3.60623e-05
5.29905e-05
8.57615e-05
0.000151713
0.000251488
3.18772e-05
4.27605e-05
6.32376e-05
0.000100672
0.000166612
0.000225373
5.02377e-05
7.16125e-05
9.8635e-05
0.000132094
0.000175361
0.000210366
3.40319e-05
5.02437e-05
7.4241e-05
0.000109647
0.00016198
0.000227365
2.11687e-05
3.39183e-05
5.47078e-05
9.01797e-05
0.000148881
0.000239315
1.41386e-05
2.31504e-05
4.02929e-05
7.38951e-05
0.000133712
0.000245821
9.90171e-06
1.74073e-05
3.18431e-05
6.15187e-05
0.000118777
0.000247726
7.27179e-06
1.38001e-05
2.66939e-05
5.37807e-05
0.000106192
0.000245982
5.74768e-06
1.16387e-05
2.36515e-05
4.88018e-05
9.71074e-05
0.000243806
5.01214e-06
1.05916e-05
2.21971e-05
4.5886e-05
9.11717e-05
0.000242656
4.95191e-06
1.04523e-05
2.18069e-05
4.44395e-05
8.91236e-05
0.000244115
5.61052e-06
1.10427e-05
2.19774e-05
4.42626e-05
9.26834e-05
0.0002472
6.98807e-06
1.22395e-05
2.2851e-05
4.62907e-05
0.000103375
0.000247607
9.08044e-06
1.42455e-05
2.53176e-05
5.25407e-05
0.000120472
0.00024113
1.20812e-05
1.79307e-05
3.1488e-05
6.56126e-05
0.000141433
0.000226732
1.67863e-05
2.54377e-05
4.48292e-05
8.70299e-05
0.000162319
0.000204549
0.000239969
0.000188808
0.000147375
0.000115651
9.20173e-05
7.74703e-05
0.000271411
0.000178041
0.000134131
0.000105058
8.52091e-05
7.37365e-05
0.000298698
0.000175332
0.00013041
0.000103057
8.40641e-05
7.1813e-05
0.00032006
0.000177547
0.000134433
0.000107867
8.61341e-05
6.95902e-05
0.000334119
0.000184119
0.000143716
0.000115235
8.65579e-05
6.29442e-05
0.000342464
0.000197331
0.00015519
0.000119042
8.07314e-05
5.18036e-05
0.000346545
0.000215152
0.000161543
0.000113758
6.88744e-05
3.86452e-05
0.000348553
0.000232254
0.000158124
9.96188e-05
5.38802e-05
2.68802e-05
0.000346341
0.000241667
0.00014799
8.31838e-05
4.12534e-05
1.9111e-05
0.000338355
0.000241499
0.000135992
7.11065e-05
3.44267e-05
1.61949e-05
0.000323758
0.000231625
0.000128279
6.72323e-05
3.45284e-05
1.81172e-05
0.00030406
0.000214973
0.000124142
7.0375e-05
4.08885e-05
2.51654e-05
0.000278767
0.000195301
0.000123018
7.80013e-05
5.15187e-05
3.61261e-05
0.000251273
0.000178023
0.000123739
8.82859e-05
6.49264e-05
4.95267e-05
0.000221558
0.000204142
0.000152775
0.000113337
8.36374e-05
6.50957e-05
0.000249997
0.000194021
0.000138169
9.72544e-05
6.93495e-05
5.404e-05
0.00027396
0.000190026
0.00012998
8.80898e-05
6.07073e-05
4.56922e-05
0.000293922
0.000191055
0.000126854
8.5006e-05
5.61019e-05
3.91507e-05
0.000308103
0.000194056
0.000127674
8.37018e-05
5.15917e-05
3.31102e-05
0.000317596
0.00020063
0.000129269
8.05732e-05
4.61814e-05
2.68032e-05
0.000323246
0.000210809
0.000128153
7.4043e-05
3.908e-05
2.04345e-05
0.00032608
0.000221122
0.000124039
6.54083e-05
3.17867e-05
1.50618e-05
0.000324414
0.000228078
0.000118853
5.7734e-05
2.64463e-05
1.17257e-05
0.000317432
0.000229818
0.000114511
5.36024e-05
2.44045e-05
1.09267e-05
0.000303771
0.000224258
0.000113149
5.43288e-05
2.62257e-05
1.28182e-05
0.000284274
0.000212795
0.000114798
6.0131e-05
3.24532e-05
1.81897e-05
0.000258882
0.000198619
0.000117685
6.88713e-05
4.18878e-05
2.66878e-05
0.000231334
0.00018652
0.000122804
8.02956e-05
5.40817e-05
3.7728e-05
0.000196865
0.000214276
0.000160171
0.000109659
7.21608e-05
4.75972e-05
0.000223416
0.000212163
0.000145206
8.8422e-05
5.20277e-05
3.28242e-05
0.00024573
0.000206946
0.000132111
7.37395e-05
4.08768e-05
2.47404e-05
0.000264946
0.000200803
0.000119974
6.53214e-05
3.48772e-05
1.98292e-05
0.000278984
0.00019403
0.000110413
5.90271e-05
3.04183e-05
1.61116e-05
0.000288641
0.000189571
0.000103786
5.40132e-05
2.67065e-05
1.30889e-05
0.000295115
0.000188889
9.9617e-05
4.97732e-05
2.34135e-05
1.06459e-05
0.000299181
0.000192166
9.80687e-05
4.69631e-05
2.1103e-05
9.01869e-06
0.000299682
0.000197297
9.8622e-05
4.57218e-05
1.99246e-05
8.22869e-06
0.000295037
0.00020126
0.000100549
4.63031e-05
2.02186e-05
8.44213e-06
0.000283029
0.000200208
0.000102778
4.83638e-05
2.19053e-05
9.71157e-06
0.000263664
0.000193731
0.000106469
5.3433e-05
2.62393e-05
1.28811e-05
0.000238196
0.000186825
0.000110478
6.00235e-05
3.24721e-05
1.79023e-05
0.000209353
0.000181411
0.000116345
6.87641e-05
4.08091e-05
2.48719e-05
0.000233435
0.000175791
0.000164329
0.000147816
0.000130734
0.000116735
0.000264116
0.000171004
0.000155969
0.000139825
0.000125524
0.000115344
0.000291221
0.000170077
0.000152903
0.000138472
0.000126604
0.000117893
0.000314048
0.000173464
0.000155592
0.000144074
0.00013469
0.000125743
0.000331982
0.000181879
0.000163425
0.000155832
0.000148891
0.000134353
0.000344284
0.00019426
0.000176349
0.000173059
0.000163707
0.000135957
0.000350468
0.000210111
0.000193435
0.000190475
0.000169973
0.000125515
0.000349495
0.000228563
0.000210602
0.000198947
0.000160822
0.000104836
0.000342153
0.000246476
0.000219883
0.000190886
0.000138345
8.25866e-05
0.000330407
0.00026064
0.000215921
0.00016899
0.000112971
6.63823e-05
0.000315314
0.000265107
0.000204635
0.00014813
9.67418e-05
5.99408e-05
0.000296176
0.000255527
0.000191419
0.000136423
9.26027e-05
6.28672e-05
0.000271565
0.000234952
0.000181115
0.000133808
9.68732e-05
7.15445e-05
0.000244582
0.000211237
0.000172214
0.000136504
0.000106842
8.48588e-05
0.0002159
0.000180294
0.000167627
0.000151402
0.000131743
0.000113683
0.00024398
0.000177611
0.000163168
0.000145215
0.000123541
0.000106259
0.000269045
0.000177495
0.000161918
0.00014261
0.000117908
9.78926e-05
0.000290828
0.000180245
0.000165024
0.000145983
0.000119042
9.51676e-05
0.000308283
0.000186144
0.000172061
0.00015507
0.000124862
9.06171e-05
0.000320799
0.000196226
0.000183385
0.000166576
0.000126341
8.54803e-05
0.000327035
0.000211236
0.000196638
0.000171496
0.000121301
7.5944e-05
0.000326075
0.000229333
0.000205291
0.000165736
0.000109146
6.39652e-05
0.000319831
0.000247297
0.000203692
0.000150096
9.33582e-05
5.30023e-05
0.00031084
0.000261579
0.000192945
0.000131697
8.01524e-05
4.65223e-05
0.000296381
0.00026573
0.00018346
0.000120165
7.42809e-05
4.56429e-05
0.000276971
0.000259755
0.0001776
0.000118386
7.75082e-05
5.1424e-05
0.000252024
0.000243179
0.000174822
0.000123438
8.69082e-05
6.20559e-05
0.000225419
0.00022535
0.000174969
0.000134695
0.000102853
7.83504e-05
0.000193838
0.000188991
0.000177698
0.000159643
0.000128105
9.75594e-05
0.000220426
0.000192423
0.000178291
0.00014749
0.000108129
7.85443e-05
0.000244259
0.000195888
0.000178776
0.00014033
9.51457e-05
6.36127e-05
0.000265972
0.000200798
0.000181353
0.000137074
8.96589e-05
5.8979e-05
0.000283395
0.000206246
0.000182368
0.000135345
8.77433e-05
5.49205e-05
0.000295129
0.000212387
0.000181735
0.000132277
8.36134e-05
4.9757e-05
0.000300127
0.000220331
0.000179039
0.000125243
7.63946e-05
4.37e-05
0.00029988
0.000229969
0.000172791
0.000115407
6.86708e-05
3.85206e-05
0.000295521
0.000236444
0.00016571
0.000106438
6.23469e-05
3.48155e-05
0.000286194
0.000240402
0.000161426
0.000101625
5.96912e-05
3.39498e-05
0.000270588
0.000239876
0.000160655
0.000101399
6.096e-05
3.59037e-05
0.000250042
0.000234408
0.000163604
0.000107709
6.83627e-05
4.27922e-05
0.000225128
0.000225446
0.000168967
0.000118338
8.03458e-05
5.38613e-05
0.000198938
0.00022096
0.000178612
0.000135106
9.86948e-05
7.04352e-05
2.67573e-05
1.95716e-05
1.48484e-05
1.21516e-05
1.12891e-05
1.12423e-05
1.18742e-05
1.29713e-05
1.47844e-05
1.7273e-05
2.04075e-05
2.36762e-05
2.83167e-05
4.10003e-05
1.39398e-05
1.01567e-05
7.76496e-06
6.3648e-06
5.88076e-06
5.89308e-06
6.2962e-06
6.98108e-06
8.1146e-06
9.76233e-06
1.20329e-05
1.47819e-05
1.90742e-05
2.89987e-05
7.97146e-06
5.36972e-06
4.04084e-06
3.30725e-06
3.04276e-06
3.05481e-06
3.27832e-06
3.66865e-06
4.34688e-06
5.42585e-06
7.07099e-06
9.39096e-06
1.31987e-05
2.07585e-05
5.04255e-06
2.96263e-06
2.09044e-06
1.67547e-06
1.53123e-06
1.53712e-06
1.65121e-06
1.8618e-06
2.26171e-06
2.97782e-06
4.20599e-06
6.16217e-06
9.45647e-06
1.54253e-05
3.45807e-06
1.71959e-06
1.07071e-06
8.12807e-07
7.31445e-07
7.33151e-07
7.89704e-07
9.04272e-07
1.14889e-06
1.6441e-06
2.58506e-06
4.22474e-06
7.0234e-06
1.18348e-05
2.55822e-06
1.06927e-06
5.50364e-07
3.74787e-07
3.25721e-07
3.25239e-07
3.54237e-07
4.21698e-07
5.83554e-07
9.44663e-07
1.68278e-06
3.04783e-06
5.41574e-06
9.38463e-06
2.0356e-06
7.32475e-07
2.97961e-07
1.67294e-07
1.34515e-07
1.3323e-07
1.50138e-07
1.96155e-07
3.16013e-07
5.98868e-07
1.20014e-06
2.35046e-06
4.37472e-06
7.74852e-06
1.77836e-06
5.76027e-07
1.86933e-07
7.80137e-08
5.27034e-08
5.14032e-08
6.3848e-08
1.01762e-07
2.03701e-07
4.47871e-07
9.70974e-07
1.98146e-06
3.7718e-06
6.75935e-06
1.6833e-06
5.18674e-07
1.4656e-07
4.50493e-08
2.22013e-08
2.11588e-08
3.30056e-08
7.04693e-08
1.70483e-07
4.06455e-07
9.0356e-07
1.85204e-06
3.52205e-06
6.29597e-06
1.75436e-06
5.42516e-07
1.49418e-07
4.06656e-08
1.59591e-08
1.50431e-08
2.87345e-08
7.13871e-08
1.81888e-07
4.34244e-07
9.49084e-07
1.90414e-06
3.55456e-06
6.26075e-06
1.94761e-06
6.27876e-07
1.86927e-07
5.97103e-08
2.91174e-08
2.78759e-08
4.56007e-08
9.88739e-08
2.30818e-07
5.20141e-07
1.08907e-06
2.10933e-06
3.82824e-06
6.59153e-06
2.49371e-06
8.71947e-07
3.04422e-07
1.28977e-07
8.17241e-08
7.79268e-08
1.03131e-07
1.75524e-07
3.43288e-07
6.92106e-07
1.34941e-06
2.48484e-06
4.33916e-06
7.24811e-06
3.44292e-06
1.36195e-06
5.86442e-07
3.19878e-07
2.35347e-07
2.22945e-07
2.61192e-07
3.67948e-07
5.94664e-07
1.03531e-06
1.82694e-06
3.14387e-06
5.21591e-06
8.37001e-06
5.05582e-06
2.30162e-06
1.2061e-06
7.79284e-07
6.22036e-07
5.91533e-07
6.55696e-07
8.3152e-07
1.17414e-06
1.79041e-06
2.83166e-06
4.48385e-06
6.97966e-06
1.05213e-05
1.45929e-05
1.07786e-05
8.45346e-06
7.1957e-06
6.92154e-06
7.10702e-06
7.68837e-06
8.5765e-06
9.92759e-06
1.18054e-05
1.42504e-05
1.70898e-05
2.05662e-05
2.69316e-05
7.71912e-06
5.50976e-06
4.28193e-06
3.61866e-06
3.45693e-06
3.57438e-06
3.91397e-06
4.44457e-06
5.26721e-06
6.46619e-06
8.1378e-06
1.02449e-05
1.31293e-05
1.83232e-05
4.49412e-06
2.8808e-06
2.15727e-06
1.80107e-06
1.71064e-06
1.77371e-06
1.95283e-06
2.24285e-06
2.71389e-06
3.45541e-06
4.58978e-06
6.20042e-06
8.63912e-06
1.30043e-05
2.85824e-06
1.56167e-06
1.07322e-06
8.70442e-07
8.2125e-07
8.52859e-07
9.42073e-07
1.0926e-06
1.35542e-06
1.81417e-06
2.60059e-06
3.86509e-06
5.93834e-06
9.61289e-06
1.96231e-06
8.91106e-07
5.28129e-07
4.02532e-07
3.74443e-07
3.89225e-07
4.32533e-07
5.10197e-07
6.60222e-07
9.54999e-07
1.52037e-06
2.53007e-06
4.28393e-06
7.36715e-06
1.44993e-06
5.51388e-07
2.64454e-07
1.78314e-07
1.60022e-07
1.6611e-07
1.87206e-07
2.29384e-07
3.21563e-07
5.23955e-07
9.47635e-07
1.7632e-06
3.23758e-06
5.8252e-06
1.14995e-06
3.8166e-07
1.43538e-07
7.78512e-08
6.40458e-08
6.60173e-08
7.70491e-08
1.03118e-07
1.67285e-07
3.19796e-07
6.56072e-07
1.33204e-06
2.58479e-06
4.78745e-06
9.92422e-07
3.03808e-07
9.26476e-08
3.65669e-08
2.46841e-08
2.49671e-08
3.20069e-08
5.18435e-08
1.04586e-07
2.34337e-07
5.24803e-07
1.11593e-06
2.22039e-06
4.16055e-06
9.25799e-07
2.76127e-07
7.5272e-08
2.2007e-08
1.04985e-08
1.02164e-08
1.63049e-08
3.52842e-08
8.68711e-08
2.13072e-07
4.91308e-07
1.04961e-06
2.08331e-06
3.88207e-06
9.41654e-07
2.86351e-07
7.72366e-08
2.04141e-08
7.83975e-09
7.46655e-09
1.4413e-08
3.62627e-08
9.44725e-08
2.32441e-07
5.26322e-07
1.09773e-06
2.13224e-06
3.89948e-06
1.0115e-06
3.24212e-07
9.52507e-08
3.00998e-08
1.49231e-08
1.46255e-08
2.40052e-08
5.22941e-08
1.24258e-07
2.87496e-07
6.21484e-07
1.24773e-06
2.35001e-06
4.18699e-06
1.21715e-06
4.26897e-07
1.50229e-07
6.5512e-08
4.33848e-08
4.27684e-08
5.73093e-08
9.79308e-08
1.93752e-07
3.9861e-07
7.98753e-07
1.51996e-06
2.74775e-06
4.73396e-06
1.57921e-06
6.41265e-07
2.89391e-07
1.67435e-07
1.29053e-07
1.2642e-07
1.51462e-07
2.16127e-07
3.53448e-07
6.2459e-07
1.12515e-06
1.98973e-06
3.40408e-06
5.61744e-06
2.25332e-06
1.10731e-06
6.24199e-07
4.26427e-07
3.52481e-07
3.44704e-07
3.91916e-07
5.06869e-07
7.25777e-07
1.11704e-06
1.78482e-06
2.87225e-06
4.5573e-06
7.05077e-06
7.3634e-06
5.53676e-06
4.46925e-06
3.93501e-06
3.90709e-06
4.17636e-06
4.72564e-06
5.52849e-06
6.6336e-06
8.08889e-06
9.95859e-06
1.2253e-05
1.51695e-05
1.96979e-05
4.02867e-06
2.90743e-06
2.28973e-06
1.96752e-06
1.91388e-06
2.03549e-06
2.31588e-06
2.7574e-06
3.40453e-06
4.3154e-06
5.56384e-06
7.19658e-06
9.42276e-06
1.29128e-05
2.36361e-06
1.52633e-06
1.14423e-06
9.60032e-07
9.20875e-07
9.75231e-07
1.11102e-06
1.33688e-06
1.69078e-06
2.2333e-06
3.04885e-06
4.22747e-06
5.979e-06
8.83298e-06
1.49254e-06
8.11959e-07
5.53605e-07
4.48266e-07
4.25627e-07
4.50398e-07
5.14345e-07
6.25049e-07
8.12305e-07
1.13136e-06
1.66924e-06
2.54109e-06
3.95472e-06
6.3301e-06
1.01693e-06
4.50651e-07
2.6211e-07
1.98556e-07
1.85846e-07
1.97045e-07
2.26641e-07
2.80328e-07
3.80504e-07
5.73245e-07
9.3941e-07
1.59906e-06
2.74825e-06
4.73893e-06
7.41461e-07
2.7091e-07
1.25977e-07
8.39905e-08
7.59902e-08
8.07115e-08
9.43635e-08
1.21357e-07
1.78456e-07
3.02438e-07
5.62842e-07
1.07206e-06
2.00947e-06
3.67519e-06
5.78789e-07
1.83645e-07
6.62337e-08
3.51311e-08
2.91599e-08
3.08931e-08
3.75171e-08
5.27118e-08
8.94769e-08
1.77288e-07
3.74475e-07
7.81522e-07
1.56012e-06
2.97194e-06
4.90363e-07
1.44578e-07
4.22448e-08
1.60423e-08
1.08341e-08
1.13164e-08
1.51597e-08
2.57402e-08
5.40532e-08
1.2523e-07
2.89764e-07
6.37448e-07
1.31483e-06
2.55563e-06
4.53878e-07
1.32138e-07
3.47425e-08
9.69688e-09
4.54122e-09
4.58574e-09
7.6782e-09
1.73034e-08
4.40703e-08
1.11731e-07
2.67108e-07
5.93327e-07
1.22679e-06
2.38187e-06
4.64107e-07
1.39099e-07
3.63288e-08
9.30428e-09
3.62991e-09
3.62846e-09
7.12991e-09
1.82018e-08
4.85124e-08
1.23004e-07
2.88731e-07
6.26854e-07
1.26963e-06
2.42046e-06
5.088e-07
1.61103e-07
4.59878e-08
1.45635e-08
7.76224e-09
8.01234e-09
1.30272e-08
2.797e-08
6.68135e-08
1.57946e-07
3.52369e-07
7.34336e-07
1.43873e-06
2.66558e-06
6.10885e-07
2.13323e-07
7.47028e-08
3.38472e-08
2.4103e-08
2.49807e-08
3.37529e-08
5.69495e-08
1.11954e-07
2.326e-07
4.77063e-07
9.37056e-07
1.75457e-06
3.13006e-06
7.9181e-07
3.28176e-07
1.51901e-07
9.16219e-08
7.43471e-08
7.62995e-08
9.39446e-08
1.35006e-07
2.20658e-07
3.91746e-07
7.16533e-07
1.29869e-06
2.28996e-06
3.89455e-06
1.15109e-06
5.93044e-07
3.44791e-07
2.42344e-07
2.07676e-07
2.11902e-07
2.49987e-07
3.30768e-07
4.78977e-07
7.42234e-07
1.1984e-06
1.96265e-06
3.19153e-06
5.07896e-06
4.25551e-06
3.22342e-06
2.54895e-06
2.20746e-06
2.17536e-06
2.385e-06
2.83756e-06
3.51487e-06
4.4322e-06
5.62231e-06
7.1188e-06
9.00282e-06
1.14418e-05
1.4991e-05
2.32335e-06
1.69355e-06
1.30302e-06
1.0881e-06
1.03575e-06
1.1123e-06
1.31892e-06
1.66254e-06
2.17235e-06
2.89346e-06
3.87645e-06
5.19403e-06
6.99321e-06
9.66471e-06
1.31821e-06
8.62904e-07
6.33192e-07
5.13899e-07
4.79356e-07
5.08254e-07
5.9994e-07
7.64019e-07
1.02866e-06
1.44065e-06
2.06136e-06
2.97655e-06
4.32955e-06
6.4342e-06
7.99472e-07
4.3724e-07
2.92654e-07
2.29063e-07
2.11204e-07
2.23123e-07
2.63328e-07
3.38883e-07
4.71562e-07
7.0225e-07
1.0935e-06
1.73713e-06
2.77694e-06
4.47556e-06
5.24391e-07
2.29201e-07
1.309e-07
9.60187e-08
8.74086e-08
9.26214e-08
1.10164e-07
1.44706e-07
2.11752e-07
3.43625e-07
5.96536e-07
1.05815e-06
1.86467e-06
3.24914e-06
3.69712e-07
1.30718e-07
5.92426e-08
3.82941e-08
3.38103e-08
3.60263e-08
4.3715e-08
6.00772e-08
9.60093e-08
1.75898e-07
3.46138e-07
6.84268e-07
1.31431e-06
2.44355e-06
2.813e-07
8.56259e-08
2.96815e-08
1.51615e-08
1.23027e-08
1.31543e-08
1.67113e-08
2.53459e-08
4.69751e-08
1.00041e-07
2.2184e-07
4.79018e-07
9.82815e-07
1.91868e-06
2.35891e-07
6.70473e-08
1.86775e-08
6.70471e-09
4.38334e-09
4.65862e-09
6.62596e-09
1.22478e-08
2.78144e-08
6.82285e-08
1.64693e-07
3.75512e-07
8.01469e-07
1.61137e-06
2.22727e-07
6.28527e-08
1.57298e-08
4.1185e-09
1.84748e-09
1.92497e-09
3.45271e-09
8.32219e-09
2.23434e-08
5.91484e-08
1.47242e-07
3.40539e-07
7.33801e-07
1.48538e-06
2.38256e-07
6.87126e-08
1.70211e-08
4.21369e-09
1.72959e-09
1.82594e-09
3.57216e-09
9.14245e-09
2.48823e-08
6.51237e-08
1.58862e-07
3.59954e-07
7.62755e-07
1.52237e-06
2.74802e-07
8.26119e-08
2.25019e-08
7.29822e-09
4.38769e-09
4.79154e-09
7.52074e-09
1.54296e-08
3.63724e-08
8.72617e-08
2.00807e-07
4.35474e-07
8.91566e-07
1.72756e-06
3.40802e-07
1.13594e-07
3.90485e-08
1.86588e-08
1.45788e-08
1.59551e-08
2.15369e-08
3.51779e-08
6.72843e-08
1.3934e-07
2.91083e-07
5.90205e-07
1.14848e-06
2.13085e-06
4.57066e-07
1.85448e-07
8.57912e-08
5.35598e-08
4.61503e-08
5.00325e-08
6.32703e-08
9.08612e-08
1.46598e-07
2.58509e-07
4.76755e-07
8.82741e-07
1.60336e-06
2.81089e-06
6.92589e-07
3.56472e-07
2.0601e-07
1.46571e-07
1.30795e-07
1.4067e-07
1.72845e-07
2.33562e-07
3.40419e-07
5.28544e-07
8.59149e-07
1.42746e-06
2.37217e-06
3.8637e-06
2.9848e-06
2.24002e-06
1.70881e-06
1.40678e-06
1.32004e-06
1.42528e-06
1.72801e-06
2.23192e-06
2.96275e-06
3.95264e-06
5.22549e-06
6.84607e-06
8.92837e-06
1.18209e-05
1.5857e-06
1.15598e-06
8.63024e-07
6.8591e-07
6.17719e-07
6.44006e-07
7.68479e-07
1.00558e-06
1.38836e-06
1.96092e-06
2.76716e-06
3.87356e-06
5.38105e-06
7.54342e-06
8.56415e-07
5.67731e-07
4.07047e-07
3.14586e-07
2.76488e-07
2.82251e-07
3.32855e-07
4.39188e-07
6.28025e-07
9.41158e-07
1.43103e-06
2.17204e-06
3.27015e-06
4.93121e-06
4.86262e-07
2.71965e-07
1.80009e-07
1.34464e-07
1.16416e-07
1.17831e-07
1.38603e-07
1.85204e-07
2.75863e-07
4.44015e-07
7.40446e-07
1.2398e-06
2.05072e-06
3.35714e-06
2.96372e-07
1.32206e-07
7.58616e-08
5.34954e-08
4.56681e-08
4.62718e-08
5.49752e-08
7.55426e-08
1.19725e-07
2.12081e-07
3.95676e-07