/*--------------------------------*- C++ -*----------------------------------*\
| =========                 |                                                 |
| \\      /  F ield         | OpenFOAM: The Open Source CFD Toolbox           |
|  \\    /   O peration     | Version:  v2106                                 |
|   \\  /    A nd           | Website:  www.openfoam.com                      |
|    \\/     M anipulation  |                                                 |
\*---------------------------------------------------------------------------*/
FoamFile
{
    version     2.0;
    format      ascii;
    arch        "LSB;label=32;scalar=64";
    class       volScalarField;
    location    "0.000202";
    object      nut;
}
// * * * * * * * * * * * * * * * * * * * * * * * * * * * * * * * * * * * * * //

dimensions      [0 2 -1 0 0 0 0];

internalField   nonuniform List<scalar> 
144746
(
3.10811e-05
2.47051e-05
1.98971e-05
1.66607e-05
1.63538e-05
1.92847e-05
2.55255e-05
3.40699e-05
4.25175e-05
4.8338e-05
5.02726e-05
4.85596e-05
4.71418e-05
4.755e-05
2.90414e-05
2.21118e-05
1.63019e-05
1.18963e-05
9.96556e-06
1.02921e-05
1.32906e-05
1.88226e-05
2.59021e-05
3.25965e-05
3.75303e-05
3.93423e-05
3.87824e-05
4.03792e-05
2.7476e-05
2.00152e-05
1.35925e-05
8.8487e-06
6.51543e-06
5.81472e-06
6.89739e-06
9.93934e-06
1.47329e-05
2.04093e-05
2.55215e-05
2.97277e-05
3.07545e-05
3.35937e-05
2.46321e-05
1.64115e-05
1.03349e-05
6.36014e-06
4.27754e-06
3.42112e-06
3.68217e-06
5.27033e-06
8.29739e-06
1.23255e-05
1.64371e-05
1.98144e-05
2.24874e-05
2.67193e-05
1.95522e-05
1.20944e-05
7.0843e-06
4.10785e-06
2.59116e-06
1.93869e-06
1.96207e-06
2.80492e-06
4.69804e-06
7.5338e-06
1.07551e-05
1.36319e-05
1.64239e-05
2.16163e-05
1.4036e-05
7.91141e-06
4.26683e-06
2.32175e-06
1.39261e-06
1.00958e-06
1.01722e-06
1.51515e-06
2.73677e-06
4.75333e-06
7.28133e-06
9.84451e-06
1.25497e-05
1.79858e-05
9.09245e-06
4.58586e-06
2.25266e-06
1.14661e-06
6.61095e-07
4.82109e-07
5.24287e-07
8.72061e-07
1.72179e-06
3.21168e-06
5.23976e-06
7.54636e-06
1.03776e-05
1.73059e-05
5.53074e-06
2.46791e-06
1.09124e-06
5.16543e-07
2.90323e-07
2.27976e-07
3.00693e-07
5.87499e-07
1.24707e-06
2.4247e-06
4.1235e-06
6.27034e-06
9.59133e-06
1.87394e-05
3.56801e-06
1.44058e-06
5.81478e-07
2.61206e-07
1.5106e-07
1.42135e-07
2.34545e-07
5.02254e-07
1.07632e-06
2.09187e-06
3.61736e-06
5.83371e-06
1.0302e-05
2.19711e-05
3.07532e-06
1.24949e-06
5.14257e-07
2.50376e-07
1.65034e-07
1.70983e-07
2.75483e-07
5.46603e-07
1.10027e-06
2.07378e-06
3.63642e-06
6.40154e-06
1.28243e-05
2.5983e-05
4.02651e-06
1.87922e-06
8.55662e-07
4.6836e-07
3.37497e-07
3.29612e-07
4.41461e-07
7.36151e-07
1.3318e-06
2.41177e-06
4.3452e-06
8.40142e-06
1.69166e-05
2.97247e-05
7.02358e-06
4.23895e-06
2.27628e-06
1.22106e-06
8.18961e-07
7.29134e-07
8.38246e-07
1.18585e-06
1.90734e-06
3.29532e-06
6.05186e-06
1.18777e-05
2.15909e-05
3.28951e-05
1.19413e-05
8.89477e-06
5.82933e-06
3.41684e-06
2.10943e-06
1.64908e-06
1.67844e-06
2.09806e-06
3.02721e-06
4.87437e-06
8.55998e-06
1.56726e-05
2.53479e-05
3.51514e-05
1.76416e-05
1.48788e-05
1.15298e-05
8.09894e-06
5.41168e-06
3.89853e-06
3.44562e-06
3.7926e-06
4.89726e-06
7.14108e-06
1.1283e-05
1.8581e-05
2.73756e-05
3.57184e-05
2.61535e-05
1.97758e-05
1.54529e-05
1.26291e-05
1.18358e-05
1.28428e-05
1.57303e-05
1.98673e-05
2.43602e-05
2.83269e-05
3.21685e-05
3.64518e-05
4.08923e-05
4.53479e-05
2.10075e-05
1.55746e-05
1.15681e-05
8.71462e-06
7.40327e-06
7.36685e-06
8.80174e-06
1.1598e-05
1.53254e-05
1.92348e-05
2.29843e-05
2.68631e-05
3.1153e-05
3.56646e-05
1.7004e-05
1.22796e-05
8.77788e-06
6.24386e-06
4.85116e-06
4.38424e-06
4.93095e-06
6.57302e-06
9.25995e-06
1.26043e-05
1.61826e-05
1.96076e-05
2.32358e-05
2.76172e-05
1.33818e-05
9.42783e-06
6.41205e-06
4.31198e-06
3.11639e-06
2.60058e-06
2.74442e-06
3.66019e-06
5.47896e-06
8.05581e-06
1.10023e-05
1.39294e-05
1.66641e-05
2.08783e-05
1.01491e-05
6.74617e-06
4.3087e-06
2.73156e-06
1.85953e-06
1.4662e-06
1.48112e-06
1.99313e-06
3.18667e-06
5.08369e-06
7.4442e-06
9.9275e-06
1.23527e-05
1.6264e-05
7.28266e-06
4.4274e-06
2.60835e-06
1.54745e-06
9.98952e-07
7.59844e-07
7.61783e-07
1.07103e-06
1.85987e-06
3.22932e-06
5.08616e-06
7.21208e-06
9.50048e-06
1.29606e-05
4.88676e-06
2.64466e-06
1.41024e-06
7.76959e-07
4.77913e-07
3.59318e-07
3.79232e-07
5.93285e-07
1.14229e-06
2.15104e-06
3.62092e-06
5.46029e-06
7.67539e-06
1.13078e-05
3.1534e-06
1.48713e-06
7.01075e-07
3.52923e-07
2.07294e-07
1.61513e-07
1.99633e-07
3.73122e-07
7.94714e-07
1.58592e-06
2.80187e-06
4.44139e-06
6.68227e-06
1.09149e-05
2.20862e-06
9.13629e-07
3.74033e-07
1.67475e-07
9.46319e-08
8.43511e-08
1.35193e-07
2.96216e-07
6.61921e-07
1.34439e-06
2.42892e-06
4.00516e-06
6.4936e-06
1.16605e-05
2.03718e-06
8.10149e-07
3.12344e-07
1.35251e-07
8.02386e-08
8.18233e-08
1.41591e-07
3.06787e-07
6.6401e-07
1.3234e-06
2.40391e-06
4.12072e-06
7.21788e-06
1.33543e-05
2.66258e-06
1.16518e-06
4.88239e-07
2.37828e-07
1.57469e-07
1.5362e-07
2.20952e-07
4.05478e-07
7.96294e-07
1.51988e-06
2.75796e-06
4.92632e-06
8.86126e-06
1.57509e-05
4.51355e-06
2.43032e-06
1.19592e-06
6.10709e-07
4.00491e-07
3.59397e-07
4.32187e-07
6.56831e-07
1.13289e-06
2.0285e-06
3.63833e-06
6.54559e-06
1.13825e-05
1.89349e-05
7.72471e-06
5.0282e-06
2.98162e-06
1.66458e-06
1.03934e-06
8.50851e-07
9.07941e-07
1.19398e-06
1.81001e-06
2.97666e-06
5.10888e-06
8.92969e-06
1.51712e-05
2.31382e-05
1.18177e-05
8.67322e-06
6.04198e-06
3.9495e-06
2.59017e-06
1.97233e-06
1.89613e-06
2.22821e-06
3.00864e-06
4.47553e-06
7.09811e-06
1.18025e-05
1.93711e-05
2.74211e-05
1.99979e-05
1.48428e-05
1.14784e-05
9.31989e-06
8.4791e-06
8.51918e-06
9.45914e-06
1.10205e-05
1.31049e-05
1.52304e-05
1.74897e-05
2.05792e-05
2.71879e-05
3.76784e-05
1.27573e-05
9.67547e-06
7.42427e-06
5.86473e-06
5.09579e-06
4.92971e-06
5.39683e-06
6.42003e-06
7.98781e-06
9.8507e-06
1.20866e-05
1.49424e-05
1.98437e-05
2.72555e-05
8.43623e-06
6.42362e-06
4.88361e-06
3.74693e-06
3.10641e-06
2.86889e-06
3.0542e-06
3.67225e-06
4.7934e-06
6.34914e-06
8.35006e-06
1.08773e-05
1.45848e-05
1.98613e-05
5.93688e-06
4.3212e-06
3.1671e-06
2.33525e-06
1.84868e-06
1.63345e-06
1.68739e-06
2.04573e-06
2.82212e-06
4.04746e-06
5.72732e-06
7.86974e-06
1.06841e-05
1.46199e-05
4.28602e-06
2.86065e-06
1.95964e-06
1.36954e-06
1.0337e-06
8.78773e-07
8.88356e-07
1.09783e-06
1.62387e-06
2.54949e-06
3.89921e-06
5.67861e-06
7.96817e-06
1.11103e-05
3.09509e-06
1.83122e-06
1.13483e-06
7.37626e-07
5.28429e-07
4.35263e-07
4.38994e-07
5.6932e-07
9.25086e-07
1.60582e-06
2.66753e-06
4.13794e-06
6.07125e-06
8.7794e-06
2.23455e-06
1.14028e-06
6.15901e-07
3.62125e-07
2.4373e-07
1.96346e-07
2.05474e-07
2.96483e-07
5.46701e-07
1.05224e-06
1.89119e-06
3.12068e-06
4.817e-06
7.27686e-06
1.69487e-06
7.37559e-07
3.32305e-07
1.67734e-07
1.03001e-07
8.26871e-08
9.7825e-08
1.71539e-07
3.64913e-07
7.64119e-07
1.45724e-06
2.52602e-06
4.08096e-06
6.44147e-06
1.4367e-06
5.53339e-07
2.07368e-07
8.47283e-08
4.49712e-08
3.78674e-08
5.76703e-08
1.26818e-07
2.97657e-07
6.48182e-07
1.26924e-06
2.26074e-06
3.77095e-06
6.17167e-06
1.46363e-06
5.48599e-07
1.91138e-07
6.94561e-08
3.38049e-08
3.09804e-08
5.47866e-08
1.27872e-07
3.00246e-07
6.47334e-07
1.26273e-06
2.26134e-06
3.82897e-06
6.40331e-06
1.79304e-06
7.25247e-07
2.74824e-07
1.12542e-07
6.27783e-08
5.74745e-08
8.57473e-08
1.70869e-07
3.65325e-07
7.48913e-07
1.42352e-06
2.5185e-06
4.24826e-06
7.11509e-06
2.66415e-06
1.25039e-06
5.59649e-07
2.67028e-07
1.6418e-07
1.44202e-07
1.77948e-07
2.86459e-07
5.27462e-07
9.92216e-07
1.79755e-06
3.08433e-06
5.084e-06
8.40866e-06
4.1774e-06
2.29238e-06
1.22842e-06
6.71432e-07
4.3179e-07
3.65856e-07
4.02872e-07
5.49721e-07
8.66407e-07
1.46232e-06
2.48407e-06
4.11706e-06
6.69697e-06
1.06046e-05
6.29849e-06
3.85753e-06
2.4016e-06
1.50989e-06
1.03673e-06
8.66676e-07
8.95921e-07
1.09908e-06
1.52949e-06
2.3159e-06
3.65165e-06
5.9006e-06
9.72551e-06
1.497e-05
5.20501e-05
6.06543e-05
6.87545e-05
7.43599e-05
7.72616e-05
9.86723e-05
4.63845e-05
5.79671e-05
6.93087e-05
7.72623e-05
8.32947e-05
0.000109425
4.12641e-05
5.64422e-05
7.06522e-05
7.90669e-05
8.71082e-05
0.000119012
3.69275e-05
5.66324e-05
7.3265e-05
7.97114e-05
8.81468e-05
0.00012733
3.44886e-05
5.85635e-05
7.6036e-05
7.94274e-05
8.69342e-05
0.000134421
3.41942e-05
6.15839e-05
7.73566e-05
7.78417e-05
8.41969e-05
0.000140051
3.60827e-05
6.31504e-05
7.56981e-05
7.48661e-05
8.09267e-05
0.00014381
3.93124e-05
6.26093e-05
7.16235e-05
7.17092e-05
7.81658e-05
0.000145139
4.15018e-05
5.92456e-05
6.66334e-05
6.88822e-05
7.5942e-05
0.000144186
4.1711e-05
5.44113e-05
6.17355e-05
6.62161e-05
7.39261e-05
0.000140548
4.0654e-05
4.97101e-05
5.72272e-05
6.37186e-05
7.23267e-05
0.000134106
3.96446e-05
4.63954e-05
5.3696e-05
6.15266e-05
7.11e-05
0.000125076
3.90138e-05
4.43911e-05
5.14432e-05
6.00484e-05
7.01648e-05
0.000113998
3.82477e-05
4.34366e-05
5.06683e-05
5.99138e-05
6.97292e-05
0.000100573
5.06346e-05
5.94683e-05
6.75911e-05
7.44447e-05
7.81612e-05
9.19342e-05
4.12906e-05
5.18365e-05
6.39704e-05
7.44739e-05
8.31066e-05
0.000102188
3.38725e-05
4.60345e-05
6.19245e-05
7.518e-05
8.59011e-05
0.000111254
2.75578e-05
4.16154e-05
6.13609e-05
7.61445e-05
8.65091e-05
0.000118805
2.33253e-05
3.91006e-05
6.20288e-05
7.71326e-05
8.55636e-05
0.000124872
2.07452e-05
3.85145e-05
6.32386e-05
7.74121e-05
8.34903e-05
0.000129404
2.00726e-05
3.90425e-05
6.32933e-05
7.58401e-05
8.12034e-05
0.000132334
2.08466e-05
3.98378e-05
6.17369e-05
7.32025e-05
7.93024e-05
0.000133779
2.22277e-05
3.95773e-05
5.85344e-05
7.02087e-05
7.80085e-05
0.000133607
2.35818e-05
3.80776e-05
5.46346e-05
6.74095e-05
7.72388e-05
0.000131118
2.46727e-05
3.62556e-05
5.09983e-05
6.48401e-05
7.66095e-05
0.000125912
2.60914e-05
3.55417e-05
4.8666e-05
6.25129e-05
7.56481e-05
0.000117805
2.86622e-05
3.66266e-05
4.80145e-05
6.06696e-05
7.43263e-05
0.000107094
3.11718e-05
3.87871e-05
4.86992e-05
5.96198e-05
7.27778e-05
9.40772e-05
4.88757e-05
6.05584e-05
6.95271e-05
7.45915e-05
7.93508e-05
8.2411e-05
3.66596e-05
4.78915e-05
5.95078e-05
6.98436e-05
8.05373e-05
9.22299e-05
2.75518e-05
3.82355e-05
5.16886e-05
6.61549e-05
8.08999e-05
0.000101043
2.04833e-05
3.08521e-05
4.57031e-05
6.37011e-05
8.07365e-05
0.000108083
1.61756e-05
2.56862e-05
4.16e-05
6.24249e-05
8.03295e-05
0.000113275
1.32198e-05
2.23279e-05
3.94566e-05
6.22381e-05
7.98768e-05
0.000117397
1.13993e-05
2.05833e-05
3.89325e-05
6.21906e-05
7.89842e-05
0.000120718
1.05815e-05
2.01857e-05
3.89982e-05
6.1512e-05
7.80298e-05
0.000123195
1.05659e-05
2.0445e-05
3.86146e-05
6.02172e-05
7.738e-05
0.000124372
1.10647e-05
2.0526e-05
3.73426e-05
5.85128e-05
7.74289e-05
0.000123315
1.18299e-05
2.03048e-05
3.56663e-05
5.68509e-05
7.75456e-05
0.000119054
1.28773e-05
2.04439e-05
3.46903e-05
5.5392e-05
7.65999e-05
0.000111261
1.51135e-05
2.23057e-05
3.56407e-05
5.4603e-05
7.48027e-05
0.000100493
1.82248e-05
2.60504e-05
3.87266e-05
5.44559e-05
7.31209e-05
8.74191e-05
3.66623e-05
4.30585e-05
5.18125e-05
6.22611e-05
7.21244e-05
0.000102349
2.86961e-05
3.518e-05
4.58093e-05
5.95725e-05
7.51268e-05
0.000112364
2.12352e-05
2.78951e-05
4.03222e-05
5.67921e-05
7.62499e-05
0.000120431
1.4876e-05
2.19985e-05
3.60409e-05
5.43092e-05
7.55436e-05
0.000126524
1.09964e-05
1.83917e-05
3.34367e-05
5.26709e-05
7.35435e-05
0.000130757
8.79261e-06
1.71098e-05
3.31969e-05
5.19923e-05
7.10175e-05
0.000133292
8.01098e-06
1.74573e-05
3.4037e-05
5.14258e-05
6.83424e-05
0.000134864
8.46988e-06
1.89428e-05
3.50207e-05
5.04403e-05
6.56293e-05
0.000135929
1.00338e-05
2.0659e-05
3.49566e-05
4.84339e-05
6.29858e-05
0.000136472
1.23362e-05
2.18809e-05
3.36939e-05
4.57655e-05
6.10605e-05
0.000135242
1.4769e-05
2.24514e-05
3.18934e-05
4.31117e-05
6.02879e-05
0.000131656
1.68878e-05
2.27551e-05
3.0471e-05
4.13459e-05
6.06934e-05
0.000124848
1.85605e-05
2.32527e-05
3.0317e-05
4.15564e-05
6.21159e-05
0.000114614
1.97862e-05
2.45453e-05
3.23259e-05
4.48206e-05
6.59152e-05
0.000102135
3.2036e-05
3.99516e-05
4.91701e-05
5.99018e-05
7.31649e-05
9.52726e-05
2.28173e-05
2.97267e-05
3.98303e-05
5.35058e-05
7.22938e-05
0.000104167
1.52992e-05
2.13909e-05
3.17412e-05
4.75431e-05
7.02647e-05
0.000110917
1.02307e-05
1.53386e-05
2.54597e-05
4.26272e-05
6.72102e-05
0.000115394
7.26032e-06
1.20418e-05
2.17944e-05
3.88999e-05
6.33971e-05
0.000117894
5.4957e-06
1.01734e-05
2.00034e-05
3.68607e-05
6.01819e-05
0.000119333
4.59022e-06
9.42393e-06
1.95092e-05
3.57257e-05
5.75558e-05
0.000120185
4.38514e-06
9.60317e-06
1.98338e-05
3.50778e-05
5.54942e-05
0.000120834
4.87704e-06
1.03943e-05
2.02478e-05
3.4279e-05
5.3913e-05
0.000121381
6.0093e-06
1.13929e-05
2.02227e-05
3.31832e-05
5.39777e-05
0.00012129
7.57321e-06
1.23912e-05
2.00631e-05
3.2452e-05
5.58106e-05
0.000118987
9.3512e-06
1.35084e-05
2.04266e-05
3.29948e-05
5.89739e-05
0.000113591
1.1299e-05
1.51782e-05
2.22709e-05
3.60015e-05
6.35867e-05
0.000105246
1.34559e-05
1.80525e-05
2.66598e-05
4.23611e-05
6.99504e-05
9.45102e-05
2.08628e-05
2.96598e-05
4.07826e-05
5.44351e-05
7.21573e-05
8.63826e-05
1.41728e-05
2.08691e-05
3.07833e-05
4.52681e-05
6.67288e-05
9.34058e-05
8.81876e-06
1.40944e-05
2.26908e-05
3.72265e-05
6.13147e-05
9.82105e-05
5.89373e-06
9.62688e-06
1.67216e-05
3.0523e-05
5.5082e-05
0.000100929
4.12914e-06
7.24325e-06
1.32192e-05
2.54238e-05
4.89235e-05
0.000101715
3.03349e-06
5.74422e-06
1.10833e-05
2.22439e-05
4.37914e-05
0.000101247
2.39825e-06
4.84583e-06
9.8224e-06
2.02076e-05
4.01267e-05
0.000100653
2.09216e-06
4.41137e-06
9.22481e-06
1.90319e-05
3.77841e-05
0.000100645
2.06811e-06
4.35652e-06
9.07497e-06
1.84764e-05
3.70655e-05
0.000101714
2.34471e-06
4.60766e-06
9.16232e-06
1.84591e-05
3.87149e-05
0.000103604
2.92239e-06
5.11473e-06
9.5463e-06
1.93721e-05
4.33657e-05
0.000104354
3.8007e-06
5.96335e-06
1.06031e-05
2.20651e-05
5.0713e-05
0.000102089
5.06142e-06
7.52179e-06
1.322e-05
2.76257e-05
5.96459e-05
9.61635e-05
7.05334e-06
1.07165e-05
1.89157e-05
3.67928e-05
6.85773e-05
8.68964e-05
0.000101108
7.98324e-05
6.24465e-05
4.91954e-05
3.92268e-05
3.3065e-05
0.000114206
7.52718e-05
5.68078e-05
4.46028e-05
3.6226e-05
3.13684e-05
0.000125827
7.42613e-05
5.53043e-05
4.38013e-05
3.57676e-05
3.05664e-05
0.000134544
7.52601e-05
5.70208e-05
4.58401e-05
3.66335e-05
2.96101e-05
0.000140094
7.797e-05
6.09205e-05
4.89388e-05
3.67826e-05
2.67627e-05
0.000143438
8.3165e-05
6.55394e-05
5.04135e-05
3.42438e-05
2.20018e-05
0.000144895
9.03215e-05
6.79448e-05
4.80287e-05
2.91489e-05
1.63923e-05
0.000145236
9.71123e-05
6.62745e-05
4.19408e-05
2.2754e-05
1.1385e-05
0.000144023
0.000100884
6.19046e-05
3.49554e-05
1.73879e-05
8.08044e-06
0.00014045
0.000100679
5.67949e-05
2.98357e-05
1.44862e-05
6.83569e-06
0.000134418
9.65676e-05
5.35376e-05
2.81832e-05
1.45077e-05
7.63496e-06
0.000126098
8.9563e-05
5.1764e-05
2.94659e-05
1.71529e-05
1.05892e-05
0.00011584
8.14853e-05
5.13308e-05
3.26594e-05
2.15977e-05
1.51895e-05
0.000104166
7.41277e-05
5.1516e-05
3.68393e-05
2.71169e-05
2.07488e-05
9.41205e-05
8.69462e-05
6.52559e-05
4.85646e-05
3.58647e-05
2.78532e-05
0.000106101
8.26099e-05
5.88956e-05
4.15002e-05
2.95934e-05
2.30137e-05
0.000116471
8.10192e-05
5.54148e-05
3.75612e-05
2.58831e-05
1.94536e-05
0.000124694
8.13521e-05
5.39983e-05
3.61829e-05
2.38816e-05
1.66536e-05
0.000130464
8.23857e-05
5.42131e-05
3.55485e-05
2.19246e-05
1.40718e-05
0.000133993
8.48275e-05
5.47038e-05
3.41249e-05
1.95889e-05
1.13812e-05
0.000135903
8.87942e-05
5.40604e-05
3.12923e-05
1.65543e-05
8.67112e-06
0.00013658
9.28568e-05
5.21895e-05
2.75983e-05
1.34493e-05
6.38615e-06
0.000135644
9.55981e-05
4.99356e-05
2.4339e-05
1.11811e-05
4.96777e-06
0.000132476
9.61791e-05
4.80476e-05
2.25796e-05
1.03082e-05
4.62512e-06
0.000126756
9.38325e-05
4.74485e-05
2.28717e-05
1.10667e-05
5.41989e-06
0.000118546
8.89908e-05
4.81129e-05
2.5297e-05
1.36811e-05
7.68367e-06
0.000108204
8.31769e-05
4.93619e-05
2.89802e-05
1.76477e-05
1.12638e-05
9.64921e-05
7.8012e-05
5.14179e-05
3.36826e-05
2.27164e-05
1.58786e-05
8.64167e-05
9.3344e-05
6.99e-05
4.77316e-05
3.13227e-05
2.05236e-05
9.81159e-05
9.22866e-05
6.30391e-05
3.8182e-05
2.23994e-05
1.40498e-05
0.000108088
9.00482e-05
5.7254e-05
3.1741e-05
1.75447e-05
1.0571e-05
0.000116001
8.70089e-05
5.17554e-05
2.80017e-05
1.49186e-05
8.45566e-06
0.000121285
8.35967e-05
4.73833e-05
2.5201e-05
1.29718e-05
6.85816e-06
0.000124377
8.11071e-05
4.42904e-05
2.29702e-05
1.13554e-05
5.56168e-06
0.000126076
8.02917e-05
4.2298e-05
2.11035e-05
9.93059e-06
4.51606e-06
0.000126886
8.12276e-05
4.14669e-05
1.98603e-05
8.93085e-06
3.81828e-06
0.000126486
8.30722e-05
4.15776e-05
1.92964e-05
8.41775e-06
3.47796e-06
0.00012415
8.45254e-05
4.23078e-05
1.95086e-05
8.52745e-06
3.56211e-06
0.000118996
8.39916e-05
4.32119e-05
2.03583e-05
9.22729e-06
4.09222e-06
0.000110913
8.12491e-05
4.47509e-05
2.24738e-05
1.104e-05
5.42059e-06
0.000100427
7.84697e-05
4.65011e-05
2.52518e-05
1.36525e-05
7.52748e-06
8.84702e-05
7.62798e-05
4.89437e-05
2.88906e-05
1.71352e-05
1.04394e-05
9.71821e-05
7.35963e-05
6.90581e-05
6.2556e-05
5.5628e-05
4.98588e-05
0.000110106
7.17096e-05
6.566e-05
5.92098e-05
5.33875e-05
4.92046e-05
0.000121584
7.15382e-05
6.45785e-05
5.8841e-05
5.4001e-05
5.04032e-05
0.00013136
7.31478e-05
6.58741e-05
6.13573e-05
5.75499e-05
5.38367e-05
0.000139073
7.68569e-05
6.93369e-05
6.64923e-05
6.37212e-05
5.75983e-05
0.000144381
8.21646e-05
7.48858e-05
7.38898e-05
7.00869e-05
5.829e-05
0.000147104
8.89152e-05
8.21797e-05
8.12967e-05
7.27069e-05
5.37711e-05
0.000146632
9.66182e-05
8.93808e-05
8.48195e-05
6.87185e-05
4.48672e-05
0.000143467
0.000104154
9.3207e-05
8.12788e-05
5.90331e-05
3.53054e-05
0.000138496
0.000110046
9.13802e-05
7.18431e-05
4.81375e-05
2.83539e-05
0.000132228
0.000111885
8.65316e-05
6.29422e-05
4.1189e-05
2.55775e-05
0.000123992
0.000107832
8.09e-05
5.79056e-05
3.93646e-05
2.6804e-05
0.000113918
9.9346e-05
7.65702e-05
5.67879e-05
4.11663e-05
3.04976e-05
0.000102485
8.9018e-05
7.25621e-05
5.767e-05
4.51747e-05
3.60082e-05
9.03775e-05
7.5797e-05
7.07417e-05
6.42724e-05
5.61333e-05
4.84989e-05
0.000102239
7.48175e-05
6.88912e-05
6.15392e-05
5.24823e-05
4.51471e-05
0.000113007
7.50133e-05
6.85777e-05
6.05901e-05
5.01731e-05
4.16466e-05
0.000122317
7.63453e-05
7.00087e-05
6.21077e-05
5.07073e-05
4.05335e-05
0.000129816
7.89885e-05
7.30966e-05
6.60549e-05
5.32275e-05
3.86216e-05
0.000135132
8.32528e-05
7.78862e-05
7.09285e-05
5.38356e-05
3.64339e-05
0.000137839
8.95773e-05
8.34625e-05
7.29553e-05
5.16477e-05
3.23587e-05
0.000137383
9.71367e-05
8.70325e-05
7.04452e-05
4.64468e-05
2.7248e-05
0.000134709
0.000104597
8.62523e-05
6.37576e-05
3.97158e-05
2.25763e-05
0.000130644
0.000110467
8.16359e-05
5.59361e-05
3.40975e-05
1.98199e-05
0.000124692
0.000112376
7.76885e-05
5.10797e-05
3.1624e-05
1.94488e-05
0.000116481
0.000109809
7.52436e-05
5.03527e-05
3.30142e-05
2.19246e-05
0.000106373
0.000103055
7.42018e-05
5.25883e-05
3.70632e-05
2.64834e-05
9.50716e-05
9.54528e-05
7.41571e-05
5.71836e-05
4.36894e-05
3.3349e-05
8.21135e-05
8.00741e-05
7.57129e-05
6.82645e-05
5.48861e-05
4.17282e-05
9.37052e-05
8.17233e-05
7.59511e-05
6.28598e-05
4.61281e-05
3.34292e-05
0.000104338
8.35567e-05
7.64182e-05
5.99469e-05
4.06462e-05
2.71101e-05
0.000113717
8.58387e-05
7.76329e-05
5.86482e-05
3.83375e-05
2.51623e-05
0.000121168
8.82987e-05
7.81247e-05
5.79481e-05
3.75254e-05
2.34439e-05
0.000126057
9.081e-05
7.77741e-05
5.65889e-05
3.57419e-05
2.12431e-05
0.000128081
9.40511e-05
7.65145e-05
5.35239e-05
3.26394e-05
1.86573e-05
0.000127901
9.80498e-05
7.38037e-05
4.93e-05
2.93385e-05
1.64489e-05
0.000126101
0.000100874
7.08343e-05
4.54949e-05
2.66545e-05
1.48749e-05
0.000122218
0.000102663
6.90683e-05
4.34777e-05
2.55447e-05
1.45162e-05
0.000115989
0.000102705
6.89148e-05
4.34804e-05
2.61315e-05
1.5367e-05
0.000107592
0.000100618
7.03563e-05
4.62857e-05
2.93602e-05
1.83441e-05
9.74964e-05
9.71836e-05
7.29525e-05
5.09976e-05
3.45661e-05
2.31282e-05
8.64568e-05
9.55213e-05
7.71872e-05
5.8158e-05
4.24238e-05
3.02114e-05
1.14109e-05
8.3376e-06
6.32577e-06
5.17691e-06
4.80927e-06
4.78946e-06
5.0579e-06
5.52433e-06
6.29484e-06
7.35337e-06
8.68699e-06
1.00775e-05
1.20549e-05
1.74367e-05
5.93398e-06
4.32246e-06
3.30485e-06
2.7086e-06
2.50246e-06
2.50768e-06
2.67886e-06
2.96982e-06
3.45118e-06
4.15137e-06
5.1161e-06
6.28269e-06
8.1028e-06
1.2301e-05
3.38724e-06
2.28227e-06
1.71763e-06
1.40561e-06
1.293e-06
1.29795e-06
1.39263e-06
1.55812e-06
1.84577e-06
2.30369e-06
3.00209e-06
3.98604e-06
5.59961e-06
8.79434e-06
2.13898e-06
1.25734e-06
8.87137e-07
7.10924e-07
6.49561e-07
6.51896e-07
7.00097e-07
7.89212e-07
9.5858e-07
1.26204e-06
1.78261e-06
2.61149e-06
4.00565e-06
6.52557e-06
1.46404e-06
7.28374e-07
4.53462e-07
3.4417e-07
3.09623e-07
3.1025e-07
3.34095e-07
3.82495e-07
4.85929e-07
6.95394e-07
1.09349e-06
1.78702e-06
2.97e-06
4.99982e-06
1.08078e-06
4.51858e-07
2.32538e-07
1.58322e-07
1.3755e-07
1.37305e-07
1.49516e-07
1.77968e-07
2.46269e-07
3.98703e-07
7.10325e-07
1.28656e-06
2.28559e-06
3.95759e-06
8.58091e-07
3.08778e-07
1.25583e-07
7.04939e-08
5.66631e-08
5.61072e-08
6.32186e-08
8.25902e-08
1.33064e-07
2.52211e-07
5.05526e-07
9.90095e-07
1.84242e-06
3.26158e-06
7.4792e-07
2.4224e-07
7.85989e-08
3.27926e-08
2.21468e-08
2.15958e-08
2.6822e-08
4.275e-08
8.55866e-08
1.88223e-07
4.08153e-07
8.32943e-07
1.58526e-06
2.83981e-06
7.06484e-07
2.17659e-07
6.14908e-08
1.88944e-08
9.30859e-09
8.86975e-09
1.38355e-08
2.9542e-08
7.1485e-08
1.70481e-07
3.79077e-07
7.77038e-07
1.47745e-06
2.64021e-06
7.34775e-07
2.27195e-07
6.25629e-08
1.70214e-08
6.67797e-09
6.29366e-09
1.20221e-08
2.98714e-08
7.61301e-08
1.81815e-07
3.97473e-07
7.97493e-07
1.48846e-06
2.62078e-06
8.14342e-07
2.62497e-07
7.81347e-08
2.4951e-08
1.21639e-08
1.16434e-08
1.90476e-08
4.13072e-08
9.64581e-08
2.17436e-07
4.55363e-07
8.82031e-07
1.60045e-06
2.75468e-06
1.04038e-06
3.63806e-07
1.27011e-07
5.38031e-08
3.40868e-08
3.25001e-08
4.30154e-08
7.32261e-08
1.43259e-07
2.88913e-07
5.63413e-07
1.03757e-06
1.81129e-06
3.02428e-06
1.43443e-06
5.67377e-07
2.44325e-07
1.33254e-07
9.8037e-08
9.28686e-08
1.08812e-07
1.53317e-07
2.47854e-07
4.31625e-07
7.6174e-07
1.31081e-06
2.17377e-06
3.48673e-06
2.10058e-06
9.5642e-07
5.01278e-07
3.23931e-07
2.58631e-07
2.46009e-07
2.72771e-07
3.46016e-07
4.88733e-07
7.45436e-07
1.17897e-06
1.86649e-06
2.90372e-06
4.3754e-06
6.20332e-06
4.58256e-06
3.59436e-06
3.0606e-06
2.94472e-06
3.02478e-06
3.273e-06
3.65184e-06
4.22751e-06
5.02756e-06
6.06926e-06
7.27806e-06
8.75891e-06
1.14649e-05
3.2757e-06
2.33969e-06
1.81875e-06
1.53732e-06
1.46879e-06
1.519e-06
1.66361e-06
1.88951e-06
2.23962e-06
2.74982e-06
3.46099e-06
4.35689e-06
5.58208e-06
7.78347e-06
1.90374e-06
1.22137e-06
9.1485e-07
7.63931e-07
7.25635e-07
7.52458e-07
8.28527e-07
9.51718e-07
1.15181e-06
1.46679e-06
1.94861e-06
2.63238e-06
3.66715e-06
5.51431e-06
1.20824e-06
6.6077e-07
4.54219e-07
3.6847e-07
3.47652e-07
3.61035e-07
3.98817e-07
4.62592e-07
5.73968e-07
7.68392e-07
1.1017e-06
1.6375e-06
2.51579e-06
4.06948e-06
8.27672e-07
3.76168e-07
2.23002e-07
1.69999e-07
1.58135e-07
1.64376e-07
1.82673e-07
2.15497e-07
2.78911e-07
4.03527e-07
6.42555e-07
1.06943e-06
1.81084e-06
3.11265e-06
6.1012e-07
2.32172e-07
1.1138e-07
7.51114e-08
6.74066e-08
6.99715e-08
7.88639e-08
9.66437e-08
1.35504e-07
2.20844e-07
3.99526e-07
7.43502e-07
1.36542e-06
2.45618e-06
4.82769e-07
1.60302e-07
6.02998e-08
3.27075e-08
2.69078e-08
2.77371e-08
3.2376e-08
4.33372e-08
7.03204e-08
1.34469e-07
2.75958e-07
5.60403e-07
1.08766e-06
2.01444e-06
4.15686e-07
1.27294e-07
3.88245e-08
1.53239e-08
1.03443e-08
1.04636e-08
1.34162e-08
2.17358e-08
4.38615e-08
9.83124e-08
2.2026e-07
4.68485e-07
9.32348e-07
1.74711e-06
3.86967e-07
1.15441e-07
3.14721e-08
9.2011e-09
4.3894e-09
4.27177e-09
6.81891e-09
1.47604e-08
3.6354e-08
8.92057e-08
2.05783e-07
4.39777e-07
8.73056e-07
1.62696e-06
3.9275e-07
1.19459e-07
3.22251e-08
8.51709e-09
3.27088e-09
3.11548e-09
6.01541e-09
1.51397e-08
3.94589e-08
9.71337e-08
2.20039e-07
4.591e-07
8.91908e-07
1.63123e-06
4.21066e-07
1.34993e-07
3.96654e-08
1.25346e-08
6.21471e-09
6.0915e-09
1.00008e-08
2.17948e-08
5.18118e-08
1.19941e-07
2.59391e-07
5.20968e-07
9.81304e-07
1.74848e-06
5.0549e-07
1.77363e-07
6.24347e-08
2.72307e-08
1.80359e-08
1.77831e-08
2.38369e-08
4.07513e-08
8.06657e-08
1.66044e-07
3.32877e-07
6.33679e-07
1.14554e-06
1.97365e-06
6.54654e-07
2.6593e-07
1.20056e-07
6.94775e-08
5.35641e-08
5.24866e-08
6.29081e-08
8.98104e-08
1.46953e-07
2.59823e-07
4.68251e-07
8.28312e-07
1.41693e-06
2.33813e-06
9.31221e-07
4.57864e-07
2.58279e-07
1.76545e-07
1.46015e-07
1.42871e-07
1.62531e-07
2.10325e-07
3.01335e-07
4.64019e-07
7.41699e-07
1.19379e-06
1.89365e-06
2.92928e-06
3.11306e-06
2.34358e-06
1.89248e-06
1.66752e-06
1.6566e-06
1.77199e-06
2.00645e-06
2.3488e-06
2.81967e-06
3.43966e-06
4.23655e-06
5.21539e-06
6.46008e-06
8.39005e-06
1.70051e-06
1.22911e-06
9.68579e-07
8.3282e-07
8.10486e-07
8.62428e-07
9.81754e-07
1.16954e-06
1.44473e-06
1.83218e-06
2.36344e-06
3.05872e-06
4.00665e-06
5.49048e-06
9.95875e-07
6.44111e-07
4.83212e-07
4.05675e-07
3.89291e-07
4.12443e-07
4.70083e-07
5.65901e-07
7.16066e-07
9.46336e-07
1.29269e-06
1.79352e-06
2.53813e-06
3.74847e-06
6.27539e-07
3.41885e-07
2.33275e-07
1.89005e-07
1.79537e-07
1.90063e-07
2.1714e-07
2.63987e-07
3.43238e-07
4.78306e-07
7.0614e-07
1.07562e-06
1.67493e-06
2.68131e-06
4.2662e-07
1.89286e-07
1.10172e-07
8.35087e-08
7.82004e-08
8.29491e-08
9.54493e-08
1.18109e-07
1.60392e-07
2.41762e-07
3.96427e-07
6.75198e-07
1.1611e-06
2.00247e-06
3.1037e-07
1.13511e-07
5.28175e-08
3.52335e-08
3.18931e-08
3.38904e-08
3.96413e-08
5.10037e-08
7.50389e-08
1.27238e-07
2.36933e-07
4.51558e-07
8.46892e-07
1.54937e-06
2.41767e-07
7.67666e-08
2.77018e-08
1.47004e-08
1.22076e-08
1.29394e-08
1.57216e-08
2.20998e-08
3.75338e-08
7.44093e-08
1.57269e-07
3.28408e-07
6.55961e-07
1.25007e-06
2.04419e-07
6.03031e-08
1.76288e-08
6.69723e-09
4.52496e-09
4.72858e-09
6.33771e-09
1.07668e-08
2.26228e-08
5.24437e-08
1.21427e-07
2.67296e-07
5.51644e-07
1.07266e-06
1.88849e-07
5.50034e-08
1.44684e-08
4.03969e-09
1.89263e-09
1.91202e-09
3.20301e-09
7.22233e-09
1.84061e-08
4.66957e-08
1.11709e-07
2.48311e-07
5.13695e-07
9.97722e-07
1.92714e-07
5.77841e-08
1.50991e-08
3.86855e-09
1.50986e-09
1.50991e-09
2.96846e-09
7.58269e-09
2.02232e-08
5.13136e-08
1.20536e-07
2.61878e-07
5.30678e-07
1.01205e-06
2.10848e-07
6.67939e-08
1.9077e-08
6.04388e-09
3.22271e-09
3.32808e-09
5.41408e-09
1.16319e-08
2.78057e-08
6.57842e-08
1.46869e-07
3.06299e-07
6.00375e-07
1.11269e-06
2.52551e-07
8.82486e-08
3.09252e-08
1.40198e-08
9.98888e-09
1.03584e-08
1.40047e-08
2.36468e-08
4.65225e-08
9.67397e-08
1.98565e-07
3.90307e-07
7.31096e-07
1.30458e-06
3.26581e-07
1.35468e-07
6.27528e-08
3.7876e-08
3.07546e-08
3.15843e-08
3.89187e-08
5.59777e-08
9.15731e-08
1.62723e-07
2.97867e-07
5.4024e-07
9.52875e-07
1.62082e-06
4.73358e-07
2.44139e-07
1.42093e-07
9.99739e-08
8.57497e-08
8.75726e-08
1.03408e-07
1.36955e-07
1.98512e-07
3.07903e-07
4.97529e-07
8.15247e-07
1.32589e-06
2.11015e-06
1.79202e-06
1.35933e-06
1.07586e-06
9.3265e-07
9.19867e-07
1.00941e-06
1.20196e-06
1.49005e-06
1.88031e-06
2.387e-06
3.02458e-06
3.82888e-06
4.87069e-06
6.38668e-06
9.76522e-07
7.13121e-07
5.49273e-07
4.59123e-07
4.37382e-07
4.70081e-07
5.57818e-07
7.03659e-07
9.20084e-07
1.22641e-06
1.64441e-06
2.20565e-06
2.97285e-06
4.11108e-06
5.53055e-07
3.62657e-07
2.66419e-07
2.16441e-07
2.0206e-07
2.14409e-07
2.53271e-07
3.22758e-07
4.34855e-07
6.09472e-07
8.72832e-07
1.26167e-06
1.83728e-06
2.73198e-06
3.34759e-07
1.83363e-07
1.22864e-07
9.62635e-08
8.88353e-08
9.39241e-08
1.10929e-07
1.42853e-07
1.9892e-07
2.96451e-07
4.6202e-07
7.34678e-07
1.17565e-06
1.89629e-06
2.1915e-07
9.59065e-08
5.48274e-08
4.02561e-08
3.66787e-08
3.88984e-08
4.63011e-08
6.0861e-08
8.91219e-08
1.44729e-07
2.51464e-07
4.4646e-07
7.8751e-07
1.37319e-06
1.54223e-07
5.45822e-08
2.4758e-08
1.60172e-08
1.41538e-08
1.5094e-08
1.83296e-08
2.52083e-08
4.03146e-08
7.39141e-08
1.4557e-07
2.88025e-07
5.53715e-07
1.03019e-06
1.17136e-07
3.56831e-08
1.23783e-08
6.32771e-09
5.1386e-09
5.49866e-09
6.9909e-09
1.06108e-08
1.96802e-08
4.19442e-08
9.30865e-08
2.01171e-07
4.13097e-07
8.07063e-07
9.80547e-08
2.78887e-08
7.77431e-09
2.79261e-09
1.82705e-09
1.94322e-09
2.76588e-09
5.11633e-09
1.16278e-08
2.8546e-08
6.89623e-08
1.57371e-07
3.36162e-07
6.76373e-07
9.24161e-08
2.60961e-08
6.53542e-09
1.7122e-09
7.68578e-10
8.01365e-10
1.43838e-09
3.46951e-09
9.32209e-09
2.46989e-08
6.15367e-08
1.42443e-07
3.07187e-07
6.22274e-07
9.86663e-08
2.84746e-08
7.05891e-09
1.74856e-09
7.18211e-10
7.58729e-10
1.48537e-09
3.80448e-09
1.03627e-08
2.71463e-08
6.62794e-08
1.50311e-07
3.18766e-07
6.36659e-07
1.1356e-07
3.41643e-08
9.31352e-09
3.02275e-09
1.81858e-09
1.98738e-09
3.12176e-09
6.40998e-09
1.51238e-08
3.63188e-08
8.36552e-08
1.81583e-07
3.72038e-07
7.21314e-07
1.40508e-07
4.68732e-08
1.61288e-08
7.71293e-09
6.0313e-09
6.60601e-09
8.92488e-09
1.45915e-08
2.79367e-08
5.79156e-08
1.21108e-07
2.45789e-07
4.78612e-07
8.88437e-07
1.87974e-07
7.63417e-08
3.5355e-08
2.2093e-08
1.90552e-08
2.06786e-08
2.61776e-08
3.76356e-08
6.07926e-08
1.07324e-07
1.98142e-07
3.67192e-07
6.6736e-07
1.17043e-06
2.8411e-07
1.46381e-07
8.47055e-08
6.03368e-08
5.39042e-08
5.80411e-08
7.14046e-08
9.66103e-08
1.40991e-07
2.1918e-07
3.56655e-07
5.9303e-07
9.86009e-07
1.60652e-06
1.25227e-06
9.41428e-07
7.19079e-07
5.92695e-07
5.56729e-07
6.01711e-07
7.30197e-07
9.43977e-07
1.25413e-06
1.67461e-06
2.21588e-06
2.90639e-06
3.79492e-06
5.03091e-06
6.64084e-07
4.85024e-07
3.62584e-07
2.8853e-07
2.60131e-07
2.71471e-07
3.24235e-07
4.2464e-07
5.86763e-07
8.29462e-07
1.17158e-06
1.64194e-06
2.28396e-06
3.20499e-06
3.58088e-07
2.3777e-07
1.70698e-07
1.32088e-07
1.16222e-07
1.18767e-07
1.40191e-07
1.85137e-07
2.64954e-07
3.97403e-07
6.04846e-07
9.19076e-07
1.38569e-06
2.09191e-06
2.02982e-07
1.13684e-07
7.53339e-08
5.63405e-08
4.88336e-08
4.94803e-08
5.826e-08
7.79182e-08
1.16159e-07
1.87128e-07
3.12364e-07
5.23611e-07
8.67191e-07
1.42127e-06
1.23529e-07
5.51657e-08
3.16869e-08
2.2369e-08
1.91167e-08
1.939e-08
2.30603e-08
3.17173e-08
5.03126e-08
8.92032e-08