/*--------------------------------*- C++ -*----------------------------------*\
| =========                 |                                                 |
| \\      /  F ield         | OpenFOAM: The Open Source CFD Toolbox           |
|  \\    /   O peration     | Version:  v2106                                 |
|   \\  /    A nd           | Website:  www.openfoam.com                      |
|    \\/     M anipulation  |                                                 |
\*---------------------------------------------------------------------------*/
FoamFile
{
    version     2.0;
    format      ascii;
    arch        "LSB;label=32;scalar=64";
    class       volScalarField;
    location    "0.000167";
    object      Ttot;
}
// * * * * * * * * * * * * * * * * * * * * * * * * * * * * * * * * * * * * * //

dimensions      [0 0 0 1 0 0 0];

internalField   nonuniform List<scalar> 
17924
(
307.677
307.668
307.656
307.644
307.5
307.486
307.47
307.456
307.442
307.428
307.414
307.472
307.46
307.442
307.427
307.412
307.397
307.381
307.444
307.431
307.412
307.396
307.38
307.364
307.347
307.415
307.4
307.381
307.365
307.347
307.33
307.312
307.385
307.368
307.349
307.331
307.313
307.295
307.277
307.352
307.334
307.315
307.296
307.277
307.259
307.24
307.318
307.299
307.28
307.26
307.241
307.222
307.203
307.282
307.262
307.242
307.223
307.203
307.184
307.164
307.244
307.223
307.204
307.184
307.164
307.145
307.125
307.204
307.183
307.164
307.144
307.124
307.105
307.086
307.164
307.142
307.124
307.103
307.084
307.065
307.046
307.121
307.099
307.081
307.061
307.042
307.024
307.006
307.08
307.058
307.04
307.021
307.002
306.983
306.966
307.032
307.014
306.996
306.977
306.959
306.942
306.925
307.268
307.253
307.236
307.223
307.211
307.2
307.19
307.181
307.173
307.165
307.159
307.153
307.149
307.145
307.233
307.22
307.203
307.19
307.176
307.164
307.154
307.144
307.134
307.126
307.119
307.112
307.107
307.099
307.198
307.185
307.168
307.154
307.14
307.128
307.116
307.106
307.096
307.087
307.079
307.072
307.066
307.058
307.162
307.149
307.132
307.117
307.103
307.091
307.079
307.068
307.057
307.048
307.04
307.031
307.025
307.016
307.127
307.112
307.095
307.08
307.066
307.053
307.041
307.029
307.019
307.009
307
306.992
306.985
306.977
307.089
307.074
307.057
307.042
307.028
307.015
307.002
306.991
306.98
306.971
306.962
306.954
306.947
306.938
307.052
307.035
307.019
307.003
306.989
306.976
306.964
306.953
306.942
306.933
306.924
306.916
306.909
306.902
307.013
306.996
306.98
306.965
306.951
306.938
306.926
306.915
306.905
306.895
306.887
306.879
306.872
306.866
306.974
306.956
306.941
306.926
306.912
306.9
306.888
306.877
306.868
306.859
306.851
306.844
306.838
306.833
306.934
306.916
306.902
306.887
306.874
306.862
306.851
306.841
306.832
306.824
306.816
306.81
306.804
306.8
306.895
306.877
306.863
306.849
306.837
306.825
306.815
306.805
306.797
306.79
306.783
306.778
306.772
306.771
306.856
306.838
306.825
306.811
306.8
306.789
306.779
306.771
306.764
306.757
306.751
306.746
306.742
306.742
306.818
306.802
306.789
306.776
306.765
306.755
306.746
306.738
306.731
306.726
306.721
306.717
306.714
306.716
306.777
306.764
306.751
306.74
306.73
306.721
306.713
306.706
306.701
306.696
306.693
306.69
306.687
306.689
307.001
306.989
306.978
306.969
306.962
306.956
306.951
306.948
306.946
306.945
306.946
306.948
306.953
306.957
306.964
306.956
306.944
306.936
306.929
306.923
306.918
306.915
306.912
306.912
306.912
306.913
306.917
306.917
306.93
306.921
306.91
306.902
306.895
306.889
306.884
306.881
306.878
306.877
306.877
306.878
306.882
306.881
306.894
306.886
306.876
306.868
306.861
306.855
306.85
306.847
306.845
306.844
306.843
306.843
306.847
306.846
306.86
306.851
306.842
306.834
306.827
306.821
306.817
306.813
306.811
306.81
306.81
306.81
306.813
306.812
306.826
306.816
306.807
306.799
306.793
306.787
306.783
306.78
306.778
306.777
306.777
306.777
306.779
306.779
306.792
306.782
306.773
306.766
306.759
306.754
306.75
306.748
306.746
306.745
306.745
306.745
306.747
306.748
306.758
306.748
306.74
306.732
306.726
306.722
306.718
306.716
306.714
306.714
306.714
306.714
306.716
306.718
306.725
306.715
306.707
306.7
306.694
306.69
306.687
306.685
306.684
306.684
306.684
306.685
306.687
306.689
306.693
306.682
306.675
306.668
306.664
306.66
306.657
306.656
306.655
306.655
306.656
306.657
306.659
306.662
306.662
306.651
306.644
306.638
306.634
306.631
306.629
306.628
306.628
306.628
306.63
306.632
306.634
306.638
306.631
306.621
306.615
306.61
306.606
306.604
306.602
306.602
306.602
306.603
306.605
306.608
306.61
306.615
306.602
306.593
306.588
306.583
306.58
306.578
306.577
306.577
306.579
306.581
306.583
306.587
306.59
306.595
306.573
306.565
306.56
306.557
306.555
306.554
306.554
306.555
306.557
306.559
306.563
306.566
306.57
306.574
306.714
306.711
306.707
306.706
306.705
306.706
306.707
306.71
306.713
306.718
306.723
306.73
306.739
306.749
306.683
306.683
306.681
306.68
306.68
306.681
306.683
306.686
306.69
306.694
306.7
306.706
306.714
306.721
306.657
306.657
306.655
306.654
306.654
306.656
306.658
306.661
306.665
306.67
306.675
306.682
306.69
306.695
306.631
306.63
306.629
306.629
306.629
306.631
306.633
306.637
306.641
306.646
306.652
306.658
306.665
306.67
306.605
306.605
306.603
306.603
306.604
306.606
306.609
306.613
306.617
306.622
306.628
306.634
306.641
306.647
306.58
306.579
306.578
306.579
306.58
306.582
306.585
306.589
306.593
306.598
306.604
306.61
306.617
306.623
306.556
306.555
306.554
306.555
306.556
306.558
306.562
306.565
306.57
306.575
306.581
306.587
306.594
306.601
306.532
306.53
306.53
306.531
306.533
306.535
306.539
306.543
306.548
306.553
306.559
306.565
306.571
306.578
306.508
306.507
306.507
306.508
306.51
306.513
306.517
306.521
306.526
306.531
306.537
306.544
306.55
306.557
306.486
306.484
306.485
306.486
306.489
306.492
306.496
306.501
306.506
306.511
306.517
306.524
306.53
306.538
306.465
306.463
306.464
306.466
306.469
306.472
306.477
306.482
306.487
306.493
306.499
306.506
306.512
306.52
306.446
306.443
306.445
306.447
306.45
306.454
306.459
306.464
306.47
306.476
306.482
306.489
306.495
306.503
306.427
306.425
306.426
306.429
306.433
306.438
306.443
306.448
306.454
306.461
306.467
306.474
306.481
306.489
306.409
306.407
306.41
306.413
306.417
306.422
306.427
306.433
306.44
306.446
306.453
306.46
306.467
306.475
306.412
306.418
306.423
306.429
306.435
306.442
306.449
306.456
306.464
306.472
306.48
306.489
306.498
306.509
306.396
306.403
306.409
306.416
306.422
306.43
306.437
306.445
306.453
306.461
306.47
306.479
306.488
306.497
306.383
306.39
306.396
306.403
306.409
306.417
306.424
306.432
306.441
306.45
306.458
306.467
306.476
306.485
306.369
306.377
306.383
306.39
306.397
306.404
306.412
306.42
306.428
306.437
306.446
306.455
306.465
306.473
306.356
306.363
306.369
306.376
306.383
306.391
306.399
306.407
306.416
306.424
306.434
306.443
306.452
306.461
306.343
306.35
306.356
306.363
306.37
306.378
306.386
306.394
306.403
306.412
306.421
306.43
306.439
306.448
306.329
306.336
306.343
306.35
306.357
306.365
306.373
306.381
306.39
306.399
306.408
306.417
306.426
306.435
306.316
306.323
306.33
306.337
306.345
306.352
306.361
306.369
306.377
306.386
306.395
306.404
306.413
306.422
306.304
306.31
306.318
306.325
306.333
306.34
306.348
306.357
306.365
306.374
306.383
306.392
306.401
306.41
306.292
306.299
306.306
306.314
306.321
306.329
306.337
306.346
306.354
306.363
306.372
306.38
306.389
306.398
306.281
306.288
306.295
306.303
306.311
306.319
306.327
306.335
306.344
306.352
306.361
306.37
306.378
306.387
306.271
306.277
306.285
306.293
306.3
306.309
306.317
306.325
306.334
306.343
306.351
306.36
306.368
306.377
306.261
306.267
306.275
306.283
306.291
306.3
306.308
306.317
306.325
306.334
306.342
306.351
306.359
306.368
306.253
306.259
306.267
306.275
306.283
306.291
306.3
306.308
306.317
306.325
306.334
306.342
306.35
306.358
306.092
306.104
306.115
306.126
306.136
306.147
306.157
306.167
306.176
306.186
306.196
306.205
306.214
306.222
306.089
306.102
306.113
306.124
306.135
306.146
306.157
306.168
306.178
306.188
306.198
306.207
306.216
306.224
306.089
306.101
306.113
306.124
306.136
306.146
306.157
306.168
306.178
306.188
306.198
306.207
306.216
306.225
306.088
306.1
306.112
306.123
306.135
306.146
306.157
306.167
306.178
306.188
306.198
306.207
306.216
306.225
306.087
306.099
306.111
306.122
306.133
306.144
306.155
306.166
306.176
306.186
306.196
306.206
306.215
306.224
306.085
306.097
306.109
306.12
306.131
306.142
306.153
306.164
306.174
306.185
306.195
306.204
306.214
306.223
306.083
306.095
306.107
306.118
306.129
306.14
306.151
306.161
306.172
306.182
306.192
306.202
306.211
306.22
306.081
306.093
306.104
306.116
306.127
306.138
306.149
306.159
306.169
306.179
306.189
306.199
306.209
306.218
306.078
306.09
306.102
306.114
306.125
306.136
306.146
306.157
306.167
306.177
306.186
306.196
306.205
306.215
306.076
306.088
306.1
306.111
306.122
306.133
306.144
306.154
306.164
306.174
306.184
306.193
306.202
306.211
306.075
306.086
306.098
306.109
306.12
306.131
306.141
306.152
306.161
306.171
306.18
306.19
306.199
306.208
306.072
306.084
306.095
306.107
306.118
306.129
306.139
306.149
306.159
306.168
306.177
306.186
306.195
306.204
306.071
306.083
306.094
306.105
306.116
306.126
306.136
306.146
306.156
306.165
306.174
306.183
306.192
306.2
306.071
306.083
306.093
306.104
306.114
306.124
306.134
306.143
306.153
306.162
306.171
306.179
306.188
306.196
305.746
305.758
305.771
305.783
305.795
305.807
305.817
305.828
305.838
305.847
305.856
305.864
305.871
305.879
305.754
305.766
305.779
305.792
305.804
305.816
305.828
305.838
305.849
305.858
305.867
305.875
305.883
305.891
305.763
305.775
305.789
305.802
305.814
305.826
305.837
305.848
305.858
305.867
305.876
305.885
305.892
305.9
305.771
305.783
305.797
305.81
305.822
305.834
305.846
305.857
305.867
305.877
305.886
305.894
305.902
305.91
305.778
305.792
305.805
305.818
305.831
305.842
305.854
305.865
305.875
305.884
305.894
305.902
305.91
305.918
305.785
305.799
305.813
305.825
305.838
305.85
305.861
305.872
305.882
305.892
305.901
305.91
305.919
305.926
305.792
305.806
305.82
305.833
305.845
305.857
305.868
305.879
305.889
305.899
305.908
305.917
305.925
305.933
305.799
305.813
305.826
305.839
305.851
305.863
305.874
305.885
305.895
305.905
305.914
305.923
305.931
305.939
305.805
305.819
305.832
305.845
305.857
305.869
305.88
305.891
305.901
305.91
305.92
305.928
305.937
305.944
305.81
305.825
305.838
305.851
305.863
305.874
305.885
305.896
305.906
305.915
305.924
305.933
305.941
305.949
305.816
305.83
305.843
305.856
305.867
305.879
305.89
305.9
305.91
305.919
305.928
305.937
305.945
305.953
305.822
305.835
305.848
305.86
305.872
305.883
305.894
305.904
305.914
305.923
305.931
305.94
305.948
305.955
305.827
305.84
305.852
305.865
305.876
305.887
305.897
305.907
305.917
305.925
305.934
305.942
305.95
305.958
305.833
305.846
305.857
305.869
305.88
305.89
305.9
305.91
305.919
305.927
305.935
305.943
305.951
305.959
305.386
305.396
305.406
305.416
305.426
305.436
305.445
305.453
305.461
305.468
305.475
305.481
305.487
305.493
305.398
305.407
305.419
305.429
305.439
305.449
305.459
305.467
305.476
305.483
305.49
305.497
305.502
305.509
305.411
305.421
305.432
305.443
305.453
305.463
305.472
305.481
305.489
305.497
305.504
305.51
305.516
305.522
305.423
305.433
305.445
305.456
305.466
305.476
305.486
305.495
305.503
305.511
305.518
305.525
305.53
305.536
305.435
305.446
305.458
305.469
305.48
305.489
305.499
305.508
305.516
305.524
305.531
305.538
305.544
305.549
305.447
305.459
305.47
305.481
305.492
305.502
305.512
305.521
305.529
305.537
305.544
305.551
305.557
305.562
305.459
305.471
305.482
305.493
305.504
305.514
305.524
305.533
305.541
305.549
305.556
305.563
305.569
305.574
305.47
305.482
305.494
305.505
305.516
305.526
305.536
305.545
305.553
305.561
305.568
305.574
305.581
305.586
305.481
305.493
305.505
305.516
305.527
305.537
305.546
305.555
305.564
305.571
305.579
305.585
305.592
305.597
305.492
305.504
305.515
305.527
305.537
305.547
305.557
305.566
305.574
305.581
305.589
305.595
305.601
305.607
305.502
305.514
305.525
305.536
305.547
305.557
305.566
305.575
305.583
305.59
305.597
305.604
305.61
305.616
305.512
305.524
305.535
305.546
305.556
305.566
305.575
305.583
305.591
305.598
305.605
305.612
305.618
305.624
305.521
305.533
305.543
305.554
305.564
305.574
305.582
305.591
305.599
305.606
305.612
305.619
305.625
305.631
305.531
305.543
305.553
305.563
305.572
305.581
305.59
305.598
305.605
305.612
305.619
305.625
305.631
305.637
305.037
305.041
305.048
305.054
305.06
305.066
305.071
305.077
305.082
305.086
305.091
305.095
305.098
305.103
305.048
305.053
305.06
305.066
305.072
305.078
305.084
305.09
305.095
305.099
305.104
305.108
305.111
305.116
305.059
305.065
305.072
305.078
305.085
305.091
305.097
305.102
305.107
305.112
305.117
305.121
305.124
305.129
305.071
305.077
305.084
305.091
305.098
305.104
305.11
305.115
305.121
305.125
305.13
305.134
305.138
305.142
305.083
305.09
305.097
305.104
305.11
305.117
305.123
305.128
305.134
305.138
305.143
305.147
305.15
305.154
305.095
305.102
305.109
305.116
305.123
305.13
305.136
305.141
305.147
305.151
305.156
305.16
305.164
305.167
305.107
305.114
305.122
305.129
305.136
305.142
305.148
305.154
305.159
305.164
305.169
305.173
305.176
305.179
305.119
305.127
305.134
305.141
305.148
305.154
305.161
305.166
305.172
305.177
305.181
305.185
305.189
305.192
305.13
305.138
305.146
305.153
305.16
305.166
305.172
305.178
305.184
305.188
305.193
305.197
305.201
305.203
305.142
305.15
305.157
305.164
305.171
305.178
305.184
305.189
305.195
305.2
305.204
305.208
305.212
305.215
305.153
305.161
305.168
305.175
305.182
305.188
305.194
305.2
305.205
305.21
305.214
305.218
305.222
305.225
305.164
305.172
305.179
305.186
305.192
305.199
305.205
305.21
305.215
305.22
305.224
305.228
305.232
305.235
305.174
305.182
305.189
305.196
305.202
305.208
305.214
305.22
305.225
305.229
305.233
305.237
305.241
305.245
305.185
305.193
305.199
305.206
305.212
305.218
305.223
305.228
305.233
305.237
305.242
305.246
305.25
305.254
304.712
304.714
304.716
304.719
304.721
304.723
304.725
304.728
304.73
304.731
304.733
304.735
304.736
304.739
304.72
304.722
304.725
304.727
304.729
304.732
304.734
304.736
304.738
304.74
304.742
304.744
304.745
304.748
304.729
304.73
304.733
304.736
304.738
304.741
304.743
304.745
304.747
304.749
304.751
304.752
304.754
304.756
304.737
304.739
304.742
304.745
304.747
304.75
304.752
304.754
304.756
304.758
304.76
304.762
304.763
304.765
304.746
304.748
304.751
304.754
304.757
304.759
304.761
304.764
304.766
304.768
304.769
304.771
304.772
304.774
304.755
304.758
304.761
304.763
304.766
304.768
304.771
304.773
304.775
304.777
304.779
304.78
304.782
304.783
304.764
304.767
304.77
304.772
304.775
304.778
304.78
304.782
304.784
304.786
304.788
304.789
304.791
304.792
304.773
304.776
304.779
304.782
304.784
304.787
304.789
304.792
304.794
304.796
304.797
304.799
304.8
304.801
304.782
304.785
304.788
304.791
304.794
304.796
304.798
304.801
304.803
304.805
304.806
304.808
304.809
304.81
304.791
304.794
304.797
304.8
304.802
304.805
304.807
304.81
304.812
304.814
304.815
304.817
304.818
304.819
304.799
304.803
304.806
304.808
304.811
304.814
304.816
304.818
304.82
304.822
304.824
304.825
304.827
304.827
304.808
304.812
304.814
304.817
304.82
304.822
304.824
304.827
304.829
304.831
304.832
304.834
304.835
304.835
304.816
304.819
304.822
304.825
304.828
304.83
304.833
304.835
304.837
304.838
304.84
304.842
304.843
304.843
304.825
304.828
304.83
304.833
304.835
304.838
304.84
304.842
304.844
304.846
304.848
304.849
304.851
304.852
304.412
304.412
304.412
304.412
304.412
304.412
304.412
304.412
304.411
304.411
304.411
304.411
304.41
304.41
304.417
304.417
304.417
304.417
304.417
304.417
304.416
304.416
304.416
304.416
304.415
304.415
304.415
304.415
304.422
304.421
304.421
304.421
304.421
304.421
304.421
304.421
304.421
304.42
304.42
304.42
304.419
304.42
304.427
304.426
304.426
304.426
304.426
304.426
304.426
304.426
304.425
304.425
304.425
304.424
304.424
304.424
304.432
304.431
304.431
304.431
304.431
304.431
304.431
304.431
304.43
304.43
304.43
304.429
304.429
304.429
304.437
304.437
304.437
304.436
304.436
304.436
304.436
304.436
304.435
304.435
304.435
304.434
304.434
304.433
304.442
304.442
304.442
304.442
304.441
304.441
304.441
304.441
304.44
304.44
304.44
304.439
304.438
304.438
304.447
304.447
304.447
304.447
304.446
304.446
304.446
304.446
304.445
304.445
304.444
304.444
304.443
304.442
304.452
304.452
304.452
304.452
304.451
304.451
304.451
304.451
304.45
304.45
304.449
304.449
304.448
304.447
304.457
304.457
304.457
304.457
304.456
304.456
304.456
304.456
304.455
304.455
304.454
304.454
304.453
304.452
304.461
304.462
304.462
304.461
304.461
304.461
304.461
304.46
304.46
304.46
304.459
304.459
304.458
304.457
304.466
304.466
304.466
304.466
304.466
304.466
304.465
304.465
304.465
304.464
304.464
304.463
304.463
304.461
304.47
304.47
304.47
304.47
304.47
304.47
304.47
304.47
304.47
304.469
304.469
304.468
304.467
304.466
304.474
304.474
304.474
304.474
304.474
304.474
304.474
304.474
304.474
304.474
304.473
304.473
304.472
304.471
304.124
304.124
304.123
304.123
304.122
304.121
304.12
304.118
304.117
304.116
304.114
304.113
304.111
304.11
304.127
304.127
304.126
304.125
304.124
304.123
304.122
304.12
304.119
304.118
304.116
304.114
304.113
304.111
304.13
304.129
304.128
304.127
304.126
304.125
304.124
304.122
304.121
304.12
304.118
304.116
304.115
304.113
304.132
304.131
304.13
304.129
304.128
304.127
304.126
304.124
304.123
304.121
304.12
304.118
304.116
304.115
304.134
304.133
304.132
304.131
304.13
304.129
304.127
304.126
304.125
304.123
304.121
304.12
304.118
304.116
304.136
304.135
304.134
304.133
304.132
304.13
304.129
304.128
304.126
304.125
304.123
304.121
304.119
304.118
304.138
304.137
304.136
304.135
304.133
304.132
304.131
304.129
304.128
304.126
304.125
304.123
304.121
304.119
304.14
304.139
304.137
304.136
304.135
304.134
304.132
304.131
304.129
304.128
304.126
304.124
304.122
304.12
304.141
304.14
304.139
304.138
304.136
304.135
304.134
304.132
304.131
304.129
304.127
304.126
304.124
304.121
304.142
304.141
304.14
304.139
304.138
304.136
304.135
304.134
304.132
304.13
304.129
304.127
304.125
304.123
304.143
304.142
304.141
304.14
304.139
304.138
304.136
304.135
304.133
304.132
304.13
304.128
304.126
304.124
304.144
304.143
304.142
304.141
304.14
304.139
304.137
304.136
304.135
304.133
304.131
304.129
304.127
304.125
304.145
304.144
304.143
304.142
304.141
304.14
304.139
304.137
304.136
304.134
304.133
304.131
304.129
304.126
304.145
304.144
304.143
304.142
304.141
304.14
304.139
304.138
304.137
304.135
304.134
304.132
304.13
304.127
303.843
303.843
303.842
303.842
303.841
303.84
303.839
303.837
303.836
303.834
303.832
303.83
303.828
303.825
303.844
303.844
303.843
303.843
303.842
303.841
303.84
303.838
303.836
303.834
303.833
303.83
303.828
303.826
303.845
303.845
303.844
303.844
303.843
303.842
303.84
303.839
303.837
303.835
303.833
303.831
303.829
303.826
303.846
303.845
303.845
303.844
303.843
303.842
303.841
303.839
303.837
303.836
303.834
303.831
303.829
303.827
303.846
303.846
303.845
303.844
303.843
303.842
303.841
303.839
303.838
303.836
303.834
303.832
303.829
303.827
303.847
303.846
303.845
303.844
303.843
303.842
303.841
303.839
303.838
303.836
303.834
303.831
303.829
303.826
303.846
303.846
303.845
303.844
303.843
303.842
303.841
303.839
303.837
303.836
303.833
303.831
303.829
303.826
303.846
303.846
303.845
303.844
303.843
303.842
303.84
303.839
303.837
303.835
303.833
303.831
303.828
303.826
303.845
303.845
303.844
303.843
303.842
303.841
303.84
303.838
303.836
303.834
303.832
303.83
303.827
303.825
303.845
303.844
303.843
303.842
303.841
303.84
303.839
303.837
303.836
303.834
303.832
303.829
303.827
303.824
303.843
303.843
303.842
303.841
303.84
303.839
303.838
303.836
303.835
303.833
303.831
303.828
303.826
303.823
303.842
303.841
303.841
303.84
303.839
303.838
303.837
303.835
303.834
303.832
303.83
303.827
303.825
303.822
303.84
303.84
303.839
303.838
303.838
303.837
303.835
303.834
303.832
303.83
303.828
303.826
303.823
303.821
303.838
303.837
303.837
303.837
303.836
303.835
303.834
303.833
303.831
303.829
303.827
303.825
303.823
303.82
303.567
303.567
303.567
303.567
303.567
303.566
303.565
303.564
303.563
303.561
303.56
303.557
303.555
303.553
303.567
303.568
303.568
303.568
303.567
303.567
303.566
303.565
303.563
303.562
303.56
303.558
303.555
303.553
303.568
303.568
303.568
303.568
303.568
303.567
303.566
303.565
303.564
303.562
303.56
303.558
303.556
303.553
303.568
303.568
303.568
303.568
303.568
303.567
303.566
303.565
303.564
303.562
303.56
303.558
303.556
303.553
303.568
303.568
303.568
303.568
303.567
303.567
303.566
303.565
303.563
303.562
303.56
303.558
303.556
303.553
303.567
303.567
303.568
303.567
303.567
303.566
303.566
303.564
303.563
303.561
303.559
303.557
303.555
303.553
303.566
303.567
303.567
303.567
303.566
303.566
303.565
303.564
303.562
303.561
303.559
303.557
303.554
303.552
303.565
303.566
303.566
303.566
303.565
303.565
303.564
303.563
303.561
303.56
303.558
303.556
303.553
303.551
303.564
303.564
303.564
303.564
303.564
303.563
303.562
303.561
303.56
303.558
303.556
303.554
303.552
303.55
303.563
303.563
303.563
303.563
303.562
303.562
303.561
303.56
303.558
303.557
303.555
303.553
303.55
303.548
303.561
303.561
303.561
303.561
303.561
303.56
303.559
303.558
303.557
303.555
303.553
303.551
303.549
303.546
303.559
303.559
303.559
303.559
303.559
303.558
303.557
303.556
303.555
303.553
303.551
303.549
303.547
303.545
303.556
303.556
303.557
303.557
303.556
303.556
303.555
303.554
303.553
303.551
303.549
303.547
303.545
303.543
303.554
303.554
303.554
303.554
303.554
303.553
303.553
303.552
303.55
303.549
303.547
303.545
303.543
303.541
303.304
303.304
303.304
303.304
303.304
303.304
303.304
303.303
303.302
303.301
303.3
303.299
303.297
303.295
303.304
303.304
303.304
303.305
303.305
303.304
303.304
303.303
303.303
303.301
303.3
303.299
303.297
303.295
303.304
303.304
303.305
303.305
303.305
303.305
303.304
303.304
303.303
303.302
303.3
303.299
303.297
303.296
303.304
303.304
303.305
303.305
303.305
303.305
303.304
303.304
303.303
303.302
303.3
303.299
303.297
303.296
303.303
303.304
303.304
303.305
303.305
303.304
303.304
303.303
303.303
303.302
303.3
303.299
303.297
303.296
303.303
303.303
303.304
303.304
303.304
303.304
303.304
303.303
303.302
303.301
303.3
303.298
303.297
303.295
303.302
303.303
303.303
303.303
303.304
303.303
303.303
303.302
303.302
303.301
303.299
303.298
303.296
303.295
303.301
303.302
303.302
303.303
303.303
303.303
303.302
303.302
303.301
303.3
303.298
303.297
303.295
303.294
303.3
303.301
303.301
303.301
303.302
303.301
303.301
303.3
303.3
303.299
303.297
303.296
303.294
303.293
303.299
303.299
303.3
303.3
303.3
303.3
303.3
303.299
303.298
303.297
303.296
303.295
303.293
303.292
303.298
303.298
303.298
303.299
303.299
303.299
303.298
303.298
303.297
303.296
303.295
303.293
303.292
303.29
303.296
303.296
303.297
303.297
303.297
303.297
303.297
303.296
303.295
303.294
303.293
303.292
303.29
303.289
303.295
303.295
303.295
303.295
303.295
303.295
303.295
303.294
303.293
303.292
303.291
303.29
303.288
303.287
303.293
303.293
303.293
303.293
303.293
303.293
303.293
303.292
303.291
303.291
303.289
303.288
303.287
303.285
303.061
303.061
303.061
303.061
303.061
303.061
303.061
303.061
303.06
303.06
303.059
303.059
303.058
303.058
303.061
303.061
303.061
303.061
303.061
303.061
303.061
303.061
303.06
303.06
303.059
303.059
303.058
303.058
303.061
303.061
303.061
303.061
303.061
303.061
303.061
303.06
303.06
303.06
303.059
303.059
303.058
303.058
303.06
303.06
303.061
303.061
303.061
303.061
303.06
303.06
303.06
303.059
303.059
303.058
303.058
303.057
303.06
303.06
303.06
303.06
303.06
303.06
303.06
303.06
303.06
303.059
303.059
303.058
303.058
303.057
303.06
303.06
303.06
303.06
303.06
303.06
303.06
303.06
303.059
303.059
303.058
303.058
303.057
303.057
303.059
303.059
303.059
303.06
303.06
303.06
303.059
303.059
303.059
303.058
303.058
303.058
303.057
303.057
303.059
303.059
303.059
303.059
303.059
303.059
303.059
303.059
303.058
303.058
303.058
303.057
303.057
303.056
303.058
303.058
303.058
303.058
303.059
303.058
303.058
303.058
303.058
303.057
303.057
303.057
303.056
303.056
303.058
303.058
303.058
303.058
303.058
303.058
303.058
303.057
303.057
303.057
303.056
303.056
303.056
303.055
303.057
303.057
303.057
303.057
303.057
303.057
303.057
303.057
303.056
303.056
303.056
303.055
303.055
303.054
303.057
303.057
303.057
303.057
303.057
303.056
303.056
303.056
303.056
303.055
303.055
303.055
303.054
303.054
303.056
303.056
303.056
303.056
303.056
303.056
303.056
303.055
303.055
303.055
303.054
303.054
303.053
303.053
303.055
303.055
303.055
303.055
303.055
303.055
303.055
303.054
303.054
303.054
303.054
303.053
303.053
303.053
302.845
302.844
302.843
302.843
302.842
302.842
302.842
302.842
302.842
302.842
302.842
302.843
302.843
302.844
302.844
302.843
302.843
302.842
302.842
302.841
302.841
302.841
302.841
302.841
302.842
302.842
302.842
302.843
302.843
302.842
302.842
302.841
302.841
302.841
302.84
302.84
302.84
302.84
302.841
302.841
302.842
302.842
302.842
302.842
302.841
302.841
302.84
302.84
302.84
302.84
302.84
302.84
302.84
302.84
302.841
302.842
302.842
302.841
302.84
302.84
302.84
302.839
302.839
302.839
302.839
302.839
302.84
302.84
302.841
302.841
302.841
302.841
302.84
302.84
302.839
302.839
302.839
302.839
302.839
302.839
302.839
302.84
302.84
302.841
302.841
302.84
302.84
302.839
302.839
302.838
302.838
302.838
302.838
302.839
302.839
302.839
302.84
302.841
302.841
302.84
302.839
302.839
302.839
302.838
302.838
302.838
302.838
302.838
302.839
302.839
302.84
302.84
302.841
302.84
302.839
302.839
302.838
302.838
302.838
302.838
302.838
302.838
302.839
302.839
302.84
302.84
302.841
302.84
302.839
302.839
302.839
302.838
302.838
302.838
302.838
302.838
302.839
302.839
302.84
302.84
302.841
302.84
302.84
302.839
302.839
302.838
302.838
302.838
302.838
302.839
302.839
302.839
302.84
302.841
302.841
302.841
302.84
302.839
302.839
302.839
302.839
302.839
302.839
302.839
302.839
302.84
302.84
302.841
302.842
302.841
302.84
302.84
302.84
302.839
302.839
302.839
302.839
302.839
302.84
302.84
302.84
302.841
302.843
302.842
302.841
302.841
302.84
302.84
302.84
302.839
302.84
302.84
302.84
302.84
302.841
302.842
302.653
302.651
302.65
302.649
302.649
302.648
302.648
302.648
302.648
302.649
302.649
302.65
302.651
302.653
302.652
302.65
302.649
302.648
302.647
302.647
302.647
302.647
302.647
302.647
302.648
302.649
302.65
302.651
302.65
302.649
302.648
302.647
302.646
302.646
302.645
302.645
302.646
302.646
302.647
302.648
302.649
302.65
302.649
302.648
302.647
302.646
302.645
302.645
302.644
302.644
302.645
302.645
302.646
302.647
302.648
302.649
302.649
302.647
302.646
302.645
302.644
302.644
302.643
302.643
302.644
302.644
302.645
302.646
302.647
302.648
302.648
302.647
302.645
302.644
302.644
302.643
302.643
302.643
302.643
302.644
302.644
302.645
302.646
302.648
302.648
302.646
302.645
302.644
302.643
302.643
302.642
302.642
302.643
302.643
302.644
302.645
302.646
302.648
302.648
302.646
302.645
302.644
302.643
302.643
302.642
302.642
302.643
302.643
302.644
302.645
302.646
302.648
302.648
302.646
302.645
302.644
302.643
302.643
302.643
302.643
302.643
302.643
302.644
302.645
302.646
302.648
302.648
302.647
302.646
302.645
302.644
302.643
302.643
302.643
302.643
302.644
302.645
302.646
302.647
302.648
302.649
302.647
302.646
302.645
302.645
302.644
302.644
302.644
302.644
302.644
302.645
302.646
302.647
302.649
302.65
302.648
302.647
302.646
302.646
302.645
302.645
302.645
302.645
302.645
302.646
302.647
302.648
302.65
302.651
302.649
302.648
302.647
302.647
302.646
302.646
302.646
302.646
302.647
302.647
302.648
302.649
302.651
302.652
302.651
302.65
302.649
302.648
302.648
302.647
302.647
302.647
302.648
302.648
302.649
302.65
302.652
302.482
302.48
302.479
302.478
302.477
302.477
302.477
302.477
302.477
302.477
302.478
302.479
302.481
302.479
302.478
302.477
302.476
302.476
302.475
302.475
302.476
302.476
302.477
302.478
302.48
302.478
302.477
302.476
302.475
302.474
302.474
302.474
302.474
302.475
302.475
302.476
302.479
302.477
302.476
302.475
302.474
302.473
302.473
302.473
302.473
302.474
302.474
302.475
302.478
302.476
302.475
302.474
302.473
302.472
302.472
302.472
302.472
302.473
302.474
302.474
302.477
302.476
302.474
302.473
302.472
302.472
302.472
302.471
302.472
302.472
302.473
302.474
302.477
302.475
302.474
302.473
302.472
302.472
302.471
302.471
302.471
302.472
302.473
302.474
302.477
302.475
302.474
302.473
302.472
302.471
302.471
302.471
302.471
302.472
302.473
302.473
302.477
302.475
302.474
302.473
302.472
302.472
302.471
302.471
302.472
302.472
302.473
302.474
302.477
302.476
302.475
302.474
302.473
302.472
302.472
302.472
302.472
302.472
302.473
302.474
302.478
302.477
302.475
302.474
302.473
302.473
302.473
302.473
302.473
302.473
302.474
302.475
302.479
302.477
302.476
302.475
302.474
302.474
302.474
302.473
302.474
302.474
302.475
302.476
302.48
302.479
302.477
302.477
302.476
302.475
302.475
302.475
302.475
302.475
302.476
302.477
302.481
302.48
302.479
302.478
302.477
302.476
302.476
302.476
302.476
302.476
302.477
302.478
307.69
307.704
307.715
307.727
307.737
307.747
307.683
307.7
307.714
307.728
307.738
307.748
307.676
307.696
307.713
307.73
307.743
307.755
307.667
307.691
307.711
307.732
307.749
307.765
307.522
307.544
307.563
307.583
307.601
307.619
307.509
307.535
307.556
307.579
307.597
307.615
307.498
307.527
307.552
307.576
307.595
307.614
307.486
307.519
307.547
307.573
307.596
307.618
307.475
307.511
307.542
307.572
307.599
307.624
307.464
307.502
307.537
307.571
307.602
307.632
307.452
307.493
307.531
307.569
307.604
307.639
307.297
307.328
307.354
307.381
307.405
307.43
307.282
307.316
307.345
307.375
307.402
307.428
307.271
307.308
307.34
307.372
307.401
307.428
307.26
307.3
307.335