/*--------------------------------*- C++ -*----------------------------------*\
| =========                 |                                                 |
| \\      /  F ield         | OpenFOAM: The Open Source CFD Toolbox           |
|  \\    /   O peration     | Version:  v2106                                 |
|   \\  /    A nd           | Website:  www.openfoam.com                      |
|    \\/     M anipulation  |                                                 |
\*---------------------------------------------------------------------------*/
FoamFile
{
    version     2.0;
    format      ascii;
    arch        "LSB;label=32;scalar=64";
    class       surfaceScalarField;
    location    "0.000152";
    object      phi;
}
// * * * * * * * * * * * * * * * * * * * * * * * * * * * * * * * * * * * * * //

dimensions      [1 0 -1 0 0 0 0];

internalField   nonuniform List<scalar> 
53237
(
-6.53077e-11
-1.0347e-10
-3.53993e-08
1.38794e-10
-4.87034e-11
-1.06137e-10
-3.53953e-08
1.40829e-10
-3.03445e-11
-1.11121e-10
-3.53927e-08
1.45973e-10
-1.02568e-11
-1.16391e-10
-3.5391e-08
1.52107e-10
1.16897e-11
-1.20045e-10
-3.53896e-08
1.56255e-10
3.52499e-11
-1.22803e-10
-3.53887e-08
1.58999e-10
5.99389e-11
-1.24639e-10
-3.53892e-08
1.61121e-10
8.60698e-11
-1.27543e-10
-3.53914e-08
1.64311e-10
1.12048e-10
-1.25754e-10
-3.53956e-08
1.61132e-10
1.39961e-10
-1.44213e-10
-3.53997e-08
1.76327e-10
-1.37622e-10
-3.53994e-08
1.67775e-10
1.65807e-10
-1.02213e-10
-8.8107e-11
-3.54083e-08
-8.3083e-11
-7.28772e-11
-3.54037e-08
-6.50593e-11
-7.63325e-11
-3.53974e-08
-4.86688e-11
-7.69943e-11
-3.53922e-08
-3.28183e-11
-7.97265e-11
-3.53874e-08
-1.51126e-11
-8.30549e-11
-3.53845e-08
5.43004e-12
-8.61361e-11
-3.5383e-08
2.8491e-11
-8.93224e-11
-3.53833e-08
5.5018e-11
-9.20491e-11
-3.53856e-08
8.52664e-11
-9.60333e-11
-3.53889e-08
1.16702e-10
-9.62121e-11
-3.53938e-08
1.46009e-10
-1.1295e-10
-3.53983e-08
-1.08608e-10
-3.54011e-08
1.75468e-10
-1.0147e-10
-6.46944e-11
-3.54091e-08
1.25643e-10
-8.69638e-11
-6.29941e-11
-3.54064e-08
-7.22346e-11
-5.16526e-11
-3.53992e-08
-5.83375e-11
-5.37108e-11
-3.53926e-08
-4.56103e-11
-5.32398e-11
-3.53865e-08
-3.30842e-11
-5.44132e-11
-3.53815e-08
-1.79972e-11
-5.60131e-11
-3.53785e-08
-1.51272e-15
-5.79416e-11
-3.5377e-08
1.99213e-11
-6.03676e-11
-3.53776e-08
4.33912e-11
-6.26019e-11
-3.53804e-08
7.07895e-11
-6.642e-11
-3.53842e-08
9.9731e-11
-6.71497e-11
-3.53891e-08
1.27312e-10
-8.12222e-11
-3.53956e-08
-8.27811e-11
-3.53987e-08
1.59078e-10
-1.05558e-10
-4.93356e-11
-3.54061e-08
1.28509e-10
-8.94766e-11
-4.4266e-11
-3.5403e-08
-7.42257e-11
-3.67477e-11
-3.53954e-08
-6.01895e-11
-3.76297e-11
-3.5389e-08
-4.7409e-11
-3.64624e-11
-3.53828e-08
-3.44335e-11
-3.63501e-11
-3.53776e-08
-1.95291e-11
-3.63604e-11
-3.53745e-08
-1.92433e-12
-3.67026e-11
-3.53734e-08
1.82957e-11
-3.75979e-11
-3.53745e-08
4.19446e-11
-3.87217e-11
-3.53775e-08
6.98641e-11
-4.16512e-11
-3.53816e-08
9.98834e-11
-4.2231e-11
-3.53867e-08
1.29397e-10
-5.30059e-11
-3.53929e-08
-5.85275e-11
-3.53965e-08
1.6211e-10
-1.06125e-10
-3.67418e-11
-3.54044e-08
1.27051e-10
-8.85466e-11
-3.25594e-11
-3.54004e-08
-7.28386e-11
-2.84111e-11
-3.53921e-08
-5.88664e-11
-2.86053e-11
-3.53856e-08
-4.6548e-11
-2.71896e-11
-3.53789e-08
-3.40286e-11
-2.60986e-11
-3.53736e-08
-1.95839e-11
-2.46497e-11
-3.53706e-08
-2.8199e-12
-2.31636e-11
-3.53699e-08
1.63949e-11
-2.22203e-11
-3.53716e-08
3.92181e-11
-2.17526e-11
-3.53753e-08
6.65996e-11
-2.3061e-11
-3.53801e-08
9.66088e-11
-2.34291e-11
-3.53851e-08
1.27161e-10
-2.99557e-11
-3.53922e-08
-3.65965e-11
-3.53962e-08
1.58764e-10
-1.08336e-10
-2.58408e-11
-3.54035e-08
1.2881e-10
-8.94173e-11
-2.52724e-11
-3.53976e-08
-7.32249e-11
-2.42861e-11
-3.53896e-08
-5.88058e-11
-2.41425e-11
-3.5383e-08
-4.62373e-11
-2.27169e-11
-3.53762e-08
-3.33297e-11
-2.09397e-11
-3.53709e-08
-1.85682e-11
-1.81646e-11
-3.53681e-08
-1.90765e-12
-1.48906e-11
-3.53677e-08
1.70157e-11
-1.22813e-11
-3.53697e-08
3.93362e-11
-9.91784e-12
-3.5374e-08
6.60726e-11
-9.02848e-12
-3.53793e-08
9.56703e-11
-8.29341e-12
-3.53845e-08
1.26752e-10
-1.11528e-11
-3.53917e-08
-1.61616e-11
-3.53971e-08
1.57292e-10
-1.1207e-10
-1.45344e-11
-3.54024e-08
1.33438e-10
-9.11705e-11
-1.80077e-11
-3.53953e-08
-7.33362e-11
-1.9718e-11
-3.53873e-08
-5.74307e-11
-2.0184e-11
-3.53806e-08
-4.37318e-11
-1.89331e-11
-3.53739e-08
-3.00369e-11
-1.66153e-11
-3.53688e-08
-1.50173e-11
-1.26913e-11
-3.53665e-08
1.22356e-12
-7.89616e-12
-3.53669e-08
1.91832e-11
-4.12944e-12
-3.53694e-08
4.03021e-11
-3.45036e-13
-3.53742e-08
6.60075e-11
2.32138e-12
-3.538e-08
9.49383e-11
4.00128e-12
-3.53854e-08
1.2612e-10
4.34185e-12
-3.53925e-08
3.06258e-12
-3.53985e-08
1.55786e-10
-1.15219e-10
5.15355e-13
-3.54006e-08
1.37337e-10
-9.31066e-11
-6.66237e-12
-3.53935e-08
-7.35479e-11
-1.11046e-11
-3.53855e-08
-5.58115e-11
-1.20032e-11
-3.53791e-08
-4.04383e-11
-1.12184e-11
-3.53727e-08
-2.56359e-11
-8.6588e-12
-3.53681e-08
-1.01387e-11
-4.21723e-12
-3.53664e-08
5.97751e-12
1.34144e-12
-3.53673e-08
2.31744e-11
5.76542e-12
-3.53701e-08
4.31846e-11
1.04066e-11
-3.53752e-08
6.7507e-11
1.4427e-11
-3.53811e-08
9.49261e-11
1.6297e-11
-3.53865e-08
1.24836e-10
1.98564e-11
-3.53934e-08
2.24747e-11
-3.53992e-08
1.53517e-10
-1.17675e-10
1.98402e-11
-3.53982e-08
1.40788e-10
-9.53282e-11
1.05342e-11
-3.53923e-08
-7.44634e-11
3.20543e-12
-3.53843e-08
-5.5134e-11
3.1116e-12
-3.53783e-08
-3.81468e-11
3.47941e-12
-3.53725e-08
-2.22039e-11
6.0826e-12
-3.53683e-08
-6.03276e-12
1.0212e-11
-3.53671e-08
1.03831e-11
1.55832e-11
-3.53682e-08
2.73869e-11
2.02096e-11
-3.53711e-08
4.68055e-11
2.50726e-11
-3.53763e-08
6.99785e-11
2.99631e-11
-3.53823e-08
9.56669e-11
3.18308e-11
-3.53875e-08
1.23438e-10
3.84004e-11
-3.53943e-08
4.30263e-11
-3.5399e-08
1.51487e-10
-1.19623e-10
4.32872e-11
-3.53968e-08
1.44879e-10
-9.69809e-11
3.57878e-11
-3.53924e-08
-7.48262e-11
2.58948e-11
-3.53844e-08
-5.39421e-11
2.67365e-11
-3.53788e-08
-3.5393e-11
2.68015e-11
-3.53736e-08
-1.82451e-11
2.93569e-11
-3.537e-08
-1.29933e-12
3.25754e-11
-3.53692e-08
1.54133e-11
3.70928e-11
-3.53706e-08
3.19649e-11
4.14985e-11
-3.53737e-08
5.04013e-11
4.55414e-11
-3.53787e-08
7.22513e-11
5.00342e-11
-3.53844e-08
9.6345e-11
5.11232e-11
-3.53898e-08
1.21798e-10
6.06947e-11
-3.53962e-08
6.45197e-11
-3.53993e-08
1.49882e-10
-1.22784e-10
7.11867e-11
-3.5397e-08
1.5067e-10
-9.96769e-11
6.91964e-11
-3.5393e-08
-7.6013e-11
5.67613e-11
-3.53859e-08
-5.34839e-11
5.86041e-11
-3.53802e-08
-3.34684e-11
5.8744e-11
-3.53755e-08
-1.50474e-11
6.13207e-11
-3.53726e-08
2.70545e-12
6.36031e-11
-3.53722e-08
1.97885e-11
6.67849e-11
-3.53738e-08
3.63542e-11
7.01467e-11
-3.53769e-08
5.44379e-11
7.23265e-11
-3.53817e-08
7.55351e-11
7.54014e-11
-3.53871e-08
9.84301e-11
7.5142e-11
-3.53925e-08
1.21914e-10
8.74681e-11
-3.53981e-08
8.69248e-11
-3.54004e-08
1.50818e-10
-1.21214e-10
1.0118e-10
-3.53993e-08
1.499e-10
-9.85174e-11
1.06952e-10
-3.53956e-08
-7.45188e-11
9.21871e-11
-3.53883e-08
-5.13846e-11
9.53739e-11
-3.53827e-08
-3.08251e-11
9.57612e-11
-3.53785e-08
-1.20027e-11
9.81977e-11
-3.53759e-08
5.74774e-12
9.98074e-11
-3.53757e-08
2.24498e-11
1.01451e-10
-3.53775e-08
3.85758e-11
1.02927e-10
-3.53807e-08
5.58715e-11
1.0287e-10
-3.53852e-08
7.56023e-11
1.0408e-10
-3.53904e-08
9.67004e-11
1.01843e-10
-3.53957e-08
1.18011e-10
1.16542e-10
-3.54015e-08
1.09405e-10
-3.54033e-08
1.46472e-10
-1.39748e-10
1.33381e-10
-3.54015e-08
1.68104e-10
-1.13502e-10
1.43136e-10
-3.53979e-08
-8.57906e-11
1.27096e-10
-3.53928e-08
-5.90173e-11
1.3242e-10
-3.53872e-08
-3.50142e-11
1.33608e-10
-3.53836e-08
-1.29863e-11
1.36414e-10
-3.53812e-08
7.44438e-12
1.3807e-10
-3.53814e-08
2.64652e-11
1.38322e-10
-3.53832e-08
4.50966e-11
1.37202e-10
-3.53863e-08
6.49245e-11
1.34288e-10
-3.53909e-08
8.73569e-11
1.32837e-10
-3.53956e-08
1.11642e-10
1.27291e-10
-3.5401e-08
1.35966e-10
1.43454e-10
-3.54045e-08
1.34231e-10
-3.5406e-08
1.62894e-10
-1.31892e-10
-3.53995e-08
1.67141e-10
1.56156e-10
-1.06468e-10
-3.53988e-08
1.79462e-10
-8.31335e-11
-3.53943e-08
1.65583e-10
-5.94606e-11
-3.53896e-08
1.71575e-10
-3.66875e-11
-3.53872e-08
1.71726e-10
-1.42312e-11
-3.53868e-08
1.73394e-10
7.45077e-12
-3.5388e-08
1.74131e-10
2.81293e-11
-3.53899e-08
1.72791e-10
4.78607e-11
-3.53918e-08
1.70024e-10
6.68678e-11
-3.53944e-08
1.65992e-10
8.59759e-11
-3.53979e-08
1.64145e-10
1.05239e-10
-3.54026e-08
1.56792e-10
1.27616e-10
-3.54059e-08
1.71366e-10
-3.54044e-08
1.51333e-10
1.59158e-10
-1.46726e-10
-1.55424e-10
-3.90812e-08
1.9312e-10
1.77807e-10
-1.17545e-10
-1.59166e-10
-3.908e-08
1.98003e-10
-9.00757e-11
-1.35662e-10
-3.90765e-08
1.77602e-10
-6.6942e-11
-1.35548e-10
-3.90693e-08
1.78914e-10
-4.4662e-11
-1.32883e-10
-3.90656e-08
1.76006e-10
-2.30019e-11
-1.33424e-10
-3.90628e-08
1.76343e-10
-1.38647e-12
-1.35775e-10
-3.90608e-08
1.78886e-10
2.18466e-11
-1.39462e-10
-3.90588e-08
1.81751e-10
4.77748e-11
-1.44774e-10
-3.90574e-08
1.85646e-10
7.58047e-11
-1.49692e-10
-3.90579e-08
1.89201e-10
1.05002e-10
-1.55972e-10
-3.90607e-08
1.9308e-10
1.37018e-10
-1.57621e-10
-3.90684e-08
1.90945e-10
1.66736e-10
-1.78423e-10
-3.90742e-08
2.08156e-10
-1.73767e-10
-3.90786e-08
1.99112e-10
1.9473e-10
-1.4949e-10
-1.22959e-10
-3.90819e-08
1.85451e-10
-1.19032e-10
-1.25151e-10
-3.90769e-08
-8.70439e-11
-1.03567e-10
-3.90734e-08
-6.16666e-11
-1.01169e-10
-3.90658e-08
-4.0353e-11
-9.66403e-11
-3.90611e-08
-2.27652e-11
-9.5442e-11
-3.90558e-08
-6.44386e-12
-9.67109e-11
-3.90521e-08
1.32103e-11
-1.01168e-10
-3.90497e-08
3.7904e-11
-1.0804e-10
-3.90488e-08
6.71603e-11
-1.15041e-10
-3.90504e-08
1.00231e-10
-1.24107e-10
-3.90537e-08
1.3827e-10
-1.2923e-10
-3.90615e-08
1.72007e-10
-1.49859e-10
-3.90673e-08
-1.47102e-10
-3.90752e-08
2.05108e-10
-1.25998e-10
-9.2498e-11
-3.90804e-08
1.64533e-10
-9.77053e-11
-8.85088e-11
-3.90757e-08
-6.90004e-11
-7.10919e-11
-3.90702e-08
-4.84768e-11
-6.79369e-11
-3.90627e-08
-3.28913e-11
-6.28602e-11
-3.90576e-08
-2.11612e-11
-6.10418e-11
-3.90525e-08
-1.06686e-11
-6.18906e-11
-3.90488e-08
4.07955e-12
-6.62189e-11
-3.90457e-08
2.41707e-11
-7.29283e-11
-3.9044e-08
4.92704e-11
-8.04678e-11
-3.90453e-08
8.02804e-11
-9.09525e-11
-3.90481e-08
1.17834e-10
-9.71286e-11
-3.90549e-08
1.51606e-10
-1.15157e-10
-3.90622e-08
-1.17452e-10
-3.907e-08
1.89423e-10
-1.25942e-10
-6.73231e-11
-3.90756e-08
1.65995e-10
-9.50821e-11
-6.01035e-11
-3.90709e-08
-6.56986e-11
-4.78616e-11
-3.90655e-08
-4.58213e-11
-4.49209e-11
-3.90591e-08
-3.19092e-11
-4.0352e-11
-3.90544e-08
-2.24258e-11
-3.83827e-11
-3.90494e-08
-1.42756e-11
-3.88675e-11
-3.90457e-08
-1.84697e-12
-4.21031e-11
-3.90424e-08
1.65189e-11
-4.75151e-11
-3.90404e-08
4.15202e-11
-5.46972e-11
-3.90413e-08
7.41738e-11
-6.39463e-11
-3.90432e-08
1.14457e-10
-6.94238e-11
-3.90492e-08
1.52648e-10
-8.37504e-11
-3.90553e-08
-8.98755e-11
-3.90633e-08
1.95227e-10
-1.23168e-10
-4.39304e-11
-3.90739e-08
1.63144e-10
-9.01216e-11
-3.81195e-11
-3.90688e-08
-6.02492e-11
-3.12222e-11
-3.90633e-08
-4.10439e-11
-2.9385e-11
-3.90574e-08
-2.91941e-11
-2.62406e-11
-3.90526e-08
-2.26883e-11
-2.46668e-11
-3.90478e-08
-1.66672e-11
-2.46887e-11
-3.90444e-08
-7.25349e-12
-2.61214e-11
-3.90413e-08
8.29472e-12
-2.97114e-11
-3.90394e-08
3.29131e-11
-3.43871e-11
-3.90404e-08
6.58058e-11
-4.04184e-11
-3.90424e-08
1.07883e-10
-4.45356e-11
-3.90473e-08
1.49829e-10
-5.45134e-11
-3.90536e-08
-6.09267e-11
-3.90616e-08
1.94182e-10
-1.23351e-10
-2.26797e-11
-3.90728e-08
1.63386e-10
-8.85931e-11
-2.11852e-11
-3.90657e-08
-5.82691e-11
-1.93632e-11
-3.90607e-08
-3.90622e-11
-1.9489e-11
-3.90551e-08
-2.81937e-11
-1.85856e-11
-3.90507e-08
-2.35469e-11
-1.81346e-11
-3.90462e-08
-1.88528e-11
-1.78529e-11
-3.90432e-08
-1.06517e-11
-1.71614e-11
-3.90404e-08
3.80691e-12
-1.80365e-11
-3.90389e-08
2.78703e-11
-1.91827e-11
-3.90402e-08
6.11135e-11
-2.15184e-11
-3.90422e-08
1.04718e-10
-2.29111e-11
-3.90466e-08
1.49236e-10
-2.7351e-11
-3.90525e-08
-3.12913e-11
-3.90614e-08
1.94907e-10
-1.25814e-10
-2.29645e-12
-3.90712e-08
1.66381e-10
-8.93751e-11
-6.35042e-12
-3.90627e-08
-5.79828e-11
-9.30323e-12
-3.90578e-08
-3.793e-11
-1.16318e-11
-3.90524e-08
-2.66822e-11
-1.3151e-11
-3.90484e-08
-2.26338e-11
-1.37801e-11
-3.90444e-08
-1.88271e-11
-1.26833e-11
-3.9042e-08
-1.15623e-11
-1.01328e-11
-3.904e-08
1.76823e-12
-8.50192e-12
-3.90392e-08
2.54471e-11
-6.43258e-12
-3.90409e-08
5.89976e-11
-4.61085e-12
-3.9043e-08
1.03319e-10
-3.09689e-12
-3.90474e-08
1.49187e-10
-1.8753e-12
-3.90529e-08
-1.32995e-12
-3.90625e-08
1.95069e-10
-1.29013e-10
1.97668e-11
-3.90686e-08
1.69723e-10
-9.22592e-11
1.13105e-11
-3.90598e-08
-6.00652e-11
3.99704e-12
-3.90546e-08
-3.90303e-11
3.92855e-14
-3.90493e-08
-2.62913e-11
-3.301e-12
-3.90456e-08
-2.03658e-11
-4.73994e-12
-3.90423e-08
-1.64297e-11
-3.00697e-12
-3.90405e-08
-9.67308e-12
3.27249e-13
-3.90396e-08
3.94442e-12
3.62895e-12
-3.90397e-08
2.76536e-11
8.72828e-12
-3.90417e-08
6.07515e-11
1.41847e-11
-3.90441e-08
1.04466e-10
1.79438e-11
-3.90487e-08
1.49639e-10
2.43514e-11
-3.90541e-08
2.90186e-11
-3.90633e-08
1.94854e-10
-1.32827e-10
4.55861e-11
-3.90655e-08
1.73334e-10
-9.70931e-11
3.57442e-11
-3.90573e-08
-6.46006e-11
2.4664e-11
-3.90514e-08
-4.26134e-11
1.99685e-11
-3.90459e-08
-2.83086e-11
1.52002e-11
-3.90425e-08
-2.02658e-11
1.34136e-11
-3.90397e-08
-1.42415e-11
1.36992e-11
-3.90386e-08
-5.85933e-12
1.76088e-11
-3.90387e-08
8.79254e-12
2.23989e-11
-3.90396e-08
3.26723e-11
2.90137e-11
-3.90422e-08
6.52773e-11
3.68712e-11
-3.90452e-08
1.07733e-10
4.19268e-11
-3.90501e-08
1.5088e-10
5.28165e-11
-3.90559e-08
5.91783e-11
-3.90639e-08
1.95275e-10
-1.36233e-10
7.47683e-11
-3.90636e-08
1.76682e-10
-1.01926e-10
6.72109e-11
-3.90564e-08
-6.94022e-11
5.29316e-11
-3.90498e-08
-4.64358e-11
4.89525e-11
-3.9044e-08
-3.02059e-11
4.30349e-11
-3.90408e-08
-1.97107e-11
4.019e-11
-3.90385e-08
-1.13272e-11
3.98212e-11
-3.90383e-08
-8.37643e-13
4.38935e-11
-3.90393e-08
1.50804e-11
4.9245e-11
-3.90409e-08
3.91266e-11
5.60149e-11
-3.9044e-08
7.10792e-11
6.44465e-11
-3.90474e-08
1.11798e-10
6.95031e-11
-3.90532e-08
1.51906e-10
8.38648e-11
-3.90589e-08
8.88686e-11
-3.90656e-08
1.95062e-10
-1.40393e-10
1.05227e-10
-3.90635e-08
1.80598e-10
-1.08263e-10
1.03497e-10
-3.90561e-08
-7.58124e-11
8.66618e-11
-3.905e-08
-5.15944e-11
8.36043e-11
-3.90434e-08
-3.32071e-11
7.78812e-11
-3.90405e-08
-1.98195e-11
7.52826e-11
-3.90386e-08
-8.52006e-12
7.51396e-11
-3.90389e-08
4.48253e-12
7.77776e-11
-3.90405e-08
2.22584e-11
8.26543e-11
-3.90426e-08
4.70643e-11
8.81668e-11
-3.90461e-08
7.85987e-11
9.54544e-11
-3.905e-08
1.17615e-10
9.93354e-11
-3.90568e-08
1.54649e-10
1.15923e-10
-3.90622e-08
1.16832e-10
-3.90685e-08
1.96381e-10
-1.4015e-10
1.39477e-10
-3.90692e-08
1.7737e-10
-1.10541e-10
1.44743e-10
-3.90618e-08
-7.91429e-11
1.26027e-10
-3.90545e-08
-5.48143e-11
1.24628e-10
-3.90475e-08
-3.53385e-11
1.20422e-10
-3.90444e-08
-1.9349e-11
1.19254e-10
-3.90424e-08
-5.67983e-12
1.18492e-10
-3.90427e-08
8.51671e-12
1.19549e-10
-3.90444e-08
2.73383e-11
1.22709e-10
-3.90473e-08
5.24376e-11
1.2586e-10
-3.90514e-08
8.2974e-11
1.30783e-10
-3.90559e-08
1.19704e-10
1.32099e-10
-3.90632e-08
1.52921e-10
1.49975e-10
-3.90696e-08
1.44863e-10
-3.90756e-08
1.9133e-10
-1.60496e-10
1.70985e-10
-3.90738e-08
1.94491e-10
-1.29193e-10
1.79524e-10
-3.90661e-08
-9.58462e-11
1.60538e-10
-3.90607e-08
-6.85073e-11
1.62752e-10
-3.90529e-08
-4.43906e-11
1.60662e-10
-3.90495e-08
-2.35408e-11
1.60816e-10
-3.90475e-08
-4.85354e-12
1.60182e-10
-3.90482e-08
1.45661e-11
1.5991e-10
-3.905e-08
3.79313e-11
1.60305e-10
-3.90529e-08
6.65927e-11
1.59893e-10
-3.90575e-08
9.96368e-11
1.61354e-10
-3.90621e-08
1.3828e-10
1.58478e-10
-3.90701e-08
1.72135e-10
1.76999e-10
-3.90745e-08
1.69025e-10
-3.90804e-08
2.06635e-10
-1.52939e-10
-3.90769e-08
2.01364e-10
1.81322e-10
-1.25783e-10
-3.90727e-08
2.13548e-10
-9.75871e-11
-3.90675e-08
1.97006e-10
-7.30412e-11
-3.90602e-08
2.01926e-10
-4.92585e-11
-3.90578e-08
2.00692e-10
-2.6946e-11
-3.90576e-08
2.00954e-10
-5.06851e-12
-3.9059e-08
1.99583e-10
1.81321e-11
-3.90607e-08
1.98015e-10
4.37048e-11
-3.90625e-08
1.96496e-10
7.15756e-11
-3.90651e-08
1.9437e-10
1.00677e-10
-3.90688e-08
1.94182e-10
1.33529e-10
-3.90765e-08
1.87625e-10
1.63674e-10
-3.90809e-08
2.03879e-10
-3.90832e-08
1.94472e-10
1.90128e-10
-1.75615e-10
-1.97015e-10
-4.30761e-08
2.26212e-10
2.09705e-10
-1.38617e-10
-2.0027e-10
-4.3073e-08
2.33434e-10
-1.0314e-10
-1.75558e-10
-4.30652e-08
2.10324e-10
-6.92886e-11
-1.73097e-10
-4.3058e-08
2.09987e-10
-3.89672e-11
-1.66639e-10
-4.30528e-08
2.03347e-10
-1.13523e-11
-1.63094e-10
-4.30504e-08
1.98942e-10
1.36509e-11
-1.60837e-10
-4.30492e-08
1.95916e-10
3.74375e-11
-1.60178e-10
-4.30481e-08
1.93446e-10
6.22704e-11
-1.62563e-10
-4.30479e-08
1.93037e-10
8.86323e-11
-1.65152e-10
-4.30502e-08
1.92562e-10
1.16432e-10
-1.68927e-10
-4.30561e-08
1.93432e-10
1.43474e-10
-1.67374e-10
-4.3065e-08
1.88291e-10
1.66729e-10
-1.87827e-10
-4.30757e-08
2.1071e-10
-1.79994e-10
-4.30808e-08
1.95638e-10
1.91284e-10
-1.79822e-10
-1.61352e-10
-4.30727e-08
2.19219e-10
-1.38701e-10
-1.63461e-10
-4.30661e-08
-9.75019e-11
-1.40935e-10
-4.30589e-08
-6.02868e-11
-1.37152e-10
-4.30519e-08
-3.01054e-11
-1.3036e-10
-4.30463e-08
-6.10794e-12
-1.26656e-10
-4.30416e-08
1.34188e-11
-1.24775e-10
-4.30388e-08
3.20353e-11
-1.2603e-10
-4.30372e-08
5.41964e-11
-1.31664e-10
-4.30373e-08
8.11296e-11
-1.37645e-10
-4.30403e-08
1.12215e-10
-1.44665e-10
-4.30464e-08
1.44922e-10
-1.46853e-10
-4.30555e-08
1.7598e-10
-1.65683e-10
-4.30664e-08
-1.62889e-10
-4.30756e-08
2.07736e-10
-1.55329e-10
-1.25575e-10
-4.30645e-08
1.99373e-10
-1.1583e-10
-1.22926e-10
-4.30586e-08
-7.73174e-11
-1.04326e-10
-4.30499e-08
-4.4075e-11
-1.00667e-10
-4.30438e-08
-1.94008e-11
-9.47092e-11
-4.30384e-08
-1.62175e-12
-9.21146e-11
-4.30343e-08
1.1676e-11
-9.16767e-11
-4.30316e-08
2.43465e-11
-9.5194e-11
-4.30292e-08
4.17085e-11
-1.02423e-10
-4.30278e-08
6.5391e-11
-1.0976e-10
-4.30293e-08
9.44657e-11
-1.18577e-10
-4.30343e-08
1.25992e-10
-1.22973e-10
-4.30418e-08
1.56834e-10
-1.39138e-10
-4.30545e-08
-1.40217e-10
-4.3064e-08
1.89208e-10
-1.55917e-10
-8.85478e-11
-4.30576e-08
2.03145e-10
-1.13105e-10
-8.29247e-11
-4.30523e-08
-7.33487e-11
-6.90868e-11
-4.30442e-08
-4.04206e-11
-6.6406e-11
-4.304e-08
-1.72558e-11
-6.22644e-11
-4.30355e-08
-2.04762e-12
-6.11049e-11
-4.30317e-08
8.16153e-12
-6.21137e-11
-4.30289e-08
1.83074e-11
-6.7411e-11
-4.30261e-08
3.48807e-11
-7.49605e-11
-4.30238e-08
5.92341e-11
-8.23223e-11
-4.30238e-08
9.00185e-11
-9.13766e-11
-4.30272e-08
1.24892e-10
-9.57173e-11
-4.30333e-08
1.61281e-10
-1.08501e-10
-4.30443e-08
-1.11978e-10
-4.30541e-08
1.98775e-10
-1.53035e-10
-5.20528e-11
-4.30527e-08
2.01016e-10
-1.07894e-10
-4.61912e-11
-4.30472e-08
-6.76953e-11
-3.76507e-11
-4.30393e-08
-3.58707e-11
-3.64498e-11
-4.30361e-08
-1.50642e-11
-3.48312e-11
-4.3032e-08
-3.21079e-12
-3.57185e-11
-4.30286e-08
3.38943e-12
-3.85578e-11
-4.3026e-08
1.08391e-11
-4.42086e-11
-4.30229e-08
2.59107e-11
-5.1652e-11
-4.302e-08
5.01548e-11
-5.79935e-11
-4.30193e-08
8.198e-11
-6.55033e-11
-4.30217e-08
1.19628e-10
-6.88626e-11
-4.3026e-08
1.61321e-10
-7.72544e-11
-4.30367e-08
-8.00382e-11
-4.30468e-08
2.02899e-10
-1.52885e-10
-1.60039e-11
-4.30508e-08
2.01055e-10
-1.06249e-10
-1.24117e-11
-4.3043e-08
-6.63e-11
-9.12962e-12
-4.3036e-08
-3.55542e-11
-9.80776e-12
-4.30335e-08
-1.64817e-11
-1.10559e-11
-4.30298e-08
-6.63388e-12
-1.43941e-11
-4.30268e-08
-2.0914e-12
-1.89934e-11
-4.30245e-08
3.88219e-12
-2.4591e-11
-4.30214e-08
1.85815e-11
-3.10161e-11
-4.30181e-08
4.36369e-11
-3.5598e-11
-4.3017e-08
7.75699e-11
-4.02385e-11
-4.30188e-08
1.18626e-10
-4.21664e-11
-4.30221e-08
1.64586e-10
-4.55495e-11
-4.30319e-08
-4.55184e-11
-4.30434e-08
2.08916e-10
-1.52982e-10
1.82635e-11
-4.30495e-08
2.00936e-10
-1.05777e-10
1.80069e-11
-4.30401e-08
-6.64031e-11
1.64359e-11
-4.30333e-08
-3.66735e-11
1.3603e-11
-4.30309e-08
-1.88963e-11
9.49244e-12
-4.30275e-08
-1.04959e-11
4.29611e-12
-4.30248e-08
-7.64004e-12
-1.09825e-12
-4.30231e-08
-2.31723e-12
-5.77742e-12
-4.30204e-08
1.2806e-11
-1.01625e-11
-4.30173e-08
3.88262e-11
-1.24143e-11
-4.30164e-08
7.47767e-11
-1.34289e-11
-4.30182e-08
1.18757e-10
-1.32829e-11
-4.30212e-08
1.67561e-10
-1.15877e-11
-4.30304e-08
-8.88511e-12
-4.30427e-08
2.13562e-10
-1.52778e-10
5.01966e-11
-4.30482e-08
1.99508e-10
-1.0695e-10
4.6485e-11
-4.30386e-08
-6.8892e-11
4.05267e-11
-4.30312e-08
-4.03823e-11
3.60839e-11
-4.30287e-08
-2.34954e-11
2.96285e-11
-4.30254e-08
-1.55836e-11
2.34002e-11
-4.30231e-08
-1.23376e-11
1.76483e-11
-4.30217e-08
-5.43575e-12
1.47317e-11
-4.30194e-08
1.13678e-11
1.31484e-11
-4.30169e-08
3.77604e-11
1.3225e-11
-4.30165e-08
7.49186e-11
1.56655e-11
-4.30187e-08
1.20926e-10
1.778e-11
-4.30217e-08
1.70526e-10
2.45554e-11
-4.3031e-08
2.99236e-11
-4.30431e-08
2.1674e-10
-1.52796e-10
7.9902e-11
-4.30472e-08
1.97388e-10
-1.10083e-10
7.48812e-11
-4.30382e-08
-7.41265e-11
6.51076e-11
-4.303e-08
-4.70086e-11
6.0231e-11
-4.3027e-08
-3.05152e-11
5.24824e-11
-4.30235e-08
-2.20537e-11
4.63653e-11
-4.30212e-08
-1.62395e-11
4.07607e-11
-4.30199e-08
-6.30952e-12
3.87452e-11
-4.30182e-08
1.13985e-11
3.98679e-11
-4.30165e-08
3.92379e-11
4.15403e-11
-4.30171e-08
7.83524e-11
4.67713e-11
-4.30199e-08
1.24651e-10
5.02179e-11
-4.30234e-08
1.7332e-10
6.14181e-11
-4.30334e-08
6.79255e-11
-4.30445e-08
2.19166e-10
-1.51853e-10
1.07214e-10
-4.3048e-08
1.94576e-10
-1.12795e-10
1.03892e-10
-4.304e-08
-7.91568e-11
9.09403e-11
-4.30306e-08
-5.33493e-11
8.6766e-11
-4.30267e-08
-3.68842e-11
7.92313e-11
-4.3023e-08
-2.67445e-11
7.40188e-11
-4.30209e-08
-1.8428e-11
6.95466e-11
-4.30198e-08
-6.22849e-12
6.81137e-11
-4.30189e-08
1.35954e-11
6.97797e-11
-4.30185e-08
4.31852e-11
7.31845e-11
-4.30199e-08
8.30331e-11
7.98679e-11
-4.30235e-08
1.28431e-10
8.35774e-11
-4.30282e-08
1.74929e-10
9.80257e-11
-4.30387e-08
1.02827e-10
-4.30485e-08
2.19748e-10
-1.52354e-10
1.34646e-10
-4.30532e-08
1.91684e-10
-1.17594e-10
1.35664e-10
-4.30449e-08
-8.63022e-11
1.20129e-10
-4.30353e-08
-6.10043e-11
1.17238e-10
-4.30297e-08
-4.36187e-11
1.10819e-10
-4.30254e-08
-3.13597e-11
1.06199e-10
-4.30232e-08
-1.98065e-11
1.02383e-10
-4.30225e-08
-4.31977e-12
1.01847e-10
-4.30221e-08
1.80317e-11
1.03662e-10
-4.30227e-08
4.92495e-11
1.07797e-10
-4.30249e-08
8.95732e-11
1.14203e-10
-4.30294e-08
1.33916e-10
1.17119e-10
-4.3036e-08
1.77515e-10
1.33683e-10
-4.30467e-08
1.34434e-10
-4.30561e-08
2.19867e-10
-1.47953e-10
1.59449e-10
-4.3062e-08
1.82572e-10
-1.18135e-10
1.65968e-10
-4.30539e-08
-8.97792e-11
1.48026e-10
-4.30426e-08
-6.55416e-11
1.4721e-10
-4.3036e-08
-4.74218e-11
1.42216e-10
-4.30307e-08
-3.37832e-11
1.38832e-10
-4.30277e-08
-2.04766e-11
1.35799e-10
-4.30266e-08
-2.89399e-12
1.36027e-10
-4.30266e-08
2.13148e-11
1.38416e-10
-4.30281e-08
5.35365e-11
1.41475e-10
-4.30314e-08
9.30794e-11
1.46471e-10
-4.30372e-08
1.35098e-10
1.47102e-10
-4.30448e-08
1.74314e-10
1.65345e-10
-4.3057e-08
1.6026e-10
-4.30662e-08
2.12264e-10
-1.66906e-10
1.79316e-10
-4.30727e-08
2.00071e-10
-1.36739e-10
1.90285e-10
-4.30648e-08
-1.06763e-10
1.70201e-10
-4.30557e-08
-8.0235e-11
1.73033e-10
-4.30478e-08
-5.83304e-11
1.70657e-10
-4.30419e-08
-3.97718e-11
1.70009e-10
-4.30383e-08
-2.09034e-11
1.68783e-10
-4.30372e-08
2.50177e-12
1.69727e-10
-4.30374e-08
3.21615e-11
1.71292e-10
-4.30389e-08
6.8456e-11
1.71943e-10
-4.30429e-08
1.10432e-10
1.74456e-10
-4.30494e-08
1.53921e-10
1.71301e-10
-4.30583e-08
1.92878e-10
1.91367e-10
-4.30684e-08
1.80632e-10
-4.30771e-08
2.29324e-10
-1.5557e-10
-4.30783e-08
1.96699e-10
1.80683e-10
-1.3414e-10
-4.30744e-08
2.14584e-10
-1.10175e-10
-4.30657e-08
1.91517e-10
-8.6689e-11
-4.3058e-08
1.9699e-10
-6.48324e-11
-4.30529e-08
1.96365e-10
-4.33311e-11
-4.30507e-08
1.97365e-10
-1.99023e-11
-4.305e-08
1.97017e-10
7.6734e-12
-4.30501e-08
1.98204e-10
3.94121e-11
-4.30508e-08
1.99469e-10
7.44175e-11
-4.3053e-08
1.99529e-10
1.11909e-10
-4.30587e-08
2.01053e-10
1.48684e-10
-4.30674e-08
1.94871e-10
1.81001e-10
-4.30773e-08
2.15784e-10
-4.30817e-08
2.12061e-10
1.96732e-10
-1.74497e-10
-1.94858e-10
-4.74523e-08
2.13089e-10
2.06781e-10
-1.45748e-10
-2.05814e-10
-4.7445e-08
2.32917e-10
-1.07633e-10
-1.8361e-10
-4.74356e-08
2.06377e-10
-7.18294e-11
-1.85541e-10
-4.74246e-08
2.0966e-10
-3.69236e-11
-1.80976e-10
-4.74191e-08
2.04327e-10
-4.88155e-12
-1.7672e-10
-4.7417e-08
1.98459e-10
2.24578e-11
-1.71182e-10
-4.74169e-08
1.91974e-10
4.7017e-11
-1.6499e-10
-4.74179e-08
1.84047e-10
6.89265e-11
-1.58726e-10
-4.742e-08
1.75584e-10
8.83068e-11
-1.5226e-10
-4.74243e-08
1.6746e-10
1.06629e-10
-1.4835e-10
-4.74314e-08
1.62889e-10
1.263e-10
-1.39309e-10
-4.74434e-08
1.54118e-10
1.36623e-10
-1.60099e-10
-4.74535e-08
1.83832e-10
-1.47363e-10
-4.74602e-08
1.62268e-10
1.61194e-10
-1.87154e-10
-1.72088e-10
-4.74429e-08
2.26423e-10
-1.49425e-10
-1.77848e-10
-4.74314e-08
-1.04286e-10
-1.5954e-10
-4.74222e-08
-6.3581e-11
-1.60152e-10
-4.74116e-08
-2.66805e-11
-1.55872e-10
-4.7406e-08
4.38696e-12
-1.52849e-10
-4.74019e-08
2.91094e-11
-1.48801e-10
-4.74006e-08
4.8828e-11
-1.44689e-10
-4.74014e-08
6.72279e-11
-1.42645e-10
-4.74048e-08
8.62831e-11
-1.39582e-10
-4.74109e-08
1.05958e-10
-1.37855e-10
-4.74187e-08
1.30716e-10
-1.31819e-10
-4.74314e-08
1.5048e-10
-1.46988e-10
-4.7442e-08
-1.42304e-10
-4.74525e-08
1.82371e-10
-1.67043e-10
-1.37099e-10
-4.74308e-08
2.06619e-10
-1.30213e-10
-1.37906e-10
-4.74194e-08
-8.75371e-11
-1.23427e-10
-4.74084e-08
-4.97732e-11
-1.24216e-10
-4.7399e-08
-1.63973e-11
-1.21165e-10
-4.73939e-08
1.10567e-11
-1.20236e-10
-4.73909e-08
3.26982e-11
-1.19086e-10
-4.73904e-08
4.95984e-11
-1.18748e-10
-4.73909e-08
6.37224e-11
-1.20496e-10
-4.73927e-08
7.85184e-11
-1.2028e-10
-4.73976e-08
9.49507e-11
-1.20811e-10
-4.74047e-08
1.15233e-10
-1.16623e-10
-4.74159e-08
1.30867e-10
-1.26265e-10
-4.74292e-08
-1.25479e-10
-4.74404e-08
1.55772e-10
-1.72412e-10
-9.81074e-11
-4.74175e-08
2.14885e-10
-1.32399e-10
-9.54189e-11
-4.74063e-08
-8.81537e-11
-8.46886e-11
-4.7396e-08
-4.96522e-11
-8.61593e-11
-4.73888e-08
-1.57553e-11
-8.51559e-11
-4.7385e-08
1.16339e-11
-8.66795e-11
-4.73824e-08
3.31867e-11
-8.87809e-11
-4.73819e-08
5.03585e-11
-9.19803e-11
-4.7382e-08
6.45176e-11
-9.72833e-11
-4.73829e-08
8.05569e-11
-9.98865e-11
-4.73863e-08
9.9334e-11
-1.02397e-10
-4.73919e-08
1.21522e-10
-9.96667e-11
-4.74018e-08
1.40852e-10
-1.05488e-10
-4.7414e-08
-1.05699e-10
-4.74263e-08
1.66947e-10
-1.72305e-10
-5.48098e-11
-4.74102e-08
2.15553e-10
-1.30787e-10
-5.00583e-11
-4.73985e-08
-8.63048e-11
-4.32267e-11
-4.73885e-08
-4.86326e-11
-4.51465e-11
-4.73824e-08
-1.60758e-11
-4.66163e-11
-4.73787e-08
9.89847e-12
-5.09717e-11
-4.73763e-08
3.02315e-11
-5.60185e-11
-4.73757e-08
4.64438e-11
-6.17942e-11
-4.73753e-08
6.08603e-11
-6.95423e-11
-4.73754e-08
7.81312e-11
-7.42946e-11
-4.73775e-08
9.87369e-11
-7.79799e-11
-4.73823e-08
1.23564e-10
-7.67315e-11
-4.73907e-08
1.46195e-10
-7.99922e-11
-4.7403e-08
-7.96561e-11
-4.74166e-08
1.7383e-10
-1.72889e-10
-1.02617e-11
-4.74073e-08
2.15338e-10
-1.31277e-10
-5.20709e-12
-4.73933e-08
-8.83396e-11
-1.74528e-12
-4.73843e-08
-5.26729e-11
-3.95116e-12
-4.73788e-08
-2.12042e-11
-7.69491e-12
-4.73754e-08
4.18555e-12
-1.44179e-11
-4.73728e-08
2.38049e-11
-2.19859e-11
-4.73718e-08
4.00732e-11
-3.02336e-11
-4.73705e-08
5.6058e-11
-3.90825e-11
-4.73698e-08
7.55255e-11
-4.46498e-11
-4.7371e-08
9.89756e-11
-4.86882e-11
-4.73748e-08
1.27701e-10
-4.89866e-11
-4.73824e-08
1.54094e-10
-4.98621e-11
-4.73943e-08
-4.79509e-11
-4.74105e-08
1.83662e-10
-1.71033e-10
3.08522e-11
-4.74069e-08
2.12102e-10
-1.30706e-10
3.58141e-11
-4.73914e-08
-8.98369e-11
3.6797e-11
-4.73827e-08
-5.62508e-11
3.48891e-11
-4.73772e-08
-2.69167e-11
2.97152e-11
-4.73738e-08
-3.25431e-12
2.19253e-11
-4.73711e-08
1.52934e-11
1.27301e-11
-4.73699e-08
3.15251e-11
3.00253e-12
-4.73682e-08
4.91213e-11
-6.45953e-12
-4.73668e-08
7.14767e-11
-1.27265e-11
-4.73677e-08
9.80371e-11
-1.63735e-11
-4.73708e-08
1.30096e-10
-1.76565e-11
-4.7378e-08
1.6002e-10
-1.62876e-11
-4.73894e-08
-1.24875e-11
-4.74074e-08
1.91745e-10
-1.66586e-10
6.67647e-11
-4.74079e-08
2.05656e-10
-1.28851e-10
6.98637e-11
-4.73928e-08
-9.14266e-11
6.9263e-11
-4.73838e-08
-6.10214e-11
6.84168e-11
-4.73781e-08
-3.4056e-11
6.27073e-11
-4.73743e-08
-1.22753e-11
5.51336e-11
-4.73713e-08
5.71348e-12
4.55139e-11
-4.73697e-08
2.2812e-11
3.55281e-11
-4.73678e-08
4.28522e-11
2.63811e-11
-4.73662e-08
6.81714e-11
2.02341e-11
-4.73667e-08
9.72188e-11
1.715e-11
-4.73699e-08
1.31414e-10
1.51064e-11
-4.73772e-08
1.6339e-10
1.89485e-11
-4.73889e-08
2.42445e-11
-4.74068e-08
1.96739e-10
-1.61027e-10
9.73173e-11
-4.74108e-08
1.97091e-10
-1.27327e-10
9.82722e-11
-4.73969e-08
-9.33885e-11
9.37077e-11
-4.73872e-08
-6.62517e-11
9.39791e-11
-4.73809e-08
-4.25322e-11
8.92657e-11
-4.73764e-08
-2.27903e-11
8.27088e-11
-4.73729e-08
-4.67091e-12
7.34456e-11
-4.73705e-08
1.44011e-11
6.43138e-11
-4.73682e-08
3.67611e-11
5.77092e-11
-4.73669e-08
6.48088e-11
5.26182e-11
-4.73677e-08
9.6038e-11
5.03886e-11
-4.73717e-08
1.31968e-10
4.75953e-11
-4.73798e-08
1.65341e-10
5.41049e-11
-4.73923e-08
5.95874e-11
-4.7409e-08
1.99785e-10
-1.53197e-10
1.19522e-10
-4.74166e-08
1.85886e-10
-1.24402e-10
1.20848e-10
-4.74048e-08
-9.44329e-11
1.13112e-10
-4.73942e-08
-7.0705e-11
1.14394e-10
-4.73865e-08
-4.99888e-11
1.09667e-10
-4.73812e-08
-3.18984e-11
1.04542e-10
-4.73772e-08
-1.37763e-11
9.73107e-11
-4.73744e-08
7.08462e-12
9.12858e-11
-4.73723e-08
3.21333e-11
8.68176e-11
-4.73712e-08
6.14291e-11
8.3246e-11
-4.73726e-08
9.35306e-11
8.22735e-11
-4.73773e-08
1.3091e-10
7.8678e-11
-4.73865e-08
1.64821e-10
8.79958e-11
-4.73996e-08
9.14241e-11
-4.74145e-08
1.99917e-10
-1.46081e-10
1.3362e-10
-4.74259e-08
1.75613e-10
-1.22777e-10
1.36833e-10
-4.7415e-08
-9.68257e-11
1.26728e-10
-4.74048e-08
-7.58701e-11
1.29176e-10
-4.73956e-08
-5.70687e-11
1.25588e-10
-4.73894e-08
-3.92859e-11
1.22259e-10
-4.73845e-08
-2.00255e-11
1.17512e-10
-4.73812e-08
2.2475e-12
1.15115e-10
-4.73789e-08
2.89909e-11
1.12498e-10
-4.73782e-08
5.97489e-11
1.10136e-10
-4.73803e-08
9.32904e-11
1.09749e-10
-4.73858e-08
1.31389e-10
1.05956e-10
-4.73965e-08
1.63889e-10
1.18678e-10
-4.74096e-08
1.18277e-10
-4.74236e-08
1.9836e-10
-1.3502e-10
1.44766e-10
-4.74393e-08