/*--------------------------------*- C++ -*----------------------------------*\
| =========                 |                                                 |
| \\      /  F ield         | OpenFOAM: The Open Source CFD Toolbox           |
|  \\    /   O peration     | Version:  v2106                                 |
|   \\  /    A nd           | Website:  www.openfoam.com                      |
|    \\/     M anipulation  |                                                 |
\*---------------------------------------------------------------------------*/
FoamFile
{
    version     2.0;
    format      ascii;
    arch        "LSB;label=32;scalar=64";
    class       volScalarField;
    location    "0.000163";
    object      rho;
}
// * * * * * * * * * * * * * * * * * * * * * * * * * * * * * * * * * * * * * //

dimensions      [1 -3 0 0 0 0 0];

internalField   nonuniform List<scalar> 
18273
(
2.36612
2.36729
2.36195
2.36138
2.35884
2.3579
2.35629
2.35379
2.35138
2.35003
2.34901
2.34878
2.35001
2.35345
2.3599
2.36034
2.35625
2.35513
2.35303
2.35173
2.35085
2.34964
2.34836
2.34739
2.3464
2.34658
2.34875
2.35302
2.35812
2.35802
2.3543
2.35185
2.34942
2.3481
2.34683
2.34563
2.34444
2.34369
2.343
2.34273
2.34414
2.34811
2.35648
2.35514
2.35179
2.34907
2.34688
2.34559
2.34449
2.34324
2.34261
2.34177
2.34149
2.34162
2.34393
2.34786
2.35536
2.35341
2.34957
2.34686
2.34502
2.34382
2.34282
2.3415
2.3406
2.33968
2.33918
2.33959
2.34198
2.34597
2.35457
2.35133
2.3472
2.34438
2.34316
2.34221
2.34127
2.34008
2.33909
2.33812
2.33766
2.33821
2.34061
2.34438
2.35492
2.35057
2.34596
2.34278
2.34161
2.34054
2.33956
2.33843
2.33745
2.33652
2.33607
2.33652
2.33844
2.34154
2.35621
2.35018
2.34485
2.34105
2.33973
2.33872
2.33776
2.33662
2.33565
2.33477
2.33436
2.33478
2.33646
2.33895
2.35833
2.35015
2.34395
2.33955
2.33778
2.33663
2.33571
2.33467
2.33382
2.333
2.33285
2.33342
2.33509
2.3376
2.36103
2.35056
2.34334
2.33823
2.33627
2.33492
2.33403
2.3331
2.33241
2.33193
2.33221
2.33306
2.33527
2.33857
2.36504
2.35187
2.34377
2.3379
2.33562
2.33415
2.33362
2.33323
2.3331
2.33314
2.33401
2.3355
2.33866
2.34207
2.36777
2.35328
2.34426
2.33803
2.33566
2.33439
2.33447
2.33491
2.33619
2.33755
2.33965
2.34191
2.34658
2.34894
2.37371
2.35828
2.34615
2.33821
2.33543
2.33482
2.33559
2.33712
2.34024
2.34352
2.34804
2.35154
2.35946
2.35906
2.37682
2.35812
2.34768
2.33968
2.33602
2.33505
2.33597
2.33853
2.34385
2.35011
2.35728
2.36264
2.37119
2.37426
2.36953
2.37023
2.36556
2.36557
2.36426
2.36336
2.36167
2.36052
2.36007
2.36052
2.35989
2.3586
2.35778
2.35806
2.36845
2.36803
2.36431
2.36249
2.36042
2.35928
2.35816
2.35742
2.35771
2.35833
2.35826
2.35711
2.35696
2.35747
2.37101
2.36892
2.36464
2.36162
2.35908
2.35733
2.3557
2.35465
2.35427
2.35477
2.35489
2.35393
2.35316
2.35345
2.37352
2.36949
2.36452
2.36108
2.35854
2.35689
2.35539
2.35455
2.35386
2.35362
2.35336
2.35294
2.35324
2.35459
2.37531
2.36952
2.36406
2.36075
2.35857
2.35691
2.3556
2.35429
2.35351
2.35268
2.35211
2.35179
2.35235
2.35352
2.37602
2.3686
2.36265
2.35949
2.35798
2.3567
2.35557
2.35435
2.35336
2.35239
2.35159
2.3511
2.35146
2.35194
2.37716
2.3687
2.36257
2.35948
2.35812
2.35662
2.35547
2.35415
2.35293
2.35169
2.35086
2.35033
2.35056
2.35059
2.37909
2.36954
2.36287
2.35918
2.35789
2.35653
2.3553
2.35378
2.35255
2.35129
2.3507
2.35016
2.35069
2.35059
2.38168
2.37094
2.36404
2.35999
2.35818
2.35656
2.35522
2.35364
2.35223
2.35107
2.3505
2.35064
2.35141
2.35154
2.38491
2.37283
2.36563
2.36167
2.35974
2.35759
2.35564
2.35373
2.35255
2.35172
2.35148
2.35183
2.35318
2.35382
2.38909
2.37569
2.36872
2.36427
2.36229
2.36029
2.35847
2.35654
2.35519
2.35423
2.35404
2.35472
2.35719
2.35855
2.39177
2.37818
2.37161
2.36766
2.3658
2.3641
2.36235
2.3608
2.36024
2.35997
2.36043
2.36122
2.36478
2.36528
2.39752
2.38373
2.37494
2.37018
2.3689
2.36806
2.36717
2.36658
2.3672
2.36847
2.37043
2.37117
2.37668
2.37459
2.39953
2.38239
2.37572
2.3715
2.37017
2.36968
2.36951
2.37008
2.37251
2.37645
2.381
2.38353
2.38867
2.38927
2.38365
2.38382
2.37569
2.37272
2.3688
2.36553
2.36326
2.36241
2.36377
2.36475
2.36572
2.3663
2.36648
2.36427
2.38683
2.3858
2.37794
2.37221
2.36781
2.36436
2.36252
2.36138
2.36317
2.36553
2.36728
2.36865
2.3678
2.36511
2.3896
2.38735
2.37984
2.37361
2.36891
2.36522
2.36282
2.36282
2.36214
2.36339
2.36382
2.36325
2.36097
2.3585
2.3908
2.3867
2.38023
2.37456
2.37062
2.36757
2.36486
2.36357
2.36314
2.36301
2.36203
2.36049
2.35844
2.35821
2.3911
2.38515
2.37904
2.37458
2.37157
2.36914
2.36649
2.36521
2.36393
2.36263
2.36067
2.35803
2.35597
2.35527
2.38976
2.38347
2.37757
2.37429
2.37205
2.36984
2.36787
2.36627
2.3645
2.36249
2.35932
2.35598
2.35332
2.35159
2.38987
2.38176
2.3767
2.37396
2.37245
2.37049
2.36891
2.36671
2.36407
2.36154
2.35814
2.3548
2.3516
2.34882
2.391
2.38193
2.3766
2.3743
2.37273
2.37077
2.36913
2.36669
2.36435
2.36119
2.35819
2.3546
2.35132
2.34855
2.39323
2.38316
2.37788
2.3757
2.37388
2.37124
2.3692
2.36671
2.3643
2.36176
2.35861
2.35601
2.35355
2.35098
2.39654
2.38525
2.37973
2.37667
2.37403
2.37144
2.36882
2.36649
2.36433
2.36232
2.36035
2.35855
2.35728
2.35383
2.40131
2.38896
2.38345
2.37955
2.37627
2.3724
2.36951
2.36706
2.36518
2.36358
2.36206
2.36139
2.36262
2.35952
2.4037
2.39256
2.38783
2.38365
2.37945
2.37561
2.37233
2.36981
2.36811
2.36691
2.36645
2.36611
2.36912
2.36644
2.41038
2.39932
2.39223
2.38704
2.38326
2.37944
2.37611
2.37394
2.37336
2.37334
2.37384
2.37295
2.37847
2.37513
2.41143
2.39792
2.39292
2.3885
2.38605
2.38327
2.38029
2.37857
2.37978
2.3822
2.3852
2.3849
2.39018
2.38985
2.3644
2.37184
2.37384
2.37774
2.37638
2.37963
2.35484
2.36185
2.36703
2.37301
2.37689
2.3828
2.35538
2.36516
2.37205
2.37893
2.3815
2.38816
2.35435
2.36353
2.3694
2.37721
2.37951
2.38648
2.35294
2.36199
2.36743
2.37647
2.37868
2.38729
2.34994
2.3583
2.36326
2.37312
2.37585
2.38696
2.34605
2.35378
2.35889
2.37032
2.37561
2.38584
2.34231
2.34958
2.35548
2.36722
2.37335
2.38548
2.3409
2.34797
2.35477
2.36621
2.3735
2.38404
2.34344
2.35088
2.35941
2.36959
2.37731
2.38598
2.34998
2.35825
2.36738
2.37587
2.38246
2.38888
2.35931
2.36854
2.37801
2.38616
2.39117
2.39736
2.37048
2.38051
2.3892
2.397
2.40141
2.40658
2.38247
2.39126
2.39828
2.40578
2.40986
2.41477
2.36594
2.37026
2.36945
2.37098
2.36978
2.37145
2.35526
2.35842
2.36188
2.36624
2.3714
2.37672
2.35663
2.36161
2.36805
2.37425
2.37799
2.38529
2.35523
2.359
2.3636
2.37269
2.3763
2.3911
2.35359
2.35759
2.36159
2.3732
2.37566
2.39865
2.3514
2.35541
2.35855
2.36913
2.36823
2.39959
2.34991
2.35415
2.35742
2.36848
2.36966
2.39243
2.34999
2.35314
2.35605
2.3655
2.36664
2.39078
2.35272
2.35545
2.36007
2.36965
2.37216
2.39304
2.35662
2.36117
2.36803
2.37725
2.38127
2.3972
2.36482
2.37097
2.37879
2.38674
2.39067
2.4027
2.37372
2.3808
2.38961
2.39762
2.40147
2.41
2.38439
2.39197
2.40011
2.40928
2.4152
2.42248
2.39389
2.40103
2.40959
2.41921
2.42471
2.43026
2.37484
2.37377
2.36705
2.35742
2.34913
2.33668
2.35914
2.36093
2.3609
2.35564
2.35496
2.33891
2.36113
2.36599
2.37025
2.36843
2.3708
2.35291
2.35963
2.36225
2.36475
2.3645
2.37169
2.36147
2.35525
2.35662
2.3577
2.36165
2.37039
2.37632
2.35019
2.34887
2.34943
2.35982
2.36798
2.38893
2.34662
2.34465
2.34624
2.36073
2.36633
2.39947
2.34642
2.34509
2.34716
2.3604
2.36257
2.39979
2.34932
2.34954
2.3526
2.36338
2.3666
2.40277
2.35393
2.35591
2.3616
2.36997
2.37291
2.39994
2.36246
2.36632
2.37387
2.37935
2.38058
2.39783
2.37213
2.37735
2.38574
2.39096
2.39169
2.40191
2.38405
2.39044
2.39843
2.405
2.40904
2.41536
2.39289
2.39922
2.40896
2.41807
2.42414
2.42916
2.38733
2.39957
2.40331
2.40932
2.41038
2.4142
2.37631
2.38981
2.39562
2.40389
2.40881
2.41633
2.37262
2.38547
2.38993
2.39803
2.40155
2.41492
2.36401
2.3753
2.38078
2.38958
2.39394
2.41126
2.35579
2.36637
2.37238
2.38064
2.38275
2.41445
2.3471
2.35553
2.36259
2.37268
2.38007
2.41388
2.34165
2.35016
2.35882
2.37186
2.37996
2.398
2.33846
2.34541
2.35465
2.36815
2.37469
2.39221
2.33781
2.34512
2.35488
2.3678
2.37395
2.38805
2.33993
2.34923
2.36016
2.37275
2.37796
2.38983
2.34673
2.35792
2.37004
2.38205
2.38823
2.39822
2.35797
2.37044
2.38215
2.39308
2.3991
2.40614
2.3705
2.38346
2.39405
2.40502
2.41029
2.41737
2.38276
2.39488
2.40297
2.41232
2.41587
2.4208
2.40168
2.41308
2.41747
2.4257
2.42756
2.43454
2.39278
2.40307
2.40988
2.42118
2.42615
2.441
2.39205
2.40132
2.40533
2.41541
2.41576
2.43586
2.3863
2.39188
2.39533
2.40213
2.40219
2.4253
2.3801
2.38539
2.38732
2.39236
2.39129
2.41416
2.37358
2.377
2.37759
2.38297
2.37806
2.40599
2.37046
2.37383
2.37362
2.37958
2.37137
2.40298
2.36868
2.37112
2.37091
2.37725
2.36821
2.40853
2.369
2.37223
2.37396
2.38165
2.37487
2.40422
2.37062
2.37505
2.37938
2.38852
2.3841
2.41005
2.37481
2.3811
2.38869
2.39955
2.39898
2.41702
2.3819
2.39033
2.39934
2.41147
2.41705
2.42898
2.39117
2.40191
2.41156
2.42553
2.43307
2.44225
2.40039
2.41214
2.42258
2.43646
2.44295
2.45043
2.40771
2.42054
2.42684
2.4351
2.43748
2.4423
2.39574
2.41068
2.42052
2.43165
2.43798
2.44751
2.39675
2.41096
2.41839
2.42846
2.434
2.45121
2.39195
2.40026
2.40594
2.41567
2.42401
2.4491
2.38586
2.39204
2.39709
2.40619
2.40657
2.43625
2.38095
2.3826
2.38464
2.39277
2.39019
2.42828
2.37912
2.37935
2.38197
2.38944
2.38298
2.41974
2.38071
2.38
2.38282
2.38985
2.38219
2.41964
2.38409
2.38496
2.38943
2.39624
2.38823
2.42287
2.38738
2.39052
2.39642
2.40251
2.39686
2.4275
2.39158
2.39699
2.40392
2.41014
2.40973
2.44044
2.39851
2.40492
2.41307
2.42403
2.42716
2.44338
2.40625
2.41453
2.42347
2.43689
2.44473
2.45806
2.40936
2.42177
2.43475
2.45395
2.46385
2.47359
2.39489
2.38856
2.38371
2.37751
2.37185
2.36601
2.38876
2.38141
2.37884
2.3748
2.36993
2.36611
2.38615
2.37836
2.37675
2.37172
2.36682
2.36173
2.38733
2.3763
2.37669
2.37045
2.36547
2.35963
2.39551
2.37983
2.37838
2.36949
2.36366
2.35802
2.40566
2.38538
2.383
2.3715
2.36403
2.35768
2.42034
2.3904
2.38744
2.37322
2.36436
2.35805
2.42271
2.39849
2.39427
2.37972
2.36883
2.36061
2.42786
2.40799
2.40055
2.386
2.37402
2.36411
2.43015
2.40812
2.40378
2.39263
2.38142
2.36882
2.42402
2.41089
2.40808
2.3971
2.38744
2.37381
2.4255
2.41258
2.41328
2.40308
2.39471
2.37922
2.4238
2.41546
2.41283
2.4027
2.39458
2.38037
2.42066
2.41637
2.41647
2.4102
2.40604
2.39197
2.38824
2.38155
2.37764
2.37412
2.3699
2.3674
2.38701
2.3784
2.37906
2.37835
2.37419
2.37383
2.39179
2.38067
2.38384
2.38043
2.37659
2.3741
2.40276
2.38088
2.38922
2.38524
2.38182
2.37753
2.41165
2.3814
2.39188
2.38637
2.38376
2.38004
2.41987
2.38264
2.39458
2.3884
2.38584
2.3818
2.41916
2.38552
2.39747
2.38985
2.38692
2.38297
2.42267
2.39062
2.40134
2.39337
2.39045
2.38532
2.4267
2.39819
2.40632
2.39814
2.39481
2.38855
2.43105
2.40939
2.41549
2.40751
2.40247
2.39348
2.43808
2.41917
2.42254
2.41446
2.40881
2.39864
2.448
2.42951
2.43376
2.42392
2.41678
2.40332
2.45247
2.4367
2.43805
2.4261
2.41792
2.40314
2.45481
2.44446
2.44445
2.43497
2.43028
2.41428
2.37114
2.37093
2.37441
2.37806
2.37686
2.37936
2.38125
2.37918
2.38549
2.38991
2.38912
2.39257
2.40425
2.38748
2.39471
2.39674
2.39461
2.39398
2.4237
2.39525
2.40396
2.4038
2.39981
2.39682
2.43848
2.40222
2.41261
2.40807
2.4036
2.39812
2.44749
2.40574
2.41657
2.40903
2.40521
2.39899
2.45373
2.40758
2.4165
2.40751
2.40506
2.39947
2.46097
2.41315
2.42113
2.41
2.40716
2.4008
2.47132
2.42373
2.42686
2.41462
2.41164
2.40325
2.48166
2.44079
2.44135
2.42714
2.42058
2.40706
2.49149
2.45789
2.45155
2.43637
2.42915
2.41214
2.49731
2.47187
2.46218
2.44708
2.43799
2.41651
2.49183
2.47315
2.46655
2.44916
2.43716
2.41567
2.48413
2.47688
2.47218
2.45663
2.44852
2.42997
2.38128
2.37544
2.37116
2.36688
2.36133
2.35733
2.3773
2.37205
2.36917
2.36629
2.36079
2.35734
2.38209
2.37598
2.37087
2.36553
2.35951
2.35502
2.38614
2.37867
2.37303
2.36632
2.36014
2.35478
2.39192
2.38228
2.37635
2.367
2.36032
2.35481
2.39703
2.38549
2.38058
2.36988
2.36321
2.35616
2.40061
2.38812
2.38531
2.37378
2.36748
2.35921
2.40227
2.39103
2.39006
2.37887
2.37286
2.36287
2.40433
2.39391
2.3937
2.38318
2.37717
2.36616
2.4051
2.39664
2.39519
2.38578
2.37911
2.36748
2.40329
2.3964
2.39436
2.38544
2.37894
2.36846
2.40342
2.39742
2.39525
2.38656
2.37958
2.36852
2.40052
2.39201
2.38876
2.38142
2.37545
2.36706
2.39401
2.39212
2.39238
2.38755
2.38442
2.37668
2.37782
2.37138
2.36778
2.36599
2.36178
2.35992
2.38059
2.37324
2.37227
2.371
2.3657
2.36493
2.38966
2.37895
2.37616
2.37176
2.36669
2.36435
2.39733
2.38101
2.37934
2.37348
2.36847
2.36502
2.40318
2.38182
2.38128
2.3733
2.36867
2.36467
2.40741
2.38117
2.38237
2.37273
2.36839
2.36453
2.41055
2.37835
2.38173
2.37152
2.36806
2.3641
2.41117
2.37855
2.38252
2.37255
2.36995
2.36535
2.40738
2.38157
2.3832
2.37528
2.37241
2.36685
2.40984
2.38685
2.38847
2.37968
2.37474
2.36823
2.40902
2.39355
2.39146
2.38159
2.37535
2.36872
2.40804
2.39832
2.39379
2.38358
2.3754
2.36883
2.39969
2.39119
2.38462
2.37686
2.37135
2.36722
2.39117
2.38761
2.38705
2.38294
2.38293
2.37822
2.34194
2.34659
2.35203
2.35791
2.35769
2.36177
2.35528
2.35527
2.36234
2.36801
2.36792
2.37196
2.37847
2.36566
2.36896
2.37133
2.36941
2.37052
2.3976
2.37386
2.37316
2.37307
2.36943
2.36956
2.41062
2.37833
2.38023
2.37382
2.36918
2.3682
2.42468
2.38363
2.38628
2.37372
2.36972
2.36871
2.4369
2.39113
2.38968
2.37354
2.36916
2.36697
2.44172
2.39974
2.39478
2.37749
2.37118
2.36698
2.43862
2.40595
2.39553
2.38063
2.37544
2.36976
2.42466
2.40583
2.3975
2.38708
2.38179
2.37378
2.40541
2.40637
2.39736
2.39211
2.38489
2.37643
2.39986
2.40421
2.39721
2.39402
2.38585
2.37801
2.38187
2.38686
2.3829
2.38339
2.38059
2.37775
2.37402
2.37979
2.38431
2.39058
2.39595
2.39367
2.41087
2.40726
2.3965
2.39024
2.38495
2.3811
2.37916
2.37846
2.379
2.38311
2.38632
2.39101
2.39401
2.39866
2.40776
2.40401
2.39533
2.38742
2.38238
2.37812
2.37586
2.37522
2.37747
2.38127
2.38674
2.39196
2.39473
2.39875
2.4066
2.40179
2.39366
2.38687
2.38277
2.37909
2.37696
2.37639
2.3769
2.37891
2.38292
2.38595
2.38823
2.38938
2.40381
2.39784
2.39131
2.38624
2.38318
2.38033
2.37798
2.37746
2.37776
2.37888
2.38048
2.38156
2.38247
2.3852
2.40073
2.39336
2.38821
2.38528
2.3832
2.38091
2.37934
2.37865
2.37845
2.37865
2.37876
2.3781
2.37793
2.38025
2.39831
2.39038
2.38591
2.38415
2.38286
2.38115
2.38036
2.37925
2.37829
2.37781
2.37683
2.37468
2.37401
2.3756
2.39754
2.3883
2.38495
2.38383
2.3831
2.38197
2.38106
2.37956
2.37821
2.37622
2.37443
2.3724
2.372
2.37228
2.39752
2.38847
2.38514
2.38417
2.38348
2.38215
2.38126
2.37959
2.37818
2.37624
2.37412
2.37236
2.37142
2.37034
2.3993
2.39031
2.38685
2.38542
2.38432
2.38279
2.38161
2.37982
2.37833
2.37668
2.37506
2.37358
2.37234
2.37118
2.40228
2.39289
2.38896
2.38741
2.38566
2.38357
2.38179
2.3799
2.37884
2.378
2.37707
2.37636
2.37614
2.37428
2.40765
2.39774
2.39365
2.39106
2.38822
2.38523
2.38259
2.38053
2.37993
2.37918
2.37916
2.37976
2.38081
2.37797
2.41212
2.40431
2.4004
2.39666
2.39241
2.3886
2.38493
2.38254
2.38151
2.38122
2.38196
2.38392
2.38782
2.38486
2.42185
2.41319
2.40729
2.40271
2.39862
2.39415
2.38996
2.38718
2.38615
2.38609
2.38725
2.389
2.39607
2.39349
2.42319
2.41287
2.40998
2.40738
2.40431
2.40014
2.39601
2.39392
2.39449
2.39583
2.3988
2.39912
2.40612
2.40723
2.42684
2.42273
2.41106
2.40391
2.39838
2.39412
2.39163
2.39078
2.39205
2.39549
2.40153
2.40811
2.41373
2.42208
2.42035
2.41618
2.40728
2.39996
2.395
2.39113
2.38899
2.3884
2.38966
2.3941
2.40038
2.4077
2.4142
2.4217
2.41532
2.40992
2.40317
2.39777
2.39393
2.39064
2.3883
2.38748
2.38849
2.39109
2.3959
2.4015
2.40755
2.41192
2.40943
2.40378
2.39891
2.39562
2.3932
2.39071
2.38897
2.38823
2.38889
2.39074
2.39377
2.397
2.4007
2.40576
2.40365
2.3983
2.39528
2.39374
2.39219
2.39084
2.38977
2.389
2.38895
2.38974
2.39122
2.39296
2.39522
2.40042
2.40095
2.3951
2.39291
2.39246
2.39168
2.3911
2.39016
2.38922
2.38847
2.38805
2.38884
2.38912
2.39062
2.39603
2.39889
2.39377
2.39202
2.39214
2.39196
2.39138
2.39057
2.3895
2.38846
2.38769
2.38675
2.38668
2.38852
2.39377
2.39926
2.39397
2.3925
2.39255
2.39235
2.39154
2.39076
2.3896
2.38857
2.38759
2.38666
2.38667
2.38855
2.39282
2.40162
2.39607
2.39426
2.39381
2.39314
2.39198
2.3909
2.38973
2.38873
2.38799
2.38762
2.38814
2.39014
2.39272
2.40526
2.39928
2.397
2.39559
2.39396
2.39221
2.39071
2.38958
2.38899
2.38915
2.38961
2.39118
2.39332
2.3951
2.41168
2.40497
2.40157
2.39874
2.39539
2.39262
2.39056
2.38941
2.38943
2.3908
2.39216
2.39522
2.39879
2.39868
2.41886
2.41336
2.40901
2.40422
2.39922
2.39478
2.39173
2.39006
2.39028
2.39218
2.39503
2.3995
2.40508
2.40371
2.42957
2.42349
2.41777
2.41178
2.40555
2.40017
2.39618
2.39374
2.39345
2.39578
2.39938
2.40459
2.41195
2.40972
2.43089
2.42515
2.42293
2.41896
2.41401
2.4084
2.40441
2.40251
2.40258
2.40453
2.40875
2.4128
2.42149
2.41963
2.44424
2.43906
2.42923
2.42131
2.41555
2.41148
2.4092
2.40882
2.41003
2.41332
2.42017
2.42857
2.43807
2.44892
2.43442
2.42966
2.42319
2.41735
2.41285
2.40949
2.40739
2.407
2.40887
2.41271
2.41933
2.42723
2.43605
2.44625
2.42473
2.42086
2.41706
2.41375
2.411
2.40873
2.4071
2.40681
2.40821
2.41102
2.4159
2.42263
2.43052
2.43816
2.4164
2.41379
2.41181
2.41053
2.40934
2.40809
2.40753
2.40739
2.40839
2.41061
2.41416
2.41901
2.42472
2.43075
2.41053
2.4086
2.40818
2.40843
2.40798
2.40809
2.40783
2.40778
2.4083
2.40958
2.41161
2.41498
2.41916
2.42481
2.40652
2.40564
2.40636
2.4074
2.40775
2.40815
2.40805
2.40797
2.40811
2.40868
2.40981
2.41207
2.41456
2.4195
2.4049
2.40417
2.40563
2.40723
2.40803
2.40846
2.40827
2.40806
2.40794
2.40798
2.40822
2.40933
2.41168
2.41677
2.40493
2.40483
2.40625
2.4077
2.40854
2.40876
2.40846
2.4081
2.40777
2.40763
2.40789
2.40869
2.41124
2.41608
2.40666
2.40689
2.40776
2.40879
2.40912
2.40886
2.40842
2.40808
2.40771
2.4076
2.40802
2.40927
2.41239
2.41682
2.41046
2.41017
2.41016
2.40992
2.4094
2.40863
2.40793
2.40767
2.40764
2.40804
2.40928
2.41129
2.41488
2.4187
2.41643
2.41478
2.41356
2.41175
2.40983
2.4084
2.40725
2.407
2.40742
2.40885
2.41122
2.41455
2.41869
2.42109
2.42508
2.42286
2.41954
2.41543
2.41117
2.40839
2.40647
2.40608
2.40704
2.41003
2.41349
2.41847
2.42434
2.42513
2.43592
2.43193
2.42704
2.42104
2.4154
2.41112
2.40793
2.40652
2.40753
2.41096
2.41562
2.42253
2.42954
2.42901
2.43942
2.43583
2.43298
2.42784
2.4222
2.41706
2.4133
2.4113
2.41124
2.41432
2.41955
2.42651
2.43602
2.43648
2.45324
2.44836
2.4412
2.43497
2.43029
2.42657
2.42408
2.42366
2.42508
2.42849
2.43346
2.44127
2.45127
2.46418
2.44182
2.43898
2.43492
2.43127
2.42832
2.42594
2.42417
2.42411
2.42563
2.42894
2.4348
2.44219
2.45063
2.46058
2.43159
2.43066
2.42892
2.42745
2.42629
2.425
2.42446
2.42499
2.42646
2.42922
2.43348
2.43928
2.44701
2.45444
2.42419
2.42456
2.4245
2.42461
2.42443
2.42435
2.42461
2.42533
2.42665
2.42898
2.43237
2.43698
2.44267
2.44784
2.41902
2.42019
2.42164
2.42294
2.42334
2.42416
2.42466
2.42544
2.42643
2.42818
2.43056
2.4338
2.43801
2.44258
2.41593
2.41786
2.42031
2.42227
2.42328
2.42422
2.42481
2.4255
2.42631
2.42757
2.42923
2.43153
2.43402
2.43702
2.41452
2.41699
2.42007
2.42241
2.42366
2.42453
2.425
2.4255
2.42606
2.42695
2.42781
2.42927
2.43116
2.43359
2.41499
2.41771
2.42082
2.42306
2.42428
2.42492
2.42518
2.4255
2.42584
2.42641
2.4271
2.42806
2.42953
2.4319
2.4165
2.41953
2.42208
2.42394
2.42477
2.4251
2.4252
2.42541
2.42566
2.42606
2.42674
2.4277
2.42957
2.4322
2.42019
2.42272
2.42399
2.42469
2.42491
2.4248
2.42481
2.42504
2.42536
2.42602
2.42713
2.4287
2.43157
2.43372
2.42518
2.42608
2.42642
2.4256
2.42501
2.42425
2.42394
2.42422
2.42494
2.42616
2.42826
2.43046
2.43381
2.43603
2.43318
2.43183
2.42963
2.42677
2.42465
2.42327
2.42261
2.42288
2.42395
2.42629
2.42957
2.43349
2.43789
2.43961
2.44259
2.43891
2.43498
2.43018
2.42583
2.42296
2.42116
2.42136
2.42314
2.42669
2.43076
2.43622
2.44217
2.44393
2.44752
2.44323
2.43907
2.43388
2.42895
2.4252
2.42198
2.42111
2.42232
2.42642
2.43185
2.43913
2.44696
2.45007
2.46164
2.45825
2.45375
2.44958
2.44666
2.44367
2.44196
2.44211
2.44361
2.44664
2.45119
2.4576
2.4666
2.47818
2.4502
2.44988
2.44831
2.44659
2.44544
2.44373
2.44308
2.44372
2.44524
2.44808
2.45269
2.45905
2.46673
2.47524
2.4421
2.44338
2.4433
2.44361
2.44363
2.4434
2.44372
2.44475
2.44627
2.44888
2.45256
2.45756
2.4642
2.47154
2.4361
2.43877
2.44016
2.44162
2.44229
2.44315
2.44407
2.4453
2.44689
2.44925
2.45233
2.45662
2.46172
2.46693
2.43191
2.43554
2.4383
2.44054
2.4419
2.4432
2.44429
2.44562
2.44713
2.4492
2.45169
2.45496
2.45879
2.46292
2.43027
2.43442
2.43786
2.44031
2.442
2.4434
2.4445
2.44579
2.4472
2.44897
2.45097
2.45329
2.4558
2.45826
2.42954
2.43432
2.43816
2.44074
2.44241
2.44371
2.4447
2.44583
2.44704
2.44848
2.44997
2.45147
2.45313
2.4553
2.4302
2.43526
2.43903
2.44151
2.44298
2.44403
2.44485
2.4458
2.44679
2.44787
2.44896
2.45003
2.45141
2.45302
2.43228
2.43684
2.44019
2.44223
2.44337
2.44421
2.44486
2.44562
2.44639
2.44719
2.4481
2.44922
2.45071
2.45244
2.43561
2.43929
2.44103
2.44244
2.44323
2.44393
2.44449
2.44515
2.44584
2.44668
2.4478
2.44935
2.45137
2.45358
2.43972
2.44175
2.44264
2.44271
2.44292
2.4431
2.44346
2.44421
2.44514
2.44642
2.44819
2.45031
2.45309
2.45491
2.446
2.44489
2.44387
2.44245
2.44197
2.44162
2.44187
2.44275
2.44407
2.44591
2.44884
2.45153
2.45543
2.45737
2.45213
2.44878
2.44621
2.443
2.44098
2.4396
2.4395
2.44042
2.44238
2.44566
2.44949
2.45367
2.45814
2.46065
2.45554
2.45144
2.44768
2.4439
2.44059
2.43846
2.43745
2.43827
2.44085
2.44502
2.4496
2.45558
2.46127
2.46547
2.47074
2.46831
2.466
2.46348
2.46224
2.46021
2.45964
2.46022
2.46184
2.46474
2.46898
2.47423
2.4814
2.49088
2.46122
2.46208
2.46171
2.46151
2.46128
2.46075
2.46098
2.46198
2.46385
2.46663
2.47062
2.47599
2.48262
2.48937
2.45483
2.45745
2.45828
2.45973
2.46032
2.46095
2.46182
2.46333
2.46525
2.46792
2.47129
2.47553
2.48099
2.48723
2.45026
2.45394
2.45623
2.45845
2.45979
2.4611
2.46243
2.46416
2.46611
2.46867
2.47173
2.47557
2.48005
2.48451
2.44754
2.45203
2.45546
2.45802
2.45977
2.46143
2.46292
2.46473
2.46669
2.46904
2.47166
2.47481
2.47829
2.48175
2.44643
2.45155
2.45543
2.4581
2.46
2.46172
2.46329
2.46512
2.467
2.46916
2.4715
2.47401
2.47652
2.47865
2.44628
2.45181
2.4559
2.45856
2.46046
2.46208
2.4636
2.46529
2.46701
2.46894
2.47088
2.47273
2.4745
2.47593
2.4473
2.45272
2.45666
2.45913
2.46089
2.46235
2.46375
2.46526
2.46682
2.46848
2.47006
2.47152
2.47286
2.47397
2.44923
2.45385
2.45744
2.45956
2.46114
2.46249
2.46376
2.46509
2.4664
2.46775
2.46904
2.47035
2.47175
2.47315
2.45185
2.45546
2.45753
2.4594
2.46085
2.46216
2.46341
2.46466
2.46583
2.46699
2.46824
2.46962
2.47151
2.47341
2.45455
2.45694
2.45819
2.45909
2.46011
2.46126
2.46247
2.46374
2.46499
2.46624
2.4677
2.46931
2.47194
2.47417
2.45864
2.45838
2.4582
2.45814
2.45873
2.45961
2.46079
2.46223
2.46377
2.46537
2.46755
2.46955
2.47307
2.47514
2.46179
2.45967
2.45845
2.45722
2.45691
2.45733
2.45834
2.45989
2.46189
2.4642
2.46713
2.47025
2.47402
2.47705
2.46416
2.46042
2.45798
2.45568
2.45478
2.45479
2.45545
2.45703
2.4597
2.46314
2.46666
2.47126
2.4758
2.4803
2.4833
2.48249
2.48198
2.48117
2.48064
2.48004
2.48002
2.48071
2.48231
2.48492
2.48867
2.49333
2.49951
2.50687
2.47595
2.47784
2.47843
2.47939
2.47973
2.48023
2.4808
2.48211
2.48408
2.48686
2.49055
2.49511
2.5009
2.50669
2.4707
2.47428
2.47602
2.47796
2.47913
2.48029
2.48146
2.48319
2.48526
2.488
2.49126
2.49504
2.49975
2.50511
2.46726
2.47176
2.47464
2.47709
2.47882
2.48049
2.48206
2.48398
2.4861
2.48873
2.49173
2.49524
2.49939
2.5037
2.46537
2.47053
2.47413
2.47684
2.47885
2.48078
2.48256
2.4846
2.48674
2.48918
2.49184
2.49488
2.49836
2.50188
2.46452
2.47009
2.47408
2.47689
2.47908
2.4811
2.48298
2.48505
2.48718
2.48948
2.49195
2.49461
2.49737
2.49989
2.46477
2.47032
2.47439
2.47721
2.47946
2.48146
2.48335
2.48536
2.48741
2.4896
2.49182
2.49397
2.49605
2.49777
2.46596
2.47107
2.47493
2.47758
2.47978
2.48174
2.48358
2.48549
2.48742
2.48945
2.49144
2.4933
2.49494
2.49604
2.46748
2.4719
2.47537
2.47779
2.47995
2.48186
2.48363
2.4854
2.48717
2.48898
2.49076
2.49242
2.49393
2.49487
2.46986
2.4729
2.47528
2.47759
2.47971
2.4816
2.48336
2.48501
2.48659
2.4882
2.48987
2.49156
2.49333
2.49462
2.47121
2.47351
2.47534
2.47708
2.47902
2.48082
2.48255
2.48416
2.48566
2.48718
2.48889
2.49076
2.49316
2.49518
2.47355
2.474
2.47472
2.47587
2.47752
2.47928
2.481
2.48266
2.48426
2.48592
2.48805
2.49014
2.49353
2.49587
2.47497
2.4741
2.47419
2.47451
2.47552
2.47702
2.47861
2.4804
2.48227
2.48427
2.48707
2.48989
2.49374
2.49719
2.47622
2.4735
2.47264
2.47218
2.4729
2.47399
2.47538
2.47743
2.47979
2.4827
2.48598
2.48993
2.49382
2.49871
2.50106
2.50264
2.50511
2.50839
2.51244
2.51768
2.52399
2.50197
2.50388
2.50655
2.51
2.51412
2.51923
2.52448
2.50266
2.50469
2.50732
2.51051
2.51412
2.51848
2.52335
2.50325
2.50533
2.50789
2.51087
2.51434
2.51839
2.52266
2.50379
2.5059
2.50833
2.51106
2.51416
2.51775
2.52147
2.50429
2.50641
2.50874
2.51134
2.51422
2.51735
2.52038
2.50475
2.50684
2.50911
2.51158
2.51414
2.51671
2.51901
2.50506
2.50711
2.50933
2.51166
2.51395
2.51618
2.5179
2.4861
2.49044
2.49388
2.49667
2.49909
2.50129
2.50324
2.50515
2.5071
2.50922
2.51143
2.51356
2.51554
2.51691
2.48784
2.49086
2.49371
2.49645
2.4989
2.50113
2.50307
2.50491
2.50676
2.50875
2.51087
2.51297
2.51496
2.5163
2.48837
2.49104
2.49347
2.49589
2.49831
2.50049
2.50241
2.50418
2.50593
2.50784
2.51
2.51221
2.51457
2.51621
2.48971
2.49089
2.49255
2.49473
2.49703
2.49913
2.50107
2.50284
2.50461
2.50655
2.50896
2.51143
2.51455
2.51658
2.49011
2.49059
2.49192
2.49338
2.49528
2.49709
2.49895
2.50079
2.50277
2.50492
2.50773
2.51076
2.5145
2.51752
2.49074
2.49003
2.49035
2.49138
2.49272
2.4942
2.4959
2.49795
2.50029
2.50309
2.50638
2.51018
2.51371
2.51827
2.42644
2.43837
2.44648
2.45813
2.48062
2.50802
2.40439
2.41491
2.42797
2.44739
2.47724
2.5192
2.40196
2.41812
2.43486
2.45574
2.48564
2.53141
2.39695
2.41354
2.43017
2.44936
2.47636
2.51554
2.39258
2.40685
2.42065
2.43559
2.45222
2.47216
2.38754
2.39748
2.40633
2.41536
2.42373
2.4297
2.38384
2.38939
2.3937
2.39719
2.40028
2.39604
2.3826
2.38456
2.38471
2.38411
2.38363
2.37038
2.38548
2.38494
2.38328
2.38013
2.38299
2.36773
2.39036
2.38782
2.38815
2.38544
2.38995
2.37737
2.39488
2.39296
2.39699
2.39559
2.40095
2.39448
2.39863
2.39823
2.4066
2.408
2.41503
2.41494
2.40407
2.40538
2.41509
2.41918
2.43391
2.43942
2.39655
2.40062
2.41214
2.42594
2.44645
2.4641
2.44494
2.45822
2.46866
2.4798
2.49449
2.51448
2.42215
2.43328
2.44964
2.47189
2.50033
2.53053
2.41751
2.4343
2.45498
2.47975
2.51181
2.54526
2.41169
2.43066
2.45306
2.47813
2.50814
2.53892
2.40784
2.42653
2.44602
2.46574
2.48307
2.50163
2.40379
2.41866
2.43264
2.4424
2.44908
2.45931
2.4009
2.41055
2.41786
2.41898
2.42062
2.42473
2.3992
2.40443
2.40528
2.40025
2.39728
2.39586
2.40031
2.40368
2.40016
2.39296
2.38983
2.38471
2.40527
2.40655
2.40323
2.39755
2.39553
2.38978
2.41171
2.41146
2.41256
2.41047
2.40973
2.40628
2.41819
2.41829
2.4229
2.42466
2.42639
2.42851
2.42499
2.42692
2.43466
2.43876
2.44764
2.45772
2.41677
2.42008
2.43095
2.44553
2.46467
2.48054
2.46192
2.47683
2.48786
2.4994
2.5101
2.52298
2.44267
2.45529
2.47023
2.48926
2.51187
2.53477
2.43588
2.44961
2.46773
2.49239
2.52064
2.55126
2.42754
2.44177
2.46317
2.49063
2.52018
2.55091
2.42133
2.43646
2.45846
2.48127
2.50518
2.52513
2.41707
2.43254
2.44976
2.46658
2.47921
2.48773
2.41511
2.42908
2.44024
2.44961
2.45222
2.45292
2.41521
2.42542
2.43194
2.43416
2.42933
2.42682
2.41775
2.4243
2.42999
2.42761
2.42039
2.41798
2.42344
2.4286
2.43478
2.43066
2.4274
2.42484
2.43106
2.43646
2.44365
2.4433
2.44494
2.44302
2.43984
2.445
2.45302
2.45712
2.46183
2.4618
2.44942
2.45405
2.4633
2.47143
2.47981
2.48612
2.44583
2.44919
2.45865
2.47146
2.48754
2.50288
2.46852
2.48027
2.49034
2.4991
2.50588
2.51418
2.4547
2.46606
2.4769
2.48868
2.50147
2.51693
2.44741
2.45712
2.46753
2.48137
2.49956
2.523
2.43903
2.44669
2.45676
2.47385
2.49848
2.52833
2.43244
2.43855
2.44989
2.47131
2.49824
2.5268
2.42745
2.43211
2.44522
2.46594
2.48921
2.50899
2.42508
2.42986
2.44489
2.46182
2.47791
2.48458
2.42565
2.43107
2.44571
2.45695
2.46335
2.46015
2.4287
2.43522
2.44744
2.45502
2.45549
2.4488
2.43416
2.44108
2.45379
2.46141
2.45837
2.45148
2.44271
2.45052
2.4648
2.47147
2.47044
2.46634
2.45193
2.46112
2.47473
2.48091
2.4831
2.48317
2.46171
2.47065
2.48279
2.49069
2.49775
2.50205
2.4653
2.47092
2.4798
2.48987
2.50086
2.51054
2.47439
2.48418
2.49354
2.50216
2.50882
2.51529
2.4651
2.47454
2.48374
2.49284
2.50209
2.51277
2.45994
2.46813
2.47551
2.48409
2.49481
2.50881
2.45304
2.45847
2.46433
2.47306
2.48529
2.50491
2.44785
2.45041
2.45479
2.46447
2.48276
2.50927
2.44325
2.44363
2.44755
2.45998
2.48204
2.50695
2.44049
2.44033
2.44526
2.46171
2.48172
2.50278
2.44058
2.44116
2.44885
2.4667
2.48268
2.49185
2.44307
2.44552
2.45707
2.47152
2.48241
2.48396
2.44816
2.45236
2.46633
2.47879
2.48729
2.48413
2.45591
2.46169
2.47679
2.49095
2.49683
2.49375
2.46493
2.47299
2.48864
2.50096
2.50686
2.50687
2.47429
2.48364
2.49793
2.50971
2.5173
2.5211
2.48177
2.49006
2.50103
2.5098
2.51885
2.52622
2.48067
2.4891
2.49912
2.50789
2.51596
2.52126
2.47445
2.48256
2.49123
2.49974
2.50786
2.51617
2.47153
2.47832
2.48491
2.4921
2.49963
2.50873
2.46653
2.47101
2.47534
2.48078
2.48762
2.49856
2.4632
2.4646
2.46663
2.47035
2.47819
2.49559
2.45937
2.45867
2.45873
2.46185
2.47405
2.49442
2.45769
2.45547
2.45437
2.45938
2.47538
2.49619
2.45773
2.45532
2.45515
2.4633
2.48084
2.49973
2.4594
2.45796
2.46042
2.4731
2.48782
2.5006
2.46332
2.46417
2.46947
2.48374
2.49681
2.5056
2.46937
2.47205
2.4815
2.49633
2.51043
2.51467
2.47745
2.48215
2.49375
2.50958
2.52185
2.52507
2.486
2.49273
2.50559
2.52011
2.53088
2.53586
2.49495
2.50274
2.51409
2.52524
2.5345
2.54076
2.49128
2.49804
2.50806
2.51678
2.52513
2.5314
2.48786
2.49483
2.50293
2.51125
2.51834
2.52511
2.48691
2.49267
2.4988
2.50498
2.51092
2.51764
2.48407
2.48791
2.49163
2.49542
2.50003
2.50581
2.48204
2.48331
2.48443
2.4859
2.48862
2.49676
2.47975
2.47847
2.47727
2.47661
2.47982
2.49297
2.47851
2.47591
2.47286
2.47066
2.47622
2.48968
2.47834
2.47476
2.47114
2.47007
2.48
2.49446
2.47973
2.47624
2.47337
2.47547
2.48986
2.50255
2.48282
2.48054
2.48048
2.48625
2.50102
2.51268
2.48779
2.48703
2.4898
2.49994
2.51467
2.52588
2.49427
2.49577
2.50186
2.51394
2.52921
2.53759
2.50165
2.50537
2.51423
2.52746
2.54118
2.54842
2.51019
2.5161