/*--------------------------------*- C++ -*----------------------------------*\
| =========                 |                                                 |
| \\      /  F ield         | OpenFOAM: The Open Source CFD Toolbox           |
|  \\    /   O peration     | Version:  v2106                                 |
|   \\  /    A nd           | Website:  www.openfoam.com                      |
|    \\/     M anipulation  |                                                 |
\*---------------------------------------------------------------------------*/
FoamFile
{
    version     2.0;
    format      ascii;
    arch        "LSB;label=32;scalar=64";
    class       volScalarField;
    location    "0.000166";
    object      rho;
}
// * * * * * * * * * * * * * * * * * * * * * * * * * * * * * * * * * * * * * //

dimensions      [1 -3 0 0 0 0 0];

internalField   nonuniform List<scalar> 
18273
(
2.37479
2.37459
2.36984
2.36869
2.36566
2.36304
2.36002
2.35746
2.35531
2.35385
2.35244
2.35181
2.35365
2.35917
2.36924
2.36953
2.36509
2.36304
2.36081
2.35948
2.35798
2.35658
2.35507
2.35348
2.35217
2.35211
2.35542
2.35957
2.36787
2.36629
2.36262
2.35974
2.3576
2.35638
2.35544
2.35429
2.35317
2.35176
2.35051
2.3502
2.35149
2.35531
2.36653
2.36399
2.36025
2.35715
2.3549
2.35403
2.35329
2.35273
2.35154
2.35031
2.34898
2.34903
2.35058
2.35419
2.36496
2.36205
2.35808
2.35486
2.3526
2.35163
2.35102
2.35039
2.34939
2.34807
2.34691
2.34663
2.34773
2.35014
2.36333
2.35953
2.35512
2.35186
2.34971
2.34874
2.34829
2.34774
2.34684
2.34555
2.34442
2.34385
2.34413
2.34499
2.36211
2.35761
2.353
2.3492
2.34691
2.34573
2.34505
2.34448
2.34365
2.34228
2.34105
2.34008
2.3396
2.33954
2.36156
2.35585
2.35057
2.34632
2.34389
2.34228
2.34155
2.34075
2.33979
2.33826
2.33708
2.33616
2.33564
2.33559
2.36245
2.35521
2.34891
2.34404
2.34131
2.33906
2.33799
2.33684
2.33578
2.33414
2.33317
2.33261
2.33255
2.33365
2.36442
2.35537
2.3481
2.34225
2.33913
2.33645
2.33503
2.33354
2.33243
2.33127
2.33079
2.33075
2.33192
2.33458
2.36801
2.3572
2.3487
2.34201
2.33819
2.33486
2.33336
2.33184
2.33111
2.33082
2.33163
2.33302
2.33531
2.33872
2.37141
2.35962
2.35016
2.34294
2.33819
2.33441
2.33304
2.33202
2.33255
2.33383
2.33635
2.33939
2.34424
2.34695
2.37932
2.36594
2.35355
2.34467
2.33876
2.33527
2.3339
2.33347
2.33533
2.33856
2.34346
2.34855
2.35625
2.35796
2.38513
2.36736
2.35665
2.34753
2.34048
2.33628
2.33435
2.33476
2.33785
2.34313
2.35004
2.35658
2.36652
2.36983
2.37231
2.37362
2.37203
2.37259
2.3713
2.36892
2.36709
2.36595
2.36521
2.36316
2.36028
2.35738
2.3562
2.3578
2.37112
2.37212
2.36932
2.36828
2.3674
2.36641
2.36538
2.3648
2.36415
2.36304
2.36141
2.35952
2.35984
2.35994
2.37292
2.3717
2.36932
2.36703
2.36575
2.36466
2.36381
2.363
2.36277
2.36199
2.36062
2.35884
2.35781
2.35872
2.37543
2.37269
2.36959
2.36677
2.36516
2.36429
2.3636
2.36289
2.36219
2.36132
2.35988
2.35878
2.35848
2.35948
2.37788
2.37357
2.36965
2.36667
2.36496
2.36412
2.36326
2.36276
2.36185
2.36075
2.35939
2.35833
2.3577
2.35749
2.37935
2.37348
2.36892
2.3659
2.3643
2.36359
2.363
2.36248
2.36162
2.3604
2.35898
2.35755
2.35631
2.35509
2.38065
2.37326
2.36818
2.36477
2.36331
2.36263
2.3621
2.36164
2.36081
2.35936
2.35789
2.3562
2.35488
2.35307
2.38191
2.37343
2.36794
2.3642
2.36265
2.36155
2.36103
2.36019
2.35931
2.35788
2.35662
2.35514
2.35389
2.35181
2.38396
2.37435
2.36787
2.36386
2.3622
2.36094
2.36017
2.35903
2.35787
2.35639
2.35526
2.35451
2.35355
2.35222
2.38698
2.37593
2.36879
2.3646
2.36277
2.36104
2.35983
2.35839
2.35723
2.35588
2.35504
2.35465
2.35494
2.35458
2.39146
2.37922
2.37142
2.36684
2.36471
2.36287
2.36154
2.35976
2.35842
2.35747
2.35724
2.35747
2.35855
2.35864
2.39534
2.38262
2.3747
2.3702
2.36766
2.36562
2.36433
2.36297
2.36255
2.36245
2.36306
2.36398
2.36705
2.36652
2.40239
2.38836
2.37905
2.37395
2.37131
2.36967
2.36861
2.36767
2.36811
2.36919
2.37152
2.37317
2.37828
2.37705
2.40684
2.39008
2.38265
2.3776
2.37426
2.37239
2.37124
2.37075
2.37235
2.37486
2.37895
2.38179
2.38824
2.38784
2.38458
2.38431
2.38101
2.37999
2.37781
2.37561
2.3742
2.37402
2.37353
2.37153
2.36961
2.3663
2.36284
2.3595
2.38823
2.38619
2.38114
2.37784
2.37587
2.37471
2.37356
2.37338
2.37434
2.3732
2.37206
2.36908
2.36635
2.36297
2.39167
2.38811
2.38325
2.37873
2.37626
2.37427
2.37419
2.37348
2.3737
2.37266
2.37053
2.3669
2.36321
2.36119
2.39424
2.38939
2.38469
2.38049
2.37842
2.37663
2.37589
2.37528
2.37447
2.37245
2.36937
2.36556
2.3626
2.36105
2.3957
2.38938
2.38485
2.38138
2.37964
2.37804
2.37718
2.37631
2.37491
2.3724
2.36874
2.36478
2.36159
2.35914
2.39609
2.3889
2.38408
2.3815
2.38037
2.37886
2.37826
2.37713
2.37551
2.37265
2.36839
2.36426
2.36012
2.35635
2.39519
2.3875
2.38243
2.38078
2.37976
2.37881
2.37811
2.37672
2.3743
2.37145
2.36759
2.36382
2.3595
2.35525
2.39519
2.3869
2.38138
2.37952
2.37873
2.37782
2.37699
2.3756
2.37375
2.37106
2.36776
2.36371
2.3604
2.3567
2.39645
2.38691
2.3814
2.37964
2.37848
2.3771
2.37589
2.37431
2.37253
2.37024
2.36759
2.36521
2.36196
2.3587
2.39906
2.3879
2.38216
2.37951
2.37791
2.37617
2.37433
2.3727
2.37115
2.36938
2.36768
2.36608
2.3646
2.36173
2.40366
2.39129
2.38523
2.38184
2.37927
2.37594
2.37366
2.37188
2.37034
2.36913
2.3684
2.36798
2.36821
2.3656
2.40754
2.39535
2.38956
2.38502
2.38127
2.3778
2.37544
2.37356
2.37206
2.37133
2.37113
2.37124
2.37322
2.37108
2.41476
2.40168
2.39478
2.38968
2.38546
2.38144
2.37867
2.37671
2.37583
2.37586
2.37662
2.37719
2.382
2.37877
2.41824
2.40311
2.39782
2.39315
2.38887
2.38532
2.38278
2.3804
2.38001
2.38171
2.38438
2.38587
2.39274
2.39172
2.36919
2.37663
2.37869
2.38312
2.38186
2.38596
2.36168
2.36954
2.37376
2.38123
2.38396
2.39028
2.36241
2.37237
2.37557
2.38302
2.38403
2.3923
2.35896
2.36748
2.37094
2.38036
2.38138
2.39233
2.35397
2.3622
2.36658
2.37669
2.37834
2.39001
2.34646
2.35295
2.35721
2.36944
2.37348
2.38755
2.34043
2.3474
2.35251
2.36454
2.36927
2.38478
2.3364
2.34276
2.34942
2.36238
2.36853
2.38245
2.33624
2.34364
2.35204
2.36429
2.37151
2.38316
2.33957
2.34814
2.35854
2.37026
2.37769
2.38694
2.34673
2.35678
2.36889
2.38041
2.38768
2.39722
2.35741
2.36799
2.37902
2.38966
2.39646
2.40389
2.37029
2.37937
2.38827
2.39717
2.4026
2.40952
2.37832
2.3868
2.39318
2.40109
2.40532
2.41157
2.36306
2.36845
2.37217
2.37732
2.37805
2.38316
2.35801
2.36326
2.36868
2.37736
2.3815
2.39119
2.36047
2.3662
2.36976
2.37988
2.38401
2.39907
2.3582
2.36168
2.36534
2.37672
2.37821
2.39964
2.35551
2.35894
2.36184
2.37029
2.37021
2.39167
2.35192
2.35302
2.35473
2.36361
2.36096
2.39237
2.35091
2.35157
2.35239
2.36002
2.3569
2.38526
2.34969
2.35067
2.35282
2.36092
2.35897
2.38341
2.35132
2.35385
2.3578
2.36489
2.36432
2.38368
2.35597
2.35945
2.36546
2.37251
2.37406
2.38942
2.36301
2.36788
2.37571
2.38431
2.38808
2.40002
2.37305
2.37904
2.38618
2.39599
2.40256
2.41243
2.38533
2.39085
2.39854
2.40831
2.41444
2.42266
2.39282
2.39848
2.40578
2.41605
2.42151
2.42923
2.36796
2.36736
2.36613
2.36171
2.35838
2.3469
2.35901
2.36244
2.36501
2.36419
2.3677
2.35852
2.36246
2.36541
2.36748
2.36836
2.37495
2.3718
2.35922
2.35845
2.35856
2.36421
2.37119
2.38484
2.35579
2.35361
2.35282
2.36166
2.36982
2.39198
2.35131
2.3474
2.34677
2.35773
2.36144
2.39473
2.35006
2.34664
2.3466
2.3566
2.35559
2.39202
2.35123
2.34775
2.34847
2.3579
2.35809
2.39034
2.35445
2.35202
2.35325
2.36064
2.36262
2.38984
2.35982
2.35952
2.36247
2.36801
2.36951
2.38915
2.36694
2.3684
2.37406
2.37981
2.3819
2.39436
2.37504
2.37875
2.38586
2.39297
2.39804
2.40551
2.38615
2.39139
2.39964
2.40861
2.41477
2.41836
2.39455
2.40039
2.41007
2.41969
2.42529
2.42864
2.38295
2.39256
2.39418
2.3993
2.40199
2.41178
2.36908
2.37956
2.38431
2.39195
2.396
2.4078
2.36394
2.37472
2.38002
2.38728
2.39443
2.40623
2.35456
2.36355
2.37009
2.38013
2.39145
2.40837
2.34812
2.35845
2.3651
2.37623
2.38293
2.40564
2.3416
2.35178
2.36007
2.37456
2.37836
2.40506
2.339
2.34889
2.35786
2.37335
2.37781
2.4098
2.33784
2.34809
2.35967
2.37602
2.38259
2.40717
2.34061
2.35223
2.36516
2.38166
2.38906
2.41084
2.34634
2.35956
2.37403
2.39233
2.40132
2.41966
2.35589
2.37003
2.38517
2.40249
2.41279
2.42451
2.36658
2.38107
2.39493
2.41142
2.42027
2.43094
2.38038
2.39391
2.40389
2.41625
2.4199
2.42903
2.38991
2.4003
2.40877
2.41879
2.41986
2.42797
2.39938
2.40695
2.41009
2.41922
2.42199
2.43309
2.38899
2.39617
2.40114
2.4116
2.4135
2.42684
2.38693
2.39392
2.39645
2.40193
2.40198
2.41585
2.38035
2.38386
2.38426
2.38922
2.38746
2.4084
2.37627
2.38042
2.37929
2.38307
2.37545
2.40178
2.37232
2.37535
2.37501
2.3822
2.37174
2.40194
2.37123
2.37417
2.37502
2.3823
2.37036
2.40302
2.37133
2.37421
2.37665
2.38385
2.3723
2.40958
2.37319
2.37733
2.38164
2.39117
2.38233
2.40925
2.37668
2.38292
2.38954
2.40205
2.39914
2.42445
2.38243
2.39084
2.40051
2.41496
2.41949
2.43488
2.38985
2.40085
2.41091
2.42659
2.43559
2.45049
2.40093
2.41276
2.42258
2.43659
2.4434
2.45601
2.40927
2.41948
2.42976
2.44341
2.44701
2.46037
2.40598
2.41699
2.42127
2.42991
2.43391
2.43859
2.39403
2.40538
2.41381
2.42414
2.43096
2.44332
2.39103
2.40045
2.40767
2.41704
2.42261
2.43998
2.38602
2.39029
2.39332
2.40065
2.40309
2.43127
2.38218
2.3841
2.38614
2.39256
2.39042
2.42501
2.37984
2.37888
2.37989
2.387
2.38346
2.42119
2.3808
2.3797
2.38079
2.38789
2.38254
2.41861
2.38399
2.38373
2.3862
2.39469
2.3895
2.42266
2.38771
2.38954
2.39382
2.40287
2.39967
2.42877
2.39154
2.39551
2.40166
2.41017
2.41142
2.44073
2.39739
2.4034
2.41142
2.42356
2.42762
2.44744
2.40416
2.41258
2.42125
2.43547
2.44417
2.45759
2.41302
2.42397
2.43419
2.45297
2.46173
2.47115
2.4169
2.42983
2.44376
2.46564
2.47476
2.48382
2.40195
2.39638
2.39198
2.38512
2.37969
2.37435
2.39935
2.39316
2.38929
2.38523
2.37941
2.37557
2.39618
2.38929
2.38731
2.38344
2.37767
2.37267
2.39999
2.3873
2.38793
2.38168
2.37624
2.3703
2.40283
2.38499
2.38748
2.37942
2.37392
2.3678
2.41094
2.38268
2.38652
2.37788
2.37216
2.36645
2.41598
2.38603
2.3884
2.37696
2.37067
2.36488
2.41805
2.39202
2.39197
2.37845
2.37181
2.3648
2.4242
2.39919
2.39448
2.37964
2.37269
2.3656
2.42833
2.40694
2.39927
2.38613
2.37771
2.36888
2.43037
2.41348
2.40355
2.39137
2.38223
2.37283
2.42759
2.4148
2.40909
2.40035
2.39115
2.37889
2.42432
2.41286
2.41136
2.40231
2.39518
2.38282
2.42769
2.4168
2.41784
2.41282
2.41009
2.39731
2.40092
2.39433
2.38857
2.38077
2.37475
2.37093
2.39472
2.38724
2.38367
2.38123
2.3763
2.37569
2.39039
2.37991
2.38186
2.3809
2.37703
2.37582
2.39371
2.37759
2.3847
2.38286
2.38003
2.37808
2.40549
2.37693
2.3889
2.38601
2.38411
2.38113
2.41296
2.38082
2.39331
2.38915
2.38704
2.38409
2.41657
2.38483
2.3978
2.3914
2.38885
2.38574
2.42132
2.38754
2.4016
2.39342
2.39075
2.38699
2.42467
2.39237
2.40526
2.39576
2.39311
2.38876
2.42792
2.4003
2.41037
2.40254
2.39921
2.39231
2.43213
2.41009
2.41592
2.40792
2.40429
2.39664
2.44089
2.42285
2.42706
2.41967
2.4134
2.4024
2.45186
2.43103
2.43449
2.42442
2.41724
2.406
2.456
2.44207
2.4441
2.43599
2.43269
2.41977
2.38086
2.38322
2.38196
2.38129
2.37869
2.37971
2.38155
2.3832
2.38667
2.39315
2.39204
2.3941
2.39556
2.38989
2.39502
2.39857
2.39696
2.397
2.41707
2.39634
2.40401
2.40544
2.40175
2.39951
2.43285
2.40539
2.41581
2.41243
2.40707
2.4025
2.44943
2.41368
2.42343
2.4159
2.41108
2.40455
2.46015
2.41682
2.42605
2.41585
2.41189
2.405
2.4655
2.41752
2.42583
2.41492
2.41164
2.40507
2.47113
2.42169
2.42712
2.41583
2.41283
2.40588
2.47701
2.43273
2.43608
2.42294
2.41795
2.40825
2.48512
2.44583
2.44453
2.43036
2.4245
2.41196
2.49453
2.4653
2.45933
2.44307
2.43319
2.41594
2.50224
2.4777
2.46614
2.44874
2.43908
2.4192
2.49455
2.48261
2.47586
2.46012
2.4535
2.43537
2.38203
2.37745
2.37486
2.37119
2.36608
2.36192
2.3776
2.37146
2.36836
2.36604
2.36135
2.35904
2.37139
2.36575
2.36369
2.36132
2.35743
2.35562
2.37114
2.3636
2.36169
2.35873
2.35593
2.35438
2.37326
2.36422
2.36296
2.35821
2.35556
2.35394
2.37797
2.36617
2.36583
2.35933
2.35661
2.35508
2.38375
2.36965
2.36996
2.36183
2.35919
2.35707
2.39003
2.37536
2.37649
2.36728
2.36414
2.3607
2.39507
2.37887
2.3814
2.37216
2.36985
2.36532
2.39828
2.38527
2.38832
2.37947
2.37635
2.36962
2.40058
2.38877
2.39122
2.38324
2.3801
2.37301
2.40299
2.39502
2.39539
2.38811
2.38414
2.37493
2.40214
2.39569
2.39371
2.38622
2.38199
2.37444
2.40403
2.40039
2.40088
2.39558
2.39373
2.38577
2.37395
2.36937
2.36624
2.36272
2.35887
2.35834
2.37111
2.36418
2.36224
2.36263
2.36041
2.36132
2.36845
2.36124
2.3621
2.36215
2.35924
2.36046
2.37359
2.36253
2.36405
2.36271
2.36063
2.36154
2.3806
2.36191
2.36578
2.36325
2.36201
2.36268
2.38714
2.36281
2.36855
2.3644
2.36344
2.36451
2.39517
2.36276
2.37084
2.36517
2.36461
2.36601
2.40052
2.36568
2.3736
2.36752
2.36723
2.36732
2.3997
2.37076
2.37635
2.36994
2.37039
2.36947
2.40392
2.37858
2.38182
2.37643
2.37622
2.37284
2.40612
2.38396
2.38807
2.38208
2.38006
2.37481
2.41154
2.39508
2.39559
2.38812
2.38468
2.37574
2.41296
2.40157
2.39674
2.38643
2.38073
2.37211
2.41165
2.40483
2.40123
2.39368
2.38885
2.3818
2.33605
2.34497
2.34877
2.35311
2.35252
2.35745
2.33974
2.34485
2.35174
2.36124
2.36335
2.36789
2.34857
2.34839
2.35615
2.36361
2.36494
2.36904
2.36894
2.35567
2.36185
2.36667
2.36635
2.36975
2.38681
2.36274
2.36638
2.36789
2.36822
2.37162
2.40154
2.36869
2.37451
2.37029
2.37119
2.37382
2.41568
2.3753
2.38124
2.37226
2.37343
2.37542
2.42963
2.38545
2.38834
2.37627
2.3764
2.37608
2.44227
2.39679
2.39486
2.38033
2.37882
2.37691
2.44416
2.40955
2.4035
2.38899
2.38528
2.38024
2.43893
2.41432
2.4049
2.39331
2.39023
2.38316
2.42256
2.41743
2.40761
2.40088
2.39489
2.38505
2.40901
2.40837
2.40104
2.39576
2.38866
2.38141
2.39751
2.40038
2.39955
2.39985
2.39726
2.39536
2.40343
2.39977
2.39435
2.39121
2.38866
2.38739
2.38628
2.38571
2.38751
2.38738
2.38808
2.38758
2.38735
2.38836
2.4028
2.39837
2.39195
2.38738
2.38464
2.38309
2.38263
2.38399
2.3843
2.38621
2.38768
2.38833
2.38833
2.38786
2.40361
2.39788
2.39237
2.38778
2.38535
2.38378
2.38346
2.38268
2.38369
2.38463
2.3853
2.3849
2.38366
2.38437
2.40305
2.39682
2.39214
2.38851
2.38653
2.38488
2.38464
2.38435
2.38424
2.38382
2.38307
2.38136
2.38027
2.38152
2.40158
2.39506
2.39106
2.38912
2.38754
2.38639
2.38622
2.38572
2.3853
2.3841
2.38212
2.3792
2.37778
2.37837
2.40046
2.39256
2.38943
2.38854
2.38773
2.38752
2.38715
2.38642
2.38517
2.38335
2.3811
2.37779
2.37647
2.37556
2.39909
2.39136
2.38795
2.38747
2.38744
2.38737
2.38721
2.38636
2.38501
2.38264
2.38001
2.37727
2.3761
2.37395
2.39852
2.38963
2.38677
2.38622
2.3864
2.38629
2.3863
2.38552
2.38443
2.38263
2.38039
2.37867
2.37687
2.37472
2.39883
2.38952
2.38602
2.38528
2.38534
2.38518
2.38499
2.38429
2.38347
2.38228
2.38116
2.37999
2.37967
2.37765
2.40037
2.39067
2.38691
2.38556
2.38473
2.38401
2.38344
2.38282
2.38251
2.38239
2.38188
2.38191
2.38162
2.37994
2.40448
2.39394
2.38955
2.38686
2.38534
2.38367
2.38259
2.38187
2.38193
2.38206
2.38267
2.38403
2.38519
2.38386
2.40981
2.3999
2.39501
2.39116
2.38816
2.38549
2.38366
2.38256
2.38244
2.38295
2.38422
2.38699
2.39019
2.38872
2.41829
2.40838
2.40207
2.39744
2.39368
2.39035
2.38817
2.38655
2.38599
2.38648
2.3879
2.39067
2.39717
2.39492
2.42221
2.41109
2.40736
2.40383
2.4005
2.39734
2.39443
2.39266
2.39239
2.3942
2.39736
2.39967
2.40688
2.4084
2.41551
2.41167
2.40504
2.40061
2.39714
2.39502
2.39417
2.39446
2.39587
2.39816
2.40074
2.40281
2.40463
2.40709
2.41323
2.40863
2.40192
2.39722
2.39432
2.39273
2.39226
2.39206
2.39371
2.39586
2.39898
2.40188
2.4044
2.40671
2.41172
2.40612
2.40072
2.39673
2.39425
2.39269
2.39206
2.39178
2.39259
2.39399
2.39576
2.3972
2.39829
2.40115
2.40866
2.40346
2.3995
2.39685
2.39481
2.39386
2.39341
2.39312
2.3933
2.39334
2.39342
2.39307
2.39327
2.3968
2.4053
2.4006
2.39777
2.39649
2.39521
2.39512
2.39472
2.39423
2.39364
2.39283
2.39186
2.39037
2.3899
2.39335
2.40182
2.39726
2.39579
2.39558
2.3954
2.39555
2.3953
2.39473
2.39373
2.39193
2.38991
2.38822
2.38795
2.39136
2.40012
2.39521
2.39403
2.39443
2.39478
2.39508
2.39503
2.39458
2.39347
2.39182
2.38949
2.38803
2.38803
2.39089
2.39789
2.39333
2.39229
2.39298
2.39362
2.39392
2.39404
2.39374
2.39299
2.39177
2.39025
2.38931
2.38958
2.39141
2.39746
2.3925
2.39135
2.39177
2.39233
2.39248
2.39255
2.39247
2.39206
2.39156
2.39098
2.39117
2.39253
2.39395
2.39889
2.39333
2.39146
2.39113
2.39104
2.3908
2.3906
2.39058
2.39075
2.3913
2.39223
2.39397
2.39617
2.39778
2.4033
2.39663
2.39396
2.39219
2.39051
2.38937
2.3887
2.38873
2.38934
2.39107
2.39316
2.3966
2.3998
2.40062
2.41013
2.40331
2.39912
2.39529
2.39228
2.38954
2.38812
2.38775
2.38857
2.39073
2.39428
2.39933
2.40451
2.40432
2.41962
2.41272
2.40713
2.40197
2.39734
2.39349
2.3909
2.38971
2.39034
2.39261
2.3968
2.40265
2.40999
2.40962
2.42456
2.41714
2.4142
2.41006
2.40599
2.40145
2.39834
2.39692
2.3976
2.40018
2.40482
2.40977
2.4184
2.41889
2.42999
2.42429
2.41672
2.41089
2.40731
2.40554
2.40545
2.40623
2.40758
2.41128
2.41586
2.42092
2.42675
2.43151
2.42602
2.42072
2.41447
2.40986
2.4069
2.40526
2.40477
2.40525
2.40727
2.41024
2.41408
2.41864
2.42337
2.42791
2.42098
2.41677
2.41255
2.40963
2.40735
2.40637
2.40609
2.40619
2.40759
2.40898
2.41164
2.41449
2.41729
2.42071
2.41625
2.41324
2.41077
2.40951
2.40784
2.40784
2.40773
2.40767
2.40841
2.40877
2.40985
2.41065
2.41146
2.4139
2.41194
2.41003
2.40892
2.40846
2.40837
2.4088
2.40887
2.40882
2.40883
2.40828
2.40805
2.40773
2.40738
2.40933
2.40788
2.40648
2.40684
2.40746
2.40818
2.40901
2.40928
2.40929
2.40887
2.40782
2.40617
2.40496
2.4044
2.40635
2.40494
2.40388
2.40499
2.40625
2.40735
2.40834
2.40882
2.40904
2.40858
2.40743
2.40589
2.40431
2.4039
2.40579
2.40185
2.40136
2.40293
2.4046
2.406
2.40706
2.4077
2.40811
2.40783
2.40698
2.40589
2.40481
2.40519
2.40689
2.40015
2.39992
2.40109
2.40282
2.40417
2.40526
2.40603
2.40671
2.40682
2.40662
2.40644
2.40635
2.40763
2.41031
2.40052
2.39978
2.40026
2.40119
2.40208
2.40285
2.40365
2.40464
2.40539
2.40612
2.40708
2.4084
2.41098
2.41381
2.40395
2.40213
2.40148
2.40066
2.40056
2.40072
2.40129
2.4023
2.40362
2.40552
2.40815
2.41127
2.41513
2.41763
2.41067
2.4076
2.40476
2.4025
2.40034
2.39918
2.3991
2.39996
2.40168
2.40482
2.40865
2.41372
2.41925
2.42086
2.4196
2.4156
2.41093
2.40642
2.40299
2.40038
2.39899
2.3991
2.40067
2.40385
2.40868
2.41551
2.42303
2.4244
2.42521
2.42098
2.41783
2.41355
2.40941
2.40568
2.40343
2.40232
2.40328
2.40613
2.4109
2.41757
2.42665
2.42829
2.43942
2.43396
2.42762
2.42257
2.41953
2.41762
2.41729
2.41804
2.42041
2.42332
2.42823
2.43368
2.44148
2.44724
2.43545
2.43104
2.42631
2.42289
2.42076
2.41934
2.41899
2.41946
2.42154
2.42412
2.42815
2.43229
2.43723
2.44173
2.42922
2.42707
2.42456
2.42298
2.42156
2.42109
2.42096
2.42132
2.42279
2.42419
2.42655
2.42939
2.43215
2.43475
2.42451
2.42365
2.42268
2.42226
2.42187
2.42219
2.42242
2.42282
2.42364
2.4242
2.42529
2.42634
2.42726
2.428
2.42033
2.42047
2.42065
2.42085
2.42175
2.42252
2.42306
2.42351
2.42381
2.42366
2.4236
2.42381
2.42342
2.42302
2.41595
2.41726
2.41859
2.41975
2.42107
2.42218
2.42297
2.42352
2.42371
2.42346
2.42267
2.42133
2.41997
2.41921
2.41233
2.41419
2.41636
2.41822
2.4199
2.42129
2.42227
2.423
2.42323
2.42302
2.422
2.42036
2.4186
2.41771
2.4092
2.41136
2.41391
2.4162
2.41815
2.41975
2.42104
2.42205
2.42248
2.42242
2.42154
2.42005
2.41866
2.41832
2.40684
2.40868
2.41151
2.41398
2.416
2.4178
2.41935
2.42073
2.42154
2.4219
2.42169
2.42103
2.42087
2.42117
2.40652
2.40769
2.40971
2.41185
2.41364
2.41549
2.41722
2.41891
2.42026
2.42135
2.4221
2.42248
2.42336
2.42417
2.40895
2.40939
2.40987
2.41061
2.41181
2.41326
2.41477
2.41666
2.41854
2.42045
2.42257
2.42439
2.42719
2.42864
2.41407
2.41246
2.41159
2.41065
2.41044
2.41109
2.41228
2.4141
2.41628
2.41904
2.42306
2.42659
2.43104
2.43321
2.42117
2.41826
2.41507
2.41247
2.41068
2.4099
2.41007
2.41142
2.41372
2.4177
2.42213
2.42777
2.43418
2.43708
2.42749
2.42382
2.42019
2.41647
2.41369
2.41151
2.41012
2.41036
2.41189
2.41583
2.42122
2.4284
2.43642
2.44027
2.44885
2.44512
2.44108
2.43735
2.43491
2.43312
2.43265
2.4333
2.43592
2.43864
2.44319
2.44875
2.4557
2.46233
2.44523
2.44258
2.44009
2.43819
2.43669
2.43555
2.43536
2.43586
2.43792
2.43997
2.44383
2.44782
2.4526
2.45754
2.43957
2.43923
2.43844
2.43797
2.43722
2.43724
2.43734
2.43789
2.43926
2.44054
2.44298
2.44568
2.44922
2.45233
2.43572
2.43625
2.4364
2.43689
2.43741
2.43788
2.43831
2.43904
2.44007
2.44102
2.44253
2.44412
2.44565
2.44667
2.43155
2.43323
2.43435
2.43574
2.43681
2.43773
2.43853
2.4394
2.44025
2.44093
2.44143
2.44192
2.44231
2.44214
2.42738
2.43011
2.43226
2.43419
2.43577
2.43704
2.43809
2.43911
2.43992
2.44042
2.4405
2.44013
2.4391
2.43809
2.42383
2.42705
2.42993
2.43225
2.43424
2.43582
2.43719
2.43843
2.4393
2.43974
2.43954
2.43867
2.43726
2.43564
2.42036
2.42404
2.42734
2.42997
2.43225
2.43421
2.436
2.43754
2.43859
2.43907
2.4388
2.43793
2.43645
2.43483
2.41787
2.42149
2.425
2.42772
2.43023
2.43255
2.43467
2.43654
2.43784
2.43852
2.43857
2.43814
2.43725
2.43648
2.41781
2.42017
2.42311
2.42569
2.42823
2.43069
2.43303
2.43522
2.43691
2.43812
2.43899
2.43933
2.43939
2.43909
2.41917
2.42125
2.42255
2.42432
2.42641
2.42867
2.43103
2.43349
2.43569
2.43762
2.4394
2.44072
2.44234
2.44252
2.42272
2.42222
2.42266
2.42339
2.42475
2.42662
2.42878
2.43135
2.43394
2.43651
2.43967
2.44264
2.44587
2.44694
2.42685
2.4253
2.42405
2.4234
2.42344
2.42446
2.4261
2.42841
2.43122
2.4349
2.43938
2.4436
2.4483
2.45122
2.43133
2.42891
2.4264
2.42431
2.4236
2.42331
2.42393
2.42567
2.42838
2.4328
2.43799
2.44436
2.45036
2.45451
2.45874
2.45667
2.45473
2.45242
2.45096
2.44968
2.44946
2.44996
2.45217
2.45442
2.45836
2.46268
2.46901
2.47524
2.45546
2.45447
2.45373
2.45299
2.45244
2.45169
2.45176
2.45238
2.4541
2.45604
2.45929
2.46312
2.46733
2.4718
2.45114
2.45193
2.45229
2.45277
2.45251
2.45279
2.45316
2.45391
2.45528
2.45685
2.45911
2.46196
2.46531
2.46881
2.44772
2.44937
2.45041
2.45164
2.4523
2.45293
2.45355
2.45452
2.45578
2.45731
2.45918
2.46137
2.46337
2.46476
2.44378
2.44658
2.44848
2.45012
2.45139
2.45239
2.45331
2.45446
2.45571
2.45717
2.45858
2.45998
2.4611
2.46141
2.44019
2.44368
2.4463
2.4483
2.45
2.45132
2.45258
2.45395
2.45529
2.45667
2.45776
2.45851
2.45848
2.45756
2.43662
2.44062
2.44384
2.44623
2.44829
2.45
2.45163
2.45325
2.45472
2.456
2.45672
2.4569
2.45633
2.45503
2.43333
2.4377
2.44129
2.44397
2.44641
2.4486
2.45068
2.45258
2.45418
2.45537
2.45587
2.45581
2.45508
2.45367
2.43124
2.43537
2.43913
2.44211
2.44488
2.44745
2.44985
2.45199
2.45372
2.45492
2.45546
2.45539
2.45489
2.45369
2.43101
2.43398
2.43743
2.44047
2.44335
2.44623
2.44891
2.45131
2.45328
2.45465
2.45553
2.45584
2.4559
2.45523
2.4315
2.43421
2.43648
2.43906
2.44189
2.44482
2.44766
2.45033
2.45264
2.45443
2.45598
2.45701
2.45794
2.45752
2.43314
2.43415
2.43584
2.43776
2.44013
2.44297
2.4459
2.4488
2.45151
2.45386
2.45635
2.45836
2.46046
2.4606
2.43487
2.4351
2.43561
2.43675
2.43852
2.4408
2.4434
2.44634
2.44938
2.45247
2.45605
2.45941
2.46236
2.46412
2.43739
2.43694
2.43581
2.43591
2.43657
2.43826
2.44031
2.44296
2.44627
2.45041
2.45502
2.46005
2.46405
2.46769
2.47099
2.47048
2.47015
2.46919
2.46881
2.468
2.46813
2.46865
2.46996
2.47182
2.47483
2.47859
2.48377
2.48974
2.46784
2.46839
2.46903
2.4693
2.46941
2.46946
2.46981
2.47053
2.47187
2.47372
2.4763
2.47977
2.48356
2.48758
2.46453
2.46638
2.46767
2.46889
2.46925
2.46988
2.47043
2.47134
2.47263
2.47438
2.47644
2.47925
2.4826
2.48631
2.46138
2.46417
2.46602
2.46763
2.46861
2.46949
2.47026
2.47138
2.47278
2.47463
2.47669
2.47921
2.48184
2.48404
2.45803
2.46169
2.46409
2.466
2.46738
2.46855
2.46963
2.47095
2.47246
2.47434
2.47627
2.47834
2.48032
2.48175
2.45481
2.45892
2.46182
2.464
2.46576
2.46727
2.46868
2.47025
2.4719
2.47377
2.47559
2.47729
2.47847
2.47867
2.45166
2.45606
2.45942
2.46192
2.46409
2.46596
2.46773
2.46954
2.47132
2.47315
2.47475
2.47592
2.47645
2.47603
2.44896
2.45351
2.45716
2.46001
2.46259
2.46487
2.46702
2.46904
2.47092
2.47265
2.47401
2.47478
2.4749
2.47411
2.44719
2.45159
2.45543
2.4586
2.46151
2.46411
2.46652
2.46871
2.47066
2.47235
2.47358
2.47414
2.47414
2.47337
2.44686
2.45036
2.45414
2.45742
2.46056
2.4634
2.46602
2.46838
2.47044
2.47217
2.47343
2.47402
2.4742
2.47361
2.44689
2.45019
2.45315
2.45633
2.45951
2.46253
2.46541
2.46797
2.47018
2.47201
2.47351
2.47444
2.47527
2.475
2.44742
2.44968
2.45221
2.45495
2.45804
2.46114
2.46416
2.46693
2.46949
2.47169
2.47379
2.47527
2.47686
2.4768
2.44791
2.44952
2.45145
2.45371
2.45628
2.45907
2.46194
2.46489
2.46786
2.47066
2.47354
2.47615
2.47834
2.47975
2.44929
2.44996
2.4508
2.4522
2.45387
2.4561
2.45858
2.46159
2.46506
2.46893
2.47305
2.47713
2.48005
2.48271
2.48691
2.48822
2.48999
2.49235
2.49557
2.49996
2.5051
2.48836
2.48978
2.49171
2.49412
2.49723
2.50068
2.50425
2.4888
2.49027
2.49222
2.49439
2.49709
2.50024
2.50378
2.48854
2.49018
2.49229
2.4946
2.4973
2.50014
2.50272
2.48788
2.48967
2.49187
2.49419
2.49666
2.49911
2.50109
2.48709
2.48903
2.49126
2.49357
2.49588
2.49794
2.49913
2.48646
2.4885
2.4907
2.49286
2.49482
2.49628
2.49682
2.48613
2.4882
2.49029
2.49224
2.49382
2.49476
2.49477
2.46454
2.46908
2.47297
2.47623
2.47906
2.48159
2.48388
2.48605
2.48812
2.49011
2.49187
2.49313
2.49371
2.49337
2.46415
2.46821
2.47212
2.47548
2.47851
2.48124
2.48369
2.48599
2.48814
2.49011
2.49175
2.49281
2.49328
2.49275
2.46393
2.46776
2.47125
2.4747
2.47791
2.48082
2.48347
2.48589
2.4881
2.49008
2.49174
2.49273
2.49341
2.49298
2.4642
2.46728
2.47038
2.47368
2.47687
2.47988
2.48267
2.48531
2.48779
2.48996
2.49186
2.493
2.49431
2.49414
2.46404
2.46672
2.46952
2.47238
2.47521
2.47805
2.4809
2.4838
2.48668
2.48931
2.49173
2.49364
2.49528
2.49636
2.46472
2.46652
2.46845
2.4704
2.47265
2.47506
2.47779
2.48094
2.48435
2.48789
2.49131
2.49456
2.49658
2.49854
2.4177
2.42993
2.43828
2.45553
2.47937
2.51034
2.39869
2.41056
2.42621
2.44592
2.47355
2.51315
2.40069
2.4166
2.43164
2.44954
2.47246
2.49977
2.3971
2.41041
2.42134
2.43425
2.44705
2.45992
2.39425
2.40475
2.412
2.41937
2.42473
2.42327
2.39099
2.39653
2.39776
2.39901
2.39851
2.38795
2.38931
2.39172
2.38958
2.38711
2.38209
2.36934
2.3901
2.38982
2.38572
2.38222
2.38014
2.36324
2.39186
2.39019
2.38775
2.38482
2.38624
2.37099
2.39246
2.39041
2.39095
2.38937
2.39336
2.38569
2.39225
2.39046
2.39544
2.39679
2.40416
2.40365
2.39164
2.39226
2.39955
2.40159
2.41588
2.42408
2.39468
2.39637
2.40497
2.41003
2.42713
2.44802
2.38582
2.39114
2.40398
2.41833
2.44468
2.47544
2.43092
2.44311
2.45249
2.46532
2.4829
2.5088
2.41145
2.4226
2.43931
2.4615
2.48837
2.51927
2.41146
2.42762
2.44529
2.46764
2.49201
2.5172
2.40833
2.42407
2.43991
2.45756
2.47125
2.48618
2.40541
2.41883
2.43194
2.44242
2.44792
2.45532
2.40282
2.412
2.41912
2.42103
2.42212
2.42514
2.40122
2.40721
2.40923
2.40534
2.40336
2.40386
2.40144
2.4061
2.40478
2.3983
2.39567
2.39164
2.40359
2.4075
2.40561
2.40068
2.39895
2.39391
2.40598
2.40852
2.40907
2.40702
2.40609
2.4022
2.40785
2.40929
2.41277
2.41502
2.41719
2.41844
2.40911
2.41122
2.41821
2.42288
2.43067
2.43948
2.41429
2.41681
2.42604
2.4335
2.44597
2.46064
2.40428
2.40995
2.42347
2.44094
2.46284
2.48337
2.44322
2.45552
2.46532
2.47657
2.48923
2.50569
2.42441
2.43299
2.44625
2.46653
2.49091
2.51732
2.41938
2.43046
2.44721
2.46873
2.49322
2.52088
2.41323
2.42505
2.4425
2.4626
2.4833
2.50107
2.40981
2.42254
2.43746
2.45482
2.46828
2.47652
2.40831
2.42138
2.43251
2.44425
2.44864
2.44908
2.40859
2.42066
2.4283
2.43406
2.43119
2.42953
2.41103
2.42094
2.42737
2.42913
2.42296
2.42156
2.41572
2.42351
2.43142
2.43046
2.42711
2.42543
2.42084
2.42865
2.43701
2.43733
2.43827
2.43617
2.42574
2.43263
2.44132
2.44546
2.4508
2.45032
2.42981
2.43678
2.446
2.45285
2.46046
2.46449
2.4369
2.44236
2.45274
2.46236
2.4721
2.48242
2.43026
2.4348
2.44613
2.46195
2.47975
2.49641
2.44859
2.45593
2.46153
2.46762
2.47374
2.48371
2.43452
2.43982
2.44649
2.45582
2.46888
2.48876
2.42805
2.43269
2.43953
2.45221
2.47137
2.49678
2.42158
2.425
2.43291
2.45005
2.47228
2.49744
2.41806
2.42066
2.43072
2.44968
2.47108
2.49146
2.416
2.41932
2.43263
2.4499
2.46662
2.47448
2.41694
2.42075
2.43615
2.44905
2.45809
2.45819
2.41983
2.42521
2.43918
2.44883
2.45279
2.4489
2.42345
2.43154
2.44448
2.4539
2.45384
2.44819
2.42982
2.43884
2.45369
2.46094
2.46076
2.45618
2.43623
2.44648
2.46052
2.46748
2.46983
2.46949
2.44281
2.45266
2.4654
2.47257
2.47737
2.47958
2.45032
2.45843
2.46887
2.47706
2.4854
2.49027
2.44845
2.45353
2.46144
2.47213
2.48312
2.49512
2.45538
2.46135
2.46589
2.47007
2.47374
2.47931
2.44634
2.45027
2.45444
2.45893
2.4646
2.47409
2.44129
2.44356
2.44585
2.44978
2.4575
2.4724
2.43565
2.43578
2.43697
2.44236
2.45537
2.47792
2.43228
2.43106
2.43233
2.44136
2.45933
2.48358
2.42989
2.4283
2.43125
2.44551
2.46538
2.48707
2.42978
2.42904
2.43501
2.45348
2.47066
2.48216
2.43152
2.43325
2.4428
2.45922
2.47246
2.4771
2.43542
2.43833
2.4513
2.46543
2.47555
2.47541
2.44072
2.44633
2.46029
2.47535
2.48156
2.47956
2.44792
2.45565
2.47072
2.4835
2.48914
2.48881
2.45498
2.46434
2.47825
2.48916
2.49567
2.49787
2.46246
2.47136
2.48294
2.49207
2.49903
2.5042
2.46471
2.47104
2.47922
2.48744
2.49557
2.50239
2.46348
2.46839
2.47285
2.47733
2.48043
2.48406
2.45797
2.46107
2.464
2.46759
2.47092
2.47614
2.4549
2.4564
2.45699
2.45846
2.46078
2.46838
2.45074
2.44997
2.44894
2.44907
2.45276
2.46587
2.44835
2.44573
2.44316
2.44365
2.45246
2.46849
2.44658
2.44273
2.44002
2.44384
2.45686
2.47743
2.44599
2.44229
2.44074
2.44866
2.466
2.48581
2.44671
2.44432
2.44607
2.45809
2.47334
2.48798
2.44986
2.44905
2.45286
2.46678
2.48105
2.49143
2.4536
2.4549
2.4625
2.47707
2.49162
2.49677
2.45991
2.4631
2.4729
2.48838
2.50009
2.50368
2.4661
2.47182
2.48321
2.49756
2.50712
2.51089
2.47292
2.48038
2.49137
2.503
2.51115
2.51599
2.4781
2.48509
2.49377
2.50203
2.50937
2.51535
2.47489
2.47871
2.48308
2.48735
2.49049
2.49395
2.47178
2.47451
2.47714
2.47995
2.48217
2.48662
2.4706
2.47192
2.47256
2.47303
2.4736
2.47635
2.46821
2.46725
2.46566
2.46432
2.46381
2.4686
2.46689
2.46407
2.46064
2.45769
2.45841
2.46717
2.46537
2.46155
2.45673
2.45344
2.45808
2.46959
2.46488
2.46029
2.45577
2.45411
2.46351
2.47874
2.46527
2.461
2.45773
2.46012
2.47321
2.48756
2.46747
2.46433
2.46312
2.4687
2.4832
2.49794
2.47015
2.46834
2.47001
2.47899
2.49421
2.50702
2.47491
2.47502
2.4796
2.49053
2.50571
2.51441
2.48008
2.48254
2.48985
2.50205
2.51474
2.52153
2.4858
2.49072