/*--------------------------------*- C++ -*----------------------------------*\
| =========                 |                                                 |
| \\      /  F ield         | OpenFOAM: The Open Source CFD Toolbox           |
|  \\    /   O peration     | Version:  v2106                                 |
|   \\  /    A nd           | Website:  www.openfoam.com                      |
|    \\/     M anipulation  |                                                 |
\*---------------------------------------------------------------------------*/
FoamFile
{
    version     2.0;
    format      ascii;
    arch        "LSB;label=32;scalar=64";
    class       volScalarField;
    location    "0.000148";
    object      nut;
}
// * * * * * * * * * * * * * * * * * * * * * * * * * * * * * * * * * * * * * //

dimensions      [0 2 -1 0 0 0 0];

internalField   nonuniform List<scalar> 
144746
(
4.79895e-05
4.22099e-05
3.52752e-05
2.70226e-05
1.92614e-05
1.24951e-05
8.16286e-06
5.59357e-06
4.90194e-06
6.31109e-06
1.02915e-05
1.71012e-05
2.62106e-05
3.5832e-05
4.56155e-05
3.89437e-05
3.10593e-05
2.22476e-05
1.44627e-05
8.50509e-06
5.10316e-06
3.22716e-06
2.75901e-06
3.92745e-06
7.25279e-06
1.288e-05
2.03452e-05
2.85748e-05
4.02448e-05
3.20117e-05
2.37394e-05
1.53539e-05
8.51923e-06
4.39261e-06
2.31329e-06
1.33967e-06
1.2104e-06
2.16965e-06
4.84295e-06
9.43325e-06
1.5444e-05
2.2222e-05
3.12812e-05
2.2659e-05
1.50788e-05
8.12157e-06
3.54348e-06
1.54196e-06
6.71128e-07
3.51029e-07
3.94281e-07
1.03017e-06
2.87106e-06
6.30678e-06
1.09607e-05
1.62211e-05
2.20862e-05
1.44298e-05
8.14499e-06
3.47717e-06
1.47935e-06
5.75975e-07
1.9232e-07
7.53633e-08
1.20885e-07
4.70822e-07
1.58689e-06
3.95004e-06
7.44069e-06
1.14642e-05
1.5534e-05
9.57613e-06
5.31551e-06
2.9451e-06
1.47664e-06
5.69686e-07
1.7379e-07
6.26424e-08
7.406e-08
2.51964e-07
8.80056e-07
2.37165e-06
4.86155e-06
7.98294e-06
1.26428e-05
8.75958e-06
6.1629e-06
4.11648e-06
2.12471e-06
8.4358e-07
3.00536e-07
1.6529e-07
1.66535e-07
2.87176e-07
6.87771e-07
1.67833e-06
3.50394e-06
5.96868e-06
1.30743e-05
1.10359e-05
9.06415e-06
6.33752e-06
3.48616e-06
1.51525e-06
6.55599e-07
4.76987e-07
5.18894e-07
7.00588e-07
1.092e-06
1.93057e-06
3.38847e-06
5.46203e-06
1.59341e-05
1.50329e-05
1.31131e-05
9.72781e-06
5.80571e-06
2.79414e-06
1.38874e-06
1.17037e-06
1.38796e-06
1.8441e-06
2.5292e-06
3.59541e-06
5.05741e-06
7.0073e-06
2.07738e-05
2.05978e-05
1.85166e-05
1.44825e-05
9.42644e-06
5.05491e-06
2.73328e-06
2.4015e-06
2.99167e-06
4.00796e-06
5.32337e-06
6.99084e-06
8.80526e-06
1.0972e-05
2.69058e-05
2.71078e-05
2.52246e-05
2.05918e-05
1.44419e-05
8.62233e-06
5.02117e-06
4.25125e-06
5.25996e-06
7.06684e-06
9.28571e-06
1.18837e-05
1.45161e-05
1.74108e-05
3.45078e-05
3.47459e-05
3.31667e-05
2.79373e-05
2.06934e-05
1.34627e-05
8.47573e-06
6.83595e-06
7.88261e-06
1.0424e-05
1.36923e-05
1.76054e-05
2.16006e-05
2.58482e-05
4.16782e-05
4.17577e-05
4.06368e-05
3.55304e-05
2.75174e-05
1.91296e-05
1.29191e-05
1.02177e-05
1.07319e-05
1.35574e-05
1.78214e-05
2.32603e-05
2.88448e-05
3.47288e-05
4.87957e-05
4.85583e-05
4.73402e-05
4.27016e-05
3.42271e-05
2.50374e-05
1.79118e-05
1.41806e-05
1.38923e-05
1.65554e-05
2.15099e-05
2.82902e-05
3.50373e-05
4.20799e-05
4.56485e-05
3.94904e-05
3.25314e-05
2.47239e-05
1.76409e-05
1.15375e-05
7.70596e-06
5.99576e-06
6.90155e-06
1.07087e-05
1.74513e-05
2.68128e-05
3.72155e-05
4.57944e-05
4.67496e-05
3.93296e-05
3.10144e-05
2.20203e-05
1.41601e-05
8.16374e-06
4.77207e-06
3.28827e-06
3.80247e-06
6.68276e-06
1.20955e-05
1.94713e-05
2.76607e-05
3.49874e-05
4.51841e-05
3.55974e-05
2.60458e-05
1.66105e-05
9.01168e-06
4.37501e-06
2.14086e-06
1.3259e-06
1.73153e-06
3.81501e-06
8.04102e-06
1.39057e-05
2.02423e-05
2.60918e-05
3.87946e-05
2.77757e-05
1.82762e-05
9.73933e-06
4.06658e-06
1.57612e-06
6.10988e-07
3.51759e-07
6.37956e-07
1.89384e-06
4.74736e-06
9.09318e-06
1.39189e-05
1.83655e-05
2.99313e-05
1.9267e-05
1.06488e-05
4.33498e-06
1.62832e-06
5.75206e-07
1.73578e-07
8.45845e-08
2.31236e-07
8.77807e-07
2.56668e-06
5.53565e-06
9.20055e-06
1.2763e-05
2.18551e-05
1.2704e-05
6.3132e-06
3.10004e-06
1.51241e-06
5.61765e-07
1.66358e-07
7.40293e-08
1.34086e-07
4.54368e-07
1.36849e-06
3.20774e-06
5.88762e-06
8.90027e-06
1.66601e-05
1.0143e-05
6.39499e-06
4.24652e-06
2.20298e-06
8.71981e-07
3.23027e-07
2.07328e-07
2.51028e-07
4.81801e-07
1.09393e-06
2.3671e-06
4.42932e-06
7.12043e-06
1.50639e-05
1.15527e-05
9.31074e-06
6.64881e-06
3.76378e-06
1.6794e-06
7.69756e-07
6.20735e-07
7.44582e-07
1.10094e-06
1.80065e-06
3.07191e-06
5.08489e-06
7.86664e-06
1.64854e-05
1.5141e-05
1.35133e-05
1.04324e-05
6.55647e-06
3.29405e-06
1.71012e-06
1.53405e-06
1.9447e-06
2.76143e-06
4.02185e-06
5.86708e-06
8.35091e-06
1.1607e-05
1.99133e-05
2.01018e-05
1.90394e-05
1.58307e-05
1.10605e-05
6.23828e-06
3.44697e-06
3.10142e-06
4.02812e-06
5.6518e-06
7.85651e-06
1.06838e-05
1.40133e-05
1.81488e-05
2.42434e-05
2.55512e-05
2.5519e-05
2.25798e-05
1.73888e-05
1.11991e-05
6.59176e-06
5.36368e-06
6.70868e-06
9.25237e-06
1.25123e-05
1.65742e-05
2.12611e-05
2.68803e-05
3.00769e-05
3.21648e-05
3.33139e-05
3.07454e-05
2.52271e-05
1.79765e-05
1.16374e-05
8.73813e-06
9.5196e-06
1.25918e-05
1.67917e-05
2.23085e-05
2.8682e-05
3.63411e-05
3.62335e-05
3.8601e-05
4.08668e-05
3.94314e-05
3.38664e-05
2.59527e-05
1.82936e-05
1.35749e-05
1.28037e-05
1.53245e-05
1.99426e-05
2.66412e-05
3.4474e-05
4.41004e-05
4.36712e-05
4.59085e-05
4.84419e-05
4.813e-05
4.28294e-05
3.44473e-05
2.57698e-05
1.94523e-05
1.68942e-05
1.80782e-05
2.23257e-05
2.96109e-05
3.80427e-05
4.83097e-05
3.54405e-05
3.0724e-05
2.57951e-05
2.01056e-05
1.48123e-05
1.01402e-05
7.42007e-06
7.31099e-06
1.04382e-05
1.64662e-05
2.4223e-05
3.26977e-05
4.00246e-05
4.41854e-05
3.80198e-05
3.19537e-05
2.55108e-05
1.85109e-05
1.20997e-05
7.04346e-06
4.24565e-06
3.62695e-06
5.49432e-06
1.00436e-05
1.64998e-05
2.34328e-05
2.92734e-05
3.26155e-05
3.88123e-05
3.0862e-05
2.29243e-05
1.48697e-05
8.07675e-06
3.77314e-06
1.80026e-06
1.37127e-06
2.45608e-06
5.60488e-06
1.07645e-05
1.65783e-05
2.14011e-05
2.43366e-05
3.64871e-05
2.66673e-05
1.75544e-05
9.32431e-06
3.82618e-06
1.34846e-06
4.84152e-07
3.63286e-07
9.2813e-07
2.7308e-06
6.244e-06
1.07989e-05
1.48387e-05
1.7483e-05
3.21259e-05
2.09192e-05
1.11863e-05
4.47302e-06
1.52758e-06
4.77924e-07
1.3155e-07
9.50512e-08
3.42378e-07
1.21921e-06
3.24662e-06
6.38064e-06
9.7137e-06
1.24868e-05
2.65541e-05
1.4969e-05
6.69711e-06
2.91018e-06
1.30058e-06
4.46116e-07
1.2471e-07
7.01574e-08
1.73689e-07
5.81878e-07
1.62145e-06
3.54311e-06
6.18097e-06
9.10363e-06
2.1024e-05
1.13484e-05
6.16609e-06
3.7626e-06
1.85058e-06
7.01313e-07
2.61896e-07
1.90314e-07
2.72397e-07
5.80634e-07
1.33068e-06
2.80574e-06
5.16801e-06
8.36442e-06
1.77313e-05
1.16769e-05
8.62747e-06
5.88924e-06
3.24757e-06
1.4342e-06
6.84327e-07
6.00274e-07
7.85997e-07
1.27694e-06
2.25862e-06
4.04154e-06
6.89295e-06
1.08665e-05
1.7596e-05
1.4555e-05
1.24118e-05
9.37626e-06
5.88476e-06
2.9984e-06
1.63229e-06
1.55127e-06
2.07669e-06
3.15223e-06
4.92489e-06
7.63031e-06
1.14742e-05
1.655e-05
1.95177e-05
1.84459e-05
1.71716e-05
1.43191e-05
1.0265e-05
6.01719e-06
3.47033e-06
3.22157e-06
4.30811e-06
6.30706e-06
9.16921e-06
1.29786e-05
1.78493e-05
2.40493e-05
2.18675e-05
2.21591e-05
2.22634e-05
2.04037e-05
1.66161e-05
1.13097e-05
6.87316e-06
5.68416e-06
7.12996e-06
1.00046e-05
1.37837e-05
1.85116e-05
2.43198e-05
3.16393e-05
2.49777e-05
2.65018e-05
2.79949e-05
2.71469e-05
2.41604e-05
1.8899e-05
1.29759e-05
9.56093e-06
1.00186e-05
1.31396e-05
1.73645e-05
2.27549e-05
2.94908e-05
3.8187e-05
2.77731e-05
3.03425e-05
3.32779e-05
3.40043e-05
3.22052e-05
2.77175e-05
2.13079e-05
1.58408e-05
1.38939e-05
1.55883e-05
1.93378e-05
2.49203e-05
3.19578e-05
4.18495e-05
3.21976e-05
3.52364e-05
3.87906e-05
4.09467e-05
4.02776e-05
3.66685e-05
3.04092e-05
2.36704e-05
1.93351e-05
1.86073e-05
2.07644e-05
2.56961e-05
3.21873e-05
4.21448e-05
4.34623e-05
5.10544e-05
5.75835e-05
6.34991e-05
7.35265e-05
3.53232e-05
3.55781e-05
4.43893e-05
5.45509e-05
6.5894e-05
8.41606e-05
3.82327e-05
2.86828e-05
3.75392e-05
4.9251e-05
6.57599e-05
9.54111e-05
4.20539e-05
2.16171e-05
2.92583e-05
4.03703e-05
6.01335e-05
0.000103143
4.6008e-05
1.56794e-05
2.16219e-05
3.08324e-05
5.14508e-05
0.000105959
4.95395e-05
1.13794e-05
1.60096e-05
2.3409e-05
4.27254e-05
0.000103596
5.24903e-05
8.84353e-06
1.28026e-05
1.92385e-05
3.62354e-05
9.66042e-05
5.51598e-05
8.0693e-06
1.19424e-05
1.82687e-05
3.33192e-05
8.82816e-05
5.68138e-05
9.51654e-06
1.37666e-05
2.06187e-05
3.43792e-05
8.05918e-05
5.69645e-05
1.35842e-05
1.86259e-05
2.63961e-05
3.88459e-05
7.38356e-05
5.59079e-05
2.01894e-05
2.61398e-05
3.47591e-05
4.53059e-05
6.76128e-05
5.42575e-05
2.86026e-05
3.50091e-05
4.397e-05
5.20113e-05
6.33961e-05
5.20201e-05
3.73104e-05
4.38139e-05
5.25186e-05
5.82826e-05
6.38122e-05
4.81185e-05
4.40503e-05
5.06727e-05
5.85802e-05
6.38461e-05
7.01073e-05
4.08553e-05
5.0216e-05
5.75436e-05
6.52737e-05
7.39757e-05
8.25989e-05
4.10948e-05
3.97277e-05
4.76228e-05
5.77213e-05
7.0979e-05
8.78704e-05
4.6439e-05
3.05855e-05
3.74366e-05
4.70004e-05
6.24513e-05
8.8119e-05
5.07679e-05
2.21365e-05
2.75257e-05
3.55114e-05
5.13169e-05
8.4014e-05
5.37926e-05
1.59186e-05
2.01899e-05
2.66712e-05
4.14363e-05
7.82125e-05
5.55629e-05
1.18422e-05
1.57749e-05
2.16013e-05
3.4924e-05
7.23929e-05
5.63777e-05
1.01472e-05
1.43897e-05
2.05565e-05
3.28596e-05
6.77348e-05
5.68022e-05
1.11927e-05
1.63884e-05
2.40021e-05
3.61985e-05
6.46898e-05
5.70974e-05
1.54059e-05
2.21989e-05
3.20034e-05
4.46565e-05
6.36045e-05
5.68579e-05
2.27033e-05
3.14028e-05
4.32951e-05
5.57743e-05
6.35448e-05
5.57334e-05
3.18699e-05
4.18761e-05
5.46882e-05
6.64797e-05
6.47007e-05
5.42634e-05
4.09243e-05
5.07634e-05
6.3308e-05
7.42865e-05
6.89006e-05
5.26503e-05
4.80052e-05
5.66788e-05
6.80948e-05
7.83284e-05
7.72498e-05
4.94821e-05
5.12094e-05
5.88263e-05
6.92276e-05
7.94496e-05
8.71779e-05
4.36687e-05
4.44382e-05
4.88966e-05
5.38781e-05
6.0332e-05
6.63976e-05
4.9159e-05
3.35279e-05
3.74021e-05
4.26171e-05
5.03566e-05
6.25523e-05
5.2377e-05
2.55793e-05
2.83839e-05
3.24195e-05
3.9644e-05
5.49398e-05
5.42188e-05
1.90384e-05
2.15869e-05
2.51307e-05
3.19281e-05
4.84601e-05
5.51179e-05
1.45797e-05
1.75285e-05
2.13638e-05
2.838e-05
4.49835e-05
5.58589e-05
1.20442e-05
1.60332e-05
2.11485e-05
2.94122e-05
4.59248e-05
5.72747e-05
1.22592e-05
1.78779e-05
2.51625e-05
3.56104e-05
5.23591e-05
6.00582e-05
1.59026e-05
2.37984e-05
3.4312e-05
4.75607e-05
6.34034e-05
6.39935e-05
2.28571e-05
3.35258e-05
4.75957e-05
6.28396e-05
7.4673e-05
6.77168e-05
3.1382e-05
4.41728e-05
6.04624e-05
7.62705e-05
8.20451e-05
6.98596e-05
3.88678e-05
5.18789e-05
6.81681e-05
8.50757e-05
8.61074e-05
6.99695e-05
4.36713e-05
5.44855e-05
6.89344e-05
8.68205e-05
8.78014e-05
6.71619e-05
4.58806e-05
5.32547e-05
6.44433e-05
8.00564e-05
8.55682e-05
6.10999e-05
4.43358e-05
4.96393e-05
5.78148e-05
6.94168e-05
7.92584e-05
5.24234e-05
4.76566e-05
5.46193e-05
6.13639e-05
6.81572e-05
7.8835e-05
3.54955e-05
4.03331e-05
4.86141e-05
5.90891e-05
7.22219e-05
9.1985e-05
3.82719e-05
3.28841e-05
4.10055e-05
5.29962e-05
7.17476e-05
0.000103254
4.18668e-05
2.52573e-05
3.24347e-05
4.43261e-05
6.64625e-05
0.000109212
4.54256e-05
1.98421e-05
2.61088e-05
3.70232e-05
6.00317e-05
0.000110284
4.83427e-05
1.74406e-05
2.3353e-05
3.33078e-05
5.52051e-05
0.000108137
5.03974e-05
1.8332e-05
2.43542e-05
3.37819e-05
5.35579e-05
0.000103922
5.16599e-05
2.25005e-05
2.88935e-05
3.81497e-05
5.53112e-05
9.80067e-05
5.2337e-05
2.93314e-05
3.60493e-05
4.49523e-05
5.93184e-05
9.13259e-05
5.26485e-05
3.71886e-05
4.38739e-05
5.20962e-05
6.35199e-05
8.42418e-05
5.31205e-05
4.40612e-05
5.02075e-05
5.78995e-05
6.66529e-05
7.73514e-05
5.39461e-05
4.86673e-05
5.39688e-05
6.16955e-05
6.89751e-05
7.50447e-05
5.26988e-05
5.07531e-05
5.56686e-05
6.35482e-05
7.13275e-05
7.92712e-05
4.83752e-05
5.11343e-05
5.59375e-05
6.43511e-05
7.41169e-05
8.83091e-05
4.09356e-05
5.08241e-05
5.81591e-05
6.74095e-05
7.86499e-05
9.16174e-05
4.1508e-05
4.11435e-05
4.83993e-05
5.90216e-05
7.46051e-05
9.57391e-05
4.6804e-05
3.21371e-05
3.81341e-05
4.82038e-05
6.5772e-05
9.40004e-05
5.11596e-05
2.48847e-05
3.03802e-05
3.97887e-05
5.73882e-05
8.88004e-05
5.44043e-05
2.13993e-05
2.71588e-05
3.63033e-05
5.28805e-05
8.36442e-05
5.67608e-05
2.16155e-05
2.83136e-05
3.78573e-05
5.31039e-05
7.99425e-05
5.84507e-05
2.55525e-05
3.35344e-05
4.39579e-05
5.77417e-05
7.80652e-05
5.95224e-05
3.2638e-05
4.1664e-05
5.27664e-05
6.51239e-05
7.74414e-05
6.00463e-05
4.08848e-05
5.00842e-05
6.10657e-05
7.29635e-05
7.82225e-05
6.0511e-05
4.73523e-05
5.57586e-05
6.60932e-05
7.87504e-05
8.05177e-05
6.12058e-05
5.05454e-05
5.73976e-05
6.70424e-05
8.04629e-05
8.47114e-05
6.16119e-05
5.04482e-05
5.5898e-05
6.52827e-05
7.87985e-05
9.13433e-05
6.00991e-05
4.84269e-05
5.32467e-05
6.24592e-05
7.6318e-05
9.88319e-05
5.58351e-05
4.62423e-05
5.0776e-05
6.00607e-05
7.49226e-05
0.000104914
4.85418e-05
4.13495e-05
4.5443e-05
5.15791e-05
6.02814e-05
7.09061e-05
4.9653e-05
3.22282e-05
3.56207e-05
4.12933e-05
5.09308e-05
6.65566e-05
5.33406e-05
2.61914e-05
2.91073e-05
3.42481e-05
4.38063e-05
6.1537e-05
5.64759e-05
2.27352e-05
2.66308e-05
3.241e-05
4.22472e-05
5.99982e-05
5.98559e-05
2.26929e-05
2.83055e-05
3.54738e-05
4.62167e-05
6.3071e-05
6.41403e-05
2.57877e-05
3.35328e-05
4.27494e-05
5.47917e-05
6.97662e-05
6.92481e-05
3.1842e-05
4.14272e-05
5.25841e-05
6.56138e-05
7.74367e-05
7.44157e-05
3.8928e-05
4.90786e-05
6.09882e-05
7.44598e-05
8.26349e-05
7.87324e-05
4.39336e-05
5.28863e-05
6.39697e-05
7.85569e-05
8.47835e-05
8.13227e-05
4.50987e-05
5.17709e-05
6.09432e-05
7.66604e-05
8.36434e-05
8.11913e-05
4.33703e-05
4.76168e-05
5.43377e-05
6.89741e-05
8.03809e-05
7.77493e-05
4.00306e-05
4.26319e-05
4.75203e-05
5.91203e-05
7.68717e-05
7.1497e-05
3.63128e-05
3.83843e-05
4.26176e-05
5.22485e-05
7.41605e-05
6.31641e-05
3.32169e-05
3.51656e-05
3.96417e-05
4.94665e-05
7.36273e-05
5.31384e-05
3.99816e-05
7.53357e-05
6.70607e-05
6.06646e-05
5.39333e-05
4.93703e-05
4.87871e-05
7.0652e-05
6.49415e-05
5.89741e-05
5.20716e-05
4.75089e-05
5.50528e-05
7.06864e-05
6.35028e-05
5.61046e-05
4.84099e-05
4.31376e-05
5.83617e-05
7.55666e-05
6.22927e-05
5.20064e-05
4.29473e-05
3.62278e-05
5.88952e-05
8.38919e-05
6.01821e-05
4.65965e-05
3.62287e-05
2.84379e-05
5.83602e-05
9.2297e-05
5.65394e-05
4.04482e-05
2.96541e-05
2.18263e-05
5.74225e-05
9.97231e-05
5.2667e-05
3.4892e-05
2.46152e-05
1.76192e-05
5.55653e-05
0.000106968
5.04088e-05
3.11529e-05
2.1837e-05
1.61328e-05
5.28822e-05
0.000112863
5.13088e-05
3.03752e-05
2.16303e-05
1.71527e-05
4.98755e-05
0.000116652
5.55263e-05
3.31639e-05
2.43762e-05
2.07325e-05
4.65642e-05
0.000117412
6.23763e-05
3.9706e-05
3.03626e-05
2.66276e-05
4.289e-05
0.000115005
7.07885e-05
4.93731e-05
3.929e-05
3.46374e-05
3.90152e-05
0.000107518
7.67746e-05
5.92377e-05
4.88899e-05
4.30132e-05
3.54642e-05
9.73872e-05
7.8228e-05
6.56264e-05
5.63741e-05
5.03436e-05
4.6038e-05
8.57159e-05
6.87198e-05
5.89188e-05
5.16086e-05
4.72532e-05
5.33533e-05
8.16714e-05
6.99749e-05
6.05125e-05
5.31014e-05
4.85798e-05
5.87587e-05
7.79122e-05
7.15796e-05
6.17219e-05
5.3555e-05
4.80314e-05
6.20105e-05
7.61511e-05
7.31461e-05
6.18504e-05
5.2039e-05
4.43675e-05
6.31772e-05
7.67812e-05
7.30616e-05
5.99141e-05
4.79575e-05
3.80524e-05
6.33382e-05
7.84061e-05
6.96504e-05
5.5323e-05
4.18431e-05
3.09538e-05
6.29744e-05
8.02547e-05
6.36718e-05
4.87125e-05
3.52342e-05
2.48476e-05
6.20014e-05
8.24348e-05
5.71392e-05
4.16e-05
2.97176e-05
2.08828e-05
6.02557e-05
8.48275e-05
5.21985e-05
3.63211e-05
2.63189e-05
1.95892e-05
5.79163e-05
8.81902e-05
5.03431e-05
3.39151e-05
2.5338e-05
2.06471e-05
5.51248e-05
9.24379e-05
5.23531e-05
3.50644e-05
2.71286e-05
2.36609e-05
5.1907e-05
9.80957e-05
5.83689e-05
4.02925e-05
3.21469e-05
2.88935e-05
4.8088e-05
0.000102813
6.7482e-05
4.93282e-05
4.02508e-05
3.59632e-05
4.35028e-05
0.000106599
7.59781e-05
5.91995e-05
4.9266e-05
4.37748e-05
5.08918e-05
6.04821e-05
4.69827e-05
4.10347e-05
3.78889e-05
3.60475e-05
6.05849e-05
6.18322e-05
5.12546e-05
4.4657e-05
4.10686e-05
3.89116e-05
6.90826e-05
6.60531e-05
5.72329e-05
4.88217e-05
4.40984e-05
4.07684e-05
7.59101e-05
7.26523e-05
6.48702e-05
5.34865e-05
4.65626e-05
4.08991e-05
8.02465e-05
7.88096e-05
7.13901e-05
5.7717e-05
4.81662e-05
3.96343e-05
8.15672e-05
8.22806e-05
7.37011e-05
5.96717e-05
4.77977e-05
3.68424e-05
8.02683e-05
8.28599e-05
7.18257e-05
5.76125e-05
4.44589e-05
3.22999e-05
7.69759e-05
8.09874e-05
6.60737e-05
5.14819e-05
3.87755e-05
2.72332e-05
7.23333e-05
7.65833e-05
5.79838e-05
4.38411e-05
3.2975e-05
2.36839e-05
6.707e-05
7.17331e-05
5.03178e-05
3.73639e-05
2.88058e-05
2.22884e-05
6.18995e-05
6.82663e-05
4.50631e-05
3.3301e-05
2.66404e-05
2.25347e-05
5.72295e-05
6.75704e-05
4.30735e-05
3.19431e-05
2.66029e-05
2.4206e-05
5.30505e-05
6.97929e-05
4.52056e-05
3.39686e-05
2.88795e-05
2.67268e-05
4.90755e-05
7.36568e-05
5.0403e-05
3.88568e-05
3.33991e-05
3.07864e-05
4.16629e-05
6.88563e-05
6.10125e-05
5.4721e-05
4.56091e-05
3.82213e-05
5.0562e-05
6.49075e-05
5.60701e-05
4.78175e-05
3.73316e-05
3.01542e-05
5.61943e-05
6.42834e-05
4.9771e-05
3.90946e-05
2.82732e-05
2.14255e-05
5.97164e-05
6.62151e-05
4.27882e-05
3.04609e-05
2.04117e-05
1.42503e-05
6.17179e-05
6.97056e-05
3.62818e-05
2.33944e-05
1.47984e-05
9.62088e-06
6.25649e-05
7.4036e-05
3.15877e-05
1.88356e-05
1.18811e-05
7.67291e-06
6.1862e-05
7.9985e-05
2.99653e-05
1.72402e-05
1.15892e-05
8.15175e-06
5.95501e-05
8.75499e-05
3.17424e-05
1.83931e-05
1.371e-05
1.08374e-05
5.56405e-05
9.59559e-05
3.698e-05
2.21903e-05
1.79267e-05
1.53837e-05
5.14032e-05
0.000102131
4.54953e-05
2.89483e-05
2.41251e-05
2.16602e-05
4.7364e-05
0.000102923
5.59087e-05
3.87404e-05
3.22696e-05
2.89131e-05
4.3157e-05
9.98212e-05
6.5273e-05
4.95049e-05
4.14383e-05
3.68091e-05
3.88995e-05
9.17369e-05
7.00735e-05
5.77128e-05
4.92287e-05
4.37014e-05
3.51075e-05
8.16491e-05
6.98523e-05
6.17249e-05
5.47231e-05
4.94574e-05
4.31081e-05
7.98643e-05
7.56544e-05
6.7156e-05
5.69516e-05
4.85763e-05
4.99836e-05
7.36938e-05
7.50246e-05
6.48075e-05
5.20919e-05
4.23196e-05
5.47711e-05
6.87004e-05
7.12186e-05
5.87902e-05
4.38149e-05
3.30164e-05
5.7981e-05
6.58508e-05
6.37968e-05
4.9697e-05
3.4242e-05
2.36494e-05
6.00327e-05
6.44017e-05
5.38774e-05
3.89531e-05
2.51993e-05
1.60901e-05
6.10076e-05
6.30612e-05
4.33986e-05
2.92606e-05
1.83979e-05
1.12435e-05
6.06643e-05
6.23388e-05
3.51276e-05
2.2765e-05
1.47076e-05
9.40927e-06
5.93011e-05
6.3396e-05
3.07454e-05
1.99757e-05
1.41941e-05
1.04882e-05
5.74621e-05
6.68005e-05
3.04186e-05
2.04e-05
1.63341e-05
1.38887e-05
5.57079e-05
7.15308e-05
3.42157e-05
2.37587e-05
2.04605e-05
1.90334e-05
5.36811e-05
7.64565e-05
4.15509e-05
3.01515e-05
2.64239e-05
2.5016e-05
5.10033e-05
8.23931e-05
5.13292e-05
3.92491e-05
3.41823e-05
3.19545e-05
4.74889e-05
8.64708e-05
6.15374e-05
4.96648e-05
4.28728e-05
3.90803e-05
4.31147e-05
8.63329e-05
6.81657e-05
5.77491e-05
5.0321e-05
4.52985e-05
5.19072e-05
7.55302e-05
7.05823e-05
6.10893e-05
5.29312e-05
4.62724e-05
6.07636e-05
8.38491e-05
8.06211e-05
6.65759e-05
5.42482e-05
4.46951e-05
6.72763e-05
8.80117e-05
8.61385e-05
6.93123e-05
5.26095e-05
3.94905e-05
7.08841e-05
8.82645e-05
8.43654e-05
6.72825e-05
4.77904e-05
3.25941e-05
7.17498e-05
8.5871e-05
7.67063e-05
5.85848e-05
3.93091e-05
2.48543e-05
7.0339e-05
7.95362e-05
6.40671e-05
4.59478e-05
2.95941e-05
1.76086e-05
6.70048e-05
6.93876e-05
4.97047e-05
3.39289e-05
2.16427e-05
1.27114e-05
6.28474e-05
5.83438e-05
3.78393e-05
2.5761e-05
1.73448e-05
1.12461e-05
5.90668e-05
4.99355e-05
3.05565e-05
2.20028e-05
1.64876e-05
1.27399e-05
5.61543e-05
4.61542e-05
2.75774e-05
2.14273e-05
1.80463e-05
1.61958e-05
5.39508e-05
4.61094e-05
2.80986e-05
2.30253e-05
2.09382e-05
2.01181e-05
5.20175e-05
4.92673e-05
3.15489e-05
2.64414e-05
2.48233e-05
2.44408e-05
4.98869e-05
5.43896e-05
3.78192e-05
3.19536e-05
2.95522e-05
2.85672e-05
4.72772e-05
5.83748e-05
4.44147e-05
3.80943e-05
3.49246e-05
3.29065e-05
3.00164e-05
2.56738e-05
2.18592e-05
1.71695e-05
1.26712e-05
8.66564e-06
6.85674e-06
7.85802e-06
1.18329e-05
1.76637e-05
2.34973e-05
2.82984e-05
3.2665e-05
3.64422e-05
3.07499e-05
2.5406e-05
2.02313e-05
1.47309e-05
9.40214e-06
5.30314e-06
3.32307e-06
3.37397e-06
5.66165e-06
1.00451e-05
1.55218e-05
2.07093e-05
2.46359e-05
2.67756e-05
3.02806e-05
2.38593e-05
1.7378e-05
1.10925e-05
5.80192e-06
2.55109e-06
1.18768e-06
1.11314e-06
2.29763e-06
5.1721e-06
9.6328e-06
1.45898e-05
1.8534e-05
2.07975e-05
2.87512e-05
2.11568e-05
1.34159e-05
6.80792e-06
2.65994e-06
8.48985e-07
2.74512e-07
2.50166e-07
7.82314e-07
2.36898e-06
5.42154e-06
9.45597e-06
1.30063e-05
1.53736e-05
2.7168e-05
1.78252e-05
9.17709e-06
3.57149e-06
1.14047e-06
3.15779e-07
7.53245e-08
5.81224e-08
2.52195e-07
9.71027e-07
2.66566e-06
5.3001e-06
8.21739e-06
1.09763e-05
2.45439e-05
1.39349e-05
6.11853e-06
2.46012e-06
9.33079e-07
2.83455e-07
6.99754e-08
3.72297e-08
1.06265e-07
3.87303e-07
1.1442e-06
2.65666e-06
4.97467e-06
7.97333e-06
2.08655e-05
1.10246e-05
5.4612e-06
2.84059e-06
1.22311e-06
4.22131e-07
1.4782e-07
1.05975e-07
1.6004e-07
3.77901e-07
9.43786e-07
2.15556e-06
4.33629e-06
7.778e-06
1.79788e-05
1.08339e-05
7.01748e-06
4.22667e-06
2.10878e-06
8.7216e-07
4.12652e-07
3.62903e-07
4.80825e-07
8.33169e-07
1.59925e-06
3.17464e-06
6.02665e-06
1.05533e-05
1.75887e-05
1.30774e-05
9.89929e-06
6.77173e-06
3.92001e-06
1.91483e-06
1.06304e-06
1.01059e-06
1.34786e-06
2.13274e-06
3.55148e-06
6.04801e-06
1.00329e-05
1.58364e-05
1.93391e-05
1.64551e-05
1.37919e-05
1.0556e-05
7.08818e-06
4.04365e-06
2.41649e-06
2.26316e-06
2.99971e-06
4.51354e-06
6.87264e-06
1.0387e-05
1.52697e-05
2.19079e-05
2.14243e-05
1.96204e-05
1.79849e-05
1.53626e-05
1.18903e-05
7.91554e-06
5.01292e-06
4.29061e-06
5.38442e-06
7.66154e-06
1.08272e-05
1.49782e-05
2.02165e-05
2.69236e-05
2.39003e-05
2.30773e-05
2.2377e-05
2.07302e-05
1.81688e-05
1.4121e-05
9.80779e-06
7.49203e-06
8.1873e-06
1.08179e-05
1.43309e-05
1.86679e-05
2.3951e-05
3.0524e-05
2.53016e-05
2.58679e-05
2.66516e-05
2.62618e-05
2.49598e-05
2.197e-05
1.72784e-05
1.31155e-05
1.17926e-05
1.35391e-05
1.67054e-05
2.09565e-05
2.60047e-05
3.32872e-05
2.84726e-05
2.9808e-05
3.09707e-05
3.14952e-05
3.14376e-05
2.99597e-05
2.60896e-05
2.10096e-05
1.74677e-05
1.69509e-05
1.86108e-05
2.21825e-05
2.63773e-05
3.42905e-05
2.87939e-05
2.37456e-05
1.95814e-05
1.48506e-05
1.04591e-05
6.8249e-06
5.08298e-06
5.42409e-06
7.95501e-06
1.19925e-05
1.63547e-05
2.01151e-05
2.31616e-05
2.60661e-05
2.66906e-05
2.14648e-05
1.64234e-05
1.1479e-05
7.01446e-06
3.76713e-06
2.2802e-06
2.16509e-06
3.49452e-06
6.35734e-06
1.0325e-05
1.45879e-05
1.83381e-05
2.10987e-05
2.46996e-05
1.88364e-05
1.29035e-05
7.72892e-06
3.84075e-06
1.59902e-06
7.29548e-07
6.53019e-07
1.27938e-06
3.00001e-06
6.06284e-06
1.009e-05
1.40891e-05
1.71493e-05
2.31844e-05
1.60339e-05
9.21634e-06
4.3247e-06
1.59218e-06
4.83338e-07
1.49532e-07
1.31224e-07
3.95777e-07
1.27356e-06
3.219e-06
6.29513e-06
9.81402e-06
1.26583e-05
2.14516e-05
1.29424e-05
6.05989e-06
2.28222e-06
7.25316e-07
2.00066e-07
4.54927e-08
2.87622e-08
1.26902e-07
5.24163e-07
1.57263e-06
3.49445e-06
6.01675e-06
8.69694e-06
1.88804e-05
9.95047e-06
4.2419e-06
1.75165e-06
6.32197e-07
1.82191e-07
4.2261e-08
1.91715e-08
5.40134e-08
2.10942e-07
6.70735e-07
1.68166e-06
3.40394e-06
5.84818e-06
1.58686e-05
8.11861e-06
4.12798e-06
2.01977e-06
7.89403e-07
2.53377e-07
8.41646e-08
5.63337e-08
8.00942e-08
1.95587e-07
5.28425e-07
1.2971e-06
2.7791e-06
5.28703e-06
1.409e-05
8.5295e-06
5.35332e-06
2.88613e-06
1.29479e-06
4.98656e-07
2.35791e-07
2.03097e-07
2.49951e-07
4.20244e-07
8.31659e-07
1.76375e-06
3.60376e-06
6.80474e-06
1.46606e-05
1.07207e-05
7.51423e-06
4.61607e-06
2.38964e-06
1.09281e-06
6.27205e-07
5.98735e-07
7.48032e-07
1.14041e-06
1.91101e-06
3.43068e-06
6.08902e-06
1.0252e-05
1.71866e-05
1.38952e-05
1.06505e-05
7.3934e-06
4.44556e-06
2.36515e-06
1.47146e-06
1.4309e-06
1.81276e-06
2.65551e-06
4.06719e-06
6.39277e-06
9.84543e-06
1.46332e-05
1.99737e-05
1.71056e-05
1.43312e-05
1.11675e-05
7.82306e-06
4.8174e-06
3.11107e-06
2.87916e-06
3.58323e-06
5.02597e-06
7.14326e-06
1.01019e-05
1.38917e-05
1.86614e-05
2.30578e-05
2.05844e-05
1.83563e-05
1.58844e-05
1.28488e-05
9.16035e-06
6.18748e-06
5.14993e-06
5.93224e-06
7.88706e-06
1.04894e-05
1.37304e-05
1.73863e-05
2.16748e-05
2.48377e-05
2.3713e-05
2.24872e-05
2.09572e-05
1.89426e-05
1.55639e-05
1.16211e-05
8.96566e-06
8.78253e-06
1.07338e-05
1.3407e-05
1.67383e-05
2.0076e-05
2.40077e-05
2.85496e-05
2.77301e-05
2.63746e-05
2.56978e-05
2.4912e-05
2.27571e-05
1.89819e-05
1.51008e-05
1.3051e-05
1.36292e-05
1.56523e-05
1.89191e-05
2.1715e-05
2.59351e-05
2.53136e-05
1.97483e-05
1.54138e-05
1.10088e-05
7.30478e-06
4.46245e-06
3.03154e-06
2.73958e-06
3.68081e-06
5.8323e-06
8.82355e-06
1.21135e-05
1.53547e-05
1.87257e-05
2.10058e-05
1.58659e-05
1.13267e-05
7.43101e-06
4.31301e-06
2.18369e-06
1.24894e-06
1.03325e-06
1.44509e-06
2.70046e-06
4.9503e-06
8.03185e-06
1.15937e-05
1.51115e-05
1.85313e-05
1.27422e-05
7.86231e-06
4.33552e-06
2.04906e-06
8.08042e-07
3.57874e-07
2.82824e-07
4.77509e-07
1.15844e-06
2.6965e-06
5.27365e-06
8.64734e-06
1.21427e-05
1.64893e-05
9.99417e-06
5.10549e-06
2.20969e-06
7.93418e-07
2.29395e-07
6.6327e-08
4.84305e-08
1.31949e-07
4.64255e-07
1.37041e-06
3.16392e-06
5.83151e-06
8.85273e-06
1.41415e-05
7.55071e-06
3.31281e-06
1.26962e-06
4.25701e-07
1.15992e-07
2.47197e-08
9.80552e-09
4.06945e-08
1.93e-07
6.72114e-07
1.74508e-06
3.52511e-06
5.75875e-06
1.16551e-05
5.74104e-06
2.55832e-06
1.10698e-06
3.92555e-07
1.07689e-07
2.36349e-08
8.2981e-09
1.99686e-08
8.54167e-08
3.02174e-07
8.39903e-07
1.88823e-06
3.54698e-06
9.6866e-06
5.05999e-06
2.69035e-06
1.27086e-06
4.66478e-07
1.41534e-07
4.49126e-08
2.77377e-08
3.45859e-08
8.13651e-08
2.34052e-07
6.20459e-07
1.41688e-06
2.83508e-06
9.32343e-06
5.8792e-06
3.49931e-06
1.74894e-06
7.20322e-07
2.6419e-07
1.25474e-07
1.05166e-07
1.18101e-07
1.80467e-07
3.46511e-07
7.53019e-07
1.60191e-06
3.2316e-06
1.0829e-05
7.74185e-06
4.94041e-06
2.73364e-06
1.28595e-06
5.67555e-07
3.41339e-07
3.23449e-07
3.73974e-07
5.19724e-07
8.16602e-07
1.44921e-06
2.65825e-06
4.88079e-06
1.36466e-05
1.02901e-05
7.08688e-06
4.39328e-06
2.38088e-06
1.22352e-06
8.17722e-07
8.10417e-07
9.66043e-07
1.31758e-06
1.91785e-06
2.98323e-06
4.73417e-06
7.61109e-06
1.65613e-05
1.30811e-05
9.7858e-06
6.83092e-06
4.28063e-06
2.50519e-06
1.7359e-06
1.71141e-06
2.06397e-06
2.76719e-06
3.82309e-06
5.3955e-06
7.59304e-06
1.08198e-05
1.99679e-05
1.63426e-05
1.31915e-05
1.03172e-05
7.42067e-06
4.87923e-06
3.39937e-06
3.14855e-06
3.72014e-06
4.86102e-06
6.40331e-06
8.39418e-06
1.075e-05
1.38844e-05
2.24834e-05
1.97596e-05
1.71081e-05
1.47242e-05
1.19467e-05
8.83483e-06
6.35085e-06
5.35718e-06
5.86035e-06
7.35746e-06
9.25912e-06
1.15468e-05
1.38261e-05
1.66296e-05
2.6847e-05
2.35041e-05
2.10859e-05
1.94693e-05
1.73609e-05
1.42759e-05
1.10685e-05
8.92896e-06
8.54991e-06
9.9935e-06
1.19905e-05
1.45313e-05
1.66641e-05
1.94109e-05
1.87941e-05
1.36385e-05
9.84093e-06
6.427e-06
3.88782e-06
2.21955e-06
1.4631e-06
1.19329e-06
1.33432e-06
2.03287e-06
3.4541e-06
5.58948e-06
8.36684e-06
1.17586e-05
1.473e-05
9.53828e-06
5.98441e-06
3.40789e-06
1.78189e-06
8.61418e-07
4.99932e-07
4.03687e-07
4.70737e-07
7.90648e-07
1.60411e-06
3.15366e-06
5.59406e-06
8.92981e-06
1.19404e-05
6.70746e-06
3.45609e-06
1.59416e-06
6.65268e-07
2.50974e-07
1.14418e-07
9.31534e-08
1.34696e-07
2.99575e-07
7.83085e-07
1.88388e-06
3.8595e-06
6.74348e-06
9.52931e-06
4.75663e-06
2.06522e-06
7.82845e-07
2.5867e-07
7.24556e-08
2.05106e-08
1.3372e-08
3.08763e-08
1.09561e-07
3.76354e-07
1.0684e-06
2.44597e-06
4.59504e-06
7.47205e-06
3.50906e-06
1.47557e-06
5.80153e-07
1.96743e-07
5.20075e-08
1.04502e-08
2.75763e-09
8.6536e-09
4.53336e-08
1.84656e-07
5.77166e-07
1.41601e-06
2.79964e-06
5.96157e-06
2.89248e-06
1.34657e-06
5.71496e-07
1.89109e-07
4.83242e-08
9.86409e-09
2.66442e-09
4.74037e-09
2.1815e-08
8.92156e-08
2.87945e-07
7.52485e-07
1.63539e-06
5.2888e-06
2.87303e-06
1.45627e-06
6.1916e-07
2.04517e-07
5.6786e-08
1.67303e-08
9.47248e-09
1.01378e-08
2.1963e-08
6.89733e-08
2.0871e-07
5.42825e-07
1.21733e-06
5.73995e-06
3.47038e-06
1.81353e-06
7.84491e-07
2.83337e-07
9.71939e-08
4.68539e-08
3.88487e-08
3.97592e-08
5.38646e-08
1.00039e-07
2.31905e-07
5.45553e-07
1.223e-06
7.20639e-06
4.59768e-06
2.49967e-06
1.16446e-06
4.78788e-07
2.08694e-07
1.36822e-07
1.3018e-07
1.39075e-07
1.74344e-07
2.54103e-07
4.44033e-07
8.55086e-07
1.75637e-06
9.56365e-06
6.27318e-06
3.62608e-06
1.87833e-06
8.96494e-07
4.71026e-07
3.54864e-07
3.55676e-07
3.95065e-07
4.96233e-07
6.77902e-07
1.02359e-06
1.66541e-06
2.98328e-06
1.20708e-05
8.28833e-06
5.27894e-06
3.09926e-06
1.71031e-06
1.01677e-06
8.03463e-07
8.18175e-07
9.33429e-07
1.18058e-06
1.56843e-06
2.18006e-06
3.1431e-06
4.93926e-06
1.50582e-05
1.10028e-05
7.77704e-06
5.18421e-06
3.24802e-06
2.08695e-06
1.63476e-06
1.63491e-06
1.87853e-06
2.37454e-06
3.08482e-06
4.05298e-06
5.33201e-06
7.47651e-06
1.78796e-05
1.42547e-05
1.11642e-05
8.33938e-06
5.82613e-06
4.00739e-06
3.08408e-06
2.93727e-06
3.30554e-06
4.12463e-06
5.24009e-06
6.62348e-06
8.13677e-06
1.0355e-05
2.16433e-05
1.80453e-05
1.53196e-05
1.26271e-05
9.72457e-06
7.17711e-06
5.49732e-06
4.88261e-06
5.19261e-06
6.30233e-06
7.82623e-06
9.64227e-06
1.12979e-05
1.3492e-05
1.24832e-05
7.85682e-06
4.92519e-06
2.89432e-06
1.60389e-06
8.78266e-07
5.77639e-07
4.65528e-07
4.463e-07
5.63629e-07
9.73327e-07
1.86505e-06
3.40624e-06
5.78538e-06
9.26067e-06
4.79782e-06
2.40741e-06
1.15748e-06
5.38158e-07
2.53885e-07
1.55889e-07
1.33453e-07
1.38611e-07
1.81497e-07
3.53681e-07
8.41086e-07
1.91308e-06
3.93134e-06
6.61939e-06
2.94499e-06
1.19009e-06
4.4623e-07
1.60445e-07
5.75518e-08
2.82187e-08
2.52993e-08
3.16792e-08
5.49845e-08
1.46043e-07
4.41545e-07
1.19144e-06
2.72046e-06
4.73938e-06
1.96794e-06
7.38241e-07
2.59723e-07
8.32947e-08
2.21925e-08
5.79883e-09
3.0669e-09
5.04671e-09
1.57961e-08
6.3897e-08
2.35646e-07
7.09615e-07
1.73153e-06
3.49995e-06
1.5262e-06
6.45534e-07
2.58012e-07
8.59934e-08
2.13971e-08
4.03429e-09
7.1222e-10
1.05177e-09
6.0556e-09
3.13152e-08