/*--------------------------------*- C++ -*----------------------------------*\
| =========                 |                                                 |
| \\      /  F ield         | OpenFOAM: The Open Source CFD Toolbox           |
|  \\    /   O peration     | Version:  v2106                                 |
|   \\  /    A nd           | Website:  www.openfoam.com                      |
|    \\/     M anipulation  |                                                 |
\*---------------------------------------------------------------------------*/
FoamFile
{
    version     2.0;
    format      ascii;
    arch        "LSB;label=32;scalar=64";
    class       volScalarField;
    location    "0.000148";
    object      T;
}
// * * * * * * * * * * * * * * * * * * * * * * * * * * * * * * * * * * * * * //

dimensions      [0 0 0 1 0 0 0];

internalField   nonuniform List<scalar> 
144746
(
293.262
293.219
293.319
293.456
293.638
293.793
293.926
293.989
294.067
294.213
294.435
294.613
294.737
294.731
293.222
293.166
293.234
293.394
293.55
293.656
293.744
293.763
293.831
293.959
294.137
294.333
294.479
294.595
293.34
293.27
293.334
293.448
293.532
293.572
293.625
293.615
293.656
293.729
293.851
294.044
294.209
294.408
293.477
293.452
293.501
293.56
293.579
293.554
293.544
293.52
293.538
293.581
293.659
293.83
293.983
294.201
293.653
293.668
293.679
293.663
293.607
293.538
293.501
293.475
293.473
293.489
293.529
293.666
293.814
294.067
293.803
293.808
293.776
293.706
293.609
293.517
293.456
293.431
293.425
293.434
293.493
293.577
293.754
294.004
293.999
293.949
293.829
293.69
293.575
293.492
293.445
293.429
293.421
293.433
293.478
293.571
293.76
294.008
294.01
293.911
293.76
293.622
293.51
293.466
293.448
293.438
293.436
293.45
293.51
293.605
293.815
294.036
293.985
293.81
293.642
293.544
293.488
293.481
293.481
293.483
293.482
293.502
293.593
293.732
294.015
294.262
293.889
293.623
293.484
293.417
293.425
293.479
293.542
293.556
293.583
293.635
293.773
293.97
294.328
294.58
293.777
293.465
293.4
293.366
293.459
293.6
293.701
293.718
293.759
293.812
294.016
294.243
294.627
294.89
293.767
293.421
293.384
293.36
293.5
293.721
293.885
293.924
294.015
294.066
294.271
294.474
294.82
295.061
293.887
293.595
293.584
293.559
293.737
293.972
294.168
294.231
294.345
294.371
294.525
294.708
295.008
295.247
293.916
293.802
293.812
293.832
293.991
294.169
294.386
294.496
294.661
294.713
294.82
294.966
295.122
295.157
292.319
292.332
292.283
292.474
292.807
293.156
293.4
293.478
293.424
293.442
293.298
293.151
293.101
293.337
291.452
291.648
291.827
292.246
292.706
293.067
293.296
293.367
293.373
293.38
293.352
293.268
293.236
293.456
291.212
291.485
291.868
292.366
292.775
293.036
293.202
293.241
293.26
293.3
293.34
293.278
293.218
293.429
291.126
291.607
292.18
292.683
292.97
293.079
293.143
293.179
293.193
293.217
293.262
293.261
293.272
293.402
291.393
292.061
292.629
292.958
293.109
293.104
293.137
293.151
293.149
293.166
293.212
293.259
293.339
293.498
291.905
292.563
292.962
293.12
293.159
293.117
293.127
293.135
293.133
293.144
293.165
293.217
293.333
293.55
292.442
292.899
293.069
293.139
293.132
293.103
293.112
293.121
293.121
293.132
293.157
293.216
293.349
293.572
292.723
292.918
293.059
293.068
293.05
293.063
293.095
293.11
293.111
293.12
293.155
293.225
293.374
293.577
292.734
292.712
292.75
292.835
292.934
293.041
293.105
293.139
293.135
293.146
293.184
293.28
293.437
293.607
292.66
292.363
292.29
292.383
292.639
292.926
293.099
293.162
293.177
293.2
293.257
293.349
293.483
293.481
292.618
292.056
291.837
291.897
292.266
292.725
293.069
293.189
293.218
293.213
293.233
293.255
293.379
293.307
292.701
291.864
291.46
291.352
291.749
292.322
292.9
293.164
293.26
293.222
293.259
293.242
293.36
293.264
292.973
292.007
291.464
291.127
291.371
291.875
292.614
293.103
293.319
293.302
293.321
293.324
293.431
293.361
293.093
291.998
291.398
291.027
291.099
291.477
292.245
292.963
293.339
293.481
293.559
293.72
293.831
293.726
288.843
289.708
290.567
291.426
292.362
292.969
293.247
293.273
293.199
292.94
292.496
291.879
291.279
291.225
287.901
289.121
290.284
291.375
292.352
292.911
293.304
293.389
293.351
293.154
292.904
292.446
291.969
292.032
288.074
289.457
290.681
291.705
292.493
293
293.382
293.498
293.489
293.386
293.178
292.804
292.451
292.506
288.472
290.094
291.362
292.261
292.821
293.199
293.489
293.608
293.616
293.559
293.421
293.126
292.876
292.857
289.455
291.079
292.188
292.822
293.179
293.42
293.608
293.722
293.743
293.713
293.603
293.44
293.317
293.321
290.609
291.979
292.739
293.15
293.374
293.537
293.69
293.784
293.8
293.8
293.733
293.65
293.554
293.531
291.594
292.456
292.902
293.215
293.431
293.598
293.755
293.84
293.858
293.863
293.824
293.761
293.674
293.612
292.079
292.572
292.881
293.105
293.353
293.571
293.743
293.826
293.846
293.833
293.781
293.693
293.597
293.513
292.211
292.358
292.513
292.745
293.077
293.433
293.677
293.764
293.761
293.72
293.606
293.469
293.299
293.21
291.954
291.734
291.878
292.057
292.545
293.126
293.51
293.637
293.623
293.527
293.351
293.157
292.947
292.774
291.415
290.903
290.985
291.172
291.785
292.591
293.166
293.372
293.339
293.187
292.961
292.708
292.48
292.161
290.705
289.881
289.905
290.052
290.749
291.812
292.655
293.051
293.076
292.949
292.699
292.439
292.301
291.85
290.091
289.013
288.914
288.966
289.57
290.736
291.908
292.664
292.838
292.849
292.577
292.278
292.07
291.526
289.48
288.18
287.822
287.743
288.269
289.465
290.921
292.079
292.609
292.878
292.686
292.547
292.308
291.814
294.92
295.026
294.978
294.905
294.859
295.015
294.572
294.606
294.682
294.708
294.769
294.99
294.486
294.571
294.703
294.862
295.005
295.235
294.384
294.594
294.837
295.111
295.355
295.57
294.391
294.717
295.119
295.479
295.809
295.982
294.42
294.849
295.395
295.832
296.201
296.367
294.497
295.001
295.681
296.184
296.604
296.791
294.562
295.131
295.911
296.474
296.929
297.107
294.837
295.391
296.159
296.703
297.128
297.256
295.132
295.634
296.291
296.742
297.145
297.253
295.389
295.785
296.351
296.702
297.041
297.144
295.496
295.783
296.241
296.487
296.756
296.873
295.626
295.772
296.058
296.195
296.382
296.509
295.399
295.47
295.747
295.871
295.981
296.12
293.84
294.105
294.274
294.43
294.664
294.978
293.449
293.825
294.433
294.974
295.444
295.875
293.606
294.014
294.744
295.482
296.116
296.555
293.568
294.077
294.944
295.798
296.56
296.952
293.736
294.237
295.138
296.024
296.891
297.28
293.889
294.344
295.202
296.054
296.952
297.202
293.949
294.391
295.245
296.056
296.995
297.19
293.947
294.212
295.011
295.707
296.622
296.665
293.957
294.008
294.646
295.094
295.906
295.855
293.733
293.712
294.286
294.618
295.268
295.297
293.575
293.666
294.298
294.507
294.953
295.005
293.578
293.758
294.274
294.413
294.76
294.767
293.837
294.07
294.51
294.703
294.999
295.085
294.093
294.357
294.899
295.158
295.482
295.63
291.656
291.705
291.849
292.049
292.536
293.025
291.646
291.927
292.586
293.369
294.203
294.947
292.384
292.708
293.551
294.451
295.362
296.016
292.861
293.227
294.206
295.131
295.983
296.19
293.426
293.775
294.678
295.491
296.315
296.163
293.643
293.923
294.69
295.375
296.195
295.348
293.667
293.8
294.372
294.803
295.545
294.049
293.56
293.63
293.967
293.91
294.381
292.171
293.19
292.975
293.085
292.602
292.78
289.896
292.626
292.141
292.134
291.313
291.147
288.163
292.075
291.51
291.528
290.642
290.127
287.486
291.73
291.089
291.131
290.425
289.866
287.937
291.81
291.351
291.442
291.113
291.003
290.065
291.814
291.644
292.073
292.391
292.797
292.553
295.44
295.595
295.667
295.701
295.758
295.903
295.229
295.451
295.631
295.759
295.871
296.049
295.246
295.504
295.763
295.964
296.124
296.282
295.211
295.563
295.929
296.166
296.374
296.476
295.193
295.612
296.084
296.362
296.582
296.71
295.159
295.591
296.116
296.463
296.781
296.988
294.979
295.439
296.056
296.494
296.876
297.108
294.803
295.209
295.811
296.281
296.736
297.045
294.562
294.956
295.541
296.011
296.458
296.769
294.418
294.784
295.276
295.628
295.99
296.269
294.272
294.596
294.97
295.21
295.471
295.712
294.248
294.491
294.76
294.912
295.099
295.328
294.23
294.442
294.67
294.825
295.006
295.18
294.315
294.603
294.958
295.149
295.266
295.433
294.515
294.972
295.429
295.856
296.163
296.434
294.148
294.853
295.593
296.188
296.679
296.956
294.144
294.793
295.697
296.395
296.992
297.269
293.955
294.591
295.526
296.296
297.001
297.307
293.842
294.307
295.077
295.733
296.51
296.756
293.494
293.635
294.158
294.632
295.396
295.656
292.859
292.755
293.172
293.584
294.362
294.614
291.999
291.873
292.279
292.761
293.519
294.011
291.382
291.474
291.977
292.536
293.221
293.895
291.188
291.437
291.98
292.583
293.185
293.94
291.281
291.763
292.417
293.117
293.684
294.331
291.88
292.532
293.338
294.169
294.722
295.242
292.794
293.588
294.496
295.367
295.885
296.298
293.869
294.744
295.687
296.544
296.979
297.399
292.713
293.152
293.659
294.279
294.853
295.322
292.532
293.223
294.179
295.013
295.803
296.277
292.889
293.493
294.515
295.292
296.056
296.43
292.955
293.476
294.45
295.131
295.752
295.707
293.003
293.118
293.649
293.979
294.43
293.764
292.374
292.012
291.916
291.716
291.911
290.793
291.307
290.33
289.642
289.053
289.194
287.88
289.721
288.403
287.702
287.154
287.382
286.243
288.187
287.076
286.743
286.478
286.795
286.042
287.279
286.599
286.554
286.712
287.103
287.163
287.145
287.036
287.431
288.16
288.876
289.92
287.575
287.943
288.939
290.38
291.519
292.865
288.647
289.451
290.956
292.876
294.296
295.847
290.006
291.191
293.05
295.086
296.492
298
294.482
294.223
293.963
293.636
293.401
293.288
294.257
294.061
293.925
293.748
293.596
293.431
294.446
294.194
294.069
293.859
293.676
293.466
294.851
294.557
294.36
294.089
293.842
293.596
295.374
295.002
294.669
294.302
293.989
293.739
295.952
295.511
295.055
294.573
294.16
293.897
296.354
295.899
295.366
294.797
294.307
294.065
296.614
296.184
295.621
295.032
294.515
294.229
296.722
296.323
295.797
295.203
294.637
294.247
296.719
296.42
295.959
295.346
294.706
294.211
296.746
296.472
296.002
295.348
294.677
294.091
296.67
296.362
295.966
295.343
294.69
294.068
296.275
296.006
295.741
295.286
294.743
294.106
295.728
295.577
295.573
295.211
294.855
294.356
296.027
295.528
295.037
294.019
293.116
292.425
294.843
294.285
293.799
292.896
292.209
291.715
293.74
293.101
292.665
291.898
291.463
291.171
293.039
292.294
291.851
291.246
291.009
290.914
292.67
291.78
291.33
290.882
290.78
290.934
292.686
291.855
291.294
290.92
290.861
291.221
292.897
292.236
291.572
291.292
291.284
291.778
293.72
293.286
292.54
292.217
292.055
292.428
295.017
294.679
293.894
293.37
292.944
292.811
296.53
296.179
295.393
294.582
293.741
293.088
297.671
297.246
296.405
295.379
294.259
293.248
298.299
297.839
297.062
295.965
294.758
293.541
298.3
297.786
297.072
296.12
295.017
293.704
297.773
297.464
297.188
296.359
295.5
294.425
295.991
294.326
292.812
290.803
289.279
288.471
293.922
291.814
290.477
288.864
287.952
287.696
290.498
289.064
288.19
287.184
286.843
287.135
287.544
286.789
286.368
285.976
286.137
287.063
285.124
285.215
285.035
285.178
285.901
287.533
284.19
284.898
284.74
285.364
286.507
288.634
284.363
285.336
285.29
286.303
287.866
290.014
285.885
287.005
287.115
288.229
289.604
291.15
288.771
289.732
289.763
290.488
291.239
291.927
292.272
292.784
292.569
292.645
292.395
292.192
295.402
295.182
294.414
293.682
292.66
291.907
297.524
296.794
295.603
294.19
292.659
291.401
298.292
297.301
295.966
294.204
292.444
290.79
298.688
297.431
296.369
294.735
293.245
291.613
295.374
295.222
295.152
295.068
294.9
294.84
295.835
295.72
295.586
295.448
295.206
295.025
296.236
296.091
295.86
295.622
295.246
294.943
296.642
296.487
296.143
295.743
295.241
294.825
296.98
296.794
296.33
295.758
295.125
294.647
297.332
297.051
296.468
295.743
294.999
294.476
297.349
297.011
296.396
295.631
294.892
294.37
297.269
296.889
296.216
295.432
294.737
294.249
297.055
296.617
295.938
295.113
294.47
294.036
296.701
296.288
295.643
294.82
294.162
293.761
296.307
295.831
295.21
294.433
293.806
293.429
295.847
295.354
294.858
294.166
293.654
293.265
295.271
294.878
294.466
293.91
293.46
293.043
294.883
294.567
294.384
293.97
293.765
293.402
293.935
293.773
293.592
293.635
293.348
293.198
293.731
293.702
293.583
293.665
293.472
293.369
293.618
293.685
293.519
293.554
293.295
293.268
294.071
294.107
293.731
293.601
293.285
293.368
294.658
294.684
294.055
293.773
293.386
293.538
295.568
295.552
294.747
294.211
293.622
293.57
296.787
296.548
295.513
294.691
293.966
293.738
297.727
297.335
296.178
295.065
294.116
293.654
298.07
297.591
296.441
295.193
294.095
293.453
298.304
297.766
296.644
295.281
294.046
293.179
298.387
297.678
296.55
295.154
293.865
292.853
298.215
297.494
296.451
295.047
293.813
292.705
297.658
297.009
296.111
294.805
293.643
292.458
297.217
296.569
296.126
295.078
294.236
293.232
289.529
289.992
289.81
290.006
290.042
290.565
287.162
288.445
288.98
289.89
290.367
291.147
285.26
287.572
288.489
289.742
290.338
291.423
285.156
288.045
288.852
290.232
290.933
292.04
286.201
289.309
289.75
290.953
291.631
292.54
288.424
291.286
291.347
292.12
292.539
292.999
291.189
293.32
293.002
293.22
293.113
293.209
293.645
295.102
294.454
294.12
293.612
293.363
295.532
296.294
295.395
294.534
293.608
293.229
297
296.966
295.819
294.561
293.325
292.692
297.787
297.129
295.686
294.097
292.584
291.751
298.42
297.201
295.451
293.459
291.745
290.682
298.288
296.775
294.943
292.724
290.927
289.572
298.08
296.246
294.775
293.019
291.624
290.252
286.993
288.935
290.676
292.289
293.619
294.68
295.203
295.341
295.12
294.51
293.634
292.44
291.37
291.021
286.356
288.508
290.447
292.231
293.508
294.521
295.079
295.277
295.185
294.87
294.284
293.427
292.511
292.205
286.903
289.119
291.033
292.639
293.716
294.55
295.022
295.258
295.265
295.13
294.688
294.044
293.386
293.22
287.784
290.177
292.077
293.374
294.155
294.699
295.04
295.254
295.294
295.246
294.995
294.573
294.143
294.016
289.315
291.645
293.209
294.076
294.555
294.89
295.133
295.313
295.38
295.39
295.265
295.072
294.903
294.9
291.117
292.995
293.978
294.442
294.721
294.948
295.142
295.284
295.354
295.422
295.389
295.354
295.336
295.402
292.532
293.597
294.172
294.494
294.76
294.967
295.161
295.278
295.346
295.449
295.471
295.519
295.566
295.636
293.182
293.755
294.105
294.357
294.643
294.888
295.11
295.216
295.296
295.376
295.376
295.412
295.408
295.453
293.23
293.491
293.629
293.847
294.27
294.694
295.011
295.108
295.178
295.205
295.154
295.124
295.007
294.927
292.835
292.639
292.707
293.001
293.672
294.354
294.822
294.928
294.983
294.911
294.741
294.533
294.272
294.035
291.938
291.418
291.44
291.828
292.811
293.817
294.48
294.642
294.677
294.506
294.221
293.848
293.507
293.07
290.558
289.703
289.836
290.29
291.525
292.905
293.926
294.291
294.361
294.099
293.697
293.162
292.723
292.131
289.143
288.09
288.256
288.619
289.824
291.571
293.016
293.829
294.096
293.853
293.465
292.872
292.296
291.59
287.773
286.526
286.519
286.817
287.886
289.797
291.728
293.09
293.774
293.694
293.425
293.002
292.336
291.621
285.787
288.29
290.538
292.688
294.514
295.797
296.446
296.655
296.433
295.758
294.47
292.886
291.293
290.437
285.813
288.415
290.889
293.025
294.636
295.689
296.24
296.465
296.375
296.092
295.277
294.244
292.884
292.024
286.753
289.583
292.002
293.808
294.979
295.709
296.108
296.329
296.346
296.257
295.812
295.122
294.175
293.574
288.217
291.161
293.351
294.718
295.447
295.847
296.097
296.259
296.29
296.261
296.04
295.688
295.197
294.9
290.27
292.918
294.533
295.358
295.781
296.002
296.175
296.301
296.352
296.353
296.292
296.2
296.084
296.086
292.457
294.288
295.212
295.661
295.897
296.032
296.171
296.276
296.334
296.384
296.406
296.445
296.519
296.697
293.867
294.899
295.441
295.716
295.92
296.046
296.178
296.267
296.332
296.424
296.486
296.613
296.77
297.016
294.544
295.058
295.373
295.606
295.837
295.996
296.142
296.216
296.287
296.374
296.43
296.562
296.685
296.894
294.409
294.672
294.881
295.172
295.564
295.867
296.075
296.139
296.199
296.253
296.27
296.326
296.321
296.357
293.671
293.575
293.799
294.358
295.084
295.622
295.95
296.024
296.075
296.049
295.934
295.785
295.54
295.222
292.146
291.748
292.186
293.087
294.265
295.167
295.695
295.792
295.818
295.698
295.41
295.008
294.483
293.781
290.24
289.578
290.122
291.261
292.923
294.328
295.283
295.528
295.551
295.285
294.741
294.007
293.184
292.189
288.384
287.585
288.052
289.03
290.977
292.959
294.521
295.148
295.292
294.958
294.24
293.247
292.183
291.212
286.448
285.663
285.931
286.659
288.547
291.008
293.261
294.566
295.044
294.766
294.073
293.081
291.916
290.876
286.971
289.843
292.256
294.376
296.173
297.318
297.943
298.213
298.137
297.667
296.807
295.506
294.104
292.896
287.816
290.799
293.192
295.086
296.428
297.299
297.777
298.018
298.007
297.776
297.331
296.51
295.482
294.399
289.498
292.398
294.491
295.935
296.814
297.36
297.697
297.888
297.939
297.882
297.677
297.217
296.55
295.75
291.428
294.018
295.703
296.663
297.187
297.496
297.705
297.83
297.89
297.882
297.785
297.581
297.279
296.926
293.497
295.511
296.603
297.103
297.417
297.611
297.766
297.877
297.941
297.955
297.94
297.936
297.908
297.911
295.162
296.356
297.011
297.298
297.507
297.641
297.769
297.87
297.933
297.99
298.025
298.106
298.212
298.398
296.139
296.777
297.181
297.368
297.548
297.656
297.771
297.856
297.92
298
298.065
298.208
298.369
298.648
296.45
296.803
297.091
297.305
297.51
297.622
297.735
297.804
297.87
297.949
298.013
298.164
298.305
298.576
296.167
296.378
296.646
296.994
297.336
297.537
297.676
297.737
297.794
297.852
297.896
297.995
298.051
298.184
295.178
295.317
295.764
296.418
297.017
297.361
297.559
297.642
297.703
297.726
297.681
297.646
297.529
297.395
293.442
293.649
294.4
295.464
296.453
297.044
297.357
297.455
297.492
297.452
297.271
297.037
296.654
296.11
291.346
291.581
292.563
293.997
295.46
296.503
297.095
297.268
297.276
297.134
296.752
296.265
295.599
294.692
289.058
289.28
290.397
292.039
293.986
295.566
296.609
297.002
297.056
296.819
296.197
295.407
294.446
293.38
286.548
286.826
287.859
289.588
291.924
294.113
295.838
296.701
296.918
296.651
295.871
294.851
293.668
292.554
289.821
292.563
294.721
296.395
297.725
298.588
299.086
299.335
299.377
299.195
298.784
298.066
297.13
296.002
291.305
294.081
295.943
297.15
298.009
298.6
298.974
299.163
299.206
299.123
298.911
298.583
297.983
297.212
293.136
295.501
297.002
297.795
298.308
298.664
298.925
299.07
299.144
299.148
299.064
298.919
298.54
298.077
294.98
296.704
297.776
298.232
298.549
298.765
298.931
299.042
299.114
299.143
299.116
299.085
298.924
298.805
296.48
297.558
298.23
298.463
298.659
298.838
298.977
299.089
299.153
299.195
299.21
299.258
299.294
299.381
297.472
298.027
298.42
298.569
298.742
298.874
298.985
299.086
299.148
299.214
299.268
299.367
299.488
299.678
297.944
298.267
298.524
298.644
298.792
298.896
298.994
299.078
299.138
299.219
299.295
299.43
299.586
299.845
298.026
298.265
298.482
298.646
298.801
298.878
298.966
299.034
299.096
299.175
299.248
299.386
299.523
299.794
297.668
297.906
298.188
298.476
298.708
298.819
298.917
298.977
299.033
299.096
299.153
299.261
299.352
299.574
296.72
297.099
297.651
298.161
298.521
298.693
298.825
298.904
298.968
299.007
299.019
299.052
299.045
299.12
295.141
295.842
296.792
297.623
298.201
298.494
298.678
298.761
298.812
298.82
298.756
298.676
298.525
298.368
293.184
294.208
295.531
296.754
297.679
298.237
298.536
298.642
298.666
298.605
298.436
298.239
297.908
297.433
290.865
292.104
293.719
295.349
296.745
297.703
298.229
298.442
298.477
298.342
297.993
297.591
297.052
296.305
288.158
289.328
291.19
293.362
295.43
296.986
297.919
298.32
298.405
298.193
297.622
296.926
296.105
295.191
293.574
295.98
297.406
298.489
299.284
299.851
300.223
300.427
300.528
300.466
300.25
299.898
299.442
298.805
295.131
297.24
298.363
299.05
299.52
299.876
300.147
300.296
300.372
300.348
300.24
300.141
299.919
299.603
296.561
298.158
298.996
299.421
299.706
299.94
300.129
300.256
300.335
300.353
300.317
300.287
300.176
300.012
297.904
298.837
299.363
299.631
299.828
300.016
300.152
300.261
300.32
300.353
300.363
300.382
300.397
300.418
298.797
299.252
299.582
299.749
299.913
300.075
300.199
300.306
300.362
300.407
300.439
300.493
300.582
300.705
299.301
299.502
299.716
299.844
299.988
300.12
300.222
300.315
300.368
300.425
300.477
300.568
300.686
300.876
299.487
299.638
299.805
299.916
300.046
300.15
300.237
300.312
300.363
300.426
300.493
300.607
300.739
300.961
299.433
299.619
299.798
299.934
300.061
300.137
300.211
300.274
300.325
300.385
300.447
300.559
300.683
300.922
299.062
299.342
299.618
299.839
300.005
300.085
300.159
300.216
300.264
300.312
300.36
300.454
300.544
300.782
298.311
298.824
299.323
299.663
299.876
299.978
300.071
300.144
300.199
300.234
300.254
300.303
300.355
300.524
297.19
298.089
298.884
299.398
299.69
299.836
299.946
300.02
300.071
300.088
300.072
300.078
300.078
300.137
295.789
297.083
298.193
298.964
299.429
299.687
299.844
299.934
299.976
299.963
299.905
299.846
299.733
299.574
293.955
295.516
296.936
298.082
298.891
299.392
299.67
299.791
299.827
299.772
299.62
299.471
299.251
298.868
291.681
293.216
295.081
296.856
298.25
299.131
299.582
299.75
299.775
299.657
299.35
299.007
298.601
297.946
296.838
298.71
299.518
300.143
300.585
300.919
301.175
301.336
301.438
301.433
301.33
301.174
300.952
300.65
298.066
299.451
300.034
300.43
300.714
300.943
301.134
301.255
301.32
301.32
301.285
301.252
301.22
301.117
298.953
299.911
300.359
300.64
300.845
301.016
301.144
301.243
301.301
301.326
301.329
301.325
301.336
301.303
299.832
300.261
300.54
300.755
300.912
301.068
301.184
301.27
301.314
301.346
301.374
301.412
301.477
301.532
300.32
300.484
300.692
300.843
300.994
301.134
301.239
301.322
301.366
301.402
301.439
301.493
301.592
301.715
300.574
300.648
300.816
300.943
301.075
301.187
301.273
301.343
301.383
301.425
301.469
301.547
301.657
301.83
300.667
300.75
300.9
301.01
301.133
301.224
301.296
301.352
301.388
301.433
301.483
301.571
301.686
301.861
300.585
300.744
300.903
301.022
301.138
301.21
301.276
301.325
301.361
301.402
301.448
301.538
301.652
301.852
300.283
300.572
300.801
300.969
301.092
301.159
301.224
301.271
301.304
301.338
301.375
301.457
301.551
301.77
299.79
300.283
300.633
300.847
300.988
301.068
301.147
301.206
301.245
301.268
301.285
301.342
301.415
301.607
299.123
299.881
300.392
300.67
300.841
300.941
301.032
301.1
301.144
301.158
301.158
301.189
301.242
301.365
298.268
299.31
300.021
300.41
300.662
300.816
300.941
301.032
301.075
301.084
301.063
301.07
301.061
301.032
297.178
298.429
299.353
299.971
300.396
300.659
300.829
300.931
300.972
300.962
300.914
300.873
300.807
300.64
295.302
296.762
298.132
299.329
300.144
300.617
300.831
300.911
300.927
300.883
300.775
300.638
300.48
300.107
299.38
300.625
301.025
301.42
301.706
301.918
302.086
302.207
302.291
302.319
302.289
302.205
302.097
301.951
300.083
300.901
301.243
301.522
301.749
301.92
302.06
302.153
302.206
302.224
302.22
302.205
302.215
302.184
300.603
301.118
301.401
301.633
301.823
301.977
302.083
302.157
302.205
302.235
302.25
302.256
302.294
302.321
301.115
301.329
301.546
301.74
301.889
302.031
302.128
302.195
302.232
302.263
302.291
302.333
302.398
302.484
301.403
301.506
301.671
301.818
301.974
302.103
302.194
302.258
302.293
302.322
302.351
302.404
302.484
302.605
301.569
301.639
301.8
301.927
302.058
302.162
302.236
302.291
302.322
302.353
302.387
302.451
302.541
302.687
301.64
301.729
301.874
301.986
302.109
302.196
302.263
302.312
302.34
302.374
302.409
302.478
302.567
302.709
301.591
301.738
301.876
301.988
302.105
302.181
302.248
302.295
302.324
302.357
302.392
302.465
302.56
302.727
301.417
301.655
301.818
301.943
302.053
302.126
302.196
302.245
302.275
302.305
302.336
302.408
302.494
302.676
301.141
301.489
301.694
301.837
301.955
302.04
302.124
302.185
302.219
302.242
302.263
302.318
302.388
302.565
300.794
301.26
301.522
301.689
301.818
301.918
302.014
302.086
302.129
302.148
302.16
302.202
302.26
302.41
300.32
300.939
301.286
301.509
301.671
301.806
301.929
302.021
302.065
302.081
302.08
302.102
302.138
302.188
299.752
300.488
300.929
301.272
301.511
301.693
301.831
301.935
301.993
302.012
301.995
301.993
301.998
301.944
298.38
299.468
300.249
300.971
301.42
301.695
301.84
301.911
301.944
301.957
301.949
301.869
301.798
301.597
301.028
301.768
302.024
302.324
302.57
302.747
302.874
302.975
303.05
303.094
303.103
303.058
303.001
302.926
301.414
301.882
302.131
302.366
302.573
302.731
302.85
302.932
302.989
303.014
303.033
303.039
303.061
303.055
301.749
302.036
302.249
302.453
302.627
302.771
302.872
302.942
302.993
303.022
303.048
303.074
303.112
303.153
302.062
302.205
302.39
302.557
302.701
302.831
302.92
302.983
303.023
303.053
303.084
303.129
303.184
303.263
302.267
302.352
302.498
302.636
302.782
302.903
302.986
303.048
303.084
303.113
303.14
303.188
303.25
303.352
302.406
302.471
302.611
302.729
302.858
302.961
303.034
303.088
303.119
303.15
303.178
303.233
303.302
303.419
302.46
302.543
302.67
302.778
302.9
302.991
303.063
303.116
303.147
303.18
303.208
303.263
303.334
303.45
302.417
302.542
302.664
302.771
302.89
302.976
303.051
303.107
303.14
303.174
303.204
303.266
303.344
303.481
302.332
302.502
302.616
302.723
302.835
302.921
303.002
303.063
303.1
303.134
303.165
303.228
303.3
303.448
302.161
302.381
302.511
302.629
302.745
302.843
302.936
303.005
303.046
303.077
303.104
303.155
303.218
303.368
301.961
302.207
302.368
302.497
302.622
302.733
302.835
302.913
302.962
302.989
303.014
303.059
303.114
303.254
301.679
301.993
302.196
302.355
302.499
302.636
302.759
302.849
302.896
302.922
302.938
302.969
303.011
303.101
301.413
301.765
301.986
302.201
302.383
302.542
302.672
302.774
302.838
302.869
302.863
302.878
302.911
302.923
300.569
301.201
301.643
302.059
302.338
302.542
302.662
302.742
302.791
302.829
302.856
302.804
302.779
302.711
302.191
302.635
302.84
303.099
303.328
303.485
303.606
303.703
303.78
303.832
303.868
303.869
303.829
303.786
302.434
302.718
302.914
303.125
303.313
303.46
303.575
303.66
303.724
303.761
303.799
303.83
303.859
303.867
302.689
302.86
303.024
303.201
303.353
303.486
303.584
303.66
303.721
303.763
303.802
303.839
303.884
303.931
302.907
303.009
303.154
303.282
303.417
303.534
303.62
303.689
303.74
303.781
303.823
303.872
303.929
303.999
303.073
303.124
303.244
303.364
303.488
303.596
303.678
303.744
303.789
303.829
303.865
303.917
303.973
304.061
303.179
303.221
303.33
303.432
303.55
303.647
303.722
303.783
303.825
303.866
303.901
303.955
304.015
304.11
303.209
303.27
303.37
303.464
303.58
303.671
303.75
303.814
303.856
303.898
303.931
303.986
304.048
304.144
303.169
303.262
303.36
303.452
303.566
303.659
303.744
303.813
303.859
303.903
303.937
303.997
304.063
304.174
303.11
303.222
303.31
303.406
303.518
303.614
303.706
303.78
303.83
303.876
303.912
303.973
304.035
304.156
302.983
303.125
303.217
303.327
303.444
303.552
303.653
303.733
303.788
303.832
303.869
303.923
303.978
304.102
302.837
302.976
303.094
303.215
303.343
303.463
303.571
303.657
303.717
303.76
303.799
303.849
303.903
304.017
302.637
302.812
302.959
303.101
303.247
303.386
303.509
303.602
303.66
303.699
303.734
303.77
303.813
303.911
302.482
302.658
302.817
302.989
303.157
303.309
303.437
303.54
303.61
303.653
303.673
303.696
303.731
303.772
301.953
302.339
302.63
302.905
303.128
303.305
303.425
303.516
303.575
303.616
303.647
303.644
303.642
303.631
288.484
289.769
291.229
293.129
295.282
297.188
288.724
289.94
292.102
294.709
297.247
299.349
290.806
291.783
293.754
296.184
298.708
300.719
292.713
293.661
295.269
297.274
299.69
301.472
294.185
295.004
296.275
297.893
300.048
301.623
295.063
295.703
296.779
298.131
300.016
301.161
295.46
295.762
296.16
296.809
298.075
298.841
295.362
295.225
294.992
294.889
295.259
295.191
294.741
293.908
292.871
292.085
291.735
290.965
293.686
292.233
290.715
289.53
288.719
287.53
292.552
290.774
289.237
287.999
287.068
285.702
291.438
289.791
288.632
287.499
286.616
285.203
290.834
289.738
289.143
288.487
288.016
286.842
290.023
289.374
289.552
289.807
290.067
289.798
286.854
287.345
288.364
289.897
291.979
294.069
288.032
288.692
290.14
292.192
294.693
296.896
290.524
291.083
292.503
294.529
297.053
299.129
292.88
293.457
294.817
296.626
298.898
300.676
294.804
295.431
296.622
298.03
299.926
301.345
296.171
296.654
297.348
298.244
299.824
300.919
296.744
296.996
297.382
297.713
298.485
298.85
296.734
296.543
296.075
295.49
295.313
295
296.078
295.096
293.609
292.12
291.147
290.28
294.723
292.902
290.669
288.746
287.329
286.119
292.945
290.652
288.343
286.452
284.979
283.589
291.285
289.094
287.394
285.741
284.429
283.007
290.299
288.705
287.735
286.642
285.785
284.795
289.161
287.968
287.649
287.586
287.73
287.646
286.756
286.312
286.29
286.911
288.286
290.108
288.917
288.486
288.934
289.838
291.525
293.679
291.713
291.406
292.002
293.126
294.863
296.995
294.067
293.976
294.74
296.079
297.797
299.724
296.157
296.349
297.114
298.262
299.705
301.31
297.512
297.882
298.483
299.217
300.269
301.557
298.217
298.49
298.857
299.215
299.724
300.412
298.363
298.37
298.143
297.665
297.239
297.124
297.995
297.441
296.18
294.604
293.258
292.415
296.954
295.581
293.381
291.01
289.043
287.743
295.592
293.377
290.55
287.885
285.755
284.297
293.819
291.418
288.795
286.465
284.529
283.096
292.581
290.497
288.603
286.797
285.388
284.354
291.309
289.387
288.117
287.105
286.778
286.556
288.254
286.474
285.395
284.978
285.569
286.6
290.803
289.103
288.415
288.336
289.061
290.404
293.485
292.239
291.852
292.064
292.925
294.361
295.676
294.955
294.892
295.362
296.488
298.022
297.508
297.303
297.581
298.222
299.298
300.695
298.663
298.82
299.303
299.961
300.887
301.925
299.308
299.597
300.028
300.569
301.253
301.975
299.566
299.792
300.005
300.175
300.254
300.245
299.467
299.469
299.164
298.497
297.545
296.584
298.986
298.467
297.349
295.696
293.704
291.92
298.248
297.119
294.975
292.331
289.608
287.396
297.002
295.145
292.563
289.696
286.994
284.89
295.743
293.736
291.322
288.784
286.637
284.928