/*--------------------------------*- C++ -*----------------------------------*\
| =========                 |                                                 |
| \\      /  F ield         | OpenFOAM: The Open Source CFD Toolbox           |
|  \\    /   O peration     | Version:  v2106                                 |
|   \\  /    A nd           | Website:  www.openfoam.com                      |
|    \\/     M anipulation  |                                                 |
\*---------------------------------------------------------------------------*/
FoamFile
{
    version     2.0;
    format      ascii;
    arch        "LSB;label=32;scalar=64";
    class       volScalarField;
    location    "0.000155";
    object      alphat;
}
// * * * * * * * * * * * * * * * * * * * * * * * * * * * * * * * * * * * * * //

dimensions      [1 -1 -1 0 0 0 0];

internalField   nonuniform List<scalar> 
18109
(
3.67298e-06
1.08669e-06
2.39988e-07
4.98537e-08
1.98069e-08
1.69213e-08
2.08583e-08
2.53719e-06
6.29007e-07
9.11753e-08
1.08649e-08
2.07748e-09
1.42043e-09
2.08065e-09
1.6809e-06
3.77456e-07
5.47572e-08
7.3015e-09
1.19831e-09
2.29779e-10
1.445e-10
1.16222e-06
2.75566e-07
5.47455e-08
9.94854e-09
1.7717e-09
2.62754e-10
3.53641e-11
8.51535e-07
2.30668e-07
5.65768e-08
1.14815e-08
2.00478e-09
2.90136e-10
3.45981e-11
7.02902e-07
2.11753e-07
5.57983e-08
1.13917e-08
1.8762e-09
2.70539e-10
3.82926e-11
6.69955e-07
2.14593e-07
5.60305e-08
1.09501e-08
1.75675e-09
2.96797e-10
9.46435e-11
7.38741e-07
2.37016e-07
5.9138e-08
1.10241e-08
2.02801e-09
6.2148e-10
4.64042e-10
1.47722e-06
3.8695e-07
6.78273e-08
9.77923e-09
3.19391e-09
3.09742e-09
4.22162e-09
6.03313e-09
8.32005e-09
1.13112e-08
1.69889e-08
3.12462e-08
7.14767e-08
1.8939e-07
8.9141e-07
1.95334e-07
2.62936e-08
2.46525e-09
3.57723e-10
2.11511e-10
3.32388e-10
5.77705e-10
8.96802e-10
1.24579e-09
1.93561e-09
4.59015e-09
1.6331e-08
6.95903e-08
5.44465e-07
1.14552e-07
1.78577e-08
2.37663e-09
3.49848e-10
5.14942e-11
2.05212e-11
3.31184e-11
6.05651e-11
1.00901e-10
2.59829e-10
1.28764e-09
7.20715e-09
3.61001e-08
3.79578e-07
9.10933e-08
1.89783e-08
3.36871e-09
5.11427e-10
6.52958e-11
7.1871e-12
1.64329e-12
2.49556e-12
9.97287e-12
7.35848e-11
5.48387e-10
3.47022e-09
1.80175e-08
2.99367e-07
8.11307e-08
1.93543e-08
3.80481e-09
5.70553e-10
7.1122e-11
7.27683e-12
7.05377e-13
4.24738e-13
3.28054e-12
3.13096e-11
2.51399e-10
1.65204e-09
8.8615e-09
2.64825e-07
7.66439e-08
1.90162e-08
3.7415e-09
5.30295e-10
6.43512e-11
7.52554e-12
1.772e-12
1.31563e-12
2.6794e-12
1.83523e-11
1.47823e-10
1.00742e-09
5.6618e-09
2.65572e-07
7.95096e-08
1.93386e-08
3.62325e-09
4.91461e-10
6.73648e-11
1.77028e-11
1.27109e-11
1.16096e-11
1.19765e-11
2.45229e-11
1.3511e-10
9.05687e-10
5.33172e-09
3.03266e-07
8.93145e-08
2.05525e-08
3.64594e-09
5.29127e-10
1.34045e-10
9.4532e-11
9.06642e-11
8.65014e-11
8.51949e-11
1.03101e-10
2.47296e-10
1.2362e-09
7.02356e-09
3.67825e-07
1.02754e-07
2.26376e-08
4.07243e-09
9.03226e-10
5.36736e-10
5.2956e-10
5.33471e-10
5.20973e-10
5.24215e-10
5.84021e-10
8.75602e-10
2.57419e-09
1.19789e-08
4.52642e-07
1.22398e-07
2.80888e-08
6.39514e-09
2.80255e-09
2.46943e-09
2.56317e-09
2.61479e-09
2.608e-09
2.69919e-09
3.00245e-09
3.81918e-09
7.61976e-09
2.68154e-08
5.80877e-07
1.72139e-07
4.81861e-08
1.70482e-08
1.08783e-08
1.03557e-08
1.06135e-08
1.08688e-08
1.1076e-08
1.1805e-08
1.33404e-08
1.60078e-08
2.58207e-08
7.21057e-08
9.47389e-07
3.7241e-07
1.4081e-07
6.17525e-08
4.1497e-08
3.83876e-08
3.81956e-08
3.89739e-08
4.0454e-08
4.43044e-08
5.12207e-08
6.05058e-08
8.61683e-08
1.99136e-07
2.02951e-06
1.02132e-06
4.71517e-07
2.28464e-07
1.44596e-07
1.25373e-07
1.20744e-07
1.21941e-07
1.28303e-07
1.43831e-07
1.71152e-07
2.04691e-07
2.71218e-07
5.27527e-07
4.36421e-06
2.61968e-06
1.42654e-06
7.59716e-07
4.56637e-07
3.63032e-07
3.37973e-07
3.35285e-07
3.53731e-07
4.02133e-07
4.93955e-07
6.10523e-07
7.82916e-07
1.25414e-06
4.87431e-06
8.19729e-06
1.508e-05
2.53219e-05
3.73063e-05
4.8341e-05
1.91455e-06
3.72337e-06
7.92325e-06
1.51971e-05
2.52103e-05
3.56947e-05
6.87133e-07
1.87643e-06
5.12223e-06
1.11714e-05
1.948e-05
2.82613e-05
2.24079e-07
9.67275e-07
3.14598e-06
7.47289e-06
1.38154e-05
2.13378e-05
8.33769e-08
4.95446e-07
1.84894e-06
4.83172e-06
9.64429e-06
1.6001e-05
4.07173e-08
2.72042e-07
1.13604e-06
3.25564e-06
7.02633e-06
1.24828e-05
3.17547e-08
2.02283e-07
8.51203e-07
2.50663e-06
5.62977e-06
1.04295e-05
3.48722e-08
2.00214e-07
7.89796e-07
2.26676e-06
5.09172e-06
9.56023e-06
4.27571e-08
2.22476e-07
8.18517e-07
2.26422e-06
5.06948e-06
1.00524e-05
5.45358e-08
2.61943e-07
9.12526e-07
2.49978e-06
5.89103e-06
1.29077e-05
7.16535e-08
3.24996e-07
1.12469e-06
3.20729e-06
7.99449e-06
1.77824e-05
1.04721e-07
4.55559e-07
1.58432e-06
4.56899e-06
1.10719e-05
2.27249e-05
1.81414e-07
7.48373e-07
2.45173e-06
6.45914e-06
1.40143e-05
2.54258e-05
3.68574e-07
1.29079e-06
3.60671e-06
8.19101e-06
1.55897e-05
2.53386e-05
8.08885e-07
2.15187e-06
4.88625e-06
9.47241e-06
1.60327e-05
2.40255e-05
3.93806e-07
1.28211e-06
3.46233e-06
7.58749e-06
1.37711e-05
2.11636e-05
2.80858e-07
9.06686e-07
2.50653e-06
5.72525e-06
1.09007e-05
1.75491e-05
1.49268e-07
5.1281e-07
1.51862e-06
3.74686e-06
7.73553e-06
1.36821e-05
7.63566e-08
2.82296e-07
8.90829e-07
2.3777e-06
5.41957e-06
1.04329e-05
3.92019e-08
1.58078e-07
5.47191e-07
1.61004e-06
3.99272e-06
8.13019e-06
2.66593e-08
1.16573e-07
4.31409e-07
1.32676e-06
3.33845e-06
6.90253e-06
2.64066e-08
1.19344e-07
4.39999e-07
1.31655e-06
3.21851e-06
6.57516e-06
3.44255e-08
1.50892e-07
5.30044e-07
1.51619e-06
3.65105e-06
7.79207e-06
5.35677e-08
2.19639e-07
7.38919e-07
2.09672e-06
5.20656e-06
1.16421e-05
1.0347e-07
3.91464e-07
1.25947e-06
3.49329e-06
8.46094e-06
1.79183e-05
2.39568e-07
8.11678e-07
2.37967e-06
6.00508e-06
1.30367e-05
2.4403e-05
5.81724e-07
1.72187e-06
4.34608e-06
9.40224e-06
1.76338e-05
2.87486e-05
1.3682e-06
3.29153e-06
6.90289e-06
1.26808e-05
2.06952e-05
3.01523e-05
2.88056e-06
5.55286e-06
9.71006e-06
1.54184e-05
2.24421e-05
3.0064e-05
2.35475e-06
4.85515e-06
8.90683e-06
1.45328e-05
2.12924e-05
2.83362e-05
2.01336e-06
4.16109e-06
7.67753e-06
1.26692e-05
1.87892e-05
2.53295e-05
1.57397e-06
3.31197e-06
6.22414e-06
1.04602e-05
1.59034e-05
2.20801e-05
1.22295e-06
2.6298e-06
5.01721e-06
8.62545e-06
1.34401e-05
1.91594e-05
9.72354e-07
2.14919e-06
4.23057e-06
7.45532e-06
1.18798e-05
1.74368e-05
8.5995e-07
1.95513e-06
3.91281e-06
6.98379e-06
1.14375e-05
1.82905e-05
8.2165e-07
1.89411e-06
3.84931e-06
7.19585e-06
1.32588e-05
2.49667e-05
8.40382e-07
1.9796e-06
4.3037e-06
9.12901e-06
1.91733e-05
3.80266e-05
9.42076e-07
2.40972e-06
5.91811e-06
1.37101e-05
2.8744e-05
5.28847e-05
1.30054e-06
3.57558e-06
9.00166e-06
1.99392e-05
3.83e-05
6.29966e-05
2.16161e-06
5.56456e-06
1.27279e-05
2.52098e-05
4.35327e-05
6.5157e-05
3.61025e-06
8.01444e-06
1.59706e-05
2.81242e-05
4.4093e-05
6.09751e-05
5.66185e-06
1.06478e-05
1.84938e-05
2.92847e-05
4.22311e-05
5.511e-05
8.17264e-06
1.32811e-05
2.0516e-05
2.96033e-05
3.99279e-05
4.99978e-05
3.74962e-06
9.96795e-06
2.23019e-05
4.14189e-05
6.48363e-05
8.73946e-05
5.01808e-06
1.17793e-05
2.3848e-05
4.09465e-05
6.04739e-05
7.81946e-05
6.52979e-06
1.31845e-05
2.39862e-05
3.84167e-05
5.42452e-05
6.8359e-05
8.0625e-06
1.42202e-05
2.36718e-05
3.54683e-05
4.81699e-05
5.91828e-05
5.05859e-06
8.88923e-06
1.58261e-05
2.48935e-05
3.46444e-05
4.36087e-05
3.12601e-06
6.83918e-06
1.3136e-05
2.1167e-05
2.94957e-05
3.72657e-05
2.23914e-06
5.31055e-06
1.01926e-05
1.65101e-05
2.36832e-05
3.09932e-05
1.71596e-06
4.00063e-06
7.61401e-06
1.27154e-05
1.90242e-05
2.61382e-05
1.32368e-06
3.06587e-06
6.0074e-06
1.03599e-05
1.61804e-05
2.33277e-05
1.02397e-06
2.43658e-06
4.99745e-06
9.08031e-06
1.50354e-05
2.42084e-05
8.38935e-07
2.11632e-06
4.61612e-06
8.98885e-06
1.67235e-05
3.17231e-05
7.70503e-07
2.07456e-06
4.85335e-06
1.05255e-05
2.232e-05
4.49178e-05
8.15567e-07
2.32293e-06
5.96189e-06
1.4251e-05
3.09425e-05
5.87223e-05
9.68989e-07
2.90651e-06
7.92707e-06
1.90086e-05
3.88839e-05
6.67993e-05
1.30019e-06
3.88213e-06
1.0184e-05
2.25391e-05
4.20797e-05
6.66487e-05
1.84942e-06
5.00366e-06
1.18198e-05
2.36858e-05
4.08306e-05
6.0374e-05
2.67682e-06
6.16223e-06
1.27622e-05
2.31737e-05
3.72215e-05
5.20408e-05
3.71856e-06
7.17705e-06
1.31104e-05
2.19056e-05
3.3092e-05
4.43848e-05
4.45603e-05
5.75119e-05
7.02803e-05
8.21107e-05
8.48196e-05
3.67996e-05
4.82192e-05
6.00401e-05
7.45511e-05
8.67664e-05
2.99598e-05
4.01328e-05
5.15353e-05
7.07266e-05
9.28441e-05
2.42377e-05
3.35763e-05
4.73877e-05
7.6346e-05
0.000106855
1.98848e-05
2.92073e-05
4.89791e-05
9.11796e-05
0.000125377
1.69408e-05
2.85862e-05
5.86972e-05
0.000108939
0.000139943
1.63443e-05
3.48995e-05
7.66122e-05
0.00012523
0.000148146
1.96413e-05
4.78182e-05
9.49727e-05
0.000133852
0.000151665
0.000157193
2.68633e-05
6.2639e-05
0.000106249
0.000131446
0.000144507
0.000155405
3.47711e-05
7.13336e-05
0.000103966
0.0001172
0.000127668
0.000146922
3.96059e-05
7.21458e-05
9.55428e-05
0.000102837
0.000109395
0.000133932
0.000167041
3.9751e-05
6.72015e-05
8.67973e-05
9.3799e-05
9.58322e-05
0.000115833
0.00018871
0.000193422
3.64854e-05
5.96862e-05
7.93495e-05
9.11813e-05
9.13991e-05
9.04097e-05
0.000185551
0.000482064
3.2416e-05
5.22397e-05
7.23968e-05
9.01486e-05
9.39355e-05
7.86139e-05
8.70175e-05
0.000469571
2.80348e-05
4.58288e-05
6.60514e-05
8.53354e-05
9.12198e-05
8.08659e-05
8.36997e-05
0.000393834
2.40814e-05
3.9877e-05
5.80022e-05
7.55031e-05
8.47421e-05
8.46889e-05
8.83511e-05
0.000358249
2.04285e-05
3.38889e-05
4.94396e-05
6.6596e-05
8.13445e-05
9.24462e-05
9.80099e-05
0.000200691
1.67028e-05
2.82721e-05
4.24531e-05
6.3013e-05
8.66882e-05
0.000106544
0.000108097
0.000283334
1.37195e-05
2.38088e-05
3.89055e-05
6.68555e-05
9.99907e-05
0.0001242
0.000122015
0.000317109
1.18047e-05
2.18041e-05
4.11162e-05
7.65503e-05
0.000115746
0.000140301
0.000135004
0.000273775
1.18105e-05
2.57248e-05
5.36355e-05
9.3236e-05
0.000130002
0.000153413
0.000148486
0.000118585
1.55885e-05
3.73441e-05
7.26486e-05
0.000109162
0.000138193
0.000162534
0.000161733
0.000125543
2.35162e-05
5.24414e-05
8.8351e-05
0.000114394
0.000134744
0.000160669
3.29209e-05
6.38507e-05
9.21943e-05
0.000105296
0.000119019
0.000151356
3.95553e-05
6.74778e-05
8.68142e-05
9.26134e-05
0.000100102
0.000137779
4.14509e-05
6.5037e-05
8.06531e-05
8.60015e-05
8.61634e-05
0.000117778
3.99298e-05
6.01182e-05
7.619e-05
8.61577e-05
8.3222e-05
9.81532e-05
3.74278e-05
5.54852e-05
7.25607e-05
8.78427e-05
8.84227e-05
3.46384e-05
5.09135e-05
6.81797e-05
8.59579e-05
9.52313e-05
3.11765e-05
4.60245e-05
6.22145e-05
8.43119e-05
0.000103978
2.7764e-05
4.12489e-05
5.95109e-05
9.02227e-05
0.000118507
2.48595e-05
3.90411e-05
6.61464e-05
0.000107153
0.000141747
2.43945e-05
4.479e-05
8.57384e-05
0.000132602
0.00016579
3.03266e-05
6.42163e-05
0.000113882
0.000153399
0.000177993
4.61437e-05
9.33755e-05
0.000137744
0.000160852
0.000178421
6.67625e-05
0.00011514
0.00014316
0.000152201
0.000171543
8.28941e-05
0.00012014
0.000130709
0.000132213
0.000153936
8.79323e-05
0.000112004
0.000112074
0.000110259
0.000132811
8.33332e-05
0.000100313
9.84073e-05
9.57537e-05
0.000112252
7.38002e-05
8.79832e-05
9.06786e-05
9.02288e-05
9.66516e-05
6.42019e-05
7.71298e-05
8.45452e-05
9.00176e-05
9.4031e-05
5.62605e-05
6.76314e-05
7.69932e-05
8.9751e-05
9.86465e-05
4.95413e-05
5.89471e-05
6.99841e-05
9.07391e-05
0.000107613
4.31378e-05
5.11585e-05
6.60897e-05
9.72465e-05
0.000121236
3.73149e-05
4.61379e-05
7.06118e-05
0.000112688
0.000139365
3.28831e-05
4.80321e-05
8.94999e-05
0.000139763
0.000161787
3.26208e-05
6.153e-05
0.000120839
0.000166862
0.000177575
4.14002e-05
8.97218e-05
0.000150247
0.000178051
0.000179678
5.98029e-05
0.000119683
0.000164201
0.000173671
0.000175853
8.00874e-05
0.000135469
0.000158986
0.000159705
0.000169496
9.36047e-05
0.000134282
0.000140991
0.000138939
0.000153417
9.60056e-05
0.000123114
0.000120758
0.00011741
0.000134031
8.9296e-05
0.00010968
0.000106213
0.000102215
0.000113907
7.74428e-05
9.4626e-05
9.70725e-05
9.47646e-05
9.51563e-05
6.42925e-05
8.0115e-05
8.94678e-05
9.25832e-05
8.52114e-05
5.30453e-05
6.7741e-05
8.01672e-05
8.93921e-05
8.4143e-05
4.22789e-07
9.73549e-08
1.60224e-08
1.95061e-09
4.54683e-10
4.43656e-10
6.24434e-10
8.80215e-10
1.14002e-09
1.36905e-09
1.598e-09
2.40953e-09
6.2874e-09
2.48357e-08
1.95955e-07
3.89073e-08
5.6166e-09
6.41169e-10
7.99457e-11
3.03439e-11
4.2556e-11
7.20215e-11
1.09647e-10
1.3798e-10
1.64696e-10
3.96255e-10
2.13098e-09
1.32128e-08
1.11868e-07
2.50158e-08
4.76734e-09
8.04679e-10
1.13352e-10
1.43969e-11
3.20943e-12
3.84232e-12
6.44023e-12
9.9474e-12
2.4027e-11
1.62092e-10
1.22472e-09
7.83235e-09
9.27322e-08
2.47183e-08
5.68802e-09
1.10903e-09
1.69389e-10
1.96863e-11
1.86146e-12
2.94361e-13
2.90837e-13
8.55984e-13
7.65543e-12
7.61862e-11
6.21594e-10
4.07626e-09
8.63297e-08
2.45444e-08
6.07176e-09
1.25014e-09
1.95614e-10
2.1894e-11
1.95353e-12
1.57201e-13
4.34715e-14
2.74798e-13
3.45094e-12
3.63498e-11
3.04458e-10
2.04026e-09
8.4603e-08
2.48591e-08
6.20499e-09
1.24115e-09
1.84872e-10
1.95687e-11
1.84422e-12
3.04051e-13
1.78316e-13
2.64124e-13
1.98216e-12
2.05646e-11
1.75428e-10
1.19767e-09
9.44849e-08
2.76619e-08
6.58963e-09
1.24136e-09
1.74707e-10
1.90188e-11
3.46086e-12
2.10219e-12
1.82073e-12
1.62753e-12
2.62362e-12
1.57113e-11
1.27799e-10
8.90209e-10
1.15993e-07
3.22912e-08
7.1553e-09
1.25666e-09
1.72145e-10
2.98661e-11
1.79407e-11
1.65768e-11
1.53596e-11
1.37818e-11
1.37388e-11
2.5624e-11
1.3331e-10
9.04527e-10
1.44303e-07
3.77134e-08
7.91461e-09
1.36237e-09
2.35537e-10
1.1096e-10
1.09752e-10
1.09105e-10
1.04604e-10
9.77048e-11
9.56584e-11
1.11871e-10
2.52617e-10
1.27875e-09
1.80213e-07
4.4922e-08
9.32166e-09
1.81073e-09
6.15672e-10
5.40737e-10
5.8452e-10
5.9606e-10
5.89358e-10
5.74255e-10
5.81538e-10
6.18663e-10
8.62124e-10
2.62112e-09
2.26906e-07
5.66822e-08
1.28396e-08
3.64012e-09
2.36862e-09
2.44289e-09
2.64795e-09
2.74664e-09
2.80181e-09
2.84882e-09
3.00473e-09
3.17526e-09
3.75516e-09
8.02852e-09
3.41092e-07
9.97625e-08
2.81874e-08
1.15141e-08
9.32782e-09
9.68162e-09
1.03256e-08
1.08379e-08
1.13944e-08
1.20657e-08
1.32697e-08
1.43459e-08
1.61637e-08
2.82553e-08
6.99525e-07
2.62204e-07
9.13174e-08
4.14509e-08
3.30257e-08
3.34852e-08
3.50468e-08
3.70577e-08
4.0081e-08
4.40527e-08
5.05716e-08
5.68873e-08
6.43495e-08
9.70618e-08
1.66901e-06
7.61629e-07
3.09842e-07
1.42477e-07
1.02603e-07
1.0099e-07
1.04365e-07
1.10658e-07
1.22519e-07
1.38868e-07
1.66405e-07
1.96613e-07
2.31095e-07
3.14175e-07
4.08347e-08
8.01945e-09
1.3037e-09
2.11612e-10
8.10179e-11
8.40397e-11
1.18145e-10
1.50631e-10
1.78154e-10
1.86047e-10
1.63327e-10
1.44359e-10
2.79203e-10
1.53436e-09
1.70927e-08
3.42119e-09
5.92332e-10
9.33532e-11
1.5075e-11
5.6457e-12
7.82969e-12
1.21165e-11
1.68037e-11
1.93447e-11
1.68866e-11
2.35681e-11
1.4534e-10
1.19815e-09
1.48253e-08
3.75515e-09
8.19373e-10
1.55282e-10
2.47687e-11
3.16206e-12
6.17511e-13
6.78492e-13
1.03441e-12
1.37465e-12
1.82839e-12
1.09417e-11
1.07136e-10
8.87881e-10
1.76348e-08
4.7607e-09
1.11919e-09
2.25987e-10
3.71905e-11
4.57033e-12
3.98019e-13
5.70796e-14
5.42215e-14
8.55856e-14
4.96363e-13
6.35563e-12
6.85936e-11
5.80203e-10
1.92827e-08
5.39191e-09
1.32117e-09
2.7127e-10
4.4233e-11
5.33466e-12
4.31704e-13
2.88912e-14
5.12643e-15
1.67094e-14
2.60131e-13
3.75547e-12
4.15118e-11
3.54163e-10
2.11432e-08
5.92834e-09
1.41517e-09
2.77213e-10
4.2676e-11
4.87697e-12
3.8841e-13
3.75383e-14
1.42154e-14
1.66706e-14
1.59318e-13
2.31418e-12
2.60903e-11
2.25534e-10
2.50478e-08
6.8254e-09
1.54504e-09
2.84593e-10
4.11719e-11
4.56152e-12
5.11558e-13
2.0325e-13
1.5916e-13
1.26927e-13
1.9349e-13
1.6528e-12
1.80626e-11
1.57594e-10
3.11577e-08
8.04218e-09
1.69884e-09
2.90941e-10
3.98938e-11
5.41428e-12
2.0923e-12
1.75711e-12
1.53413e-12
1.25428e-12
1.06404e-12
1.99661e-12
1.43054e-11
1.23559e-10
3.85332e-08
9.41343e-09
1.87747e-09
3.07156e-10
4.64413e-11
1.51671e-11
1.38373e-11
1.32291e-11
1.203e-11
1.0318e-11
8.74088e-12
8.69148e-12
1.91718e-11
1.26012e-10
4.83218e-08
1.12127e-08
2.1507e-09
3.64857e-10
9.43744e-11
7.51956e-11
8.37253e-11
8.30881e-11
7.82287e-11
7.03909e-11
6.2658e-11
5.76969e-11
6.36066e-11
1.83117e-10
5.86298e-08
1.30599e-08
2.54008e-09
5.73857e-10
3.4029e-10
3.75802e-10
4.31964e-10
4.40371e-10
4.29285e-10
4.05509e-10
3.80193e-10
3.54356e-10
3.37522e-10
5.26603e-10
7.50304e-08
1.73028e-08
3.89733e-09
1.50604e-09
1.42614e-09
1.66493e-09
1.91063e-09
1.99357e-09
2.01071e-09
1.99316e-09
1.96647e-09
1.89337e-09
1.78394e-09
2.21625e-09
1.17237e-07
3.23686e-08
9.25783e-09
5.13992e-09
5.534e-09
6.44664e-09
7.32028e-09
7.79605e-09
8.13185e-09
8.4476e-09
8.76385e-09
8.8173e-09
8.54993e-09
9.55241e-09
2.62069e-07
8.79144e-08
2.92385e-08
1.73123e-08
1.8804e-08
2.18191e-08
2.45091e-08
2.65512e-08
2.85512e-08
3.09176e-08
3.36621e-08
3.56875e-08
3.66373e-08
3.88397e-08
3.29738e-09
6.47397e-10
1.35064e-10
4.08917e-11
2.29807e-11
2.14602e-11
2.71131e-11
3.22615e-11
3.56006e-11
3.444e-11
2.57953e-11
1.68328e-11
1.729e-11
9.92805e-11
1.78728e-09
3.9135e-10
7.69744e-11
1.38777e-11
2.69728e-12
1.27391e-12
1.77358e-12
2.59602e-12
3.38582e-12
3.74822e-12
2.95673e-12
2.27633e-12
9.61536e-12
9.31519e-11
2.43252e-09
6.13817e-10
1.35949e-10
2.64024e-11
4.3918e-12
6.25478e-13
1.38704e-13
1.49969e-13
2.20721e-13
2.78602e-13
2.58732e-13
7.14648e-13
7.98842e-12
8.08425e-11
3.30236e-09
8.70481e-10
2.03674e-10
4.11623e-11
6.91335e-12
9.19719e-13
9.31916e-14
1.32322e-14
1.2896e-14
1.70457e-14
3.39751e-14
4.15653e-13
5.76855e-12
6.06622e-11
4.00411e-09
1.0846e-09
2.57503e-10
5.17999e-11
8.51282e-12
1.09527e-12
1.03385e-13
6.69923e-15
1.07257e-15
1.47145e-15
1.45318e-14
2.76463e-13
4.00162e-12
4.30796e-11
4.69531e-09
1.24762e-09
2.85e-10
5.45205e-11
8.47005e-12
1.03207e-12
9.37757e-14
6.76283e-15
1.40837e-15
1.12192e-15
9.16856e-15
1.82827e-13
2.74631e-12
3.04781e-11
5.77061e-09
1.47582e-09
3.18697e-10
5.71325e-11
8.28561e-12
9.53748e-13
9.65997e-14
2.1564e-14
1.43342e-14
1.04937e-14
1.29693e-14
1.35327e-13
1.99092e-12
2.23663e-11
7.21448e-09
1.74952e-09
3.53725e-10
5.9065e-11
8.05146e-12
9.99158e-13
2.52055e-13
1.79492e-13
1.48684e-13
1.14443e-13
8.64342e-14
1.54759e-13
1.47786e-12
1.64502e-11
8.86517e-09
2.04362e-09
3.90225e-10
6.16793e-11
8.65438e-12
2.07584e-12
1.57923e-12
1.46841e-12
1.28406e-12
1.04095e-12
8.02833e-13
7.19443e-13
1.62767e-12
1.40062e-11
1.09642e-08
2.40377e-09
4.37696e-10
6.89336e-11
1.43701e-11
9.65989e-12
1.04185e-11
1.02204e-11
9.29284e-12
7.90726e-12
6.45944e-12
5.48852e-12
5.25738e-12
1.55976e-11
1.2864e-08
2.69705e-09
4.85328e-10
9.31277e-11
4.69119e-11
5.19879e-11
5.99045e-11
6.05476e-11
5.71564e-11
5.09739e-11
4.4044e-11
3.82537e-11
3.23704e-11
4.22365e-11
1.51518e-08
3.13225e-09
6.18934e-10
2.09992e-10
2.05923e-10
2.545e-10
2.97322e-10
3.08408e-10
3.01774e-10
2.8154e-10
2.56012e-10
2.29381e-10
1.95975e-10
2.03873e-10
1.92726e-08
4.44038e-09
1.1543e-09
7.15412e-10
8.73023e-10
1.09469e-09
1.28208e-09
1.36235e-09
1.38053e-09
1.3458e-09
1.28299e-09
1.19322e-09
1.05534e-09
1.01788e-09
3.41641e-08
9.70934e-09
3.21688e-09
2.57913e-09
3.30529e-09
4.14351e-09
4.84477e-09
5.25856e-09
5.50121e-09
5.58443e-09
5.56106e-09
5.39699e-09
5.00935e-09
4.72417e-09
3.93257e-10
8.25705e-11
2.01864e-11
7.32353e-12
4.78359e-12
4.93669e-12
6.18776e-12
7.42604e-12
8.21409e-12
7.82416e-12
5.70052e-12
3.33089e-12
2.07382e-12
9.00345e-12
2.92317e-10
6.66294e-11
1.3694e-11
2.60335e-12
5.5857e-13
3.0547e-13
4.1829e-13
6.0448e-13
7.8959e-13
8.66856e-13
6.89698e-13
4.31735e-13
8.81058e-13
8.73705e-12
4.72067e-10
1.17691e-10
2.61299e-11
5.12832e-12
8.71116e-13
1.31168e-13
3.38005e-14
3.72085e-14
5.45915e-14
6.78751e-14
6.02832e-14
7.70991e-14
7.36623e-13
8.38912e-12
6.80367e-10
1.7686e-10
4.09534e-11
8.22278e-12
1.38907e-12
1.90707e-13
2.11656e-14
3.59087e-15
3.54307e-15
4.64569e-15
5.35739e-15
3.56624e-14
5.63994e-13
6.84667e-12
8.72005e-10
2.29601e-10
5.3114e-11
1.04978e-11
1.72343e-12
2.27579e-13
2.31999e-14
1.85349e-15
3.50326e-16
3.84766e-16
1.26198e-15
2.4176e-14
4.18394e-13
5.26673e-12
1.0491e-09
2.67258e-10
5.89941e-11
1.10533e-11
1.71476e-12
2.14361e-13
2.08804e-14
1.68553e-15
2.91109e-16
2.05824e-16
7.467e-16
1.62974e-14
2.98366e-13
3.94024e-12
1.28899e-09
3.12646e-10
6.48526e-11
1.13457e-11
1.63895e-12
1.92297e-13
1.94969e-14
3.40009e-15
1.88294e-15
1.31559e-15
1.27181e-15
1.22938e-14
2.21628e-13
3.00144e-12
1.58986e-09
3.64141e-10
7.06129e-11
1.14933e-11
1.55485e-12
1.88544e-13
3.92053e-14
2.43353e-14
1.9209e-14
1.41449e-14
9.84506e-15
1.49702e-14
1.63405e-13
2.21272e-12
1.90635e-09
4.14637e-10
7.5812e-11
1.16298e-11
1.58269e-12
3.34944e-13
2.27061e-13
2.04787e-13
1.72969e-13
1.34335e-13
9.70449e-14
7.94777e-14
1.69913e-13
1.74792e-12
2.29088e-09
4.74067e-10
8.2497e-11
1.24725e-11
2.40292e-12
1.49128e-12
1.56316e-12
1.50594e-12
1.32331e-12
1.079e-12
8.27375e-13
6.59531e-13
5.70145e-13
1.6964e-12
2.61364e-09
5.18301e-10
8.83796e-11
1.58261e-11
7.55297e-12
8.38617e-12
9.55919e-12
9.50123e-12
8.66527e-12
7.39832e-12
6.00144e-12
4.91942e-12
3.82442e-12
4.43482e-12
2.9114e-09
5.65418e-10
1.04472e-10
3.39949e-11
3.45356e-11
4.37516e-11
5.0892e-11
5.19122e-11
4.90254e-11
4.36621e-11
3.72301e-11
3.14586e-11
2.47726e-11
2.32455e-11
3.37186e-09
7.10232e-10
1.76376e-10
1.18769e-10
1.55353e-10
2.01454e-10
2.36354e-10
2.47165e-10
2.41518e-10
2.2392e-10
1.99661e-10
1.74223e-10
1.41715e-10
1.26169e-10
5.10175e-09
1.33291e-09
4.678e-10
4.56728e-10
6.30943e-10
8.20553e-10
9.65657e-10
1.03243e-09
1.04076e-09
1.00099e-09
9.28758e-10
8.39286e-10
7.13271e-10
6.28462e-10
4.70742e-11
1.02178e-11
2.69093e-12
1.11657e-12
8.86921e-13
1.01986e-12
1.31914e-12
1.61104e-12
1.81096e-12
1.73358e-12
1.2695e-12
7.18172e-13
3.34165e-13
7.52941e-13
4.84346e-11
1.12142e-11
2.34413e-12
4.56117e-13
1.05615e-13
6.72328e-14
9.48801e-14
1.3689e-13
1.78986e-13
1.95874e-13
1.57781e-13
9.41151e-14
8.61409e-14
7.10153e-13
8.53599e-11
2.11298e-11
4.66848e-12
9.13677e-13
1.55729e-13
2.4511e-14
7.63327e-15
8.98894e-15
1.32056e-14
1.63752e-14
1.4489e-14
1.12654e-14
6.06851e-14
7.38061e-13
1.29271e-10
3.32314e-11
7.57492e-12
1.50035e-12
2.51916e-13
3.50965e-14
4.18487e-15
9.09696e-16
9.51477e-16
1.23521e-15
1.22226e-15
3.06807e-15
4.74853e-14
6.44683e-13
1.72875e-10
4.43907e-11
9.99473e-12
1.93524e-12
3.14702e-13
4.20493e-14
4.53688e-15
4.73408e-16
1.62573e-16
1.68046e-16
2.16056e-16
1.92472e-15
3.70636e-14
5.31018e-13
2.11158e-10
5.19859e-11
1.11297e-11
2.04169e-12
3.14252e-13
3.98068e-14
4.10047e-15
4.19999e-16
1.30843e-16
1.12332e-16
1.40366e-16
1.31924e-15
2.71357e-14
4.1507e-13
2.56201e-10
5.96339e-11
1.19687e-11
2.04865e-12
2.93873e-13
3.49021e-14
3.61464e-15
5.84771e-16
3.0445e-16
2.26512e-16
1.96817e-16
1.02596e-15
2.0483e-14
3.26178e-13
3.08162e-10
6.74979e-11
1.26644e-11
2.01864e-12
2.71299e-13
3.24522e-14
5.79055e-15
3.07631e-15
2.31279e-15
1.64207e-15
1.08979e-15
1.34591e-15
1.50351e-14
2.42656e-13
3.58166e-10
7.4314e-11
1.31342e-11
1.97094e-12
2.62838e-13
4.996e-14
2.96007e-14
2.55042e-14
2.07473e-14
1.53352e-14
1.04264e-14
7.82568e-15
1.53099e-14
1.84861e-13
4.12854e-10
8.15018e-11
1.37124e-11
2.01821e-12
3.65808e-13
2.07257e-13
2.07662e-13
1.94163e-13
1.64263e-13
1.27172e-13
9.15427e-14
6.81487e-14
5.38616e-14
1.62353e-13
4.53181e-10
8.57584e-11
1.40847e-11
2.41682e-12
1.09747e-12
1.19696e-12
1.32753e-12
1.28164e-12
1.12388e-12
9.09777e-13
6.91885e-13
5.31423e-13
3.83724e-13
4.00571e-13
4.78073e-10
8.84132e-11
1.56289e-11
4.98407e-12
5.15785e-12
6.54592e-12
7.44425e-12
7.37063e-12
6.6799e-12
5.63142e-12
4.49185e-12
3.55402e-12
2.60405e-12
2.21138e-12
5.12064e-10
1.01142e-10
2.46069e-11
1.78661e-11
2.43323e-11
3.17941e-11
3.6604e-11
3.71253e-11
3.47419e-11
3.04302e-11
2.53166e-11
2.06147e-11
1.55471e-11
1.273e-11
6.84962e-10
1.68227e-10
6.43476e-11
7.25125e-11
1.04429e-10
1.3739e-10
1.59206e-10
1.64894e-10
1.58721e-10
1.43889e-10
1.24186e-10
1.04197e-10
8.16972e-11
6.67732e-11
5.23067e-12
1.16375e-12
3.2036e-13
1.51077e-13
1.44747e-13
1.83934e-13
2.48563e-13
3.12621e-13
3.58042e-13
3.47853e-13
2.59293e-13
1.47052e-13
6.30789e-14
6.50129e-14
7.21412e-12
1.66516e-12
3.4723e-13
6.80227e-14
1.71121e-14
1.28295e-14
1.90107e-14
2.77882e-14
3.64292e-14
4.00045e-14
3.27217e-14
1.95345e-14
1.07134e-14
5.30412e-14
1.3468e-11
3.28962e-12
7.15062e-13
1.37885e-13
2.33327e-14
3.88118e-15
1.55061e-15
2.00152e-15
2.92789e-15
3.59624e-15
3.21258e-15
2.13978e-15
4.87867e-15
5.80471e-14
2.12514e-11
5.35648e-12
1.19048e-12
2.30442e-13
3.80899e-14
5.36569e-15
7.38615e-16
2.56836e-16
2.82974e-16
3.45823e-16
3.3873e-16
3.86336e-16
3.69212e-15
5.37882e-14
2.89965e-11
7.2303e-12
1.57668e-12
2.97172e-13
4.74839e-14
6.39096e-15
7.76024e-16
1.60984e-16
1.12981e-16
1.14786e-16
1.17462e-16
2.22908e-16
2.99731e-15
4.70045e-14
3.53191e-11
8.40043e-12
1.74023e-12
3.10978e-13
4.71117e-14
6.02118e-15
7.04147e-16
1.49585e-16
1.04652e-16
1.01745e-16
1.02939e-16
1.79224e-16
2.27746e-15
3.84659e-14
4.17256e-11
9.33508e-12
1.81157e-12
3.02277e-13
4.27655e-14
5.13835e-15
6.0596e-16
1.61329e-16
1.20659e-16
1.11523e-16
1.07377e-16
1.61239e-16
1.76646e-15
3.12472e-14
4.84184e-11
1.01582e-11
1.84338e-12
2.86729e-13
3.80556e-14
4.55612e-15
8.08293e-16
4.22464e-16
3.24672e-16
2.4675e-16
1.85946e-16
1.91662e-16
1.33074e-15
2.37852e-14
5.42158e-11
1.07391e-11
1.83342e-12
2.68154e-13
3.50749e-14
6.32774e-15
3.46672e-15
2.87853e-15
2.27345e-15
1.62441e-15
1.06956e-15
7.60858e-16
1.3399e-15
1.79361e-14
5.94534e-11
1.11898e-11
1.81786e-12
2.60271e-13
4.57354e-14
2.49086e-14
2.41778e-14
2.19425e-14
1.78985e-14
1.32014e-14
8.97203e-15
6.23601e-15
4.59211e-15
1.46696e-14
6.18925e-11
1.11549e-11
1.76686e-12
2.96305e-13
1.35725e-13
1.47501e-13
1.59755e-13
1.49668e-13
1.26235e-13
9.70521e-14
6.93965e-14
4.97711e-14
3.35692e-14
3.25651e-14
6.13853e-11
1.08102e-11
1.85112e-12
6.12415e-13
6.63218e-13
8.40845e-13
9.35069e-13
8.97377e-13
7.80322e-13
6.2345e-13
4.66512e-13
3.44589e-13
2.35864e-13
1.83406e-13
6.09088e-11
1.14215e-11
2.83299e-12
2.32135e-12
3.28157e-12
4.28528e-12
4.82884e-12
4.74013e-12
4.2457e-12
3.51696e-12
2.73781e-12
2.07686e-12
1.45894e-12
1.10269e-12
7.46192e-11
1.76104e-11
7.71627e-12
9.97519e-12
1.48299e-11
1.95361e-11
2.2175e-11
2.21808e-11
2.03732e-11
1.74247e-11
1.40316e-11
1.09314e-11
7.94968e-12
6.02153e-12
5.55019e-13
1.24594e-13
3.51745e-14
1.91436e-14
2.1469e-14
2.94601e-14
4.12593e-14
5.33238e-14
6.19352e-14
6.09722e-14
4.61705e-14
2.65299e-14
1.13514e-14
6.56258e-15
9.60917e-13
2.18397e-13
4.47973e-14
8.79264e-15
2.48187e-15
2.20973e-15
3.37588e-15
4.97469e-15
6.51045e-15
7.15894e-15
5.91524e-15
3.58508e-15
1.67345e-15
3.88974e-15
1.85928e-12
4.43367e-13
9.37403e-14
1.7693e-14
3.01479e-15
5.97371e-16
3.44137e-16
4.51642e-16
6.2187e-16
7.41231e-16
6.70198e-16
4.59217e-16
4.88406e-16
4.2774e-15
3.01853e-12
7.38316e-13
1.58535e-13
2.98192e-14
4.88286e-15
7.5532e-16
1.82444e-16
1.2609e-16
1.34027e-16
1.46277e-16
1.44644e-16
1.35591e-16
3.48577e-16
4.20276e-15
4.15028e-12
9.97991e-13
2.09539e-13
3.82697e-14
6.03328e-15
8.76076e-16
1.83378e-16
1.08035e-16
1.02256e-16
1.02727e-16
1.02888e-16
1.08108e-16
3.06071e-16
3.91873e-15
4.9883e-12
1.14063e-12
2.27519e-13
3.94421e-14
5.90522e-15
8.19827e-16
1.72889e-16
1.06136e-16
1.00595e-16
1.0021e-16
1.00224e-16
1.0484e-16
2.61861e-16
3.40285e-15
5.68991e-12
1.22047e-12
2.28241e-13
3.70221e-14
5.19835e-15
6.9263e-16
1.58278e-16
1.06672e-16
1.01953e-16
1.00984e-16
1.00523e-16
1.03921e-16
2.28534e-16
2.90564e-15
6.30955e-12
1.26649e-12
2.21829e-13
3.36215e-14
4.44881e-15
5.99212e-16
1.73988e-16
1.30292e-16
1.19623e-16
1.11892e-16
1.06412e-16
1.0617e-16
1.97988e-16
2.30948e-15
6.75274e-12
1.27724e-12
2.10563e-13
3.00384e-14
3.92422e-15
7.59585e-16
4.3904e-16
3.68262e-16
3.00508e-16
2.31981e-16
1.77408e-16
1.47292e-16
1.96646e-16
1.77886e-15
7.03084e-12
1.2634e-12
1.98376e-13
2.77492e-14
4.91326e-15
2.72115e-15
2.58174e-15
2.28129e-15
1.81069e-15
1.29676e-15
8.64015e-16
5.89877e-16
4.37573e-16
1.4007e-15
6.94358e-12
1.19555e-12
1.834e-13
3.06532e-14
1.48324e-14
1.61709e-14
1.70723e-14
1.55032e-14
1.2592e-14
9.22966e-15
6.26484e-15
4.23402e-15
2.71191e-15
2.55141e-15
6.50023e-12
1.09578e-12
1.84247e-13
6.60247e-14
7.55378e-14
9.51615e-14
1.03109e-13
9.5739e-14
7.9907e-14
6.0626e-14
4.28058e-14
2.96365e-14
1.90655e-14
1.37528e-14
6.01725e-12
1.08489e-12
2.84815e-13
2.68299e-13
3.90016e-13
5.0497e-13
5.54388e-13
5.25621e-13
4.50695e-13
3.53693e-13
2.59015e-13
1.8374e-13
1.20879e-13
8.47885e-14
6.89467e-12
1.60269e-12
8.38895e-13
1.21533e-12
1.84296e-12
2.40836e-12
2.66313e-12
2.56734e-12
2.25151e-12
1.82012e-12
1.37478e-12
9.98786e-13
6.77806e-13
4.76885e-13
5.67082e-14
1.25841e-14
3.55578e-15
2.21356e-15
2.80648e-15
4.09804e-15
5.93518e-15
7.88648e-15
9.33213e-15
9.33754e-15
7.20083e-15
4.22839e-15
1.87435e-15
8.55985e-16
1.14667e-13
2.55386e-14
5.17309e-15
1.07147e-15
3.86025e-16
3.91085e-16
5.75602e-16
8.26236e-16
1.06756e-15
1.17514e-15
9.92764e-16
6.38814e-16
3.3321e-16
3.62995e-16
2.27959e-13
5.28099e-14
1.08632e-14
2.05914e-15
4.17101e-16
1.56834e-16
1.34588e-16
1.53585e-16
1.80547e-16
1.99406e-16
1.88491e-16
1.5521e-16
1.3435e-16
3.67591e-16
3.77335e-13
8.90299e-14
1.84427e-14
3.41832e-15
6.18159e-16
1.69673e-16
1.09133e-16
1.03735e-16
1.05293e-16
1.07212e-16
1.06872e-16
1.04713e-16
1.14246e-16
3.79053e-16
5.17296e-13
1.19566e-13
2.41739e-14
4.32957e-15
7.37663e-16
1.81466e-16
1.08674e-16
1.0082e-16
1.00225e-16
1.00287e-16
1.00261e-16
1.0044e-16
1.12065e-16
3.78443e-16
6.09085e-13
1.33811e-13
2.57387e-14
4.38395e-15
7.13413e-16
1.73987e-16
1.07404e-16
1.00547e-16
9.99386e-17
9.98624e-17
9.9818e-17
1.00066e-16
1.10428e-16
3.5815e-16
6.68307e-13
1.37739e-13
2.48987e-14
3.98581e-15
6.20862e-16
1.58561e-16
1.05669e-16
1.00535e-16
1.00027e-16
9.98975e-17
9.9812e-17
9.99904e-17
1.0898e-16
3.33375e-16
7.05625e-13
1.36073e-13
2.30931e-14
3.47243e-15
5.24217e-16
1.46657e-16
1.06668e-16
1.02501e-16
1.01463e-16
1.00743e-16
1.00243e-16
1.00146e-16
1.07293e-16
2.9401e-16
7.18373e-13
1.30405e-13
2.08562e-14
2.96698e-15
4.54736e-16
1.59495e-16
1.29804e-16
1.22459e-16
1.15775e-16
1.09598e-16
1.05111e-16
1.02745e-16
1.07104e-16
2.53053e-16
7.07544e-13
1.22037e-13
1.86201e-14
2.6146e-15
5.37569e-16
3.4448e-16