/*--------------------------------*- C++ -*----------------------------------*\
| =========                 |                                                 |
| \\      /  F ield         | OpenFOAM: The Open Source CFD Toolbox           |
|  \\    /   O peration     | Version:  v2106                                 |
|   \\  /    A nd           | Website:  www.openfoam.com                      |
|    \\/     M anipulation  |                                                 |
\*---------------------------------------------------------------------------*/
FoamFile
{
    version     2.0;
    format      ascii;
    arch        "LSB;label=32;scalar=64";
    class       volVectorField;
    location    "0.000155";
    object      U;
}
// * * * * * * * * * * * * * * * * * * * * * * * * * * * * * * * * * * * * * //

dimensions      [0 1 -1 0 0 0 0];

internalField   nonuniform List<vector> 
18109
(
(0.283924 -9.68948 -47.6157)
(-3.01082 -6.76268 -46.8943)
(-4.71246 -2.96727 -45.0688)
(-6.80754 0.0954684 -43.807)
(-8.25378 2.46126 -42.4299)
(-9.24748 4.45201 -41.4443)
(-9.74192 6.12996 -40.6664)
(3.32222 -9.66731 -47.1509)
(-0.417648 -6.85553 -46.4644)
(-2.94255 -3.53245 -45.0285)
(-5.24822 -0.919299 -44.0162)
(-6.83706 1.08864 -42.9062)
(-8.04681 2.67757 -42.1064)
(-8.78026 4.00079 -41.3627)
(5.6775 -8.68115 -46.3648)
(1.68558 -6.33975 -45.8532)
(-1.29529 -3.61717 -44.9198)
(-3.73386 -1.62108 -44.1822)
(-5.52523 -0.117187 -43.3706)
(-6.93392 1.02554 -42.6703)
(-7.88725 2.03309 -42.025)
(7.109 -7.34611 -45.7544)
(3.11344 -5.55708 -45.5287)
(-0.00230744 -3.64477 -44.9167)
(-2.51113 -2.33919 -44.3674)
(-4.4268 -1.28696 -43.7405)
(-5.98057 -0.550014 -43.1009)
(-7.13975 0.142494 -42.5102)
(7.55472 -5.91834 -45.4411)
(3.84493 -4.87549 -45.3446)
(0.865961 -3.70875 -44.99)
(-1.5914 -3.01439 -44.5473)
(-3.5827 -2.39284 -44.0501)
(-5.24193 -2.02117 -43.4339)
(-6.59888 -1.61988 -42.8856)
(7.58778 -4.79273 -45.3342)
(4.17894 -4.48729 -45.2695)
(1.33841 -3.93961 -45.0698)
(-1.07011 -3.76841 -44.7054)
(-3.09477 -3.5131 -44.2614)
(-4.81021 -3.43255 -43.6641)
(-6.30038 -3.26511 -43.1365)
(7.27034 -3.97169 -45.3293)
(4.14887 -4.25988 -45.2534)
(1.43241 -4.33039 -45.1546)
(-0.901322 -4.56018 -44.7751)
(-2.94804 -4.6285 -44.413)
(-4.67867 -4.7969 -43.8192)
(-6.24204 -4.81509 -43.3266)
(6.583 -3.66596 -45.238)
(3.71025 -4.30739 -45.3)
(1.12625 -4.79822 -45.1661)
(-1.08668 -5.39156 -44.8089)
(-3.09099 -5.75269 -44.4639)
(-4.77053 -6.13811 -43.8593)
(-6.32904 -6.3069 -43.3648)
(2.81704 -8.20821 -40.8061)
(-0.153239 -5.45023 -40.3603)
(-1.99034 -2.33472 -38.8453)
(-4.0691 0.0490811 -37.8766)
(-5.65709 1.84913 -36.7609)
(-6.8018 3.43463 -35.9529)
(-7.52424 4.81316 -35.25)
(-8.0397 5.97909 -34.6657)
(-8.19224 6.86818 -33.9626)
(-7.98746 7.34801 -33.2473)
(-7.25891 7.52465 -32.8915)
(-6.24922 7.26573 -32.8583)
(-5.51999 6.42236 -33.0155)
(-4.75933 5.87439 -33.2527)
(5.07959 -7.94175 -40.284)
(1.70579 -5.58713 -39.8702)
(-0.703237 -2.87695 -38.766)
(-2.88367 -0.825034 -38.0143)
(-4.51115 0.699635 -37.1169)
(-5.84149 1.90434 -36.4509)
(-6.76028 2.99213 -35.7858)
(-7.43416 3.86007 -35.1545)
(-7.74907 4.50136 -34.5927)
(-7.93386 4.72748 -34.072)
(-7.79418 4.55241 -33.6097)
(-7.37963 4.077 -33.3267)
(-7.09518 3.37308 -33.22)
(-7.04073 2.93936 -33.2024)
(6.80079 -7.1384 -39.566)
(3.24236 -5.22118 -39.3583)
(0.515959 -3.05086 -38.6722)
(-1.74487 -1.52174 -38.1584)
(-3.48751 -0.392686 -37.4834)
(-4.93766 0.470499 -36.8953)
(-6.02451 1.30258 -36.3195)
(-6.89152 1.89952 -35.7419)
(-7.47171 2.31497 -35.199)
(-7.88509 2.38562 -34.6239)
(-8.17402 2.04064 -34.0615)
(-8.33562 1.42652 -33.523)
(-8.44086 0.749025 -33.1089)
(-8.68117 0.334366 -32.8128)
(7.6951 -6.03197 -39.049)
(4.21511 -4.6758 -39.0786)
(1.45581 -3.19206 -38.6384)
(-0.823386 -2.24488 -38.2933)
(-2.63366 -1.46818 -37.7871)
(-4.1757 -0.917827 -37.2513)
(-5.40852 -0.337406 -36.7183)
(-6.43168 0.0453967 -36.1468)
(-7.26401 0.257542 -35.5961)
(-7.91501 0.239111 -34.971)
(-8.49306 -0.146974 -34.3488)
(-9.03705 -0.795258 -33.7477)
(-9.48862 -1.50107 -33.1429)
(-10.0798 -1.99839 -32.6946)
(7.85993 -5.00249 -38.8511)
(4.67104 -4.3193 -38.9188)
(2.06982 -3.43618 -38.7128)
(-0.15186 -2.98424 -38.4235)
(-2.0069 -2.52706 -38.0298)
(-3.61468 -2.24939 -37.5131)
(-4.98441 -1.90031 -37.0204)
(-6.15431 -1.6885 -36.4467)
(-7.18228 -1.62676 -35.8806)
(-8.04649 -1.70485 -35.2033)
(-8.85461 -2.07515 -34.5196)
(-9.65482 -2.70651 -33.8838)
(-10.3635 -3.40094 -33.1596)
(-11.2227 -4.04379 -32.6136)
(7.75386 -4.30607 -38.8162)
(4.84591 -4.23007 -38.8768)
(2.36363 -3.86005 -38.7956)
(0.205774 -3.78093 -38.5298)
(-1.66987 -3.5993 -38.1851)
(-3.30606 -3.54336 -37.6703)
(-4.7658 -3.38582 -37.1966)
(-6.03899 -3.30432 -36.5924)
(-7.22358 -3.34287 -36.0249)
(-8.27558 -3.4469 -35.324)
(-9.30432 -3.77096 -34.629)
(-10.3175 -4.3626 -33.9619)
(-11.2838 -4.98636 -33.1566)
(-12.355 -5.68566 -32.5124)
(7.35633 -3.99071 -38.8328)
(4.72966 -4.32836 -38.8732)
(2.35002 -4.38961 -38.8309)
(0.26923 -4.61586 -38.5469)
(-1.59764 -4.6791 -38.2628)
(-3.22309 -4.81131 -37.7566)
(-4.71953 -4.80552 -37.3165)
(-6.04914 -4.80748 -36.6913)
(-7.34301 -4.89306 -36.1158)
(-8.53777 -4.98775 -35.3751)
(-9.74528 -5.25233 -34.656)
(-10.9349 -5.77236 -33.9064)
(-12.1177 -6.31563 -33.0365)
(-13.3997 -7.00072 -32.3025)
(6.74215 -4.15324 -38.73)
(4.26534 -4.61294 -38.8408)
(2.00855 -4.98837 -38.7691)
(0.0542942 -5.4976 -38.5144)
(-1.74244 -5.78728 -38.2458)
(-3.30545 -6.0782 -37.7327)
(-4.78133 -6.18762 -37.2908)
(-6.1101 -6.22765 -36.6374)
(-7.44709 -6.31213 -36.0538)
(-8.71708 -6.37006 -35.3007)
(-10.0301 -6.57084 -34.5771)
(-11.3348 -6.98319 -33.7489)
(-12.7431 -7.40892 -32.876)
(-14.2715 -8.01494 -31.9963)
(5.72891 -4.32127 -38.8039)
(3.38382 -5.0013 -38.8875)
(1.39214 -5.75853 -38.7509)
(-0.367074 -6.48487 -38.54)
(-2.04482 -6.95632 -38.2409)
(-3.5201 -7.37081 -37.7351)
(-4.94444 -7.5585 -37.2916)
(-6.24256 -7.60649 -36.6321)
(-7.56833 -7.6549 -36.0193)
(-8.86041 -7.65569 -35.2552)
(-10.2116 -7.77983 -34.5079)
(-11.5637 -8.02527 -33.5835)
(-13.1799 -8.22423 -32.7267)
(-15.0161 -8.58424 -31.6794)
(4.2728 -4.81561 -39.0793)
(2.22556 -5.80641 -39.05)
(0.602215 -6.84084 -38.743)
(-0.953653 -7.6521 -38.4671)
(-2.42567 -8.22565 -38.033)
(-3.75166 -8.717 -37.5479)
(-5.06691 -8.93691 -37.0931)
(-6.28763 -8.9708 -36.4559)
(-7.55208 -8.95705 -35.8433)
(-8.82006 -8.89232 -35.11)
(-10.1629 -8.9348 -34.3693)
(-11.5451 -8.95151 -33.4066)
(-13.365 -8.77841 -32.63)
(-15.5018 -8.7014 -31.5787)
(2.20867 -5.47926 -39.5971)
(0.552737 -6.92079 -39.4743)
(-0.625513 -8.20651 -38.9414)
(-1.91987 -9.04734 -38.5468)
(-2.99928 -9.70756 -37.9322)
(-4.11674 -10.1955 -37.4806)
(-5.24249 -10.392 -36.9548)
(-6.34175 -10.3887 -36.3299)
(-7.48401 -10.2862 -35.67)
(-8.6849 -10.1415 -34.9586)
(-9.97469 -10.0602 -34.2028)
(-11.4023 -9.78282 -33.3067)
(-13.3 -9.13694 -32.5916)
(-15.6617 -8.50735 -31.7621)
(-0.368767 -6.81904 -40.2237)
(-1.72753 -8.54305 -39.8916)
(-2.46643 -9.96958 -39.0951)
(-3.21632 -10.9272 -38.4105)
(-3.75085 -11.559 -37.6762)
(-4.52692 -11.9095 -37.1771)
(-5.32463 -11.9889 -36.6164)
(-6.21351 -11.8922 -36.0645)
(-7.19197 -11.6539 -35.4649)
(-8.3157 -11.3823 -34.8178)
(-9.5971 -11.1251 -34.0703)
(-11.1662 -10.5839 -33.3121)
(-12.9738 -9.37994 -32.6884)
(-15.4274 -8.18638 -32.1447)
(-3.46256 -7.81523 -41.0578)
(-4.48656 -10.3158 -40.5018)
(-4.84684 -12.144 -39.3827)
(-4.99169 -13.3055 -38.4178)
(-4.96743 -13.8577 -37.602)
(-5.23911 -13.9931 -36.9141)
(-5.63665 -13.8618 -36.2827)
(-6.21046 -13.5842 -35.6662)
(-6.91723 -13.1154 -35.0452)
(-7.86766 -12.6267 -34.4277)
(-9.05532 -12.0793 -33.7378)
(-10.6464 -11.246 -33.2008)
(-12.2763 -9.54474 -32.832)
(-14.6537 -8.07684 -32.6257)
(-5.42335 -10.2193 -41.3864)
(-6.78441 -12.7994 -40.6796)
(-6.82437 -14.9542 -39.4237)
(-6.6876 -16.2198 -38.1266)
(-6.1822 -16.6538 -37.064)
(-5.82566 -16.5284 -36.2314)
(-5.66445 -16.0905 -35.6822)
(-5.93895 -15.5363 -35.2405)
(-6.48411 -14.8088 -34.8264)
(-7.33732 -14.06 -34.278)
(-8.48973 -13.2135 -33.6552)
(-10.0853 -12.1492 -33.1664)
(-11.6221 -10.2775 -32.9614)
(-13.6643 -8.32195 -32.9581)
(-2.15244 -9.41679 -47.8456)
(-3.30204 -11.0616 -47.9678)
(-4.9128 -10.8042 -48.924)
(-7.33603 -10.9052 -50.5202)
(-11.1072 -9.32967 -52.0724)
(-16.4196 -4.74663 -52.9998)
(1.16776 -8.0947 -41.0156)
(0.476235 -9.50763 -41.2148)
(-0.444882 -9.87858 -42.2786)
(-1.78501 -10.5247 -43.4635)
(-3.94701 -9.86578 -44.7599)
(-8.28797 -8.19012 -45.5211)
(-1.48363 -5.00362 -40.7651)
(-2.48726 -6.16366 -40.8891)
(-4.05429 -6.13613 -41.6806)
(-6.12881 -6.92003 -42.3046)
(-9.31771 -6.23925 -43.0401)
(-14.8723 -5.09268 -43.8078)
(-3.16874 -1.97195 -38.8964)
(-4.65503 -2.86898 -38.8629)
(-6.77351 -2.51628 -39.3706)
(-9.58095 -3.00403 -39.8334)
(-13.455 -2.01641 -40.4429)
(-19.5832 -0.649092 -41.3266)
(-5.23829 0.766675 -37.7736)
(-7.03551 0.322735 -37.5029)
(-9.39147 1.09154 -37.682)
(-12.5963 1.01516 -37.5796)
(-16.8002 2.30387 -37.7015)
(-23.3989 3.53345 -37.9306)
(-6.76058 3.1553 -36.467)
(-8.73273 3.46038 -35.9729)
(-11.0741 4.72295 -35.7749)
(-14.3444 5.34449 -35.193)
(-18.6233 7.00141 -34.73)
(-25.2328 8.56889 -34.1446)
(-7.82131 5.1789 -35.3686)
(-9.76417 6.32859 -34.499)
(-12.0605 8.13363 -33.7939)
(-15.3501 9.53483 -32.7089)
(-19.5029 11.4355 -31.3423)
(-25.6744 13.6236 -29.9587)
(-8.65333 6.79359 -34.4315)
(-10.3175 8.91756 -33.3256)
(-12.2851 11.3558 -32.0856)
(-15.2056 13.5404 -30.5554)
(-18.8602 15.9173 -28.3046)
(-24.8827 18.7938 -26.511)
(-8.83412 8.24125 -33.4599)
(-9.90808 11.1049 -32.3267)
(-11.6201 14.042 -30.646)
(-14.2298 16.98 -28.7617)
(-17.2517 20.0926 -26.1124)
(-22.7363 23.5424 -24.2645)
(-8.76941 9.42814 -32.5852)
(-9.21192 12.813 -31.6301)
(-10.452 16.1427 -29.8585)
(-12.2897 19.7089 -27.8727)
(-14.5859 23.525 -25.252)
(-19.3146 27.9194 -23.235)
(-8.24141 10.3055 -32.0975)
(-8.06633 13.9154 -31.3579)
(-8.7814 17.5437 -29.6359)
(-9.76063 21.5555 -27.7466)
(-11.1448 26.0088 -25.5437)
(-14.3886 30.6805 -22.7348)
(-7.4403 10.8438 -32.2492)
(-6.70965 14.2307 -31.7173)
(-6.67186 17.7629 -30.1116)
(-6.68954 21.8914 -28.6671)
(-7.04945 26.3042 -26.9854)
(-8.44404 30.4553 -23.938)
(-6.29194 10.5989 -32.6154)
(-5.18199 13.4674 -32.2051)
(-4.53073 16.6247 -30.9849)
(-3.80346 20.2738 -30.2741)
(-3.12232 23.8408 -28.8833)
(-3.6438 27.0728 -26.9579)
(-5.48217 9.37718 -33.1378)
(-4.12984 11.493 -32.8733)
(-2.8669 14.0671 -32.123)
(-1.4396 16.889 -31.6431)
(-0.285216 19.0106 -30.7314)
(-0.672513 20.5203 -30.0103)
(-4.25162 8.50242 -33.7731)
(-2.65626 9.36794 -33.5308)
(-1.22804 10.9879 -33.1859)
(0.0361294 12.2858 -32.8682)
(0.704939 12.8609 -32.6933)
(0.619113 13.0075 -32.6146)
(-4.35836 5.37557 -33.3528)
(-3.47032 5.90232 -33.4415)
(-2.59435 6.82443 -33.7765)
(-1.35791 7.06754 -34.0795)
(-0.501176 6.77873 -34.5517)
(-0.116503 5.36278 -34.6243)
(-6.72351 2.73908 -33.3031)
(-5.99951 2.50681 -33.3457)
(-5.24148 2.60202 -33.65)
(-4.16033 2.03024 -33.752)
(-3.19913 0.838855 -34.1893)
(-2.78214 -1.84245 -34.5368)
(-8.38938 0.00868987 -32.617)
(-7.79025 -0.674071 -32.4579)
(-7.13271 -1.46664 -32.7415)
(-6.44627 -2.77951 -32.7299)
(-5.88028 -4.8732 -33.2072)
(-5.63964 -8.57557 -33.5527)
(-10.1455 -2.54335 -32.3075)
(-9.79873 -3.58228 -31.9668)
(-9.63007 -5.03344 -31.8069)
(-9.13091 -6.94883 -31.4362)
(-9.04554 -9.80223 -31.5634)
(-8.88425 -14.3753 -31.5441)
(-11.7421 -4.75247 -31.7941)
(-11.8226 -6.13123 -31.1753)
(-12.3439 -7.81428 -30.5378)
(-12.4758 -10.127 -29.8578)
(-12.8795 -13.426 -29.3905)
(-13.2002 -18.5231 -28.8269)
(-13.2836 -6.44293 -31.4115)
(-14.078 -7.952 -30.3963)
(-15.2581 -9.7329 -29.2673)
(-16.1542 -12.2666 -28.0765)
(-17.0212 -15.8208 -26.7641)
(-17.8209 -21.2591 -25.3911)
(-14.6481 -7.72177 -30.9498)
(-16.2608 -8.98335 -29.6102)
(-18.0273 -10.6799 -27.9919)
(-19.7112 -13.301 -26.3349)
(-21.3109 -16.9484 -24.314)
(-22.8997 -22.6939 -22.3884)
(-15.989 -8.53299 -30.527)
(-18.319 -9.38706 -29.1287)
(-20.6653 -10.8277 -27.2078)
(-23.1464 -13.2187 -25.271)
(-25.6282 -16.5956 -22.8518)
(-28.0088 -22.2993 -20.7241)
(-17.2532 -8.88742 -30.3152)
(-20.0461 -9.3213 -28.9785)
(-22.8284 -10.4355 -26.9748)
(-25.9787 -12.3019 -24.9934)
(-29.2577 -15.2098 -22.5769)
(-32.6355 -20.4996 -20.0294)
(-18.1518 -8.85063 -30.498)
(-21.1148 -8.93084 -29.2414)
(-24.1113 -9.47786 -27.3122)
(-27.648 -10.509 -25.561)
(-31.5134 -12.6172 -23.3738)
(-35.3381 -16.7172 -20.1369)
(-18.4269 -8.50404 -31.0531)
(-21.2378 -8.20248 -29.816)
(-24.1859 -8.15212 -28.1393)
(-27.7461 -8.3437 -26.9246)
(-31.2631 -9.35217 -25.0269)
(-34.7674 -11.8463 -21.9783)
(-18.068 -8.01602 -31.7202)
(-20.3102 -7.41502 -30.553)
(-22.8358 -6.96064 -29.3821)
(-25.6679 -6.54828 -28.7191)
(-28.3427 -6.60008 -27.2329)
(-30.7912 -8.13676 -25.2016)
(-16.9536 -8.01427 -32.3561)
(-18.2888 -7.05796 -31.4487)
(-20.1397 -6.28824 -30.8634)
(-21.7505 -5.19152 -30.4166)
(-23.0745 -4.89717 -29.6554)
(-23.9043 -5.98837 -28.9347)
(-15.5577 -7.36496 -32.9976)
(-15.6834 -6.46878 -32.4819)
(-16.4466 -5.78569 -32.2916)
(-16.6363 -5.14598 -32.1416)
(-16.4661 -4.88064 -32.2151)
(-15.4734 -5.11089 -32.3871)
(-12.8514 -8.34638 -32.9582)
(-12.4366 -7.68691 -32.9406)
(-12.1801 -7.26746 -33.4513)
(-11.4554 -6.47057 -33.7214)
(-9.89198 -6.37959 -34.1745)
(-6.68203 -6.83928 -34.7252)
(-10.9802 -10.4959 -33.0487)
(-10.0606 -9.97712 -33.0825)
(-8.67952 -9.95916 -33.4496)
(-6.81742 -9.10429 -33.5623)
(-3.82178 -9.24043 -34.0605)
(1.26986 -9.50069 -34.8018)
(-9.33806 -12.5295 -33.1514)
(-7.76653 -12.2742 -33.0746)
(-5.62852 -12.6383 -33.1932)
(-2.68676 -12.2368 -33.2678)
(1.65899 -12.7088 -33.597)
(8.4645 -13.1972 -34.0875)
(-7.66665 -14.1384 -33.3713)
(-5.7381 -14.4153 -33.1067)
(-3.01161 -15.3179 -32.8084)
(0.885635 -15.6445 -32.5359)
(6.37369 -16.5989 -32.3643)
(14.5707 -17.4635 -32.2903)
(-6.46557 -15.4617 -33.5919)
(-4.40317 -16.6648 -32.994)
(-1.47499 -18.3701 -32.3345)
(2.93096 -19.7943 -31.5896)
(9.07884 -21.6601 -30.8207)
(18.1915 -23.3624 -29.8899)
(-5.74304 -16.6492 -33.8537)
(-4.03159 -18.9589 -33.049)
(-1.19529 -21.5511 -32.0158)
(3.32644 -24.1274 -30.7231)
(10.0156 -26.898 -29.1845)
(19.8547 -29.6386 -26.9837)
(-5.63026 -17.8515 -34.052)
(-4.51684 -21.0389 -33.2491)
(-1.8794 -24.4725 -32.0339)
(2.43285 -28.1358 -30.4154)
(9.0111 -32.002 -28.2807)
(18.9381 -36.1048 -24.8733)
(-5.90851 -18.9221 -34.637)
(-5.42441 -22.6888 -34.006)
(-3.29163 -26.745 -32.7432)
(0.339016 -31.3733 -30.9657)
(6.57852 -36.1087 -28.4849)
(16.9136 -40.1887 -24.02)
(-6.45909 -19.7487 -35.5028)
(-6.68242 -23.698 -35.0035)
(-5.29402 -28.1038 -33.8819)
(-2.825 -33.0936 -32.1852)
(2.72569 -37.8998 -29.7577)
(13.2739 -41.23 -25.3816)
(-7.0084 -20.0724 -36.7225)
(-8.01142 -23.6335 -36.3493)
(-7.48649 -27.7043 -35.6322)
(-6.21808 -32.151 -34.4891)
(-1.41471 -35.9688 -32.8331)
(8.54936 -37.8401 -28.8616)
(-7.53464 -19.5048 -38.0788)
(-8.94075 -22.1258 -37.7919)
(-9.03151 -25.168 -37.693)
(-8.56039 -28.2064 -37.2757)
(-4.6253 -30.167 -36.3761)
(4.02329 -30.0146 -32.7491)
(-7.55007 -17.7637 -39.4875)
(-9.04812 -19.0085 -39.3769)
(-9.73125 -20.5528 -39.8143)
(-9.32633 -21.7413 -40.0667)
(-6.60054 -21.7885 -39.8957)
(0.904895 -20.33 -38.0253)
(-7.82054 -14.6994 -40.9761)
(-9.05744 -14.5714 -41.2289)
(-9.7174 -14.6603 -41.8802)
(-9.57046 -14.1212 -42.5482)
(-7.75809 -12.5228 -42.7111)
(-1.41018 -9.8205 -42.2476)
(-7.00021 -10.6285 -41.9918)
(-7.35073 -9.59183 -42.1578)
(-7.71678 -8.62381 -43.1181)
(-7.1943 -6.90013 -44.0893)
(-4.97393 -3.70765 -44.8085)
(0.747975 0.782015 -45.4432)
(11.6073 -8.41376 -46.1369)
(15.5335 -10.6006 -46.8406)
(19.7474 -11.1186 -47.0119)
(23.4554 -9.39334 -46.6921)
(25.1729 -3.16004 -45.2716)
(23.5554 9.5093 -39.2949)
(9.624 -9.84172 -47.0283)
(11.8183 -11.8601 -47.9996)
(13.9795 -12.5412 -48.7247)
(15.4752 -11.4032 -49.2955)
(15.1464 -7.21925 -48.9093)
(12.7455 2.97745 -44.9608)
(6.22272 -10.8276 -48.386)
(6.65938 -12.7488 -49.309)
(6.9628 -13.6242 -50.2208)
(6.80048 -13.072 -51.0539)
(5.08326 -10.2515 -51.2189)
(2.30213 -1.8036 -49.8301)
(1.66785 -10.8769 -49.3817)
(0.827832 -11.7455 -49.7859)
(0.186751 -12.4978 -50.9253)
(-1.19788 -12.0722 -52.2189)
(-3.80123 -9.54906 -53.0732)
(-7.65223 -3.19219 -53.207)
(-4.83879 -7.72532 -41.5964)
(-6.04477 -5.90457 -41.7804)
(-5.15422 -3.80259 -42.6788)
(-5.01355 -0.674228 -44.3028)
(-3.64543 4.31438 -45.5577)
(1.33348 10.7215 -46.7441)
(-2.08865 -5.86515 -41.5347)
(-3.01233 -3.97797 -41.7382)
(-1.69789 -1.24325 -42.4577)
(-1.28462 3.30243 -43.3035)
(0.249401 9.6041 -44.5865)
(4.34561 18.1622 -46.0131)
(1.19339 -5.21878 -40.4819)
(0.660662 -2.63876 -40.6045)
(2.12934 1.04483 -41.2125)
(2.84869 6.62677 -41.7565)
(5.0465 13.8222 -42.952)
(8.03476 24.0373 -43.6535)
(4.1422 -4.16161 -39.7083)
(4.39074 -1.22702 -39.6733)
(6.23319 2.76244 -40.0285)
(7.42222 8.91368 -40.0996)
(10.2916 16.7565 -40.5292)
(13.1792 27.7031 -40.3796)
(6.56352 -3.52562 -39.0177)
(7.86871 -0.422029 -38.8569)
(10.3853 3.72447 -38.7552)
(12.5475 9.85137 -38.2589)
(16.1361 17.6454 -37.7758)
(19.5252 28.7102 -36.7427)
(8.32268 -2.96466 -38.6061)
(10.7975 -0.0808778 -38.1738)
(14.283 3.44731 -37.5278)
(17.5374 9.14312 -36.4635)
(21.8441 16.8814 -34.9227)
(26.1769 28.2238 -32.7266)
(9.62018 -2.95928 -38.3449)
(13.1999 -0.929904 -37.6268)
(17.5637 2.20295 -36.7704)
(22.0203 7.30309 -35.263)
(27.2319 14.3362 -33.0389)
(32.9565 25.1177 -29.9057)
(10.5895 -3.48938 -38.0567)
(14.9296 -2.5005 -37.5392)
(19.8776 -0.105449 -36.6327)
(25.488 3.80094 -34.8985)
(31.4368 9.96339 -32.2941)
(37.4404 20.6505 -27.7297)
(11.326 -4.42449 -38.0441)
(16.0271 -4.49395 -37.8819)
(21.4233 -3.02509 -37.1165)
(27.6017 -0.655166 -35.4342)
(33.7279 4.38994 -32.9167)
(38.893 14.7982 -28.2795)
(11.7329 -5.53672 -38.5081)
(16.1773 -6.63433 -38.728)
(21.3209 -6.30908 -38.2136)
(27.0496 -5.42229 -37.0661)
(32.265 -1.47986 -35.2707)
(35.8302 8.01297 -30.9664)
(11.635 -6.75978 -39.16)
(15.2514 -8.57305 -39.6669)
(19.4812 -9.27553 -39.5353)
(23.8487 -9.46014 -39.2967)
(27.3732 -6.50267 -38.3649)
(28.6367 1.60691 -34.6913)
(10.4416 -7.85979 -39.9664)
(12.8194 -9.92412 -40.7236)
(15.5679 -11.1645 -41.0656)
(18.0008 -11.5413 -41.5252)
(19.6427 -9.52375 -41.3481)
(19.8694 -3.59364 -39.3051)
(8.08168 -8.67748 -40.994)
(9.02655 -10.6534 -41.8324)
(10.2424 -12.0063 -42.5586)
(10.8187 -12.4324 -43.0344)
(11.1328 -11.5646 -43.3263)
(10.2189 -7.2541 -42.8025)
(4.76979 -9.0995 -42.0337)
(4.40683 -10.2685 -42.5589)
(4.49668 -11.257 -43.3862)
(3.85494 -11.7835 -44.043)
(3.07653 -11.1205 -44.8702)
(0.723303 -8.17397 -45.4694)
(-22.37 4.34302 -46.1641)
(-49.3062 27.5813 -45.8458)
(-83.0771 55.9132 -40.2918)
(-123.018 86.0519 -17.4668)
(-164.014 111.259 24.5273)
(-29.8751 4.88048 -45.547)
(-58.4675 21.6936 -45.6834)
(-93.5661 45.2522 -39.6275)
(-135.053 69.4406 -13.8852)
(-175.76 90.9865 30.7163)
(-35.7587 6.77412 -42.5679)
(-64.9187 19.8241 -41.9829)
(-100.4 37.2188 -33.2299)
(-138.712 53.3313 -3.06323)
(-182.497 70.0549 30.5819)
(-39.4975 10.1768 -38.2803)
(-68.8698 19.7316 -35.8676)
(-104.805 33.2156 -21.9838)
(-147.718 40.6253 7.41809)
(-195.839 50.8914 31.4709)
(-41.0549 14.4969 -33.5674)
(-70.0902 21.2911 -27.4532)
(-107.908 31.9876 -7.99612)
(-157.55 35.1958 21.1704)
(-210.878 40.8457 40.8173)
(-41.282 17.6953 -27.3584)
(-69.2256 23.7164 -17.4595)
(-108.785 28.2643 5.33275)
(-163.405 29.8863 33.2089)
(-218.941 33.2715 50.4755)
(-40.1725 22.717 -21.5641)
(-66.9507 27.9999 -7.4676)
(-108.324 26.6033 16.897)
(-163.768 26.7683 44.132)
(-215.893 23.7688 61.9866)
(-36.5419 28.424 -16.6235)
(-63.5902 31.5634 0.485375)
(-106.817 24.8151 25.0445)
(-164.692 19.2517 50.9039)
(-218.492 8.11911 65.8543)
(-252.58 8.76418 65.6719)
(-31.6535 33.2766 -13.031)
(-59.6668 34.4354 4.59542)
(-105.384 24.4605 29.819)
(-166.442 13.4043 57.5687)
(-224.113 -2.4766 77.4947)
(-264.189 -7.25227 81.1114)
(-25.2674 35.7759 -12.1569)
(-52.0721 33.6282 5.00612)
(-97.4167 20.0547 29.6765)
(-158.05 2.03426 58.7505)
(-217.612 -17.2326 84.6056)
(-261.613 -25.5094 97.896)
(-18.2247 34.3718 -15.5588)
(-42.7233 27.2067 0.458647)
(-87.0459 10.5663 22.3459)
(-147.092 -15.4563 49.8373)
(-206.508 -39.5619 82.3775)
(-248.813 -50.8056 108.494)
(-272.092 -42.711 109.403)
(-12.4334 27.7265 -21.3679)
(-33.4871 16.6312 -9.20321)
(-74.4322 -2.44318 6.66006)
(-128.815 -33.0999 27.9856)
(-181.799 -60.7801 62.32)
(-215.219 -75.2661 103.302)
(-236.605 -75.0208 118.092)
(-245.827 -44.3961 107)
(-7.06663 18.1487 -27.1389)
(-25.3205 4.16768 -20.937)
(-60.5169 -17.8111 -12.3345)
(-105.785 -51.7838 0.781145)
(-152.621 -82.5739 30.8858)
(-176.2 -101.444 74.96)
(-174.642 -101.191 107.142)
(-181.898 -51.2498 117.26)
(-4.46978 7.44301 -32.205)
(-19.1505 -8.85788 -30.533)
(-45.9453 -33.6548 -25.9349)
(-80.7309 -71.2216 -16.7908)
(-120.919 -110.791 8.4706)
(-148.17 -146.846 47.8578)
(-166.509 -159.333 71.605)
(-151.889 -169.446 86.216)
(-4.45394 -2.79704 -35.2648)
(-16.9382 -21.7281 -36.4351)
(-38.4753 -50.1207 -34.5416)
(-65.9119 -91.8386 -24.7871)
(-101.572 -139.141 1.60238)
(-132.161 -184.926 43.264)
(-158.774 -206.95 61.5056)
(-159.779 -199.357 68.5176)
(-6.22581 -12.0494 -35.9885)
(-16.3354 -32.9012 -38.634)
(-33.5815 -63.7279 -37.0675)
(-57.0057 -105.949 -26.0213)
(-82.3133 -150.738 10.2757)
(-109.776 -193.426 49.8929)
(-143.12 -218.226 65.3678)
(-154.02 -209.244 71.0711)
(-9.01282 -20.0302 -35.0072)
(-16.3839 -42.5276 -36.9715)
(-30.0701 -74.1275 -33.323)
(-47.3256 -114.476 -17.3792)
(-63.0451 -155.346 18.1675)
(-84.458 -194.493 44.468)
(-113.319 -209.661 64.5987)
(-140.349 -193.103 77.7397)
(-11.8538 -26.7741 -32.2401)
(-16.9904 -50.135 -32.6961)
(-26.4981 -81.951 -26.6316)
(-36.9613 -121.571 -5.93002)
(-47.0786 -166.779 23.3185)
(-60.0575 -210.606 39.6176)
(-72.739 -233.209 47.4679)
(-65.9793 -218.177 50.4645)
(-15.6697 -31.5664 -28.587)
(-19.3313 -55.3461 -26.7342)
(-25.8004 -87.4917 -16.1288)
(-31.474 -128.844 8.03715)
(-37.8672 -178.539 32.4955)
(-47.2721 -226.096 44.9344)
(-57.2811 -254.437 46.0633)
(-55.9045 -249.633 42.8391)
(-19.4388 -34.6328 -23.4185)
(-20.976 -58.2435 -17.9554)
(-23.7489 -90.0692 -3.34089)
(-24.6655 -132.52 20.7455)
(-28.5567 -184.638 39.7923)
(-34.6358 -231.403 49.6063)
(-47.6942 -260.847 49.017)
(-53.9901 -258.833 47.8558)
(-24.5108 -36.2744 -17.9404)
(-26.1012 -59.2747 -7.9178)
(-23.5976 -91.9386 9.37025)
(-20.4344 -136.744 32.0189)
(-19.132 -187.788 48.2622)
(-21.0271 -228.44 57.4624)
(-34.5519 -253.973 53.9597)
(-51.6715 -256.1 56.0408)
(-31.0156 -35.3117 -13.3627)
(-32.0386 -59.3078 0.442127)
(-24.4361 -94.7895 19.8163)
(-16.0717 -142.821 41.7227)
(-5.4389 -194.05 55.6722)
(-0.936458 -235.085 58.0568)
(0.0102213 -257.533 49.1542)
(0.903679 -259.068 41.9302)
(-36.3234 -33.1447 -10.6204)
(-35.213 -59.3225 4.18515)
(-25.179 -98.4129 25.7695)
(-12.2021 -151.012 49.3132)
(4.08003 -205.186 67.0391)
(12.4311 -249.792 71.8903)
(-39.0373 -29.3375 -10.9073)
(-34.8858 -56.2798 4.26991)
(-22.0469 -98.5082 26.8633)
(-2.09202 -152.545 53.0828)
(17.4275 -206.001 76.9493)
(26.4723 -250.757 89.0691)
(-36.8219 -23.7877 -14.8409)
(-28.2091 -49.7052 -0.441448)
(-12.0559 -93.0545 19.8878)
(15.2013 -147.15 45.2729)
(38.227 -198.513 75.4275)
(48.5774 -237.267 97.1214)
(-28.8793 -18.9884 -20.5845)
(-14.897 -42.6123 -9.82169)
(6.94061 -83.9632 5.30215)
(40.803 -135.681 27.8299)
(67.8953 -185.497 60.0757)
(81.3081 -213.541 92.8041)
(-17.5451 -14.8239 -26.2645)
(0.995313 -35.686 -20.656)
(28.505 -70.1121 -11.5788)
(64.3007 -113.58 4.32184)
(95.4918 -154.232 37.5558)
(109.32 -177.234 74.6264)
(-5.3938 -12.765 -31.0247)
(16.835 -31.1128 -30.0917)
(49.0715 -57.6129 -24.0099)
(88.1783 -93.0363 -11.6231)
(127.872 -124.466 21.2627)
(6.45395 -13.6311 -33.7707)
(32.0062 -29.5893 -35.8234)
(68.0663 -50.3087 -30.6935)
(111.074 -79.5402 -15.2872)
(156.999 -105.08 21.8059)
(16.9795 -15.2591 -35.2974)
(45.5679 -28.1786 -37.3159)
(83.7106 -44.9942 -30.9475)
(127.339 -68.9929 -9.30615)
(168.651 -89.7623 33.4662)
(26.3181 -17.9681 -34.6059)
(57.3126 -27.3749 -34.5247)
(95.5783 -40.7336 -24.1748)
(136.614 -55.3915 4.8143)
(178.698 -72.6496 37.914)
(33.8568 -21.93 -31.8524)
(66.4549 -27.7854 -27.8825)
(105.284 -37.5441 -11.9316)
(148.143 -43.8359 17.2898)
(192.638 -55.7277 40.1472)
(38.815 -27.3648 -27.1511)
(72.4795 -31.8359 -17.8107)
(113.005 -36.2664 3.90721)
(159.838 -39.9036 31.6262)
(207.116 -46.8487 50.1233)
(41.0644 -33.8489 -20.6587)
(75.3255 -34.4689 -5.25906)
(117.997 -34.2525 19.6856)
(169.039 -35.3689 43.4507)
(218.191 -39.6756 58.041)
(41.3761 -40.0459 -14.8245)
(78.8433 -39.1255 3.69631)
(126.039 -35.4288 29.476)
(178.331 -32.1959 52.1393)
(221.674 -30.5994 69.8553)
(41.7751 -42.6291 -12.4946)
(83.7885 -39.2073 8.32061)
(136.641 -30.48 32.8862)
(189.503 -18.3881 56.3849)
(230.782 -9.81337 72.9594)
(40.3064 -42.0533 -13.5052)
(86.3619 -34.1754 8.606)
(144.287 -17.5991 34.909)
(200.357 1.0726 63.6767)
(243.493 11.8597 85.7856)
(36.7232 -35.8065 -17.1523)
(85.4322 -21.4402 5.24324)
(145.02 2.91348 33.5055)
(202.262 24.9215 64.2036)
(241.967 36.3092 93.7702)
(31.5312 -23.3548 -23.3563)
(80.2212 -3.63209 -3.78936)
(136.367 27.5926 25.8686)
(192.336 49.6598 57.7538)
(225.334 62.3505 94.4826)
(24.8638 -7.19321 -31.2653)
(70.3919 14.6607 -18.4231)
(117.117 50.1652 7.8402)
(169.952 74.3275 43.0174)
(201.087 89.7814 88.3152)
(18.1248 7.83348 -38.1357)
(58.7958 32.1298 -32.2151)
(96.3158 68.6111 -13.6914)
(140.1 94.3297 19.6773)
(165.609 113.785 65.2215)
(15.3209 21.1993 -43.7545)
(49.2609 48.8084 -41.6382)
(79.0171 86.7658 -28.6142)
(114.928 117.687 2.06987)
(136.344 149.031 45.0619)
(12.7736 32.0731 -46.1619)
(41.2452 62.5543 -45.6501)
(65.3712 102.19 -34.0058)
(94.3865 137.976 -1.31192)
(115.374 178.419 40.7586)
(13.7715 40.4272 -46.4098)
(35.2212 73.8879 -44.762)
(55.2366 113.866 -31.0166)
(77.1769 151.288 6.58086)
(101.31 193.679 44.7207)
(17.3111 46.4226 -43.9)
(30.7518 82.6619 -39.7509)
(48.0023 121.356 -19.9088)
(60.2031 161.539 16.1276)
(80.3137 203.117 42.4688)
(21.9837 50.6419 -39.2091)
(31.1032 88.3673 -29.5728)
(43.4977 130.126 -3.92104)
(49.1888 177.841 26.0188)
(59.8494 220.084 45.9129)
(27.6687 52.4396 -31.9994)
(34.5444 91.3336 -15.5168)
(39.717 138.809 14.1476)
(46.2939 193.087 41.4918)
(50.18 238.882 56.9121)
(33.959 52.2068 -23.4175)
(37.1 93.1404 -1.25092)
(38.6268 145.876 29.1206)
(42.7148 203.921 55.0737)
(46.3547 249.285 69.5741)
(39.4352 50.0889 -16.2424)
(40.643 94.2802 8.34154)
(38.6924 150.993 38.8107)
(38.3554 207.525 66.9679)
(37.0751 247.035 82.9368)
(41.5877 47.552 -12.6976)
(39.0779 95.1584 13.3231)
(30.7988 155.513 43.6304)
(21.704 213.402 72.2681)
(15.5236 253.203 86.0355)
(40.4201 42.8723 -13.133)
(32.7204 92.8669 13.9783)
(17.2724 156.176 45.965)
(1.6526 216.62 79.1454)
(-6.95412 260.864 99.4925)
(34.4158 36.3961 -15.9387)
(21.0142 87.7198 10.9477)
(-2.20068 151.282 42.4795)
(-21.8855 212.003 75.8432)
(-32.7904 253.007 106.912)
(23.4128 28.4328 -22.4893)
(6.51666 78.596 0.853267)
(-24.455 137.818 31.9026)
(-45.4425 198.351 65.484)
(-60.6396 234.648 105.495)
(9.91384 19.1657 -31.0172)
(-7.17923 65.2561 -15.512)
(-41.3994 114.003 10.8149)
(-63.1091 170.166 45.3407)
(-83.3115 202.311 91.4801)
(-2.62387 11.2178 -38.6012)
(-21.9683 50.3982 -30.9053)
(-55.3231 89.8358 -14.1836)
(-80.5433 137.898 15.6608)
(-105.483 166.781 61.0949)
(-13.3265 6.62198 -44.2208)
(-36.9769 37.352 -41.1443)
(-69.6982 69.8782 -32.0212)
(-102.397 107.446 -7.55542)
(-134.674 132.692 35.276)
(6.22143 -5.98689 -29.9427)
(3.53954 -3.85137 -29.7317)
(1.47551 -1.75144 -28.5872)
(-0.695908 -0.221453 -27.9169)
(-2.52549 0.881456 -27.084)
(-3.9683 1.95345 -26.4489)
(-5.09849 2.94622 -25.8666)
(-6.07818 3.86639 -25.3239)
(-6.70793 4.70579 -24.6576)
(-7.05569 5.27415 -23.9862)
(-6.94044 5.62535 -23.5295)
(-6.50375 5.65146 -23.3618)
(-6.19948 5.43527 -23.3562)
(-5.9403 5.43628 -23.4133)
(7.25797 -5.61723 -29.3255)
(4.27989 -3.96784 -29.1091)
(1.96518 -2.17398 -28.3717)
(-0.112172 -0.921848 -27.9032)
(-1.82368 -0.0215323 -27.2583)
(-3.30822 0.758778 -26.7393)
(-4.51521 1.54153 -26.2009)
(-5.50772 2.24719 -25.635)
(-6.22096 2.85964 -25.0848)
(-6.75217 3.19638 -24.5665)
(-7.11124 3.25261 -24.1146)
(-7.17083 3.12594 -23.7163)
(-7.29886 2.95649 -23.5008)
(-7.57131 3.1283 -23.3898)
(8.0637 -5.09958 -28.6599)
(5.03392 -3.7941 -28.6632)
(2.59789 -2.41138 -28.2655)
(0.53693 -1.59369 -27.9605)
(-1.15476 -0.946257 -27.4662)
(-2.65633 -0.40691 -27.0164)
(-3.9179 0.193031 -26.5487)
(-4.99953 0.683952 -26.0408)
(-5.85028 1.09185 -25.5336)
(-6.51848 1.30719 -24.9865)
(-7.10899 1.22125 -24.4454)
(-7.56763 0.983871 -23.8824)
(-7.96607 0.769947 -23.4207)
(-8.34825 0.823969 -23.163)
(8.26425 -4.34649 -28.2479)
(5.41344 -3.54215 -28.4066)
(3.08815 -2.71861 -28.159)
(1.08131 -2.32828 -27.9927)
(-0.603185 -1.9109 -27.6307)
(-2.11719 -1.58293 -27.2297)
(-3.42713 -1.16031 -26.7995)
(-4.56961 -0.839652 -26.2937)
(-5.55476 -0.611441 -25.7977)
(-6.36222 -0.489106 -25.2253)
(-7.1073 -0.611556 -24.6542)
(-7.77999 -0.904428 -24.0746)
(-8.38444 -1.18594 -23.5423)
(-8.95373 -1.33732 -23.1504)
(8.15346 -3.81689 -28.0764)
(5.55971 -3.5926 -28.2601)
(3.35149 -3.20949 -28.1721)
(1.45356 -3.1143 -28.0159)
(-0.233283 -2.89943 -27.7484)
(-1.75727 -2.75654 -27.3635)
(-3.11947 -2.49974 -26.9696)
(-4.3239 -2.31638 -26.4683)
(-5.41213 -2.222 -25.9721)
(-6.34472 -2.17479 -25.3719)
(-7.21747 -2.31533 -24.7682)
(-8.03532 -2.64216 -24.1779)
(-8.77547 -2.9837 -23.5661)
(-9.51484 -3.30043 -23.0822)
(7.74113 -3.70158 -28.0435)
(5.48418 -3.86551 -28.2113)
(3.44844 -3.80907 -28.1892)
(1.60893 -3.94615 -28.0263)
(-0.0717166 -3.90687 -27.7888)
(-1.58759 -3.92236 -27.4024)
(-2.97679 -3.81124 -27.0266)
(-4.2203 -3.73537 -26.5109)
(-5.39186 -3.73438 -26.023)
(-6.44403 -3.73702 -25.4144)
(-7.46105 -3.88073 -24.8062)
(-8.42896 -4.22999 -24.2001)
(-9.33094 -4.58548 -23.5218)
(-10.2238 -5.02913 -22.9779)
(7.24401 -4.05028 -28.0677)
(5.20068 -4.35493 -28.1438)
(3.2794 -4.50976 -28.1341)
(1.53773 -4.82963 -27.9696)
(-0.0882672 -4.95152 -27.7736)
(-1.5581 -5.09794 -27.3954)
(-2.94523 -5.10121 -27.0419)
(-4.2134 -5.09539 -26.5145)
(-5.45078 -5.14537 -26.0206)
(-6.59499 -5.16717 -25.3786)
(-7.72931 -5.30378 -24.7502)
(-8.81054 -5.6571 -24.0886)
(-9.85215 -6.01344 -23.3532)
(-10.8714 -6.54805 -22.755)
(6.59306 -4.58844 -27.912)
(4.65865 -4.96871 -28.0056)