/*--------------------------------*- C++ -*----------------------------------*\
| =========                 |                                                 |
| \\      /  F ield         | OpenFOAM: The Open Source CFD Toolbox           |
|  \\    /   O peration     | Version:  v2106                                 |
|   \\  /    A nd           | Website:  www.openfoam.com                      |
|    \\/     M anipulation  |                                                 |
\*---------------------------------------------------------------------------*/
FoamFile
{
    version     2.0;
    format      ascii;
    arch        "LSB;label=32;scalar=64";
    class       volScalarField;
    location    "0.000153";
    object      alphat;
}
// * * * * * * * * * * * * * * * * * * * * * * * * * * * * * * * * * * * * * //

dimensions      [1 -1 -1 0 0 0 0];

internalField   nonuniform List<scalar> 
18109
(
4.20472e-06
1.3249e-06
3.06326e-07
6.37323e-08
2.00166e-08
1.34643e-08
1.50856e-08
2.67601e-06
6.88626e-07
1.13144e-07
1.37753e-08
2.39119e-09
1.16027e-09
1.4343e-09
1.59151e-06
3.65122e-07
6.06054e-08
8.74404e-09
1.46932e-09
2.68314e-10
1.15579e-10
1.0251e-06
2.56324e-07
5.76564e-08
1.18157e-08
2.17302e-09
3.30165e-10
4.40099e-11
7.52931e-07
2.19995e-07
5.9326e-08
1.35765e-08
2.46322e-09
3.65296e-10
4.41178e-11
6.37562e-07
2.05494e-07
5.82558e-08
1.32807e-08
2.3006e-09
3.37556e-10
4.52706e-11
6.28249e-07
2.11089e-07
5.84278e-08
1.26591e-08
2.12478e-09
3.44525e-10
8.78683e-11
7.16905e-07
2.36776e-07
6.21995e-08
1.27836e-08
2.32869e-09
6.00016e-10
3.84134e-10
1.59996e-06
4.2849e-07
8.18692e-08
1.19562e-08
3.07474e-09
2.3689e-09
2.99369e-09
4.14388e-09
5.48233e-09
7.08626e-09
1.00288e-08
1.86856e-08
4.76127e-08
1.46405e-07
8.76879e-07
1.92952e-07
2.85272e-08
2.95081e-09
4.07637e-10
1.78257e-10
2.30864e-10
3.85689e-10
5.93843e-10
7.90651e-10
1.12766e-09
2.82254e-09
1.16334e-08
5.61532e-08
4.81019e-07
1.02805e-07
1.76433e-08
2.72375e-09
4.10092e-10
6.01745e-11
1.79785e-11
2.26855e-11
4.0386e-11
6.5877e-11
1.6056e-10
8.62201e-10
5.32618e-09
2.93352e-08
3.26125e-07
8.26981e-08
1.88002e-08
3.73857e-09
5.98814e-10
7.7991e-11
8.66547e-12
1.70336e-12
1.87791e-12
5.68049e-12
4.25251e-11
3.52332e-10
2.4708e-09
1.41475e-08
2.63676e-07
7.52303e-08
1.91945e-08
4.1194e-09
6.68352e-10
8.50718e-11
8.82964e-12
8.10318e-13
2.71417e-13
1.61198e-12
1.68045e-11
1.50917e-10
1.09922e-09
6.47261e-09
2.36762e-07
7.17609e-08
1.88125e-08
3.98854e-09
6.19943e-10
7.64066e-11
8.56212e-12
1.54553e-12
9.18899e-13
1.40224e-12
9.00942e-12
8.04216e-11
6.05755e-10
3.6974e-09
2.43252e-07
7.51819e-08
1.90569e-08
3.83289e-09
5.68708e-10
7.53547e-11
1.57048e-11
9.60659e-12
8.39653e-12
7.96219e-12
1.28763e-11
6.58375e-11
4.7478e-10
3.0377e-09
2.84852e-07
8.52925e-08
2.03791e-08
3.88368e-09
5.86702e-10
1.24054e-10
7.35357e-11
6.82905e-11
6.38509e-11
6.05554e-11
6.55935e-11
1.26887e-10
5.88136e-10
3.61329e-09
3.53172e-07
9.98253e-08
2.28056e-08
4.32677e-09
8.75856e-10
4.33031e-10
4.08703e-10
4.08885e-10
3.93301e-10
3.85537e-10
4.07255e-10
5.35066e-10
1.27603e-09
5.93418e-09
4.44694e-07
1.21524e-07
2.84568e-08
6.34435e-09
2.37522e-09
1.94205e-09
2.00619e-09
2.04492e-09
2.01454e-09
2.0435e-09
2.20561e-09
2.62122e-09
4.3276e-09
1.38912e-08
5.83419e-07
1.69767e-07
4.56524e-08
1.46656e-08
8.70198e-09
8.16481e-09
8.43146e-09
8.66543e-09
8.75428e-09
9.19517e-09
1.0211e-08
1.18121e-08
1.666e-08
4.15091e-08
9.70091e-07
3.53096e-07
1.20253e-07
4.85688e-08
3.25872e-08
3.05049e-08
3.07358e-08
3.16286e-08
3.27118e-08
3.55154e-08
4.06763e-08
4.709e-08
6.14206e-08
1.28133e-07
2.07049e-06
9.55497e-07
3.93443e-07
1.74521e-07
1.12178e-07
1.00471e-07
9.82294e-08
1.00579e-07
1.06196e-07
1.18838e-07
1.40878e-07
1.66702e-07
2.09819e-07
3.77255e-07
4.5205e-06
2.51886e-06
1.22601e-06
5.88238e-07
3.50626e-07
2.93113e-07
2.78069e-07
2.80339e-07
2.99472e-07
3.43244e-07
4.22568e-07
5.20777e-07
6.54974e-07
1.00889e-06
5.34952e-06
9.3429e-06
1.7486e-05
2.92748e-05
4.24027e-05
5.37662e-05
2.001e-06
4.09672e-06
9.00222e-06
1.73555e-05
2.84335e-05
3.95682e-05
7.38458e-07
2.15543e-06
6.00777e-06
1.30108e-05
2.23839e-05
3.18415e-05
2.65144e-07
1.15928e-06
3.76245e-06
8.81462e-06
1.59864e-05
2.41133e-05
1.01143e-07
5.9355e-07
2.19127e-06
5.6353e-06
1.10484e-05
1.79148e-05
4.38629e-08
3.05468e-07
1.2875e-06
3.67119e-06
7.81251e-06
1.35691e-05
2.82595e-08
1.9431e-07
8.56977e-07
2.58007e-06
5.81811e-06
1.06712e-05
2.76442e-08
1.70187e-07
7.12242e-07
2.12241e-06
4.85663e-06
9.11036e-06
3.14544e-08
1.74369e-07
6.80517e-07
1.96157e-06
4.45931e-06
8.48061e-06
3.80037e-08
1.95067e-07
7.15705e-07
2.00132e-06
4.59673e-06
9.43818e-06
4.78511e-08
2.29793e-07
8.19027e-07
2.3336e-06
5.72427e-06
1.27275e-05
6.68159e-08
3.06439e-07
1.09896e-06
3.25013e-06
8.18216e-06
1.76784e-05
1.15636e-07
5.08221e-07
1.77738e-06
5.00651e-06
1.15695e-05
2.22363e-05
2.60769e-07
9.94589e-07
2.99261e-06
7.23279e-06
1.44443e-05
2.4284e-05
6.60392e-07
1.89967e-06
4.5781e-06
9.24658e-06
1.60375e-05
2.4295e-05
3.5319e-07
1.21436e-06
3.42208e-06
7.72299e-06
1.42544e-05
2.2063e-05
2.53597e-07
8.69139e-07
2.51547e-06
5.9381e-06
1.1521e-05
1.87036e-05
1.34074e-07
4.94959e-07
1.55391e-06
3.9762e-06
8.36232e-06
1.48295e-05
6.55195e-08
2.62807e-07
8.85184e-07
2.46601e-06
5.79522e-06
1.13124e-05
3.10317e-08
1.3495e-07
4.97523e-07
1.54805e-06
4.04447e-06
8.45691e-06
1.86231e-08
8.72641e-08
3.47402e-07
1.15718e-06
3.10787e-06
6.71845e-06
1.63079e-08
8.03334e-08
3.23787e-07
1.05372e-06
2.75296e-06
5.84045e-06
1.96703e-08
9.54746e-08
3.66865e-07
1.12383e-06
2.80186e-06
5.88528e-06
2.92974e-08
1.32226e-07
4.76782e-07
1.40484e-06
3.51156e-06
7.79225e-06
5.63718e-08
2.30068e-07
7.82569e-07
2.25696e-06
5.65031e-06
1.24595e-05
1.4022e-07
5.07738e-07
1.57345e-06
4.1836e-06
9.60115e-06
1.90592e-05
3.74899e-07
1.18374e-06
3.19569e-06
7.37936e-06
1.46613e-05
2.51722e-05
9.98113e-07
2.58987e-06
5.79745e-06
1.12368e-05
1.91205e-05
2.86885e-05
2.39404e-06
4.91209e-06
9.01471e-06
1.48021e-05
2.20105e-05
2.98988e-05
2.09178e-06
4.48961e-06
8.53609e-06
1.43186e-05
2.13638e-05
2.87677e-05
1.81395e-06
3.89052e-06
7.43394e-06
1.26083e-05
1.91087e-05
2.61105e-05
1.41202e-06
3.08932e-06
6.03165e-06
1.0473e-05
1.62603e-05
2.28232e-05
1.09078e-06
2.43834e-06
4.81782e-06
8.51572e-06
1.35391e-05
1.95138e-05
8.56279e-07
1.94943e-06
3.94388e-06
7.11845e-06
1.15547e-05
1.70095e-05
7.42662e-07
1.72858e-06
3.53819e-06
6.43224e-06
1.05132e-05
1.58822e-05
6.97079e-07
1.63794e-06
3.3744e-06
6.21914e-06
1.0693e-05
1.82456e-05
7.02264e-07
1.66276e-06
3.51671e-06
7.01963e-06
1.39083e-05
2.70315e-05
7.58652e-07
1.88105e-06
4.42882e-06
1.00376e-05
2.13848e-05
4.10183e-05
9.92277e-07
2.72427e-06
6.9702e-06
1.59557e-05
3.18266e-05
5.45979e-05
1.73437e-06
4.64196e-06
1.1049e-05
2.275e-05
4.05537e-05
6.22748e-05
3.24633e-06
7.49646e-06
1.54281e-05
2.77736e-05
4.42453e-05
6.17542e-05
5.65401e-06
1.09189e-05
1.92538e-05
3.06533e-05
4.42296e-05
5.73267e-05
8.69589e-06
1.4313e-05
2.22053e-05
3.19495e-05
4.26703e-05
5.25701e-05
3.31156e-06
8.94764e-06
2.05261e-05
3.92145e-05
6.27015e-05
8.56329e-05
4.85435e-06
1.1636e-05
2.39793e-05
4.16707e-05
6.18391e-05
7.95603e-05
7.00296e-06
1.42845e-05
2.59917e-05
4.12123e-05
5.75608e-05
7.12355e-05
9.3349e-06
1.63046e-05
2.66261e-05
3.92656e-05
5.24657e-05
6.3336e-05
5.23943e-06
9.64167e-06
1.73127e-05
2.7105e-05
3.74897e-05
4.67998e-05
3.36712e-06
7.54551e-06
1.44268e-05
2.31494e-05
3.21263e-05
4.01508e-05
2.39106e-06
5.72697e-06
1.1128e-05
1.80756e-05
2.57015e-05
3.32578e-05
1.77232e-06
4.19971e-06
8.10867e-06
1.36408e-05
2.0375e-05
2.75631e-05
1.32235e-06
3.11045e-06
6.13692e-06
1.06163e-05
1.65601e-05
2.34373e-05
9.88697e-07
2.35806e-06
4.84213e-06
8.79854e-06
1.43832e-05
2.14598e-05
7.79124e-07
1.94975e-06
4.24433e-06
8.14866e-06
1.41589e-05
2.38573e-05
6.88724e-07
1.83732e-06
4.22919e-06
8.66252e-06
1.68745e-05
3.25201e-05
7.11236e-07
1.97337e-06
4.80664e-06
1.08664e-05
2.33201e-05
4.57535e-05
8.23859e-07
2.37134e-06
6.29036e-06
1.51854e-05
3.2084e-05
5.76699e-05
1.09693e-06
3.27614e-06
8.7739e-06
2.01078e-05
3.89014e-05
6.32918e-05
1.67669e-06
4.6709e-06
1.13606e-05
2.33333e-05
4.08641e-05
6.09589e-05
2.71948e-06
6.41111e-06
1.3471e-05
2.45627e-05
3.9276e-05
5.45955e-05
4.13794e-06
8.07705e-06
1.47312e-05
2.42652e-05
3.60954e-05
4.77034e-05
4.81091e-05
6.21705e-05
7.5034e-05
8.47527e-05
7.93161e-05
3.99628e-05
5.22563e-05
6.43971e-05
7.56917e-05
7.88363e-05
3.26801e-05
4.33312e-05
5.4208e-05
6.75781e-05
8.06861e-05
2.63201e-05
3.56753e-05
4.68225e-05
6.55019e-05
8.93753e-05
2.12531e-05
2.97058e-05
4.31568e-05
7.18376e-05
0.000104737
1.7296e-05
2.57217e-05
4.42401e-05
8.39351e-05
0.000121102
1.48643e-05
2.59681e-05
5.39032e-05
0.00010033
0.00013498
1.48678e-05
3.2649e-05
7.00433e-05
0.000116384
0.000146075
0.000153266
1.87723e-05
4.50405e-05
8.67579e-05
0.000125126
0.000148097
0.000158125
2.5711e-05
5.71006e-05
9.43997e-05
0.000119414
0.000136563
0.000154573
3.25836e-05
6.37754e-05
9.16814e-05
0.000105851
0.000117622
0.000143864
0.00017343
3.61523e-05
6.37189e-05
8.46925e-05
9.38136e-05
9.89092e-05
0.000123918
0.000200169
0.000193381
3.5691e-05
5.93528e-05
7.873e-05
8.91372e-05
8.98566e-05
9.15976e-05
0.000199987
0.000505961
3.32179e-05
5.38668e-05
7.35529e-05
8.95475e-05
9.27323e-05
7.28376e-05
8.16188e-05
0.000479076
2.96731e-05
4.81068e-05
6.84244e-05
8.74228e-05
9.17829e-05
7.3707e-05
7.46339e-05
0.000387193
2.56561e-05
4.23055e-05
6.10829e-05
7.8255e-05
8.4232e-05
7.57134e-05
7.7306e-05
0.000349821
2.19196e-05
3.62276e-05
5.23589e-05
6.79702e-05
7.70553e-05
8.01271e-05
8.40786e-05
0.000190308
1.79945e-05
3.00965e-05
4.40984e-05
6.06138e-05
7.61016e-05
9.00801e-05
9.20018e-05
0.00026284
1.45095e-05
2.47819e-05
3.78486e-05
5.81892e-05
8.27279e-05
0.000105121
0.000106008
0.000299287
1.17777e-05
2.06214e-05
3.45453e-05
6.09366e-05
9.48831e-05
0.000122088
0.000119872
0.000256682
1.02618e-05
1.97872e-05
3.85414e-05
7.12987e-05
0.000110787
0.000138668
0.000134235
0.000110109
1.10944e-05
2.53738e-05
5.19311e-05
8.86943e-05
0.00012637
0.000153628
0.000150656
0.000115342
1.58705e-05
3.74472e-05
6.9905e-05
0.000103427
0.000133304
0.000159801
2.41151e-05
5.09508e-05
8.20464e-05
0.000104688
0.000124818
0.000155571
3.26504e-05
5.99344e-05
8.37428e-05
9.50643e-05
0.000106584
0.000143533
3.78342e-05
6.20317e-05
7.93382e-05
8.58444e-05
8.81515e-05
0.000120047
3.89067e-05
5.96558e-05
7.54964e-05
8.34959e-05
7.92806e-05
9.17399e-05
3.77585e-05
5.63304e-05
7.31434e-05
8.63662e-05
8.16241e-05
3.55908e-05
5.24466e-05
6.9734e-05
8.53027e-05
8.5597e-05
3.24163e-05
4.76543e-05
6.35435e-05
8.00286e-05
8.96543e-05
2.88218e-05
4.24437e-05
5.73713e-05
7.85448e-05
9.84638e-05
2.52345e-05
3.77467e-05
5.58615e-05
8.57806e-05
0.000116519
2.2611e-05
3.65532e-05
6.37312e-05
0.000103292
0.000140938
2.32635e-05
4.44976e-05
8.24667e-05
0.00012638
0.000161824
3.17205e-05
6.59804e-05
0.000110057
0.000146759
0.000173647
4.87971e-05
9.23598e-05
0.000131337
0.000154362
0.000176143
6.78904e-05
0.000109512
0.000134063
0.000144391
0.00016514
8.04513e-05
0.000110403
0.00011971
0.000122446
0.00014471
8.20189e-05
0.000101645
0.000102917
0.000101907
0.000120538
7.55573e-05
9.05978e-05
9.19189e-05
9.00847e-05
9.70198e-05
6.69526e-05
8.02759e-05
8.59576e-05
8.72084e-05
8.65e-05
5.92019e-05
7.15272e-05
8.00454e-05
8.68619e-05
8.7325e-05
5.25106e-05
6.29895e-05
7.25699e-05
8.51805e-05
9.29048e-05
4.56992e-05
5.43478e-05
6.52573e-05
8.5074e-05
0.000102252
3.9319e-05
4.69438e-05
6.19807e-05
9.14837e-05
0.000116745
3.36392e-05
4.30988e-05
6.76776e-05
0.000109016
0.000137789
2.99048e-05
4.60024e-05
8.57341e-05
0.000135319
0.000159465
3.13697e-05
6.07047e-05
0.000112475
0.000157732
0.000172307
4.17557e-05
8.67905e-05
0.000139412
0.000168781
0.000177161
5.94464e-05
0.000111535
0.000152983
0.00016813
0.000177951
7.74782e-05
0.000124752
0.000148612
0.000154223
0.000167402
8.74369e-05
0.000121525
0.00013002
0.000131352
0.000148833
8.69272e-05
0.000110644
0.000111538
0.000110039
0.000126447
7.88354e-05
9.73711e-05
9.84786e-05
9.61818e-05
0.000101026
6.7444e-05
8.37972e-05
9.09501e-05
9.17428e-05
8.37845e-05
5.67556e-05
7.22377e-05
8.38082e-05
9.06594e-05
7.9647e-05
3.66078e-07
8.24723e-08
1.39974e-08
1.93535e-09
4.3865e-10
3.50536e-10
4.56033e-10
6.17514e-10
7.69979e-10
8.78154e-10
9.40556e-10
1.28483e-09
3.42102e-09
1.51975e-08
1.51998e-07
2.9885e-08
4.56013e-09
5.98278e-10
8.32877e-11
2.83904e-11
3.31201e-11
5.16489e-11
7.70122e-11
9.44353e-11
1.00836e-10
2.16904e-10
1.26471e-09
8.68886e-09
8.36075e-08
1.94443e-08
4.01048e-09
7.43471e-10
1.16995e-10
1.51322e-11
3.178e-12
3.18348e-12
4.80892e-12
7.09207e-12
1.35165e-11
8.82546e-11
7.36207e-10
5.24449e-09
7.34813e-08
2.02149e-08
4.89826e-09
1.01915e-09
1.70972e-10
2.07516e-11
1.98299e-12
3.05662e-13
2.78506e-13
5.23009e-13
3.62864e-12
3.98306e-11
3.66042e-10
2.68452e-09
6.96699e-08
2.04346e-08
5.29354e-09
1.14689e-09
1.94013e-10
2.31987e-11
2.09255e-12
1.63823e-13
3.09179e-14
1.14544e-13
1.51767e-12
1.82359e-11
1.72363e-10
1.28868e-09
6.95137e-08
2.10082e-08
5.40726e-09
1.12816e-09
1.81047e-10
2.06495e-11
1.88917e-12
2.38669e-13
1.06277e-13
1.20372e-13
8.19075e-13
9.65753e-12
9.32761e-11
7.09074e-10
7.94222e-08
2.35548e-08
5.73489e-09
1.12597e-09
1.70694e-10
1.93676e-11
2.77097e-12
1.33341e-12
1.09445e-12
9.19954e-13
1.21053e-12
6.91557e-12
6.26181e-11
4.83569e-10
9.90358e-08
2.76487e-08
6.24935e-09
1.14279e-09
1.66252e-10
2.53396e-11
1.19312e-11
1.04849e-11
9.49242e-12
8.23391e-12
7.55094e-12
1.19198e-11
5.89028e-11
4.38915e-10
1.24863e-07
3.26464e-08
6.9848e-09
1.23803e-09
2.08548e-10
7.81424e-11
7.24158e-11
7.09372e-11
6.67845e-11
6.065e-11
5.65359e-11
6.11044e-11
1.1479e-10
5.8212e-10
1.58522e-07
3.94606e-08
8.28001e-09
1.58623e-09
4.67009e-10
3.68463e-10
3.95206e-10
3.99822e-10
3.89226e-10
3.69888e-10
3.61353e-10
3.6983e-10
4.49496e-10
1.20476e-09
2.01773e-07
4.946e-08
1.09477e-08
2.85983e-09
1.66609e-09
1.6843e-09
1.83866e-09
1.89991e-09
1.91392e-09
1.90462e-09
1.95415e-09
2.01337e-09
2.18582e-09
4.01774e-09
2.98362e-07
8.14478e-08
2.13653e-08
8.19012e-09
6.51958e-09
6.80772e-09
7.35416e-09
7.72233e-09
8.04864e-09
8.37846e-09
9.02213e-09
9.55928e-09
1.0156e-08
1.56357e-08
5.95934e-07
2.00708e-07
6.28842e-08
2.80576e-08
2.33746e-08
2.40508e-08
2.55602e-08
2.71761e-08
2.92919e-08
3.18231e-08
3.59683e-08
3.9781e-08
4.31116e-08
5.8932e-08
1.43835e-06
5.89482e-07
2.12691e-07
9.48164e-08
7.377e-08
7.44666e-08
7.7919e-08
8.34198e-08
9.26769e-08
1.04592e-07
1.24074e-07
1.44763e-07
1.65282e-07
2.08703e-07
2.91554e-08
5.63867e-09
9.54532e-10
1.68249e-10
6.54036e-11
6.67468e-11
9.08763e-11
1.14409e-10
1.32318e-10
1.34092e-10
1.10693e-10
8.72761e-11
1.43096e-10
8.3226e-10
1.17723e-08
2.41612e-09
4.46199e-10
7.66645e-11
1.36434e-11
5.15211e-12
6.36828e-12
9.50894e-12
1.29481e-11
1.48384e-11
1.24953e-11
1.36296e-11
7.75472e-11
6.87256e-10
1.1151e-08
2.87498e-09
6.5125e-10
1.29652e-10
2.19341e-11
3.05953e-12
6.09558e-13
6.08091e-13
8.72658e-13
1.12258e-12
1.23704e-12
5.54086e-12
5.78002e-11
5.24878e-10
1.35925e-08
3.73103e-09
9.08219e-10
1.90457e-10
3.27514e-11
4.31803e-12
4.05194e-13
5.77863e-14
5.411e-14
7.38224e-14
2.37906e-13
3.03225e-12
3.64098e-11
3.41726e-10
1.5087e-08
4.31407e-09
1.08399e-09
2.28641e-10
3.86848e-11
4.97596e-12
4.42138e-13
2.9442e-14
4.62918e-15
8.26236e-15
1.07e-13
1.74156e-12
2.17078e-11
2.06693e-10
1.68499e-08
4.7845e-09
1.15836e-09
2.31898e-10
3.69942e-11
4.50763e-12
3.90988e-13
3.18402e-14
8.56514e-15
7.55938e-15
6.18146e-14
1.02886e-12
1.32187e-11
1.27903e-10
2.01983e-08
5.51038e-09
1.25691e-09
2.36176e-10
3.53714e-11
4.133e-12
4.37242e-13
1.26301e-13
9.12051e-14
6.88595e-14
8.48438e-14
7.11537e-13
8.82303e-12
8.61021e-11
2.52701e-08
6.48262e-09
1.37542e-09
2.39819e-10
3.38488e-11
4.47893e-12
1.36821e-12
1.05306e-12
8.95343e-13
7.08487e-13
5.57058e-13
8.95531e-13
6.54816e-12
6.30658e-11
3.13862e-08
7.59187e-09
1.51768e-09
2.51376e-10
3.76019e-11
1.04749e-11
8.6568e-12
8.10111e-12
7.21744e-12
6.01212e-12
4.84851e-12
4.51086e-12
8.66298e-12
5.99309e-11
3.95702e-08
9.06345e-09
1.73548e-09
2.92093e-10
6.84131e-11
4.90774e-11
5.34595e-11
5.23876e-11
4.84107e-11
4.23638e-11
3.62031e-11
3.2236e-11
3.2133e-11
8.39766e-11
4.81615e-08
1.05404e-08
2.0228e-09
4.3094e-10
2.29739e-10
2.47563e-10
2.83611e-10
2.86392e-10
2.74515e-10
2.52547e-10
2.28555e-10
2.07538e-10
1.86541e-10
2.56243e-10
6.09308e-08
1.34815e-08
2.90789e-09
1.0461e-09
9.57841e-10
1.12039e-09
1.29053e-09
1.33791e-09
1.32983e-09
1.28655e-09
1.22979e-09
1.15511e-09
1.04435e-09
1.17039e-09
9.11332e-08
2.32678e-08
6.28821e-09
3.49024e-09
3.77932e-09
4.44007e-09
5.08614e-09
5.40009e-09
5.56816e-09
5.66649e-09
5.71577e-09
5.61081e-09
5.25018e-09
5.4163e-09
1.94464e-07
5.97487e-08
1.8785e-08
1.18316e-08
1.32206e-08
1.54349e-08
1.75177e-08
1.89818e-08
2.02636e-08
2.16212e-08
2.29904e-08
2.37835e-08
2.35784e-08
2.35588e-08
2.25348e-09
4.55488e-10
9.96969e-11
3.00818e-11
1.74569e-11
1.72157e-11
2.18865e-11
2.60886e-11
2.8804e-11
2.77646e-11
2.04497e-11
1.25403e-11
1.03491e-11
5.59082e-11
1.29243e-09
2.90613e-10
5.9391e-11
1.12084e-11
2.28953e-12
1.10687e-12
1.49497e-12
2.15897e-12
2.81252e-12
3.11808e-12
2.47593e-12
1.68413e-12
5.32959e-12
5.3602e-11
1.86281e-09
4.73287e-10
1.0722e-10
2.14282e-11
3.68784e-12
5.52131e-13
1.32601e-13
1.38536e-13
1.98302e-13
2.44748e-13
2.19854e-13
4.04681e-13
4.38815e-12
4.78673e-11
2.56142e-09
6.84747e-10
1.63161e-10
3.35775e-11
5.76727e-12
7.92987e-13
8.55073e-14
1.32484e-14
1.28974e-14
1.68558e-14
2.28022e-14
2.06376e-13
3.11456e-12
3.58118e-11
3.15564e-09
8.63271e-10
2.06952e-10
4.2119e-11
7.04362e-12
9.33708e-13
9.31589e-14
6.69066e-15
1.05434e-15
1.20958e-15
6.61903e-15
1.3216e-13
2.12959e-12
2.52213e-11
3.73279e-09
9.93062e-10
2.27476e-10
4.38757e-11
6.928e-12
8.69987e-13
8.32473e-14
6.24246e-15
9.93304e-16
6.51568e-16
3.78972e-15
8.38498e-14
1.41951e-12
1.74717e-11
4.59164e-09
1.1647e-09
2.50798e-10
4.5199e-11
6.65355e-12
7.86713e-13
7.99531e-14
1.48292e-14
8.74453e-15
6.14167e-15
6.24206e-15
6.06064e-14
1.00391e-12
1.25609e-11
5.72923e-09
1.36937e-09
2.7496e-10
4.60455e-11
6.35397e-12
7.86459e-13
1.73543e-13
1.12331e-13
9.03937e-14
6.76644e-14
4.82155e-14
7.35693e-14
7.22762e-13
8.97852e-12
7.01989e-09
1.58738e-09
3.00046e-10
4.73889e-11
6.62284e-12
1.45866e-12
1.01764e-12
9.23755e-13
7.91958e-13
6.25898e-13
4.63098e-13
3.91665e-13
7.92987e-13
7.31e-12
8.64495e-09
1.85191e-09
3.32925e-10
5.19781e-11
1.0327e-11
6.44218e-12
6.78109e-12
6.55551e-12
5.85026e-12
4.85976e-12
3.82569e-12
3.15592e-12
2.80844e-12
7.81565e-12
1.01067e-08
2.06772e-09
3.65929e-10
6.80287e-11
3.21609e-11
3.48907e-11
3.98072e-11
3.97288e-11
3.6849e-11
3.21283e-11
2.68655e-11
2.28019e-11
1.84433e-11
2.20858e-11
1.17483e-08
2.35658e-09
4.53173e-10
1.47088e-10
1.41247e-10
1.74113e-10
2.02381e-10
2.07579e-10
1.99829e-10
1.82511e-10
1.61291e-10
1.41435e-10
1.1628e-10
1.13674e-10
1.45292e-08
3.18285e-09
8.0101e-10
4.96436e-10
6.07848e-10
7.64907e-10
8.95023e-10
9.42342e-10
9.41431e-10
9.00065e-10
8.36903e-10
7.61338e-10
6.49413e-10
5.95831e-10
2.43391e-08
6.51663e-09
2.15216e-09
1.82776e-09
2.35745e-09
2.9651e-09
3.47248e-09
3.74301e-09
3.87131e-09
3.86327e-09
3.76138e-09
3.56578e-09
3.19272e-09
2.88061e-09
2.58795e-10
5.61382e-11
1.44764e-11
5.41944e-12
3.78935e-12
4.0754e-12
5.15754e-12
6.19479e-12
6.87077e-12
6.54863e-12
4.76719e-12
2.70687e-12
1.42487e-12
4.89381e-12
2.12826e-10
4.91778e-11
1.03333e-11
2.0241e-12
4.59162e-13
2.68053e-13
3.66499e-13
5.22461e-13
6.78066e-13
7.40915e-13
5.92484e-13
3.56529e-13
4.99141e-13
4.77711e-12
3.5598e-10
8.92527e-11
2.00605e-11
3.99362e-12
6.90009e-13
1.0764e-13
3.09859e-14
3.50777e-14
5.03065e-14
6.12653e-14
5.38832e-14
5.11337e-14
3.96912e-13
4.76633e-12
5.21292e-10
1.36747e-10
3.18865e-11
6.4422e-12
1.09729e-12
1.52954e-13
1.76061e-14
3.34278e-15
3.43033e-15
4.49332e-15
4.61707e-15
1.85506e-14
3.01531e-13
3.9385e-12
6.77933e-10
1.78983e-10
4.14049e-11
8.19336e-12
1.35091e-12
1.80568e-13
1.89096e-14
1.61388e-15
3.39546e-16
3.65531e-16
7.32185e-16
1.18794e-14
2.23742e-13
3.05045e-12
8.18058e-10
2.07489e-10
4.56098e-11
8.53787e-12
1.32958e-12
1.68284e-13
1.68163e-14
1.40959e-15
2.38339e-16
1.6431e-16
3.80356e-16
7.77047e-15
1.56916e-13
2.26322e-12
9.98724e-10
2.39336e-10
4.9236e-11
8.58664e-12
1.24444e-12
1.47709e-13
1.50455e-14
2.36805e-15
1.18653e-15
8.05381e-16
6.87818e-16
5.75796e-15
1.14501e-13
1.70444e-12
1.22017e-09
2.74499e-10
5.2619e-11
8.52407e-12
1.15585e-12
1.39771e-13
2.66932e-14
1.5181e-14
1.16181e-14
8.28371e-15
5.49086e-15
7.29541e-15
8.22501e-14
1.23193e-12
1.44894e-09
3.08109e-10
5.55242e-11
8.45729e-12
1.14386e-12
2.29472e-13
1.44967e-13
1.27086e-13
1.04946e-13
7.89194e-14
5.45919e-14
4.20922e-14
8.3736e-14
9.37225e-13
1.7162e-09
3.46029e-10
5.92522e-11
8.86331e-12
1.65919e-12
9.79472e-13
1.00109e-12
9.45335e-13
8.12489e-13
6.41988e-13
4.72177e-13
3.60771e-13
2.9244e-13
8.51259e-13
1.93375e-09
3.72767e-10
6.23597e-11
1.094e-11
5.06027e-12
5.52966e-12
6.21086e-12
6.0614e-12
5.40759e-12
4.48035e-12
3.49464e-12
2.76024e-12
2.04467e-12
2.18991e-12
2.11176e-09
3.97754e-10
7.17898e-11
2.29427e-11
2.32136e-11
2.92547e-11
3.36636e-11
3.37609e-11
3.12081e-11
2.70145e-11
2.22139e-11
1.81259e-11
1.36513e-11
1.19609e-11
2.36403e-09
4.77019e-10
1.16377e-10
8.01412e-11
1.05714e-10
1.36971e-10
1.59548e-10
1.64318e-10
1.57317e-10
1.42024e-10
1.22456e-10
1.03226e-10
8.02979e-11
6.74876e-11
3.40028e-09
8.4467e-10
3.0418e-10
3.14025e-10
4.36692e-10
5.68569e-10
6.66439e-10
7.03133e-10
6.95636e-10
6.52837e-10
5.86899e-10
5.12151e-10
4.15875e-10
3.47916e-10
2.86804e-11
6.47362e-12
1.83023e-12
8.20596e-13
7.06477e-13
8.3896e-13
1.08816e-12
1.32842e-12
1.49233e-12
1.42975e-12
1.05157e-12
5.89645e-13
2.57518e-13
3.98331e-13
3.36148e-11
7.8101e-12
1.64849e-12
3.27666e-13
8.20064e-14
5.79486e-14
8.22136e-14
1.17137e-13
1.51233e-13
1.64069e-13
1.32287e-13
7.78892e-14
5.26581e-14
3.60909e-13
6.09605e-11
1.50911e-11
3.336e-12
6.54606e-13
1.12245e-13
1.8269e-14
6.5367e-15
8.13056e-15
1.17979e-14
1.43536e-14
1.26057e-14
8.65201e-15
3.13634e-14
3.91708e-13
9.41815e-11
2.41955e-11
5.48881e-12
1.0823e-12
1.81301e-13
2.53775e-14
3.12851e-15
7.88092e-16
8.72439e-16
1.12938e-15
1.09457e-15
1.74644e-15
2.42905e-14
3.51361e-13
1.27276e-10
3.24455e-11
7.23272e-12
1.38836e-12
2.24476e-13
3.00287e-14
3.29728e-15
3.79593e-16
1.54565e-16
1.6156e-16
1.81594e-16
9.77359e-16
1.9219e-14
2.95703e-13
1.5513e-10
3.77104e-11
7.97265e-12
1.44774e-12
2.21407e-13
2.80615e-14
2.93884e-15
3.30122e-16
1.21551e-16
1.08308e-16
1.19079e-16
6.72641e-16
1.41013e-14
2.32971e-13
1.85704e-10
4.24231e-11
8.3827e-12
1.4181e-12
2.02069e-13
2.4009e-14
2.51156e-15
4.12646e-16
2.18842e-16
1.69652e-16
1.48127e-16
5.31157e-16
1.05972e-14
1.83254e-13
2.19548e-10
4.69651e-11
8.65399e-12
1.36171e-12
1.81729e-13
2.1625e-14
3.71632e-15
1.87143e-15
1.37443e-15
9.5652e-16
6.24204e-16
6.97173e-16
7.67462e-15
1.35311e-13
2.50816e-10
5.06099e-11
8.7616e-12
1.29565e-12
1.71006e-13
3.17576e-14
1.80712e-14
1.51778e-14
1.20551e-14
8.62223e-15
5.63563e-15
3.999e-15
7.57688e-15
1.00501e-13
2.82693e-10
5.4115e-11
8.90659e-12
1.29068e-12
2.31463e-13
1.29421e-13
1.27137e-13
1.16414e-13
9.60978e-14
7.19067e-14
4.96304e-14
3.51856e-14
2.63594e-14
8.23061e-14
3.03213e-10
5.55158e-11
8.90826e-12
1.5121e-12
6.94229e-13
7.54532e-13
8.23534e-13
7.7925e-13
6.66678e-13
5.2194e-13
3.8087e-13
2.79729e-13
1.92238e-13
1.88783e-13
3.11038e-10
5.56086e-11
9.63332e-12
3.13338e-12
3.31222e-12
4.18712e-12
4.69652e-12
4.56128e-12
4.03454e-12
3.29321e-12
2.52463e-12
1.91438e-12
1.33776e-12
1.0624e-12
3.19728e-10
6.07559e-11
1.48643e-11
1.14707e-11
1.58672e-11
2.06845e-11
2.35535e-11
2.34594e-11
2.14409e-11
1.82104e-11
1.4587e-11
1.13933e-11
8.18876e-12
6.31554e-12
4.09599e-10
9.66988e-11
3.94852e-11
4.76156e-11
6.92916e-11
9.1126e-11
1.04723e-10
1.06665e-10
1.00372e-10
8.83597e-11
7.35153e-11
5.91515e-11
4.41072e-11
3.41029e-11
3.01289e-12
6.84685e-13
1.97911e-13
1.03275e-13
1.08209e-13
1.42263e-13
1.93639e-13
2.44781e-13
2.80637e-13
2.73616e-13
2.05478e-13
1.16707e-13
4.94676e-14
3.57783e-14
4.75634e-12
1.09361e-12
2.276e-13
4.50852e-14
1.22695e-14
1.0252e-14
1.53626e-14
2.23599e-14
2.90583e-14
3.1727e-14
2.59628e-14
1.54319e-14
7.3486e-15
2.51021e-14
9.08415e-12
2.20306e-12
4.74481e-13
9.09539e-14
1.53965e-14
2.68201e-15
1.25702e-15
1.69253e-15
2.43663e-15
2.94919e-15
2.61865e-15
1.68906e-15
2.4839e-15
2.82637e-14
1.46026e-11
3.64574e-12
7.99192e-13
1.52867e-13
2.50687e-14
3.55334e-15
5.30114e-16
2.23916e-16
2.54288e-16
3.07442e-16
2.99068e-16
2.79128e-16
1.79348e-15
2.71502e-14
2.00414e-11
4.92428e-12
1.05593e-12
1.96089e-13
3.10008e-14
4.17853e-15
5.39551e-16
1.41191e-16
1.10468e-16
1.12478e-16
1.13677e-16
1.55716e-16
1.4923e-15
2.45272e-14
2.42646e-11
5.66692e-12
1.15281e-12
2.02815e-13
3.03896e-14
3.88972e-15
4.86628e-16
1.32093e-16
1.03091e-16
1.01209e-16
1.01605e-16
1.34605e-16
1.16713e-15
2.05687e-14
2.81466e-11
6.1594e-12
1.172e-12
1.92439e-13
2.69392e-14
3.24919e-15
4.1478e-16
1.3699e-16
1.11618e-16
1.06202e-16
1.03699e-16
1.27293e-16
9.26455e-16
1.69869e-14
3.19207e-11
6.5272e-12
1.15989e-12
1.77489e-13
2.33201e-14
2.80357e-15
5.19257e-16
2.82176e-16
2.22546e-16
1.76799e-16
1.42768e-16
1.42105e-16
7.12925e-16
1.30415e-14
3.49226e-11
6.71834e-12
1.12108e-12
1.61171e-13
2.08754e-14
3.77625e-15
2.04951e-15
1.67216e-15
1.29856e-15
9.11318e-16
5.94131e-16
4.1644e-16
7.01717e-16
9.75825e-15
3.72366e-11
6.79051e-12
1.07754e-12
1.51788e-13
2.6777e-14
1.47859e-14
1.41351e-14
1.25671e-14
1.00034e-14
7.14197e-15
4.67501e-15
3.10506e-15
2.20225e-15
7.56721e-15
3.76155e-11
6.55773e-12
1.01509e-12
1.70056e-13
8.12104e-14
8.86043e-14
9.43537e-14
8.65651e-14
7.11527e-14
5.28603e-14
3.62781e-14
2.48174e-14
1.59461e-14
1.48654e-14
3.60591e-11
6.14326e-12
1.03784e-12
3.62008e-13
4.06189e-13
5.1276e-13
5.61053e-13
5.27377e-13
4.46801e-13
3.45006e-13
2.47789e-13
1.74815e-13
1.13956e-13
8.30562e-14
3.41839e-11
6.2055e-12
1.59166e-12
1.42378e-12
2.04573e-12
2.65889e-12
2.95362e-12
2.84135e-12
2.47993e-12
1.987e-12
1.48608e-12
1.07756e-12
7.20112e-13
5.11955e-13
4.03484e-11
9.28318e-12
4.53404e-12
6.27683e-12
9.42015e-12
1.23633e-11
1.38588e-11
1.3595e-11
1.21741e-11
1.0079e-11
7.80007e-12
5.80513e-12
4.00651e-12
2.86376e-12
3.11022e-13
6.94193e-14
1.95502e-14
1.1692e-14
1.4408e-14
2.07069e-14
2.96139e-14
3.88886e-14
4.56072e-14
4.53275e-14
3.47198e-14
2.01003e-14
8.64159e-15
4.04987e-15
6.04697e-13
1.36059e-13
2.76451e-14
5.45596e-15
1.65296e-15
1.60791e-15
2.50091e-15
3.70884e-15
4.85792e-15
5.35188e-15
4.44463e-15
2.70454e-15
1.22687e-15
1.79745e-15
1.19271e-12
2.80664e-13
5.84632e-14
1.09286e-14
1.88203e-15
4.156e-16
2.77659e-16
3.66193e-16
4.94895e-16
5.84018e-16
5.29996e-16
3.67994e-16
2.98868e-16
1.93313e-15
1.96505e-12
4.7253e-13
9.95129e-14
1.84272e-14
3.0112e-15
4.96655e-16
1.51501e-16
1.19192e-16
1.26269e-16
1.35658e-16
1.34176e-16
1.24403e-16
2.03651e-16
1.97397e-15
2.70139e-12
6.36487e-13
1.30866e-13
2.34916e-14
3.68474e-15
5.6486e-16
1.49962e-16
1.04948e-16
1.01583e-16
1.02014e-16
1.0208e-16
1.03697e-16
1.86503e-16
1.91338e-15
3.21199e-12
7.18477e-13
1.4033e-13
2.39205e-14
3.56606e-15
5.25771e-16
1.43003e-16
1.03574e-16
1.00245e-16
1.00003e-16
9.99762e-17
1.01796e-16
1.70594e-16
1.72515e-15
3.5832e-12
7.50587e-13
1.37429e-13
2.19349e-14
3.07452e-15
4.42334e-16
1.33479e-16
1.03697e-16
1.00925e-16
1.00358e-16
1.00076e-16
1.01433e-16
1.57992e-16
1.52059e-15
3.86354e-12
7.55941e-13
1.29602e-13
1.93425e-14
2.56376e-15
3.79615e-16
1.40752e-16
1.16093e-16
1.10049e-16
1.05828e-16
1.02943e-16
1.02548e-16
1.45601e-16
1.24514e-15
4.01728e-12
7.38772e-13
1.19086e-13
1.67312e-14
2.1996e-15
4.62227e-16
2.84426e-16
2.42467e-16
2.0324e-16
1.65171e-16
1.36333e-16
1.20704e-16
1.4485e-16
9.80709e-16
4.04552e-12
7.05486e-13
1.08289e-13
1.49524e-14
2.7148e-15
1.56132e-15
1.46541e-15
1.27525e-15
9.97492e-16
7.06036e-16
4.70389e-16
3.23716e-16
2.47863e-16
7.6612e-16
3.85312e-12
6.4294e-13
9.65626e-14
1.63035e-14
8.39972e-15
9.21532e-15
9.56197e-15
8.50923e-15
6.74253e-15
4.79264e-15
3.14293e-15
2.04118e-15
1.26608e-15
1.1821e-15
3.4655e-12
5.66616e-13
9.47529e-14
3.68128e-14
4.38317e-14
5.49162e-14
5.84647e-14
5.31488e-14
4.31975e-14
3.16891e-14
2.15013e-14
1.42171e-14
8.72892e-15
5.93725e-15
3.05264e-12
5.36677e-13
1.50249e-13
1.56525e-13
2.3072e-13
2.96658e-13
3.20355e-13
2.9732e-13
2.48118e-13
1.88206e-13
1.32366e-13
8.96542e-14
5.61023e-14
3.70482e-14
3.38433e-12
7.8099e-13
4.73765e-13
7.28817e-13
1.11276e-12
1.44437e-12
1.57261e-12
1.48418e-12
1.26679e-12
9.8976e-13
7.17528e-13
4.97278e-13
3.2003e-13
2.12545e-13
3.16107e-14
6.88561e-15
1.89945e-15
1.28331e-15
1.75627e-15
2.68429e-15
3.99327e-15
5.42534e-15
6.51617e-15
6.60649e-15
5.16692e-15
3.07343e-15
1.38819e-15
6.02712e-16
6.92835e-14
1.51982e-14
3.06286e-15
6.62334e-16
2.71727e-16
2.89419e-16
4.20584e-16
5.99696e-16
7.73289e-16
8.54792e-16
7.31861e-16
4.82951e-16
2.64623e-16
2.17211e-16
1.3967e-13
3.17626e-14
6.44283e-15
1.23584e-15
2.81939e-16
1.33594e-16
1.22945e-16
1.37058e-16
1.56362e-16
1.70039e-16
1.62668e-16
1.39049e-16
1.20062e-16
2.01738e-16
2.33522e-13
5.3899e-14
1.0947e-14
2.02321e-15
3.95746e-16
1.39313e-16
1.05138e-16
1.02321e-16
1.0354e-16
1.04937e-16
1.04718e-16
1.0305e-16
1.05497e-16
2.10651e-16
3.18698e-13
7.19291e-14
1.42409e-14
2.53393e-15
4.61127e-16
1.45526e-16
1.04621e-16
1.00206e-16
9.9887e-17
9.99488e-17
9.99438e-17
9.99512e-17
1.04285e-16
2.16179e-16
3.69827e-13
7.93105e-14
1.49488e-14
2.53269e-15
4.42699e-16
1.40733e-16
1.03827e-16
1.00001e-16
9.96547e-17
9.96134e-17
9.95932e-17
9.96781e-17
1.0381e-16
2.13179e-16
3.95556e-13
7.95696e-14
1.41034e-14
2.25303e-15
3.83722e-16
1.31384e-16
1.02775e-16
9.99613e-17
9.96748e-17
9.96023e-17
9.95573e-17
9.96169e-17
1.03358e-16
2.06741e-16
4.0434e-13
7.60883e-14
1.26691e-14
1.90978e-15
3.23407e-16
1.24126e-16
1.0317e-16
1.00935e-16
1.00373e-16
9.9995e-17
9.97389e-17
9.96693e-17
1.02776e-16
1.92316e-16
3.97764e-13
7.03562e-14
1.10385e-14
1.58268e-15
2.80007e-16
1.30218e-16
1.14966e-16
1.10941e-16
1.07366e-16
1.04199e-16
1.01977e-16
1.0081e-16
1.02796e-16
1.75406e-16
3.76922e-13
6.32799e-14
9.47825e-15
1.35194e-15
3.20786e-16
2.27495e-16