/*--------------------------------*- C++ -*----------------------------------*\
| =========                 |                                                 |
| \\      /  F ield         | OpenFOAM: The Open Source CFD Toolbox           |
|  \\    /   O peration     | Version:  v2106                                 |
|   \\  /    A nd           | Website:  www.openfoam.com                      |
|    \\/     M anipulation  |                                                 |
\*---------------------------------------------------------------------------*/
FoamFile
{
    version     2.0;
    format      ascii;
    arch        "LSB;label=32;scalar=64";
    class       volScalarField;
    location    "0.000153";
    object      rho;
}
// * * * * * * * * * * * * * * * * * * * * * * * * * * * * * * * * * * * * * //

dimensions      [1 -3 0 0 0 0 0];

internalField   nonuniform List<scalar> 
18109
(
2.5529
2.56221
2.56794
2.57315
2.57684
2.5799
2.58187
2.55275
2.55951
2.56514
2.56976
2.57293
2.5756
2.57771
2.55328
2.55885
2.56344
2.56701
2.56968
2.57209
2.57422
2.55474
2.55878
2.56218
2.56486
2.56708
2.56922
2.57129
2.55566
2.55848
2.56107
2.56306
2.5649
2.5669
2.56896
2.5571
2.55867
2.55975
2.56156
2.56314
2.56504
2.56707
2.55859
2.55857
2.55924
2.56038
2.56188
2.5637
2.56572
2.55947
2.55866
2.55893
2.55957
2.56092
2.56274
2.56483
2.57167
2.58027
2.58544
2.58984
2.5931
2.59598
2.59795
2.59948
2.60059
2.60125
2.60144
2.60143
2.60045
2.6005
2.57268
2.57931
2.58394
2.58758
2.59031
2.59274
2.59479
2.59642
2.59791
2.59915
2.60048
2.60155
2.6024
2.60347
2.57449
2.57938
2.58301
2.58575
2.588
2.59016
2.59219
2.59403
2.59573
2.59731
2.59894
2.60065
2.60242
2.604
2.57605
2.57945
2.58218
2.58427
2.58616
2.58809
2.59006
2.59203
2.59398
2.59589
2.59785
2.59991
2.60221
2.60447
2.57727
2.57958
2.58136
2.5831
2.58468
2.58652
2.58847
2.59053
2.59263
2.59473
2.59688
2.5992
2.60188
2.60455
2.57861
2.57958
2.58063
2.58208
2.58354
2.58532
2.58726
2.58941
2.59166
2.59395
2.59629
2.59885
2.60171
2.60492
2.57967
2.57967
2.58028
2.58134
2.58276
2.5845
2.58643
2.58866
2.591
2.59347
2.59602
2.59881
2.60187
2.60531
2.58022
2.57963
2.58003
2.5808
2.5822
2.58396
2.58595
2.58828
2.59075
2.59338
2.59613
2.599
2.60215
2.60548
2.58028
2.57955
2.57978
2.58044
2.58188
2.5837
2.58583
2.58828
2.59086
2.59361
2.59644
2.5993
2.60242
2.60544
2.57991
2.57916
2.57917
2.57995
2.58161
2.58367
2.58606
2.58868
2.59137
2.59419
2.59703
2.59979
2.60254
2.60517
2.57877
2.57812
2.57814
2.57939
2.58132
2.58378
2.58642
2.58921
2.59199
2.59484
2.59767
2.60026
2.60262
2.60466
2.57629
2.57603
2.57644
2.57824
2.5807
2.58381
2.58685
2.58998
2.59293
2.59582
2.5985
2.60066
2.60274
2.60355
2.57293
2.57274
2.57388
2.57653
2.57982
2.58358
2.58719
2.59071
2.59389
2.5969
2.59954
2.60139
2.60274
2.60186
2.56671
2.568
2.57034
2.57422
2.57835
2.58304
2.58743
2.59158
2.59498
2.59794
2.6
2.60143
2.60282
2.60125
2.55521
2.5527
2.55776
2.56389
2.57201
2.5747
2.57131
2.56719
2.56862
2.57177
2.57746
2.58084
2.58315
2.58034
2.58175
2.58476
2.58995
2.59342
2.5886
2.58862
2.5916
2.59633
2.60315
2.60818
2.59372
2.59619
2.6006
2.6063
2.61345
2.61892
2.59729
2.60159
2.60759
2.61414
2.62126
2.62737
2.60053
2.6057
2.61209
2.61857
2.62535
2.63136
2.60241
2.60774
2.61413
2.62013
2.62638
2.63253
2.60371
2.60839
2.61382
2.6187
2.62335
2.62918
2.60406
2.60772
2.61102
2.6132
2.61521
2.61997
2.6035
2.60544
2.60689
2.60693
2.60716
2.60993
2.60328
2.60367
2.60308
2.60119
2.59937
2.59916
2.60304
2.60196
2.59968
2.59582
2.59249
2.59069
2.60132
2.60001
2.59752
2.59354
2.5909
2.58784
2.60284
2.60128
2.59857
2.59431
2.59247
2.59024
2.60002
2.59774
2.5971
2.59679
2.59865
2.6002
2.60703
2.60606
2.60627
2.60605
2.60753
2.61116
2.60707
2.60815
2.61044
2.61295
2.61641
2.62159
2.60818
2.61069
2.61437
2.61897
2.6241
2.63008
2.60873
2.61271
2.6176
2.62356
2.63005
2.63703
2.60916
2.61403
2.6197
2.6261
2.63293
2.64002
2.60954
2.61459
2.62015
2.6262
2.63279
2.64012
2.60947
2.614
2.61863
2.6234
2.62836
2.63529
2.60898
2.61238
2.61531
2.61777
2.62033
2.62609
2.60811
2.61
2.61099
2.61106
2.61202
2.61611
2.6068
2.60707
2.60626
2.60469
2.60368
2.60525
2.60525
2.60396
2.60176
2.5989
2.59729
2.59704
2.60287
2.60128
2.59929
2.59667
2.59559
2.59469
2.60255
2.60035
2.59914
2.59701
2.59639
2.59788
2.60103
2.59938
2.59989
2.60104
2.60315
2.60639
2.60562
2.60538
2.60684
2.60893
2.61222
2.61628
2.60446
2.60655
2.60954
2.61368
2.61889
2.62356
2.60325
2.60633
2.61038
2.61521
2.62081
2.62627
2.60057
2.60405
2.60876
2.61434
2.62074
2.62766
2.59705
2.59998
2.60385
2.60856
2.61476
2.62242
2.59275
2.59421
2.59622
2.59863
2.60322
2.611
2.58751
2.58695
2.58661
2.58656
2.58946
2.59773
2.58207
2.57925
2.57687
2.57482
2.5773
2.58731
2.57645
2.57145
2.56755
2.56428
2.56679
2.57557
2.57164
2.56572
2.56214
2.55936
2.56238
2.56599
2.56814
2.56303
2.56075
2.55831
2.56064
2.55929
2.56692
2.56337
2.56238
2.56163
2.56332
2.56092
2.56724
2.56253
2.564
2.56549
2.56919
2.56818
2.5503
2.54405
2.54125
2.54276
2.55018
2.55403
2.54894
2.54338
2.54198
2.54318
2.54781
2.54631
2.54972
2.54611
2.54591
2.54746
2.55234
2.55161
2.55165
2.54675
2.54932
2.55259
2.55857
2.56023
2.56921
2.56759
2.57302
2.57711
2.58293
2.58318
2.57732
2.57676
2.58248
2.5869
2.59276
2.59352
2.58023
2.58215
2.58908
2.59463
2.60074
2.6026
2.5821
2.58569
2.5925
2.59818
2.60371
2.60745
2.58273
2.58699
2.5929
2.59869
2.6046
2.61024
2.58261
2.58634
2.59136
2.59655
2.60263
2.60964
2.58166
2.58359
2.58654
2.58972
2.59473
2.60227
2.57977
2.57937
2.57965
2.57985
2.5829
2.59108
2.57733
2.57467
2.57262
2.57044
2.57226
2.58239
2.57439
2.56944
2.56503
2.56103
2.56224
2.57094
2.57213
2.56586
2.56062
2.55666
2.55832
2.5629
2.56993
2.56323
2.55851
2.55506
2.55648
2.55735
2.56873
2.56345
2.5602
2.55821
2.55996
2.56148
2.56902
2.56358
2.56264
2.56248
2.56674
2.56883
2.5773
2.56221
2.55856
2.5919
2.68164
2.59335
2.58486
2.58667
2.61769
2.70887
2.61079
2.60689
2.61792
2.65625
2.76833
2.62493
2.6292
2.64789
2.69433
2.81202
2.63711
2.65107
2.6801
2.73626
2.86542
2.64409
2.66667
2.70437
2.77469
2.91761
2.64845
2.67487
2.72079
2.8147
2.98386
2.64487
2.67266
2.72905
2.84146
3.01398
3.16145
2.63394
2.66644
2.7338
2.85095
2.99953
3.11262
2.62325
2.65833
2.72291
2.81782
2.93595
3.04476
2.61167
2.63404
2.67985
2.74811
2.85043
2.97933
3.08217
2.60055
2.60785
2.63586
2.6797
2.78297
2.94379
3.13701
3.2693
2.59624
2.59393
2.60348
2.62798
2.73583
2.95489
3.2765
3.67655
2.59685
2.59295
2.5924
2.60666
2.69064
2.86509
3.14817
3.42206
2.60433
2.60275
2.59971
2.60931
2.66122
2.781
2.99777
3.17201
2.6161
2.61734
2.6158
2.62784
2.68416
2.82223
3.00098
3.17287
2.62788
2.6312
2.6366
2.66085
2.73487
2.89847
3.1322
3.32096
2.63848
2.64608
2.65998
2.69173
2.77518
2.94059
3.15243
3.47176
2.64817
2.66229
2.68584
2.72731
2.82079
2.9891
3.18536
3.33226
2.65328
2.67488
2.70436
2.75486
2.85873
3.03385
3.2218
3.35452
2.65527
2.68193
2.71792
2.78098
2.90309
3.09101
3.28112
3.39988
2.65183
2.68034
2.72535
2.80468
2.93577
3.10107
3.27184
3.50588
2.64206
2.67551
2.73373
2.82435
2.94797
3.07893
2.63227
2.66926
2.7327
2.81888
2.92882
3.05061
2.61975
2.64331
2.69612
2.76807
2.88086
3.02504
2.60714
2.61408
2.64345
2.69769
2.8202
3.00606
2.59981
2.59658
2.60583
2.63994
2.76345
3.00261
2.59931
2.59386
2.59238
2.61725
2.71534
2.60815
2.60211
2.59806
2.61591
2.685
2.61891
2.61526
2.61521
2.64262
2.72363
2.62777
2.62945
2.64047
2.68299
2.794
2.63488
2.64579
2.67027
2.7251
2.85627
2.64189
2.66409
2.70178
2.77828
2.92582
2.64091
2.67255
2.72922
2.83175
2.98029
2.63417
2.68021
2.76092
2.87762
3.02955
2.62627
2.68153
2.76418
2.86965
3.00901
2.61603
2.66572
2.73309
2.81165
2.92512
2.59276
2.61388
2.65615
2.72667
2.84912
2.56654
2.55682
2.58052
2.66459
2.80317
2.54734
2.51938
2.52814
2.62488
2.77649
2.54496
2.5141
2.51516
2.60332
2.77949
2.55341
2.52886
2.52892
2.59476
2.74407
2.56976
2.55036
2.55146
2.60203
2.71237
2.58504
2.57347
2.58148
2.63787
2.76148
2.60008
2.59736
2.61666
2.68409
2.84336
2.6122
2.62069
2.65353
2.73098
2.90665
2.62336
2.64335
2.69001
2.79011
2.96645
2.62721
2.65794
2.72737
2.85044
3.01957
2.62515
2.67261
2.76377
2.89714
3.06965
2.6192
2.67429
2.76197
2.88105
3.04421
2.61159
2.65884
2.72337
2.80762
2.94046
2.58682
2.60316
2.63937
2.71025
2.83933
2.56311
2.55307
2.57039
2.64108
2.77736
2.54846
2.52184
2.52598
2.6082
2.75389
2.55021
2.52106
2.51822
2.59097
2.76505
2.561
2.53875
2.53578
2.58653
2.72738
2.6052
2.61259
2.61621
2.61955
2.62207
2.62437
2.62595
2.62732
2.62843
2.62917
2.62956
2.62973
2.62908
2.62947
2.60688
2.61267
2.61594
2.61853
2.62065
2.62252
2.62409
2.62541
2.62665
2.62774
2.62886
2.62981
2.63058
2.63183
2.60924
2.6131
2.61569
2.61776
2.61949
2.62115
2.6227
2.62412
2.62548
2.6267
2.62797
2.62937
2.63072
2.63202
2.61048
2.61342
2.61529
2.61713
2.61866
2.62017
2.62166
2.62312
2.62459
2.62599
2.62741
2.62895
2.63064
2.63236
2.61176
2.6134
2.61509
2.61659
2.61802
2.61951
2.621
2.62252
2.62402
2.62549
2.62696
2.62861
2.63046
2.6325
2.61267
2.61382
2.61503
2.61629
2.61763
2.61908
2.62055
2.62211
2.62367
2.62524
2.62682
2.62863
2.63062
2.63298
2.61358
2.61396
2.61489
2.61596
2.61729
2.61879
2.62032
2.62194
2.62355
2.62523
2.62693
2.62885
2.63092
2.63346
2.61398
2.61411
2.61491
2.61582
2.61719
2.61866
2.62024
2.62194
2.62363
2.62542
2.62725
2.62926
2.63142
2.63399
2.61415
2.61419
2.61485
2.61575
2.61718
2.61869
2.62034
2.62213
2.62392
2.62579
2.62773
2.62977
2.63194
2.63431
2.61399
2.61409
2.61472
2.61573
2.61725
2.61887
2.62064
2.62254
2.62443
2.6264
2.62842
2.63045
2.63258
2.63455
2.61317
2.61363
2.6143
2.61565
2.61724
2.61906
2.62098
2.62299
2.62497
2.627
2.62907
2.63106
2.63299
2.63439
2.61173
2.61265
2.61346
2.61528
2.61713
2.61929
2.62142
2.62361
2.62568
2.62776
2.6298
2.63166
2.63331
2.63406
2.60955
2.61076
2.61201
2.61438
2.61671
2.6194
2.62185
2.62426
2.62646
2.62861
2.63061
2.63216
2.63339
2.63301
2.6045
2.60694
2.60966
2.61292
2.6161
2.61928
2.62226
2.62495
2.62726
2.62933
2.63107
2.63196
2.6334
2.63246
2.64741
2.65281
2.65521
2.65734
2.65912
2.66059
2.66189
2.66279
2.66358
2.66404
2.66407
2.66423
2.66404
2.6642
2.64854
2.65274
2.65477
2.65668
2.65827
2.6595
2.66059
2.66138
2.66213
2.66266
2.66327
2.66391
2.66451
2.66542
2.65024
2.65302
2.65482
2.6563
2.65768
2.65881
2.65983
2.6607
2.66147
2.66209
2.66272
2.6635
2.66432
2.66558
2.65108
2.65304
2.65466
2.65607
2.65736
2.65844
2.65937
2.66025
2.66099
2.66172
2.66244
2.66338
2.66438
2.66589
2.65178
2.65323
2.65458
2.65596
2.65722
2.65833
2.65928
2.66017
2.66088
2.66165
2.6624
2.66342
2.6645
2.66601
2.65259
2.65358
2.65485
2.65608
2.65728
2.65837
2.65932
2.66021
2.66095
2.66179
2.66258
2.66368
2.66483
2.66647
2.65327
2.65395
2.65508
2.65618
2.65743
2.65854
2.65955
2.66048
2.66125
2.66214
2.66295
2.66408
2.66528
2.66703
2.65391
2.65447
2.65554
2.65654
2.65776
2.65885
2.65989
2.66085
2.66166
2.66258
2.66347
2.66467
2.66596
2.66783
2.65449
2.65507
2.65605
2.65699
2.65816
2.65921
2.66025
2.66123
2.66211
2.66309
2.66406
2.6653
2.66664
2.66846
2.65502
2.65574
2.65666
2.65766
2.65875
2.65973
2.66073
2.66172
2.66268
2.66374
2.66485
2.66612
2.66753
2.6692
2.65528
2.6563
2.6572
2.65828
2.65927
2.66022
2.66118
2.66218
2.66319
2.66433
2.66557
2.66689
2.66835
2.66965
2.65516
2.65659
2.65759
2.65876
2.65978
2.66078
2.66175
2.66279
2.66386
2.66509
2.66644
2.66778
2.66912
2.66998
2.65482
2.65627
2.65748
2.65898
2.66017
2.66131
2.66236
2.66343
2.66453
2.66576
2.66716
2.66842
2.66967
2.67014
2.65159
2.6543
2.65646
2.65866
2.66034
2.66181
2.66309
2.66427
2.66542
2.66662
2.66801
2.66916
2.6703
2.67066
2.67847
2.68184
2.68349
2.68528
2.68669
2.6878
2.68875
2.68958
2.68998
2.69027
2.69022
2.69027
2.68979
2.69001
2.67903
2.6815
2.68283
2.68437
2.68569
2.68674
2.68756
2.68829
2.68861
2.68892
2.68914
2.68944
2.68949
2.68985
2.68005
2.68171
2.68286
2.68405
2.68516
2.68607
2.68679
2.68748
2.68785
2.6883
2.68856
2.68896
2.68914
2.68983
2.68052
2.68173
2.68271
2.68375
2.68474
2.68556
2.68621
2.68682
2.6872
2.6877
2.68809
2.68867
2.68913
2.69007
2.68115
2.68177
2.68268
2.68359
2.68453
2.68533
2.686
2.6866
2.68699
2.68752
2.68795
2.68862
2.68925
2.69026
2.68171
2.68211
2.68291
2.68366
2.68452
2.68525
2.68591
2.68648
2.68689
2.68745
2.68794
2.68872
2.68951
2.69066
2.68243
2.6826
2.68322
2.68388
2.6847
2.68538
2.68602
2.68658
2.68703
2.68761
2.68814
2.68899
2.68987
2.69114
2.68321
2.68333
2.68381
2.68437
2.6851
2.68568
2.68629
2.68685
2.68734
2.68796
2.68854
2.68943
2.69038
2.69174
2.68395
2.68412
2.68452
2.685
2.6856
2.6861
2.68668
2.68724
2.68776
2.6884
2.68902
2.68993
2.69092
2.69233
2.68481
2.68511
2.68549
2.68586
2.6863
2.68671
2.68722
2.68776
2.68831
2.689
2.68969
2.69065
2.69167
2.69307
2.68558
2.686
2.68642
2.68672
2.68704
2.68738
2.68781
2.6883
2.68887
2.68958
2.69034
2.69131
2.69238
2.69366
2.68628
2.68677
2.68729
2.68759
2.68785
2.68815
2.68852
2.68901
2.68959
2.69034
2.69119
2.69219
2.69328
2.69437
2.68663
2.6873
2.68794
2.68838
2.68867
2.68897
2.68931
2.68977
2.69034
2.6911
2.69199
2.69293
2.694
2.69484
2.68535
2.68674
2.68796
2.68883
2.6894
2.68984
2.69028
2.69075
2.69131
2.69204
2.69293
2.69389
2.69486
2.69599
2.69867
2.70098
2.70224
2.70363
2.70477
2.70575
2.70642
2.70694
2.70705
2.70702
2.70666
2.70639
2.70558
2.70534
2.69946
2.70099
2.70201
2.70326
2.70433
2.70521
2.70581
2.70623
2.70625
2.70614
2.7058
2.70556
2.70519
2.70495
2.7004
2.70141
2.70232
2.70327
2.7041
2.70478
2.70529
2.70566
2.70571
2.7057
2.70547
2.70535
2.70501
2.70496
2.70112
2.70168
2.70235
2.70306
2.70374
2.70428
2.70471
2.70502
2.70509
2.70515
2.70504
2.7051
2.70498
2.70509
2.70179
2.7019
2.70241
2.70287
2.70344
2.70388
2.70429
2.7046
2.70475
2.70491
2.70491
2.70504
2.70508
2.70532
2.70237
2.70227
2.70255
2.7028
2.70321
2.70354
2.70391
2.70421
2.70441
2.70467
2.7048
2.70506
2.70529
2.70569
2.70288
2.70267
2.70276
2.70287
2.70315
2.70342
2.70376
2.70404
2.70429
2.70461
2.70484
2.70521
2.70559
2.70612
2.70341
2.70311
2.70309
2.70308
2.70325
2.70344
2.70373
2.704
2.70428
2.70467
2.70499
2.70548
2.70597
2.70662
2.70381
2.70351
2.70341
2.70336
2.70345
2.70358
2.70384
2.70411
2.70443
2.70487
2.70526
2.70582
2.70637
2.7071
2.70427
2.704
2.70389
2.7038
2.70381
2.70389
2.70414
2.70444
2.70479
2.70527
2.7057
2.70629
2.70688
2.70765
2.70459
2.70442
2.70437
2.70427
2.70426
2.70434
2.70458
2.7049
2.70526
2.70575
2.70619
2.7068
2.70739
2.70814
2.70491
2.70481
2.70484
2.70479
2.70482
2.70493
2.70518
2.70551
2.70588
2.70638
2.70685
2.70748
2.70805
2.70879
2.70505
2.70517
2.70533
2.70534
2.70544
2.70561
2.70587
2.70621
2.7066
2.7071
2.70757
2.70815
2.70871
2.70931
2.70447
2.70493
2.70544
2.70581
2.7061
2.70639
2.70671
2.70709
2.70749
2.70798
2.70842
2.70897
2.70942
2.71028
2.7101
2.71155
2.71255
2.71357
2.71438
2.71505
2.71552
2.71577
2.71572
2.71554
2.71506
2.71456
2.71377
2.71309
2.71188
2.71268
2.71341
2.71424
2.71494
2.71547
2.71581
2.71589
2.71567
2.71533
2.71469
2.71407
2.71335
2.71264
2.71351
2.71397
2.71458
2.71509
2.71557
2.71589
2.71606
2.716
2.71574
2.71534
2.7147
2.71403
2.71326
2.71252
2.71489
2.71501
2.7154
2.71568
2.71598
2.71613
2.71615
2.71599
2.71566
2.71519
2.71453
2.71386
2.71312
2.71244
2.71597
2.71589
2.71608
2.71616
2.71628
2.71628
2.7162
2.71597
2.7156
2.71514
2.71451
2.71386
2.71315
2.71251
2.71679
2.71659
2.7166
2.71649
2.71642
2.71626
2.71607
2.71578
2.7154
2.71497
2.7144
2.71381
2.71318
2.7126
2.7174
2.71708
2.71687
2.7166
2.71637
2.71611
2.71586
2.71556
2.71522
2.71482
2.71432
2.71383
2.71327
2.71277
2.7177
2.71728
2.71693
2.71654
2.71621
2.71589
2.71561
2.7153
2.71499
2.71465
2.71423
2.71383
2.71335
2.71292
2.71764
2.71718
2.71682
2.71639
2.71602
2.71565
2.71535
2.71506
2.71479
2.71452
2.71416
2.71384
2.71342
2.71307
2.71747
2.71698
2.71663
2.7162
2.71582
2.71544
2.71515
2.71488
2.71464
2.71442
2.71412
2.71385
2.71348
2.71322
2.71712
2.71665
2.71637
2.71597
2.71563
2.71528
2.71502
2.71478
2.71457
2.71439
2.71411
2.71389
2.71358
2.71339
2.71658
2.71618
2.71601
2.7157
2.71544
2.71516
2.71495
2.71475
2.71455
2.7144
2.71416
2.71399
2.71374
2.7136
2.71604
2.71577
2.71566
2.71546
2.7153
2.71511
2.71494
2.71476
2.7146
2.71448
2.71426
2.71413
2.71392
2.7138
2.71517
2.71504
2.71516
2.71517
2.71514
2.71506
2.71498
2.71486
2.71473
2.71466
2.71448
2.71441
2.71422
2.71421
2.71692
2.71716
2.71738
2.71771
2.71802
2.71832
2.71851
2.71859
2.71856
2.71844
2.71817
2.71783
2.71743
2.71681
2.71848
2.71843
2.71859
2.71875
2.71891
2.719
2.71901
2.71887
2.71861
2.71825
2.71776
2.71723
2.7167
2.716
2.71984
2.71964
2.71971
2.71968
2.71966
2.71956
2.71939
2.71908
2.71867
2.71815
2.71755
2.71687
2.71623
2.7154
2.72089
2.7206
2.72051
2.72033
2.72016
2.71991
2.71961
2.71917
2.71862
2.71796
2.71724
2.71645
2.71569
2.71481
2.72159
2.72124
2.72103
2.72076
2.72048
2.72013
2.7197
2.71915
2.71852
2.71779
2.71699
2.71613
2.71528
2.71436
2.72189
2.72153
2.72123
2.72089
2.72051
2.72007
2.71957
2.71895
2.71828
2.71751
2.71667
2.71577
2.71486
2.71393
2.72186
2.72149
2.72111
2.72071
2.72026
2.71978
2.71925
2.71864
2.71796
2.7172
2.71636
2.71546
2.71453
2.71363
2.72157
2.72115
2.72074
2.7203
2.71983
2.71933
2.7188
2.7182
2.71755
2.71681
2.71599
2.71513
2.71421
2.71335
2.72103
2.72058
2.72017
2.71971
2.71926
2.71877
2.71827
2.7177
2.71709
2.71641
2.71564
2.71485
2.71397
2.71318
2.72027
2.71982
2.71945
2.71901
2.71859
2.71813
2.71768
2.71715
2.7166
2.71599
2.71527
2.71456
2.71373
2.71303
2.71939
2.71895
2.71865
2.71826
2.71791
2.71751
2.7171
2.71664
2.71615
2.71561
2.71497
2.71434
2.7136
2.71297
2.71838
2.71798
2.71778
2.71746
2.71719
2.71686
2.71653
2.71614
2.71572
2.71526
2.71468
2.71415
2.7135
2.71296
2.71746
2.71712
2.71697
2.71674
2.71656
2.71631
2.71605
2.71573
2.71538
2.71499
2.71449
2.71404
2.71349
2.71303
2.7164
2.71613
2.71613
2.71602
2.71593
2.71577
2.71561
2.71538
2.71511
2.71483
2.71442
2.71407
2.7136
2.71323
2.72001
2.71931
2.71884
2.71851
2.71828
2.71813
2.71805
2.71801
2.71798
2.7179
2.7178
2.71766
2.7176
2.71727
2.72048
2.71979
2.71928
2.71886
2.71856
2.71831
2.7181
2.71789
2.71766
2.7174
2.71714
2.71683
2.71658
2.71616
2.72077
2.72007
2.71955
2.71913
2.71876
2.71843
2.71811
2.71777
2.7174
2.71699
2.71659
2.71613
2.71576
2.71519
2.72089
2.72028
2.71977
2.71933
2.7189
2.7185
2.71808
2.71763
2.71713
2.71658
2.71603
2.71544
2.71494
2.71426
2.72096
2.72039
2.71988
2.71943
2.71895
2.71849
2.71799
2.71744
2.71685
2.71619
2.71552
2.71483
2.71421
2.71346
2.72086
2.72032
2.71981
2.71935
2.71885
2.71834
2.71778
2.71717
2.7165
2.71577
2.715
2.71422
2.71348
2.7127
2.72059
2.72007
2.71956
2.7191
2.71859
2.71806
2.71747
2.71682
2.71611
2.71533
2.71451
2.71368
2.71286
2.71205
2.72012
2.71959
2.71911
2.71865
2.71815
2.71763
2.71704
2.71638
2.71565
2.71485
2.71401
2.71316
2.71228
2.71145
2.71945
2.71892
2.71848
2.71803
2.71757
2.71706
2.7165
2.71586
2.71515
2.71437
2.71354
2.7127
2.71181
2.71099
2.71858
2.71807
2.71767
2.71724
2.71683
2.71636
2.71585
2.71525
2.71459
2.71385
2.71306
2.71225
2.71137
2.71056
2.71763
2.71713
2.71679
2.71638
2.71603
2.71561
2.71517
2.71463
2.71403
2.71336
2.71262
2.71189
2.71105
2.71028
2.71654
2.71606
2.71578
2.71541
2.71512
2.71477
2.71441
2.71396
2.71344
2.71286
2.71218
2.71152
2.71072
2.71
2.71551
2.71505
2.7148
2.71448
2.71427
2.71399
2.71371
2.71334
2.7129
2.71241
2.71181
2.71122
2.71052
2.70986
2.71431
2.7139
2.71376
2.71352
2.71337
2.71317
2.71298
2.71271
2.71238
2.71199
2.71149
2.71099
2.71037
2.70974
2.71989
2.71884
2.71795
2.71726
2.71671
2.71631
2.71605
2.7159
2.71588
2.71595
2.71608
2.71615
2.71636
2.71616
2.71947
2.71855
2.71762
2.71689
2.71623
2.71575
2.71539
2.71516
2.71503
2.71501
2.71504
2.71501
2.71512
2.7149
2.71894
2.71803
2.71707
2.71634
2.71566
2.71516
2.71475
2.71446
2.71424
2.71409
2.71401
2.71389
2.71394
2.71366
2.71846
2.71758
2.71665
2.71591
2.7152
2.71465
2.71416
2.71379
2.71348
2.71322
2.71304
2.71284
2.71277
2.71246
2.71792
2.71704
2.71613
2.7154
2.71468
2.71411
2.71359
2.71316
2.71278
2.71244
2.71216
2.71189
2.7117
2.71137
2.7173
2.71643
2.71557
2.71485
2.71414
2.71356
2.71301
2.71254
2.7121
2.71169
2.71132
2.71097
2.71068
2.71032
2.71662
2.71577
2.71496
2.71425
2.71357
2.71298
2.71242
2.71192
2.71145
2.711
2.71056
2.71014
2.70977
2.70938
2.71584
2.71501
2.71427
2.71357
2.71293
2.71234
2.71178
2.71127
2.71079
2.7103
2.7098
2.70934
2.70889
2.70848
2.71498
2.71417
2.7135
2.71282
2.71222
2.71164
2.7111
2.71059
2.71009
2.70958
2.70906
2.70856
2.70807
2.70764
2.71402
2.71324
2.71262
2.71197
2.71142
2.71086
2.71035
2.70985
2.70935
2.70884
2.70831
2.70781
2.7073
2.70684
2.71303
2.71229
2.71171
2.7111
2.71059
2.71006
2.70959
2.7091
2.70862
2.70812
2.70761
2.70714
2.70661
2.70616
2.71197
2.71126
2.71073
2.71016
2.70969
2.70921
2.70878
2.70833
2.70789
2.70744
2.70696
2.70652
2.706
2.70554
2.71099
2.71031
2.70979
2.70926
2.70883
2.7084
2.70801
2.70761
2.70721
2.70681
2.70638
2.70597
2.70549
2.70509
2.70984
2.7092
2.70878
2.7083
2.70794
2.70756
2.70723
2.7069
2.70657
2.70624
2.70587
2.70551
2.70504
2.70458
2.71849
2.71749
2.7165
2.71569
2.71498
2.71444
2.71405
2.7138
2.71368
2.71369
2.71381
2.71393
2.71417
2.71407
2.71746
2.71652
2.71545
2.7146
2.71383
2.71324
2.71279
2.7125
2.71234
2.71232
2.71241
2.71247
2.7127
2.71258
2.71627
2.71531
2.71423
2.71339
2.7126
2.71201
2.71154
2.71123
2.71103
2.71096
2.71101
2.71103
2.71123
2.71113
2.71516
2.71419
2.71312
2.71227
2.71146
2.71084
2.71033
2.70998
2.70974
2.70963
2.70964
2.70964
2.70979
2.70971
2.71404
2.71305
2.712
2.71114
2.71034
2.70971
2.70917
2.70878
2.7085
2.70834
2.70831
2.70831
2.7084
2.70833
2.71291
2.71192
2.71092
2.71007
2.70927
2.70862
2.70806
2.70763
2.70731
2.7071
2.70701
2.707
2.70704
2.70699
2.71183
2.71084
2.70989
2.70905
2.70828
2.70761
2.70704
2.70657
2.70621
2.70594
2.70579
2.70575
2.70575
2.70572
2.71075
2.70978
2.7089
2.70807
2.70733
2.70666
2.70609
2.7056
2.70521
2.7049
2.7047
2.70462
2.70456
2.70454
2.70971
2.70877
2.70795
2.70715
2.70644
2.70578
2.70521
2.70473
2.70433
2.70401
2.70378
2.70364
2.70354
2.7035
2.70869
2.70777
2.70702
2.70625
2.70558
2.70495
2.7044
2.70392
2.70353
2.70321
2.70295
2.70277
2.70262
2.70257
2.7077
2.70683
2.70613
2.7054
2.70477
2.70416
2.70363
2.70316
2.70277
2.70246
2.70218
2.70198
2.7018
2.70174
2.7067
2.70588
2.70522
2.70454
2.70395
2.70337
2.70287
2.70242
2.70205
2.70174
2.70145
2.70125
2.70106
2.70099
2.70579
2.70502
2.70439
2.70374
2.70318
2.70264
2.70216
2.70173
2.70138
2.70107
2.70079
2.7006
2.70042
2.70037
2.70469
2.70397
2.70342
2.70285
2.70235
2.70187
2.70144
2.70106
2.70073
2.70045
2.70017
2.69999
2.6998
2.69969
2.71576
2.71498
2.71415
2.71343
2.71278
2.71224
2.71179
2.71146
2.71125
2.71115
2.71117
2.71125
2.71145
2.71143
2.71433
2.71363
2.71275
2.71201
2.71132
2.71076
2.7103
2.70997
2.70976
2.70967
2.70969
2.70977
2.70999
2.70991
2.71286
2.71213
2.71124
2.71051
2.70982
2.70927
2.70881
2.70849
2.70829
2.7082
2.70824
2.70833
2.70855
2.70853
2.71141
2.71066
2.70979
2.70906
2.70837
2.70782
2.70737
2.70705
2.70685
2.70677
2.70681
2.70692
2.70712
2.70714
2.71001
2.70923
2.70837
2.70765
2.70698
2.70643
2.70599
2.70568
2.70548
2.7054
2.70545
2.70556
2.70575
2.70582
2.70862
2.70783
2.70701
2.7063
2.70565
2.70511
2.70468
2.70438
2.70417
2.7041
2.70414
2.70425
2.70442
2.70453
2.70731
2.70651
2.70573
2.70503
2.7044
2.70389
2.70347
2.70316
2.70296
2.70287
2.70291
2.70301
2.70315
2.7033
2.70607
2.70526
2.70452
2.70384
2.70324
2.70273
2.70232
2.70202
2.70181
2.7017
2.70174
2.70183
2.70195
2.70212
2.70492
2.70411
2.70342
2.70275
2.70218
2.70168
2.70127
2.70097
2.70074
2.70062
2.70063
2.7007
2.7008
2.70097
2.70384
2.70304
2.70239
2.70175
2.7012
2.70071
2.70031
2.7
2.69975
2.69961
2.69959
2.69964
2.6997
2.69988
2.70283
2.70205
2.70144
2.70082
2.70029
2.69981
2.69942
2.69911
2.69886
2.6987
2.69865
2.69869
2.69873
2.69889
2.70183
2.70109
2.70052
2.69992
2.69942
2.69896
2.69859
2.69828
2.69803
2.69786
2.6978
2.69782
2.69784
2.69798
2.70093
2.70023
2.69967
2.69911
2.69862
2.69818
2.69781
2.69751
2.69727
2.6971
2.69703
2.69705
2.69706
2.69719
2.69997
2.69931
2.69878
2.69826
2.69782
2.69741
2.69708
2.69678
2.69655
2.69638
2.69629
2.69629
2.6963
2.69639
2.71157
2.71113
2.71061
2.71018
2.70976
2.70939
2.70906
2.7088
2.70859
2.70849
2.70843
2.70846
2.70861
2.70865
2.71008
2.70972
2.70919
2.70876
2.70834
2.70797
2.70765
2.70741
2.70723
2.70715
2.70714
2.70718
2.70734
2.70733
2.70865
2.70828
2.70774
2.70731
2.7069
2.70654
2.70624
2.70601
2.70587
2.7058
2.70582
2.7059
2.70607
2.7061
2.70722
2.70683
2.70631
2.70588
2.70548
2.70513
2.70485
2.70464
2.70452
2.70448
2.70452
2.70462
2.7048
2.70487
2.70586
2.70544
2.70493
2.7045
2.7041
2.70377
2.7035
2.70332
2.70321
2.70318
2.70324
2.70336
2.70355
2.70369
2.70453
2.70407
2.70359
2.70316
2.70278
2.70246
2.70221
2.70204
2.70195
2.70194
2.70201
2.70214
2.70233
2.70253
2.70327
2.70279
2.70232
2.70191
2.70154
2.70123
2.70099
2.70082
2.70074
2.70075
2.70082
2.70096
2.70116
2.7014
2.70207
2.70158
2.70113
2.70073
2.70037
2.70007
2.69984
2.69968
2.6996
2.69961
2.69969
2.69984
2.70004
2.70031
2.70096
2.70045
2.70003
2.69963
2.69929
2.69899
2.69876
2.6986
2.69853
2.69854
2.69862
2.69877
2.69897
2.69926
2.69991
2.6994
2.69899
2.6986
2.69827
2.69798
2.69776
2.69759
2.69752
2.69753
2.6976
2.69775
2.69793
2.69823
2.69894
2.69842
2.69804
2.69765
2.69733
2.69705
2.69683
2.69667
2.6966
2.6966
2.69667
2.69682
2.69698
2.69729
2.69801
2.6975
2.69713
2.69676
2.69645
2.69618
2.69597
2.69582
2.69575
2.69575
2.6958
2.69594
2.69608
2.69638
2.69714
2.69664
2.69629
2.69593
2.69564
2.69539
2.6952
2.69507
2.695
2.695
2.69505
2.69517
2.69533
2.69561
2.69626
2.69581
2.69547
2.69514
2.69488
2.69465
2.69448
2.69436
2.6943
2.6943
2.69436
2.69446
2.69461
2.69485
2.7066
2.70654
2.70638
2.70626
2.70611
2.70599
2.70587
2.70576
2.70566
2.7056
2.70558
2.70561
2.70571
2.70582
2.70537
2.70537
2.70523
2.7051
2.70497
2.70486
2.70475
2.70467
2.70461
2.70458
2.70458
2.70462
2.70475
2.70478
2.70424
2.70423
2.70408
2.70395
2.70382
2.70372
2.70362
2.70355
2.70351
2.7035
2.70353
2.70359
2.70376
2.7038
2.70309
2.70305
2.70291
2.70278
2.70267
2.70257
2.70249
2.70244
2.70242
2.70244
2.70249
2.70258
2.70276
2.70283
2.70198
2.7019
2.70176
2.70164
2.70154
2.70145
2.70138
2.70135
2.70135
2.70138
2.70146
2.70157
2.70177
2.7019
2.7009
2.70078
2.70065
2.70054
2.70044
2.70036
2.70031
2.70028
2.7003
2.70035
2.70045
2.70059
2.7008
2.70097
2.69987
2.69973
2.69959
2.69948
2.69938
2.69931
2.69926
2.69925
2.69928
2.69936
2.69948
2.69964
2.69984
2.70006
2.69887
2.69872
2.69858
2.69847
2.69837
2.6983
2.69827
2.69826
2.6983
2.69839
2.69852
2.6987
2.69891
2.69916
2.69793
2.69776
2.69762
2.6975
2.69741
2.69734
2.69731
2.69732
2.69737
2.69747
2.69761
2.69779
2.698
2.69828
2.69701
2.69684
2.6967
2.69658
2.69649
2.69643
2.69641
2.69642
2.69649
2.69659
2.69674
2.69693
2.69713
2.69743
2.69616
2.69595
2.69583
2.69571
2.69563
2.69558
2.69557
2.6956
2.69567
2.69578
2.69593
2.69612
2.69631
2.69662
2.69535
2.69511
2.69501
2.69491
2.69484
2.6948
2.6948
2.69483
2.69491
2.69502
2.69517
2.69536
2.69554
2.69586
2.69459
2.69435
2.69425
2.69416
2.69411
2.69409
2.69411
2.69416
2.69425
2.69436
2.69452
2.69469
2.69489
2.69521
2.69383
2.69362
2.69354
2.69347
2.69344
2.69343
2.69345
2.6935
2.69359
2.69371
2.69388
2.69405
2.69426
2.69454
2.7014
2.70159
2.70171
2.70187
2.70201
2.70213
2.70223
2.70231
2.70238
2.70244
2.7025
2.70259
2.70269
2.70281
2.70062
2.70083
2.70099
2.70116
2.70131
2.70144
2.70156
2.70166
2.70175
2.70184
2.70192
2.70202
2.70213
2.70221
2.69988
2.7001
2.70026
2.70044
2.70059
2.70073
2.70085
2.70096
2.70107
2.70116
2.70126
2.70137
2.7015
2.7016
2.69913
2.69935
2.69951
2.69969
2.69983
2.69998
2.70011
2.70023
2.70035
2.70046
2.70057
2.7007
2.70085
2.70096
2.69839
2.6986
2.69875
2.69892
2.69907
2.69922
2.69935
2.69948
2.6996
2.69972
2.69986
2.7
2.70017
2.7003
2.69764
2.69783
2.69799
2.69815
2.6983
2.69845
2.69858
2.69871
2.69885
2.69898
2.69913
2.69928
2.69946
2.69963
2.69691
2.69707
2.69722
2.69738
2.69752
2.69767
2.69781
2.69795
2.69809
2.69824
2.6984
2.69857
2.69876
2.69895
2.69617
2.69632
2.69647
2.69662
2.69676
2.6969
2.69705
2.6972
2.69735
2.69751
2.69768
2.69787
2.69805
2.69827
2.69547
2.69558
2.69573
2.69586
2.69601
2.69616
2.69631
2.69647
2.69663
2.69681
2.69698
2.69718
2.69737
2.69762
2.69479
2.69487
2.69501
2.69514
2.69529
2.69545
2.69561
2.69577
2.69594
2.69612
2.69631
2.69651
2.69671
2.69697
2.69414
2.69418
2.69432
2.69446
2.69461
2.69477
2.69494
2.69511
2.69529
2.69548
2.69567
2.69588
2.69607
2.69635
2.69352
2.69354
2.69369
2.69382
2.69398
2.69414
2.69431
2.69449
2.69467
2.69486
2.69505
2.69526
2.69547
2.69576
2.69291
2.69294
2.69308
2.69322
2.69339
2.69356
2.69374
2.69392
2.69411
2.6943
2.69451
2.69472
2.69494
2.69524
2.69236
2.69239
2.69254
2.69269
2.69285
2.69301
2.69318
2.69336
2.69355
2.69374
2.69396
2.69416
2.6944
2.69468
2.69589
2.69627
2.69662
2.69696
2.69728
2.69757
2.69785
2.69809
2.69831
2.69851
2.69868
2.69884
2.69897
2.69914
2.69559
2.696
2.69635
2.69671
2.69704
2.69734
2.69762
2.69787
2.69811
2.69831
2.6985
2.69868
2.69885
2.69902
2.69529
2.69571
2.69607
2.69643
2.69677
2.69708
2.69736
2.69762
2.69785
2.69806
2.69826
2.69843
2.6986
2.69877
2.69495
2.69537
2.69573
2.6961
2.69644
2.69675
2.69705
2.69732
2.69756
2.69778
2.69799
2.69817
2.69834
2.69851
2.69461
2.69502
2.69539
2.69575
2.69609
2.69641
2.6967
2.69697
2.69721
2.69743
2.69764
2.69782
2.69801
2.69818
2.69423
2.69462
2.69499
2.69535
2.69569
2.69601
2.69631
2.69659
2.69684
2.69707
2.69728
2.69747
2.69767
2.69785
2.69384
2.69422
2.69459
2.69494
2.69528
2.6956
2.69589
2.69617
2.69642
2.69665
2.69687
2.69707
2.69727
2.69746
2.69343
2.6938
2.69416
2.69451
2.69484
2.69516
2.69546
2.69574
2.696
2.69623
2.69646
2.69667
2.69686
2.69707
2.69302
2.69337
2.69373
2.69407
2.6944
2.69471
2.69501
2.69529
2.69555
2.69579
2.69602
2.69624
2.69644
2.69666
2.69261
2.69294
2.69329
2.69362
2.69395
2.69426
2.69456
2.69484
2.6951
2.69535
2.69558
2.6958
2.69601
2.69624
2.6922
2.69251
2.69286
2.69318
2.69351
2.69381
2.69411
2.69439
2.69465
2.6949
2.69514
2.69537
2.69557
2.69582
2.69179
2.69208
2.69243
2.69275
2.69307
2.69337
2.69366
2.69394
2.69421
2.69446
2.6947
2.69493
2.69514
2.6954
2.69139
2.69167
2.692
2.69233
2.69264
2.69295
2.69324
2.69353
2.6938
2.69406
2.6943
2.69453
2.69475
2.69501
2.69107
2.69134
2.69165
2.69196
2.69226
2.69255
2.69283
2.69311
2.69338
2.69364
2.69388
2.6941
2.69433
2.69456
2.68988
2.69035