/*--------------------------------*- C++ -*----------------------------------*\
| =========                 |                                                 |
| \\      /  F ield         | OpenFOAM: The Open Source CFD Toolbox           |
|  \\    /   O peration     | Version:  v2106                                 |
|   \\  /    A nd           | Website:  www.openfoam.com                      |
|    \\/     M anipulation  |                                                 |
\*---------------------------------------------------------------------------*/
FoamFile
{
    version     2.0;
    format      ascii;
    arch        "LSB;label=32;scalar=64";
    class       surfaceScalarField;
    location    "0.000208";
    object      phi;
}
// * * * * * * * * * * * * * * * * * * * * * * * * * * * * * * * * * * * * * //

dimensions      [1 0 -1 0 0 0 0];

internalField   nonuniform List<scalar> 
51992
(
-3.40011e-06
5.35194e-06
-6.47691e-06
4.52139e-06
-6.47324e-06
-2.50997e-06
4.13468e-06
-6.47127e-06
-5.00998e-06
-1.97041e-06
3.18144e-06
-6.50032e-06
-3.71217e-06
-1.64438e-06
2.48087e-06
-6.55371e-06
-2.79032e-06
-1.40249e-06
2.04495e-06
-6.50904e-06
-2.24881e-06
-1.22705e-06
1.80564e-06
-6.41226e-06
-1.91282e-06
-1.14819e-06
1.5884e-06
-6.27746e-06
-1.5658e-06
-1.22326e-06
1.24166e-06
-6.11506e-06
-1.03305e-06
-1.49007e-06
7.06838e-07
-5.93893e-06
-2.85329e-07
-2.03469e-06
-3.72214e-08
-5.78363e-06
7.53658e-07
-2.96505e-06
-9.17181e-07
-5.67211e-06
2.01666e-06
-4.2812e-06
-2.2989e-06
-5.61551e-06
3.77788e-06
-6.00028e-06
-3.69575e-06
-5.54562e-06
5.57512e-06
-6.04551e-06
-5.52958e-06
-7.32504e-06
7.53935e-06
-1.67724e-06
4.11052e-06
-6.48293e-06
2.93162e-06
-7.92336e-07
3.26296e-06
-6.6219e-06
-2.7884e-07
2.67614e-06
-6.62881e-06
2.43666e-08
2.18083e-06
-6.67645e-06
1.91023e-07
1.88741e-06
-6.67815e-06
3.01414e-07
1.71984e-06
-6.63219e-06
3.30659e-07
1.60747e-06
-6.55849e-06
2.26254e-07
1.42401e-06
-6.46217e-06
-6.06265e-08
1.0972e-06
-6.34377e-06
-5.76878e-07
6.14728e-07
-6.21571e-06
-1.34941e-06
8.73801e-09
-6.0958e-06
-2.44812e-06
-1.03169e-06
-6.02237e-06
-3.70821e-06
-2.24775e-06
-5.88242e-06
-4.6319e-06
-5.57211e-06
-4.93285e-06
-5.96183e-07
3.22342e-06
-6.56481e-06
1.5103e-06
1.13208e-07
2.56682e-06
-6.71277e-06
6.42704e-07
2.1517e-06
-6.71377e-06
9.54983e-07
1.86767e-06
-6.73926e-06
1.11538e-06
1.72869e-06
-6.73375e-06
1.1873e-06
1.65269e-06
-6.70743e-06
1.1941e-06
1.61533e-06
-6.66517e-06
1.1091e-06
1.5415e-06
-6.60796e-06
8.95246e-07
1.37273e-06
-6.53614e-06
5.05226e-07
1.09663e-06
-6.43565e-06
-6.27907e-08
6.98188e-07
-6.31434e-06
-8.85699e-07
-5.91482e-08
-6.19347e-06
-1.7487e-06
-1.21125e-06
-6.04938e-06
-3.43028e-06
-5.82665e-06
-2.77463e-06
3.43155e-07
2.6233e-06
-6.63691e-06
2.88371e-07
8.15029e-07
2.10522e-06
-6.76405e-06
1.17694e-06
1.7897e-06
-6.77312e-06
1.39975e-06
1.63671e-06
-6.78812e-06
1.52218e-06
1.59614e-06
-6.77726e-06
1.57471e-06
1.58973e-06
-6.75518e-06
1.58008e-06
1.60329e-06
-6.72392e-06
1.53418e-06
1.58955e-06
-6.67877e-06
1.41072e-06
1.51825e-06
-6.62449e-06
1.18282e-06
1.37491e-06
-6.55998e-06
8.4443e-07
1.12286e-06
-6.48075e-06
3.41634e-07
5.60469e-07
-6.37612e-06
-2.29783e-07
-5.01283e-07
-6.26174e-06
-2.4859e-06
-6.09167e-06
-1.02571e-06
9.36455e-07
2.23914e-06
-6.71835e-06
-5.26509e-07
1.24179e-06
1.80142e-06
-6.81693e-06
1.4556e-06
1.56792e-06
-6.82945e-06
1.5819e-06
1.49523e-06
-6.83481e-06
1.66291e-06
1.49565e-06
-6.82179e-06
1.70532e-06
1.52249e-06
-6.79587e-06
1.7217e-06
1.56557e-06
-6.76887e-06
1.70626e-06
1.58911e-06
-6.72939e-06
1.65299e-06
1.57025e-06
-6.68235e-06
1.54337e-06
1.5013e-06
-6.62145e-06
1.36627e-06
1.34946e-06
-6.56277e-06
1.08118e-06
9.28036e-07
-6.49145e-06
6.5675e-07
2.42998e-08
-6.41356e-06
-1.68728e-06
-6.28203e-06
-2.16821e-08
1.34089e-06
2.00803e-06
-6.80654e-06
-1.09963e-06
1.50988e-06
1.61629e-06
-6.86664e-06
1.60857e-06
1.44578e-06
-6.87486e-06
1.6605e-06
1.41924e-06
-6.87892e-06
1.70027e-06
1.43052e-06
-6.86668e-06
1.72253e-06
1.46837e-06
-6.83996e-06
1.7372e-06
1.51342e-06
-6.80521e-06
1.7396e-06
1.55248e-06
-6.76892e-06
1.72637e-06
1.56169e-06
-6.72981e-06
1.68907e-06
1.53496e-06
-6.6848e-06
1.61921e-06
1.43497e-06
-6.62851e-06
1.46996e-06
1.1171e-06
-6.57193e-06
1.19158e-06
3.68381e-07
-6.52333e-06
-1.07533e-06
-6.39044e-06
6.76189e-07
1.55302e-06
1.86379e-06
-6.87447e-06
-1.42551e-06
1.63881e-06
1.49684e-06
-6.90743e-06
1.6824e-06
1.36477e-06
-6.91295e-06
1.70867e-06
1.35306e-06
-6.90898e-06
1.71422e-06
1.38116e-06
-6.89319e-06
1.71559e-06
1.42131e-06
-6.86881e-06
1.7256e-06
1.45821e-06
-6.8407e-06
1.74609e-06
1.48722e-06
-6.80434e-06
1.7598e-06
1.51071e-06
-6.76818e-06
1.75301e-06
1.51626e-06
-6.72956e-06
1.72358e-06
1.45156e-06
-6.68192e-06
1.64932e-06
1.19978e-06
-6.63419e-06
1.49047e-06
5.66241e-07
-6.58542e-06
-6.46516e-07
-6.45371e-06
1.14524e-06
1.62462e-06
1.77043e-06
-6.93537e-06
-1.57277e-06
1.67577e-06
1.40495e-06
-6.95273e-06
1.70946e-06
1.28756e-06
-6.95023e-06
1.7286e-06
1.28518e-06
-6.93932e-06
1.72572e-06
1.32848e-06
-6.91949e-06
1.71699e-06
1.37407e-06
-6.89455e-06
1.71791e-06
1.40642e-06
-6.86801e-06
1.73624e-06
1.42595e-06
-6.84055e-06
1.75801e-06
1.45018e-06
-6.80586e-06
1.77084e-06
1.47053e-06
-6.77207e-06
1.77806e-06
1.41639e-06
-6.73051e-06
1.76654e-06
1.19496e-06
-6.68025e-06
1.70911e-06
6.33554e-07
-6.62227e-06
-4.14472e-07
-6.47576e-06
1.54499e-06
1.64175e-06
1.6907e-06
-6.98554e-06
-1.61231e-06
1.68823e-06
1.31872e-06
-6.98958e-06
1.72524e-06
1.20355e-06
-6.97684e-06
1.74147e-06
1.21258e-06
-6.96032e-06
1.73792e-06
1.26714e-06
-6.93847e-06
1.72725e-06
1.32185e-06
-6.91406e-06
1.71889e-06
1.3599e-06
-6.88886e-06
1.72496e-06
1.37568e-06
-6.86458e-06
1.74314e-06
1.39811e-06
-6.84056e-06
1.77214e-06
1.41075e-06
-6.81237e-06
1.82483e-06
1.33187e-06
-6.77352e-06
1.89091e-06
1.10371e-06
-6.72236e-06
1.93966e-06
5.76318e-07
-6.64738e-06
-3.80628e-07
-6.48926e-06
1.94776e-06
1.70574e-06
1.66314e-06
-7.02599e-06
-1.71997e-06
1.72355e-06
1.27008e-06
-7.02126e-06
1.73953e-06
1.14731e-06
-7.00384e-06
1.74728e-06
1.15183e-06
-6.98447e-06
1.74804e-06
1.20408e-06
-6.96191e-06
1.74054e-06
1.26977e-06
-6.93759e-06
1.72842e-06
1.32215e-06
-6.9133e-06
1.71495e-06
1.3495e-06
-6.88962e-06
1.71256e-06
1.36672e-06
-6.8664e-06
1.74246e-06
1.35217e-06
-6.84332e-06
1.83163e-06
1.21991e-06
-6.81362e-06
1.98613e-06
9.29799e-07
-6.75932e-06
2.19359e-06
3.63133e-07
-6.67692e-06
-5.83771e-07
-6.50705e-06
2.42788e-06
1.91317e-06
1.74448e-06
-7.04817e-06
-2.02325e-06
1.85187e-06
1.30508e-06
-7.03912e-06
1.80627e-06
1.15693e-06
-7.024e-06
1.77181e-06
1.13372e-06
-7.00312e-06
1.74929e-06
1.16485e-06
-6.97948e-06
1.73169e-06
1.22933e-06
-6.95803e-06
1.71453e-06
1.29108e-06
-6.93576e-06
1.68741e-06
1.3386e-06
-6.91505e-06
1.67472e-06
1.34784e-06
-6.89401e-06
1.71081e-06
1.28987e-06
-6.86905e-06
1.83356e-06
1.07994e-06
-6.83954e-06
2.08962e-06
6.72932e-07
-6.79148e-06
2.4685e-06
-7.16933e-09
-6.70914e-06
-1.04607e-06
-6.54226e-06
2.96606e-06
2.28614e-06
2.02133e-06
-7.05194e-06
-2.57871e-06
2.07566e-06
1.49747e-06
-7.04845e-06
1.90588e-06
1.29093e-06
-7.04735e-06
1.80613e-06
1.18044e-06
-7.0314e-06
1.74669e-06
1.16338e-06
-7.01014e-06
1.71592e-06
1.20467e-06
-6.98981e-06
1.7054e-06
1.25647e-06
-6.96934e-06
1.69838e-06
1.30821e-06
-6.9493e-06
1.70446e-06
1.30963e-06
-6.9269e-06
1.76707e-06
1.20275e-06
-6.89747e-06
1.95199e-06
8.83449e-07
-6.85992e-06
2.35467e-06
2.79389e-07
-6.80079e-06
2.97271e-06
-5.98855e-07
-6.73826e-06
-1.8198e-06
-6.57861e-06
3.78876e-06
2.82706e-06
2.57229e-06
-7.05369e-06
-3.38548e-06
2.37387e-06
1.93095e-06
-7.05581e-06
2.08966e-06
1.53656e-06
-7.06945e-06
1.9373e-06
1.27672e-06
-7.06137e-06
1.85195e-06
1.18275e-06
-7.04267e-06
1.80883e-06
1.18812e-06
-7.02407e-06
1.80779e-06
1.2084e-06
-7.00556e-06
1.83188e-06
1.24401e-06
-6.98849e-06
1.88119e-06
1.22561e-06
-6.96374e-06
1.97962e-06
1.07949e-06
-6.92416e-06
2.18217e-06
6.7153e-07
-6.8646e-06
2.61439e-06
-1.36174e-07
-6.78021e-06
3.42794e-06
-1.37171e-06
-6.70889e-06
-2.91254e-06
-6.61651e-06
4.56682e-06
3.49427e-06
-7.08844e-06
3.21015e-06
-4.13992e-06
2.89661e-06
-7.06561e-06
2.51183e-06
2.51e-06
-7.08423e-06
1.89326e-06
2.27511e-06
-7.07974e-06
1.46331e-06
2.15179e-06
-7.06831e-06
1.24669e-06
2.1138e-06
-7.05182e-06
1.17004e-06
2.13783e-06
-7.03517e-06
1.13427e-06
2.21304e-06
-7.02155e-06
1.12525e-06
2.34283e-06
-6.99771e-06
1.05658e-06
2.54916e-06
-6.9518e-06
8.43541e-07
2.87801e-06
-6.87757e-06
3.33678e-07
3.49971e-06
-6.77373e-06
-7.39792e-07
4.46281e-06
-6.67761e-06
-2.28712e-06
-6.68085e-06
5.51894e-06
-3.92266e-06
-1.83863e-06
4.33094e-06
-6.5827e-06
3.18319e-06
-5.59038e-06
-9.4916e-07
3.55968e-06
-6.57069e-06
-4.3713e-06
-4.63992e-07
3.10124e-06
-6.54827e-06
-3.56098e-06
-2.41302e-07
2.76074e-06
-6.53783e-06
-3.01614e-06
-1.42974e-07
2.53901e-06
-6.49898e-06
-2.65818e-06
-1.00592e-07
2.40853e-06
-6.44484e-06
-2.42245e-06
-8.9819e-08
2.25438e-06
-6.37607e-06
-2.16467e-06
-1.32816e-07
1.98808e-06
-6.29456e-06
-1.76139e-06
-2.83127e-07
1.56134e-06
-6.20675e-06
-1.13701e-06
-6.59155e-07
9.32971e-07
-6.11715e-06
-2.13868e-07
-1.36846e-06
1.45588e-07
-6.01767e-06
9.22677e-07
-2.51072e-06
-1.01239e-06
-5.92896e-06
2.48371e-06
-4.17566e-06
-2.09939e-06
-5.85434e-06
4.09128e-06
-4.0426e-06
-5.87464e-06
-5.67926e-06
5.9144e-06
-3.35114e-07
3.17356e-06
-6.61542e-06
1.62958e-06
4.25854e-07
2.80825e-06
-6.63736e-06
8.42885e-07
2.66082e-06
-6.61137e-06
1.01976e-06
2.50137e-06
-6.59754e-06
1.05556e-06
2.40323e-06
-6.57606e-06
1.03854e-06
2.34496e-06
-6.54518e-06
9.8459e-07
2.26217e-06
-6.50204e-06
8.59286e-07
2.10582e-06
-6.44286e-06
6.20277e-07
1.84054e-06
-6.371e-06
2.13882e-07
1.43884e-06
-6.29786e-06
-3.8306e-07
9.00264e-07
-6.23106e-06
-1.28014e-06
6.71651e-08
-6.17739e-06
-2.39033e-06
-7.29427e-07
-6.10972e-06
-2.49668e-06
-5.87085e-06
-3.59741e-06
5.52941e-07
2.49392e-06
-6.6781e-06
2.60656e-07
1.05924e-06
2.29452e-06
-6.69266e-06
1.43916e-06
2.24049e-06
-6.66145e-06
1.60281e-06
2.24493e-06
-6.63392e-06
1.6365e-06
2.25604e-06
-6.60667e-06
1.61358e-06
2.2547e-06
-6.58004e-06
1.54705e-06
2.22984e-06
-6.5509e-06
1.4173e-06
2.15735e-06
-6.5123e-06
1.19537e-06
2.00969e-06
-6.46341e-06
8.41541e-07
1.7759e-06
-6.39502e-06
3.48298e-07
1.42437e-06
-6.31613e-06
-3.57671e-07
8.51279e-07
-6.23734e-06
-1.07581e-06
1.42896e-07
-6.16405e-06
-1.42298e-06
-5.98929e-06
-1.93998e-06
1.2969e-06
2.12594e-06
-6.70936e-06
-8.14916e-07
1.565e-06
2.00283e-06
-6.71135e-06
1.75524e-06
1.98122e-06
-6.67924e-06
1.84854e-06
2.03416e-06
-6.64715e-06
1.86161e-06
2.10984e-06
-6.62275e-06
1.82376e-06
2.15752e-06
-6.59868e-06
1.75052e-06
2.17877e-06
-6.57708e-06
1.65153e-06
2.14842e-06
-6.5471e-06
1.49431e-06
2.08066e-06
-6.51311e-06
1.25198e-06
1.95114e-06
-6.46476e-06
9.26799e-07
1.71194e-06
-6.41e-06
4.62534e-07
1.31063e-06
-6.33301e-06
-2.72716e-08
6.75609e-07
-6.25953e-06
-7.00636e-07
-6.12852e-06
-6.58755e-07
1.73621e-06
1.93068e-06
-6.71939e-06
-1.4884e-06
1.85163e-06
1.82506e-06
-6.71154e-06
1.905e-06
1.82232e-06
-6.68551e-06
1.92822e-06
1.86787e-06
-6.65742e-06
1.92488e-06
1.95528e-06
-6.63209e-06
1.88757e-06
2.0283e-06
-6.60104e-06
1.81874e-06
2.08283e-06
-6.57643e-06
1.71711e-06
2.09846e-06
-6.55101e-06
1.60378e-06
2.07166e-06
-6.53259e-06
1.4595e-06
2.00351e-06
-6.50161e-06
1.24907e-06
1.86081e-06
-6.4678e-06
9.46938e-07
1.57012e-06
-6.40884e-06
5.67348e-07
1.02787e-06
-6.339e-06
-1.51295e-07
-6.23329e-06
2.46947e-08
1.98575e-06
1.79566e-06
-6.72814e-06
-1.8734e-06
2.01163e-06
1.69523e-06
-6.71341e-06
2.0053e-06
1.69532e-06
-6.69594e-06
1.96998e-06
1.7386e-06
-6.67413e-06
1.92271e-06
1.8228e-06
-6.65026e-06
1.86737e-06
1.89342e-06
-6.61693e-06
1.80567e-06
1.95342e-06
-6.58424e-06
1.73038e-06
1.98623e-06
-6.55345e-06
1.62767e-06
2.00371e-06
-6.53294e-06
1.50456e-06
1.9841e-06
-6.51544e-06
1.36388e-06
1.90186e-06
-6.49945e-06
1.16465e-06
1.69728e-06
-6.46174e-06
8.90477e-07
1.23515e-06
-6.4112e-06
2.39039e-07
-6.30504e-06
4.66686e-07
2.05673e-06
1.68053e-06
-6.7481e-06
-2.01549e-06
2.0601e-06
1.56371e-06
-6.7294e-06
2.0371e-06
1.55981e-06
-6.70902e-06
1.98268e-06
1.60805e-06
-6.68236e-06
1.91304e-06
1.69353e-06
-6.65774e-06
1.83899e-06
1.75826e-06
-6.62724e-06
1.76733e-06
1.81233e-06
-6.59817e-06
1.69893e-06
1.84329e-06
-6.56585e-06
1.61755e-06
1.88044e-06
-6.53845e-06
1.51209e-06
1.90401e-06
-6.52004e-06
1.38604e-06
1.88156e-06
-6.5089e-06
1.2516e-06
1.72015e-06
-6.48968e-06
1.0698e-06
1.3327e-06
-6.4583e-06
4.98916e-07
-6.35902e-06
7.63124e-07
2.06126e-06
1.55135e-06
-6.78844e-06
-2.03061e-06
2.06825e-06
1.41695e-06
-6.76407e-06
2.04985e-06
1.41061e-06
-6.73709e-06
1.99758e-06
1.46846e-06
-6.70663e-06
1.92432e-06
1.55847e-06
-6.67718e-06
1.84096e-06
1.62326e-06
-6.6457e-06
1.75791e-06
1.67054e-06
-6.61538e-06
1.6793e-06
1.6937e-06
-6.58627e-06
1.59733e-06
1.73463e-06
-6.55403e-06
1.50268e-06
1.78056e-06
-6.53078e-06
1.40601e-06
1.78727e-06
-6.51455e-06
1.30718e-06
1.67303e-06
-6.50396e-06
1.20083e-06
1.33886e-06
-6.48289e-06
6.2765e-07
-6.38552e-06
1.02242e-06
2.04107e-06
1.40907e-06
-6.82282e-06
-2.01532e-06
2.05752e-06
1.2543e-06
-6.79329e-06
2.04853e-06
1.24967e-06
-6.75984e-06
2.00409e-06
1.31912e-06
-6.72614e-06
1.93698e-06
1.41295e-06
-6.69277e-06
1.85082e-06
1.4854e-06
-6.6606e-06
1.75571e-06
1.53391e-06
-6.62985e-06
1.65845e-06
1.55368e-06
-6.60153e-06
1.56308e-06
1.58771e-06
-6.57386e-06
1.47403e-06
1.6322e-06
-6.55007e-06
1.40728e-06
1.63778e-06
-6.52999e-06
1.36144e-06
1.54435e-06
-6.51794e-06
1.33131e-06
1.25359e-06
-6.49619e-06
6.2868e-07
-6.40439e-06
1.27759e-06
2.07116e-06
1.29047e-06
-6.85878e-06
-2.06731e-06
2.07488e-06
1.11205e-06
-6.82677e-06
2.06035e-06
1.1009e-06
-6.78896e-06
2.01778e-06
1.17327e-06
-6.75311e-06
1.95574e-06
1.26386e-06
-6.71613e-06
1.87093e-06
1.34553e-06
-6.68162e-06
1.76663e-06
1.40238e-06
-6.64829e-06
1.64725e-06
1.42948e-06
-6.61832e-06
1.52698e-06
1.45741e-06
-6.58913e-06
1.43037e-06
1.47896e-06
-6.56601e-06
1.38746e-06
1.44508e-06
-6.54764e-06
1.39618e-06
1.33833e-06
-6.53034e-06
1.46708e-06
1.04551e-06
-6.50761e-06
4.57769e-07
-6.41839e-06
1.57508e-06
2.17942e-06
1.25298e-06
-6.8782e-06
-2.24846e-06
2.12769e-06
1.03734e-06
-6.84952e-06
2.07072e-06
9.97652e-07
-6.8068e-06
2.0136e-06
1.04131e-06
-6.76679e-06
1.94729e-06
1.1155e-06
-6.7271e-06
1.85978e-06
1.20091e-06
-6.69196e-06
1.74683e-06
1.27038e-06
-6.65872e-06
1.60937e-06
1.31407e-06
-6.63072e-06
1.47226e-06
1.33653e-06
-6.60551e-06
1.37522e-06
1.32355e-06
-6.58582e-06
1.35367e-06
1.22902e-06
-6.56948e-06
1.44022e-06
1.05269e-06
-6.55863e-06
1.61679e-06
7.15167e-07
-6.52467e-06
7.93991e-08
-6.43726e-06
1.91535e-06
2.38691e-06
1.38898e-06
-6.90088e-06
-2.60125e-06
2.21904e-06
1.10052e-06
-6.87526e-06
2.07695e-06
9.89904e-07
-6.83613e-06
1.9792e-06
9.49541e-07
-6.79237e-06
1.90179e-06
9.73165e-07
-6.75051e-06
1.81509e-06
1.04537e-06
-6.71213e-06
1.70715e-06
1.12001e-06
-6.67697e-06
1.57334e-06
1.1807e-06
-6.64814e-06
1.44072e-06
1.19711e-06
-6.6213e-06
1.36177e-06
1.1405e-06
-6.60146e-06
1.37889e-06
9.70027e-07
-6.58315e-06
1.59116e-06
6.46826e-07
-6.57227e-06
1.94231e-06
1.96043e-07
-6.53924e-06
-5.38869e-07
-6.4537e-06
2.4612e-06
2.69959e-06
1.80608e-06
-6.92184e-06
-3.16877e-06
2.36465e-06
1.35826e-06
-6.90481e-06
2.14918e-06
1.06062e-06
-6.86309e-06
2.01207e-06
8.88082e-07
-6.81319e-06
1.89988e-06
8.47836e-07
-6.76485e-06
1.7976e-06
8.82713e-07
-6.72518e-06
1.7008e-06
9.34209e-07
-6.69001e-06
1.59406e-06
9.95062e-07
-6.66282e-06
1.48955e-06
1.0107e-06
-6.63863e-06
1.42305e-06
9.37493e-07
-6.61912e-06
1.45857e-06
7.04748e-07
-6.59816e-06
1.71613e-06
2.25852e-07
-6.58115e-06
2.27199e-06
-4.91134e-07
-6.54659e-06
-1.44961e-06
-6.48535e-06
3.07526e-06
3.12157e-06
-6.94584e-06
2.38372e-06
-3.75973e-06
2.66301e-06
-6.94752e-06
1.77367e-06
2.36643e-06
-6.91603e-06
1.25385e-06
2.15821e-06
-6.86715e-06
9.34871e-07
2.01009e-06
-6.81785e-06
7.85723e-07
1.90485e-06
-6.77511e-06
7.4353e-07
1.83264e-06
-6.735e-06
7.36352e-07
1.77027e-06
-6.70116e-06
7.67696e-07
1.73217e-06
-6.67103e-06
7.55298e-07
1.74338e-06
-6.64092e-06
6.51883e-07
1.87697e-06
-6.60121e-06
3.34101e-07
2.27041e-06
-6.56176e-06
-3.4025e-07
2.99565e-06
-6.51794e-06
-1.34101e-06
-6.50473e-06
3.80038e-06
-2.40094e-06
8.28027e-07
3.24409e-06
6.50407e-07
-4.74582e-06
-6.59106e-06
1.66511e-06
2.83756e-06
-3.76965e-06
-6.50481e-06
2.06879e-06
2.53467e-06
-3.07642e-06
-6.43504e-06
2.20836e-06
2.38805e-06
-2.71361e-06
-6.36778e-06
2.22433e-06
2.34703e-06
-2.55471e-06
-6.3146e-06
2.20285e-06
2.37972e-06
-2.52915e-06
-6.26704e-06
2.16768e-06
2.44053e-06
-2.5374e-06
-6.22881e-06
2.09191e-06
2.40617e-06
-2.41998e-06
-6.19108e-06
1.95955e-06
2.33194e-06
-2.23726e-06
-6.15578e-06
1.71104e-06
2.09715e-06
-1.85368e-06
-6.103e-06
1.23437e-06
1.73688e-06
-1.23944e-06
-6.03246e-06
3.98487e-07
1.09215e-06
-2.37134e-07
-5.94576e-06
-9.6812e-07
4.52672e-07
9.115e-07
-5.84872e-06
-5.96411e-07
-2.72537e-06
2.33717e-06
-5.84882e-06
1.71524e-06
2.17375e-06
-6.41602e-07
-6.62612e-06
2.36278e-06
2.06774e-06
-6.52538e-06
2.66784e-06
2.05627e-06
-6.44483e-06
2.73684e-06
2.09325e-06
-6.37472e-06
2.69254e-06
2.14223e-06
-6.32294e-06
2.61204e-06
2.20772e-06
-6.27867e-06
2.52572e-06
2.28906e-06
-6.24242e-06
2.40761e-06
2.31023e-06
-6.20299e-06
2.26269e-06
2.29756e-06
-6.16527e-06
2.01203e-06
2.18948e-06
-6.11786e-06
1.60411e-06
1.99595e-06
-6.06345e-06
9.58379e-07
1.57554e-06
-6.00176e-06
-1.19923e-08
1.28297e-06
-5.95361e-06
6.57512e-07
-1.30498e-06
-5.80681e-06
2.30349e-06
1.6491e-06
-1.81277e-06
-6.62539e-06
2.63558e-06
1.59389e-06
-6.53535e-06
2.82497e-06
1.67586e-06
-6.45565e-06
2.87268e-06
1.81156e-06
-6.38632e-06
2.81314e-06
1.94187e-06
-6.33189e-06
2.71133e-06
2.03199e-06
-6.28142e-06
2.60269e-06
2.11425e-06
-6.23943e-06
2.46949e-06
2.16154e-06
-6.19826e-06
2.29054e-06
2.20857e-06
-6.16289e-06
2.04032e-06
2.19467e-06
-6.11789e-06
1.69362e-06
2.1206e-06
-6.06695e-06
1.13447e-06
1.93e-06
-6.00827e-06
4.51459e-07
1.78684e-06
-5.95848e-06
1.28696e-06
-2.97098e-07
-5.83221e-06
2.73558e-06
1.36409e-06
-2.50148e-06
-6.61492e-06
2.85216e-06
1.33434e-06
-6.528e-06
2.89532e-06
1.4412e-06
-6.45046e-06
2.87143e-06
1.60348e-06
-6.38142e-06
2.78935e-06
1.75841e-06
-6.32587e-06
2.67818e-06
1.85333e-06
-6.27565e-06
2.55883e-06
1.92804e-06
-6.23406e-06
2.42843e-06
1.97786e-06
-6.19324e-06
2.26199e-06
2.05673e-06
-6.15592e-06
2.01871e-06
2.1232e-06
-6.11458e-06
1.71153e-06
2.12362e-06
-6.07305e-06
1.29058e-06
2.06797e-06
-6.018e-06
8.35826e-07
1.99325e-06
-5.97405e-06
1.56509e-06
3.50217e-07
-5.87107e-06
2.92486e-06
1.17017e-06
-2.80346e-06
-6.59021e-06
2.94653e-06
1.16178e-06
-6.50405e-06
2.9062e-06
1.28474e-06
-6.43361e-06
2.83265e-06
1.43895e-06
-6.36952e-06
2.73314e-06
1.58983e-06
-6.31846e-06
2.62013e-06
1.68045e-06
-6.27025e-06
2.50245e-06
1.74346e-06
-6.22855e-06
2.37716e-06
1.78522e-06
-6.18781e-06
2.22365e-06
1.87095e-06
-6.15091e-06
2.01814e-06
1.97625e-06
-6.11177e-06
1.73645e-06
2.0453e-06
-6.07526e-06
1.38902e-06
2.0706e-06
-6.029e-06
1.04615e-06
2.02276e-06
-5.98105e-06
1.67901e-06
6.53423e-07
-5.89507e-06
2.97971e-06
1.00181e-06
-2.90881e-06
-6.57075e-06
2.97195e-06
1.0038e-06
-6.48605e-06
2.9098e-06
1.13842e-06
-6.42561e-06
2.81587e-06
1.28234e-06
-6.3648e-06
2.70737e-06
1.42162e-06
-6.31824e-06
2.59276e-06
1.50524e-06
-6.27315e-06
2.47324e-06
1.56213e-06
-6.23089e-06
2.34769e-06
1.59734e-06
-6.18986e-06
2.20548e-06
1.67462e-06
-6.15003e-06
2.02269e-06
1.7895e-06
-6.109e-06
1.77373e-06
1.8999e-06
-6.07162e-06
1.46408e-06
1.98543e-06
-6.03009e-06
1.14897e-06
1.9651e-06
-5.98937e-06
1.71609e-06
7.90054e-07
-5.91882e-06
2.99143e-06
8.1696e-07
-2.93097e-06
-6.56657e-06
2.98334e-06
8.27724e-07
-6.48498e-06
2.92434e-06
9.73404e-07
-6.42486e-06
2.82582e-06
1.12378e-06
-6.36584e-06
2.71318e-06
1.25718e-06
-6.32171e-06
2.59909e-06
1.32951e-06
-6.27996e-06
2.4759e-06
1.38131e-06
-6.23823e-06
2.34539e-06
1.41066e-06
-6.19736e-06
2.20312e-06
1.47499e-06
-6.15354e-06
2.02977e-06
1.5877e-06
-6.10905e-06
1.80601e-06
1.71619e-06
-6.06804e-06
1.52719e-06
1.83933e-06
-6.02726e-06
1.21265e-06
1.86561e-06
-5.99459e-06
1.71445e-06
8.61769e-07
-5.94154e-06
3.07511e-06
6.11719e-07
-3.03525e-06
-6.56978e-06
3.05595e-06
6.33614e-07
-6.49456e-06
2.99424e-06
7.87949e-07
-6.43293e-06
2.89122e-06
9.55301e-07
-6.37766e-06
2.76971e-06
1.09139e-06
-6.33159e-06
2.64326e-06
1.15745e-06
-6.28981e-06
2.50887e-06
1.2038e-06
-6.2478e-06
2.36395e-06
1.2253e-06
-6.20636e-06
2.20911e-06
1.2762e-06
-6.1604e-06
2.03353e-06
1.38093e-06
-6.11385e-06
1.82415e-06
1.51316e-06
-6.06922e-06
1.56634e-06
1.66025e-06
-6.03053e-06
1.25876e-06
1.73645e-06
-5.99959e-06
1.66671e-06
9.49157e-07
-5.96743e-06
3.16211e-06
3.97887e-07
-3.15095e-06
-6.56844e-06
3.12501e-06
4.32217e-07
-6.50141e-06
3.05756e-06
5.9127e-07
-6.44137e-06
2.95802e-06
7.72127e-07
-6.38776e-06
2.83518e-06
9.1744e-07
-6.33889e-06
2.69898e-06
9.86015e-07
-6.2964e-06
2.55397e-06
1.02777e-06
-6.25465e-06
2.39501e-06
1.04251e-06
-6.2134e-06
2.22178e-06
1.08083e-06
-6.16811e-06
2.03289e-06
1.17375e-06
-6.12116e-06
1.81725e-06
1.3038e-06
-6.07393e-06
1.56643e-06
1.46509e-06
-6.03809e-06
1.28075e-06
1.57462e-06
-6.00836e-06
1.55127e-06
1.03793e-06
-5.9938e-06
3.30191e-06
2.05606e-07
-3.33352e-06
-6.5791e-06
3.22719e-06
2.53491e-07
-6.51663e-06
3.13737e-06
4.05092e-07
-6.45549e-06
3.02965e-06
5.86979e-07
-6.4023e-06
2.90195e-06
7.37673e-07
-6.35055e-06
2.75308e-06
8.14519e-07
-6.30462e-06
2.58992e-06
8.55371e-07
-6.26031e-06
2.41e-06
8.65126e-07
-6.21709e-06
2.21587e-06
8.92661e-07
-6.17106e-06
2.00856e-06
9.69965e-07
-6.12366e-06
1.77785e-06
1.0913e-06
-6.07511e-06
1.53123e-06
1.25247e-06
-6.041e-06
1.29035e-06
1.35607e-06
-6.01536e-06
1.33316e-06
1.14709e-06
-6.01319e-06
3.3935e-06
6.83721e-08
-3.48633e-06
-6.58313e-06
3.26679e-06
1.18342e-07
-6.5223e-06
3.16063e-06
2.25928e-07
-6.45565e-06
3.06234e-06
3.80702e-07
-6.39764e-06
2.94471e-06
5.35726e-07
-6.34563e-06
2.79436e-06
6.30852e-07
-6.29993e-06
2.61678e-06
6.8274e-07
-6.25713e-06
2.4131e-06
6.97255e-07
-6.21579e-06
2.18802e-06
7.20269e-07
-6.1722e-06
1.95489e-06
7.7637e-07
-6.12815e-06
1.7149e-06
8.71064e-07
-6.08131e-06
1.48357e-06
1.00432e-06
-6.05147e-06
1.30585e-06
1.06182e-06
-6.02568e-06
9.90417e-07
1.27124e-06
-6.02464e-06
3.47625e-06
6.67141e-08
-3.67193e-06
-6.62667e-06
3.28693e-06
5.83877e-08
-6.54941e-06
3.15942e-06
6.17015e-08
-6.47008e-06
3.05496e-06
1.64672e-07
-6.40164e-06
2.92678e-06
3.23252e-07
-6.34459e-06
2.76287e-06
4.36384e-07
-6.29522e-06
2.5658e-06
5.04615e-07
-6.25063e-06
2.34051e-06
5.28316e-07
-6.20984e-06
2.09224e-06
5.50891e-07
-6.1654e-06
1.84892e-06
5.74944e-07
-6.12332e-06
1.63446e-06
6.1254e-07
-6.07944e-06
1.47775e-06
6.69565e-07
-6.05308e-06
1.40089e-06
6.49877e-07
-6.02733e-06
5.27164e-07
1.46778e-06
-6.02906e-06
3.51627e-06
2.60599e-07
-3.88963e-06
-6.65714e-06
3.26637e-06
8.14089e-08
-6.59164e-06
3.10744e-06
-6.94769e-08
-6.49134e-06
2.98114e-06
-4.35448e-08
-6.40475e-06
2.83857e-06
1.01538e-07
-6.33546e-06
2.66212e-06
2.26394e-07
-6.28201e-06
2.45256e-06
3.11049e-07
-6.23686e-06
2.21626e-06
3.44582e-07
-6.19771e-06
1.95755e-06
3.71562e-07
-6.15876e-06
1.71947e-06
3.58141e-07
-6.12516e-06
1.54846e-06
3.11201e-07
-6.08927e-06
1.49568e-06
2.33772e-07
-6.06038e-06
1.51833e-06
1.40901e-07
-6.03056e-06
-1.00165e-07
1.72222e-06
-6.03967e-06
3.54757e-06
6.31636e-07
-4.04558e-06
-6.72503e-06
3.27385e-06
1.94434e-07
-6.69531e-06
3.07616e-06
-1.19809e-07
-6.5816e-06
2.91991e-06
-2.06962e-07
-6.47109e-06
2.75687e-06
-1.09159e-07
-6.37965e-06
2.55653e-06
1.78016e-08
-6.3125e-06
2.3259e-06
1.1339e-07
-6.25875e-06
2.07921e-06
1.46336e-07
-6.21141e-06
1.81544e-06
1.78396e-07
-6.16967e-06
1.57914e-06
1.41069e-07
-6.14319e-06
1.42349e-06
2.64446e-08
-6.11725e-06
1.41976e-06
-1.8368e-07
-6.09835e-06
1.69266e-06
-5.41842e-07
-6.07032e-06
2.18906e-06
-1.03524e-06
-6.038e-06
-6.62568e-06
-8.4916e-06
-3.2101e-06
7.9043e-06
-5.49681e-06
-1.03834e-05
-3.42865e-06
9.33672e-06
-4.24865e-06
-1.17805e-05
-3.52679e-06
1.05828e-05
-2.83608e-06
-1.29121e-05
-3.74664e-06
1.15124e-05
-1.37013e-06
-1.3287e-05
-4.00829e-06
1.17721e-05
-1.34531e-05
-4.3941e-06
1.20501e-05
-5.39196e-06
-7.90048e-06
-4.05489e-06
-4.94009e-06
-1.07169e-05
-4.19126e-06
-3.93265e-06
-1.27041e-05
-4.16591e-06
-2.63777e-06
-1.41577e-05
-4.35043e-06
-1.31872e-06
-1.46093e-05
-4.59341e-06
-1.4774e-05
-4.97063e-06
-3.54434e-06
-6.9566e-06
-5.13596e-06
-3.6785e-06
-1.03936e-05
-5.14575e-06
-3.14021e-06
-1.30938e-05
-4.96624e-06
-2.19029e-06
-1.50047e-05
-5.03208e-06
-1.12215e-06
-1.56287e-05
-5.22481e-06
-1.58307e-05
-5.61617e-06
-1.87492e-06
-5.9049e-06
-6.05247e-06
-2.33529e-06
-9.68155e-06
-5.9609e-06
-2.28401e-06
-1.2911e-05
-5.61832e-06
-1.74759e-06
-1.53669e-05
-5.492e-06
-9.75575e-07
-1.631e-05
-5.60153e-06
-1.67239e-05
-5.98992e-06
-7.72404e-07
-4.94423e-06
-6.81895e-06
-1.26407e-06
-8.88744e-06
-6.67402e-06
-1.36532e-06
-1.25087e-05
-6.21584e-06
-1.06304e-06
-1.54433e-05
-5.96516e-06
-5.63646e-07
-1.66871e-05
-5.98755e-06
-1.71944e-05
-6.36372e-06
4.61986e-09
-4.06138e-06
-7.28414e-06
-4.89184e-07
-8.07088e-06
-7.08606e-06
-6.05968e-07
-1.20609e-05
-6.57033e-06
-4.15399e-07
-1.53925e-05
-6.29334e-06
-1.44749e-07
-1.68263e-05
-6.33148e-06
-1.72628e-05
-6.72624e-06
6.99285e-07
-3.41166e-06
-7.54168e-06
2.90575e-07
-7.35388e-06
-7.34617e-06
9.70343e-08
-1.15698e-05
-6.87726e-06
5.88532e-08
-1.51578e-05
-6.71793e-06
4.36549e-08
-1.67275e-05
-6.81876e-06
-1.71535e-05
-7.29341e-06
1.35968e-06
-3.0374e-06
-7.58083e-06
1.08658e-06
-6.81189e-06
-7.45764e-06
7.85935e-07
-1.10234e-05
-7.1334e-06
4.89646e-07
-1.47277e-05
-7.08537e-06
2.154e-07
-1.64051e-05
-7.23122e-06
-1.69094e-05
-7.71922e-06
2.0751e-06
-3.00819e-06
-7.4642e-06
1.96309e-06
-6.48904e-06
-7.50082e-06
1.53998e-06
-1.04093e-05
-7.35532e-06
9.42123e-07
-1.40456e-05
-7.38943e-06
3.87377e-07
-1.58333e-05
-7.51455e-06
-1.65481e-05
-7.94131e-06
2.90663e-06
-3.3789e-06
-7.16769e-06
2.98789e-06
-6.4269e-06
-7.38403e-06
2.48138e-06
-9.77621e-06
-7.40473e-06
1.60314e-06
-1.31156e-05
-7.53956e-06
7.25102e-07
-1.49494e-05
-7.64269e-06
-1.58981e-05
-7.95963e-06
3.70214e-06
-4.04279e-06
-6.71792e-06
3.90135e-06
-6.54034e-06
-7.08276e-06
3.34392e-06
-9.14445e-06
-7.26418e-06
2.22228e-06
-1.19535e-05
-7.52646e-06
1.03645e-06
-1.37521e-05
-7.65808e-06
-1.50807e-05
-7.67747e-06
4.56648e-06
-4.75984e-06
-6.05895e-06
4.65504e-06
-6.5647e-06
-6.51664e-06
3.90005e-06
-8.33557e-06
-6.84309e-06
2.45599e-06
-1.04979e-05
-7.2419e-06
9.63127e-07
-1.22983e-05
-7.52724e-06
-1.42411e-05
-7.25715e-06
5.05366e-06
-5.19624e-06
-5.21363e-06
4.88494e-06
-6.34356e-06
-5.74415e-06
4.26285e-06
-7.66274e-06
-6.13325e-06
3.14746e-06
-9.36914e-06
-6.57755e-06
1.70897e-06
-1.09038e-05
-6.94126e-06
-1.26365e-05
-6.74539e-06
5.34608e-06
-4.12106e-06
-4.99724e-06
5.13998e-06
-4.69374e-06
-6.11409e-06
4.68775e-06
-5.12559e-06
-7.18382e-06
3.72488e-06
-5.64493e-06
-8.3944e-06
2.12769e-06
-6.11044e-06
-9.33409e-06
-5.959e-06
-1.05838e-05
-5.27835e-06
-6.4555e-06
-3.48562e-06
6.34918e-06
-4.32825e-06
-8.45878e-06
-3.65947e-06
7.76141e-06
-3.19847e-06
-1.03988e-05
-3.64021e-06
9.40557e-06
-2.11354e-06
-1.215e-05
-3.64041e-06
1.09846e-05
-1.03301e-06
-1.29558e-05
-3.72922e-06
1.16251e-05
-1.34848e-05
-3.97183e-06
1.20667e-05
-4.13945e-06
-5.53483e-06
-4.40293e-06
-3.80567e-06
-8.41703e-06
-4.53372e-06
-2.88704e-06
-1.10116e-05
-4.43318e-06
-1.84655e-06
-1.31287e-05
-4.36685e-06
-8.97471e-07
-1.40556e-05
-4.39228e-06
-1.4638e-05
-4.64568e-06
-2.66764e-06
-4.46688e-06
-5.42909e-06
-2.72894e-06
-7.88348e-06
-5.56869e-06
-2.12081e-06
-1.1106e-05
-5.42874e-06
-1.35849e-06
-1.35983e-05
-5.26446e-06
-5.90047e-07
-1.48007e-05
-5.17727e-06
-1.54653e-05
-5.27141e-06
-1.36577e-06
-3.48076e-06
-6.26917e-06
-1.61152e-06
-7.08969e-06
-6.44521e-06
-1.32976e-06
-1.0627e-05
-6.31663e-06
-8.02858e-07
-1.34896e-05
-6.05942e-06
-2.80233e-07
-1.50595e-05
-5.78932e-06
-1.60037e-05
-5.61441e-06
-5.91019e-07
-2.65776e-06
-6.95579e-06
-8.4455e-07
-6.26347e-06
-7.16887e-06
-6.36357e-07
-9.91352e-06
-7.05944e-06
-2.19554e-07
-1.30291e-05
-6.75631e-06
1.09372e-07
-1.49568e-05
-6.3224e-06
-1.60941e-05
-6.05728e-06
-6.66773e-08
-1.939e-06
-7.39828e-06
-3.4271e-07
-5.36739e-06
-7.62479e-06
-1.7936e-07
-9.03763e-06
-7.52715e-06
1.92357e-07
-1.23997e-05
-7.20596e-06
4.22969e-07
-1.46447e-05
-6.77625e-06
-1.58028e-05
-6.4858e-06
4.10656e-07
-1.41945e-06
-7.64262e-06
2.24944e-07
-4.56273e-06
-7.88974e-06
3.79048e-07
-8.18435e-06
-7.80971e-06
5.96257e-07
-1.17345e-05
-7.51609e-06
6.20739e-07
-1.42032e-05
-7.19773e-06
-1.5387e-05
-6.97503e-06
8.59658e-07
-1.10299e-06
-7.67685e-06
7.7728e-07
-3.90176e-06
-7.97567e-06
8.46625e-07
-7.36277e-06
-7.96843e-06
8.74282e-07
-1.10143e-05
-7.77351e-06
7.79032e-07
-1.372e-05
-7.57406e-06
-1.50241e-05
-7.23526e-06
1.34294e-06
-1.05303e-06
-7.53545e-06
1.38923e-06
-3.50205e-06
-7.90619e-06
1.37824e-06
-6.66388e-06
-8.01138e-06
1.19861e-06
-1.02467e-05
-7.9361e-06
9.26059e-07
-1.30903e-05
-7.83078e-06
-1.47803e-05
-7.23711e-06
1.92471e-06
-1.32873e-06
-7.20993e-06
2.16941e-06
-3.44273e-06
-7.65952e-06
2.16218e-06
-6.16045e-06
-7.88337e-06
1.69555e-06
-9.40273e-06
-7.93105e-06
1.03234e-06
-1.21817e-05
-7.91972e-06
-1.45002e-05
-7.10303e-06
2.53458e-06
-1.92586e-06
-6.7164e-06
2.90692e-06
-3.64734e-06
-7.23046e-06
2.83456e-06
-5.78351e-06
-7.55865e-06
2.10301e-06
-8.4803e-06
-7.73056e-06
1.23444e-06
-1.11974e-05
-7.83024e-06
-1.40023e-05
-6.88266e-06
3.17884e-06
-2.65165e-06
-6.03109e-06
3.5889e-06
-3.96847e-06
-6.58635e-06
3.45653e-06
-5.4798e-06
-6.99834e-06
2.65484e-06
-7.62754e-06
-7.26968e-06
1.62788e-06
-1.02116e-05
-7.47488e-06
-1.3044e-05
-6.55663e-06
3.65832e-06
-3.2475e-06
-5.18447e-06
3.85584e-06
-4.11952e-06
-5.77173e-06
3.67507e-06
-5.17918e-06
-6.23433e-06
3.04336e-06
-6.96571e-06
-6.58234e-06
1.95814e-06
-9.16907e-06
-6.87513e-06
-1.1707e-05
-6.07477e-06
3.85137e-06
-4.11578e-06
-3.29402e-06
3.89146e-06
-4.71977e-06
-4.12052e-06
3.85307e-06
-5.20877e-06
-5.04134e-06
3.3545e-06
-5.64709e-06
-6.43813e-06
2.14193e-06
-6.03662e-06
-7.99462e-06
-5.38259e-06
-1.00863e-05
-3.10909e-06
-2.39312e-06
2.92805e-06
-3.62535e-06
-3.10842e-06
-4.00405e-06
4.28416e-06
-3.92542e-06
-2.52737e-06
-6.52441e-06
6.35282e-06
-4.02912e-06