/*--------------------------------*- C++ -*----------------------------------*\
| =========                 |                                                 |
| \\      /  F ield         | OpenFOAM: The Open Source CFD Toolbox           |
|  \\    /   O peration     | Version:  v2106                                 |
|   \\  /    A nd           | Website:  www.openfoam.com                      |
|    \\/     M anipulation  |                                                 |
\*---------------------------------------------------------------------------*/
FoamFile
{
    version     2.0;
    format      ascii;
    arch        "LSB;label=32;scalar=64";
    class       volScalarField;
    location    "0.000131";
    object      Ttot;
}
// * * * * * * * * * * * * * * * * * * * * * * * * * * * * * * * * * * * * * //

dimensions      [0 0 0 1 0 0 0];

internalField   nonuniform List<scalar> 
18109
(
306.168
305.939
305.861
305.737
305.654
305.585
305.562
306.13
305.961
305.848
305.731
305.656
305.598
305.575
306.028
305.924
305.834
305.746
305.679
305.621
305.587
305.973
305.893
305.819
305.743
305.674
305.617
305.578
305.856
305.804
305.758
305.707
305.656
305.61
305.57
305.792
305.767
305.734
305.685
305.643
305.601
305.56
305.712
305.71
305.695
305.662
305.625
305.587
305.547
305.697
305.698
305.688
305.662
305.625
305.587
305.544
306.344
306.172
306.118
306.026
305.966
305.917
305.899
305.892
305.908
305.947
306.011
306.046
306.107
306.149
306.323
306.194
306.116
306.031
305.977
305.933
305.915
305.901
305.912
305.929
305.962
305.978
306.003
305.986
306.247
306.168
306.107
306.047
305.998
305.953
305.922
305.895
305.89
305.895
305.911
305.907
305.902
305.9
306.198
306.146
306.096
306.043
305.991
305.943
305.906
305.876
305.865
305.859
305.859
305.851
305.829
305.812
306.105
306.078
306.051
306.016
305.973
305.931
305.891
305.858
305.838
305.826
305.812
305.797
305.766
305.742
306.06
306.05
306.03
305.997
305.958
305.918
305.876
305.84
305.814
305.795
305.773
305.754
305.72
305.687
306.005
306.01
306
305.977
305.942
305.904
305.861
305.823
305.792
305.77
305.745
305.723
305.694
305.658
305.997
306.004
306
305.979
305.943
305.904
305.858
305.818
305.784
305.758
305.733
305.711
305.687
305.658
305.991
306
306.001
305.981
305.946
305.905
305.857
305.817
305.783
305.757
305.737
305.717
305.705
305.692
306.026
306.03
306.027
306.006
305.967
305.923
305.873
305.832
305.799
305.771
305.755
305.736
305.737
305.734
306.071
306.068
306.059
306.038
305.996
305.948
305.895
305.854
305.822
305.799
305.789
305.782
305.805
305.818
306.167
306.144
306.113
306.085
306.032
305.982
305.93
305.889
305.86
305.843
305.836
305.841
305.875
305.909
306.224
306.207
306.159
306.124
306.06
306.008
305.959
305.923
305.896
305.885
305.887
305.912
305.978
306.042
306.374
306.343
306.256
306.192
306.104
306.047
305.998
305.965
305.943
305.943
305.963
306.005
306.081
306.193
306.149
306.415
306.489
306.564
306.528
306.375
306.313
306.53
306.632
306.752
306.844
306.917
306.098
306.202
306.214
306.241
306.184
305.975
306.021
306.045
305.987
305.869
305.56
304.893
305.936
305.898
305.779
305.531
305.001
304.02
305.886
305.792
305.616
305.287
304.684
303.637
305.855
305.747
305.561
305.217
304.61
303.677
305.861
305.781
305.632
305.351
304.876
304.137
305.871
305.825
305.732
305.558
305.287
304.888
305.913
305.903
305.885
305.838
305.766
305.65
305.979
306.005
306.059
306.118
306.211
306.314
306.068
306.131
306.239
306.367
306.556
306.779
306.114
306.212
306.347
306.523
306.768
307.057
306.202
306.291
306.448
306.642
306.892
307.216
306.163
306.297
306.442
306.662
306.896
307.209
306.18
306.377
306.482
306.634
306.78
306.983
305.912
306.009
306.077
306.217
306.362
306.516
305.839
305.895
305.926
306
306.053
306.043
305.747
305.751
305.731
305.726
305.691
305.528
305.682
305.647
305.596
305.529
305.417
305.128
305.632
305.569
305.497
305.398
305.252
304.919
305.613
305.551
305.488
305.398
305.258
304.994
305.639
305.612
305.585
305.545
305.475
305.34
305.694
305.697
305.712
305.724
305.758
305.782
305.764
305.808
305.887
305.98
306.122
306.28
305.881
305.954
306.086
306.241
306.481
306.759
305.992
306.105
306.274
306.493
306.791
307.135
306.158
306.285
306.494
306.734
307.047
307.42
306.254
306.44
306.636
306.907
307.196
307.559
306.372
306.606
306.795
307.028
307.256
307.511
306.129
306.28
306.438
306.654
306.873
307.08
306.069
306.193
306.318
306.453
306.563
306.617
306.009
306.082
306.135
306.175
306.164
306.019
305.973
306.004
306.007
305.966
305.853
305.552
305.963
305.962
305.93
305.836
305.656
305.289
305.982
305.976
305.913
305.803
305.611
305.29
306.02
306.029
305.983
305.9
305.738
305.541
306.069
306.095
306.086
306.088
306.063
306.034
306.133
306.213
306.262
306.35
306.442
306.56
306.238
306.346
306.447
306.611
306.81
307.052
306.329
306.474
306.633
306.868
307.135
307.465
306.421
306.58
306.76
307.019
307.302
307.671
306.387
306.548
306.713
306.957
307.204
307.511
306.049
306.175
306.329
306.533
306.795
307.127
306.139
306.333
306.55
306.846
307.183
307.603
306.231
306.432
306.663
306.986
307.334
307.774
306.179
306.39
306.577
306.846
307.091
307.356
306.394
306.596
306.675
306.809
306.895
306.968
306.167
306.266
306.242
306.248
306.176
305.96
306.09
306.11
306.022
305.867
305.507
304.822
306
305.966
305.826
305.545
304.963
304.023
305.963
305.886
305.701
305.357
304.692
303.714
305.944
305.85
305.653
305.304
304.69
303.771
305.971
305.91
305.76
305.474
304.989
304.317
305.993
305.958
305.88
305.733
305.491
305.124
306.066
306.082
306.084
306.054
306
305.897
306.135
306.206
306.288
306.377
306.486
306.587
306.253
306.356
306.485
306.649
306.854
307.099
306.329
306.477
306.647
306.882
307.156
307.481
306.397
306.544
306.721
306.978
307.265
307.625
306.354
306.512
306.66
306.887
307.122
307.405
306.815
306.634
306.262
306.266
306.815
305.112
303.5
301.602
300.369
300.152
303.091
300.157
297.175
295.627
296.191
301.786
298.367
295.488
294.837
297.105
301.424
298.013
295.557
296.263
300.207
301.705
298.905
297.314
298.869
303.493
302.759
300.976
300.346
302.453
306.865
304.19
303.38
303.471
305.649
309.795
312.624
305.487
305.472
306.067
307.981
311.132
313.28
306.545
307.111
308.1
309.722
311.814
312.862
307.299
308.296
309.592
311.113
312.519
313.14
312.246
307.711
308.893
310.344
311.909
313.417
314.1
312.535
307.435
307.914
309.149
310.653
312.363
314.092
315.618
314.342
313.771
307.867
309.082
310.504
312.027
313.559
315.113
316.329
316.24
307.415
308.315
309.417
310.727
312.378
314.738
317.409
316.126
306.659
306.916
307.194
307.459
308.494
310.235
313.137
313.739
305.729
305.133
304.134
303.581
303.857
305.266
307.589
311.927
304.748
303.345
301.588
300.37
300.23
301.75
303.422
304.002
304.212
302.551
300.661
299.649
300.085
302.016
302.61
298.093
304.091
302.421
300.561
299.658
300.672
302.794
303.983
299.697
304.341
303.1
301.665
301.035
301.863
303.313
304.871
299.743
304.986
304.402
303.564
303.293
304.157
305.341
305.345
302.75
305.8
305.753
305.583
305.667
306.611
308.197
306.595
307.051
307.494
307.95
308.744
310.182
307.336
308.237
309.172
310.059
310.981
311.683
307.856
309.031
310.323
311.652
313.008
314.038
308.189
309.481
310.91
312.574
314.358
316.207
308.311
309.62
311.062
312.582
314.287
308.075
309.092
310.273
311.572
313.186
307.356
307.769
308.157
308.539
309.581
306.439
305.971
305.153
304.866
305.378
305.392
304.165
302.642
301.8
302.164
304.778
303.262
301.782
301.429
302.519
304.51
302.986
301.684
301.761
303.506
304.569
303.538
302.749
303.303
304.961
305.185
304.714
304.499
305.417
306.909
305.994
306.039
306.38
307.449
308.782
306.838
307.398
308.175
309.377
310.513
307.571
308.518
309.713
311.075
312.269
308.124
309.276
310.62
312.089
313.634
308.39
309.623
310.979
312.567
314.186
308.053
308.978
309.864
310.845
312.181
306.879
306.76
306.431
306.501
307.012
305.109
303.608
302.02
301.081
301.021
303.04
300.381
297.812
296.791
297.728
301.839
298.807
296.376
296.315
298.994
301.484
298.524
296.68
298.145
302.318
301.906
299.551
298.658
300.988
305.6
303.093
301.649
301.686
304.434
308.617
304.513
303.995
304.644
307.345
311.101
305.827
306.069
307.115
309.429
312.195
306.907
307.721
309.016
310.926
312.745
307.687
308.84
310.267
311.914
313.255
308.158
309.399
310.868
312.315
313.762
308.332
309.593
311.031
312.486
313.809
307.902
308.796
309.744
310.667
311.964
306.626
306.525
306.508
306.472
306.453
306.434
306.435
306.435
306.452
306.469
306.497
306.498
306.517
306.52
306.642
306.568
306.533
306.496
306.477
306.461
306.459
306.454
306.458
306.466
306.468
306.453
306.444
306.405
306.614
306.574
306.55
306.528
306.512
306.491
306.477
306.459
306.45
306.437
306.434
306.41
306.376
306.349
306.611
306.589
306.567
306.544
306.52
306.496
306.474
306.453
306.438
306.422
306.402
306.374
306.33
306.298
306.562
306.562
306.552
306.537
306.514
306.491
306.467
306.442
306.42
306.398
306.369
306.337
306.288
306.252
306.539
306.546
306.539
306.527
306.506
306.483
306.456
306.427
306.4
306.374
306.339
306.304
306.256
306.214
306.508
306.521
306.519
306.51
306.49
306.467
306.437
306.408
306.377
306.349
306.312
306.276
306.233
306.192
306.499
306.513
306.515
306.505
306.482
306.458
306.426
306.394
306.362
306.33
306.294
306.257
306.223
306.189
306.487
306.502
306.505
306.494
306.471
306.445
306.413
306.381
306.347
306.315
306.283
306.251
306.23
306.208
306.498
306.508
306.51
306.498
306.473
306.446
306.412
306.379
306.345
306.313
306.284
306.256
306.245
306.238
306.519
306.525
306.52
306.507
306.478
306.447
306.41
306.377
306.346
306.318
306.292
306.279
306.283
306.291
306.575
306.566
306.544
306.527
306.492
306.458
306.421
306.39
306.361
306.338
306.316
306.314
306.326
306.352
306.603
306.599
306.563
306.545
306.502
306.467
306.43
306.4
306.377
306.359
306.346
306.355
306.394
306.447
306.7
306.681
306.622
306.586
306.525
306.488
306.45
306.421
306.403
306.394
306.398
306.418
306.472
306.557
306.785
306.755
306.763
306.765
306.778
306.784
306.802
306.817
306.844
306.871
306.894
306.91
306.937
306.95
306.83
306.812
306.812
306.809
306.819
306.825
306.843
306.858
306.879
306.893
306.908
306.912
306.92
306.906
306.837
306.836
306.844
306.852
306.864
306.872
306.884
306.892
306.902
306.909
306.914
306.91
306.895
306.88
306.864
306.876
306.886
306.895
306.903
306.909
306.914
306.918
306.924
306.927
306.922
306.91
306.882
306.859
306.868
306.889
306.903
306.916
306.924
306.93
306.933
306.935
306.936
306.935
306.922
306.904
306.867
306.834
306.874
306.903
306.922
306.937
306.944
306.949
306.949
306.948
306.946
306.939
306.921
306.898
306.857
306.814
306.875
306.906
306.927
306.944
306.951
306.955
306.954
306.952
306.947
306.938
306.916
306.889
306.848
306.803
306.883
306.914
306.938
306.955
306.961
306.965
306.961
306.957
306.95
306.937
306.913
306.883
306.847
306.803
306.893
306.923
306.945
306.961
306.965
306.968
306.963
306.958
306.949
306.934
306.911
306.883
306.855
306.818
306.918
306.944
306.961
306.975
306.976
306.977
306.97
306.963
306.952
306.937
306.917
306.892
306.873
306.846
306.944
306.968
306.978
306.989
306.985
306.984
306.975
306.968
306.957
306.944
306.928
306.914
306.903
306.894
306.995
307.011
307.009
307.014
307.004
306.999
306.988
306.979
306.971
306.96
306.949
306.948
306.945
306.947
307.034
307.052
307.037
307.037
307.021
307.011
307
306.99
306.984
306.977
306.979
306.986
307.001
307.028
307.109
307.11
307.079
307.071
307.045
307.031
307.017
307.009
307.008
307.008
307.021
307.037
307.071
307.126
306.745
306.745
306.773
306.792
306.823
306.847
306.878
306.906
306.936
306.967
306.999
307.032
307.074
307.109
306.811
306.814
306.838
306.856
306.883
306.906
306.936
306.963
306.992
307.017
307.042
307.067
307.094
307.117
306.843
306.858
306.885
306.908
306.937
306.962
306.99
307.012
307.035
307.055
307.073
307.092
307.105
307.125
306.894
306.917
306.943
306.967
306.992
307.016
307.039
307.058
307.078
307.097
307.109
307.123
307.124
307.138
306.928
306.957
306.985
307.011
307.035
307.057
307.078
307.095
307.113
307.128
307.136
307.146
307.144
307.151
306.966
306.998
307.026
307.053
307.076
307.097
307.115
307.131
307.146
307.159
307.164
307.171
307.167
307.166
306.999
307.031
307.06
307.087
307.11
307.13
307.146
307.161
307.174
307.186
307.189
307.195
307.191
307.183
307.038
307.069
307.096
307.123
307.143
307.163
307.177
307.192
307.203
307.214
307.217
307.222
307.219
307.206
307.074
307.103
307.128
307.153
307.172
307.191
307.205
307.219
307.229
307.241
307.245
307.249
307.25
307.238
307.121
307.146
307.166
307.189
307.205
307.223
307.235
307.249
307.259
307.27
307.278
307.281
307.288
307.279
307.165
307.189
307.204
307.224
307.237
307.254
307.265
307.279
307.29
307.302
307.314
307.319
307.331
307.327
307.223
307.243
307.251
307.268
307.277
307.291
307.301
307.314
307.326
307.338
307.355
307.367
307.381
307.384
307.272
307.295
307.296
307.31
307.316
307.328
307.338
307.352
307.366
307.38
307.404
307.421
307.44
307.456
307.337
307.354
307.347
307.36
307.362
307.372
307.381
307.396
307.411
307.432
307.458
307.483
307.51
307.546
306.619
306.633
306.666
306.694
306.73
306.763
306.801
306.837
306.877
306.916
306.956
306.998
307.043
307.083
306.695
306.709
306.741
306.768
306.804
306.835
306.872
306.907
306.944
306.979
307.013
307.048
307.08
307.111
306.746
306.768
306.802
306.833
306.869
306.902
306.938
306.97
307.002
307.033
307.06
307.089
307.109
307.137
306.808
306.835
306.869
306.901
306.936
306.969
307.002
307.032
307.061
307.088
307.111
307.133
307.145
307.165
306.863
306.894
306.928
306.962
306.996
307.028
307.06
307.088
307.114
307.138
307.156
307.174
307.181
307.196
306.917
306.95
306.985
307.019
307.052
307.084
307.114
307.141
307.165
307.186
307.202
307.217
307.221
307.23
306.967
307.001
307.036
307.07
307.103
307.135
307.163
307.189
307.212
307.233
307.247
307.261
307.265
307.27
307.021
307.055
307.088
307.122
307.153
307.184
307.211
307.237
307.26
307.281
307.295
307.308
307.313
307.315
307.073
307.106
307.137
307.17
307.199
307.229
307.257
307.284
307.307
307.328
307.344
307.356
307.365
307.365
307.131
307.162
307.19
307.221
307.249
307.278
307.305
307.331
307.355
307.377
307.396
307.408
307.422
307.42
307.186
307.217
307.242
307.271
307.298
307.326
307.353
307.38
307.405
307.428
307.45
307.463
307.48
307.478
307.248
307.278
307.3
307.327
307.351
307.379
307.405
307.431
307.457
307.481
307.506
307.523
307.542
307.542
307.3
307.333
307.353
307.379
307.403
307.43
307.456
307.484
307.511
307.538
307.564
307.585
307.602
307.61
307.362
307.394
307.41
307.436
307.458
307.486
307.511
307.539
307.565
307.597
307.622
307.648
307.669
307.691
306.419
306.432
306.454
306.475
306.503
306.531
306.565
306.6
306.638
306.677
306.716
306.758
306.798
306.839
306.491
306.499
306.521
306.542
306.57
306.599
306.632
306.666
306.703
306.74
306.777
306.813
306.845
306.878
306.548
306.562
306.585
306.608
306.637
306.666
306.698
306.731
306.765
306.798
306.83
306.861
306.886
306.915
306.61
306.627
306.65
306.675
306.703
306.733
306.765
306.796
306.828
306.859
306.887
306.914
306.933
306.954
306.67
306.689
306.714
306.74
306.769
306.799
306.83
306.86
306.89
306.918
306.943
306.966
306.98
306.996
306.731
306.753
306.778
306.805
306.835
306.865
306.895
306.925
306.953
306.979
307.001
307.02
307.03
307.041
306.792
306.815
306.841
306.869
306.899
306.929
306.96
306.989
307.016
307.039
307.058
307.074
307.082
307.088
306.854
306.879
306.905
306.933
306.962
306.993
307.023
307.052
307.077
307.1
307.117
307.131
307.137
307.14
306.915
306.942
306.967
306.996
307.025
307.055
307.084
307.113
307.138
307.16
307.176
307.188
307.195
307.194
306.979
307.006
307.03
307.059
307.087
307.117
307.145
307.173
307.198
307.22
307.237
307.249
307.258
307.253
307.039
307.068
307.091
307.119
307.146
307.176
307.205
307.233
307.258
307.28
307.298
307.31
307.322
307.315
307.101
307.131
307.153
307.181
307.207
307.236
307.265
307.293
307.319
307.341
307.361
307.375
307.389
307.382
307.155
307.188
307.21
307.238
307.265
307.294
307.324
307.353
307.379
307.404
307.425
307.441
307.453
307.451
307.214
307.246
307.269
307.297
307.324
307.354
307.383
307.413
307.44
307.466
307.487
307.507
307.522
307.53
306.225
306.227
306.234
306.243
306.257
306.272
306.292
306.315
306.341
306.369
306.398
306.429
306.46
306.493
306.284
306.281
306.289
306.298
306.311
306.327
306.347
306.37
306.395
306.422
306.45
306.479
306.506
306.535
306.335
306.335
306.343
306.353
306.367
306.383
306.402
306.424
306.448
306.473
306.499
306.525
306.548
306.574
306.389
306.391
306.399
306.409
306.423
306.44
306.459
306.48
306.504
306.527
306.551
306.574
306.595
306.617
306.442
306.447
306.456
306.467
306.481
306.498
306.517
306.538
306.56
306.581
306.603
306.623
306.641
306.66
306.498
306.504
306.514
306.526
306.541
306.558
306.577
306.597
306.618
306.638
306.657
306.675
306.69
306.706
306.553
306.562
306.573
306.586
306.601
306.619
306.637
306.657
306.676
306.695
306.712
306.728
306.74
306.752
306.611
306.621
306.632
306.647
306.663
306.681
306.699
306.718
306.737
306.754
306.769
306.783
306.793
306.802
306.667
306.68
306.692
306.707
306.724
306.743
306.761
306.78
306.797
306.814
306.827
306.838
306.847
306.852
306.725
306.74
306.751
306.768
306.785
306.804
306.823
306.842
306.859
306.875
306.887
306.897
306.905
306.905
306.78
306.797
306.809
306.827
306.845
306.865
306.884
306.903
306.92
306.936
306.948
306.957
306.965
306.959
306.836
306.855
306.868
306.886
306.905
306.926
306.945
306.965
306.982
306.997
307.01
307.019
307.028
307.021
306.889
306.908
306.922
306.942
306.962
306.984
307.005
307.026
307.044
307.06
307.073
307.081
307.089
307.084
306.944
306.963
306.98
307.001
307.022
307.043
307.065
307.086
307.105
307.122
307.135
307.146
307.152
307.155
306.01
306.004
306.002
306.003
306.005
306.01
306.018
306.028
306.041
306.055
306.072
306.09
306.108
306.132
306.056
306.047
306.046
306.045
306.048
306.053
306.061
306.071
306.083
306.097
306.114
306.131
306.149
306.171
306.097
306.09
306.089
306.089
306.091
306.096
306.104
306.113
306.126
306.139
306.154
306.17
306.187
306.206
306.141
306.135
306.134
306.134
306.137
306.142
306.149
306.158
306.17
306.183
306.197
306.212
306.228
306.246
306.184
306.18
306.18
306.18
306.183
306.188
306.196
306.205
306.216
306.227
306.241
306.254
306.269
306.284
306.23
306.227
306.227
306.228
306.231
306.237
306.244
306.252
306.263
306.274
306.286
306.299
306.311
306.325
306.275
306.274
306.274
306.276
306.28
306.286
306.293
306.301
306.311
306.321
306.332
306.343
306.354
306.365
306.322
306.322
306.323
306.326
306.33
306.336
306.343
306.352
306.361
306.37
306.38
306.389
306.398
306.408
306.368
306.37
306.372
306.376
306.381
306.388
306.395
306.403
306.411
306.42
306.428
306.436
306.443
306.449
306.415
306.419
306.422
306.427
306.432
306.439
306.447
306.455
306.463
306.471
306.478
306.484
306.49
306.493
306.462
306.468
306.471
306.477
306.484
306.492
306.5
306.508
306.515
306.523
306.529
306.534
306.539
306.537
306.511
306.518
306.522
306.529
306.537
306.545
306.553
306.561
306.569
306.576
306.581
306.586
306.591
306.587
306.559
306.565
306.572
306.58
306.589
306.598
306.607
306.615
306.623
306.629
306.635
306.638
306.643
306.639
306.61
306.617
306.625
306.633
306.643
306.652
306.661
306.67
306.678
306.684
306.69
306.694
306.697
306.698
305.8
305.79
305.784
305.779
305.776
305.774
305.774
305.776
305.778
305.782
305.787
305.793
305.802
305.812
305.834
305.823
305.817
305.811
305.808
305.807
305.807
305.808
305.81
305.814
305.819
305.826
305.835
305.844
305.866
305.855
305.85
305.844
305.841
305.84
305.84
305.841
305.843
305.847
305.851
305.857
305.865
305.874
305.899
305.89
305.884
305.879
305.876
305.874
305.874
305.875
305.877
305.88
305.885
305.891
305.898
305.907
305.932
305.924
305.918
305.914
305.911
305.909
305.909
305.91
305.912
305.915
305.92
305.925
305.931
305.939
305.966
305.959
305.954
305.95
305.947
305.945
305.945
305.946
305.948
305.95
305.955
305.959
305.965
305.972
306
305.994
305.99
305.986
305.983
305.982
305.982
305.982
305.984
305.986
305.99
305.994
305.999
306.005
306.036
306.031
306.026
306.023
306.021
306.019
306.019
306.02
306.021
306.023
306.026
306.03
306.034
306.039
306.071
306.067
306.063
306.061
306.059
306.058
306.058
306.058
306.059
306.06
306.062
306.065
306.068
306.072
306.107
306.105
306.101
306.099
306.098
306.097
306.097
306.097
306.098
306.099
306.1
306.102
306.105
306.106
306.144
306.143
306.14
306.139
306.138
306.137
306.137
306.137
306.137
306.138
306.139
306.14
306.142
306.14
306.183
306.183
306.18
306.179
306.179
306.178
306.178
306.178
306.179
306.179
306.179
306.18
306.182
306.179
306.222
306.222
306.221
306.221
306.221
306.221
306.221
306.22
306.221
306.22
306.22
306.22
306.221
306.217
306.266
306.265
306.264
306.264
306.264
306.264
306.264
306.264
306.264
306.263
306.263
306.263
306.263
306.263
305.586
305.575
305.567
305.56
305.554
305.549
305.544
305.54
305.537
305.534
305.532
305.532
305.532
305.534
305.611
305.599
305.592
305.585
305.579
305.573
305.569
305.565
305.561
305.559
305.557
305.557
305.557
305.56
305.634
305.623
305.616
305.609
305.604
305.598
305.594
305.59
305.586
305.584
305.582
305.582
305.581
305.584
305.658
305.648
305.642
305.635
305.629
305.624
305.62
305.616
305.612
305.61
305.608
305.608
305.607
305.609
305.682
305.674
305.667
305.661
305.655
305.65
305.646
305.642
305.638
305.636
305.634
305.633
305.632
305.634
305.707
305.699
305.693
305.687
305.682
305.677
305.672
305.668
305.665
305.662
305.66
305.659
305.658
305.659
305.732
305.725
305.719
305.713
305.708
305.703
305.699
305.695
305.691
305.688
305.686
305.684
305.684
305.684
305.758
305.752
305.746
305.74
305.735
305.73
305.726
305.721
305.718
305.715
305.712
305.71
305.709
305.709
305.783
305.778
305.772
305.767
305.762
305.757
305.753
305.748
305.745
305.741
305.738
305.736
305.735
305.734
305.81
305.805
305.8
305.795
305.79
305.785
305.78
305.776
305.772
305.768
305.765
305.762
305.761
305.759
305.837
305.833
305.827
305.823
305.818
305.813
305.809
305.804
305.8
305.795
305.792
305.789
305.787
305.785
305.865
305.861
305.856
305.851
305.847
305.842
305.837
305.833
305.828
305.824
305.82
305.816
305.815
305.811
305.894
305.89
305.885
305.881
305.876
305.872
305.867
305.862
305.857
305.852
305.848
305.844
305.842
305.837
305.925
305.92
305.915
305.911
305.906
305.902
305.897
305.892
305.887
305.882
305.878
305.873
305.871
305.868
305.357
305.347
305.339
305.331
305.324
305.317
305.31
305.304
305.297
305.291
305.285
305.28
305.274
305.272
305.373
305.364
305.357
305.349
305.342
305.335
305.329
305.322
305.315
305.309
305.303
305.298
305.293
305.291
305.389
305.381
305.374
305.367
305.36
305.354
305.347
305.341
305.334
305.328
305.322
305.317
305.311
305.309
305.406
305.398
305.392
305.385
305.379
305.372
305.366
305.36
305.353
305.347
305.341
305.336
305.33
305.327
305.423
305.416
305.41
305.403
305.397
305.391
305.385
305.378
305.372
305.366
305.36
305.354
305.348
305.345
305.44
305.434
305.428
305.422
305.416
305.409
305.403
305.397
305.39
305.384
305.378
305.372
305.366
305.362
305.457
305.452
305.446
305.44
305.434
305.427
305.421
305.415
305.408
305.402
305.396
305.39
305.384
305.379
305.475
305.469
305.464
305.458
305.452
305.445
305.439
305.433
305.426
305.42
305.414
305.407
305.401
305.396
305.492
305.487
305.481
305.476
305.47
305.463
305.457
305.45
305.444
305.437
305.431
305.425
305.419
305.412
305.509
305.505
305.499
305.493
305.487
305.481
305.475
305.468
305.462
305.455
305.448
305.441
305.436
305.428
305.527
305.522
305.517
305.511
305.505
305.499
305.492
305.486
305.479
305.472
305.466
305.458
305.452
305.445
305.544
305.54
305.534
305.529
305.523
305.516
305.51
305.503
305.496
305.489
305.482
305.475
305.469
305.461
305.562
305.557
305.552
305.546
305.54
305.534
305.527
305.52
305.513
305.506
305.499
305.491
305.485
305.476
305.58
305.575
305.569
305.564
305.558
305.551
305.545
305.538
305.531
305.523
305.516
305.508
305.501
305.493
305.094
305.086
305.08
305.072
305.065
305.058
305.05
305.042
305.035
305.027
305.019
305.012
305.004
304.998
305.105
305.097
305.091
305.084
305.077
305.07
305.063
305.055
305.047
305.039
305.031
305.024
305.015
305.009
305.114
305.108
305.102
305.096
305.089
305.082
305.075
305.068
305.06
305.053
305.044
305.037
305.028
305.022
305.125
305.119
305.114
305.107
305.101
305.094
305.087
305.08
305.072
305.065
305.056
305.049
305.04
305.033
305.136
305.13
305.125
305.119
305.113
305.106
305.099
305.092
305.085
305.077
305.069
305.061
305.052
305.044
305.146
305.141
305.136
305.13
305.124
305.118
305.111
305.104
305.096
305.088
305.08
305.072
305.063
305.055
305.156
305.152
305.147
305.141
305.135
305.129
305.122
305.115
305.107
305.099
305.091
305.082
305.074
305.065
305.167
305.162
305.157
305.152
305.146
305.139
305.132
305.125
305.118
305.109
305.101
305.092
305.084
305.075
305.176
305.172
305.167
305.162
305.156
305.149
305.143
305.135
305.128
305.12
305.111
305.102
305.094
305.084
305.186
305.182
305.177
305.171
305.166
305.159
305.152
305.145
305.137
305.129
305.121
305.112
305.103
305.093
305.194
305.191
305.186
305.18
305.175
305.168
305.161
305.154
305.146
305.138
305.129
305.12
305.111
305.101
305.203
305.199
305.194
305.189
305.183
305.177
305.17
305.162
305.154
305.146
305.137
305.128
305.119
305.108
305.21
305.207
305.202
305.197
305.191
305.184
305.177
305.17
305.162
305.153
305.144
305.135
305.126
305.115
305.218
305.214
305.209
305.203
305.197
305.191
305.184
305.177
305.169
305.16
305.152
305.142
305.133
305.122
304.793
304.787
304.782
304.776
304.77
304.764
304.757
304.75
304.742
304.734
304.726
304.718
304.71
304.702
304.799
304.794
304.789
304.783
304.777
304.771
304.764
304.757
304.749
304.741
304.733
304.725
304.716
304.708
304.804
304.799
304.795
304.789
304.784
304.777
304.771
304.764
304.756
304.749
304.741
304.732
304.723
304.715
304.809
304.805
304.801
304.796
304.79
304.784
304.778
304.77
304.763
304.755
304.747
304.739
304.73
304.721
304.814
304.811
304.806
304.801
304.796
304.79
304.784
304.777
304.769
304.761
304.753
304.745
304.736
304.727
304.819
304.816
304.812
304.807
304.802
304.796
304.789
304.782
304.775
304.767
304.759
304.75
304.741
304.732
304.824
304.821
304.817
304.812
304.807
304.801
304.795
304.788
304.78
304.772
304.764
304.755
304.746
304.737
304.829
304.825
304.821
304.817
304.812
304.806
304.799
304.793
304.785
304.777
304.769
304.76
304.751
304.741
304.832
304.829
304.825
304.821
304.816
304.81
304.804
304.797
304.789
304.781
304.773
304.764
304.754
304.745
304.836
304.832
304.829
304.824
304.819
304.813
304.807
304.8
304.793
304.785
304.776
304.767
304.758
304.748
304.838
304.835
304.831
304.827
304.822
304.816
304.81
304.803
304.795
304.787
304.779
304.77
304.76
304.751
304.84
304.837
304.833
304.829
304.824
304.818
304.812
304.805
304.797
304.789
304.781
304.772
304.762
304.752
304.842
304.838
304.834
304.83
304.825
304.819
304.813
304.806
304.798
304.79
304.781
304.772
304.763
304.753
304.842
304.839
304.835
304.83
304.825
304.819
304.813
304.806
304.799
304.791
304.782
304.773
304.764
304.754
304.468
304.465
304.462
304.458
304.453
304.448
304.443
304.437
304.431
304.425
304.418
304.411
304.404
304.396
304.471
304.468
304.465
304.461
304.456
304.451
304.446
304.44
304.434
304.427
304.42
304.413
304.406
304.398
304.473
304.47
304.467
304.463
304.459
304.454
304.449
304.443
304.437
304.43
304.424
304.416
304.409
304.401
304.475
304.472
304.469
304.465
304.461
304.456
304.451
304.445
304.439
304.433
304.426
304.419
304.411
304.404
304.476
304.474
304.471
304.467
304.463
304.459
304.453
304.448
304.442
304.435
304.428
304.421
304.413
304.406
304.478
304.475
304.472
304.469
304.465
304.46
304.455
304.45
304.444
304.437
304.43
304.423
304.415
304.408
304.479
304.477
304.474
304.47
304.466
304.462
304.457
304.451
304.445
304.438
304.432
304.424
304.417
304.409
304.48
304.477
304.475
304.471
304.467
304.463
304.458
304.452
304.446
304.439
304.433
304.425
304.418
304.41
304.48
304.478
304.475
304.471
304.468
304.463
304.458
304.453
304.446
304.44
304.433
304.426
304.418
304.411
304.48
304.477
304.475
304.471
304.467
304.463
304.458
304.452
304.446
304.44
304.433
304.426
304.418
304.411
304.479
304.477
304.474
304.471
304.467
304.462
304.457
304.452
304.446
304.439
304.432
304.425
304.417
304.41
304.478
304.475
304.473
304.469
304.465
304.461
304.456
304.45
304.444
304.438
304.431
304.424
304.416
304.409
304.477
304.474
304.471
304.467
304.463
304.459
304.454
304.448
304.442
304.435
304.429
304.421
304.414
304.407
304.475
304.472
304.469
304.465
304.461
304.456
304.451
304.446
304.44
304.434
304.427
304.42
304.413
304.406
304.147
304.145
304.144
304.141
304.139
304.136
304.132
304.128
304.124
304.12
304.115
304.11
304.104
304.098
304.148
304.147
304.145
304.142
304.14
304.137
304.133
304.129
304.125
304.12
304.115
304.11
304.104
304.098
304.149
304.147
304.145
304.143
304.14
304.137
304.134
304.13
304.126
304.121
304.116
304.111
304.105
304.099
304.149
304.148
304.146
304.144
304.141
304.138
304.134
304.13
304.126
304.122
304.117
304.111
304.106
304.1
304.149
304.148
304.146
304.144
304.141
304.138
304.135
304.131
304.127
304.122
304.117
304.112
304.106
304.101
304.149
304.148
304.146
304.144
304.141
304.138
304.135
304.131
304.127
304.122
304.117
304.112
304.107
304.101
304.149
304.148
304.146
304.143
304.141
304.138
304.134
304.13
304.126
304.122
304.117
304.112
304.107
304.101
304.148
304.147
304.145
304.143
304.14
304.137
304.134
304.13
304.126
304.121
304.116
304.111
304.106
304.101
304.147
304.146
304.144
304.142
304.139
304.136
304.133
304.129
304.124
304.12
304.115
304.11
304.105
304.1
304.146
304.144
304.142
304.14
304.137
304.134
304.131
304.127
304.123
304.118
304.114
304.109
304.104
304.099
304.145
304.143
304.141
304.138
304.136
304.133
304.129
304.125
304.121
304.116
304.112
304.107
304.102
304.097
304.143
304.141
304.139
304.136
304.134
304.13
304.127
304.123
304.119
304.114
304.11
304.105
304.1
304.095
304.141
304.139
304.137
304.134
304.132
304.128
304.125
304.121
304.116
304.112
304.107
304.103
304.098
304.093
304.139
304.137
304.134
304.132
304.129
304.126
304.122
304.118
304.114
304.11
304.105
304.101
304.096
304.092
303.851
303.851