/*--------------------------------*- C++ -*----------------------------------*\
| =========                 |                                                 |
| \\      /  F ield         | OpenFOAM: The Open Source CFD Toolbox           |
|  \\    /   O peration     | Version:  v2106                                 |
|   \\  /    A nd           | Website:  www.openfoam.com                      |
|    \\/     M anipulation  |                                                 |
\*---------------------------------------------------------------------------*/
FoamFile
{
    version     2.0;
    format      ascii;
    arch        "LSB;label=32;scalar=64";
    class       volScalarField;
    location    "0.000153";
    object      alphat;
}
// * * * * * * * * * * * * * * * * * * * * * * * * * * * * * * * * * * * * * //

dimensions      [1 -1 -1 0 0 0 0];

internalField   nonuniform List<scalar> 
144746
(
9.86238e-05
8.40057e-05
6.73563e-05
4.91519e-05
3.28554e-05
2.11273e-05
1.57622e-05
1.59473e-05
2.18231e-05
3.33132e-05
4.98848e-05
6.89424e-05
8.46181e-05
9.42193e-05
0.000101682
8.56024e-05
6.58083e-05
4.37203e-05
2.53917e-05
1.39875e-05
8.78272e-06
7.98816e-06
1.16892e-05
2.00776e-05
3.27592e-05
4.80711e-05
6.23059e-05
7.26573e-05
0.000102619
8.13637e-05
5.6708e-05
3.23509e-05
1.56258e-05
7.17533e-06
3.72782e-06
3.16724e-06
5.41617e-06
1.11731e-05
2.05888e-05
3.22236e-05
4.36254e-05
5.31029e-05
9.4948e-05
6.68378e-05
3.99762e-05
1.81792e-05
6.97038e-06
2.60523e-06
1.08246e-06
9.31405e-07
2.10416e-06
5.42246e-06
1.15988e-05
1.99043e-05
2.84397e-05
3.61317e-05
7.85903e-05
4.77922e-05
2.33607e-05
8.30182e-06
3.16475e-06
1.12944e-06
3.78258e-07
3.0248e-07
8.28637e-07
2.49084e-06
6.08044e-06
1.17017e-05
1.8398e-05
2.53448e-05
6.01849e-05
3.21675e-05
1.41476e-05
6.60704e-06
3.29533e-06
1.28294e-06
4.59972e-07
3.1976e-07
5.72291e-07
1.45063e-06
3.52839e-06
7.35733e-06
1.3029e-05
2.02024e-05
4.62899e-05
2.48448e-05
1.39897e-05
9.15442e-06
5.02011e-06
2.19554e-06
1.00012e-06
8.20188e-07
1.10963e-06
1.96438e-06
3.81955e-06
7.35049e-06
1.31367e-05
2.12386e-05
3.94292e-05
2.58126e-05
1.97615e-05
1.43812e-05
8.73611e-06
4.36735e-06
2.35225e-06
2.1477e-06
2.82395e-06
4.34838e-06
7.10582e-06
1.17668e-05
1.87999e-05
2.848e-05
3.91419e-05
3.23918e-05
2.88962e-05
2.2838e-05
1.54959e-05
8.71049e-06
5.07613e-06
4.73948e-06
6.25442e-06
9.17215e-06
1.37244e-05
2.04357e-05
2.94608e-05
4.12627e-05
4.40693e-05
4.28449e-05
4.16446e-05
3.55064e-05
2.67779e-05
1.68551e-05
1.01559e-05
8.82368e-06
1.1247e-05
1.58844e-05
2.25242e-05
3.15957e-05
4.32769e-05
5.77933e-05
5.17009e-05
5.42282e-05
5.66867e-05
5.28041e-05
4.3711e-05
3.10389e-05
1.979e-05
1.51072e-05
1.71015e-05
2.29039e-05
3.13272e-05
4.28292e-05
5.73069e-05
7.43672e-05
6.2576e-05
6.72941e-05
7.30966e-05
7.33805e-05
6.52597e-05
5.1347e-05
3.61801e-05
2.63373e-05
2.469e-05
2.94435e-05
3.83195e-05
5.13933e-05
6.76475e-05
8.65494e-05
7.56044e-05
8.01657e-05
8.78135e-05
9.27742e-05
8.83995e-05
7.53974e-05
5.81177e-05
4.36654e-05
3.64209e-05
3.70589e-05
4.39526e-05
5.6918e-05
7.33925e-05
9.31967e-05
9.13492e-05
9.48091e-05
0.000101681
0.000108275
0.000108601
9.82007e-05
8.1286e-05
6.42043e-05
5.23235e-05
4.80235e-05
5.11783e-05
6.2208e-05
7.78892e-05
9.76195e-05
8.31758e-05
6.98822e-05
5.61772e-05
4.13759e-05
2.88743e-05
2.06891e-05
1.90232e-05
2.3588e-05
3.36454e-05
4.76951e-05
6.40238e-05
7.93501e-05
8.8242e-05
9.02661e-05
8.9525e-05
7.36661e-05
5.60151e-05
3.72145e-05
2.19938e-05
1.27377e-05
9.37104e-06
1.1111e-05
1.78294e-05
2.86575e-05
4.18608e-05
5.50092e-05
6.40302e-05
6.82387e-05
9.44066e-05
7.30248e-05
5.02726e-05
2.85185e-05
1.3768e-05
6.29642e-06
3.63048e-06
4.24054e-06
8.25856e-06
1.60089e-05
2.64056e-05
3.70361e-05
4.50811e-05
5.02161e-05
9.18355e-05
6.34629e-05
3.74036e-05
1.68403e-05
6.27664e-06
2.20809e-06
9.87727e-07
1.2849e-06
3.29822e-06
7.86134e-06
1.50557e-05
2.3124e-05
2.9979e-05
3.54915e-05
8.15717e-05
4.88921e-05
2.32396e-05
8.09921e-06
2.80766e-06
9.15417e-07
3.25098e-07
4.30859e-07
1.31749e-06
3.62909e-06
7.92861e-06
1.37888e-05
2.0231e-05
2.72082e-05
6.75814e-05
3.51092e-05
1.43039e-05
6.08798e-06
2.81285e-06
1.03359e-06
3.87925e-07
3.65117e-07
8.05882e-07
2.05414e-06
4.70418e-06
9.26237e-06
1.59975e-05
2.51466e-05
5.52521e-05
2.71551e-05
1.3477e-05
8.22075e-06
4.32339e-06
1.86596e-06
9.22439e-07
8.82739e-07
1.37577e-06
2.66201e-06
5.36375e-06
1.03707e-05
1.85729e-05
3.03457e-05
4.73598e-05
2.67164e-05
1.85487e-05
1.2944e-05
7.76955e-06
3.96827e-06
2.3377e-06
2.36851e-06
3.39184e-06
5.62565e-06
9.75234e-06
1.67023e-05
2.72947e-05
4.18519e-05
4.49523e-05
3.20051e-05
2.69133e-05
2.07367e-05
1.42172e-05
8.34088e-06
5.28529e-06
5.325e-06
7.39483e-06
1.13294e-05
1.76186e-05
2.69199e-05
3.97274e-05
5.67342e-05
4.76099e-05
4.10485e-05
3.8394e-05
3.25225e-05
2.51567e-05
1.67555e-05
1.08822e-05
9.95533e-06
1.29756e-05
1.86362e-05
2.67841e-05
3.79352e-05
5.25309e-05
7.17435e-05
5.2142e-05
5.01444e-05
5.14168e-05
4.85586e-05
4.18302e-05
3.16834e-05
2.16293e-05
1.70995e-05
1.92654e-05
2.55617e-05
3.46287e-05
4.70816e-05
6.31781e-05
8.33632e-05
5.88582e-05
6.02239e-05
6.5351e-05
6.74968e-05
6.29631e-05
5.33339e-05
4.07357e-05
3.07708e-05
2.81317e-05
3.21844e-05
4.03187e-05
5.26738e-05
6.8527e-05
8.85307e-05
6.64026e-05
6.91945e-05
7.73267e-05
8.48225e-05
8.53017e-05
7.84253e-05
6.60322e-05
5.26486e-05
4.35972e-05
4.17324e-05
4.58262e-05
5.58307e-05
6.95536e-05
8.86418e-05
7.69882e-05
8.03648e-05
8.90158e-05
9.93644e-05
0.000105978
0.000102871
9.25644e-05
7.85188e-05
6.52063e-05
5.70198e-05
5.53044e-05
6.08718e-05
7.14715e-05
8.85094e-05
6.60717e-05
5.50225e-05
4.5223e-05
3.44754e-05
2.63587e-05
2.27928e-05
2.59971e-05
3.47688e-05
4.58032e-05
5.61384e-05
6.47608e-05
7.10244e-05
7.31061e-05
7.11946e-05
7.02628e-05
5.59792e-05
4.22476e-05
2.8551e-05
1.78797e-05
1.17444e-05
1.11617e-05
1.57248e-05
2.40502e-05
3.39456e-05
4.3261e-05
5.07102e-05
5.39924e-05
5.45355e-05
7.28975e-05
5.4745e-05
3.70857e-05
2.12332e-05
1.05538e-05
5.07296e-06
3.69973e-06
5.56672e-06
1.0649e-05
1.85372e-05
2.74874e-05
3.53764e-05
4.00375e-05
4.28549e-05
7.14607e-05
4.87247e-05
2.81911e-05
1.26751e-05
4.70364e-06
1.61264e-06
8.66506e-07
1.5588e-06
4.01869e-06
8.83966e-06
1.57979e-05
2.27561e-05
2.81695e-05
3.31321e-05
6.78888e-05
4.07612e-05
1.87428e-05
6.60122e-06
2.13813e-06
6.35936e-07
2.5147e-07
4.8121e-07
1.512e-06
3.95559e-06
8.19298e-06
1.37762e-05
2.02425e-05
2.86512e-05
6.32615e-05
3.28241e-05
1.26283e-05
5.06663e-06
2.0692e-06
6.89192e-07
2.61764e-07
3.167e-07
8.1144e-07
2.13081e-06
4.92186e-06
9.92942e-06
1.81238e-05
3.05401e-05
5.8764e-05
2.74609e-05
1.21533e-05
6.57611e-06
3.1311e-06
1.27379e-06
6.55166e-07
7.07805e-07
1.25895e-06
2.7005e-06
5.89471e-06
1.22045e-05
2.32631e-05
3.97506e-05
5.50662e-05
2.70331e-05
1.62266e-05
1.02407e-05
5.74345e-06
2.87143e-06
1.8007e-06
1.98467e-06
3.07736e-06
5.55375e-06
1.04711e-05
1.92896e-05
3.33549e-05
5.26698e-05
5.22165e-05
3.13635e-05
2.30851e-05
1.65209e-05
1.08219e-05
6.37998e-06
4.3459e-06
4.69431e-06
6.81309e-06
1.0985e-05
1.80317e-05
2.89197e-05
4.43194e-05
6.42395e-05
5.26258e-05
3.88712e-05
3.24035e-05
2.57807e-05
1.95631e-05
1.33458e-05
9.36528e-06
9.15913e-06
1.21875e-05
1.7893e-05
2.62948e-05
3.77751e-05
5.2755e-05
7.14797e-05
5.47541e-05
4.59466e-05
4.30034e-05
3.82436e-05
3.28369e-05
2.58579e-05
1.9157e-05
1.6325e-05
1.858e-05
2.46526e-05
3.31178e-05
4.40107e-05
5.75586e-05
7.4654e-05
5.87004e-05
5.38483e-05
5.42412e-05
5.33537e-05
5.00103e-05
4.46998e-05
3.68726e-05
2.98879e-05
2.7942e-05
3.17181e-05
3.84837e-05
4.79525e-05
5.92004e-05
7.41591e-05
6.21803e-05
6.008e-05
6.34881e-05
6.695e-05
6.76853e-05
6.61464e-05
6.10537e-05
5.29854e-05
4.55478e-05
4.3044e-05
4.48601e-05
5.08887e-05
5.87486e-05
7.19372e-05
6.84366e-05
6.8334e-05
7.25756e-05
7.88657e-05
8.46006e-05
8.66331e-05
8.54307e-05
7.95526e-05
7.00931e-05
6.15919e-05
5.70014e-05
5.75643e-05
6.11407e-05
7.1098e-05
0.000101553
0.00011955
0.000145067
0.000183741
0.000251192
9.45036e-05
8.05593e-05
9.75317e-05
0.000123768
0.000170934
0.000266603
0.000105044
6.05349e-05
7.45902e-05
9.82799e-05
0.000150002
0.000274259
0.000115336
4.31354e-05
5.51521e-05
7.59024e-05
0.000126739
0.000270631
0.000124218
3.24786e-05
4.37622e-05
6.26309e-05
0.000110007
0.000260973
0.000131816
2.84759e-05
4.05362e-05
5.9645e-05
0.000102999
0.000247147
0.000138361
3.10599e-05
4.51199e-05
6.67377e-05
0.000107005
0.000231396
0.000143772
3.99883e-05
5.69658e-05
8.20386e-05
0.000120014
0.00021714
0.000146911
5.43902e-05
7.41202e-05
0.000101674
0.000137183
0.00020483
0.000147955
7.13998e-05
9.24061e-05
0.000120585
0.000153082
0.000193988
0.000148792
8.70045e-05
0.000107239
0.000134956
0.000165045
0.000190248
0.000148127
9.80258e-05
0.000116455
0.000143619
0.000173933
0.000201027
0.000142829
0.000103654
0.000120479
0.000146881
0.000180671
0.000225343
0.00013147
0.000105752
0.000121623
0.000148909
0.000188349
0.000255615
0.000112354
9.1752e-05
0.000106463
0.000128715
0.000167161
0.000237862
0.000112685
7.12213e-05
8.31199e-05
0.00010303
0.000142706
0.000222019
0.0001233
5.38163e-05
6.34062e-05
8.07631e-05
0.000118987
0.0002061
0.000131336
4.09445e-05
5.12464e-05
6.82838e-05
0.000104214
0.000191288
0.000137342
3.52864e-05
4.79086e-05
6.67495e-05
0.000101291
0.000182595
0.000142888
3.65408e-05
5.29241e-05
7.60941e-05
0.000111054
0.000179974
0.000147655
4.49759e-05
6.63505e-05
9.58781e-05
0.000131949
0.00018217
0.000151867
5.94037e-05
8.57958e-05
0.000121348
0.000157961
0.000186267
0.000154704
7.60706e-05
0.000105485
0.000143763
0.000182107
0.000192703
0.000156915
9.01311e-05
0.000118775
0.000156192
0.000198546
0.000204796
0.000160023
9.84495e-05
0.000123213
0.000157743
0.000202787
0.000223189
0.000162532
0.00010054
0.000120261
0.000151018
0.000196764
0.000245211
0.00015974
9.84453e-05
0.000114055
0.000140778
0.000185407
0.000262275
0.000148909
9.5516e-05
0.000109321
0.000134549
0.000178491
0.000269836
0.000129046
6.84845e-05
7.59668e-05
8.68224e-05
0.000107991
0.000151826
0.000118687
5.42431e-05
6.07825e-05
7.11528e-05
9.19848e-05
0.000136817
0.000125369
4.51422e-05
5.23563e-05
6.36585e-05
8.48712e-05
0.000129636
0.000132323
3.94178e-05
5.03889e-05
6.5379e-05
8.93766e-05
0.000133631
0.000140385
4.00549e-05
5.62058e-05
7.66922e-05
0.000105605
0.000149405
0.0001518
4.72907e-05
6.99328e-05
9.82526e-05
0.000133338
0.000173954
0.000165919
6.10487e-05
9.03526e-05
0.000126662
0.000166555
0.00019919
0.000179956
7.65835e-05
0.000110293
0.000151542
0.000193844
0.000217232
0.000191218
8.78114e-05
0.000121286
0.000162558
0.000207469
0.000226129
0.000198341
9.08178e-05
0.000118977
0.000155802
0.000205178
0.00022894
0.000199662
8.78962e-05
0.000108121
0.000136854
0.00018572
0.00022527
0.000193428
8.26357e-05
9.53866e-05
0.000115903
0.000155975
0.000213768
0.000179149
7.77175e-05
8.62689e-05
0.000101169
0.000132238
0.000198936
0.000158537
7.4497e-05
8.23422e-05
9.6073e-05
0.000123432
0.000185712
0.000133603
0.000105096
0.000124822
0.000154792
0.000201683
0.000279881
9.40534e-05
8.60638e-05
0.000105728
0.000137212
0.000192055
0.000289817
0.000104212
7.07535e-05
8.95191e-05
0.000120478
0.000178479
0.000290909
0.000114264
6.20714e-05
8.09012e-05
0.000110659
0.00016676
0.00028279
0.000123155
6.21001e-05
8.17732e-05
0.000110463
0.000162106
0.000271998
0.000130268
6.9762e-05
9.06163e-05
0.000118364
0.000164467
0.000260559
0.000135103
8.3015e-05
0.000103832
0.000130014
0.000170719
0.000249316
0.000138783
9.75375e-05
0.000116298
0.000140131
0.000176197
0.000238314
0.000142904
0.000108162
0.000123622
0.000145448
0.000178864
0.000228852
0.0001483
0.000112657
0.000125341
0.00014627
0.000178847
0.000223578
0.000154607
0.000112111
0.000123233
0.00014435
0.000176948
0.000229358
0.00015643
0.000108023
0.000118772
0.00014033
0.000175875
0.000247073
0.000151977
0.000102595
0.000113472
0.000135723
0.000177359
0.000272506
0.000141003
9.83037e-05
0.000110507
0.000135658
0.000186085
0.00030372
0.000121253
9.36332e-05
0.000110783
0.000137539
0.000182795
0.000263772
0.000113438
7.88154e-05
9.54178e-05
0.000121278
0.000165421
0.000243577
0.000125576
7.06416e-05
8.79668e-05
0.000113598
0.000154772
0.000227865
0.000136286
6.96756e-05
8.96502e-05
0.000116525
0.000154589
0.000216389
0.000146296
7.6352e-05
9.98814e-05
0.000128682
0.000163999
0.000211727
0.000154497
8.87081e-05
0.000114741
0.000144637
0.000177791
0.00021147
0.000160952
0.000102282
0.000127873
0.000157071
0.000190314
0.000215085
0.000167838
0.000112108
0.000134034
0.000160669
0.00019652
0.000222384
0.000175474
0.000114735
0.000131107
0.000154371
0.000194218
0.000233724
0.000182848
0.000110845
0.000122255
0.000142517
0.000183321
0.000245084
0.000188312
0.000102837
0.000111769
0.000130417
0.000169426
0.000253064
0.000189737
9.34361e-05
0.000101937
0.000119952
0.000158562
0.000259164
0.000183127
8.55768e-05
9.44442e-05
0.000113014
0.000154123
0.000265971
0.00016738
8.16654e-05
9.20884e-05
0.000113631
0.000159871
0.00028
0.00014139
7.50314e-05
8.62069e-05
0.000102269
0.000130227
0.0001757
0.000124435
6.86193e-05
8.11707e-05
9.87903e-05
0.000126775
0.000169685
0.000137359
6.89981e-05
8.44049e-05
0.000104523
0.000133522
0.000174135
0.000152349
7.40874e-05
9.41307e-05
0.000118381
0.000149422
0.000187084
0.000169969
8.39803e-05
0.000108822
0.000137173
0.000169979
0.000203194
0.000188331
9.57177e-05
0.000122714
0.000152547
0.00018575
0.000214355
0.000205422
0.000103837
0.000128327
0.000155589
0.000188397
0.000214429
0.000219896
0.000104698
0.000122889
0.000144639
0.000176986
0.000204865
0.000228394
9.88233e-05
0.000110349
0.000125346
0.000155723
0.000193359
0.000229112
9.0288e-05
9.68601e-05
0.000106762
0.000133102
0.000181511
0.00022167
8.17198e-05
8.62104e-05
9.45345e-05
0.00011729
0.000174581
0.00020861
7.49184e-05
7.93132e-05
8.79738e-05
0.000110047
0.000173476
0.000189773
7.09255e-05
7.612e-05
8.65304e-05
0.000111262
0.000177478
0.000166833
7.06305e-05
7.7896e-05
9.1962e-05
0.000121841
0.000190915
0.000140586
0.000113925
0.000248827
0.000165172
0.000131371
0.000112859
0.000103472
0.000134386
0.000226248
0.000162871
0.000134501
0.000116826
0.000107275
0.000149722
0.000209164
0.000162888
0.000137539
0.000120052
0.000109753
0.000159983
0.0002008
0.000163968
0.000139162
0.000120567
0.000107557
0.000164019
0.000204898
0.000166637
0.000139043
0.000117235
9.89741e-05
0.000161804
0.000220685
0.000169693
0.000136247
0.000109601
8.56956e-05
0.000156938
0.00023905
0.000170251
0.000130502
9.87533e-05
7.17984e-05
0.00015127
0.000257703
0.000166195
0.000120828
8.71936e-05
6.06762e-05
0.000144697
0.00027366
0.000160317
0.000110602
7.7924e-05
5.4458e-05
0.000137289
0.000289525
0.000156579
0.000102951
7.24251e-05
5.29451e-05
0.000128635
0.000303685
0.000159293
0.000101513
7.24046e-05
5.60976e-05
0.000119026
0.000317683
0.000170824
0.000108594
7.93405e-05
6.44426e-05
0.000108621
0.000323908
0.000188151
0.000123972
9.34085e-05
7.77749e-05
9.79507e-05
0.00033138
0.000207656
0.000144501
0.000112337
9.49477e-05
0.000131363
0.000223096
0.000138667
0.000107864
9.35266e-05
8.67389e-05
0.000154766
0.000218213
0.000144024
0.000116106
0.00010178
9.39796e-05
0.00017147
0.000215218
0.000153264
0.000125922
0.000110794
0.000101299
0.000181602
0.000212055
0.000163836
0.0001358
0.000118579
0.000105261
0.000185609
0.000209856
0.000174958
0.00014514
0.000123684
0.000103834
0.000185011
0.000209489
0.000185378
0.00015238
0.000124482
9.71328e-05
0.00018109
0.000210374
0.000190672
0.000155554
0.000120184
8.76591e-05
0.000174889
0.000214738
0.000188113
0.000150717
0.000112041
7.76657e-05
0.000167729
0.000220302
0.000179047
0.000139889
0.000101651
6.95525e-05
0.000160428
0.000227677
0.000167223
0.000125956
9.12215e-05
6.44266e-05
0.00015173
0.000236378
0.000157836
0.000114941
8.44466e-05
6.304e-05
0.000141241
0.000251152
0.000155918
0.000110288
8.27547e-05
6.53084e-05
0.000130024
0.000266214
0.000163475
0.000113621
8.70342e-05
7.13361e-05
0.000118166
0.000292488
0.000179459
0.000125151
9.75026e-05
8.15199e-05
0.000130415
0.000146344
9.75925e-05
7.95952e-05
7.20434e-05
6.78973e-05
0.000155863
0.000142583
0.000102158
8.64149e-05
7.89216e-05
7.37623e-05
0.000178554
0.000142923
0.000109869
9.53997e-05
8.71155e-05
7.97583e-05
0.000198021
0.000148344
0.000120039
0.0001057
9.54686e-05
8.44695e-05
0.000213444
0.000159609
0.000134735
0.000117802
0.000103938
8.76059e-05
0.000223881
0.000176601
0.000153913
0.000131547
0.000111833
8.94258e-05
0.000227187
0.000193954
0.000171943
0.000144106
0.000117954
9.05109e-05
0.000222515
0.000208099
0.000183195
0.000150849
0.000119664
8.8554e-05
0.000211905
0.000216488
0.000184081
0.000148839
0.000115379
8.2931e-05
0.000197908
0.000216035
0.000174935
0.000137902
0.000105475
7.61364e-05
0.000181132
0.000209329
0.000161237
0.000124173
9.5491e-05
7.1588e-05
0.000163218
0.000204428
0.000149517
0.000113097
8.83514e-05
6.96121e-05
0.000146383
0.000202687
0.000143027
0.000106973
8.50861e-05
6.99819e-05
0.000130594
0.000208043
0.000143375
0.000107333
8.74298e-05
7.41633e-05
0.000111089
0.000231248
0.000177255
0.000144191
0.000118416
0.000101885
0.000133606
0.000210217
0.000172932
0.000142031
0.000114771
9.65729e-05
0.000149505
0.000194773
0.000167643
0.000135838
0.000105558
8.45907e-05
0.000159196
0.00018774
0.000159626
0.000124857
9.13758e-05
6.78412e-05
0.000163322
0.00018928
0.000147441
0.000108985
7.42666e-05
5.05921e-05
0.000164474
0.000195438
0.000131016
9.05304e-05
5.81088e-05
3.66965e-05
0.00016277
0.000203595
0.000113618
7.35133e-05
4.58622e-05
2.80672e-05
0.000158985
0.000213064
9.95052e-05
6.12382e-05
3.91929e-05
2.52547e-05
0.00015017
0.000227205
9.27214e-05
5.55501e-05
3.85191e-05
2.84333e-05
0.000140192
0.000244999
9.47233e-05
5.66871e-05
4.3446e-05
3.73669e-05
0.000130216
0.000257003
0.000106848
6.59908e-05
5.38645e-05
5.00078e-05
0.000120255
0.000266399
0.000128024
8.38202e-05
6.98758e-05
6.54292e-05
0.000109604
0.000268013
0.000153085
0.000107871
9.01654e-05
8.22463e-05
9.82726e-05
0.00026978
0.000173634
0.000131268
0.000110378
9.89791e-05
0.000125192
0.000244887
0.000172715
0.000135415
0.000111776
9.75106e-05
0.000145419
0.000240782
0.000184483
0.000145508
0.000117861
9.98201e-05
0.00015841
0.000228627
0.000195883
0.000154307
0.000120028
9.59873e-05
0.0001654
0.000213156
0.000201143
0.000157206
0.000115883
8.55043e-05
0.00016735
0.000200818
0.000196751
0.000150957
0.000104775
7.10052e-05
0.00016669
0.000194754
0.000181742
0.000134809
8.87633e-05
5.59332e-05
0.00016494
0.000191296
0.000158637
0.000112506
7.14262e-05
4.27265e-05
0.000161267
0.000187653
0.000132537
8.98704e-05
5.68373e-05
3.40146e-05
0.000155249
0.00018544
0.000110711
7.29186e-05
4.80573e-05
3.13086e-05
0.000148545
0.000186857
9.75149e-05
6.38358e-05
4.57404e-05
3.49712e-05
0.000141161
0.000190591
9.47735e-05
6.30832e-05
4.94236e-05
4.3105e-05
0.000133694
0.000200206
0.00010246
7.01441e-05
5.81637e-05
5.41054e-05
0.000125545
0.000210607
0.000119844
8.51605e-05
7.16573e-05
6.63727e-05
0.000115972
0.000227419
0.000141331
0.000104686
8.82913e-05
8.02043e-05
0.000129879
0.000168135
0.000116671
9.49049e-05
8.29947e-05
7.52962e-05
0.000156289
0.000187359
0.000137283
0.000109323
9.26437e-05
8.11307e-05
0.000178199
0.00020623
0.000166497
0.000128805
0.000103096
8.40352e-05
0.000194472
0.000220591
0.000195788
0.000149316
0.000112747
8.43393e-05
0.000202446
0.000229751
0.000212694
0.000164236
0.000118538
8.1751e-05
0.00020365
0.000232951
0.000213885
0.000166102
0.000115505
7.45518e-05
0.000199155
0.000228927
0.00020033
0.000151719
0.000102171
6.26201e-05
0.000189613
0.000214872
0.000173958
0.000126715
8.36718e-05
4.95902e-05
0.000176339
0.000194076
0.000142594
0.000100253
6.65753e-05
4.02007e-05
0.000162199
0.000171843
0.000115681
8.06936e-05
5.60147e-05
3.73106e-05
0.000149632
0.000154729
9.79197e-05
6.97002e-05
5.20867e-05
4.00428e-05
0.000138899
0.000146821
8.96934e-05
6.60989e-05
5.36347e-05
4.64546e-05
0.000129065
0.000145602
9.12523e-05
6.92182e-05
5.89086e-05
5.3327e-05
0.000119788
0.000151398
0.000100241
7.80491e-05
6.85358e-05
6.26756e-05
6.22955e-05
4.9143e-05
3.95551e-05
3.00398e-05
2.39357e-05
2.30556e-05
2.82368e-05
3.70168e-05
4.55428e-05
5.10828e-05
5.3279e-05
5.52261e-05
5.8253e-05
5.97979e-05
5.84991e-05
4.35253e-05
3.17496e-05
2.1297e-05
1.36329e-05
1.00417e-05
1.11995e-05
1.61064e-05
2.29535e-05
2.9849e-05
3.55022e-05
4.01776e-05
4.408e-05
4.67528e-05
5.42266e-05
3.84613e-05
2.46166e-05
1.37377e-05
6.8226e-06
3.57686e-06
3.26906e-06
5.23905e-06
9.23947e-06
1.49365e-05
2.15322e-05
2.79866e-05
3.35724e-05
3.81961e-05
5.2053e-05
3.38451e-05
1.78498e-05
7.60722e-06
2.70492e-06
9.37531e-07
6.39304e-07
1.28786e-06
3.12981e-06
6.65774e-06
1.18522e-05
1.76873e-05
2.3557e-05
2.97591e-05
5.20656e-05
3.04571e-05
1.2946e-05
4.35561e-06
1.31623e-06
3.54209e-07
1.32808e-07
2.95183e-07
9.91263e-07
2.65755e-06
5.67549e-06
1.02823e-05
1.65348e-05
2.56476e-05
5.26518e-05
2.7686e-05
1.01891e-05
3.64456e-06
1.26346e-06
3.65211e-07
1.17239e-07
1.42982e-07
4.23792e-07
1.25703e-06
3.22991e-06
7.25827e-06
1.48667e-05
2.781e-05
5.20343e-05
2.55741e-05
1.00422e-05
4.44384e-06
1.80198e-06
6.50419e-07
3.08885e-07
3.29086e-07
6.30774e-07
1.53566e-06
3.81337e-06
8.99779e-06
1.92964e-05
3.60857e-05
5.04424e-05
2.54273e-05
1.24125e-05
6.65738e-06
3.29546e-06
1.52554e-06
9.40706e-07
1.0233e-06
1.61469e-06
3.15643e-06
6.66637e-06
1.40217e-05
2.71576e-05
4.65159e-05
4.89963e-05
2.82344e-05
1.69321e-05
1.08131e-05
6.43512e-06
3.62707e-06
2.50415e-06
2.69315e-06
3.89967e-06
6.58275e-06
1.17487e-05
2.09999e-05
3.53419e-05
5.44989e-05
5.01851e-05
3.40707e-05
2.38995e-05
1.73288e-05
1.21513e-05
8.05654e-06
5.83982e-06
5.84862e-06
7.76506e-06
1.16829e-05
1.80902e-05
2.7812e-05
4.11515e-05
5.78198e-05
5.34319e-05
4.08268e-05
3.26367e-05
2.62593e-05
2.13635e-05
1.6397e-05
1.2529e-05
1.12802e-05
1.31613e-05
1.77552e-05
2.44939e-05
3.34352e-05
4.47226e-05
5.81651e-05
5.87303e-05
4.92109e-05
4.29495e-05
3.75546e-05
3.42129e-05
3.0014e-05
2.50433e-05
2.12577e-05
2.09288e-05
2.47047e-05
3.08169e-05
3.85849e-05
4.74812e-05
5.88129e-05
6.28583e-05
5.63805e-05
5.27732e-05
4.98798e-05
4.88405e-05
4.76191e-05
4.42379e-05
3.91697e-05
3.49125e-05
3.48982e-05
3.82261e-05
4.41801e-05
5.04218e-05
6.09183e-05
7.08246e-05
6.73797e-05
6.35241e-05
6.18993e-05
6.26444e-05
6.46415e-05
6.51931e-05
6.2443e-05
5.68218e-05
5.19501e-05
5.01477e-05
5.21598e-05
5.48882e-05
6.31409e-05
5.96035e-05
4.43546e-05
3.38255e-05
2.42808e-05
1.80355e-05
1.61433e-05
1.90567e-05
2.50501e-05
3.18192e-05
3.74089e-05
4.09588e-05
4.31389e-05
4.6776e-05
5.23731e-05
5.05178e-05
3.54566e-05
2.43253e-05
1.55497e-05
9.53129e-06
6.64351e-06
7.08968e-06
1.01397e-05
1.48783e-05
2.02745e-05
2.55598e-05
3.05564e-05
3.56848e-05
4.09152e-05
4.4161e-05
2.92849e-05
1.70371e-05
8.89133e-06
4.25604e-06
2.15693e-06
1.89538e-06
2.97437e-06
5.38592e-06
9.19134e-06
1.43001e-05
2.03616e-05
2.666e-05
3.26885e-05
4.26083e-05
2.55599e-05
1.21321e-05
4.72678e-06
1.58908e-06
5.24488e-07
3.27659e-07
6.38145e-07
1.61663e-06
3.71713e-06
7.35701e-06
1.23154e-05
1.79769e-05
2.39233e-05
4.30068e-05
2.34922e-05
9.10274e-06
2.90313e-06
8.58264e-07
2.24405e-07
7.02482e-08
1.36157e-07
4.92369e-07
1.46166e-06
3.46209e-06
6.83419e-06
1.17158e-05
1.86655e-05
4.24815e-05
2.12143e-05
7.71399e-06
2.60398e-06
8.42845e-07
2.3077e-07
6.76747e-08
7.26999e-08
2.18965e-07
6.90689e-07
1.88595e-06
4.45176e-06
9.47888e-06
1.84872e-05
4.06846e-05
1.91272e-05
7.76703e-06
3.09978e-06
1.14333e-06
3.87036e-07
1.7645e-07
1.76401e-07
3.20318e-07
7.92038e-07
2.06118e-06
5.13738e-06
1.17208e-05
2.33561e-05
3.84967e-05
1.91033e-05
9.43704e-06
4.50862e-06
2.02699e-06
8.87861e-07
5.47032e-07
5.7368e-07
8.46022e-07
1.62082e-06
3.55072e-06
8.01327e-06
1.67509e-05
3.05852e-05
3.78879e-05
2.19322e-05
1.26464e-05
7.351e-06
3.99371e-06
2.14387e-06
1.50431e-06
1.59766e-06
2.20452e-06
3.64791e-06
6.68453e-06
1.27338e-05
2.30436e-05
3.75984e-05
4.06536e-05
2.72467e-05
1.77665e-05
1.20717e-05
7.83482e-06
4.94277e-06
3.64081e-06
3.71244e-06
4.83558e-06
7.20334e-06
1.13895e-05
1.84314e-05
2.8935e-05
4.24443e-05
4.58371e-05
3.37653e-05
2.4724e-05
1.90459e-05
1.45079e-05
1.05689e-05
8.04249e-06
7.53256e-06
8.97147e-06
1.21799e-05
1.71039e-05
2.41522e-05
3.3593e-05
4.49351e-05
5.33554e-05
4.2451e-05
3.38652e-05
2.86266e-05
2.4869e-05
2.06146e-05
1.66448e-05
1.43578e-05
1.48728e-05
1.82594e-05
2.34205e-05
3.00612e-05
3.79527e-05
4.69565e-05
5.97514e-05
5.13944e-05
4.45741e-05
4.0123e-05
3.82075e-05
3.54329e-05
3.12857e-05
2.69724e-05
2.45283e-05
2.60859e-05
3.03572e-05
3.65091e-05
4.2841e-05
5.1784e-05
7.14555e-05
6.46923e-05
5.57425e-05
5.16233e-05
5.17245e-05
5.17913e-05
4.9902e-05
4.60026e-05
4.1077e-05
3.87494e-05
3.98989e-05
4.4482e-05
4.86549e-05
5.7588e-05
4.86327e-05
3.39508e-05
2.41014e-05
1.61402e-05
1.10918e-05
8.70358e-06
9.3317e-06
1.22935e-05
1.68027e-05
2.17126e-05
2.61944e-05
2.98362e-05
3.38545e-05
4.04836e-05
3.81409e-05
2.43645e-05
1.50623e-05
8.93865e-06
5.25373e-06
3.38498e-06
3.2246e-06
4.40602e-06
6.84062e-06
1.02725e-05
1.4434e-05
1.91088e-05
2.45815e-05
3.10374e-05
3.36892e-05
1.95626e-05
9.93116e-06
4.61209e-06
2.08059e-06
9.98837e-07
8.0134e-07
1.1758e-06
2.21501e-06
4.17209e-06
7.32234e-06
1.18366e-05
1.76613e-05
2.40295e-05
3.27778e-05
1.74306e-05
7.1704e-06
2.47608e-06
7.79104e-07
2.38957e-07
1.26737e-07
2.28803e-07
6.16003e-07
1.58104e-06
3.56216e-06
6.90478e-06
1.13495e-05
1.64724e-05
3.14391e-05
1.54123e-05
5.77117e-06
1.74137e-06
5.0872e-07
1.28551e-07
3.25022e-08
4.72016e-08
1.86929e-07
6.26893e-07
1.67771e-06
3.65535e-06
6.84014e-06
1.13957e-05
2.93427e-05
1.34787e-05
5.05499e-06
1.66284e-06
5.0682e-07
1.31684e-07
3.49972e-08
3.06161e-08
9.06971e-08
3.04826e-07
8.89286e-07
2.20876e-06
4.8349e-06
9.62323e-06
2.6413e-05
1.20044e-05
5.07997e-06
1.89139e-06
6.42606e-07
2.06516e-07
9.14728e-08
8.51678e-08
1.40887e-07
3.38914e-07
8.95868e-07
2.27925e-06
5.35622e-06
1.14102e-05
2.43069e-05
1.22522e-05
6.03784e-06
2.61015e-06
1.07964e-06
4.61112e-07
2.91486e-07
2.96138e-07
3.99093e-07
7.04895e-07
1.50174e-06
3.46403e-06
7.69135e-06
1.55004e-05
2.49105e-05
1.4666e-05
7.98079e-06
4.19505e-06
2.11094e-06
1.12554e-06
8.2782e-07
8.68039e-07
1.11706e-06
1.71961e-06
3.04968e-06
5.9438e-06
1.15047e-05
2.07811e-05
2.89651e-05
1.86568e-05
1.13319e-05
7.06495e-06
4.27371e-06
2.66244e-06
2.05339e-06
2.11938e-06
2.6475e-06
3.76609e-06
5.83794e-06
9.69128e-06
1.62366e-05
2.60725e-05
3.49743e-05
2.37342e-05
1.63667e-05
1.18278e-05
8.40143e-06
5.90113e-06
4.59353e-06
4.46441e-06
5.30837e-06
7.08935e-06
9.9268e-06
1.44288e-05
2.12163e-05
3.05284e-05
4.3234e-05
3.13718e-05
2.37045e-05
1.92706e-05
1.55706e-05
1.21082e-05
9.58023e-06
8.582e-06
9.32486e-06
1.16868e-05
1.51892e-05
1.99827e-05
2.62921e-05
3.42451e-05
5.11002e-05
4.1004e-05
3.33975e-05
2.94961e-05
2.63172e-05
2.24749e-05
1.86739e-05
1.59652e-05
1.53901e-05
1.75809e-05
2.14735e-05
2.65859e-05
3.22625e-05
3.93063e-05
6.46915e-05
5.35648e-05
4.40122e-05
4.12509e-05
3.95843e-05
3.66526e-05
3.26047e-05
2.83703e-05
2.52841e-05
2.55735e-05
2.87158e-05
3.43232e-05
3.92002e-05
4.72914e-05
3.32031e-05
2.0958e-05
1.36037e-05
8.56593e-06
5.55601e-06
4.00207e-06
3.79097e-06
4.64782e-06
6.61641e-06
9.54971e-06
1.30545e-05
1.67144e-05
2.09775e-05
2.64471e-05
2.69561e-05
1.4572e-05
7.56048e-06
3.86835e-06
2.10991e-06
1.32083e-06
1.1841e-06
1.46198e-06
2.22807e-06
3.65319e-06
5.84339e-06
8.87635e-06
1.32034e-05
1.91907e-05
2.40404e-05
1.12892e-05
4.57029e-06
1.73328e-06
6.85802e-07
3.16356e-07
2.5215e-07
3.42225e-07
6.13786e-07
1.2344e-06
2.4928e-06
4.76454e-06
8.51868e-06
1.38266e-05
2.18432e-05
9.56868e-06
3.26497e-06
9.87416e-07
2.88873e-07
8.12405e-08
3.62958e-08
5.64546e-08
1.50241e-07
4.24456e-07
1.11788e-06
2.58e-06
5.11583e-06
8.83234e-06
1.92187e-05
8.0477e-06
2.78605e-06
8.58321e-07
2.51198e-07
6.07232e-08
1.28604e-08
1.11636e-08
4.47705e-08
1.69336e-07
5.25731e-07
1.35599e-06
2.97669e-06
5.62956e-06
1.65467e-05
6.95576e-06
2.62498e-06
8.65478e-07
2.49152e-07
6.02959e-08
1.40166e-08
8.77973e-09
2.42752e-08
8.95893e-08
2.9444e-07
8.21775e-07
1.98743e-06
4.23551e-06
1.4297e-05
6.47087e-06
2.71263e-06
9.25376e-07
2.8197e-07
8.24763e-08
3.38976e-08
2.8539e-08
4.18138e-08
9.92081e-08
2.82039e-07
7.79962e-07
1.97322e-06
4.5176e-06
1.36916e-05
7.0341e-06
3.1425e-06
1.171e-06
4.22711e-07
1.7264e-07
1.12812e-07
1.10637e-07
1.33765e-07
2.15791e-07
4.55756e-07
1.11002e-06
2.70019e-06
6.12184e-06
1.52965e-05
8.6033e-06
4.01229e-06
1.78906e-06
7.97936e-07
4.33522e-07
3.46095e-07
3.57006e-07
4.19515e-07
5.88826e-07
1.00002e-06
2.01392e-06
4.31987e-06
8.9648e-06
1.90703e-05
1.09222e-05
5.78376e-06
3.09096e-06
1.69709e-06
1.09068e-06
9.21235e-07
9.55098e-07
1.11285e-06
1.47521e-06
2.2035e-06
3.75189e-06
6.91693e-06
1.27636e-05
2.36303e-05
1.42371e-05
8.94805e-06
5.68725e-06
3.68438e-06
2.58991e-06
2.17196e-06
2.18736e-06
2.5068e-06
3.20701e-06
4.40841e-06
6.57864e-06
1.05133e-05
1.71653e-05
3.01513e-05
1.98553e-05
1.43921e-05
1.05572e-05
7.70846e-06
5.74078e-06
4.69605e-06
4.45978e-06
4.91844e-06
6.08921e-06
7.91639e-06
1.07146e-05
1.50524e-05
2.17617e-05
3.74981e-05
2.81947e-05
2.27523e-05
1.86009e-05
1.48104e-05
1.16576e-05
9.46726e-06
8.44523e-06
8.69608e-06
1.02927e-05
1.28511e-05
1.63247e-05
2.0666e-05
2.68465e-05
4.8896e-05
3.88602e-05
3.34637e-05
2.98551e-05
2.57535e-05
2.15054e-05
1.77613e-05
1.51852e-05
1.4317e-05
1.57545e-05
1.89009e-05
2.3299e-05
2.75193e-05
3.34909e-05
2.2553e-05
1.22495e-05
6.71538e-06
3.68237e-06
2.2e-06
1.50228e-06
1.33977e-06
1.49614e-06
2.03841e-06
3.15741e-06
4.92001e-06
7.25165e-06
1.04832e-05
1.44068e-05
1.87598e-05
8.36896e-06
3.34562e-06
1.36225e-06
6.4066e-07
3.83173e-07
3.46143e-07
4.02327e-07
5.55042e-07
9.146e-07
1.65587e-06
2.98332e-06
5.32289e-06
9.20864e-06
1.56939e-05
6.28894e-06
1.93508e-06
5.60996e-07
1.79818e-07
7.39081e-08
5.80876e-08
7.61354e-08
1.21323e-07
2.39789e-07
5.59642e-07
1.3343e-06
2.99886e-06
6.08749e-06
1.3209e-05
4.9657e-06
1.48258e-06
3.95234e-07
1.07851e-07
2.68739e-08
8.35613e-09
8.87604e-09
2.2019e-08
7.00706e-08
2.29941e-07
6.79566e-07
1.72263e-06
3.69125e-06
1.05853e-05
3.95443e-06
1.33297e-06
4.09888e-07
1.14598e-07
2.61263e-08
4.78312e-09
1.7147e-09
6.10451e-09
2.86227e-08
1.12887e-07