/*--------------------------------*- C++ -*----------------------------------*\
| =========                 |                                                 |
| \\      /  F ield         | OpenFOAM: The Open Source CFD Toolbox           |
|  \\    /   O peration     | Version:  v2106                                 |
|   \\  /    A nd           | Website:  www.openfoam.com                      |
|    \\/     M anipulation  |                                                 |
\*---------------------------------------------------------------------------*/
FoamFile
{
    version     2.0;
    format      ascii;
    arch        "LSB;label=32;scalar=64";
    class       volScalarField;
    location    "0.000153";
    object      k;
}
// * * * * * * * * * * * * * * * * * * * * * * * * * * * * * * * * * * * * * //

dimensions      [0 2 -2 0 0 0 0];

internalField   nonuniform List<scalar> 
144746
(
7.71159
6.58148
5.30573
3.81503
2.55853
1.6924
1.33795
1.40431
1.88611
2.73134
3.90192
5.2544
6.34872
7.10027
8.03055
6.83173
5.23399
3.39028
1.94995
1.07865
0.700304
0.674739
1.00145
1.6536
2.55833
3.62012
4.60886
5.39051
8.48296
6.77561
4.66779
2.60585
1.2383
0.554835
0.284936
0.254342
0.451765
0.915428
1.61782
2.4321
3.22764
3.97118
8.2039
5.7471
3.42319
1.54439
0.571905
0.201693
0.0801916
0.0718971
0.169651
0.435147
0.908742
1.51336
2.12428
2.72574
7.03834
4.27769
2.10134
0.718647
0.248135
0.0822096
0.0266171
0.0226628
0.0646946
0.195052
0.472693
0.90108
1.41728
1.99063
5.58722
3.00362
1.26762
0.520789
0.243478
0.0926977
0.0328375
0.0232547
0.0431275
0.111422
0.274406
0.581456
1.05304
1.66997
4.43437
2.32459
1.16114
0.698627
0.378922
0.166192
0.0745456
0.0603213
0.0835169
0.152845
0.306193
0.605691
1.1049
1.79844
3.8047
2.2988
1.56908
1.10344
0.678665
0.345306
0.182412
0.160957
0.213454
0.338251
0.569058
0.964972
1.55591
2.34452
3.68264
2.70734
2.23963
1.75843
1.23111
0.715068
0.411541
0.364681
0.474631
0.704749
1.06958
1.61122
2.31907
3.2281
3.98767
3.4707
3.19547
2.74429
2.16271
1.42701
0.866169
0.709695
0.86443
1.20682
1.70413
2.39109
3.25944
4.355
4.48314
4.3357
4.38731
4.13619
3.57692
2.67589
1.75835
1.29649
1.36809
1.75548
2.34172
3.17438
4.23172
5.51436
5.29022
5.40955
5.76385
5.89033
5.43669
4.46514
3.26322
2.37812
2.11192
2.36053
2.92836
3.84756
5.00941
6.42097
6.26003
6.37741
6.91312
7.48483
7.41318
6.5464
5.20489
3.98432
3.25739
3.14754
3.5183
4.40265
5.5366
7.03578
7.58757
7.57202
7.95013
8.59129
8.97114
8.38443
7.1014
5.69522
4.63518
4.14906
4.23229
4.97511
6.06318
7.64587
6.84614
5.6876
4.59396
3.36227
2.42709
1.84986
1.80665
2.24979
3.05936
4.07298
5.19878
6.25642
6.83098
7.00759
7.32999
5.97231
4.50177
2.93393
1.75817
1.05151
0.824334
1.02387
1.61481
2.46087
3.39958
4.30569
4.91634
5.29967
7.99268
6.12436
4.17011
2.33221
1.11975
0.506345
0.296986
0.368079
0.724506
1.36392
2.15553
2.91728
3.50626
4.00784
8.0712
5.51004
3.24677
1.4514
0.524373
0.175679
0.0768419
0.105657
0.276928
0.653562
1.22493
1.84104
2.38177
2.90938
7.48198
4.47782
2.13537
0.714221
0.225278
0.0681876
0.023833
0.0339451
0.106287
0.293922
0.641672
1.12076
1.68476
2.36144
6.5166
3.41175
1.32886
0.494533
0.212067
0.0761816
0.0283867
0.0274799
0.0627088
0.1636
0.384251
0.783346
1.40984
2.28236
5.59677
2.69708
1.17221
0.644402
0.333842
0.144473
0.0702515
0.0668422
0.107545
0.216595
0.454172
0.912266
1.67866
2.74926
4.93133
2.56237
1.53819
1.02309
0.619482
0.321634
0.185393
0.18281
0.266674
0.458321
0.82213
1.44536
2.38497
3.61249
4.65244
2.88666
2.17638
1.64687
1.16078
0.703596
0.439984
0.422874
0.583534
0.909718
1.43981
2.22554
3.27494
4.61832
4.79013
3.57318
3.05633
2.58287
2.0849
1.46093
0.959943
0.832435
1.04151
1.48229
2.12545
3.01097
4.14204
5.62183
5.0232
4.27558
4.08952
3.86177
3.49113
2.81366
2.00385
1.54477
1.63216
2.07579
2.7369
3.68182
4.90004
6.43367
5.48402
5.16208
5.32373
5.49582
5.3152
4.74935
3.82928
2.94254
2.58616
2.78725
3.31193
4.21128
5.36392
6.86718
5.97421
5.86273
6.34305
6.99013
7.24063
6.93631
6.12868
5.06493
4.18684
3.86256
4.00573
4.68126
5.60504
7.06249
6.88981
6.87783
7.34532
8.14881
8.92481
8.94993
8.33289
7.30283
6.15968
5.34177
5.00752
5.31088
5.98007
7.32532
5.70073
4.59236
3.84903
3.01701
2.46897
2.29476
2.70245
3.51834
4.36436
5.0043
5.46861
5.8169
5.93483
5.84348
5.95381
4.55846
3.42576
2.33407
1.52291
1.0638
1.08757
1.56045
2.3082
3.0771
3.70232
4.1664
4.34624
4.46769
6.26034
4.59509
3.10272
1.7861
0.892257
0.429949
0.328592
0.519573
0.988509
1.66305
2.36273
2.94389
3.30615
3.67631
6.27311
4.25784
2.49304
1.11815
0.40344
0.132598
0.0713915
0.135655
0.353566
0.768975
1.34953
1.91957
2.40689
2.97758
6.26792
3.8272
1.77092
0.590765
0.174588
0.0482467
0.0192098
0.0394396
0.126218
0.332797
0.694862
1.19335
1.83554
2.7456
6.29067
3.32534
1.21257
0.420832
0.158449
0.0514259
0.0194738
0.0245367
0.0650593
0.176226
0.423835
0.902046
1.73894
3.01736
6.26925
2.89054
1.10158
0.528154
0.246836
0.100273
0.050542
0.0549584
0.102004
0.229895
0.528134
1.14664
2.25383
3.84106
6.15349
2.79324
1.4047
0.836141
0.471229
0.237642
0.144637
0.156835
0.251033
0.474124
0.93215
1.77066
3.09052
4.77778
5.8836
3.07767
1.96092
1.36725
0.914934
0.552225
0.367397
0.381148
0.556552
0.922143
1.5511
2.52215
3.84844
5.44749
5.80671
3.67109
2.71822
2.14105
1.68429
1.20012
0.844663
0.785203
1.0125
1.48554
2.19275
3.15347
4.36894
5.82432
5.789
4.18801
3.56641
3.14736
2.8408
2.37989
1.83462
1.52957
1.64304
2.10221
2.76383
3.63503
4.70313
6.0279
5.97405
4.88725
4.56544
4.41715
4.30453
4.11275
3.62675
3.01826
2.7288
2.9335
3.38001
4.09318
4.91069
6.09625
6.0416
5.36358
5.35921
5.5792
5.78583
5.97577
5.91722
5.41863
4.70748
4.32141
4.26164
4.61987
5.07152
6.15113
6.60047
6.23897
6.25897
6.6334
7.21311
7.64859
7.94925
7.82667
7.14096
6.29725
5.66807
5.502
5.52486
6.3057
7.91885
9.90707
13.2166
19.2205
32.384
8.76164
6.14959
7.79633
10.7386
17.1313
33.9849
8.32252
4.63329
5.86208
8.20717
14.5974
35.4704
8.15382
3.32765
4.29972
6.09289
11.7878
35.3441
8.06222
2.58866
3.45315
4.87806
9.65325
34.1724
8.05922
2.34467
3.2237
4.52322
8.50339
32.2111
8.18245
2.55979
3.52193
4.90769
8.58621
29.9394
8.44243
3.16802
4.29374
5.91529
9.66858
28.1839
8.76963
4.11829
5.45659
7.3814
11.3941
27.0903
9.19854
5.24895
6.79466
9.03603
13.2804
26.2423
10.0117
6.33547
7.99576
10.5626
15.0313
26.1304
11.1524
7.20727
8.88093
11.757
16.6238
27.9237
12.222
7.85132
9.49531
12.5622
18.0699
31.6245
12.8673
8.35801
9.99263
13.3482
19.6746
35.9912
12.3314
7.38649
9.00413
11.7451
17.2509
29.9711
12.2413
5.79726
7.02006
9.24316
14.4572
27.6281
11.2737
4.46265
5.34124
7.01091
11.5885
25.4493
10.4224
3.47929
4.3586
5.75403
9.61982
23.1415
9.79345
3.117
4.11311
5.41933
8.69643
21.3129
9.4649
3.27722
4.4707
5.88864
8.8893
20.1273
9.40001
3.92187
5.35993
7.06603
10.1236
19.6043
9.54538
4.90144
6.59874
8.69848
12.1027
19.7543
9.82176
5.95843
7.87885
10.2984
14.245
20.7563
10.3706
6.85048
8.85084
11.4943
16.0525
22.7225
11.515
7.43954
9.34775
12.1557
17.2844
25.5484
13.2944
7.72343
9.40265
12.2657
17.8139
29.5032
15.0828
7.84277
9.26508
12.0065
17.7464
33.5154
16.2966
7.93841
9.24105
12.0177
18.0169
36.0699
16.0179
5.76762
6.54923
7.62741
9.91602
15.9097
13.645
4.66804
5.35582
6.29185
8.21936
13.309
11.8172
4.06179
4.75716
5.63552
7.27863
11.5718
10.8189
3.70073
4.68944
5.7225
7.27138
10.8203
10.6215
3.89771
5.23007
6.44976
7.97894
10.88
11.2418
4.57843
6.26051
7.74357
9.30507
11.6024
12.5472
5.62721
7.54978
9.25962
10.8793
12.674
14.1986
6.56212
8.55561
10.409
12.2453
13.8322
15.8751
7.05659
8.95093
10.8831
13.2524
14.9091
17.4664
7.10264
8.75941
10.6791
13.8346
16.1485
18.7379
6.93334
8.24652
9.95975
13.5472
17.67
19.3935
6.7197
7.63465
9.05692
12.3983
19.1822
19.3558
6.58303
7.24282
8.38008
11.2207
19.9282
18.6768
6.56777
7.16717
8.21339
10.8115
19.5162
17.2901
8.62965
10.7751
14.6745
22.1855
38.5137
8.71402
6.93231
8.76988
12.3268
20.1029
38.3912
8.16448
5.70513
7.23261
10.3312
17.9659
37.6281
7.91866
5.07237
6.42718
9.0665
16.0781
35.5086
7.77043
5.17235
6.44821
8.72317
15.0325
33.2016
7.66357
5.85698
7.09952
9.16167
14.9316
31.27
7.58826
6.92118
8.07024
9.99834
15.4117
29.9018
7.67662
7.97173
8.94688
10.7554
15.8036
28.9006
8.11449
8.57859
9.39813
11.1718
15.8433
28.177
9.07487
8.66686
9.48205
11.4053
15.8946
27.8783
10.6783
8.5583
9.44814
11.6395
16.2076
29.2168
12.3594
8.40552
9.39476
11.7956
16.822
32.7644
13.8178
8.30275
9.3693
11.9548
17.9371
38.1273
14.7847
8.29404
9.54312
12.6098
20.1583
44.8024
14.3832
7.9828
9.682
12.8811
19.6082
35.187
12.5025
6.73787
8.14851
10.8195
16.7835
30.5911
11.7005
6.1181
7.36925
9.57908
14.6374
26.7792
11.1393
6.13869
7.42802
9.37367
13.6532
23.532
10.8219
6.80651
8.19635
10.0125
13.8155
21.6949
10.6556
7.86976
9.26595
11.0582
14.7726
21.2303
10.653
8.87222
10.1018
11.8898
15.8774
22.0018
11.0625
9.41197
10.3986
12.1425
16.5376
23.7004
12.0549
9.32529
10.1003
11.7805
16.5137
26.1952
13.5971
8.83079
9.53116
11.2649
16.0697
29.0234
15.5845
8.26745
9.01821
10.8855
15.7049
31.8895
17.8381
7.76875
8.61224
10.5871
15.6372
34.973
19.6438
7.42043
8.33742
10.4591
16.144
38.1783
20.3515
7.36468
8.41355
10.947
17.7332
42.15
19.0557
6.69544
7.51738
8.71083
11.4197
17.6377
15.133
6.28882
7.14723
8.23587
10.3426
14.936
14.125
6.52605
7.48559
8.47666
10.128
13.5408
14.0148
7.1417
8.32622
9.3247
10.6533
13.2765
14.6468
8.12325
9.47738
10.4428
11.579
13.7814
15.784
9.0733
10.3416
11.2392
12.4049
14.5116
17.2472
9.45515
10.3829
11.2117
12.6824
14.8952
18.8016
9.09601
9.65425
10.4464
12.3584
15.1599
20.1233
8.26324
8.63231
9.32674
11.5759
15.9878
20.9939
7.42579
7.75668
8.41534
10.7959
17.1096
21.3306
6.82815
7.21403
7.98705
10.3724
18.5127
21.3003
6.53251
7.00531
7.89075
10.359
20.0157
20.9123
6.5082
7.05043
8.0619
10.826
21.2667
20.0335
6.80435
7.46371
8.69159
11.9153
22.7674
18.613
12.5956
32.407
16.3696
11.4906
9.17221
8.1365
13.3355
27.883
15.1825
11.2068
9.17236
8.29964
13.26
24.8252
14.5658
11.1095
9.32967
8.62799
12.7799
23.668
14.3131
11.0753
9.44854
8.71076
11.8783
24.5538
14.3941
11.0166
9.36719
8.30452
10.6792
27.0187
14.6175
10.7669
8.95026
7.46996
9.68958
29.5938
14.9109
10.3107
8.23913
6.49821
9.02888
32.1888
14.672
9.544
7.39606
5.64068
8.6316
34.6197
14.4099
8.80465
6.68655
5.09603
8.44412
37.5331
14.5359
8.33466
6.22654
4.88023
8.41776
40.7183
15.6434
8.50052
6.1902
5.01564
8.54494
44.4324
17.9664
9.58017
6.78133
5.59912
8.85548
46.8285
21.036
11.6345
8.15851
6.70032
9.4545
49.9501
24.52
14.4107
10.173
8.26189
16.2338
29.708
14.3415
9.9417
8.05914
7.22173
17.2029
27.1484
13.8998
10.1456
8.42853
7.62022
16.9464
24.8235
13.8445
10.5014
8.99502
8.26865
16.0788
22.9578
13.9798
10.9569
9.61074
8.78047
14.8817
21.9666
14.3427
11.5132
10.1658
8.97807
13.6782
21.7191
14.9221
11.9748
10.4494
8.80229
12.6294
21.7627
15.465
12.1957
10.3481
8.35148
11.8331
22.3802
15.4008
11.8734
9.88715
7.70707
11.3995
23.3929
14.8688
11.1819
9.17488
7.01924
11.3269
25.184
14.2306
10.2527
8.33074
6.4849
11.4596
27.8446
14.2246
9.63343
7.71616
6.21675
11.7651
32.2224
15.2988
9.66028
7.52046
6.2352
12.3706
36.8593
17.7004
10.6351
7.9715
6.64539
13.4256
44.2238
21.2578
12.61
9.14496
7.51156
15.6868
16.9984
9.69459
7.47265
6.5026
5.92509
17.1172
15.739
9.78987
7.78033
6.82941
6.23283
18.1155
14.4132
9.9083
8.24684
7.37933
6.7127
18.8475
13.3044
9.9568
8.76019
7.99525
7.17395
19.3964
12.5329
10.2096
9.37286
8.70325
7.67591
19.6936
12.2316
10.7242
10.0701
9.43921
8.26786
19.5221
12.4361
11.3375
10.8029
10.1766
8.90503
18.8517
13.1813
11.8558
11.3847
10.7409
9.22824
17.8809
14.06
12.1024
11.5902
10.8437
8.96705
16.878
14.6438
11.9911
11.1671
10.2276
8.30509
16.0432
15.3014
11.7637
10.4281
9.37176
7.71137
15.5047
16.9209
11.7848
9.79629
8.63081
7.27032
15.49
19.5378
12.3913
9.56264
8.21629
7.05159
16.1994
23.4624
13.7816
9.94825
8.34767
7.2371
12.0101
30.7535
17.8529
12.5816
9.42911
7.71984
13.1895
28.5264
16.866
11.92
8.86402
7.18524
13.293
26.8686
15.8443
11.0598
8.04849
6.30672
12.7906
26.0455
14.5569
9.88513
6.95242
5.1461
11.9808
26.2053
12.928
8.41993
5.70271
3.9837
11.2739
26.8223
11.0271
6.9072
4.59737
3.05051
10.6764
27.7618
9.31434
5.67871
3.79534
2.44887
10.2126
29.0426
8.1471
4.87076
3.35679
2.21789
9.52639
31.206
7.76148
4.54853
3.31415
2.40553
9.0167
33.9135
8.18992
4.69666
3.66442
3.04468
8.78373
35.4865
10.0317
5.53795
4.44767
4.00091
8.80258
36.6666
12.9296
7.26091
5.75338
5.23674
9.01539
36.4946
16.2124
9.78592
7.57255
6.63125
9.4663
36.8012
18.7878
12.2907
9.45357
8.04265
14.9692
30.2786
16.6837
11.6875
9.03901
7.61775
15.3604
28.4613
16.8606
11.9877
9.2257
7.63683
14.71
26.0303
17.099
12.318
9.29218
7.36675
13.6537
23.7784
16.8538
12.2072
8.96482
6.6987
12.4794
22.2497
15.8781
11.4641
8.19082
5.79443
11.5761
21.5044
14.1427
10.1615
7.17433
4.8553
11.023
21.2597
12.1058
8.66319
6.11184
3.96098
10.6233
21.4004
10.1714
7.23466
5.15803
3.28292
10.2591
22.0842
8.8156
6.17159
4.51327
2.98946
10.0909
23.2673
8.22179
5.61634
4.30177
3.19139
10.2014
24.5658
8.76763
5.69887
4.55003
3.77397
10.6605
26.5784
10.2865
6.45099
5.23186
4.65883
11.5091
28.41
12.8936
8.11287
6.44164
5.69358
12.7867
31.4971
15.816
10.2601
8.00063
6.90422
16.2142
17.3719
10.253
8.03419
6.92117
6.19603
17.8845
17.6588
11.2651
8.75098
7.42606
6.50412
18.8574
17.0049
12.569
9.77071
8.07101
6.69833
19.2687
15.815
13.5456
10.732
8.66915
6.81183
19.0075
15.1289
13.7204
11.3546
9.1175
6.86657
18.137
14.8365
13.3948
11.5129
9.20233
6.66778
16.8881
14.5413
12.7846
11.0422
8.75115
6.04717
15.4317
13.9608
11.7153
9.96547
7.79295
5.1022
13.8596
13.4363
10.3916
8.5723
6.62266
4.23154
12.5257
13.1245
9.18501
7.38242
5.7307
3.82079
11.7347
13.2983
8.42755
6.6544
5.27826
3.87919
11.576
14.199
8.2105
6.38632
5.26642
4.30183
12.1102
15.4344
8.82819
6.69723
5.60663
4.78486
13.4265
17.3486
10.1473
7.55122
6.43425
5.60615
5.65233
4.21954
3.51824
2.80119
2.41629
2.50051
3.12792
3.97456
4.62281
4.87063
4.82231
4.86601
5.13767
5.36986
5.11174
3.59918
2.65956
1.83465
1.23467
0.985184
1.17954
1.70905
2.35517
2.9091
3.27785
3.55607
3.79834
4.07443
4.66754
3.27809
2.13177
1.20326
0.599116
0.319654
0.314817
0.526836
0.919353
1.43503
1.98024
2.48238
2.94146
3.47816
4.59444
3.04831
1.6371
0.689977
0.236674
0.0790846
0.0562581
0.120036
0.293011
0.612857
1.06704
1.57141
2.12518
2.85102
4.93033
2.97196
1.25095
0.390854
0.10673
0.0266115
0.0103953
0.0252846
0.086101
0.231676
0.498419
0.927962
1.58163
2.6375
5.41588
2.90307
0.991309
0.301997
0.0957667
0.0268114
0.00861969
0.0112245
0.0346129
0.106268
0.286713
0.689989
1.52011
2.9744
5.76525
2.79015
0.929054
0.356687
0.141708
0.0508094
0.0235729
0.0256519
0.0522164
0.135121
0.357514
0.896207
2.00662
3.78682
5.87525
2.74826
1.0909
0.547934
0.273075
0.126534
0.074961
0.0810947
0.134979
0.281198
0.628255
1.37769
2.72
4.59599
5.77766
2.90508
1.45921
0.913699
0.55622
0.3176
0.210984
0.219238
0.32603
0.577198
1.07365
1.96945
3.32503
5.00275
5.78841
3.33668
2.05818
1.48588
1.08086
0.740036
0.528072
0.501283
0.655021
1.00561
1.59257
2.47876
3.65332
5.01909
5.89305
3.83504
2.78762
2.25005
1.9239
1.55918
1.21812
1.05765
1.16755
1.54255
2.12118
2.89569
3.85991
4.97747
6.23596
4.57575
3.67239
3.17861
3.0642
2.89053
2.55736
2.19647
2.06579
2.30805
2.77025
3.41089
4.13178
5.15322
6.359
5.13795
4.49051
4.17285
4.27933
4.51555
4.55171
4.25254
3.79748
3.63919
3.75665
4.1681
4.56211
5.62607
7.28818
6.49623
5.62862
5.23564
5.40505
5.92754
6.47582
6.66644
6.31798
5.76274
5.35738
5.32683
5.28764
6.12261
5.43593
3.78011
2.95337
2.20364
1.76636
1.73384
2.1472
2.79117
3.39349
3.76047
3.86473
3.86981
4.14434
4.75672
4.37142
2.94224
2.03683
1.32783
0.842587
0.633488
0.739951
1.0896
1.56503
2.03677
2.42692
2.75284
3.09963
3.54397
3.741
2.51582
1.48404
0.775584
0.367655
0.187427
0.178218
0.29775
0.54004
0.894483
1.33317
1.81923
2.32296
2.90827
3.76475
2.33181
1.11188
0.422116
0.135513
0.0428339
0.0279496
0.058507
0.150069
0.340251
0.658496
1.08218
1.5841
2.21923
4.1143
2.30193
0.86474
0.25086
0.0663639
0.016089
0.0052355
0.0113602
0.0418023
0.12461
0.296648
0.597782
1.08102
1.88153
4.4275
2.20854
0.728385
0.207007
0.0614597
0.0162854
0.00477253
0.00550712
0.0172979
0.0562758
0.160632
0.406433
0.946301
1.99838
4.55445
2.04242
0.69424
0.240102
0.086739
0.0290023
0.0128738
0.0131555
0.0254599
0.0671016
0.187209
0.503229
1.22738
2.54893
4.47524
1.97994
0.799896
0.359482
0.162777
0.070688
0.0414838
0.0434042
0.0680459
0.140579
0.330685
0.791919
1.7244
3.2023
4.37781
2.13491
1.0524
0.605745
0.33696
0.180945
0.120311
0.123974
0.177852
0.31339
0.609546
1.21452
2.2524
3.68576
4.5249
2.5222
1.48403
1.01826
0.686611
0.441491
0.313404
0.301957
0.392887
0.607498
1.00099
1.66944
2.65384
3.88036
4.85455
3.01973
2.06881
1.62117
1.30083
0.989861
0.752566
0.667172
0.755875
1.0221
1.45801
2.08924
2.92271
3.89947
5.46563
3.77805
2.82774
2.417
2.23746
1.98596
1.67038
1.41948
1.37788
1.60429
2.0132
2.57627
3.24947
4.04107
5.87788
4.52921
3.69611
3.32473
3.38262
3.41804
3.24857
2.90277
2.5747
2.56789
2.81126
3.28705
3.7626
4.70785
7.40151
6.16018
4.73851
4.22429
4.45639
4.86665
5.12874
5.06622
4.64072
4.27298
4.16225
4.42313
4.58571
5.62057
4.19318
2.75774
1.96187
1.33538
0.962038
0.816763
0.948453
1.28477
1.7272
2.14287
2.44975
2.63578
2.87287
3.43728
3.14545
1.98776
1.22804
0.730145
0.432472
0.287139
0.297016
0.432546
0.6786
0.993926
1.33735
1.68343
2.07037
2.5446
2.81706
1.66537
0.843763
0.387085
0.170841
0.0802523
0.0670101
0.106277
0.206554
0.385098
0.655393
1.02039
1.47402
1.986
2.9001
1.56358
0.632221
0.208794
0.0620926
0.0180996
0.00976875
0.0190997
0.0531202
0.136236
0.30249
0.576298
0.938012
1.38667
2.98248
1.45698
0.516714
0.138447
0.0361608
0.00854275
0.00220125
0.00365899
0.0148714
0.050253
0.135019
0.296632
0.570839
1.01368
2.97898
1.32015
0.44086
0.122543
0.03463
0.00873684
0.00231261
0.00216802
0.00671245
0.0230824
0.0692733
0.180179
0.423971
0.923374
2.81459
1.16704
0.415261
0.137234
0.0457778
0.0145008
0.00625221
0.0059181
0.0103421
0.0261805
0.073099
0.199128
0.504705
1.14909
2.60185
1.12032
0.470584
0.195851
0.0815029
0.0342205
0.0205453
0.0208204
0.0295938
0.0559455
0.127689
0.314295
0.737376
1.54576
2.5507
1.24829
0.619913
0.327548
0.167872
0.0881298
0.0608639
0.0622991
0.0833639
0.136539
0.258324
0.53222
1.07199
1.98344
2.7834
1.5305
0.894298
0.56913
0.354808
0.220597
0.160748
0.157672
0.199085
0.295886
0.482244
0.835953
1.44112
2.3489
3.19484
1.91745
1.30751
0.971182
0.720243
0.516172
0.389695
0.354548
0.408059
0.552581
0.7971
1.19257
1.78435
2.58585
3.87599
2.54161
1.89916
1.59067
1.35922
1.10548
0.881392
0.753908
0.764558
0.927476
1.20452
1.60428
2.12642
2.77877
4.47258
3.33437
2.65827
2.41287
2.29936
2.09929
1.82323
1.55853
1.41901
1.50785
1.75833
2.15728
2.60635
3.2265
6.13238
4.60424
3.45399
3.30758
3.405
3.41624
3.25963
2.96161
2.62064
2.50137
2.59768
2.98643
3.29501
4.14454
2.66992
1.64232
1.05625
0.659939
0.42824
0.312994
0.314608
0.412601
0.607622
0.875133
1.16607
1.43807
1.73384
2.12262
2.18568
1.17044
0.597018
0.29895
0.159834
0.0981915
0.0902305
0.119439
0.192614
0.321317
0.506944
0.747067
1.07438
1.51102
2.02345
0.941803
0.370033
0.134715
0.0513382
0.022741
0.0179632
0.025801
0.0493533
0.102
0.205028
0.38413
0.672298
1.07484
1.92369
0.824021
0.265458
0.0735798
0.0199498
0.00532325
0.0024012
0.00402923
0.0113252
0.0327129
0.0863597
0.198252
0.391051
0.677987
1.7643
0.70327
0.219849
0.0585974
0.0156533
0.00360351
0.000763645
0.000766325
0.00319713
0.01224
0.0383052
0.0996559
0.221921
0.43186
1.56219
0.600872
0.195904
0.0563858
0.0153955
0.00362037
0.000833224
0.000557047
0.00162184
0.00610429
0.020442
0.0585995
0.147664
0.334281
1.34591
0.531673
0.192171
0.0606812
0.018084
0.00517363
0.00207803
0.0017807
0.0027316
0.00673269
0.0198379
0.0575303
0.154813
0.379884
1.23237
0.543528
0.220119
0.0798579
0.0285813
0.0113049
0.00707072
0.00697887
0.00881589
0.0150054
0.0335068
0.086535
0.223362
0.534231
1.28918
0.64293
0.287027
0.127986
0.0569326
0.0296598
0.022324
0.0228957
0.027945
0.0413974
0.0747453
0.160019
0.361589
0.780255
1.53602
0.814826
0.427419
0.231329
0.12751
0.0788431
0.0622369
0.0628116
0.0749425
0.103937
0.163825
0.294853
0.569016
1.08263
1.85237
1.06933
0.679961
0.441821
0.290396
0.199682
0.15735
0.150291
0.171727
0.22637
0.324203
0.50608
0.839533
1.40284
2.36125
1.50678
1.11374
0.840759
0.63145
0.471238
0.370922
0.330374
0.349988
0.43464
0.578295
0.807664
1.16432
1.7081
2.91118
2.16182
1.77327
1.50114
1.24441
1.00517
0.811682
0.69197
0.668099
0.762802
0.946586
1.21956
1.56257
2.05154
3.98221
3.0093
2.58991
2.40943
2.18747
1.91078
1.61866
1.37051
1.22737
1.26821
1.45208
1.77073
2.07532
2.57559
1.76969
0.939116
0.503947
0.268337
0.155531
0.102911
0.0920447
0.108939
0.160493
0.261357
0.411793
0.597145
0.838133
1.11108
1.51944
0.66279
0.254805
0.0990665
0.0445997
0.0254099
0.0223478
0.0267713
0.0400227
0.0708287
0.131864
0.2359
0.411662
0.690963
1.31399
0.511199
0.148171
0.0397844
0.0119869
0.00468223
0.00354774
0.00471457
0.00807351
0.0171969
0.0414513
0.098948
0.220439
0.442648
1.13666
0.405858
0.109725
0.0254448
0.0063061
0.00149204
0.000464305
0.000526893
0.00141362
0.00474051
0.0158938
0.047364
0.120597
0.259636
0.921036
0.313558
0.0914838
0.024314
0.0063469
0.00139637
0.000251097
9.98111e-05
0.000384487
0.0018367
0.00734018
0.0241019
0.0657885
0.150946
0.718805
0.249563
0.0824053
0.0241184
0.00626397
0.00138985
0.000283965
0.000118634
0.000257678
0.00107827
0.00431191
0.0145541
0.0417888
0.103923
0.579321
0.224466
0.0822574
0.02472
0.00667338
0.00172986
0.000631738
0.000482484
0.000592378
0.0012757
0.003991
0.0129347
0.0383939
0.103304
0.55279
0.243263
0.09329
0.0296923
0.00924955
0.00340699
0.00218015
0.00209822
0.00231142
0.00326714
0.00664667
0.0178541
0.051377
0.142315
0.634301
0.298417
0.117878
0.0443665
0.0172481
0.00903899
0.00736548
0.00750946
0.00827174
0.0105589
0.0168821
0.0358586
0.0905151
0.232855
0.805542
0.384314
0.177158
0.0814654
0.0401135
0.0255097
0.0219156
0.022383
0.0248537
0.0309991
0.0445428
0.0792269
0.169847
0.384623
1.00176
0.546798
0.306654
0.17191
0.100931
0.0692353
0.05811
0.057613
0.0638016
0.0788762
0.106726
0.166361
0.303787
0.598178
1.3344
0.859961
0.574789
0.379795
0.250873
0.177395
0.142007
0.132832
0.143267
0.17489
0.227652
0.321629
0.505909
0.864289
1.81127
1.37589
1.06108
0.796583
0.578228
0.422536
0.326813
0.284181
0.289462
0.343299
0.434457
0.573267
0.793488
1.17843
2.53035
2.12701
1.80408
1.51749
1.20576
0.927952
0.714881
0.5832
0.542634
0.605771
0.744099
0.943164
1.17874
1.53785
1.1539
0.517687
0.211411
0.0872643
0.0418026
0.0256147
0.0227257
0.0261087
0.0367427
0.0618938
0.112483
0.198279
0.333605
0.506485
0.95318
0.355031
0.0966474
0.0253105
0.00830471
0.00426245
0.00405057
0.00523611
0.00755199
0.0129394
0.0264828
0.057405
0.122902
0.251613
0.755383
0.243029
0.0525603
0.00954167
0.00204095
0.000631856
0.000481811
0.00071637
0.001216
0.00249653
0.00665443
0.0196784
0.0559009
0.143698
0.586812
0.173798
0.0387858
0.00780077
0.00176219
0.000366949
8.28874e-05
6.26445e-05
0.000158627
0.000584307
0.00236586
0.00884369
0.0285658
0.0781457
0.420672
0.123401
0.0329305
0.00830975
0.00199518
0.000400014
6.47955e-05
1.47486e-05
4.06254e-05
0.00022475
0.00109217
0.00440101
0.0147718
0.041618
0.297399
0.0951074
0.0298905
0.00815389
0.00193199
0.00039064
7.20419e-05
2.31794e-05
3.30998e-05
0.000137853
0.000657607
0.00268808
0.00921803
0.0269446
0.23699
0.0878407
0.0295784
0.00795511
0.00189833
0.00043438
0.000147226
0.000107867
0.000111024
0.00018833
0.000589905
0.00221602
0.00773186
0.0240852
0.242064
0.0980626
0.0327443
0.00892455
0.00236209
0.000794814
0.000531939
0.000516951
0.00052326
0.00062293
0.00108093
0.00293785
0.00960925
0.031367
0.29541
0.120905
0.0402772
0.0126012
0.00418955
0.00221756
0.00197722
0.00204298
0.00211729
0.00242436
0.00337547
0.00669851
0.0182469
0.0557975
0.386957
0.159177
0.0621204
0.0237516
0.0104283
0.00693951
0.00649181
0.00674017
0.00714841
0.00829781
0.0109161
0.0183397
0.0415769
0.11108
0.507019
0.246865
0.11822
0.0567923
0.0302048
0.0210197
0.0188256
0.0191392
0.0206335
0.0244359
0.0315445
0.0479369
0.0928625
0.213835
0.753376
0.446655
0.262034
0.151308
0.0890619
0.0603817
0.0497427
0.0481791
0.0519325
0.0624909
0.0800177
0.113212
0.190165
0.377275
1.16064
0.83445
0.577478
0.383784
0.244521
0.163314
0.123376
0.110706
0.116164
0.140515
0.179485
0.241632
0.357747
0.608669
1.79167
1.46676
1.14203
0.856647
0.598442
0.411164
0.293853
0.239767
0.234359
0.278216
0.356331
0.46699
0.621186
0.891486
0.692039
0.261174
0.07975
0.0235239
0.00872414
0.0049506
0.00450059
0.00535738
0.00742032
0.0122097
0.0236109
0.0483905
0.0980016
0.185269
0.521536
0.162823
0.033591
0.0056474
0.00124976
0.000553086
0.000556545
0.000805193
0.00120924
0.00199084
0.00413811
0.0103507
0.0272094
0.0724485
0.361385
0.0947584
0.0166248
0.00224892
0.000375723
8.52778e-05
5.12269e-05
7.90025e-05
0.000146985
0.000296459
0.000836543
0.00301496
0.0109642
0.0368695
0.244598
0.0604959
0.0120786
0.00226824
0.000462676
8.28053e-05
1.37156e-05
6.01134e-06
1.30399e-05
5.26202e-05
0.000262118
0.0012556
0.00523566
0.0186076
0.157825
0.0416013
0.0105456
0.00250913
0.000524853
9.08217e-05
1.26263e-05
1.81636e-06
2.83216e-06
1.8072e-05
0.000111159
0.000575006
0.00248522
0.00899514
0.108981
0.0331804
0.00975401
0.00242913
0.000488834
8.42471e-05
1.30884e-05
3.25185e-06
3.11235e-06
1.16734e-05
6.71982e-05
0.000348015
0.00151221
0.00554455
0.0929001
0.0323873
0.00980057
0.00234292
0.000460359
8.74388e-05
2.51014e-05
1.69745e-05
1.58688e-05
2.234e-05
6.67388e-05
0.00029342
0.00125804
0.00480531
0.102515
0.0373298
0.0109959
0.00252905
0.000546751
0.000155627
9.92294e-05
9.37038e-05
9.09015e-05
0.000101613
0.000159004
0.000428055
0.00159073
0.00619882
0.129875
0.0462634
0.0134137
0.00340712
0.000945757
0.000470711
0.000424313
0.000430193
0.000431875
0.000482509
0.000636313
0.00117045
0.00327587
0.0115637
0.171974
0.0616285
0.0201171
0.00639617
0.00247018
0.0016656
0.0016056
0.00165267
0.00171055
0.00196461
0.00251604
0.00394313
0.00882201
0.0265676
0.236437
0.100956
0.040945
0.0165549
0.00795411
0.00567266
0.00530947
0.00543841
0.00577986
0.0068344
0.00873087
0.0126356
0.0242299
0.062448
0.393049
0.208653
0.1046
0.0512631
0.0268096
0.0181117
0.0157132
0.0156848
0.0169206
0.0205087
0.0263303
0.0362571
0.0612915
0.136817
0.694884
0.453141
0.272095
0.154541
0.0857487
0.0543014
0.0426992
0.0404649
0.0435144
0.0536603
0.0696321
0.0931387
0.140714
0.269182
1.20276
0.904817
0.631146
0.410187
0.247628
0.153518
0.109501
0.0952629
0.0986253
0.121901
0.161198
0.214152
0.293503
0.4642
0.332292
0.10037
0.0218117
0.00412547
0.00114465
0.000698422
0.000741887
0.000944638
0.00125016
0.00187375
0.00356963
0.00810426
0.0198779
0.0489229
0.21459
0.0525049
0.00795895
0.000847491
0.000126034
5.55925e-05
6.58573e-05
0.000101545
0.000149475
0.000223853
0.000453483
0.00132693
0.00455468
0.0166308
0.125536
0.026369
0.00377845
0.000433545
6.2405e-05
1.09498e-05
4.87892e-06
6.76225e-06
1.21572e-05
2.39528e-05
7.85019e-05
0.000376458
0.00182599
0.00804959
0.0748477
0.0160393
0.00298337
0.000524046
9.01789e-05
1.32263e-05
1.72565e-06
4.74452e-07
7.62859e-07
3.37371e-06
2.29337e-05
0.000148462
0.000819544
0.00376865
0.0479544
0.0119243
0.00284463
0.000606637
0.000105545
1.51724e-05
1.78601e-06
1.9836e-07
1.5274e-07
1.07997e-06
8.83289e-06
6.11048e-05
0.000349288
0.00164785
0.0363119
0.0105432
0.00280861
0.000613732
0.000102605
1.46196e-05
1.921e-06
4.45452e-07
3.34714e-07
7.36855e-07
4.51833e-06
3.12594e-05
0.000184031
0.00090025
0.0343315
0.0109204
0.00290801
0.00060845
9.87116e-05
1.54702e-05
3.86865e-06
2.70917e-06
2.57611e-06
2.84527e-06
5.44992e-06
2.42455e-05
0.000136911
0.000712324
0.0397954
0.0126849
0.00322453
0.000640685
0.000112228
2.71701e-05
1.7146e-05
1.719e-05
1.73329e-05
1.84455e-05
2.28618e-05
4.66003e-05
0.000181147
0.000908783
0.0507846
0.0154658
0.00380643
0.000785142
0.000184736
8.9204e-05
8.49115e-05
9.11224e-05
9.45353e-05
0.000103243
0.000122342
0.000182156
0.000450276
0.00181256
0.0669036
0.0203018
0.00533133
0.00139208
0.000496952
0.000359307
0.00037171
0.000404294
0.000429329
0.000482546
0.000575807
0.00077832
0.00151023
0.00483598
0.0945791
0.0332807
0.0108971
0.00367198
0.00174023
0.00138142
0.00140741
0.00152844
0.00165969
0.00191996
0.00232578
0.00301836
0.00514132
0.0138631
0.172997
0.0771642
0.0313788
0.0127926
0.0064815
0.00487456
0.00469057
0.00501454
0.00553522
0.00657892
0.00812959
0.0103646
0.0160569
0.037512
0.356062
0.19924
0.0981994
0.0459279
0.0232538
0.0158299
0.0140099
0.0144867
0.0161099
0.0196106
0.0248678
0.0317633
0.045614
0.0918685
0.710229
0.472544
0.275723
0.147941
0.0772701
0.0480298
0.0383314
0.0372434
0.0409144
0.0505913
0.0663173
0.086673
0.117855
0.1974
0.12328
0.031564
0.0056817
0.000747516
0.000163538
0.000113439
0.000136774
0.000183968
0.000241528
0.000328327
0.00053935
0.00118256
0.00326555
0.010199
0.0675604
0.0139977
0.00189136
0.000166493
1.89328e-05
7.80723e-06
9.87638e-06
1.61102e-05
2.44823e-05
3.39015e-05
5.71788e-05
0.000169096
0.000735959
0.00360072
0.0351297
0.00667853
0.000965091
0.00012055
1.58871e-05
2.25609e-06
7.04948e-07
8.90949e-07
1.58069e-06
2.81202e-06
8.46338e-06
4.95654e-05
0.000313651
0.00175961
0.020633
0.00442599
0.000860997
0.000154371
2.33853e-05
2.94474e-06
3.19586e-07
6.32719e-08
7.43153e-08
2.76082e-07
2.25927e-06
1.912e-05
0.000136207
0.000793716
0.0142825
0.00360526
0.000849257
0.000173483
2.71165e-05
3.34578e-06
3.38263e-07
3.07799e-08
1.18022e-08
7.86775e-08
8.39856e-07
7.63851e-06
5.64189e-05
0.000337812
0.0119725
0.00339718
0.000853119
0.00017481
2.6287e-05
3.14334e-06
3.44891e-07
6.47682e-08
4.14074e-08
6.55532e-08
4.2235e-07
3.79666e-06
2.8954e-05
0.000179643
0.0123045
0.00366254
0.00089939
0.000175385
2.51737e-05
3.22317e-06
6.5997e-07
4.20573e-07
3.84725e-07
3.7965e-07
6.11796e-07
2.99797e-06
2.15462e-05
0.00014015
0.014924
0.00433683
0.00100542
0.00018563
2.69322e-05
5.35289e-06
3.13882e-06
3.03504e-06
2.96648e-06
2.94226e-06
3.29477e-06
6.22393e-06
2.73373e-05
0.000167858
0.0193806
0.00531933
0.00117867
0.000215595
4.0606e-05
1.84431e-05
1.76466e-05
1.8411e-05
1.85331e-05
1.9041e-05
2.09884e-05
2.82513e-05
6.62982e-05
0.000304323
0.0256826
0.00684039
0.00155761
0.000329331
0.000108974
8.31341e-05
8.78216e-05
9.33405e-05