/*--------------------------------*- C++ -*----------------------------------*\
| =========                 |                                                 |
| \\      /  F ield         | OpenFOAM: The Open Source CFD Toolbox           |
|  \\    /   O peration     | Version:  v2106                                 |
|   \\  /    A nd           | Website:  www.openfoam.com                      |
|    \\/     M anipulation  |                                                 |
\*---------------------------------------------------------------------------*/
FoamFile
{
    version     2.0;
    format      ascii;
    arch        "LSB;label=32;scalar=64";
    class       volScalarField;
    location    "0.000211";
    object      alphat;
}
// * * * * * * * * * * * * * * * * * * * * * * * * * * * * * * * * * * * * * //

dimensions      [1 -1 -1 0 0 0 0];

internalField   nonuniform List<scalar> 
17920
(
9.56373e-17
9.56441e-17
9.56635e-17
9.56715e-17
9.56902e-17
9.56984e-17
9.57194e-17
9.57277e-17
9.57497e-17
9.57575e-17
9.57818e-17
9.57889e-17
9.58149e-17
9.58215e-17
9.58493e-17
9.58554e-17
9.5884e-17
9.58898e-17
9.59197e-17
9.59254e-17
9.59552e-17
9.59605e-17
9.59918e-17
9.5997e-17
9.60274e-17
9.60331e-17
9.60627e-17
9.60708e-17
9.55536e-17
9.55453e-17
9.55397e-17
9.55345e-17
9.55303e-17
9.55267e-17
9.55239e-17
9.55216e-17
9.55199e-17
9.55188e-17
9.55179e-17
9.5518e-17
9.55177e-17
9.55203e-17
9.55705e-17
9.55615e-17
9.55556e-17
9.555e-17
9.55457e-17
9.55419e-17
9.55388e-17
9.55363e-17
9.55343e-17
9.55329e-17
9.55319e-17
9.55318e-17
9.55313e-17
9.55336e-17
9.55864e-17
9.55773e-17
9.55717e-17
9.55661e-17
9.55617e-17
9.55579e-17
9.55548e-17
9.55522e-17
9.55501e-17
9.55487e-17
9.55475e-17
9.55473e-17
9.55467e-17
9.55489e-17
9.56041e-17
9.55953e-17
9.55894e-17
9.55837e-17
9.55791e-17
9.55753e-17
9.55721e-17
9.55695e-17
9.55675e-17
9.5566e-17
9.55648e-17
9.55644e-17
9.55638e-17
9.55654e-17
9.56222e-17
9.56138e-17
9.56079e-17
9.56022e-17
9.55976e-17
9.55938e-17
9.55906e-17
9.55881e-17
9.55861e-17
9.55847e-17
9.55836e-17
9.55832e-17
9.55828e-17
9.55838e-17
9.56413e-17
9.56334e-17
9.56275e-17
9.56219e-17
9.56173e-17
9.56135e-17
9.56104e-17
9.5608e-17
9.56062e-17
9.56049e-17
9.5604e-17
9.56036e-17
9.56033e-17
9.56038e-17
9.56606e-17
9.56535e-17
9.56477e-17
9.56423e-17
9.56379e-17
9.56343e-17
9.56314e-17
9.56292e-17
9.56275e-17
9.56264e-17
9.56257e-17
9.56252e-17
9.56251e-17
9.56253e-17
9.56807e-17
9.56746e-17
9.56688e-17
9.56638e-17
9.56595e-17
9.56561e-17
9.56534e-17
9.56515e-17
9.565e-17
9.5649e-17
9.56485e-17
9.56481e-17
9.56485e-17
9.56484e-17
9.5701e-17
9.5696e-17
9.56906e-17
9.5686e-17
9.5682e-17
9.56789e-17
9.56766e-17
9.56749e-17
9.56738e-17
9.56729e-17
9.56727e-17
9.56724e-17
9.56733e-17
9.56726e-17
9.5722e-17
9.57181e-17
9.5713e-17
9.5709e-17
9.57055e-17
9.57027e-17
9.57008e-17
9.56994e-17
9.56985e-17
9.56979e-17
9.5698e-17
9.5698e-17
9.56995e-17
9.56985e-17
9.57432e-17
9.57407e-17
9.57361e-17
9.57327e-17
9.57297e-17
9.57274e-17
9.57258e-17
9.57248e-17
9.57243e-17
9.57239e-17
9.57245e-17
9.57248e-17
9.57266e-17
9.57252e-17
9.57657e-17
9.57638e-17
9.57597e-17
9.57568e-17
9.57543e-17
9.57526e-17
9.57516e-17
9.5751e-17
9.57511e-17
9.57512e-17
9.57522e-17
9.57532e-17
9.57553e-17
9.57534e-17
9.57887e-17
9.57873e-17
9.5784e-17
9.57817e-17
9.57799e-17
9.57787e-17
9.57781e-17
9.5778e-17
9.57784e-17
9.57789e-17
9.57801e-17
9.57815e-17
9.57834e-17
9.57815e-17
9.58141e-17
9.58113e-17
9.58078e-17
9.58061e-17
9.58052e-17
9.58047e-17
9.5805e-17
9.58055e-17
9.58065e-17
9.58075e-17
9.58088e-17
9.58108e-17
9.58135e-17
9.58131e-17
9.55181e-17
9.55066e-17
9.54976e-17
9.54891e-17
9.54814e-17
9.54742e-17
9.54678e-17
9.54619e-17
9.54568e-17
9.54522e-17
9.54482e-17
9.54445e-17
9.5441e-17
9.54383e-17
9.55272e-17
9.55162e-17
9.55071e-17
9.54981e-17
9.549e-17
9.54824e-17
9.54754e-17
9.54689e-17
9.54631e-17
9.54578e-17
9.54532e-17
9.54491e-17
9.5445e-17
9.54419e-17
9.55358e-17
9.55247e-17
9.55156e-17
9.55066e-17
9.54983e-17
9.54905e-17
9.54833e-17
9.54766e-17
9.54704e-17
9.54648e-17
9.54598e-17
9.54552e-17
9.54506e-17
9.54473e-17
9.55454e-17
9.55343e-17
9.5525e-17
9.55158e-17
9.55074e-17
9.54994e-17
9.5492e-17
9.54851e-17
9.54786e-17
9.54726e-17
9.54671e-17
9.54621e-17
9.54571e-17
9.54533e-17
9.55552e-17
9.55442e-17
9.55347e-17
9.55256e-17
9.55171e-17
9.55091e-17
9.55016e-17
9.54944e-17
9.54878e-17
9.54814e-17
9.54756e-17
9.54702e-17
9.54649e-17
9.54607e-17
9.55657e-17
9.55549e-17
9.55453e-17
9.55361e-17
9.55275e-17
9.55195e-17
9.55118e-17
9.55046e-17
9.54977e-17
9.54912e-17
9.54851e-17
9.54794e-17
9.54739e-17
9.54691e-17
9.55766e-17
9.55662e-17
9.55565e-17
9.55473e-17
9.55387e-17
9.55306e-17
9.55229e-17
9.55156e-17
9.55087e-17
9.5502e-17
9.54958e-17
9.54898e-17
9.54842e-17
9.54789e-17
9.55881e-17
9.55782e-17
9.55686e-17
9.55594e-17
9.55507e-17
9.55425e-17
9.55348e-17
9.55275e-17
9.55204e-17
9.55137e-17
9.55073e-17
9.55012e-17
9.54956e-17
9.54899e-17
9.55998e-17
9.55904e-17
9.55809e-17
9.55719e-17
9.55633e-17
9.55552e-17
9.55475e-17
9.55402e-17
9.55332e-17
9.55265e-17
9.55202e-17
9.55138e-17
9.55082e-17
9.55019e-17
9.5612e-17
9.56033e-17
9.5594e-17
9.55853e-17
9.55768e-17
9.55687e-17
9.5561e-17
9.55537e-17
9.55467e-17
9.554e-17
9.55336e-17
9.55271e-17
9.55216e-17
9.55149e-17
9.56244e-17
9.56163e-17
9.56074e-17
9.55989e-17
9.55906e-17
9.55828e-17
9.55753e-17
9.55682e-17
9.55613e-17
9.55546e-17
9.55482e-17
9.55414e-17
9.55359e-17
9.55287e-17
9.56375e-17
9.56301e-17
9.56214e-17
9.56132e-17
9.56053e-17
9.55978e-17
9.55905e-17
9.55834e-17
9.55764e-17
9.55696e-17
9.55632e-17
9.55563e-17
9.55511e-17
9.55439e-17
9.56518e-17
9.56447e-17
9.56366e-17
9.56285e-17
9.56208e-17
9.56133e-17
9.56062e-17
9.55993e-17
9.55924e-17
9.55855e-17
9.5579e-17
9.5572e-17
9.55666e-17
9.556e-17
9.56674e-17
9.56587e-17
9.56507e-17
9.56432e-17
9.56362e-17
9.56293e-17
9.56226e-17
9.56159e-17
9.56094e-17
9.56027e-17
9.55964e-17
9.55895e-17
9.55841e-17
9.5578e-17
9.54814e-17
9.54688e-17
9.54582e-17
9.54482e-17
9.54387e-17
9.54295e-17
9.54209e-17
9.54125e-17
9.5405e-17
9.53976e-17
9.53911e-17
9.53844e-17
9.53784e-17
9.53719e-17
9.54831e-17
9.54714e-17
9.54611e-17
9.54508e-17
9.54409e-17
9.54314e-17
9.54222e-17
9.54134e-17
9.54052e-17
9.53972e-17
9.539e-17
9.53827e-17
9.5376e-17
9.53691e-17
9.54846e-17
9.54733e-17
9.54629e-17
9.54525e-17
9.54426e-17
9.54329e-17
9.54236e-17
9.54144e-17
9.54058e-17
9.53974e-17
9.53897e-17
9.53819e-17
9.53746e-17
9.53673e-17
9.54867e-17
9.54756e-17
9.5465e-17
9.54546e-17
9.54445e-17
9.54347e-17
9.54251e-17
9.54156e-17
9.54066e-17
9.53977e-17
9.53895e-17
9.53813e-17
9.53734e-17
9.53657e-17
9.54887e-17
9.54777e-17
9.54671e-17
9.54568e-17
9.54466e-17
9.54366e-17
9.54268e-17
9.54171e-17
9.54078e-17
9.53985e-17
9.53897e-17
9.5381e-17
9.53727e-17
9.53645e-17
9.5491e-17
9.54801e-17
9.54694e-17
9.5459e-17
9.54487e-17
9.54386e-17
9.54287e-17
9.54188e-17
9.54091e-17
9.53995e-17
9.53903e-17
9.53812e-17
9.53724e-17
9.53637e-17
9.54936e-17
9.54826e-17
9.54719e-17
9.54615e-17
9.54511e-17
9.54409e-17
9.54308e-17
9.54208e-17
9.54108e-17
9.54009e-17
9.53913e-17
9.53818e-17
9.53727e-17
9.53635e-17
9.54963e-17
9.54854e-17
9.54747e-17
9.54641e-17
9.54537e-17
9.54434e-17
9.54331e-17
9.54229e-17
9.54127e-17
9.54026e-17
9.53927e-17
9.53829e-17
9.53734e-17
9.53639e-17
9.54993e-17
9.54885e-17
9.54776e-17
9.5467e-17
9.54565e-17
9.54461e-17
9.54358e-17
9.54254e-17
9.5415e-17
9.54047e-17
9.53944e-17
9.53843e-17
9.53745e-17
9.53647e-17
9.55024e-17
9.54916e-17
9.54808e-17
9.54701e-17
9.54595e-17
9.54491e-17
9.54386e-17
9.54282e-17
9.54175e-17
9.5407e-17
9.53965e-17
9.53862e-17
9.53761e-17
9.53662e-17
9.55059e-17
9.54953e-17
9.54844e-17
9.54735e-17
9.54628e-17
9.54523e-17
9.54417e-17
9.54312e-17
9.54205e-17
9.54098e-17
9.5399e-17
9.53884e-17
9.53781e-17
9.53676e-17
9.55095e-17
9.54991e-17
9.54883e-17
9.54774e-17
9.54666e-17
9.5456e-17
9.54453e-17
9.54346e-17
9.54236e-17
9.54128e-17
9.54019e-17
9.53911e-17
9.53806e-17
9.53698e-17
9.55133e-17
9.55027e-17
9.54922e-17
9.54811e-17
9.54703e-17
9.54596e-17
9.5449e-17
9.54383e-17
9.54274e-17
9.54164e-17
9.54053e-17
9.53943e-17
9.53835e-17
9.53718e-17
9.5516e-17
9.55053e-17
9.54953e-17
9.54849e-17
9.54745e-17
9.54638e-17
9.5453e-17
9.54423e-17
9.54315e-17
9.54205e-17
9.54094e-17
9.53983e-17
9.53873e-17
9.53758e-17
9.54182e-17
9.54068e-17
9.53963e-17
9.53861e-17
9.5376e-17
9.5366e-17
9.53562e-17
9.53465e-17
9.53372e-17
9.53277e-17
9.5319e-17
9.53096e-17
9.53015e-17
9.52921e-17
9.54139e-17
9.54031e-17
9.53929e-17
9.53826e-17
9.53723e-17
9.5362e-17
9.53519e-17
9.53418e-17
9.53321e-17
9.53222e-17
9.5313e-17
9.53032e-17
9.52944e-17
9.52846e-17
9.54083e-17
9.53984e-17
9.53881e-17
9.53779e-17
9.53677e-17
9.53574e-17
9.53472e-17
9.5337e-17
9.5327e-17
9.53168e-17
9.53071e-17
9.5297e-17
9.52878e-17
9.52777e-17
9.54034e-17
9.53937e-17
9.53835e-17
9.53733e-17
9.5363e-17
9.53526e-17
9.53423e-17
9.53318e-17
9.53215e-17
9.5311e-17
9.5301e-17
9.52906e-17
9.52809e-17
9.52705e-17
9.5398e-17
9.53886e-17
9.53784e-17
9.53684e-17
9.53581e-17
9.53477e-17
9.53372e-17
9.53265e-17
9.53159e-17
9.53051e-17
9.52947e-17
9.5284e-17
9.52738e-17
9.52632e-17
9.53926e-17
9.53832e-17
9.53731e-17
9.53631e-17
9.53528e-17
9.53423e-17
9.53317e-17
9.53208e-17
9.53099e-17
9.52989e-17
9.52881e-17
9.52771e-17
9.52665e-17
9.52555e-17
9.53874e-17
9.53779e-17
9.53678e-17
9.53578e-17
9.53474e-17
9.53368e-17
9.5326e-17
9.53149e-17
9.53038e-17
9.52925e-17
9.52813e-17
9.52701e-17
9.52591e-17
9.52478e-17
9.53819e-17
9.53721e-17
9.5362e-17
9.53519e-17
9.53415e-17
9.53308e-17
9.53199e-17
9.53087e-17
9.52973e-17
9.52858e-17
9.52743e-17
9.52629e-17
9.52515e-17
9.52401e-17
9.53767e-17
9.53667e-17
9.53565e-17
9.53461e-17
9.53356e-17
9.53248e-17
9.53137e-17
9.53023e-17
9.52906e-17
9.52789e-17
9.5267e-17
9.52553e-17
9.52436e-17
9.52323e-17
9.53711e-17
9.53606e-17
9.53503e-17
9.53398e-17
9.53292e-17
9.53183e-17
9.53071e-17
9.52956e-17
9.52837e-17
9.52719e-17
9.52597e-17
9.52479e-17
9.52356e-17
9.52244e-17
9.53658e-17
9.53549e-17
9.53446e-17
9.53339e-17
9.53231e-17
9.5312e-17
9.53004e-17
9.52887e-17
9.52765e-17
9.52644e-17
9.52519e-17
9.52399e-17
9.52274e-17
9.52163e-17
9.53597e-17
9.53485e-17
9.53381e-17
9.53272e-17
9.53163e-17
9.53051e-17
9.52935e-17
9.52817e-17
9.52694e-17
9.52572e-17
9.52446e-17
9.52324e-17
9.52196e-17
9.52085e-17
9.53538e-17
9.53425e-17
9.53321e-17
9.5321e-17
9.53099e-17
9.52985e-17
9.52866e-17
9.52744e-17
9.52618e-17
9.52492e-17
9.52364e-17
9.5224e-17
9.52113e-17
9.51996e-17
9.53474e-17
9.53359e-17
9.53254e-17
9.53142e-17
9.53028e-17
9.52913e-17
9.52793e-17
9.52673e-17
9.52549e-17
9.52426e-17
9.523e-17
9.52177e-17
9.52046e-17
9.51929e-17
9.52998e-17
9.52901e-17
9.5281e-17
9.5272e-17
9.52628e-17
9.52534e-17
9.52438e-17
9.5234e-17
9.5224e-17
9.52137e-17
9.52037e-17
9.51929e-17
9.51834e-17
9.51724e-17
9.5289e-17
9.52807e-17
9.52718e-17
9.5263e-17
9.52537e-17
9.52442e-17
9.52344e-17
9.52244e-17
9.52143e-17
9.52037e-17
9.51935e-17
9.51826e-17
9.51727e-17
9.51615e-17
9.52778e-17
9.52704e-17
9.52614e-17
9.52528e-17
9.52436e-17
9.52342e-17
9.52245e-17
9.52144e-17
9.52043e-17
9.51938e-17
9.51834e-17
9.51724e-17
9.51623e-17
9.51511e-17
9.52666e-17
9.52596e-17
9.52509e-17
9.52424e-17
9.52332e-17
9.52237e-17
9.52139e-17
9.52038e-17
9.51936e-17
9.51829e-17
9.51724e-17
9.51613e-17
9.51509e-17
9.51397e-17
9.52553e-17
9.52485e-17
9.524e-17
9.52314e-17
9.52222e-17
9.52127e-17
9.52029e-17
9.51927e-17
9.51824e-17
9.51717e-17
9.5161e-17
9.51499e-17
9.51393e-17
9.5128e-17
9.52436e-17
9.52367e-17
9.52283e-17
9.52198e-17
9.52107e-17
9.52012e-17
9.51913e-17
9.5181e-17
9.51706e-17
9.51598e-17
9.51489e-17
9.51377e-17
9.5127e-17
9.51156e-17
9.5232e-17
9.52248e-17
9.52165e-17
9.52079e-17
9.51988e-17
9.51892e-17
9.51793e-17
9.51689e-17
9.51583e-17
9.51474e-17
9.51364e-17
9.51252e-17
9.51142e-17
9.51028e-17
9.52197e-17
9.52122e-17
9.52039e-17
9.51953e-17
9.51862e-17
9.51767e-17
9.51666e-17
9.51562e-17
9.51454e-17
9.51344e-17
9.51232e-17
9.5112e-17
9.51007e-17
9.50895e-17
9.52078e-17
9.51997e-17
9.51913e-17
9.51826e-17
9.51734e-17
9.51637e-17
9.51535e-17
9.5143e-17
9.5132e-17
9.51209e-17
9.51095e-17
9.50983e-17
9.50868e-17
9.5076e-17
9.5195e-17
9.51864e-17
9.51779e-17
9.5169e-17
9.51598e-17
9.51501e-17
9.51399e-17
9.51292e-17
9.51182e-17
9.5107e-17
9.50954e-17
9.50842e-17
9.50723e-17
9.50619e-17
9.51827e-17
9.51734e-17
9.51648e-17
9.51557e-17
9.51463e-17
9.51364e-17
9.51259e-17
9.51151e-17
9.51037e-17
9.50924e-17
9.50806e-17
9.50694e-17
9.50574e-17
9.50475e-17
9.51693e-17
9.51593e-17
9.51507e-17
9.51413e-17
9.51318e-17
9.51219e-17
9.51114e-17
9.51006e-17
9.50893e-17
9.50779e-17
9.50661e-17
9.50549e-17
9.50427e-17
9.50331e-17
9.51567e-17
9.5146e-17
9.51372e-17
9.51277e-17
9.5118e-17
9.51077e-17
9.50969e-17
9.50856e-17
9.5074e-17
9.50624e-17
9.50504e-17
9.5039e-17
9.50272e-17
9.50177e-17
9.51424e-17
9.51314e-17
9.51223e-17
9.51126e-17
9.51027e-17
9.50924e-17
9.50817e-17
9.50707e-17
9.50594e-17
9.5048e-17
9.50363e-17
9.5025e-17
9.50132e-17
9.50037e-17
9.50972e-17
9.50911e-17
9.5085e-17
9.50788e-17
9.50722e-17
9.5065e-17
9.50573e-17
9.50491e-17
9.50404e-17
9.50313e-17
9.5022e-17
9.50123e-17
9.50033e-17
9.49929e-17
9.50824e-17
9.50778e-17
9.5072e-17
9.5066e-17
9.50595e-17
9.50523e-17
9.50446e-17
9.50363e-17
9.50275e-17
9.50183e-17
9.50091e-17
9.49993e-17
9.49903e-17
9.49801e-17
9.50683e-17
9.50643e-17
9.50582e-17
9.50523e-17
9.50458e-17
9.50388e-17
9.50312e-17
9.5023e-17
9.50145e-17
9.50055e-17
9.49965e-17
9.49869e-17
9.4978e-17
9.49679e-17
9.50536e-17
9.50499e-17
9.50441e-17
9.50382e-17
9.50318e-17
9.50247e-17
9.50171e-17
9.5009e-17
9.50005e-17
9.49916e-17
9.49826e-17
9.49731e-17
9.49643e-17
9.49544e-17
9.50391e-17
9.50354e-17
9.50296e-17
9.50237e-17
9.50172e-17
9.50101e-17
9.50025e-17
9.49944e-17
9.49861e-17
9.49773e-17
9.49685e-17
9.49591e-17
9.49503e-17
9.49407e-17
9.50241e-17
9.502e-17
9.50144e-17
9.50085e-17
9.5002e-17
9.49949e-17
9.49873e-17
9.49792e-17
9.49709e-17
9.49623e-17
9.49535e-17
9.49443e-17
9.49355e-17
9.4926e-17
9.50089e-17
9.50045e-17
9.49989e-17
9.49929e-17
9.49864e-17
9.49792e-17
9.49716e-17
9.49636e-17
9.49553e-17
9.49468e-17
9.4938e-17
9.49291e-17
9.49202e-17
9.4911e-17
9.49932e-17
9.49884e-17
9.49828e-17
9.49768e-17
9.49702e-17
9.4963e-17
9.49554e-17
9.49474e-17
9.49392e-17
9.49307e-17
9.49219e-17
9.49131e-17
9.49041e-17
9.48953e-17
9.49775e-17
9.49722e-17
9.49665e-17
9.49603e-17
9.49536e-17
9.49465e-17
9.49388e-17
9.49308e-17
9.49225e-17
9.49141e-17
9.49053e-17
9.48967e-17
9.48877e-17
9.48795e-17
9.49612e-17
9.49554e-17
9.49496e-17
9.49433e-17
9.49366e-17
9.49294e-17
9.49218e-17
9.49138e-17
9.49055e-17
9.48971e-17
9.48882e-17
9.48797e-17
9.48706e-17
9.4863e-17
9.49453e-17
9.49387e-17
9.49328e-17
9.49264e-17
9.49195e-17
9.49122e-17
9.49045e-17
9.48965e-17
9.48881e-17
9.48797e-17
9.48708e-17
9.48624e-17
9.48533e-17
9.48465e-17
9.49281e-17
9.4921e-17
9.49151e-17
9.49086e-17
9.49018e-17
9.48945e-17
9.48868e-17
9.48789e-17
9.48706e-17
9.48622e-17
9.48533e-17
9.48451e-17
9.48359e-17
9.48296e-17
9.49122e-17
9.49043e-17
9.48983e-17
9.48915e-17
9.48844e-17
9.48769e-17
9.4869e-17
9.48609e-17
9.48525e-17
9.4844e-17
9.48352e-17
9.4827e-17
9.48182e-17
9.48124e-17
9.48942e-17
9.48864e-17
9.48798e-17
9.48731e-17
9.4866e-17
9.48586e-17
9.48509e-17
9.4843e-17
9.48349e-17
9.48266e-17
9.48181e-17
9.48098e-17
9.48013e-17
9.47955e-17
9.48036e-17
9.48026e-17
9.48004e-17
9.47979e-17
9.47948e-17
9.47912e-17
9.4787e-17
9.47823e-17
9.47771e-17
9.47715e-17
9.47655e-17
9.47592e-17
9.47532e-17
9.4746e-17
9.47891e-17
9.47892e-17
9.47875e-17
9.4785e-17
9.47819e-17
9.47783e-17
9.47742e-17
9.47695e-17
9.47644e-17
9.47588e-17
9.47529e-17
9.47465e-17
9.47406e-17
9.47335e-17
9.47758e-17
9.47761e-17
9.4774e-17
9.47714e-17
9.47683e-17
9.47648e-17
9.47608e-17
9.47563e-17
9.47513e-17
9.47459e-17
9.47404e-17
9.47343e-17
9.47288e-17
9.4722e-17
9.47618e-17
9.4762e-17
9.47599e-17
9.47574e-17
9.47543e-17
9.47508e-17
9.47469e-17
9.47425e-17
9.47377e-17
9.47324e-17
9.4727e-17
9.47211e-17
9.47159e-17
9.47094e-17
9.47481e-17
9.47478e-17
9.47455e-17
9.4743e-17
9.47399e-17
9.47365e-17
9.47326e-17
9.47283e-17
9.47236e-17
9.47186e-17
9.47134e-17
9.47078e-17
9.47027e-17
9.46965e-17
9.47341e-17
9.4733e-17
9.47307e-17
9.47282e-17
9.47251e-17
9.47217e-17
9.47179e-17
9.47137e-17
9.47091e-17
9.47042e-17
9.46992e-17
9.46939e-17
9.46888e-17
9.4683e-17
9.47196e-17
9.4718e-17
9.47157e-17
9.4713e-17
9.471e-17
9.47066e-17
9.47028e-17
9.46987e-17
9.46942e-17
9.46895e-17
9.46846e-17
9.46796e-17
9.46746e-17
9.46692e-17
9.47047e-17
9.47027e-17
9.47005e-17
9.46977e-17
9.46946e-17
9.46912e-17
9.46874e-17
9.46834e-17
9.4679e-17
9.46744e-17
9.46696e-17
9.46648e-17
9.46598e-17
9.46549e-17
9.46897e-17
9.46874e-17
9.4685e-17
9.46822e-17
9.4679e-17
9.46755e-17
9.46718e-17
9.46677e-17
9.46635e-17
9.4659e-17
9.46544e-17
9.46498e-17
9.46448e-17
9.46406e-17
9.46744e-17
9.46716e-17
9.46692e-17
9.46663e-17
9.46631e-17
9.46596e-17
9.46559e-17
9.46519e-17
9.46477e-17
9.46433e-17
9.46388e-17
9.46344e-17
9.46294e-17
9.46259e-17
9.46594e-17
9.46558e-17
9.46533e-17
9.46504e-17
9.46471e-17
9.46436e-17
9.46399e-17
9.46359e-17
9.46317e-17
9.46274e-17
9.4623e-17
9.46189e-17
9.46141e-17
9.46113e-17
9.46438e-17
9.46394e-17
9.4637e-17
9.46341e-17
9.4631e-17
9.46275e-17
9.46238e-17
9.46199e-17
9.46157e-17
9.46115e-17
9.46071e-17
9.46032e-17
9.45983e-17
9.45962e-17
9.4629e-17
9.4624e-17
9.46214e-17
9.46183e-17
9.4615e-17
9.46114e-17
9.46077e-17
9.46037e-17
9.45996e-17
9.45954e-17
9.4591e-17
9.45873e-17
9.4583e-17
9.45816e-17
9.46124e-17
9.46078e-17
9.46047e-17
9.46018e-17
9.45986e-17
9.45952e-17
9.45916e-17
9.45878e-17
9.45838e-17
9.45797e-17
9.45755e-17
9.45715e-17
9.45676e-17
9.4566e-17
9.44424e-17
9.44444e-17
9.44456e-17
9.44472e-17
9.44481e-17
9.44486e-17
9.44487e-17
9.44483e-17
9.44476e-17
9.44465e-17
9.4445e-17
9.44432e-17
9.44413e-17
9.44391e-17
9.44327e-17
9.44351e-17
9.44364e-17
9.4438e-17
9.4439e-17
9.44395e-17
9.44396e-17
9.44393e-17
9.44386e-17
9.44375e-17
9.44361e-17
9.44343e-17
9.44325e-17
9.44301e-17
9.44234e-17
9.44259e-17
9.44271e-17
9.44286e-17
9.44295e-17
9.443e-17
9.44301e-17
9.44299e-17
9.44293e-17
9.44283e-17
9.44271e-17
9.44254e-17
9.4424e-17
9.44216e-17
9.44137e-17
9.44162e-17
9.44174e-17
9.44189e-17
9.44197e-17
9.44202e-17
9.44203e-17
9.44201e-17
9.44196e-17
9.44188e-17
9.44177e-17
9.44162e-17
9.44149e-17
9.44127e-17
9.44041e-17
9.44064e-17
9.44075e-17
9.44088e-17
9.44095e-17
9.44101e-17
9.44103e-17
9.44101e-17
9.44097e-17
9.4409e-17
9.44081e-17
9.44069e-17
9.44058e-17
9.44037e-17
9.43943e-17
9.43962e-17
9.43974e-17
9.43985e-17
9.43992e-17
9.43997e-17
9.43999e-17
9.43999e-17
9.43996e-17
9.4399e-17
9.43983e-17
9.43972e-17
9.43962e-17
9.43945e-17
9.43843e-17
9.43858e-17
9.4387e-17
9.43879e-17
9.43886e-17
9.43891e-17
9.43894e-17
9.43894e-17
9.43892e-17
9.43888e-17
9.43882e-17
9.43874e-17
9.43865e-17
9.43852e-17
9.4374e-17
9.43752e-17
9.43764e-17
9.43773e-17
9.43779e-17
9.43784e-17
9.43786e-17
9.43787e-17
9.43786e-17
9.43783e-17
9.43779e-17
9.43773e-17
9.43764e-17
9.43756e-17
9.43636e-17
9.43644e-17
9.43656e-17
9.43664e-17
9.43671e-17
9.43675e-17
9.43678e-17
9.43679e-17
9.43679e-17
9.43677e-17
9.43674e-17
9.43669e-17
9.43661e-17
9.4366e-17
9.4353e-17
9.43534e-17
9.43547e-17
9.43554e-17
9.43561e-17
9.43565e-17
9.43568e-17
9.4357e-17
9.4357e-17
9.4357e-17
9.43567e-17
9.43564e-17
9.43556e-17
9.4356e-17
9.43426e-17
9.43424e-17
9.43436e-17
9.43443e-17
9.4345e-17
9.43455e-17
9.43458e-17
9.4346e-17
9.43461e-17
9.43462e-17
9.4346e-17
9.43458e-17
9.43451e-17
9.43461e-17
9.4332e-17
9.43313e-17
9.43325e-17
9.43333e-17
9.43339e-17
9.43344e-17
9.43347e-17
9.4335e-17
9.43352e-17
9.43353e-17
9.43352e-17
9.4335e-17
9.43343e-17
9.43357e-17
9.43215e-17
9.43207e-17
9.43216e-17
9.43223e-17
9.43229e-17
9.43234e-17
9.43237e-17
9.4324e-17
9.43242e-17
9.43244e-17
9.43243e-17
9.43243e-17
9.4324e-17
9.43257e-17
9.43105e-17
9.43098e-17
9.43108e-17
9.43115e-17
9.43121e-17
9.43125e-17
9.43128e-17
9.4313e-17
9.43133e-17
9.43135e-17
9.43136e-17
9.43135e-17
9.43135e-17
9.43143e-17
9.40509e-17
9.40553e-17
9.40593e-17
9.40633e-17
9.4067e-17
9.40705e-17
9.40738e-17
9.40768e-17
9.40796e-17
9.40822e-17
9.40845e-17
9.40865e-17
9.40882e-17
9.40895e-17
9.40476e-17
9.40522e-17
9.40561e-17
9.40601e-17
9.40638e-17
9.40674e-17
9.40706e-17
9.40737e-17
9.40765e-17
9.40791e-17
9.40814e-17
9.40834e-17
9.40851e-17
9.40863e-17
9.40444e-17
9.4049e-17
9.40528e-17
9.40567e-17
9.40604e-17
9.40639e-17
9.40672e-17
9.40703e-17
9.40732e-17
9.40758e-17
9.40782e-17
9.40802e-17
9.40821e-17
9.40832e-17
9.4041e-17
9.40454e-17
9.40493e-17
9.40532e-17
9.40569e-17
9.40604e-17
9.40637e-17
9.40667e-17
9.40696e-17
9.40722e-17
9.40746e-17
9.40767e-17
9.40786e-17
9.40798e-17
9.40376e-17
9.40417e-17
9.40455e-17
9.40494e-17
9.4053e-17
9.40565e-17
9.40599e-17
9.4063e-17
9.40659e-17
9.40686e-17
9.4071e-17
9.40731e-17
9.40751e-17
9.40764e-17
9.40338e-17
9.40379e-17
9.40417e-17
9.40455e-17
9.40491e-17
9.40526e-17
9.40559e-17
9.40591e-17
9.4062e-17
9.40647e-17
9.40671e-17
9.40693e-17
9.40714e-17
9.40728e-17
9.40299e-17
9.40338e-17
9.40376e-17
9.40414e-17
9.4045e-17
9.40484e-17
9.40518e-17
9.40549e-17
9.40579e-17
9.40607e-17
9.40632e-17
9.40655e-17
9.40675e-17
9.40692e-17
9.40256e-17
9.40295e-17
9.40333e-17
9.40371e-17
9.40406e-17
9.40441e-17
9.40475e-17
9.40506e-17
9.40536e-17
9.40564e-17
9.4059e-17
9.40614e-17
9.40636e-17
9.40655e-17
9.40213e-17
9.40251e-17
9.40289e-17
9.40326e-17
9.40361e-17
9.40396e-17
9.4043e-17
9.40462e-17
9.40492e-17
9.40521e-17
9.40547e-17
9.40572e-17
9.40594e-17
9.40616e-17
9.40167e-17
9.40204e-17
9.40243e-17
9.4028e-17
9.40315e-17
9.4035e-17
9.40383e-17
9.40416e-17
9.40446e-17
9.40475e-17
9.40503e-17
9.40528e-17
9.40551e-17
9.40576e-17
9.40122e-17
9.40158e-17
9.40197e-17
9.40233e-17
9.40268e-17
9.40303e-17
9.40336e-17
9.40368e-17
9.40399e-17
9.40428e-17
9.40456e-17
9.40483e-17
9.40507e-17
9.40535e-17
9.40074e-17
9.40111e-17
9.4015e-17
9.40186e-17
9.4022e-17
9.40255e-17
9.40287e-17
9.4032e-17
9.40351e-17
9.40381e-17
9.40409e-17
9.40437e-17
9.40462e-17
9.4049e-17
9.40028e-17
9.40063e-17
9.401e-17
9.40137e-17
9.40171e-17
9.40206e-17
9.40239e-17
9.40271e-17
9.40303e-17
9.40333e-17
9.40362e-17
9.4039e-17
9.40417e-17
9.40448e-17
9.39983e-17
9.40018e-17
9.40055e-17
9.40091e-17
9.40125e-17
9.40158e-17
9.4019e-17
9.40221e-17
9.40251e-17
9.40281e-17
9.4031e-17
9.40339e-17
9.40367e-17
9.40397e-17
9.3665e-17
9.36694e-17
9.36742e-17
9.36788e-17
9.36835e-17
9.3688e-17
9.36926e-17
9.3697e-17
9.37014e-17
9.37056e-17
9.37097e-17
9.37135e-17
9.3717e-17
9.37203e-17
9.36665e-17
9.36711e-17
9.36759e-17
9.36807e-17
9.36855e-17
9.36902e-17
9.36949e-17
9.36994e-17
9.37038e-17
9.37079e-17
9.37119e-17
9.37155e-17
9.37189e-17
9.3722e-17
9.36688e-17
9.36733e-17
9.36782e-17
9.36829e-17
9.36878e-17
9.36925e-17
9.36971e-17
9.37015e-17
9.37058e-17
9.37099e-17
9.37137e-17
9.37174e-17
9.37206e-17
9.37237e-17
9.36705e-17
9.36752e-17
9.36801e-17
9.36849e-17
9.36897e-17
9.36945e-17
9.36991e-17
9.37035e-17
9.37078e-17
9.37119e-17
9.37157e-17
9.37192e-17
9.37225e-17
9.37254e-17
9.36722e-17
9.3677e-17
9.3682e-17
9.36868e-17
9.36916e-17
9.36963e-17
9.37009e-17
9.37053e-17
9.37096e-17
9.37136e-17
9.37173e-17
9.37209e-17
9.37241e-17
9.3727e-17
9.36736e-17
9.36786e-17
9.36836e-17
9.36884e-17
9.36933e-17
9.3698e-17
9.37026e-17
9.3707e-17
9.37113e-17
9.37153e-17
9.3719e-17
9.37225e-17
9.37257e-17
9.37285e-17
9.36748e-17
9.36799e-17
9.36849e-17
9.36899e-17
9.36947e-17
9.36994e-17
9.3704e-17
9.37084e-17
9.37127e-17
9.37166e-17
9.37204e-17
9.37238e-17
9.37271e-17
9.37299e-17
9.36758e-17
9.3681e-17
9.3686e-17
9.36911e-17
9.36959e-17
9.37007e-17
9.37053e-17
9.37097e-17
9.37139e-17
9.37179e-17
9.37216e-17
9.37251e-17
9.37283e-17
9.37312e-17
9.36767e-17
9.36819e-17
9.36869e-17
9.3692e-17
9.36969e-17
9.37017e-17
9.37063e-17
9.37107e-17
9.37149e-17
9.37189e-17
9.37226e-17
9.37261e-17
9.37294e-17
9.37323e-17
9.36773e-17
9.36826e-17
9.36876e-17
9.36928e-17
9.36976e-17
9.37024e-17
9.3707e-17
9.37115e-17
9.37157e-17
9.37197e-17
9.37234e-17
9.37269e-17
9.37303e-17
9.37333e-17
9.36778e-17
9.36831e-17
9.36881e-17
9.36933e-17
9.36982e-17
9.3703e-17
9.37076e-17
9.3712e-17
9.37162e-17
9.37202e-17
9.3724e-17
9.37276e-17
9.3731e-17
9.37341e-17
9.36782e-17
9.36835e-17
9.36885e-17
9.36937e-17
9.36985e-17
9.37034e-17
9.37079e-17
9.37124e-17
9.37166e-17
9.37206e-17
9.37244e-17
9.3728e-17
9.37315e-17
9.37348e-17
9.36785e-17
9.36837e-17
9.36885e-17
9.36937e-17
9.36986e-17
9.37035e-17
9.3708e-17
9.37125e-17
9.37168e-17
9.37208e-17
9.37247e-17
9.37284e-17
9.37319e-17
9.37355e-17
9.36789e-17
9.36844e-17
9.36891e-17
9.36942e-17
9.36988e-17
9.37036e-17
9.3708e-17
9.37123e-17
9.37165e-17
9.37205e-17
9.37243e-17
9.37281e-17
9.37319e-17
9.37355e-17
9.33022e-17
9.33054e-17
9.33093e-17
9.33132e-17
9.33172e-17
9.33212e-17
9.33252e-17
9.33291e-17
9.3333e-17
9.33368e-17
9.33404e-17
9.33439e-17
9.33473e-17
9.33508e-17
9.33065e-17
9.33099e-17
9.33139e-17
9.33179e-17
9.33221e-17
9.33262e-17
9.33303e-17
9.33344e-17
9.33383e-17
9.3342e-17
9.33455e-17
9.33489e-17
9.33521e-17
9.33556e-17
9.33112e-17
9.33147e-17
9.3319e-17
9.33231e-17
9.33273e-17
9.33314e-17
9.33354e-17
9.33394e-17
9.33432e-17
9.33468e-17
9.33502e-17
9.33535e-17
9.33565e-17
9.33598e-17
9.33156e-17
9.33194e-17
9.33237e-17
9.33279e-17
9.33322e-17
9.33363e-17
9.33404e-17
9.33444e-17
9.33481e-17
9.33517e-17
9.33551e-17
9.33584e-17
9.33613e-17
9.33644e-17
9.33199e-17
9.3324e-17
9.33285e-17
9.33327e-17
9.3337e-17
9.33412e-17
9.33452e-17
9.33491e-17
9.33529e-17
9.33564e-17
9.33597e-17
9.33629e-17
9.33658e-17
9.33686e-17
9.33242e-17
9.33285e-17
9.3333e-17
9.33373e-17
9.33416e-17
9.33458e-17
9.33499e-17
9.33538e-17
9.33575e-17
9.33611e-17
9.33644e-17
9.33675e-17
9.33703e-17
9.3373e-17
9.33282e-17
9.33327e-17
9.33373e-17
9.33417e-17
9.33461e-17
9.33503e-17
9.33544e-17
9.33583e-17
9.3362e-17
9.33655e-17
9.33688e-17
9.33718e-17
9.33746e-17
9.33772e-17
9.33321e-17
9.33368e-17
9.33414e-17
9.33459e-17
9.33503e-17
9.33546e-17
9.33587e-17
9.33626e-17
9.33663e-17
9.33698e-17
9.33731e-17
9.33761e-17
9.33789e-17
9.33813e-17
9.33358e-17
9.33407e-17
9.33452e-17
9.33499e-17
9.33543e-17
9.33586e-17
9.33627e-17
9.33667e-17
9.33704e-17
9.33738e-17
9.33771e-17
9.33801e-17
9.3383e-17
9.33853e-17
9.33394e-17
9.33443e-17
9.33489e-17
9.33536e-17
9.33581e-17
9.33624e-17
9.33665e-17
9.33705e-17
9.33742e-17
9.33777e-17
9.3381e-17
9.3384e-17
9.33869e-17
9.33891e-17
9.33428e-17
9.33478e-17
9.33523e-17
9.33571e-17
9.33616e-17
9.3366e-17
9.33701e-17
9.33741e-17
9.33778e-17
9.33813e-17
9.33845e-17
9.33875e-17
9.33905e-17
9.33928e-17
9.33461e-17
9.33511e-17
9.33556e-17
9.33604e-17
9.33649e-17
9.33693e-17
9.33734e-17
9.33774e-17
9.33811e-17
9.33846e-17
9.33879e-17
9.3391e-17
9.33939e-17
9.33964e-17
9.33492e-17
9.33541e-17
9.33586e-17
9.33634e-17
9.33679e-17
9.33723e-17
9.33765e-17
9.33805e-17
9.33842e-17
9.33878e-17
9.33911e-17
9.33942e-17
9.33971e-17
9.33999e-17
9.33526e-17
9.33575e-17
9.33619e-17
9.33666e-17
9.3371e-17
9.33753e-17
9.33794e-17
9.33833e-17
9.3387e-17
9.33905e-17
9.33938e-17
9.33971e-17
9.34003e-17
9.34035e-17
9.29688e-17
9.29705e-17
9.29728e-17
9.29751e-17
9.29775e-17
9.29798e-17
9.29822e-17
9.29845e-17
9.29868e-17
9.29891e-17
9.29913e-17
9.29935e-17
9.29958e-17
9.29983e-17
9.29733e-17
9.29751e-17
9.29774e-17
9.29798e-17
9.29823e-17
9.29847e-17
9.29871e-17
9.29896e-17
9.29919e-17
9.29942e-17
9.29964e-17
9.29986e-17
9.30007e-17
9.30033e-17
9.29778e-17
9.29797e-17
9.29823e-17
9.29847e-17
9.29873e-17
9.29897e-17
9.29921e-17
9.29945e-17
9.29968e-17
9.2999e-17
9.30012e-17
9.30033e-17
9.30052e-17
9.30077e-17
9.29823e-17
9.29844e-17
9.2987e-17
9.29895e-17
9.29921e-17
9.29946e-17
9.2997e-17
9.29994e-17
9.30018e-17
9.3004e-17
9.30061e-17
9.30082e-17
9.30102e-17
9.30125e-17
9.29866e-17
9.2989e-17
9.29917e-17
9.29943e-17
9.29969e-17
9.29995e-17
9.30019e-17
9.30043e-17
9.30066e-17
9.30088e-17
9.30109e-17
9.3013e-17
9.30149e-17
9.30169e-17
9.29911e-17
9.29937e-17
9.29964e-17
9.29991e-17
9.30017e-17
9.30043e-17
9.30068e-17
9.30092e-17
9.30115e-17
9.30137e-17
9.30158e-17
9.30178e-17
9.30197e-17
9.30215e-17
9.29954e-17
9.29982e-17
9.3001e-17
9.30037e-17
9.30064e-17
9.3009e-17
9.30115e-17
9.30139e-17
9.30162e-17
9.30184e-17
9.30205e-17
9.30225e-17
9.30243e-17
9.3026e-17
9.29998e-17
9.30027e-17
9.30055e-17
9.30083e-17
9.3011e-17
9.30136e-17
9.30162e-17
9.30186e-17
9.30209e-17
9.30231e-17
9.30252e-17
9.30271e-17
9.3029e-17
9.30305e-17
9.30041e-17
9.30072e-17
9.30099e-17
9.30128e-17
9.30155e-17
9.30182e-17
9.30207e-17
9.30232e-17
9.30255e-17
9.30277e-17
9.30298e-17
9.30317e-17
9.30335e-17
9.30349e-17
9.30083e-17
9.30115e-17
9.30142e-17
9.30171e-17
9.30199e-17
9.30226e-17
9.30252e-17
9.30276e-17
9.303e-17
9.30322e-17
9.30343e-17
9.30361e-17
9.3038e-17
9.30392e-17
9.30124e-17
9.30156e-17
9.30184e-17
9.30213e-17
9.30241e-17
9.30269e-17
9.30295e-17
9.3032e-17
9.30343e-17
9.30365e-17
9.30386e-17
9.30404e-17
9.30422e-17
9.30434e-17
9.30165e-17
9.30197e-17
9.30225e-17
9.30254e-17
9.30282e-17
9.3031e-17
9.30336e-17
9.30361e-17
9.30385e-17
9.30407e-17
9.30427e-17
9.30446e-17
9.30464e-17
9.30476e-17
9.30203e-17
9.30236e-17
9.30264e-17
9.30293e-17
9.30322e-17
9.3035e-17
9.30376e-17
9.30401e-17
9.30425e-17
9.30447e-17
9.30468e-17
9.30486e-17
9.30503e-17
9.30518e-17
9.30246e-17
9.30277e-17
9.30304e-17
9.30333e-17
9.30361e-17
9.30388e-17
9.30414e-17
9.30439e-17
9.30463e-17
9.30485e-17
9.30505e-17
9.30525e-17
9.30544e-17
9.30563e-17
9.26654e-17
9.26659e-17
9.26665e-17
9.26671e-17
9.26677e-17
9.26683e-17
9.26689e-17
9.26695e-17
9.26702e-17
9.2671e-17
9.26719e-17
9.26728e-17
9.2674e-17
9.26753e-17
9.26685e-17
9.26686e-17
9.26692e-17
9.26698e-17
9.26705e-17
9.26711e-17
9.26718e-17
9.26725e-17
9.26733e-17
9.26741e-17
9.26751e-17
9.26761e-17
9.26772e-17
9.26788e-17
9.26711e-17
9.26713e-17
9.2672e-17
9.26727e-17
9.26734e-17
9.2674e-17
9.26747e-17
9.26754e-17
9.26762e-17
9.26771e-17
9.26781e-17
9.26791e-17
9.26802e-17
9.26817e-17
9.2674e-17
9.26743e-17
9.2675e-17
9.26756e-17
9.26763e-17
9.2677e-17
9.26777e-17
9.26785e-17
9.26794e-17
9.26803e-17
9.26813e-17
9.26823e-17
9.26834e-17
9.26848e-17
9.26768e-17
9.26773e-17
9.2678e-17
9.26787e-17
9.26794e-17
9.26801e-17
9.26808e-17
9.26816e-17
9.26825e-17
9.26835e-17