/*--------------------------------*- C++ -*----------------------------------*\
| =========                 |                                                 |
| \\      /  F ield         | OpenFOAM: The Open Source CFD Toolbox           |
|  \\    /   O peration     | Version:  v2106                                 |
|   \\  /    A nd           | Website:  www.openfoam.com                      |
|    \\/     M anipulation  |                                                 |
\*---------------------------------------------------------------------------*/
FoamFile
{
    version     2.0;
    format      ascii;
    arch        "LSB;label=32;scalar=64";
    class       volScalarField;
    location    "0.000189";
    object      p;
}
// * * * * * * * * * * * * * * * * * * * * * * * * * * * * * * * * * * * * * //

dimensions      [1 -1 -2 0 0 0 0];

internalField   nonuniform List<scalar> 
17924
(
242176
242263
242342
242417
241661
241768
241864
241948
242022
242088
242147
241704
241801
241900
241989
242070
242142
242207
241751
241851
241953
242042
242126
242200
242267
241796
241896
241999
242090
242176
242252
242323
241846
241947
242049
242140
242226
242303
242374
241896
241996
242095
242185
242270
242347
242419
241947
242045
242140
242228
242311
242386
242455
241997
242091
242180
242264
242342
242415
242481
242043
242131
242214
242292
242366
242434
242496
242085
242166
242240
242312
242378
242442
242501
242120
242193
242259
242324
242384
242442
242494
242150
242214
242270
242327
242380
242430
242475
242170
242226
242273
242321
242364
242406
242444
242191
242235
242271
242305
242339
242373
242405
240956
241056
241150
241234
241311
241382
241448
241507
241560
241608
241651
241689
241726
241765
241028
241117
241214
241302
241385
241460
241530
241593
241650
241701
241748
241790
241829
241877
241109
241200
241296
241383
241466
241541
241612
241676
241734
241787
241836
241879
241920
241964
241187
241275
241371
241457
241541
241618
241691
241756
241817
241872
241922
241968
242012
242055
241265
241354
241447
241533
241616
241692
241765
241831
241893
241948
242001
242047
242092
242134
241342
241429
241518
241602
241684
241760
241833
241900
241962
242019
242073
242121
242167
242209
241415
241500
241585
241667
241746
241821
241892
241959
242022
242080
242134
242184
242232
242273
241485
241565
241646
241724
241801
241873
241943
242009
242072
242131
242187
242238
242287
242331
241546
241623
241698
241773
241845
241915
241983
242048
242111
242170
242227
242280
242329
242377
241602
241674
241742
241812
241881
241948
242014
242077
242139
242199
242256
242311
242362
242414
241648
241716
241777
241842
241906
241970
242032
242094
242155
242215
242274
242332
242386
242443
241688
241749
241802
241861
241919
241979
242040
242101
242161
242222
242283
242344
242401
242461
241717
241772
241817
241871
241923
241980
242037
242096
242156
242217
242279
242344
242404
242471
241739
241787
241823
241870
241916
241970
242025
242084
242145
242209
242272
242336
242400
242479
240054
240133
240214
240291
240365
240437
240506
240573
240637
240699
240758
240814
240868
240924
240155
240222
240304
240381
240457
240530
240601
240670
240736
240800
240861
240920
240977
241041
240262
240327
240406
240480
240555
240626
240696
240764
240830
240894
240956
241016
241074
241137
240364
240426
240502
240574
240647
240718
240789
240858
240926
240991
241055
241117
241176
241240
240463
240525
240597
240667
240739
240809
240879
240948
241016
241084
241149
241212
241273
241335
240560
240620
240689
240756
240826
240895
240966
241036
241106
241175
241242
241308
241371
241432
240651
240709
240775
240840
240909
240977
241048
241120
241191
241261
241331
241398
241464
241525
240739
240796
240857
240921
240987
241056
241128
241200
241273
241345
241417
241486
241555
241618
240818
240873
240931
240994
241059
241129
241201
241275
241350
241424
241499
241571
241642
241707
240892
240948
241002
241064
241128
241198
241271
241346
241423
241499
241577
241651
241727
241794
240959
241014
241065
241125
241189
241260
241334
241412
241491
241571
241652
241729
241809
241878
241020
241075
241124
241184
241247
241319
241394
241474
241555
241637
241721
241802
241885
241960
241072
241127
241174
241235
241298
241371
241449
241531
241617
241703
241791
241876
241962
242045
241118
241171
241217
241280
241345
241420
241499
241584
241671
241760
241850
241942
242033
242128
239120
239159
239214
239271
239335
239402
239473
239546
239620
239694
239765
239836
239903
239975
239243
239272
239325
239378
239439
239505
239576
239649
239724
239799
239872
239945
240013
240090
239364
239391
239442
239491
239550
239612
239681
239752
239825
239900
239973
240046
240114
240192
239482
239508
239556
239602
239659
239721
239789
239860
239934
240009
240082
240157
240227
240304
239595
239623
239668
239715
239770
239831
239898
239968
240042
240117
240192
240267
240339
240415
239709
239739
239781
239827
239882
239943
240010
240081
240155
240231
240307
240384
240457
240533
239819
239850
239891
239938
239993
240055
240123
240195
240270
240347
240424
240502
240577
240651
239928
239961
240002
240051
240107
240170
240239
240313
240389
240467
240547
240625
240704
240777
240031
240066
240108
240160
240219
240285
240356
240431
240510
240590
240672
240750
240832
240903
240133
240173
240216
240272
240333
240402
240475
240553
240634
240716
240800
240880
240965
241035
240228
240272
240318
240378
240443
240516
240593
240675
240759
240844
240931
241012
241100
241166
240323
240373
240423
240486
240555
240632
240713
240797
240884
240970
241059
241143
241233
241301
240407
240464
240518
240586
240660
240742
240828
240917
241009
241100
241193
241280
241371
241442
240493
240556
240617
240691
240770
240854
240943
241034
241127
241219
241312
241402
241495
241583
238420
238418
238441
238473
238513
238561
238616
238676
238741
238809
238878
238947
239011
239082
238551
238539
238560
238588
238626
238673
238727
238787
238850
238918
238986
239056
239120
239194
238673
238661
238682
238709
238747
238792
238844
238901
238962
239027
239093
239162
239226
239299
238795
238787
238806
238834
238870
238915
238966
239022
239083
239147
239213
239282
239345
239417
238913
238913
238932
238960
238998
239042
239093
239149
239209
239272
239337
239405
239469
239541
239033
239042
239062
239092
239130
239175
239226
239282
239342
239405
239471
239538
239604
239673
239154
239169
239192
239224
239264
239311
239363
239420
239480
239543
239609
239676
239743
239809
239278
239298
239324
239360
239402
239451
239505
239563
239624
239688
239755
239821
239890
239953
239400
239425
239455
239495
239542
239594
239650
239709
239772
239837
239905
239970
240040
240100
239522
239554
239589
239634
239684
239739
239798
239860
239925
239990
240060
240125
240197
240253
239638
239677
239718
239769
239824
239883
239946
240011
240079
240146
240217
240283
240356
240406
239757
239804
239850
239907
239967
240031
240097
240164
240234
240303
240375
240442
240517
240565
239866
239920
239974
240037
240103
240173
240245
240317
240390
240462
240536
240605
240680
240728
239984
240046
240107
240175
240246
240319
240393
240467
240542
240615
240688
240758
240832
240892
238084
238061
238058
238063
238075
238095
238119
238150
238185
238224
238267
238313
238359
238410
238198
238170
238168
238173
238185
238204
238228
238258
238292
238331
238372
238417
238460
238512
238304
238279
238280
238286
238299
238318
238341
238370
238403
238439
238478
238521
238561
238613
238413
238396
238397
238404
238417
238436
238460
238489
238521
238557
238595
238637
238676
238726
238523
238512
238515
238525
238539
238559
238583
238612
238644
238679
238717
238757
238797
238844
238637
238632
238638
238649
238665
238686
238711
238741
238773
238809
238847
238887
238927
238972
238749
238752
238761
238775
238793
238816
238843
238873
238907
238943
238981
239020
239062
239103
238866
238874
238886
238904
238925
238950
238979
239011
239046
239082
239120
239160
239202
239240
238981
238996
239012
239033
239058
239086
239118
239152
239188
239224
239263
239301
239345
239379
239100
239119
239139
239165
239194
239225
239259
239296
239333
239371
239410
239448
239493
239524
239215
239241
239266
239297
239330
239365
239403
239442
239481
239519
239558
239595
239642
239668
239335
239367
239396
239431
239469
239507
239548
239589
239630
239670
239710
239748
239796
239818
239449
239485
239522
239563
239605
239649
239693
239737
239780
239822
239863
239901
239948
239970
239575
239615
239657
239701
239748
239794
239840
239885
239930
239972
240014
240054
240099
240128
238001
237975
237958
237945
237936
237931
237929
237931
237937
237946
237959
237975
237994
238016
238088
238060
238045
238033
238024
238019
238017
238019
238024
238034
238045
238061
238076
238101
238170
238145
238132
238121
238114
238110
238109
238110
238115
238123
238133
238147
238160
238184
238257
238235
238224
238215
238209
238205
238204
238206
238210
238218
238227
238239
238251
238273
238343
238325
238317
238309
238304
238302
238302
238304
238308
238315
238324
238335
238346
238365
238431
238418
238412
238406
238403
238402
238402
238405
238410
238416
238425
238435
238446
238461
238519
238511
238508
238504
238503
238503
238505
238509
238514
238521
238529
238539
238550
238561
238610
238607
238605
238605
238606
238608
238611
238616
238622
238629
238637
238647
238659
238666
238702
238704
238705
238707
238710
238714
238719
238725
238732
238739
238749
238759
238772
238774
238797
238803
238807
238812
238817
238824
238831
238838
238846
238854
238864
238875
238888
238887
238893
238904
238910
238919
238927
238936
238945
238953
238961
238970
238982
238993
239006
239002
238994
239008
239017
239029
239039
239050
239061
239070
239081
239091
239104
239115
239128
239122
239095
239111
239124
239139
239154
239167
239179
239190
239201
239213
239224
239235
239247
239241
239210
239220
239238
239254
239271
239286
239299
239312
239324
239336
239348
239360
239373
239372
238028
237998
237975
237953
237932
237912
237895
237879
237866
237854
237844
237835
237828
237829
238088
238058
238036
238014
237993
237974
237956
237939
237925
237911
237899
237890
237881
237885
238139
238112
238092
238072
238053
238035
238017
238001
237986
237972
237958
237947
237936
237939
238196
238171
238153
238134
238115
238097
238080
238063
238048
238033
238020
238008
237995
237995
238252
238230
238214
238195
238178
238161
238144
238128
238112
238098
238084
238071
238058
238052
238311
238292
238277
238260
238243
238227
238210
238194
238178
238163
238149
238136
238122
238112
238370
238355
238341
238325
238309
238293
238278
238262
238247
238231
238217
238202
238188
238175
238432
238420
238406
238392
238377
238362
238347
238332
238316
238300
238285
238270
238256
238240
238496
238486
238474
238461
238447
238433
238418
238403
238388
238372
238357
238340
238327
238308
238563
238556
238544
238533
238520
238506
238492
238477
238461
238445
238429
238412
238399
238379
238632
238627
238617
238607
238594
238581
238567
238552
238536
238520
238504
238486
238473
238453
238705
238701
238691
238682
238671
238659
238645
238630
238615
238598
238583
238564
238551
238532
238780
238778
238769
238761
238750
238738
238724
238709
238694
238677
238660
238642
238629
238609
238867
238855
238847
238839
238829
238818
238806
238791
238776
238760
238743
238725
238714
238697
238072
238040
238013
237986
237959
237932
237905
237879
237853
237827
237804
237780
237758
237735
238102
238072
238048
238021
237995
237967
237940
237912
237885
237857
237832
237807
237783
237761
238128
238101
238078
238052
238026
237999
237972
237945
237918
237890
237864
237837
237811
237788
238157
238132
238110
238084
238059
238032
238005
237978
237950
237922
237895
237868
237840
237816
238187
238164
238141
238117
238092
238066
238039
238011
237983
237955
237927
237899
237870
237844
238218
238197
238175
238151
238126
238100
238073
238045
238016
237987
237958
237929
237900
237872
238251
238231
238209
238186
238161
238135
238108
238080
238051
238021
237991
237961
237930
237900
238287
238268
238246
238222
238197
238171
238143
238114
238084
238054
238023
237992
237960
237929
238323
238304
238282
238259
238233
238207
238178
238149
238119
238088
238056
238024
237992
237958
238360
238343
238320
238297
238271
238244
238215
238185
238153
238122
238089
238056
238024
237989
238399
238381
238359
238335
238308
238281
238251
238220
238189
238157
238124
238089
238056
238018
238439
238421
238398
238374
238347
238319
238288
238257
238224
238190
238156
238121
238087
238048
238482
238464
238440
238415
238387
238357
238326
238293
238260
238225
238189
238152
238117
238079
238529
238504
238479
238453
238426
238396
238364
238331
238298
238263
238228
238190
238155
238116
238086
238056
238028
237999
237968
237936
237903
237868
237835
237800
237767
237731
237699
237662
238091
238063
238037
238008
237978
237945
237912
237877
237842
237806
237771
237735
237702
237666
238094
238069
238044
238015
237985
237953
237920
237885
237850
237814
237779
237742
237708
237671
238101
238077
238052
238023
237993
237961
237928
237893
237858
237821
237785
237748
237712
237675
238107
238084
238059
238031
238000
237968
237935
237900
237864
237827
237790
237751
237714
237676
238114
238091
238065
238037
238007
237975
237941
237905
237869
237830
237792
237753
237715
237676
238121
238098
238072
238043
238012
237980
237945
237909
237872
237833
237794
237754
237714
237674
238128
238105
238078
238049
238017
237984
237948
237911
237873
237834
237793
237753
237711
237670
238136
238112
238084
238054
238021
237987
237950
237913
237873
237833
237791
237750
237707
237666
238144
238118
238089
238058
238024
237989
237951
237913
237872
237831
237789
237747
237702
237660
238152
238125
238094
238061
238026
237990
237951
237911
237870
237828
237784
237741
237696
237653
238160
238131
238099
238064
238028
237990
237950
237909
237866
237824
237779
237735
237689
237646
238169
238137
238103
238067
238029
237989
237949
237907
237863
237819
237774
237728
237682
237635
238176
238140
238106
238069
238030
237989
237946
237904
237861
237817
237773
237728
237682
237634
238024
237997
237970
237939
237907
237872
237836
237798
237758
237717
237677
237634
237594
237547
238009
237983
237957
237927
237895
237860
237823
237784
237745
237703
237662
237618
237578
237533
237991
237968
237940
237910
237878
237844
237807
237769
237729
237687
237645
237602
237561
237516
237973
237951
237923
237893
237861
237826
237789
237751
237711
237669
237627
237583
237542
237497
237955
237932
237905
237875
237842
237807
237770
237731
237691
237648
237606
237562
237520
237475
237936
237912
237884
237854
237821
237786
237748
237709
237668
237625
237582
237538
237495
237450
237917
237893
237864
237833
237799
237763
237725
237685
237643
237600
237556
237512
237468
237423
237897
237871
237840
237809
237774
237737
237698
237658
237615
237572
237528
237483
237438
237393
237877
237849
237818
237784
237748
237710
237670
237629
237586
237542
237496
237451
237405
237361
237856
237825
237792
237757
237720
237681
237640
237598
237554
237510
237464
237419
237371
237328
237835
237801
237767
237730
237691
237651
237609
237566
237521
237475
237429
237383
237335
237293
237812
237774
237739
237700
237660
237619
237576
237532
237487
237441
237394
237348
237298
237257
237789
237749
237712
237671
237630
237587
237542
237496
237450
237403
237355
237309
237259
237217
237763
237720
237682
237639
237596
237551
237506
237461
237415
237369
237322
237276
237227
237183
237816
237792
237766
237737
237706
237672
237636
237598
237558
237516
237473
237427
237385
237335
237777
237756
237730
237702
237671
237637
237601
237562
237522
237479
237436
237390
237348
237301
237738
237718
237691
237663
237632
237599
237563
237525
237485
237442
237399
237355
237312
237265
237698
237679
237652
237624
237592
237558
237522
237484
237444
237401
237359
237314
237272
237226
237659
237639
237611
237582
237550
237516
237480
237441
237401
237360
237317
237273
237231
237186
237618
237596
237567
237538
237506
237471
237435
237396
237356
237314
237272
237228
237186
237141
237577
237553
237524
237493
237460
237425
237388
237349
237309
237267
237225
237182
237139
237095
237533
237507
237477
237445
237412
237376
237339
237300
237259
237218
237175
237132
237089
237046
237490
237461
237430
237397
237363
237326
237288
237249
237208
237166
237123
237080
237037
236996
237445
237412
237381
237346
237311
237274
237235
237196
237154
237113
237069
237027
236983
236944
237401
237365
237332
237296
237259
237221
237182
237141
237099
237057
237013
236971
236927
236890
237352
237314
237279
237242
237204
237166
237126
237085
237043
237001
236958
236916
236871
236836
237307
237265
237229
237191
237151
237111
237070
237028
236985
236942
236898
236856
236811
236778
237254
237211
237173
237134
237093
237053
237012
236971
236929
236887
236844
236802
236759
236723
237390
237371
237349
237326
237301
237274
237244
237212
237178
237142
237105
237066
237027
236983
237335
237321
237299
237276
237250
237223
237193
237160
237126
237089
237052
237013
236974
236933
237283
237269
237245
237223
237197
237169
237139
237108
237074
237039
237002
236964
236927
236886
237230
237216
237191
237169
237142
237114
237084
237052
237019
236983
236947
236910
236873
236834
237178
237161
237137
237113
237086
237058
237028
236996
236963
236928
236893
236856
236820
236782
237124
237105
237080
237055
237028
237000
236969
236937
236904
236870
236835
236799
236764
236727
237069
237048
237023
236997
236969
236940
236910
236878
236845
236811
236777
236742
236707
236671
237012
236988
236963
236936
236909
236879
236849
236817
236784
236751
236716
236682
236647
236612
236955
236929
236903
236876
236847
236818
236787
236755
236722
236689
236655
236621
236586
236554
236896
236867
236841
236813
236784
236754
236723
236692
236659
236626
236592
236559
236524
236494
236838
236807
236780
236751
236721
236691
236660
236628
236595
236562
236527
236495
236461
236435
236777
236743
236716
236686
236656
236625
236594
236563
236530
236497
236463
236431
236397
236373
236719
236684
236655
236624
236593
236561
236529
236497
236464
236430
236396
236365
236332
236310
236651
236618
236587
236556
236525
236494
236462
236431
236399
236366
236334
236302
236270
236247
236742
236731
236715
236701
236686
236669
236650
236630
236609
236586
236562
236537
236511
236483
236685
236678
236662
236648
236632
236615
236596
236575
236553
236530
236505
236480
236454
236425
236631
236624
236607
236593
236576
236559
236540
236519
236498
236475
236452
236427
236403
236374
236576
236568
236551
236536
236519
236502
236483
236463
236441
236419
236395
236371
236347
236320
236523
236512
236495
236479
236462
236444
236425
236405
236384
236362
236339
236315
236293
236267
236467
236454
236437
236421
236404
236386
236367
236347
236326
236304
236282
236259
236236
236212
236411
236396
236379
236363
236345
236327
236308
236288
236267
236246
236224
236202
236180
236157
236353
236337
236320
236303
236285
236267
236248
236228
236208
236187
236165
236144
236122
236101
236296
236277
236260
236243
236225
236207
236188
236168
236148
236128
236107
236086
236065
236046
236236
236216
236199
236182
236164
236146
236127
236108
236088
236068
236047
236027
236006
235990
236178
236156
236139
236121
236103
236085
236066
236047
236027
236007
235987
235968
235948
235935
236117
236094
236077
236059
236042
236023
236005
235985
235966
235947
235927
235909
235889
235878
236058
236037
236018
236000
235981
235962
235943
235924
235904
235885
235866
235850
235831
235823
235993
235973
235954
235936
235918
235900
235882
235863
235844
235825
235807
235790
235773
235764
235928
235926
235920
235915
235910
235905
235899
235893
235887
235880
235873
235864
235855
235849
235879
235880
235875
235871
235865
235860
235854
235848
235841
235834
235826
235816
235807
235796
235835
235836
235831
235826
235820
235814
235808
235802
235795
235787
235779
235770
235762
235751
235789
235790
235785
235779
235774
235768
235762
235756
235749
235741
235733
235724
235716
235704
235745
235743
235738
235733
235727
235721
235715
235709
235702
235695
235687
235678
235670
235660
235700
235696
235691
235686
235680
235675
235669
235662
235656
235648
235641
235633
235625
235615
235655
235649
235644
235638
235633
235627
235621
235615
235609
235602
235595
235587
235580
235572
235608
235602
235596
235590
235585
235580
235574
235568
235562
235556
235549
235542
235535
235528
235562
235554
235548
235542
235537
235532
235527
235521
235515
235509
235503
235497
235490
235485
235514
235505
235500
235494
235489
235484
235479
235474
235468
235463
235457
235451
235444
235443
235467
235457
235451
235446
235441
235436
235431
235427
235422
235417
235411
235406
235400
235401
235419
235408
235403
235398
235393
235388
235384
235379
235375
235370
235365
235360
235355
235358
235373
235361
235356
235351
235346
235341
235337
235332
235328
235324
235320
235316
235312
235317
235322
235313
235307
235303
235299
235294
235290
235286
235282
235279
235275
235272
235268
235271
235025
235029
235032
235036
235041
235047
235053
235059
235066
235072
235079
235086
235095
235103
234995
234999
235003
235008
235013
235019
235025
235031
235037
235044
235050
235057
235063
235067
234968
234972
234975
234980
234985
234991
234997
235003
235008
235014
235020
235026
235033
235036
234939
234943
234946
234952
234957
234963
234969
234974
234980
234985
234991
234997
235003
235006
234910
234914
234918
234923
234928
234934
234940
234946
234951
234957
234962
234968
234974
234978
234881
234885
234889
234894
234900
234905
234911
234917
234923
234928
234934
234940
234945
234950
234852
234856
234860
234865
234870
234876
234882
234888
234894
234900
234906
234912
234918
234923
234823
234826
234831
234836
234841
234847
234853
234859
234866
234872
234878
234884
234890
234897
234794
234797
234802
234807
234812
234818
234824
234831
234837
234844
234851
234857
234864
234871
234764
234767
234772
234778
234783
234789
234796
234803
234809
234816
234824
234831
234837
234846
234735
234737
234743
234749
234755
234761
234768
234775
234782
234789
234797
234805
234812
234822
234706
234708
234714
234720
234726
234733
234740
234747
234755
234763
234771
234779
234787
234798
234678
234680
234686
234692
234698
234706
234713
234721
234729
234737
234745
234754
234763
234775
234650
234653
234659
234665
234672
234679
234686
234694
234702
234711
234719
234729
234739
234751
234090
234100
234110
234121
234133
234146
234159
234172
234186
234201
234216
234233
234249
234270
234079
234089
234099
234111
234123
234136
234149
234163
234177
234192
234207
234223
234239
234256
234068
234079
234089
234101
234113
234125
234139
234152
234167
234182
234197
234213
234228
234243
234058
234069
234079
234091
234103
234116
234129
234142
234157
234171
234186
234202
234217
234232
234048
234059
234069
234081
234093
234105
234119
234132
234146
234161
234176
234191
234206
234221
234038
234048
234059
234071
234083
234095
234109
234122
234137
234151
234166
234181
234196
234211
234028
234038
234049
234061
234073
234086
234099
234113
234127
234141
234156
234171
234186
234201
234018
234028
234039
234051
234063
234076
234089
234103
234118
234132
234147
234162
234177
234192
234008
234018
234029
234041
234054
234067
234080
234094
234109
234124
234139
234154
234169
234184
233998
234009
234020
234032
234045
234058
234072
234086
234100
234115
234131
234146
234161
234176
233989
233999
234011
234023
234036
234050
234063
234078
234093
234108
234123
234139
234155
234170
233980
233990
234002
234015
234028
234042
234056
234070
234085
234101
234116
234132
234149
234165
233971
233982
233994
234007
234020
234034
234049
234064
234079
234095
234111
234127
234143
234162
233964
233976
233988
234001
234014
234028
234042
234057
234072
234088
234104
234121
234138
234157
233163
233175
233188
233201
233214
233228
233243
233259
233275
233293
233311
233330
233349
233372
233165
233177
233190
233203
233217
233232
233248
233264
233281
233298
233316
233335
233354
233376
233169
233181
233194
233207
233221
233236
233252
233268
233285
233302
233320
233339
233358
233379
233173
233185
233198
233211
233226
233240
233256
233273
233290
233307
233325
233344
233363
233383
233178
233190
233203
233216
233230
233245
233261
233277
233294
233312
233330
233349
233367
233387
233183
233195
233208
233221
233235
233250
233266
233282
233299
233317
233335
233354
233372
233391
233188
233200
233213
233227
233241
233256
233272
233288
233305
233322
233340
233359
233377
233396
233194
233206
233219
233233
233247
233262
233278
233294
233311
233328
233346
233364
233383
233401
233199
233212
233225
233239
233253
233269
233284
233301
233318
233335
233353
233370
233389
233406
233206
233219
233232
233246
233260
233276
233292
233308
233325
233342
233360
233377
233396
233413
233213
233226
233239
233253
233268
233283
233299
233316
233333
233350
233368
233385
233404
233420
233220
233233
233247
233261
233276
233291
233307
233324
233341
233358
233376
233393
233412
233429
233228
233241
233254
233269
233284
233300
233316
233333
233351
233368
233386
233403
233421
233439
233237
233251
233264
233278
233293
233309
233325
233342
233359
233377
233394
233412
233431
233450
232263
232273
232285
232296
232307
232320
232332
232346
232360
232374
232389
232405
232273
232283
232294
232306
232318
232331
232344
232358
232373
232388
232403
232420
232286
232295
232306
232318
232330
232343
232356
232370
232385
232400
232415
232432
232298
232307
232318
232330
232342
232355
232369
232383
232398
232413
232429
232446
232310
232320
232331
232343
232355
232368
232382
232396
232411
232426
232442
232459
232324
232334
232345
232357
232369
232382
232395
232410
232424
232440
232456
232472
232337
232348
232359
232371
232383
232396
232410
232424
232439
232454
232470
232486
232352
232363
232374
232386
232398
232411
232424
232439
232453
232468
232484
232500
232367
232378
232389
232401
232413
232426
232440
232454
232468
232483
232499
232515
232383
232394
232405
232417
232429
232442
232456
232470
232484
232499
232514
232530
232398
232410
232421
232433
232445
232459
232472
232486
232501
232515
232530
232545
232415
232427
232438
232450
232462
232475
232489
232503
232517
232532
232547
232561
232431
232443
232454
232466
232479
232492
232506
232520
232535
232549
232564
232578
232449
232461
232472
232484
232497
232510
232523
232537
232552
232566
232580
232595
242166
242124
242098
242069
242049
242031
242254
242217
242195
242174
242165
242159
242325
242292
242273
242256
242251
242247
242394
242362
242342
242323
242313
242305
241604
241523
241467
241404
241352
241301
241720
241640
241583
241524
241479
241438
241803
241727
241673
241619
241580
241546
241885
241810
241755
241701
241660
241627
241956
241879
241820
241762
241717
241678
242019
241940
241873
241808
241753
241702
242074
241991
241915
241840
241772
241708
240859
240740
240649
240550
240463
240377
240970
240853
240762
240663
240577
240495
241056
240940
240848
240755
240677
240606
241140
241026
240933
240842
240767
240701
241216
241104
241009
240919
240844
240779
241286
241176
241078
240986
240906
240836
241350
241241
241140
241044
240957
240879
241409
241302
241197
241097
241003
240915
241462
241358
241252
241149
241048
240950
241510
241413
241308
241205
241100
240996
241557
241467
241366
241267
241164
241059
241599
241521
241429
241339
241243
241145
241646
241580
241501
241425
241343
241258
241680
241637
241575
241517
241456
241395
239934
239804
239694
239574
239462
239353
240025
239887
239769
239638
239517
239397
240099
239956
239834
239705
239589
239475
240176
240034
239910
239784
239672
239566
240250
240112
239989
239869
239761
239663
240323
240191
240071
239955
239851
239759
240395
240270
240153
240043
239942
239853
240464
240348
240236
240130
240033
239944
240532
240426
240319
240219
240124
240035
240598
240503
240404
240310
240218
240130
240662
240581
240490
240404
240316
240230
240724
240657
240577
240501
240421
240339
240788
240735
240668
240604
240535
240463
240840
240810
240758
240709
240655
240601
238992
238874
238765
238654
238555
238449
239044
238909
238788
238660
238530
238399
239089
238939
238802
238660
238523
238388
239146
238994
238853
238705
238563
238428
239210
239060
238920
238778
238644
238518
239280
239137
239003
238872
238750
238637
239355
239224
239099
238981
238872
238773
239434
239316
239203
239098
239003
238916
239514
239412
239311
239219
239136
239060
239593
239507
239418
239339
239265
239198
239672
239602
239525
239458
239392
239331
239748
239695
239631
239574
239516
239460
239825
239788
239736
239690
239640
239590
239893
239877
239838
239803
239765
239724
238297
238206
238121
238041
237965
237891
238312
238200
238090
237982
237879
237777
238320
238190
238062
237939
237820
237703
238346
238201
238066
237933
237804
237678
238383
238235
238092
237954
237823
237698
238432
238287
238149
238015
237890
237773
238491
238355
238228
238107
237995
237892
238558
238437
238324
238220
238125
238040
238631
238528
238431
238345
238269
238202
238707
238622
238541
238472
238412
238361
238785
238718
238652
238597
238549
238510
238860
238812
238758
238715
238677
238644
238936
238905
238863
238830
238799
238772
239004
238993
238965
238941
238919
238897
237990
237932
237869
237815
237763
237714
237973
237892
237810
237731
237656
237582
237953
237855
237756
237662
237570
237479
237950
237838
237727
237621
237518
237415
237957
237834
237717
237604
237496
237389
237973
237845
237725
237612
237504
237400
237998
237870
237753
237644
237542
237446
238033
237910
237799
237698
237606
237523
238073
237962
237861
237773
237696
237630
238119
238025
237940
237867
237808
237759
238172
238096
238029
237974
237931
237899
238226
238170
238119
238079
238050
238030
238286
238249
238212
238184
238163
238148
238338
238323
238298
238280
238266
238254
237933
237896
237853
237817
237783
237750
237904
237848
237789
237730
237675
237619
237875
237804
237729
237654
237581
237507
237855
237770
237683
237596
237511
237424
237841
237744
237649
237556
237464
237371
237833
237729
237630
237534
237441
237349
237831
237725
237625
237530
237440
237352
237834
237731
237633
237542
237458
237379
237842
237745
237654
237571
237495
237427
237858
237768
237687
237614
237549
237493
237877
237797
237728
237667
237616
237574
237899
237836