/*--------------------------------*- C++ -*----------------------------------*\
| =========                 |                                                 |
| \\      /  F ield         | OpenFOAM: The Open Source CFD Toolbox           |
|  \\    /   O peration     | Version:  v2106                                 |
|   \\  /    A nd           | Website:  www.openfoam.com                      |
|    \\/     M anipulation  |                                                 |
\*---------------------------------------------------------------------------*/
FoamFile
{
    version     2.0;
    format      ascii;
    arch        "LSB;label=32;scalar=64";
    class       volScalarField;
    location    "0.00021";
    object      k;
}
// * * * * * * * * * * * * * * * * * * * * * * * * * * * * * * * * * * * * * //

dimensions      [0 2 -2 0 0 0 0];

internalField   nonuniform List<scalar> 
17924
(
4.29967e-12
2.61597e-12
2.26292e-12
2.18413e-12
2.4304e-12
2.16626e-12
2.11112e-12
2.09942e-12
2.09757e-12
2.09881e-12
2.10137e-12
2.5041e-12
2.17851e-12
2.10472e-12
2.08971e-12
2.08684e-12
2.0863e-12
2.08628e-12
2.78038e-12
2.24589e-12
2.11834e-12
2.09141e-12
2.08617e-12
2.08504e-12
2.08463e-12
3.15033e-12
2.33273e-12
2.13589e-12
2.09417e-12
2.08622e-12
2.08469e-12
2.08421e-12
3.5494e-12
2.41793e-12
2.15122e-12
2.09623e-12
2.08617e-12
2.08438e-12
2.0839e-12
3.95656e-12
2.49314e-12
2.16199e-12
2.09712e-12
2.08594e-12
2.0841e-12
2.08363e-12
4.40289e-12
2.56698e-12
2.17066e-12
2.0975e-12
2.08574e-12
2.08398e-12
2.08356e-12
4.89633e-12
2.64357e-12
2.17899e-12
2.09817e-12
2.08624e-12
2.08481e-12
2.08463e-12
5.41146e-12
2.72155e-12
2.18885e-12
2.10147e-12
2.09073e-12
2.09101e-12
2.09213e-12
5.96272e-12
2.81422e-12
2.20989e-12
2.11851e-12
2.11518e-12
2.1241e-12
2.13207e-12
6.63391e-12
2.98253e-12
2.2841e-12
2.19802e-12
2.22925e-12
2.27784e-12
2.31814e-12
8.09191e-12
3.52808e-12
2.59053e-12
2.53522e-12
2.70544e-12
2.91721e-12
3.09352e-12
1.27282e-11
5.50266e-12
3.78101e-12
3.83062e-12
4.49665e-12
5.31068e-12
6.00258e-12
2.75859e-11
1.21675e-11
8.02527e-12
8.37239e-12
1.06083e-11
1.34097e-11
1.58507e-11
2.13851e-12
2.10033e-12
2.09226e-12
2.09046e-12
2.09006e-12
2.09007e-12
2.09028e-12
2.09043e-12
2.09033e-12
2.0898e-12
2.08909e-12
2.08981e-12
2.09802e-12
2.13669e-12
2.1519e-12
2.10277e-12
2.09138e-12
2.08888e-12
2.08821e-12
2.08789e-12
2.08766e-12
2.08745e-12
2.08726e-12
2.08707e-12
2.08704e-12
2.08824e-12
2.09587e-12
2.13122e-12
2.19499e-12
2.113e-12
2.09311e-12
2.08871e-12
2.08766e-12
2.08726e-12
2.08699e-12
2.08676e-12
2.08655e-12
2.08639e-12
2.08644e-12
2.08764e-12
2.09477e-12
2.12818e-12
2.25244e-12
2.1262e-12
2.09543e-12
2.08871e-12
2.08723e-12
2.08678e-12
2.08651e-12
2.08628e-12
2.08608e-12
2.08593e-12
2.08596e-12
2.08705e-12
2.09362e-12
2.12528e-12
2.3137e-12
2.139e-12
2.09739e-12
2.0886e-12
2.08679e-12
2.08631e-12
2.08605e-12
2.08585e-12
2.08566e-12
2.08553e-12
2.08555e-12
2.08654e-12
2.09269e-12
2.12318e-12
2.37469e-12
2.14994e-12
2.09861e-12
2.08832e-12
2.08635e-12
2.08587e-12
2.08562e-12
2.08542e-12
2.08525e-12
2.08512e-12
2.08514e-12
2.08604e-12
2.09177e-12
2.12105e-12
2.43994e-12
2.16037e-12
2.0995e-12
2.088e-12
2.08594e-12
2.08548e-12
2.08523e-12
2.08505e-12
2.08488e-12
2.08476e-12
2.08477e-12
2.0856e-12
2.09093e-12
2.11886e-12
2.51061e-12
2.1709e-12
2.1003e-12
2.08773e-12
2.08564e-12
2.08522e-12
2.08501e-12
2.08483e-12
2.08467e-12
2.08455e-12
2.08455e-12
2.08533e-12
2.09036e-12
2.1171e-12
2.58282e-12
2.18136e-12
2.10129e-12
2.08781e-12
2.08587e-12
2.08565e-12
2.08559e-12
2.0855e-12
2.08537e-12
2.08525e-12
2.08526e-12
2.08614e-12
2.09156e-12
2.11988e-12
2.6578e-12
2.19329e-12
2.1036e-12
2.08958e-12
2.08857e-12
2.08943e-12
2.0902e-12
2.09059e-12
2.09068e-12
2.09064e-12
2.09075e-12
2.09219e-12
2.10004e-12
2.13816e-12
2.74369e-12
2.21374e-12
2.11233e-12
2.09909e-12
2.10247e-12
2.10829e-12
2.11304e-12
2.11593e-12
2.11734e-12
2.11793e-12
2.11862e-12
2.12217e-12
2.13814e-12
2.2086e-12
2.92203e-12
2.27942e-12
2.14929e-12
2.14059e-12
2.1619e-12
2.1885e-12
2.21015e-12
2.22429e-12
2.23223e-12
2.23664e-12
2.24045e-12
2.25107e-12
2.28882e-12
2.44442e-12
3.49449e-12
2.51986e-12
2.29437e-12
2.30202e-12
2.38873e-12
2.49327e-12
2.57964e-12
2.63944e-12
2.67594e-12
2.69886e-12
2.71757e-12
2.75195e-12
2.8417e-12
3.18984e-12
5.36331e-12
3.33736e-12
2.81341e-12
2.87163e-12
3.17068e-12
3.53743e-12
3.84658e-12
4.07164e-12
4.22045e-12
4.32339e-12
4.40832e-12
4.52959e-12
4.74722e-12
5.47743e-12
2.09715e-12
2.09209e-12
2.09096e-12
2.09062e-12
2.09044e-12
2.0903e-12
2.09019e-12
2.09007e-12
2.08991e-12
2.08969e-12
2.0894e-12
2.08919e-12
2.08961e-12
2.09267e-12
2.09903e-12
2.09223e-12
2.09052e-12
2.09004e-12
2.0898e-12
2.0896e-12
2.08941e-12
2.08922e-12
2.08905e-12
2.08888e-12
2.08872e-12
2.08862e-12
2.08907e-12
2.09202e-12
2.10492e-12
2.09333e-12
2.09035e-12
2.08959e-12
2.08928e-12
2.08908e-12
2.08889e-12
2.08871e-12
2.08855e-12
2.0884e-12
2.08827e-12
2.08822e-12
2.08868e-12
2.09155e-12
2.11278e-12
2.09481e-12
2.09026e-12
2.08915e-12
2.08878e-12
2.08857e-12
2.08838e-12
2.08822e-12
2.08806e-12
2.08792e-12
2.08779e-12
2.08775e-12
2.08819e-12
2.09096e-12
2.12107e-12
2.0962e-12
2.0901e-12
2.0887e-12
2.08828e-12
2.08807e-12
2.08789e-12
2.08773e-12
2.08759e-12
2.08746e-12
2.08734e-12
2.0873e-12
2.08772e-12
2.09041e-12
2.12912e-12
2.09729e-12
2.08985e-12
2.08823e-12
2.08779e-12
2.08758e-12
2.0874e-12
2.08725e-12
2.08711e-12
2.08699e-12
2.08689e-12
2.08686e-12
2.08726e-12
2.08987e-12
2.13755e-12
2.0983e-12
2.08957e-12
2.08779e-12
2.08732e-12
2.08711e-12
2.08693e-12
2.08678e-12
2.08665e-12
2.08655e-12
2.08646e-12
2.08645e-12
2.08683e-12
2.08934e-12
2.14653e-12
2.09929e-12
2.08928e-12
2.08736e-12
2.08688e-12
2.08667e-12
2.08649e-12
2.08635e-12
2.08622e-12
2.08612e-12
2.08604e-12
2.08605e-12
2.08642e-12
2.08881e-12
2.15551e-12
2.10025e-12
2.08904e-12
2.087e-12
2.08653e-12
2.08633e-12
2.08616e-12
2.08603e-12
2.08591e-12
2.08582e-12
2.08575e-12
2.08579e-12
2.0862e-12
2.08869e-12
2.16458e-12
2.10134e-12
2.08895e-12
2.08683e-12
2.08646e-12
2.08638e-12
2.08631e-12
2.08622e-12
2.08613e-12
2.08605e-12
2.08599e-12
2.08608e-12
2.0867e-12
2.09001e-12
2.17441e-12
2.10333e-12
2.08961e-12
2.08758e-12
2.08772e-12
2.08819e-12
2.08856e-12
2.08874e-12
2.08877e-12
2.08873e-12
2.0887e-12
2.08895e-12
2.09022e-12
2.09637e-12
2.19414e-12
2.1103e-12
2.09342e-12
2.092e-12
2.09426e-12
2.09717e-12
2.09947e-12
2.10085e-12
2.10149e-12
2.10171e-12
2.10182e-12
2.10251e-12
2.10549e-12
2.11914e-12
2.25901e-12
2.13708e-12
2.10954e-12
2.11037e-12
2.12058e-12
2.13277e-12
2.14256e-12
2.1489e-12
2.15227e-12
2.15386e-12
2.15473e-12
2.15692e-12
2.1637e-12
2.19415e-12
2.47612e-12
2.22972e-12
2.16822e-12
2.17646e-12
2.21314e-12
2.25728e-12
2.29328e-12
2.31793e-12
2.33242e-12
2.34046e-12
2.34539e-12
2.35327e-12
2.36891e-12
2.43196e-12
2.09224e-12
2.09169e-12
2.09153e-12
2.09143e-12
2.09132e-12
2.09119e-12
2.09108e-12
2.09095e-12
2.09082e-12
2.09068e-12
2.09051e-12
2.0903e-12
2.09012e-12
2.09004e-12
2.09225e-12
2.09144e-12
2.09114e-12
2.09099e-12
2.09085e-12
2.09071e-12
2.09057e-12
2.09043e-12
2.0903e-12
2.09017e-12
2.09003e-12
2.08985e-12
2.0897e-12
2.08972e-12
2.09273e-12
2.09122e-12
2.09072e-12
2.09052e-12
2.09036e-12
2.09023e-12
2.09009e-12
2.08997e-12
2.08984e-12
2.08972e-12
2.08959e-12
2.08945e-12
2.08934e-12
2.08942e-12
2.0934e-12
2.09101e-12
2.09029e-12
2.09003e-12
2.08987e-12
2.08974e-12
2.0896e-12
2.08948e-12
2.08936e-12
2.08924e-12
2.08911e-12
2.08897e-12
2.08887e-12
2.08898e-12
2.09407e-12
2.09076e-12
2.08984e-12
2.08955e-12
2.08938e-12
2.08925e-12
2.08912e-12
2.089e-12
2.08888e-12
2.08877e-12
2.08865e-12
2.08852e-12
2.08843e-12
2.08854e-12
2.09469e-12
2.09047e-12
2.08938e-12
2.08907e-12
2.08889e-12
2.08876e-12
2.08863e-12
2.08851e-12
2.0884e-12
2.08829e-12
2.08818e-12
2.08808e-12
2.08799e-12
2.08812e-12
2.09535e-12
2.0902e-12
2.08894e-12
2.0886e-12
2.08842e-12
2.08828e-12
2.08815e-12
2.08804e-12
2.08793e-12
2.08784e-12
2.08774e-12
2.08766e-12
2.08759e-12
2.08774e-12
2.09605e-12
2.08992e-12
2.0885e-12
2.08814e-12
2.08795e-12
2.08781e-12
2.08768e-12
2.08757e-12
2.08747e-12
2.08739e-12
2.08731e-12
2.08724e-12
2.08719e-12
2.08736e-12
2.09674e-12
2.08964e-12
2.08809e-12
2.08771e-12
2.08751e-12
2.08737e-12
2.08724e-12
2.08713e-12
2.08704e-12
2.08697e-12
2.0869e-12
2.08686e-12
2.08684e-12
2.08704e-12
2.09743e-12
2.08938e-12
2.08769e-12
2.0873e-12
2.08711e-12
2.08697e-12
2.08685e-12
2.08675e-12
2.08667e-12
2.08661e-12
2.08657e-12
2.08656e-12
2.08657e-12
2.08685e-12
2.09816e-12
2.08923e-12
2.0874e-12
2.087e-12
2.08686e-12
2.08677e-12
2.0867e-12
2.08663e-12
2.08657e-12
2.08653e-12
2.08651e-12
2.08653e-12
2.08661e-12
2.08714e-12
2.09982e-12
2.08955e-12
2.08742e-12
2.08708e-12
2.08718e-12
2.08735e-12
2.08748e-12
2.08753e-12
2.08753e-12
2.08751e-12
2.0875e-12
2.08755e-12
2.08774e-12
2.08889e-12
2.10624e-12
2.09196e-12
2.08875e-12
2.08868e-12
2.08967e-12
2.09086e-12
2.09179e-12
2.09233e-12
2.09257e-12
2.09262e-12
2.0926e-12
2.09268e-12
2.09306e-12
2.09553e-12
2.12914e-12
2.10129e-12
2.09454e-12
2.09545e-12
2.09949e-12
2.10429e-12
2.10808e-12
2.11049e-12
2.1117e-12
2.11214e-12
2.11217e-12
2.11239e-12
2.11317e-12
2.11812e-12
2.09194e-12
2.09197e-12
2.09197e-12
2.09193e-12
2.09186e-12
2.09178e-12
2.09169e-12
2.0916e-12
2.0915e-12
2.09139e-12
2.09127e-12
2.0911e-12
2.0909e-12
2.09059e-12
2.09171e-12
2.09168e-12
2.09162e-12
2.09154e-12
2.09144e-12
2.09135e-12
2.09124e-12
2.09114e-12
2.09104e-12
2.09093e-12
2.09082e-12
2.09066e-12
2.09048e-12
2.09027e-12
2.09149e-12
2.09131e-12
2.09119e-12
2.0911e-12
2.09099e-12
2.0909e-12
2.0908e-12
2.0907e-12
2.0906e-12
2.0905e-12
2.09039e-12
2.09025e-12
2.0901e-12
2.08994e-12
2.0912e-12
2.0909e-12
2.09073e-12
2.09063e-12
2.09053e-12
2.09043e-12
2.09033e-12
2.09024e-12
2.09013e-12
2.09003e-12
2.08991e-12
2.08977e-12
2.08963e-12
2.08949e-12
2.09088e-12
2.09045e-12
2.09026e-12
2.09016e-12
2.09006e-12
2.08996e-12
2.08986e-12
2.08977e-12
2.08967e-12
2.08957e-12
2.08945e-12
2.08931e-12
2.08917e-12
2.08904e-12
2.09055e-12
2.09e-12
2.0898e-12
2.08969e-12
2.08958e-12
2.08949e-12
2.08939e-12
2.08929e-12
2.08919e-12
2.0891e-12
2.08898e-12
2.08886e-12
2.08872e-12
2.08861e-12
2.09023e-12
2.08957e-12
2.08934e-12
2.08923e-12
2.08912e-12
2.08902e-12
2.08892e-12
2.08882e-12
2.08873e-12
2.08864e-12
2.08854e-12
2.08844e-12
2.08831e-12
2.08823e-12
2.08991e-12
2.08913e-12
2.08888e-12
2.08876e-12
2.08865e-12
2.08855e-12
2.08845e-12
2.08836e-12
2.08827e-12
2.08818e-12
2.0881e-12
2.08802e-12
2.08791e-12
2.08786e-12
2.0896e-12
2.0887e-12
2.08843e-12
2.08831e-12
2.08819e-12
2.08809e-12
2.08799e-12
2.0879e-12
2.08782e-12
2.08775e-12
2.08768e-12
2.08762e-12
2.08755e-12
2.08752e-12
2.08928e-12
2.08826e-12
2.08798e-12
2.08785e-12
2.08773e-12
2.08763e-12
2.08754e-12
2.08746e-12
2.08739e-12
2.08734e-12
2.08729e-12
2.08726e-12
2.08721e-12
2.08721e-12
2.08898e-12
2.08784e-12
2.08755e-12
2.08741e-12
2.0873e-12
2.0872e-12
2.08712e-12
2.08705e-12
2.087e-12
2.08697e-12
2.08695e-12
2.08695e-12
2.08693e-12
2.08699e-12
2.08871e-12
2.08745e-12
2.08714e-12
2.087e-12
2.08692e-12
2.08685e-12
2.0868e-12
2.08675e-12
2.08672e-12
2.08671e-12
2.08672e-12
2.08674e-12
2.08674e-12
2.08684e-12
2.08889e-12
2.08725e-12
2.08687e-12
2.08675e-12
2.08677e-12
2.0868e-12
2.08684e-12
2.08685e-12
2.08685e-12
2.08685e-12
2.08687e-12
2.08688e-12
2.08686e-12
2.08703e-12
2.09066e-12
2.08767e-12
2.08698e-12
2.087e-12
2.08736e-12
2.08779e-12
2.08813e-12
2.08833e-12
2.08841e-12
2.08843e-12
2.0884e-12
2.08836e-12
2.08834e-12
2.08867e-12
2.09174e-12
2.09184e-12
2.0919e-12
2.09191e-12
2.09189e-12
2.09185e-12
2.0918e-12
2.09174e-12
2.09168e-12
2.0916e-12
2.09151e-12
2.09138e-12
2.09121e-12
2.09092e-12
2.09152e-12
2.09158e-12
2.09159e-12
2.09156e-12
2.09152e-12
2.09147e-12
2.09141e-12
2.09134e-12
2.09126e-12
2.09119e-12
2.0911e-12
2.09097e-12
2.09081e-12
2.09059e-12
2.09124e-12
2.09124e-12
2.0912e-12
2.09117e-12
2.09112e-12
2.09107e-12
2.09101e-12
2.09095e-12
2.09087e-12
2.09079e-12
2.0907e-12
2.09057e-12
2.09043e-12
2.09026e-12
2.09087e-12
2.09083e-12
2.0908e-12
2.09076e-12
2.09071e-12
2.09065e-12
2.09059e-12
2.09052e-12
2.09044e-12
2.09035e-12
2.09024e-12
2.09011e-12
2.08997e-12
2.08982e-12
2.09046e-12
2.09041e-12
2.09037e-12
2.09033e-12
2.09028e-12
2.09022e-12
2.09015e-12
2.09008e-12
2.09e-12
2.08991e-12
2.0898e-12
2.08967e-12
2.08952e-12
2.08937e-12
2.09004e-12
2.08998e-12
2.08993e-12
2.08989e-12
2.08984e-12
2.08978e-12
2.08971e-12
2.08963e-12
2.08955e-12
2.08946e-12
2.08935e-12
2.08923e-12
2.08907e-12
2.08893e-12
2.08964e-12
2.08956e-12
2.0895e-12
2.08946e-12
2.08939e-12
2.08933e-12
2.08926e-12
2.08918e-12
2.0891e-12
2.08902e-12
2.08892e-12
2.08881e-12
2.08866e-12
2.08855e-12
2.08921e-12
2.08912e-12
2.08905e-12
2.08901e-12
2.08894e-12
2.08887e-12
2.0888e-12
2.08872e-12
2.08865e-12
2.08857e-12
2.08848e-12
2.08839e-12
2.08826e-12
2.08816e-12
2.08879e-12
2.08867e-12
2.08861e-12
2.08856e-12
2.08849e-12
2.08842e-12
2.08835e-12
2.08827e-12
2.0882e-12
2.08814e-12
2.08806e-12
2.08799e-12
2.08789e-12
2.08781e-12
2.08837e-12
2.08821e-12
2.08815e-12
2.08809e-12
2.08802e-12
2.08795e-12
2.08789e-12
2.08783e-12
2.08777e-12
2.08772e-12
2.08766e-12
2.08762e-12
2.08753e-12
2.08749e-12
2.08795e-12
2.08776e-12
2.08769e-12
2.08763e-12
2.08757e-12
2.0875e-12
2.08744e-12
2.08739e-12
2.08735e-12
2.08732e-12
2.08729e-12
2.08728e-12
2.08723e-12
2.08722e-12
2.08748e-12
2.08727e-12
2.08722e-12
2.08716e-12
2.08711e-12
2.08705e-12
2.087e-12
2.08697e-12
2.08694e-12
2.08693e-12
2.08694e-12
2.08695e-12
2.08692e-12
2.08692e-12
2.08703e-12
2.0868e-12
2.08677e-12
2.0867e-12
2.08666e-12
2.08662e-12
2.0866e-12
2.08659e-12
2.08658e-12
2.08659e-12
2.08662e-12
2.08663e-12
2.08659e-12
2.08656e-12
2.08665e-12
2.08632e-12
2.08629e-12
2.08626e-12
2.08628e-12
2.0863e-12
2.08633e-12
2.08635e-12
2.08637e-12
2.0864e-12
2.08642e-12
2.08639e-12
2.08635e-12
2.08631e-12
2.0911e-12
2.0912e-12
2.09127e-12
2.09129e-12
2.09129e-12
2.09128e-12
2.09126e-12
2.09124e-12
2.0912e-12
2.09116e-12
2.09111e-12
2.09102e-12
2.09089e-12
2.09067e-12
2.09089e-12
2.09096e-12
2.09098e-12
2.09098e-12
2.09096e-12
2.09094e-12
2.09091e-12
2.09088e-12
2.09084e-12
2.09079e-12
2.09074e-12
2.09065e-12
2.09052e-12
2.09034e-12
2.09062e-12
2.09064e-12
2.09063e-12
2.09062e-12
2.0906e-12
2.09059e-12
2.09057e-12
2.09054e-12
2.0905e-12
2.09045e-12
2.09039e-12
2.09029e-12
2.09018e-12
2.09004e-12
2.09026e-12
2.09026e-12
2.09026e-12
2.09026e-12
2.09024e-12
2.09023e-12
2.0902e-12
2.09016e-12
2.09012e-12
2.09006e-12
2.08998e-12
2.08987e-12
2.08975e-12
2.08962e-12
2.08987e-12
2.08988e-12
2.08988e-12
2.08987e-12
2.08986e-12
2.08985e-12
2.08982e-12
2.08978e-12
2.08973e-12
2.08967e-12
2.08959e-12
2.08947e-12
2.08934e-12
2.08919e-12
2.08949e-12
2.08949e-12
2.08949e-12
2.08949e-12
2.08947e-12
2.08946e-12
2.08943e-12
2.08938e-12
2.08933e-12
2.08927e-12
2.08918e-12
2.08907e-12
2.08892e-12
2.08878e-12
2.08911e-12
2.08911e-12
2.0891e-12
2.08909e-12
2.08907e-12
2.08905e-12
2.08902e-12
2.08898e-12
2.08892e-12
2.08886e-12
2.08878e-12
2.08868e-12
2.08854e-12
2.08841e-12
2.08871e-12
2.0887e-12
2.08869e-12
2.08868e-12
2.08866e-12
2.08864e-12
2.08861e-12
2.08856e-12
2.08851e-12
2.08845e-12
2.08837e-12
2.08828e-12
2.08815e-12
2.08804e-12
2.0883e-12
2.08828e-12
2.08827e-12
2.08826e-12
2.08824e-12
2.08822e-12
2.08819e-12
2.08815e-12
2.0881e-12
2.08805e-12
2.08798e-12
2.08791e-12
2.08779e-12
2.08769e-12
2.08788e-12
2.08784e-12
2.08783e-12
2.08782e-12
2.08781e-12
2.08779e-12
2.08776e-12
2.08773e-12
2.08769e-12
2.08765e-12
2.08759e-12
2.08754e-12
2.08744e-12
2.08737e-12
2.08748e-12
2.0874e-12
2.08739e-12
2.08738e-12
2.08737e-12
2.08735e-12
2.08733e-12
2.08731e-12
2.08729e-12
2.08726e-12
2.08723e-12
2.08722e-12
2.08714e-12
2.0871e-12
2.08701e-12
2.08691e-12
2.08693e-12
2.08693e-12
2.08692e-12
2.08691e-12
2.0869e-12
2.0869e-12
2.08689e-12
2.08688e-12
2.08688e-12
2.08689e-12
2.08683e-12
2.08679e-12
2.08652e-12
2.08643e-12
2.08647e-12
2.08646e-12
2.08647e-12
2.08647e-12
2.08648e-12
2.08649e-12
2.0865e-12
2.08652e-12
2.08654e-12
2.08655e-12
2.08649e-12
2.08642e-12
2.08594e-12
2.08589e-12
2.08596e-12
2.08598e-12
2.08601e-12
2.08604e-12
2.08608e-12
2.08611e-12
2.08615e-12
2.08618e-12
2.08621e-12
2.08618e-12
2.08612e-12
2.08602e-12
2.0902e-12
2.09026e-12
2.09028e-12
2.09029e-12
2.09028e-12
2.09027e-12
2.09026e-12
2.09026e-12
2.09025e-12
2.09024e-12
2.09022e-12
2.09018e-12
2.0901e-12
2.08994e-12
2.08997e-12
2.09001e-12
2.08999e-12
2.08998e-12
2.08995e-12
2.08994e-12
2.08992e-12
2.08991e-12
2.0899e-12
2.08988e-12
2.08986e-12
2.08981e-12
2.08973e-12
2.08962e-12
2.08968e-12
2.08968e-12
2.08964e-12
2.08963e-12
2.08961e-12
2.0896e-12
2.08959e-12
2.08958e-12
2.08957e-12
2.08955e-12
2.08952e-12
2.08947e-12
2.08939e-12
2.08931e-12
2.08932e-12
2.08931e-12
2.08929e-12
2.08928e-12
2.08926e-12
2.08926e-12
2.08925e-12
2.08924e-12
2.08922e-12
2.08919e-12
2.08915e-12
2.08908e-12
2.08899e-12
2.0889e-12
2.08895e-12
2.08895e-12
2.08892e-12
2.08892e-12
2.08891e-12
2.08891e-12
2.0889e-12
2.08889e-12
2.08887e-12
2.08884e-12
2.08879e-12
2.08871e-12
2.08861e-12
2.0885e-12
2.08858e-12
2.08858e-12
2.08856e-12
2.08856e-12
2.08855e-12
2.08855e-12
2.08855e-12
2.08853e-12
2.08851e-12
2.08848e-12
2.08842e-12
2.08834e-12
2.08823e-12
2.08811e-12
2.08823e-12
2.08822e-12
2.0882e-12
2.0882e-12
2.08819e-12
2.08819e-12
2.08819e-12
2.08817e-12
2.08815e-12
2.08812e-12
2.08806e-12
2.08799e-12
2.08787e-12
2.08776e-12
2.08786e-12
2.08784e-12
2.08783e-12
2.08783e-12
2.08782e-12
2.08783e-12
2.08782e-12
2.08781e-12
2.08778e-12
2.08775e-12
2.0877e-12
2.08763e-12
2.08751e-12
2.08741e-12
2.08748e-12
2.08745e-12
2.08745e-12
2.08745e-12
2.08745e-12
2.08745e-12
2.08745e-12
2.08744e-12
2.08742e-12
2.08739e-12
2.08734e-12
2.08728e-12
2.08717e-12
2.08708e-12
2.08709e-12
2.08705e-12
2.08705e-12
2.08706e-12
2.08706e-12
2.08707e-12
2.08707e-12
2.08707e-12
2.08705e-12
2.08703e-12
2.08699e-12
2.08695e-12
2.08685e-12
2.08677e-12
2.08671e-12
2.08664e-12
2.08665e-12
2.08666e-12
2.08668e-12
2.08668e-12
2.08669e-12
2.0867e-12
2.0867e-12
2.08669e-12
2.08666e-12
2.08665e-12
2.08656e-12
2.08651e-12
2.08629e-12
2.08621e-12
2.08624e-12
2.08625e-12
2.08628e-12
2.08629e-12
2.08631e-12
2.08633e-12
2.08634e-12
2.08634e-12
2.08634e-12
2.08635e-12
2.08627e-12
2.08622e-12
2.08584e-12
2.08576e-12
2.08582e-12
2.08584e-12
2.08587e-12
2.0859e-12
2.08594e-12
2.08596e-12
2.08599e-12
2.08601e-12
2.08603e-12
2.08604e-12
2.08596e-12
2.08587e-12
2.08531e-12
2.08528e-12
2.08537e-12
2.08541e-12
2.08547e-12
2.08552e-12
2.08557e-12
2.08562e-12
2.08566e-12
2.0857e-12
2.08572e-12
2.08569e-12
2.08561e-12
2.08548e-12
2.08917e-12
2.08918e-12
2.08916e-12
2.08915e-12
2.08912e-12
2.08911e-12
2.0891e-12
2.08911e-12
2.08912e-12
2.08914e-12
2.08917e-12
2.08917e-12
2.08915e-12
2.08907e-12
2.08891e-12
2.08891e-12
2.08885e-12
2.08881e-12
2.08878e-12
2.08876e-12
2.08875e-12
2.08875e-12
2.08876e-12
2.08877e-12
2.08879e-12
2.08878e-12
2.08877e-12
2.0887e-12
2.0886e-12
2.08856e-12
2.08849e-12
2.08845e-12
2.08842e-12
2.08841e-12
2.08841e-12
2.08841e-12
2.08842e-12
2.08843e-12
2.08844e-12
2.08843e-12
2.08841e-12
2.08837e-12
2.08824e-12
2.0882e-12
2.08813e-12
2.0881e-12
2.08808e-12
2.08807e-12
2.08806e-12
2.08806e-12
2.08807e-12
2.08807e-12
2.08806e-12
2.08804e-12
2.08801e-12
2.08796e-12
2.08787e-12
2.08783e-12
2.08778e-12
2.08775e-12
2.08773e-12
2.08772e-12
2.08772e-12
2.08772e-12
2.08773e-12
2.08773e-12
2.08771e-12
2.08768e-12
2.08763e-12
2.08758e-12
2.08751e-12
2.08747e-12
2.08743e-12
2.08741e-12
2.08739e-12
2.08739e-12
2.08739e-12
2.08738e-12
2.08738e-12
2.08738e-12
2.08736e-12
2.08733e-12
2.08727e-12
2.0872e-12
2.08717e-12
2.08713e-12
2.08709e-12
2.08707e-12
2.08706e-12
2.08705e-12
2.08705e-12
2.08705e-12
2.08705e-12
2.08704e-12
2.08702e-12
2.08699e-12
2.08692e-12
2.08686e-12
2.08681e-12
2.08678e-12
2.08674e-12
2.08673e-12
2.08672e-12
2.08672e-12
2.08672e-12
2.08672e-12
2.08672e-12
2.08671e-12
2.08669e-12
2.08665e-12
2.08658e-12
2.08652e-12
2.08646e-12
2.08642e-12
2.0864e-12
2.08639e-12
2.08639e-12
2.08639e-12
2.08639e-12
2.0864e-12
2.08639e-12
2.08639e-12
2.08636e-12
2.08633e-12
2.08626e-12
2.0862e-12
2.08611e-12
2.08607e-12
2.08605e-12
2.08605e-12
2.08605e-12
2.08606e-12
2.08607e-12
2.08608e-12
2.08607e-12
2.08607e-12
2.08605e-12
2.08603e-12
2.08595e-12
2.0859e-12
2.08577e-12
2.08571e-12
2.08571e-12
2.08572e-12
2.08573e-12
2.08574e-12
2.08575e-12
2.08576e-12
2.08577e-12
2.08577e-12
2.08576e-12
2.08576e-12
2.08568e-12
2.08565e-12
2.08541e-12
2.08534e-12
2.08536e-12
2.08538e-12
2.0854e-12
2.08542e-12
2.08544e-12
2.08546e-12
2.08547e-12
2.08548e-12
2.08548e-12
2.08549e-12
2.08542e-12
2.08536e-12
2.08504e-12
2.08496e-12
2.08502e-12
2.08504e-12
2.08508e-12
2.0851e-12
2.08514e-12
2.08517e-12
2.08519e-12
2.0852e-12
2.08522e-12
2.08522e-12
2.08514e-12
2.08504e-12
2.0846e-12
2.08456e-12
2.08465e-12
2.08469e-12
2.08475e-12
2.0848e-12
2.08485e-12
2.08489e-12
2.08493e-12
2.08495e-12
2.08495e-12
2.08491e-12
2.08482e-12
2.08468e-12
2.08801e-12
2.08799e-12
2.08795e-12
2.08793e-12
2.08791e-12
2.08791e-12
2.08792e-12
2.08794e-12
2.08798e-12
2.08802e-12
2.08808e-12
2.08812e-12
2.08817e-12
2.08814e-12
2.08774e-12
2.08772e-12
2.08765e-12
2.08761e-12
2.08757e-12
2.08756e-12
2.08757e-12
2.08758e-12
2.08761e-12
2.08766e-12
2.08771e-12
2.08775e-12
2.08779e-12
2.08777e-12
2.08743e-12
2.08738e-12
2.0873e-12
2.08726e-12
2.08723e-12
2.08722e-12
2.08723e-12
2.08725e-12
2.08728e-12
2.08731e-12
2.08736e-12
2.08739e-12
2.08744e-12
2.08743e-12
2.08708e-12
2.08703e-12
2.08696e-12
2.08692e-12
2.08689e-12
2.08689e-12
2.08689e-12
2.08691e-12
2.08693e-12
2.08696e-12
2.087e-12
2.08702e-12
2.08705e-12
2.08704e-12
2.08673e-12
2.08668e-12
2.08662e-12
2.08659e-12
2.08657e-12
2.08656e-12
2.08657e-12
2.08658e-12
2.0866e-12
2.08663e-12
2.08666e-12
2.08667e-12
2.08669e-12
2.08668e-12
2.08639e-12
2.08635e-12
2.0863e-12
2.08627e-12
2.08625e-12
2.08625e-12
2.08625e-12
2.08626e-12
2.08628e-12
2.08631e-12
2.08633e-12
2.08634e-12
2.08634e-12
2.08632e-12
2.08607e-12
2.08603e-12
2.08599e-12
2.08596e-12
2.08594e-12
2.08594e-12
2.08595e-12
2.08596e-12
2.08597e-12
2.08599e-12
2.08601e-12
2.08602e-12
2.08601e-12
2.086e-12
2.08575e-12
2.08572e-12
2.08568e-12
2.08566e-12
2.08565e-12
2.08565e-12
2.08565e-12
2.08566e-12
2.08567e-12
2.08569e-12
2.0857e-12
2.0857e-12
2.08568e-12
2.08568e-12
2.08545e-12
2.08541e-12
2.08539e-12
2.08538e-12
2.08537e-12
2.08537e-12
2.08537e-12
2.08538e-12
2.08539e-12
2.0854e-12
2.0854e-12
2.08541e-12
2.08538e-12
2.08538e-12
2.08515e-12
2.08511e-12
2.0851e-12
2.08509e-12
2.08509e-12
2.08509e-12
2.0851e-12
2.08511e-12
2.08512e-12
2.08513e-12
2.08512e-12
2.08513e-12
2.0851e-12
2.0851e-12
2.08487e-12
2.08482e-12
2.08482e-12
2.08483e-12
2.08483e-12
2.08484e-12
2.08485e-12
2.08486e-12
2.08486e-12
2.08487e-12
2.08487e-12
2.08489e-12
2.08486e-12
2.08486e-12
2.08458e-12
2.08454e-12
2.08456e-12
2.08457e-12
2.08459e-12
2.0846e-12
2.08461e-12
2.08462e-12
2.08462e-12
2.08463e-12
2.08464e-12
2.08466e-12
2.08461e-12
2.08459e-12
2.08429e-12
2.08425e-12
2.0843e-12
2.08432e-12
2.08435e-12
2.08436e-12
2.08438e-12
2.0844e-12
2.0844e-12
2.08441e-12
2.08442e-12
2.08443e-12
2.08436e-12
2.08428e-12
2.08397e-12
2.08394e-12
2.08404e-12
2.08407e-12
2.08412e-12
2.08414e-12
2.08418e-12
2.0842e-12
2.08421e-12
2.08421e-12
2.0842e-12
2.08415e-12
2.08405e-12
2.08393e-12
2.08662e-12
2.08662e-12
2.08661e-12
2.08662e-12
2.08662e-12
2.08664e-12
2.08668e-12
2.08672e-12
2.08678e-12
2.08686e-12
2.08694e-12
2.08701e-12
2.0871e-12
2.08711e-12
2.08637e-12
2.08638e-12
2.08636e-12
2.08634e-12
2.08633e-12
2.08634e-12
2.08637e-12
2.08641e-12
2.08647e-12
2.08654e-12
2.08662e-12
2.08668e-12
2.08676e-12
2.08678e-12
2.08611e-12
2.0861e-12
2.08606e-12
2.08605e-12
2.08604e-12
2.08605e-12
2.08608e-12
2.08612e-12
2.08617e-12
2.08624e-12
2.08631e-12
2.08638e-12
2.08646e-12
2.0865e-12
2.08581e-12
2.0858e-12
2.08577e-12
2.08576e-12
2.08575e-12
2.08576e-12
2.08579e-12
2.08583e-12
2.08588e-12
2.08594e-12
2.086e-12
2.08606e-12
2.08613e-12
2.08616e-12
2.08551e-12
2.0855e-12
2.08548e-12
2.08548e-12
2.08547e-12
2.08549e-12
2.08551e-12
2.08555e-12
2.0856e-12
2.08565e-12
2.08571e-12
2.08576e-12
2.08583e-12
2.08586e-12
2.08523e-12
2.08523e-12
2.08521e-12
2.08521e-12
2.08521e-12
2.08522e-12
2.08525e-12
2.08528e-12
2.08532e-12
2.08537e-12
2.08542e-12
2.08547e-12
2.08552e-12
2.08556e-12
2.08498e-12
2.08497e-12
2.08495e-12
2.08496e-12
2.08496e-12
2.08497e-12
2.085e-12
2.08503e-12
2.08506e-12
2.08511e-12
2.08516e-12
2.08521e-12
2.08524e-12
2.08529e-12
2.08472e-12
2.08472e-12
2.08471e-12
2.08472e-12
2.08472e-12
2.08474e-12
2.08476e-12
2.08479e-12
2.08482e-12
2.08486e-12
2.08489e-12
2.08494e-12
2.08497e-12
2.08502e-12
2.08448e-12
2.08448e-12
2.08449e-12
2.0845e-12
2.0845e-12
2.08452e-12
2.08453e-12
2.08456e-12
2.08458e-12
2.08462e-12
2.08465e-12
2.08469e-12
2.08472e-12
2.08477e-12
2.08426e-12
2.08426e-12
2.08427e-12
2.08429e-12
2.0843e-12
2.08431e-12
2.08433e-12
2.08435e-12
2.08437e-12
2.0844e-12
2.08442e-12
2.08446e-12
2.08448e-12
2.08453e-12
2.08406e-12
2.08405e-12
2.08407e-12
2.08409e-12
2.08411e-12
2.08412e-12
2.08414e-12
2.08415e-12
2.08417e-12
2.08419e-12
2.08422e-12
2.08427e-12
2.08427e-12
2.08432e-12
2.08387e-12
2.08385e-12
2.08389e-12
2.08391e-12
2.08393e-12
2.08395e-12
2.08396e-12
2.08397e-12
2.08399e-12
2.084e-12
2.08403e-12
2.08407e-12
2.08406e-12
2.08409e-12
2.08365e-12
2.08365e-12
2.08372e-12
2.08375e-12
2.08377e-12
2.08379e-12
2.0838e-12
2.08381e-12
2.08382e-12
2.08383e-12
2.08385e-12
2.08387e-12
2.08384e-12
2.08382e-12
2.08343e-12
2.08344e-12
2.08355e-12
2.08358e-12
2.08362e-12
2.08364e-12
2.08366e-12
2.08367e-12
2.08367e-12
2.08367e-12
2.08366e-12
2.08362e-12
2.08356e-12
2.08348e-12
2.0849e-12
2.08497e-12
2.08502e-12
2.08509e-12
2.08514e-12
2.0852e-12
2.08527e-12
2.08534e-12
2.08543e-12
2.08552e-12
2.08563e-12
2.08573e-12
2.08583e-12
2.08587e-12
2.08475e-12
2.08481e-12
2.08485e-12
2.0849e-12
2.08495e-12
2.085e-12
2.08507e-12
2.08514e-12
2.08522e-12
2.08531e-12
2.08541e-12
2.08551e-12
2.0856e-12
2.08565e-12
2.08458e-12
2.08463e-12
2.08465e-12
2.0847e-12
2.08474e-12
2.0848e-12
2.08487e-12
2.08494e-12
2.08502e-12
2.08511e-12
2.08521e-12
2.0853e-12
2.08541e-12
2.08548e-12
2.08438e-12
2.08443e-12
2.08447e-12
2.08452e-12
2.08456e-12
2.08461e-12
2.08467e-12
2.08474e-12
2.08482e-12
2.08491e-12
2.085e-12
2.08508e-12
2.08518e-12
2.08526e-12
2.08417e-12
2.08423e-12
2.08427e-12
2.08432e-12
2.08437e-12
2.08442e-12
2.08448e-12
2.08455e-12
2.08463e-12
2.08471e-12
2.0848e-12
2.08488e-12
2.08497e-12
2.08505e-12
2.08398e-12
2.08404e-12
2.08409e-12
2.08415e-12
2.08419e-12
2.08424e-12
2.0843e-12
2.08436e-12
2.08443e-12
2.08451e-12
2.0846e-12
2.08468e-12
2.08476e-12
2.08484e-12
2.08381e-12
2.08387e-12
2.08392e-12
2.08397e-12
2.08402e-12
2.08407e-12
2.08412e-12
2.08419e-12
2.08425e-12
2.08433e-12
2.0844e-12
2.08449e-12
2.08456e-12
2.08465e-12
2.08363e-12
2.0837e-12
2.08375e-12
2.08381e-12
2.08386e-12
2.08391e-12
2.08396e-12
2.08402e-12
2.08408e-12
2.08415e-12
2.08422e-12
2.0843e-12
2.08437e-12
2.08446e-12
2.08348e-12
2.08355e-12
2.08361e-12
2.08367e-12
2.08371e-12
2.08376e-12
2.08381e-12
2.08386e-12
2.08392e-12
2.08398e-12
2.08404e-12
2.08412e-12
2.08419e-12
2.08429e-12
2.08334e-12
2.08341e-12
2.08347e-12
2.08353e-12
2.08358e-12
2.08363e-12
2.08367e-12
2.08372e-12
2.08377e-12
2.08382e-12
2.08388e-12
2.08396e-12
2.08402e-12
2.08412e-12
2.08323e-12
2.08328e-12
2.08336e-12
2.08341e-12
2.08346e-12
2.0835e-12
2.08354e-12
2.08358e-12
2.08362e-12
2.08368e-12
2.08373e-12
2.08382e-12
2.08387e-12
2.08397e-12
2.08312e-12
2.08317e-12
2.08325e-12
2.0833e-12
2.08335e-12
2.08339e-12
2.08342e-12
2.08346e-12
2.0835e-12
2.08354e-12
2.0836e-12
2.08367e-12
2.08371e-12
2.08378e-12
2.08299e-12
2.08305e-12
2.08315e-12
2.08321e-12
2.08326e-12
2.08329e-12
2.08332e-12
2.08334e-12
2.08337e-12
2.08341e-12
2.08346e-12
2.08352e-12
2.08353e-12
2.08355e-12
2.08288e-12
2.08294e-12
2.08306e-12
2.08312e-12
2.08317e-12
2.0832e-12
2.08323e-12
2.08325e-12
2.08326e-12
2.08329e-12
2.08331e-12
2.08331e-12
2.08329e-12
2.08325e-12
2.08273e-12
2.0829e-12
2.08305e-12
2.08319e-12
2.08331e-12
2.08342e-12
2.08354e-12
2.08365e-12
2.08377e-12
2.0839e-12
2.08403e-12
2.08415e-12
2.08426e-12
2.08432e-12
2.08272e-12
2.08289e-12
2.08302e-12
2.08315e-12
2.08326e-12
2.08337e-12
2.08349e-12
2.0836e-12
2.08372e-12
2.08385e-12
2.08398e-12
2.0841e-12
2.08422e-12
2.08431e-12
2.08268e-12
2.08284e-12
2.08296e-12
2.08308e-12
2.08319e-12
2.08331e-12
2.08343e-12
2.08354e-12
2.08366e-12
2.08379e-12
2.08392e-12
2.08405e-12
2.08419e-12
2.08429e-12
2.08262e-12
2.08277e-12
2.08289e-12
2.08302e-12
2.08313e-12
2.08325e-12
2.08336e-12
2.08348e-12
2.08359e-12
2.08371e-12
2.08384e-12
2.08396e-12
2.08409e-12
2.08421e-12
2.08255e-12
2.08269e-12
2.08283e-12
2.08295e-12
2.08307e-12
2.08318e-12
2.08329e-12
2.08341e-12
2.08352e-12
2.08364e-12
2.08376e-12
2.08388e-12
2.08401e-12
2.08412e-12
2.08247e-12
2.08262e-12
2.08275e-12
2.08288e-12
2.083e-12
2.08311e-12
2.08323e-12
2.08334e-12
2.08345e-12
2.08356e-12
2.08368e-12
2.0838e-12
2.08391e-12
2.08403e-12
2.0824e-12
2.08256e-12
2.08269e-12
2.08282e-12
2.08294e-12
2.08305e-12
2.08315e-12
2.08326e-12
2.08337e-12
2.08348e-12
2.0836e-12
2.08372e-12
2.08382e-12
2.08395e-12
2.08234e-12
2.0825e-12
2.08263e-12
2.08276e-12
2.08287e-12
2.08298e-12
2.08309e-12
2.08319e-12
2.0833e-12
2.0834e-12
2.08351e-12
2.08363e-12
2.08373e-12
2.08386e-12
2.08229e-12
2.08244e-12
2.08258e-12
2.08271e-12
2.08282e-12
2.08292e-12
2.08302e-12
2.08312e-12
2.08322e-12
2.08332e-12
2.08343e-12
2.08354e-12
2.08365e-12
2.08378e-12
2.08226e-12
2.0824e-12
2.08254e-12
2.08266e-12
2.08276e-12
2.08286e-12
2.08296e-12
2.08305e-12
2.08314e-12
2.08324e-12
2.08334e-12
2.08346e-12
2.08356e-12
2.0837e-12
2.08224e-12
2.08237e-12
2.0825e-12
2.08262e-12
2.08272e-12
2.08281e-12
2.0829e-12
2.08299e-12
2.08307e-12
2.08316e-12
2.08326e-12
2.08339e-12
2.08349e-12
2.08362e-12
2.08221e-12
2.08233e-12
2.08247e-12
2.08258e-12
2.08267e-12
2.08276e-12
2.08284e-12
2.08292e-12
2.083e-12
2.08309e-12
2.08319e-12
2.08331e-12
2.08339e-12
2.08351e-12
2.08217e-12
2.08229e-12
2.08244e-12
2.08254e-12
2.08264e-12
2.08271e-12
2.08278e-12
2.08285e-12
2.08292e-12
2.083e-12
2.0831e-12
2.08321e-12
2.08327e-12
2.08334e-12
2.08213e-12
2.08226e-12
2.08242e-12
2.08252e-12
2.0826e-12
2.08267e-12