/*--------------------------------*- C++ -*----------------------------------*\
| =========                 |                                                 |
| \\      /  F ield         | OpenFOAM: The Open Source CFD Toolbox           |
|  \\    /   O peration     | Version:  v2106                                 |
|   \\  /    A nd           | Website:  www.openfoam.com                      |
|    \\/     M anipulation  |                                                 |
\*---------------------------------------------------------------------------*/
FoamFile
{
    version     2.0;
    format      ascii;
    arch        "LSB;label=32;scalar=64";
    class       volVectorField;
    location    "0.00021";
    object      U;
}
// * * * * * * * * * * * * * * * * * * * * * * * * * * * * * * * * * * * * * //

dimensions      [0 1 -1 0 0 0 0];

internalField   nonuniform List<vector> 
17924
(
(-0.790625 1.85565 27.4854)
(-0.781605 1.87757 27.4484)
(-0.735324 1.90727 27.4207)
(-0.704276 1.92956 27.3732)
(-0.878343 1.4928 27.8929)
(-0.879315 1.51891 27.8626)
(-0.840934 1.54785 27.8423)
(-0.814875 1.57128 27.8088)
(-0.775165 1.59235 27.7917)
(-0.729753 1.59438 27.7728)
(-0.67986 1.59981 27.7551)
(-0.886115 1.5466 27.8399)
(-0.877817 1.58198 27.7787)
(-0.814964 1.59894 27.7428)
(-0.790014 1.62449 27.7027)
(-0.750745 1.64351 27.6869)
(-0.711666 1.65023 27.6743)
(-0.670456 1.66002 27.6632)
(-0.838579 1.57924 27.753)
(-0.842288 1.6316 27.6956)
(-0.784916 1.65955 27.6544)
(-0.770715 1.69233 27.6171)
(-0.738146 1.70644 27.6006)
(-0.707615 1.7115 27.5906)
(-0.674366 1.71349 27.5794)
(-0.809478 1.62718 27.6503)
(-0.815328 1.67424 27.6049)
(-0.769242 1.70357 27.5657)
(-0.759283 1.73573 27.5348)
(-0.731531 1.74458 27.5186)
(-0.706323 1.74932 27.5099)
(-0.678359 1.74921 27.5002)
(-0.772589 1.65073 27.55)
(-0.779862 1.69843 27.5161)
(-0.7469 1.73131 27.4821)
(-0.740935 1.76279 27.4592)
(-0.71943 1.76908 27.4445)
(-0.700956 1.77446 27.4355)
(-0.67984 1.77204 27.4267)
(-0.747282 1.67901 27.4663)
(-0.753443 1.72309 27.4388)
(-0.732555 1.75352 27.4092)
(-0.728065 1.7789 27.3905)
(-0.713316 1.78154 27.3763)
(-0.701231 1.78621 27.3664)
(-0.685931 1.78361 27.3586)
(-0.727586 1.68794 27.3949)
(-0.727074 1.73406 27.3726)
(-0.712398 1.7607 27.3465)
(-0.708327 1.78265 27.3296)
(-0.70042 1.78505 27.3143)
(-0.696505 1.78983 27.3031)
(-0.688517 1.78718 27.295)
(-0.720664 1.69125 27.3358)
(-0.703272 1.7281 27.3147)
(-0.699095 1.75327 27.2896)
(-0.694808 1.77331 27.2725)
(-0.695114 1.77831 27.256)
(-0.695951 1.7842 27.2441)
(-0.692755 1.78238 27.2354)
(-0.693669 1.68913 27.2879)
(-0.673475 1.71774 27.2637)
(-0.67956 1.74446 27.2381)
(-0.677933 1.76486 27.2184)
(-0.686886 1.77018 27.2017)
(-0.692122 1.77464 27.1885)
(-0.695229 1.77202 27.1791)
(-0.672842 1.67393 27.2345)
(-0.655856 1.69819 27.2086)
(-0.669272 1.72258 27.1848)
(-0.670039 1.74202 27.1647)
(-0.683207 1.74901 27.15)
(-0.690495 1.75392 27.1362)
(-0.697414 1.75357 27.1266)
(-0.650097 1.66563 27.1761)
(-0.63494 1.68875 27.1491)
(-0.651858 1.71101 27.1258)
(-0.656131 1.72797 27.1058)
(-0.67334 1.73323 27.095)
(-0.684339 1.73633 27.0828)
(-0.69569 1.73479 27.0755)
(-0.629685 1.64228 27.1227)
(-0.617278 1.66148 27.0963)
(-0.636829 1.67985 27.0737)
(-0.643754 1.69465 27.053)
(-0.663136 1.70123 27.0445)
(-0.677622 1.70669 27.0343)
(-0.692965 1.70846 27.0288)
(-0.609818 1.63173 27.0838)
(-0.594513 1.6512 27.0587)
(-0.617653 1.6691 27.0329)
(-0.626406 1.68207 27.0059)
(-0.647475 1.68809 26.9946)
(-0.664255 1.69171 26.9853)
(-0.682259 1.69123 26.9824)
(-0.584621 1.59336 27.084)
(-0.578185 1.61205 27.0577)
(-0.606359 1.62928 27.0256)
(-0.616533 1.6406 26.9913)
(-0.640288 1.64694 26.9718)
(-0.661028 1.65383 26.9575)
(-0.681589 1.66267 26.9468)
(-0.91024 1.1138 28.1232)
(-0.911822 1.12749 28.1031)
(-0.884447 1.1465 28.0928)
(-0.859653 1.1637 28.0828)
(-0.826523 1.18126 28.0851)
(-0.781667 1.18826 28.0841)
(-0.731413 1.20177 28.0837)
(-0.674467 1.20486 28.0802)
(-0.61446 1.20674 28.0784)
(-0.550739 1.19933 28.0756)
(-0.481921 1.19104 28.0718)
(-0.407213 1.18798 28.0602)
(-0.324956 1.16737 28.0448)
(-0.264994 1.19146 28.0238)
(-0.922963 1.16592 28.0787)
(-0.919262 1.19634 28.0353)
(-0.870059 1.21223 28.0104)
(-0.842031 1.23213 27.9907)
(-0.805862 1.24699 27.9894)
(-0.764294 1.25577 27.9912)
(-0.71873 1.27135 27.9926)
(-0.665957 1.28002 27.9952)
(-0.609529 1.28821 27.9992)
(-0.549382 1.2884 28.0077)
(-0.486948 1.2846 28.0161)
(-0.419828 1.27707 28.0231)
(-0.344746 1.25941 28.0249)
(-0.284415 1.2564 27.9976)
(-0.890118 1.20405 27.9931)
(-0.894216 1.24774 27.9517)
(-0.845894 1.27064 27.9228)
(-0.8239 1.30015 27.9035)
(-0.789516 1.31391 27.9)
(-0.75313 1.32382 27.9035)
(-0.712124 1.33453 27.9035)
(-0.664763 1.33858 27.9059)
(-0.612894 1.34106 27.9082)
(-0.556376 1.33606 27.9168)
(-0.49627 1.32687 27.9254)
(-0.433158 1.31326 27.9405)
(-0.365023 1.29487 27.9464)
(-0.304542 1.27371 27.9345)
(-0.870626 1.26372 27.896)
(-0.874536 1.30627 27.863)
(-0.833733 1.33104 27.8356)
(-0.814576 1.36064 27.8202)
(-0.781888 1.37022 27.8144)
(-0.748118 1.37826 27.8167)
(-0.709762 1.3849 27.8158)
(-0.665842 1.38789 27.8192)
(-0.617015 1.38927 27.8224)
(-0.563446 1.38438 27.8322)
(-0.505757 1.37645 27.8415)
(-0.446071 1.36199 27.8575)
(-0.381716 1.34138 27.8612)
(-0.326442 1.30491 27.8637)
(-0.842895 1.30398 27.7954)
(-0.84639 1.34735 27.7699)
(-0.814271 1.37537 27.7462)
(-0.797284 1.40534 27.7369)
(-0.767193 1.4125 27.7312)
(-0.737307 1.42083 27.7326)
(-0.703892 1.424 27.7311)
(-0.666359 1.4236 27.7337)
(-0.624253 1.42071 27.7372)
(-0.57743 1.41185 27.7471)
(-0.524928 1.40107 27.7568)
(-0.469035 1.38379 27.771)
(-0.406018 1.36118 27.7742)
(-0.353693 1.31823 27.788)
(-0.82271 1.35405 27.7106)
(-0.824211 1.39427 27.6888)
(-0.801014 1.42023 27.6678)
(-0.784317 1.44353 27.6589)
(-0.759052 1.44641 27.6519)
(-0.733738 1.45288 27.6508)
(-0.70528 1.45348 27.6494)
(-0.673246 1.45147 27.6513)
(-0.636916 1.44697 27.6565)
(-0.596285 1.43598 27.6667)
(-0.549778 1.42321 27.6785)
(-0.498942 1.40431 27.6924)
(-0.438304 1.38022 27.6991)
(-0.386558 1.3343 27.7166)
(-0.804813 1.38706 27.6314)
(-0.799305 1.42885 27.6148)
(-0.779629 1.45208 27.5959)
(-0.764587 1.47145 27.5861)
(-0.745395 1.47316 27.5776)
(-0.726832 1.47805 27.5733)
(-0.705182 1.47668 27.5715)
(-0.680008 1.47263 27.5722)
(-0.650421 1.46599 27.5791)
(-0.616742 1.45243 27.5902)
(-0.577165 1.4372 27.6055)
(-0.53257 1.41428 27.6217)
(-0.47566 1.38674 27.6345)
(-0.423316 1.33814 27.6492)
(-0.79857 1.41655 27.562)
(-0.778926 1.4486 27.5444)
(-0.766925 1.47147 27.5253)
(-0.753732 1.48782 27.5144)
(-0.739995 1.49043 27.505)
(-0.725687 1.49444 27.4989)
(-0.707601 1.49138 27.4967)
(-0.685833 1.48635 27.4964)
(-0.659913 1.47885 27.5046)
(-0.630425 1.46433 27.517)
(-0.596043 1.44745 27.5362)
(-0.555756 1.42156 27.5549)
(-0.5047 1.38775 27.5736)
(-0.450457 1.34062 27.5826)
(-0.77542 1.44224 27.5014)
(-0.753074 1.46578 27.4801)
(-0.751799 1.48988 27.4593)
(-0.742624 1.50508 27.4471)
(-0.735747 1.50613 27.4365)
(-0.726385 1.50703 27.4286)
(-0.712901 1.50134 27.4257)
(-0.694862 1.49518 27.4247)
(-0.672272 1.48723 27.4338)
(-0.645931 1.47271 27.4483)
(-0.61534 1.45536 27.4718)
(-0.577655 1.42662 27.4929)
(-0.534091 1.38744 27.5166)
(-0.476793 1.34643 27.5208)
(-0.758811 1.45213 27.4333)
(-0.740392 1.47244 27.4105)
(-0.746555 1.49388 27.3904)
(-0.740547 1.50694 27.3787)
(-0.737026 1.50796 27.3692)
(-0.729938 1.50788 27.3611)
(-0.718824 1.50084 27.3576)
(-0.702317 1.49434 27.3557)
(-0.680712 1.48632 27.3648)
(-0.654883 1.47268 27.3808)
(-0.626126 1.45452 27.4071)
(-0.587642 1.42564 27.4295)
(-0.5544 1.37964 27.4552)
(-0.492962 1.34133 27.4557)
(-0.737728 1.47117 27.3647)
(-0.723551 1.49084 27.3416)
(-0.733793 1.50832 27.3223)
(-0.732031 1.51805 27.3113)
(-0.733859 1.51549 27.3041)
(-0.731137 1.51102 27.2965)
(-0.724696 1.50065 27.2931)
(-0.712022 1.49164 27.2906)
(-0.693431 1.48244 27.2987)
(-0.670433 1.46947 27.3151)
(-0.644876 1.45171 27.3419)
(-0.605483 1.42751 27.3638)
(-0.584389 1.38036 27.3864)
(-0.523585 1.34578 27.3806)
(-0.723683 1.46672 27.2937)
(-0.713526 1.48307 27.2714)
(-0.725857 1.49681 27.254)
(-0.727663 1.50529 27.2437)
(-0.731862 1.50375 27.2393)
(-0.732319 1.49938 27.2345)
(-0.729236 1.49019 27.2326)
(-0.721016 1.4823 27.2297)
(-0.70604 1.47523 27.2351)
(-0.685687 1.46499 27.2493)
(-0.662755 1.44522 27.2726)
(-0.623265 1.42241 27.2928)
(-0.610405 1.37372 27.3059)
(-0.552126 1.34428 27.2911)
(-0.709799 1.48411 27.2422)
(-0.69747 1.49796 27.2202)
(-0.711955 1.5097 27.1992)
(-0.717005 1.51511 27.1838)
(-0.723727 1.51146 27.1785)
(-0.727609 1.50347 27.1751)
(-0.729933 1.49066 27.1746)
(-0.729538 1.47855 27.1724)
(-0.72103 1.46835 27.1746)
(-0.707355 1.45632 27.186)
(-0.689123 1.43695 27.2024)
(-0.655092 1.4217 27.2211)
(-0.647247 1.38364 27.2293)
(-0.602803 1.37091 27.2164)
(-0.691073 1.47147 27.2227)
(-0.681859 1.48051 27.1989)
(-0.698342 1.49022 27.1692)
(-0.71087 1.4905 27.1456)
(-0.723331 1.48699 27.133)
(-0.732496 1.48437 27.1261)
(-0.736013 1.48086 27.1212)
(-0.738727 1.47597 27.118)
(-0.73344 1.47192 27.1156)
(-0.720977 1.4632 27.1208)
(-0.701107 1.44286 27.1265)
(-0.668418 1.42771 27.1434)
(-0.651849 1.39952 27.1574)
(-0.609756 1.40622 27.1498)
(-0.88377 0.785997 28.164)
(-0.884552 0.786577 28.1577)
(-0.865867 0.795388 28.1542)
(-0.845356 0.803264 28.1635)
(-0.817173 0.815783 28.1779)
(-0.776791 0.822449 28.1893)
(-0.731109 0.836427 28.1994)
(-0.678026 0.843692 28.206)
(-0.621268 0.851523 28.2124)
(-0.559747 0.852795 28.2157)
(-0.492707 0.855211 28.2149)
(-0.420569 0.867704 28.2056)
(-0.335518 0.860382 28.1902)
(-0.274009 0.902097 28.1762)
(-0.898463 0.829769 28.1299)
(-0.897646 0.848674 28.1055)
(-0.861532 0.858536 28.0925)
(-0.834531 0.86757 28.0927)
(-0.80272 0.876008 28.1013)
(-0.764209 0.882701 28.1132)
(-0.72034 0.897325 28.123)
(-0.668886 0.908171 28.1328)
(-0.612175 0.920798 28.1418)
(-0.550903 0.929542 28.1541)
(-0.486773 0.93816 28.1644)
(-0.418572 0.947064 28.1721)
(-0.339553 0.93976 28.1738)
(-0.277789 0.961659 28.1511)
(-0.878682 0.863251 28.0541)
(-0.883101 0.892892 28.0312)
(-0.846869 0.9067 28.016)
(-0.821954 0.924908 28.0162)
(-0.789647 0.934588 28.0235)
(-0.753215 0.943154 28.0369)
(-0.710516 0.954958 28.0457)
(-0.661323 0.962897 28.055)
(-0.606529 0.971122 28.0616)
(-0.546625 0.975427 28.0729)
(-0.482414 0.978467 28.0823)
(-0.414556 0.979925 28.097)
(-0.340807 0.971519 28.1043)
(-0.276067 0.97635 28.0875)
(-0.87119 0.920985 27.9715)
(-0.874088 0.95175 27.9548)
(-0.841944 0.967352 27.9416)
(-0.818984 0.985527 27.9445)
(-0.786712 0.99208 27.949)
(-0.750561 0.99807 27.9604)
(-0.707506 1.00531 27.967)
(-0.65835 1.01158 27.9761)
(-0.603227 1.01828 27.9828)
(-0.543043 1.02222 27.9948)
(-0.478528 1.02536 28.0048)
(-0.411125 1.02478 28.0204)
(-0.340451 1.01641 28.0273)
(-0.275932 1.00651 28.0172)
(-0.855541 0.963983 27.8817)
(-0.858476 0.996049 27.8708)
(-0.830476 1.01545 27.8614)
(-0.808237 1.03479 27.869)
(-0.775363 1.03923 27.8734)
(-0.740151 1.0454 27.8837)
(-0.699271 1.04897 27.8889)
(-0.653522 1.05181 27.8961)
(-0.602547 1.05394 27.9026)
(-0.546506 1.05323 27.9139)
(-0.485246 1.05227 27.9247)
(-0.419983 1.04689 27.9383)
(-0.350764 1.03682 27.9434)
(-0.284376 1.01663 27.945)
(-0.843181 1.02052 27.8061)
(-0.845059 1.04976 27.7976)
(-0.822929 1.06764 27.7902)
(-0.800257 1.08087 27.7959)
(-0.770215 1.08106 27.7987)
(-0.73731 1.08569 27.8059)
(-0.699476 1.08615 27.8102)
(-0.657123 1.08677 27.8157)
(-0.610229 1.08612 27.8237)
(-0.558314 1.08175 27.8351)
(-0.501017 1.07715 27.8481)
(-0.438731 1.06927 27.8614)
(-0.370393 1.05569 27.8678)
(-0.302007 1.02773 27.8784)
(-0.831673 1.06444 27.7325)
(-0.827672 1.0952 27.7275)
(-0.806793 1.11153 27.7223)
(-0.785385 1.12211 27.7255)
(-0.760092 1.12055 27.7264)
(-0.731916 1.1234 27.7295)
(-0.699154 1.12109 27.7328)
(-0.661496 1.1188 27.7365)
(-0.619514 1.11428 27.746)
(-0.572564 1.10504 27.7578)
(-0.520446 1.0956 27.7744)
(-0.46233 1.08147 27.7893)
(-0.395567 1.06223 27.801)
(-0.327258 1.02516 27.8155)
(-0.83118 1.10731 27.6656)
(-0.816795 1.12983 27.6574)
(-0.799747 1.14591 27.6525)
(-0.7801 1.15502 27.6529)
(-0.75811 1.15301 27.6528)
(-0.732437 1.15401 27.6527)
(-0.701947 1.14837 27.6551)
(-0.666182 1.14337 27.6575)
(-0.626581 1.13595 27.6686)
(-0.582379 1.12363 27.6823)
(-0.533896 1.11018 27.7031)
(-0.478898 1.09091 27.7207)
(-0.415882 1.06411 27.7396)
(-0.3486 1.02352 27.7534)
(-0.814686 1.14735 27.6021)
(-0.801109 1.16425 27.5907)
(-0.791923 1.18094 27.5839)
(-0.77671 1.1892 27.582)
(-0.759893 1.18509 27.581)
(-0.738188 1.18225 27.5781)
(-0.710821 1.17305 27.5797)
(-0.676927 1.16513 27.5813)
(-0.638898 1.15491 27.5936)
(-0.596275 1.13995 27.6101)
(-0.549929 1.12353 27.6352)
(-0.49663 1.09917 27.6558)
(-0.438106 1.06698 27.6819)
(-0.370687 1.02488 27.6933)
(-0.807311 1.17469 27.5287)
(-0.797043 1.18926 27.5174)
(-0.79446 1.20412 27.5098)
(-0.781394 1.21052 27.5076)
(-0.766876 1.20523 27.5074)
(-0.74647 1.19945 27.5036)
(-0.720182 1.1865 27.5045)
(-0.686627 1.17565 27.5054)
(-0.648711 1.16327 27.5181)
(-0.605992 1.14697 27.5372)
(-0.560105 1.12709 27.5656)
(-0.505508 1.10083 27.5881)
(-0.455483 1.06169 27.6203)
(-0.385396 1.01999 27.6296)
(-0.793436 1.21215 27.4562)
(-0.78599 1.22572 27.4457)
(-0.788812 1.23627 27.4377)
(-0.780219 1.239 27.4354)
(-0.771454 1.22985 27.4364)
(-0.755494 1.21777 27.4323)
(-0.733039 1.20085 27.4327)
(-0.702654 1.18644 27.4334)
(-0.666958 1.17137 27.4447)
(-0.626732 1.15326 27.4651)
(-0.582902 1.13152 27.4939)
(-0.529264 1.10656 27.5175)
(-0.481537 1.06766 27.551)
(-0.411503 1.02872 27.5575)
(-0.78916 1.22686 27.376)
(-0.783961 1.23739 27.3669)
(-0.790059 1.24493 27.3611)
(-0.785124 1.24597 27.3594)
(-0.777257 1.23759 27.3633)
(-0.763406 1.22328 27.3611)
(-0.743718 1.2053 27.3623)
(-0.71767 1.18866 27.3634)
(-0.685591 1.17301 27.3718)
(-0.648893 1.15512 27.3912)
(-0.608022 1.12958 27.4163)
(-0.555359 1.10511 27.4401)
(-0.512031 1.06027 27.4705)
(-0.440531 1.02277 27.4697)
(-0.779504 1.26466 27.3151)
(-0.775857 1.27248 27.3064)
(-0.785315 1.27618 27.2989)
(-0.783189 1.27274 27.2932)
(-0.7767 1.25992 27.2952)
(-0.768955 1.24046 27.2937)
(-0.756613 1.21975 27.2959)
(-0.739309 1.19933 27.2984)
(-0.713197 1.1811 27.3031)
(-0.68282 1.16029 27.32)
(-0.645169 1.13436 27.3379)
(-0.597218 1.11361 27.364)
(-0.55394 1.0726 27.3885)
(-0.493039 1.04646 27.3855)
(-0.772111 1.2686 27.2705)
(-0.768776 1.26787 27.2617)
(-0.782556 1.27122 27.249)
(-0.788891 1.26311 27.2378)
(-0.78651 1.25304 27.2315)
(-0.781086 1.24059 27.2284)
(-0.770351 1.22553 27.2295)
(-0.757412 1.20586 27.2323)
(-0.734435 1.18895 27.2329)
(-0.70549 1.16943 27.2451)
(-0.667797 1.14009 27.2536)
(-0.617517 1.11184 27.2771)
(-0.571466 1.06897 27.3016)
(-0.507812 1.07429 27.3023)
(-0.830836 0.500602 28.0786)
(-0.834841 0.49669 28.0746)
(-0.818879 0.502309 28.0761)
(-0.802898 0.506114 28.0903)
(-0.779287 0.516026 28.1083)
(-0.745081 0.522007 28.1242)
(-0.705888 0.534758 28.139)
(-0.659776 0.543884 28.1503)
(-0.610586 0.554117 28.1602)
(-0.557373 0.560329 28.1664)
(-0.499074 0.569216 28.166)
(-0.436657 0.590452 28.1559)
(-0.358022 0.594269 28.1391)
(-0.301395 0.642891 28.1277)
(-0.844835 0.540199 28.0444)
(-0.848319 0.550782 28.0313)
(-0.818101 0.55824 28.0252)
(-0.795542 0.560892 28.0311)
(-0.768361 0.566224 28.0439)
(-0.735623 0.571192 28.06)
(-0.69749 0.583256 28.074)
(-0.651964 0.594015 28.0863)
(-0.600664 0.607633 28.0968)
(-0.54504 0.620886 28.1092)
(-0.486531 0.637464 28.1186)
(-0.425263 0.658036 28.123)
(-0.350576 0.660323 28.1223)
(-0.294478 0.695404 28.1025)
(-0.833609 0.568718 27.9739)
(-0.83988 0.587582 27.9629)
(-0.809846 0.597554 27.9567)
(-0.787204 0.606799 27.9639)
(-0.75872 0.61334 27.9764)
(-0.726109 0.619823 27.9939)
(-0.687055 0.630067 28.0075)
(-0.641453 0.638738 28.0194)
(-0.58998 0.648966 28.0272)
(-0.533815 0.658731 28.0381)
(-0.473194 0.670379 28.0454)
(-0.408901 0.683714 28.0547)
(-0.336496 0.684231 28.0592)
(-0.275981 0.704693 28.0398)
(-0.832222 0.621544 27.8998)
(-0.836367 0.642314 27.8938)
(-0.810207 0.652918 27.8908)
(-0.789174 0.660912 27.9019)
(-0.759707 0.663713 27.9123)
(-0.726037 0.666718 27.9278)
(-0.684773 0.672488 27.939)
(-0.636898 0.679329 27.9499)
(-0.582611 0.688417 27.9575)
(-0.523231 0.697989 27.9688)
(-0.459426 0.709728 27.9761)
(-0.392373 0.721632 27.9861)
(-0.320623 0.724444 27.99)
(-0.258609 0.734159 27.9708)
(-0.825488 0.66147 27.818)
(-0.828758 0.683958 27.8169)
(-0.804853 0.696988 27.8187)
(-0.783731 0.706374 27.835)
(-0.751947 0.707076 27.8464)
(-0.717171 0.709761 27.8614)
(-0.675877 0.71203 27.8709)
(-0.628997 0.715668 27.8796)
(-0.576482 0.720658 27.8867)
(-0.518638 0.725745 27.8968)
(-0.455959 0.73361 27.9043)
(-0.388698 0.739487 27.9123)
(-0.318081 0.742583 27.913)
(-0.251263 0.743172 27.9013)
(-0.819969 0.7158 27.7484)
(-0.821167 0.736191 27.7498)
(-0.801394 0.7461 27.7538)
(-0.780157 0.749398 27.7687)
(-0.749836 0.746082 27.7796)
(-0.715412 0.747633 27.7921)
(-0.675219 0.746951 27.8005)
(-0.629656 0.748485 27.8074)
(-0.579088 0.750791 27.8156)
(-0.522957 0.75217 27.8253)
(-0.461675 0.756317 27.8348)
(-0.395072 0.75922 27.8428)
(-0.324571 0.760311 27.8423)
(-0.251311 0.752296 27.8409)
(-0.814968 0.761301 27.6788)
(-0.810587 0.782954 27.684)
(-0.790731 0.791163 27.6911)
(-0.76996 0.792793 27.7045)
(-0.743301 0.786884 27.7142)
(-0.71153 0.786583 27.7232)
(-0.674346 0.782879 27.7306)
(-0.63123 0.781283 27.7357)
(-0.583424 0.779415 27.7448)
(-0.53015 0.77547 27.7545)
(-0.471824 0.774155 27.7675)
(-0.407383 0.770237 27.7768)
(-0.337191 0.765624 27.7795)
(-0.261861 0.743805 27.7864)
(-0.818179 0.806835 27.613)
(-0.807739 0.821714 27.616)
(-0.790214 0.828549 27.6248)
(-0.76943 0.830295 27.6358)
(-0.744821 0.822543 27.6449)
(-0.713588 0.819611 27.6511)
(-0.677207 0.812006 27.6581)
(-0.634346 0.807441 27.6625)
(-0.587149 0.802436 27.6733)
(-0.534678 0.794802 27.6849)
(-0.477695 0.788394 27.7028)
(-0.414413 0.778768 27.7151)
(-0.345143 0.766664 27.7241)
(-0.271775 0.736252 27.7346)
(-0.810701 0.8529 27.5479)
(-0.802084 0.862515 27.5486)
(-0.79068 0.868769 27.5578)
(-0.772875 0.870274 27.5666)
(-0.75239 0.859934 27.5757)
(-0.723074 0.852701 27.5799)
(-0.687897 0.841322 27.5868)
(-0.644764 0.83307 27.5912)
(-0.596803 0.824169 27.6035)
(-0.543476 0.812546 27.6183)
(-0.486196 0.801346 27.6417)
(-0.422309 0.785584 27.6574)
(-0.353733 0.76827 27.6741)
(-0.281172 0.732279 27.6849)
(-0.814066 0.888078 27.4734)
(-0.80633 0.895199 27.4739)
(-0.7997 0.900175 27.4836)
(-0.783134 0.900586 27.4922)
(-0.763809 0.888203 27.5029)
(-0.733767 0.876494 27.5066)
(-0.697969 0.860252 27.5133)
(-0.653674 0.847817 27.5184)
(-0.604242 0.835656 27.5324)
(-0.549171 0.821192 27.5515)
(-0.49046 0.804684 27.5801)
(-0.424755 0.783901 27.5995)
(-0.359303 0.760627 27.6236)
(-0.285829 0.723406 27.6334)
(-0.809481 0.934491 27.3989)
(-0.804662 0.939155 27.4001)
(-0.802992 0.940155 27.4081)
(-0.789773 0.936633 27.4182)
(-0.775422 0.919676 27.4315)
(-0.748632 0.901095 27.4355)
(-0.715137 0.880859 27.4426)
(-0.672349 0.864059 27.449)
(-0.622871 0.84766 27.463)
(-0.567531 0.829518 27.4852)
(-0.508555 0.808784 27.5161)
(-0.44258 0.786936 27.5377)
(-0.378446 0.763463 27.5661)
(-0.303179 0.729264 27.5743)
(-0.816476 0.959414 27.3152)
(-0.81246 0.962578 27.3167)
(-0.813796 0.961686 27.3256)
(-0.801105 0.956029 27.3386)
(-0.786303 0.939829 27.3569)
(-0.76044 0.916608 27.3628)
(-0.728376 0.892589 27.3707)
(-0.688832 0.87098 27.3791)
(-0.641947 0.85115 27.392)
(-0.589687 0.830688 27.4161)
(-0.532843 0.804836 27.4455)
(-0.4683 0.781593 27.4688)
(-0.404912 0.751911 27.4986)
(-0.326641 0.718613 27.5055)
(-0.812466 1.00537 27.2505)
(-0.812808 1.00575 27.2487)
(-0.816439 1.00222 27.2544)
(-0.804542 0.989019 27.2643)
(-0.792452 0.967243 27.2837)
(-0.775117 0.937985 27.2927)
(-0.749755 0.912227 27.3028)
(-0.717331 0.887245 27.3145)
(-0.674531 0.863754 27.3252)
(-0.626628 0.839585 27.3489)
(-0.571382 0.811187 27.3719)
(-0.510635 0.789087 27.3981)
(-0.444648 0.761682 27.428)
(-0.368177 0.73255 27.4366)
(-0.819224 1.02309 27.2025)
(-0.818101 1.0135 27.1966)
(-0.82545 1.00515 27.1898)
(-0.821748 0.988332 27.1931)
(-0.809088 0.975062 27.2089)
(-0.793876 0.951295 27.2217)
(-0.769083 0.925019 27.2319)
(-0.739135 0.896412 27.2448)
(-0.698725 0.870314 27.2535)
(-0.653222 0.843922 27.2746)
(-0.600011 0.80928 27.2912)
(-0.533864 0.783052 27.3162)
(-0.467577 0.74229 27.3513)
(-0.379678 0.737983 27.3645)
(-0.768215 0.243174 27.9257)
(-0.772536 0.239207 27.9232)
(-0.765047 0.242449 27.9279)
(-0.755218 0.240651 27.9397)
(-0.737943 0.246394 27.9543)
(-0.710028 0.25084 27.9663)
(-0.677214 0.261528 27.9768)
(-0.639252 0.271491 27.984)
(-0.599193 0.282616 27.9908)
(-0.556225 0.29162 27.9947)
(-0.509609 0.303723 27.9924)
(-0.460639 0.327879 27.9792)
(-0.395234 0.339757 27.9592)
(-0.345523 0.387882 27.9475)
(-0.78007 0.276683 27.893)
(-0.782771 0.282505 27.8859)
(-0.766284 0.286986 27.8807)
(-0.750848 0.284943 27.884)
(-0.730389 0.287209 27.8931)
(-0.703801 0.290429 27.9045)
(-0.671984 0.299665 27.9147)
(-0.634115 0.309991 27.9225)
(-0.59096 0.323242 27.929)
(-0.543667 0.338471 27.9372)
(-0.493773 0.358834 27.943)
(-0.443156 0.385545 27.9429)
(-0.378126 0.395871 27.9386)
(-0.329564 0.435311 27.9213)
(-0.77487 0.298715 27.8279)
(-0.78033 0.308012 27.8221)
(-0.763678 0.315244 27.8156)
(-0.746913 0.318578 27.8182)
(-0.724792 0.323064 27.8271)
(-0.696587 0.328311 27.8402)
(-0.662311 0.337156 27.8512)
(-0.622397 0.346308 27.8594)
(-0.577683 0.357393 27.8642)
(-0.528824 0.370238 27.8711)
(-0.475855 0.38666 27.8744)
(-0.419767 0.406534 27.8771)
(-0.35367 0.413701 27.8772)
(-0.301111 0.441773 27.8578)
(-0.779409 0.344042 27.7583)
(-0.784098 0.354766 27.7548)
(-0.767295 0.36244 27.7515)
(-0.751543 0.363369 27.757)
(-0.727892 0.36413 27.7648)
(-0.697971 0.366331 27.7767)
(-0.660891 0.371849 27.7859)
(-0.617575 0.379591 27.7931)
(-0.56871 0.390185 27.7978)
(-0.5149 0.403235 27.8052)
(-0.456684 0.420313 27.8084)
(-0.395734 0.440655 27.8117)
(-0.328157 0.451246 27.8109)
(-0.273286 0.472159 27.7879)
(-0.779333 0.376944 27.6808)
(-0.783479 0.390904 27.6808)
(-0.766833 0.400107 27.6819)
(-0.748829 0.402951 27.6932)
(-0.721619 0.401948 27.7023)
(-0.689778 0.403881 27.7139)
(-0.651902 0.406828 27.7215)
(-0.608374 0.411865 27.7264)
(-0.559702 0.41947 27.7306)
(-0.505734 0.428821 27.7373)
(-0.447404 0.443352 27.7403)
(-0.384386 0.458182 27.7418)
(-0.317109 0.470472 27.7371)
(-0.256559 0.483961 27.7171)
(-0.778308 0.425463 27.6141)
(-0.77973 0.437412 27.6156)
(-0.765857 0.441961 27.6178)
(-0.747705 0.440326 27.6288)
(-0.720529 0.436363 27.6381)
(-0.68811 0.43749 27.6477)
(-0.650341 0.438274 27.654)
(-0.607071 0.441826 27.6577)
(-0.558799 0.447851 27.6626)
(-0.504843 0.454362 27.669)
(-0.446252 0.46638 27.6735)
(-0.38182 0.478264 27.6754)
(-0.314087 0.490947 27.6686)
(-0.243857 0.497875 27.6581)
(-0.778272 0.465998 27.5478)
(-0.773838 0.4811 27.552)
(-0.758309 0.483588 27.5559)
(-0.740392 0.481835 27.5665)
(-0.715662 0.475557 27.575)
(-0.684392 0.475113 27.5817)
(-0.647622 0.473378 27.5872)
(-0.604911 0.474024 27.5898)
(-0.557399 0.476644 27.5953)
(-0.504487 0.478696 27.6012)
(-0.447096 0.486403 27.6083)
(-0.383151 0.491699 27.6114)
(-0.31565 0.500317 27.6055)
(-0.240362 0.492645 27.6039)
(-0.784508 0.507755 27.4838)
(-0.776427 0.518071 27.4852)
(-0.761625 0.519641 27.4904)
(-0.742128 0.518574 27.4986)
(-0.717772 0.509928 27.5071)
(-0.685413 0.506858 27.5118)
(-0.647556 0.501739 27.5171)
(-0.60343 0.500213 27.5201)
(-0.554713 0.500686 27.5272)
(-0.500851 0.499689 27.5346)
(-0.442741 0.503056 27.5458)
(-0.378314 0.503116 27.5518)
(-0.31022 0.506695 27.5501)
(-0.235678 0.488622 27.5535)
(-0.786598 0.553364 27.4192)
(-0.778195 0.559359 27.4186)
(-0.767478 0.559446 27.4244)
(-0.749113 0.558605 27.43)
(-0.726934 0.547332 27.439)
(-0.694381 0.540306 27.4427)
(-0.655305 0.531623 27.4481)
(-0.608851 0.526775 27.4518)
(-0.5574 0.523634 27.4603)
(-0.501052 0.519277 27.4705)
(-0.440875 0.518249 27.4872)
(-0.374334 0.512518 27.4965)
(-0.304603 0.513089 27.5011)
(-0.230475 0.488527 27.5059)
(-0.797002 0.591009 27.346)
(-0.78732 0.593962 27.3457)
(-0.779594 0.592488 27.3527)
(-0.760791 0.590849 27.3569)
(-0.738231 0.576914 27.367)
(-0.703404 0.564897 27.3708)
(-0.661902 0.551247 27.3766)
(-0.61287 0.542449 27.382)
(-0.558624 0.536323 27.3927)
(-0.499223 0.529588 27.4072)
(-0.436125 0.523254 27.4302)
(-0.36722 0.512204 27.4436)
(-0.297359 0.509563 27.4541)
(-0.222882 0.482841 27.4586)
(-0.799669 0.639269 27.2712)
(-0.790964 0.639513 27.2731)
(-0.788233 0.63356 27.2807)
(-0.771296 0.626828 27.2842)
(-0.752125 0.607818 27.2957)
(-0.718764 0.58946 27.3008)
(-0.677307 0.572433 27.3077)
(-0.627782 0.559805 27.3153)
(-0.571723 0.549269 27.327)
(-0.510035 0.538838 27.3454)
(-0.444531 0.527509 27.3722)
(-0.373347 0.514977 27.3885)
(-0.304074 0.512721 27.4034)
(-0.226367 0.487468 27.4062)
(-0.81407 0.669116 27.1855)
(-0.805211 0.667234 27.1911)
(-0.804509 0.659761 27.2039)
(-0.785882 0.649749 27.2082)
(-0.763026 0.631049 27.2221)
(-0.728977 0.606892 27.2291)
(-0.687099 0.585164 27.2374)
(-0.638955 0.567204 27.2484)
(-0.583831 0.551924 27.2608)
(-0.523542 0.538099 27.2828)
(-0.45879 0.520147 27.3106)
(-0.388533 0.50489 27.3292)
(-0.31992 0.496734 27.3476)
(-0.240025 0.474098 27.3488)
(-0.816848 0.720653 27.1147)
(-0.811524 0.71276 27.1209)
(-0.811525 0.698903 27.1343)
(-0.792842 0.678302 27.1354)
(-0.772195 0.653725 27.1476)
(-0.745515 0.625566 27.1587)
(-0.708489 0.603492 27.171)
(-0.664974 0.583022 27.1873)
(-0.611792 0.5633 27.1998)
(-0.553588 0.545572 27.2237)
(-0.489136 0.522363 27.2474)
(-0.420829 0.50907 27.2684)
(-0.348937 0.502506 27.2885)
(-0.269455 0.482026 27.2923)
(-0.836631 0.747399 27.0642)
(-0.832704 0.725221 27.0649)
(-0.831397 0.703356 27.0665)
(-0.817327 0.682492 27.065)
(-0.791399 0.670218 27.0741)
(-0.763971 0.643375 27.0882)
(-0.725161 0.617245 27.1016)
(-0.68191 0.590814 27.1209)
(-0.629665 0.565915 27.1347)
(-0.573461 0.544153 27.1596)
(-0.510361 0.514551 27.1796)
(-0.439504 0.497132 27.2016)
(-0.364742 0.476702 27.2284)
(-0.269243 0.471244 27.2393)
(-0.698081 0.0237487 27.6602)
(-0.704867 0.0196206 27.6613)
(-0.704437 0.01955 27.6724)
(-0.702257 0.0129662 27.6848)
(-0.692968 0.0135109 27.7)
(-0.674694 0.0140609 27.7153)
(-0.650378 0.0211146 27.728)
(-0.621709 0.0287386 27.736)
(-0.591653 0.0380562 27.7432)
(-0.559507 0.0464397 27.7482)
(-0.525519 0.0580441 27.7474)
(-0.490591 0.080014 27.7342)
(-0.443385 0.0957101 27.7107)
(-0.404084 0.139214 27.6973)
(-0.709855 0.0470128 27.6336)
(-0.713882 0.0500667 27.6305)
(-0.707685 0.050028 27.6302)
(-0.700542 0.0441169 27.635)
(-0.689225 0.0416406 27.647)
(-0.672488 0.0412791 27.6623)
(-0.649145 0.0461615 27.6743)
(-0.62062 0.0532686 27.6818)
(-0.587202 0.0635374 27.6873)
(-0.549728 0.0772452 27.6933)
(-0.509719 0.0967371 27.6972)
(-0.470259 0.123774 27.6948)
(-0.416976 0.13801 27.6873)
(-0.377751 0.176701 27.6736)
(-0.710041 0.0590388 27.5767)
(-0.715704 0.0642326 27.575)
(-0.71125 0.0667202 27.5735)
(-0.70238 0.0654943 27.578)
(-0.689187 0.0650326 27.5907)
(-0.668773 0.0663311 27.6066)
(-0.641463 0.0718467 27.6188)
(-0.609489 0.0788415 27.6259)
(-0.573569 0.0883006 27.6302)
(-0.533901 0.101065 27.6346)
(-0.490529 0.118511 27.6352)
(-0.44486 0.139647 27.6331)
(-0.38891 0.149493 27.6287)
(-0.346314 0.179523 27.6112)
(-0.719135 0.0945415 27.5133)
(-0.724245 0.098818 27.5144)
(-0.720533 0.101169 27.5173)
(-0.711387 0.0966703 27.5244)
(-0.695346 0.0929198 27.5369)
(-0.672266 0.09175 27.5511)
(-0.641812 0.095147 27.5607)
(-0.605987 0.101893 27.5656)
(-0.565247 0.111527 27.5692)
(-0.519662 0.124899 27.5737)
(-0.469631 0.143681 27.5738)
(-0.418049 0.16766 27.5717)
(-0.358926 0.181751 27.5658)
(-0.314617 0.208634 27.5421)
(-0.725143 0.119256 27.4443)
(-0.731397 0.125062 27.4492)
(-0.724112 0.128696 27.4569)
(-0.711764 0.125338 27.4695)
(-0.691821 0.121035 27.4827)
(-0.66573 0.120336 27.4953)
(-0.633752 0.122415 27.5026)
(-0.596682 0.127376 27.5048)
(-0.554982 0.135199 27.5072)
(-0.508321 0.146079 27.511)
(-0.457786 0.164023 27.5108)
(-0.403378 0.184443 27.507)
(-0.34379 0.201604 27.4974)
(-0.29374 0.222407 27.4721)
(-0.728726 0.157596 27.3835)
(-0.733505 0.161275 27.3905)
(-0.725299 0.159018 27.399)
(-0.712553 0.15259 27.4124)
(-0.691945 0.146666 27.4248)
(-0.664707 0.145921 27.4345)
(-0.632191 0.147344 27.4402)
(-0.594386 0.151765 27.4411)
(-0.552014 0.159499 27.4434)
(-0.504451 0.169125 27.4469)
(-0.452918 0.186032 27.4477)
(-0.39557 0.204331 27.4449)
(-0.334813 0.224032 27.4338)
(-0.273272 0.241168 27.4162)
(-0.732925 0.188766 27.3227)
(-0.731126 0.196374 27.3322)
(-0.721506 0.192331 27.3419)
(-0.708394 0.18719 27.3551)
(-0.688858 0.18012 27.3665)
(-0.661276 0.178409 27.3732)
(-0.628226 0.1784 27.3775)
(-0.58946 0.180541 27.3778)
(-0.54651 0.186452 27.3797)
(-0.498678 0.19331 27.3827)
(-0.447248 0.207564 27.3851)
(-0.388807 0.220281 27.3838)
(-0.328646 0.238257 27.3727)
(-0.259347 0.242507 27.3632)
(-0.744533 0.221679 27.2633)
(-0.737484 0.226741 27.2691)
(-0.728474 0.222739 27.2798)
(-0.711967 0.218031 27.2908)
(-0.691194 0.20913 27.3018)
(-0.661205 0.205501 27.307)
(-0.62575 0.203577 27.3107)
(-0.584436 0.205031 27.3121)
(-0.539104 0.210615 27.3148)
(-0.488852 0.215733 27.3187)
(-0.435136 0.227151 27.3244)
(-0.374459 0.235479 27.326)
(-0.31317 0.251335 27.3178)
(-0.241978 0.245882 27.314)
(-0.754904 0.259836 27.2004)
(-0.746758 0.262553 27.2048)
(-0.739778 0.258134 27.216)
(-0.721744 0.253017 27.225)
(-0.700199 0.242023 27.2364)
(-0.667792 0.235888 27.2411)
(-0.629266 0.231424 27.2443)
(-0.584265 0.230954 27.2469)
(-0.534728 0.234184 27.2504)
(-0.480625 0.237173 27.2562)
(-0.423534 0.245752 27.267)
(-0.359413 0.249673 27.2722)
(-0.295776 0.265217 27.2686)
(-0.22376 0.254458 27.2672)
(-0.769977 0.292917 27.1281)
(-0.760089 0.29389 27.1341)
(-0.753893 0.288517 27.1472)
(-0.732603 0.282043 27.1544)
(-0.708304 0.268284 27.1667)
(-0.672225 0.258161 27.1719)
(-0.630056 0.249881 27.1752)
(-0.5815 0.24714 27.1796)
(-0.528038 0.248587 27.1852)
(-0.469829 0.250706 27.1949)
(-0.408438 0.255284 27.2123)
(-0.340801 0.254365 27.222)
(-0.276027 0.269217 27.2226)
(-0.203298 0.257927 27.221)
(-0.780675 0.337198 27.0511)
(-0.76937 0.334473 27.0603)
(-0.766309 0.323866 27.0762)