/*--------------------------------*- C++ -*----------------------------------*\
| =========                 |                                                 |
| \\      /  F ield         | OpenFOAM: The Open Source CFD Toolbox           |
|  \\    /   O peration     | Version:  v2106                                 |
|   \\  /    A nd           | Website:  www.openfoam.com                      |
|    \\/     M anipulation  |                                                 |
\*---------------------------------------------------------------------------*/
FoamFile
{
    version     2.0;
    format      ascii;
    arch        "LSB;label=32;scalar=64";
    class       volVectorField;
    location    "0.000166";
    object      U;
}
// * * * * * * * * * * * * * * * * * * * * * * * * * * * * * * * * * * * * * //

dimensions      [0 1 -1 0 0 0 0];

internalField   nonuniform List<vector> 
18265
(
(0.000353053 0.000352165 -0.0429239)
(0.000293874 0.000343197 -0.0429185)
(0.000238454 0.000351244 -0.042907)
(0.000184106 0.000346697 -0.0428967)
(0.000130462 0.000345734 -0.0428908)
(7.78778e-05 0.000343878 -0.0428874)
(2.50096e-05 0.000342699 -0.0428864)
(-2.63969e-05 0.000342833 -0.0428861)
(-7.91798e-05 0.000343867 -0.0428866)
(-0.000131741 0.0003457 -0.0428895)
(-0.000185349 0.000346667 -0.0428949)
(-0.000239668 0.000351234 -0.0429048)
(-0.0002951 0.000343172 -0.0429158)
(-0.000354233 0.000352266 -0.0429207)
(0.000344089 0.000292896 -0.0429182)
(0.000289948 0.000288945 -0.042912)
(0.000238155 0.000294491 -0.0428999)
(0.000186165 0.000291284 -0.0428892)
(0.000133126 0.000290676 -0.0428816)
(7.99248e-05 0.0002896 -0.0428751)
(2.57251e-05 0.000289047 -0.0428727)
(-2.71395e-05 0.000289094 -0.0428724)
(-8.1289e-05 0.000289563 -0.0428743)
(-0.000134464 0.000290623 -0.0428804)
(-0.000187453 0.000291219 -0.0428874)
(-0.00023939 0.000294426 -0.0428976)
(-0.000291144 0.000288871 -0.0429092)
(-0.000345164 0.000292873 -0.042915)
(0.000352155 0.000237504 -0.0429064)
(0.00029549 0.000237169 -0.0428995)
(0.000242337 0.000241363 -0.0428843)
(0.00018844 0.000238817 -0.0428747)
(0.000134352 0.0002383 -0.0428673)
(8.03662e-05 0.000237157 -0.0428617)
(2.58212e-05 0.000236742 -0.0428597)
(-2.72343e-05 0.000236754 -0.0428594)
(-8.17598e-05 0.00023713 -0.042861)
(-0.000135708 0.000238264 -0.0428661)
(-0.000189741 0.000238767 -0.042873)
(-0.000243573 0.000241312 -0.042882)
(-0.000296695 0.000237106 -0.0428968)
(-0.000353264 0.000237458 -0.0429032)
(0.000347629 0.000183154 -0.0428958)
(0.000292285 0.000185177 -0.0428885)
(0.000239794 0.000187458 -0.0428744)
(0.000186648 0.000185665 -0.0428654)
(0.00013323 0.000185164 -0.0428584)
(7.97488e-05 0.000184237 -0.0428529)
(2.56265e-05 0.000183942 -0.0428509)
(-2.7045e-05 0.000183944 -0.0428506)
(-8.11624e-05 0.000184224 -0.0428522)
(-0.000134599 0.000185147 -0.0428571)
(-0.000187959 0.000185637 -0.0428636)
(-0.000241035 0.000187427 -0.0428722)
(-0.000293485 0.000185134 -0.0428858)
(-0.000348736 0.000183114 -0.0428925)
(0.000346674 0.00012952 -0.0428896)
(0.000291668 0.000132155 -0.0428807)
(0.000239274 0.000133389 -0.0428667)
(0.000186145 0.000132266 -0.042858)
(0.00013289 0.000131929 -0.0428509)
(7.95213e-05 0.000131261 -0.0428456)
(2.55511e-05 0.000131075 -0.0428436)
(-2.69648e-05 0.000131078 -0.0428434)
(-8.09359e-05 0.000131264 -0.0428449)
(-0.000134257 0.000131934 -0.0428497)
(-0.000187452 0.000132266 -0.0428563)
(-0.000240505 0.000133386 -0.0428644)
(-0.000292846 0.000132139 -0.0428779)
(-0.000347761 0.000129501 -0.0428863)
(0.000344858 7.69098e-05 -0.0428858)
(0.0002906 7.89296e-05 -0.0428738)
(0.000238142 7.93734e-05 -0.0428608)
(0.000185224 7.87528e-05 -0.0428523)
(0.000132225 7.85264e-05 -0.0428454)
(7.91187e-05 7.81219e-05 -0.0428401)
(2.54205e-05 7.80178e-05 -0.0428381)
(-2.6829e-05 7.80271e-05 -0.0428379)
(-8.05331e-05 7.81436e-05 -0.0428394)
(-0.000133597 7.85579e-05 -0.0428441)
(-0.000186542 7.87869e-05 -0.0428506)
(-0.000239393 7.94072e-05 -0.0428586)
(-0.000291796 7.89521e-05 -0.0428711)
(-0.000345994 7.69258e-05 -0.0428826)
(0.000343659 2.42205e-05 -0.0428845)
(0.000290028 2.49198e-05 -0.0428711)
(0.000237718 2.50162e-05 -0.0428584)
(0.000184924 2.48195e-05 -0.0428499)
(0.000132037 2.47437e-05 -0.0428429)
(7.90131e-05 2.46122e-05 -0.0428377)
(2.53938e-05 2.4586e-05 -0.0428357)
(-2.67802e-05 2.45998e-05 -0.0428355)
(-8.04091e-05 2.4646e-05 -0.042837)
(-0.000133397 2.47952e-05 -0.0428417)
(-0.000186237 2.48814e-05 -0.0428482)
(-0.00023897 2.50816e-05 -0.0428561)
(-0.000291223 2.49807e-05 -0.0428684)
(-0.000344802 2.42725e-05 -0.0428813)
(0.000343843 -2.74233e-05 -0.0428838)
(0.000290086 -2.81884e-05 -0.0428704)
(0.000237731 -2.82886e-05 -0.0428577)
(0.000184923 -2.81017e-05 -0.0428492)
(0.000132038 -2.80231e-05 -0.0428423)
(7.90215e-05 -2.78866e-05 -0.0428371)
(2.54074e-05 -2.78377e-05 -0.0428351)
(-2.67607e-05 -2.78191e-05 -0.0428348)
(-8.03884e-05 -2.7842e-05 -0.0428363)
(-0.000133376 -2.79556e-05 -0.0428411)
(-0.000186223 -2.80199e-05 -0.0428475)
(-0.000238978 -2.82025e-05 -0.0428555)
(-0.000291283 -2.8102e-05 -0.0428677)
(-0.000344992 -2.73455e-05 -0.0428806)
(0.000344831 -8.00476e-05 -0.042884)
(0.000290529 -8.21935e-05 -0.042872)
(0.000238097 -8.26806e-05 -0.042859)
(0.000185201 -8.20891e-05 -0.0428505)
(0.000132226 -8.18674e-05 -0.0428435)
(7.91404e-05 -8.14635e-05 -0.0428383)
(2.54542e-05 -8.13403e-05 -0.0428363)
(-2.67842e-05 -8.13215e-05 -0.042836)
(-8.04881e-05 -8.14194e-05 -0.0428376)
(-0.000133551 -8.17993e-05 -0.0428423)
(-0.000186497 -8.20035e-05 -0.0428488)
(-0.000239347 -8.25872e-05 -0.0428568)
(-0.000291741 -8.20913e-05 -0.0428693)
(-0.000345988 -7.99495e-05 -0.0428808)
(0.000346626 -0.000132606 -0.0428865)
(0.000291574 -0.000135371 -0.0428777)
(0.000239219 -0.000136629 -0.0428636)
(0.000186118 -0.000135525 -0.042855)
(0.000132892 -0.000135187 -0.0428479)
(7.9553e-05 -0.000134524 -0.0428426)
(2.56023e-05 -0.000134325 -0.0428406)
(-2.6898e-05 -0.000134308 -0.0428403)
(-8.08681e-05 -0.000134483 -0.0428419)
(-0.00013419 -0.000135124 -0.0428467)
(-0.00018739 -0.000135443 -0.0428533)
(-0.000240447 -0.000136538 -0.0428615)
(-0.00029277 -0.000135267 -0.042875)
(-0.000347738 -0.000132498 -0.0428834)
(0.000347578 -0.000186175 -0.0428916)
(0.000292159 -0.000188316 -0.0428844)
(0.000239715 -0.000190621 -0.0428702)
(0.000186604 -0.000188843 -0.0428612)
(0.000133224 -0.000188343 -0.0428541)
(7.97814e-05 -0.000187429 -0.0428487)
(2.56876e-05 -0.000187128 -0.0428467)
(-2.69648e-05 -0.000187118 -0.0428464)
(-8.10769e-05 -0.000187396 -0.042848)
(-0.00013451 -0.000188294 -0.0428529)
(-0.000187872 -0.000188776 -0.0428595)
(-0.000240951 -0.000190544 -0.042868)
(-0.000293375 -0.000188225 -0.0428817)
(-0.00034871 -0.000186069 -0.0428884)
(0.000352132 -0.000240477 -0.0429011)
(0.000295355 -0.000240227 -0.0428942)
(0.000242252 -0.000244425 -0.0428789)
(0.00018839 -0.000241892 -0.0428693)
(0.000134344 -0.000241369 -0.0428619)
(8.04001e-05 -0.000240252 -0.0428563)
(2.58871e-05 -0.000239839 -0.0428543)
(-2.71513e-05 -0.000239846 -0.042854)
(-8.16697e-05 -0.000240228 -0.0428556)
(-0.00013561 -0.000241334 -0.0428607)
(-0.000189642 -0.000241842 -0.0428677)
(-0.000243474 -0.000244364 -0.0428767)
(-0.000296563 -0.000240149 -0.0428915)
(-0.000353246 -0.000240382 -0.042898)
(0.000344018 -0.000295904 -0.0429117)
(0.00028977 -0.000291952 -0.0429055)
(0.000238031 -0.000297533 -0.0428933)
(0.000186085 -0.000294328 -0.0428826)
(0.00013309 -0.000293703 -0.0428751)
(7.99386e-05 -0.000292642 -0.0428685)
(2.57851e-05 -0.000292086 -0.0428662)
(-2.70558e-05 -0.000292131 -0.0428659)
(-8.11837e-05 -0.000292622 -0.0428678)
(-0.000134342 -0.000293669 -0.0428739)
(-0.000187323 -0.000294282 -0.042881)
(-0.000239247 -0.000297472 -0.0428912)
(-0.000290961 -0.000291873 -0.0429029)
(-0.000345104 -0.000295808 -0.0429087)
(0.000353172 -0.000355062 -0.0429164)
(0.000293762 -0.000345942 -0.0429109)
(0.000238351 -0.000354091 -0.0428994)
(0.000184025 -0.000349569 -0.0428891)
(0.00013042 -0.000348617 -0.0428832)
(7.78828e-05 -0.000346838 -0.0428797)
(2.50613e-05 -0.000345673 -0.0428788)
(-2.63235e-05 -0.000345808 -0.0428785)
(-7.90738e-05 -0.000346845 -0.0428791)
(-0.000131613 -0.000348607 -0.042882)
(-0.000185202 -0.000349564 -0.0428874)
(-0.000239512 -0.000354086 -0.0428973)
(-0.000294912 -0.000345925 -0.0429083)
(-0.000354249 -0.000355057 -0.0429134)
(0.00040747 0.000407182 -0.0494056)
(0.000339602 0.000397136 -0.0493996)
(0.000275857 0.000406431 -0.0493868)
(0.000213245 0.000401342 -0.0493751)
(0.000151373 0.000400194 -0.0493685)
(9.06636e-05 0.000398146 -0.0493647)
(2.95111e-05 0.000396818 -0.0493637)
(-2.98163e-05 0.000396856 -0.0493636)
(-9.09359e-05 0.000398145 -0.0493643)
(-0.000151643 0.000400207 -0.0493679)
(-0.00021351 0.000401373 -0.0493742)
(-0.000276127 0.000406498 -0.0493857)
(-0.000339905 0.000397218 -0.0493983)
(-0.000407797 0.000407328 -0.0494042)
(0.000397419 0.000339231 -0.0493995)
(0.000335071 0.000334685 -0.0493923)
(0.000275362 0.000341157 -0.0493788)
(0.000215441 0.000337554 -0.0493667)
(0.000154283 0.00033682 -0.0493583)
(9.29207e-05 0.000335622 -0.0493509)
(3.03e-05 0.000334982 -0.0493485)
(-3.06079e-05 0.000334989 -0.0493483)
(-9.32027e-05 0.000335606 -0.0493505)
(-0.00015455 0.000336806 -0.0493576)
(-0.00021569 0.000337545 -0.0493658)
(-0.000275612 0.000341172 -0.0493776)
(-0.000335343 0.000334722 -0.049391)
(-0.000397703 0.000339306 -0.049398)
(0.000406707 0.000275474 -0.0493865)
(0.000341543 0.000274958 -0.0493787)
(0.000280277 0.000279872 -0.0493615)
(0.000218175 0.000277007 -0.0493506)
(0.000155791 0.000276416 -0.0493423)
(9.34991e-05 0.000275156 -0.049336)
(3.04269e-05 0.000274678 -0.0493339)
(-3.07445e-05 0.000274671 -0.0493337)
(-9.37932e-05 0.000275131 -0.0493356)
(-0.000156055 0.000276384 -0.0493416)
(-0.000218408 0.000276976 -0.0493497)
(-0.000280489 0.000279858 -0.0493603)
(-0.00034177 0.000274969 -0.0493773)
(-0.000406956 0.000275525 -0.0493849)
(0.000401625 0.000212867 -0.0493747)
(0.000337936 0.000215042 -0.0493665)
(0.000277411 0.000217777 -0.0493505)
(0.000216136 0.000215739 -0.0493403)
(0.0001545 0.000215177 -0.0493325)
(9.27813e-05 0.000214149 -0.0493263)
(3.01925e-05 0.000213804 -0.0493242)
(-3.0529e-05 0.000213794 -0.0493241)
(-9.30926e-05 0.000214119 -0.0493259)
(-0.000154772 0.000215133 -0.0493317)
(-0.000216366 0.000215691 -0.0493393)
(-0.00027761 0.00021774 -0.0493493)
(-0.000338138 0.000215028 -0.049365)
(-0.000401841 0.000212902 -0.0493731)
(0.00040048 0.000151036 -0.049368)
(0.0003372 0.000153932 -0.049358)
(0.000276821 0.000155443 -0.0493421)
(0.000215574 0.000154153 -0.0493323)
(0.000154121 0.000153775 -0.0493244)
(9.25247e-05 0.00015303 -0.0493185)
(3.00997e-05 0.000152807 -0.0493163)
(-3.0459e-05 0.000152799 -0.0493162)
(-9.28576e-05 0.000153002 -0.0493181)
(-0.000154408 0.000153733 -0.0493237)
(-0.000215811 0.000154104 -0.0493314)
(-0.000277017 0.0001554 -0.0493409)
(-0.000337392 0.000153906 -0.0493565)
(-0.000400688 0.000151047 -0.0493664)
(0.000398448 9.0377e-05 -0.0493641)
(0.000336002 9.26253e-05 -0.0493505)
(0.000275564 9.32066e-05 -0.0493357)
(0.000214547 9.24896e-05 -0.0493261)
(0.000153377 9.22345e-05 -0.0493184)
(9.2069e-05 9.17794e-05 -0.0493125)
(2.99487e-05 9.16477e-05 -0.0493104)
(-3.032e-05 9.16436e-05 -0.0493102)
(-9.24115e-05 9.17602e-05 -0.0493121)
(-0.000153666 9.22044e-05 -0.0493177)
(-0.000214774 9.24522e-05 -0.0493252)
(-0.000275733 9.31708e-05 -0.0493345)
(-0.000336146 9.25996e-05 -0.0493491)
(-0.000398592 9.03745e-05 -0.0493624)
(0.000397123 2.93621e-05 -0.049363)
(0.000335365 3.01514e-05 -0.0493478)
(0.00027509 3.02807e-05 -0.0493334)
(0.000214206 3.00482e-05 -0.0493238)
(0.000153157 2.99576e-05 -0.049316)
(9.19388e-05 2.98088e-05 -0.0493102)
(2.99117e-05 2.97717e-05 -0.0493081)
(-3.02874e-05 2.97797e-05 -0.0493079)
(-9.22901e-05 2.98215e-05 -0.0493098)
(-0.000153458 2.99749e-05 -0.0493154)
(-0.000214446 3.00652e-05 -0.0493229)
(-0.000275272 3.02952e-05 -0.0493322)
(-0.000335514 3.01634e-05 -0.0493464)
(-0.000397265 2.93743e-05 -0.0493613)
(0.0003972 -3.00312e-05 -0.0493626)
(0.000335377 -3.08132e-05 -0.0493475)
(0.000275082 -3.09452e-05 -0.049333)
(0.000214195 -3.0727e-05 -0.0493235)
(0.000153149 -3.06552e-05 -0.0493157)
(9.19357e-05 -3.05131e-05 -0.0493099)
(2.99204e-05 -3.04798e-05 -0.0493077)
(-3.02897e-05 -3.0481e-05 -0.0493076)
(-9.2285e-05 -3.05282e-05 -0.0493095)
(-0.00015345 -3.06807e-05 -0.0493151)
(-0.000214435 -3.07627e-05 -0.0493226)
(-0.000275261 -3.0987e-05 -0.0493319)
(-0.000335518 -3.08533e-05 -0.0493461)
(-0.000397328 -3.00596e-05 -0.049361)
(0.000398454 -9.10246e-05 -0.0493632)
(0.000335987 -9.3292e-05 -0.0493495)
(0.000275542 -9.38858e-05 -0.0493347)
(0.000214522 -9.31845e-05 -0.0493251)
(0.000153354 -9.29481e-05 -0.0493174)
(9.20538e-05 -9.24988e-05 -0.0493115)
(2.99634e-05 -9.23774e-05 -0.0493094)
(-3.03388e-05 -9.23723e-05 -0.0493093)
(-9.24117e-05 -9.24973e-05 -0.0493112)
(-0.000153662 -9.29477e-05 -0.0493169)
(-0.000214765 -9.31895e-05 -0.0493244)
(-0.000275717 -9.38973e-05 -0.0493337)
(-0.000336115 -9.33074e-05 -0.0493483)
(-0.000398559 -9.10387e-05 -0.0493616)
(0.000400512 -0.000151728 -0.0493665)
(0.000337186 -0.000154636 -0.0493564)
(0.000276793 -0.000156142 -0.0493405)
(0.000215536 -0.00015486 -0.0493307)
(0.000154086 -0.000154497 -0.0493228)
(9.24992e-05 -0.000153753 -0.0493169)
(3.01188e-05 -0.000153546 -0.0493148)
(-3.04909e-05 -0.000153539 -0.0493147)
(-9.28602e-05 -0.000153748 -0.0493166)
(-0.000154403 -0.000154491 -0.0493223)
(-0.000215796 -0.000154856 -0.04933)
(-0.000276992 -0.000156143 -0.0493396)
(-0.000337348 -0.000154642 -0.0493552)
(-0.00040065 -0.000151741 -0.049365)
(0.000401683 -0.000213589 -0.0493726)
(0.000337924 -0.000215775 -0.0493643)
(0.000277381 -0.000218499 -0.0493484)
(0.00021609 -0.000216463 -0.0493381)
(0.000154454 -0.000215916 -0.0493303)
(9.27449e-05 -0.000214882 -0.0493242)
(3.02088e-05 -0.000214558 -0.0493221)
(-3.05747e-05 -0.000214552 -0.049322)
(-9.31008e-05 -0.000214879 -0.0493239)
(-0.000154766 -0.00021591 -0.0493298)
(-0.000216345 -0.000216457 -0.0493374)
(-0.000277573 -0.000218494 -0.0493475)
(-0.000338075 -0.000215773 -0.0493632)
(-0.00040179 -0.000213602 -0.0493712)
(0.000406807 -0.000276224 -0.049384)
(0.000341542 -0.000275725 -0.049376)
(0.000280252 -0.000280613 -0.0493588)
(0.000218127 -0.00027775 -0.0493479)
(0.000155741 -0.000277172 -0.0493396)
(9.34562e-05 -0.000275898 -0.0493334)
(3.04357e-05 -0.000275445 -0.0493312)
(-3.08013e-05 -0.000275445 -0.0493312)
(-9.38065e-05 -0.000275897 -0.0493331)
(-0.00015605 -0.000277169 -0.0493392)
(-0.000218378 -0.000277743 -0.0493473)
(-0.000280439 -0.000280608 -0.0493579)
(-0.00034169 -0.000275718 -0.0493749)
(-0.000406905 -0.00027623 -0.0493826)
(0.000397506 -0.000340025 -0.0493964)
(0.000335069 -0.000335485 -0.0493892)
(0.00027534 -0.00034194 -0.0493756)
(0.000215393 -0.000338335 -0.0493635)
(0.000154229 -0.000337615 -0.0493551)
(9.28708e-05 -0.000336387 -0.0493478)
(3.02965e-05 -0.000335768 -0.0493453)
(-3.06719e-05 -0.000335782 -0.0493452)
(-9.32152e-05 -0.000336381 -0.0493475)
(-0.000154539 -0.00033761 -0.0493547)
(-0.000215648 -0.000338323 -0.0493628)
(-0.000275542 -0.000341927 -0.0493747)
(-0.000335236 -0.000335469 -0.0493881)
(-0.000397626 -0.00034001 -0.0493951)
(0.000407633 -0.000407963 -0.0494021)
(0.00033962 -0.000397879 -0.049396)
(0.00027585 -0.00040718 -0.0493831)
(0.000213217 -0.000402098 -0.0493714)
(0.000151329 -0.000400982 -0.0493648)
(9.06152e-05 -0.000398905 -0.049361)
(2.94953e-05 -0.000397597 -0.0493601)
(-2.98785e-05 -0.000397652 -0.04936)
(-9.09404e-05 -0.0003989 -0.0493608)
(-0.000151624 -0.000400972 -0.0493644)
(-0.000213463 -0.000402083 -0.0493708)
(-0.000276051 -0.000407163 -0.0493823)
(-0.000339786 -0.000397864 -0.049395)
(-0.000407738 -0.000407956 -0.0494008)
(0.000468461 0.000468459 -0.0566573)
(0.000390779 0.000457201 -0.0566509)
(0.000317575 0.000467775 -0.0566368)
(0.000245651 0.000462096 -0.0566237)
(0.000174523 0.0004608 -0.0566166)
(0.000104679 0.000458454 -0.0566124)
(3.42876e-05 0.000457005 -0.0566115)
(-3.40579e-05 0.000457027 -0.0566114)
(-0.000104489 0.000458559 -0.0566123)
(-0.000174405 0.000460986 -0.0566164)
(-0.000245621 0.000462346 -0.0566236)
(-0.000317637 0.00046808 -0.0566366)
(-0.00039092 0.000457505 -0.0566508)
(-0.000468683 0.000468772 -0.0566572)
(0.000457189 0.000390659 -0.0566508)
(0.000385549 0.00038543 -0.0566429)
(0.000316822 0.000392835 -0.056628)
(0.000247949 0.000388778 -0.0566146)
(0.000177683 0.000387923 -0.0566055)
(0.000107164 0.000386509 -0.0565974)
(3.52112e-05 0.000385808 -0.0565947)
(-3.49056e-05 0.00038583 -0.0565946)
(-0.000106899 0.000386606 -0.0565972)
(-0.000177493 0.000388082 -0.0566052)
(-0.00024786 0.000389003 -0.0566143)
(-0.00031685 0.000393118 -0.0566278)
(-0.000385687 0.000385751 -0.0566427)
(-0.000457426 0.000390992 -0.0566506)
(0.000467726 0.000317386 -0.0566366)
(0.000392951 0.000316612 -0.056628)
(0.00032245 0.000322232 -0.056609)
(0.000251135 0.000318996 -0.056597)
(0.000179473 0.000318321 -0.0565879)
(0.000107889 0.000316876 -0.056581)
(3.54142e-05 0.000316355 -0.0565787)
(-3.50714e-05 0.000316369 -0.0565786)
(-0.000107574 0.000316934 -0.0565807)
(-0.000179224 0.000318425 -0.0565875)
(-0.000250987 0.00031916 -0.0565965)
(-0.000322431 0.000322461 -0.0566086)
(-0.000393063 0.000316899 -0.0566277)
(-0.00046799 0.00031769 -0.0566364)
(0.000462024 0.00024544 -0.0566236)
(0.000388884 0.000247708 -0.0566145)
(0.000319213 0.000250887 -0.0565969)
(0.000248805 0.000248555 -0.0565856)
(0.000177979 0.000247914 -0.0565771)
(0.000107057 0.00024673 -0.0565704)
(3.51651e-05 0.000246344 -0.0565681)
(-3.48022e-05 0.000246343 -0.0565681)
(-0.000106706 0.000246733 -0.0565701)
(-0.00017768 0.000247934 -0.0565767)
(-0.000248587 0.000248616 -0.0565851)
(-0.000319109 0.000251008 -0.0565964)
(-0.000388909 0.000247904 -0.0566141)
(-0.000462204 0.00024567 -0.0566232)
(0.000460721 0.000174361 -0.0566164)
(0.000388019 0.000177498 -0.0566054)
(0.000318533 0.000179284 -0.0565878)
(0.000248162 0.000177788 -0.0565771)
(0.000177539 0.000177348 -0.0565685)
(0.000106758 0.000176478 -0.056562)
(3.50562e-05 0.000176213 -0.0565597)
(-3.47227e-05 0.000176192 -0.0565596)
(-0.000106423 0.000176418 -0.0565617)
(-0.000177233 0.000177272 -0.056568)
(-0.000247911 0.000177726 -0.0565765)
(-0.000318374 0.000179267 -0.0565873)
(-0.000387983 0.000177553 -0.0566048)
(-0.000460834 0.000174479 -0.056616)
(0.000458377 0.000104603 -0.0566122)
(0.000386603 0.000107081 -0.0565973)
(0.000317086 0.000107811 -0.0565809)
(0.000246977 0.000106978 -0.0565704)
(0.000176669 0.00010668 -0.056562)
(0.000106213 0.000106133 -0.0565556)
(3.48464e-05 0.000105957 -0.0565534)
(-3.45768e-05 0.000105921 -0.0565533)
(-0.000105924 0.000106028 -0.0565553)
(-0.000176379 0.000106532 -0.0565616)
(-0.000246706 0.00010682 -0.0565699)
(-0.000316874 0.00010768 -0.0565803)
(-0.000386492 0.000107012 -0.0565967)
(-0.0004584 0.000104608 -0.0566118)
(0.000456955 3.43591e-05 -0.0566113)
(0.000385919 3.52878e-05 -0.0565946)
(0.000316575 3.54973e-05 -0.0565786)
(0.000246592 3.52466e-05 -0.0565681)
(0.000176401 3.51309e-05 -0.0565597)
(0.000106033 3.49146e-05 -0.0565533)
(3.47522e-05 3.48143e-05 -0.0565511)
(-3.45605e-05 3.47602e-05 -0.056551)
(-0.000105808 3.47642e-05 -0.0565531)
(-0.000176148 3.49118e-05 -0.0565593)
(-0.000246323 3.49956e-05 -0.0565676)
(-0.000316325 3.52585e-05 -0.0565781)
(-0.00038574 3.51006e-05 -0.0565941)
(-0.000456893 3.42519e-05 -0.0566108)
(0.000456985 -3.38923e-05 -0.0566112)
(0.000385941 -3.46952e-05 -0.0565945)
(0.000316585 -3.48512e-05 -0.0565785)
(0.000246586 -3.45795e-05 -0.056568)
(0.000176376 -3.45001e-05 -0.0565596)
(0.000105992 -3.43535e-05 -0.0565532)
(3.46868e-05 -3.43426e-05 -0.056551)
(-3.45912e-05 -3.4384e-05 -0.056551)
(-0.000105853 -3.44885e-05 -0.0565531)
(-0.000176178 -3.47071e-05 -0.0565593)
(-0.000246334 -3.48352e-05 -0.0565676)
(-0.000316313 -3.51226e-05 -0.0565781)
(-0.000385706 -3.49498e-05 -0.056594)
(-0.000456851 -3.4084e-05 -0.0566108)
(0.000458549 -0.000104229 -0.056612)
(0.000386738 -0.000106612 -0.056597)
(0.000317154 -0.00010728 -0.0565806)
(0.000246971 -0.000106417 -0.05657)
(0.000176597 -0.000106143 -0.0565616)
(0.000106095 -0.000105651 -0.0565553)
(3.46647e-05 -0.000105556 -0.0565531)
(-3.46802e-05 -0.000105603 -0.056553)
(-0.000106057 -0.000105794 -0.0565552)
(-0.000176472 -0.000106363 -0.0565615)
(-0.000246756 -0.000106688 -0.0565698)
(-0.000316881 -0.00010757 -0.0565803)
(-0.000386461 -0.000106885 -0.0565966)
(-0.000458345 -0.000104452 -0.0566117)
(0.000460995 -0.000174137 -0.0566161)
(0.000388219 -0.000177205 -0.0566049)
(0.000318638 -0.00017894 -0.0565874)
(0.000248158 -0.000177412 -0.0565765)
(0.000177436 -0.000176987 -0.0565679)
(0.000106585 -0.000176147 -0.0565615)
(3.48095e-05 -0.000175937 -0.0565593)
(-3.49012e-05 -0.000175971 -0.0565593)
(-0.000106618 -0.000176252 -0.0565615)
(-0.000177366 -0.000177148 -0.0565679)
(-0.000247977 -0.000177617 -0.0565764)
(-0.00031837 -0.000179168 -0.0565872)
(-0.000387924 -0.000177429 -0.0566047)
(-0.000460749 -0.000174331 -0.0566158)
(0.000462372 -0.000245376 -0.0566232)
(0.000389135 -0.000247613 -0.056614)
(0.000319353 -0.00025076 -0.0565963)
(0.000248812 -0.000248392 -0.056585)
(0.000177863 -0.000247752 -0.0565765)
(0.000106853 -0.000246574 -0.0565698)
(3.48877e-05 -0.00024621 -0.0565676)
(-3.50343e-05 -0.000246231 -0.0565676)
(-0.000106935 -0.00024664 -0.0565698)
(-0.000177831 -0.000247855 -0.0565764)
(-0.000248653 -0.000248526 -0.0565849)
(-0.000319089 -0.000250915 -0.0565962)
(-0.000388826 -0.000247775 -0.0566139)
(-0.000462094 -0.000245517 -0.056623)
(0.000468098 -0.000317447 -0.0566362)
(0.000393224 -0.000316683 -0.0566275)
(0.000322616 -0.000322303 -0.0566084)
(0.00025116 -0.000319027 -0.0565963)
(0.000179365 -0.000318342 -0.0565872)
(0.000107686 -0.000316881 -0.0565803)
(3.51406e-05 -0.000316346 -0.0565781)
(-3.53229e-05 -0.000316353 -0.0565781)
(-0.0001078 -0.000316899 -0.0565803)
(-0.000179367 -0.000318372 -0.0565872)
(-0.000251034 -0.000319072 -0.0565963)
(-0.000322384 -0.00032236 -0.0566083)
(-0.000392946 -0.000316752 -0.0566273)
(-0.000467849 -0.000317518 -0.0566361)
(0.000457521 -0.000390783 -0.0566504)
(0.000385819 -0.000385592 -0.0566424)
(0.000317 -0.000393022 -0.0566275)
(0.000248 -0.000388931 -0.0566139)
(0.000177605 -0.000388064 -0.0566048)
(0.000106989 -0.000386621 -0.0565967)
(3.49686e-05 -0.000385873 -0.0565941)
(-3.51478e-05 -0.00038587 -0.0565941)
(-0.000107092 -0.000386591 -0.0565967)
(-0.000177601 -0.000388025 -0.0566048)
(-0.000247871 -0.00038889 -0.0566139)
(-0.000316773 -0.000392989 -0.0566274)
(-0.00038555 -0.000385577 -0.0566423)
(-0.000457276 -0.00039079 -0.0566502)
(0.000468767 -0.000468596 -0.0566568)
(0.000391015 -0.000457375 -0.0566503)
(0.000317728 -0.000468006 -0.0566362)
(0.000245694 -0.000462292 -0.0566231)
(0.000174467 -0.000460982 -0.0566159)
(0.000104543 -0.000458594 -0.0566118)
(3.41073e-05 -0.000457078 -0.0566109)
(-3.4252e-05 -0.000457072 -0.0566109)
(-0.000104623 -0.000458526 -0.0566118)
(-0.000174461 -0.000460885 -0.0566159)
(-0.000245583 -0.000462171 -0.0566231)
(-0.00031753 -0.000467891 -0.0566361)
(-0.000390765 -0.000457294 -0.0566502)
(-0.000468513 -0.000468531 -0.0566567)
(0.000535952 0.000536203 -0.0646493)
(0.000447339 0.000523594 -0.0646424)
(0.000363483 0.000535499 -0.0646271)
(0.000281179 0.000529016 -0.0646128)
(0.00019979 0.000527507 -0.064605)
(0.000119846 0.000524814 -0.0646006)
(3.93131e-05 0.000523149 -0.0645997)
(-3.90215e-05 0.000523237 -0.0645997)
(-0.000119643 0.000525073 -0.0646007)
(-0.000199739 0.000527894 -0.0646052)
(-0.0002813 0.000529478 -0.064613)
(-0.000363747 0.000535947 -0.0646274)
(-0.000447649 0.000523954 -0.0646428)
(-0.000536202 0.000536421 -0.0646498)
(0.000523376 0.000447557 -0.0646422)
(0.000441307 0.000441539 -0.0646334)
(0.000362375 0.000449864 -0.0646173)
(0.000283504 0.000445158 -0.0646025)
(0.000203143 0.0004441 -0.0645926)
(0.000122537 0.000442424 -0.0645839)
(4.03558e-05 0.000441584 -0.0645811)
(-3.98556e-05 0.000441677 -0.0645811)
(-0.00012217 0.000442704 -0.0645839)
(-0.000202987 0.000444525 -0.0645928)
(-0.000283593 0.000445684 -0.0646027)
(-0.000362671 0.000450421 -0.0646177)
(-0.000441709 0.000442052 -0.064634)
(-0.000523753 0.000447957 -0.0646428)
(0.000535216 0.000363618 -0.0646267)
(0.000449611 0.000362515 -0.0646171)
(0.00036865 0.000368791 -0.0645963)
(0.000287063 0.000365011 -0.0645831)
(0.000205153 0.000364175 -0.0645733)
(0.000123382 0.000362505 -0.0645658)
(4.06448e-05 0.000361892 -0.0645634)
(-3.99686e-05 0.000361972 -0.0645634)
(-0.000122845 0.000362744 -0.0645658)
(-0.000204854 0.000364553 -0.0645733)
(-0.000287058 0.0003655 -0.0645832)
(-0.000368931 0.000369347 -0.0645966)
(-0.000450084 0.000363071 -0.0646176)
(-0.000535763 0.000364107 -0.0646273)
(0.000528706 0.000281229 -0.0646122)
(0.0004449 0.000283544 -0.0646021)
(0.000364871 0.000287093 -0.0645829)
(0.000284295 0.000284321 -0.0645705)
(0.000203351 0.000283536 -0.0645613)
(0.000122377 0.000282161 -0.0645541)
(4.0384e-05 0.000281706 -0.0645518)
(-3.95929e-05 0.000281754 -0.0645518)
(-0.000121722 0.000282305 -0.0645541)
(-0.000202951 0.00028378 -0.0645613)
(-0.000284216 0.000284667 -0.0645705)
(-0.000365127 0.000287524 -0.0645831)
(-0.000445421 0.000284032 -0.0646025)
(-0.000529398 0.000281677 -0.0646128)
(0.000527161 0.000199774 -0.0646043)
(0.000443827 0.000203112 -0.0645921)
(0.000364025 0.000205117 -0.0645729)
(0.000283507 0.000203312 -0.0645612)
(0.000202811 0.000202771 -0.0645519)
(0.000122024 0.000201753 -0.064545)
(4.02999e-05 0.000201436 -0.0645426)
(-3.94527e-05 0.000201435 -0.0645426)
(-0.000121291 0.000201762 -0.0645448)
(-0.000202311 0.000202819 -0.0645518)
(-0.000283309 0.000203429 -0.0645611)
(-0.000364161 0.00020532 -0.064573)
(-0.000444251 0.000203412 -0.0645924)
(-0.000527795 0.000200093 -0.0646049)
(0.000524471 0.000119805 -0.0645998)
(0.000442152 0.000122484 -0.0645832)
(0.00036235 0.000123329 -0.0645654)
(0.000282124 0.00012232 -0.0645539)
(0.000201787 0.000121965 -0.0645449)
(0.000121374 0.000121317 -0.064538)
(4.00645e-05 0.000121104 -0.0645357)
(-3.9292e-05 0.000121058 -0.0645356)
(-0.00012068 0.0001212 -0.0645378)
(-0.000201277 0.000121822 -0.0645447)
(-0.000281871 0.000122206 -0.0645537)
(-0.000362402 0.000123287 -0.0645653)
(-0.000442496 0.00012255 -0.0645834)
(-0.000525042 0.000119945 -0.0646003)
(0.00052281 3.93358e-05 -0.0645989)
(0.000441318 4.03828e-05 -0.0645805)
(0.000361738 4.06583e-05 -0.064563)
(0.000281665 4.0366e-05 -0.0645516)
(0.000201464 4.02451e-05 -0.0645426)
(0.000121156 3.99829e-05 -0.0645357)
(3.99712e-05 3.98636e-05 -0.0645334)
(-3.92779e-05 3.97642e-05 -0.0645333)
(-0.000120512 3.97188e-05 -0.0645355)
(-0.000200963 3.98741e-05 -0.0645423)
(-0.000281373 3.99626e-05 -0.0645514)
(-0.000361713 4.02978e-05 -0.0645629)
(-0.000441577 4.0119e-05 -0.0645806)
(-0.000523315 3.92048e-05 -0.0645993)
(0.000522941 -3.89882e-05 -0.0645991)
(0.00044142 -3.97809e-05 -0.0645806)
(0.000361807 -3.98715e-05 -0.0645631)
(0.000281689 -3.9491e-05 -0.0645517)
(0.000201437 -3.93593e-05 -0.0645426)
(0.000121087 -3.92078e-05 -0.0645358)
(3.98674e-05 -3.92081e-05 -0.0645334)
(-3.93727e-05 -3.9305e-05 -0.0645334)
(-0.000120599 -3.94749e-05 -0.0645356)
(-0.00020102 -3.97453e-05 -0.0645424)
(-0.000281399 -3.99297e-05 -0.0645514)
(-0.000361709 -4.02855e-05 -0.064563)
(-0.000441555 -4.01064e-05 -0.0645807)
(-0.000523297 -3.91756e-05 -0.0645994)
(0.000524786 -0.000119532 -0.0646002)
(0.000442454 -0.000122053 -0.0645836)
(0.000362568 -0.000122744 -0.0645657)
(0.000282208 -0.000121656 -0.0645542)
(0.000201722 -0.000121274 -0.0645451)
(0.000121193 -0.000120704 -0.0645382)
(3.97922e-05 -0.000120589 -0.0645359)
(-3.95497e-05 -0.000120694 -0.0645358)
(-0.000120911 -0.000120993 -0.064538)
(-0.000201429 -0.000121702 -0.0645449)
(-0.000281946 -0.000122157 -0.0645539)
(-0.00036241 -0.000123242 -0.0645655)
(-0.000442469 -0.00012249 -0.0645836)
(-0.00052501 -0.00011986 -0.0646005)
(0.000527614 -0.000199639 -0.0646049)
(0.000444262 -0.000202901 -0.0645926)
(0.00036434 -0.000204803 -0.0645734)
(0.000283634 -0.000202951 -0.0645616)
(0.000202728 -0.000202372 -0.0645523)
(0.000121775 -0.000201388 -0.0645453)
(3.99255e-05 -0.000201132 -0.0645429)
(-3.98272e-05 -0.000201211 -0.0645429)
(-0.000121613 -0.0002016 -0.0645451)
(-0.000202513 -0.000202693 -0.0645521)
(-0.000283398 -0.000203334 -0.0645614)
(-0.000364152 -0.000205196 -0.0645733)
(-0.000444195 -0.000203254 -0.0645927)
(-0.000527736 -0.000199917 -0.0646051)
(0.000529195 -0.000281224 -0.0646129)
(0.000445393 -0.000283552 -0.0646028)
(0.000365242 -0.000287065 -0.0645835)
(0.000284461 -0.000284285 -0.0645711)
(0.000203277 -0.000283446 -0.0645619)
(0.00012211 -0.000282062 -0.0645546)
(3.99849e-05 -0.000281613 -0.0645522)
(-4.00193e-05 -0.000281662 -0.0645522)
(-0.000122063 -0.000282182 -0.0645544)
(-0.000203153 -0.000283632 -0.0645616)
(-0.000284282 -0.000284509 -0.0645708)
(-0.00036508 -0.000287301 -0.0645834)
(-0.000445328 -0.000283761 -0.0646028)
(-0.000529314 -0.000281397 -0.0646131)
(0.00053564 -0.000363691 -0.0646274)
(0.000450088 -0.000362653 -0.0646179)
(0.000369028 -0.000368968 -0.0645971)
(0.000287248 -0.000365225 -0.0645838)
(0.000205104 -0.000364323 -0.0645739)
(0.000123146 -0.000362613 -0.0645664)
(4.03002e-05 -0.000361949 -0.0645639)
(-4.03729e-05 -0.000361962 -0.0645638)
(-0.000123131 -0.000362626 -0.0645662)
(-0.000204999 -0.000364354 -0.0645737)
(-0.000287067 -0.000365266 -0.0645835)
(-0.000368834 -0.000369016 -0.064597)
(-0.000449956 -0.000362695 -0.0646179)
(-0.000535653 -0.000363727 -0.0646277)
(0.00052366 -0.000447581 -0.0646429)
(0.000441691 -0.000441674 -0.0646343)
(0.000362709 -0.000450087 -0.0646181)
(0.000283698 -0.000445469 -0.0646033)
(0.000203148 -0.00044434 -0.0645934)
(0.000122376 -0.000442613 -0.0645845)
(4.0125e-05 -0.000441693 -0.0645816)
(-4.01771e-05 -0.000441671 -0.0645816)
(-0.000122353 -0.000442545 -0.0645843)
(-0.00020304 -0.000444246 -0.0645931)
(-0.000283522 -0.000445369 -0.064603)
(-0.000362525 -0.000449991 -0.064618)
(-0.000441561 -0.000441597 -0.0646342)
(-0.000523644 -0.000447511 -0.0646431)
(0.000536078 -0.000536073 -0.0646499)
(0.000447595 -0.000523609 -0.0646431)