/*--------------------------------*- C++ -*----------------------------------*\
| =========                 |                                                 |
| \\      /  F ield         | OpenFOAM: The Open Source CFD Toolbox           |
|  \\    /   O peration     | Version:  v2106                                 |
|   \\  /    A nd           | Website:  www.openfoam.com                      |
|    \\/     M anipulation  |                                                 |
\*---------------------------------------------------------------------------*/
FoamFile
{
    version     2.0;
    format      ascii;
    arch        "LSB;label=32;scalar=64";
    class       volScalarField;
    location    "0.000207";
    object      k;
}
// * * * * * * * * * * * * * * * * * * * * * * * * * * * * * * * * * * * * * //

dimensions      [0 2 -2 0 0 0 0];

internalField   nonuniform List<scalar> 
144746
(
6.71192
4.95131
3.90297
3.3898
3.52639
4.1986
5.26494
6.42887
7.38333
8.00927
8.29626
8.77636
9.70183
10.7428
5.11244
3.5326
2.53846
1.92464
1.73952
1.90323
2.41438
3.19287
4.08026
4.85314
5.59414
6.22641
6.96217
8.39024
3.98946
2.69497
1.81442
1.23334
0.977221
0.93861
1.13102
1.54802
2.14153
2.80944
3.46693
4.24284
4.81654
6.33422
3.21776
2.05196
1.31438
0.839774
0.595529
0.504675
0.557616
0.767429
1.13357
1.60856
2.10305
2.52395
3.08905
4.52356
2.50192
1.53173
0.917386
0.550193
0.358764
0.27672
0.282232
0.386461
0.607286
0.932307
1.30609
1.65887
2.08133
3.266
1.87052
1.0618
0.587128
0.328447
0.199964
0.144712
0.141048
0.196108
0.331299
0.553145
0.835211
1.13743
1.50335
2.50567
1.31069
0.66898
0.336581
0.17468
0.100324
0.0700534
0.0688072
0.102238
0.189399
0.344844
0.561613
0.824285
1.18965
2.28651
0.866035
0.390137
0.1758
0.0837929
0.0456359
0.0319109
0.0344822
0.0589265
0.120854
0.23648
0.410494
0.646808
1.04834
2.35843
0.580675
0.23235
0.092944
0.0401508
0.0208936
0.0157327
0.020934
0.04208
0.0920433
0.18641
0.337508
0.572978
1.07277
2.64685
0.472111
0.180417
0.0677384
0.0278806
0.0148557
0.012781
0.0193876
0.0400226
0.0861762
0.173842
0.325023
0.605313
1.29544
3.05993
0.547504
0.231314
0.0937591
0.0416462
0.0244321
0.0213999
0.0286226
0.0509712
0.100281
0.196622
0.37974
0.779677
1.71425
3.51141
0.885725
0.470067
0.233982
0.112796
0.0638639
0.050243
0.0562536
0.0830286
0.14357
0.267108
0.525365
1.12285
2.31005
4.08883
1.53343
0.988323
0.603827
0.337742
0.19024
0.130607
0.123413
0.154777
0.234016
0.39997
0.753002
1.53328
2.89452
4.69442
2.4223
1.74974
1.25037
0.843189
0.540205
0.36186
0.293828
0.309855
0.405136
0.617444
1.04422
1.9507
3.41079
5.12712
6.3277
4.33485
3.22149
2.61023
2.47512
2.64821
3.06143
3.54396
3.98531
4.35386
5.009
6.24103
8.27658
10.3835
4.10797
2.73256
1.93906
1.48056
1.30296
1.32519
1.53387
1.86902
2.27263
2.67771
3.13892
3.93933
5.2974
7.17245
2.61349
1.74999
1.23622
0.901376
0.733928
0.693356
0.778415
0.977351
1.27335
1.62683
2.03485
2.5595
3.38451
4.7966
1.77961
1.19794
0.816854
0.56723
0.429064
0.37469
0.400185
0.508742
0.705375
0.977022
1.30343
1.67601
2.1347
3.17416
1.30038
0.836355
0.537796
0.351123
0.247597
0.201507
0.204502
0.261696
0.386799
0.582383
0.834422
1.12829
1.47642
2.21855
0.969156
0.570598
0.337815
0.204713
0.13469
0.103294
0.1012
0.132365
0.211337
0.348302
0.539508
0.776688
1.07375
1.63455
0.707863
0.370458
0.197075
0.10935
0.0671257
0.0491505
0.0479692
0.0668174
0.118288
0.214929
0.360559
0.556275
0.823596
1.34946
0.509804
0.232731
0.108227
0.0537112
0.030514
0.0217414
0.0225475
0.0360029
0.0722898
0.143906
0.259412
0.427084
0.682198
1.23951
0.388273
0.155339
0.061917
0.0264467
0.0135318
0.00974218
0.0120557
0.0235266
0.0525642
0.110825
0.209931
0.36593
0.633554
1.26362
0.357005
0.133445
0.0478519
0.0179089
0.00833596
0.00641594
0.00960229
0.0208657
0.0478065
0.101934
0.198205
0.363446
0.679556
1.40119
0.421421
0.165307
0.0617053
0.0241056
0.0120582
0.00967325
0.0133254
0.025783
0.0548592
0.113598
0.222644
0.425769
0.822329
1.63243
0.645673
0.295243
0.130416
0.0578872
0.0307284
0.0234426
0.0268515
0.0422268
0.0781951
0.151431
0.292594
0.566868
1.07222
2.0279
1.07725
0.57807
0.30884
0.16054
0.0886572
0.0623745
0.0616248
0.0812553
0.129011
0.225903
0.415751
0.790519
1.50898
2.68708
1.72229
1.02623
0.636675
0.392197
0.241348
0.165777
0.145306
0.165593
0.228311
0.355642
0.601418
1.10384
2.14034
3.56377
5.35519
3.56574
2.54428
1.95609
1.7112
1.66241
1.77141
1.95602
2.21037
2.45461
2.70585
3.14867
4.81604
7.85508
2.79177
1.92012
1.36425
1.03275
0.879778
0.841539
0.899338
1.02011
1.20083
1.40541
1.65338
2.01775
2.90823
4.80777
1.50827
1.03703
0.740002
0.555352
0.460748
0.429659
0.454918
0.526728
0.648282
0.809765
1.0235
1.32425
1.89364
2.98149
0.959415
0.607285
0.417372
0.304752
0.244305
0.220194
0.228458
0.268
0.346748
0.466512
0.636233
0.875184
1.26035
1.9191
0.673353
0.383114
0.243424
0.167973
0.128207
0.110831
0.112066
0.133001
0.182625
0.268374
0.397482
0.583569
0.86485
1.33331
0.496282
0.251748
0.142995
0.0904105
0.0645882
0.053279
0.0526796
0.0639728
0.0949553
0.154712
0.251478
0.396726
0.614379
0.97983
0.378068
0.170069
0.083682
0.0466802
0.0304975
0.0238988
0.0234792
0.030214
0.0501444
0.0919245
0.16474
0.280261
0.459203
0.764172
0.312158
0.124328
0.0513933
0.0239096
0.0136142
0.0100084
0.0101661
0.0149426
0.0289511
0.0597718
0.116866
0.212616
0.368362
0.641534
0.284066
0.102921
0.0362598
0.0135397
0.00622971
0.00419935
0.00482913
0.00894944
0.0203469
0.0457223
0.0945044
0.179991
0.325604
0.58865
0.298715
0.10416
0.0338535
0.0108503
0.00404339
0.00250066
0.00342224
0.00760215
0.0185485
0.0426768
0.0896565
0.173953
0.321695
0.592646
0.349507
0.124717
0.0418961
0.0140119
0.00552413
0.00357749
0.00466139
0.00947009
0.0216664
0.0481176
0.0994522
0.191679
0.353396
0.649464
0.484047
0.18726
0.0713776
0.0281315
0.0131437
0.00899347
0.00996568
0.0161622
0.0316102
0.0642941
0.12659
0.236642
0.425091
0.771003
0.714787
0.308181
0.139089
0.0660717
0.0353999
0.0247622
0.0245636
0.033048
0.0541398
0.0973732
0.178459
0.321621
0.570693
1.00226
1.08365
0.507151
0.263217
0.147041
0.0891988
0.0644242
0.0602297
0.0718554
0.102079
0.162142
0.27316
0.479724
0.890362
1.60413
12.4297
14.8106
16.3471
17.7636
23.2687
53.3884
10.5533
13.842
16.0631
17.1055
21.5797
50.3454
9.05431
13.422
16.2603
16.8007
20.1813
48.3903
7.75017
13.3063
16.6773
16.4961
19.0178
47.2995
6.78322
13.2494
16.8158
16.0942
17.9131
46.9552
6.15488
13.0995
16.413
15.5532
17.0769
47.1753
6.05134
12.3887
15.3747
14.9443
16.7174
47.8413
6.15597
11.3318
13.9712
14.4356
16.8429
48.7896
6.03218
9.93309
12.5464
13.9474
17.0477
50.0495
5.72088
8.567
11.2048
13.4325
17.2337
51.2563
5.44521
7.57451
10.1368
12.9106
17.4933
52.4923
5.44214
7.13479
9.47061
12.442
17.7611
53.7883
5.61902
7.07077
9.22163
12.1635
17.8912
54.0891
5.78678
7.22951
9.33096
12.2624
18.5629
54.8402
12.6705
15.684
17.5918
18.5867
21.7962
46.032
9.20609
12.5816
15.8047
17.618
20.4158
43.3913
6.85344
10.5903
14.8779
17.2888
19.3981
41.5498
5.09108
9.10616
14.3288
17.1665
18.6272
40.306
3.97175
8.0873
13.8947
16.9965
18.014
39.6075
3.23472
7.45478
13.4519
16.5977
17.6897
39.3501
2.90573
6.95937
12.7507
15.8355
17.4642
39.8747
2.84273
6.59004
11.7241
15.0051
17.549
41.1758
2.8464
6.05702
10.5148
14.2425
17.8553
42.8715
2.85794
5.42646
9.33059
13.5307
18.2483
44.5147
2.90905
4.94774
8.40066
12.8539
18.6127
45.8062
3.15111
4.88794
7.95447
12.3118
18.8289
46.581
3.67748
5.27658
8.02443
12.0137
18.8231
46.5944
4.25704
5.89648
8.4361
11.9194
18.7729
46.6504
11.5457
15.8493
18.9544
19.7737
21.6229
36.485
7.35468
10.8257
14.4481
17.1247
20.0671
34.4831
4.73746
7.67281
11.4955
15.2982
19.021
33.0398
3.08557
5.60236
9.43681
14.0944
18.6039
31.9093
2.2231
4.31261
8.07776
13.174
18.0834
31.2625
1.6908
3.50919
7.29852
12.5821
17.5424
31.2079
1.37761
3.00081
6.85172
12.091
16.9608
32.061
1.21279
2.76504
6.47379
11.4782
16.8853
33.7967
1.15439
2.65383
6.01861
10.8727
17.2701
35.8681
1.15794
2.51251
5.46544
10.3302
17.8125
37.5762
1.19784
2.36349
4.97998
9.85586
18.1616
38.4846
1.30438
2.34782
4.76725
9.52173
18.1307
38.5334
1.61565
2.67131
4.99656
9.47748
18.0393
37.9272
2.06487
3.2746
5.64208
9.70825
17.7998
36.6941
5.72794
7.38714
9.71144
12.9999
20.4387
56.7068
3.87265
5.36345
7.81526
11.236
17.9922
51.4855
2.45592
3.81413
6.40232
9.99097
16.154
47.3465
1.52902
2.75229
5.41988
9.14016
14.9174
44.0865
1.08195
2.21796
4.82606
8.49687
13.84
41.8318
0.85657
2.05415
4.64581
8.03032
12.873
40.7364
0.795934
2.08227
4.61583
7.70223
12.3513
40.7521
0.865908
2.21717
4.58486
7.39645
12.2766
42.3302
1.04272
2.35189
4.42649
7.0689
12.6756
45.0038
1.29235
2.43848
4.18275
6.83213
13.6855
48.2041
1.5702
2.50979
4.01352
6.87692
15.1909
51.4792
1.8733
2.68191
4.15897
7.46893
17.1066
54.4409
2.2559
3.11819
4.89634
8.92539
19.9771
57.0869
2.79068
4.00761
6.50788
11.6308
24.5886
59.6997
4.59058
6.37
8.73478
12.0777
18.9921
47.1028
2.77179
4.12306
6.31559
9.73147
16.0978
42.1269
1.56559
2.58389
4.54915
7.99089
14.2748
38.0251
0.945163
1.65557
3.37637
6.72099
12.8145
34.6698
0.639288
1.24939
2.74472
5.78345
11.4999
32.1966
0.472648
1.04702
2.46593
5.25949
10.6053
30.8604
0.398234
0.976604
2.36354
4.94904
10.0871
30.8616
0.39555
0.998291
2.35092
4.77127
10.0208
32.2898
0.457993
1.06956
2.34144
4.69003
10.6608
35.0209
0.579946
1.16261
2.32686
4.79944
12.105
38.5848
0.751284
1.28775
2.41631
5.30152
14.2634
42.3683
0.984527
1.52593
2.81505
6.45415
17.0354
45.9567
1.3482
2.05803
3.84065
8.5349
20.5466
49.118
1.97368
3.17101
5.8838
11.8679
24.9696
51.8832
2.44258
3.922
6.21898
10.04
17.684
34.942
1.43173
2.41358
4.16737
7.40408
13.9904
30.416
0.771338
1.43653
2.75978
5.50324
11.2825
26.6871
0.477368
0.886403
1.85256
4.13965
9.20749
23.7639
0.317836
0.637452
1.3877
3.26201
7.71948
21.6282
0.226057
0.492802
1.1327
2.75801
6.7639
20.4873
0.177399
0.413747
0.998397
2.49062
6.33611
20.5499
0.158986
0.381655
0.945726
2.39589
6.52118
22.0631
0.167363
0.388053
0.95566
2.51345
7.56107
25.1531
0.204173
0.430298
1.03653
2.96345
9.61233
29.5661
0.273124
0.519603
1.26349
3.94695
12.677
34.5471
0.389055
0.70678
1.783
5.66323
16.5075
39.2392
0.617697
1.15297
2.89637
8.2543
20.6266
42.9796
1.15069
2.23994
5.0521
11.8136
24.5545
45.498
57.5602
28.6127
18.5324
13.4525
9.7102
7.38254
56.1332
25.7401
15.5714
10.7116
7.55766
5.8507
55.0126
23.5728
13.7445
8.99935
6.14503
4.68943
54.0139
22.0789
12.7824
8.26248
5.48791
4.00138
52.228
20.7064
12.525
8.22052
5.25896
3.49635
50.4244
20.1263
12.6819
8.34557
5.02001
2.98924
49.1099
20.7006
12.9051
8.2424
4.60194
2.41658
48.774
22.1048
12.9605
7.67316
3.91352
1.82735
49.4197
23.8437
12.8336
6.84725
3.19833
1.36777
50.6408
25.6658
12.6557
6.18701
2.75131
1.1509
52.3618
27.2395
12.8677
6.11815
2.76412
1.2257
54.5764
28.3214
13.363
6.65335
3.28616
1.65785
57.3251
28.907
14.1908
7.64142
4.22062
2.4409
60.9907
30.0025
15.4125
9.02413
5.52624
3.54513
51.1263
32.1554
20.7826
14.5866
9.88597
6.93446
49.8606
29.4464
17.8994
11.3835
7.04044
4.76423
48.551
27.3636
15.9232
9.15337
5.15561
3.2762
47.2559
25.9779
14.5383
7.9256
4.18853
2.4398
45.9
24.7662
13.4982
7.14523
3.63415
1.99025
44.6215
23.8429
12.5935
6.63759
3.28025
1.66304
43.6405
23.3852
11.9471
6.10659
2.90349
1.36412
43.3929
23.5836
11.5281
5.58469
2.53191
1.10378
43.8463
24.3944
11.4015
5.23109
2.26294
0.92872
44.927
25.625
11.6368
5.18175
2.20808
0.891951
46.4682
26.9361
12.2994
5.53845
2.41433
1.0147
48.3438
28.0135
13.3151
6.37359
3.00137
1.39124
50.4441
28.9562
14.492
7.49601
3.89086
2.04107
53.0625
30.2873
16.1421
9.03361
5.15498
3.00486
44.6036
32.9104
23.2179
15.4591
9.5286
5.647
44.1656
31.2573
20.5181
11.8669
6.30191
3.3338
43.3928
29.7455
18.527
9.39324
4.46837
2.24926
42.5421
28.4923
16.4852
7.92855
3.63564
1.711
41.5374
26.9305
14.5697
6.80982
3.01831
1.33806
40.3048
25.1908
12.8271
5.8502
2.52694
1.06554
39.1426
23.5345
11.4049
5.0873
2.14901
0.870431
38.4508
22.4969
10.5875
4.66664
1.94857
0.767455
38.455
22.2811
10.3939
4.58021
1.90254
0.73636
39.1883
22.8471
10.8066
4.83734
2.03274
0.791945
40.4235
23.8969
11.6504
5.34381
2.29272
0.92028
41.9333
24.745
12.8691
6.21858
2.81872
1.21221
43.6134
26.0451
14.2456
7.25201
3.52434
1.66598
45.6098
27.9683
16.1554
8.71932
4.58297
2.3868
51.6244
20.7091
16.4905
15.0939
13.4094
11.5315
50.4133
19.0406
15.5273
13.998
12.1999
10.6134
49.5507
17.9575
14.8194
13.2468
11.3597
9.78147
49.0718
17.3012
14.4388
13.0127
11.1668
9.6031
48.9487
17.0758
14.3752
13.4039
11.9022
10.0611
49.1147
17.127
14.6543
14.4552
13.404
10.7627
49.3958
17.4649
15.4082
16.1358
15.0175
10.9711
49.5577
18.4235
16.8302
17.9399
15.7705
10.1987
49.5842
19.9266
18.5942
18.9886
15.0944
8.74222
49.9623
21.7982
19.9341
18.4751
13.2505
7.27546
50.9944
24.4015
20.5944
17.0168
11.4269
6.39889
52.7428
27.4473
20.6448
15.7663
10.5945
6.46356
55.1626
29.251
21.1965
15.8529
11.0221
7.37039
58.5942
31.4499
22.1072
16.9125
12.5577
9.16324
44.6028
20.598
18.3786
17.2174
14.5189
11.586
43.526
19.8972
18.1427
16.115
12.6763
9.91274
42.7932
19.4092
17.8361
15.1421
11.034
8.03326
42.4245
19.1211
17.7164
14.7613
10.2506
7.13523
42.4103
18.9652
17.8258
15.0803
10.5261
6.73427
42.7007
18.9916
18.1814
16.0283
11.0628
6.62956
43.1051
19.3081
18.8982
16.9884
11.3572
6.42451
43.4571
20.1767
19.8922
17.3676
11.0827
5.92738
43.5481
21.846
20.7062
16.8763
10.2368
5.28495
44.0523
24.2685
20.7012
15.5719
9.22579
4.83138
45.3543
27.0143
20.5919
14.4659
8.64514
4.7775
46.949
29.838
20.7757
14.3458
9.0529
5.44161
48.8597
31.821
21.8376
15.4646
10.4303
6.82718
51.4341
34.5582
23.7844
17.8494
13.1049
9.28364
36.5898
22.108
21.2619
19.1078
13.8287
9.22302
36.7372
22.739
21.6529
16.9376
10.7079
6.74822
36.9344
23.1525
21.7769
15.6304
8.88916
4.89024
37.3266
23.6307
22.0958
15.212
8.03708
4.42147
37.912
24.1525
22.3813
14.8418
8.0203
4.29521
38.5265
24.6124
22.1357
14.5262
7.9212
4.0639
38.8618
24.8291
21.4138
13.9277
7.48094
3.72812
38.9127
25.0777
20.5801
13.1307
6.98012
3.45486
39.0983
25.7936
19.6726
12.3214
6.56634
3.27278
39.6341
26.8898
19.0783
11.8754
6.50597
3.34109
40.3433
28.408
19.3562
12.1218
6.91641
3.71154
41.2339
29.9797
20.5177
13.3756
8.14246
4.67259
42.2786
31.3711
22.4697
15.5232
10.1551
6.3298
43.9397
34.3007
25.5436
18.9317
13.454
9.05819
3.24007
2.16076
1.48523
1.11651
0.959606
0.908267
0.93149
1.00056
1.13182
1.30967
1.51591
1.7115
1.9425
2.70828
1.53439
0.989101
0.675308
0.505864
0.435025
0.416758
0.434555
0.475792
0.549135
0.6535
0.787577
0.938503
1.14593
1.68835
0.852458
0.472411
0.304814
0.225819
0.194919
0.188864
0.199538
0.222139
0.261748
0.321448
0.405666
0.515511
0.686663
1.07078
0.546258
0.250494
0.142728
0.101061
0.0865814
0.0844722
0.0900184
0.10149
0.122061
0.155696
0.208866
0.289011
0.425228
0.706701
0.372513
0.146511
0.0708129
0.045603
0.0378982
0.0369199
0.0395304
0.0450863
0.0556864
0.0750493
0.109721
0.169441
0.277028
0.489353
0.267826
0.0942345
0.0380482
0.0209223
0.0161857
0.0155325
0.0166849
0.0193861
0.0250948
0.0369401
0.0607917
0.106381
0.192275
0.357297
0.205618
0.0671332
0.0229181
0.0100727
0.0067471
0.00621561
0.00672009
0.00815117
0.0115925
0.0195997
0.037198
0.0731929
0.143007
0.275688
0.175827
0.0546802
0.01635
0.00553528
0.00285021
0.00237675
0.00262438
0.00354492
0.00602349
0.0122136
0.0264238
0.0564059
0.115379
0.226868
0.164498
0.0497696
0.0137945
0.00380784
0.0013767
0.000928565
0.00109434
0.00186357
0.00405197
0.00961696
0.0224294
0.0494313
0.102424
0.201679
0.17316
0.0519693
0.0140497
0.00353912
0.000982298
0.000503179
0.000667641
0.00148332
0.00379591
0.00955506
0.0224769
0.0490423
0.100303
0.194732
0.191478
0.057298
0.0156682
0.00408844
0.00120897
0.000652441
0.000864266
0.0018732
0.00462731
0.0112238
0.0254964
0.0538855
0.107278
0.203312
0.24679
0.0748601
0.0215229
0.00643915
0.00251004
0.00168232
0.00197152
0.00337274
0.00697839
0.0151512
0.032062
0.0644562
0.123355
0.226244
0.331332
0.103801
0.0332317
0.0124475
0.00649168
0.00502423
0.00541331
0.00755705
0.0126894
0.0235282
0.0448074
0.0839797
0.152425
0.268233
0.499157
0.166825
0.0621595
0.0286187
0.0176647
0.0145223
0.0150256
0.0187391
0.0270276
0.0431442
0.0727295
0.124719
0.211984
0.351483
1.71419
1.14435
0.818516
0.641045
0.574728
0.566971
0.60494
0.673413
0.778612
0.915931
1.07965
1.25764
1.45606
1.84543
0.853609
0.523931
0.360884
0.278965
0.249563
0.248845
0.269867
0.307671
0.365732
0.445388
0.548161
0.6707
0.826302
1.11161
0.501481
0.256945
0.16154
0.121118
0.107652
0.108089
0.118522
0.137635
0.167795
0.211894
0.273711
0.355544
0.472666
0.686099
0.328765
0.13939
0.0755008
0.0529603
0.0461716
0.0464178
0.0511976
0.0602223
0.0751264
0.0987901
0.135499
0.190531
0.278442
0.440886
0.227333
0.0828447
0.0373744
0.0233342
0.0195171
0.0195128
0.021601
0.0257031
0.0329355
0.0456747
0.0679739
0.106088
0.17302
0.298814
0.164933
0.0538884
0.0201037
0.0104855
0.00806898
0.00792649
0.00880876
0.0106708
0.014286
0.0214967
0.0358185
0.0633268
0.115334
0.214844
0.126178
0.0384725
0.0121822
0.00500536
0.00327966
0.00308172
0.00344944
0.00434944
0.00634589
0.0108741
0.0208739
0.0417691
0.0832907
0.163871
0.103604
0.0304679
0.00863132
0.00276049
0.0013694
0.00115445
0.00131661
0.00183299
0.00315839
0.0064741
0.0142736
0.0313108
0.0660455
0.133845
0.0916086
0.0266744
0.00718138
0.00192305
0.000669649
0.000447848
0.00053889
0.000932874
0.00204984
0.00495868
0.0119044
0.0271675
0.058348
0.118834
0.089586
0.0263636
0.00706711
0.00177098
0.000486368
0.000247285
0.000329465
0.000736466
0.00191295
0.0049386
0.0120026
0.027171
0.0576224
0.115648
0.0921977
0.0275966
0.00763515
0.00202042
0.000609256
0.000338696
0.000450266
0.000968761
0.00241176
0.00597571
0.0139784
0.0305706
0.0629642
0.123083
0.108874
0.0333682
0.00986074
0.003078
0.00127794
0.000912147
0.00109471
0.00186591
0.00385657
0.00847192
0.0183202
0.0379029
0.0747821
0.141037
0.134293
0.0432359
0.0147071
0.00600622
0.00341581
0.00281049
0.00313182
0.00442677
0.00746309
0.0139333
0.0268853
0.0514596
0.0958054
0.172669
0.189627
0.0673374
0.0276717
0.0142401
0.00958081
0.0083064
0.00890898
0.0113631
0.0165757
0.0265958
0.0449957
0.0778455
0.13388
0.226244
0.760158
0.523288
0.395875
0.33049
0.315537
0.332866
0.378895
0.446917
0.535662
0.642743
0.768212
0.916053
1.09386
1.38319
0.398711
0.248135
0.17886
0.144978
0.135477
0.142142
0.163204
0.197383
0.245196
0.307355
0.385927
0.484315
0.612457
0.817241
0.239651
0.125702
0.0823224
0.0637894
0.0580596
0.0602443
0.0692047
0.0850193
0.108859
0.142548
0.188971
0.252238
0.342675
0.490586
0.159141
0.0690831
0.0388627
0.0279228
0.0245804
0.0251787
0.0288243
0.035729
0.0469568
0.0644075
0.0910836
0.1316
0.195593
0.304732
0.112988
0.0414217
0.0191175
0.0121182
0.0101511
0.0102552
0.0117105
0.0146326
0.0197819
0.0287308
0.044199
0.0707188
0.116856
0.199607
0.0837839
0.0269999
0.0100843
0.00528648
0.00406212
0.00402157
0.0045977
0.00583589
0.0082452
0.0130091
0.0223984
0.0404862
0.0747113
0.139172
0.0640787
0.0190239
0.00592954
0.00242394
0.00158746
0.00150662
0.00173562
0.00229068
0.00352129
0.00630759
0.0124836
0.0255481
0.0519018
0.10346
0.051079
0.0146035
0.00405026
0.00127941
0.00063511
0.000543995
0.00064047
0.000932311
0.00168357
0.00358599
0.00815206
0.0183863
0.0398597
0.0828213
0.043129
0.0123359
0.00327038
0.000863327
0.000299388
0.000204743
0.000256045
0.00046218
0.00105558
0.00264301
0.00656422
0.01551
0.0345066
0.0726624
0.0398444
0.0117752
0.00315734
0.00078751
0.000217587
0.000116043
0.000161331
0.0003686
0.000980361
0.00260666
0.00655835
0.0154224
0.0340035
0.0708416
0.0394789
0.0122341
0.00345379
0.000927495
0.000294351
0.000181193
0.000247432
0.000521597
0.00129225
0.00325251
0.00782779
0.0177347
0.0379196
0.0768945
0.0436123
0.0143919
0.00450323
0.00148914
0.000677857
0.000533317
0.000661732
0.00110898
0.00224514
0.00492511
0.0108288
0.0230327
0.0469364
0.091439
0.0513756
0.0186978
0.0070374
0.00313292
0.00193091
0.00170353
0.00198258
0.00283186
0.00473419
0.00878617
0.0170626
0.0332535
0.0635031
0.117515
0.067983
0.028892
0.0136659
0.00771714
0.00554365
0.00509238
0.00573707
0.00753613
0.0111031
0.0178404
0.0302952
0.0529506
0.092799
0.160551
0.389739
0.279389
0.216087
0.184606
0.180338
0.198641
0.238304
0.295762
0.369382
0.457321
0.560211
0.684493
0.838499
1.06844
0.206834
0.13652
0.10097
0.0824356
0.0769273
0.0823298
0.0984822
0.125226
0.163154
0.212996
0.276604
0.358263
0.465693
0.62829
0.122714
0.0691279
0.0470874
0.036557
0.0326899
0.0339088
0.0400646
0.0515979
0.0696409
0.095805
0.132477
0.183743
0.257112
0.372078
0.0803331
0.0370002
0.0219276
0.0158498
0.0136014
0.0137306
0.0159919
0.0207142
0.0288305
0.0419046
0.0623245
0.0939831
0.14388
0.22628
0.0564965
0.0213148
0.0103631
0.00668011
0.00545436
0.0053874
0.0062156
0.00810567
0.0116682
0.0181096
0.0294922
0.0493099
0.0837209
0.144473
0.0412371
0.0132821
0.00514502
0.00277476
0.00209469
0.00202385
0.00233248
0.00309675
0.00469213
0.00796821
0.0145608
0.0274346
0.051902
0.0979345
0.0307391
0.00896344
0.00282822
0.00119104
0.000778158
0.000724417
0.000843791
0.00117281
0.00194887
0.0037649
0.00787701
0.0167254
0.0348399
0.0707134
0.0237118
0.00665002
0.00183415
0.000587383
0.000294439
0.000250477
0.000301042
0.000466471
0.000912386
0.00207712
0.00494959
0.0115565
0.0257948
0.0550023
0.0195377
0.00555407
0.00146026
0.000383153
0.000133133
9.19072e-05
0.000119347
0.000230203
0.000560661
0.00147639
0.00382248
0.00937632
0.0216292
0.0471715
0.0180671
0.00539738
0.00144209
0.000356165
9.97242e-05
5.66202e-05
8.1721e-05
0.000190267
0.000519405
0.00142819
0.00373287
0.00914073
0.021015
0.0456592
0.0186647
0.00591006
0.00167113
0.000451571
0.000154315
0.000107726
0.000148599
0.000298687
0.000722987
0.00183546
0.00454048
0.0106762
0.0238023
0.0503936
0.0215557
0.00733543
0.0023266
0.000795814
0.000399168
0.000347548
0.000441685
0.000715801
0.00139319
0.0030115
0.00669251
0.0146238
0.0308876
0.0625153
0.0267734
0.0101775
0.00393674
0.00182185
0.00120243
0.00114102
0.00138301
0.00198025
0.00325003
0.00593576
0.0115232
0.0227917
0.0446641
0.0850713
0.036578
0.0165487
0.00807504
0.00468468
0.00352363
0.00343679
0.00406478
0.00547463
0.00811099
0.0129999
0.0220914
0.038926
0.0694581
0.122697
0.257922
0.189702
0.14573
0.12177
0.115133
0.125011
0.151514
0.194112
0.253081
0.327192
0.416106
0.523732
0.656945
0.846727
0.136944
0.0949606
0.0705094
0.0561473
0.0500357
0.0516392
0.0611792
0.0794791
0.108084
0.14826
0.201293
0.270386
0.362005
0.496508
0.0784993
0.0475191
0.0331839
0.0252442
0.0214242
0.0211118
0.0243239
0.0317159
0.0446423
0.0648576
0.0944315
0.136679
0.19786
0.291981
0.0484635
0.0242149
0.0151636
0.0108857
0.00885453
0.00840936
0.00945427
0.0123345
0.0179178
0.0276508
0.0436066
0.0690157
0.10952
0.176025
0.0317623
0.0128546
0.00680935
0.0044751
0.00348028
0.00321471
0.00356091
0.00467728
0.00706226
0.0117172
0.0203479
0.0358119
0.0630227
0.111206
0.0216395
0.00727242
0.00310379
0.00177196
0.00129441
0.00116761
0.00129057
0.00173617
0.00278835
0.00510154
0.0099588
0.0197128
0.0385653
0.074379
0.0152593
0.00450707
0.00153103
0.000703046
0.000459088
0.000401613
0.000450663
0.000643215
0.00114951
0.0024018
0.00534014
0.0118357
0.0254156
0.0527485
0.0114737
0.00320492
0.000909624
0.0003125
0.000162597
0.000132802
0.000155889
0.000253088
0.000537042
0.00131174
0.0032862
0.0079637
0.0183215
0.0400897
0.00967044
0.00273535
0.000714811
0.000190045
6.83173e-05
4.70496e-05
6.13156e-05
0.000125267
0.000326187
0.000905695
0.00244711
0.00623279
0.0148878
0.0335485
0.00953952
0.00283669
0.000741421
0.000179937
5.21083e-05
3.19889e-05
4.66006e-05
0.000108149
0.000300717
0.000854158
0.00232004
0.00591584
0.0141623
0.0320019
0.0107023
0.00335545
0.000924515
0.000248715
9.34955e-05
7.41426e-05
0.000101756
0.00019156
0.000444872
0.00112844
0.00285939
0.0069665
0.0161609
0.0356204
0.0132063
0.00442853
0.00137883
0.000483131
0.000269232
0.000257375
0.000331919
0.00051707
0.00095691
0.00201468
0.00449058
0.0100318
0.0218691
0.0458214
0.0172897
0.0064846
0.00248612
0.00118574
0.000845191
0.000861171
0.00107667
0.001533
0.00245244
0.00437475
0.00842915
0.0168229
0.0336534
0.0657235
0.0245442
0.0110444
0.00535276
0.00316442
0.00251319
0.00260536
0.00320449
0.00437662
0.0064629
0.0102665
0.017357
0.0306787
0.0554456
0.0996468
0.204632
0.152628
0.115672
0.0927431
0.0818962
0.0829334
0.096739
0.124739
0.168831
0.229092
0.304965
0.399135
0.517662
0.683233
0.10643
0.0766532
0.0568344
0.0437844
0.0365575
0.0348427
0.0389107
0.0499532
0.0700184
0.101097
0.144687
0.203373
0.283208
0.399565
0.0574241
0.0374328
0.0266649
0.0198067
0.0158128
0.0143404
0.0153909
0.0195743
0.0282207
0.0432245
0.0667641
0.101754
0.153902
0.234533
0.0323571
0.0180205
0.0119219
0.00847793
0.00651224
0.0056819
0.00591655
0.00748489
0.0111178
0.0181412
0.030521
0.0511754
0.0851029
0.141724
0.0190348
0.00872829
0.00511702
0.00341825
0.00252553
0.00213882
0.00218868
0.00279175
0.00433563
0.00765798
0.0142544
0.0266603
0.0492077
0.0899887
0.0116882
0.0043916
0.00215791
0.00130584
0.000918998
0.000759384
0.000775369
0.00102263
0.00171467
0.00337272
0.00706551
0.0148185
0.0302988
0.0603793
0.0076653
0.00243849
0.0009525
0.000486534
0.000315552
0.000254005
0.00026449
0.000377408
0.000719436
0.0016254
0.00385312
0.00896893
0.019999
0.0427212
0.00569969
0.00164782
0.000507548
0.000195446
0.000106068
8.13133e-05
8.99232e-05
0.000150336
0.000345271
0.000904605
0.00238498
0.00601292
0.014293
0.0321342
0.0051154
0.00145478
0.000384872
0.000107247
4.11738e-05
2.80937e-05
3.57604e-05
7.65644e-05
0.000212688
0.000621525
0.00174908
0.00461705
0.0113929
0.0264323
0.0055738
0.00162443
0.000413193
9.97447e-05
3.11022e-05
2.11401e-05
3.0745e-05
7.01795e-05
0.000197334
0.000576573
0.00162126
0.00428619
0.0106289
0.02482
0.006834
0.00205989
0.000545786
0.000147958
6.34952e-05
5.71053e-05
7.82212e-05
0.000139123
0.000309325
0.000779626
0.00201332
0.00505486
0.0121246
0.0276222
0.00896275
0.00287401
0.000868335
0.000316924
0.000200152
0.000208179
0.000271887
0.000411188
0.000728627
0.00149301
0.00332343
0.00754875
0.016882
0.036388
0.0122809
0.00443278
0.00167311
0.000835417
0.000650859
0.00070658
0.000903711
0.001279
0.0020007
0.00349012
0.00666195
0.0133713
0.0271995
0.0542583
0.01808
0.00794079
0.00380771
0.00232141
0.00196413
0.00215015
0.0027199
0.00373879
0.00548258
0.00861398
0.0144576
0.0255869
0.0467512
0.0853515
0.174492
0.131746
0.0991716
0.0772372
0.064359
0.0604413
0.0660264
0.0829995
0.114183
0.16145
0.225248
0.307595
0.414574
0.563601
0.0883262
0.0656905
0.0488154
0.0368791
0.0293397
0.0259837
0.0269043
0.0331192
0.0466545
0.0700273
0.10545
0.155461
0.225965
0.32947
0.0450476
0.0313776
0.0227361
0.0166874
0.01278
0.0108024
0.010712
0.0129427
0.0186166
0.0295939
0.0482468
0.0775325
0.122831
0.194193
0.0233197
0.0144812
0.0100028
0.0070943
0.00525093
0.00427822
0.00411336
0.00492972
0.00730144
0.0123934
0.0220868
0.0392286
0.0685287
0.118737
0.0123143
0.00654016
0.0041699
0.00282492
0.00202075
0.00159853
0.00151063
0.00183111
0.00285877
0.00529459
0.0104807
0.0207937
0.0403051
0.0766353
0.00675862
0.00297518
0.0016686
0.0010558
0.000726402
0.000560903
0.000529611
0.000670757
0.00115075
0.00239933
0.00534776
0.0118428
0.0252979
0.0521831
0.00409063
0.0014735
0.000674051
0.000377328
0.000244808
0.000184923
0.000178965
0.00025039
0.000499774
0.00120306
0.00301282
0.00733349
0.0169524
0.0372748
0.00302142
0.000922698
0.000317846
0.00013901
7.93176e-05
5.81505e-05
6.06827e-05
0.000102605
0.000250252
0.00069299
0.00190664
0.00497749
0.0121868
0.0280822
0.00289827
0.000818762
0.000220502
6.64345e-05
2.83565e-05
1.97145e-05
2.45974e-05
5.42982e-05
0.000158335
0.000481497
0.0014009
0.00380963
0.00965641
0.0229267
0.0034365
0.000958909
0.000234835
5.72708e-05
2.0334e-05
1.57774e-05
2.31668e-05
5.22117e-05
0.000148152
0.000443073
0.00128171
0.00348775
0.00888733
0.021257
0.00450268
0.00127714
0.000322965
9.05296e-05
4.63236e-05
4.68946e-05
6.46828e-05
0.000111321
0.000240741
0.000605551
0.00159032
0.00409184
0.0100724
0.0235098
0.00619831
0.00186999
0.000550066
0.000216867
0.000158167
0.000176771
0.000233626
0.000347647
0.000599689
0.00120814
0.00269393
0.00621232
0.0141906
0.0312709
0.00885512
0.00305123
0.00114886
0.000619558
0.000531948
0.000608414
0.000790601
0.00111453
0.00171722
0.00295113
0.00560767
0.0113424
0.0234466
0.0476546
0.0136222
0.00583021
0.00280161
0.00180105
0.00163245
0.0018681
0.00240657
0.00331564
0.00482878
0.00751959
0.0125657
0.0223255
0.0412969
0.0766065
0.154076
0.117717
0.0886619
0.0680783
0.0547017
0.0483736
0.0492927
0.0591039
0.0807224
0.11721
0.170489
0.242633
0.340439
0.478247
0.0757781
0.0577947
0.0431594
0.0323459
0.0250311
0.0210549
0.0203924
0.0237649
0.0329083
0.0504716
0.0792796
0.122236
0.185413
0.279732
0.0368174
0.0269893
0.0198082
0.0144847
0.01085
0.00876396
0.00816724
0.00932895
0.0131366
0.0212883
0.0362234
0.0610927
0.101215
0.166034
0.017768
0.0120508
0.00856277
0.00608026
0.00441658
0.00345076
0.0031317
0.00355794
0.00517343
0.00897768
0.0167358
0.0312717
0.0572147
0.103097
0.00856424
0.00517916
0.00348742
0.002387
0.00168147
0.0012778
0.00114351
0.00132202
0.0020476
0.00391148
0.00812565
0.0169518
0.0343612
0.067844
0.00425211
0.00219183
0.00134749
0.000876508
0.000597485
0.000443839
0.000398073
0.000486208
0.000842914
0.00183282
0.00428807
0.00993365
0.0220629
0.0470268
0.0023834
0.000985768
0.000511894
0.000304434
0.000198554
0.000144847
0.000133883
0.000184171
0.000379701
0.00095802
0.00250378
0.00632159
0.0150825
0.0340738
0.00174152
0.000563221
0.000216648
0.000105322
6.27223e-05
4.50521e-05
4.55126e-05
7.77587e-05
0.000198405
0.000572609
0.00162912
0.00437649
0.0109926
0.0259056
0.00175432
0.00048271
0.000132537
4.39783e-05
2.10224e-05
1.51058e-05
1.88305e-05
4.27089e-05
0.000129324
0.000405629
0.00121213
0.00337683
0.00875199
0.0211924
0.00219685
0.000571001
0.000133129
3.36415e-05
1.42674e-05
1.26122e-05
1.88549e-05
4.24766e-05
0.000122129
0.000373158
0.00110554
0.00307933
0.00801912
0.0195512
0.00299727
0.000778304
0.000186229
5.64209e-05
3.57143e-05
3.98782e-05
5.5519e-05
9.42128e-05
0.000201658
0.000510473
0.00136494
0.00358954
0.00902891
0.0214867
0.00427513
0.00118732
0.000342875
0.000153411
0.000130271
0.000154086
0.000205556
0.000303608
0.000516814
0.00103557
0.00232772
0.00545894
0.0127191
0.0285653
0.00638152
0.00207884