/*--------------------------------*- C++ -*----------------------------------*\
| =========                 |                                                 |
| \\      /  F ield         | OpenFOAM: The Open Source CFD Toolbox           |
|  \\    /   O peration     | Version:  v2106                                 |
|   \\  /    A nd           | Website:  www.openfoam.com                      |
|    \\/     M anipulation  |                                                 |
\*---------------------------------------------------------------------------*/
FoamFile
{
    version     2.0;
    format      ascii;
    arch        "LSB;label=32;scalar=64";
    class       volScalarField;
    location    "0.000207";
    object      T;
}
// * * * * * * * * * * * * * * * * * * * * * * * * * * * * * * * * * * * * * //

dimensions      [0 0 0 1 0 0 0];

internalField   nonuniform List<scalar> 
144746
(
288.755
288.736
288.709
288.779
288.819
288.869
288.874
288.847
288.725
288.558
288.353
288.154
287.954
288.031
288.825
288.939
288.981
289.087
289.147
289.192
289.208
289.202
289.126
288.992
288.796
288.544
288.277
288.244
288.989
289.115
289.204
289.334
289.418
289.477
289.509
289.514
289.473
289.363
289.188
288.946
288.622
288.359
289.123
289.28
289.414
289.563
289.66
289.726
289.767
289.78
289.763
289.688
289.541
289.323
289
288.632
289.275
289.478
289.627
289.76
289.845
289.91
289.955
289.978
289.976
289.932
289.813
289.602
289.303
288.928
289.42
289.67
289.82
289.92
289.969
290.02
290.066
290.103
290.119
290.093
289.996
289.798
289.507
289.14
289.563
289.825
289.957
290.013
290.039
290.066
290.107
290.154
290.183
290.173
290.095
289.908
289.615
289.237
289.668
289.917
290.028
290.059
290.073
290.089
290.12
290.166
290.2
290.2
290.132
289.957
289.662
289.266
289.714
289.953
290.049
290.073
290.086
290.105
290.134
290.167
290.192
290.192
290.127
289.956
289.666
289.277
289.694
289.942
290.043
290.078
290.101
290.127
290.157
290.178
290.187
290.171
290.098
289.928
289.641
289.24
289.622
289.895
290.013
290.069
290.107
290.143
290.174
290.188
290.179
290.133
290.028
289.833
289.543
289.139
289.482
289.76
289.93
290.021
290.084
290.13
290.162
290.171
290.148
290.068
289.914
289.674
289.355
288.955
289.348
289.582
289.769
289.894
289.986
290.048
290.079
290.084
290.049
289.936
289.73
289.428
289.086
288.741
289.225
289.329
289.514
289.664
289.775
289.843
289.878
289.881
289.832
289.694
289.468
289.196
288.994
288.753
288.896
289.022
288.981
289.037
289.086
289.129
289.138
289.104
289
288.847
288.642
288.445
288.287
288.407
288.995
289.187
289.281
289.383
289.447
289.488
289.5
289.472
289.4
289.295
289.133
288.948
288.747
288.753
289.176
289.396
289.526
289.669
289.75
289.78
289.785
289.762
289.716
289.632
289.502
289.335
289.102
288.906
289.358
289.614
289.788
289.925
289.989
290.006
290.006
289.983
289.944
289.895
289.808
289.672
289.456
289.184
289.574
289.876
290.053
290.146
290.172
290.163
290.139
290.116
290.103
290.068
290.024
289.933
289.762
289.498
289.821
290.118
290.263
290.314
290.315
290.289
290.254
290.221
290.198
290.185
290.165
290.113
289.987
289.744
290.045
290.308
290.405
290.424
290.409
290.374
290.334
290.302
290.283
290.272
290.257
290.223
290.112
289.888
290.21
290.444
290.503
290.505
290.483
290.449
290.416
290.39
290.37
290.354
290.327
290.283
290.168
289.923
290.305
290.525
290.575
290.57
290.548
290.521
290.499
290.485
290.471
290.451
290.411
290.342
290.186
289.922
290.348
290.569
290.635
290.641
290.629
290.615
290.605
290.6
290.59
290.567
290.509
290.404
290.212
289.903
290.354
290.575
290.668
290.7
290.71
290.717
290.723
290.726
290.717
290.685
290.614
290.463
290.231
289.901
290.317
290.554
290.677
290.738
290.778
290.808
290.828
290.834
290.823
290.774
290.679
290.497
290.241
289.909
290.262
290.47
290.626
290.724
290.795
290.844
290.875
290.887
290.875
290.812
290.673
290.453
290.2
289.901
290.166
290.312
290.507
290.648
290.75
290.806
290.847
290.862
290.851
290.781
290.619
290.397
290.226
289.989
288.602
288.918
288.995
289.063
289.107
289.133
289.124
289.059
288.931
288.774
288.626
288.52
288.436
288.626
288.953
289.287
289.497
289.614
289.655
289.664
289.641
289.575
289.469
289.346
289.259
289.194
289.133
289.234
289.451
289.788
289.982
290.078
290.094
290.087
290.053
289.987
289.903
289.827
289.751
289.665
289.581
289.614
289.899
290.223
290.389
290.45
290.446
290.42
290.377
290.319
290.258
290.199
290.164
290.113
290.041
290.02
290.291
290.578
290.707
290.733
290.712
290.669
290.618
290.571
290.534
290.509
290.494
290.484
290.443
290.394
290.625
290.859
290.949
290.951
290.922
290.869
290.814
290.775
290.757
290.755
290.765
290.777
290.768
290.722
290.897
291.076
291.132
291.121
291.086
291.033
290.987
290.957
290.947
290.961
290.986
291.014
291.027
290.983
291.147
291.285
291.314
291.294
291.251
291.199
291.162
291.142
291.137
291.156
291.183
291.211
291.224
291.164
291.351
291.47
291.489
291.469
291.424
291.379
291.35
291.34
291.342
291.36
291.38
291.398
291.387
291.292
291.538
291.658
291.677
291.662
291.623
291.586
291.566
291.564
291.57
291.586
291.591
291.587
291.539
291.398
291.69
291.831
291.866
291.867
291.844
291.821
291.81
291.813
291.82
291.832
291.826
291.792
291.696
291.516
291.811
291.958
292.035
292.066
292.074
292.078
292.079
292.086
292.09
292.091
292.066
291.997
291.865
291.663
291.905
292.039
292.131
292.201
292.249
292.29
292.317
292.34
292.347
292.333
292.275
292.164
292.045
291.816
291.917
292.079
292.206
292.313
292.393
292.456
292.505
292.542
292.547
292.517
292.415
292.294
292.191
291.977
288.185
288.002
287.384
286.937
286.506
286.999
287.604
287.367
286.864
286.726
286.447
286.848
287.872
287.551
287.081
286.941
286.681
287.079
288.149
287.747
287.312
287.204
286.965
287.253
288.448
288.013
287.622
287.572
287.338
287.719
288.661
288.209
287.828
287.801
287.565
288.03
288.763
288.322
287.965
287.971
287.723
288.236
288.793
288.358
288.016
288.023
287.754
288.268
288.791
288.345
287.98
287.946
287.655
288.145
288.747
288.273
287.843
287.736
287.422
287.894
288.643
288.153
287.635
287.436
287.099
287.803
288.478
287.955
287.386
287.151
286.836
287.192
288.399
287.971
287.353
286.935
286.588
286.87
288.031
287.683
287.092
286.749
286.436
286.557
288.573
288.313
287.625
287.036
286.502
287.006
288.121
287.724
287.067
286.807
286.463
286.884
288.416
287.975
287.32
287.084
286.69
287.268
288.745
288.268
287.639
287.35
286.971
287.275
289.094
288.63
288.053
287.763
287.388
287.737
289.34
288.873
288.345
288.096
287.788
288.143
289.467
289.005
288.518
288.333
288.07
288.512
289.51
289.051
288.606
288.45
288.216
288.677
289.51
289.066
288.655
288.502
288.279
288.69
289.497
289.069
288.65
288.45
288.21
288.63
289.502
289.106
288.675
288.426
288.106
288.322
289.548
289.136
288.62
288.273
287.922
287.992
289.634
289.237
288.687
288.18
287.775
287.939
289.411
289.047
288.463
287.972
287.621
287.696
288.949
288.545
287.835
286.941
286.158
286.307
288.768
288.331
287.521
286.91
286.371
286.566
289.186
288.676
287.916
287.454
286.953
287.498
289.664
289.176
288.513
288.1
287.66
287.972
290.115
289.707
289.142
288.733
288.294
288.604
290.497
290.132
289.618
289.23
288.819
289.125
290.784
290.429
289.948
289.612
289.259
289.503
290.963
290.602
290.13
289.835
289.531
289.664
291.073
290.706
290.234
289.943
289.658
289.724
291.154
290.793
290.326
289.987
289.681
289.651
291.259
290.932
290.484
290.072
289.68
289.537
291.425
291.123
290.682
290.196
289.742
289.511
291.67
291.347
290.922
290.394
289.924
289.667
291.7
291.421
290.943
290.443
289.949
289.699
288.721
288.425
287.616
287.036
286.627
286.703
288.336
287.972
287.14
286.686
286.262
286.432
288.61
288.075
287.175
286.682
286.115
286.772
288.912
288.224
287.283
286.719
286.231
286.574
289.198
288.478
287.54
286.911
286.479
286.579
289.374
288.692
287.807
287.163
286.732
286.777
289.456
288.837
288.051
287.493
287.078
287.203
289.483
288.928
288.258
287.813
287.488
287.636
289.469
288.985
288.451
288.13
287.897
288.084
289.433
289.014
288.592
288.334
288.164
288.357
289.364
289.007
288.656
288.42
288.289
288.505
289.264
288.943
288.614
288.385
288.267
288.458
289.147
288.844
288.5
288.278
288.164
288.38
288.781
288.467
288.118
287.975
287.855
288.039
290.088
289.854
289.159
288.545
288.047
288.013
289.835
289.55
288.834
288.335
287.864
287.854
290.038
289.66
288.922
288.408
287.934
288.066
290.315
289.887
289.137
288.513
288.035
287.989
290.543
290.114
289.392
288.698
288.184
288.095
290.664
290.262
289.599
288.904
288.351
288.111
290.689
290.323
289.743
289.108
288.603
288.421
290.676
290.34
289.846
289.298
288.899
288.769
290.638
290.328
289.908
289.468
289.269
289.271
290.582
290.291
289.934
289.613
289.559
289.589
290.498
290.217
289.917
289.686
289.66
289.709
290.383
290.097
289.817
289.567
289.486
289.484
290.211
289.887
289.57
289.265
289.127
289.098
289.788
289.397
289.041
288.708
288.54
288.444
292.216
292.133
291.76
291.227
290.627
290.337
292.12
292.029
291.66
291.222
290.736
290.511
292.273
292.185
291.842
291.422
290.941
290.662
292.452
292.406
292.103
291.655
291.157
290.83
292.585
292.569
292.314
291.862
291.353
290.935
292.62
292.612
292.402
291.984
291.489
290.992
292.602
292.588
292.406
292.033
291.557
290.967
292.536
292.512
292.364
292.03
291.573
290.919
292.461
292.441
292.311
291.98
291.564
290.755
292.386
292.357
292.215
291.889
291.471
290.463
292.313
292.264
292.114
291.731
291.201
289.978
292.218
292.105
291.929
291.309
290.531
289.078
292.139
291.86
291.562
290.615
289.524
288.043
291.776
291.294
290.758
289.614
288.402
286.965
288.494
288.09
288.176
288.069
288.149
288.36
288.93
288.45
288.597
288.639
288.78
288.947
289.105
288.653
288.808
288.803
288.915
289.059
289.454
288.854
288.97
288.918
288.995
289.106
289.531
288.881
288.991
288.921
288.983
289.121
289.305
288.844
288.908
288.83
288.917
289.148
288.829
288.428
288.525
288.538
288.794
289.185
288.163
287.823
287.998
288.198
288.698
289.215
287.468
287.214
287.474
287.876
288.593
289.212
287.154
286.883
287.19
287.675
288.501
289.173
286.962
286.709
287.057
287.557
288.421
289.081
287.199
286.929
287.243
287.648
288.449
288.964
287.502
287.237
287.543
287.85
288.518
288.845
288.219
287.908
288.18
288.48
288.909
289.123
287.453
287.265
287.461
287.668
288.022
288.472
288.152
287.908
288.189
288.489
288.793
289.124
288.693
288.445
288.714
288.877
289.003
289.238
289.385
289.008
289.096
289.103
289.125
289.313
289.632
289.184
289.114
289.09
289.13
289.352
289.469
289.07
289.001
289.018
289.136
289.472
288.96
288.622
288.664
288.803
289.116
289.611
288.305
288.111
288.251
288.585
289.126
289.75
287.731
287.617
287.867
288.391
289.127
289.83
287.454
287.351
287.674
288.286
289.137
289.859
287.273
287.202
287.601
288.257
289.158
289.863
287.486
287.419
287.821
288.417
289.248
289.845
287.715
287.794
288.233
288.744
289.43
289.836
288.513
288.582
288.983
289.451
289.854
290.09
283.633
284.74
285.426
286.406
287.171
288.023
284.319
285.613
286.532
287.597
288.157
288.949
285.045
286.547
287.438
288.301
288.472
289.136
286.229
287.603
288.136
288.738
288.833
289.448
287.087
288.215
288.408
288.891
289.164
289.819
287.549
288.461
288.589
289.09
289.546
290.189
287.513
288.364
288.707
289.34
289.933
290.516
287.365
288.236
288.839
289.615
290.282
290.818
287.157
288.065
288.906
289.808
290.535
291.047
286.945
287.912
288.942
289.955
290.739
291.242
286.705
287.761
288.932
290.07
290.896
291.393
286.564
287.748
289.05
290.293
291.106
291.544
286.507
287.851
289.239
290.6
291.376
291.696
286.89
288.326
289.766
291.062
291.661
291.898
286.879
286.5
286.809
286.968
287.31
287.494
286.91
286.634
286.96
287.248
287.632
287.894
287.189
286.778
287.081
287.218
287.564
287.878
287.626
287.093
287.391
287.44
287.72
288.007
288.066
287.44
287.686
287.65
287.899
288.18
288.363
287.72
287.932
287.864
288.051
288.322
288.471
287.849
288.039
287.957
288.16
288.457
288.393
287.888
288.066
288.023
288.235
288.507
288.234
287.815
287.984
287.96
288.203
288.502
288.241
287.7
287.897
287.864
288.161
288.457
288.036
287.521
287.762
287.742
288.081
288.398
288.285
287.653
287.842
287.791
288.144
288.362
288.244
287.693
287.914
287.828
288.15
288.281
288.706
288.266
288.495
288.579
288.827
288.836
286.63
286.323
286.58
286.761
287.113
287.568
286.798
286.479
286.799
287.159
287.602
288.085
287.051
286.581
286.832
287.107
287.557
288.076
287.441
286.865
287.132
287.313
287.702
288.198
287.845
287.172
287.421
287.527
287.891
288.377
288.129
287.45
287.671
287.739
288.092
288.556
288.195
287.596
287.795
287.899
288.258
288.682
288.124
287.659
287.848
287.97
288.324
288.722
287.829
287.539
287.749
287.886
288.288
288.711
287.758
287.353
287.553
287.709
288.196
288.657
287.409
286.983
287.269
287.506
288.092
288.598
287.432
286.956
287.275
287.525
288.128
288.57
287.244
286.912
287.315
287.603
288.185
288.551
287.707
287.392
287.886
288.382
288.853
288.994
285.521
285.538
285.866
286.31
286.908
287.624
285.34
285.601
286.065
286.676
287.293
288.081
285.258
285.585
285.941
286.553
287.205
288
285.588
285.852
286.21
286.736
287.325
288.051
286.069
286.108
286.438
286.912
287.486
288.171
286.448
286.346
286.656
287.118
287.679
288.335
286.566
286.476
286.763
287.235
287.807
288.46
286.439
286.462
286.809
287.295
287.885
288.534
286.123
286.336
286.692
287.215
287.846
288.527
285.914
286.01
286.359
286.973
287.71
288.473
285.349
285.473
285.928
286.674
287.552
288.393
284.81
285.125
285.759
286.643
287.527
288.325
284.046
284.829
285.68
286.757
287.629
288.26
284.126
284.998
286.128
287.402
288.163
288.624
289.395
289.554
289.629
289.671
289.696
289.698
289.675
289.599
289.474
289.309
289.139
288.991
288.878
288.961
289.779
290
290.115
290.171
290.179
290.164
290.128
290.052
289.951
289.827
289.712
289.634
289.579
289.638
290.201
290.439
290.546
290.584
290.571
290.533
290.481
290.412
290.339
290.261
290.186
290.123
290.049
290.097
290.585
290.8
290.886
290.887
290.858
290.803
290.743
290.682
290.634
290.595
290.557
290.518
290.498
290.521
290.933
291.085
291.143
291.123
291.078
291.014
290.952
290.902
290.874
290.864
290.86
290.857
290.849
290.872
291.241
291.32
291.345
291.313
291.256
291.187
291.13
291.094
291.083
291.093
291.117
291.144
291.176
291.203
291.499
291.537
291.532
291.488
291.42
291.349
291.299
291.276
291.279
291.303
291.344
291.394
291.446
291.484
291.77
291.775
291.743
291.677
291.595
291.522
291.475
291.461
291.471
291.503
291.556
291.617
291.68
291.718
292.025
292.01
291.959
291.881
291.79
291.716
291.673
291.664
291.677
291.713
291.77
291.832
291.889
291.916
292.315
292.287
292.218
292.128
292.032
291.954
291.909
291.898
291.911
291.945
291.998
292.053
292.094
292.099
292.563
292.545
292.485
292.4
292.308
292.232
292.184
292.171
292.183
292.212
292.253
292.29
292.312
292.29
292.862
292.829
292.776
292.705
292.627
292.56
292.515
292.496
292.501
292.517
292.539
292.549
292.55
292.501
293.065
293.061
293.022
292.98
292.933
292.892
292.862
292.848
292.847
292.847
292.844
292.828
292.805
292.729
293.397
293.373
293.341
293.31
293.278
293.251
293.23
293.216
293.202
293.175
293.133
293.086
293.036
293
290.037
290.126
290.15
290.138
290.154
290.144
290.11
290.032
289.91
289.751
289.568
289.409
289.261
289.183
290.411
290.508
290.535
290.537
290.533
290.507
290.466
290.403
290.317
290.216
290.099
289.986
289.892
289.851
290.73
290.833
290.869
290.863
290.838
290.795
290.743
290.685
290.621
290.559
290.489
290.42
290.341
290.332
291.03
291.102
291.139
291.124
291.087
291.032
290.974
290.918
290.869
290.833
290.799
290.768
290.731
290.741
291.31
291.348
291.368
291.342
291.293
291.232
291.172
291.121
291.085
291.067
291.061
291.065
291.062
291.077
291.584
291.59
291.583
291.542
291.479
291.415
291.358
291.318
291.295
291.294
291.306
291.333
291.36
291.386
291.86
291.844
291.804
291.739
291.662
291.596
291.544
291.515
291.504
291.514
291.541
291.584
291.629
291.665
292.152
292.115
292.044
291.955
291.865
291.793
291.744
291.722
291.718
291.733
291.771
291.819
291.873
291.921
292.443
292.392
292.3
292.195
292.095
292.018
291.968
291.948
291.948
291.964
292.006
292.054
292.107
292.154
292.746
292.687
292.583
292.47
292.365
292.282
292.228
292.204
292.203
292.217
292.257
292.297
292.343
292.376
293.021
292.97
292.874
292.767
292.665
292.581
292.524
292.495
292.492
292.502
292.534
292.56
292.593
292.597
293.314
293.268
293.19
293.098
293.008
292.929
292.871
292.835
292.824
292.824
292.841
292.845
292.858
292.836
293.534
293.518
293.471
293.413
293.351
293.292
293.245
293.209
293.19
293.177
293.175
293.156
293.143
293.094
293.86
293.854
293.824
293.782
293.736
293.689
293.649
293.612
293.582
293.551
293.515
293.472
293.429
293.393
290.645
290.635
290.651
290.612
290.589
290.543
290.479
290.387
290.26
290.109
289.939
289.772
289.591
289.439
290.989
290.983
290.98
290.948
290.91
290.854
290.784
290.701
290.597
290.485
290.371
290.268
290.148
290.023
291.26
291.252
291.26
291.23
291.18
291.114
291.037
290.955
290.865
290.778
290.698
290.636
290.543
290.469
291.532
291.509
291.503
291.466
291.406
291.336
291.258
291.18
291.1
291.031
290.974
290.94
290.881
290.841
291.802
291.766
291.732
291.676
291.607
291.534
291.46
291.389
291.32
291.265
291.225
291.209
291.185
291.157
292.086
292.036
291.966
291.884
291.8
291.724
291.653
291.591
291.535
291.495
291.47
291.468
291.466
291.468
292.384
292.311
292.21
292.104
292.004
291.922
291.853
291.797
291.752
291.724
291.713
291.721
291.738
291.749
292.689
292.598
292.472
292.345
292.232
292.141
292.069
292.015
291.975
291.956
291.955
291.968
291.997
292.012
292.985
292.882
292.741
292.604
292.482
292.384
292.309
292.253
292.216
292.197
292.201
292.214
292.248
292.262
293.278
293.173
293.029
292.891
292.766
292.662
292.582
292.52
292.481
292.459
292.462
292.469
292.5
292.501
293.547
293.453
293.321
293.193
293.073
292.971
292.889
292.824
292.78
292.751
292.745
292.739
292.761
292.741
293.828
293.754
293.643
293.529
293.419
293.319
293.237
293.17
293.121
293.081
293.062
293.037
293.042
292.995
294.103
294.044
293.963
293.868
293.781
293.694
293.62
293.552
293.495
293.443
293.407
293.358
293.33
293.256
294.441
294.388
294.323
294.236
294.164
294.089
294.022
293.957
293.896
293.833
293.776
293.706
293.638
293.55
291.005
290.978
291.003
290.958
290.908
290.831
290.738
290.623
290.485
290.336
290.155
289.983
289.805
289.614
291.326
291.3
291.303
291.262
291.203
291.122
291.023
290.908
290.773
290.639
290.501
290.386
290.263
290.112
291.603
291.581
291.575
291.525
291.455
291.367
291.267
291.153
291.028
290.906
290.793
290.708
290.616
290.531
291.908
291.86
291.823
291.752
291.67
291.581
291.484
291.377
291.264
291.155
291.06
290.994
290.929
290.873
292.22
292.145
292.067
291.967
291.87
291.776
291.683
291.586
291.487
291.396
291.318
291.268
291.218
291.189
292.531
292.428
292.31
292.184
292.069
291.969
291.878
291.79
291.706
291.633
291.573
291.535
291.502
291.489
292.83
292.706
292.558
292.41
292.279
292.171
292.078
291.998
291.926
291.868
291.824
291.799
291.781
291.775
293.114
292.976
292.809
292.649
292.506
292.39
292.294
292.215
292.151
292.103
292.071
292.055
292.05
292.047
293.378
293.236
293.063
292.901
292.754
292.633
292.533
292.452
292.39
292.345
292.319
292.306
292.311
292.31
293.638
293.501
293.329
293.173
293.026
292.904
292.801
292.717
292.653
292.604
292.577
292.561
292.57
292.561
293.897
293.773
293.613
293.469
293.329
293.21
293.107
293.019
292.949
292.891
292.855
292.828
292.833
292.802
294.177
294.074
293.928
293.796
293.665
293.55
293.449
293.36
293.286
293.218
293.17
293.124
293.112
293.048
294.477
294.395
294.272
294.154
294.038
293.929
293.831
293.738
293.654
293.572
293.508
293.437
293.393
293.295
294.806
294.747
294.64
294.524
294.422
294.322
294.23
294.138
294.049
293.955
293.87
293.774
293.69
293.576
291.309
291.266
291.281
291.23
291.168
291.076
290.974
290.856
290.723
290.568
290.392
290.194
290.005
289.793
291.604
291.576
291.57
291.514
291.443
291.348
291.243
291.119
290.98
290.832
290.682
290.537
290.394
290.237
291.927
291.879
291.844
291.767
291.683
291.584
291.474
291.35
291.214
291.075
290.941
290.833
290.707
290.608
292.271
292.184
292.107
292.001
291.899
291.794
291.683
291.563
291.436
291.308
291.189
291.097
290.995
290.92
292.604
292.484
292.365
292.229
292.105
291.99
291.877
291.762
291.647
291.536
291.434
291.353
291.271
291.226
292.906
292.766
292.612
292.454
292.312
292.186
292.07
291.96
291.858
291.763
291.68
291.611
291.548
291.514
293.173
293.024
292.85
292.679
292.524
292.389
292.27
292.165
292.072
291.992
291.924
291.87
291.825
291.792
293.419
293.265
293.082
292.908
292.746
292.607
292.486
292.383
292.296
292.224
292.168
292.125
292.093
292.06
293.648
293.497
293.315
293.147
292.986
292.847
292.724
292.621
292.535
292.465
292.414
292.376
292.352
292.322
293.882
293.738
293.56
293.401
293.245
293.11
292.988
292.884
292.796
292.723
292.668
292.629
292.608
292.577
294.132
294.004
293.835
293.687
293.538
293.407
293.286
293.178
293.083
293
292.937
292.888
292.864
292.821
294.408
294.298
294.138
294
293.859
293.734
293.614
293.505
293.405
293.311
293.235
293.168
293.131
293.061
294.726
294.633
294.487
294.355
294.221
294.098
293.977
293.86
293.748
293.639
293.55
293.46
293.4
293.3
295.055
294.976
294.84
294.711
294.587
294.468
294.349
294.23
294.112
293.992
293.884
293.773
293.679
293.563
291.605
291.554
291.536
291.472
291.397
291.295
291.186
291.061
290.927
290.774
290.606
290.401
290.214
289.987
291.949
291.884
291.842
291.758
291.666
291.553
291.434
291.3
291.157
291.005
290.851
290.692
290.535
290.375
292.293
292.2
292.124
292.013
291.903
291.78
291.651
291.513
291.368
291.221
291.078
290.95
290.807
290.689
292.632
292.509
292.392
292.25
292.118
291.984
291.849
291.709
291.568
291.429
291.298
291.184
291.063
290.975
292.93
292.781
292.63
292.468
292.318
292.173
292.033
291.895
291.761
291.635
291.519
291.418
291.319
291.259
293.184
293.025
292.855
292.68
292.515
292.361
292.216
292.08
291.955
291.843
291.743
291.659
291.582
291.531
293.408
293.247
293.065
292.886
292.714
292.555
292.407
292.275
292.157
292.057
291.973
291.904
291.847
291.799
293.617
293.456
293.273
293.097
292.924
292.765
292.617
292.487
292.374
292.282
292.209
292.153
292.109
292.062
293.829
293.672
293.491
293.323
293.153
292.997
292.851
292.722
292.61
292.52
292.451
292.402
292.366
292.321
294.055
293.906
293.727
293.568
293.404
293.254
293.11
292.982
292.867
292.774
292.703
292.654
292.619
292.572
294.313
294.177
294.001
293.847
293.687
293.541
293.397
293.266
293.146
293.044
292.966
292.909
292.87
292.817
294.596
294.472
294.298
294.149
293.994
293.852
293.709
293.575
293.448
293.338
293.248
293.175
293.126
293.057
294.928
294.814
294.644
294.492
294.334
294.186
294.037
293.897
293.764
293.642
293.541
293.45
293.384
293.297
295.26
295.147
294.98
294.823
294.665
294.516
294.367
294.224
294.088
293.961
293.849
293.742
293.652
293.548
291.951
291.868
291.804
291.705
291.598
291.468
291.335
291.192
291.051
290.902
290.753
290.568
290.41
290.212
292.321
292.21
292.121
291.994
291.864
291.716
291.566
291.41
291.257
291.106
290.963
290.821
290.683
290.544
292.628
292.502
292.39
292.243
292.096
291.935
291.774
291.61
291.452
291.302
291.164
291.044
290.916
290.811
292.912
292.773
292.632
292.467
292.303
292.133
291.966
291.799
291.64
291.494
291.363
291.255
291.145
291.064
293.151
292.998
292.839
292.662
292.489
292.315
292.145
291.979
291.825
291.687
291.568
291.471
291.38
291.317
293.363
293.198
293.024
292.847
292.671
292.495
292.324
292.162
292.015
291.887
291.782
291.698
291.625
291.569
293.561
293.392
293.213
293.036
292.858
292.684
292.514
292.357
292.216
292.099
292.005
291.934
291.876
291.822
293.761
293.593
293.413
293.24
293.064
292.892
292.725
292.57
292.434
292.323
292.238
292.175
292.126
292.07
293.975
293.813
293.633
293.465
293.291
293.122
292.956
292.803
292.668
292.559
292.478
292.418
292.372
292.313
294.211
294.056
293.875
293.711
293.539
293.374
293.209
293.054
292.918
292.806
292.722
292.661
292.614
292.552
294.481
294.335
294.151
293.986
293.811
293.644
293.476
293.318
293.177
293.061
292.971
292.904
292.854
292.787
294.773
294.633
294.441
294.271
294.091
293.922
293.752
293.594
293.451
293.33
293.232
293.155
293.098
293.027
295.107
294.962
294.759
294.574
294.384
294.208
294.036
293.878
293.734
293.608
293.504
293.415
293.347
293.268
295.416
295.255
295.049
294.857
294.664
294.489
294.32
294.166
294.025
293.902
293.792
293.695
293.61
293.516
292.265
292.169
292.07
291.934
291.791
291.623
291.458
291.29
291.13
290.974
290.831
290.662
290.54
290.397
292.611
292.485
292.366
292.205
292.038
291.854
291.668
291.486
291.313
291.153
291.013
290.885
290.773
290.672
292.859
292.724
292.593
292.424
292.249
292.057
291.865
291.675
291.497
291.336
291.198
291.089
290.986
290.906
293.091
292.942
292.792
292.618
292.437
292.243
292.05
291.859
291.682
291.523
291.39
291.29
291.201
291.136
293.295
293.13
292.964
292.786
292.605
292.416
292.227
292.041
291.868
291.717
291.594
291.503
291.428
291.369
293.483
293.306
293.132
292.956
292.777
292.592
292.407
292.228
292.063
291.921
291.809
291.727
291.661
291.605
293.671
293.488
293.31
293.134
292.958
292.779
292.599
292.426
292.268
292.135
292.033
291.959
291.9
291.842
293.868
293.689
293.507
293.335
293.159
292.983
292.807
292.637
292.485
292.359
292.263
292.191
292.135
292.07
294.086
293.913
293.73
293.558
293.381
293.205
293.028
292.86
292.709
292.585
292.49
292.418
292.361
292.292
294.328
294.163
293.975
293.801
293.619
293.44
293.26
293.09
292.938
292.812
292.716
292.641
292.583
292.509
294.606
294.441
294.239
294.055
293.863
293.679
293.496
293.324
293.172
293.044
292.944
292.864
292.803
292.726
294.89
294.716
294.499
294.305
294.107
293.92
293.737
293.567
293.415
293.287
293.183
293.097
293.033
292.958
295.195
295.007
294.775
294.564
294.355
294.163
293.981
293.814
293.665
293.539
293.433
293.342
293.27
293.196
295.461
295.257
295.018
294.8
294.591
294.402
294.226
294.069
293.929
293.812
293.707
293.614
293.534
293.449
292.468
292.384
292.277
292.127
291.962
291.774
291.585
291.393
291.209
291.033
290.878
290.708
290.599
290.497
292.775
292.653
292.527
292.357
292.176
291.973
291.769
291.564
291.369
291.189
291.037
290.905
290.805
290.741
292.985
292.848
292.714
292.54
292.358
292.155
291.948
291.74
291.542
291.365
291.216
291.106
291.016
290.964
293.194
293.036
292.883
292.708
292.526
292.327
292.122
291.918
291.723
291.552
291.409
291.31
291.231
291.189
293.383
293.206
293.039
292.863
292.684
292.493
292.297
292.1
291.913
291.75
291.619
291.528
291.461
291.414
293.563
293.376
293.202
293.028
292.852
292.668
292.478
292.29
292.111
291.958
291.836
291.751
291.689
291.639
293.748
293.556
293.378
293.203
293.03
292.851
292.669
292.487
292.317
292.171
292.058
291.978
291.917
291.857
293.942
293.754
293.57
293.397
293.223
293.047
292.867
292.689
292.524
292.384
292.276
292.193
292.129
292.057
294.155
293.974
293.786
293.609
293.429
293.25
293.068
292.891
292.73
292.591
292.483
292.396
292.325
292.244
294.393
294.213
294.013
293.828
293.64
293.456
293.272
293.096
292.936
292.798
292.688
292.593
292.518
292.43
294.653
294.464
294.247
294.049
293.85
293.661
293.476
293.3
293.142
293.003
292.892
292.792
292.714
292.622
294.91
294.704
294.469
294.263
294.059
293.867
293.681
293.51
293.356
293.22
293.108
293.004
292.925
292.837
295.173
294.957
294.708
294.486
294.271
294.076
293.894
293.729
293.582
293.452
293.34
293.233
293.151
293.069
295.407
295.167
294.912
294.685
294.473
294.284
294.114
293.964
293.831
293.714
293.606
293.501
293.413
293.326
289.305
289.056
288.484
287.536
286.471
285.454
288.941
288.374
287.613
286.698
285.956
285.168
288.985
288.239
287.372
286.551
285.998
285.333
289.02
288.23
287.34
286.523
285.992
285.409
289.068
288.294
287.456
286.662
286.089
285.473
289.084
288.335
287.556
286.751
286.035
285.286
289.074
288.337
287.587
286.81
286.104
285.355
288.993
288.231
287.478
286.765
286.152
285.508
288.847
288.079
287.374
286.71
286.154
285.567
288.643
287.869
287.194
286.513
285.921
285.176
288.468
287.699
287.035
286.313
285.623
284.557
288.387
287.593
286.911
286.055
285.234
283.957
288.464
287.685
287.064
286.159
285.313
283.869
288.117
287.398
286.717
285.963
285.499
284.362
289.934
289.822
289.464
288.824
287.798
286.797
289.653
289.311
288.786
288.114
287.188
286.362
289.663
289.155
288.486
287.777
286.982
286.319
289.645
289.051
288.297
287.552
286.863
286.323
289.668
289.03
288.265
287.534
286.929
286.518
289.659
289
288.246
287.509
286.949
286.633
289.623
288.946
288.197
287.464
286.889
286.508
289.521
288.802
288.045
287.307
286.687
286.14
289.363
288.604
287.856
287.122
286.429
285.716
289.164
288.366
287.615
286.836
286.056
285.214
288.959
288.171
287.445
286.616
285.761
284.849
288.799
288.044
287.34
286.472
285.551
284.59
288.801
288.111
287.488
286.643
285.665
284.63
288.436
287.787
287.089
286.354
285.735
285.001
290.531
290.471
290.298
289.929
289.215
288.267
290.317
290.098
289.715
289.229
288.528
287.62
290.294
289.954
289.444
288.834
288.101
287.241
290.216
289.786
289.169
288.496
287.789
287.039
290.184
289.692
289.049
288.379
287.728
287.097
290.138
289.609
288.965
288.311
287.731
287.182
290.076
289.521
288.883
288.242
287.692
287.095
289.971
289.379
288.736
288.066
287.434
286.69
289.819
289.181
288.52
287.813
287.113
286.247
289.641
288.952
288.257
287.49
286.716
285.769
289.453
288.745
288.062
287.275
286.446
285.452
289.262
288.558
287.896
287.108
286.289
285.33
289.145
288.506
287.959
287.241
286.421
285.477
288.79
288.189
287.607
286.958
286.385
285.763
290.855
290.801
290.739
290.578
290.176
289.518
290.729
290.539
290.297
290.017
289.587
288.851
290.724
290.456
290.12
289.677
289.053
288.222
290.637
290.295
289.837
289.276
288.558
287.684
290.552
290.157
289.624
289.017
288.257
287.364
290.455
290.027
289.465
288.851
288.095
287.234
290.362
289.915
289.346
288.718
288.005
287.216
290.252
289.778
289.201
288.552
287.82
286.935
290.112
289.599
289.009
288.322
287.552
286.597
289.949
289.384
288.752
288.012
287.214
286.235
289.762
289.158
288.533
287.806
287.013
286.009
289.561
288.932
288.308
287.594
286.835
285.914
289.369
288.774
288.256