/*--------------------------------*- C++ -*----------------------------------*\
| =========                 |                                                 |
| \\      /  F ield         | OpenFOAM: The Open Source CFD Toolbox           |
|  \\    /   O peration     | Version:  v2106                                 |
|   \\  /    A nd           | Website:  www.openfoam.com                      |
|    \\/     M anipulation  |                                                 |
\*---------------------------------------------------------------------------*/
FoamFile
{
    version     2.0;
    format      ascii;
    arch        "LSB;label=32;scalar=64";
    class       volScalarField;
    location    "0.000146";
    object      p;
}
// * * * * * * * * * * * * * * * * * * * * * * * * * * * * * * * * * * * * * //

dimensions      [1 -1 -2 0 0 0 0];

internalField   nonuniform List<scalar> 
144746
(
201102
200688
200377
200067
200011
200079
200326
200536
200852
201036
201401
201716
202021
202026
201342
200977
200607
200417
200348
200410
200600
200755
200999
201194
201440
201708
201857
201863
201642
201358
201025
200863
200733
200743
200895
200984
201153
201279
201419
201579
201630
201626
201771
201569
201305
201186
201137
201142
201204
201215
201306
201387
201470
201557
201513
201364
201729
201562
201442
201396
201382
201390
201429
201432
201473
201500
201504
201515
201413
201217
201401
201367
201397
201463
201521
201565
201579
201571
201554
201538
201550
201490
201380
201171
201189
201265
201312
201435
201548
201635
201669
201670
201651
201625
201580
201486
201428
201163
200736
200911
201061
201299
201487
201645
201704
201698
201680
201658
201619
201534
201535
201263
200392
200579
200852
201196
201459
201641
201698
201686
201671
201662
201642
201580
201653
201356
200039
200192
200602
201021
201368
201581
201660
201633
201642
201635
201651
201630
201800
201577
199861
200004
200550
201026
201444
201617
201663
201598
201577
201612
201692
201725
201991
201848
199932
200017
200526
201004
201433
201567
201575
201495
201485
201460
201568
201611
201947
201928
200201
200520
200957
201397
201703
201725
201591
201393
201323
201284
201461
201610
201981
202133
200425
200741
201057
201464
201638
201547
201360
201065
200968
200907
201024
201261
201566
201739
201723
201688
201442
201174
201108
201208
201545
201710
201646
201426
201186
200800
200743
201129
200726
200956
200934
201088
201325
201594
201894
202004
201980
201747
201521
201321
201189
201587
200692
201005
201115
201383
201673
201867
202104
202175
202129
201987
201774
201684
201363
201717
200682
201099
201370
201697
202042
202202
202334
202370
202297
202165
201907
201782
201501
201610
200895
201297
201590
201838
202159
202248
202422
202455
202370
202250
202081
201950
201735
201709
201100
201438
201721
201949
202217
202322
202443
202455
202381
202251
202089
201902
201748
201668
201178
201397
201607
201831
202049
202173
202288
202331
202293
202206
202073
201924
201771
201670
200923
201076
201318
201532
201739
201969
202083
202112
202072
201980
201879
201778
201630
201453
200532
200466
200791
201116
201408
201644
201775
201831
201807
201733
201623
201520
201379
201147
200350
200052
200163
200454
200907
201206
201427
201474
201471
201396
201241
201116
201010
200614
200321
199838
199790
200036
200440
200735
201025
201070
201066
200993
200845
200683
200616
200135
200516
199685
199441
199537
199951
200301
200653
200695
200718
200571
200470
200272
200348
199880
200828
199973
199666
199480
199760
199964
200345
200385
200542
200367
200377
200295
200430
200130
200837
199772
199415
199168
199354
199527
199960
200042
200350
200266
200370
200614
200813
200533
198611
199447
200062
200928
202268
203091
203673
203774
203407
202761
201931
200758
199546
199129
197727
199068
200160
201608
202904
203571
204153
204346
204097
203576
202792
202159
201111
200996
198379
199904
200987
202219
203258
203932
204536
204755
204633
204333
203674
203272
202280
202083
198985
200505
201788
202968
203824
204417
204888
205127
205069
204867
204341
204046
203244
202900
200023
201279
202364
203277
204071
204667
205134
205400
205425
205310
204991
204671
204213
203946
200980
201968
202894
203718
204389
204890
205269
205514
205548
205503
205288
204975
204633
204290
201359
202291
203088
203802
204419
204876
205263
205493
205569
205610
205491
205244
204953
204572
201609
202305
202852
203440
204053
204575
204992
205220
205304
205344
205229
204972
204723
204306
201090
201669
202367
202903
203587
204083
204570
204797
204880
204941
204755
204464
204069
203589
200165
200428
201257
201859
202780
203372
204000
204244
204342
204255
203919
203568
203053
202591
199008
199019
200035
200659
201757
202419
203210
203498
203621
203514
203151
202713
202105
201311
198103
197659
198531
199199
200580
201499
202419
202788
202855
202633
202123
201555
201023
199822
197587
196985
197603
198093
199420
200518
201571
202112
202214
202021
201331
200583
200001
198815
196906
195978
196289
196758
198233
199613
200724
201444
201630
201646
201014
200416
199692
198463
202356
202582
202688
202725
202764
202931
201713
201704
201942
202015
202168
202525
201515
201448
201612
201639
201741
202176
201155
201066
201195
201246
201384
201769
201046
200884
201002
201040
201186
201439
201045
200812
200937
200954
201144
201218
201135
200879
201022
200948
201096
201188
201351
201114
201293
201215
201411
201498
201548
201382
201701
201670
201964
202114
201907
201919
202280
202315
202568
202612
202227
202278
202678
202696
202989
202993
202345
202442
202842
202855
203141
203180
202544
202560
202889
202894
203162
203263
202045
202003
202403
202493
202814
203114
202103
202427
202785
202861
203428
203969
201555
201894
202671
203135
203720
204467
201824
202045
202805
203337
204044
204757
201588
201895
202669
203199
203996
204617
201612
201736
202449
202892
203649
204100
201645
201616
202102
202343
203061
203326
201687
201423
201748
201688
202265
202073
201422
201043
201282
200862
201498
201137
201293
200452
200798
200241
200885
200202
200723
199986
200324
199690
200395
199746
200382
199765
200283
199896
200642
200255
200238
199973
200671
200494
201209
201017
200838
200888
201534
201525
202272
202242
200806
200996
202034
202271
203006
203247
199657
199459
199184
198738
199293
198675
199764
199389
199830
200030
200880
201490
201293
200872
201233
201518
202252
202984
202256
201892
202192
202182
202766
203007
203510
203025
203002
202428
202410
201493
204061
203642
203268
201960
201230
198890
204100
203287
202743
200812
199485
195037
203768
202730
201554
198932
197262
191377
202887
201443
200276
197463
195870
188647
201835
199962
198711
195792
194624
186858
200683
198657
197698
195019
194165
186996
199379
197465
196825
194742
194335
188732
199221
197661
197307
195971
195845
192382
198217
197138
197534
197270
197814
196007
202144
202188
202279
202301
202365
202527
201306
201375
201572
201617
201737
202081
201133
201009
201136
201196
201318
201641
200824
200666
200776
200826
200993
201201
200745
200498
200624
200623
200792
200882
200864
200545
200636
200551
200720
200886
201033
200742
200906
200831
201080
201295
201472
201286
201605
201569
201787
201961
201772
201670
202027
202029
202258
202507
201975
201938
202356
202411
202642
202820
201953
201976
202406
202516
202789
203022
201664
201731
202183
202327
202634
202952
201439
201518
201923
202106
202482
202798
201100
201130
201666
201917
202274
202657
201854
202151
202629
202962
203589
204077
200909
201633
202492
203019
203721
204356
200894
201324
202270
202844
203659
204193
200526
200932
201884
202395
203264
203681
200418
200617
201418
201762
202564
202791
200430
200333
200847
200889
201781
201837
200040
199748
200229
200141
200973
200924
199829
199394
199855
199624
200519
200611
199449
199111
199669
199660
200506
201015
199421
199275
199958
200174
200969
201748
199546
199752
200573
201087
201977
202692
200036
200482
201412
202184
203066
203923
200775
201401
202315
203306
204183
204949
201772
202515
203405
204470
205306
206203
199479
199710
199748
199812
200416
200263
199081
199456
200151
200608
201617
202276
200217
200281
200963
201283
202131
202652
200811
200744
201307
201231
201802
201514
201469
201120
201282
200666
200822
199186
201167
200531
200386
199412
199338
196402
200872
199981
199533
198230
198006
194086
199873
198750
198314
196992
197036
192646
198765
197458
197164
195972
196309
192677
197414
196175
196207
195456
196179
193996
196356
195704
196117
196107
197136
196591
196194
196013
196701
197448
198729
199534
196811
197113
198057
199397
200568
202367
197320
197848
199340
201545
202831
204897
203087
202655
202307
201775
201259
201112
203468
202994
202708
202376
202034
201827
203658
203160
202914
202589
202245
201994
203964
203492
203230
202903
202475
202147
203907
203471
203209
202853
202399
202046
203795
203292
202981
202621
202063
201668
203410
202928
202473
202049
201525
201343
202902
202438
201939
201578
201137
200915
202223
201823
201433
201066
200626
200439
201833
201472
201123
200699
200245
199990
201764
201319
200943
200488
200053
199707
201850
201273
200985
200559
200186
199810
201981
201384
201098
200757
200489
199932
202331
201750
201629
201191
201105
200822
205820
204938
204194
202835
202009
201432
205113
203976
203356
202405
201816
201290
204272
203003
202423
201694
201145
200863
203651
202474
201832
201358
200805
200701
202933
201942
201290
200948
200473
200670
202530
201908
201067
200924
200551
200908
202604
202297
201284
201200
200721
200989
203091
202867
201846
201646
201107
201069
203888
203504
202512
202080
201285
200845
204801
204382
203458
202703
201599
200813
205773
205019
204019
203023
201773
200777
206456
205552
204569
203521
202272
201082
206602
205679
204693
203623
202484
201045
206631
205723
205180
204058
203338
202337
203525
201431
200293
198418
197394
197425
201825
199495
198654
197801
197620
197865
198546
198008
197037
196637
196614
197482
196098
196922
196054
196303
196485
197909
193968
196153
195531
196509
197014
198767
192956
196246
195878
197276
198072
199838
193055
196764
196720
198298
199138
200469
194399
197806
197925
199170
199726
200888
196727
199109
198942
199799
199985
200605
199656
200698
200165
200324
199789
199979
202494
202080
201003
200283
199123
198791
204773
203419
201861
200418
198972
198030
205860
204005
202213
200215
198620
197143
206614
204193
202973
201145
200209
198878
203408
202999
202739
202589
202265
202163
203481
203326
203005
202863
202514
202319
203347
203227
202838
202633
202219
201943
203227
203093
202614
202348
201910
201639
202742
202505
202035
201694
201244
201119
202303
201955
201488
201205
200968
200923
201616
201259
200935
200724
200475
200466
201380
200961
200667
200387
200150
200185
201203
200771
200436
200046
199816
199834
201294
200702
200367
199971
199749
199702
201523
200755
200444
199995
199783
199638
201878
201065
200832
200359
200173
199981
202196
201522
201274
200829
200537
200211
202774
202146
202037
201758
201887
201343
202885
202618
201890
201466
200707
200713
202019
202128
201363
201375
200846
200986
201033
201227
200479
200628
200204
200688
200469
200915
200091
200478
200272
200987
200138
200764
200056
200620
200536
201284
200828
201235
200597
200970
200927
201474
201798
201912
201279
201350
201241
201558
202960
202788
202096
201823
201408
201427
204099
203572
202750
202124
201435
201130
205500
204544
203594
202685
201831
201202
206220
205096
204066
202926
202017
201162
206827
205594
204691
203341
202479
201469
206880
205694
204829
203344
202441
201168
207042
205751
205275
204098
203782
202726
193818
196183
195728
196201
196146
197567
190187
194354
194677
196428
197221
199206
186591
192778
193469
196054
197257
199618
184966
192483
193720
196773
198316
200682
184945
192828
194582
197795
199615
201629
186869
193966
196016
199076
200772
202425
189807
195657
197561
200165
201740
203007
193712
197849
199291
201286
202230
203176
197793
199917
200484
201522
201821
202579
201493
201782
201399
201413
201123
201584
203833
202862
201636
200753
200159
200207
205750
203716
202191
200682
199897
199426
206109
203568
202094
200188
199247
198180
206113
203340
202485
201224
200868
199782
199949
201771
203290
204917
206755
207924
209220
209667
209549
208848
207613
206405
204778
204052
199288
201349
203177
205112
206819
208103
209210
209701
209645
209138
208168
207451
206025
205638
200398
202295
204020
205777
207203
208385
209311
209752
209847
209577
208939
208340
207364
207049
201718
203404
205053
206548
207691
208649
209393
209773
209903
209769
209393
209057
208382
207918
203356
204505
205718
206978
208022
208853
209519
209905
210062
210111
209925
209765
209448
209341
204603
205597
206637
207529
208294
208892
209411
209741
209879
210099
210073
210035
209950
209961
205280
206055
206878
207616
208290
208832
209340
209662
209815
210129
210213
210358
210509
210701
205329
206002
206660
207243
207919
208476
209033
209370
209547
209890
209947
210151
210280
210503
204876
205084
205714
206470
207347
207960
208598
208931
209110
209429
209416
209599
209567
209720
203624
203962
204609
205407
206513
207255
208064
208460
208639
208801
208664
208698
208490
208530
202112
202084
203024
204072
205505
206367
207363
207849
208066
208139
207882
207595
207318
207103
200567
200222
201383
202486
204308
205400
206652
207250
207418
207298
206849
206379
205895
205244
199386
198966
200070
201014
203076
204433
205920
206698
206813
206561
205760
205119
204456
203665
197839
197264
198355
199765
202069
203836
205275
206201
206339
206092
205134
204708
203818
203062
200748
203433
205585
207553
209601
211130
212492
213133
213261
212784
211736
210414
208847
207546
201102
203525
205789
207844
209679
211066
212225
212800
212932
212560
211837
210834
209743
208917
202597
204736
206738
208562
210100
211214
212138
212671
212905
212717
212294
211609
210878
210296
204517
206114
207639
209161
210417
211352
212097
212563
212754
212672
212472
212090
211681
211266
206100
207116
208495
209698
210755
211517
212159
212607
212816
212901
212844
212780
212649
212725
207504
208293
209225
210075
210917
211526
212076
212457
212654
212851
212873
213044
213120
213414
208225
208792
209517
210195
210908
211448
211981
212345
212566
212878
212993
213324
213618
214149
208390
208773
209287
209854
210571
211151
211720
212092
212346
212678
212797
213204
213522
214117
207709
207909
208520
209254
210071
210718
211331
211708
211969
212281
212374
212763
212947
213533
206424
206718
207401
208293
209309
210129
210866
211334
211603
211806
211791
211996
212030
212535
204498
204879
205905
207040
208310
209335
210197
210747
211002
211128
210992
210923
210758
210936
202578
202771
204077
205519
207182
208535
209634
210304
210517
210497
210157
209892
209531
209218
200788
200979
202421
204008
206036
207720
209143
209976
210152
209921
209204
208649
207983
207354
198478
198786
200415
202678
205288
207275
208897
209813
209983
209621
208602
208033
207028
206120
205233
207935
210100
211844
213879
215369
216623
217374
217739
217551
216928
215844
214942
213838
206145
208350
210418
212159
213893
215182
216255
216944
217211
217074
216623
215989
215110
214801
207921
209734
211360
212823
214247
215282
216120
216749
217033
217037
216842
216508
215948
215760
209507
210664
212014
213259
214433
215334
216055
216567
216800
216869
216792
216658
216447
216353
210874
211681
212730
213704
214699
215448
216093
216566
216814
216957
216975
217070
217115
217378
211817
212380
213216
213955
214812
215432
216010
216423
216673
216878
216959
217225
217467
217875
212407
212768
213402
214010
214773
215339
215899
216285
216556
216846
217002
217383
217743
218327
212407
212613
213074
213711
214485
215061
215640
216032
216336
216654
216819
217297
217679
218400
211694
211937
212507
213254
214053
214676
215276
215676
215997
216316
216490
216973
217274
218048
210476
210904
211585
212484
213396
214151
214831
215309
215654
215923
216029
216397
216579
217291
208843
209468
210348
211448
212534
213479
214249
214811
215170
215376
215406
215638
215688
216172
207172
207769
208946
210380
211698
212941
213848
214484
214825
214962
214844
214877
214755
214830
205220
205872
207488
209308
210836
212398
213516
214313
214640
214609
214261
214097
213716
213508
202692
203834
205803
208442
210342
212224
213479
214368
214647
214447
213812
213499
212743
212016
209397
211697
213694
215424
217232
218572
219686
220436
220856
220913
220602
220024
219411
218418
210535
212307
214216
215700
217194
218376
219330
219997
220292
220333
220148
219805
219263
218916
211916
213298
214934
216180
217440
218382
219154
219753
220083
220219
220156
220004
219702
219518
213494
214335
215582
216528
217552
218365
219031
219528
219803
219977
220035
220045
219971
219986
214426
214985
216034
216810
217697
218400
219008
219481
219759
219990
220061
220299
220362
220673
215183
215540
216345
216940
217726
218341
218896
219330
219605
219880
220006
220338
220616
221038
215545
215790
216410
216926
217669
218233
218777
219194
219489
219826
220031
220435
220795
221347
215517
215654
216109
216684
217430
217980
218548
218973
219306
219679
219915
220393
220791
221498
214884
215145
215665
216332
217079
217644
218235
218666
219030
219419
219681
220182
220534
221318
213993
214320
214924
215709
216546
217215
217880
218379
218775
219131
219357
219785
220056
220822
212532
213074
213967
214948
215898
216710
217421
217975
218398
218714
218894
219243
219446
220107
211182
211732
212856
214109
215258
216328
217153
217774
218167
218418
218492
218655
218676
219015
209515
210287
211767
213297
214584
215903
216875
217623
218036
218172
218055
218090
217953
218153
207411
208704
210622
212672
214284
215860
216931
217701
218081
218056
217692
217547
217119
216816
213812
215890
217504
218996
220409
221561
222499
223222
223673
223913
223798
223381
222895
222212
214871
216270
217802
219075
220336
221371
222190
222825
223175
223325
223275
223124
222764
222518
215925
216974
218362
219433
220483
221321
222025
222596
222952
223176
223191
223136
222965
222824
217144
217747
218823
219646
220479
221245
221867
222365
222671
222919
223026
223088
223130
223197
217789
218210
219121
219769
220547
221222
221806
222286
222596
222872
223028
223208
223379
223645
218342
218597
219292
219806
220516
221127
221675
222140
222462
222769
222962
223234
223511
223885
218540
218714
219237
219719
220420
221005
221552
222014
222357
222707
222954
223315
223638
224105
218417
218509
218967
219521
220219
220791
221353
221826
222206
222596
222870
223295
223644
224228
218013
218170
218619
219235
219927
220507
221086
221571
221986
222404
222702
223154
223470
224129
217330
217499
218043
218769
219522
220171
220806
221334
221776
222177
222453
222874
223133
223815
216312
216685
217395
218225
219031
219763
220427
220994
221465
221848
222109
222476
222707
223280
215251
215772
216676
217694
218616
219495
220237
220838
221285
221610
221772
222006
222183
222555
213868
214652
215774
216960
218042
219092
219983
220688
221157
221422
221511
221661
221686
221891
212289
213501
214994
216557
217928
219159
220071
220758
221160
221340
221314
221317
221122
220807
217382
219330
220584
221898
223042
224012
224815
225480
225958
226237
226310
226065
225642
225147
218434
219663
220792
221925
222951
223829
224546
225148
225533
225739
225805
225753
225562
225275
219322
220245
221230
222136
223013
223736
224386
224928
225291
225552
225658
225638
225571
225466
220233
220698
221513
222228
222926
223621
224202
224698
225020
225288
225465
225560
225623
225680
220787
221010
221703
222253
222939
223548
224102
224585
224922
225211
225418
225600
225765
225949
221125
221223
221774
222211
222848
223416
223950
224425
224779
225102
225345
225593
225842
226129
221165
221258
221682
222120
222742
223288
223823
224297
224671
225035
225305
225627
225918
226291
220958
221058
221448
221944
222562
223103
223654
224139
224545
224948
225238
225611
225920
226368
220653
220771
221141
221704
222319
222873
223438
223935
224371
224805
225120
225529
225826
226339
220073
220294
220747
221380
222032
222645
223247
223772
224227
224650
224963
225361
225624
226175
219332
219715
220303
220975
221688
222349
222972
223525
224001
224415
224736
225105
225363
225836
218472
219046
219820
220609
221414
222175
222851
223421
223879
224249
224472
224795
225051
225333
217533
218236
219148
220085
220998
221880
222667
223313
223785
224124
224359
224594
224716
224796
215919
217240
218513
219858
220975
221971
222755
223343
223764
224067
224223
224282
224239
224101
220888
222425
223332
224441
225408
226270
226996
227623
228106
228411
228583
228489
228156
227767
221734
222709
223567
224471
225335
226091
226746
227319
227721
227971
228100
228138
228030
227797
222487
223151
223854
224591
225307
225954
226557
227086
227471
227768
227921
227958
227942
227874
223106
223407
224027
224564
225183
225805
226352
226844
227193
227485
227700
227837
227930
227993
223528
223595
224101
224555
225142
225692
226214
226696
227062
227372
227618
227810
227977
228149
223695
223708
224104
224474
225024
225533
226038
226512
226893
227240
227521
227775
228006
228256
223641
223675
223995
224378
224912
225395
225900
226375
226770
227156
227453
227772
228039
228363
223434
223524
223825
224225
224754
225233
225751
226233
226652
227071
227382
227745
228026
228402
223182
223265
223574
224010
224550
225045
225579
226072
226514
226956
227285
227682
227959
228389
222693
222893
223293
223773
224340
224883
225447
225961
226417
226852
227182
227574
227828
228293
222137
222456
222947
223474
224093
224674
225259
225795
226266
226692
227036
227410
227665
228085
221477
221968
222601
223239
223915
224581
225201
225737
226183
226582
226876
227214
227470
227758
220828
221439
222162
222912
223643
224389
225079
225664
226122
226475
226773
227045
227228
227285
219400
220592
221597
222745
223663
224498
225158
225680
226099
226472
226736
226816
226847
226738
224004
225105
225806
226650
227438
228183
228844
229454
229938
230288
230513
230528
230323
230033
224664
225364
225966
226665
227364
228015
228609
229165
229579
229885
230067
230151
230137
229978
225257
225664
226150
226710
227283
227845
228390
228907
229309
229649
229854
229942
229978
229958
225671
225807
226223
226615
227135
227675
228172
228650
229017
229342
229592
229762
229901
229988
225899
225869
226219
226563
227045
227521
227996
228464
228845
229187
229460
229672
229864
230046
225946
225896
226166
226459
226913
227349
227805
228257
228642
229014
229318
229592
229834
230088
225842
225825
226038
226347
226785
227195
227651
228103
228499
228900
229216
229547
229820
230135
225636
225682
225881
226204
226638
227044
227509
227964
228377
228802
229130
229501
229786
230142
225410
225452
225674
226012
226461
226883
227366
227832
228263
228703
229045
229444
229724
230128
225046
225164
225485
225845
226313
226768
227273
227754
228197
228631
228979
229369
229629
230066
224636
224851
225224
225643
226142
226633
227154
227652
228104
228527
228891
229263
229520
229919
224094
224510
224991
225487
226049
226607
227149
227633
228059
228459
228793
229130
229392
229704
223680
224161
224716
225293
225893
226506
227090
227600
228024
228374
228691
228997
229224
229326
222540
223485
224333
225208
225954
226621
227169
227632
228024
228410
228709
228837
228925
228885
226965
227706
228189
228806
229423
230029
230603
231146
231591
231954
232184
232271
232186
232012
227463
227918
228313
228815
229352
229870
230375
230875
231260
231579
231787
231907
231974
231898
227877
228093
228400
228787
229212
229676
230145
230612
230989
231332
231559
231688
231785
231820
228127
228118
228375
228679
229089
229514
229929
230350
230692
231019
231278
231472
231654
231772
228184
228095
228329
228571
228956
229335
229731
230142
230491
230830
231102
231337
231548
231761
228115
228034
228210
228430
228799
229150
229528
229920
230268
230626
230921
231213
231461
231743
227962
227924
228055
228288
228643
228973
229353
229744
230100
230477
230786
231122
231406
231734
227761
227771
227898
228142
228489
228816
229202
229594
229963
230358
230678
231050
231345
231711
227545
227567
227716
227969
228323
228663
229062
229461
229845
230253
230587
230985
231278
231684
227305
227349
227580
227845
228211
228570
228982
229391
229786
230194
230537
230929
231205
231633
226977
227123
227392
227712
228096
228476
228896
229312
229713
230116
230478
230857
231123
231519
226570
226887
227252
227617
228058
228479
228904
229306
229684
230063
230419
230757
231029
231364
226276
226648
227089
227522
227975
228435
228877
229291
229664
230008
230341
230656
230917
231072
225435
226148
226844
227508
228053
228549
228959
229337
229667
230004
230320
230523
230681
230714
201417
202050
202336
202982
204418
205891
200274
200798
201776
203578
205977
207758
202633
202715
203612
205405
207782
209969
204447
204531
205609
207176
209736
211992
206669
206835
207672
208725
211207
213493
208013
208358
208993
209739
212075
214499
209322
209281
209668
210079
211915
214285
209605
209353
208970
208884
210541
213574
209159
208632
208069
207961
209672
212986
208105
207193
206394
206199
208110
211890
206784
205553
204780
204705
206734
210776
205469
203679
203166
203240
205336
209055
204681
203026
202954
203059
204824
207455
202702
201465
202197
203138
205196
207539
201658
201514
201236
201289
202309
204107
201668
201045
201189
202237
204178
206451
204510
203767
204036
205090
207417
209678
206952
206502
207160
208405
210901
213064
209584
209679
210576
211773
214208
215972
211334
211677
212800
214227
216844
218411
212968
213492
214469
215541
217910
219384
213578
214044
214896
216070
218449
219897
213436
213727
214282
215363
217636
219554
212569
212592
213090
214170
216237
218289
211310
211145
211297
212089
213894
216044
209894
209018
208901
209392
210900
212623
208912
207384
207341
207462
208575
209606
206437
204723
205133
205684
207156
208369
205088
204080
203168
202641
202885
203917
206287
204599
203909
203801
204650
206500
209156
207573
207110
207243
208277
210384
211389
210350
210405
211036
212331
214534
213801
213477
214020
215045
216427
218461
215619
215939
216814
218026
219528
221560
217226
217975
219045
220249
221735
223561
218082
218991
219975
221137
222573
224319
218257
219040
219830
220868
222173
223799
217742
218214
218681
219553
220683
222130
216845
217082
217324
217782
218470
219668
215625
215324
214942
215001
215236
215945
214696
213776
213204
212725
212552
212607
212591
210782
210459
210134
210452
210870
208531
207054
205696
204148
203576
203465
210481
208596
207311
205972
205634
205966
212943
211478
210420
209558
209472
210104
214970
213971
213480
213262
213670
214641
217234
216866
216958
217276
218016
219194
218902
219128
219779
220541
221558
222824
220308
221046
222036
223053
224252
225455
221170
222184
223314
224517
225775
226978
221574
222548
223593
224826
225929
226965
221364
222223
222991
223967
224765
225601
220713
221341
221983
222639
222911
223391
220018
220097
219838
219823
219499
219427
219325
218792
218117
217330
216456
215673
217420
216101
215252
214397
213806
213195
212522
211030
209306
207410
205781
205040
214840
212815
211423
209605
208148
207765
216769
215294
214231
212915
211944
211872
218598
217532
216937
216202
215854
216205
220417
219976
219943
219857
219994
220603
221829
222005
222438
222876
223559
224356
223023
223679
224484
225310
226254
227233
223847
224724
225742
226830
227929
229063
224337
225282
226258
227353
228341
229439
224350
225151
225967
226811
227487
228343
223980
224450
224889
225450
225739
226247
223381
223663
223394
223299
222878
222626
223059
222639
222054
221232
220113
219079
221494
220598
219778
218719
217635
216548
215966
214556
213040
211106
209203
207526
218281
216486
214994
213281
211494
210123
219778
218512
217389
216133
214844
213950
221448
220517
219783
219005
218311
217925
222928
222556
222317
222129
222081
222192
224192
224278
224559
224838
225283
225931
225219
225725
226393
227087
227920
228820
226004
226733
227579
228539
229586
230700
226501
227326
228225
229304
230316
231420
226671
227413
228218
229133
229869
230756
226569
227071
227549
227997
228349
228827
226157
226484
226607
226493
226179
225883
225885
225831
225417
224776
223814
222706
225027
224378
223627
222690
221501
220249
219704
218374
216890
215301
213461
211434
221658
220104
218579
216943
215238
213415
222774
221601
220471
219252
218040
216733
224145
223299
222548
221705
220986
220264
225348
224960
224703
224347
224180
224145
226424
226448
226601
226757
227023
227442
227327
227706
228206
228774
229460
230248
228070
228677
229347
230129
231031
232046
228583
229265
230009
230933
231864
232971
228818
229498
230186
230985
231703
232621
228854
229411
229857
230233
230548
231051
228606
228917
229096
229169
229052
228880
228353
228459
228189
227775
227076
226126
227892
227497
226885
226101
225176
223913
222998
221939
220844
219367
217923
216118
224621
223340
222131
220562
218963
217267
225408
224392
223450
222208
221006
219730
226479
225711
225066
224173
223374
222628
227443
227052
226768
226374
226134
225971
228338
228318
228376
228447
228613
228897
229139
229418
229774
230210
230759
231445
229846
230351
230890
231526
232290
233195
230381
230962
231566
232329
233185
234218
230669
231282
231875
232581
233255
234180
230795
231339
231813
232249
232532
233060
230680
231004
231179
231331
231345
231429
230471
230670
230542
230305
229818
229190
230266
230048
229614
229042
228303
227195
226118
225314
224450
223356
222100
220735
227357
226404
225459
224225
222824
221345
227906
227123
226341
225284
224152
223044
228684
228077
227515
226729
225943
225216
229427
229095
228836
228411
228072
227881
230152
230111
230107
230101
230187
230390
230839
231036
231285
231598
232014
232586
231474
231875
232305
232818
233454
234231
231981
232463
232958
233567
234310
235208
232285
232811
233330
233950
234562
235394
232461
232948
233391
233872
234230
234771
232454
232790
232976
233140
233230
233437
232330
232560
232544
232459
232169
231843
232266
232180
231888
231529
230995
230223
204550
204835
204945
205354
206758
208737
204195
204088
204865
206100
208212
210410
206155
205786
206434
207943
210315
212581
207388
207288
208173
209840
212368
214565
209187
209262
210079
211415
213967
216160
210036
210286
211206
212101
214347
216749
210956
211177
211575
212051