/*--------------------------------*- C++ -*----------------------------------*\
| =========                 |                                                 |
| \\      /  F ield         | OpenFOAM: The Open Source CFD Toolbox           |
|  \\    /   O peration     | Version:  v2106                                 |
|   \\  /    A nd           | Website:  www.openfoam.com                      |
|    \\/     M anipulation  |                                                 |
\*---------------------------------------------------------------------------*/
FoamFile
{
    version     2.0;
    format      ascii;
    arch        "LSB;label=32;scalar=64";
    class       volScalarField;
    location    "0.000145";
    object      p;
}
// * * * * * * * * * * * * * * * * * * * * * * * * * * * * * * * * * * * * * //

dimensions      [1 -1 -2 0 0 0 0];

internalField   nonuniform List<scalar> 
17924
(
232660
232649
232642
232634
231935
231921
231910
231898
231888
231879
231870
231942
231928
231916
231905
231895
231886
231877
231948
231934
231923
231912
231902
231892
231883
231954
231941
231929
231918
231909
231899
231890
231960
231948
231936
231926
231916
231907
231898
231967
231955
231944
231933
231924
231915
231906
231974
231962
231952
231942
231932
231923
231915
231982
231971
231960
231951
231941
231933
231924
231990
231979
231969
231960
231951
231942
231934
231998
231989
231979
231970
231961
231952
231944
232007
231998
231989
231980
231972
231963
231955
232017
232009
232000
231991
231983
231974
231966
232028
232019
232011
232002
231994
231986
231977
232041
232031
232022
232014
232005
231997
231989
231172
231157
231145
231134
231124
231114
231104
231096
231088
231081
231076
231071
231068
231063
231170
231156
231145
231133
231122
231112
231102
231093
231085
231079
231073
231069
231065
231061
231167
231154
231142
231131
231120
231109
231100
231091
231083
231076
231071
231067
231063
231060
231166
231153
231141
231129
231118
231108
231098
231089
231081
231075
231070
231065
231062
231059
231165
231152
231140
231128
231117
231107
231097
231088
231080
231074
231069
231065
231062
231059
231165
231152
231140
231128
231117
231106
231097
231088
231080
231074
231069
231065
231062
231059
231165
231153
231141
231129
231118
231107
231097
231089
231081
231075
231070
231066
231063
231060
231166
231154
231142
231131
231120
231109
231099
231091
231083
231077
231072
231068
231065
231062
231168
231156
231145
231133
231122
231112
231102
231094
231086
231080
231075
231071
231068
231065
231170
231159
231148
231136
231125
231115
231106
231097
231090
231083
231078
231074
231071
231068
231173
231162
231151
231140
231129
231119
231110
231101
231094
231088
231082
231078
231075
231072
231177
231166
231155
231144
231134
231124
231115
231106
231099
231092
231087
231082
231079
231076
231182
231171
231160
231150
231139
231129
231120
231112
231104
231097
231092
231087
231083
231080
231188
231176
231165
231155
231145
231135
231126
231117
231110
231103
231097
231092
231088
231084
230393
230380
230369
230359
230350
230342
230335
230329
230323
230319
230316
230313
230311
230308
230387
230376
230365
230355
230345
230336
230329
230322
230317
230313
230310
230307
230305
230302
230382
230371
230360
230349
230339
230330
230322
230316
230311
230307
230304
230301
230300
230297
230377
230366
230355
230344
230334
230325
230317
230310
230305
230301
230298
230296
230295
230293
230373
230362
230351
230340
230329
230320
230312
230305
230300
230296
230294
230292
230291
230289
230369
230359
230347
230336
230326
230317
230308
230302
230297
230293
230291
230289
230288
230287
230367
230356
230345
230334
230323
230314
230306
230299
230294
230291
230288
230287
230286
230285
230365
230354
230343
230332
230322
230313
230305
230298
230293
230290
230287
230286
230285
230284
230364
230353
230342
230332
230322
230312
230304
230298
230293
230289
230287
230285
230285
230284
230364
230353
230343
230332
230322
230313
230305
230299
230294
230290
230288
230286
230285
230285
230364
230354
230344
230334
230324
230315
230307
230301
230296
230292
230289
230288
230287
230286
230366
230356
230346
230336
230326
230318
230310
230303
230298
230294
230291
230290
230289
230287
230369
230359
230349
230340
230330
230321
230313
230307
230301
230297
230294
230292
230291
230289
230373
230362
230353
230343
230334
230325
230317
230311
230305
230301
230297
230295
230293
230292
229642
229634
229626
229619
229613
229608
229603
229599
229596
229594
229592
229591
229590
229588
229638
229630
229623
229615
229609
229603
229598
229594
229591
229588
229587
229585
229584
229583
229633
229626
229618
229610
229604
229598
229593
229589
229586
229583
229582
229580
229580
229578
229628
229621
229614
229606
229599
229593
229588
229584
229581
229579
229577
229576
229575
229574
229624
229617
229610
229602
229596
229590
229584
229580
229577
229575
229573
229572
229571
229570
229621
229614
229606
229599
229592
229586
229581
229577
229574
229571
229570
229569
229568
229568
229618
229611
229604
229597
229590
229584
229579
229574
229571
229569
229567
229566
229566
229565
229616
229609
229602
229595
229588
229582
229577
229573
229570
229567
229566
229565
229564
229564
229615
229608
229601
229594
229587
229581
229576
229572
229569
229566
229565
229564
229564
229564
229615
229608
229601
229594
229587
229581
229576
229572
229569
229566
229565
229564
229564
229564
229616
229609
229602
229595
229588
229582
229577
229573
229569
229567
229566
229565
229565
229564
229617
229610
229603
229596
229590
229584
229579
229574
229571
229569
229567
229566
229566
229566
229619
229613
229606
229599
229592
229586
229581
229576
229573
229571
229569
229568
229568
229567
229622
229615
229607
229601
229594
229588
229583
229579
229575
229573
229571
229570
229569
229569
228960
228958
228955
228952
228949
228946
228944
228941
228939
228937
228935
228933
228931
228930
228958
228956
228953
228950
228947
228945
228942
228940
228937
228935
228933
228931
228930
228928
228956
228954
228951
228949
228946
228943
228941
228939
228936
228934
228932
228930
228928
228926
228955
228952
228950
228947
228945
228942
228940
228937
228935
228933
228930
228928
228927
228925
228953
228951
228949
228946
228944
228941
228939
228937
228934
228932
228929
228927
228925
228924
228952
228950
228948
228945
228943
228941
228938
228936
228933
228931
228928
228926
228924
228922
228951
228949
228947
228945
228942
228940
228937
228935
228932
228930
228927
228925
228923
228921
228951
228948
228946
228944
228941
228939
228936
228934
228931
228929
228926
228924
228922
228920
228950
228948
228946
228943
228941
228938
228936
228933
228931
228928
228926
228923
228921
228920
228950
228948
228945
228943
228940
228938
228935
228932
228930
228927
228925
228923
228921
228919
228950
228948
228945
228942
228940
228937
228935
228932
228929
228927
228925
228923
228921
228919
228951
228948
228945
228942
228939
228937
228934
228932
228929
228927
228925
228923
228921
228919
228951
228948
228945
228942
228939
228937
228934
228931
228929
228927
228925
228923
228922
228920
228951
228948
228944
228942
228939
228936
228934
228931
228929
228927
228925
228924
228922
228920
228361
228362
228363
228364
228364
228364
228362
228361
228359
228356
228353
228350
228347
228344
228362
228364
228365
228366
228366
228366
228365
228363
228361
228358
228355
228352
228349
228346
228363
228365
228366
228368
228368
228368
228367
228366
228363
228361
228357
228354
228351
228347
228365
228367
228368
228369
228370
228370
228369
228368
228366
228363
228359
228356
228352
228349
228366
228368
228370
228371
228372
228372
228371
228370
228367
228364
228361
228357
228354
228350
228367
228369
228371
228372
228373
228373
228372
228371
228368
228366
228362
228358
228354
228351
228368
228370
228371
228373
228373
228374
228373
228371
228369
228366
228363
228359
228355
228351
228369
228370
228372
228373
228373
228374
228373
228371
228369
228366
228362
228359
228354
228350
228368
228370
228371
228372
228373
228373
228372
228370
228368
228365
228362
228358
228354
228349
228368
228369
228370
228371
228372
228372
228371
228369
228367
228364
228360
228356
228352
228348
228366
228367
228368
228369
228370
228370
228369
228367
228365
228362
228359
228355
228351
228347
228365
228365
228366
228367
228367
228367
228366
228365
228363
228360
228357
228353
228349
228345
228362
228363
228364
228364
228364
228364
228363
228362
228360
228357
228354
228351
228348
228344
228359
228360
228360
228361
228361
228361
228360
228359
228357
228355
228352
228349
228346
228342
227832
227836
227839
227841
227843
227843
227843
227842
227840
227837
227834
227830
227826
227821
227836
227840
227843
227845
227847
227848
227848
227846
227844
227842
227838
227834
227830
227825
227839
227843
227846
227849
227851
227852
227852
227851
227849
227846
227842
227838
227833
227829
227842
227846
227850
227852
227854
227855
227855
227854
227852
227849
227846
227841
227837
227832
227845
227849
227852
227855
227857
227858
227858
227857
227855
227852
227849
227844
227839
227834
227847
227851
227854
227857
227859
227860
227860
227859
227857
227854
227851
227846
227841
227836
227848
227852
227855
227858
227860
227861
227861
227860
227858
227856
227852
227847
227842
227836
227848
227852
227856
227858
227860
227861
227862
227861
227859
227856
227852
227847
227842
227836
227848
227851
227855
227857
227859
227860
227861
227859
227858
227855
227851
227846
227841
227835
227847
227850
227853
227856
227857
227859
227859
227858
227856
227853
227849
227844
227839
227833
227844
227847
227850
227853
227855
227856
227856
227855
227853
227850
227846
227842
227836
227831
227841
227844
227847
227849
227851
227852
227852
227851
227849
227846
227843
227838
227833
227828
227837
227840
227842
227845
227846
227847
227848
227847
227845
227842
227839
227834
227830
227824
227832
227835
227837
227840
227841
227842
227843
227842
227840
227838
227835
227831
227826
227821
227351
227355
227358
227361
227363
227364
227364
227363
227362
227359
227356
227352
227348
227343
227355
227360
227363
227366
227367
227369
227369
227368
227366
227364
227361
227357
227352
227347
227359
227363
227367
227370
227372
227373
227373
227372
227371
227368
227365
227361
227356
227351
227363
227367
227370
227373
227375
227376
227376
227376
227374
227372
227368
227364
227359
227354
227365
227369
227373
227376
227378
227379
227379
227378
227377
227374
227371
227367
227362
227356
227367
227371
227375
227377
227379
227381
227381
227380
227379
227376
227373
227368
227363
227358
227368
227372
227375
227378
227380
227382
227382
227381
227379
227377
227373
227369
227364
227359
227368
227372
227375
227378
227380
227381
227382
227381
227379
227377
227373
227369
227364
227358
227367
227371
227374
227377
227379
227380
227380
227380
227378
227376
227372
227368
227363
227357
227365
227369
227372
227375
227377
227378
227378
227378
227376
227373
227370
227366
227360
227355
227362
227366
227369
227372
227374
227375
227375
227375
227373
227370
227367
227363
227357
227352
227359
227362
227365
227368
227370
227371
227371
227371
227369
227367
227363
227359
227354
227348
227354
227358
227361
227363
227365
227366
227367
227366
227365
227362
227359
227354
227350
227344
227349
227352
227355
227358
227360
227361
227361
227361
227359
227357
227354
227350
227345
227340
226899
226903
226906
226908
226910
226911
226911
226910
226909
226907
226904
226901
226897
226892
226903
226906
226909
226912
226913
226914
226914
226914
226913
226911
226908
226904
226901
226896
226906
226910
226912
226915
226916
226917
226918
226917
226916
226914
226911
226908
226904
226899
226909
226912
226915
226917
226919
226920
226920
226919
226918
226916
226914
226910
226906
226902
226911
226914
226917
226919
226921
226922
226922
226921
226920
226918
226915
226912
226908
226903
226912
226915
226918
226920
226922
226923
226923
226922
226921
226919
226916
226913
226909
226904
226912
226916
226918
226921
226922
226923
226923
226923
226921
226919
226917
226913
226909
226904
226912
226915
226918
226920
226922
226923
226923
226922
226921
226919
226916
226913
226908
226904
226911
226914
226917
226919
226920
226921
226921
226921
226919
226917
226915
226911
226907
226902
226909
226912
226915
226917
226918
226919
226919
226919
226918
226915
226913
226909
226905
226900
226906
226909
226912
226914
226916
226917
226917
226916
226915
226913
226910
226906
226902
226898
226903
226906
226908
226911
226912
226913
226913
226913
226911
226909
226907
226903
226899
226894
226899
226902
226904
226907
226908
226909
226909
226909
226907
226905
226903
226899
226895
226890
226894
226897
226900
226902
226903
226904
226905
226904
226903
226901
226898
226895
226891
226886
226467
226469
226472
226474
226475
226476
226476
226475
226474
226473
226471
226468
226465
226461
226469
226472
226474
226476
226477
226478
226478
226478
226477
226475
226473
226471
226468
226464
226472
226474
226477
226478
226480
226480
226480
226480
226479
226477
226475
226473
226470
226466
226474
226476
226478
226480
226481
226482
226482
226481
226480
226479
226477
226474
226471
226468
226475
226477
226479
226481
226482
226483
226483
226482
226481
226480
226478
226475
226472
226469
226475
226478
226480
226481
226482
226483
226483
226482
226482
226480
226478
226476
226473
226469
226475
226478
226480
226481
226482
226483
226483
226482
226481
226480
226478
226475
226472
226469
226475
226477
226479
226481
226482
226482
226482
226482
226481
226479
226477
226475
226472
226468
226473
226476
226478
226479
226480
226481
226481
226480
226479
226478
226476
226473
226470
226467
226472
226474
226476
226478
226479
226479
226479
226479
226478
226476
226474
226472
226469
226465
226470
226472
226474
226475
226476
226477
226477
226476
226476
226474
226472
226469
226466
226463
226467
226469
226471
226473
226474
226474
226474
226474
226473
226471
226469
226467
226464
226460
226463
226466
226468
226470
226471
226471
226471
226471
226470
226468
226466
226463
226460
226457
226460
226462
226464
226466
226467
226468
226468
226467
226466
226465
226463
226460
226457
226453
226049
226051
226053
226055
226056
226056
226056
226056
226055
226054
226053
226051
226048
226045
226051
226053
226055
226057
226057
226058
226058
226058
226057
226056
226054
226052
226050
226047
226053
226055
226057
226058
226059
226059
226059
226059
226058
226057
226056
226054
226051
226049
226054
226056
226058
226059
226060
226060
226060
226060
226059
226058
226056
226055
226052
226050
226055
226057
226058
226059
226060
226061
226061
226060
226059
226058
226057
226055
226053
226050
226055
226057
226058
226059
226060
226061
226061
226060
226059
226058
226057
226055
226053
226051
226055
226057
226058
226059
226060
226060
226060
226060
226059
226058
226057
226055
226053
226050
226054
226056
226057
226058
226059
226060
226060
226059
226058
226057
226056
226054
226052
226050
226053
226055
226056
226058
226058
226059
226059
226058
226057
226056
226055
226053
226051
226049
226052
226054
226055
226056
226057
226057
226057
226057
226056
226055
226054
226052
226050
226047
226050
226052
226053
226055
226055
226056
226056
226055
226055
226053
226052
226050
226048
226046
226048
226050
226051
226053
226053
226054
226054
226053
226053
226052
226050
226048
226046
226044
226045
226047
226049
226050
226051
226051
226051
226051
226050
226049
226048
226046
226044
226041
226043
226044
226046
226048
226048
226049
226049
226048
226048
226047
226045
226043
226041
226038
225645
225646
225648
225649
225650
225650
225650
225650
225650
225649
225648
225646
225644
225642
225646
225648
225649
225650
225651
225652
225652
225651
225651
225650
225649
225647
225646
225643
225648
225649
225651
225651
225652
225653
225653
225652
225652
225651
225650
225649
225647
225645
225649
225650
225651
225652
225653
225653
225653
225653
225653
225652
225651
225649
225648
225645
225649
225651
225652
225653
225653
225654
225654
225654
225653
225652
225651
225650
225648
225646
225649
225651
225652
225653
225654
225654
225654
225654
225653
225652
225651
225650
225648
225646
225649
225651
225652
225653
225653
225654
225654
225654
225653
225652
225651
225650
225648
225646
225648
225650
225651
225652
225653
225653
225653
225653
225653
225652
225651
225650
225648
225646
225648
225649
225651
225652
225652
225653
225653
225652
225652
225651
225650
225649
225647
225645
225647
225648
225650
225651
225651
225652
225652
225652
225651
225650
225649
225648
225646
225645
225646
225647
225648
225649
225650
225651
225651
225650
225650
225649
225648
225647
225645
225643
225644
225646
225647
225648
225649
225649
225649
225649
225648
225648
225647
225645
225644
225642
225642
225644
225645
225646
225647
225647
225647
225647
225647
225646
225645
225643
225642
225640
225640
225642
225643
225644
225645
225645
225645
225645
225645
225644
225643
225641
225640
225638
225252
225253
225254
225255
225255
225256
225256
225256
225256
225256
225255
225254
225253
225251
225254
225255
225256
225256
225257
225257
225258
225258
225257
225257
225256
225255
225254
225252
225255
225256
225257
225258
225258
225258
225259
225259
225258
225258
225257
225256
225254
225253
225256
225257
225258
225258
225259
225259
225259
225259
225259
225258
225258
225257
225255
225254
225256
225257
225258
225259
225260
225260
225260
225260
225260
225259
225258
225257
225256
225254
225256
225258
225259
225259
225260
225260
225260
225260
225260
225259
225259
225257
225256
225255
225256
225258
225259
225259
225260
225260
225261
225261
225260
225260
225259
225258
225256
225255
225256
225257
225259
225259
225260
225260
225261
225260
225260
225259
225259
225258
225256
225255
225256
225257
225258
225259
225260
225260
225260
225260
225260
225259
225258
225257
225256
225255
225255
225256
225258
225258
225259
225260
225260
225260
225259
225259
225258
225257
225256
225254
225254
225256
225257
225258
225258
225259
225259
225259
225258
225258
225257
225256
225255
225254
225253
225255
225256
225257
225257
225258
225258
225258
225257
225257
225256
225255
225254
225253
225252
225254
225255
225256
225256
225257
225257
225257
225256
225256
225255
225254
225253
225252
225251
225253
225254
225255
225255
225255
225255
225255
225255
225254
225254
225253
225252
225250
224875
224875
224875
224875
224875
224875
224876
224876
224876
224876
224876
224876
224876
224875
224876
224876
224876
224876
224876
224876
224877
224877
224877
224877
224876
224876
224876
224875
224876
224876
224877
224877
224877
224877
224877
224877
224877
224877
224877
224876
224876
224875
224877
224877
224877
224877
224878
224878
224878
224878
224878
224878
224877
224877
224876
224876
224877
224877
224878
224878
224878
224878
224878
224878
224878
224878
224878
224877
224877
224876
224877
224878
224878
224878
224879
224879
224879
224879
224879
224879
224878
224878
224877
224876
224877
224878
224878
224879
224879
224879
224879
224879
224879
224879
224878
224878
224877
224877
224877
224878
224878
224879
224879
224879
224880
224879
224879
224879
224879
224878
224878
224877
224877
224878
224878
224879
224879
224880
224880
224880
224879
224879
224879
224878
224878
224877
224877
224878
224879
224879
224879
224879
224880
224880
224879
224879
224879
224878
224878
224877
224877
224878
224878
224879
224879
224879
224879
224879
224879
224879
224879
224878
224878
224878
224877
224878
224878
224879
224879
224879
224879
224879
224879
224879
224878
224878
224878
224878
224877
224878
224878
224879
224879
224879
224879
224879
224879
224878
224878
224878
224878
224878
224877
224878
224878
224879
224879
224879
224878
224878
224878
224878
224878
224877
224877
224877
224518
224516
224515
224514
224514
224513
224513
224513
224514
224514
224515
224516
224517
224518
224517
224516
224515
224514
224514
224513
224513
224513
224514
224514
224515
224515
224516
224517
224516
224515
224514
224514
224513
224513
224513
224513
224513
224514
224514
224515
224515
224516
224516
224515
224514
224514
224513
224513
224513
224513
224513
224514
224514
224514
224515
224516
224516
224515
224514
224514
224513
224513
224513
224513
224513
224514
224514
224514
224515
224516
224516
224515
224514
224514
224514
224513
224513
224513
224513
224514
224514
224514
224515
224516
224516
224515
224515
224514
224514
224514
224514
224514
224514
224514
224514
224515
224515
224516
224516
224516
224515
224515
224514
224514
224514
224514
224514
224514
224515
224515
224516
224516
224516
224516
224515
224515
224515
224515
224515
224515
224515
224515
224515
224516
224516
224517
224517
224517
224516
224516
224515
224515
224515
224515
224515
224516
224516
224516
224517
224518
224518
224517
224517
224517
224516
224516
224516
224516
224516
224516
224517
224517
224518
224519
224519
224518
224518
224517
224517
224517
224517
224517
224517
224517
224517
224518
224519
224520
224520
224520
224519
224518
224518
224518
224517
224517
224518
224518
224518
224519
224520
224521
224522
224521
224520
224520
224519
224519
224518
224518
224518
224518
224519
224520
224521
224522
224184
224182
224180
224178
224177
224176
224176
224176
224176
224177
224178
224180
224182
224185
224182
224180
224178
224177
224176
224175
224175
224175
224175
224176
224177
224178
224180
224182
224181
224179
224177
224176
224174
224174
224173
224173
224174
224175
224176
224177
224179
224181
224179
224178
224176
224175
224174
224173
224173
224173
224173
224174
224175
224176
224178
224180
224179
224177
224175
224174
224173
224172
224172
224172
224173
224173
224174
224176
224177
224179
224178
224177
224175
224174
224173
224172
224172
224172
224172
224173
224174
224175
224177
224179
224178
224177
224175
224174
224173
224172
224172
224172
224173
224173
224174
224176
224177
224179
224179
224177
224176
224174
224173
224173
224173
224173
224173
224174
224175
224176
224178
224179
224179
224178
224176
224175
224174
224174
224173
224173
224174
224174
224175
224177
224178
224180
224181
224179
224177
224176
224175
224175
224174
224174
224175
224175
224177
224178
224180
224181
224182
224180
224179
224178
224177
224176
224176
224176
224176
224177
224178
224179
224181
224183
224184
224182
224181
224179
224178
224178
224177
224177
224178
224178
224179
224181
224183
224184
224186
224184
224183
224181
224180
224180
224179
224179
224180
224180
224181
224183
224184
224187
224189
224187
224185
224183
224182
224182
224181
224181
224182
224182
224183
224185
224187
224189
223877
223875
223873
223871
223870
223869
223869
223869
223869
223870
223871
223873
223875
223878
223875
223873
223871
223869
223868
223867
223867
223867
223867
223868
223869
223871
223873
223876
223873
223871
223869
223867
223866
223865
223865
223865
223866
223866
223868
223869
223872
223874
223872
223870
223868
223866
223865
223864
223864
223864
223864
223865
223866
223868
223870
223873
223871
223869
223867
223865
223864
223863
223863
223863
223863
223864
223866
223867
223870
223872
223870
223868
223866
223865
223864
223863
223862
223862
223863
223864
223865
223867
223869
223872
223870
223868
223866
223865
223863
223863
223862
223862
223863
223864
223865
223867
223869
223872
223871
223869
223867
223865
223864
223863
223863
223863
223863
223864
223866
223867
223869
223872
223872
223869
223867
223866
223865
223864
223863
223864
223864
223865
223866
223868
223870
223872
223873
223871
223869
223867
223866
223865
223865
223865
223865
223866
223867
223869
223871
223874
223874
223872
223870
223869
223867
223867
223866
223866
223867
223868
223869
223871
223873
223875
223876
223874
223872
223871
223869
223869
223868
223868
223869
223870
223871
223873
223875
223877
223879
223877
223875
223873
223872
223871
223871
223871
223871
223872
223873
223875
223877
223879
223882
223879
223877
223875
223874
223874
223873
223873
223874
223875
223876
223878
223880
223882
223597
223596
223595
223594
223593
223592
223592
223592
223592
223593
223593
223595
223596
223598
223596
223594
223593
223592
223591
223590
223590
223590
223590
223591
223592
223594
223595
223597
223594
223593
223591
223590
223589
223589
223588
223588
223589
223590
223591
223592
223594
223596
223593
223592
223590
223589
223588
223588
223587
223587
223588
223589
223590
223591
223593
223595
223593
223591
223590
223588
223587
223587
223586
223586
223587
223588
223589
223591
223593
223595
223593
223591
223589
223588
223587
223586
223586
223586
223586
223587
223589
223590
223592
223594
223593
223591
223589
223588
223587
223586
223586
223586
223586
223587
223588
223590
223592
223594
223593
223591
223589
223588
223587
223586
223586
223586
223587
223588
223589
223590
223592
223594
223594
223592
223590
223589
223588
223587
223587
223587
223587
223588
223589
223591
223593
223595
223595
223593
223591
223590
223589
223588
223588
223588
223588
223589
223590
223592
223594
223596
223596
223594
223592
223591
223590
223589
223589
223589
223590
223591
223592
223593
223595
223597
223598
223596
223594
223593
223592
223591
223591
223591
223592
223592
223593
223595
223597
223598
223599
223598
223596
223595
223594
223593
223593
223593
223594
223594
223596
223597
223599
223600
223601
223599
223598
223597
223596
223595
223595
223596
223596
223597
223598
223599
223601
223602
223341
223341
223340
223340
223340
223340
223340
223340
223340
223340
223340
223341
223340
223340
223340
223339
223339
223339
223339
223339
223339
223340
223340
223341
223340
223340
223339
223339
223338
223338
223338
223338
223339
223339
223340
223340
223340
223339
223339
223338
223338
223338
223338
223338
223338
223339
223339
223340
223340
223339
223338
223338
223338
223337
223337
223338
223338
223338
223339
223340
223340
223339
223338
223338
223338
223337
223337
223337
223338
223338
223339
223340
223340
223339
223339
223338
223338
223337
223337
223337
223338
223338
223339
223340
223341
223340
223339
223338
223338
223338
223338
223338
223338
223339
223339
223340
223341
223340
223339
223339
223338
223338
223338
223338
223338
223339
223340
223340
223342
223341
223340
223339
223339
223339
223339
223339
223339
223340
223340
223341
223342
223342
223341
223340
223340
223340
223339
223340
223340
223340
223341
223342
223343
223342
223342
223341
223341
223340
223340
223341
223341
223341
223342
223343
223344
223343
223343
223342
223342
223342
223342
223342
223342
223343
223343
223344
223344
223344
223343
223343
223343
223343
223343
223343
223343
223344
223344
223345
232645
232639
232629
232622
232614
232606
232635
232624
232613
232602
232591
232579
232625
232612
232598
232584
232571
232556
232616
232600
232585
232570
232555
232538
231932
231935
231935
231936
231937
231937
231917
231918
231916
231915
231913
231910
231905
231903
231900
231896
231892
231886
231893
231889
231884
231878
231873
231866
231882
231876
231870
231863
231857
231849
231872
231865
231858
231851
231844
231835
231863
231855
231848
231841
231834
231826
231175
231184
231189
231195
231201
231206
231161
231168
231173
231178
231183
231186
231149
231155
231159
231162
231164
231166
231137
231142
231144
231146
231147
231147
231126
231130
231131
231131
231131
231130
231116
231118
231119
231119
231118
231116
231106
231108
231108
231108
231107
231105
231097
231099
231099
231099
231098
231096
231090
231091
231091
231091
231091
231090
231083
231084
231084
231085
231085
231084
231077
231078
231078
231079
231079
231078
231072
231072
231073
231073
231073
231072
231069
231068
231067
231067
231066
231065
231064
231063
231061
231060
231058
231057
230399
230408
230415
230422
230430
230437
230387
230396
230404
230411
230419
230425
230377
230386
230393
230400
230407
230412
230367
230375
230382
230389
230394
230398
230358
230366
230372
230378
230382
230385
230349
230357
230363
230367
230371
230373
230342
230349
230354
230358
230361
230363
230335
230342
230347
230350
230353
230355
230330
230336
230340
230344
230346
230347
230325
230330
230335
230338
230340
230341
230321
230326
230330
230332
230334
230336
230318
230322
230325
230327
230329
230330
230315
230318
230320
230322
230323
230324
230312
230313
230315
230316
230316
230316
229649
229656
229661
229668
229674
229680
229640
229648
229655
229662
229669
229675
229633
229641
229649
229656
229663
229669
229626
229634
229642
229649
229655
229661
229620
229628
229635
229642
229648
229653
229614
229622
229628
229635
229640
229645
229609
229616
229623
229628
229633
229637
229605
229612
229617
229622
229626
229629
229602
229608
229613
229617
229620
229623
229599
229604
229609
229612
229615
229617
229597
229602
229605
229608
229610
229612
229595
229599
229602
229604
229606
229608
229593
229596
229599
229601
229602
229603
229592
229594
229596
229597
229598
229599
228964
228968
228971
228974
228977
228980
228961
228965
228968
228972
228976
228980
228958
228962
228966
228970
228975
228979
228955
228959
228963
228967
228971
228975
228951
228955
228959
228963
228967
228971
228948
228952
228955
228959
228962
228965
228946
228948
228951
228954
228957
228959
228943
228945
228947
228950
228952
228954
228940
228942
228944
228946
228947
228949
228938
228939
228941
228942
228943
228944
228936
228937
228938
228939
228939
228940
228934
228935
228935
228936
228936
228937
228933
228933
228934
228934
228934
228934
228931
228931
228932
228932
228932
228933
228361
228359
228359
228358
228358
228358
228362
228360
228360
228359
228360
228360
228362
228361
228360
228360
228361
228361
228362
228361
228360
228360
228360
228361
228362
228360
228359
228358
228358
228358
228361
228359
228357
228355
228355
228354
228360
228357
228354
228352
228351
228350
228358
228354
228351
228349
228347
228345
228355
228351
228348
228345
228343
228341
228352
228348
228345
228342
228340
228338
228350
228346
228342
228339
228337
228334
228347
228343
228340
228337
228334
228332
228345
228341
228338
228335
228333
228331
228342
228338
228336
228334
228332
228330
227829
227823
227819
227815
227811
227808
227832
227826
227822
227817
227814
227811
227834
227829
227824
227819
227815
227812
227836
227830
227825
227820
227816
227813
227837
227831
227826
227821
227816
227813
227838
227831
227825
227820
227815
227811
227837
227830
227824
227818
227812
227808
227836
227829
227822
227815
227809
227804
227833
227826
227819
227812
227805
227800
227831
227823
227816
227809
227802
227796
227828
227820
227813
227806
227800
227794
227824
227817