/*--------------------------------*- C++ -*----------------------------------*\
| =========                 |                                                 |
| \\      /  F ield         | OpenFOAM: The Open Source CFD Toolbox           |
|  \\    /   O peration     | Version:  v2106                                 |
|   \\  /    A nd           | Website:  www.openfoam.com                      |
|    \\/     M anipulation  |                                                 |
\*---------------------------------------------------------------------------*/
FoamFile
{
    version     2.0;
    format      ascii;
    arch        "LSB;label=32;scalar=64";
    class       volVectorField;
    location    "0.000145";
    object      U;
}
// * * * * * * * * * * * * * * * * * * * * * * * * * * * * * * * * * * * * * //

dimensions      [0 1 -1 0 0 0 0];

internalField   nonuniform List<vector> 
17924
(
(0.180418 -0.187068 15.0508)
(0.202232 -0.187907 15.045)
(0.214466 -0.18937 15.0263)
(0.231801 -0.189906 15.0109)
(0.112098 -0.108123 14.1744)
(0.131624 -0.116067 14.1646)
(0.143809 -0.116751 14.145)
(0.161406 -0.117262 14.1288)
(0.177047 -0.116333 14.112)
(0.192565 -0.115725 14.0965)
(0.207035 -0.115702 14.0815)
(0.107 -0.0932244 14.1879)
(0.130641 -0.0980463 14.1757)
(0.147243 -0.0996103 14.1558)
(0.166159 -0.10088 14.1395)
(0.182381 -0.0998619 14.1229)
(0.197613 -0.0987514 14.1069)
(0.211732 -0.098054 14.0913)
(0.10599 -0.0774817 14.1975)
(0.128701 -0.0801755 14.1825)
(0.147199 -0.0819663 14.1645)
(0.165309 -0.0830395 14.148)
(0.18173 -0.0822903 14.132)
(0.196998 -0.0815241 14.1162)
(0.211425 -0.0810742 14.1009)
(0.104726 -0.0626137 14.2069)
(0.127238 -0.0643829 14.1915)
(0.146836 -0.0664139 14.1748)
(0.164968 -0.0671518 14.1582)
(0.181965 -0.0667391 14.1422)
(0.197421 -0.0661479 14.1262)
(0.212062 -0.0658394 14.1107)
(0.103982 -0.047703 14.2156)
(0.126428 -0.0489505 14.2001)
(0.14649 -0.0509345 14.184)
(0.164734 -0.0515556 14.1675)
(0.18189 -0.051509 14.1516)
(0.197419 -0.0512281 14.1357)
(0.211963 -0.0511411 14.1203)
(0.102941 -0.0329227 14.2242)
(0.125664 -0.0341473 14.209)
(0.146118 -0.0359792 14.1932)
(0.164659 -0.0365871 14.1769)
(0.181999 -0.0368745 14.1612)
(0.197574 -0.0368426 14.1454)
(0.212078 -0.0369486 14.1301)
(0.101827 -0.0182519 14.2329)
(0.124867 -0.0196357 14.2183)
(0.145607 -0.0210683 14.2025)
(0.164428 -0.0216976 14.1864)
(0.181926 -0.0222136 14.1709)
(0.197557 -0.0224309 14.1552)
(0.21207 -0.0227031 14.1399)
(0.1004 -0.00351202 14.2417)
(0.123489 -0.00503472 14.2273)
(0.14457 -0.00597466 14.2119)
(0.163678 -0.00668693 14.1961)
(0.181391 -0.00740942 14.1808)
(0.19714 -0.00789492 14.1652)
(0.211756 -0.00831256 14.1501)
(0.0987291 0.011391 14.2505)
(0.121665 0.00976702 14.2361)
(0.143289 0.00925663 14.2215)
(0.162675 0.00848877 14.206)
(0.180636 0.00760675 14.1909)
(0.196549 0.00687896 14.1755)
(0.211336 0.00634635 14.1604)
(0.0969137 0.0265956 14.2589)
(0.119753 0.0247857 14.2448)
(0.141865 0.024589 14.231)
(0.161513 0.0238303 14.2159)
(0.17969 0.0228451 14.201)
(0.195805 0.0219365 14.1855)
(0.210838 0.0213397 14.1705)
(0.0954534 0.0415406 14.2678)
(0.118324 0.0396936 14.2539)
(0.140627 0.0398407 14.2404)
(0.160561 0.0392311 14.2256)
(0.17895 0.0382358 14.2109)
(0.195284 0.0372326 14.1955)
(0.210608 0.0366253 14.1805)
(0.0943126 0.0563987 14.2768)
(0.117493 0.055385 14.2626)
(0.13973 0.0553733 14.2493)
(0.159825 0.0547765 14.2353)
(0.178195 0.0536967 14.2209)
(0.194602 0.0526591 14.2058)
(0.209893 0.052175 14.1907)
(0.093323 0.068685 14.2882)
(0.118069 0.0711112 14.2742)
(0.139233 0.0720057 14.2586)
(0.160162 0.0713807 14.245)
(0.178705 0.0702645 14.2307)
(0.19514 0.06921 14.2159)
(0.210145 0.0688515 14.201)
(0.0977266 0.0790983 14.2968)
(0.11882 0.0878353 14.2884)
(0.136315 0.0864582 14.273)
(0.155579 0.0857286 14.2582)
(0.173567 0.0853432 14.2425)
(0.190357 0.0852868 14.2265)
(0.206001 0.0859574 14.2109)
(0.0446364 -0.0814836 13.2602)
(0.0625181 -0.0899834 13.2495)
(0.0767743 -0.0900967 13.2321)
(0.0947987 -0.090653 13.2176)
(0.111657 -0.0900705 13.2029)
(0.127929 -0.0897993 13.1886)
(0.143598 -0.0901858 13.1751)
(0.157975 -0.0903348 13.1614)
(0.172606 -0.0903887 13.1488)
(0.186443 -0.0913365 13.1356)
(0.201069 -0.0911076 13.1231)
(0.21458 -0.0914928 13.1103)
(0.23021 -0.088722 13.1019)
(0.241917 -0.0892568 13.0891)
(0.0387234 -0.0690482 13.2624)
(0.061219 -0.0726299 13.2477)
(0.0804586 -0.0742557 13.2318)
(0.099446 -0.075082 13.2181)
(0.116478 -0.074242 13.2042)
(0.132091 -0.073443 13.1901)
(0.147168 -0.0732196 13.1766)
(0.160789 -0.0728861 13.1624)
(0.174853 -0.0728233 13.1494)
(0.187826 -0.0737761 13.1357)
(0.202005 -0.0738033 13.1235)
(0.21464 -0.0741717 13.1103)
(0.229792 -0.0714042 13.1012)
(0.242094 -0.0732842 13.0883)
(0.0384192 -0.0553465 13.2633)
(0.0594914 -0.0563599 13.2479)
(0.0797815 -0.0579316 13.234)
(0.0980593 -0.0584137 13.2194)
(0.115362 -0.0576995 13.2053)
(0.131277 -0.0570433 13.1909)
(0.146761 -0.0568378 13.1773)
(0.16101 -0.0565064 13.1633)
(0.175637 -0.0565255 13.1507)
(0.189354 -0.0575718 13.1377)
(0.20361 -0.0577094 13.1253)
(0.216655 -0.0581264 13.1122)
(0.231111 -0.0557037 13.1018)
(0.244572 -0.0583031 13.091)
(0.0378909 -0.0409741 13.2642)
(0.0588073 -0.0407649 13.249)
(0.0795813 -0.0424105 13.2355)
(0.097922 -0.0426896 13.2205)
(0.115514 -0.0421693 13.2062)
(0.131574 -0.04164 13.1917)
(0.147079 -0.0414774 13.178)
(0.161316 -0.0411826 13.164)
(0.175887 -0.0412421 13.1514)
(0.189547 -0.0421354 13.1384)
(0.203598 -0.042229 13.1262)
(0.216735 -0.0425125 13.1135)
(0.23101 -0.0406538 13.103)
(0.244688 -0.0428694 13.0928)
(0.0376025 -0.0261295 13.2646)
(0.0588128 -0.0255912 13.2501)
(0.0796386 -0.0270953 13.2367)
(0.0980438 -0.0272382 13.2217)
(0.115602 -0.0269194 13.2073)
(0.131659 -0.0265624 13.1929)
(0.147023 -0.0265003 13.1791)
(0.161214 -0.0263185 13.1653)
(0.175541 -0.0264534 13.1526)
(0.18915 -0.0271712 13.1399)
(0.202897 -0.0272745 13.1277)
(0.216362 -0.0275034 13.1156)
(0.230511 -0.0262419 13.1047)
(0.244701 -0.0277163 13.0946)
(0.0374399 -0.0111034 13.2652)
(0.0591649 -0.0105318 13.2514)
(0.0798316 -0.0116227 13.2376)
(0.0983298 -0.0116703 13.2228)
(0.115841 -0.011537 13.2085)
(0.131863 -0.0113664 13.1941)
(0.147092 -0.0114068 13.1804)
(0.161162 -0.0113244 13.1667)
(0.175266 -0.0115092 13.154)
(0.188707 -0.0120161 13.1414)
(0.202274 -0.0121436 13.1293)
(0.215726 -0.0123671 13.1174)
(0.229932 -0.0116839 13.1065)
(0.244086 -0.0125771 13.0958)
(0.0373747 0.00406699 13.2661)
(0.0595182 0.00454826 13.2531)
(0.07998 0.00401731 13.2391)
(0.0985579 0.00403138 13.2243)
(0.116034 0.00402157 13.21)
(0.132025 0.00402574 13.1957)
(0.147168 0.00391315 13.182)
(0.16115 0.00391047 13.1683)
(0.175117 0.00368429 13.1557)
(0.188424 0.00333626 13.1431)
(0.201911 0.00313971 13.131)
(0.215253 0.00273777 13.1191)
(0.229574 0.00277548 13.1082)
(0.243649 0.00202974 13.0972)
(0.0373363 0.0190734 13.2673)
(0.0595326 0.0194682 13.2547)
(0.0798419 0.0195022 13.2406)
(0.0984597 0.0194854 13.2259)
(0.115907 0.0192998 13.2117)
(0.131877 0.0190999 13.1975)
(0.146975 0.0189023 13.1838)
(0.160903 0.0188293 13.1702)
(0.17479 0.0186072 13.1575)
(0.187987 0.0184565 13.145)
(0.201408 0.0182415 13.133)
(0.21464 0.0176776 13.1211)
(0.228981 0.0170974 13.1104)
(0.243093 0.0165155 13.0995)
(0.0372994 0.0341246 13.2685)
(0.0591883 0.0344067 13.2561)
(0.0795032 0.0349494 13.2424)
(0.0981068 0.0349214 13.228)
(0.115578 0.034596 13.214)
(0.13159 0.0342177 13.1998)
(0.146744 0.0339545 13.1862)
(0.160725 0.0338344 13.1726)
(0.174609 0.0336482 13.1599)
(0.187816 0.0337424 13.1474)
(0.20113 0.033542 13.1352)
(0.214372 0.032879 13.1233)
(0.228444 0.0316806 13.1123)
(0.242714 0.0313923 13.102)
(0.0368274 0.0494449 13.2697)
(0.0584238 0.0495473 13.2575)
(0.0787734 0.0504684 13.2443)
(0.0974403 0.050459 13.2302)
(0.115009 0.0500248 13.2162)
(0.131134 0.0495093 13.2021)
(0.146424 0.0492058 13.1885)
(0.160553 0.0490623 13.1749)
(0.17454 0.0489012 13.1622)
(0.187883 0.0492611 13.1496)
(0.201186 0.0490456 13.1372)
(0.214445 0.0483786 13.1251)
(0.228215 0.0465401 13.1139)
(0.242513 0.0467523 13.1045)
(0.0368938 0.064896 13.2711)
(0.0583531 0.0649113 13.2594)
(0.0785324 0.0661133 13.2463)
(0.0971714 0.0661405 13.2322)
(0.114754 0.0656202 13.2184)
(0.130889 0.0649803 13.2043)
(0.146294 0.0646334 13.1908)
(0.160461 0.0644612 13.1771)
(0.174619 0.0642967 13.1644)
(0.187924 0.0649064 13.1515)
(0.201438 0.0646713 13.139)
(0.214271 0.0641298 13.1262)
(0.228104 0.0616986 13.1155)
(0.241749 0.0626765 13.106)
(0.0371952 0.080345 13.2721)
(0.0585835 0.0807513 13.2605)
(0.0784773 0.0820498 13.2476)
(0.0971089 0.0821083 13.2341)
(0.114517 0.0815233 13.2207)
(0.130478 0.0807626 13.2068)
(0.145679 0.0803686 13.1933)
(0.159735 0.0801146 13.1796)
(0.173765 0.0798763 13.1668)
(0.187133 0.0805966 13.1539)
(0.200774 0.080414 13.1412)
(0.213513 0.0801096 13.1279)
(0.227462 0.0772441 13.1172)
(0.240865 0.078849 13.1071)
(0.0383309 0.0949582 13.2762)
(0.0603032 0.0969371 13.2643)
(0.0792189 0.0984907 13.2499)
(0.0981881 0.0986537 13.2367)
(0.115514 0.0982264 13.2234)
(0.131212 0.0974856 13.2097)
(0.145921 0.0971394 13.1962)
(0.15914 0.096866 13.1821)
(0.172341 0.0964648 13.1688)
(0.184841 0.0969637 13.1551)
(0.198272 0.096582 13.1425)
(0.210488 0.0962367 13.1292)
(0.224945 0.0929086 13.1199)
(0.237309 0.0943047 13.1079)
(0.0439985 0.1085 13.2784)
(0.0616149 0.114941 13.2679)
(0.0773638 0.115041 13.2542)
(0.0945127 0.1149 13.2406)
(0.11118 0.114696 13.2265)
(0.127006 0.114346 13.2124)
(0.14206 0.114413 13.1987)
(0.156019 0.114352 13.1852)
(0.169864 0.113831 13.1723)
(0.183303 0.114024 13.159)
(0.197303 0.113383 13.146)
(0.210599 0.113002 13.1328)
(0.22563 0.109602 13.1237)
(0.237385 0.109837 13.1116)
(-0.0118255 -0.0837548 12.3325)
(0.00512202 -0.090517 12.3218)
(0.02167 -0.0913737 12.309)
(0.0400135 -0.092358 12.2978)
(0.0578416 -0.0927666 12.2865)
(0.0751314 -0.092968 12.2754)
(0.0921254 -0.0938009 12.2652)
(0.108343 -0.0940557 12.255)
(0.124737 -0.094163 12.246)
(0.140602 -0.0947994 12.2365)
(0.15672 -0.0944155 12.2275)
(0.171594 -0.0942712 12.2179)
(0.187167 -0.0915361 12.2123)
(0.198375 -0.0917153 12.2021)
(-0.0156564 -0.0732465 12.3283)
(0.00489416 -0.075577 12.3156)
(0.0242288 -0.0773519 12.3045)
(0.0428575 -0.0779822 12.2938)
(0.0606619 -0.0778272 12.2833)
(0.0775999 -0.0774674 12.2724)
(0.0943991 -0.0777307 12.2624)
(0.110311 -0.0776409 12.2519)
(0.126436 -0.0776501 12.2426)
(0.14176 -0.0784113 12.2327)
(0.157471 -0.0781505 12.224)
(0.171716 -0.0779941 12.2141)
(0.187088 -0.0748847 12.208)
(0.199623 -0.0764985 12.1982)
(-0.0164325 -0.0596881 12.3256)
(0.00274179 -0.0596996 12.3132)
(0.0225529 -0.0614126 12.3032)
(0.0409534 -0.0618919 12.2917)
(0.0591207 -0.0617464 12.2806)
(0.0765439 -0.0614125 12.2693)
(0.0939349 -0.0615762 12.259)
(0.110569 -0.0613891 12.2486)
(0.127408 -0.0613028 12.2396)
(0.143499 -0.061999 12.2304)
(0.159479 -0.0617952 12.2217)
(0.174148 -0.0616933 12.2121)
(0.189103 -0.059034 12.2045)
(0.202498 -0.0607969 12.1969)
(-0.0168818 -0.0446091 12.323)
(0.00229971 -0.0438595 12.3109)
(0.0222714 -0.0455819 12.3008)
(0.0406739 -0.0459174 12.2887)
(0.0589521 -0.0457596 12.2774)
(0.0765224 -0.0453982 12.2661)
(0.0940302 -0.0454529 12.2558)
(0.110809 -0.0452449 12.2454)
(0.127741 -0.04517 12.2364)
(0.143947 -0.0457574 12.2273)
(0.159865 -0.0455089 12.2187)
(0.174714 -0.0453102 12.2098)
(0.189531 -0.0430574 12.2022)
(0.203232 -0.0442108 12.1952)
(-0.0169733 -0.0288654 12.32)
(0.0024461 -0.027972 12.3086)
(0.0222867 -0.0293305 12.2982)
(0.0406374 -0.0294711 12.2862)
(0.058846 -0.0293226 12.2748)
(0.0764397 -0.029012 12.2634)
(0.0939463 -0.0290402 12.253)
(0.110779 -0.0288622 12.2427)
(0.127659 -0.0288149 12.2338)
(0.143882 -0.029256 12.2249)
(0.15965 -0.0290643 12.2164)
(0.174748 -0.0288799 12.208)
(0.189542 -0.0272361 12.2001)
(0.203787 -0.0277707 12.1933)
(-0.0166242 -0.012915 12.3173)
(0.00315043 -0.0120501 12.3064)
(0.0226527 -0.0128506 12.2956)
(0.04095 -0.0127997 12.2836)
(0.0590699 -0.0126482 12.2722)
(0.0766226 -0.0124011 12.2609)
(0.0940494 -0.0124227 12.2506)
(0.110818 -0.0122984 12.2404)
(0.127578 -0.0123042 12.2314)
(0.143712 -0.0126185 12.2227)
(0.159375 -0.0125259 12.2143)
(0.174505 -0.0124584 12.2062)
(0.189391 -0.0114469 12.1984)
(0.203828 -0.0116876 12.1911)
(-0.0162395 0.00301876 12.3151)
(0.00376926 0.00392801 12.3048)
(0.0229447 0.00382119 12.2936)
(0.0412273 0.00402323 12.2817)
(0.0592893 0.00417082 12.2702)
(0.0768158 0.00433554 12.259)
(0.0941902 0.00430441 12.2486)
(0.110912 0.00436749 12.2384)
(0.127593 0.004308 12.2295)
(0.143649 0.00410327 12.2209)
(0.159269 0.00409176 12.2126)
(0.174367 0.00394316 12.2045)
(0.189431 0.00429856 12.1969)
(0.204012 0.00403908 12.1892)
(-0.0156948 0.0189247 12.3132)
(0.00425972 0.0199373 12.3031)
(0.0232083 0.0205321 12.2917)
(0.0414467 0.0208497 12.2799)
(0.0594212 0.021003 12.2685)
(0.0768691 0.0210895 12.2573)
(0.0941508 0.0210521 12.247)
(0.110799 0.0210577 12.2368)
(0.127389 0.0209482 12.228)
(0.143355 0.0208354 12.2193)
(0.158915 0.0207255 12.2111)
(0.173985 0.0203077 12.2031)
(0.189116 0.0199475 12.1957)
(0.203948 0.0195722 12.1884)
(-0.0148289 0.0348442 12.3115)
(0.00471058 0.0358676 12.3013)
(0.0235133 0.0371908 12.2903)
(0.0415965 0.0377211 12.2787)
(0.059483 0.0379564 12.2675)
(0.0768615 0.0380299 12.2564)
(0.0940805 0.0380256 12.2461)
(0.110688 0.0379928 12.236)
(0.127216 0.0378251 12.2271)
(0.143164 0.0377863 12.2185)
(0.158656 0.0375273 12.2101)
(0.173811 0.0368493 12.2022)
(0.188767 0.0357186 12.1943)
(0.203854 0.0352876 12.1878)
(-0.0144194 0.0515185 12.3101)
(0.00468408 0.0527 12.3001)
(0.023408 0.0543621 12.2895)
(0.0414356 0.0548222 12.278)
(0.0593372 0.0548839 12.2669)
(0.0767164 0.0547773 12.2558)
(0.0939269 0.0546931 12.2455)
(0.110539 0.0545784 12.2354)
(0.12705 0.0543494 12.2264)
(0.143056 0.0544327 12.2178)
(0.158556 0.0540155 12.2092)
(0.173817 0.0531639 12.2012)
(0.188584 0.0511887 12.193)
(0.203749 0.0510584 12.1876)
(-0.0134199 0.0681743 12.3093)
(0.00530826 0.0690792 12.2995)
(0.0238073 0.0711051 12.289)
(0.0416785 0.0715969 12.2774)
(0.0594926 0.0715582 12.2664)
(0.0767524 0.0713175 12.2554)
(0.0938707 0.0711488 12.2451)
(0.110376 0.0709273 12.235)
(0.12685 0.070604 12.2259)
(0.142781 0.0707633 12.2171)
(0.158395 0.0701901 12.2084)
(0.173453 0.069243 12.1998)
(0.188276 0.0665954 12.1919)
(0.203071 0.0670536 12.1868)
(-0.0122353 0.0851096 12.308)
(0.00621332 0.0859837 12.2983)
(0.0244318 0.0881961 12.2879)
(0.0421207 0.0886638 12.277)
(0.059627 0.0885056 12.2663)
(0.076554 0.0880892 12.2555)
(0.0933417 0.0877611 12.2451)
(0.109603 0.0873485 12.235)
(0.125861 0.0868495 12.2259)
(0.141738 0.0869894 12.217)
(0.157419 0.0862863 12.2082)
(0.172403 0.0853316 12.199)
(0.187336 0.082081 12.1911)
(0.202201 0.0831696 12.1856)
(-0.00989137 0.101691 12.3093)
(0.0087463 0.103215 12.2993)
(0.0262808 0.105645 12.288)
(0.0439556 0.106127 12.2772)
(0.0610963 0.106001 12.2667)
(0.0774252 0.10545 12.2559)
(0.0934489 0.104949 12.2455)
(0.108767 0.104273 12.2349)
(0.124075 0.103427 12.2252)
(0.139077 0.103174 12.2157)
(0.154383 0.102176 12.207)
(0.168861 0.10102 12.1977)
(0.184031 0.097239 12.1914)
(0.198382 0.0981205 12.1842)
(-0.00418732 0.117586 12.3095)
(0.0093989 0.121688 12.2989)
(0.0247652 0.122923 12.2887)
(0.0411609 0.123126 12.2778)
(0.0577932 0.123122 12.2667)
(0.0740542 0.122721 12.2557)
(0.0900795 0.122324 12.2455)
(0.105693 0.121608 12.2357)
(0.121324 0.120492 12.2267)
(0.136982 0.119847 12.2176)
(0.152859 0.118437 12.2087)
(0.168536 0.117209 12.1996)
(0.184181 0.113036 12.1932)
(0.198581 0.112837 12.1859)
(-0.0521061 -0.0972586 11.4404)
(-0.0363169 -0.101466 11.4316)
(-0.0187153 -0.10338 11.424)
(7.20415e-05 -0.104445 11.4167)
(0.0190337 -0.105479 11.4094)
(0.037803 -0.10604 11.402)
(0.0563593 -0.107014 11.3954)
(0.074387 -0.107353 11.3888)
(0.0921643 -0.107385 11.3831)
(0.109401 -0.107657 11.3771)
(0.12626 -0.106965 11.3712)
(0.142061 -0.106367 11.3646)
(0.157135 -0.102864 11.3608)
(0.16975 -0.103124 11.355)
(-0.0542874 -0.0861441 11.4351)
(-0.0359561 -0.08681 11.4269)
(-0.0175381 -0.0892864 11.4201)
(0.00111579 -0.0900339 11.4129)
(0.0200001 -0.0905473 11.406)
(0.0387627 -0.0906476 11.3988)
(0.0575633 -0.0911696 11.3924)
(0.0758051 -0.0913087 11.3855)
(0.0937233 -0.0913234 11.3794)
(0.11075 -0.0917972 11.3729)
(0.127273 -0.0912637 11.3672)
(0.142364 -0.0906467 11.3603)
(0.157257 -0.0870127 11.3562)
(0.170506 -0.0882469 11.3508)
(-0.0562684 -0.071935 11.4322)
(-0.0387199 -0.0714392 11.4243)
(-0.0198248 -0.0735883 11.4181)
(-0.0010496 -0.0741512 11.4104)
(0.0182479 -0.0744945 11.4033)
(0.0375237 -0.07449 11.3958)
(0.0569693 -0.0748307 11.3892)
(0.0759894 -0.074846 11.3823)
(0.0947382 -0.0747295 11.3766)
(0.11263 -0.0751318 11.3707)
(0.12967 -0.0746425 11.3649)
(0.145344 -0.0741145 11.3584)
(0.160261 -0.0710364 11.353)
(0.173943 -0.0719834 11.3491)
(-0.0565779 -0.0562067 11.4296)
(-0.0389841 -0.0555922 11.422)
(-0.0201075 -0.0574087 11.4155)
(-0.0014415 -0.0577287 11.4075)
(0.0178659 -0.0578666 11.4002)
(0.0372441 -0.0577139 11.3928)
(0.0568835 -0.0578724 11.3861)
(0.0761608 -0.0578381 11.3793)
(0.095163 -0.0577124 11.3735)
(0.113295 -0.0580188 11.3677)
(0.130436 -0.0575017 11.3619)
(0.146303 -0.0569023 11.356)
(0.16121 -0.0542978 11.3505)
(0.175044 -0.0543158 11.347)
(-0.0565275 -0.0396915 11.4268)
(-0.0388007 -0.0391605 11.4194)
(-0.0201016 -0.0403485 11.4128)
(-0.00158013 -0.0403937 11.4049)
(0.0176286 -0.0403605 11.3975)
(0.037005 -0.0401261 11.3901)
(0.0567097 -0.040166 11.3834)
(0.0761176 -0.0400881 11.3767)
(0.0952248 -0.0399392 11.3709)
(0.11349 -0.0401049 11.3652)
(0.130668 -0.0396421 11.3594)
(0.14678 -0.0390603 11.354)
(0.161797 -0.0370783 11.3483)
(0.176123 -0.036477 11.3446)
(-0.0558737 -0.0226889 11.424)
(-0.0379318 -0.0220934 11.417)
(-0.0195503 -0.0225706 11.4101)
(-0.0011802 -0.0223783 11.4022)
(0.0178819 -0.0221895 11.3949)
(0.0371715 -0.0219025 11.3875)
(0.0568136 -0.0218478 11.3809)
(0.0762006 -0.0217481 11.3742)
(0.0952969 -0.0216187 11.3684)
(0.113573 -0.0216898 11.3628)
(0.130773 -0.0213439 11.3571)
(0.146964 -0.0208872 11.3518)
(0.162157 -0.0195393 11.3463)
(0.176708 -0.0188148 11.3419)
(-0.0552384 -0.00533304 11.4217)
(-0.0372239 -0.00448322 11.4151)
(-0.0191145 -0.00422836 11.4079)
(-0.000810691 -0.00385096 11.4001)
(0.0181746 -0.00353894 11.3928)
(0.0374249 -0.00324954 11.3854)
(0.0570217 -0.00313907 11.3787)
(0.076381 -0.00304665 11.3721)
(0.0954623 -0.00296285 11.3663)
(0.11374 -0.00298066 11.3607)
(0.130991 -0.00278306 11.3551)
(0.147232 -0.00258623 11.3497)
(0.162678 -0.00192151 11.3446)
(0.177435 -0.00150539 11.3397)
(-0.0543485 0.0122435 11.4199)
(-0.0364438 0.0134285 11.4132)
(-0.0185463 0.0143705 11.4059)
(-0.000373062 0.014892 11.3981)
(0.0184695 0.0152963 11.3909)
(0.0376055 0.0155436 11.3836)
(0.0570853 0.0156683 11.3769)
(0.0763601 0.0157122 11.3702)
(0.0953809 0.0157146 11.3645)
(0.113628 0.0157035 11.3589)
(0.130902 0.0157267 11.3534)
(0.147197 0.0155742 11.3481)
(0.162807 0.0154851 11.3431)
(0.17781 0.0154635 11.3384)
(-0.0531664 0.0300222 11.4185)
(-0.0356817 0.0314956 11.4114)
(-0.0179404 0.0330825 11.4045)
(2.89509e-05 0.0337257 11.3967)
(0.0187179 0.0341559 11.3895)
(0.0377315 0.0342978 11.3822)
(0.0571056 0.0343765 11.3755)
(0.0763082 0.0343178 11.3689)
(0.0952753 0.0342022 11.3632)
(0.11351 0.0341766 11.3576)
(0.130772 0.0339834 11.352)
(0.147163 0.0334634 11.3468)
(0.162732 0.032496 11.3414)
(0.177983 0.0321142 11.3374)
(-0.0523235 0.0485264 11.4172)
(-0.0353199 0.0501551 11.4101)
(-0.0177069 0.052185 11.4034)
(0.000121249 0.0528624 11.3958)
(0.0187343 0.0532176 11.3886)
(0.0376737 0.0531866 11.3813)
(0.0569808 0.0531504 11.3745)
(0.0761447 0.0529239 11.3679)
(0.0950915 0.0526235 11.362)
(0.113373 0.0525571 11.3565)
(0.130694 0.0521024 11.3508)
(0.147208 0.0513084 11.3456)
(0.162717 0.0494413 11.3398)
(0.178002 0.0490633 11.337)
(-0.0509658 0.066933 11.4164)
(-0.0343626 0.068307 11.4095)
(-0.0169963 0.0706734 11.4027)
(0.000601673 0.0713243 11.3949)
(0.0190076 0.0715797 11.3877)
(0.0377179 0.0713939 11.3804)
(0.0568165 0.0712371 11.3736)
(0.0758114 0.0708178 11.367)
(0.0946655 0.0703061 11.3611)
(0.112905 0.0701482 11.3554)
(0.130337 0.0693899 11.3496)
(0.146808 0.0683307 11.3441)
(0.162379 0.0656105 11.3384)
(0.177429 0.065705 11.3361)
(-0.0495196 0.085378 11.4153)
(-0.0332298 0.0864113 11.4082)
(-0.016133 0.0890099 11.4015)
(0.0012088 0.0895479 11.3942)
(0.0192466 0.0896327 11.3874)
(0.0375708 0.0892425 11.3801)
(0.0562758 0.0889135 11.3732)
(0.0749564 0.0882519 11.3665)
(0.0935687 0.0874756 11.3607)
(0.111738 0.0871567 11.355)
(0.129245 0.0861259 11.3492)
(0.145731 0.0848761 11.343)
(0.161394 0.081398 11.3374)
(0.176622 0.0821097 11.3349)
(-0.0461909 0.103197 11.416)
(-0.0299434 0.10438 11.4086)
(-0.0134959 0.107416 11.4012)
(0.00340521 0.107803 11.3938)
(0.0207341 0.107654 11.3869)
(0.0382412 0.106957 11.3797)
(0.056092 0.106389 11.3728)
(0.073882 0.105447 11.3659)
(0.0915853 0.104314 11.3595)
(0.108938 0.103595 11.3532)
(0.125973 0.102237 11.3477)
(0.141934 0.100677 11.3414)
(0.157518 0.0965007 11.3373)
(0.17265 0.0971482 11.3337)
(-0.042385 0.120174 11.4162)
(-0.0303305 0.122391 11.408)
(-0.0150514 0.124702 11.4014)
(0.00141983 0.124877 11.394)
(0.0185773 0.124812 11.3865)
(0.0359228 0.124125 11.379)
(0.0534539 0.123522 11.3721)
(0.0710393 0.122456 11.3659)
(0.0886714 0.121014 11.3604)
(0.106366 0.119847 11.3547)
(0.12399 0.118022 11.349)
(0.141249 0.116382 11.343)
(0.157471 0.111688 11.3388)
(0.173083 0.111462 11.3349)
(-0.0758046 -0.109029 10.626)
(-0.0598194 -0.109915 10.6214)
(-0.0422483 -0.112727 10.6182)
(-0.0235506 -0.11335 10.6148)
(-0.00442211 -0.114023 10.6111)
(0.0146987 -0.114453 10.607)
(0.0336344 -0.115125 10.6029)
(0.0522039 -0.115416 10.5988)
(0.0703427 -0.115437 10.5951)
(0.0880253 -0.115651 10.5911)
(0.105223 -0.11498 10.5867)
(0.121735 -0.114449 10.5818)
(0.137175 -0.110171 10.5785)
(0.151133 -0.111248 10.5753)
(-0.0760767 -0.0954795 10.6229)
(-0.0591689 -0.0949174 10.6193)
(-0.0415717 -0.097726 10.6162)
(-0.0233176 -0.0982337 10.6129)
(-0.00434729 -0.0985475 10.6098)
(0.0149196 -0.0987067 10.606)
(0.0342972 -0.0990753 10.6022)
(0.0533683 -0.0992033 10.5979)
(0.0718968 -0.0991741 10.5936)
(0.0895639 -0.0995125 10.589)
(0.106409 -0.0990398 10.5845)
(0.121941 -0.0984952 10.5794)
(0.136893 -0.0947292 10.5759)
(0.150863 -0.0957076 10.5732)
(-0.0789149 -0.0801542 10.6217)
(-0.0619806 -0.0794742 10.6182)
(-0.0438093 -0.0817264 10.6159)
(-0.025217 -0.0820778 10.6124)
(-0.00580005 -0.0822016 10.6093)
(0.0139518 -0.0822317 10.6054)
(0.0338229 -0.0824091 10.6014)
(0.0534941 -0.0824453 10.5973)
(0.0727276 -0.0823684 10.5934)
(0.0912218 -0.0827095 10.5893)
(0.108732 -0.0822515 10.5847)
(0.125051 -0.0817814 10.5799)
(0.140239 -0.0786897 10.5751)
(0.154779 -0.0791242 10.5732)
(-0.0786987 -0.0637145 10.6212)
(-0.0618225 -0.0634759 10.6178)
(-0.0438121 -0.0650684 10.6153)
(-0.0254141 -0.0651927 10.6116)
(-0.00607455 -0.0650981 10.6083)
(0.0137331 -0.0649861 10.6046)
(0.033754 -0.0650117 10.6006)
(0.053646 -0.0650047 10.5966)
(0.0731217 -0.0649237 10.5926)
(0.0918332 -0.0651728 10.5884)
(0.109486 -0.0647225 10.5839)
(0.125967 -0.0641655 10.5794)
(0.141188 -0.0617288 10.5746)
(0.155728 -0.0611318 10.5727)
(-0.0783747 -0.0465798 10.6203)
(-0.061446 -0.0465548 10.6169)
(-0.0436534 -0.0474135 10.6146)
(-0.0254133 -0.0473354 10.6109)
(-0.00618653 -0.0471067 10.6076)
(0.0135953 -0.046927 10.6039)
(0.0336216 -0.0468711 10.5999)
(0.053576 -0.0468333 10.5959)
(0.0731404 -0.0467286 10.592)
(0.0919896 -0.0468462 10.5879)
(0.109749 -0.0464348 10.5833)
(0.126476 -0.0458552 10.5791)
(0.141872 -0.0440553 10.5742)
(0.15676 -0.0428996 10.5717)
(-0.0774495 -0.0289362 10.6192)
(-0.0604397 -0.0287546 10.6162)
(-0.04291 -0.0289409 10.6136)
(-0.0248652 -0.028704 10.6099)
(-0.0058457 -0.0283984 10.6067)
(0.0137889 -0.028186 10.603)
(0.0337161 -0.0280779 10.5991)
(0.0536333 -0.0280262 10.5951)
(0.0732006 -0.0279175 10.5912)
(0.0920759 -0.0279281 10.5871)
(0.109885 -0.0275868 10.5825)
(0.126683 -0.027059 10.5783)
(0.142295 -0.0258123 10.5736)
(0.157323 -0.0246117 10.5703)
(-0.0767415 -0.0107763 10.6185)
(-0.0597783 -0.0101818 10.6157)
(-0.0424301 -0.00980704 10.6129)
(-0.0244587 -0.00944122 10.6092)
(-0.00553865 -0.00909583 10.6059)
(0.0140192 -0.0088876 10.6023)
(0.0338955 -0.00876451 10.5983)
(0.0537978 -0.00872265 10.5943)
(0.0733735 -0.00862806 10.5904)
(0.0922785 -0.0085729 10.5863)
(0.11017 -0.00830968 10.5818)
(0.127056 -0.007968 10.5774)
(0.142976 -0.00724138 10.5731)
(0.15819 -0.00646978 10.569)
(-0.0758435 0.00779569 10.618)
(-0.0589918 0.00888638 10.6151)
(-0.0418305 0.00973295 10.6121)
(-0.0240335 0.010195 10.6084)
(-0.00528136 0.0105516 10.605)
(0.0141414 0.0107242 10.6014)
(0.033923 0.0108263 10.5974)
(0.053775 0.0108249 10.5934)
(0.0733365 0.0108646 10.5895)
(0.0922641 0.0109242 10.5854)
(0.110233 0.0110581 10.5809)
(0.127239 0.0110711 10.5765)
(0.143366 0.0112178 10.5723)
(0.158841 0.0113688 10.5683)
(-0.0748001 0.0267062 10.6175)
(-0.0582924 0.0282077 10.6141)
(-0.0412998 0.0295005 10.6113)
(-0.0237068 0.0299963 10.6076)
(-0.00510178 0.0302946 10.6042)
(0.0142045 0.0303661 10.6005)
(0.0339181 0.0303847 10.5965)
(0.0537405 0.0302887 10.5925)
(0.0733001 0.0302247 10.5886)
(0.092252 0.0302654 10.5845)
(0.110242 0.0302263 10.58)
(0.127347 0.0298953 10.5757)
(0.143453 0.0292908 10.5709)
(0.1592 0.0288852 10.5676)
(-0.0742384 0.0458911 10.6168)
(-0.0581392 0.0474769 10.6131)
(-0.0412554 0.0491684 10.6105)
(-0.0237588 0.0496171 10.6068)
(-0.00518505 0.0497955 10.6034)
(0.0140874 0.0497212 10.5996)
(0.0337869 0.049612 10.5956)
(0.0536164 0.049385 10.5916)
(0.0732084 0.0491704 10.5876)
(0.0922393 0.0491844 10.5835)
(0.11032 0.0489184 10.5789)
(0.127573 0.048332 10.5747)
(0.143635 0.0468052 10.5695)
(0.159519 0.0462104 10.5674)
(-0.0731888 0.0651519 10.6161)
(-0.0574638 0.0664675 10.6123)
(-0.0407826 0.0685202 10.6095)
(-0.0234861 0.0688333 10.6055)
(-0.00508346 0.068824 10.6022)
(0.0140139 0.0685659 10.5984)
(0.0335717 0.0682904 10.5943)
(0.0533013 0.0678937 10.5903)
(0.0728547 0.0674761 10.5864)
(0.0918902 0.0674032 10.5822)
(0.110075 0.0668579 10.5777)
(0.12734 0.0660338 10.5732)
(0.14348 0.0635805 10.5681)
(0.159204 0.0633209 10.5666)
(-0.0722478 0.0841368 10.6148)
(-0.0567639 0.0848351 10.6107)
(-0.0403232 0.0872191 10.608)
(-0.0232084 0.0873965 10.6045)
(-0.00502196 0.087201 10.6013)
(0.0138413 0.0867775 10.5975)
(0.033118 0.0863209 10.5933)
(0.0525987 0.0857265 10.5893)
(0.0719773 0.0850472 10.5855)
(0.0909902 0.084798 10.5814)
(0.109284 0.0839302 10.5769)
(0.126608 0.0829629 10.572)
(0.14282 0.0795828 10.567)
(0.158649 0.0801941 10.5654)
(-0.0683815 0.102176 10.6147)
(-0.0532683 0.102548 10.6104)
(-0.037639 0.105377 10.6065)
(-0.0212689 0.105421 10.6029)
(-0.00391515 0.105013 10.5996)
(0.0141976 0.104387 10.596)
(0.0328249 0.103705 10.592)
(0.0516855 0.102878 10.5879)
(0.0703701 0.101854 10.5836)
(0.0886707 0.10124 10.5792)
(0.106429 0.10009 10.575)
(0.123057 0.0988262 10.57)
(0.13898 0.0946849 10.5665)
(0.154348 0.0956541 10.5644)
(-0.0679208 0.119481 10.6145)
(-0.0546861 0.119606 10.6096)
(-0.0391575 0.122398 10.6063)
(-0.0224021 0.122329 10.6025)
(-0.00495537 0.121949 10.5986)
(0.0128817 0.121263 10.5945)
(0.0309581 0.120408 10.5904)
(0.0493107 0.119457 10.5869)
(0.0676712 0.118211 10.5836)
(0.086059 0.117186 10.5799)
(0.104368 0.11561 10.5758)
(0.122344 0.114297 10.5712)
(0.139172 0.109334 10.5677)
(0.155529 0.110057 10.5649)
(-0.0832668 -0.110739 9.90339)
(-0.0672211 -0.109133 9.90262)
(-0.0502901 -0.112291 9.90244)
(-0.0328228 -0.112169 9.90195)
(-0.015221 -0.111912 9.90082)
(0.00223828 -0.111751 9.89901)
(0.0198293 -0.111831 9.89643)
(0.0371186 -0.111882 9.89396)
(0.054149 -0.111857 9.89117)
(0.0709968 -0.112203 9.88808)
(0.0876561 -0.111889 9.88424)
(0.104115 -0.11196 9.87975)
(0.119907 -0.107732 9.87599)
(0.135639 -0.109618 9.87312)
(-0.0818633 -0.0954219 9.90316)
(-0.0661023 -0.0941229 9.90272)
(-0.049636 -0.0965867 9.90251)
(-0.0326776 -0.0965112 9.9023)
(-0.0151704 -0.0961717 9.90176)
(0.00237547 -0.0959912 9.90056)
(0.0204003 -0.0959285 9.8984)
(0.0382051 -0.095858 9.8958)
(0.0556182 -0.0957091 9.89241)
(0.0725348 -0.0959943 9.8885)
(0.0888774 -0.095772 9.88441)
(0.104265 -0.0956799 9.87963)
(0.119189 -0.0924353 9.87591)
(0.133963 -0.0934429 9.87366)
(-0.08504 -0.079175 9.90443)
(-0.0684203 -0.078573 9.90377)
(-0.0513443 -0.0805017 9.90471)
(-0.0338677 -0.080421 9.90435)
(-0.0159081 -0.0800688 9.90382)
(0.00200373 -0.0798675 9.90258)
(0.0202302 -0.0796474 9.90009)
(0.0383909 -0.0795846 9.89766)
(0.0562476 -0.0795063 9.89474)
(0.0737848 -0.0798679 9.89138)
(0.0907172 -0.0796455 9.88719)
(0.106961 -0.0795382 9.88269)
(0.122225 -0.0769554 9.87756)
(0.137787 -0.0772158 9.87582)
(-0.0842457 -0.0624936 9.90601)
(-0.0678227 -0.0626858 9.9055)
(-0.0509998 -0.0638771 9.90634)
(-0.0337491 -0.0637476 9.90563)
(-0.015946 -0.0633613 9.90503)
(0.00200953 -0.0631534 9.90394)
(0.0202516 -0.0629039 9.90158)
(0.0385978 -0.0628582 9.8992)
(0.0566122 -0.0627852 9.89621)
(0.0742454 -0.0630403 9.89272)
(0.0912033 -0.0628303 9.88854)
(0.107482 -0.0625647 9.88434)
(0.122727 -0.06073 9.8793)
(0.138065 -0.060012 9.87722)
(-0.0837151 -0.045499 9.90707)
(-0.0673278 -0.0458859 9.90665)
(-0.0506969 -0.046513 9.90763)
(-0.0335537 -0.0464055 9.90691)
(-0.0158547 -0.0460628 9.90628)
(0.00209542 -0.0458854 9.90525)
(0.0202248 -0.0456571 9.9028)
(0.038567 -0.0456256 9.90047)
(0.0565787 -0.0455579 9.89758)
(0.0742527 -0.0457003 9.89418)
(0.0912536 -0.0454896 9.88997)
(0.107694 -0.0451144 9.88588)
(0.1231 -0.0438372 9.88073)
(0.138587 -0.0427319 9.87797)
(-0.0827109 -0.0283061 9.90757)
(-0.0664416 -0.0284855 9.90767)
(-0.04997 -0.02865 9.9083)
(-0.0329919 -0.0285348 9.90754)
(-0.0154776 -0.0282597 9.90692)
(0.0023412 -0.0281119 9.90598)
(0.0203445 -0.0279358 9.90359)
(0.0386226 -0.027922 9.90127)
(0.0565866 -0.0278561 9.89838)
(0.074225 -0.0278985 9.89491)
(0.0912284 -0.0277144 9.89073)
(0.107672 -0.0273384 9.8865)
(0.123273 -0.0265051 9.88164)
(0.138658 -0.0254636 9.87792)
(-0.0821507 -0.0108494 9.90806)
(-0.0659974 -0.0105605 9.90846)
(-0.049589 -0.0103464 9.90881)
(-0.0326623 -0.0101531 9.90807)
(-0.0152225 -0.0099253 9.90741)