/*--------------------------------*- C++ -*----------------------------------*\
| =========                 |                                                 |
| \\      /  F ield         | OpenFOAM: The Open Source CFD Toolbox           |
|  \\    /   O peration     | Version:  v2106                                 |
|   \\  /    A nd           | Website:  www.openfoam.com                      |
|    \\/     M anipulation  |                                                 |
\*---------------------------------------------------------------------------*/
FoamFile
{
    version     2.0;
    format      ascii;
    arch        "LSB;label=32;scalar=64";
    class       volScalarField;
    location    "0.000178";
    object      k;
}
// * * * * * * * * * * * * * * * * * * * * * * * * * * * * * * * * * * * * * //

dimensions      [0 2 -2 0 0 0 0];

internalField   nonuniform List<scalar> 
17924
(
2.48607e-12
2.48549e-12
2.48543e-12
2.48544e-12
2.48578e-12
2.48571e-12
2.48568e-12
2.48562e-12
2.48557e-12
2.48551e-12
2.48545e-12
2.48638e-12
2.48623e-12
2.48619e-12
2.48612e-12
2.48606e-12
2.486e-12
2.48594e-12
2.48697e-12
2.48672e-12
2.48666e-12
2.48659e-12
2.48654e-12
2.48649e-12
2.48644e-12
2.48759e-12
2.48722e-12
2.48713e-12
2.48707e-12
2.48702e-12
2.48697e-12
2.48693e-12
2.48816e-12
2.48768e-12
2.48758e-12
2.48752e-12
2.48749e-12
2.48745e-12
2.4874e-12
2.4887e-12
2.48816e-12
2.48804e-12
2.48799e-12
2.48796e-12
2.48792e-12
2.48787e-12
2.4892e-12
2.48861e-12
2.48849e-12
2.48845e-12
2.48842e-12
2.48839e-12
2.48834e-12
2.48968e-12
2.48907e-12
2.48895e-12
2.48893e-12
2.4889e-12
2.48886e-12
2.48882e-12
2.49014e-12
2.48952e-12
2.48942e-12
2.4894e-12
2.48937e-12
2.48934e-12
2.4893e-12
2.49061e-12
2.48999e-12
2.48989e-12
2.48988e-12
2.48985e-12
2.48983e-12
2.48979e-12
2.49106e-12
2.49047e-12
2.49038e-12
2.49037e-12
2.49035e-12
2.49033e-12
2.4903e-12
2.4915e-12
2.49097e-12
2.49089e-12
2.49088e-12
2.49086e-12
2.49084e-12
2.49081e-12
2.4919e-12
2.49145e-12
2.4914e-12
2.49141e-12
2.4914e-12
2.49139e-12
2.49137e-12
2.49243e-12
2.49199e-12
2.49197e-12
2.49201e-12
2.49207e-12
2.4921e-12
2.4921e-12
2.48653e-12
2.48647e-12
2.48641e-12
2.48631e-12
2.4862e-12
2.48607e-12
2.48595e-12
2.48583e-12
2.48571e-12
2.4856e-12
2.4855e-12
2.48539e-12
2.48529e-12
2.48516e-12
2.48689e-12
2.4868e-12
2.48673e-12
2.48661e-12
2.48649e-12
2.48637e-12
2.48625e-12
2.48613e-12
2.48601e-12
2.4859e-12
2.48581e-12
2.48571e-12
2.48561e-12
2.48554e-12
2.48719e-12
2.48708e-12
2.487e-12
2.48689e-12
2.48678e-12
2.48666e-12
2.48655e-12
2.48643e-12
2.48632e-12
2.48621e-12
2.4861e-12
2.486e-12
2.4859e-12
2.48585e-12
2.48749e-12
2.48737e-12
2.48729e-12
2.48718e-12
2.48707e-12
2.48695e-12
2.48684e-12
2.48672e-12
2.48661e-12
2.48649e-12
2.48638e-12
2.48628e-12
2.48618e-12
2.48612e-12
2.48775e-12
2.48764e-12
2.48756e-12
2.48746e-12
2.48735e-12
2.48724e-12
2.48713e-12
2.48701e-12
2.4869e-12
2.48678e-12
2.48667e-12
2.48656e-12
2.48645e-12
2.48637e-12
2.48804e-12
2.48793e-12
2.48785e-12
2.48775e-12
2.48765e-12
2.48753e-12
2.48742e-12
2.4873e-12
2.48718e-12
2.48706e-12
2.48695e-12
2.48683e-12
2.48671e-12
2.48662e-12
2.48833e-12
2.48822e-12
2.48814e-12
2.48805e-12
2.48794e-12
2.48783e-12
2.48771e-12
2.48759e-12
2.48747e-12
2.48734e-12
2.48723e-12
2.4871e-12
2.48699e-12
2.48688e-12
2.48863e-12
2.48853e-12
2.48844e-12
2.48835e-12
2.48824e-12
2.48813e-12
2.488e-12
2.48788e-12
2.48775e-12
2.48763e-12
2.48751e-12
2.48738e-12
2.48727e-12
2.48715e-12
2.48894e-12
2.48883e-12
2.48875e-12
2.48866e-12
2.48854e-12
2.48843e-12
2.4883e-12
2.48818e-12
2.48805e-12
2.48792e-12
2.4878e-12
2.48767e-12
2.48756e-12
2.48743e-12
2.48927e-12
2.48916e-12
2.48907e-12
2.48898e-12
2.48886e-12
2.48874e-12
2.48861e-12
2.48849e-12
2.48836e-12
2.48823e-12
2.4881e-12
2.48797e-12
2.48787e-12
2.48773e-12
2.48961e-12
2.4895e-12
2.4894e-12
2.48931e-12
2.48919e-12
2.48907e-12
2.48894e-12
2.48881e-12
2.48868e-12
2.48855e-12
2.48843e-12
2.48829e-12
2.4882e-12
2.48806e-12
2.48996e-12
2.48985e-12
2.48975e-12
2.48965e-12
2.48953e-12
2.4894e-12
2.48927e-12
2.48914e-12
2.48901e-12
2.48888e-12
2.48877e-12
2.48864e-12
2.48854e-12
2.4884e-12
2.49028e-12
2.49019e-12
2.4901e-12
2.49e-12
2.48988e-12
2.48975e-12
2.48962e-12
2.48949e-12
2.48936e-12
2.48923e-12
2.48912e-12
2.48899e-12
2.48887e-12
2.48871e-12
2.49063e-12
2.49054e-12
2.49045e-12
2.49036e-12
2.49024e-12
2.49011e-12
2.48999e-12
2.48986e-12
2.48973e-12
2.4896e-12
2.48948e-12
2.48934e-12
2.4892e-12
2.48905e-12
2.48734e-12
2.48725e-12
2.48717e-12
2.48704e-12
2.48689e-12
2.48673e-12
2.48657e-12
2.4864e-12
2.48624e-12
2.48607e-12
2.48591e-12
2.48575e-12
2.48559e-12
2.48538e-12
2.4875e-12
2.4874e-12
2.48731e-12
2.48717e-12
2.48702e-12
2.48686e-12
2.48669e-12
2.48653e-12
2.48637e-12
2.48621e-12
2.48606e-12
2.4859e-12
2.48574e-12
2.48558e-12
2.48763e-12
2.48752e-12
2.48742e-12
2.48728e-12
2.48713e-12
2.48697e-12
2.48682e-12
2.48666e-12
2.48651e-12
2.48635e-12
2.4862e-12
2.48605e-12
2.4859e-12
2.48575e-12
2.48777e-12
2.48766e-12
2.48754e-12
2.4874e-12
2.48725e-12
2.4871e-12
2.48694e-12
2.48678e-12
2.48663e-12
2.48647e-12
2.48632e-12
2.48617e-12
2.48602e-12
2.48589e-12
2.48788e-12
2.48778e-12
2.48766e-12
2.48752e-12
2.48738e-12
2.48722e-12
2.48707e-12
2.48691e-12
2.48675e-12
2.48659e-12
2.48643e-12
2.48628e-12
2.48612e-12
2.48598e-12
2.48801e-12
2.48791e-12
2.4878e-12
2.48766e-12
2.48751e-12
2.48736e-12
2.4872e-12
2.48703e-12
2.48687e-12
2.48671e-12
2.48655e-12
2.48638e-12
2.48622e-12
2.48607e-12
2.48816e-12
2.48806e-12
2.48794e-12
2.4878e-12
2.48765e-12
2.48749e-12
2.48733e-12
2.48716e-12
2.487e-12
2.48683e-12
2.48666e-12
2.48649e-12
2.48633e-12
2.48616e-12
2.48833e-12
2.48822e-12
2.48809e-12
2.48795e-12
2.48779e-12
2.48763e-12
2.48746e-12
2.48729e-12
2.48712e-12
2.48694e-12
2.48677e-12
2.4866e-12
2.48643e-12
2.48626e-12
2.4885e-12
2.48838e-12
2.48825e-12
2.48811e-12
2.48794e-12
2.48777e-12
2.4876e-12
2.48742e-12
2.48725e-12
2.48707e-12
2.48689e-12
2.48671e-12
2.48653e-12
2.48636e-12
2.48869e-12
2.48857e-12
2.48842e-12
2.48827e-12
2.4881e-12
2.48792e-12
2.48774e-12
2.48756e-12
2.48738e-12
2.4872e-12
2.48702e-12
2.48683e-12
2.48665e-12
2.48647e-12
2.48888e-12
2.48875e-12
2.48859e-12
2.48844e-12
2.48826e-12
2.48808e-12
2.48789e-12
2.48771e-12
2.48752e-12
2.48734e-12
2.48715e-12
2.48696e-12
2.48678e-12
2.48658e-12
2.48907e-12
2.48893e-12
2.48877e-12
2.48861e-12
2.48843e-12
2.48824e-12
2.48805e-12
2.48785e-12
2.48766e-12
2.48747e-12
2.48728e-12
2.48709e-12
2.4869e-12
2.48668e-12
2.48923e-12
2.4891e-12
2.48895e-12
2.48878e-12
2.48859e-12
2.48839e-12
2.4882e-12
2.48801e-12
2.48781e-12
2.48762e-12
2.48742e-12
2.48722e-12
2.487e-12
2.48676e-12
2.48942e-12
2.48928e-12
2.48912e-12
2.48895e-12
2.48876e-12
2.48857e-12
2.48837e-12
2.48818e-12
2.48798e-12
2.48777e-12
2.48757e-12
2.48734e-12
2.48711e-12
2.48685e-12
2.48796e-12
2.48788e-12
2.48778e-12
2.48763e-12
2.48746e-12
2.48728e-12
2.48708e-12
2.48688e-12
2.48667e-12
2.48646e-12
2.48626e-12
2.48604e-12
2.48582e-12
2.48555e-12
2.48799e-12
2.48788e-12
2.48778e-12
2.48761e-12
2.48744e-12
2.48725e-12
2.48706e-12
2.48686e-12
2.48666e-12
2.48645e-12
2.48625e-12
2.48604e-12
2.48584e-12
2.48561e-12
2.48798e-12
2.48787e-12
2.48774e-12
2.48758e-12
2.48741e-12
2.48723e-12
2.48704e-12
2.48685e-12
2.48666e-12
2.48646e-12
2.48626e-12
2.48606e-12
2.48587e-12
2.48566e-12
2.48797e-12
2.48786e-12
2.48772e-12
2.48756e-12
2.48738e-12
2.48721e-12
2.48702e-12
2.48683e-12
2.48664e-12
2.48645e-12
2.48626e-12
2.48606e-12
2.48587e-12
2.48568e-12
2.48795e-12
2.48783e-12
2.48769e-12
2.48753e-12
2.48737e-12
2.48719e-12
2.48701e-12
2.48682e-12
2.48663e-12
2.48643e-12
2.48624e-12
2.48604e-12
2.48584e-12
2.48564e-12
2.48794e-12
2.48782e-12
2.48768e-12
2.48752e-12
2.48735e-12
2.48717e-12
2.48699e-12
2.4868e-12
2.4866e-12
2.4864e-12
2.48621e-12
2.486e-12
2.4858e-12
2.4856e-12
2.48795e-12
2.48782e-12
2.48767e-12
2.48752e-12
2.48734e-12
2.48716e-12
2.48697e-12
2.48677e-12
2.48658e-12
2.48637e-12
2.48617e-12
2.48596e-12
2.48576e-12
2.48555e-12
2.48796e-12
2.48783e-12
2.48768e-12
2.48751e-12
2.48733e-12
2.48715e-12
2.48695e-12
2.48675e-12
2.48655e-12
2.48634e-12
2.48613e-12
2.48592e-12
2.48571e-12
2.48549e-12
2.48799e-12
2.48785e-12
2.48769e-12
2.48752e-12
2.48733e-12
2.48713e-12
2.48693e-12
2.48673e-12
2.48652e-12
2.4863e-12
2.48609e-12
2.48587e-12
2.48565e-12
2.48543e-12
2.48803e-12
2.48787e-12
2.4877e-12
2.48752e-12
2.48732e-12
2.48712e-12
2.48691e-12
2.4867e-12
2.48648e-12
2.48627e-12
2.48605e-12
2.48582e-12
2.48559e-12
2.48537e-12
2.48807e-12
2.4879e-12
2.48772e-12
2.48753e-12
2.48732e-12
2.48711e-12
2.48689e-12
2.48668e-12
2.48645e-12
2.48623e-12
2.486e-12
2.48577e-12
2.48553e-12
2.4853e-12
2.4881e-12
2.48792e-12
2.48773e-12
2.48753e-12
2.48731e-12
2.4871e-12
2.48687e-12
2.48665e-12
2.48641e-12
2.48618e-12
2.48594e-12
2.48571e-12
2.48546e-12
2.48522e-12
2.48811e-12
2.48792e-12
2.48773e-12
2.48752e-12
2.4873e-12
2.48708e-12
2.48685e-12
2.48662e-12
2.48637e-12
2.48613e-12
2.48588e-12
2.48564e-12
2.48536e-12
2.48509e-12
2.48809e-12
2.48791e-12
2.48773e-12
2.48751e-12
2.48729e-12
2.48706e-12
2.48682e-12
2.48659e-12
2.48635e-12
2.4861e-12
2.48584e-12
2.48558e-12
2.48528e-12
2.485e-12
2.48818e-12
2.4881e-12
2.48798e-12
2.48782e-12
2.48765e-12
2.48745e-12
2.48724e-12
2.48702e-12
2.48678e-12
2.48654e-12
2.4863e-12
2.48603e-12
2.48577e-12
2.48544e-12
2.48806e-12
2.48797e-12
2.48785e-12
2.48768e-12
2.4875e-12
2.4873e-12
2.48709e-12
2.48687e-12
2.48664e-12
2.48641e-12
2.48617e-12
2.48591e-12
2.48566e-12
2.48539e-12
2.48793e-12
2.48783e-12
2.48769e-12
2.48752e-12
2.48733e-12
2.48714e-12
2.48694e-12
2.48673e-12
2.48651e-12
2.48628e-12
2.48605e-12
2.4858e-12
2.48556e-12
2.4853e-12
2.48779e-12
2.48768e-12
2.48753e-12
2.48736e-12
2.48718e-12
2.48699e-12
2.48679e-12
2.48658e-12
2.48636e-12
2.48614e-12
2.48591e-12
2.48566e-12
2.48543e-12
2.48519e-12
2.48764e-12
2.48753e-12
2.48737e-12
2.48721e-12
2.48703e-12
2.48684e-12
2.48664e-12
2.48643e-12
2.48622e-12
2.48599e-12
2.48576e-12
2.48552e-12
2.48528e-12
2.48504e-12
2.4875e-12
2.48738e-12
2.48722e-12
2.48706e-12
2.48687e-12
2.48668e-12
2.48648e-12
2.48627e-12
2.48606e-12
2.48583e-12
2.4856e-12
2.48536e-12
2.48512e-12
2.48488e-12
2.48738e-12
2.48724e-12
2.48708e-12
2.48691e-12
2.48673e-12
2.48653e-12
2.48633e-12
2.48612e-12
2.48589e-12
2.48567e-12
2.48543e-12
2.48519e-12
2.48495e-12
2.4847e-12
2.48725e-12
2.4871e-12
2.48694e-12
2.48676e-12
2.48657e-12
2.48637e-12
2.48616e-12
2.48595e-12
2.48572e-12
2.48549e-12
2.48526e-12
2.48501e-12
2.48477e-12
2.48452e-12
2.48714e-12
2.48698e-12
2.4868e-12
2.48662e-12
2.48642e-12
2.48621e-12
2.486e-12
2.48578e-12
2.48554e-12
2.48531e-12
2.48506e-12
2.48482e-12
2.48456e-12
2.48432e-12
2.48702e-12
2.48684e-12
2.48666e-12
2.48646e-12
2.48626e-12
2.48604e-12
2.48582e-12
2.4856e-12
2.48536e-12
2.48512e-12
2.48487e-12
2.48462e-12
2.48435e-12
2.48412e-12
2.48691e-12
2.48671e-12
2.48652e-12
2.48631e-12
2.4861e-12
2.48588e-12
2.48564e-12
2.48541e-12
2.48516e-12
2.48491e-12
2.48465e-12
2.4844e-12
2.48413e-12
2.48389e-12
2.48676e-12
2.48656e-12
2.48636e-12
2.48615e-12
2.48592e-12
2.48569e-12
2.48545e-12
2.48521e-12
2.48496e-12
2.4847e-12
2.48444e-12
2.48418e-12
2.4839e-12
2.48365e-12
2.4866e-12
2.4864e-12
2.4862e-12
2.48598e-12
2.48574e-12
2.48551e-12
2.48526e-12
2.485e-12
2.48473e-12
2.48447e-12
2.48419e-12
2.48392e-12
2.48362e-12
2.48336e-12
2.48641e-12
2.48621e-12
2.48601e-12
2.48578e-12
2.48554e-12
2.4853e-12
2.48505e-12
2.48479e-12
2.48453e-12
2.48426e-12
2.48397e-12
2.48369e-12
2.48338e-12
2.4831e-12
2.48761e-12
2.48752e-12
2.4874e-12
2.48725e-12
2.48708e-12
2.4869e-12
2.4867e-12
2.48648e-12
2.48625e-12
2.48601e-12
2.48575e-12
2.48547e-12
2.4852e-12
2.48485e-12
2.48739e-12
2.4873e-12
2.48717e-12
2.48701e-12
2.48683e-12
2.48665e-12
2.48644e-12
2.48623e-12
2.486e-12
2.48575e-12
2.4855e-12
2.48523e-12
2.48496e-12
2.48466e-12
2.48716e-12
2.48706e-12
2.48691e-12
2.48674e-12
2.48657e-12
2.48639e-12
2.48619e-12
2.48598e-12
2.48575e-12
2.48552e-12
2.48527e-12
2.48501e-12
2.48475e-12
2.48447e-12
2.48692e-12
2.4868e-12
2.48665e-12
2.48649e-12
2.48631e-12
2.48612e-12
2.48593e-12
2.48572e-12
2.48549e-12
2.48525e-12
2.48501e-12
2.48475e-12
2.4845e-12
2.48424e-12
2.48667e-12
2.48655e-12
2.48639e-12
2.48622e-12
2.48605e-12
2.48586e-12
2.48566e-12
2.48545e-12
2.48523e-12
2.48499e-12
2.48475e-12
2.4845e-12
2.48424e-12
2.48399e-12
2.48642e-12
2.48629e-12
2.48613e-12
2.48596e-12
2.48578e-12
2.48559e-12
2.48539e-12
2.48518e-12
2.48495e-12
2.48472e-12
2.48448e-12
2.48423e-12
2.48397e-12
2.48372e-12
2.48618e-12
2.48603e-12
2.48587e-12
2.4857e-12
2.48551e-12
2.48531e-12
2.48511e-12
2.48489e-12
2.48467e-12
2.48444e-12
2.4842e-12
2.48395e-12
2.4837e-12
2.48344e-12
2.48593e-12
2.48577e-12
2.4856e-12
2.48542e-12
2.48523e-12
2.48503e-12
2.48482e-12
2.4846e-12
2.48438e-12
2.48414e-12
2.4839e-12
2.48366e-12
2.4834e-12
2.48315e-12
2.48568e-12
2.48551e-12
2.48533e-12
2.48515e-12
2.48495e-12
2.48474e-12
2.48453e-12
2.4843e-12
2.48407e-12
2.48384e-12
2.48359e-12
2.48335e-12
2.48309e-12
2.48286e-12
2.48542e-12
2.48523e-12
2.48505e-12
2.48485e-12
2.48465e-12
2.48444e-12
2.48422e-12
2.484e-12
2.48376e-12
2.48352e-12
2.48327e-12
2.48303e-12
2.48277e-12
2.48254e-12
2.48516e-12
2.48496e-12
2.48477e-12
2.48457e-12
2.48436e-12
2.48414e-12
2.48391e-12
2.48368e-12
2.48343e-12
2.48319e-12
2.48293e-12
2.48269e-12
2.48243e-12
2.48222e-12
2.48487e-12
2.48466e-12
2.48446e-12
2.48425e-12
2.48404e-12
2.48381e-12
2.48358e-12
2.48335e-12
2.4831e-12
2.48285e-12
2.4826e-12
2.48235e-12
2.48208e-12
2.48187e-12
2.48458e-12
2.48436e-12
2.48417e-12
2.48395e-12
2.48372e-12
2.48349e-12
2.48325e-12
2.483e-12
2.48274e-12
2.48248e-12
2.48222e-12
2.48197e-12
2.4817e-12
2.48148e-12
2.48422e-12
2.48402e-12
2.48381e-12
2.4836e-12
2.48337e-12
2.48314e-12
2.4829e-12
2.48266e-12
2.4824e-12
2.48214e-12
2.48187e-12
2.48162e-12
2.48134e-12
2.48111e-12
2.48605e-12
2.48596e-12
2.48584e-12
2.4857e-12
2.48556e-12
2.48541e-12
2.48524e-12
2.48507e-12
2.48487e-12
2.48467e-12
2.48446e-12
2.48423e-12
2.48399e-12
2.48371e-12
2.48577e-12
2.48568e-12
2.48554e-12
2.4854e-12
2.48525e-12
2.48509e-12
2.48492e-12
2.48473e-12
2.48453e-12
2.48433e-12
2.48411e-12
2.48388e-12
2.48365e-12
2.48339e-12
2.48546e-12
2.48537e-12
2.48522e-12
2.48507e-12
2.48492e-12
2.48476e-12
2.48459e-12
2.48441e-12
2.48421e-12
2.48401e-12
2.48379e-12
2.48357e-12
2.48335e-12
2.48311e-12
2.48516e-12
2.48505e-12
2.4849e-12
2.48475e-12
2.48459e-12
2.48443e-12
2.48425e-12
2.48407e-12
2.48387e-12
2.48366e-12
2.48345e-12
2.48322e-12
2.483e-12
2.48278e-12
2.48484e-12
2.48472e-12
2.48457e-12
2.48442e-12
2.48425e-12
2.48409e-12
2.48391e-12
2.48372e-12
2.48353e-12
2.48332e-12
2.48311e-12
2.48289e-12
2.48267e-12
2.48245e-12
2.48453e-12
2.48439e-12
2.48423e-12
2.48408e-12
2.48391e-12
2.48374e-12
2.48356e-12
2.48337e-12
2.48317e-12
2.48297e-12
2.48276e-12
2.48254e-12
2.48233e-12
2.48211e-12
2.4842e-12
2.48406e-12
2.4839e-12
2.48373e-12
2.48356e-12
2.48339e-12
2.4832e-12
2.48301e-12
2.48281e-12
2.48261e-12
2.48241e-12
2.4822e-12
2.48198e-12
2.48177e-12
2.48386e-12
2.4837e-12
2.48354e-12
2.48338e-12
2.4832e-12
2.48302e-12
2.48284e-12
2.48264e-12
2.48245e-12
2.48225e-12
2.48204e-12
2.48183e-12
2.48162e-12
2.48142e-12
2.48352e-12
2.48335e-12
2.48319e-12
2.48302e-12
2.48284e-12
2.48265e-12
2.48246e-12
2.48227e-12
2.48207e-12
2.48187e-12
2.48167e-12
2.48147e-12
2.48126e-12
2.48107e-12
2.48316e-12
2.48298e-12
2.48282e-12
2.48264e-12
2.48246e-12
2.48227e-12
2.48208e-12
2.48189e-12
2.48169e-12
2.48149e-12
2.48128e-12
2.48109e-12
2.48088e-12
2.48071e-12
2.48281e-12
2.48262e-12
2.48245e-12
2.48226e-12
2.48208e-12
2.48189e-12
2.4817e-12
2.4815e-12
2.4813e-12
2.4811e-12
2.48089e-12
2.4807e-12
2.4805e-12
2.48035e-12
2.48242e-12
2.48222e-12
2.48205e-12
2.48187e-12
2.48168e-12
2.48149e-12
2.4813e-12
2.4811e-12
2.4809e-12
2.4807e-12
2.4805e-12
2.48031e-12
2.48012e-12
2.47997e-12
2.48205e-12
2.48185e-12
2.48168e-12
2.48149e-12
2.48129e-12
2.4811e-12
2.48089e-12
2.48069e-12
2.48049e-12
2.48029e-12
2.48008e-12
2.4799e-12
2.47971e-12
2.47958e-12
2.48159e-12
2.48142e-12
2.48124e-12
2.48106e-12
2.48087e-12
2.48068e-12
2.48048e-12
2.48029e-12
2.48009e-12
2.47989e-12
2.47969e-12
2.47951e-12
2.47931e-12
2.47918e-12
2.48357e-12
2.48348e-12
2.48336e-12
2.48325e-12
2.48314e-12
2.48304e-12
2.48293e-12
2.48281e-12
2.48269e-12
2.48257e-12
2.48244e-12
2.48231e-12
2.48217e-12
2.48201e-12
2.48325e-12
2.48317e-12
2.48304e-12
2.48293e-12
2.48281e-12
2.4827e-12
2.48258e-12
2.48245e-12
2.48232e-12
2.48219e-12
2.48205e-12
2.48191e-12
2.48177e-12
2.48161e-12
2.48292e-12
2.48283e-12
2.4827e-12
2.48258e-12
2.48246e-12
2.48234e-12
2.48222e-12
2.48209e-12
2.48197e-12
2.48183e-12
2.48169e-12
2.48156e-12
2.48142e-12
2.48126e-12
2.48258e-12
2.48248e-12
2.48235e-12
2.48223e-12
2.48211e-12
2.48199e-12
2.48186e-12
2.48173e-12
2.4816e-12
2.48146e-12
2.48132e-12
2.48118e-12
2.48104e-12
2.48089e-12
2.48224e-12
2.48213e-12
2.482e-12
2.48188e-12
2.48175e-12
2.48162e-12
2.48149e-12
2.48136e-12
2.48123e-12
2.48109e-12
2.48096e-12
2.48082e-12
2.48069e-12
2.48054e-12
2.48189e-12
2.48177e-12
2.48164e-12
2.48151e-12
2.48138e-12
2.48125e-12
2.48112e-12
2.48099e-12
2.48086e-12
2.48072e-12
2.48059e-12
2.48045e-12
2.48032e-12
2.48018e-12
2.48154e-12
2.48141e-12
2.48128e-12
2.48115e-12
2.48102e-12
2.48088e-12
2.48075e-12
2.48062e-12
2.48049e-12
2.48035e-12
2.48022e-12
2.48009e-12
2.47996e-12
2.47984e-12
2.48117e-12
2.48104e-12
2.4809e-12
2.48077e-12
2.48064e-12
2.48051e-12
2.48037e-12
2.48024e-12
2.48011e-12
2.47998e-12
2.47985e-12
2.47973e-12
2.4796e-12
2.47949e-12
2.4808e-12
2.48066e-12
2.48053e-12
2.48039e-12
2.48026e-12
2.48013e-12
2.48e-12
2.47987e-12
2.47974e-12
2.47961e-12
2.47949e-12
2.47937e-12
2.47925e-12
2.47915e-12
2.48042e-12
2.48027e-12
2.48014e-12
2.48001e-12
2.47988e-12
2.47975e-12
2.47962e-12
2.47949e-12
2.47936e-12
2.47924e-12
2.47912e-12
2.479e-12
2.47889e-12
2.47881e-12
2.48005e-12
2.47989e-12
2.47976e-12
2.47962e-12
2.4795e-12
2.47936e-12
2.47924e-12
2.47911e-12
2.47898e-12
2.47886e-12
2.47875e-12
2.47865e-12
2.47854e-12
2.47848e-12
2.47965e-12
2.47949e-12
2.47937e-12
2.47923e-12
2.4791e-12
2.47898e-12
2.47885e-12
2.47873e-12
2.47861e-12
2.47849e-12
2.47838e-12
2.47829e-12
2.47819e-12
2.47814e-12
2.47927e-12
2.47912e-12
2.47899e-12
2.47886e-12
2.47873e-12
2.4786e-12
2.47847e-12
2.47835e-12
2.47823e-12
2.47812e-12
2.47801e-12
2.47792e-12
2.47784e-12
2.47782e-12
2.47883e-12
2.47871e-12
2.47858e-12
2.47845e-12
2.47833e-12
2.47821e-12
2.47809e-12
2.47798e-12
2.47787e-12
2.47776e-12
2.47765e-12
2.47756e-12
2.47749e-12
2.47748e-12
2.48039e-12
2.48031e-12
2.48021e-12
2.48015e-12
2.48009e-12
2.48004e-12
2.48e-12
2.47996e-12
2.47992e-12
2.47989e-12
2.47987e-12
2.47984e-12
2.47982e-12
2.47979e-12
2.48008e-12
2.48001e-12
2.47992e-12
2.47985e-12
2.47978e-12
2.47973e-12
2.47968e-12
2.47963e-12
2.47958e-12
2.47955e-12
2.47951e-12
2.47947e-12
2.47945e-12
2.4794e-12
2.47975e-12
2.47969e-12
2.4796e-12
2.47953e-12
2.47946e-12
2.4794e-12
2.47935e-12
2.4793e-12
2.47925e-12
2.47921e-12
2.47917e-12
2.47913e-12
2.47912e-12
2.47906e-12
2.47944e-12
2.47937e-12
2.47928e-12
2.47921e-12
2.47914e-12
2.47908e-12
2.47902e-12
2.47897e-12
2.47892e-12
2.47888e-12
2.47883e-12
2.47879e-12
2.47877e-12
2.47871e-12
2.47912e-12
2.47905e-12
2.47896e-12
2.47889e-12
2.47882e-12
2.47875e-12
2.47869e-12
2.47864e-12
2.47859e-12
2.47855e-12
2.47851e-12
2.47847e-12
2.47844e-12
2.4784e-12
2.4788e-12
2.47872e-12
2.47863e-12
2.47856e-12
2.47849e-12
2.47843e-12
2.47837e-12
2.47831e-12
2.47826e-12
2.47822e-12
2.47819e-12
2.47815e-12
2.47812e-12
2.47808e-12
2.47848e-12
2.47839e-12
2.47831e-12
2.47824e-12
2.47817e-12
2.4781e-12
2.47804e-12
2.47799e-12
2.47794e-12
2.4779e-12
2.47787e-12
2.47784e-12
2.47781e-12
2.47779e-12
2.47815e-12
2.47806e-12
2.47798e-12
2.47791e-12
2.47784e-12
2.47778e-12
2.47772e-12
2.47767e-12
2.47763e-12
2.47759e-12
2.47756e-12
2.47754e-12
2.47751e-12
2.4775e-12
2.47783e-12
2.47773e-12
2.47766e-12
2.47759e-12
2.47752e-12
2.47746e-12
2.47741e-12
2.47736e-12
2.47732e-12
2.47729e-12
2.47726e-12
2.47724e-12
2.47722e-12
2.47722e-12
2.4775e-12
2.47741e-12
2.47733e-12
2.47727e-12
2.47721e-12
2.47715e-12
2.4771e-12
2.47706e-12
2.47702e-12
2.47699e-12
2.47697e-12
2.47695e-12
2.47693e-12
2.47695e-12
2.47719e-12
2.47709e-12
2.47702e-12
2.47695e-12
2.4769e-12
2.47684e-12
2.4768e-12
2.47676e-12
2.47672e-12
2.4767e-12
2.47668e-12
2.47668e-12
2.47667e-12
2.47669e-12
2.47686e-12
2.47676e-12
2.4767e-12
2.47664e-12
2.47659e-12
2.47654e-12
2.4765e-12
2.47646e-12
2.47644e-12
2.47642e-12
2.4764e-12
2.4764e-12
2.4764e-12
2.47643e-12
2.47657e-12
2.47647e-12
2.47641e-12
2.47634e-12
2.47629e-12
2.47624e-12
2.47621e-12
2.47618e-12
2.47615e-12
2.47614e-12
2.47613e-12
2.47615e-12
2.47616e-12
2.4762e-12
2.47623e-12
2.47615e-12
2.47609e-12
2.47603e-12
2.47599e-12
2.47595e-12
2.47592e-12
2.4759e-12
2.47588e-12
2.47588e-12
2.47588e-12
2.47589e-12
2.4759e-12
2.47594e-12
2.47676e-12
2.47672e-12
2.47668e-12
2.47667e-12
2.47667e-12
2.47668e-12
2.4767e-12
2.47673e-12
2.47677e-12
2.47682e-12
2.47688e-12
2.47694e-12
2.47703e-12
2.4771e-12
2.47648e-12
2.47647e-12
2.47645e-12
2.47643e-12
2.47643e-12
2.47643e-12
2.47645e-12
2.47648e-12
2.47652e-12
2.47656e-12
2.47662e-12
2.47667e-12
2.47674e-12
2.47679e-12
2.47623e-12
2.47623e-12
2.4762e-12
2.47619e-12
2.47618e-12
2.47619e-12
2.4762e-12
2.47623e-12
2.47627e-12
2.47631e-12
2.47637e-12
2.47642e-12
2.47649e-12
2.47653e-12
2.47598e-12
2.47598e-12
2.47596e-12
2.47595e-12
2.47594e-12
2.47595e-12
2.47596e-12
2.47599e-12
2.47602e-12
2.47607e-12
2.47612e-12
2.47617e-12
2.47623e-12
2.47628e-12
2.47575e-12
2.47574e-12
2.47572e-12
2.47571e-12
2.4757e-12
2.47571e-12
2.47572e-12
2.47575e-12
2.47579e-12
2.47583e-12
2.47588e-12
2.47594e-12
2.476e-12
2.47605e-12
2.47552e-12
2.4755e-12
2.47548e-12
2.47547e-12
2.47547e-12
2.47548e-12
2.47549e-12
2.47552e-12
2.47556e-12
2.4756e-12
2.47565e-12
2.47571e-12
2.47577e-12
2.47582e-12
2.47529e-12
2.47527e-12
2.47525e-12
2.47524e-12
2.47524e-12
2.47525e-12
2.47527e-12
2.4753e-12
2.47533e-12
2.47538e-12
2.47543e-12
2.47549e-12
2.47555e-12
2.47562e-12
2.47506e-12
2.47504e-12
2.47503e-12
2.47502e-12
2.47502e-12
2.47503e-12
2.47505e-12
2.47508e-12
2.47512e-12
2.47517e-12
2.47522e-12
2.47528e-12
2.47534e-12
2.47541e-12
2.47484e-12
2.47482e-12
2.47481e-12
2.47481e-12
2.47481e-12
2.47482e-12
2.47484e-12
2.47488e-12
2.47491e-12
2.47496e-12
2.47502e-12
2.47508e-12
2.47515e-12
2.47523e-12
2.47463e-12
2.4746e-12
2.4746e-12
2.4746e-12
2.4746e-12
2.47462e-12
2.47465e-12
2.47468e-12
2.47472e-12
2.47477e-12
2.47483e-12
2.4749e-12
2.47496e-12
2.47505e-12
2.47442e-12
2.47439e-12
2.47439e-12
2.47439e-12
2.47441e-12
2.47443e-12
2.47446e-12
2.47449e-12
2.47454e-12
2.47459e-12
2.47466e-12
2.47473e-12
2.4748e-12
2.47489e-12
2.47422e-12
2.47419e-12
2.47419e-12
2.4742e-12
2.47421e-12
2.47424e-12
2.47427e-12
2.47432e-12
2.47437e-12
2.47442e-12
2.47449e-12
2.47457e-12
2.47464e-12
2.47473e-12
2.47404e-12
2.47401e-12
2.47401e-12
2.47402e-12
2.47404e-12
2.47406e-12
2.4741e-12
2.47415e-12
2.4742e-12
2.47427e-12
2.47434e-12
2.47442e-12
2.47451e-12
2.4746e-12
2.47384e-12
2.47382e-12
2.47383e-12
2.47384e-12
2.47386e-12
2.47389e-12
2.47394e-12
2.47399e-12
2.47405e-12
2.47412e-12
2.47419e-12
2.47428e-12
2.47436e-12
2.47446e-12
2.47283e-12
2.47286e-12
2.47289e-12
2.47294e-12
2.473e-12
2.47306e-12
2.47313e-12
2.47322e-12
2.47331e-12
2.4734e-12
2.47351e-12
2.47363e-12
2.47376e-12
2.4739e-12
2.47268e-12
2.47272e-12
2.47276e-12
2.47281e-12
2.47287e-12
2.47293e-12
2.473e-12
2.47308e-12
2.47318e-12
2.47328e-12
2.47338e-12
2.4735e-12
2.47362e-12
2.47373e-12
2.47254e-12
2.47259e-12
2.47262e-12
2.47268e-12
2.47273e-12
2.4728e-12
2.47287e-12
2.47295e-12
2.47305e-12
2.47315e-12
2.47326e-12
2.47338e-12
2.4735e-12
2.47361e-12
2.47242e-12
2.47246e-12
2.4725e-12
2.47255e-12
2.47261e-12
2.47267e-12
2.47274e-12
2.47283e-12
2.47292e-12
2.47302e-12
2.47314e-12
2.47325e-12
2.47337e-12
2.47348e-12
2.4723e-12
2.47234e-12
2.47238e-12
2.47243e-12
2.47248e-12
2.47255e-12
2.47262e-12
2.47271e-12
2.4728e-12
2.4729e-12
2.47302e-12
2.47313e-12
2.47325e-12
2.47336e-12
2.47218e-12
2.47222e-12
2.47226e-12
2.47231e-12
2.47237e-12
2.47243e-12
2.47251e-12
2.47259e-12
2.47269e-12
2.47279e-12
2.4729e-12
2.47301e-12
2.47313e-12
2.47325e-12
2.47207e-12
2.47211e-12
2.47215e-12
2.4722e-12
2.47226e-12
2.47232e-12
2.4724e-12
2.47249e-12
2.47258e-12
2.47268e-12
2.47279e-12
2.47291e-12
2.47302e-12
2.47314e-12
2.47196e-12
2.472e-12
2.47204e-12
2.4721e-12
2.47216e-12
2.47222e-12
2.4723e-12
2.47239e-12
2.47248e-12
2.47258e-12
2.47269e-12
2.4728e-12
2.47292e-12
2.47304e-12
2.47186e-12
2.4719e-12
2.47195e-12
2.472e-12
2.47206e-12
2.47213e-12
2.47221e-12
2.4723e-12
2.47239e-12
2.47249e-12
2.4726e-12
2.47271e-12
2.47283e-12
2.47295e-12
2.47177e-12
2.4718e-12
2.47185e-12
2.47191e-12
2.47197e-12
2.47205e-12
2.47213e-12
2.47222e-12
2.47231e-12
2.47241e-12
2.47252e-12
2.47263e-12
2.47275e-12
2.47287e-12
2.47169e-12
2.47172e-12
2.47177e-12
2.47183e-12
2.4719e-12
2.47197e-12
2.47205e-12
2.47214e-12
2.47224e-12
2.47234e-12
2.47245e-12
2.47257e-12
2.47268e-12
2.4728e-12
2.47161e-12
2.47164e-12
2.4717e-12
2.47176e-12
2.47182e-12
2.4719e-12
2.47199e-12
2.47208e-12
2.47218e-12
2.47228e-12
2.47239e-12
2.47251e-12
2.47262e-12
2.47274e-12
2.47154e-12
2.47158e-12
2.47164e-12
2.4717e-12
2.47176e-12
2.47184e-12
2.47193e-12
2.47203e-12
2.47213e-12
2.47223e-12
2.47234e-12
2.47246e-12
2.47258e-12
2.4727e-12
2.47147e-12
2.47151e-12
2.47157e-12
2.47164e-12
2.47171e-12
2.47179e-12
2.47188e-12
2.47198e-12
2.47208e-12
2.47219e-12
2.4723e-12
2.47241e-12
2.47253e-12
2.47266e-12
2.46876e-12
2.46884e-12
2.46892e-12
2.46901e-12
2.46911e-12
2.4692e-12
2.4693e-12
2.4694e-12
2.46951e-12
2.46962e-12
2.46975e-12
2.46988e-12
2.47001e-12
2.47015e-12
2.46872e-12
2.46882e-12
2.4689e-12
2.46899e-12
2.46909e-12
2.46918e-12
2.46929e-12
2.46939e-12
2.4695e-12
2.46962e-12
2.46975e-12
2.46987e-12
2.47001e-12
2.47014e-12
2.46871e-12
2.4688e-12
2.46888e-12
2.46898e-12
2.46907e-12
2.46917e-12
2.46927e-12
2.46938e-12
2.4695e-12
2.46962e-12
2.46974e-12
2.46987e-12
2.47001e-12
2.47014e-12
2.4687e-12
2.46879e-12
2.46887e-12
2.46896e-12
2.46906e-12
2.46916e-12
2.46927e-12
2.46938e-12
2.46949e-12
2.46961e-12
2.46974e-12
2.46987e-12
2.47e-12
2.47013e-12
2.4687e-12
2.46878e-12
2.46887e-12
2.46896e-12
2.46905e-12
2.46915e-12
2.46926e-12
2.46937e-12
2.46949e-12
2.46961e-12
2.46973e-12
2.46987e-12
2.47e-12
2.47013e-12
2.46869e-12
2.46878e-12
2.46886e-12
2.46895e-12
2.46905e-12
2.46915e-12
2.46926e-12
2.46937e-12
2.46949e-12
2.46961e-12
2.46973e-12
2.46986e-12
2.46999e-12
2.47012e-12
2.46869e-12
2.46878e-12
2.46886e-12
2.46895e-12
2.46905e-12
2.46915e-12
2.46926e-12
2.46937e-12
2.46949e-12
2.46961e-12
2.46973e-12
2.46986e-12
2.46999e-12
2.47012e-12
2.46869e-12
2.46878e-12
2.46886e-12
2.46896e-12
2.46905e-12
2.46916e-12
2.46926e-12
2.46938e-12
2.46949e-12
2.46961e-12
2.46974e-12
2.46986e-12
2.46998e-12
2.47011e-12
2.4687e-12
2.46878e-12
2.46887e-12
2.46896e-12
2.46906e-12
2.46916e-12
2.46927e-12
2.46939e-12
2.4695e-12
2.46962e-12
2.46974e-12
2.46986e-12
2.46999e-12
2.47011e-12
2.46871e-12
2.46879e-12
2.46888e-12
2.46898e-12
2.46907e-12
2.46918e-12
2.46929e-12
2.4694e-12
2.46952e-12
2.46963e-12
2.46975e-12
2.46987e-12
2.46999e-12
2.47011e-12
2.46873e-12
2.46881e-12
2.4689e-12
2.469e-12
2.46909e-12
2.4692e-12
2.46931e-12
2.46942e-12
2.46953e-12
2.46965e-12
2.46977e-12
2.46989e-12
2.47001e-12
2.47012e-12
2.46875e-12
2.46883e-12
2.46893e-12
2.46902e-12
2.46912e-12
2.46922e-12
2.46933e-12
2.46944e-12
2.46956e-12
2.46967e-12
2.46979e-12
2.46991e-12
2.47002e-12
2.47014e-12
2.46878e-12
2.46887e-12
2.46896e-12
2.46905e-12
2.46915e-12
2.46926e-12
2.46936e-12
2.46948e-12
2.46959e-12
2.4697e-12
2.46982e-12
2.46994e-12
2.47005e-12
2.47017e-12
2.46881e-12
2.46889e-12
2.46899e-12
2.46909e-12
2.46919e-12
2.46929e-12
2.4694e-12
2.46951e-12
2.46962e-12
2.46973e-12
2.46985e-12
2.46996e-12
2.47008e-12
2.4702e-12
2.46459e-12
2.46468e-12
2.46479e-12
2.46488e-12
2.46499e-12
2.46509e-12
2.46518e-12
2.46528e-12
2.46538e-12
2.46548e-12
2.46558e-12
2.46569e-12
2.46579e-12
2.4659e-12
2.46465e-12
2.46474e-12
2.46485e-12
2.46495e-12
2.46506e-12
2.46516e-12
2.46527e-12
2.46537e-12
2.46547e-12
2.46558e-12
2.46568e-12
2.46579e-12
2.46589e-12
2.466e-12
2.46473e-12
2.46482e-12
2.46493e-12
2.46503e-12
2.46514e-12
2.46525e-12
2.46535e-12
2.46545e-12
2.46556e-12
2.46566e-12
2.46577e-12
2.46587e-12
2.46598e-12
2.46609e-12
2.4648e-12
2.4649e-12
2.46501e-12
2.46511e-12
2.46522e-12
2.46533e-12
2.46543e-12
2.46554e-12
2.46564e-12
2.46575e-12
2.46586e-12
2.46596e-12
2.46607e-12
2.46618e-12
2.46488e-12
2.46498e-12
2.46509e-12
2.46519e-12
2.4653e-12
2.46541e-12
2.46551e-12
2.46562e-12
2.46573e-12
2.46583e-12
2.46594e-12
2.46605e-12
2.46615e-12
2.46626e-12
2.46496e-12
2.46506e-12
2.46517e-12
2.46527e-12
2.46538e-12
2.46549e-12
2.46559e-12
2.4657e-12
2.46581e-12
2.46591e-12
2.46602e-12
2.46613e-12
2.46624e-12
2.46634e-12
2.46504e-12
2.46514e-12
2.46525e-12
2.46535e-12
2.46546e-12
2.46557e-12
2.46567e-12
2.46578e-12
2.46589e-12
2.46599e-12
2.4661e-12
2.4662e-12
2.46631e-12
2.46642e-12
2.46511e-12
2.46522e-12
2.46532e-12
2.46543e-12
2.46554e-12
2.46564e-12
2.46575e-12
2.46586e-12
2.46597e-12
2.46607e-12
2.46618e-12
2.46628e-12
2.46638e-12
2.46649e-12
2.46519e-12
2.4653e-12
2.4654e-12
2.46551e-12
2.46562e-12
2.46572e-12
2.46583e-12
2.46594e-12
2.46604e-12
2.46615e-12
2.46625e-12
2.46635e-12
2.46645e-12
2.46656e-12
2.46527e-12
2.46538e-12
2.46548e-12
2.46559e-12
2.46569e-12
2.4658e-12
2.46591e-12
2.46602e-12
2.46612e-12
2.46622e-12
2.46633e-12
2.46643e-12
2.46652e-12
2.46662e-12
2.46535e-12
2.46546e-12
2.46556e-12
2.46567e-12
2.46577e-12
2.46588e-12
2.46599e-12
2.46609e-12
2.4662e-12
2.4663e-12
2.4664e-12
2.4665e-12
2.46659e-12
2.46669e-12
2.46543e-12
2.46554e-12
2.46564e-12
2.46575e-12
2.46586e-12
2.46597e-12
2.46607e-12
2.46617e-12
2.46627e-12
2.46637e-12
2.46647e-12
2.46656e-12
2.46666e-12
2.46675e-12
2.46552e-12
2.46563e-12
2.46573e-12
2.46584e-12
2.46594e-12
2.46605e-12
2.46615e-12
2.46625e-12
2.46635e-12
2.46645e-12
2.46654e-12
2.46664e-12
2.46673e-12
2.46682e-12
2.46561e-12
2.46572e-12
2.46582e-12
2.46593e-12
2.46603e-12
2.46613e-12
2.46623e-12
2.46633e-12
2.46643e-12