/*--------------------------------*- C++ -*----------------------------------*\
| =========                 |                                                 |
| \\      /  F ield         | OpenFOAM: The Open Source CFD Toolbox           |
|  \\    /   O peration     | Version:  v2106                                 |
|   \\  /    A nd           | Website:  www.openfoam.com                      |
|    \\/     M anipulation  |                                                 |
\*---------------------------------------------------------------------------*/
FoamFile
{
    version     2.0;
    format      ascii;
    arch        "LSB;label=32;scalar=64";
    class       volScalarField;
    location    "0.000178";
    object      T;
}
// * * * * * * * * * * * * * * * * * * * * * * * * * * * * * * * * * * * * * //

dimensions      [0 0 0 1 0 0 0];

internalField   nonuniform List<scalar> 
17924
(
307.217
307.209
307.209
307.21
307.198
307.191
307.187
307.183
307.179
307.174
307.17
307.232
307.224
307.221
307.218
307.214
307.21
307.207
307.262
307.255
307.254
307.251
307.248
307.245
307.241
307.292
307.287
307.287
307.284
307.282
307.279
307.275
307.32
307.318
307.318
307.316
307.314
307.311
307.308
307.35
307.349
307.35
307.348
307.346
307.344
307.34
307.38
307.38
307.38
307.38
307.378
307.376
307.373
307.41
307.411
307.412
307.411
307.41
307.408
307.405
307.44
307.442
307.443
307.443
307.442
307.44
307.438
307.472
307.474
307.475
307.476
307.475
307.473
307.471
307.504
307.507
307.508
307.509
307.508
307.507
307.505
307.538
307.541
307.542
307.543
307.542
307.541
307.54
307.573
307.576
307.577
307.579
307.578
307.577
307.575
307.614
307.613
307.614
307.614
307.614
307.613
307.612
307.209
307.2
307.194
307.185
307.177
307.168
307.16
307.151
307.142
307.133
307.125
307.117
307.111
307.105
307.228
307.22
307.214
307.206
307.198
307.189
307.181
307.172
307.163
307.154
307.146
307.139
307.132
307.127
307.245
307.238
307.232
307.225
307.217
307.209
307.201
307.192
307.184
307.175
307.166
307.158
307.151
307.146
307.263
307.257
307.252
307.245
307.237
307.229
307.221
307.212
307.203
307.194
307.186
307.178
307.17
307.164
307.281
307.276
307.271
307.264
307.257
307.249
307.24
307.232
307.223
307.214
307.205
307.196
307.188
307.182
307.3
307.296
307.29
307.284
307.276
307.268
307.26
307.251
307.242
307.233
307.224
307.215
307.207
307.199
307.32
307.316
307.31
307.303
307.296
307.288
307.279
307.27
307.261
307.252
307.242
307.234
307.225
307.217
307.34
307.336
307.33
307.323
307.316
307.307
307.299
307.289
307.28
307.27
307.261
307.252
307.243
307.235
307.361
307.357
307.35
307.344
307.336
307.327
307.318
307.309
307.3
307.29
307.281
307.271
307.263
307.253
307.382
307.378
307.372
307.365
307.357
307.348
307.339
307.33
307.32
307.31
307.301
307.291
307.283
307.272
307.405
307.4
307.394
307.387
307.378
307.37
307.36
307.351
307.341
307.331
307.322
307.312
307.304
307.293
307.429
307.424
307.417
307.409
307.401
307.392
307.383
307.373
307.363
307.353
307.344
307.334
307.326
307.315
307.454
307.449
307.441
307.434
307.425
307.415
307.406
307.396
307.386
307.376
307.367
307.357
307.349
307.338
307.483
307.473
307.465
307.457
307.448
307.439
307.43
307.42
307.411
307.401
307.392
307.382
307.375
307.365
307.218
307.209
307.2
307.189
307.179
307.167
307.155
307.143
307.131
307.118
307.107
307.094
307.084
307.072
307.224
307.215
307.207
307.197
307.187
307.176
307.164
307.152
307.14
307.127
307.115
307.103
307.092
307.082
307.23
307.222
307.214
307.204
307.194
307.183
307.171
307.159
307.148
307.136
307.124
307.112
307.101
307.09
307.237
307.23
307.222
307.212
307.202
307.191
307.179
307.167
307.155
307.143
307.132
307.12
307.109
307.098
307.245
307.238
307.23
307.22
307.21
307.198
307.187
307.175
307.163
307.151
307.139
307.127
307.116
307.105
307.254
307.247
307.238
307.229
307.218
307.207
307.195
307.183
307.17
307.158
307.146
307.134
307.122
307.111
307.264
307.257
307.247
307.237
307.226
307.215
307.203
307.191
307.178
307.165
307.153
307.141
307.128
307.116
307.274
307.267
307.257
307.247
307.235
307.223
307.211
307.198
307.185
307.173
307.16
307.147
307.134
307.122
307.285
307.277
307.267
307.256
307.244
307.232
307.219
307.206
307.193
307.18
307.167
307.153
307.14
307.127
307.297
307.288
307.277
307.266
307.254
307.241
307.228
307.215
307.201
307.187
307.174
307.16
307.147
307.133
307.309
307.299
307.288
307.277
307.264
307.251
307.237
307.223
307.209
307.196
307.182
307.168
307.153
307.139
307.321
307.311
307.299
307.287
307.274
307.261
307.247
307.233
307.218
307.204
307.189
307.175
307.16
307.145
307.335
307.324
307.312
307.299
307.285
307.271
307.257
307.242
307.227
307.213
307.198
307.182
307.167
307.151
307.351
307.337
307.323
307.309
307.296
307.282
307.267
307.252
307.238
307.223
307.208
307.192
307.176
307.159
307.214
307.204
307.195
307.183
307.171
307.157
307.143
307.128
307.113
307.097
307.082
307.066
307.052
307.035
307.21
307.201
307.192
307.181
307.168
307.155
307.141
307.126
307.111
307.095
307.08
307.065
307.05
307.035
307.206
307.198
307.189
307.177
307.165
307.152
307.138
307.124
307.11
307.095
307.08
307.065
307.05
307.035
307.203
307.196
307.186
307.175
307.162
307.149
307.136
307.122
307.108
307.093
307.078
307.064
307.049
307.034
307.201
307.194
307.183
307.172
307.16
307.147
307.133
307.119
307.105
307.091
307.076
307.061
307.047
307.031
307.2
307.192
307.181
307.17
307.158
307.145
307.131
307.117
307.102
307.087
307.073
307.058
307.043
307.028
307.2
307.191
307.18
307.168
307.155
307.142
307.128
307.114
307.099
307.084
307.069
307.054
307.039
307.023
307.2
307.19
307.179
307.167
307.154
307.14
307.126
307.111
307.096
307.08
307.065
307.049
307.034
307.018
307.201
307.19
307.178
307.165
307.152
307.138
307.123
307.108
307.092
307.077
307.06
307.045
307.028
307.012
307.201
307.19
307.177
307.164
307.15
307.135
307.12
307.105
307.089
307.072
307.056
307.04
307.022
307.006
307.203
307.19
307.177
307.163
307.148
307.133
307.117
307.101
307.085
307.068
307.051
307.034
307.016
306.999
307.204
307.191
307.177
307.162
307.146
307.131
307.115
307.098
307.081
307.063
307.045
307.028
307.009
306.992
307.206
307.191
307.176
307.16
307.145
307.128
307.111
307.094
307.076
307.059
307.04
307.021
307.002
306.983
307.207
307.19
307.176
307.159
307.142
307.126
307.108
307.091
307.073
307.055
307.036
307.017
306.997
306.978
307.179
307.17
307.16
307.148
307.135
307.121
307.105
307.089
307.072
307.054
307.037
307.017
306.999
306.978
307.166
307.158
307.148
307.136
307.123
307.109
307.094
307.078
307.061
307.043
307.026
307.007
306.989
306.969
307.153
307.146
307.136
307.124
307.111
307.097
307.082
307.067
307.05
307.033
307.016
306.997
306.98
306.96
307.142
307.134
307.123
307.112
307.099
307.085
307.07
307.055
307.039
307.022
307.005
306.987
306.969
306.951
307.131
307.123
307.112
307.1
307.087
307.073
307.059
307.043
307.027
307.011
306.994
306.976
306.959
306.94
307.12
307.111
307.1
307.088
307.075
307.061
307.046
307.031
307.015
306.998
306.981
306.964
306.946
306.928
307.11
307.101
307.089
307.076
307.063
307.049
307.034
307.018
307.002
306.985
306.968
306.951
306.933
306.915
307.1
307.089
307.077
307.064
307.05
307.036
307.021
307.005
306.989
306.972
306.954
306.937
306.919
306.901
307.091
307.079
307.066
307.053
307.038
307.023
307.008
306.991
306.974
306.957
306.939
306.922
306.903
306.886
307.081
307.067
307.054
307.04
307.025
307.01
306.994
306.977
306.96
306.942
306.924
306.906
306.886
306.869
307.071
307.057
307.043
307.028
307.013
306.997
306.98
306.963
306.944
306.926
306.907
306.889
306.868
306.851
307.06
307.045
307.03
307.015
306.999
306.982
306.965
306.947
306.929
306.91
306.891
306.872
306.85
306.833
307.05
307.034
307.018
307.002
306.985
306.968
306.95
306.931
306.912
306.892
306.872
306.852
306.83
306.813
307.037
307.02
307.004
306.987
306.97
306.952
306.934
306.915
306.895
306.876
306.855
306.835
306.814
306.794
307.088
307.079
307.069
307.058
307.046
307.033
307.018
307.002
306.986
306.968
306.949
306.929
306.909
306.887
307.067
307.06
307.05
307.04
307.027
307.014
306.999
306.983
306.966
306.948
306.93
306.91
306.89
306.869
307.049
307.042
307.031
307.02
307.008
306.994
306.98
306.964
306.948
306.93
306.912
306.893
306.874
306.853
307.03
307.023
307.012
307.001
306.988
306.975
306.96
306.945
306.928
306.911
306.893
306.874
306.855
306.835
307.012
307.004
306.993
306.981
306.968
306.955
306.94
306.925
306.909
306.892
306.874
306.855
306.837
306.818
306.994
306.985
306.973
306.961
306.948
306.934
306.92
306.904
306.888
306.871
306.853
306.835
306.817
306.798
306.976
306.966
306.954
306.941
306.928
306.914
306.899
306.883
306.867
306.85
306.833
306.815
306.796
306.778
306.957
306.946
306.933
306.92
306.907
306.892
306.877
306.861
306.845
306.828
306.81
306.793
306.774
306.756
306.939
306.926
306.913
306.9
306.886
306.871
306.855
306.839
306.822
306.805
306.787
306.77
306.751
306.734
306.919
306.905
306.892
306.878
306.863
306.848
306.832
306.816
306.799
306.782
306.763
306.746
306.727
306.71
306.899
306.884
306.871
306.856
306.841
306.825
306.809
306.792
306.775
306.757
306.738
306.72
306.701
306.686
306.877
306.862
306.848
306.833
306.817
306.801
306.785
306.768
306.75
306.732
306.713
306.695
306.675
306.66
306.857
306.841
306.826
306.81
306.794
306.777
306.76
306.742
306.723
306.705
306.685
306.667
306.647
306.633
306.833
306.816
306.8
306.785
306.768
306.751
306.734
306.716
306.697
306.679
306.66
306.641
306.622
306.605
306.926
306.918
306.908
306.899
306.888
306.878
306.866
306.853
306.839
306.824
306.809
306.792
306.776
306.757
306.902
306.896
306.886
306.876
306.866
306.854
306.842
306.828
306.814
306.799
306.783
306.766
306.749
306.731
306.879
306.873
306.862
306.853
306.841
306.83
306.817
306.804
306.79
306.775
306.76
306.743
306.727
306.709
306.857
306.85
306.839
306.829
306.817
306.806
306.793
306.779
306.765
306.75
306.735
306.718
306.702
306.685
306.834
306.826
306.815
306.804
306.792
306.78
306.768
306.754
306.74
306.725
306.71
306.694
306.678
306.661
306.811
306.802
306.79
306.779
306.767
306.755
306.742
306.728
306.714
306.699
306.684
306.668
306.653
306.637
306.787
306.777
306.765
306.754
306.742
306.729
306.716
306.702
306.688
306.673
306.658
306.643
306.628
306.612
306.763
306.751
306.74
306.727
306.715
306.702
306.689
306.675
306.661
306.646
306.631
306.616
306.601
306.587
306.737
306.725
306.713
306.701
306.688
306.675
306.662
306.648
306.633
306.619
306.604
306.59
306.575
306.561
306.711
306.698
306.686
306.673
306.661
306.647
306.634
306.62
306.605
306.591
306.576
306.562
306.547
306.535
306.685
306.671
306.659
306.646
306.633
306.619
306.605
306.591
306.577
306.562
306.547
306.534
306.519
306.508
306.657
306.642
306.63
306.617
306.604
306.59
306.576
306.562
306.548
306.533
306.519
306.505
306.491
306.481
306.63
306.615
306.602
306.589
306.575
306.561
306.547
306.532
306.518
306.503
306.489
306.475
306.461
306.453
306.598
306.585
306.571
306.558
306.545
306.531
306.517
306.502
306.488
306.474
306.46
306.446
306.433
306.423
306.7
306.692
306.683
306.676
306.668
306.661
306.653
306.645
306.636
306.627
306.617
306.608
306.598
306.589
306.674
306.669
306.66
306.652
306.644
306.636
306.627
306.619
306.609
306.6
306.59
306.58
306.569
306.558
306.651
306.645
306.636
306.627
306.619
306.61
306.602
306.593
306.583
306.573
306.563
306.554
306.544
306.532
306.626
306.62
306.611
306.602
306.593
306.585
306.575
306.566
306.557
306.547
306.537
306.527
306.517
306.505
306.602
306.595
306.585
306.576
306.567
306.558
306.549
306.539
306.53
306.52
306.51
306.5
306.491
306.48
306.577
306.569
306.559
306.55
306.541
306.532
306.522
306.513
306.503
306.493
306.484
306.474
306.464
306.454
306.551
306.542
306.533
306.523
306.514
306.505
306.495
306.486
306.476
306.467
306.457
306.448
306.439
306.429
306.525
306.515
306.506
306.496
306.487
306.477
306.468
306.458
306.449
306.44
306.43
306.421
306.413
306.404
306.498
306.488
306.478
306.469
306.459
306.45
306.44
306.431
306.422
306.413
306.404
306.395
306.387
306.38
306.47
306.459
306.45
306.441
306.431
306.422
306.413
306.404
306.395
306.386
306.377
306.369
306.361
306.355
306.443
306.432
306.423
306.413
306.404
306.394
306.385
306.376
306.367
306.359
306.35
306.343
306.335
306.331
306.414
306.403
306.394
306.384
306.375
306.366
306.358
306.349
306.34
306.332
306.323
306.316
306.309
306.306
306.387
306.376
306.367
306.357
306.348
306.339
306.33
306.321
306.313
306.305
306.297
306.29
306.284
306.283
306.356
306.347
306.337
306.328
306.319
306.311
306.302
306.294
306.286
306.278
306.271
306.264
306.259
306.258
306.426
306.42
306.414
306.409
306.405
306.401
306.398
306.395
306.393
306.39
306.388
306.386
306.385
306.384
306.402
306.398
306.392
306.387
306.382
306.378
306.375
306.372
306.369
306.366
306.363
306.361
306.359
306.355
306.38
306.376
306.369
306.364
306.359
306.355
306.351
306.348
306.344
306.341
306.339
306.336
306.335
306.33
306.357
306.353
306.346
306.341
306.336
306.332
306.328
306.324
306.321
306.317
306.315
306.312
306.31
306.306
306.335
306.33
306.323
306.318
306.313
306.308
306.304
306.3
306.297
306.294
306.291
306.288
306.286
306.283
306.311
306.306
306.3
306.295
306.29
306.285
306.281
306.277
306.273
306.27
306.268
306.265
306.263
306.26
306.288
306.282
306.277
306.271
306.266
306.262
306.257
306.254
306.25
306.248
306.245
306.243
306.241
306.239
306.265
306.259
306.253
306.248
306.243
306.239
306.235
306.231
306.228
306.225
306.223
306.221
306.219
306.218
306.242
306.235
306.23
306.225
306.22
306.216
306.212
306.209
306.206
306.203
306.201
306.2
306.198
306.198
306.219
306.211
306.206
306.201
306.197
306.193
306.19
306.187
306.184
306.182
306.18
306.179
306.177
306.178
306.196
306.188
306.183
306.179
306.175
306.171
306.168
306.165
306.163
306.161
306.159
306.159
306.158
306.16
306.173
306.165
306.161
306.156
306.152
306.149
306.146
306.144
306.142
306.14
306.139
306.139
306.139
306.141
306.151
306.144
306.139
306.135
306.131
306.128
306.125
306.123
306.121
306.12
306.12
306.12
306.121
306.124
306.127
306.121
306.117
306.113
306.109
306.106
306.104
306.103
306.102
306.101
306.101
306.102
306.103
306.106
306.123
306.12
306.118
306.117
306.117
306.117
306.119
306.121
306.124
306.127
306.131
306.136
306.142
306.148
306.103
306.103
306.101
306.1
306.099
306.1
306.101
306.103
306.106
306.11
306.113
306.118
306.123
306.126
306.086
306.085
306.084
306.083
306.082
306.082
306.083
306.085
306.088
306.091
306.095
306.099
306.104
306.107
306.068
306.068
306.066
306.065
306.064
306.065
306.066
306.068
306.071
306.074
306.077
306.081
306.086
306.089
306.051
306.05
306.049
306.048
306.047
306.048
306.049
306.051
306.054
306.057
306.06
306.064
306.069
306.072
306.035
306.033
306.032
306.031
306.031
306.031
306.033
306.035
306.037
306.04
306.044
306.048
306.052
306.056
306.018
306.017
306.015
306.015
306.015
306.015
306.016
306.018
306.021
306.024
306.028
306.032
306.037
306.041
306.002
306
305.999
305.999
305.999
306
306.001
306.003
306.006
306.009
306.013
306.017
306.022
306.027
305.986
305.985
305.984
305.983
305.984
305.985
305.986
305.988
305.991
305.995
305.999
306.003
306.008
306.013
305.971
305.969
305.969
305.968
305.969
305.97
305.972
305.974
305.977
305.981
305.985
305.99
305.994
306
305.956
305.954
305.954
305.954
305.955
305.956
305.958
305.961
305.964
305.968
305.972
305.977
305.982
305.989
305.941
305.939
305.939
305.94
305.941
305.942
305.945
305.948
305.952
305.956
305.96
305.966
305.971
305.978
305.928
305.926
305.926
305.926
305.928
305.93
305.933
305.936
305.94
305.945
305.95
305.955
305.961
305.968
305.914
305.913
305.913
305.914
305.915
305.918
305.921
305.924
305.929
305.934
305.939
305.945
305.951
305.959
305.802
305.805
305.807
305.81
305.814
305.818
305.823
305.829
305.835
305.842
305.85
305.858
305.867
305.878
305.791
305.794
305.797
305.8
305.804
305.809
305.814
305.82
305.826
305.834
305.841
305.85
305.858
305.867
305.782
305.785
305.787
305.791
305.795
305.799
305.804
305.81
305.817
305.824
305.832
305.841
305.849
305.857
305.773
305.776
305.778
305.782
305.786
305.79
305.795
305.801
305.808
305.815
305.823
305.832
305.84
305.848
305.764
305.767
305.769
305.773
305.777
305.781
305.787
305.793
305.799
305.807
305.815
305.823
305.831
305.84
305.755
305.758
305.761
305.764
305.768
305.773
305.779
305.785
305.791
305.798
305.806
305.814
305.823
305.831
305.747
305.75
305.753
305.756
305.76
305.765
305.771
305.777
305.784
305.791
305.798
305.807
305.815
305.823
305.74
305.742
305.745
305.749
305.753
305.758
305.764
305.77
305.777
305.784
305.791
305.799
305.807
305.816
305.733
305.735
305.738
305.742
305.747
305.752
305.757
305.763
305.77
305.777
305.785
305.793
305.801
305.809
305.726
305.728
305.732
305.736
305.74
305.745
305.751
305.758
305.764
305.772
305.779
305.787
305.795
305.803
305.72
305.722
305.726
305.73
305.735
305.74
305.746
305.752
305.759
305.767
305.774
305.782
305.79
305.798
305.714
305.717
305.721
305.725
305.729
305.735
305.741
305.748
305.755
305.762
305.77
305.778
305.786
305.794
305.709
305.712
305.716
305.72
305.725
305.731
305.737
305.744
305.751
305.759
305.767
305.775
305.782
305.791
305.705
305.708
305.712
305.716
305.721
305.727
305.733
305.74
305.747
305.755
305.763
305.771
305.78
305.789
305.473
305.479
305.485
305.491
305.498
305.504
305.511
305.518
305.526
305.534
305.543
305.552
305.561
305.571
305.471
305.477
305.483
305.49
305.496
305.503
305.51
305.518
305.526
305.534
305.543
305.552
305.562
305.572
305.47
305.476
305.482
305.488
305.495
305.502
305.509
305.517
305.525
305.533
305.542
305.552
305.561
305.571
305.469
305.475
305.481
305.487
305.494
305.501
305.509
305.516
305.525
305.533
305.542
305.551
305.561
305.571
305.469
305.474
305.48
305.487
305.494
305.501
305.508
305.516
305.524
305.533
305.542
305.551
305.56
305.57
305.468
305.474
305.48
305.486
305.493
305.5
305.508
305.516
305.524
305.533
305.542
305.551
305.56
305.569
305.468
305.474
305.48
305.486
305.493
305.5
305.508
305.516
305.524
305.533
305.541
305.55
305.56
305.569
305.468
305.474
305.48
305.486
305.493
305.501
305.508
305.516
305.525
305.533
305.542
305.55
305.559
305.568
305.468
305.474
305.48
305.487
305.494
305.501
305.509
305.517
305.525
305.534
305.542
305.551
305.559
305.568
305.469
305.475
305.481
305.488
305.495
305.502
305.51
305.518
305.526
305.534
305.543
305.551
305.56
305.568
305.47
305.476
305.482
305.489
305.496
305.503
305.511
305.519
305.527
305.536
305.544
305.552
305.561
305.569
305.472
305.478
305.484
305.491
305.498
305.505
305.513
305.521
305.529
305.537
305.545
305.554
305.562
305.57
305.473
305.48
305.486
305.493
305.5
305.507
305.515
305.523
305.531
305.539
305.548
305.556
305.564
305.572
305.476
305.482
305.489
305.496
305.503
305.51
305.517
305.525
305.533
305.541
305.549
305.557
305.565
305.574
305.14
305.147
305.154
305.161
305.168
305.175
305.182
305.189
305.196
305.203
305.21
305.217
305.225
305.233
305.144
305.151
305.159
305.166
305.173
305.181
305.188
305.195
305.203
305.21
305.217
305.225
305.232
305.24
305.15
305.157
305.164
305.172
305.179
305.186
305.194
305.201
305.208
305.216
305.223
305.231
305.238
305.246
305.155
305.162
305.17
305.177
305.185
305.192
305.2
305.207
305.214
305.222
305.229
305.237
305.244
305.253
305.161
305.168
305.175
305.183
305.19
305.198
305.205
305.213
305.22
305.228
305.235
305.243
305.25
305.258
305.166
305.173
305.181
305.188
305.196
305.203
305.211
305.219
305.226
305.233
305.241
305.248
305.256
305.264
305.171
305.179
305.186
305.194
305.201
305.209
305.217
305.224
305.232
305.239
305.246
305.254
305.261
305.268
305.177
305.184
305.192
305.199
305.207
305.214
305.222
305.23
305.237
305.245
305.252
305.259
305.266
305.273
305.182
305.19
305.197
305.205
305.212
305.22
305.227
305.235
305.242
305.25
305.257
305.264
305.271
305.278
305.188
305.195
305.203
305.21
305.218
305.225
305.233
305.24
305.248
305.255
305.262
305.269
305.276
305.283
305.193
305.201
305.208
305.216
305.223
305.231
305.238
305.246
305.253
305.26
305.267
305.274
305.281
305.287
305.199
305.207
305.214
305.222
305.229
305.237
305.244
305.251
305.258
305.265
305.272
305.279
305.286
305.291
305.205
305.212
305.22
305.227
305.235
305.242
305.25
305.257
305.264
305.271
305.277
305.284
305.29
305.296
305.211
305.219
305.226
305.234
305.241
305.248
305.255
305.262
305.269
305.276
305.282
305.288
305.295
305.301
304.81
304.816
304.822
304.828
304.834
304.84
304.845
304.851
304.856
304.86
304.865
304.869
304.873
304.878
304.818
304.824
304.83
304.836
304.843
304.849
304.854
304.86
304.865
304.87
304.875
304.879
304.883
304.888
304.827
304.832
304.839
304.845
304.852
304.858
304.864
304.869
304.874
304.879
304.884
304.888
304.892
304.897
304.835
304.841
304.847
304.854
304.86
304.866
304.872
304.878
304.883
304.888
304.893
304.897
304.901
304.906
304.843
304.849
304.856
304.862
304.869
304.875
304.881
304.886
304.892
304.897
304.901
304.906
304.91
304.915
304.851
304.857
304.864
304.871
304.877
304.883
304.889
304.895
304.9
304.905
304.91
304.914
304.919
304.923
304.858
304.865
304.872
304.879
304.885
304.891
304.897
304.903
304.908
304.913
304.918
304.922
304.927
304.931
304.866
304.873
304.88
304.887
304.893
304.899
304.905
304.911
304.916
304.921
304.926
304.93
304.934
304.939
304.873
304.881
304.887
304.894
304.901
304.907
304.913
304.918
304.923
304.928
304.933
304.937
304.942
304.946
304.881
304.888
304.895
304.901
304.908
304.914
304.92
304.925
304.93
304.935
304.94
304.944
304.949
304.952
304.888
304.895
304.902
304.909
304.915
304.921
304.927
304.932
304.937
304.942
304.947
304.951
304.955
304.959
304.895
304.902
304.909
304.916
304.922
304.928
304.934
304.939
304.944
304.948
304.953
304.957
304.961
304.965
304.902
304.909
304.916
304.922
304.929
304.935
304.94
304.945
304.95
304.954
304.959
304.963
304.967
304.97
304.91
304.917
304.923
304.93
304.936
304.941
304.946
304.951
304.956
304.96
304.964
304.968
304.972
304.976
304.495
304.498
304.502
304.506
304.51
304.514
304.517
304.52
304.523
304.525
304.527
304.528
304.53
304.532
304.503
304.506
304.51
304.514
304.518
304.522
304.525
304.529
304.531
304.534
304.535
304.537
304.538
304.54
304.511
304.514
304.519
304.523
304.527
304.531
304.534
304.537
304.54
304.542
304.544
304.545
304.546
304.549
304.519
304.522
304.527
304.531
304.535
304.539
304.542
304.545
304.548
304.55
304.552
304.554
304.555
304.557
304.526
304.53
304.535
304.539
304.543
304.547
304.551
304.554
304.556
304.559
304.56
304.562
304.563
304.565
304.533
304.538
304.543
304.547
304.551
304.555
304.558
304.561
304.564
304.566
304.568
304.57
304.571
304.572
304.541
304.546
304.55
304.555
304.559
304.563
304.566
304.569
304.572
304.574
304.576
304.578
304.579
304.58
304.548
304.553
304.558
304.562
304.566
304.57
304.573
304.576
304.579
304.581
304.583
304.585
304.586
304.587
304.555
304.56
304.565
304.569
304.573
304.577
304.58
304.583
304.586
304.588
304.59
304.592
304.593
304.594
304.561
304.567
304.571
304.576
304.58
304.583
304.587
304.59
304.592
304.595
304.597
304.598
304.6
304.601
304.568
304.573
304.578
304.582
304.586
304.59
304.593
304.596
304.598
304.601
304.603
304.604
304.606
304.607
304.574
304.58
304.584
304.588
304.592
304.596
304.599
304.602
304.604
304.606
304.608
304.61
304.611
304.612
304.58
304.585
304.59
304.594
304.598
304.601
304.604
304.607
304.609
304.611
304.613
304.615
304.616
304.617
304.587
304.592
304.596
304.6
304.603
304.607
304.609
304.612
304.614
304.616
304.618
304.619
304.621
304.623
304.201
304.202
304.204
304.205
304.207
304.208
304.209
304.21
304.211
304.211
304.211
304.211
304.21
304.21
304.206
304.208
304.209
304.211
304.213
304.214
304.215
304.216
304.216
304.217
304.217
304.216
304.216
304.216
304.212
304.213
304.215
304.217
304.218
304.22
304.221
304.222
304.222
304.223
304.222
304.222
304.221
304.221
304.217
304.219
304.221
304.223
304.224
304.226
304.227
304.228
304.228
304.228
304.228
304.228
304.227
304.227
304.222
304.224
304.227
304.228
304.23
304.231
304.232
304.233
304.234
304.234
304.234
304.233
304.233
304.232
304.228
304.23
304.232
304.234
304.235
304.237
304.238
304.239
304.239
304.239
304.239
304.239
304.238
304.237
304.233
304.235
304.237
304.239
304.241
304.242
304.243
304.244
304.244
304.245
304.245
304.244
304.243
304.243
304.238
304.24
304.242
304.244
304.246
304.247
304.248
304.249
304.249
304.25
304.249
304.249
304.248
304.248
304.242
304.245
304.247
304.249
304.251
304.252
304.253
304.254
304.254
304.254
304.254
304.254
304.253
304.252
304.247
304.249
304.252
304.253
304.255
304.256
304.257
304.258
304.258
304.259
304.259
304.258
304.258
304.257
304.251
304.254
304.256
304.258
304.259
304.26
304.261
304.262
304.263
304.263
304.263
304.262
304.262
304.261
304.255
304.258
304.26
304.262
304.263
304.264
304.265
304.266
304.266
304.266
304.266
304.266
304.266
304.265
304.259
304.262
304.264
304.265
304.266
304.268
304.269
304.269
304.27
304.27
304.27
304.269
304.269
304.268
304.263
304.266
304.267
304.269
304.27
304.271
304.272
304.272
304.272
304.273
304.273
304.272
304.272
304.272
303.925
303.925
303.925
303.925
303.925
303.925
303.925
303.924
303.923
303.923
303.922
303.921
303.919
303.918
303.928
303.928
303.928
303.928
303.928
303.928
303.928
303.927
303.927
303.926
303.925
303.923
303.922
303.921
303.931
303.931
303.931
303.931
303.931
303.931
303.931
303.93
303.93
303.929
303.928
303.926
303.925
303.923
303.934
303.934
303.934
303.934
303.934
303.934
303.934
303.933
303.932
303.931
303.93
303.929
303.927
303.926
303.937
303.937
303.937
303.937
303.937
303.937
303.937
303.936
303.935
303.934
303.933
303.932
303.93
303.928
303.939
303.94
303.94
303.94
303.94
303.94
303.939
303.939
303.938
303.937
303.936
303.934
303.933
303.931
303.942
303.942
303.942
303.943
303.943
303.942
303.942
303.941
303.94
303.939
303.938
303.937
303.935
303.933
303.944
303.945
303.945
303.945
303.945
303.945
303.944
303.944
303.943
303.942
303.941
303.939
303.937
303.936
303.946
303.947
303.947
303.947
303.947
303.947
303.946
303.946
303.945
303.944
303.943
303.941
303.94
303.938
303.948
303.949
303.949
303.949
303.949
303.949
303.948
303.948
303.947
303.946
303.945
303.943
303.942
303.94
303.95
303.951
303.951
303.951
303.951
303.951
303.95
303.95
303.949
303.948
303.947
303.945
303.944
303.942
303.952
303.952
303.953
303.953
303.952
303.952
303.952
303.951
303.95
303.949
303.948
303.947
303.945
303.943
303.953
303.954
303.954
303.954
303.954
303.953
303.953
303.952
303.951
303.95
303.949
303.948
303.947
303.945
303.955
303.955
303.955
303.955
303.955
303.954
303.954
303.953
303.952
303.951
303.95
303.949
303.948
303.946
303.662
303.662
303.662
303.661
303.661
303.66
303.659
303.658
303.657
303.656
303.654
303.653
303.651
303.65
303.664
303.664
303.663
303.663
303.662
303.661
303.66
303.659
303.658
303.657
303.656
303.654
303.652
303.65
303.665
303.665
303.665
303.664
303.663
303.663
303.662
303.661
303.659
303.658
303.657
303.655
303.653
303.651
303.666
303.666
303.666
303.665
303.664
303.664
303.663
303.661
303.66
303.659
303.657
303.656
303.654
303.652
303.667
303.667
303.666
303.666
303.665
303.664
303.663
303.662
303.661
303.66
303.658
303.657
303.655
303.653
303.668
303.668
303.667
303.667
303.666
303.665
303.664
303.663
303.662
303.66
303.659
303.657
303.655
303.653
303.669
303.668
303.668
303.667
303.667
303.666
303.665
303.664
303.662
303.661
303.659
303.658
303.656
303.654
303.669
303.669
303.668
303.668
303.667
303.666
303.665
303.664
303.663
303.661
303.66
303.658
303.656
303.654
303.669
303.669
303.669
303.668
303.667
303.666
303.665
303.664
303.663
303.662
303.66
303.658
303.657
303.654
303.669
303.669
303.669
303.668
303.667
303.667
303.666
303.664
303.663
303.662
303.66
303.659
303.657
303.655
303.669
303.669
303.669
303.668
303.667
303.667
303.666
303.664
303.663
303.662
303.66
303.659
303.657
303.655
303.669
303.669
303.668
303.668
303.667
303.666
303.665
303.664
303.663
303.662
303.66
303.658
303.657
303.654
303.669
303.668
303.668
303.667
303.667
303.666
303.665
303.664
303.663
303.661
303.66
303.658
303.656
303.654
303.668
303.667
303.667
303.666
303.666
303.665
303.664
303.663
303.662
303.661
303.659
303.658
303.656
303.654
303.41
303.41
303.41
303.41
303.41
303.409
303.408
303.407
303.406
303.405
303.404
303.402
303.411
303.411
303.411
303.411
303.41
303.41
303.409
303.408
303.407
303.405
303.404
303.403
303.411
303.412
303.411
303.411
303.411
303.41
303.409
303.408
303.407
303.406
303.404
303.403
303.412
303.412
303.412
303.411
303.411
303.41
303.409
303.408
303.407
303.406
303.405
303.403
303.412
303.412
303.412
303.411
303.411
303.41
303.409
303.408
303.407
303.406
303.404
303.403
303.412
303.412
303.411
303.411
303.41
303.41
303.409
303.408
303.407
303.406
303.404
303.403
303.411
303.411
303.411
303.411
303.41
303.409
303.409
303.408
303.407
303.405
303.404
303.402
303.411
303.411
303.411
303.41
303.41
303.409
303.408
303.407
303.406
303.405
303.403
303.402
303.41
303.41
303.41
303.41
303.409
303.408
303.407
303.406
303.405
303.404
303.403
303.401
303.409
303.409
303.409
303.409
303.408
303.407
303.407
303.406
303.405
303.403
303.402
303.4
303.408
303.408
303.408
303.408
303.407
303.406
303.406
303.405
303.404
303.402
303.401
303.399
303.407
303.407
303.407
303.406
303.406
303.405
303.404
303.404
303.402
303.401
303.4
303.398
303.405
303.405
303.405
303.405
303.404
303.404
303.403
303.402
303.401
303.4
303.399
303.397
303.403
303.403
303.403
303.403
303.403
303.402
303.401
303.401
303.4
303.399
303.397
303.396
307.179
307.157
307.132
307.113
307.095
307.081
307.171
307.137
307.105
307.074
307.047
307.021
307.163
307.121
307.079
307.039
307.002
306.966
307.161
307.11
307.06
307.012
306.967
306.922
307.173
307.159
307.143
307.13
307.119
307.11
307.164
307.142
307.119
307.098
307.079
307.062
307.154
307.125
307.094
307.064
307.038
307.012
307.146
307.11
307.072
307.034
306.999
306.965
307.139
307.097
307.053
307.009
306.966
306.925
307.132
307.086
307.038
306.99
306.942
306.895
307.128
307.079
307.029
306.978
306.928
306.878
307.196
307.189
307.181
307.176
307.171
307.168
307.185
307.174
307.164
307.155
307.149
307.144
307.175
307.16
307.146
307.132
307.122
307.114
307.165
307.145
307.126
307.108
307.092
307.077