/*--------------------------------*- C++ -*----------------------------------*\
| =========                 |                                                 |
| \\      /  F ield         | OpenFOAM: The Open Source CFD Toolbox           |
|  \\    /   O peration     | Version:  v2106                                 |
|   \\  /    A nd           | Website:  www.openfoam.com                      |
|    \\/     M anipulation  |                                                 |
\*---------------------------------------------------------------------------*/
FoamFile
{
    version     2.0;
    format      ascii;
    arch        "LSB;label=32;scalar=64";
    class       volScalarField;
    location    "0.000188";
    object      p;
}
// * * * * * * * * * * * * * * * * * * * * * * * * * * * * * * * * * * * * * //

dimensions      [1 -1 -2 0 0 0 0];

internalField   nonuniform List<scalar> 
18109
(
210297
209751
209191
208693
208204
207704
207183
209669
209174
208596
208077
207581
207087
206579
209099
208551
207978
207470
206987
206509
206020
208592
208013
207440
206928
206449
205974
205486
208154
207554
206982
206466
205980
205501
205011
207816
207200
206623
206088
205579
205076
204569
207557
206928
206342
205786
205252
204724
204202
207313
206678
206088
205512
204959
204413
203879
210687
210219
209762
209366
208986
208611
208227
207794
207313
206773
206204
205618
205075
204439
210148
209709
209213
208792
208401
208024
207642
207211
206720
206174
205604
205050
204543
203970
209659
209160
208664
208236
207842
207465
207083
206662
206195
205683
205142
204614
204094
203601
209235
208692
208176
207726
207319
206926
206531
206103
205644
205157
204653
204170
203693
203244
208826
208264
207739
207272
206846
206432
206020
205592
205144
204691
204220
203774
203333
202919
208466
207900
207370
206884
206427
205983
205546
205107
204667
204243
203807
203398
202987
202590
208131
207575
207043
206545
206065
205597
205140
204694
204261
203853
203442
203053
202661
202280
207795
207255
206738
206237
205746
205263
204792
204337
203903
203499
203096
202713
202322
201941
207436
206916
206428
205935
205453
204970
204494
204033
203589
203169
202752
202344
201937
201565
207040
206547
206091
205625
205168
204701
204232
203770
203304
202852
202403
201975
201532
201136
206611
206158
205739
205311
204885
204444
203990
203518
203029
202549
202055
201580
201079
200675
206149
205745
205371
204982
204593
204169
203721
203246
202736
202229
201694
201173
200626
200179
205693
205320
204994
204643
204275
203857
203410
202931
202408
201883
201322
200761
200151
199657
205103
204823
204562
204253
203904
203509
203067
202592
202062
201523
200936
200356
199765
199155
210796
211326
211769
212162
212413
212538
211151
211638
212080
212484
212674
212737
210800
211377
211861
212262
212499
212642
210368
211042
211632
212127
212447
212740
210002
210732
211404
212012
212496
213022
209633
210390
211114
211813
212512
213295
209262
210013
210761
211518
212440
213374
208870
209600
210336
211186
212249
213318
208406
209081
209773
210590
211546
212565
207874
208463
209063
209776
210603
211551
207262
207757
208255
208859
209508
210332
206614
207004
207390
207867
208355
209051
205955
206226
206502
206833
207106
207420
205376
205544
205648
205716
205782
205860
204669
204620
204597
204432
204390
204295
204123
204037
203873
203711
203498
203157
203615
203430
203134
202860
202572
202237
203184
202975
202626
202334
201958
201627
202795
202523
202147
201862
201482
201208
202470
202144
201753
201478
201155
200976
202131
201751
201354
201068
200845
200737
201809
201373
200965
200642
200545
200524
201454
200962
200516
200146
199987
199898
201051
200524
200021
199598
199278
199112
200584
200022
199449
198935
198451
198097
200082
199476
198873
198265
197613
196971
199546
198889
198179
197450
196696
195922
199120
198452
197820
197109
196301
195429
198550
197791
197064
196293
195583
194951
198583
197965
197439
196781
196075
195429
199274
198550
197949
197292
196660
196103
199896
199244
198702
198093
197554
197099
200531
199925
199420
198924
198547
198286
201141
200625
200181
199840
199630
199568
201693
201234
200856
200685
200636
200807
202225
201822
201491
201363
201441
201732
202695
202327
202021
201914
202030
202389
203144
202806
202509
202389
202422
202669
203531
203236
202945
202764
202687
202746
203875
203625
203339
203087
202853
202719
204192
203997
203693
203354
202968
202514
204493
204290
203974
203593
203105
202508
204789
204571
204228
203816
203332
202780
209257
210155
210961
211808
212531
213585
209744
210607
211328
212063
212608
213341
210175
210969
211613
212216
212592
213008
211010
211626
212016
212343
212624
212718
205041
204779
204598
204389
203989
203640
205857
205677
205593
205383
205157
204975
206464
206422
206499
206465
206473
206507
207050
207218
207496
207692
207948
208250
207561
207933
208414
208875
209388
210010
208016
208579
209226
209916
210686
211598
208422
209119
209872
210733
211674
212740
208789
209566
210383
211340
212331
213450
209127
209935
210760
211714
212666
213831
209464
210289
211067
211949
212810
213918
209826
210630
211343
212108
212781
213782
210202
210969
211604
212269
212816
213574
210583
211299
211860
212404
212744
213188
211319
211880
212232
212525
212744
212897
212696
212813
214897
221855
233117
212538
212632
214544
222114
233692
212887
213317
215708
223368
237598
213567
214395
216730
222799
234376
214242
215620
218033
222917
230162
214530
216203
218938
223598
229922
214858
216718
219947
225325
234207
214224
216368
219979
225251
233189
243135
213198
215728
219316
224047
230530
238598
211800
214036
217817
222606
230239
239518
209921
211856
215706
221439
231861
243917
253355
207939
209510
213324
220602
234072
250290
267701
281852
206164
207141
210714
218980
235468
257951
289942
326032
204468
205110
208332
216760
232050
253061
280026
300121
202863
203375
206153
213610
224588
238768
255638
266532
201746
202094
204627
211832
223273
238875
248583
257758
201115
201339
204388
212069
226397
247274
271374
278673
200842
201109
204404
210883
223528
241762
263489
292772
200865
201442
204784
209874
217913
228318
241603
248025
200915
201818
205036
210210
217403
226907
232195
236965
200774
202012
205125
211028
221508
236618
249978
251506
200074
201344
204199
209621
219310
232978
248666
272709
199122
200078
202502
206060
211842
218244
197798
198069
200362
203679
209261
214989
196243
195973
198110
202603
210678
220468
194938
194272
196514
202328
213852
228210
194139
193245
195270
201684
216305
238184
193852
192861
194779
201322
214911
194250
193399
194988
200698
209334
195239
194802
196547
202251
210648
196593
196748
199079
204797
216993
198208
198772
201608
206646
217706
199862
200607
203730
207923
216040
201295
202218
205317
209342
216103
202373
203578
206486
211311
220240
203103
204253
206409
211095
219610
203137
203948
205545
209131
215297
202727
203139
204452
207540
214172
202222
201950
203332
206781
215395
201834
200941
202183
205878
217231
201629
200457
201616
205821
218670
201870
200640
201375
205978
217511
202797
201755
202275
206507
213871
204489
203918
204735
209212
216614
206532
206554
207668
212651
224276
208723
209372
211024
215504
225735
210935
212181
214300
217999
225331
212861
214333
216875
220500
225777
214314
216185
219008
223422
230514
215227
217479
220327
225079
231677
215650
218081
220788
225421
231168
215529
217821
220784
225606
232932
214985
217140
220039
225384
235230
214172
216008
218891
224992
237105
213563
214813
217451
223754
237638
213062
213535
215871
222419
235723
212061
211693
211380
211092
210811
210526
210258
209954
209612
209204
208742
208190
207628
206912
211715
211368
210970
210626
210305
209997
209713
209395
209049
208632
208147
207586
207050
206395
211371
210952
210531
210142
209795
209469
209175
208860
208523
208129
207666
207138
206592
205981
210994
210542
210097
209669
209285
208932
208619
208294
207956
207572
207125
206638
206127
205583
210564
210105
209632
209192
208787
208417
208087
207756
207420
207058
206635
206186
205706
205210
210087
209640
209171
208734
208312
207928
207575
207230
206888
206536
206139
205727
205287
204828
209590
209156
208713
208288
207871
207483
207112
206751
206402
206053
205680
205291
204886
204459
209044
208650
208258
207863
207466
207080
206694
206313
205940
205573
205215
204836
204454
204054
208488
208148
207813
207455
207087
206708
206314
205917
205515
205121
204751
204371
203998
203634
207919
207658
207385
207063
206734
206360
205959
205543
205111
204694
204281
203899
203510
203176
207367
207162
206943
206666
206378
206009
205606
205178
204717
204267
203809
203400
202965
202664
206829
206662
206504
206256
205996
205635
205233
204795
204309
203828
203339
202891
202431
202104
206297
206155
206037
205824
205582
205230
204829
204393
203891
203386
202867
202364
201862
201489
205696
205585
205514
205340
205110
204791
204394
203963
203449
202929
202384
201858
201356
200815
215083
214905
214680
214412
214195
213938
213730
213510
213266
212973
212649
212174
211649
210937
214779
214516
214244
213958
213728
213464
213232
212986
212755
212450
212097
211605
211082
210393
214462
214158
213870
213543
213276
212991
212764
212529
212299
212003
211666
211184
210668
209979
213940
213654
213339
213024
212743
212467
212243
212010
211775
211475
211136
210664
210159
209506
213450
213173
212838
212538
212244
211975
211746
211514
211279
210984
210653
210202
209708
209092
212860
212589
212301
212019
211744
211477
211242
210996
210744
210441
210105
209679
209204
208644
212253
212010
211775
211514
211263
210993
210750
210487
210214
209904
209566
209170
208724
208213
211608
211438
211258
211027
210810
210531
210270
209978
209669
209337
208985
208607
208197
207727
210990
210877
210752
210540
210352
210064
209779
209457
209111
208761
208399
208043
207672
207252
210406
210333
210269
210069
209903
209603
209289
208937
208555
208185
207795
207450
207069
206718
209855
209788
209775
209589
209424
209118
208769
208392
207975
207576
207158
206818
206413
206177
209288
209246
209276
209105
208934
208628
208249
207858
207416
206996
206567
206203
205770
205544
208701
208670
208727
208577
208405
208113
207710
207305
206833
206380
205919
205507
205068
204818
208033
208081
208173
208042
207857
207574
207166
206756
206265
205795
205314
204874
204438
204020
219874
219731
219656
219449
219301
219075
218875
218662
218453
218223
217979
217637
217276
216703
219424
219304
219157
218942
218770
218558
218369
218170
217967
217726
217452
217077
216705
216168
218889
218786
218649
218463
218304
218108
217934
217744
217550
217328
217068
216699
216316
215757
218244
218196
218065
217915
217770
217596
217438
217261
217074
216850
216579
216204
215805
215242
217578
217567
217462
217350
217230
217084
216942
216778
216596
216373
216100
215728
215322
214774
216920
216928
216872
216790
216696
216568
216429
216266
216075
215842
215557
215186
214774
214251
216284
216307
216302
216245
216168
216048
215904
215734
215532
215289
214995
214637
214227
213748
215671
215712
215764
215721
215650
215525
215363
215174
214947
214688
214380
214037
213629
213201
215104
215146
215236
215193
215113
214977
214788
214577
214331
214065
213752
213438
213043
212673
214559
214598
214726
214675
214578
214421
214202
213965
213695
213417
213091
212789
212386
212068
214055
214050
214193
214131
214005
213831
213580
213318
213024
212733
212401
212121
211723
211484
213507
213521
213664
213590
213433
213238
212961
212676
212361
212057
211727
211427
211011
210785
212950
212959
213077
213005
212836
212631
212325
212010
211660
211321
210968
210634
210255
209992
212306
212413
212537
212442
212247
212018
211692
211352
210976
210622
210260
209884
209484
209104
225373
225275
225292
225188
225089
224932
224791
224634
224474
224293
224107
223873
223627
223253
224783
224775
224772
224680
224587
224446
224313
224158
223994
223803
223594
223330
223060
222690
224219
224253
224242
224178
224100
223982
223865
223724
223572
223396
223199
222947
222672
222296
223591
223664
223658
223626
223573
223481
223381
223253
223107
222932
222727
222465
222174
221794
222972
223060
223079
223078
223051
222981
222895
222778
222638
222465
222256
221992
221692
221313
222374
222467
222521
222536
222526
222472
222392
222278
222136
221959
221740
221468
221154
220772
221811
221899
221984
222007
222003
221957
221875
221762
221614
221431
221205
220929
220606
220234
221283
221361
221473
221497
221488
221435
221343
221219
221060
220868
220632
220356
220023
219672
220788
220846
220962
220983
220957
220889
220785
220651
220482
220285
220043
219773
219434
219113
220314
220355
220466
220481
220430
220345
220218
220067
219882
219674
219421
219156
218803
218519
219844
219874
219950
219952
219870
219772
219623
219454
219257
219044
218790
218538
218174
217940
219366
219404
219444
219430
219314
219203
219031
218843
218625
218397
218130
217864
217483
217268
218874
218921
218916
218880
218738
218609
218407
218190
217943
217692
217419
217140
216810
216550
218344
218425
218423
218362
218174
218014
217782
217542
217273
217010
216715
216395
216045
215684
230772
230726
230797
230784
230787
230758
230708
230636
230551
230451
230346
230223
230107
229956
230196
230241
230314
230318
230327
230302
230250
230171
230077
229963
229841
229699
229560
229390
229698
229791
229851
229871
229884
229863
229813
229737
229647
229540
229422
229287
229147
228970
229189
229298
229365
229399
229417
229402
229356
229284
229194
229084
228960
228817
228665
228490
228698
228806
228885
228931
228955
228946
228907
228839
228749
228640
228511
228364
228203
228025
228230
228326
228416
228466
228493
228488
228452
228385
228292
228177
228040
227882
227704
227517
227786
227867
227963
228012
228038
228035
227998
227930
227834
227712
227565
227396
227203
227009
227369
227429
227522
227567
227586
227579
227537
227466
227362
227232
227072
226892
226682
226485
226966
227006
227087
227127
227135
227119
227069
226992
226881
226742
226572
226383
226158
225967
226590
226610
226667
226696
226686
226657
226594
226507
226386
226239
226058
225861
225620
225443
226187
226208
226232
226255
226225
226179
226103
226005
225877
225723
225536
225339
225089
224935
225845
225840
225830
225828
225769
225704
225608
225493
225350
225185
224986
224782
224523
224386
225427
225446
225397
225379
225293
225205
225084
224948
224789
224617
224420
224220
223987
223832
225090
225081
225016
224968
224830
224710
224563
224405
224228
224045
223836
223617
223369
223178
235310
235303
235378
235426
235491
235539
235574
235587
235580
235553
235522
235479
235458
235397
234850
234893
234980
235045
235116
235166
235196
235201
235180
235133
235077
235019
234971
234924
234455
234532
234618
234692
234762
234807
234832
234830
234802
234751
234690
234630
234579
234526
234061
234147
234241
234320
234389
234430
234451
234441
234402
234343
234271
234203
234142
234099
233687
233772
233868
233947
234013
234053
234071
234056
234008
233943
233864
233790
233722
233681
233325
233398
233492
233568
233631
233668
233683
233661
233603
233530
233440
233359
233277
233235
232981
233035
233122
233193
233250
233285
233295
233267
233201
233119
233020
232931
232835
232788
232655
232687
232759
232821
232871
232901
232904
232868
232795
232703
232593
232496
232385
232334
232347
232357
232407
232458
232495
232519
232512
232468
232388
232288
232169
232066
231943
231892
232057
232048
232069
232105
232126
232138
232119
232067
231980
231874
231748
231641
231509
231462
231779
231753
231743
231761
231763
231756
231723
231663
231569
231460
231333
231228
231094
231053
231531
231485
231442
231431
231406
231377
231326
231256
231157
231048
230922
230821
230687
230658
231252
231202
231130
231098
231044
230993
230921
230839
230737
230633
230518
230431
230314
230291
231078
230958
230866
230796
230698
230617
230523
230431
230326
230228
230118
230030
229905
229927
238573
238607
238661
238721
238797
238873
238947
239009
239059
239097
239135
239163
239221
239226
238217
238257
238328
238408
238501
238591
238671
238732
238774
238799
238817
238835
238865
238886
237893
237961
238038
238129
238228
238321
238399
238457
238491
238509
238521
238535
238569
238584
237582
237651
237741
237840
237944
238039
238116
238169
238194
238205
238205
238216
238243
238273
237296
237362
237455
237556
237661
237755
237827
237873
237890
237893
237887
237894
237921
237961
237021
237079
237171
237270
237372
237461
237527
237565
237571
237565
237550
237553
237572
237625
236765
236813
236896
236989
237084
237167
237223
237250
237246
237231
237208
237207
237216
237277
236530
236561
236632
236715
236800
236872
236915
236933
236917
236892
236859
236852
236848
236916
236316
236331
236383
236452
236523
236581
236611
236617
236592
236558
236515
236499
236484
236555
236124
236122
236150
236202
236255
236298
236315
236309
236274
236234
236181
236158
236133
236202
235957
235935
235938
235968
235999
236024
236026
236008
235965
235921
235863
235837
235806
235870
235810
235766
235739
235744
235752
235756
235744
235717
235670
235626
235569
235543
235506
235567
235663
235603
235552
235534
235515
235496
235467
235430
235381
235341
235293
235276
235248
235310
235575
235457
235382
235331
235279
235234
235191
235152
235110
235081
235044
235033
234991
235093
240532
240609
240649
240702
240762
240830
240902
240977
241056
241137
241234
241321
241450
241527
240243
240311
240363
240432
240509
240593
240679
240766
240852
240938
241031
241119
241228
241320
239982
240060
240115
240192
240278
240369
240461
240551
240639
240723
240817
240902
241020
241107
239737
239803
239869
239952
240046
240145
240242
240337
240425
240512
240603
240693
240807
240904
239524
239579
239645
239730
239825
239924
240021
240114
240199
240285
240375
240465
240582
240689
239324
239369
239434
239516
239609
239706
239797
239886
239966
240050
240134
240228
240340
240460
239151
239184
239243
239318
239404
239492
239575
239655
239727
239805
239881
239975
240082
240213
238998
239021
239068
239133
239208
239285
239355
239425
239485
239554
239620
239711
239807
239948
238871
238879
238912
238962
239023
239085
239141
239197
239244
239302
239354
239440
239523
239672
238762
238756
238771
238804
238847
238893
238934
238976
239010
239057
239095
239173
239240
239391
238672
238650
238646
238659
238682
238710
238735
238764
238784
238820
238847
238917
238972
239121
238592
238553
238527
238520
238520
238530
238543
238560
238572
238601
238620
238684
238729
238871
238521
238465
238416
238391
238370
238362
238360
238369
238374
238399
238416
238478
238523
238658
238468
238369
238305
238256
238217
238191
238181
238184
238186
238210
238227
238285
238320
238462
241779
241847
241869
241897
241926
241967
242017
242082
242160
242251
242368
242484
242642
242764
241549
241608
241631
241663
241700
241750
241812
241890
241982
242086
242212
242336
242487
242615
241348
241403
241420
241451
241490
241545
241612
241695
241794
241902
242032
242153
242314
242437
241153
241193
241210
241242
241286
241346
241419
241510
241615
241732
241866
241995
242154
242285
240990
241015
241027
241055
241098
241158
241232
241324
241431
241549
241685
241818
241978
242116
240834
240849
240857
240880
240921
240980
241052
241145
241251
241372
241506
241646
241803
241952
240702
240706
240708
240724
240759
240813
240881
240970
241072
241193
241323
241467
241622
241781
240587
240578
240574
240583
240610
240657
240719
240802
240899
241017
241142
241287
241438
241607
240487
240465
240454
240456
240473
240512
240565
240642
240731
240843
240961
241107
241252
241430
240398
240365
240345
240338
240345
240374
240419
240488
240568
240675
240786
240929
241067
241251
240314
240272
240242
240227
240224
240244
240281
240342
240414
240516
240620
240761
240892
241080
240234
240183
240142
240117
240106
240118
240149
240202
240267
240362
240462
240602
240728
240917
240157
240100
240047
240014
239995
240001
240025
240075
240135
240229
240328
240470
240595
240780
240076
239998
239946
239906
239885
239889
239910
239953
240006
240091
240182
240310
240434
240617
242541
242570
242569
242575
242585
242607
242638
242686
242749
242829
242936
243047
243198
243320
242358
242383
242375
242376
242384
242407
242442
242497
242569
242660
242777
242898
243047
243168
242200
242216
242197
242192
242194
242215
242252
242309
242385
242477
242596
242713
242869
242989
242036
242041
242018
242009
242008
242028
242069
242131
242212
242311
242435
242558
242712
242837
241899
241889
241859
241844
241839
241857
241897
241960
242043
242144
242268
242394
242547
242678
241763
241739
241704
241687
241679
241696
241736
241800
241884
241988
242112
242244
242394
242532
241638
241602
241564
241542
241532
241547
241586
241650
241734
241841
241964
242102
242249
242395
241521
241475
241434
241409
241397
241410
241447
241510
241593
241701
241826
241966
242113
242265
241404
241352
241309
241282
241269
241282
241318
241381
241465
241577
241702
241848
241994
242154
241293
241237
241194
241165
241153
241165
241200
241263
241346
241459
241586
241736
241885
242052
241178
241122
241081
241051
241041
241056
241092
241158
241244
241362
241492
241647
241798
241972
241068
241013
240975
240948
240941
240960
240997
241064
241152
241271
241403
241563
241719
241903
240959
240911
240873
240852
240849
240870
240912
240987
241083
241207
241344
241508
241668
241853
240844
240798
240774
240763
240769
240796
240845
240920
241014
241140
241277
241436
241597
241783
242919
242918
242912
242912
242918
242937
242964
243007
243063
243135
243222
243313
243430
243523
242767
242772
242756
242748
242748
242761
242784
242826
242884
242960
243054
243151
243272
243363
242645
242637
242608
242592
242584
242592
242611
242649
242704
242776
242871
242966
243092
243187
242505
242488
242452
242430
242417
242420
242439
242477
242533
242609
242705
242804
242929
243029
242376
242347
242304
242278
242260
242260
242277
242314
242370
242446
242542
242643
242766
242872
242241
242202
242157
242128
242107
242106
242123
242161
242219
242297
242393
242496
242615
242727
242104
242058
242013
241982
241962
241963
241981
242022
242083
242165
242261
242369
242485
242602
241971
241921
241879
241847
241830
241832
241852
241896
241959
242044
242141
242252
242368
242489
241831
241779
241741
241713
241701
241708
241734
241784
241854
241946
242047
242163
242279
242404
241700
241649
241618
241597
241592
241605
241636
241690
241763
241857
241962
242082
242203
242333
241567
241522
241497
241482
241485
241506
241546
241612
241694
241798
241910
242035
242160
242294
241441
241410
241396
241392
241404
241435
241485
241557
241644
241751
241868
241999
242130
242270
241328
241312
241304
241309
241331
241374
241433
241516
241615
241733
241858
241998
242135
242277
241217
241216
241231
241253
241289
241342
241413
241503
241604
241724
241849
241988
242126
242272
243028
243028
243033
243041
243058
243084
243116
243158
243206
243263
243327
243394
243477
243543
242908
242915
242911
242911
242920
242941
242969
243009
243058
243116
243184
243255
243343
243408
242802
242801
242790
242786
242788
242804
242828
242863
242907
242962
243029
243099
243190
243260
242679
242674
242657
242650
242647
242659
242681
242715
242758
242812
242879
242949
243040
243112
242553
242543
242523
242514
242510
242520
242540
242572
242615
242669
242734
242805
242893
242971
242426
242411
242391
242382
242377
242386
242405
242437
242479
242533
242597
242669
242754
242837
242294
242275
242256
242247
242245
242256
242277
242312
242357
242413
242477
242551
242634
242722
242166
242145
242132
242125
242127
242141
242165
242202
242248
242306
242371
242448
242529
242620
242033
242013
242006
242003
242012
242033
242064
242108
242160
242222
242289
242367
242448
242539
241914
241899
241900
241903
241920
241947
241985
242034
242089
242155
242225
242306
242387
242479
241799
241789
241798
241811
241837
241874
241922
241980
242044
242116
242190
242274
242355
242446
241704
241708
241729
241752
241785
241829
241882
241946
242014
242091
242168
242254
242338
242429
241619
241634
241661
241699
241744
241801
241864
241936
242012
242094
242176
242263
242347
242438
241559
241597
241634
241685
241739
241807
241877
241955
242033
242114
242194
242279
242364
242455
243009
243019
243036
243054
243079
243109
243143
243182
243221
243263
243304
243350
243400
243448
242918
242937
242952
242972
242995
243024
243055
243090
243128
243170
243215
243263
243316
243361
242838
242858
242871
242891
242911
242937
242965
242997
243033
243073
243117
243163
243217
243268
242747
242770
242782
242803
242821
242845
242871
242901
242934
242972
243015
243063
243120
243172
242649
242671
242686
242706
242724
242747
242772
242801
242834
242871
242913
242959
243014
243069
242547
242570
242587
242608
242628
242651
242676
242704
242736
242772
242812
242857
242910
242968
242439
242462
242484
242508
242532
242557
242584
242613
242644
242679
242718
242763
242814
242873
242335
242362
242390
242418
242445
242473
242501
242530
242561
242596
242634
242678
242728
242787
242236
242267
242303
242336
242367
242398
242427
242458
242489
242524
242561
242605
242651
242711
242154
242190
242232
242269
242304
242338
242369
242400
242431
242466
242501
242545
242589
242647
242082
242126
242174
242216
242255
242292
242326
242360
242392
242426
242460
242502
242542
242597
242032
242083
242135
242182
242224
242265
242302
242337
242370
242403
242435
242473
242510
242562
241998
242056
242112
242164
242210
242255
242295
242333
242367
242401
242432
242467
242500
242543
242005
242071
242127
242181
242226
242270
242308
242345
242376
242405
242431
242461
242493
242537
242884
242921
242953
242984
243013
243042
243072
243103
243136
243170
243203
243238
243269
243311
242816
242860
242891
242926
242959
242991
243024
243056
243090
243125
243161
243200
243238
243277
242746
242796
242832
242871
242906
242940
242974
243008
243043
243077
243113
243151
243189
243229
242675
242730
242772
242815
242854
242890
242925
242959
242994
243030
243067
243105
243144
243184
242603
242660
242709
242757
242800
242839
242877
242911
242946
242980
243016
243053
243093
243135
242537
242598
242653
242704
242751
242792
242830
242864
242898
242931
242965
243001
243040
243082
242479
242542
242601
242655
242703
242745
242782
242815
242846
242877
242908
242942
242979
243021
242430
242495
242557
242611
242659
242701
242736
242768
242797
242826
242854
242886
242920
242962
242389
242456
242519
242574
242621
242661
242694
242723
242749
242775
242801
242830
242860
242900
242360
242428
242491
242546
242590
242628
242658
242684
242707
242729
242750
242774
242800
242837
242344
242412
242474
242526
242569
242602
242629
242650
242668
242684
242699
242718
242738
242772
242343
242410
242469
242519
242557
242587
242607
242624
242635
242645
242653
242666
242680
242711
242350
242416
242472
242519
242553
242578
242594
242604
242609
242612
242615
242622
242631
242655
242385
242448
242495
242535
242562
242582
242590
242591
242587
242582
242577
242575
242581
242595
242663
242725
242779
242830
242875
242917
242955
242990
243023
243053
243081
243110
243136
243173
242615
242685
242744
242803
242855
242902
242944
242983
243020
243054
243086
243118
243148
243184
242569
242648
242714
242777
242834
242885
242932
242973
243012
243047
243081
243113
243145
243182
242535
242615
242685
242752
242813
242867
242917
242961
243003
243040
243076
243110
243143
243179
242504
242585
242660
242729
242794
242850
242903
242948
242990
243028
243064
243098
243132
243169
242479
242562
242640
242711
242777
242835
242888
242934
242976
243014
243050
243085
243119
243154
242464
242547
242626
242697
242762
242819
242871
242916
242957
242994
243028
243061
243094
243128
242456
242538
242615
242684
242747
242803
242852
242895
242934
242969
243001
243032
243062
243094
242455
242536
242609
242675
242734
242787
242831
242871
242905
242937
242965
242993
243019
243050
242461
242539
242607
242669
242723
242770
242810
242845
242875
242902
242925
242949
242971
243000
242476
242548
242610
242666
242713
242754
242787
242815
242839
242859
242876
242895
242913
242940
242497
242563
242617
242666
242705
242738
242763
242783
242799
242812
242822
242835
242847
242870
242522
242580
242627
242666
242696
242719
242735
242745
242752
242757
242760
242766
242773
242794
242562
242610
242644
242673
242691
242703
242707
242706
242702
242698
242693
242688
242688
242701
242361
242449
242523
242596
242662
242719
242769
242811
242848
242879
242908
242934
242958
242993
242349
242443
242529
242606
242676
242739
242794
242842
242885
242922
242955
242985
243012
243047
242350
242444
242536
242617
242693
242759
242818
242869
242916
242955
242991
243022
243051
243084
242351
242448
242543
242627
242705
242774
242838
242893
242942
242984
243023
243056
243087
243121
242358
242457
242553
242638
242719
242789
242854
242909
242960
243003
243042
243076
243108
243140
242369
242468
242563
242648
242728
242799
242865
242921
242973
243017
243057
243091
243123
243154
242386
242484
242576
242660
242738
242808
242871
242927
242977
243021
243060
243095
243126
243154
242406
242501
242589
242670
242745
242812
242874
242929
242977
243020
243057
243091
243120
243148
242430
242521
242604
242680
242750
242814
242871
242922
242965
243005
243038
243070
243096
243124
242458
242542
242617
242687
242751
242809
242859
242904
242942
242977
243007
243036
243060
243087
242486
242563
242629
242691
242747
242795
242838
242877
242909
242940
242965
242990
243011
243037
242515
242583
242638
242690
242735
242777
242812
242843
242870
242894
242914
242934
242950
242973
242541
242597
242641
242682
242719
242750
242775
242798
242817
242835
242849
242864
242877
242898
242576
242619
242648
242675
242699
242719
242735
242748
242758
242768
242775
242783
242790
242809
242295
242362
242421
242472
242516
242553
242587
242614
242639
242674
241967
242067
242166
242256
242338
242411
242477
242534
242584
242627
242665
242696
242724
242761
242005
242108
242211
242303
242388
242464
242533
242592
242646
242691
242732
242765
242795
242828
242043
242146
242251
242345
242433
242512
242584
242647
242704
242752
242795
242830
242863
242896
242087
242191
242296
242390
242479
242558
242631
242695
242753
242802
242847
242883
242917
242948
242132
242236
242337
242430
242518
242598
242671
242736
242795
242845
242890
242928
242962