/*--------------------------------*- C++ -*----------------------------------*\
| =========                 |                                                 |
| \\      /  F ield         | OpenFOAM: The Open Source CFD Toolbox           |
|  \\    /   O peration     | Version:  v2106                                 |
|   \\  /    A nd           | Website:  www.openfoam.com                      |
|    \\/     M anipulation  |                                                 |
\*---------------------------------------------------------------------------*/
FoamFile
{
    version     2.0;
    format      ascii;
    arch        "LSB;label=32;scalar=64";
    class       volScalarField;
    location    "0.000188";
    object      Ttot;
}
// * * * * * * * * * * * * * * * * * * * * * * * * * * * * * * * * * * * * * //

dimensions      [0 0 0 1 0 0 0];

internalField   nonuniform List<scalar> 
18109
(
299.443
299.284
299.132
298.999
298.853
298.687
298.504
299.207
299.065
298.885
298.722
298.567
298.409
298.24
299.009
298.827
298.629
298.451
298.293
298.141
297.98
298.832
298.627
298.418
298.231
298.066
297.908
297.74
298.692
298.466
298.251
298.06
297.889
297.724
297.548
298.588
298.346
298.125
297.93
297.752
297.575
297.387
298.506
298.253
298.026
297.827
297.643
297.454
297.257
298.423
298.166
297.936
297.732
297.539
297.341
297.138
299.512
299.368
299.242
299.131
299.006
298.866
298.725
298.565
298.389
298.168
297.936
297.709
297.526
297.32
299.31
299.172
299.007
298.865
298.732
298.598
298.465
298.312
298.139
297.932
297.714
297.506
297.344
297.172
299.146
298.966
298.785
298.625
298.483
298.348
298.215
298.065
297.902
297.717
297.523
297.343
297.198
297.08
299.002
298.794
298.599
298.426
298.275
298.132
297.987
297.827
297.662
297.488
297.316
297.168
297.055
296.972
298.875
298.649
298.445
298.268
298.111
297.958
297.799
297.63
297.461
297.295
297.138
297.017
296.932
296.876
298.761
298.528
298.321
298.143
297.979
297.814
297.64
297.46
297.285
297.126
296.983
296.882
296.815
296.768
298.649
298.418
298.21
298.034
297.865
297.691
297.507
297.318
297.142
296.986
296.856
296.768
296.711
296.668
298.535
298.308
298.108
297.932
297.759
297.578
297.388
297.196
297.02
296.868
296.743
296.659
296.593
296.534
298.414
298.192
298.002
297.826
297.65
297.466
297.277
297.085
296.907
296.755
296.631
296.537
296.453
296.377
298.282
298.073
297.894
297.72
297.545
297.362
297.177
296.99
296.807
296.65
296.518
296.413
296.301
296.184
298.138
297.951
297.787
297.622
297.454
297.275
297.092
296.904
296.717
296.557
296.404
296.274
296.112
295.972
297.98
297.826
297.693
297.539
297.382
297.205
297.018
296.83
296.635
296.468
296.293
296.132
295.925
295.751
297.82
297.682
297.584
297.453
297.315
297.151
296.964
296.776
296.569
296.387
296.188
295.986
295.728
295.519
297.588
297.492
297.44
297.342
297.225
297.093
296.921
296.744
296.53
296.332
296.1
295.862
295.593
295.313
299.607
299.763
299.809
299.778
299.522
298.96
299.659
299.822
299.913
299.936
299.721
299.214
299.593
299.782
299.856
299.819
299.539
299
299.492
299.709
299.784
299.729
299.427
298.92
299.404
299.636
299.713
299.648
299.37
299.002
299.281
299.516
299.595
299.521
299.306
299.114
299.13
299.343
299.411
299.33
299.217
299.155
298.966
299.15
299.2
299.164
299.151
299.16
298.769
298.919
298.952
298.948
298.934
298.93
298.56
298.669
298.691
298.708
298.705
298.713
298.308
298.394
298.416
298.466
298.456
298.456
298.045
298.124
298.156
298.221
298.171
298.132
297.799
297.863
297.896
297.934
297.795
297.509
297.611
297.644
297.625
297.549
297.228
296.6
297.381
297.331
297.238
296.951
296.372
295.469
297.243
297.216
297.018
296.568
295.686
294.546
297.106
297.056
296.755
296.11
295.048
293.793
296.995
296.948
296.588
295.848
294.664
293.368
296.877
296.793
296.375
295.6
294.428
293.23
296.777
296.638
296.176
295.417
294.363
293.358
296.648
296.44
295.949
295.225
294.336
293.547
296.517
296.238
295.726
295.044
294.376
293.758
296.341
296.01
295.505
294.876
294.338
293.791
296.148
295.793
295.315
294.772
294.258
293.702
295.914
295.559
295.123
294.671
294.124
293.402
295.676
295.334
294.952
294.546
293.919
292.938
295.444
295.115
294.739
294.284
293.521
292.299
295.271
294.962
294.615
294.088
293.158
291.742
295.048
294.702
294.281
293.615
292.569
291.264
295.102
294.841
294.515
293.815
292.69
291.347
295.444
295.164
294.77
294.006
292.824
291.424
295.758
295.522
295.149
294.388
293.201
291.84
296.061
295.859
295.488
294.783
293.702
292.517
296.324
296.183
295.835
295.221
294.309
293.411
296.531
296.408
296.107
295.602
294.873
294.282
296.726
296.6
296.318
295.888
295.354
294.969
296.865
296.713
296.419
296.046
295.664
295.431
297.007
296.831
296.528
296.203
295.878
295.666
297.097
296.921
296.622
296.324
296.039
295.79
297.184
297.012
296.755
296.47
296.159
295.813
297.261
297.108
296.894
296.605
296.238
295.66
297.332
297.194
297.001
296.711
296.261
295.491
297.427
297.292
297.085
296.765
296.245
295.434
299.028
299.324
299.489
299.633
299.71
299.864
299.196
299.495
299.646
299.78
299.784
299.812
299.335
299.62
299.76
299.847
299.776
299.582
299.666
299.871
299.907
299.882
299.723
299.253
297.513
297.355
297.181
296.905
296.379
295.626
297.852
297.73
297.603
297.319
296.765
295.968
298.073
298.009
297.96
297.747
297.228
296.505
298.305
298.343
298.351
298.212
297.794
297.24
298.495
298.617
298.675
298.619
298.347
298.064
298.661
298.861
298.964
298.972
298.82
298.77
298.795
299.038
299.167
299.228
299.189
299.246
298.911
299.169
299.315
299.425
299.435
299.543
299.005
299.266
299.429
299.573
299.616
299.742
299.094
299.367
299.533
299.686
299.771
299.915
299.191
299.469
299.631
299.783
299.869
300.044
299.312
299.584
299.732
299.887
299.958
300.06
299.43
299.699
299.841
299.962
299.944
299.859
299.709
299.911
299.976
299.991
299.871
299.534
297.892
296.166
297.555
304.548
312.712
297.755
296.48
298.663
305.771
312.293
297.951
297.347
300.226
306.74
311.807
298.49
298.645
301.784
306.733
309.687
298.932
299.723
303.026
307.152
308.926
299.161
300.263
302.908
306.238
308.312
299.382
300.394
302.181
304.497
306.865
299.161
299.713
300.524
302.754
305.903
306.216
298.759
298.758
299.052
302.133
306.327
307.364
298.127
297.041
297.121
301.426
307.685
310.077
297.163
295.105
295.433
301.038
308.345
311.28
309.698
295.93
293.317
293.964
300.318
307.86
310.729
309.545
306.745
294.605
291.887
293.023
299.381
306.356
308.587
308.414
311.461
293.322
290.884
292.69
299.075
305.918
308.176
308.143
305.798
292.318
290.443
293.081
299.34
305.099
306.791
306.151
301.422
291.737
290.544
293.757
299.464
304.807
305.998
303.939
301.484
291.54
291.083
294.711
299.67
303.776
303.638
302.781
299.197
291.736
292.034
295.655
299.286
301.977
301.891
300.217
295.074
292.232
293.015
296.244
299.126
301.233
300.766
299.324
293.25
292.772
293.706
295.892
298.504
301.344
301.456
298.826
294.369
293.186
293.736
294.426
296.839
300.151
300.088
299.043
294.339
293.074
292.728
292.585
296.29
301.161
301.898
297.942
294.472
292.638
291.287
291.552
296.43
301.269
301.554
291.869
289.423
290.351
296.82
302.722
303.218
290.805
287.843
289.27
296.201
302.497
303.904
289.742
286.729
288.391
295.759
303.063
304.438
288.902
285.999
287.543
293.999
300.685
302.087
288.458
285.705
287.528
293.762
300.602
288.618
286.191
288.517
295.083
300.812
289.142
287.332
290.06
295.733
300.158
289.98
289.04
292.058
296.222
299.471
291.122
290.922
293.785
296.636
299.668
292.373
292.619
295.034
296.892
299.338
293.491
293.831
295.43
296.533
299.991
294.394
294.512
294.934
295.762
299.429
294.923
294.635
293.887
295.929
301.52
295.087
294.304
292.926
296.306
302.788
294.964
293.585
291.985
296.723
305.385
294.643
292.464
291.161
296.253
305.401
294.208
291.421
290.539
296.036
306.302
293.736
290.781
290.33
295.684
304.84
293.62
290.721
290.865
297.076
305.762
293.868
291.381
292.264
299.168
306.935
294.479
292.811
294.481
300.309
305.469
295.414
294.465
296.579
300.905
304.854
296.585
296.306
298.559
301.725
304.82
297.756
298.013
300.061
302.368
304.347
298.671
299.153
300.705
302.195
304.253
299.31
299.82
300.676
301.447
303.116
299.684
300.126
300.308
301.419
303.739
299.853
300.129
299.754
301.841
305.5
299.812
299.629
298.943
302.224
308.064
299.616
298.869
297.998
302.075
309.324
299.191
297.922
297.198
301.803
309.849
298.691
297.071
296.819
301.649
309.57
298.2
296.327
296.925
302.618
310.636
299.937
299.794
299.682
299.559
299.444
299.337
299.256
299.157
299.043
298.891
298.72
298.507
298.314
298.062
299.799
299.649
299.483
299.329
299.2
299.089
299.007
298.909
298.799
298.651
298.481
298.274
298.093
297.872
299.678
299.489
299.303
299.123
298.98
298.862
298.772
298.673
298.568
298.434
298.278
298.095
297.926
297.738
299.536
299.331
299.131
298.942
298.784
298.655
298.553
298.446
298.335
298.203
298.052
297.892
297.746
297.599
299.373
299.166
298.955
298.771
298.607
298.472
298.359
298.247
298.131
298.005
297.861
297.72
297.596
297.484
299.19
298.985
298.783
298.609
298.445
298.306
298.181
298.059
297.935
297.809
297.674
297.55
297.447
297.357
298.994
298.793
298.609
298.449
298.296
298.159
298.028
297.896
297.767
297.639
297.513
297.404
297.318
297.245
298.786
298.602
298.445
298.301
298.163
298.027
297.891
297.749
297.608
297.471
297.354
297.254
297.178
297.111
298.589
298.426
298.293
298.163
298.038
297.905
297.764
297.613
297.46
297.317
297.202
297.107
297.035
296.97
298.419
298.29
298.175
298.05
297.931
297.794
297.643
297.486
297.323
297.181
297.055
296.963
296.874
296.801
298.272
298.162
298.068
297.951
297.839
297.693
297.53
297.366
297.194
297.047
296.904
296.802
296.678
296.6
298.138
298.05
297.985
297.869
297.755
297.603
297.43
297.258
297.075
296.918
296.763
296.641
296.483
296.386
297.989
297.918
297.874
297.775
297.673
297.527
297.351
297.178
296.982
296.811
296.636
296.473
296.271
296.137
297.793
297.747
297.739
297.656
297.565
297.45
297.284
297.117
296.911
296.725
296.526
296.329
296.107
295.872
300.714
300.618
300.525
300.391
300.299
300.195
300.132
300.057
299.977
299.88
299.781
299.619
299.47
299.27
300.561
300.425
300.295
300.154
300.056
299.952
299.882
299.804
299.738
299.638
299.536
299.379
299.239
299.043
300.438
300.285
300.133
299.972
299.855
299.745
299.674
299.6
299.534
299.44
299.345
299.196
299.064
298.877
300.242
300.096
299.93
299.779
299.654
299.549
299.475
299.4
299.327
299.227
299.128
298.982
298.854
298.692
300.064
299.917
299.747
299.608
299.476
299.376
299.299
299.224
299.148
299.047
298.946
298.808
298.685
298.548
299.854
299.7
299.556
299.427
299.31
299.212
299.133
299.051
298.965
298.856
298.749
298.622
298.507
298.396
299.634
299.482
299.362
299.247
299.149
299.052
298.973
298.883
298.787
298.675
298.566
298.456
298.355
298.264
299.408
299.285
299.186
299.083
299.006
298.905
298.821
298.718
298.605
298.484
298.369
298.269
298.183
298.1
299.206
299.105
299.026
298.924
298.86
298.753
298.657
298.54
298.411
298.288
298.177
298.093
298.026
297.949
299.038
298.961
298.904
298.79
298.728
298.611
298.497
298.368
298.226
298.102
297.985
297.906
297.823
297.754
298.895
298.813
298.783
298.667
298.597
298.468
298.329
298.186
298.03
297.9
297.772
297.699
297.596
297.569
298.755
298.684
298.684
298.568
298.479
298.344
298.18
298.029
297.863
297.728
297.598
297.514
297.379
297.347
298.584
298.518
298.54
298.444
298.359
298.236
298.052
297.891
297.709
297.561
297.414
297.297
297.139
297.073
298.384
298.372
298.403
298.315
298.234
298.136
297.962
297.802
297.609
297.445
297.279
297.13
296.952
296.785
301.945
301.857
301.824
301.71
301.645
301.551
301.489
301.423
301.362
301.294
301.226
301.122
301.038
300.894
301.751
301.675
301.582
301.467
301.388
301.301
301.241
301.18
301.122
301.052
300.977
300.868
300.791
300.668
301.541
301.469
301.37
301.268
301.189
301.11
301.053
300.993
300.937
300.871
300.801
300.697
300.619
300.492
301.297
301.245
301.149
301.066
300.991
300.923
300.87
300.812
300.754
300.683
300.607
300.5
300.413
300.284
301.039
301.008
300.926
300.861
300.799
300.744
300.697
300.643
300.584
300.51
300.429
300.323
300.232
300.116
300.794
300.771
300.713
300.661
300.617
300.571
300.526
300.47
300.405
300.324
300.237
300.131
300.037
299.936
300.566
300.537
300.503
300.467
300.437
300.397
300.35
300.292
300.22
300.135
300.043
299.945
299.854
299.774
300.359
300.327
300.319
300.289
300.267
300.225
300.17
300.103
300.021
299.929
299.832
299.743
299.655
299.594
300.183
300.14
300.149
300.115
300.087
300.039
299.973
299.897
299.808
299.719
299.626
299.557
299.476
299.433
300.035
299.985
300.012
299.96
299.917
299.857
299.775
299.69
299.594
299.506
299.413
299.354
299.268
299.229
299.91
299.835
299.872
299.807
299.743
299.671
299.57
299.474
299.37
299.282
299.193
299.151
299.064
299.051
299.787
299.716
299.752
299.676
299.587
299.503
299.386
299.281
299.17
299.083
298.996
298.943
298.835
298.828
299.633
299.562
299.593
299.532
299.44
299.352
299.22
299.099
298.975
298.875
298.782
298.711
298.605
298.559
299.456
299.438
299.461
299.395
299.304
299.222
299.093
298.969
298.836
298.732
298.634
298.531
298.393
298.249
303.289
303.228
303.225
303.156
303.105
303.04
302.998
302.955
302.916
302.871
302.828
302.767
302.713
302.627
303.065
303.038
303.006
302.942
302.89
302.831
302.787
302.74
302.696
302.647
302.596
302.528
302.477
302.408
302.846
302.84
302.796
302.744
302.696
302.647
302.608
302.565
302.523
302.475
302.426
302.363
302.314
302.246
302.609
302.617
302.574
302.539
302.504
302.468
302.435
302.395
302.352
302.301
302.245
302.179
302.121
302.046
302.378
302.387
302.357
302.339
302.32
302.294
302.267
302.23
302.186
302.132
302.073
302.003
301.939
301.867
302.157
302.162
302.153
302.146
302.139
302.12
302.095
302.058
302.013
301.955
301.889
301.816
301.746
301.675
301.955
301.952
301.961
301.96
301.958
301.943
301.918
301.881
301.833
301.772
301.703
301.628
301.556
301.492
301.779
301.764
301.786
301.785
301.782
301.765
301.735
301.695
301.642
301.578
301.506
301.433
301.36
301.306
301.627
301.59
301.615
301.611
301.601
301.578
301.542
301.498
301.443
301.38
301.31
301.245
301.171
301.128
301.495
301.441
301.463
301.451
301.428
301.396
301.35
301.3
301.24
301.176
301.107
301.048
300.972
300.935
301.366
301.303
301.31
301.293
301.252
301.211
301.153
301.095
301.033
300.974
300.91
300.865
300.786
300.765
301.245
301.191
301.184
301.156
301.092
301.044
300.976
300.911
300.842
300.781
300.712
300.66
300.567
300.556
301.097
301.076
301.046
301.017
300.943
300.888
300.806
300.728
300.648
300.58
300.513
300.458
300.38
300.336
300.952
300.95
300.923
300.893
300.813
300.756
300.671
300.59
300.505
300.434
300.356
300.27
300.164
300.032
304.668
304.638
304.655
304.632
304.628
304.619
304.609
304.595
304.582
304.567
304.552
304.532
304.518
304.503
304.452
304.459
304.467
304.451
304.449
304.441
304.427
304.407
304.387
304.363
304.34
304.313
304.296
304.278
304.266
304.289
304.288
304.281
304.281
304.275
304.263
304.244
304.224
304.2
304.176
304.149
304.133
304.117
304.077
304.103
304.105
304.108
304.112
304.11
304.1
304.082
304.06
304.032
304.004
303.974
303.953
303.937
303.893
303.914
303.926
303.937
303.947
303.948
303.941
303.925
303.902
303.872
303.84
303.808
303.783
303.766
303.72
303.735
303.755
303.771
303.784
303.788
303.781
303.765
303.741
303.708
303.672
303.635
303.603
303.582
303.562
303.57
303.595
303.612
303.625
303.629
303.623
303.606
303.58
303.545
303.504
303.463
303.426
303.403
303.421
303.417
303.442
303.457
303.468
303.47
303.462
303.444
303.415
303.377
303.332
303.288
303.246
303.223
303.291
303.274
303.295
303.306
303.312
303.311
303.299
303.279
303.248
303.208
303.162
303.116
303.072
303.051
303.178
303.149
303.159
303.164
303.161
303.153
303.135
303.111
303.078
303.038
302.991
302.945
302.898
302.881
303.058
303.03
303.025
303.026
303.011
302.994
302.969
302.941
302.907
302.867
302.823
302.782
302.733
302.726
302.97
302.94
302.919
302.905
302.872
302.846
302.813
302.779
302.739
302.697
302.65
302.608
302.555
302.552
302.845
302.843
302.805
302.785
302.741
302.705
302.661
302.617
302.57
302.527
302.483
302.446
302.403
302.385
302.761
302.748
302.71
302.687
302.631
302.586
302.535
302.484
302.431
302.382
302.329
302.277
302.218
302.162
305.98
305.97
305.994
306.007
306.031
306.053
306.074
306.089
306.101
306.107
306.117
306.124
306.14
306.148
305.803
305.814
305.841
305.861
305.889
305.912
305.93
305.941
305.945
305.943
305.941
305.939
305.946
305.957
305.653
305.676
305.701
305.727
305.755
305.778
305.795
305.804
305.805
305.8
305.795
305.793
305.797
305.807
305.505
305.531
305.56
305.588
305.618
305.64
305.656
305.662
305.659
305.65
305.639
305.633
305.633
305.645
305.366
305.389
305.42
305.451
305.481
305.503
305.519
305.523
305.516
305.505
305.49
305.481
305.479
305.49
305.235
305.25
305.283
305.314
305.343
305.365
305.379
305.38
305.37
305.355
305.335
305.322
305.315
305.327
305.111
305.12
305.15
305.179
305.207
305.228
305.24
305.239
305.226
305.207
305.184
305.167
305.156
305.17
304.998
304.998
305.022
305.048
305.072
305.091
305.1
305.097
305.08
305.058
305.031
305.011
304.997
305.013
304.895
304.886
304.901
304.921
304.94
304.955
304.961
304.954
304.936
304.911
304.882
304.861
304.844
304.861
304.799
304.785
304.788
304.8
304.81
304.821
304.822
304.813
304.792
304.766
304.737
304.717
304.699
304.716
304.713
304.693
304.683
304.686
304.687
304.689
304.684
304.672
304.65
304.625
304.598
304.582
304.564
304.584
304.643
304.618
304.593
304.582
304.571
304.563
304.551
304.535
304.512
304.487
304.463
304.452
304.434
304.456
304.561
304.542
304.507
304.487
304.463
304.445
304.423
304.402
304.376
304.354
304.335
304.331
304.322
304.343
304.522
304.481
304.442
304.411
304.371
304.342
304.312
304.286
304.258
304.237
304.218
304.213
304.196
304.223
307.075
307.086
307.105
307.129
307.16
307.193
307.226
307.258
307.287
307.316
307.347
307.378
307.42
307.447
306.935
306.949
306.976
307.007
307.046
307.084
307.121
307.153
307.179
307.202
307.224
307.249
307.279
307.309
306.809
306.834
306.863
306.899
306.941
306.981
307.018
307.049
307.072
307.092
307.112
307.135
307.167
307.195
306.69
306.715
306.75
306.79
306.834
306.876
306.912
306.941
306.962
306.979
306.993
307.014
307.042
307.074
306.583
306.607
306.643
306.684
306.728
306.77
306.805
306.832
306.849
306.863
306.875
306.894
306.921
306.957
306.483
306.504
306.539
306.579
306.623
306.663
306.695
306.719
306.732
306.743
306.751
306.767
306.791
306.832
306.393
306.408
306.44
306.478
306.519
306.556
306.585
306.604
306.614
306.621
306.626
306.641
306.661
306.705
306.311
306.32
306.346
306.38
306.417
306.45
306.474
306.49
306.496
306.499
306.501
306.513
306.529
306.576
306.239
306.241
306.26
306.287
306.318
306.346
306.366
306.378
306.38
306.38
306.378
306.389
306.401
306.45
306.176
306.171
306.181
306.201
306.224
306.246
306.261
306.269
306.268
306.267
306.262
306.271
306.28
306.33
306.125
306.112
306.111
306.122
306.136
306.151
306.161
306.165
306.161
306.159
306.154
306.163
306.171
306.221
306.083
306.063
306.049
306.05
306.054
306.061
306.064
306.065
306.061
306.06
306.056
306.067
306.075
306.122
306.042
306.019
305.997
305.988
305.981
305.978
305.974
305.971
305.966
305.967
305.967
305.982
305.995
306.043
306.026
305.985
305.955
305.934
305.914
305.9
305.891
305.886
305.882
305.887
305.891
305.908
305.916
305.976
307.843
307.872
307.888
307.91
307.935
307.964
307.996
308.032
308.071
308.114
308.164
308.214
308.279
308.326
307.728
307.754
307.775
307.803
307.836
307.872
307.91
307.951
307.993
308.037
308.086
308.135
308.192
308.242
307.627
307.657
307.679
307.71
307.746
307.785
307.825
307.867
307.91
307.954
308.003
308.05
308.111
308.16
307.533
307.558
307.584
307.618
307.657
307.699
307.742
307.786
307.829
307.873
307.921
307.969
308.028
308.081
307.453
307.474
307.5
307.534
307.574
307.616
307.658
307.701
307.744
307.787
307.834
307.883
307.943
308
307.38
307.397
307.422
307.455
307.494
307.535
307.575
307.617
307.657
307.7
307.745
307.795
307.853
307.914
307.318
307.33
307.353
307.383
307.419
307.457
307.494
307.533
307.57
307.611
307.653
307.703
307.758
307.824
307.267
307.274
307.292
307.318
307.349
307.383
307.416
307.45
307.483
307.521
307.559
307.608
307.659
307.729
307.225
307.226
307.238
307.259
307.284
307.312
307.34
307.37
307.398
307.433
307.466
307.513
307.559
307.633
307.192
307.187
307.192
307.205
307.224
307.246
307.269
307.294
307.317
307.348
307.376
307.421
307.462
307.536
307.167
307.155
307.152
307.158
307.169
307.184
307.201
307.221
307.241
307.268
307.292
307.334
307.371
307.446
307.146
307.128
307.117
307.114
307.117
307.125
307.137
307.153
307.169
307.194
307.216
307.257
307.29
307.364
307.129
307.106
307.085
307.076
307.07
307.072
307.078
307.091
307.105
307.129
307.151
307.192
307.225
307.296
307.12
307.084
307.058
307.039
307.026
307.02
307.023
307.033
307.045
307.068
307.091
307.13
307.16
307.232
308.395
308.421
308.43
308.442
308.456
308.475
308.497
308.528
308.565
308.609
308.664
308.72
308.792
308.85
308.304
308.327
308.337
308.351
308.367
308.39
308.418
308.454
308.497
308.546
308.605
308.664
308.733
308.792
308.227
308.249
308.256
308.269
308.286
308.31
308.34
308.378
308.423
308.473
308.534
308.592
308.666
308.724
308.153
308.169
308.176
308.189
308.208
308.234
308.267
308.308
308.355
308.409
308.47
308.531
308.604
308.666
308.092
308.102
308.107
308.119
308.137
308.163
308.196
308.237
308.285
308.34
308.402
308.464
308.537
308.603
308.036
308.041
308.044
308.054
308.072
308.097
308.13
308.171
308.219
308.274
308.336
308.4
308.473
308.542
307.989
307.99
307.991
307.998
308.013
308.037
308.068
308.108
308.155
308.21
308.27
308.336
308.408
308.481
307.951
307.946
307.944
307.949
307.961
307.982
308.011
308.049
308.093
308.148
308.206
308.273
308.343
308.421
307.918
307.909
307.904
307.906
307.914
307.933
307.958
307.994
308.036
308.089
308.145
308.213
308.28
308.361
307.892
307.878
307.87
307.868
307.872
307.887
307.909
307.942
307.982
308.033
308.087
308.154
308.219
308.302
307.868
307.85
307.838
307.833
307.834
307.845
307.865
307.896
307.932
307.982
308.034
308.1
308.162
308.247
307.847
307.825
307.809
307.8
307.798
307.806
307.823
307.851
307.885
307.933
307.983
308.049
308.11
308.196
307.824
307.802
307.78
307.769
307.764
307.771
307.786
307.813
307.846
307.894
307.943
308.01
308.07
308.154
307.802
307.773
307.753
307.739
307.733
307.739
307.752
307.776
307.805
307.849
307.896
307.958
308.016
308.099
308.758
308.77
308.77
308.773
308.778
308.789
308.804
308.827
308.856
308.893
308.942
308.992
309.058
309.113
308.687
308.697
308.695
308.697
308.701
308.713
308.73
308.755
308.788
308.829
308.882
308.936
309.001
309.054
308.628
308.634
308.628
308.627
308.63
308.64
308.657
308.683
308.717
308.759
308.812
308.865
308.933
308.987
308.565
308.568
308.56
308.558
308.559
308.57
308.588
308.617
308.653
308.697
308.752
308.807
308.874
308.931
308.516
308.513
308.501
308.497
308.496
308.506
308.525
308.553
308.59
308.636
308.69
308.747
308.814
308.873
308.466
308.458
308.445
308.439
308.438
308.447
308.466
308.495
308.533
308.579
308.634
308.693
308.759
308.821
308.422
308.409
308.394
308.387
308.385
308.394
308.412
308.442
308.479
308.527
308.582
308.643
308.709
308.774
308.383
308.365
308.35
308.341
308.338
308.346
308.364
308.393
308.431
308.479
308.535
308.597
308.663
308.73
308.344
308.323
308.307
308.298
308.295
308.302
308.32
308.35
308.388
308.438
308.495
308.56
308.625
308.695
308.309
308.286
308.27
308.26
308.257
308.265
308.282
308.311
308.349
308.4
308.458
308.524
308.591
308.664
308.272
308.25
308.234
308.224
308.221
308.23
308.248
308.279
308.319
308.372
308.431
308.5
308.566
308.642
308.238
308.216
308.202
308.193
308.192
308.202
308.22
308.251
308.291
308.345
308.404
308.475
308.543
308.623
308.202
308.184
308.169
308.162
308.164
308.175
308.195
308.23
308.274
308.33
308.391
308.463
308.532
308.611
308.165
308.148
308.139
308.137
308.142
308.155
308.178
308.212
308.255
308.311
308.371
308.441
308.51
308.589
308.952
308.952
308.95
308.951
308.955
308.964
308.977
308.997
309.023
309.055
309.095
309.136
309.186
309.227
308.894
308.896
308.891
308.89
308.891
308.898
308.91
308.93
308.956
308.99
309.031
309.075
309.127
309.167
308.849
308.846
308.837
308.832
308.83
308.835
308.845
308.863
308.888
308.921
308.962
309.004
309.059
309.101
308.797
308.791
308.779
308.772
308.768
308.772
308.781
308.799
308.825
308.858
308.901
308.944
308.998
309.043
308.751
308.74
308.725
308.716
308.71
308.713
308.722
308.74
308.765
308.799
308.841
308.885
308.938
308.986
308.702
308.688
308.672
308.662
308.655
308.657
308.666
308.684
308.71
308.745
308.787
308.833
308.884
308.934
308.653
308.637
308.62
308.61
308.604
308.606
308.616
308.635
308.662
308.699
308.741
308.788
308.839
308.891
308.607
308.589
308.573
308.563
308.558
308.561
308.571
308.591
308.62
308.657
308.7
308.748
308.799
308.853
308.559
308.539
308.526
308.516
308.513
308.518
308.531
308.554
308.585
308.626
308.67
308.721
308.772
308.826
308.515
308.496
308.485
308.478
308.478
308.485
308.5
308.524
308.556
308.598
308.644
308.697
308.749
308.806
308.471
308.453
308.445
308.44
308.443
308.453
308.472
308.501
308.537
308.582
308.632
308.686
308.739
308.797
308.429
308.417
308.413
308.412
308.419
308.433
308.455
308.486
308.524
308.571
308.621
308.678
308.734
308.793
308.391
308.384
308.383
308.386
308.396
308.415
308.441
308.477
308.52
308.57
308.624
308.683
308.741
308.8
308.353
308.353
308.36
308.37
308.386
308.409
308.439
308.478
308.521
308.572
308.625
308.683
308.741
308.802
309.023
309.023
309.026
309.031
309.039
309.051
309.065
309.084
309.106
309.131
309.16
309.19
309.226
309.254
308.978
308.981
308.981
308.983
308.988
308.998
309.011
309.029
309.051
309.077
309.107
309.138
309.175
309.203
308.939
308.939
308.937
308.937
308.939
308.948
308.959
308.975
308.995
309.02
309.049
309.08
309.118
309.149
308.895
308.893
308.889
308.887
308.888
308.895
308.905
308.921
308.941
308.965
308.994
309.025
309.063
309.095
308.85
308.846
308.84
308.838
308.838
308.844
308.854
308.869
308.889
308.913
308.942
308.973
309.01
309.044
308.805
308.8
308.793
308.791
308.791
308.797
308.806
308.821
308.84
308.864
308.893
308.924
308.961
308.997
308.758
308.751
308.745
308.743
308.744
308.75
308.761
308.777
308.797
308.822
308.851
308.883
308.919
308.956
308.713
308.706
308.702
308.701
308.703
308.71
308.722
308.738
308.759
308.785
308.814
308.848
308.883
308.922
308.667
308.66
308.658
308.658
308.663
308.673
308.687
308.707
308.73
308.757
308.787
308.821
308.856
308.896
308.627
308.621
308.622
308.625
308.632
308.645
308.661
308.682
308.707
308.736
308.767
308.803
308.838
308.877
308.588
308.584
308.588
308.594
308.605
308.621
308.641
308.667
308.694
308.726
308.758
308.795
308.83
308.868
308.556
308.558
308.567
308.576
308.59
308.609
308.631
308.658
308.687
308.721
308.755
308.791
308.827
308.866
308.527
308.534
308.545
308.56
308.579
308.603
308.629
308.659
308.691
308.726
308.761
308.798
308.834
308.871
308.507
308.522
308.537
308.558
308.581
308.609
308.638
308.67
308.703
308.738
308.772
308.808
308.843
308.88
309.034
309.037
309.045
309.053
309.064
309.077
309.092
309.109
309.126
309.145
309.164
309.185
309.206
309.226
308.999
309.006
309.014
309.023
309.034
309.047
309.06
309.076
309.092
309.111
309.131
309.152
309.175
309.194
308.969
308.978
308.985
308.994
309.004
309.016
309.028
309.043
309.059
309.076
309.095
309.115
309.138
309.159
308.938
308.947
308.954
308.964
308.973
308.983
308.995
309.008
309.023
309.04
309.059
309.079
309.103
309.125
308.903
308.913
308.92
308.929
308.938
308.948
308.96
308.973
308.988
309.004
309.023
309.042
309.065
309.088
308.868
308.878
308.886
308.895
308.904
308.915
308.926
308.939
308.953
308.969
308.987
309.006
309.029
309.053
308.83
308.84
308.849
308.86
308.87
308.882
308.893
308.906
308.921
308.936
308.954
308.973
308.995
309.02
308.794
308.805
308.817
308.828
308.84
308.852
308.865
308.878
308.892
308.908
308.925
308.944
308.965
308.991
308.76
308.772
308.787
308.8
308.814
308.827
308.84
308.853
308.867
308.883
308.9
308.919
308.939
308.965
308.732
308.746
308.763
308.778
308.792
308.807
308.82
308.834
308.848
308.864
308.88
308.9
308.919
308.944
308.709
308.725
308.744
308.761
308.777
308.793
308.807
308.822
308.836
308.852
308.868
308.886
308.905
308.928
308.693
308.712
308.733
308.751
308.769
308.785
308.801
308.816
308.831
308.846
308.861
308.879
308.896
308.917
308.683
308.705
308.727
308.748
308.767
308.785
308.801
308.818
308.833
308.848
308.863
308.879
308.894
308.911
308.686
308.712
308.734
308.756
308.775
308.793
308.81
308.825
308.839
308.853
308.865
308.879
308.892
308.909
308.995
309.009
309.022
309.035
309.048
309.06
309.073
309.086
309.1
309.115
309.129
309.144
309.157
309.174
308.97
308.986
309
309.014
309.028
309.042
309.056
309.069
309.084
309.098
309.114
309.13
309.146
309.161
308.944
308.964
308.978
308.995
309.01
309.024
309.039
309.053
309.067
309.082
309.097
309.113
309.128
309.144
308.919
308.94
308.958
308.975
308.992
309.007
309.022
309.036
309.051
309.066
309.081
309.097
309.113
309.129
308.894
308.916
308.936
308.956
308.973
308.99
309.005
309.02
309.035
309.049
309.064
309.08
309.096
309.112
308.871
308.895
308.917
308.938
308.957
308.974
308.989
309.004
309.018
309.032
309.047
309.062
309.078
309.095
308.852
308.877
308.9
308.922
308.941
308.958
308.973
308.987
309.001
309.014
309.027
309.042
309.057
309.074
308.836
308.861
308.886
308.907
308.927
308.943
308.958
308.971
308.984
308.996
309.009
309.023
309.037
309.054
308.823
308.849
308.874
308.896
308.914
308.93
308.944
308.956
308.968
308.979
308.991
309.003
309.017
309.033
308.815
308.841
308.865
308.887
308.905
308.92
308.932
308.944
308.954
308.964
308.974
308.985
308.996
309.012
308.812
308.837
308.861
308.882
308.899
308.912
308.923
308.933
308.941
308.949
308.957
308.966
308.975
308.989
308.813
308.839
308.861
308.881
308.896
308.908
308.917
308.925
308.931
308.936
308.941
308.948
308.956
308.968
308.819
308.843
308.865
308.884
308.897
308.908
308.914
308.919
308.922
308.925
308.928
308.933
308.938
308.947
308.832
308.856
308.875
308.891
308.902
308.911
308.915
308.916
308.916
308.916
308.916
308.916
308.919
308.925
308.913
308.936