/*--------------------------------*- C++ -*----------------------------------*\
| =========                 |                                                 |
| \\      /  F ield         | OpenFOAM: The Open Source CFD Toolbox           |
|  \\    /   O peration     | Version:  v2106                                 |
|   \\  /    A nd           | Website:  www.openfoam.com                      |
|    \\/     M anipulation  |                                                 |
\*---------------------------------------------------------------------------*/
FoamFile
{
    version     2.0;
    format      ascii;
    arch        "LSB;label=32;scalar=64";
    class       volScalarField;
    location    "0.000198";
    object      p;
}
// * * * * * * * * * * * * * * * * * * * * * * * * * * * * * * * * * * * * * //

dimensions      [1 -1 -2 0 0 0 0];

internalField   nonuniform List<scalar> 
18109
(
205536
205234
204924
204586
204213
203781
203292
205463
205134
204822
204491
204125
203700
203205
205352
204989
204653
204319
203956
203548
203081
205275
204877
204516
204164
203795
203389
202931
205200
204778
204393
204023
203644
203234
202778
205196
204761
204354
203954
203547
203118
202658
205262
204817
204393
203970
203524
203068
202599
205388
204943
204503
204049
203587
203111
202625
206162
205814
205489
205146
204792
204397
203960
203476
202964
202446
201926
201380
200855
200230
206051
205674
205350
205017
204673
204292
203856
203382
202887
202388
201892
201389
200882
200401
205920
205526
205177
204843
204504
204139
203729
203281
202805
202331
201862
201403
200933
200490
205806
205402
205045
204704
204359
203995
203589
203152
202694
202238
201785
201345
200897
200470
205732
205321
204950
204593
204235
203857
203445
203008
202555
202110
201669
201238
200807
200403
205741
205321
204927
204539
204153
203748
203320
202876
202424
201983
201546
201119
200700
200310
205816
205386
204969
204557
204127
203688
203236
202779
202323
201881
201444
201019
200604
200224
205962
205523
205076
204611
204142
203677
203205
202737
202277
201831
201391
200966
200556
200167
206144
205691
205219
204734
204238
203734
203237
202755
202289
201840
201397
200967
200552
200153
206332
205878
205391
204885
204364
203844
203334
202842
202370
201913
201464
201027
200609
200204
206506
206040
205547
205034
204509
203985
203474
202984
202515
202058
201609
201163
200733
200313
206639
206160
205673
205168
204655
204142
203644
203171
202714
202265
201818
201367
200918
200461
206724
206239
205768
205275
204786
204297
203823
203374
202932
202494
202053
201603
201152
200658
206598
206146
205729
205290
204860
204435
204017
203614
203201
202778
202341
201873
201394
200832
205766
205977
206223
206550
206878
207256
206359
206565
206745
206922
207054
207259
206009
206257
206504
206801
207083
207450
205736
205987
206283
206650
207012
207419
205382
205643
205942
206354
206776
207198
205004
205258
205516
205881
206278
206658
204559
204776
204984
205291
205642
206044
204067
204211
204360
204587
204853
205131
203520
203575
203637
203738
203857
203999
202952
202906
202862
202811
202798
202772
202361
202180
202022
201815
201660
201406
201786
201513
201236
200863
200521
200244
201158
200765
200407
199975
199586
199282
200639
200203
199831
199392
199033
198731
199999
199452
199092
198635
198309
198055
199856
199566
199274
198916
198494
198145
200011
199562
199164
198818
198469
198183
200058
199675
199272
198909
198583
198302
200027
199639
199226
198873
198546
198280
199967
199585
199173
198823
198465
198121
199877
199498
199086
198721
198329
197960
199798
199415
199002
198623
198193
197740
199758
199375
198957
198537
198076
197536
199762
199368
198948
198486
197953
197274
199810
199410
198967
198484
197843
197091
199916
199506
199062
198562
197910
197188
200075
199701
199266
198733
198144
197511
200315
199983
199626
199180
198711
198252
200428
200193
199891
199553
199237
198899
200942
200772
200667
200413
200271
200034
201530
201437
201363
201193
201075
200971
202081
202081
202091
202042
202009
201988
202568
202693
202779
202818
202856
202983
203030
203248
203408
203536
203619
203818
203461
203730
203930
204117
204216
204462
203856
204128
204340
204567
204684
204953
204229
204478
204676
204883
204965
205192
204609
204813
204964
205114
205148
205350
205002
205161
205247
205336
205328
205469
205404
205539
205561
205593
205549
205672
205847
205959
205944
205934
205915
206002
206266
206394
206419
206420
206508
206551
206786
206897
206980
207042
207205
207380
205745
206276
206776
207264
207693
207876
205767
206174
206535
206918
207195
207395
205798
206139
206368
206663
206842
207116
205838
206021
206169
206375
206625
207014
207066
207228
207501
207740
208030
208356
207162
207476
207853
208224
208625
209095
207135
207568
208048
208525
209034
209616
207025
207543
208098
208672
209275
209983
206852
207413
207999
208635
209280
210035
206661
207238
207825
208489
209166
209962
206462
207034
207640
208335
209046
209888
206318
206902
207536
208242
208926
209751
206243
206834
207468
208162
208787
209546
206228
206825
207452
208108
208682
209177
206289
206867
207405
207920
208341
208500
206369
206837
207236
207611
207864
207911
206428
206818
207051
207299
207372
207409
206493
206702
206805
206883
206925
207086
207866
209413
212339
217773
225928
208244
209913
212858
218534
227733
208218
209888
213167
219889
233117
207953
209476
212751
219994
233241
207140
208858
211993
218226
228527
206423
207736
210444
215139
222503
205586
206688
209449
214590
224219
204280
205061
207626
212283
220934
229459
202843
203254
205432
208900
214961
220914
201370
201821
204314
208672
215388
222584
200091
200585
203567
208972
218156
229067
238328
199171
199830
203222
210099
221885
236151
252396
268452
198472
199181
202524
210118
224424
245338
275854
311005
197920
198775
201975
209249
222280
241087
265624
285854
197697
198391
201245
207156
216219
228395
243533
253170
197736
198257
201221
207014
216565
231075
240345
249321
197992
198526
201639
207877
220625
240417
263229
272305
198059
198513
201157
207080
218983
237235
257633
286072
197983
198531
200912
205696
214046
224826
238238
245589
197625
197964
200021
204178
211531
221426
226549
231371
197298
197246
199402
204595
216343
231775
244392
247475
196775
196374
198438
203505
214188
228930
245830
269568
196260
195695
197112
200926
207456
214845
195922
195317
196805
200612
206413
212317
196095
195608
197398
201782
209015
217800
196577
196146
198125
203780
213536
226639
197424
197087
199201
205349
216897
235424
198492
198289
200168
205786
216242
199741
199756
201326
205542
212323
200967
201280
202972
206633
213362
202185
202643
204656
208163
217131
203231
203648
205599
208009
215540
204177
204584
206549
209196
214656
204778
205153
206724
209518
214863
205089
205615
207118
210646
218988
205032
205562
206839
210493
218168
205104
205478
206482
209673
215326
205183
205457
206391
209837
216191
205526
205919
207132
210662
218414
206113
206673
208339
212273
221891
206991
207802
209969
214091
224175
208083
209224
211670
215826
225282
209222
210787
213369
217492
224913
210181
211975
214582
218843
226360
210825
212728
215520
220162
230545
211271
212937
215827
220413
229975
211425
213105
215932
220066
227193
211305
212873
215421
219819
225948
211111
212856
215354
220160
227774
210689
212217
214576
219312
226079
210150
211527
213537
217333
222307
209525
210565
212680
217089
223489
208950
209673
212056
216833
225857
208324
208932
211551
217037
228313
207830
208618
211414
217094
229818
207632
208783
211533
217179
228015
206891
206588
206308
206012
205710
205367
204995
204593
204162
203699
203221
202704
202183
201510
206774
206450
206170
205872
205578
205251
204888
204487
204069
203621
203158
202663
202144
201606
206637
206312
206017
205725
205430
205117
204778
204403
204001
203570
203122
202653
202161
201664
206552
206214
205908
205609
205309
204999
204664
204297
203907
203493
203055
202601
202121
201645
206528
206176
205849
205528
205212
204887
204542
204170
203780
203374
202944
202502
202033
201576
206559
206188
205831
205476
205132
204777
204409
204025
203630
203226
202802
202367
201908
201459
206634
206240
205851
205469
205074
204679
204282
203875
203466
203055
202628
202195
201746
201306
206714
206297
205869
205433
205005
204586
204163
203738
203315
202894
202458
202021
201575
201147
206773
206352
205908
205451
204985
204530
204083
203645
203209
202772
202321
201872
201420
200987
206787
206370
205914
205450
204973
204509
204051
203604
203155
202702
202233
201766
201303
200855
206749
206339
205894
205442
204976
204517
204061
203613
203156
202689
202207
201721
201236
200764
206626
206243
205837
205420
204989
204558
204119
203680
203218
202741
202244
201730
201215
200713
206491
206115
205759
205384
205004
204617
204211
203796
203337
202853
202339
201809
201275
200716
206234
205913
205640
205319
205003
204678
204317
203940
203496
203023
202506
201962
201402
200765
208441
208205
207965
207703
207424
207108
206793
206440
206077
205649
205207
204680
204138
203447
208395
208108
207843
207565
207297
206991
206684
206333
205963
205534
205098
204577
204045
203423
208304
207994
207728
207442
207178
206883
206588
206254
205904
205488
205054
204547
204019
203415
208241
207922
207636
207334
207061
206762
206470
206146
205800
205397
204976
204483
203957
203372
208168
207848
207554
207227
206951
206646
206353
206028
205688
205287
204865
204380
203860
203294
208097
207778
207469
207121
206827
206508
206197
205861
205513
205117
204696
204224
203710
203165
208002
207681
207364
207005
206686
206350
206019
205673
205315
204916
204492
204029
203527
202997
207889
207565
207243
206875
206528
206176
205824
205465
205091
204684
204251
203788
203291
202770
207725
207415
207096
206736
206369
206004
205633
205260
204868
204449
204000
203530
203030
202525
207506
207228
206920
206586
206207
205839
205456
205071
204662
204229
203764
203282
202769
202259
207242
207005
206727
206426
206065
205699
205313
204919
204493
204039
203545
203034
202498
201972
206923
206744
206514
206245
205919
205571
205194
204798
204360
203889
203373
202832
202273
201704
206581
206442
206281
206059
205772
205454
205100
204707
204255
203762
203218
202642
202035
201435
206235
206137
206046
205865
205620
205333
205001
204633
204185
203686
203126
202527
201895
201155
211515
211343
211181
210975
210730
210446
210167
209845
209531
209140
208752
208267
207741
207050
211565
211371
211182
210933
210673
210365
210060
209711
209377
208975
208578
208084
207584
206932
211584
211319
211116
210827
210565
210249
209957
209622
209290
208889
208491
207995
207474
206824
211520
211246
211019
210713
210446
210111
209812
209463
209120
208717
208313
207823
207307
206676
211392
211132
210875
210565
210283
209943
209645
209296
208951
208548
208135
207643
207123
206509
211196
210941
210659
210357
210060
209725
209425
209073
208722
208319
207898
207411
206890
206296
210952
210697
210413
210115
209800
209473
209162
208806
208450
208048
207623
207146
206630
206062
210637
210380
210116
209814
209504
209181
208862
208502
208135
207730
207297
206827
206309
205757
210248
210016
209774
209482
209185
208863
208533
208166
207785
207376
206934
206473
205958
205431
209813
209607
209397
209121
208856
208531
208200
207828
207434
207017
206560
206092
205565
205038
209353
209178
209013
208756
208523
208200
207863
207480
207063
206628
206146
205660
205117
204590
208857
208716
208602
208385
208170
207865
207527
207144
206710
206262
205759
205250
204686
204103
208342
208266
208207
208049
207831
207545
207204
206816
206351
205875
205334
204785
204188
203597
207828
207784
207779
207680
207481
207222
206880
206503
206031
205554
205010
204444
203798
203072
216366
216139
215973
215724
215491
215210
214962
214692
214432
214120
213838
213434
213010
212397
216303
216057
215877
215591
215341
215042
214775
214488
214211
213881
213565
213140
212721
212160
216220
215968
215784
215484
215234
214925
214649
214350
214060
213727
213400
212972
212528
211947
216021
215795
215603
215308
215058
214742
214456
214142
213832
213480
213126
212689
212234
211660
215784
215584
215375
215097
214846
214533
214243
213922
213599
213236
212863
212414
211944
211377
215501
215319
215103
214843
214595
214285
213988
213658
213321
212945
212551
212095
211609
211048
215146
214982
214783
214539
214303
213998
213695
213361
213014
212631
212223
211764
211266
210720
214751
214594
214437
214193
213980
213678
213369
213028
212665
212272
211844
211381
210863
210327
214303
214154
214046
213807
213617
213320
213002
212655
212278
211877
211436
210979
210457
209944
213827
213684
213612
213386
213219
212929
212607
212256
211865
211451
210989
210522
209975
209465
213317
213181
213141
212935
212781
212503
212169
211810
211399
210968
210485
210011
209455
208947
212748
212620
212618
212452
212307
212047
211710
211355
210934
210496
209999
209505
208920
208362
212113
212069
212089
211961
211806
211568
211219
210858
210412
209947
209417
208890
208306
207706
211388
211435
211520
211453
211286
211076
210728
210378
209928
209463
208925
208364
207707
206974
222762
222470
222305
222049
221809
221539
221288
221034
220794
220529
220277
219946
219608
219142
222524
222277
222109
221844
221606
221334
221075
220808
220549
220266
219984
219632
219288
218835
222305
222076
221918
221656
221421
221146
220879
220602
220330
220040
219746
219397
219042
218591
222011
221811
221652
221403
221173
220899
220627
220341
220050
219741
219423
219059
218687
218237
221663
221509
221352
221120
220895
220626
220350
220056
219753
219430
219093
218719
218330
217882
221290
221165
221016
220797
220578
220313
220034
219733
219418
219081
218726
218339
217930
217478
220875
220768
220643
220440
220230
219973
219691
219386
219061
218714
218344
217948
217521
217069
220451
220340
220249
220059
219860
219609
219324
219013
218676
218317
217929
217522
217075
216624
219993
219882
219823
219646
219456
219213
218926
218611
218267
217898
217498
217086
216625
216184
219518
219399
219369
219210
219028
218795
218506
218188
217831
217449
217031
216604
216116
215674
219021
218899
218884
218741
218560
218337
218045
217724
217358
216967
216540
216108
215616
215180
218458
218339
218359
218241
218065
217854
217562
217243
216869
216470
216034
215586
215065
214603
217860
217824
217825
217716
217542
217346
217043
216716
216324
215907
215456
214987
214497
213962
217115
217181
217250
217174
217005
216823
216518
216200
215801
215379
214911
214401
213840
213206
229218
228884
228684
228421
228184
227933
227703
227472
227247
227010
226774
226511
226264
225983
228825
228566
228384
228133
227905
227659
227421
227176
226929
226668
226408
226125
225867
225569
228501
228270
228098
227864
227645
227403
227163
226909
226650
226380
226113
225838
225581
225306
228117
227919
227759
227546
227339
227104
226861
226599
226326
226043
225760
225477
225212
224945
227722
227560
227415
227219
227022
226794
226550
226284
226003
225711
225419
225132
224857
224594
227322
227177
227049
226867
226679
226458
226214
225945
225657
225357
225053
224757
224469
224201
226913
226777
226669
226501
226323
226110
225869
225601
225309
225003
224688
224382
224079
223802
226502
226365
226278
226122
225952
225747
225510
225244
224947
224633
224306
223989
223665
223380
226079
225942
225876
225732
225567
225373
225140
224877
224579
224259
223921
223593
223248
222958
225656
225521
225468
225337
225176
224991
224761
224499
224197
223869
223519
223176
222807
222512
225213
225093
225040
224923
224765
224589
224360
224102
223797
223467
223110
222759
222376
222080
224772
224662
224616
224514
224360
224189
223957
223695
223383
223044
222677
222310
221914
221600
224309
224254
224171
224078
223929
223767
223526
223258
222934
222588
222216
221840
221467
221093
223804
223798
223756
223675
223518
223358
223109
222837
222501
222145
221754
221352
220940
220526
234566
234307
234105
233866
233651
233437
233242
233052
232862
232651
232428
232176
231946
231683
234138
233918
233740
233527
233328
233125
232929
232727
232516
232281
232034
231769
231526
231267
233721
233547
233382
233194
233012
232821
232629
232423
232203
231962
231712
231456
231222
230991
233304
233146
233000
232832
232665
232484
232293
232081
231850
231599
231341
231085
230853
230643
232898
232758
232628
232477
232321
232149
231959
231745
231508
231253
230992
230742
230513
230319
232504
232369
232253
232111
231963
231796
231607
231390
231148
230889
230624
230376
230146
229960
232126
231990
231885
231751
231609
231447
231259
231042
230797
230536
230269
230020
229786
229601
231759
231619
231522
231392
231253
231095
230909
230692
230444
230180
229908
229656
229412
229227
231401
231259
231168
231042
230904
230750
230565
230349
230099
229832
229555
229298
229043
228855
231049
230912
230826
230702
230564
230411
230226
230009
229757
229486
229202
228937
228670
228480
230704
230579
230491
230370
230231
230079
229892
229673
229417
229142
228854
228585
228312
228126
230387
230273
230177
230058
229915
229758
229563
229338
229076
228795
228502
228228
227952
227763
230057
229968
229867
229748
229600
229441
229236
229000
228730
228446
228154
227882
227617
227409
229814
229703
229603
229479
229312
229142
228922
228675
228394
228104
227806
227529
227247
227062
238229
238107
237941
237765
237590
237418
237261
237116
236980
236835
236681
236489
236302
236011
237838
237714
237571
237413
237253
237093
236940
236792
236645
236488
236315
236114
235910
235647
237428
237338
237200
237057
236910
236761
236615
236468
236320
236161
235989
235792
235598
235356
237058
236958
236832
236695
236555
236410
236263
236112
235956
235792
235615
235425
235237
235030
236705
236602
236480
236346
236209
236065
235916
235761
235599
235432
235258
235079
234906
234731
236375
236256
236139
236002
235862
235714
235558
235395
235224
235054
234879
234715
234555
234416
236066
235935
235818
235676
235532
235378
235214
235043
234865
234691
234519
234366
234220
234110
235773
235630
235513
235365
235215
235053
234880
234700
234512
234334
234160
234017
233878
233794
235496
235344
235227
235075
234919
234750
234567
234377
234181
233998
233821
233686
233550
233486
235231
235076
234959
234805
234642
234466
234274
234076
233871
233681
233499
233367
233230
233183
234984
234829
234712
234555
234387
234204
234003
233796
233581
233385
233198
233066
232930
232900
234765
234613
234491
234329
234152
233962
233751
233536
233313
233111
232919
232785
232647
232622
234564
234408
234286
234120
233936
233738
233516
233291
233060
232854
232663
232530
232396
232358
234453
234240
234114
233938
233735
233528
233297
233067
232833
232624
232428
232285
232130
232134
240514
240470
240343
240224
240089
239957
239833
239722
239627
239531
239439
239313
239192
238953
240177
240115
239999
239883
239754
239627
239507
239398
239300
239203
239102
238974
238844
238618
239823
239773
239649
239534
239407
239284
239169
239065
238970
238875
238779
238655
238531
238313
239509
239436
239314
239191
239062
238935
238816
238708
238608
238513
238417
238302
238183
237999
239208
239118
238989
238858
238722
238589
238463
238350
238247
238152
238061
237958
237854
237704
238925
238810
238678
238533
238387
238244
238107
237985
237872
237777
237687
237599
237511
237402
238662
238525
238385
238228
238070
237915
237765
237632
237510
237413
237326
237253
237183
237114
238411
238254
238108
237938
237769
237600
237436
237291
237158
237057
236970
236911
236855
236824
238174
238002
237851
237670
237490
237309
237131
236974
236831
236726
236636
236588
236545
236550
237951
237767
237612
237423
237234
237041
236852
236684
236530
236421
236327
236287
236252
236283
237745
237552
237394
237198
237001
236800
236600
236422
236259
236145
236049
236013
235984
236035
237565
237364
237200
236996
236791
236583
236375
236189
236020
235903
235803
235769
235740
235803
237402
237196
237028
236821
236609
236394
236178
235986
235811
235691
235592
235558
235532
235590
237289
237020
236862
236648
236431
236216
236001
235808
235634
235513
235409
235372
235327
235416
241828
241805
241704
241622
241524
241432
241341
241257
241189
241122
241069
240996
240928
240770
241542
241502
241402
241313
241213
241117
241025
240941
240871
240805
240747
240668
240593
240443
241245
241204
241091
240998
240892
240795
240703
240621
240555
240490
240435
240357
240284
240134
240969
240905
240791
240686
240575
240472
240376
240292
240223
240157
240101
240026
239957
239824
240702
240617
240495
240381
240262
240152
240051
239964
239892
239827
239773
239705
239644
239533
240438
240330
240205
240078
239952
239835
239726
239634
239556
239492
239438
239380
239326
239243
240189
240060
239927
239790
239655
239529
239411
239313
239230
239164
239113
239067
239023
238969
239945
239798
239659
239510
239368
239233
239107
239003
238912
238848
238798
238763
238729
238703
239712
239550
239406
239247
239097
238954
238820
238710
238614
238552
238502
238479
238456
238457
239492
239316
239167
239000
238843
238693
238552
238439
238338
238278
238230
238219
238207
238232
239283
239098
238945
238772
238609
238454
238308
238192
238089
238032
237987
237985
237984
238030
239094
238898
238740
238560
238393
238235
238088
237971
237867
237812
237771
237779
237781
237845
238919
238723
238559
238377
238206
238046
237896
237781
237680
237628
237595
237610
237617
237683
238757
238520
238369
238187
238020
237865
237724
237614
237518
237470
237439
237457
237455
237549
242552
242543
242476
242428
242373
242323
242275
242224
242184
242140
242112
242077
242049
241956
242311
242293
242221
242165
242104
242048
241993
241938
241891
241843
241808
241766
241732
241636
242067
242045
241964
241901
241832
241770
241711
241652
241604
241552
241516
241467
241431
241331
241825
241786
241703
241633
241559
241492
241427
241367
241315
241261
241220
241165
241123
241032
241590
241533
241446
241369
241290
241217
241149
241085
241032
240976
240932
240875
240832
240750
241347
241273
241186
241102
241020
240945
240873
240810
240754
240699
240652
240596
240549
240478
241114
241025
240934
240845
240758
240680
240606
240542
240484
240430
240381
240330
240282
240225
240882
240779
240686
240591
240503
240423
240348
240285
240226
240174
240125
240080
240032
239986
240657
240543
240447
240348
240258
240178
240102
240040
239981
239933
239886
239847
239802
239768
240443
240319
240221
240117
240025
239944
239868
239808
239750
239706
239661
239630
239589
239569
240236
240106
240005
239899
239806
239725
239649
239592
239537
239498
239459
239435
239402
239396
240043
239905
239803
239693
239600
239520
239446
239392
239339
239306
239273
239259
239233
239241
239861
239727
239619
239510
239415
239336
239264
239215
239169
239143
239120
239115
239103
239120
239678
239527
239428
239325
239237
239165
239100
239055
239015
238997
238981
238985
238978
239015
242957
242976
242964
242959
242955
242954
242956
242954
242957
242950
242949
242942
242946
242905
242765
242784
242769
242759
242751
242744
242741
242733
242728
242713
242704
242689
242686
242638
242579
242595
242573
242558
242544
242532
242522
242506
242495
242472
242456
242433
242424
242370
242382
242389
242366
242348
242330
242313
242296
242275
242256
242228
242205
242174
242155
242102
242191
242186
242160
242138
242114
242092
242069
242043
242018
241985
241956
241919
241892
241841
241990
241971
241944
241919
241892
241867
241840
241812
241784
241749
241716
241675
241641
241590
241792
241763
241733
241704
241673
241645
241616
241588
241557
241522
241485
241443
241400
241352
241595
241557
241524
241491
241457
241429
241400
241372
241342
241307
241267
241223
241174
241125
241400
241354
241319
241283
241248
241220
241192
241167
241137
241105
241063
241019
240964
240916
241211
241161
241125
241086
241051
241023
240995
240971
240941
240909
240866
240823
240765
240719
241026
240975
240937
240897
240861
240834
240806
240784
240755
240726
240685
240643
240584
240540
240849
240798
240760
240719
240683
240656
240629
240607
240579
240551
240512
240473
240418
240375
240677
240633
240592
240550
240514
240488
240462
240442
240417
240390
240354
240317
240268
240232
240501
240460
240424
240389
240357
240333
240308
240288
240265
240241
240211
240177
240135
240093
243163
243194
243220
243251
243284
243317
243351
243381
243412
243436
243461
243474
243493
243484
243030
243062
243091
243122
243155
243188
243220
243249
243277
243298
243318
243325
243339
243325
242902
242935
242963
242994
243026
243056
243086
243112
243137
243151
243166
243165
243175
243157
242759
242794
242822
242854
242885
242914
242943
242965
242985
242994
243002
242996
242998
242979
242619
242652
242681
242712
242741
242768
242793
242811
242825
242827
242828
242818
242811
242790
242470
242500
242530
242560
242588
242613
242634
242647
242655
242652
242646
242633
242619
242596
242319
242347
242376
242405
242430
242453
242469
242477
242477
242471
242459
242442
242422
242397
242167
242192
242218
242245
242267
242286
242297
242302
242298
242289
242272
242251
242223
242194
242014
242034
242057
242080
242098
242114
242120
242122
242114
242102
242082
242057
242021
241988
241861
241877
241898
241917
241932
241944
241945
241945
241933
241916
241889
241861
241817
241781
241710
241720
241738
241753
241763
241771
241769
241766
241752
241732
241702
241671
241622
241585
241556
241567
241583
241595
241602
241605
241599
241590
241572
241550
241518
241484
241431
241392
241405
241416
241429
241438
241440
241440
241432
241419
241399
241374
241341
241303
241248
241213
241243
241269
241284
241289
241286
241281
241268
241252
241229
241202
241167
241125
241075
241034
243191
243234
243273
243315
243358
243401
243444
243484
243523
243555
243584
243605
243626
243632
243089
243136
243178
243223
243269
243314
243359
243401
243441
243473
243502
243521
243539
243542
242999
243047
243090
243135
243181
243227
243273
243315
243354
243386
243415
243431
243448
243445
242899
242948
242993
243040
243088
243135
243182
243224
243263
243294
243320
243334
243346
243342
242801
242850
242896
242944
242993
243040
243087
243127
243165
243194
243218
243228
243235
243230
242698
242746
242794
242843
242892
242939
242984
243024
243060
243085
243105
243112
243116
243110
242592
242639
242688
242737
242786
242832
242875
242913
242944
242967
242982
242987
242988
242981
242482
242528
242577
242625
242672
242717
242757
242791
242819
242840
242849
242854
242851
242845
242368
242413
242460
242507
242552
242593
242629
242661
242684
242703
242709
242712
242706
242700
242250
242293
242339
242382
242423
242462
242495
242524
242544
242558
242559
242559
242548
242544
242130
242170
242212
242251
242289
242324
242353
242378
242392
242400
242397
242392
242378
242374
242003
242041
242080
242116
242148
242179
242202
242220
242227
242229
242221
242209
242188
242185
241872
241907
241942
241972
241999
242022
242037
242047
242048
242045
242033
242017
241994
241993
241730
241770
241799
241822
241840
241854
241862
241865
241861
241852
241837
241815
241791
241787
243130
243172
243205
243242
243280
243319
243359
243396
243433
243465
243495
243519
243539
243555
243045
243090
243126
243166
243208
243250
243293
243333
243372
243406
243436
243460
243480
243492
242969
243013
243052
243095
243138
243182
243227
243270
243310
243345
243376
243398
243418
243426
242887
242932
242973
243018
243065
243112
243159
243203
243245
243280
243312
243333
243351
243356
242807
242851
242894
242941
242988
243038
243087
243132
243175
243210
243241
243260
243275
243278
242722
242766
242810
242858
242907
242958
243007
243053
243096
243131
243160
243178
243190
243191
242634
242677
242723
242771
242821
242871
242921
242967
243009
243043
243070
243088
243096
243097
242542
242584
242629
242677
242727
242777
242826
242872
242913
242947
242972
242988
242995
242997
242444
242484
242530
242576
242626
242674
242722
242767
242807
242841
242865
242882
242888
242893
242340
242379
242423
242468
242516
242563
242610
242654
242693
242727
242749
242765
242769
242779
242231
242267
242308
242351
242397
242443
242488
242531
242568
242600
242620
242636
242640
242651
242111
242146
242186
242225
242269
242312
242355
242395
242429
242459
242477
242492
242495
242509
241987
242017
242054
242090
242130
242171
242211
242249
242281
242308
242327
242342
242350
242367
241850
241884
241916
241948
241984
242020
242057
242093
242123
242149
242169
242184
242196
242210
242984
243010
243030
243052
243079
243108
243139
243170
243202
243232
243262
243289
243314
243337
242901
242927
242949
242975
243005
243038
243073
243107
243144
243177
243211
243238
243264
243283
242825
242852
242876
242905
242937
242973
243010
243048
243087
243122
243157
243185
243214
243232
242750
242776
242802
242834
242869
242908
242949
242990
243032
243070
243107
243137
243165
243181
242675
242702
242729
242764
242801
242843
242887
242931
242976
243015
243053
243083
243109
243124
242596
242624
242654
242691
242731
242775
242821
242868
242914
242955
242993
243023
243047
243060
242515
242543
242575
242613
242656
242703
242751
242800
242846
242888
242926
242955
242977
242988
242429
242457
242492
242531
242576
242624
242674
242724
242771
242813
242849
242877
242895
242906
242339
242367
242403
242443
242490
242539
242589
242639
242686
242729
242764
242792
242808
242818
242244
242271
242309
242349
242397
242446
242497
242547
242594
242636
242670
242697
242711
242725
242142
242168
242207
242248
242296
242345
242396
242446
242493
242535
242568
242596
242611
242628
242032
242058
242099
242139
242188
242237
242288
242339
242386
242429
242462
242491
242508
242529
241918
241942
241982
242022
242070
242120
242173
242225
242273
242318
242355
242388
242411
242435
241795
241823
241863
241904
241950
242001
242053
242106
242155
242202
242242
242277
242304
242323
242846
242859
242876
242895
242917
242941
242967
242993
243023
243049
242728
242735
242740
242748
242759
242775
242793
242814
242839
242865
242894
242920
242951
242972
242645
242652
242657
242667
242679
242696
242716
242739
242766
242793
242824
242851
242884
242905
242565
242573
242578
242589
242603
242622
242645
242672
242701
242731
242763
242792
242823
242845
242491
242497
242504
242516
242531
242552
242578
242607
242640
242672
242707
242737
242768
242791
242416
242422
242430
242443
242462
242486
242515
242547
242582
242617
242653
242685
242717