/*--------------------------------*- C++ -*----------------------------------*\
| =========                 |                                                 |
| \\      /  F ield         | OpenFOAM: The Open Source CFD Toolbox           |
|  \\    /   O peration     | Version:  v2106                                 |
|   \\  /    A nd           | Website:  www.openfoam.com                      |
|    \\/     M anipulation  |                                                 |
\*---------------------------------------------------------------------------*/
FoamFile
{
    version     2.0;
    format      ascii;
    arch        "LSB;label=32;scalar=64";
    class       surfaceScalarField;
    location    "0.000198";
    object      phi;
}
// * * * * * * * * * * * * * * * * * * * * * * * * * * * * * * * * * * * * * //

dimensions      [1 0 -1 0 0 0 0];

internalField   nonuniform List<scalar> 
52765
(
8.14522e-07
2.48523e-06
-4.99751e-06
-2.43644e-06
-8.48671e-07
7.38546e-07
2.54018e-06
-5.02224e-06
6.72214e-07
2.60042e-06
-5.0477e-06
6.1654e-07
2.65429e-06
-5.07128e-06
5.74453e-07
2.70313e-06
-5.09748e-06
5.47272e-07
2.75121e-06
-5.12344e-06
2.79437e-06
-5.15792e-06
8.3025e-07
2.54024e-06
-5.01722e-06
-8.83227e-07
7.54215e-07
2.60988e-06
-5.04903e-06
6.92448e-07
2.64813e-06
-5.07964e-06
6.4317e-07
2.68243e-06
-5.10053e-06
6.05076e-07
2.71778e-06
-5.12209e-06
5.79144e-07
2.75165e-06
-5.14185e-06
2.78288e-06
-5.16918e-06
8.26684e-07
2.61846e-06
-5.02393e-06
-9.08339e-07
7.52186e-07
2.6732e-06
-5.06057e-06
6.91249e-07
2.68872e-06
-5.09464e-06
6.44729e-07
2.70099e-06
-5.11713e-06
6.08144e-07
2.72241e-06
-5.1401e-06
5.80136e-07
2.7459e-06
-5.15962e-06
2.7677e-06
-5.18371e-06
8.07651e-07
2.69359e-06
-5.027e-06
-8.9375e-07
7.42137e-07
2.72164e-06
-5.06845e-06
6.88511e-07
2.71789e-06
-5.10699e-06
6.46411e-07
2.71346e-06
-5.13451e-06
6.13987e-07
2.72149e-06
-5.15934e-06
5.88821e-07
2.73464e-06
-5.1787e-06
2.74928e-06
-5.19965e-06
7.77368e-07
2.74774e-06
-5.02742e-06
7.29741e-07
2.75453e-06
-5.07102e-06
6.89672e-07
2.73715e-06
-5.11276e-06
6.53551e-07
2.72315e-06
-5.14585e-06
6.24731e-07
2.71869e-06
-5.17484e-06
6.01112e-07
2.72264e-06
-5.19708e-06
2.73057e-06
-5.21724e-06
7.53059e-07
2.78084e-06
-5.02756e-06
7.19406e-07
2.77637e-06
-5.07175e-06
6.90214e-07
2.74954e-06
-5.1145e-06
6.62489e-07
2.72947e-06
-5.15258e-06
6.40758e-07
2.71421e-06
-5.18618e-06
6.2227e-07
2.70886e-06
-5.21158e-06
2.70971e-06
-5.23244e-06
7.30388e-07
2.79932e-06
-5.02461e-06
7.075e-07
2.78895e-06
-5.07089e-06
6.86056e-07
2.75637e-06
-5.11478e-06
6.67849e-07
2.72924e-06
-5.15659e-06
6.53857e-07
2.70679e-06
-5.19358e-06
6.42125e-07
2.69275e-06
-5.22266e-06
2.68638e-06
-5.2452e-06
7.12646e-07
-5.01765e-06
6.986e-07
-5.06769e-06
6.8444e-07
-5.11397e-06
6.72046e-07
-5.1579e-06
6.63323e-07
-5.19708e-06
6.57706e-07
-5.22883e-06
-5.2532e-06
6.63323e-07
2.49821e-06
-2.4259e-06
-6.98723e-07
-4.9712e-06
5.81323e-07
2.56173e-06
-2.45556e-06
-4.99418e-06
5.13698e-07
2.61198e-06
-2.52886e-06
-5.01732e-06
4.58875e-07
2.65189e-06
-2.59288e-06
-5.03526e-06
4.17668e-07
2.67971e-06
-2.64051e-06
-5.06026e-06
3.92298e-07
2.71083e-06
-2.69324e-06
-5.08506e-06
3.78785e-07
2.74289e-06
-2.7443e-06
-5.11695e-06
3.77175e-07
2.79556e-06
-2.81786e-06
-5.14325e-06
3.98238e-07
2.86621e-06
-2.91892e-06
-5.17187e-06
4.46083e-07
2.94725e-06
-3.0331e-06
-5.19937e-06
5.15602e-07
3.01658e-06
-3.12298e-06
-5.224e-06
5.68332e-07
3.05599e-06
-3.14211e-06
-5.23771e-06
5.88069e-07
3.05237e-06
-3.10475e-06
-5.24139e-06
3.02598e-06
-3.04221e-06
5.69854e-07
-5.23842e-06
6.58813e-07
2.57403e-06
-7.10396e-07
-4.98617e-06
5.89792e-07
2.64471e-06
-5.01483e-06
5.31656e-07
2.67484e-06
-5.04115e-06
4.84371e-07
2.69405e-06
-5.05711e-06
4.46044e-07
2.70847e-06
-5.07924e-06
4.19796e-07
2.72377e-06
-5.10006e-06
4.00813e-07
2.74267e-06
-5.12621e-06
3.93265e-07
2.77654e-06
-5.15033e-06
4.04139e-07
2.82267e-06
-5.17652e-06
4.34231e-07
2.87881e-06
-5.19955e-06
4.7924e-07
2.93261e-06
-5.22111e-06
5.2081e-07
2.97748e-06
-5.23459e-06
5.4376e-07
2.99511e-06
-5.24033e-06
2.98541e-06
5.51134e-07
-5.24174e-06
6.51746e-07
2.67046e-06
-7.30612e-07
-4.99008e-06
5.85523e-07
2.71917e-06
-5.02132e-06
5.29738e-07
2.72809e-06
-5.04954e-06
4.84682e-07
2.72684e-06
-5.0675e-06
4.47342e-07
2.72866e-06
-5.09085e-06
4.188e-07
2.73253e-06
-5.11214e-06
3.9735e-07
2.74132e-06
-5.13714e-06
3.87447e-07
2.75931e-06
-5.1602e-06
3.92638e-07
2.78694e-06
-5.18388e-06
4.13546e-07
2.82396e-06
-5.20606e-06
4.4557e-07
2.86605e-06
-5.22691e-06
4.81558e-07
2.90708e-06
-5.24144e-06
5.10518e-07
2.93382e-06
-5.24917e-06
2.93769e-06
5.2641e-07
-5.25263e-06
6.33181e-07
2.75746e-06
-7.06598e-07
-4.98945e-06
5.78052e-07
2.77981e-06
-5.02426e-06
5.30045e-07
2.77017e-06
-5.05603e-06
4.87553e-07
2.75413e-06
-5.07939e-06
4.51757e-07
2.74421e-06
-5.10485e-06
4.24749e-07
2.73677e-06
-5.12647e-06
4.05039e-07
2.73693e-06
-5.14989e-06
3.94321e-07
2.74394e-06
-5.17228e-06
3.95145e-07
2.75876e-06
-5.19526e-06
4.085e-07
2.78245e-06
-5.21753e-06
4.31561e-07
2.81528e-06
-5.23704e-06
4.60817e-07
2.85026e-06
-5.25163e-06
4.8985e-07
2.87751e-06
-5.26011e-06
2.88326e-06
5.16441e-07
-5.26576e-06
6.06345e-07
2.8212e-06
-6.55209e-07
-4.98672e-06
5.69262e-07
2.82487e-06
-5.02403e-06
5.33358e-07
2.80282e-06
-5.05882e-06
4.95399e-07
2.77841e-06
-5.08784e-06
4.61434e-07
2.75792e-06
-5.11706e-06
4.33432e-07
2.7409e-06
-5.14079e-06
4.13662e-07
2.73184e-06
-5.16389e-06
4.04161e-07
2.72843e-06
-5.18604e-06
4.04743e-07
2.7338e-06
-5.20833e-06
4.15182e-07
2.7492e-06
-5.23101e-06
4.33292e-07
2.77554e-06
-5.25043e-06
4.56661e-07
2.8057e-06
-5.26553e-06
4.80656e-07
2.83127e-06
-5.27429e-06
2.83612e-06
5.0348e-07
-5.28025e-06
5.82082e-07
2.86162e-06
-6.06571e-07
-4.98424e-06
5.60594e-07
2.85559e-06
-5.02216e-06
5.35705e-07
2.82617e-06
-5.05829e-06
5.05307e-07
2.79632e-06
-5.09243e-06
4.77561e-07
2.76528e-06
-5.12602e-06
4.52565e-07
2.7406e-06
-5.15252e-06
4.3518e-07
2.72328e-06
-5.17679e-06
4.27337e-07
2.71146e-06
-5.19932e-06
4.28151e-07
2.71005e-06
-5.22149e-06
4.37467e-07
2.7194e-06
-5.2437e-06
4.53647e-07
2.7397e-06
-5.26214e-06
4.74323e-07
2.76484e-06
-5.27656e-06
4.95414e-07
2.78666e-06
-5.28502e-06
2.79092e-06
5.13176e-07
-5.29048e-06
5.57768e-07
2.88445e-06
-5.63187e-07
-4.98058e-06
5.48738e-07
2.87411e-06
-5.01981e-06
5.32679e-07
2.83987e-06
-5.05737e-06
5.13215e-07
2.80191e-06
-5.09553e-06
4.9308e-07
2.76441e-06
-5.13149e-06
4.74297e-07
2.73231e-06
-5.1619e-06
4.61173e-07
2.70791e-06
-5.18805e-06
4.55756e-07
2.68923e-06
-5.21068e-06
4.56995e-07
2.68351e-06
-5.23284e-06
4.6479e-07
2.68837e-06
-5.25415e-06
4.7789e-07
2.7031e-06
-5.27146e-06
4.9456e-07
2.72262e-06
-5.28533e-06
5.11197e-07
2.7399e-06
-5.29445e-06
2.7459e-06
5.2143e-07
-5.30005e-06
5.37198e-07
2.89109e-06
-5.26571e-07
-4.97454e-06
5.3965e-07
2.87954e-06
-5.01637e-06
5.32698e-07
2.84229e-06
-5.05543e-06
5.1892e-07
2.79957e-06
-5.09505e-06
5.03994e-07
2.75331e-06
-5.13361e-06
4.92329e-07
2.71271e-06
-5.16699e-06
4.85439e-07
2.68272e-06
-5.19484e-06
4.83805e-07
2.65988e-06
-5.21796e-06
4.86822e-07
2.65127e-06
-5.2399e-06
4.94224e-07
2.6518e-06
-5.26011e-06
5.04524e-07
2.66094e-06
-5.27665e-06
5.16612e-07
2.67516e-06
-5.2904e-06
5.26006e-07
2.6901e-06
-5.29963e-06
2.70036e-06
5.27221e-07
-5.30509e-06
5.12588e-07
2.8792e-06
-4.8872e-07
-4.97243e-06
5.25071e-07
2.86871e-06
-5.01549e-06
5.25696e-07
2.831e-06
-5.05658e-06
5.18554e-07
2.783e-06
-5.09734e-06
5.10096e-07
2.72902e-06
-5.13528e-06
5.02886e-07
2.68294e-06
-5.16892e-06
4.99773e-07
2.64843e-06
-5.19689e-06
5.00171e-07
2.62316e-06
-5.22013e-06
5.03845e-07
2.61277e-06
-5.24184e-06
5.10114e-07
2.61034e-06
-5.26097e-06
5.17046e-07
2.6159e-06
-5.27675e-06
5.21688e-07
2.6289e-06
-5.29017e-06
5.19111e-07
2.64547e-06
-5.30146e-06
2.66151e-06
5.03912e-07
-5.31035e-06
4.82592e-07
2.84784e-06
-4.48852e-07
-4.97498e-06
5.04756e-07
2.83859e-06
-5.01755e-06
5.15012e-07
2.80203e-06
-5.05832e-06
5.16089e-07
2.75217e-06
-5.099e-06
5.12769e-07
2.69437e-06
-5.13586e-06
5.08668e-07
2.64553e-06
-5.16936e-06
5.05949e-07
2.60803e-06
-5.19713e-06
5.04362e-07
2.58144e-06
-5.22051e-06
5.06145e-07
2.56837e-06
-5.24178e-06
5.09588e-07
2.56409e-06
-5.26104e-06
5.11084e-07
2.56921e-06
-5.27791e-06
5.04955e-07
2.58663e-06
-5.29266e-06
4.87999e-07
2.60963e-06
-5.3048e-06
2.63533e-06
4.54809e-07
-5.31692e-06
4.42037e-07
2.7963e-06
-3.97841e-07
-4.99042e-06
4.75001e-07
2.78756e-06
-5.02807e-06
4.97229e-07
2.75332e-06
-5.0667e-06
5.10543e-07
2.70394e-06
-5.10453e-06
5.17238e-07
2.64684e-06
-5.13948e-06
5.18463e-07
2.60035e-06
-5.17093e-06
5.16086e-07
2.56389e-06
-5.19691e-06
5.11165e-07
2.53859e-06
-5.21924e-06
5.07068e-07
2.5238e-06
-5.23923e-06
5.03315e-07
2.51766e-06
-5.25909e-06
4.9626e-07
2.52295e-06
-5.27779e-06
4.78984e-07
2.54693e-06
-5.29414e-06
4.45811e-07
2.58082e-06
-5.30427e-06
2.61667e-06
3.97213e-07
-5.31751e-06
3.85943e-07
2.73282e-06
-3.34661e-07
-5.00524e-06
4.28641e-07
2.72025e-06
-5.03969e-06
4.66366e-07
2.68268e-06
-5.07515e-06
4.93315e-07
2.63775e-06
-5.10907e-06
5.11571e-07
2.58689e-06
-5.14113e-06
5.20219e-07
2.54752e-06
-5.16933e-06
5.20966e-07
2.51638e-06
-5.19345e-06
5.15659e-07
2.49452e-06
-5.21396e-06
5.05968e-07
2.48106e-06
-5.23237e-06
4.93697e-07
2.47401e-06
-5.25215e-06
4.77753e-07
2.47901e-06
-5.27199e-06
4.51636e-07
2.50876e-06
-5.29042e-06
4.08534e-07
2.55415e-06
-5.30086e-06
2.59274e-06
3.59183e-07
-5.31043e-06
2.9021e-07
2.66514e-06
-2.36696e-07
-5.01616e-06
3.46977e-07
2.63624e-06
-5.05199e-06
4.08177e-07
2.58993e-06
-5.08893e-06
4.59032e-07
2.55054e-06
-5.11217e-06
4.9518e-07
2.51263e-06
-5.13929e-06
5.15676e-07
2.48602e-06
-5.1636e-06
5.2237e-07
2.46514e-06
-5.18589e-06
5.18569e-07
2.44934e-06
-5.20497e-06
5.05861e-07
2.43954e-06
-5.22214e-06
4.88026e-07
2.4325e-06
-5.24136e-06
4.65809e-07
2.43683e-06
-5.26117e-06
4.36214e-07
2.4695e-06
-5.2794e-06
3.96636e-07
2.51916e-06
-5.29164e-06
2.55868e-06
3.52932e-07
-5.29676e-06
2.33417e-07
2.58801e-06
-1.77787e-07
-5.00071e-06
2.89228e-07
2.54708e-06
-5.04268e-06
3.57562e-07
2.48716e-06
-5.08483e-06
4.17092e-07
2.45329e-06
-5.10856e-06
4.58199e-07
2.43025e-06
-5.13431e-06
4.85312e-07
2.41779e-06
-5.15722e-06
4.99518e-07
2.40858e-06
-5.17734e-06
5.02534e-07
2.39983e-06
-5.19392e-06
4.93868e-07
2.39436e-06
-5.20931e-06
4.77174e-07
2.38778e-06
-5.22703e-06
4.54241e-07
2.39164e-06
-5.24639e-06
4.27525e-07
2.42276e-06
-5.26348e-06
4.05564e-07
2.46184e-06
-5.27968e-06
3.94309e-07
2.48529e-06
-5.27957e-06
-2.57225e-06
-3.19101e-06
7.7832e-07
-2.64471e-06
-3.68275e-06
7.80077e-07
-2.64342e-06
-4.16602e-06
7.5936e-07
-2.5206e-06
-4.64346e-06
7.78606e-07
-2.27422e-06
-5.05953e-06
9.19735e-07
-5.47793e-06
1.37288e-06
-2.51517e-06
-7.22142e-07
8.38905e-07
-3.17516e-06
-2.54369e-06
-7.63691e-07
8.33794e-07
-3.66776e-06
-2.50684e-06
-7.72305e-07
7.97569e-07
-4.16081e-06
-2.36633e-06
-8.6251e-07
7.98721e-07
-4.65046e-06
-2.09758e-06
-1.0916e-06
9.25836e-07
-5.09262e-06
-1.65363e-06
1.34334e-06
-1.63215e-06
-5.56187e-06
-2.56144e-06
-5.89708e-07
-4.01778e-06
-2.61517e-06
-6.67998e-07
-4.51345e-06
-2.58686e-06
-7.32871e-07
-5.0011e-06
-2.44067e-06
-9.12547e-07
-5.47791e-06
-2.12751e-06
-1.26524e-06
-5.88519e-06
-2.03243e-06
-1.5439e-06
-6.33991e-06
-2.65268e-06
-4.41502e-07
-4.74236e-06
-2.73357e-06
-5.45111e-07
-5.24406e-06
-2.72624e-06
-6.70072e-07
-5.72831e-06
-2.59077e-06
-9.39278e-07
-6.21067e-06
-2.27184e-06
-1.42275e-06
-6.58952e-06
-2.41926e-06
-1.63885e-06
-6.99606e-06
-2.74884e-06
-2.68717e-07
-5.33857e-06
-2.86214e-06
-3.89296e-07
-5.85245e-06
-2.89284e-06
-5.65991e-07
-6.34126e-06
-2.81103e-06
-9.04681e-07
-6.81756e-06
-2.55084e-06
-1.50362e-06
-7.18591e-06
-2.71326e-06
-1.98478e-06
-7.54503e-06
-2.83175e-06
-6.72491e-08
-5.80613e-06
-2.99192e-06
-1.92473e-07
-6.33064e-06
-3.08181e-06
-4.10104e-07
-6.82541e-06
-3.07518e-06
-7.99805e-07
-7.28404e-06
-2.8916e-06
-1.5038e-06
-7.65812e-06
-2.91378e-06
-2.41579e-06
-7.99285e-06
-2.9249e-06
1.65425e-07
-6.12911e-06
-3.14497e-06
4.82142e-08
-6.66055e-06
-3.31771e-06
-1.88783e-07
-7.16642e-06
-3.43028e-06
-5.95617e-07
-7.61894e-06
-3.40384e-06
-1.37077e-06
-7.98608e-06
-2.97971e-06
-3.09545e-06
-8.32652e-06
-3.0241e-06
4.3571e-07
-6.3168e-06
-3.31297e-06
3.39812e-07
-6.85895e-06
-3.58772e-06
1.19494e-07
-7.38234e-06
-3.8377e-06
-2.76338e-07
-7.82703e-06
-3.9855e-06
-1.09588e-06
-8.18161e-06
-2.86156e-06
-3.89814e-06
-8.48802e-06
-3.14187e-06
7.35651e-07
-6.35368e-06
-3.49568e-06
6.77609e-07
-6.90381e-06
-3.86057e-06
5.04077e-07
-7.4385e-06
-4.20342e-06
1.16675e-07
-7.88789e-06
-4.4526e-06
-7.41545e-07
-8.24094e-06
-2.60419e-06
-4.52059e-06
-8.50889e-06
-3.26931e-06
1.05194e-06
-6.24088e-06
-3.65755e-06
1.04218e-06
-6.79697e-06
-4.05448e-06
9.11133e-07
-7.33055e-06
-4.41679e-06
5.22546e-07
-7.80132e-06
-4.69655e-06
-3.58756e-07
-8.13712e-06
-2.17065e-06
-4.93514e-06
-8.38335e-06
-3.38393e-06
1.36585e-06
-5.9671e-06
-3.75213e-06
1.38668e-06
-6.51651e-06
-4.10593e-06
1.26632e-06
-7.04008e-06
-4.43185e-06
8.7604e-07
-7.52389e-06
-4.70756e-06
3.74806e-09
-7.86651e-06
-1.675e-06
-5.01574e-06
-8.12493e-06
-3.42174e-06
1.63112e-06
-5.53434e-06
-3.70213e-06
1.64449e-06
-6.07052e-06
-3.98161e-06
1.53645e-06
-6.591e-06
-4.24699e-06
1.15604e-06
-7.07796e-06
-4.49822e-06
3.20771e-07
-7.43689e-06
-1.18543e-06
-4.83144e-06
-7.70031e-06
-3.33195e-06
1.79393e-06
-4.94707e-06
-3.50709e-06
1.79875e-06
-5.4697e-06
-3.68562e-06
1.69604e-06
-5.97723e-06
-3.86023e-06
1.33399e-06
-6.45669e-06
-4.0752e-06
5.68984e-07
-6.83369e-06
-6.95368e-07
-4.43495e-06
-7.17379e-06
-3.1855e-06
1.84814e-06
-4.21228e-06
-3.23791e-06
1.82685e-06
-4.74086e-06
-3.27738e-06
1.71242e-06
-5.2453e-06
-3.32302e-06
1.37647e-06
-5.72893e-06
-3.46151e-06
7.32774e-07
-6.15398e-06
-2.96207e-07
-3.74093e-06
-6.50593e-06
-3.0137e-06
1.79965e-06
-3.34772e-06
-2.95847e-06
1.75165e-06
-3.86797e-06
-2.87788e-06
1.61328e-06
-4.35898e-06
-2.78409e-06
1.28115e-06
-4.84265e-06
-2.7617e-06
7.3023e-07
-5.29058e-06
-7.54139e-08
-2.8712e-06
-5.75613e-06
4.70487e-08
2.2983e-06
-3.35032e-06
-4.86635e-07
2.26074e-06
-3.88256e-06
-9.91315e-07
2.09707e-06
-4.39411e-06
-1.43789e-06
1.72798e-06
-4.89451e-06
-1.7708e-06
1.08782e-06
-5.34641e-06
1.12705e-07
-1.85405e-06
-5.87267e-06
1.34328e-07
2.68647e-06
-4.22327e-06
-2.63533e-07
2.6287e-06
-4.76145e-06
-6.24041e-07
2.43472e-06
-5.28638e-06
-9.11943e-07
2.02146e-06
-5.79268e-06
-1.08593e-06
1.29488e-06
-6.25171e-06
1.31593e-07
-9.7926e-07
-6.77753e-06
2.00701e-07
2.97984e-06
-4.97531e-06
-1.01276e-07
2.89463e-06
-5.53356e-06
-3.6107e-07
2.66714e-06
-6.07082e-06
-5.39017e-07
2.19867e-06
-6.59945e-06
-5.98233e-07
1.38001e-06
-7.06027e-06
3.16428e-08
-3.64294e-07
-7.5716e-06
2.9147e-07
3.17183e-06
-5.59566e-06
7.70343e-08
3.0691e-06
-6.17594e-06
-1.10267e-07
2.81984e-06
-6.72456e-06
-2.35597e-07
2.31115e-06
-7.27221e-06
-2.66108e-07
1.42365e-06
-7.73513e-06
-9.31335e-08
-1.72509e-08
-8.25481e-06
3.62109e-07
3.2809e-06
-6.07718e-06
2.18925e-07
3.17077e-06
-6.67551e-06
8.3475e-08
2.91183e-06
-7.23621e-06
-1.87348e-08
2.38737e-06
-7.80579e-06
-4.90292e-08
1.45719e-06
-8.29411e-06
-1.938e-07
1.26124e-07
-8.82203e-06
4.49913e-07
3.30547e-06
-6.40616e-06
3.67079e-07
3.20413e-06
-7.01848e-06
2.58552e-07
2.96193e-06
-7.59403e-06
1.48244e-07
2.45254e-06
-8.18479e-06
5.18934e-08
1.52525e-06
-8.72391e-06
-2.08613e-07
8.38858e-08
-9.26072e-06
5.33348e-07
3.24456e-06
-6.58148e-06
5.08121e-07
3.16852e-06
-7.20333e-06
4.24883e-07
2.97003e-06
-7.79953e-06
2.90972e-07
2.51442e-06
-8.41066e-06
1.05248e-07
1.63534e-06
-8.98549e-06
-1.07006e-07
-3.37468e-08
-9.47495e-06
5.93922e-07
3.1156e-06
-6.58832e-06
6.13983e-07
3.07202e-06
-7.22087e-06
5.54775e-07
2.93862e-06
-7.83468e-06
4.07814e-07
2.56307e-06
-8.45897e-06
1.9263e-07
1.74919e-06
-9.04923e-06
6.14308e-08
-3.90251e-08
-9.51047e-06
6.17542e-07
2.93062e-06
-6.43792e-06
6.78687e-07
2.92629e-06
-7.06701e-06
6.65841e-07
2.85091e-06
-7.68522e-06
5.64242e-07
2.55572e-06
-8.31431e-06
3.89782e-07
1.81856e-06
-8.90523e-06
2.65693e-07
1.16353e-07
-9.35331e-06
6.15248e-07
2.69194e-06
-6.1257e-06
7.3108e-07
2.71867e-06
-6.74109e-06
8.01195e-07
2.67435e-06
-7.34815e-06
8.08996e-07
2.43578e-06
-7.97232e-06
7.1886e-07
1.81029e-06
-8.55994e-06
4.57141e-07
4.58923e-07
-9.00183e-06
6.21795e-07
2.38711e-06
-5.65549e-06
8.25991e-07
2.42313e-06
-6.25159e-06
1.00092e-06
2.39722e-06
-6.84701e-06
1.12545e-06
2.20756e-06
-7.45933e-06
1.1506e-06
1.69892e-06
-8.04094e-06
5.74773e-07
9.7858e-07
-8.48681e-06
6.63639e-07
2.00564e-06
-5.0299e-06
9.65478e-07
2.03251e-06
-5.607e-06
1.25333e-06
2.01109e-06
-6.18709e-06
1.50147e-06
1.86734e-06
-6.77072e-06
1.66162e-06
1.46598e-06
-7.33319e-06
5.70293e-07
1.62652e-06
-7.79223e-06
7.34432e-07
1.55824e-06
-4.26602e-06
1.12834e-06
1.562e-06
-4.82112e-06
1.51966e-06
1.53523e-06
-5.38151e-06
1.87995e-06
1.42879e-06
-5.93849e-06
2.16141e-06
1.12584e-06
-6.51256e-06
4.36327e-07
2.27159e-06
-6.99206e-06
8.45221e-07
1.05199e-06
-3.37997e-06
1.29112e-06
1.05226e-06
-3.92044e-06
1.74727e-06
1.0151e-06
-4.46338e-06
2.19253e-06
9.21993e-07
-5.00207e-06
2.59594e-06
6.7316e-07
-5.53937e-06
1.39045e-07
2.88736e-06
-6.03988e-06
2.60629e-06
8.703e-07
-3.37091e-06
2.72248e-06
8.69592e-07
-3.9037e-06
2.83875e-06
8.29761e-07
-4.43879e-06
2.97582e-06
7.24284e-07
-4.95382e-06
3.161e-06
4.45393e-07
-5.49225e-06
-1.53283e-07
3.45568e-06
-6.04745e-06
2.60527e-06
6.5536e-07
-4.24533e-06
2.7537e-06
6.40489e-07
-4.7759e-06
2.92508e-06
5.81287e-07
-5.30443e-06
3.12516e-06
4.60742e-07
-5.80985e-06
3.36697e-06
1.63216e-07
-6.33288e-06
-5.10732e-07
3.73091e-06
-6.87235e-06
2.58439e-06
4.13712e-07
-4.97885e-06
2.7461e-06
3.86258e-07
-5.51052e-06
2.92721e-06
3.11366e-07
-6.04723e-06
3.15319e-06
1.68775e-07
-6.56495e-06
3.43747e-06
-1.56427e-07
-7.09742e-06
-8.69707e-07
3.81805e-06
-7.62579e-06
2.57123e-06
1.56469e-07
-5.57363e-06
2.73987e-06
1.23107e-07
-6.11357e-06
2.90853e-06
4.8079e-08
-6.65683e-06
3.11548e-06
-1.04649e-07
-7.18247e-06
3.36756e-06
-4.39542e-07
-7.7245e-06
-1.16447e-06
3.68705e-06
-8.26761e-06
2.56565e-06
-9.65895e-08
-6.01259e-06
2.72551e-06
-1.23607e-07
-6.56834e-06
2.86628e-06
-1.82292e-07
-7.1248e-06
3.02089e-06
-3.22942e-07
-7.67115e-06
3.19029e-06
-6.30514e-07
-8.21828e-06
-1.32569e-06
3.37535e-06
-8.78663e-06
2.56398e-06
-3.33468e-07
-6.29928e-06
2.71099e-06
-3.42126e-07
-6.86849e-06
2.82045e-06
-3.65018e-07
-7.43119e-06
2.91581e-06
-4.78636e-07
-7.99563e-06
2.9763e-06
-7.19495e-07
-8.52004e-06
-1.32785e-06
2.97594e-06
-9.12529e-06
2.55677e-06
-5.462e-07
-6.43226e-06
2.6841e-06
-5.2314e-07
-7.01082e-06
2.7705e-06
-5.02524e-07
-7.58255e-06
2.81383e-06
-5.71324e-07
-8.16075e-06
2.76678e-06
-7.12707e-07
-8.67003e-06
-1.19502e-06
2.60661e-06
-9.28913e-06
2.54941e-06
-7.34842e-07
-6.41042e-06
2.658e-06
-6.75766e-07
-6.99263e-06
2.72773e-06
-6.09756e-07
-7.56177e-06
2.7326e-06
-6.12068e-07
-8.14071e-06
2.64051e-06
-6.73331e-07
-8.63293e-06
-1.04181e-06
2.44087e-06
-9.26849e-06
2.53817e-06
-8.94424e-07
-6.23451e-06
2.63196e-06
-8.01935e-07
-6.81784e-06
2.68735e-06
-6.90704e-07
-7.38125e-06
2.66861e-06
-6.21063e-07
-7.9421e-06
2.57894e-06
-6.28213e-07
-8.45002e-06
-9.14547e-07
2.41222e-06
-9.10284e-06
2.52433e-06
-1.02058e-06
-5.90615e-06
2.59483e-06
-8.98337e-07
-6.47893e-06
2.63178e-06
-7.45546e-07
-7.03434e-06
2.62353e-06
-6.26006e-07
-7.59451e-06
2.58628e-06
-6.08672e-07
-8.12346e-06
-8.31975e-07
2.49414e-06
-8.75729e-06
2.52192e-06
-1.11465e-06
-5.42281e-06
2.57367e-06
-9.70622e-07
-5.97822e-06
2.61796e-06
-8.02455e-07
-6.52854e-06
2.676e-06
-6.85244e-07
-7.09412e-06
2.73516e-06
-6.67693e-07
-7.62945e-06
-8.21579e-07
2.73517e-06
-8.2215e-06
2.54955e-06
-1.19875e-06
-4.80133e-06
2.6195e-06
-1.06279e-06
-5.33393e-06
2.72038e-06
-9.15249e-07
-5.87361e-06
2.8532e-06
-8.19156e-07
-6.42212e-06
2.99777e-06
-8.09584e-07
-6.95341e-06
-9.23881e-07
3.11269e-06
-7.49978e-06
2.61493e-06
-1.28641e-06
-4.04828e-06
2.72371e-06
-1.18962e-06
-4.56589e-06
2.88954e-06
-1.09145e-06
-5.09024e-06
3.08341e-06
-1.01701e-06
-5.61335e-06
3.28169e-06
-1.00291e-06
-6.13775e-06
-1.13673e-06
3.51588e-06
-6.64148e-06
2.66311e-06
-1.37389e-06
-3.20279e-06
2.78812e-06
-1.32848e-06
-3.70091e-06
2.97314e-06
-1.28349e-06
-4.20167e-06
3.20266e-06
-1.24551e-06
-4.70018e-06
3.46226e-06
-1.2447e-06
-5.20559e-06
-1.41318e-06
3.77432e-06
-5.66889e-06
-1.33642e-06
-2.0885e-06
-5.29535e-06
-1.78991e-06
-1.96699e-06
-5.80505e-06
-2.23633e-06
-1.85034e-06
-6.28301e-06
-2.65089e-06
-1.77138e-06
-6.76777e-06
-3.03567e-06
-1.82066e-06
-7.21764e-06
-2.30437e-06
-7.60547e-06
-1.35739e-06
-1.63208e-06
-4.71945e-06
-1.78773e-06
-1.51197e-06
-5.22389e-06
-2.1838e-06
-1.40983e-06
-5.71112e-06
-2.53451e-06
-1.3458e-06
-6.19944e-06
-2.83609e-06
-1.41566e-06
-6.63632e-06
-1.89567e-06
-6.99369e-06
-1.31256e-06
-1.19207e-06
-4.01173e-06
-1.6866e-06
-1.11374e-06
-4.51671e-06
-2.00882e-06
-1.04302e-06
-5.00404e-06
-2.28057e-06
-1.00521e-06
-5.4832e-06
-2.48604e-06
-1.11819e-06
-5.91814e-06
-1.5802e-06
-6.2896e-06
-1.25054e-06
-3.1908e-06
-1.55853e-06
-3.69082e-06
-1.80311e-06
-4.17228e-06
-1.98066e-06
-4.63953e-06
-2.11429e-06
-5.06847e-06
-5.47356e-06
3.69847e-07
-1.9324e-06
-3.18325e-06
9.37059e-07
-1.9097e-06
-3.67382e-06
1.52431e-06
-1.87647e-06
-4.15967e-06
2.15561e-06
-1.87613e-06
-4.63641e-06
2.87403e-06
-1.94127e-06
-5.10752e-06
-2.21295e-06
3.72888e-06
-5.55853e-06
2.31002e-07
-2.40573e-06
-4.00788e-06
7.30376e-07
-2.4119e-06
-4.49577e-06
1.27356e-06
-2.40303e-06
-4.98666e-06
1.87336e-06
-2.44749e-06
-5.45535e-06
2.57026e-06
-2.58109e-06
-5.88043e-06
-2.97051e-06
3.42884e-06
-6.29579e-06
5.99088e-08
-2.80342e-06
-4.69993e-06
4.81001e-07
-2.83035e-06
-5.18648e-06
9.64497e-07
-2.85416e-06
-5.67157e-06
1.51185e-06
-2.94918e-06
-6.13216e-06
2.13895e-06
-3.12939e-06
-6.52662e-06
-3.61509e-06
2.92353e-06
-6.93846e-06
-8.48948e-08
-3.11159e-06
-5.26396e-06
2.47157e-07
-3.15474e-06
-5.75767e-06
6.27617e-07
-3.19628e-06
-6.23564e-06
1.0731e-06
-3.33025e-06
-6.70128e-06
1.56261e-06
-3.52328e-06
-7.07482e-06
-4.0764e-06
2.17722e-06
-7.48941e-06
-2.26147e-07
-3.32158e-06
-5.67936e-06
1.17869e-08
-3.3736e-06
-6.1774e-06
2.73253e-07
-3.41555e-06
-6.65056e-06
5.75831e-07
-3.56406e-06
-7.11756e-06
8.78193e-07
-3.73302e-06
-7.48095e-06
-4.30568e-06
1.24408e-06
-7.92047e-06
-3.65445e-07
-3.423e-06
-5.96689e-06
-2.39233e-07
-3.47063e-06
-6.46886e-06
-1.17764e-07
-3.49823e-06
-6.93413e-06
8.83811e-09
-3.62612e-06
-7.39749e-06
9.66693e-08
-3.74699e-06
-7.76541e-06
-4.29454e-06
1.8466e-07
-8.21312e-06
-5.14206e-07
-3.40735e-06
-6.11607e-06
-5.15319e-07
-3.43591e-06
-6.61594e-06
-5.42042e-07
-3.43952e-06
-7.08393e-06
-6.0824e-07
-3.51844e-06
-7.53787e-06
-7.40437e-07
-3.58062e-06
-7.92999e-06
-4.06903e-06
-9.0114e-07
-8.40255e-06
-6.73778e-07
-3.27014e-06
-6.12612e-06
-8.19219e-07
-3.26577e-06
-6.62121e-06
-1.00255e-06
-3.23763e-06
-7.08998e-06
-1.24958e-06
-3.25217e-06
-7.53325e-06
-1.55606e-06
-3.27364e-06
-7.954e-06
-3.70649e-06
-1.87988e-06
-8.44486e-06
-8.38561e-07
-3.01555e-06
-5.98503e-06
-1.11823e-06
-2.96657e-06
-6.48518e-06
-1.44224e-06
-2.89957e-06
-6.95564e-06
-1.83085e-06
-2.85061e-06
-7.40387e-06
-2.23179e-06
-2.87115e-06
-7.85663e-06
-3.2946e-06
-2.59349e-06
-8.3465e-06
-9.97413e-07
-2.65387e-06
-5.69479e-06
-1.38404e-06
-2.56224e-06
-6.20195e-06
-1.80533e-06
-2.46037e-06
-6.6736e-06
-2.25829e-06
-2.37671e-06
-7.13844e-06
-2.68125e-06
-2.41569e-06
-7.60697e-06
-2.83381e-06
-3.0502e-06
-8.06942e-06
-1.13193e-06
-2.20994e-06
-5.26137e-06
-1.57237e-06
-2.09756e-06
-5.77112e-06
-2.01266e-06
-1.98409e-06
-6.24984e-06
-2.42878e-06
-1.90514e-06
-6.73544e-06
-2.81379e-06
-1.94103e-06
-7.20197e-06
-2.3532e-06
-3.15278e-06
-7.61952e-06
-1.18003e-06
-1.73672e-06
-4.69115e-06
-1.61138e-06
-1.62547e-06
-5.1961e-06
-2.01004e-06
-1.52328e-06
-5.68498e-06
-2.36653e-06
-1.45623e-06
-6.17831e-06
-2.67216e-06
-1.49689e-06
-6.63294e-06
-1.91542e-06
-2.93784e-06
-7.01742e-06
-1.14711e-06
-1.27284e-06
-3.98837e-06
-1.53172e-06
-1.19805e-06
-4.49338e-06
-1.86556e-06
-1.11969e-06
-4.98534e-06
-2.14776e-06
-1.07131e-06
-5.47532e-06
-2.35537e-06
-1.15331e-06
-5.92508e-06
-1.5679e-06
-2.53371e-06
-6.33085e-06
-1.10426e-06
-3.17378e-06
-1.42282e-06
-3.67393e-06
-1.67841e-06
-4.1617e-06
-1.8661e-06
-4.63765e-06
-1.98782e-06
-5.08192e-06
-2.07001e-06
-5.52733e-06
-1.4749e-07
-1.0252e-05
9.61375e-06
-1.61969e-05
2.60069e-06
-1.96646e-05
1.85648e-05
-1.18099e-05
6.03364e-06
-3.32187e-05
3.09721e-05
-1.68776e-06
9.81986e-06
-5.11296e-05
4.79522e-05
1.32323e-05
-7.3394e-05
6.95388e-05
2.84281e-05
1.65678e-07
-1.10051e-05
-1.58106e-05
3.00058e-06
-2.10166e-05
-1.12305e-05
6.28144e-06
-3.54053e-05
-1.73857e-06
8.91122e-06
-5.33279e-05
1.31047e-05
-7.48119e-05
2.80544e-05
1.64372e-07
-1.18262e-05
-1.53735e-05
3.01654e-06
-2.26818e-05
-1.08125e-05
6.2824e-06
-3.74018e-05
-1.27119e-06
8.70171e-06
-5.54043e-05
1.436e-05
-7.58258e-05
2.9458e-05
-3.20625e-07
-1.25312e-05
-1.49974e-05
2.54636e-06
-2.44645e-05
-1.04525e-05
6.39321e-06
-3.97867e-05
-6.59121e-08
1.00374e-05
-5.87877e-05
1.48114e-05
-7.96129e-05
2.7251e-05
-9.77886e-07
-1.30826e-05
-1.46969e-05
1.68999e-06
-2.58935e-05
-9.90373e-06
5.55335e-06
-4.199e-05
1.59994e-06
9.40577e-06
-6.25283e-05
1.6882e-05
-8.38894e-05
2.89243e-05
-1.91404e-06
-1.35303e-05
-1.468e-05
5.36554e-07
-2.68203e-05
-9.29371e-06
3.70589e-06
-4.30657e-05
3.66767e-06
5.52437e-06
-6.40463e-05
1.95577e-05
-8.49786e-05
3.12832e-05
-3.14766e-06
-1.35744e-05
-1.45157e-05
-1.30481e-06
-2.68053e-05
-7.99436e-06
7.93467e-07
-4.28633e-05
6.43914e-06
8.60475e-07
-6.36818e-05
2.25668e-05
-8.36939e-05
3.52712e-05
-4.05542e-06
-1.32201e-05
-1.43632e-05
-2.60918e-06
-2.59429e-05
-6.86255e-06
-9.60185e-07
-4.22117e-05
8.18632e-06
-1.13793e-06
-6.29732e-05
2.34734e-05
-3.99039e-06
-8.30162e-05
3.55269e-05
-9.56318e-05
4.30568e-05
-4.8753e-06
-1.23034e-05
-1.41821e-05
-3.96151e-06
-2.43539e-05
-5.61914e-06
-3.14396e-06
-4.07906e-05
9.35703e-06
-4.4652e-06
-6.09963e-05
2.4694e-05
-8.64718e-06
-8.07367e-05
3.7528e-05
-9.39999e-05
4.66739e-05
-5.29348e-06
-1.09934e-05
-1.41424e-05
-5.06302e-06
-2.21583e-05
-5.37218e-06
-5.54354e-06
-3.78338e-05
8.77443e-06
-8.41896e-06
-5.68964e-05
2.50237e-05
-1.42832e-05
-7.6326e-05
3.97632e-05
-9.02512e-05
5.18965e-05
-5.17872e-06
-9.61381e-06
-1.43952e-05
-5.14967e-06
-1.98644e-05
-6.12962e-06
-6.02987e-06
-3.44961e-05
6.83831e-06
-9.19693e-06
-5.2229e-05
2.28806e-05
-1.53544e-05
-7.1301e-05
3.82696e-05
-2.37874e-05
-8.55422e-05
5.21832e-05
-9.03832e-05
6.30723e-05
-4.80252e-06
-8.23825e-06
-1.48104e-05
-4.54068e-06
-1.78656e-05
-7.51413e-06
-4.96518e-06
-3.1797e-05
3.88225e-06
-7.26298e-06
-4.80335e-05
2.00797e-05
-1.2023e-05
-6.67636e-05
3.63195e-05
-1.83022e-05
-8.19616e-05
4.993e-05
-2.4452e-05
-8.87535e-05
6.34282e-05
-2.21804e-05
7.42566e-05
-2.01936e-05
-2.16653e-05
-1.97299e-05
-3.78395e-06
-7.16482e-06
-1.5138e-05
-2.83473e-06
-1.6687e-05
-8.75272e-06
-2.30156e-06
-3.05108e-05
3.67788e-07
-3.04652e-06
-4.5546e-05
1.52939e-05
-4.9958e-06
-6.42753e-05
3.09173e-05
-4.56756e-06
-8.29059e-05
4.40254e-05
-3.14004e-06
-2.34633e-05
5.79628e-05
1.31575e-06
-2.40053e-06
1.13137e-06
-2.31474e-05
-2.29973e-05
-2.26508e-05
-5.5048e-06
-2.05517e-05
1.90176e-05
-2.47739e-06
-6.55194e-06
-1.55176e-05
-9.16114e-07
-1.64182e-05
-1.0039e-05
7.67977e-07
-3.06463e-05
-2.45476e-06
2.45613e-06
-4.58504e-05
1.17445e-05
4.32167e-06
-6.59416e-05
2.63315e-05
1.46423e-06
-8.8846e-05
3.645e-05
3.44634e-06
1.70589e-06
3.19496e-06
3.33238e-06
-2.53452e-05
1.10209e-05
1.34619e-05
-3.04503e-05
1.5644e-05
2.2789e-05
-6.14038e-06
-1.13248e-06
-6.39514e-06
-1.60423e-05
7.14932e-07
-1.69682e-05
-1.13424e-05
2.85213e-06
-3.14367e-05
-4.34401e-06
5.20413e-06
-4.69875e-05
9.83507e-06
6.94949e-06
-6.79184e-05
2.41262e-05
1.76163e-06
-9.19814e-05
3.40015e-05
1.78407e-06
2.40967e-06
2.55223e-06
2.68067e-05
2.13892e-06
1.02164e-05
-2.77328e-05
2.53029e-05
1.04395e-05
-2.48248e-05
-1.87314e-06
7.20759e-08
-6.60648e-06
-1.64043e-05
1.8916e-06
-1.7835e-05
-1.25417e-05
3.63863e-06
-3.2143e-05
-5.31452e-06
4.9078e-06
-4.7557e-05
9.29589e-06
4.51908e-06
-6.82687e-05
2.46645e-05
-9.40969e-09
-9.08305e-05
3.70033e-05
1.2744e-07
4.07177e-07
7.22439e-07
2.78536e-05
-8.32776e-07
-2.76392e-05
1.06741e-05
2.40663e-05
-2.74232e-05
1.16286e-05
1.55035e-06
8.83041e-07
-7.03782e-06
-1.65265e-05
2.6507e-06
-1.90045e-05
-1.34622e-05
4.22058e-06
-3.28405e-05
-5.51287e-06
5.44012e-06
-4.82737e-05
1.00522e-05
5.17759e-06
-6.87787e-05
2.50121e-05
-1.30251e-06
-8.9676e-05
3.51162e-05
1.88679e-06
-5.18371e-07
2.27495e-06
2.69663e-05
-2.95157e-06
-2.58774e-05
1.17235e-05
3.12778e-05
-1.56889e-05
-2.52537e-05
1.80954e-05
6.3301e-06
1.14161e-06
-7.64475e-06
-1.66632e-05
2.87088e-06
-2.02593e-05
-1.42107e-05
4.90094e-06
-3.36324e-05
-4.69266e-06
7.68345e-06
-5.05173e-05
1.12375e-05
1.06613e-05
-7.28279e-05
2.45045e-05
2.53743e-06
-9.47699e-05
3.22419e-05
4.95185e-06
2.34206e-06
4.29946e-06
2.5949e-05
3.35031e-06
-2.67718e-05
8.20311e-06
2.52676e-05
2.81001e-06
-2.5194e-05
8.65499e-06
-3.24656e-06
8.62569e-07
-8.15186e-06
-1.69302e-05
2.27376e-06
-2.10114e-05
-1.41598e-05
4.33149e-06
-3.41637e-05
-2.00413e-06
7.50141e-06
-5.32931e-05
1.46603e-05
1.05029e-05
-7.71926e-05
2.72328e-05
3.04152e-06
-9.95672e-05
3.34221e-05
3.55342e-06
2.42748e-06
3.14296e-06
2.8025e-05
3.79451e-06
-2.92674e-05
8.07909e-06
3.26027e-05
-2.88999e-05
7.8668e-06
-4.64514e-06
3.91523e-07
-8.42292e-06
-1.71748e-05
1.40581e-06
-2.10263e-05
-1.34152e-05
2.96781e-06
-3.40223e-05
7.66537e-07
4.1196e-06
-5.3835e-05
1.82265e-05
3.71289e-06
-7.77436e-05
3.2094e-05
3.9517e-08
-9.82556e-05
4.009e-05
-2.6176e-07
6.52852e-08
9.03347e-08
2.94244e-05
-6.10025e-07
-2.91969e-05
9.74359e-06
2.59445e-05
-2.87842e-05
9.1436e-06
1.63746e-06
-1.08132e-07
-8.34855e-06
-1.73077e-05
5.14136e-07
-2.0366e-05
-1.20096e-05
1.79372e-06
-3.36596e-05
3.25099e-06
1.89112e-06
-5.34019e-05
2.05601e-05
-7.64431e-07
-7.59475e-05
3.5228e-05
-2.78477e-06
-9.48543e-05
4.49198e-05
-1.02697e-06
-1.99027e-06
-1.40679e-07
2.81484e-05
-4.35325e-06
-2.70351e-05
1.18186e-05
3.25203e-05
-1.55402e-05
-2.61763e-05
1.52768e-05
7.1607e-06
-2.96117e-07
-7.97453e-06
-1.72211e-05
3.22642e-07
-1.96081e-05
-1.04984e-05
1.85963e-06
-3.36612e-05
5.10757e-06
2.77471e-06