/*--------------------------------*- C++ -*----------------------------------*\
| =========                 |                                                 |
| \\      /  F ield         | OpenFOAM: The Open Source CFD Toolbox           |
|  \\    /   O peration     | Version:  v2106                                 |
|   \\  /    A nd           | Website:  www.openfoam.com                      |
|    \\/     M anipulation  |                                                 |
\*---------------------------------------------------------------------------*/
FoamFile
{
    version     2.0;
    format      ascii;
    arch        "LSB;label=32;scalar=64";
    class       volScalarField;
    location    "0.000218";
    object      epsilon;
}
// * * * * * * * * * * * * * * * * * * * * * * * * * * * * * * * * * * * * * //

dimensions      [0 2 -3 0 0 0 0];

internalField   nonuniform List<scalar> 
17920
(
1.00801e-08
1.00812e-08
1.00818e-08
1.0083e-08
1.00831e-08
1.00844e-08
1.00844e-08
1.00856e-08
1.00854e-08
1.00866e-08
1.00865e-08
1.00876e-08
1.00873e-08
1.00885e-08
1.00881e-08
1.00893e-08
1.00888e-08
1.009e-08
1.00895e-08
1.00907e-08
1.00901e-08
1.00914e-08
1.00906e-08
1.00918e-08
1.00908e-08
1.00918e-08
1.00908e-08
1.00917e-08
1.00507e-08
1.0052e-08
1.00536e-08
1.0055e-08
1.00564e-08
1.00578e-08
1.00591e-08
1.00603e-08
1.00615e-08
1.00627e-08
1.00638e-08
1.00649e-08
1.0066e-08
1.0067e-08
1.00526e-08
1.00539e-08
1.00555e-08
1.00569e-08
1.00584e-08
1.00598e-08
1.00612e-08
1.00625e-08
1.00638e-08
1.00651e-08
1.00663e-08
1.00674e-08
1.00685e-08
1.00698e-08
1.00546e-08
1.0056e-08
1.00576e-08
1.00591e-08
1.00605e-08
1.0062e-08
1.00634e-08
1.00647e-08
1.0066e-08
1.00672e-08
1.00684e-08
1.00696e-08
1.00708e-08
1.0072e-08
1.00565e-08
1.00578e-08
1.00595e-08
1.0061e-08
1.00625e-08
1.0064e-08
1.00654e-08
1.00667e-08
1.00681e-08
1.00693e-08
1.00706e-08
1.00718e-08
1.0073e-08
1.00742e-08
1.00583e-08
1.00597e-08
1.00614e-08
1.00629e-08
1.00645e-08
1.00659e-08
1.00673e-08
1.00687e-08
1.007e-08
1.00713e-08
1.00725e-08
1.00738e-08
1.00749e-08
1.00761e-08
1.006e-08
1.00616e-08
1.00633e-08
1.00648e-08
1.00663e-08
1.00678e-08
1.00692e-08
1.00706e-08
1.00719e-08
1.00732e-08
1.00745e-08
1.00757e-08
1.00769e-08
1.00781e-08
1.00618e-08
1.00634e-08
1.00651e-08
1.00666e-08
1.00681e-08
1.00696e-08
1.0071e-08
1.00724e-08
1.00737e-08
1.0075e-08
1.00763e-08
1.00775e-08
1.00787e-08
1.00798e-08
1.00635e-08
1.00652e-08
1.00668e-08
1.00683e-08
1.00698e-08
1.00713e-08
1.00727e-08
1.0074e-08
1.00754e-08
1.00767e-08
1.00779e-08
1.00792e-08
1.00804e-08
1.00816e-08
1.00652e-08
1.00669e-08
1.00684e-08
1.007e-08
1.00714e-08
1.00729e-08
1.00743e-08
1.00756e-08
1.00769e-08
1.00782e-08
1.00795e-08
1.00807e-08
1.00819e-08
1.00831e-08
1.00669e-08
1.00685e-08
1.007e-08
1.00715e-08
1.0073e-08
1.00744e-08
1.00758e-08
1.00771e-08
1.00784e-08
1.00797e-08
1.00809e-08
1.00822e-08
1.00834e-08
1.00846e-08
1.00685e-08
1.00701e-08
1.00715e-08
1.0073e-08
1.00744e-08
1.00758e-08
1.00772e-08
1.00785e-08
1.00798e-08
1.0081e-08
1.00822e-08
1.00835e-08
1.00848e-08
1.00861e-08
1.00701e-08
1.00716e-08
1.0073e-08
1.00744e-08
1.00758e-08
1.00772e-08
1.00785e-08
1.00798e-08
1.0081e-08
1.00822e-08
1.00835e-08
1.00848e-08
1.00861e-08
1.00873e-08
1.00714e-08
1.00729e-08
1.00744e-08
1.00757e-08
1.00771e-08
1.00784e-08
1.00797e-08
1.00809e-08
1.00822e-08
1.00834e-08
1.00846e-08
1.0086e-08
1.00872e-08
1.00884e-08
1.00727e-08
1.00743e-08
1.00757e-08
1.0077e-08
1.00783e-08
1.00795e-08
1.00808e-08
1.0082e-08
1.00832e-08
1.00844e-08
1.00857e-08
1.00869e-08
1.0088e-08
1.0089e-08
1.004e-08
1.00409e-08
1.00421e-08
1.00432e-08
1.00444e-08
1.00454e-08
1.00465e-08
1.00475e-08
1.00484e-08
1.00494e-08
1.00503e-08
1.00511e-08
1.00519e-08
1.00527e-08
1.00422e-08
1.00431e-08
1.00443e-08
1.00454e-08
1.00466e-08
1.00478e-08
1.00489e-08
1.005e-08
1.0051e-08
1.0052e-08
1.0053e-08
1.00539e-08
1.00548e-08
1.00558e-08
1.00444e-08
1.00454e-08
1.00467e-08
1.00478e-08
1.0049e-08
1.00502e-08
1.00513e-08
1.00524e-08
1.00535e-08
1.00545e-08
1.00555e-08
1.00565e-08
1.00574e-08
1.00585e-08
1.00466e-08
1.00476e-08
1.00489e-08
1.00501e-08
1.00514e-08
1.00526e-08
1.00538e-08
1.00549e-08
1.0056e-08
1.00571e-08
1.00581e-08
1.00591e-08
1.00601e-08
1.00611e-08
1.00487e-08
1.00498e-08
1.00512e-08
1.00524e-08
1.00537e-08
1.00549e-08
1.00561e-08
1.00573e-08
1.00584e-08
1.00595e-08
1.00606e-08
1.00616e-08
1.00626e-08
1.00636e-08
1.00509e-08
1.00521e-08
1.00534e-08
1.00547e-08
1.0056e-08
1.00572e-08
1.00584e-08
1.00596e-08
1.00608e-08
1.0062e-08
1.0063e-08
1.00641e-08
1.00651e-08
1.00661e-08
1.0053e-08
1.00543e-08
1.00556e-08
1.00569e-08
1.00582e-08
1.00595e-08
1.00607e-08
1.00619e-08
1.00631e-08
1.00643e-08
1.00654e-08
1.00665e-08
1.00675e-08
1.00685e-08
1.00551e-08
1.00565e-08
1.00578e-08
1.00591e-08
1.00604e-08
1.00616e-08
1.00629e-08
1.00641e-08
1.00653e-08
1.00665e-08
1.00677e-08
1.00688e-08
1.00698e-08
1.00708e-08
1.00572e-08
1.00585e-08
1.00598e-08
1.00612e-08
1.00625e-08
1.00637e-08
1.0065e-08
1.00663e-08
1.00675e-08
1.00687e-08
1.00698e-08
1.00709e-08
1.0072e-08
1.0073e-08
1.00593e-08
1.00606e-08
1.00619e-08
1.00632e-08
1.00645e-08
1.00658e-08
1.0067e-08
1.00683e-08
1.00695e-08
1.00707e-08
1.00719e-08
1.0073e-08
1.00742e-08
1.00752e-08
1.00613e-08
1.00626e-08
1.00638e-08
1.00652e-08
1.00664e-08
1.00677e-08
1.0069e-08
1.00703e-08
1.00715e-08
1.00727e-08
1.00739e-08
1.00751e-08
1.00762e-08
1.00773e-08
1.00632e-08
1.00646e-08
1.00658e-08
1.00671e-08
1.00684e-08
1.00696e-08
1.00709e-08
1.00721e-08
1.00733e-08
1.00745e-08
1.00758e-08
1.0077e-08
1.00782e-08
1.00793e-08
1.0065e-08
1.00663e-08
1.00676e-08
1.00688e-08
1.00701e-08
1.00714e-08
1.00726e-08
1.00739e-08
1.00751e-08
1.00763e-08
1.00776e-08
1.00788e-08
1.00801e-08
1.00812e-08
1.00668e-08
1.00681e-08
1.00693e-08
1.00706e-08
1.00718e-08
1.00731e-08
1.00743e-08
1.00755e-08
1.00768e-08
1.0078e-08
1.00792e-08
1.00804e-08
1.00816e-08
1.00828e-08
1.00332e-08
1.00334e-08
1.0034e-08
1.00346e-08
1.00352e-08
1.00359e-08
1.00365e-08
1.0037e-08
1.00376e-08
1.00381e-08
1.00387e-08
1.00392e-08
1.00397e-08
1.00402e-08
1.00352e-08
1.00355e-08
1.00361e-08
1.00366e-08
1.00373e-08
1.00379e-08
1.00386e-08
1.00392e-08
1.00398e-08
1.00405e-08
1.00411e-08
1.00416e-08
1.00422e-08
1.00429e-08
1.00371e-08
1.00374e-08
1.00382e-08
1.00387e-08
1.00394e-08
1.00401e-08
1.00408e-08
1.00415e-08
1.00421e-08
1.00428e-08
1.00434e-08
1.0044e-08
1.00446e-08
1.00453e-08
1.00392e-08
1.00396e-08
1.00403e-08
1.00409e-08
1.00416e-08
1.00423e-08
1.00431e-08
1.00438e-08
1.00445e-08
1.00452e-08
1.00458e-08
1.00465e-08
1.00471e-08
1.00479e-08
1.00411e-08
1.00416e-08
1.00424e-08
1.00431e-08
1.00438e-08
1.00446e-08
1.00453e-08
1.00461e-08
1.00468e-08
1.00475e-08
1.00482e-08
1.00489e-08
1.00496e-08
1.00503e-08
1.00432e-08
1.00438e-08
1.00445e-08
1.00453e-08
1.0046e-08
1.00468e-08
1.00476e-08
1.00484e-08
1.00492e-08
1.005e-08
1.00507e-08
1.00514e-08
1.00521e-08
1.00528e-08
1.00453e-08
1.0046e-08
1.00467e-08
1.00475e-08
1.00483e-08
1.00491e-08
1.00499e-08
1.00507e-08
1.00516e-08
1.00524e-08
1.00531e-08
1.00539e-08
1.00546e-08
1.00553e-08
1.00474e-08
1.00482e-08
1.00489e-08
1.00497e-08
1.00505e-08
1.00514e-08
1.00522e-08
1.00531e-08
1.00539e-08
1.00547e-08
1.00556e-08
1.00564e-08
1.00571e-08
1.00578e-08
1.00495e-08
1.00503e-08
1.00511e-08
1.00519e-08
1.00527e-08
1.00536e-08
1.00545e-08
1.00554e-08
1.00562e-08
1.00571e-08
1.00579e-08
1.00587e-08
1.00596e-08
1.00602e-08
1.00517e-08
1.00525e-08
1.00532e-08
1.00541e-08
1.00549e-08
1.00558e-08
1.00567e-08
1.00576e-08
1.00585e-08
1.00594e-08
1.00603e-08
1.00611e-08
1.0062e-08
1.00627e-08
1.00538e-08
1.00546e-08
1.00553e-08
1.00562e-08
1.00571e-08
1.0058e-08
1.00589e-08
1.00599e-08
1.00608e-08
1.00617e-08
1.00626e-08
1.00635e-08
1.00644e-08
1.00651e-08
1.00559e-08
1.00567e-08
1.00574e-08
1.00583e-08
1.00592e-08
1.00601e-08
1.00611e-08
1.0062e-08
1.0063e-08
1.00639e-08
1.00648e-08
1.00658e-08
1.00667e-08
1.00675e-08
1.00578e-08
1.00586e-08
1.00594e-08
1.00603e-08
1.00612e-08
1.00622e-08
1.00632e-08
1.00641e-08
1.00651e-08
1.00661e-08
1.0067e-08
1.0068e-08
1.0069e-08
1.00698e-08
1.00598e-08
1.00606e-08
1.00614e-08
1.00623e-08
1.00633e-08
1.00642e-08
1.00652e-08
1.00662e-08
1.00672e-08
1.00681e-08
1.00691e-08
1.00701e-08
1.00711e-08
1.0072e-08
1.00295e-08
1.00294e-08
1.00294e-08
1.00295e-08
1.00296e-08
1.00297e-08
1.00298e-08
1.00299e-08
1.003e-08
1.00302e-08
1.00303e-08
1.00305e-08
1.00307e-08
1.00311e-08
1.00312e-08
1.00309e-08
1.0031e-08
1.0031e-08
1.0031e-08
1.00312e-08
1.00313e-08
1.00315e-08
1.00316e-08
1.00318e-08
1.0032e-08
1.00322e-08
1.00324e-08
1.00329e-08
1.00326e-08
1.00324e-08
1.00325e-08
1.00325e-08
1.00326e-08
1.00328e-08
1.00329e-08
1.00331e-08
1.00333e-08
1.00335e-08
1.00337e-08
1.00339e-08
1.00341e-08
1.00346e-08
1.00342e-08
1.0034e-08
1.00341e-08
1.00342e-08
1.00343e-08
1.00344e-08
1.00346e-08
1.00348e-08
1.00351e-08
1.00353e-08
1.00355e-08
1.00357e-08
1.0036e-08
1.00364e-08
1.00358e-08
1.00357e-08
1.00358e-08
1.00359e-08
1.0036e-08
1.00362e-08
1.00364e-08
1.00366e-08
1.00369e-08
1.00371e-08
1.00374e-08
1.00377e-08
1.00379e-08
1.00383e-08
1.00375e-08
1.00374e-08
1.00376e-08
1.00377e-08
1.00378e-08
1.0038e-08
1.00383e-08
1.00385e-08
1.00388e-08
1.00391e-08
1.00394e-08
1.00397e-08
1.004e-08
1.00403e-08
1.00392e-08
1.00392e-08
1.00394e-08
1.00395e-08
1.00397e-08
1.00399e-08
1.00402e-08
1.00404e-08
1.00407e-08
1.00411e-08
1.00414e-08
1.00417e-08
1.0042e-08
1.00423e-08
1.0041e-08
1.00411e-08
1.00412e-08
1.00414e-08
1.00416e-08
1.00418e-08
1.00421e-08
1.00424e-08
1.00428e-08
1.00431e-08
1.00435e-08
1.00438e-08
1.00442e-08
1.00444e-08
1.00427e-08
1.00429e-08
1.00431e-08
1.00433e-08
1.00435e-08
1.00438e-08
1.00441e-08
1.00444e-08
1.00448e-08
1.00452e-08
1.00456e-08
1.00459e-08
1.00463e-08
1.00466e-08
1.00446e-08
1.00448e-08
1.00449e-08
1.00452e-08
1.00454e-08
1.00457e-08
1.00461e-08
1.00465e-08
1.00469e-08
1.00473e-08
1.00477e-08
1.00481e-08
1.00486e-08
1.00488e-08
1.00464e-08
1.00467e-08
1.00468e-08
1.00471e-08
1.00474e-08
1.00478e-08
1.00481e-08
1.00486e-08
1.0049e-08
1.00495e-08
1.00499e-08
1.00503e-08
1.00508e-08
1.0051e-08
1.00482e-08
1.00486e-08
1.00488e-08
1.00491e-08
1.00494e-08
1.00498e-08
1.00502e-08
1.00506e-08
1.00511e-08
1.00516e-08
1.00521e-08
1.00525e-08
1.00531e-08
1.00533e-08
1.005e-08
1.00504e-08
1.00506e-08
1.0051e-08
1.00513e-08
1.00518e-08
1.00522e-08
1.00527e-08
1.00532e-08
1.00537e-08
1.00542e-08
1.00547e-08
1.00553e-08
1.00556e-08
1.0052e-08
1.00523e-08
1.00526e-08
1.00529e-08
1.00533e-08
1.00537e-08
1.00542e-08
1.00547e-08
1.00553e-08
1.00558e-08
1.00563e-08
1.00569e-08
1.00574e-08
1.00579e-08
1.00283e-08
1.00278e-08
1.00274e-08
1.0027e-08
1.00267e-08
1.00264e-08
1.00262e-08
1.00259e-08
1.00257e-08
1.00256e-08
1.00254e-08
1.00254e-08
1.00252e-08
1.00253e-08
1.00293e-08
1.00288e-08
1.00283e-08
1.00279e-08
1.00276e-08
1.00273e-08
1.0027e-08
1.00268e-08
1.00266e-08
1.00264e-08
1.00263e-08
1.00262e-08
1.00261e-08
1.00261e-08
1.00303e-08
1.00297e-08
1.00293e-08
1.00289e-08
1.00285e-08
1.00282e-08
1.0028e-08
1.00277e-08
1.00275e-08
1.00274e-08
1.00272e-08
1.00271e-08
1.0027e-08
1.00271e-08
1.00313e-08
1.00307e-08
1.00303e-08
1.00299e-08
1.00296e-08
1.00293e-08
1.0029e-08
1.00288e-08
1.00286e-08
1.00284e-08
1.00282e-08
1.00281e-08
1.0028e-08
1.00281e-08
1.00324e-08
1.00318e-08
1.00314e-08
1.0031e-08
1.00307e-08
1.00304e-08
1.00301e-08
1.00299e-08
1.00297e-08
1.00295e-08
1.00294e-08
1.00293e-08
1.00292e-08
1.00291e-08
1.00335e-08
1.0033e-08
1.00326e-08
1.00322e-08
1.00318e-08
1.00315e-08
1.00313e-08
1.00311e-08
1.00309e-08
1.00307e-08
1.00306e-08
1.00305e-08
1.00304e-08
1.00303e-08
1.00347e-08
1.00342e-08
1.00338e-08
1.00334e-08
1.00331e-08
1.00328e-08
1.00326e-08
1.00323e-08
1.00322e-08
1.0032e-08
1.00319e-08
1.00318e-08
1.00317e-08
1.00316e-08
1.00359e-08
1.00355e-08
1.00351e-08
1.00347e-08
1.00344e-08
1.00341e-08
1.00339e-08
1.00337e-08
1.00335e-08
1.00334e-08
1.00333e-08
1.00332e-08
1.00331e-08
1.0033e-08
1.00371e-08
1.00368e-08
1.00364e-08
1.0036e-08
1.00357e-08
1.00355e-08
1.00353e-08
1.00351e-08
1.0035e-08
1.00348e-08
1.00347e-08
1.00346e-08
1.00346e-08
1.00345e-08
1.00384e-08
1.00381e-08
1.00377e-08
1.00374e-08
1.00371e-08
1.00369e-08
1.00367e-08
1.00366e-08
1.00364e-08
1.00363e-08
1.00362e-08
1.00361e-08
1.00362e-08
1.0036e-08
1.00397e-08
1.00395e-08
1.00391e-08
1.00389e-08
1.00386e-08
1.00384e-08
1.00382e-08
1.00381e-08
1.0038e-08
1.00379e-08
1.00378e-08
1.00377e-08
1.00378e-08
1.00377e-08
1.00411e-08
1.00409e-08
1.00406e-08
1.00403e-08
1.00401e-08
1.00399e-08
1.00398e-08
1.00397e-08
1.00396e-08
1.00395e-08
1.00395e-08
1.00394e-08
1.00395e-08
1.00393e-08
1.00425e-08
1.00423e-08
1.0042e-08
1.00418e-08
1.00416e-08
1.00415e-08
1.00414e-08
1.00413e-08
1.00412e-08
1.00412e-08
1.00411e-08
1.00411e-08
1.00412e-08
1.0041e-08
1.0044e-08
1.00438e-08
1.00435e-08
1.00433e-08
1.00432e-08
1.0043e-08
1.0043e-08
1.00429e-08
1.00429e-08
1.00429e-08
1.00428e-08
1.00429e-08
1.00429e-08
1.00429e-08
1.0028e-08
1.00272e-08
1.00266e-08
1.0026e-08
1.00254e-08
1.00249e-08
1.00244e-08
1.00239e-08
1.00235e-08
1.00231e-08
1.00228e-08
1.00225e-08
1.00222e-08
1.0022e-08
1.00285e-08
1.00277e-08
1.0027e-08
1.00264e-08
1.00258e-08
1.00252e-08
1.00247e-08
1.00242e-08
1.00238e-08
1.00233e-08
1.0023e-08
1.00226e-08
1.00223e-08
1.00221e-08
1.00289e-08
1.00281e-08
1.00274e-08
1.00267e-08
1.00261e-08
1.00256e-08
1.0025e-08
1.00245e-08
1.00241e-08
1.00236e-08
1.00232e-08
1.00229e-08
1.00225e-08
1.00223e-08
1.00294e-08
1.00286e-08
1.00279e-08
1.00272e-08
1.00266e-08
1.0026e-08
1.00254e-08
1.00249e-08
1.00244e-08
1.0024e-08
1.00236e-08
1.00232e-08
1.00228e-08
1.00225e-08
1.00299e-08
1.00291e-08
1.00284e-08
1.00277e-08
1.00271e-08
1.00265e-08
1.00259e-08
1.00254e-08
1.00249e-08
1.00244e-08
1.0024e-08
1.00236e-08
1.00232e-08
1.00229e-08
1.00304e-08
1.00296e-08
1.00289e-08
1.00282e-08
1.00276e-08
1.0027e-08
1.00264e-08
1.00259e-08
1.00254e-08
1.00249e-08
1.00244e-08
1.0024e-08
1.00236e-08
1.00233e-08
1.0031e-08
1.00302e-08
1.00295e-08
1.00288e-08
1.00282e-08
1.00276e-08
1.0027e-08
1.00264e-08
1.00259e-08
1.00254e-08
1.0025e-08
1.00245e-08
1.00241e-08
1.00237e-08
1.00316e-08
1.00308e-08
1.00301e-08
1.00294e-08
1.00288e-08
1.00282e-08
1.00276e-08
1.00271e-08
1.00265e-08
1.0026e-08
1.00256e-08
1.00251e-08
1.00247e-08
1.00243e-08
1.00322e-08
1.00315e-08
1.00308e-08
1.00301e-08
1.00295e-08
1.00289e-08
1.00283e-08
1.00277e-08
1.00272e-08
1.00267e-08
1.00262e-08
1.00258e-08
1.00254e-08
1.00249e-08
1.00329e-08
1.00322e-08
1.00315e-08
1.00309e-08
1.00302e-08
1.00296e-08
1.0029e-08
1.00285e-08
1.00279e-08
1.00274e-08
1.0027e-08
1.00265e-08
1.00261e-08
1.00257e-08
1.00336e-08
1.00329e-08
1.00322e-08
1.00316e-08
1.0031e-08
1.00304e-08
1.00298e-08
1.00293e-08
1.00287e-08
1.00282e-08
1.00278e-08
1.00273e-08
1.00269e-08
1.00264e-08
1.00343e-08
1.00337e-08
1.0033e-08
1.00324e-08
1.00318e-08
1.00312e-08
1.00306e-08
1.00301e-08
1.00296e-08
1.00291e-08
1.00286e-08
1.00281e-08
1.00277e-08
1.00272e-08
1.0035e-08
1.00345e-08
1.00338e-08
1.00332e-08
1.00326e-08
1.0032e-08
1.00315e-08
1.0031e-08
1.00305e-08
1.003e-08
1.00295e-08
1.0029e-08
1.00286e-08
1.00281e-08
1.00358e-08
1.00353e-08
1.00346e-08
1.0034e-08
1.00335e-08
1.00329e-08
1.00324e-08
1.00319e-08
1.00314e-08
1.00309e-08
1.00304e-08
1.00299e-08
1.00295e-08
1.00291e-08
1.00269e-08
1.0026e-08
1.00253e-08
1.00246e-08
1.00239e-08
1.00232e-08
1.00226e-08
1.0022e-08
1.00215e-08
1.00209e-08
1.00205e-08
1.002e-08
1.00195e-08
1.00191e-08
1.00269e-08
1.00261e-08
1.00253e-08
1.00245e-08
1.00238e-08
1.00231e-08
1.00225e-08
1.00218e-08
1.00213e-08
1.00207e-08
1.00202e-08
1.00197e-08
1.00192e-08
1.00187e-08
1.00268e-08
1.0026e-08
1.00252e-08
1.00245e-08
1.00237e-08
1.0023e-08
1.00224e-08
1.00217e-08
1.00211e-08
1.00205e-08
1.00199e-08
1.00194e-08
1.00189e-08
1.00184e-08
1.00268e-08
1.00259e-08
1.00252e-08
1.00244e-08
1.00237e-08
1.00229e-08
1.00222e-08
1.00216e-08
1.00209e-08
1.00203e-08
1.00197e-08
1.00191e-08
1.00186e-08
1.00181e-08
1.00267e-08
1.00259e-08
1.00251e-08
1.00243e-08
1.00236e-08
1.00229e-08
1.00221e-08
1.00214e-08
1.00208e-08
1.00201e-08
1.00195e-08
1.00189e-08
1.00184e-08
1.00178e-08
1.00267e-08
1.00259e-08
1.00251e-08
1.00243e-08
1.00235e-08
1.00228e-08
1.00221e-08
1.00214e-08
1.00207e-08
1.002e-08
1.00194e-08
1.00187e-08
1.00182e-08
1.00176e-08
1.00267e-08
1.00259e-08
1.00251e-08
1.00243e-08
1.00235e-08
1.00228e-08
1.0022e-08
1.00213e-08
1.00206e-08
1.00199e-08
1.00192e-08
1.00186e-08
1.0018e-08
1.00174e-08
1.00267e-08
1.00259e-08
1.00251e-08
1.00243e-08
1.00235e-08
1.00227e-08
1.0022e-08
1.00213e-08
1.00205e-08
1.00198e-08
1.00191e-08
1.00185e-08
1.00179e-08
1.00172e-08
1.00267e-08
1.00259e-08
1.00251e-08
1.00243e-08
1.00235e-08
1.00227e-08
1.0022e-08
1.00212e-08
1.00205e-08
1.00198e-08
1.00191e-08
1.00184e-08
1.00178e-08
1.00171e-08
1.00267e-08
1.00259e-08
1.00251e-08
1.00243e-08
1.00235e-08
1.00228e-08
1.0022e-08
1.00213e-08
1.00205e-08
1.00198e-08
1.00191e-08
1.00184e-08
1.00177e-08
1.00171e-08
1.00268e-08
1.0026e-08
1.00252e-08
1.00244e-08
1.00236e-08
1.00228e-08
1.0022e-08
1.00213e-08
1.00205e-08
1.00198e-08
1.00191e-08
1.00183e-08
1.00177e-08
1.0017e-08
1.00268e-08
1.00261e-08
1.00252e-08
1.00244e-08
1.00237e-08
1.00229e-08
1.00221e-08
1.00213e-08
1.00206e-08
1.00198e-08
1.00191e-08
1.00184e-08
1.00177e-08
1.0017e-08
1.00269e-08
1.00261e-08
1.00253e-08
1.00245e-08
1.00237e-08
1.0023e-08
1.00222e-08
1.00214e-08
1.00207e-08
1.00199e-08
1.00192e-08
1.00184e-08
1.00177e-08
1.0017e-08
1.00269e-08
1.00262e-08
1.00254e-08
1.00246e-08
1.00238e-08
1.00231e-08
1.00223e-08
1.00215e-08
1.00208e-08
1.002e-08
1.00193e-08
1.00186e-08
1.00179e-08
1.00171e-08
1.00231e-08
1.00223e-08
1.00216e-08
1.00209e-08
1.00202e-08
1.00195e-08
1.00188e-08
1.00181e-08
1.00175e-08
1.00169e-08
1.00163e-08
1.00156e-08
1.00151e-08
1.00145e-08
1.00227e-08
1.00219e-08
1.00212e-08
1.00204e-08
1.00197e-08
1.0019e-08
1.00183e-08
1.00176e-08
1.00169e-08
1.00163e-08
1.00157e-08
1.0015e-08
1.00144e-08
1.00138e-08
1.00221e-08
1.00214e-08
1.00206e-08
1.00199e-08
1.00192e-08
1.00185e-08
1.00178e-08
1.00171e-08
1.00164e-08
1.00157e-08
1.00151e-08
1.00144e-08
1.00138e-08
1.00131e-08
1.00216e-08
1.00209e-08
1.00202e-08
1.00194e-08
1.00187e-08
1.0018e-08
1.00173e-08
1.00165e-08
1.00158e-08
1.00151e-08
1.00145e-08
1.00138e-08
1.00131e-08
1.00125e-08
1.00211e-08
1.00204e-08
1.00196e-08
1.00189e-08
1.00182e-08
1.00174e-08
1.00167e-08
1.0016e-08
1.00152e-08
1.00145e-08
1.00138e-08
1.00131e-08
1.00125e-08
1.00118e-08
1.00205e-08
1.00198e-08
1.00191e-08
1.00184e-08
1.00176e-08
1.00169e-08
1.00162e-08
1.00154e-08
1.00147e-08
1.00139e-08
1.00132e-08
1.00125e-08
1.00118e-08
1.00111e-08
1.002e-08
1.00193e-08
1.00186e-08
1.00178e-08
1.00171e-08
1.00164e-08
1.00156e-08
1.00148e-08
1.00141e-08
1.00133e-08
1.00126e-08
1.00119e-08
1.00111e-08
1.00104e-08
1.00195e-08
1.00187e-08
1.0018e-08
1.00173e-08
1.00165e-08
1.00158e-08
1.0015e-08
1.00142e-08
1.00135e-08
1.00127e-08
1.0012e-08
1.00112e-08
1.00105e-08
1.00097e-08
1.00189e-08
1.00182e-08
1.00175e-08
1.00167e-08
1.0016e-08
1.00152e-08
1.00144e-08
1.00137e-08
1.00129e-08
1.00121e-08
1.00113e-08
1.00106e-08
1.00098e-08
1.00091e-08
1.00184e-08
1.00177e-08
1.00169e-08
1.00161e-08
1.00154e-08
1.00146e-08
1.00138e-08
1.00131e-08
1.00123e-08
1.00115e-08
1.00107e-08
1.00099e-08
1.00091e-08
1.00084e-08
1.00179e-08
1.00171e-08
1.00164e-08
1.00156e-08
1.00148e-08
1.0014e-08
1.00133e-08
1.00124e-08
1.00116e-08
1.00108e-08
1.001e-08
1.00092e-08
1.00084e-08
1.00078e-08
1.00173e-08
1.00165e-08
1.00158e-08
1.0015e-08
1.00142e-08
1.00134e-08
1.00126e-08
1.00118e-08
1.0011e-08
1.00102e-08
1.00094e-08
1.00086e-08
1.00078e-08
1.00071e-08
1.00167e-08
1.0016e-08
1.00152e-08
1.00144e-08
1.00137e-08
1.00129e-08
1.0012e-08
1.00112e-08
1.00104e-08
1.00096e-08
1.00087e-08
1.0008e-08
1.00072e-08
1.00064e-08
1.00162e-08
1.00154e-08
1.00146e-08
1.00138e-08
1.0013e-08
1.00122e-08
1.00114e-08
1.00106e-08
1.00098e-08
1.0009e-08
1.00082e-08
1.00074e-08
1.00066e-08
1.00059e-08
1.00145e-08
1.00138e-08
1.00132e-08
1.00126e-08
1.0012e-08
1.00114e-08
1.00108e-08
1.00102e-08
1.00095e-08
1.00089e-08
1.00082e-08
1.00076e-08
1.0007e-08
1.00063e-08
1.00136e-08
1.00131e-08
1.00125e-08
1.00119e-08
1.00113e-08
1.00107e-08
1.001e-08
1.00094e-08
1.00087e-08
1.00081e-08
1.00074e-08
1.00067e-08
1.00061e-08
1.00055e-08
1.00127e-08
1.00122e-08
1.00116e-08
1.00111e-08
1.00105e-08
1.00099e-08
1.00092e-08
1.00086e-08
1.00079e-08
1.00073e-08
1.00066e-08
1.00059e-08
1.00053e-08
1.00046e-08
1.00118e-08
1.00114e-08
1.00108e-08
1.00102e-08
1.00096e-08
1.0009e-08
1.00084e-08
1.00077e-08
1.00071e-08
1.00064e-08
1.00057e-08
1.0005e-08
1.00044e-08
1.00037e-08
1.0011e-08
1.00105e-08
1.00099e-08
1.00094e-08
1.00088e-08
1.00081e-08
1.00075e-08
1.00069e-08
1.00062e-08
1.00055e-08
1.00048e-08
1.00042e-08
1.00035e-08
1.00028e-08
1.00101e-08
1.00096e-08
1.0009e-08
1.00085e-08
1.00079e-08
1.00072e-08
1.00066e-08
1.0006e-08
1.00053e-08
1.00046e-08
1.00039e-08
1.00032e-08
1.00026e-08
1.00018e-08
1.00092e-08
1.00087e-08
1.00081e-08
1.00075e-08
1.0007e-08
1.00063e-08
1.00057e-08
1.0005e-08
1.00043e-08
1.00037e-08
1.0003e-08
1.00023e-08
1.00016e-08
1.00009e-08
1.00082e-08
1.00077e-08
1.00072e-08
1.00066e-08
1.0006e-08
1.00054e-08
1.00047e-08
1.00041e-08
1.00034e-08
1.00027e-08
1.0002e-08
1.00013e-08
1.00006e-08
9.9999e-09
1.00073e-08
1.00068e-08
1.00062e-08
1.00056e-08
1.0005e-08
1.00044e-08
1.00037e-08
1.00031e-08
1.00024e-08
1.00017e-08
1.0001e-08
1.00003e-08
9.99957e-09
9.99891e-09
1.00063e-08
1.00058e-08
1.00052e-08
1.00046e-08
1.0004e-08
1.00034e-08
1.00027e-08
1.00021e-08
1.00014e-08
1.00007e-08
9.99995e-09
9.99926e-09
9.99853e-09
9.99789e-09
1.00054e-08
1.00048e-08
1.00042e-08
1.00036e-08
1.0003e-08
1.00024e-08
1.00017e-08
1.0001e-08
1.00003e-08
9.99962e-09
9.99889e-09
9.9982e-09
9.99746e-09
9.99686e-09
1.00044e-08
1.00038e-08
1.00032e-08
1.00026e-08
1.0002e-08
1.00013e-08
1.00007e-08
9.99998e-09
9.99928e-09
9.99858e-09
9.99785e-09
9.99717e-09
9.99642e-09
9.99583e-09
1.00034e-08
1.00028e-08
1.00022e-08
1.00016e-08
1.0001e-08
1.00003e-08
9.99961e-09
9.99891e-09
9.99819e-09
9.99747e-09
9.99674e-09
9.99606e-09
9.99534e-09
9.99476e-09
1.00024e-08
1.00017e-08
1.00011e-08
1.00005e-08
9.99986e-09
9.9992e-09
9.99854e-09
9.99786e-09
9.99716e-09
9.99646e-09
9.99575e-09
9.99507e-09
9.99436e-09
9.99381e-09
9.99929e-09
9.99892e-09
9.99856e-09
9.99822e-09
9.99785e-09
9.99744e-09
9.99698e-09
9.9965e-09
9.99599e-09
9.99547e-09
9.99494e-09
9.99438e-09
9.99388e-09
9.99331e-09
9.99823e-09
9.99798e-09
9.99767e-09
9.99734e-09
9.99696e-09
9.99654e-09
9.99609e-09
9.9956e-09
9.9951e-09
9.99457e-09
9.99404e-09
9.99348e-09
9.99298e-09
9.99238e-09
9.99721e-09
9.99701e-09
9.99671e-09
9.99639e-09
9.99602e-09
9.9956e-09
9.99516e-09
9.99469e-09
9.9942e-09
9.99368e-09
9.99316e-09
9.99261e-09
9.99212e-09
9.99153e-09
9.9962e-09
9.99602e-09
9.99572e-09
9.9954e-09
9.99504e-09
9.99463e-09
9.99419e-09
9.99372e-09
9.99324e-09
9.99273e-09
9.99222e-09
9.99167e-09
9.99117e-09
9.99058e-09
9.99521e-09
9.99502e-09
9.99472e-09
9.99439e-09
9.99402e-09
9.99362e-09
9.99319e-09
9.99273e-09
9.99226e-09
9.99176e-09
9.99125e-09
9.99071e-09
9.99021e-09
9.98963e-09
9.9942e-09
9.99398e-09
9.99368e-09
9.99335e-09
9.99298e-09
9.99258e-09
9.99215e-09
9.9917e-09
9.99124e-09
9.99074e-09
9.99024e-09
9.98971e-09
9.9892e-09
9.98864e-09
9.99318e-09
9.99293e-09
9.99263e-09
9.99229e-09
9.99191e-09
9.99151e-09
9.99109e-09
9.99064e-09
9.99018e-09
9.98969e-09
9.98919e-09
9.98868e-09
9.98816e-09
9.98762e-09
9.99212e-09
9.99184e-09
9.99153e-09
9.9912e-09
9.99082e-09
9.99042e-09
9.99e-09
9.98955e-09
9.98909e-09
9.98861e-09
9.98811e-09
9.98761e-09
9.98708e-09
9.98657e-09
9.99105e-09
9.99074e-09
9.99043e-09
9.99008e-09
9.98971e-09
9.98931e-09
9.98888e-09
9.98843e-09
9.98797e-09
9.98749e-09
9.98699e-09
9.9865e-09
9.98598e-09
9.98551e-09
9.98994e-09
9.98961e-09
9.98929e-09
9.98894e-09
9.98857e-09
9.98816e-09
9.98774e-09
9.98729e-09
9.98683e-09
9.98636e-09
9.98585e-09
9.98537e-09
9.98484e-09
9.98441e-09
9.98885e-09
9.98848e-09
9.98816e-09
9.9878e-09
9.98742e-09
9.98701e-09
9.98658e-09
9.98613e-09
9.98566e-09
9.9852e-09
9.9847e-09
9.98423e-09
9.98369e-09
9.98332e-09
9.98769e-09
9.98729e-09
9.98697e-09
9.98661e-09
9.98623e-09
9.98583e-09
9.9854e-09
9.98496e-09
9.9845e-09
9.98404e-09
9.98354e-09
9.98308e-09
9.98254e-09
9.98219e-09
9.98662e-09
9.98617e-09
9.98584e-09
9.98547e-09
9.98508e-09
9.98466e-09
9.98422e-09
9.98377e-09
9.9833e-09
9.98283e-09
9.98235e-09
9.98189e-09
9.98139e-09
9.98107e-09
9.98544e-09
9.98497e-09
9.9846e-09
9.98424e-09
9.98386e-09
9.98346e-09
9.98304e-09
9.9826e-09
9.98215e-09
9.98169e-09
9.98122e-09
9.98075e-09
9.98027e-09
9.97997e-09
9.97764e-09
9.97765e-09
9.97758e-09
9.97752e-09
9.97743e-09
9.9773e-09
9.97713e-09
9.97692e-09
9.97668e-09
9.97642e-09
9.97613e-09
9.97582e-09
9.97554e-09
9.97517e-09
9.97678e-09
9.97684e-09
9.97679e-09
9.97673e-09
9.97665e-09
9.97652e-09
9.97635e-09
9.97615e-09
9.97591e-09
9.97565e-09
9.97537e-09
9.97506e-09
9.97478e-09
9.97438e-09
9.97595e-09
9.97602e-09
9.97595e-09
9.97591e-09
9.97582e-09
9.9757e-09
9.97554e-09
9.97535e-09
9.97513e-09
9.97488e-09
9.97461e-09
9.97432e-09
9.97406e-09
9.97368e-09
9.9751e-09
9.97516e-09
9.97511e-09
9.97506e-09
9.97497e-09
9.97485e-09
9.9747e-09
9.97451e-09
9.9743e-09
9.97406e-09
9.97381e-09
9.97352e-09
9.97328e-09
9.97292e-09
9.97426e-09
9.97429e-09
9.97424e-09
9.97419e-09
9.9741e-09
9.97398e-09
9.97383e-09
9.97366e-09
9.97346e-09
9.97323e-09
9.97299e-09
9.97272e-09
9.97248e-09
9.97215e-09
9.97339e-09
9.9734e-09
9.97336e-09
9.9733e-09
9.97321e-09
9.97309e-09
9.97294e-09
9.97277e-09
9.97258e-09
9.97236e-09
9.97213e-09
9.97188e-09
9.97163e-09
9.97134e-09
9.9725e-09
9.97249e-09
9.97245e-09
9.97239e-09
9.97229e-09
9.97217e-09
9.97202e-09
9.97186e-09
9.97168e-09
9.97147e-09
9.97125e-09
9.97101e-09
9.97077e-09
9.97051e-09
9.97161e-09
9.97156e-09
9.97152e-09
9.97145e-09
9.97135e-09
9.97123e-09
9.97109e-09
9.97093e-09
9.97075e-09
9.97056e-09
9.97034e-09
9.97012e-09
9.96987e-09
9.96965e-09
9.9707e-09
9.97062e-09
9.97057e-09
9.97049e-09
9.97039e-09
9.97027e-09
9.97013e-09
9.96998e-09
9.9698e-09
9.96961e-09
9.9694e-09
9.9692e-09
9.96896e-09
9.96878e-09
9.96976e-09
9.96965e-09
9.9696e-09
9.96952e-09
9.96942e-09
9.9693e-09
9.96917e-09
9.96902e-09
9.96884e-09
9.96866e-09
9.96845e-09
9.96826e-09
9.96801e-09
9.96787e-09
9.96883e-09
9.96868e-09
9.96863e-09
9.96854e-09
9.96844e-09
9.96832e-09
9.96819e-09
9.96804e-09
9.96787e-09
9.96768e-09
9.96748e-09
9.9673e-09
9.96707e-09
9.96698e-09
9.96786e-09
9.96768e-09
9.96764e-09
9.96755e-09
9.96746e-09
9.96734e-09
9.96721e-09
9.96706e-09
9.9669e-09
9.96671e-09
9.96651e-09
9.96633e-09
9.96611e-09
9.96606e-09
9.96693e-09
9.96673e-09
9.96668e-09
9.96658e-09
9.96648e-09
9.96636e-09
9.96623e-09
9.96607e-09
9.96591e-09
9.96573e-09
9.96553e-09
9.96536e-09
9.96518e-09
9.96516e-09
9.96596e-09
9.96575e-09
9.96566e-09
9.96558e-09
9.96549e-09
9.96538e-09
9.96525e-09
9.96511e-09
9.96495e-09
9.96477e-09
9.96459e-09
9.9644e-09
9.96423e-09
9.9642e-09
9.95178e-09
9.95203e-09
9.95221e-09
9.95242e-09
9.95258e-09
9.95273e-09
9.95284e-09
9.95292e-09
9.95297e-09
9.95299e-09
9.95298e-09
9.95296e-09
9.95293e-09
9.95284e-09
9.95132e-09
9.95159e-09
9.95178e-09
9.95198e-09
9.95214e-09
9.95228e-09
9.95238e-09
9.95246e-09
9.95251e-09
9.95254e-09
9.95254e-09
9.95252e-09
9.95249e-09
9.95239e-09
9.95085e-09
9.95113e-09
9.95131e-09
9.9515e-09
9.95166e-09
9.9518e-09
9.95191e-09
9.95199e-09
9.95206e-09
9.95209e-09
9.95211e-09
9.95209e-09
9.95209e-09
9.95199e-09
9.95039e-09
9.95065e-09
9.95083e-09
9.95102e-09
9.95117e-09
9.9513e-09
9.95141e-09
9.9515e-09
9.95157e-09
9.95161e-09
9.95164e-09
9.95164e-09
9.95164e-09
9.95157e-09
9.94991e-09
9.95015e-09
9.95033e-09
9.95051e-09
9.95065e-09
9.95079e-09
9.9509e-09
9.95099e-09
9.95107e-09
9.95112e-09
9.95116e-09
9.95117e-09
9.95119e-09
9.95113e-09
9.94941e-09
9.94962e-09
9.9498e-09
9.94997e-09
9.95012e-09
9.95026e-09
9.95037e-09
9.95047e-09
9.95055e-09
9.95061e-09
9.95065e-09
9.95068e-09
9.9507e-09
9.95067e-09
9.94888e-09
9.94908e-09
9.94926e-09
9.94943e-09
9.94957e-09
9.94971e-09
9.94983e-09
9.94993e-09
9.95001e-09
9.95008e-09
9.95013e-09
9.95017e-09
9.95019e-09
9.9502e-09
9.94834e-09
9.94852e-09
9.9487e-09
9.94887e-09
9.94902e-09
9.94915e-09
9.94927e-09
9.94937e-09
9.94946e-09
9.94954e-09
9.94959e-09
9.94965e-09
9.94967e-09
9.9497e-09
9.94779e-09
9.94795e-09
9.94814e-09
9.9483e-09
9.94845e-09
9.94858e-09
9.9487e-09
9.94881e-09
9.9489e-09
9.94898e-09
9.94904e-09
9.94911e-09
9.94914e-09
9.9492e-09
9.94722e-09
9.94737e-09
9.94756e-09
9.94772e-09
9.94787e-09
9.948e-09
9.94812e-09
9.94823e-09
9.94833e-09
9.94841e-09
9.94848e-09
9.94856e-09
9.94858e-09
9.94867e-09
9.94666e-09
9.94678e-09
9.94698e-09
9.94713e-09
9.94728e-09
9.94742e-09
9.94754e-09
9.94765e-09
9.94775e-09
9.94784e-09
9.94791e-09
9.94799e-09
9.94803e-09
9.94814e-09
9.94608e-09
9.94619e-09
9.94639e-09
9.94654e-09
9.94669e-09
9.94683e-09
9.94696e-09
9.94707e-09
9.94717e-09
9.94726e-09
9.94734e-09
9.94741e-09
9.94745e-09
9.94757e-09
9.94552e-09
9.94562e-09
9.94581e-09
9.94596e-09
9.94611e-09
9.94624e-09
9.94636e-09
9.94648e-09
9.94657e-09
9.94666e-09
9.94675e-09
9.94683e-09
9.9469e-09
9.94703e-09
9.94496e-09
9.94504e-09
9.94523e-09
9.94538e-09
9.94553e-09
9.94566e-09
9.94578e-09
9.94589e-09
9.94599e-09
9.94608e-09
9.94616e-09
9.94623e-09
9.94631e-09
9.9464e-09
9.92472e-09
9.92504e-09
9.92536e-09
9.92569e-09
9.926e-09
9.9263e-09
9.92657e-09
9.92683e-09
9.92707e-09
9.92729e-09
9.92749e-09
9.92767e-09
9.92784e-09
9.92796e-09
9.92463e-09
9.92498e-09
9.9253e-09
9.92563e-09
9.92594e-09
9.92624e-09
9.92653e-09
9.92679e-09
9.92703e-09
9.92725e-09
9.92745e-09
9.92763e-09
9.92779e-09
9.9279e-09
9.9246e-09
9.92494e-09
9.92526e-09
9.92558e-09
9.92589e-09
9.92619e-09
9.92647e-09
9.92673e-09
9.92698e-09
9.9272e-09
9.9274e-09
9.92758e-09
9.92776e-09
9.92787e-09
9.92454e-09
9.92488e-09
9.9252e-09
9.92552e-09
9.92583e-09
9.92612e-09
9.9264e-09
9.92666e-09
9.9269e-09
9.92713e-09
9.92733e-09
9.92752e-09
9.9277e-09
9.92782e-09
9.92448e-09
9.92481e-09
9.92512e-09
9.92544e-09
9.92574e-09
9.92603e-09
9.92631e-09
9.92657e-09
9.92681e-09
9.92704e-09
9.92725e-09