/*--------------------------------*- C++ -*----------------------------------*\
| =========                 |                                                 |
| \\      /  F ield         | OpenFOAM: The Open Source CFD Toolbox           |
|  \\    /   O peration     | Version:  v2106                                 |
|   \\  /    A nd           | Website:  www.openfoam.com                      |
|    \\/     M anipulation  |                                                 |
\*---------------------------------------------------------------------------*/
FoamFile
{
    version     2.0;
    format      ascii;
    arch        "LSB;label=32;scalar=64";
    class       volScalarField;
    location    "0.000151";
    object      rho;
}
// * * * * * * * * * * * * * * * * * * * * * * * * * * * * * * * * * * * * * //

dimensions      [1 -3 0 0 0 0 0];

internalField   nonuniform List<scalar> 
18109
(
2.54998
2.56333
2.57128
2.57892
2.58451
2.58924
2.59254
2.55391
2.56296
2.57033
2.57687
2.58211
2.58623
2.58942
2.55825
2.56499
2.57093
2.57603
2.58024
2.58386
2.58686
2.56325
2.56756
2.57165
2.57546
2.57886
2.58202
2.58479
2.56697
2.56975
2.57276
2.57525
2.57798
2.58075
2.58335
2.57056
2.57141
2.57301
2.57498
2.5774
2.57991
2.58236
2.57357
2.57291
2.57392
2.57531
2.57733
2.57957
2.58194
2.57595
2.57437
2.57462
2.57553
2.57737
2.57947
2.58182
2.57356
2.58565
2.59223
2.59877
2.60394
2.60813
2.61113
2.61315
2.61441
2.61445
2.61351
2.61164
2.60848
2.60581
2.57775
2.58636
2.59256
2.59796
2.60241
2.60604
2.60884
2.61075
2.61194
2.6125
2.61275
2.61225
2.61166
2.61061
2.58266
2.58865
2.59351
2.59775
2.60129
2.60438
2.60691
2.60889
2.61029
2.61127
2.61201
2.61245
2.61272
2.6128
2.58715
2.59104
2.5945
2.5976
2.60044
2.60307
2.60533
2.60726
2.60884
2.61028
2.61161
2.61282
2.61394
2.61542
2.59076
2.59319
2.59554
2.59763
2.59993
2.60218
2.60425
2.60619
2.60793
2.60963
2.61125
2.61291
2.6146
2.61651
2.59374
2.59445
2.59598
2.59774
2.59969
2.60164
2.60355
2.60549
2.60736
2.60928
2.61113
2.61316
2.61523
2.61753
2.59614
2.59583
2.59686
2.59804
2.59972
2.60146
2.60326
2.60521
2.60713
2.60912
2.61104
2.61323
2.61543
2.61807
2.59799
2.59712
2.59763
2.59845
2.59997
2.60155
2.6033
2.60521
2.60714
2.60915
2.61109
2.61323
2.61531
2.61799
2.59908
2.59808
2.59829
2.59895
2.60034
2.6018
2.60352
2.60535
2.6072
2.60916
2.61108
2.61309
2.61506
2.6175
2.59857
2.59795
2.59816
2.59908
2.60052
2.60206
2.60379
2.60563
2.60749
2.60939
2.61126
2.613
2.61471
2.61657
2.59692
2.59692
2.59734
2.59872
2.60033
2.60214
2.60396
2.60583
2.60769
2.60952
2.61127
2.61274
2.61407
2.6153
2.59316
2.59403
2.59533
2.5975
2.59967
2.60196
2.60416
2.6063
2.60825
2.61001
2.61159
2.61276
2.61366
2.6136
2.58824
2.58974
2.59214
2.59551
2.59854
2.6015
2.60423
2.60674
2.60883
2.61062
2.61205
2.61274
2.61303
2.61118
2.57833
2.58317
2.58752
2.59266
2.59689
2.60115
2.60475
2.60771
2.60983
2.61134
2.61233
2.61263
2.61221
2.60913
2.54828
2.54357
2.54701
2.55243
2.55915
2.5612
2.56886
2.56263
2.56151
2.56271
2.56723
2.57012
2.58567
2.58051
2.57905
2.57911
2.58222
2.58488
2.59268
2.58988
2.59016
2.59245
2.59702
2.60063
2.60029
2.5996
2.60165
2.60538
2.61158
2.61668
2.60623
2.60788
2.61155
2.61625
2.62276
2.62884
2.61098
2.61415
2.61885
2.62428
2.63112
2.63768
2.61418
2.61795
2.6232
2.62876
2.63545
2.64222
2.6165
2.62016
2.62491
2.62997
2.63591
2.64291
2.61684
2.62001
2.62356
2.62719
2.63119
2.638
2.61581
2.61749
2.6191
2.62023
2.62193
2.62749
2.61411
2.61435
2.61378
2.61266
2.61263
2.61581
2.6117
2.60985
2.60708
2.60378
2.60108
2.60054
2.60756
2.60479
2.60135
2.59705
2.59343
2.59037
2.6065
2.60333
2.59918
2.59323
2.58911
2.58455
2.60188
2.59697
2.59366
2.59035
2.58926
2.58847
2.61156
2.60781
2.60525
2.60228
2.60064
2.60126
2.61415
2.61241
2.61213
2.61133
2.61218
2.6154
2.61727
2.61742
2.61925
2.62119
2.62415
2.62894
2.61915
2.62122
2.62479
2.62934
2.63465
2.64111
2.62073
2.62417
2.62897
2.63508
2.64194
2.6494
2.62135
2.62566
2.63093
2.63737
2.64459
2.65259
2.62104
2.62522
2.63015
2.63625
2.64323
2.65163
2.61998
2.62327
2.62696
2.63162
2.63689
2.64517
2.61849
2.62052
2.62241
2.62462
2.62761
2.63453
2.61659
2.61744
2.61778
2.618
2.61952
2.62393
2.61467
2.6136
2.61183
2.60984
2.60906
2.61029
2.61155
2.60979
2.6077
2.60494
2.60342
2.60167
2.61005
2.60759
2.60544
2.60239
2.60062
2.59811
2.60709
2.60408
2.6027
2.60176
2.60191
2.60218
2.61362
2.61164
2.61082
2.60988
2.60974
2.61118
2.61416
2.61384
2.61461
2.616
2.61834
2.62124
2.615
2.61612
2.61845
2.62119
2.62499
2.62871
2.61392
2.61648
2.6199
2.62383
2.62899
2.63457
2.61202
2.61522
2.61941
2.62423
2.63029
2.63747
2.60914
2.61142
2.61486
2.61911
2.62508
2.63337
2.60509
2.60568
2.60682
2.60887
2.61335
2.62242
2.60017
2.59871
2.59739
2.59701
2.59974
2.60927
2.59481
2.59083
2.58723
2.58486
2.58751
2.59753
2.5899
2.58387
2.57888
2.57508
2.57692
2.58395
2.58456
2.57738
2.57283
2.56881
2.56942
2.57002
2.58125
2.57474
2.57208
2.56864
2.56849
2.56506
2.57793
2.57131
2.57025
2.56826
2.56888
2.5657
2.55935
2.55337
2.55062
2.55202
2.5606
2.57079
2.55358
2.54615
2.54396
2.54503
2.55081
2.55228
2.55071
2.54515
2.54437
2.54453
2.54794
2.54498
2.54905
2.54352
2.54333
2.54417
2.54787
2.54659
2.57645
2.57139
2.5727
2.5746
2.57792
2.57694
2.59083
2.58696
2.58855
2.5893
2.5916
2.59022
2.59487
2.5939
2.59751
2.60022
2.60336
2.60343
2.59918
2.60042
2.60533
2.60917
2.61283
2.61394
2.60106
2.60418
2.60947
2.61399
2.61856
2.62206
2.60177
2.60569
2.61072
2.61548
2.62083
2.62565
2.60021
2.6036
2.60784
2.61204
2.61754
2.62429
2.59681
2.59796
2.60022
2.60255
2.60681
2.61488
2.59289
2.59172
2.59125
2.59055
2.59299
2.60158
2.588
2.58395
2.58083
2.57801
2.58018
2.58989
2.58328
2.57707
2.5718
2.56728
2.56817
2.57507
2.57777
2.56948
2.5633
2.55874
2.55937
2.56146
2.57307
2.56565
2.56113
2.55754
2.55726
2.55683
2.57056
2.56358
2.56041
2.55761
2.55808
2.55908
2.5637
2.54397
2.53615
2.5689
2.65412
2.58146
2.56893
2.5657
2.59494
2.67797
2.60201
2.59573
2.60109
2.63574
2.7412
2.62122
2.62192
2.6352
2.67443
2.77877
2.63826
2.64829
2.67061
2.71633
2.82691
2.64955
2.66902
2.69985
2.75393
2.87452
2.65794
2.68558
2.72284
2.78835
2.93145
2.66104
2.69161
2.73372
2.8132
2.96493
3.12205
2.6564
2.68868
2.73828
2.83194
2.97639
3.10285
2.64356
2.67854
2.73864
2.83573
2.96062
3.06466
2.63008
2.66335
2.71884
2.80042
2.90597
3.02398
3.1208
2.61184
2.63101
2.66857
2.73108
2.83884
2.98794
3.16378
3.27986
2.59835
2.60234
2.62097
2.65866
2.76351
2.97838
3.28729
3.68316
2.59039
2.58723
2.59297
2.61203
2.69283
2.86368
3.14501
3.4165
2.59124
2.58889
2.58812
2.59633
2.64981
2.76744
2.97527
3.14082
2.60249
2.60238
2.60075
2.61209
2.66654
2.7963
2.96986
3.14327
2.61943
2.62028
2.62324
2.64382
2.71189
2.86854
3.09758
3.29206
2.63511
2.63963
2.64947
2.67539
2.74959
2.90588
3.11189
3.44096
2.65053
2.66027
2.6778
2.71114
2.79161
2.94955
3.1451
3.30926
2.66109
2.67686
2.69975
2.73954
2.82684
2.98948
3.17554
3.31655
2.66724
2.69028
2.71912
2.76552
2.86331
3.03769
3.22897
3.36231
2.66837
2.69506
2.72835
2.78327
2.89096
3.04902
3.22946
3.47378
2.66309
2.69252
2.7339
2.8025
2.9143
3.0471
2.6515
2.68445
2.73735
2.81474
2.9236
3.04081
2.64031
2.67247
2.72988
2.80658
2.90954
3.03357
2.62234
2.63863
2.67776
2.74411
2.86579
3.03337
2.60895
2.6086
2.6232
2.66229
2.78521
3.01526
2.60013
2.59424
2.59632
2.62134
2.72017
2.60182
2.59522
2.59033
2.60531
2.67645
2.61201
2.60543
2.6027
2.62597
2.70137
2.62294
2.6206
2.62649
2.66503
2.76316
2.63314
2.63754
2.65435
2.69988
2.80987
2.64469
2.66059
2.68933
2.74306
2.86297
2.65286
2.6773
2.71514
2.78729
2.91417
2.65315
2.68672
2.74113
2.83579
2.977
2.64712
2.69238
2.76205
2.85927
2.98868
2.63783
2.69014
2.76314
2.84864
2.95291
2.62599
2.66985
2.7284
2.79273
2.89674
2.59709
2.60826
2.64446
2.71806
2.84212
2.56839
2.55126
2.56519
2.65605
2.80497
2.55204
2.52243
2.52242
2.60574
2.77939
2.55096
2.52298
2.5194
2.58417
2.72836
2.56171
2.53726
2.53403
2.58064
2.68358
2.57808
2.56016
2.56281
2.61167
2.72313
2.59551
2.58647
2.59769
2.65575
2.79636
2.61348
2.61268
2.63424
2.69531
2.84356
2.62882
2.6427
2.67585
2.74812
2.90032
2.6409
2.6652
2.71208
2.80671
2.96291
2.64471
2.68102
2.74913
2.86844
3.03739
2.64017
2.68963
2.77129
2.88899
3.04577
2.63092
2.68792
2.77023
2.86912
2.98879
2.61748
2.66134
2.72357
2.7974
2.91045
2.58864
2.60162
2.64049
2.71307
2.83477
2.5617
2.55021
2.56816
2.65169
2.79839
2.54694
2.52148
2.52179
2.59693
2.77303
2.54923
2.52564
2.52139
2.57327
2.7099
2.61005
2.61931
2.62403
2.62929
2.63354
2.63701
2.63959
2.64131
2.64228
2.64241
2.64163
2.64011
2.63739
2.63546
2.61327
2.62033
2.62488
2.6291
2.63276
2.63578
2.6381
2.63966
2.64051
2.64077
2.64065
2.64007
2.63911
2.63828
2.61786
2.62246
2.62603
2.62932
2.63222
2.63475
2.63679
2.63831
2.63934
2.63983
2.64008
2.6401
2.63986
2.64001
2.62141
2.62445
2.62696
2.62959
2.63189
2.63396
2.63568
2.63709
2.63819
2.63902
2.63976
2.64039
2.64088
2.64173
2.62461
2.62604
2.62798
2.62984
2.6317
2.63341
2.63493
2.63631
2.63748
2.63858
2.63959
2.64064
2.64161
2.64289
2.62711
2.62761
2.629
2.63028
2.63177
2.63314
2.63445
2.63578
2.63701
2.63832
2.63953
2.64093
2.64228
2.64399
2.62907
2.62894
2.62985
2.63064
2.63193
2.63312
2.63433
2.63563
2.63689
2.63828
2.63957
2.64115
2.64268
2.64464
2.63044
2.63012
2.63062
2.63119
2.63232
2.63333
2.63447
2.6357
2.63692
2.6383
2.6396
2.6412
2.64274
2.64489
2.63117
2.63087
2.63121
2.63176
2.63278
2.63367
2.63478
2.63595
2.63709
2.63836
2.63963
2.64112
2.64256
2.64466
2.63061
2.63085
2.63127
2.63206
2.63311
2.63406
2.63515
2.6363
2.63742
2.63858
2.63977
2.64106
2.64235
2.64416
2.629
2.62989
2.63064
2.63182
2.63302
2.63422
2.6354
2.63662
2.63773
2.63881
2.6399
2.64094
2.64199
2.64309
2.62641
2.62793
2.62943
2.63111
2.6327
2.63427
2.63575
2.63716
2.63832
2.63934
2.64027
2.64104
2.64166
2.64209
2.62297
2.62508
2.62722
2.62983
2.63201
2.63415
2.63606
2.63773
2.63902
2.64002
2.6408
2.6411
2.64127
2.64006
2.61511
2.61982
2.62387
2.62779
2.63117
2.63413
2.63666
2.63863
2.64001
2.6409
2.64144
2.64141
2.64104
2.63877
2.6518
2.65724
2.66074
2.66407
2.66699
2.66949
2.67162
2.67325
2.67419
2.67469
2.67442
2.67367
2.67239
2.671
2.65406
2.65827
2.66077
2.66363
2.6663
2.66857
2.67046
2.67194
2.67274
2.67318
2.67316
2.67289
2.67241
2.67159
2.65742
2.6599
2.66193
2.66407
2.66604
2.66788
2.66952
2.67089
2.6717
2.6723
2.67237
2.67246
2.67223
2.67208
2.66005
2.6613
2.66273
2.66432
2.66585
2.66725
2.66856
2.66975
2.67058
2.67137
2.67174
2.67223
2.67238
2.67284
2.6624
2.66266
2.66359
2.66452
2.66566
2.66673
2.66781
2.66889
2.66977
2.67073
2.67135
2.67213
2.67262
2.67347
2.66441
2.66401
2.66445
2.66486
2.66562
2.66634
2.6672
2.66816
2.66907
2.67017
2.67104
2.6721
2.67293
2.67409
2.66583
2.66514
2.66515
2.66513
2.66565
2.66619
2.66697
2.66784
2.66875
2.66988
2.67087
2.6721
2.67316
2.67456
2.66667
2.66591
2.66567
2.6655
2.66583
2.66625
2.66694
2.66775
2.66863
2.66975
2.67077
2.6721
2.67325
2.67489
2.66661
2.666
2.66577
2.66572
2.66605
2.66646
2.66712
2.66789
2.66873
2.66977
2.67075
2.67206
2.6732
2.67492
2.66601
2.66573
2.66572
2.66591
2.66636
2.66687
2.66755
2.66834
2.66915
2.6701
2.67099
2.67217
2.67322
2.67489
2.66453
2.66476
2.66521
2.66575
2.66646
2.6672
2.66801
2.66888
2.66968
2.67053
2.67131
2.67223
2.67313
2.67438
2.66281
2.66341
2.66451
2.6654
2.66649
2.6676
2.66869
2.66972
2.67055
2.67131
2.67196
2.67258
2.67318
2.67406
2.66073
2.66193
2.66336
2.66482
2.6664
2.66796
2.66939
2.67061
2.67148
2.67211
2.67253
2.6727
2.673
2.67294
2.65583
2.65859
2.66147
2.66399
2.66635
2.66854
2.67038
2.67176
2.67267
2.67318
2.67348
2.67326
2.67298
2.67257
2.68268
2.68536
2.68704
2.68883
2.6904
2.69187
2.69324
2.69454
2.69534
2.69612
2.69609
2.69629
2.69581
2.69587
2.68453
2.6863
2.68736
2.6888
2.69024
2.69156
2.69277
2.69385
2.6945
2.69512
2.6952
2.69542
2.69525
2.69514
2.68687
2.6877
2.68856
2.68957
2.69058
2.69152
2.69247
2.69336
2.69394
2.69454
2.69464
2.69488
2.69465
2.69468
2.68878
2.68896
2.68947
2.69
2.69068
2.69133
2.69206
2.69272
2.6932
2.69376
2.69398
2.69432
2.69429
2.6945
2.69049
2.69007
2.69022
2.69033
2.69073
2.69111
2.69165
2.69216
2.6926
2.69317
2.69348
2.69389
2.69405
2.69437
2.69166
2.69095
2.69076
2.69052
2.69062
2.69074
2.69109
2.69147
2.69189
2.6925
2.69293
2.69347
2.69384
2.69433
2.69241
2.6915
2.69101
2.69054
2.6904
2.69035
2.6906
2.69093
2.69136
2.69199
2.6925
2.69315
2.69366
2.6943
2.69252
2.69152
2.69089
2.69031
2.69007
2.68996
2.69017
2.6905
2.69095
2.69158
2.69214
2.69286
2.69347
2.69427
2.69187
2.69097
2.69045
2.68998
2.68978
2.68971
2.68995
2.69028
2.69073
2.69134
2.69188
2.6926
2.69322
2.69415
2.69104
2.69023
2.68991
2.68962
2.68959
2.68968
2.68998
2.69035
2.6908
2.69137
2.69187
2.69256
2.69313
2.69412
2.68968
2.68904
2.6891
2.68911
2.68935
2.68965
2.6901
2.69057
2.69102
2.69152
2.69192
2.69248
2.69297
2.69389
2.68804
2.68766
2.68821
2.6886
2.6892
2.68981
2.69046
2.69105
2.69152
2.69194
2.69223
2.69265
2.69303
2.69387
2.6864
2.68646
2.68731
2.6881
2.68904
2.68998
2.69089
2.69162
2.69213
2.69246
2.69262
2.69278
2.693
2.69352
2.68335
2.68458
2.6862
2.68762
2.68916
2.69043
2.69162
2.69246
2.69298
2.69324
2.69329
2.69324
2.69319
2.69383
2.70157
2.70245
2.703
2.70371
2.7043
2.70491
2.70564
2.70633
2.70689
2.70752
2.70777
2.70825
2.70816
2.70859
2.70326
2.70369
2.7039
2.70432
2.70479
2.70525
2.70576
2.70624
2.70658
2.70699
2.70712
2.70741
2.70744
2.70749
2.70513
2.70504
2.70525
2.70541
2.70562
2.7058
2.70609
2.70632
2.70647
2.70674
2.70678
2.70693
2.70684
2.70679
2.7065
2.70624
2.70631
2.70624
2.70626
2.70624
2.70631
2.70634
2.70632
2.70639
2.70631
2.70632
2.7062
2.70612
2.70769
2.70725
2.70717
2.70696
2.70686
2.7067
2.70663
2.70649
2.70635
2.70625
2.70603
2.7059
2.7057
2.70558
2.70835
2.70787
2.70765
2.70737
2.70717
2.7069
2.70672
2.70646
2.70623
2.706
2.70569
2.70547
2.70524
2.70512
2.70859
2.70815
2.70785
2.70753
2.70728
2.70697
2.70673
2.70641
2.70609
2.7058
2.70542
2.70517
2.70489
2.70478
2.70829
2.70788
2.70758
2.70729
2.70705
2.70675
2.70652
2.7062
2.70588
2.70557
2.70518
2.70493
2.70463
2.70456
2.70754
2.70717
2.70694
2.70671
2.70653
2.7063
2.70615
2.7059
2.70563
2.70535
2.70496
2.70473
2.70442
2.7044
2.70658
2.70623
2.70611
2.70599
2.70593
2.70583
2.70579
2.70563
2.70544
2.70521
2.70485
2.70465
2.70435
2.70439
2.70527
2.70498
2.70506
2.70506
2.70519
2.70526
2.70536
2.70535
2.70526
2.70511
2.70479
2.70462
2.70438
2.7045
2.70382
2.70361
2.70394
2.70415
2.7045
2.70478
2.70506
2.70519
2.70519
2.70512
2.70484
2.70475
2.70457
2.70477
2.70248
2.70241
2.7029
2.70329
2.70384
2.70434
2.7048
2.70509
2.7052
2.70521
2.70505
2.70501
2.70488
2.70512
2.70092
2.70119
2.70194
2.70266
2.70348
2.70417
2.70477
2.70516
2.70536
2.7055
2.70542
2.70546
2.70527
2.70578
2.71196
2.71158
2.71126
2.71116
2.71111
2.71125
2.71159
2.71196
2.71244
2.71298
2.71347
2.71405
2.71446
2.7149
2.71308
2.71247
2.71209
2.71179
2.71162
2.71158
2.7117
2.71189
2.71216
2.71251
2.71282
2.71318
2.71344
2.71359
2.71428
2.71348
2.71303
2.7126
2.71229
2.71206
2.71196
2.71195
2.71203
2.71218
2.71233
2.71248
2.71263
2.71258
2.71495
2.71419
2.7137
2.71322
2.71282
2.71247
2.71221
2.71201
2.71189
2.71184
2.71177
2.71172
2.71169
2.71153
2.71553
2.71485
2.71433
2.71383
2.71336
2.71292
2.71252
2.71214
2.71183
2.71157
2.71132
2.71109
2.71089
2.71065
2.71578
2.7152
2.71468
2.71419
2.71368
2.71318
2.71267
2.71215
2.71168
2.71124
2.71081
2.71043
2.71008
2.70977
2.71581
2.71529
2.7148
2.71434
2.71384
2.71331
2.71274
2.71213
2.71152
2.71094
2.71036
2.70987
2.70943
2.70907
2.71556
2.71506
2.71463
2.71421
2.71375
2.71323
2.71265
2.712
2.71131
2.71063
2.70994
2.70938
2.70885
2.70848
2.71495
2.71449
2.71413
2.71376
2.71337
2.71291
2.71237
2.71174
2.71103
2.71032
2.70958
2.70901
2.70843
2.70809
2.71416
2.71372
2.71344
2.71312
2.71282
2.71241
2.71195
2.71137
2.71071
2.71002
2.70927
2.7087
2.7081
2.70778
2.71321
2.71277
2.71256
2.71229
2.71208
2.71176
2.7114
2.71092
2.71035
2.70974
2.70905
2.70853
2.70795
2.70767
2.71214
2.71171
2.71159
2.71137
2.71126
2.71104
2.7108
2.71043
2.70997
2.70948
2.70886
2.7084
2.70789
2.70768
2.71115
2.71077
2.71067
2.71051
2.71049
2.71037
2.71024
2.70998
2.70966
2.70931
2.70881
2.70847
2.70806
2.70794
2.71009
2.70975
2.70976
2.70971
2.70977
2.70975
2.70974
2.70961
2.7094
2.70921
2.70889
2.70869
2.70835
2.70839
2.71753
2.71633
2.71531
2.71461
2.71409
2.71382
2.71371
2.71383
2.71417
2.71459
2.7151
2.71562
2.71621
2.7165
2.71725
2.71609
2.71505
2.71424
2.71362
2.71325
2.71305
2.71309
2.71334
2.71367
2.71409
2.7145
2.71495
2.71514
2.71693
2.71581
2.71474
2.71394
2.71326
2.71283
2.71256
2.7125
2.71263
2.71283
2.71314
2.71341
2.71382
2.7139
2.71652
2.71548
2.71445
2.71367
2.71298
2.71249
2.71216
2.71198
2.71199
2.71206
2.71222
2.71238
2.71264
2.71264
2.7162
2.71524
2.71428
2.71355
2.71286
2.71233
2.71193
2.71163
2.71148
2.71142
2.71142
2.71145
2.71158
2.71155
2.71577
2.7149
2.71406
2.71338
2.71272
2.71216
2.71169
2.71129
2.711
2.7108
2.71066
2.71056
2.71055
2.71049
2.71533
2.71453
2.71379
2.71317
2.71255
2.71199
2.71148
2.71099
2.71059
2.71027
2.71
2.70981
2.70968
2.7096
2.71481
2.71407
2.71344
2.71287
2.71231
2.71176
2.71123
2.71069
2.7102
2.70978
2.70941
2.70913
2.70888
2.7088
2.71418
2.7135
2.71296
2.71244
2.71194
2.71142
2.7109
2.71036
2.70983
2.70936
2.70892
2.70859
2.70827
2.70818
2.71347
2.71284
2.71238
2.7119
2.71147
2.71099
2.71051
2.70999
2.70946
2.70897
2.70848
2.70813
2.70775
2.70764
2.71273
2.71214
2.71174
2.71129
2.71092
2.71048
2.71005
2.70959
2.70911
2.70866
2.70817
2.70783
2.70743
2.70733
2.71191
2.71134
2.71099
2.71058
2.71027
2.70989
2.70954
2.70915
2.70875
2.70836
2.7079
2.70758
2.70718
2.70708
2.71122
2.71066
2.71032
2.70994
2.70967
2.70935
2.70907
2.70877
2.70846
2.70816
2.70778
2.70751
2.70717
2.7071
2.71038
2.70983
2.70955
2.70923
2.70903
2.70879
2.70861
2.7084
2.70817
2.70796
2.70765
2.70743
2.7071
2.7071
2.71921
2.71808
2.71698
2.7161
2.71536
2.7148
2.71442
2.71423
2.7142
2.71435
2.71466
2.71497
2.71545
2.71555
2.71813
2.71696
2.71576
2.71482
2.71399
2.71338
2.71296
2.71276
2.71275
2.71292
2.71325
2.71357
2.71401
2.71417
2.71691
2.71571
2.71445
2.71349
2.71264
2.71206
2.71165
2.71146
2.71147
2.71165
2.71196
2.71227
2.71275
2.71288
2.71576
2.71454
2.71329
2.71233
2.71149
2.7109
2.71049
2.71028
2.71028
2.71044
2.71071
2.71103
2.71146
2.71163
2.71476
2.71353
2.7123
2.71135
2.71052
2.70993
2.70951
2.70929
2.70926
2.70938
2.70962
2.7099
2.7103
2.7105
2.71374
2.71253
2.71137
2.71046
2.70966
2.70909
2.70866
2.7084
2.70833
2.70841
2.70859
2.70884
2.70916
2.70937
2.71284
2.71166
2.71059
2.70971
2.70896
2.70839
2.70796
2.70765
2.70753
2.70757
2.70768
2.70789
2.70813
2.70836
2.71202
2.71086
2.7099
2.70905
2.70836
2.70779
2.70735
2.70701
2.70683
2.70681
2.70685
2.70699
2.70715
2.70739
2.71127
2.71016
2.70929
2.70848
2.70783
2.70726
2.70682
2.70645
2.70623
2.70615
2.70614
2.70623
2.7063
2.70653
2.71054
2.70951
2.70872
2.70795
2.70734
2.70677
2.70633
2.70596
2.7057
2.70556
2.7055
2.70555
2.70554
2.70574
2.7099
2.70894
2.70823
2.70749
2.70691
2.70634
2.7059
2.70553
2.70524
2.70506
2.70496
2.70499
2.70493
2.7051
2.70921
2.70832
2.70768
2.70698
2.70643
2.70589
2.70548
2.70511
2.70481
2.7046
2.70446
2.70447
2.70437
2.70451
2.70861
2.7078
2.70721
2.70655
2.70604
2.70551
2.7051
2.70473
2.70445
2.70423
2.70407
2.70405
2.70395
2.70406
2.7078
2.70707
2.70657
2.70598
2.70554
2.70506
2.7047
2.70435
2.70407
2.70385
2.70364
2.70359
2.70344
2.70354
2.71889
2.71803
2.71706
2.71623
2.71547
2.71483
2.71433
2.71397
2.71376
2.71368
2.71372
2.71384
2.71409
2.714
2.71745
2.71655
2.71548
2.7146
2.71375
2.71308
2.71255
2.71221
2.71202
2.71197
2.71207
2.71222
2.71251
2.71249
2.71588
2.71491
2.71378
2.71285
2.71197
2.7113
2.71079
2.71049
2.71034
2.71035
2.7105
2.71068
2.71102
2.71107
2.71427
2.71324
2.71208
2.71114
2.71026
2.7096
2.70911
2.70884
2.70872
2.70877
2.70898
2.70921
2.70957
2.70971
2.71279
2.71169
2.71051
2.70955
2.70868
2.70805
2.70759
2.70734
2.70726
2.70734
2.70758
2.70786
2.70823
2.70845
2.71133
2.71018
2.70903
2.70808
2.70725
2.70665
2.70622
2.70597
2.70591
2.70601
2.70625
2.70655
2.70693
2.70722
2.71002
2.70885
2.70775
2.70681
2.70602
2.70543
2.70502
2.70478
2.70471
2.70481
2.70502
2.70533
2.7057
2.70605
2.70882
2.70765
2.70662
2.70569
2.70495
2.70436
2.70396
2.70371
2.70361
2.7037
2.70388
2.70418
2.70452
2.70491
2.70775
2.70661
2.70564
2.70474
2.70403
2.70345
2.70304
2.70277
2.70265
2.70271
2.70285
2.70314
2.70343
2.70383
2.70679
2.70568
2.70479
2.70393
2.70325
2.70267
2.70225
2.70196
2.7018
2.70181
2.70191
2.70217
2.70241
2.7028
2.70595
2.7049
2.70408
2.70325
2.7026
2.70201
2.70158
2.70126
2.70107
2.70102
2.70109
2.7013
2.70149
2.70185
2.70515
2.70416
2.7034
2.70262
2.702
2.70142
2.70099
2.70066
2.70042
2.70033
2.70035
2.70051
2.70064
2.70096
2.70447
2.70355
2.70285
2.70211
2.7015
2.70093
2.70049
2.70012
2.69986
2.69972
2.69969
2.69979
2.69988
2.70017
2.70362
2.70279
2.70217
2.70152
2.70098
2.70044
2.7
2.69963
2.69934
2.69914
2.69905
2.69911
2.69912
2.69935
2.71624
2.71572
2.71503
2.71445
2.7139
2.71344
2.71303
2.71269
2.71242
2.71224
2.71216
2.71215
2.71223
2.71211
2.71462
2.7141
2.71339
2.71281
2.71225
2.71179
2.71138
2.71105
2.7108
2.71065
2.7106
2.71061
2.71074
2.7106
2.71301
2.71244
2.7117
2.71111
2.71054
2.71009
2.70969
2.70938
2.70917
2.70906
2.70905
2.7091
2.70926
2.7092
2.71137
2.71075
2.71
2.70939
2.70883
2.70838
2.70801
2.70773
2.70755
2.70749
2.70752
2.7076
2.70778
2.70781
2.70982
2.70913
2.70837
2.70774
2.70718
2.70674
2.70639
2.70614
2.70599
2.70595
2.70601
2.70615
2.70635
2.70646
2.70829
2.70755
2.70679
2.70616
2.70561
2.70518
2.70484
2.70461
2.70449
2.70447
2.70456
2.70474
2.70495
2.70514
2.70685
2.70607
2.70533
2.7047
2.70415
2.70372
2.7034
2.70319
2.70307
2.70307
2.70319
2.70338
2.70361
2.70386
2.70551
2.7047
2.70399
2.70335
2.70281
2.70237
2.70206
2.70185
2.70176
2.70178
2.70188
2.70209
2.70233
2.70263
2.70429
2.70347
2.70278
2.70213
2.7016
2.70116
2.70084
2.70063
2.70054
2.70056
2.70066
2.70087
2.70113
2.70146
2.70319
2.70237
2.7017
2.70106
2.70052
2.70008
2.69976
2.69952
2.69942
2.69943
2.69952
2.69974
2.7
2.70035
2.70219
2.70138
2.70074
2.7001
2.69958
2.69913
2.6988
2.69854
2.69843
2.69842
2.69851
2.69871
2.69896
2.69933
2.70123
2.70046
2.69986
2.69924
2.69873
2.69829
2.69796
2.6977
2.69758
2.69757
2.69764
2.69781
2.69802
2.69838
2.7004
2.69967
2.69909
2.69849
2.69801
2.69756
2.69723
2.69697
2.69685
2.69682
2.69687
2.69701
2.6972
2.69755
2.69949
2.69881
2.69829
2.69776
2.69732
2.6969
2.69657
2.69631
2.69617
2.69612
2.69613
2.69625
2.69642
2.69674
2.712
2.71183
2.7115
2.71122
2.71093
2.71066
2.7104
2.71017
2.70996
2.70979
2.70967
2.70963
2.70969
2.70968
2.71052
2.7104
2.71009
2.70983
2.70955
2.7093
2.70906
2.70884
2.70865
2.70851
2.70842
2.70838
2.70845
2.7084
2.70912
2.70899
2.70867
2.70841
2.70813
2.70789
2.70767
2.70747
2.7073
2.70717
2.7071
2.70709
2.70718
2.70715
2.70772
2.70753
2.70721
2.70694
2.70667
2.70644
2.70623
2.70606
2.70592
2.70582
2.70578
2.7058
2.70589
2.70592
2.70635
2.70611
2.70578
2.7055
2.70523
2.70501
2.70482
2.70466
2.70454
2.70447
2.70447
2.70451
2.70463
2.70473
2.70501
2.70471
2.70438
2.70408
2.70382
2.70359
2.70341
2.70327
2.70318
2.70314
2.70318
2.70327
2.70341
2.70357
2.70372
2.70337
2.70304
2.70273
2.70246
2.70223
2.70205
2.70193
2.70187
2.70187
2.70194
2.70208
2.70225
2.70246
2.70249
2.70211
2.70176
2.70145
2.70117
2.70094
2.70077
2.70067
2.70063
2.70067
2.70078
2.70095
2.70115
2.70138
2.70132
2.70091
2.70057
2.70025
2.69997
2.69975
2.69959
2.6995
2.69949
2.69957
2.6997
2.69989
2.70009
2.70036
2.70023
2.69979
2.69946
2.69914
2.69886
2.69864
2.69849
2.69842
2.69843
2.69852
2.69866
2.69886
2.69906
2.69935
2.69921
2.69875
2.69843
2.6981
2.69783
2.69761
2.69747
2.69741
2.69744
2.69753
2.69768
2.69789
2.69807
2.69839
2.69824
2.69778
2.69747
2.69715
2.69688
2.69667
2.69654
2.69649
2.69651
2.69659
2.69674
2.69695
2.69715
2.69749
2.69733
2.69689
2.69658
2.69627
2.69603
2.69583
2.69572
2.69569
2.69572
2.6958
2.69595
2.69614
2.69636
2.6967
2.69643
2.69604
2.69575
2.69546
2.69525
2.69508
2.69497
2.69493
2.69495
2.69502
2.69518
2.69537
2.69561
2.69593
2.70706
2.70711
2.70709
2.7071
2.70709
2.70707
2.70704
2.707
2.70696
2.70693
2.7069
2.70692
2.70699
2.70708
2.70596
2.70606
2.70607
2.70611
2.70612
2.70612
2.70611
2.70609
2.70608
2.70606
2.70606
2.70609
2.70617
2.70617
2.70495
2.70504
2.70505
2.7051
2.70512
2.70514
2.70515
2.70515
2.70514
2.70513
2.70513
2.70516
2.70526
2.70526
2.70389
2.70397
2.70399
2.70405
2.70407
2.7041
2.70412
2.70413
2.70414
2.70415
2.70418
2.70422
2.70433
2.70436
2.70284
2.70289
2.70292
2.70297
2.70301
2.70304
2.70308
2.7031
2.70313
2.70316
2.70321
2.70327
2.70339
2.70346
2.70178
2.70183
2.70186
2.70191
2.70194
2.70199
2.70203
2.70207
2.70211
2.70216
2.70223
2.70232
2.70246
2.70257
2.70077
2.70079
2.70082
2.70085
2.70089
2.70093
2.70098
2.70103
2.7011
2.70118
2.70127
2.70139
2.70153
2.70168
2.69979
2.69978
2.6998
2.69982
2.69985
2.69989
2.69995
2.70002
2.7001
2.70021
2.70032
2.70046
2.7006
2.70079
2.69884
2.69879
2.69879
2.69881
2.69883
2.69888
2.69894
2.69903
2.69914
2.69926
2.69939
2.69955
2.6997
2.69992
2.69791
2.69783
2.69782
2.69782
2.69785
2.6979
2.69797
2.69807
2.6982
2.69834
2.69849
2.69866
2.69882
2.69907
2.69701
2.6969
2.69689
2.69688
2.69691
2.69697
2.69706
2.69717
2.69732
2.69748
2.69764
2.69783
2.69799
2.69827
2.69616
2.69603
2.69603
2.69601
2.69604
2.69611
2.69621
2.69633
2.69648
2.69665
2.69682
2.69703
2.6972
2.69751
2.69535
2.6952
2.69521
2.6952
2.69524
2.69533
2.69545
2.69558
2.69574
2.6959
2.6961
2.69631
2.69652
2.69682
2.69456
2.69444
2.69445
2.69446
2.69452
2.6946
2.69471
2.69484
2.695
2.69516
2.69538
2.69559
2.69584
2.69612
2.70186
2.70215
2.70238
2.70263
2.70286
2.70306
2.70325
2.70341
2.70355
2.70368
2.70379
2.7039
2.70399
2.70414
2.70123
2.70155
2.70181
2.70208
2.70232
2.70255
2.70275
2.70293
2.70309
2.70323
2.70336
2.70349
2.70362
2.70372
2.70062
2.70095
2.70122
2.70151
2.70176
2.70201
2.70223
2.70242
2.7026
2.70275
2.70288
2.70301
2.70314
2.70325
2.69999
2.70033
2.70061
2.70091
2.70118
2.70144
2.70166
2.70186
2.70203
2.70218
2.70232
2.70245
2.70259
2.7027
2.69934
2.69969
2.69997
2.70027
2.70054
2.7008
2.70103
2.70123
2.70141
2.70157
2.70172
2.70185
2.70199
2.70211
2.69867
2.699
2.6993
2.6996
2.69988
2.70014
2.70037
2.70058
2.70076
2.70093
2.70108
2.70122
2.70136
2.7015
2.698
2.69831
2.69861
2.6989
2.69918
2.69944
2.69967
2.69989
2.70008
2.70026
2.70041
2.70056
2.7007
2.70085
2.69732
2.69761
2.69791
2.69819
2.69847
2.69872
2.69896
2.69918
2.69939
2.69957
2.69974
2.69989
2.70004
2.70021
2.69665
2.6969
2.69719
2.69747
2.69774
2.698
2.69824
2.69847
2.69868
2.69888
2.69905
2.69923
2.69938
2.69958
2.69598
2.6962
2.69648
2.69675
2.69703
2.69729
2.69754
2.69778
2.698
2.69821
2.6984
2.69858
2.69875
2.69897
2.69533
2.69551
2.69579
2.69606
2.69633
2.6966
2.69686
2.69711
2.69734
2.69756
2.69776
2.69796
2.69812
2.69837
2.69471
2.69487
2.69514
2.6954
2.69567
2.69593
2.6962
2.69644
2.69668
2.6969
2.69712
2.69733
2.69751
2.69778
2.69409
2.69424
2.6945
2.69476
2.69503
2.6953
2.69557
2.69582
2.69607
2.69631
2.69654
2.69676
2.69697
2.69723
2.69352
2.69369
2.69393
2.69418
2.69444
2.6947
2.69494
2.69519
2.69544
2.69569
2.69594
2.69616
2.6964
2.69663
2.69644
2.69686
2.69725
2.69764
2.69801
2.69835
2.69867
2.69896
2.69923
2.69948
2.6997
2.6999
2.70007
2.70027
2.69625
2.69669
2.69709
2.69749
2.69787
2.69822
2.69856
2.69886
2.69915
2.69941
2.69965
2.69987
2.70007
2.70028
2.69604
2.69649
2.69691
2.69732
2.69771
2.69808
2.69843
2.69875
2.69905
2.69932
2.69957
2.69979
2.69999
2.70019
2.6958
2.69626
2.69669
2.69712
2.69752
2.69791
2.69827
2.6986
2.69891
2.69918
2.69944
2.69966
2.69987
2.70008
2.69554
2.69601
2.69646
2.6969
2.69731
2.69771
2.69807
2.69841
2.69871
2.69899
2.69925
2.69947
2.69968
2.69988
2.69526
2.69573
2.69618
2.69663
2.69705
2.69746
2.69783
2.69818
2.69849
2.69877
2.69903
2.69925
2.69947
2.69966
2.69495
2.69543
2.69589
2.69634
2.69677
2.69718
2.69755
2.69789
2.69821
2.69848
2.69874
2.69896
2.69917
2.69937
2.69462
2.69508
2.69555
2.696
2.69644
2.69685
2.69723
2.69758
2.69789
2.69817
2.69843
2.69865
2.69886
2.69906
2.69427
2.69473
2.6952
2.69565
2.69608
2.69649
2.69687
2.69721
2.69753
2.69781
2.69806
2.69829
2.69849
2.6987
2.69392
2.69436
2.69482
2.69527
2.69569
2.6961
2.69648
2.69683
2.69714
2.69743
2.69768
2.69791
2.69811
2.69832
2.69356
2.69399
2.69444
2.69487
2.69529
2.69569
2.69607
2.69641
2.69673
2.69701
2.69727
2.6975
2.6977
2.69792
2.69318
2.69359
2.69404
2.69446
2.69487
2.69527
2.69564
2.69599
2.69631
2.6966
2.69685
2.69708
2.69727
2.69751
2.6928
2.6932
2.69363
2.69405
2.69446
2.69486
2.69523
2.69558
2.6959
2.69619
2.69645
2.69667
2.69688
2.69711
2.69252
2.69289
2.69329
2.69369
2.69408
2.69446
2.69482
2.69516
2.69547
2.69576
2.69602
2.69623
2.69643
2.69664
2.69051
2.69098
2.69142
2.69184
2.69224
2.69263
2.693
2.69336
2.69369
2.694
2.69428
2.69455
2.6948
2.69507
2.69061
2.69105
2.6915
2.69194
2.69237
2.69278
2.69318
2.69355
2.6939
2.69423
2.69454
2.69483
2.6951
2.6954
2.69072
2.69117
2.69164
2.69209
2.69253
2.69295
2.69335
2.69374
2.6941
2.69444
2.69476
2.69506
2.69533
2.69562
2.69079
2.69126
2.69175
2.69221
2.69266
2.6931
2.69352
2.69392
2.69429
2.69465
2.69498
2.69528
2.69557
2.69587
2.69087
2.69135
2.69185
2.69233
2.6928
2.69324
2.69367
2.69408
2.69446
2.69481
2.69515
2.69546
2.69575
2.69604
2.69092
2.69142
2.69193
2.69242
2.6929
2.69336
2.6938
2.69421
2.6946
2.69497
2.6953
2.69562
2.69591
2.69619
2.69096
2.69148
2.692
2.6925
2.69299
2.69345
2.6939
2.69431
2.6947
2.69506
2.6954
2.69571
2.696
2.69626
2.69098
2.69151
2.69203
2.69254
2.69304
2.69351
2.69396
2.69438
2.69477
2.69513
2.69546
2.69577
2.69604
2.6963
2.69098
2.69152
2.69204
2.69256
2.69305
2.69353
2.69398
2.69439
2.69478
2.69513
2.69545
2.69575
2.69602
2.69627
2.69097
2.6915
2.69202
2.69254
2.69304
2.69351
2.69396
2.69437
2.69475
2.6951
2.69542
2.69571
2.69597
2.69621
2.69093
2.69146
2.69198
2.6925
2.69299
2.69346
2.6939
2.6943
2.69467
2.69501
2.69532
2.6956
2.69585
2.69609
2.69087
2.69139
2.6919
2.69241
2.6929
2.69336
2.69379
2.69419
2.69455
2.69488
2.69518
2.69545
2.69569
2.69592
2.69081
2.69133
2.69182
2.69232
2.69279
2.69324
2.69366
2.69404
2.6944
2.69472
2.695
2.69526
2.69548
2.69571
2.69083
2.69132
2.69179
2.69226
2.69269
2.69311
2.69351
2.69387
2.69421
2.69452
2.69479
2.69502
2.69524
2.69544
2.68379
2.68419
2.6846