/*--------------------------------*- C++ -*----------------------------------*\
| =========                 |                                                 |
| \\      /  F ield         | OpenFOAM: The Open Source CFD Toolbox           |
|  \\    /   O peration     | Version:  v2106                                 |
|   \\  /    A nd           | Website:  www.openfoam.com                      |
|    \\/     M anipulation  |                                                 |
\*---------------------------------------------------------------------------*/
FoamFile
{
    version     2.0;
    format      ascii;
    arch        "LSB;label=32;scalar=64";
    class       volScalarField;
    location    "0.000151";
    object      T;
}
// * * * * * * * * * * * * * * * * * * * * * * * * * * * * * * * * * * * * * //

dimensions      [0 0 0 1 0 0 0];

internalField   nonuniform List<scalar> 
18109
(
300.561
301.252
301.439
301.68
301.862
302.013
302.116
300.709
301.147
301.34
301.527
301.697
301.84
301.954
300.835
301.091
301.251
301.404
301.554
301.697
301.819
300.988
301.076
301.18
301.312
301.45
301.588
301.711
301.087
301.101
301.179
301.27
301.389
301.516
301.638
301.192
301.154
301.184
301.251
301.356
301.473
301.589
301.28
301.222
301.246
301.282
301.358
301.457
301.567
301.379
301.304
301.303
301.315
301.37
301.452
301.558
301.654
302.147
302.355
302.579
302.746
302.885
302.982
303.048
303.098
303.102
303.07
303.015
302.922
302.872
301.739
302.051
302.256
302.448
302.615
302.753
302.858
302.929
302.976
303.004
303.022
303.021
303.037
303.062
301.862
302.044
302.206
302.365
302.514
302.647
302.755
302.838
302.897
302.941
302.981
303.018
303.065
303.128
301.988
302.071
302.188
302.319
302.448
302.569
302.673
302.76
302.83
302.894
302.959
303.026
303.103
303.209
302.105
302.142
302.215
302.305
302.413
302.52
302.619
302.71
302.789
302.866
302.941
303.023
303.116
303.229
302.22
302.206
302.247
302.314
302.401
302.494
302.585
302.678
302.764
302.852
302.936
303.031
303.133
303.255
302.317
302.284
302.314
302.343
302.406
302.484
302.571
302.664
302.754
302.845
302.932
303.033
303.138
303.268
302.417
302.366
302.372
302.376
302.421
302.487
302.569
302.661
302.753
302.846
302.933
303.031
303.128
303.258
302.494
302.436
302.419
302.413
302.444
302.496
302.574
302.665
302.754
302.846
302.932
303.022
303.111
303.227
302.513
302.47
302.441
302.435
302.456
302.505
302.585
302.677
302.769
302.859
302.945
303.022
303.097
303.188
302.508
302.496
302.457
302.444
302.456
302.512
302.596
302.691
302.785
302.874
302.955
303.023
303.087
303.153
302.449
302.474
302.436
302.427
302.446
302.518
302.616
302.725
302.825
302.914
302.994
303.059
303.115
303.124
302.367
302.392
302.357
302.378
302.432
302.528
302.64
302.762
302.874
302.97
303.053
303.114
303.158
303.09
301.803
302.037
302.15
302.298
302.418
302.561
302.694
302.829
302.946
303.042
303.117
303.166
303.199
303.089
300.196
299.24
297.927
296.108
294.185
292.564
301.445
300.877
300.036
298.748
297.12
295.332
302.211
301.798
301.137
300.067
298.69
297.336
302.428
302.2
301.812
301.128
300.209
299.408
302.687
302.605
302.454
302.099
301.67
301.371
302.893
302.937
302.966
302.909
302.891
303.002
303.045
303.185
303.346
303.511
303.816
304.287
303.141
303.327
303.592
303.927
304.456
305.102
303.219
303.417
303.709
304.128
304.73
305.4
303.225
303.414
303.696
304.119
304.688
305.27
303.183
303.326
303.575
303.93
304.33
304.597
303.13
303.237
303.408
303.6
303.721
303.649
303.063
303.086
303.12
303.105
302.899
302.308
302.937
302.898
302.846
302.643
302.187
301.163
302.951
302.857
302.714
302.322
301.685
300.517
302.74
302.564
302.458
302.178
301.651
300.691
303.146
303.024
302.958
302.725
302.233
301.439
303.227
303.189
303.221
303.107
302.81
302.326
303.337
303.402
303.505
303.525
303.441
303.287
303.391
303.534
303.721
303.895
304.046
304.239
303.429
303.625
303.881
304.191
304.557
305.009
303.438
303.667
303.961
304.364
304.885
305.49
303.412
303.635
303.934
304.37
304.949
305.618
303.355
303.55
303.829
304.262
304.817
305.412
303.299
303.459
303.689
304.02
304.376
304.621
303.245
303.368
303.523
303.669
303.73
303.561
303.206
303.223
303.224
303.112
302.795
302.09
303.133
303.075
302.953
302.61
301.992
300.858
303.158
303.014
302.765
302.252
301.492
300.354
303.043
302.866
302.627
302.184
301.48
300.493
303.306
303.179
302.994
302.596
301.938
301.13
303.27
303.237
303.169
302.953
302.552
302.073
303.272
303.324
303.373
303.332
303.242
303.174
303.195
303.33
303.493
303.658
303.873
304.154
303.078
303.264
303.509
303.823
304.237
304.664
302.931
303.103
303.376
303.741
304.205
304.598
302.765
302.897
303.12
303.422
303.705
303.786
302.595
302.656
302.729
302.755
302.568
301.887
302.419
302.327
302.141
301.66
300.702
298.973
302.232
301.919
301.362
300.205
298.335
295.717
301.948
301.329
300.38
298.659
296.28
293.465
301.677
300.802
299.585
297.638
295.274
292.817
301.425
300.419
299.152
297.285
295.101
293.06
300.919
300.49
299.466
297.436
294.262
290.476
300.577
299.732
298.196
295.619
292.275
288.859
300.271
299.183
297.432
294.829
291.807
288.878
300.102
298.939
297.221
294.831
292.21
289.977
301.418
300.539
299.418
297.88
296.201
294.674
302.207
301.48
300.522
299.19
297.832
296.758
302.37
301.915
301.293
300.397
299.628
299.188
302.526
302.318
302.015
301.58
301.363
301.383
302.58
302.579
302.593
302.58
302.754
303.133
302.597
302.719
302.914
303.197
303.646
304.076
302.522
302.679
302.944
303.34
303.856
304.204
302.383
302.506
302.774
303.139
303.492
303.576
302.252
302.322
302.492
302.597
302.539
301.854
302.096
302.054
302.035
301.717
300.913
299.155
301.959
301.787
301.458
300.515
298.755
296.019
301.768
301.366
300.652
299.162
296.824
293.803
301.587
301.031
300.066
298.334
295.958
293.248
301.507
300.861
299.843
298.153
295.953
293.674
293.105
291.361
291.593
292.661
291.977
296.046
295.197
295.783
296.673
295.132
298.988
298.818
299.564
300.02
297.623
301.473
301.979
302.645
302
297.946
303.613
304.429
304.843
303.02
296.468
305.143
305.894
305.873
303.022
294.375
305.959
306.574
306.213
302.179
293.097
306.158
306.531
305.167
299.489
289.513
279.097
305.633
305.232
302.244
294.844
284.614
275.185
304.157
302.218
297.375
289.481
280.88
273.327
302.081
298.183
292.085
285.337
279.402
274.586
271.721
299.793
294.579
288.795
284.154
281.244
279.148
278.121
276.992
298.373
293.167
288.44
285.586
285.183
285.272
286.071
290.864
297.991
293.386
289.803
288.27
288.369
287.519
287.436
285.489
298.422
295.012
292.767
291.919
291.535
288.035
283.035
276.58
299.748
297.667
296.627
296.501
296.218
292.503
284.197
275.727
301.445
300.508
300.356
300.577
299.751
295.39
289.956
279.211
303.146
303.087
303.347
303.265
301.145
295.16
288.535
281.919
304.653
305.192
305.625
304.958
301.299
292.182
282.024
272.886
305.73
306.475
306.75
305.494
300.149
289.697
278.111
270.391
306.305
307.03
307.179
305.407
299.285
289.559
279.215
269.302
306.416
306.965
306.477
303.479
296.396
286.323
276.984
271.981
305.837
305.744
304.07
299.47
291.767
282.123
304.315
302.876
299.633
294.036
287.197
279.711
302.187
298.962
294.561
289.429
284.649
279.794
299.794
295.281
290.762
287.166
284.704
282.708
298.377
293.843
289.817
287.217
286.638
286.17
297.962
294.03
291.158
289.826
289.619
298.369
295.612
294.116
293.597
292.625
299.728
298.175
297.854
298.139
296.701
301.498
301.043
301.338
301.52
299.131
303.255
303.46
303.73
302.826
299.231
304.612
304.962
304.859
302.935
296.589
305.109
305.296
304.393
300.532
291.979
304.783
304.158
301.729
296.078
287.941
303.048
300.722
296.436
290.142
283.289
299.589
295.419
290.514
285.289
280.298
295.384
290.553
286.764
283.392
279.939
291.545
287.237
285.443
284.212
283.017
289.753
286.402
286.149
287.08
286.753
289.723
286.827
286.955
289.194
290.114
290.851
288.995
289.626
291.479
291.796
293.263
292.392
293.271
294.645
292.741
296.218
296.119
297.031
297.822
294.514
299.109
299.581
300.24
299.73
295.915
301.768
302.207
302.242
300.146
293.722
303.642
303.833
302.983
298.659
289.194
304.389
304.114
301.879
295.151
284.068
304.25
302.841
298.67
290.63
280.958
302.528
299.164
293.243
285.287
277.24
299.055
293.778
287.625
281.29
275.105
294.874
288.792
283.996
279.842
275.286
291.139
285.752
283.095
281.069
279.011
289.385
285.233
284.384
284.798
284.341
289.328
285.524
285.116
287.431
288.997
290.557
287.775
287.726
289.643
291.214
303.149
303.502
303.692
303.907
304.061
304.191
304.286
304.347
304.383
304.387
304.355
304.298
304.193
304.133
303.207
303.454
303.647
303.831
303.986
304.111
304.205
304.266
304.299
304.31
304.307
304.287
304.26
304.252
303.356
303.501
303.65
303.802
303.933
304.047
304.136
304.202
304.245
304.266
304.28
304.288
304.288
304.324
303.481
303.573
303.672
303.794
303.903
304.001
304.081
304.146
304.194
304.23
304.264
304.296
304.329
304.391
303.612
303.646
303.718
303.8
303.89
303.972
304.046
304.111
304.164
304.212
304.256
304.305
304.356
304.431
303.731
303.729
303.776
303.827
303.894
303.959
304.023
304.087
304.144
304.202
304.255
304.317
304.381
304.469
303.822
303.803
303.833
303.853
303.903
303.958
304.017
304.08
304.138
304.201
304.257
304.327
304.397
304.49
303.902
303.873
303.882
303.884
303.921
303.966
304.022
304.081
304.139
304.201
304.259
304.33
304.398
304.498
303.957
303.925
303.918
303.915
303.942
303.978
304.031
304.089
304.144
304.203
304.26
304.325
304.388
304.483
303.968
303.947
303.931
303.933
303.956
303.993
304.045
304.103
304.158
304.213
304.267
304.323
304.376
304.457
303.94
303.941
303.922
303.929
303.954
304.001
304.057
304.118
304.175
304.227
304.277
304.323
304.367
304.415
303.874
303.899
303.892
303.908
303.947
304.01
304.079
304.149
304.21
304.261
304.307
304.345
304.375
304.393
303.777
303.824
303.822
303.869
303.933
304.018
304.103
304.187
304.257
304.312
304.356
304.38
304.399
304.351
303.406
303.587
303.698
303.813
303.924
304.039
304.146
304.242
304.322
304.38
304.417
304.432
304.443
304.356
304.902
305.115
305.265
305.416
305.543
305.65
305.74
305.808
305.845
305.866
305.854
305.822
305.766
305.703
304.959
305.114
305.238
305.375
305.496
305.597
305.681
305.746
305.78
305.799
305.799
305.786
305.765
305.735
305.088
305.177
305.277
305.384
305.477
305.561
305.636
305.698
305.735
305.762
305.763
305.766
305.757
305.762
305.203
305.251
305.315
305.39
305.464
305.531
305.592
305.648
305.686
305.721
305.736
305.756
305.762
305.793
305.316
305.321
305.36
305.402
305.455
305.507
305.559
305.611
305.651
305.693
305.719
305.751
305.772
305.817
305.413
305.388
305.405
305.421
305.455
305.49
305.532
305.578
305.62
305.668
305.705
305.75
305.786
305.842
305.488
305.447
305.44
305.436
305.458
305.484
305.521
305.563
305.605
305.656
305.698
305.751
305.796
305.86
305.537
305.488
305.466
305.453
305.466
305.485
305.519
305.557
305.598
305.649
305.694
305.752
305.801
305.873
305.547
305.498
305.472
305.462
305.474
305.492
305.524
305.562
305.601
305.649
305.693
305.75
305.798
305.873
305.54
305.495
305.474
305.47
305.484
305.506
305.541
305.579
305.618
305.662
305.703
305.755
305.798
305.868
305.491
305.462
305.455
305.46
305.484
305.519
305.559
305.601
305.64
305.681
305.717
305.758
305.795
305.845
305.414
305.401
305.42
305.442
305.486
305.538
305.591
305.641
305.682
305.72
305.752
305.779
305.803
305.839
305.326
305.333
305.367
305.419
305.487
305.558
305.626
305.686
305.732
305.766
305.788
305.797
305.81
305.806
305.129
305.209
305.304
305.395
305.494
305.59
305.676
305.746
305.797
305.83
305.848
305.842
305.833
305.815
306.236
306.348
306.428
306.515
306.589
306.653
306.713
306.77
306.805
306.84
306.839
306.848
306.824
306.824
306.309
306.381
306.435
306.507
306.575
306.635
306.69
306.739
306.769
306.798
306.802
306.811
306.802
306.797
306.413
306.448
306.489
306.54
306.589
306.634
306.678
306.719
306.747
306.775
306.778
306.787
306.775
306.778
306.504
306.512
306.536
306.562
306.595
306.627
306.661
306.693
306.715
306.741
306.749
306.762
306.758
306.768
306.585
306.566
306.574
306.58
306.6
306.619
306.645
306.669
306.689
306.715
306.727
306.743
306.747
306.761
306.642
306.609
306.601
306.591
306.596
306.603
306.621
306.639
306.658
306.685
306.702
306.724
306.738
306.759
306.681
306.636
306.613
306.592
306.587
306.586
306.598
306.614
306.634
306.662
306.683
306.71
306.73
306.757
306.691
306.639
306.607
306.581
306.571
306.567
306.578
306.593
306.614
306.643
306.667
306.697
306.721
306.755
306.667
306.617
306.587
306.564
306.556
306.554
306.566
306.582
306.602
306.63
306.654
306.685
306.71
306.749
306.636
306.584
306.562
306.546
306.545
306.55
306.565
306.583
306.603
306.63
306.653
306.683
306.706
306.746
306.575
306.528
306.524
306.52
306.531
306.546
306.568
306.59
306.611
306.635
306.654
306.68
306.7
306.737
306.499
306.465
306.481
306.493
306.521
306.551
306.582
306.61
306.633
306.654
306.669
306.688
306.705
306.74
306.426
306.406
306.435
306.468
306.512
306.557
306.601
306.637
306.662
306.68
306.689
306.697
306.707
306.728
306.3
306.329
306.388
306.449
306.518
306.578
306.635
306.677
306.705
306.72
306.724
306.723
306.72
306.745
307.077
307.117
307.144
307.178
307.207
307.236
307.269
307.3
307.325
307.354
307.367
307.389
307.384
307.402
307.154
307.174
307.185
307.206
307.229
307.251
307.275
307.297
307.313
307.333
307.34
307.353
307.353
307.354
307.241
307.238
307.249
307.258
307.268
307.277
307.292
307.303
307.311
307.324
307.326
307.332
307.326
307.321
307.304
307.295
307.3
307.298
307.3
307.3
307.304
307.305
307.306
307.309
307.305
307.305
307.296
307.291
307.36
307.342
307.34
307.332
307.329
307.322
307.319
307.313
307.307
307.303
307.292
307.285
307.274
307.266
307.391
307.37
307.362
307.351
307.343
307.332
307.324
307.313
307.302
307.292
307.276
307.265
307.252
307.245
307.404
307.384
307.371
307.359
307.349
307.335
307.325
307.31
307.296
307.282
307.264
307.251
307.237
307.23
307.391
307.372
307.359
307.347
307.338
307.325
307.315
307.301
307.286
307.272
307.253
307.241
307.225
307.22
307.359
307.34
307.33
307.321
307.314
307.304
307.297
307.287
307.274
307.262
307.243
307.232
307.216
307.213
307.317
307.297
307.292
307.287
307.286
307.282
307.28
307.273
307.265
307.254
307.238
307.228
307.213
307.213
307.258
307.24
307.243
307.244
307.25
307.254
307.259
307.259
307.255
307.248
307.234
307.226
307.215
307.218
307.189
307.176
307.189
307.2
307.217
307.23
307.244
307.25
307.25
307.247
307.236
307.232
307.224
307.231
307.122
307.117
307.139
307.158
307.184
307.208
307.23
307.244
307.25
307.251
307.244
307.243
307.238
307.247
307.056
307.062
307.094
307.127
307.165
307.197
307.227
307.246
307.257
307.264
307.261
307.263
307.255
307.276
307.549
307.533
307.519
307.515
307.513
307.52
307.536
307.552
307.574
307.6
307.623
307.65
307.67
307.688
307.601
307.575
307.558
307.545
307.538
307.536
307.542
307.551
307.563
307.58
307.595
307.612
307.624
307.629
307.656
307.622
307.603
307.584
307.57
307.559
307.555
307.555
307.559
307.566
307.573
307.58
307.586
307.582
307.687
307.654
307.633
307.613
307.595
307.579
307.568
307.559
307.553
307.551
307.548
307.546
307.543
307.534
307.713
307.684
307.662
307.641
307.62
307.6
307.582
307.565
307.551
307.539
307.528
307.517
307.506
307.494
307.725
307.7
307.678
307.657
307.634
307.612
307.589
307.565
307.544
307.524
307.505
307.486
307.469
307.454
307.726
307.704
307.683
307.663
307.642
307.618
307.592
307.564
307.537
307.511
307.484
307.461
307.44
307.422
307.715
307.693
307.675
307.657
307.637
307.614
307.588
307.558
307.527
307.496
307.465
307.44
307.414
307.395
307.688
307.668
307.653
307.637
307.62
307.599
307.575
307.546
307.514
307.482
307.449
307.423
307.395
307.377
307.653
307.633
307.621
307.608
307.595
307.577
307.556
307.529
307.499
307.468
307.435
307.409
307.381
307.364
307.61
307.589
307.581
307.57
307.561
307.547
307.53
307.508
307.482
307.455
307.424
307.401
307.373
307.358
307.56
307.54
307.536
307.527
307.523
307.513
307.501
307.484
307.464
307.442
307.414
307.394
307.37
307.358
307.514
307.495
307.492
307.486
307.485
307.48
307.474
307.462
307.448
307.432
307.41
307.396
307.377
307.369
307.464
307.447
307.449
307.447
307.45
307.449
307.449
307.443
307.435
307.426
307.412
307.404
307.388
307.389
307.804
307.75
307.704
307.672
307.648
307.636
307.631
307.636
307.652
307.671
307.695
307.719
307.747
307.76
307.791
307.74
307.693
307.656
307.628
307.611
307.602
307.603
307.615
307.631
307.65
307.669
307.69
307.697
307.776
307.727
307.679
307.643
307.612
307.593
307.58
307.577
307.583
307.593
307.607
307.62
307.638
307.641
307.757
307.712
307.666
307.631
307.599
307.577
307.562
307.554
307.554
307.558
307.565
307.573
307.584
307.583
307.742
307.7
307.658
307.625
307.594
307.57
307.552
307.538
307.532
307.529
307.529
307.53
307.536
307.533
307.722
307.685
307.648
307.617
307.588
307.563
307.541
307.523
307.51
307.501
307.494
307.49
307.489
307.485
307.702
307.667
307.635
307.608
307.58
307.555
307.531
307.509
307.491
307.477
307.465
307.456
307.449
307.445
307.679
307.647
307.619
307.594
307.569
307.544
307.52
307.496
307.474
307.455
307.438
307.425
307.414
307.409
307.65
307.621
307.598
307.575
307.553
307.529
307.506
307.481
307.457
307.436
307.416
307.401
307.386
307.381
307.619
307.591
307.572
307.551
307.531
307.509
307.488
307.464
307.44
307.418
307.396
307.38
307.363
307.357
307.586
307.56
307.542
307.523
307.506
307.486
307.467
307.446
307.424
307.404
307.382
307.367
307.349
307.343
307.548
307.523
307.508
307.49
307.476
307.459
307.443
307.425
307.407
307.389
307.369
307.355
307.337
307.331
307.516
307.491
307.477
307.46
307.448
307.433
307.42
307.406
307.392
307.379
307.362
307.35
307.335
307.331
307.476
307.451
307.439
307.425
307.416
307.405
307.397
307.387
307.378
307.369
307.355
307.345
307.33
307.33
307.881
307.83
307.78
307.74
307.706
307.68
307.663
307.654
307.653
307.66
307.675
307.689
307.712
307.716
307.832
307.779
307.725
307.682
307.644
307.616
307.597
307.588
307.588
307.596
307.611
307.626
307.646
307.653
307.776
307.722
307.665
307.622
307.583
307.556
307.538
307.529
307.53
307.538
307.552
307.567
307.588
307.594
307.723
307.669
307.612
307.569
307.53
307.503
307.485
307.475
307.475
307.482
307.495
307.51
307.53
307.537
307.677
307.622
307.567
307.524
307.486
307.459
307.44
307.43
307.428
307.434
307.445
307.458
307.476
307.485
307.63
307.576
307.524
307.483
307.447
307.42
307.401
307.389
307.386
307.389
307.398
307.409
307.424
307.434
307.589
307.536
307.489
307.449
307.415
307.389
307.369
307.355
307.349
307.351
307.356
307.366
307.377
307.388
307.552
307.5
307.457
307.419
307.387
307.361
307.341
307.326
307.318
307.317
307.319
307.325
307.333
307.344
307.517
307.468
307.429
307.393
307.363
307.337
307.317
307.3
307.29
307.287
307.287
307.291
307.295
307.305
307.485
307.439
307.404
307.369
307.341
307.315
307.295
307.278
307.266
307.26
307.258
307.26
307.26
307.27
307.456
307.414
307.382
307.348
307.322
307.296
307.276
307.259
307.246
307.238
307.234
307.235
307.233
307.241
307.425
307.386
307.357
307.325
307.301
307.276
307.257
307.24
307.227
307.217
307.211
307.212
307.208
307.213
307.398
307.362
307.336
307.306
307.282
307.258
307.239
307.222
307.209
307.2
307.193
307.192
307.188
307.193
307.36
307.327
307.305
307.279
307.259
307.237
307.22
307.204
307.191
307.181
307.172
307.17
307.163
307.168
307.867
307.828
307.783
307.746
307.711
307.682
307.659
307.643
307.634
307.63
307.632
307.638
307.649
307.645
307.801
307.76
307.712
307.671
307.633
307.602
307.578
307.563
307.554
307.552
307.557
307.564
307.577
307.576
307.729
307.686
307.634
307.592
307.552
307.521
307.498
307.484
307.478
307.478
307.485
307.493
307.509
307.511
307.656
307.61
307.557
307.514
307.474
307.443
307.421
307.409
307.403
307.406
307.415
307.426
307.443
307.449
307.589
307.539
307.485
307.441
307.402
307.373
307.352
307.341
307.337
307.341
307.351
307.364
307.382
307.391
307.522
307.47
307.418
307.374
307.336
307.309
307.289
307.278
307.275
307.28
307.291
307.305
307.322
307.335
307.462
307.409
307.359
307.316
307.28
307.253
307.235
307.223
307.22
307.225
307.235
307.249
307.266
307.282
307.407
307.355
307.307
307.265
307.231
307.205
307.186
307.175
307.17
307.175
307.183
307.197
307.213
307.231
307.358
307.307
307.263
307.222
307.19
307.163
307.144
307.132
307.127
307.129
307.136
307.149
307.163
307.182
307.315
307.265
307.225
307.185
307.154
307.128
307.108
307.095
307.088
307.089
307.093
307.105
307.117
307.135
307.277
307.229
307.192
307.155
307.125
307.098
307.078
307.064
307.055
307.053
307.056
307.066
307.075
307.092
307.241
307.196
307.162
307.126
307.098
307.072
307.052
307.037
307.026
307.022
307.023
307.03
307.036
307.051
307.21
307.169
307.137
307.103
307.076
307.05
307.029
307.012
307
306.994
306.992
306.997
307.002
307.015
307.171
307.134
307.106
307.077
307.052
307.027
307.007
306.99
306.976
306.967
306.963
306.966
306.967
306.977
307.747
307.722
307.691
307.665
307.64
307.619
307.6
307.585
307.573
307.564
307.561
307.56
307.564
307.558
307.673
307.649
307.616
307.59
307.564
307.543
307.525
307.51
307.498
307.492
307.49
307.49
307.496
307.489
307.6
307.574
307.539
307.512
307.486
307.465
307.447
307.434
307.424
307.419
307.419
307.421
307.428
307.425
307.525
307.497
307.462
307.434
307.408
307.388
307.371
307.358
307.35
307.347
307.348
307.352
307.361
307.362
307.454
307.423
307.388
307.359
307.333
307.313
307.297
307.286
307.279
307.277
307.28
307.286
307.295
307.301
307.385
307.351
307.316
307.287
307.262
307.242
307.226
307.216
307.21
307.21
307.214
307.222
307.232
307.241
307.319
307.283
307.25
307.22
307.195
307.175
307.161
307.151
307.146
307.146
307.151
307.16
307.171
307.183
307.257
307.221
307.188
307.159
307.134
307.114
307.1
307.09
307.086
307.087
307.092
307.101
307.113
307.127
307.202
307.164
307.133
307.103
307.079
307.059
307.044
307.035
307.031
307.032
307.036
307.046
307.058
307.073
307.151
307.114
307.084
307.054
307.03
307.01
306.995
306.984
306.98
306.98
306.984
306.995
307.007
307.023
307.106
307.069
307.04
307.011
306.987
306.967
306.952
306.94
306.935
306.934
306.938
306.948
306.959
306.976
307.062
307.027
307
306.972
306.949
306.929
306.913
306.902
306.896
306.896
306.899
306.907
306.917
306.933
307.025
306.992
306.965
306.938
306.916
306.896
306.88
306.869
306.863
306.862
306.864
306.87
306.879
306.895
306.984
306.953
306.93
306.905
306.885
306.866
306.851
306.839
306.832
306.83
306.83
306.835
306.844
306.858
307.554
307.546
307.53
307.518
307.504
307.492
307.481
307.47
307.46
307.453
307.447
307.445
307.448
307.448
307.486
307.481
307.466
307.454
307.441
307.43
307.419
307.409
307.401
307.394
307.39
307.388
307.391
307.389
307.423
307.416
307.401
307.389
307.377
307.366
307.356
307.347
307.339
307.333
307.33
307.329
307.333
307.332
307.359
307.35
307.335
307.323
307.31
307.3
307.29
307.282
307.276
307.271
307.27
307.27
307.275
307.276
307.297
307.285
307.27
307.257
307.245
307.234
307.226
307.219
307.213
307.21
307.21
307.212
307.217
307.222
307.236
307.222
307.206
307.192
307.18
307.17
307.162
307.155
307.151
307.149
307.151
307.155
307.162
307.169
307.177
307.161
307.145
307.131
307.118
307.108
307.1
307.094
307.091
307.091
307.095
307.101
307.109
307.119
307.12
307.103
307.087
307.072
307.06
307.049
307.041
307.037
307.035
307.037
307.042
307.05
307.059
307.07
307.067
307.048
307.032
307.018
307.005
306.995
306.987
306.983
306.983
306.987
306.993
307.002
307.011
307.023
307.017
306.997
306.982
306.967
306.954
306.944
306.937
306.934
306.935
306.939
306.945
306.954
306.964
306.977
306.97
306.95
306.935
306.92
306.907
306.897
306.891
306.888
306.889
306.894
306.9
306.91
306.919
306.933
306.926
306.905
306.891
306.876
306.864
306.855
306.849
306.846
306.847
306.851
306.858
306.867
306.877
306.892
306.885
306.865
306.851
306.837
306.825
306.817
306.812
306.81
306.811
306.815
306.821
306.83
306.841
306.856
306.844
306.827
306.813
306.8
306.79
306.783
306.778
306.775
306.776
306.78
306.787
306.795
306.806
306.821
307.329
307.331
307.33
307.33
307.33
307.329
307.328
307.326
307.324
307.322
307.321
307.322
307.325
307.329
307.279
307.283
307.283
307.285
307.285
307.286
307.285
307.284
307.284
307.283
307.283
307.284
307.287
307.288
307.232
307.237
307.237
307.239
307.24
307.241
307.241
307.241
307.241
307.24
307.24
307.241
307.246
307.246
307.184
307.188
307.189
307.191
307.192
307.194
307.194
307.195
307.195
307.196
307.197
307.199
307.204
307.205
307.136
307.139
307.14
307.142
307.144
307.145
307.147
307.148
307.149
307.151
307.153
307.156
307.161
307.164
307.088
307.09
307.092
307.094
307.095
307.097
307.099
307.101
307.103
307.105
307.108
307.112
307.119
307.124
307.042
307.043
307.044
307.045
307.047
307.049
307.051
307.054
307.057
307.06
307.065
307.07
307.076
307.083
306.997
306.997
306.997
306.998
307
307.002
307.004
307.008
307.011
307.016
307.021
307.027
307.034
307.043
306.954
306.952
306.952
306.952
306.953
306.955
306.958
306.962
306.967
306.973
306.979
306.986
306.993
307.003
306.912
306.908
306.907
306.907
306.909
306.911
306.914
306.919
306.924
306.931
306.938
306.946
306.953
306.964
306.871
306.865
306.865
306.864
306.866
306.868
306.872
306.878
306.884
306.891
306.899
306.908
306.915
306.928
306.832
306.825
306.825
306.825
306.826
306.829
306.833
306.839
306.846
306.853
306.862
306.871
306.879
306.893
306.795
306.788
306.788
306.788
306.79
306.793
306.799
306.805
306.812
306.82
306.829
306.838
306.848
306.862
306.759
306.753
306.754
306.754
306.757
306.76
306.766
306.771
306.778
306.786
306.796
306.805
306.817
306.83
307.091
307.105
307.115
307.127
307.137
307.146
307.155
307.162
307.169
307.174
307.179
307.184
307.188
307.195
307.063
307.077
307.089
307.102
307.113
307.123
307.132
307.14
307.148
307.154
307.16
307.165
307.171
307.176
307.035
307.05
307.062
307.075
307.087
307.098
307.108
307.117
307.125
307.132
307.138
307.144
307.15
307.155
307.006
307.022
307.034
307.048
307.061
307.072
307.083
307.091
307.099
307.106
307.113
307.118
307.125
307.13
306.977
306.992
307.005
307.019
307.032
307.043
307.054
307.063
307.071
307.078
307.085
307.091
307.098
307.103
306.946
306.961
306.975
306.989
307.001
307.013
307.024
307.033
307.042
307.049
307.056
307.062
307.069
307.075
306.916
306.93
306.943
306.957
306.969
306.981
306.992
307.002
307.011
307.019
307.026
307.032
307.039
307.046
306.884
306.898
306.911
306.924
306.937
306.949
306.96
306.97
306.979
306.987
306.995
307.002
307.009
307.016
306.854
306.865
306.879
306.891
306.904
306.915
306.927
306.937
306.947
306.956
306.964
306.971
306.979
306.988
306.823
306.833
306.846
306.859
306.871
306.883
306.895
306.905
306.916
306.925
306.934
306.942
306.949
306.96
306.794
306.802
306.815
306.827
306.839
306.852
306.863
306.875
306.885
306.895
306.904
306.913
306.921
306.932
306.766
306.772
306.785
306.797
306.809
306.821
306.833
306.844
306.855
306.866
306.875
306.885
306.893
306.906
306.737
306.744
306.756
306.767
306.78
306.792
306.804
306.816
306.827
306.838
306.849
306.859
306.868
306.88
306.711
306.719
306.73
306.741
306.753
306.765
306.776
306.787
306.799
306.81
306.822
306.832
306.842
306.853
306.844
306.864
306.881
306.899
306.916
306.931
306.946
306.959
306.972
306.983
306.993
307.002
307.01
307.019
306.835
306.856
306.874
306.892
306.91
306.926
306.941
306.955
306.968
306.98
306.991
307.001
307.01
307.019
306.826
306.847
306.866
306.885
306.902
306.919
306.935
306.95
306.963
306.976
306.987
306.997
307.006
307.015
306.815
306.836
306.856
306.875
306.894
306.911
306.928
306.943
306.957
306.97
306.981
306.991
307.001
307.01
306.803
306.825
306.845
306.865
306.884
306.902
306.919
306.934
306.948
306.961
306.973
306.983
306.992
307.001
306.79
306.812
306.833
306.853
306.872
306.891
306.908
306.924
306.938
306.951
306.963
306.973
306.982
306.991
306.776
306.798
306.819
306.84
306.86
306.878
306.895
306.911
306.925
306.938
306.949
306.959
306.969
306.978
306.761
306.782
306.804
306.824
306.844
306.863
306.88
306.896
306.911
306.924
306.935
306.945
306.955
306.964
306.745
306.766
306.788
306.808
306.828
306.847
306.864
306.88
306.894
306.907
306.918
306.929
306.938
306.947
306.729
306.749
306.771
306.791
306.81
306.829
306.846
306.862
306.877
306.889
306.901
306.911
306.92
306.93
306.713
306.732
306.753
306.773
306.792
306.81
306.827
306.843
306.858
306.871
306.882
306.893
306.902
306.912
306.696
306.714
306.735
306.754
306.773
306.791
306.808
306.824
306.838
306.852
306.863
306.874
306.882
306.893
306.678
306.696
306.716
306.735
306.754
306.772
306.789
306.805
306.82
306.833
306.845
306.855
306.864
306.875
306.665
306.682
306.7
306.719
306.736
306.754
306.77
306.786
306.8
306.813
306.825
306.835
306.844
306.853
306.573
306.595
306.615
306.634
306.653
306.67
306.687
306.703
306.719
306.733
306.746
306.758
306.769
306.782
306.578
306.598
306.619
306.639
306.658
306.677
306.695
306.712
306.728
306.744
306.758
306.771
306.783
306.797
306.583
306.604
306.625
306.646
306.666
306.685
306.703
306.721
306.738
306.753
306.768
306.781
306.794
306.807
306.586
306.608
306.63
306.651
306.672
306.692
306.711
306.729
306.746
306.762
306.778
306.792
306.805
306.818
306.59
306.612
306.635
306.656
306.678
306.698
306.718
306.736
306.754
306.77
306.786
306.8
306.813
306.826
306.592
306.615
306.638
306.661
306.683
306.704
306.724
306.743
306.76
306.777
306.793
306.807
306.82
306.833
306.594
306.618
306.641
306.664
306.687
306.708
306.728
306.747
306.765
306.782
306.797
306.811
306.824
306.836
306.595
306.619
306.643
306.666
306.689
306.711
306.731
306.75
306.768
306.785
306.8
306.814
306.826
306.838
306.595
306.619
306.643
306.667
306.69
306.711
306.732
306.751
306.769
306.785
306.799
306.813
306.825
306.837
306.594
306.619
306.643
306.666
306.689
306.711
306.731
306.75
306.767
306.783
306.798
306.811
306.823
306.834
306.593
306.617
306.641
306.664
306.687
306.708
306.728
306.747
306.764
306.779
306.793
306.806
306.818
306.828
306.59
306.614
306.637
306.66
306.683
306.704
306.724
306.742
306.758
306.773
306.787
306.799
306.81
306.821
306.587
306.611
306.633
306.656
306.678
306.698
306.717
306.735
306.751
306.766
306.779
306.79
306.801
306.811
306.588
306.611
306.632
306.653
306.673
306.692
306.71
306.727
306.743
306.756
306.769
306.78
306.79
306.799
306.266
306.284
306.303
306.321