/*--------------------------------*- C++ -*----------------------------------*\
| =========                 |                                                 |
| \\      /  F ield         | OpenFOAM: The Open Source CFD Toolbox           |
|  \\    /   O peration     | Version:  v2106                                 |
|   \\  /    A nd           | Website:  www.openfoam.com                      |
|    \\/     M anipulation  |                                                 |
\*---------------------------------------------------------------------------*/
FoamFile
{
    version     2.0;
    format      ascii;
    arch        "LSB;label=32;scalar=64";
    class       volScalarField;
    location    "0.000205";
    object      rho;
}
// * * * * * * * * * * * * * * * * * * * * * * * * * * * * * * * * * * * * * //

dimensions      [1 -3 0 0 0 0 0];

internalField   nonuniform List<scalar> 
17920
(
2.68385
2.68367
2.68381
2.68362
2.68378
2.68358
2.68375
2.68354
2.68372
2.6835
2.68368
2.68346
2.68366
2.68342
2.68363
2.68339
2.6836
2.68335
2.68357
2.68332
2.68354
2.68328
2.68351
2.68325
2.68349
2.68321
2.68351
2.68323
2.68506
2.68485
2.68464
2.68442
2.68421
2.68399
2.68376
2.68353
2.68331
2.68307
2.68286
2.68262
2.68242
2.68218
2.68494
2.68474
2.68453
2.68433
2.68411
2.68389
2.68366
2.68342
2.68319
2.68295
2.68272
2.68248
2.68227
2.68202
2.6848
2.68461
2.68441
2.6842
2.68399
2.68377
2.68354
2.6833
2.68307
2.68283
2.68259
2.68235
2.68212
2.68187
2.68467
2.68449
2.68428
2.68408
2.68386
2.68364
2.68341
2.68317
2.68293
2.68269
2.68245
2.6822
2.68196
2.68171
2.68453
2.68436
2.68415
2.68395
2.68373
2.6835
2.68327
2.68303
2.68279
2.68254
2.68229
2.68204
2.6818
2.68154
2.68439
2.68421
2.68401
2.6838
2.68358
2.68336
2.68312
2.68288
2.68264
2.68238
2.68213
2.68187
2.68162
2.68136
2.68426
2.68407
2.68386
2.68365
2.68343
2.6832
2.68296
2.68272
2.68247
2.68221
2.68195
2.68169
2.68143
2.68116
2.6841
2.68391
2.6837
2.68349
2.68326
2.68303
2.68279
2.68255
2.68229
2.68203
2.68177
2.6815
2.68123
2.68096
2.68396
2.68375
2.68354
2.68332
2.68309
2.68286
2.68261
2.68236
2.6821
2.68184
2.68156
2.6813
2.68102
2.68075
2.68379
2.68358
2.68336
2.68314
2.68291
2.68267
2.68242
2.68217
2.6819
2.68164
2.68136
2.68109
2.6808
2.68054
2.68364
2.68341
2.68319
2.68296
2.68272
2.68248
2.68223
2.68196
2.68169
2.68142
2.68114
2.68086
2.68057
2.68031
2.68346
2.68322
2.683
2.68276
2.68252
2.68227
2.68202
2.68176
2.68148
2.68121
2.68092
2.68064
2.68034
2.68009
2.6833
2.68304
2.68282
2.68258
2.68233
2.68207
2.68181
2.68153
2.68125
2.68097
2.68068
2.68039
2.68009
2.67983
2.6831
2.68284
2.68261
2.68237
2.68211
2.68185
2.68158
2.68131
2.68103
2.68076
2.68047
2.68019
2.67989
2.67962
2.68262
2.68244
2.68226
2.68207
2.68187
2.68167
2.68145
2.68123
2.681
2.68076
2.68052
2.68026
2.68003
2.67976
2.68235
2.6822
2.68203
2.68185
2.68165
2.68145
2.68123
2.681
2.68077
2.68052
2.68028
2.68002
2.67979
2.67952
2.68209
2.68196
2.68178
2.6816
2.68141
2.6812
2.68099
2.68076
2.68053
2.68029
2.68005
2.67979
2.67955
2.67929
2.68182
2.6817
2.68152
2.68135
2.68115
2.68095
2.68073
2.6805
2.68027
2.68003
2.67978
2.67953
2.67929
2.67903
2.68156
2.68143
2.68126
2.68108
2.68088
2.68068
2.68046
2.68024
2.68
2.67976
2.67952
2.67926
2.67902
2.67876
2.68128
2.68114
2.68097
2.6808
2.6806
2.6804
2.68018
2.67995
2.67972
2.67947
2.67923
2.67897
2.67873
2.67847
2.681
2.68086
2.68068
2.6805
2.68031
2.6801
2.67988
2.67966
2.67942
2.67918
2.67893
2.67868
2.67843
2.67817
2.68071
2.68055
2.68037
2.68019
2.68
2.67979
2.67957
2.67934
2.67911
2.67886
2.67861
2.67836
2.67811
2.67786
2.68042
2.68024
2.68007
2.67988
2.67968
2.67947
2.67925
2.67902
2.67878
2.67853
2.67828
2.67803
2.67777
2.67753
2.6801
2.67992
2.67974
2.67954
2.67934
2.67913
2.67891
2.67868
2.67844
2.6782
2.67794
2.67769
2.67743
2.6772
2.67981
2.6796
2.67941
2.67921
2.67901
2.67879
2.67857
2.67833
2.67809
2.67784
2.67758
2.67733
2.67707
2.67686
2.67948
2.67925
2.67907
2.67886
2.67865
2.67844
2.67821
2.67798
2.67773
2.67749
2.67723
2.67698
2.67672
2.67651
2.67917
2.67893
2.67874
2.67853
2.67831
2.67809
2.67785
2.67761
2.67736
2.67711
2.67685
2.6766
2.67634
2.67614
2.67882
2.67857
2.67837
2.67816
2.67794
2.67771
2.67748
2.67724
2.677
2.67675
2.6765
2.67625
2.676
2.6758
2.67832
2.67821
2.67809
2.67796
2.67782
2.67767
2.6775
2.67732
2.67714
2.67694
2.67673
2.67652
2.67631
2.67607
2.67798
2.6779
2.67778
2.67766
2.67752
2.67737
2.6772
2.67702
2.67683
2.67663
2.67643
2.67621
2.67601
2.67578
2.67766
2.67759
2.67746
2.67734
2.6772
2.67705
2.67689
2.67671
2.67653
2.67633
2.67613
2.67592
2.67573
2.6755
2.67732
2.67726
2.67713
2.67701
2.67687
2.67672
2.67656
2.67638
2.6762
2.67601
2.67581
2.6756
2.67541
2.67519
2.67699
2.67692
2.67679
2.67667
2.67653
2.67638
2.67622
2.67604
2.67586
2.67567
2.67548
2.67528
2.67509
2.67488
2.67664
2.67656
2.67644
2.67632
2.67618
2.67603
2.67586
2.67569
2.67551
2.67533
2.67514
2.67494
2.67475
2.67454
2.67629
2.6762
2.67608
2.67595
2.67581
2.67566
2.6755
2.67533
2.67515
2.67497
2.67478
2.67458
2.6744
2.6742
2.67593
2.67583
2.67571
2.67558
2.67544
2.67529
2.67512
2.67495
2.67478
2.67459
2.67441
2.67422
2.67403
2.67384
2.67557
2.67545
2.67533
2.6752
2.67505
2.6749
2.67474
2.67457
2.67439
2.67421
2.67403
2.67384
2.67365
2.67348
2.6752
2.67506
2.67494
2.6748
2.67466
2.67451
2.67435
2.67418
2.674
2.67382
2.67364
2.67346
2.67327
2.67311
2.67483
2.67468
2.67455
2.67441
2.67427
2.67411
2.67395
2.67378
2.6736
2.67343
2.67324
2.67307
2.67288
2.67274
2.67445
2.67428
2.67415
2.67401
2.67386
2.67371
2.67354
2.67337
2.6732
2.67303
2.67284
2.67267
2.67249
2.67237
2.67408
2.67391
2.67377
2.67362
2.67347
2.67331
2.67314
2.67297
2.67279
2.67262
2.67244
2.67227
2.67209
2.67198
2.67367
2.6735
2.67335
2.67321
2.67305
2.67289
2.67273
2.67256
2.67239
2.67222
2.67205
2.67188
2.67171
2.6716
2.67215
2.67213
2.67209
2.67204
2.67198
2.67191
2.67183
2.67174
2.67164
2.67153
2.67141
2.67129
2.67116
2.67102
2.67183
2.67183
2.6718
2.67175
2.67169
2.67162
2.67154
2.67145
2.67135
2.67124
2.67112
2.67099
2.67087
2.67072
2.67154
2.67154
2.6715
2.67144
2.67138
2.67131
2.67123
2.67115
2.67105
2.67094
2.67083
2.67071
2.6706
2.67045
2.67123
2.67123
2.67118
2.67113
2.67107
2.671
2.67092
2.67084
2.67074
2.67064
2.67053
2.67041
2.6703
2.67017
2.67092
2.67091
2.67086
2.67081
2.67075
2.67068
2.6706
2.67052
2.67043
2.67033
2.67022
2.67011
2.67001
2.66988
2.67061
2.67058
2.67054
2.67048
2.67042
2.67035
2.67027
2.67019
2.6701
2.67
2.6699
2.6698
2.66969
2.66958
2.67029
2.67025
2.6702
2.67015
2.67008
2.67001
2.66994
2.66986
2.66977
2.66968
2.66958
2.66948
2.66938
2.66927
2.66995
2.66991
2.66986
2.66981
2.66974
2.66967
2.6696
2.66952
2.66943
2.66934
2.66925
2.66915
2.66905
2.66896
2.66962
2.66957
2.66952
2.66946
2.6694
2.66933
2.66925
2.66917
2.66909
2.669
2.66891
2.66882
2.66873
2.66865
2.66929
2.66922
2.66917
2.66911
2.66905
2.66898
2.66891
2.66883
2.66874
2.66866
2.66857
2.66848
2.66839
2.66833
2.66896
2.66888
2.66883
2.66877
2.6687
2.66863
2.66856
2.66848
2.66839
2.66831
2.66822
2.66815
2.66806
2.66802
2.66862
2.66853
2.66847
2.66842
2.66835
2.66828
2.66821
2.66813
2.66805
2.66796
2.66788
2.66781
2.66772
2.6677
2.6683
2.6682
2.66814
2.66808
2.66801
2.66793
2.66786
2.66778
2.6677
2.66762
2.66754
2.66746
2.66739
2.66739
2.66794
2.66785
2.66778
2.66772
2.66766
2.66759
2.66751
2.66743
2.66736
2.66728
2.6672
2.66713
2.66706
2.66705
2.66469
2.66473
2.66476
2.66479
2.66482
2.66484
2.66486
2.66486
2.66486
2.66486
2.66484
2.66482
2.66479
2.66476
2.66449
2.66453
2.66456
2.6646
2.66462
2.66465
2.66466
2.66467
2.66467
2.66466
2.66465
2.66462
2.66459
2.66455
2.6643
2.66434
2.66436
2.6644
2.66442
2.66444
2.66445
2.66446
2.66446
2.66445
2.66444
2.66442
2.6644
2.66436
2.66409
2.66414
2.66416
2.66419
2.66421
2.66423
2.66424
2.66425
2.66425
2.66425
2.66424
2.66422
2.6642
2.66416
2.66388
2.66392
2.66395
2.66398
2.664
2.66402
2.66403
2.66404
2.66404
2.66404
2.66403
2.66401
2.664
2.66397
2.66367
2.66371
2.66373
2.66376
2.66378
2.6638
2.66381
2.66382
2.66382
2.66382
2.66381
2.6638
2.66379
2.66377
2.66345
2.66348
2.66351
2.66353
2.66355
2.66357
2.66358
2.66359
2.6636
2.6636
2.6636
2.66359
2.66358
2.66357
2.66323
2.66326
2.66329
2.66331
2.66333
2.66335
2.66336
2.66337
2.66338
2.66338
2.66338
2.66338
2.66337
2.66336
2.66301
2.66303
2.66306
2.66308
2.6631
2.66312
2.66313
2.66314
2.66315
2.66315
2.66316
2.66316
2.66315
2.66316
2.66278
2.6628
2.66283
2.66285
2.66287
2.66289
2.6629
2.66291
2.66292
2.66293
2.66294
2.66294
2.66293
2.66295
2.66256
2.66257
2.6626
2.66262
2.66264
2.66266
2.66267
2.66269
2.6627
2.66271
2.66271
2.66272
2.66271
2.66274
2.66234
2.66234
2.66237
2.66239
2.66241
2.66243
2.66244
2.66246
2.66247
2.66248
2.66249
2.6625
2.66249
2.66253
2.66213
2.66211
2.66214
2.66217
2.66218
2.6622
2.66222
2.66223
2.66224
2.66226
2.66227
2.66228
2.66228
2.66232
2.6619
2.66189
2.66192
2.66194
2.66196
2.66198
2.66199
2.662
2.66202
2.66203
2.66204
2.66205
2.66206
2.66209
2.65672
2.65681
2.65689
2.65698
2.65706
2.65714
2.65722
2.6573
2.65737
2.65744
2.6575
2.65756
2.65761
2.65765
2.65665
2.65675
2.65683
2.65692
2.657
2.65708
2.65716
2.65724
2.65731
2.65738
2.65744
2.65749
2.65754
2.65758
2.65659
2.65668
2.65676
2.65685
2.65693
2.65701
2.65709
2.65717
2.65724
2.65731
2.65737
2.65742
2.65748
2.65752
2.65652
2.65661
2.65669
2.65678
2.65686
2.65695
2.65702
2.6571
2.65717
2.65723
2.65729
2.65735
2.6574
2.65744
2.65645
2.65654
2.65662
2.6567
2.65679
2.65687
2.65695
2.65702
2.65709
2.65716
2.65722
2.65728
2.65733
2.65737
2.65637
2.65646
2.65654
2.65663
2.65671
2.65679
2.65687
2.65694
2.65701
2.65708
2.65714
2.6572
2.65725
2.6573
2.65629
2.65638
2.65646
2.65655
2.65663
2.65671
2.65679
2.65686
2.65693
2.657
2.65706
2.65712
2.65717
2.65722
2.65621
2.65629
2.65638
2.65646
2.65655
2.65663
2.6567
2.65678
2.65685
2.65692
2.65698
2.65704
2.6571
2.65715
2.65612
2.6562
2.65629
2.65638
2.65646
2.65654
2.65662
2.65669
2.65677
2.65683
2.6569
2.65696
2.65702
2.65707
2.65603
2.65611
2.6562
2.65629
2.65637
2.65645
2.65653
2.65661
2.65668
2.65675
2.65681
2.65688
2.65693
2.65699
2.65594
2.65602
2.65611
2.6562
2.65628
2.65636
2.65644
2.65652
2.65659
2.65666
2.65673
2.65679
2.65685
2.65691
2.65585
2.65593
2.65602
2.6561
2.65619
2.65627
2.65635
2.65642
2.6565
2.65657
2.65664
2.6567
2.65676
2.65683
2.65575
2.65584
2.65592
2.65601
2.65609
2.65617
2.65625
2.65633
2.65641
2.65648
2.65655
2.65661
2.65668
2.65675
2.65567
2.65575
2.65584
2.65592
2.656
2.65608
2.65616
2.65623
2.65631
2.65638
2.65645
2.65652
2.65658
2.65666
2.64887
2.64896
2.64906
2.64916
2.64927
2.64937
2.64947
2.64957
2.64967
2.64977
2.64986
2.64995
2.65004
2.65013
2.6489
2.649
2.6491
2.64921
2.64931
2.64942
2.64952
2.64962
2.64972
2.64982
2.64991
2.65
2.65008
2.65017
2.64895
2.64905
2.64915
2.64926
2.64936
2.64947
2.64957
2.64967
2.64977
2.64986
2.64995
2.65004
2.65012
2.6502
2.64899
2.64909
2.6492
2.6493
2.64941
2.64951
2.64962
2.64972
2.64981
2.64991
2.64999
2.65008
2.65016
2.65024
2.64903
2.64913
2.64924
2.64935
2.64945
2.64956
2.64966
2.64976
2.64985
2.64995
2.65003
2.65012
2.6502
2.65028
2.64906
2.64917
2.64928
2.64938
2.64949
2.6496
2.6497
2.6498
2.64989
2.64999
2.65007
2.65016
2.65024
2.65031
2.6491
2.6492
2.64931
2.64942
2.64953
2.64963
2.64974
2.64984
2.64993
2.65002
2.65011
2.65019
2.65027
2.65034
2.64913
2.64924
2.64934
2.64945
2.64956
2.64967
2.64977
2.64987
2.64997
2.65006
2.65014
2.65023
2.65031
2.65037
2.64915
2.64926
2.64937
2.64948
2.64959
2.6497
2.6498
2.6499
2.65
2.65009
2.65017
2.65026
2.65034
2.65041
2.64917
2.64929
2.64939
2.64951
2.64961
2.64972
2.64982
2.64992
2.65002
2.65011
2.6502
2.65028
2.65037
2.65044
2.64919
2.6493
2.64941
2.64952
2.64963
2.64974
2.64985
2.64995
2.65004
2.65014
2.65023
2.65031
2.65039
2.65046
2.64921
2.64932
2.64943
2.64954
2.64965
2.64976
2.64986
2.64997
2.65006
2.65016
2.65025
2.65033
2.65041
2.65049
2.64922
2.64933
2.64944
2.64955
2.64966
2.64977
2.64988
2.64998
2.65008
2.65018
2.65027
2.65035
2.65043
2.65052
2.64924
2.64936
2.64946
2.64957
2.64968
2.64978
2.64989
2.64999
2.65009
2.65018
2.65027
2.65036
2.65045
2.65053
2.64144
2.64151
2.6416
2.64168
2.64176
2.64185
2.64193
2.64202
2.6421
2.64219
2.64227
2.64236
2.64244
2.64253
2.64153
2.6416
2.64169
2.64177
2.64186
2.64195
2.64204
2.64213
2.64221
2.6423
2.64238
2.64247
2.64255
2.64264
2.64163
2.6417
2.64179
2.64188
2.64197
2.64206
2.64214
2.64223
2.64232
2.6424
2.64248
2.64256
2.64264
2.64273
2.64172
2.6418
2.64189
2.64198
2.64207
2.64216
2.64225
2.64234
2.64242
2.64251
2.64259
2.64267
2.64274
2.64283
2.64181
2.6419
2.64199
2.64208
2.64217
2.64226
2.64235
2.64244
2.64252
2.64261
2.64269
2.64277
2.64284
2.64292
2.64191
2.642
2.64209
2.64218
2.64227
2.64236
2.64245
2.64254
2.64263
2.64271
2.64279
2.64287
2.64294
2.64301
2.642
2.64209
2.64218
2.64228
2.64237
2.64246
2.64255
2.64264
2.64272
2.64281
2.64289
2.64296
2.64303
2.6431
2.64209
2.64218
2.64228
2.64237
2.64246
2.64256
2.64265
2.64273
2.64282
2.6429
2.64298
2.64306
2.64313
2.64319
2.64218
2.64227
2.64237
2.64246
2.64256
2.64265
2.64274
2.64283
2.64291
2.643
2.64308
2.64315
2.64322
2.64328
2.64226
2.64236
2.64245
2.64255
2.64264
2.64274
2.64283
2.64292
2.643
2.64309
2.64317
2.64324
2.64331
2.64337
2.64234
2.64244
2.64253
2.64263
2.64273
2.64282
2.64291
2.643
2.64309
2.64317
2.64325
2.64333
2.6434
2.64346
2.64242
2.64252
2.64262
2.64271
2.64281
2.6429
2.643
2.64309
2.64317
2.64326
2.64334
2.64341
2.64349
2.64355
2.6425
2.6426
2.64269
2.64279
2.64289
2.64298
2.64307
2.64317
2.64325
2.64334
2.64342
2.64349
2.64357
2.64364
2.64258
2.64268
2.64278
2.64287
2.64297
2.64306
2.64315
2.64324
2.64333
2.64341
2.64349
2.64357
2.64365
2.64373
2.63456
2.6346
2.63464
2.63469
2.63474
2.63478
2.63483
2.63488
2.63494
2.63499
2.63505
2.6351
2.63516
2.63523
2.63465
2.63468
2.63473
2.63478
2.63483
2.63488
2.63493
2.63498
2.63504
2.6351
2.63515
2.63521
2.63527
2.63534
2.63474
2.63477
2.63483
2.63488
2.63493
2.63498
2.63503
2.63508
2.63514
2.63519
2.63525
2.63531
2.63536
2.63543
2.63483
2.63487
2.63492
2.63497
2.63502
2.63508
2.63513
2.63519
2.63524
2.6353
2.63535
2.63541
2.63546
2.63553
2.63493
2.63497
2.63502
2.63507
2.63512
2.63518
2.63523
2.63529
2.63534
2.6354
2.63545
2.63551
2.63556
2.63562
2.63502
2.63507
2.63512
2.63517
2.63523
2.63528
2.63533
2.63539
2.63545
2.6355
2.63556
2.63561
2.63567
2.63572
2.63512
2.63517
2.63522
2.63527
2.63533
2.63538
2.63544
2.63549
2.63555
2.6356
2.63566
2.63571
2.63577
2.63582
2.63522
2.63527
2.63532
2.63538
2.63543
2.63548
2.63554
2.6356
2.63565
2.63571
2.63576
2.63581
2.63587
2.63592
2.63532
2.63537
2.63542
2.63548
2.63553
2.63559
2.63564
2.6357
2.63575
2.63581
2.63586
2.63591
2.63597
2.63601
2.63541
2.63547
2.63552
2.63558
2.63563
2.63569
2.63574
2.6358
2.63586
2.63591
2.63596
2.63601
2.63607
2.63611
2.63551
2.63557
2.63562
2.63568
2.63573
2.63579
2.63585
2.6359
2.63596
2.63601
2.63606
2.63611
2.63617
2.6362
2.63561
2.63567
2.63572
2.63578
2.63583
2.63589
2.63595
2.636
2.63606
2.63611
2.63616
2.63621
2.63627
2.6363
2.6357
2.63576
2.63581
2.63587
2.63593
2.63599
2.63604
2.6361
2.63616
2.63621
2.63626
2.63631
2.63636
2.6364
2.63581
2.63587
2.63592
2.63597
2.63603
2.63609
2.63614
2.6362
2.63625
2.63631
2.63636
2.63641
2.63646
2.63652
2.62825
2.62826
2.62827
2.62828
2.62829
2.6283
2.62831
2.62833
2.62835
2.62837
2.6284
2.62842
2.62845
2.62849
2.62831
2.62831
2.62832
2.62833
2.62834
2.62835
2.62837
2.62839
2.62841
2.62843
2.62846
2.62849
2.62852
2.62856
2.62836
2.62836
2.62837
2.62838
2.6284
2.62841
2.62842
2.62844
2.62847
2.62849
2.62852
2.62855
2.62858
2.62862
2.62842
2.62842
2.62843
2.62844
2.62846
2.62847
2.62849
2.62851
2.62853
2.62855
2.62858
2.62861
2.62865
2.62869
2.62848
2.62849
2.6285
2.62851
2.62852
2.62853
2.62855
2.62857
2.62859
2.62862
2.62865
2.62868
2.62871
2.62875
2.62855
2.62856
2.62856
2.62857
2.62859
2.6286
2.62862
2.62864
2.62866
2.62869
2.62872
2.62875
2.62878
2.62882
2.62862
2.62863
2.62863
2.62865
2.62866
2.62867
2.62869
2.62871
2.62873
2.62876
2.62879
2.62882
2.62885
2.62889
2.62869
2.6287
2.62871
2.62872
2.62873
2.62875
2.62876
2.62878
2.62881
2.62883
2.62886
2.62889
2.62892
2.62895
2.62877
2.62878
2.62878
2.6288
2.62881
2.62882
2.62884
2.62886
2.62888
2.62891
2.62893
2.62896
2.62899
2.62902
2.62884
2.62886
2.62886
2.62887
2.62889
2.6289
2.62892
2.62894
2.62896
2.62899
2.62901
2.62904
2.62907
2.62909
2.62892
2.62894
2.62894
2.62896
2.62897
2.62898
2.629
2.62902
2.62904
2.62907
2.62909
2.62912
2.62914
2.62916
2.629
2.62902
2.62902
2.62904
2.62905
2.62907
2.62908
2.6291
2.62913
2.62915
2.62917
2.62919
2.62922
2.62924
2.62908
2.6291
2.62911
2.62912
2.62914
2.62915
2.62917
2.62919
2.62921
2.62923
2.62925
2.62928
2.6293
2.62932
2.62917
2.62918
2.62919
2.62921
2.62922
2.62924
2.62926
2.62928
2.6293
2.62932
2.62934
2.62936
2.62938
2.62941
2.6225
2.62249
2.62248
2.62246
2.62245
2.62245
2.62244
2.62243
2.62243
2.62243
2.62243
2.62244
2.62244
2.62245
2.62252
2.62251
2.62249
2.62248
2.62247
2.62246
2.62245
2.62245
2.62244
2.62245
2.62245
2.62246
2.62247
2.62248
2.62254
2.62252
2.62251
2.62249
2.62248
2.62247
2.62247
2.62246
2.62246
2.62246
2.62247
2.62248
2.62249
2.6225
2.62256
2.62255
2.62253
2.62252
2.6225
2.62249
2.62249
2.62248
2.62248
2.62248
2.62249
2.6225
2.62251
2.62253
2.62259
2.62257
2.62255
2.62254
2.62253
2.62252
2.62251
2.62251
2.6225
2.62251
2.62251
2.62252
2.62254
2.62256
2.62262
2.6226
2.62258
2.62257
2.62255
2.62254
2.62254
2.62253
2.62253
2.62254
2.62254
2.62255
2.62257
2.62258
2.62265
2.62263
2.62262
2.6226
2.62259
2.62258
2.62257
2.62256
2.62256
2.62257
2.62257
2.62258
2.6226
2.62262
2.62269
2.62267
2.62265
2.62264
2.62262
2.62261
2.6226
2.6226
2.6226
2.6226
2.62261
2.62262
2.62263
2.62265
2.62273
2.62271
2.62269
2.62268
2.62266
2.62265
2.62264
2.62264
2.62264
2.62264
2.62265
2.62265
2.62267
2.62268
2.62277
2.62276
2.62273
2.62272
2.6227
2.62269
2.62269
2.62268
2.62268
2.62268
2.62269
2.62269
2.62271
2.62272
2.62282
2.6228
2.62278
2.62276
2.62275
2.62274
2.62273
2.62273
2.62272
2.62273
2.62273
2.62274
2.62275
2.62275
2.62286
2.62285
2.62283
2.62281
2.6228
2.62279
2.62278
2.62277
2.62277
2.62277
2.62277
2.62278
2.62279
2.62279
2.62291
2.6229
2.62288
2.62287
2.62285
2.62284
2.62283
2.62283
2.62282
2.62282
2.62282
2.62283
2.62283
2.62283
2.62297
2.62295
2.62293
2.62292
2.6229
2.6229
2.62289
2.62288
2.62288
2.62288
2.62287
2.62288
2.62288
2.62288
2.61729
2.61727
2.61725
2.61724
2.61722
2.61721
2.6172
2.61718
2.61717
2.61716
2.61715
2.61714
2.61713
2.61712
2.61729
2.61727
2.61725
2.61723
2.61722
2.6172
2.61719
2.61717
2.61716
2.61715
2.61714
2.61713
2.61713
2.61712
2.61729
2.61727
2.61725
2.61723
2.61721
2.6172
2.61718
2.61717
2.61715
2.61714
2.61714
2.61713
2.61712
2.61712
2.61729
2.61727
2.61725
2.61723
2.61721
2.61719
2.61718
2.61716
2.61715
2.61714
2.61713
2.61713
2.61712
2.61712
2.61729
2.61727
2.61725
2.61723
2.61721
2.61719
2.61718
2.61716
2.61715
2.61714
2.61713
2.61713
2.61712
2.61712
2.61729
2.61727
2.61725
2.61723
2.61721
2.61719
2.61718
2.61716
2.61715
2.61714
2.61713
2.61713
2.61713
2.61712
2.6173
2.61727
2.61725
2.61723
2.61721
2.61719
2.61718
2.61717
2.61715
2.61714
2.61714
2.61713
2.61713
2.61713
2.61731
2.61728
2.61726
2.61724
2.61722
2.6172
2.61718
2.61717
2.61716
2.61715
2.61714
2.61714
2.61714
2.61713
2.61732
2.61729
2.61727
2.61725
2.61723
2.61721
2.61719
2.61718
2.61717
2.61716
2.61715
2.61714
2.61714
2.61714
2.61733
2.6173
2.61728
2.61726
2.61724
2.61722
2.6172
2.61719
2.61718
2.61717
2.61716
2.61715
2.61715
2.61715
2.61734
2.61732
2.61729
2.61727
2.61725
2.61723
2.61722
2.6172
2.61719
2.61718
2.61717
2.61716
2.61716
2.61716
2.61735
2.61733
2.61731
2.61729
2.61727
2.61725
2.61723
2.61722
2.6172
2.61719
2.61718
2.61717
2.61717
2.61717
2.61737
2.61735
2.61732
2.6173
2.61728
2.61726
2.61725
2.61723
2.61722
2.61721
2.6172
2.61719
2.61718
2.61717
2.61738
2.61736
2.61734
2.61732
2.6173
2.61728
2.61727
2.61725
2.61724
2.61722
2.61721
2.6172
2.6172
2.61719
2.61256
2.61255
2.61254
2.61253
2.61253
2.61252
2.61251
2.61249
2.61248
2.61247
2.61245
2.61244
2.61242
2.6124
2.61256
2.61255
2.61254
2.61253
2.61252
2.61251
2.6125
2.61249
2.61247
2.61246
2.61245
2.61243
2.61241
2.61239
2.61255
2.61255
2.61254
2.61253
2.61252
2.61251
2.61249
2.61248
2.61247
2.61245
2.61244
2.61242
2.61241
2.61239
2.61255
2.61254
2.61253
2.61252
2.61251
2.6125
2.61249
2.61247
2.61246
2.61245
2.61243
2.61242
2.6124
2.61238
2.61254
2.61253
2.61252
2.61251
2.6125
2.61249
2.61248
2.61247
2.61245
2.61244
2.61242
2.61241
2.61239
2.61238
2.61254
2.61253
2.61252
2.61251
2.6125
2.61248
2.61247
2.61246
2.61245
2.61243
2.61242
2.6124
2.61239
2.61237
2.61253
2.61252
2.61251
2.6125
2.61249
2.61248
2.61246
2.61245
2.61244
2.61242
2.61241
2.61239
2.61238
2.61236
2.61252
2.61251
2.6125
2.61249
2.61248
2.61247
2.61246
2.61244
2.61243
2.61242
2.6124
2.61239
2.61237
2.61236
2.61251
2.6125
2.61249
2.61248
2.61247
2.61246
2.61245
2.61243
2.61242
2.61241
2.61239
2.61238
2.61236
2.61235
2.61251
2.6125
2.61249
2.61247
2.61246
2.61245
2.61244
2.61242
2.61241
2.6124
2.61238
2.61237
2.61235
2.61234
2.6125
2.61249
2.61248
2.61247
2.61245
2.61244
2.61243
2.61241
2.6124
2.61239
2.61237
2.61236
2.61235
2.61233
2.61249
2.61248
2.61247
2.61246
2.61244
2.61243
2.61242
2.6124
2.61239
2.61238
2.61236
2.61235
2.61234
2.61232
2.61248
2.61247
2.61246
2.61245
2.61244
2.61242
2.61241
2.61239
2.61238
2.61237
2.61235
2.61234
2.61233
2.61231
2.61247
2.61246
2.61245
2.61244
2.61242
2.61241
2.6124
2.61238
2.61237
2.61236
2.61234
2.61233
2.61231
2.6123
2.60826
2.60827
2.60827
2.60827
2.60828
2.60827
2.60827
2.60826
2.60826
2.60825
2.60823
2.60821
2.60819
2.60817
2.60827
2.60828
2.60828
2.60828
2.60828
2.60828
2.60828
2.60827
2.60826
2.60825
2.60824
2.60822
2.6082
2.60817
2.60827
2.60828
2.60829
2.60829
2.60829
2.60829
2.60828
2.60828
2.60827
2.60825
2.60824
2.60822
2.6082
2.60817
2.60828
2.60828
2.60829
2.60829
2.60829
2.60829
2.60829
2.60828
2.60827
2.60826
2.60824
2.60822
2.6082
2.60817
2.60827
2.60828
2.60829
2.60829
2.60829
2.60829
2.60829
2.60828
2.60827
2.60825
2.60824
2.60822
2.6082
2.60817
2.60827
2.60828
2.60828
2.60829
2.60829
2.60829
2.60828
2.60827
2.60826
2.60825
2.60823
2.60821
2.60819
2.60817
2.60826
2.60827
2.60828
2.60828
2.60828
2.60828
2.60828
2.60827
2.60826
2.60824
2.60823
2.60821
2.60818
2.60816
2.60825
2.60826
2.60827
2.60827
2.60827
2.60827
2.60827
2.60826
2.60825
2.60823
2.60822
2.6082
2.60818
2.60815
2.60824
2.60825
2.60825
2.60826
2.60826
2.60826
2.60825
2.60824
2.60823
2.60822
2.6082
2.60819
2.60816
2.60814
2.60822
2.60823
2.60824
2.60824
2.60824
2.60824
2.60824
2.60823
2.60822
2.6082
2.60819
2.60817
2.60815
2.60813
2.6082
2.60821
2.60822
2.60822
2.60822
2.60822
2.60822
2.60821
2.6082
2.60819
2.60817
2.60815
2.60813
2.60811
2.60819
2.60819
2.6082
2.6082
2.6082
2.6082
2.6082
2.60819
2.60818
2.60817
2.60815
2.60813
2.60811
2.60809
2.60817
2.60817
2.60818
2.60818
2.60818
2.60818
2.60817
2.60816
2.60815
2.60814
2.60813
2.60811
2.60809
2.60807
2.60814
2.60815
2.60815
2.60816
2.60816
2.60815
2.60815
2.60814
2.60813
2.60812
2.6081
2.60809
2.60807
2.60805
2.60433
2.60435
2.60436
2.60438
2.60438
2.60439
2.60439
2.60439
2.60439
2.60438
2.60437
2.60435
2.60433
2.60431
2.60435
2.60437
2.60438
2.6044
2.60441
2.60441
2.60441
2.60441
2.60441
2.6044
2.60439
2.60437
2.60435
2.60432
2.60437
2.60438
2.6044
2.60441
2.60442
2.60443
2.60443
2.60443
2.60442
2.60441
2.6044
2.60438
2.60436
2.60433
2.60438
2.6044
2.60441
2.60443
2.60444
2.60444
2.60445
2.60444
2.60444
2.60443
2.60441
2.60439
2.60437
2.60434
2.60438
2.6044
2.60442
2.60444
2.60445
2.60445
2.60446
2.60445
2.60445
2.60443
2.60442
2.6044
2.60437
2.60435
2.60438
2.60441
2.60442
2.60444
2.60445
2.60446
2.60446
2.60446
2.60445
2.60444
2.60442
2.6044
2.60438
2.60435
2.60438
2.6044
2.60442
2.60444
2.60445
2.60446
2.60446
2.60446
2.60445
2.60444
2.60442
2.6044
2.60438
2.60435
2.60437
2.6044
2.60442
2.60443
2.60444
2.60445
2.60445
2.60445
2.60444
2.60443
2.60442
2.6044
2.60437
2.60435
2.60436
2.60439
2.60441
2.60442
2.60443
2.60444
2.60444
2.60444
2.60443
2.60442
2.60441
2.60439
2.60436
2.60434
2.60435
2.60437
2.60439
2.60441
2.60442
2.60443
2.60443
2.60443
2.60442
2.60441
2.60439
2.60437
2.60435
2.60433
2.60433
2.60435
2.60437
2.60439
2.6044
2.60441
2.60441
2.60441
2.6044
2.60439
2.60437
2.60436
2.60433
2.60431
2.60431
2.60433
2.60435
2.60437
2.60438
2.60438
2.60439
2.60438
2.60438
2.60437
2.60435
2.60433
2.60431
2.60429
2.60429
2.60431
2.60433
2.60434
2.60435
2.60436
2.60436
2.60436
2.60435
2.60434
2.60433
2.60431
2.60429
2.60427
2.60426
2.60428
2.6043
2.60431
2.60432
2.60433
2.60433
2.60433
2.60432
2.60431
2.6043
2.60428
2.60426
2.60424
2.6007
2.60072
2.60075
2.60076
2.60078
2.60078
2.60079
2.60079
2.60079
2.60078
2.60077
2.60076
2.60074
2.60072
2.60073
2.60075
2.60077
2.60079
2.6008
2.60081
2.60082
2.60082
2.60082
2.60081
2.6008
2.60078
2.60076
2.60074
2.60075
2.60077
2.60079
2.60081
2.60083
2.60084
2.60084
2.60085
2.60084
2.60083
2.60082
2.6008
2.60078
2.60076
2.60076
2.60079
2.60081
2.60083
2.60085
2.60086
2.60086
2.60086
2.60086
2.60085
2.60084
2.60082
2.6008
2.60077
2.60078
2.6008
2.60083
2.60085
2.60086
2.60087
2.60088
2.60088
2.60088
2.60087
2.60085
2.60084
2.60081
2.60079
2.60078
2.60081
2.60084
2.60086
2.60087
2.60088
2.60089
2.60089
2.60089
2.60088
2.60086
2.60084
2.60082
2.6008
2.60079
2.60082
2.60084
2.60086
2.60088
2.60089
2.60089
2.6009
2.60089
2.60088
2.60087
2.60085
2.60083
2.6008
2.60079
2.60082
2.60084
2.60086
2.60088
2.60089
2.60089
2.6009
2.60089
2.60088
2.60087
2.60085
2.60083
2.6008
2.60078
2.60081
2.60084
2.60086
2.60087
2.60088
2.60089
2.60089
2.60089
2.60088
2.60086
2.60085
2.60082
2.6008
2.60077
2.6008
2.60083
2.60085
2.60086
2.60087
2.60088
2.60088
2.60088
2.60087
2.60085
2.60084
2.60082
2.60079
2.60076
2.60079
2.60081
2.60083
2.60085
2.60086
2.60086
2.60086
2.60086
2.60085
2.60084
2.60082
2.6008
2.60078
2.60074
2.60077
2.60079
2.60081
2.60083
2.60084
2.60084
2.60085
2.60084
2.60083
2.60082
2.6008
2.60078
2.60076
2.60072
2.60075
2.60077
2.60079
2.6008
2.60081
2.60082
2.60082
2.60082
2.60081
2.6008
2.60078
2.60076
2.60074
2.6007
2.60072
2.60074
2.60076
2.60078
2.60079
2.60079
2.60079
2.60079
2.60078
2.60077
2.60075
2.60073
2.60071
2.59731
2.59733
2.59735
2.59737
2.59738
2.59739
2.5974
2.5974
2.5974
2.59739
2.59738
2.59737
2.59735
2.59734
2.59733
2.59736
2.59738
2.59739
2.59741
2.59742
2.59742
2.59743
2.59742
2.59742
2.59741
2.5974
2.59738
2.59736
2.59735
2.59738
2.5974
2.59742
2.59743
2.59744
2.59745
2.59745
2.59745
2.59744
2.59743
2.59742
2.5974
2.59738
2.59737
2.5974
2.59742
2.59744
2.59745
2.59746
2.59747
2.59747
2.59747
2.59746
2.59745
2.59744
2.59742
2.5974
2.59738
2.59741
2.59743
2.59745
2.59747
2.59748
2.59748
2.59749
2.59748
2.59748
2.59747
2.59745
2.59743
2.59741
2.59739
2.59742
2.59744
2.59746
2.59748
2.59749
2.5975
2.5975
2.5975
2.59749
2.59748
2.59746
2.59744
2.59742
2.5974
2.59743
2.59745
2.59747
2.59749
2.5975
2.5975
2.5975
2.5975
2.5975
2.59749
2.59747
2.59745
2.59743
2.5974
2.59743
2.59745
2.59747
2.59749
2.5975
2.59751
2.59751
2.59751
2.5975
2.59749
2.59747
2.59746
2.59743
2.5974
2.59743
2.59745
2.59747
2.59749
2.5975
2.5975
2.59751
2.5975
2.5975
2.59749
2.59747
2.59745
2.59743
2.5974
2.59742
2.59745
2.59747
2.59748
2.59749
2.5975
2.5975
2.5975
2.59749
2.59748
2.59747
2.59745
2.59743
2.59739
2.59741
2.59744
2.59746
2.59747
2.59748
2.59749
2.59749
2.59749
2.59748
2.59747
2.59746
2.59744
2.59742
2.59738
2.5974
2.59742
2.59744
2.59746
2.59747
2.59747
2.59748
2.59747
2.59747
2.59746
2.59744
2.59743
2.59741
2.59736
2.59738
2.5974
2.59742
2.59744
2.59745
2.59745
2.59746
2.59746
2.59745
2.59744
2.59743
2.59741
2.59739
2.59734
2.59736
2.59738
2.5974
2.59742
2.59743
2.59743
2.59743
2.59743
2.59743
2.59742
2.59741
2.59739
2.59737
2.59411
2.59413
2.59414
2.59415
2.59416
2.59417
2.59417
2.59417
2.59417
2.59417
2.59416
2.59415
2.59414
2.59413
2.59413
2.59414
2.59416
2.59417
2.59418
2.59419
2.59419
2.59419
2.59419
2.59419
2.59418
2.59417
2.59416
2.59415
2.59414
2.59416
2.59417
2.59419
2.5942
2.5942
2.59421
2.59421
2.59421
2.5942
2.5942
2.59419
2.59418
2.59416
2.59415
2.59417
2.59419
2.5942
2.59421
2.59422
2.59422
2.59422
2.59422
2.59422
2.59421
2.5942
2.59419
2.59418
2.59416
2.59418
2.5942
2.59421
2.59422
2.59423
2.59423
2.59424
2.59423
2.59423
2.59422
2.59421
2.5942
2.59419
2.59417
2.59419
2.59421
2.59422
2.59423
2.59424
2.59424
2.59424
2.59424
2.59424
2.59423
2.59422
2.59421
2.59419
2.59418
2.5942
2.59421
2.59423
2.59424
2.59424
2.59425
2.59425
2.59425
2.59425
2.59424
2.59423
2.59422
2.5942
2.59418
2.5942
2.59422
2.59423
2.59424
2.59425
2.59425
2.59425
2.59425
2.59425
2.59424
2.59423
2.59422
2.5942
2.59418
2.5942
2.59422
2.59423
2.59424
2.59425
2.59425
2.59425
2.59425
2.59425
2.59424
2.59423
2.59422
2.5942
2.59418
2.5942
2.59421
2.59423
2.59424
2.59424
2.59425
2.59425
2.59425
2.59425
2.59424
2.59423
2.59421
2.5942
2.59417
2.59419
2.59421
2.59422
2.59423
2.59424
2.59424
2.59424
2.59424
2.59424
2.59423
2.59422
2.59421
2.59419
2.59417
2.59418
2.5942
2.59421
2.59422
2.59423
2.59423
2.59424
2.59424
2.59423
2.59422
2.59421
2.5942
2.59418
2.59415
2.59417
2.59418
2.5942
2.59421
2.59422
2.59422
2.59422
2.59422
2.59422
2.59421
2.5942
2.59419
2.59417
2.59414
2.59416
2.59417
2.59418
2.59419
2.5942
2.59421
2.59421
2.59421
2.59421
2.5942
2.59419
2.59418
2.59416
2.68385
2.68376
2.68371
2.68367
2.68364
2.68363
2.68366
2.68357
2.68352
2.68348
2.68346
2.68345
2.6852
2.6854
2.68555
2.68573
2.68588
2.68605
2.68499
2.6852
2.68536
2.68555
2.68572
2.68588
2.6848
2.68499
2.68516
2.68534
2.6855
2.68566
2.68458
2.68477
2.68494
2.6851
2.68525
2.68539
2.68436
2.68453
2.68468
2.68483
2.68496
2.68508
2.68412
2.68428
2.68441
2.68454
2.68465
2.68474
2.68389
2.68402
2.68413
2.68423
2.68431
2.68438
2.68365
2.68375
2.68384
2.68391
2.68397
2.68401
2.68341
2.68348
2.68354
2.68358
2.68361
2.68363
2.68317
2.6832
2.68324
2.68325
2.68326
2.68326
2.68294
2.68294
2.68295
2.68294
2.68293
2.68291
2.68269
2.68266
2.68265
2.68263
2.6826
2.68258
2.68249
2.68242
2.68239
2.68235
2.68231
2.68228
2.68223
2.68213
2.68208
2.68204
2.68199
2.68196
2.68285
2.68309
2.68329
2.6835
2.68369
2.68388
2.68267
2.68296
2.6832
2.68346
2.68368
2.6839
2.68253
2.68283
2.6831
2.68337
2.68362
2.68386
2.68235
2.68267
2.68295
2.68323
2.68348
2.68372
2.68215
2.68247
2.68276
2.68303
2.68328
2.6835
2.68194
2.68225
2.68252
2.68278