/*--------------------------------*- C++ -*----------------------------------*\
| =========                 |                                                 |
| \\      /  F ield         | OpenFOAM: The Open Source CFD Toolbox           |
|  \\    /   O peration     | Version:  v2106                                 |
|   \\  /    A nd           | Website:  www.openfoam.com                      |
|    \\/     M anipulation  |                                                 |
\*---------------------------------------------------------------------------*/
FoamFile
{
    version     2.0;
    format      ascii;
    arch        "LSB;label=32;scalar=64";
    class       surfaceScalarField;
    location    "0.000217";
    object      phi;
}
// * * * * * * * * * * * * * * * * * * * * * * * * * * * * * * * * * * * * * //

dimensions      [1 0 -1 0 0 0 0];

internalField   nonuniform List<scalar> 
52267
(
-3.94926e-10
-3.84177e-10
-2.28205e-07
5.823e-10
5.93498e-10
7.7358e-11
-3.0087e-11
-2.28257e-07
-2.55635e-12
3.37407e-10
2.03155e-10
-2.28458e-07
-1.60227e-10
3.45795e-10
4.02785e-10
-2.28519e-07
-2.75888e-10
2.37641e-10
5.04067e-10
-2.28588e-07
-3.89611e-10
9.95221e-11
5.2857e-10
-2.28621e-07
-4.67022e-10
5.73315e-10
-2.2869e-07
-5.67811e-10
-4.04542e-11
8.57592e-11
-2.28257e-07
6.22363e-12
7.98043e-11
8.96917e-11
-2.28551e-07
1.1168e-10
3.06207e-10
-2.28672e-07
8.93845e-11
4.27875e-10
-2.28731e-07
3.4492e-11
4.62604e-10
-2.28798e-07
-7.7994e-12
4.15959e-10
-2.28817e-07
4.09632e-10
-2.28877e-07
1.9238e-10
3.42951e-10
-2.28459e-07
-1.52127e-10
2.95234e-10
1.19551e-10
-2.28672e-07
2.89704e-10
2.99062e-10
-2.28752e-07
2.26594e-10
3.73277e-10
-2.28835e-07
1.41659e-10
3.6959e-10
-2.28928e-07
5.23867e-11
3.04547e-10
-2.2898e-07
2.83172e-10
-2.29069e-07
3.93856e-10
3.48082e-10
-2.2852e-07
-2.70137e-10
4.17865e-10
9.46148e-11
-2.28732e-07
3.6367e-10
2.33754e-10
-2.28835e-07
2.72927e-10
2.81116e-10
-2.28969e-07
1.70785e-10
2.60175e-10
-2.29084e-07
6.58665e-11
2.01038e-10
-2.29145e-07
1.80282e-10
-2.29246e-07
4.95878e-10
2.36944e-10
-2.28589e-07
-3.85106e-10
4.52622e-10
3.63387e-11
-2.28799e-07
3.59441e-10
1.45024e-10
-2.28928e-07
2.5117e-10
1.75379e-10
-2.29083e-07
1.49429e-10
1.55205e-10
-2.29224e-07
5.28741e-11
1.1358e-10
-2.29292e-07
9.88542e-11
-2.29401e-07
5.23979e-10
9.56175e-11
-2.28622e-07
-4.65992e-10
4.08906e-10
-9.07278e-12
-2.28818e-07
2.9583e-10
5.26186e-11
-2.2898e-07
1.92084e-10
6.70238e-11
-2.29145e-07
1.06963e-10
5.47072e-11
-2.29293e-07
3.05869e-11
3.30569e-11
-2.29356e-07
2.5022e-11
-2.29467e-07
5.65818e-10
-2.70901e-11
-2.28691e-07
-5.63832e-10
3.99637e-10
-2.81381e-11
-2.28878e-07
2.71531e-10
-2.67768e-11
-2.29069e-07
1.68872e-10
-2.74796e-11
-2.29245e-07
9.0268e-11
-2.93963e-11
-2.294e-07
2.15985e-11
-3.13828e-11
-2.29465e-07
-3.37601e-11
-2.29579e-07
5.68722e-10
-1.44862e-10
-2.28688e-07
-5.69258e-10
4.00224e-10
-4.33015e-11
-2.28873e-07
2.7118e-10
-1.04255e-10
-2.29065e-07
1.68237e-10
-1.20698e-10
-2.29241e-07
8.96031e-11
-1.1211e-10
-2.29396e-07
2.12193e-11
-9.39284e-11
-2.29461e-07
-8.97471e-11
-2.29575e-07
5.18495e-10
-2.2862e-07
-4.60071e-10
4.03235e-10
-2.28815e-07
2.90521e-10
-2.28977e-07
1.86954e-10
-2.2914e-07
1.02157e-10
-2.29287e-07
2.68711e-11
-2.2935e-07
-2.29459e-07
-8.41785e-10
-8.36127e-10
-2.26792e-07
9.77213e-10
9.8416e-10
-3.40974e-10
-5.84353e-10
-2.26835e-07
5.23544e-10
-2.53579e-11
-4.74471e-10
-2.26988e-07
4.93253e-10
6.65826e-11
-3.61028e-10
-2.27014e-07
4.79131e-10
4.74093e-11
-3.12591e-10
-2.27068e-07
4.34201e-10
4.15085e-12
-3.29275e-10
-2.27099e-07
4.05842e-10
-1.24034e-11
-2.8433e-10
-2.27176e-07
3.01491e-10
-2.66787e-11
-2.86325e-10
-2.27174e-07
3.04559e-10
-6.48108e-11
-3.34041e-10
-2.27096e-07
4.13822e-10
-7.64511e-11
-3.19258e-10
-2.27065e-07
4.47176e-10
2.68288e-11
-3.67073e-10
-2.27008e-07
4.9182e-10
3.54768e-10
-4.8652e-10
-2.26981e-07
5.1297e-10
8.6221e-10
-5.96845e-10
-2.26825e-07
5.46828e-10
-8.49147e-10
-2.26781e-07
9.98924e-10
1.01048e-09
-5.89702e-10
-3.36829e-10
-2.26836e-07
5.26905e-10
-4.41535e-10
-4.35289e-10
-2.27073e-07
-3.436e-10
-3.24499e-10
-2.27176e-07
-2.72386e-10
-2.67758e-10
-2.27221e-07
-2.16578e-10
-2.68152e-10
-2.27285e-07
-1.36403e-10
-3.45403e-10
-2.27301e-07
-1.48946e-11
-3.51742e-10
-2.27368e-07
1.08707e-10
-3.52963e-10
-2.27365e-07
1.94099e-10
-3.48067e-10
-2.27297e-07
2.56919e-10
-2.69677e-10
-2.27282e-07
3.38866e-10
-2.67711e-10
-2.27217e-07
4.48304e-10
-3.28832e-10
-2.27169e-07
6.07988e-10
-4.40153e-10
-2.27064e-07
-3.4542e-10
-2.26825e-07
5.58537e-10
-4.79924e-10
-2.31094e-11
-2.2699e-07
4.95698e-10
-3.31456e-10
-3.3809e-10
-2.27177e-07
-2.46273e-10
-2.39426e-10
-2.27266e-07
-1.9448e-10
-2.11184e-10
-2.27332e-07
-1.48622e-10
-2.38541e-10
-2.27422e-07
-9.67084e-11
-3.23798e-10
-2.27471e-07
-1.46313e-11
-3.42328e-10
-2.27569e-07
6.83254e-11
-3.42735e-10
-2.27566e-07
1.24011e-10
-3.25151e-10
-2.27468e-07
1.76632e-10
-2.37149e-10
-2.27417e-07
2.39213e-10
-2.07403e-10
-2.27327e-07
3.35396e-10
-2.37107e-10
-2.27258e-07
4.95165e-10
-3.35624e-10
-2.27168e-07
-2.32067e-11
-2.2698e-07
5.22955e-10
-3.62548e-10
6.65417e-11
-2.27017e-07
4.76275e-10
-2.72699e-10
-2.6798e-10
-2.27224e-07
-2.18278e-10
-1.88061e-10
-2.27334e-07
-1.78116e-10
-1.70185e-10
-2.27462e-07
-1.36661e-10
-2.02807e-10
-2.2758e-07
-9.03206e-11
-2.74441e-10
-2.27647e-07
-1.47814e-11
-2.88269e-10
-2.27762e-07
6.14307e-11
-2.88107e-10
-2.27758e-07
1.10683e-10
-2.75177e-10
-2.27643e-07
1.58812e-10
-1.99993e-10
-2.27575e-07
2.09774e-10
-1.64449e-10
-2.27455e-07
2.76278e-10
-1.81379e-10
-2.27327e-07
3.78288e-10
-2.59836e-10
-2.27216e-07
7.46968e-11
-2.27007e-07
5.03719e-10
-3.12749e-10
4.46726e-11
-2.27073e-07
4.29771e-10
-2.72466e-10
-2.14887e-10
-2.27289e-07
-2.4604e-10
-1.44669e-10
-2.27425e-07
-2.11745e-10
-1.30876e-10
-2.27581e-07
-1.63037e-10
-1.55892e-10
-2.27734e-07
-1.04511e-10
-2.04116e-10
-2.27818e-07
-1.46784e-11
-2.08294e-10
-2.27947e-07
7.63382e-11
-2.07887e-10
-2.27944e-07
1.38382e-10
-2.0448e-10
-2.27814e-07
1.94825e-10
-1.52739e-10
-2.27728e-07
2.40746e-10
-1.24125e-10
-2.27574e-07
2.80117e-10
-1.35128e-10
-2.27417e-07
3.3266e-10
-2.02272e-10
-2.2728e-07
5.97037e-11
-2.27063e-07
4.60497e-10
-3.22319e-10
-7.87251e-13
-2.27105e-07
3.93053e-10
-3.44807e-10
-1.37026e-10
-2.27306e-07
-3.28944e-10
-9.51652e-11
-2.27476e-07
-2.82854e-10
-8.79973e-11
-2.2765e-07
-2.11607e-10
-1.01426e-10
-2.27821e-07
-1.28305e-10
-1.24796e-10
-2.27905e-07
-1.48841e-11
-1.22452e-10
-2.28039e-07
1.00444e-10
-1.21792e-10
-2.28036e-07
1.8798e-10
-1.24537e-10
-2.279e-07
2.6809e-10
-9.77947e-11
-2.27814e-07
3.26971e-10
-8.0801e-11
-2.27642e-07
3.57369e-10
-8.46884e-11
-2.27468e-07
3.48334e-10
-1.22327e-10
-2.27296e-07
1.86557e-11
-2.27095e-07
4.29541e-10
-2.81568e-10
-2.17013e-11
-2.27182e-07
2.93804e-10
-3.54178e-10
-2.07439e-11
-2.27374e-07
-3.49372e-10
-1.81504e-11
-2.27574e-07
-2.9817e-10
-1.7367e-11
-2.27766e-07
-2.17109e-10
-1.72496e-11
-2.27949e-07
-1.27047e-10
-1.7367e-11
-2.28039e-07
-1.68209e-11
-1.90847e-11
-2.28171e-07
9.66951e-11
-1.87461e-11
-2.28168e-07
1.93638e-10
-1.7199e-11
-2.28033e-07
2.86888e-10
-1.45546e-11
-2.27942e-07
3.53869e-10
-1.10086e-11
-2.27755e-07
3.74843e-10
-7.09152e-12
-2.27563e-07
3.15172e-10
-2.4094e-12
-2.27362e-07
4.59328e-12
-2.27171e-07
3.34648e-10
-2.75845e-10
-3.57862e-11
-2.2718e-07
2.85109e-10
-3.51266e-10
1.01144e-10
-2.27371e-07
-3.4794e-10
6.1827e-11
-2.27571e-07
-2.97176e-10
5.49312e-11
-2.27763e-07
-2.16141e-10
6.83243e-11
-2.27947e-07
-1.26203e-10
9.17423e-11
-2.28037e-07
-1.63567e-11
8.61035e-11
-2.28169e-07
9.73729e-11
8.64679e-11
-2.28165e-07
1.949e-10
9.32447e-11
-2.28031e-07
2.88822e-10
7.23059e-11
-2.2794e-07
3.56236e-10
6.25747e-11
-2.27753e-07
3.77754e-10
7.3588e-11
-2.27561e-07
3.20507e-10
1.18301e-10
-2.27359e-07
-1.22401e-11
-2.27168e-07
3.44943e-10
-3.21128e-10
-7.38059e-11
-2.27102e-07
3.92646e-10
-3.43499e-10
1.84231e-10
-2.27303e-07
-3.27874e-10
1.14055e-10
-2.27473e-07
-2.82391e-10
9.97398e-11
-2.27647e-07
-2.11645e-10
1.25005e-10
-2.27817e-07
-1.2862e-10
1.7367e-10
-2.27901e-07
-1.52074e-11
1.75359e-10
-2.28034e-07
1.02585e-10
1.76018e-10
-2.28031e-07
1.93541e-10
1.77105e-10
-2.27895e-07
2.77769e-10
1.31337e-10
-2.27809e-07
3.40259e-10
1.09921e-10
-2.27636e-07
3.73161e-10
1.28306e-10
-2.27462e-07
3.64928e-10
2.02895e-10
-2.27291e-07
-4.85824e-11
-2.2709e-07
4.45102e-10
-3.07475e-10
-8.28561e-11
-2.27069e-07
4.24704e-10
-2.67637e-10
2.4639e-10
-2.27285e-07
-2.42646e-10
1.64239e-10
-2.27421e-07
-2.10041e-10
1.44395e-10
-2.27578e-07
-1.6252e-10
1.7695e-10
-2.2773e-07
-1.03974e-10
2.4962e-10
-2.27814e-07
-1.32671e-11
2.62517e-10
-2.27942e-07
8.18717e-11
2.63757e-10
-2.27939e-07
1.48689e-10
2.55898e-10
-2.27808e-07
2.09905e-10
1.86802e-10
-2.27721e-07
2.59726e-10
1.57794e-10
-2.27567e-07
3.01766e-10
1.81404e-10
-2.27409e-07
3.55063e-10
2.6628e-10
-2.27273e-07
-5.68856e-11
-2.27057e-07
4.80322e-10
-3.59759e-10
2.36861e-11
-2.27012e-07
4.73946e-10
-2.68786e-10
3.28565e-10
-2.2722e-07
-2.14894e-10
2.26139e-10
-2.2733e-07
-1.76174e-10
1.94784e-10
-2.27458e-07
-1.35654e-10
2.21805e-10
-2.27576e-07
-8.87604e-11
3.08347e-10
-2.27642e-07
-1.10414e-11
3.27446e-10
-2.27756e-07
7.11642e-11
3.2931e-10
-2.27752e-07
1.26748e-10
3.17176e-10
-2.27635e-07
1.80658e-10
2.3501e-10
-2.27567e-07
2.36079e-10
2.10514e-10
-2.27447e-07
3.05208e-10
2.45617e-10
-2.27318e-07
4.06934e-10
3.4884e-10
-2.27208e-07
4.82273e-11
-2.27e-07
5.28219e-10
-4.81575e-10
3.59068e-10
-2.26985e-07
4.95027e-10
-3.32815e-10
4.41839e-10
-2.27171e-07
-2.46741e-10
3.24794e-10
-2.27261e-07
-1.94815e-10
2.64448e-10
-2.27328e-07
-1.48654e-10
2.64746e-10
-2.27417e-07
-9.43778e-11
3.4307e-10
-2.27467e-07
-7.93407e-12
3.50313e-10
-2.27563e-07
8.23147e-11
3.52909e-10
-2.27559e-07
1.45317e-10
3.53505e-10
-2.2746e-07
2.03891e-10
2.80353e-10
-2.27408e-07
2.71246e-10
2.81159e-10
-2.27318e-07
3.70509e-10
3.45578e-10
-2.27249e-07
5.28725e-10
4.61034e-10
-2.2716e-07
3.76937e-10
-2.26973e-07
5.50993e-10
-5.96058e-10
8.71984e-10
-2.26829e-07
5.37994e-10
-4.47059e-10
6.07675e-10
-2.27065e-07
-3.47678e-10
4.90849e-10
-2.2717e-07
-2.75311e-10
3.74275e-10
-2.27216e-07
-2.18044e-10
3.26385e-10
-2.2728e-07
-1.33657e-10
3.43017e-10
-2.27295e-07
-4.70724e-12
2.97111e-10
-2.27362e-07
1.26963e-10
3.01226e-10
-2.27358e-07
2.19856e-10
3.53536e-10
-2.27288e-07
2.88204e-10
3.42329e-10
-2.27271e-07
3.74027e-10
3.89433e-10
-2.27206e-07
4.85191e-10
5.09758e-10
-2.27159e-07
6.4239e-10
6.23793e-10
-2.27054e-07
8.80839e-10
-2.26818e-07
5.89007e-10
-8.49402e-10
-2.26783e-07
1.0237e-09
9.9458e-10
-3.53193e-10
-2.26827e-07
5.68012e-10
-3.80205e-11
-2.26981e-07
5.31161e-10
5.7404e-11
-2.27007e-07
5.11775e-10
4.28007e-11
-2.27062e-07
4.67454e-10
6.93332e-12
-2.27093e-07
4.37172e-10
7.26057e-13
-2.27169e-07
3.2901e-10
-4.94415e-12
-2.27165e-07
3.3553e-10
-3.42124e-11
-2.27087e-07
4.46954e-10
-3.89222e-11
-2.27054e-07
4.81408e-10
6.7844e-11
-2.26998e-07
5.2377e-10
3.93898e-10
-2.26972e-07
5.46148e-10
8.93756e-10
-2.26817e-07
5.81181e-10
-2.26775e-07
1.03858e-09
1.02887e-09
-9.89866e-10
-9.90075e-10
-2.25185e-07
8.02813e-10
8.04416e-10
-5.05789e-10
-8.93779e-10
-2.25235e-07
4.53446e-10
-2.82393e-10
-9.62426e-10
-2.25286e-07
7.54335e-10
-1.62425e-10
-1.00677e-09
-2.25291e-07
9.42687e-10
-1.15273e-10
-1.04821e-09
-2.25309e-07
1.02706e-09
-7.9141e-11
-1.10518e-09
-2.25339e-07
1.07231e-09
-7.66292e-12
-1.09253e-09
-2.25432e-07
1.01076e-09
6.75096e-11
-1.09513e-09
-2.2543e-07
1.01419e-09
1.11185e-10
-1.10852e-09
-2.25335e-07
1.0775e-09
1.67295e-10
-1.05159e-09
-2.25304e-07
1.03502e-09
2.98211e-10
-1.00843e-09
-2.25284e-07
9.49528e-10
5.30964e-10
-9.68312e-10
-2.25277e-07
7.67461e-10
1.01775e-09
-8.97085e-10
-2.25223e-07
4.68986e-10
-9.96554e-10
-2.25175e-07
8.1869e-10
8.35279e-10
-8.94261e-10
-5.06313e-10
-2.25236e-07
4.52916e-10
-8.82214e-10
-8.80699e-10
-2.2535e-07
-7.72336e-10
-9.02492e-10
-2.2544e-07
-6.14322e-10
-9.5383e-10
-2.25484e-07
-4.46317e-10
-1.01225e-09
-2.25534e-07
-2.50083e-10
-1.09845e-09
-2.25552e-07
-9.36228e-12
-1.11356e-09
-2.25638e-07
2.35334e-10
-1.11594e-09
-2.25636e-07
4.38643e-10
-1.10065e-09
-2.25548e-07
6.14225e-10
-1.01243e-09
-2.2553e-07
7.80929e-10
-9.51493e-10
-2.25479e-07
8.9817e-10
-9.02476e-10
-2.25433e-07
9.18607e-10
-8.77855e-10
-2.25343e-07
-5.11355e-10
-2.25226e-07
4.87546e-10
-9.6476e-10
-2.83868e-10
-2.25289e-07
7.55409e-10
-9.0548e-10
-7.71925e-10
-2.25441e-07
-7.75768e-10
-7.74078e-10
-2.25538e-07
-6.00045e-10
-8.1931e-10
-2.25606e-07
-4.22644e-10
-8.76734e-10
-2.25679e-07
-2.34992e-10
-9.60168e-10
-2.25727e-07
-8.8018e-12
-9.70258e-10
-2.25845e-07
2.19994e-10
-9.7215e-10
-2.25843e-07
4.13274e-10
-9.61763e-10
-2.25724e-07
5.98143e-10
-8.75284e-10
-2.25676e-07
7.82985e-10
-8.14559e-10
-2.25602e-07
9.20906e-10
-7.69587e-10
-2.25532e-07
9.87633e-10
-7.65121e-10
-2.25434e-07
-2.80813e-10
-2.25282e-07
7.82484e-10
-1.00671e-09
-1.65575e-10
-2.25295e-07
9.39709e-10
-9.56159e-10
-6.14882e-10
-2.25487e-07
-8.22351e-10
-5.99435e-10
-2.25608e-07
-6.30634e-10
-6.27394e-10
-2.25751e-07
-4.2655e-10
-6.6987e-10
-2.25863e-07
-2.3021e-10
-7.41493e-10
-2.2591e-07
-8.88701e-12
-7.44632e-10
-2.26028e-07
2.14706e-10
-7.4585e-10
-2.26025e-07
4.16042e-10
-7.42223e-10
-2.25907e-07
6.27746e-10
-6.67e-10
-2.2586e-07
8.29222e-10
-6.20782e-10
-2.25747e-07
9.72138e-10
-5.91442e-10
-2.25604e-07
1.03015e-09
-6.03852e-10
-2.25482e-07
-1.54073e-10
-2.25289e-07
9.67447e-10
-1.04785e-09
-1.20582e-10
-2.25316e-07
1.02411e-09
-1.01416e-09
-4.48741e-10
-2.2554e-07
-8.79653e-10
-4.23988e-10
-2.25685e-07
-6.73427e-10
-4.24826e-10
-2.25865e-07
-4.63476e-10
-4.61022e-10
-2.25985e-07
-2.55223e-10
-5.21003e-10
-2.26045e-07
-7.98291e-12
-5.21617e-10
-2.26179e-07
2.41492e-10
-5.21937e-10
-2.26177e-07
4.54525e-10
-5.20213e-10
-2.26042e-07
6.72443e-10
-4.56298e-10
-2.25982e-07
8.88914e-10
-4.15458e-10
-2.25862e-07
1.03299e-09
-4.11613e-10
-2.25681e-07
1.07361e-09
-4.32247e-10
-2.25535e-07
-1.00851e-10
-2.25309e-07
1.05315e-09
-1.09931e-09
-8.57701e-11
-2.25347e-07
1.06266e-09
-1.09606e-09
-2.5356e-10
-2.2556e-07
-9.59915e-10
-2.37327e-10
-2.25736e-07
-7.43669e-10
-2.30396e-10
-2.25914e-07
-5.2309e-10
-2.55165e-10
-2.26048e-07
-2.91884e-10
-2.91907e-10
-2.26108e-07
-7.18028e-12
-2.95579e-10
-2.26246e-07
2.80115e-10
-2.94982e-10
-2.26244e-07
5.16131e-10
-2.89094e-10
-2.26105e-07
7.44425e-10
-2.4837e-10
-2.26044e-07
9.71112e-10
-2.18818e-10
-2.25911e-07
1.11803e-09
-2.2193e-10
-2.25733e-07
1.12926e-09
-2.33458e-10
-2.25555e-07
-6.0386e-11
-2.25341e-07
1.09592e-09
-1.08992e-09
-1.64377e-11
-2.25442e-07
1.006e-09
-1.11275e-09
-1.4911e-11
-2.25648e-07
-9.70694e-10
-1.30118e-11
-2.25856e-07
-7.47736e-10
-1.23163e-11
-2.26033e-07
-5.24904e-10
-1.1779e-11
-2.26183e-07
-2.96491e-10
-1.07922e-11
-2.26248e-07
-7.65494e-12
-1.13319e-11
-2.26388e-07
2.85099e-10
-1.05084e-11
-2.26386e-07
5.20415e-10
-7.00756e-12
-2.26244e-07
7.54247e-10
-4.63251e-12
-2.2618e-07
9.90838e-10
-3.32671e-13
-2.2603e-07
1.14664e-09
4.17625e-12
-2.25853e-07
1.13226e-09
9.74998e-12
-2.25644e-07
1.66975e-11
-2.25437e-07
1.04858e-09
-1.085e-09
6.1894e-11
-2.25441e-07
9.97235e-10
-1.11064e-09
2.3082e-10
-2.25647e-07
-9.69948e-10
2.15852e-10
-2.25855e-07
-7.47334e-10
2.08713e-10
-2.26033e-07
-5.24369e-10
2.34052e-10
-2.26183e-07
-2.95551e-10
2.73049e-10
-2.26248e-07
-6.14618e-12
2.76102e-10
-2.26388e-07
2.87484e-10
2.77244e-10
-2.26386e-07
5.23296e-10
2.78586e-10
-2.26245e-07
7.57171e-10
2.42585e-10
-2.26181e-07
9.93778e-10
2.21467e-10
-2.2603e-07
1.15039e-09
2.32373e-10
-2.25852e-07
1.13885e-09
2.51901e-10
-2.25644e-07
8.95359e-11
-2.25436e-07
1.05977e-09
-1.09672e-09
1.06518e-10
-2.25345e-07
1.05913e-09
-1.09393e-09
4.33109e-10
-2.25559e-07
-9.5834e-10
4.07976e-10
-2.25736e-07
-7.42844e-10
4.07107e-10
-2.25914e-07
-5.22723e-10
4.43308e-10
-2.26048e-07
-2.90588e-10
5.05319e-10
-2.26109e-07
-3.81152e-12
5.06034e-10
-2.26247e-07
2.87582e-10
5.07458e-10
-2.26245e-07
5.26741e-10
5.12435e-10
-2.26105e-07
7.57173e-10
4.53708e-10
-2.26044e-07
9.85613e-10
4.21655e-10
-2.2591e-07
1.13439e-09
4.26517e-10
-2.25733e-07
1.14605e-09
4.53738e-10
-2.25555e-07
1.32109e-10
-2.25341e-07
1.11048e-09
-1.04166e-09
1.65779e-10
-2.25313e-07
1.01563e-09
-1.0093e-09
6.0875e-10
-2.25539e-07
-8.76402e-10
5.9157e-10
-2.25685e-07
-6.71389e-10
6.16373e-10
-2.25867e-07
-4.61863e-10
6.57454e-10
-2.25987e-07
-2.52196e-10
7.30158e-10
-2.26047e-07
-2.25671e-12
7.34112e-10
-2.26182e-07
2.52288e-10
7.35963e-10
-2.2618e-07
4.6963e-10
7.39071e-10
-2.26043e-07
6.90422e-10
6.69912e-10
-2.25983e-07
9.09052e-10
6.32418e-10
-2.25862e-07
1.05451e-09
6.1101e-10
-2.25682e-07
1.09385e-09
6.28004e-10
-2.25535e-07
1.87271e-10
-2.2531e-07
1.06774e-09
-1.00339e-09
3.011e-10
-2.25292e-07
9.34131e-10
-9.52882e-10
7.7653e-10
-2.25487e-07
-8.19698e-10
7.76e-10
-2.2561e-07
-6.28316e-10
8.18223e-10
-2.25755e-07
-4.23604e-10
8.73341e-10
-2.25867e-07
-2.24955e-10
9.56803e-10
-2.25913e-07
3.15433e-13
9.67836e-10
-2.2603e-07
2.30354e-10
9.69946e-10
-2.26028e-07
4.3732e-10
9.66809e-10
-2.25908e-07
6.53125e-10
8.86796e-10
-2.25861e-07
8.57501e-10
8.33753e-10
-2.25749e-07
1.00131e-09
7.93416e-10
-2.25604e-07
1.05566e-09
7.91781e-10
-2.25481e-07
3.14868e-10
-2.25289e-07
9.84257e-10
-9.65033e-10
5.39282e-10
-2.25284e-07
7.51215e-10
-9.06417e-10
8.9784e-10
-2.25439e-07
-7.76985e-10
9.1613e-10
-2.25539e-07
-6.0162e-10
9.64789e-10
-2.25609e-07
-4.2248e-10
1.02162e-09
-2.25684e-07
-2.30117e-10
1.10843e-09
-2.25733e-07
3.59256e-12
1.12429e-09
-2.25851e-07
2.40943e-10
1.1269e-09
-2.25848e-07
4.41253e-10
1.11833e-09
-2.25728e-07
6.30079e-10
1.03449e-09
-2.25678e-07
8.16223e-10
9.77376e-10
-2.25602e-07
9.53622e-10
9.29383e-10
-2.25532e-07
1.0138e-09
9.07006e-10
-2.25434e-07
5.46572e-10
-2.25283e-07
7.9643e-10
-8.9834e-10
1.02817e-09
-2.2523e-07
4.62159e-10
-8.84917e-10
9.23165e-10
-2.25347e-07
-7.75577e-10
9.88636e-10
-2.25438e-07
-6.17368e-10
1.03083e-09
-2.25484e-07
-4.46911e-10
1.07171e-09
-2.25536e-07
-2.44672e-10
1.12884e-09
-2.25555e-07
6.90507e-12
1.11489e-09
-2.25641e-07
2.60078e-10
1.11905e-09
-2.25638e-07
4.692e-10
1.13678e-09
-2.25549e-07
6.47486e-10
1.08088e-09
-2.25529e-07
8.14146e-10
1.03664e-09
-2.25476e-07
9.29213e-10
9.93787e-10
-2.2543e-07
9.42541e-10
9.23706e-10
-2.25341e-07
1.02703e-09
-2.25228e-07
4.99015e-10
-9.9651e-10
-2.25179e-07
8.51012e-10
8.12067e-10
-5.17345e-10
-2.2523e-07
4.99654e-10
-2.93525e-10
-2.25284e-07
7.95398e-10
-1.70102e-10
-2.2529e-07
9.80938e-10
-1.17641e-10
-2.25308e-07
1.06515e-09
-7.29971e-11
-2.25338e-07
1.10881e-09
1.17219e-11
-2.25431e-07
1.0419e-09
9.47194e-11
-2.25427e-07
1.04887e-09
1.43492e-10
-2.25332e-07
1.11289e-09
2.01247e-10
-2.253e-07
1.06689e-09
3.29096e-10
-2.25281e-07
9.76397e-10
5.56597e-10
-2.25276e-07
7.88399e-10
1.03807e-09
-2.25224e-07
4.87136e-10
-2.25175e-07
8.46887e-10
8.33312e-10
-8.92504e-10
-8.99841e-10
-2.23393e-07
2.16762e-10
2.08126e-10
-5.84184e-10
-1.11974e-09
-2.23484e-07
-2.86219e-11
-4.72527e-10
-1.40489e-09
-2.23435e-07
7.4411e-10
-3.90566e-10
-1.64162e-09
-2.23383e-07
1.25008e-09
-3.05809e-10
-1.82846e-09
-2.23348e-07
1.57439e-09
-1.85377e-10
-1.9433e-09
-2.23365e-07
1.73229e-09
-2.37204e-12
-2.01832e-09
-2.23468e-07
1.77132e-09
1.83472e-10
-2.01952e-09
-2.23466e-07
1.77413e-09
3.10994e-10
-1.94393e-09
-2.2336e-07
1.73293e-09
4.03171e-10
-1.83204e-09
-2.23343e-07
1.57931e-09
4.93365e-10
-1.64243e-09
-2.23376e-07
1.25142e-09
6.10795e-10
-1.4102e-09
-2.23427e-07
7.51589e-10
9.22702e-10
-1.12303e-09
-2.23475e-07
-2.11092e-11
-9.08416e-10
-2.23388e-07
2.29144e-10
2.36634e-10
-1.11158e-09
-5.90928e-10
-2.23486e-07
-3.6633e-11
-1.38592e-09
-1.39486e-09
-2.23415e-07
-1.31337e-09
-1.57202e-09
-2.23502e-07
-1.07546e-09
-1.72459e-09
-2.23504e-07
-7.67268e-10
-1.85978e-09
-2.23514e-07
-4.12673e-10
-1.9628e-09
-2.23511e-07
-4.18475e-12
-2.06045e-09
-2.23594e-07
4.09207e-10
-2.06191e-09
-2.23593e-07
7.71466e-10
-1.96331e-09
-2.23507e-07
1.08655e-09
-1.86247e-09
-2.2351e-07
1.33202e-09
-1.72534e-09
-2.23499e-07
1.41002e-09
-1.57564e-09
-2.23496e-07
1.13889e-09
-1.39681e-09
-2.23411e-07
-5.9691e-10
-2.23483e-07
-7.54186e-12
-1.40066e-09
-4.82763e-10
-2.23438e-07
7.43442e-10
-1.56528e-09
-1.32549e-09
-2.23502e-07
-1.40991e-09
-1.4208e-09
-2.23587e-07
-1.0965e-09
-1.51439e-09
-2.23603e-07
-7.50302e-10
-1.63846e-09
-2.23589e-07
-3.96184e-10
-1.74105e-09
-2.23593e-07
-4.22972e-12
-1.85079e-09
-2.23698e-07
3.91544e-10
-1.85202e-09
-2.23696e-07
7.5246e-10
-1.74108e-09
-2.23591e-07
1.10656e-09
-1.64028e-09
-2.23587e-07
1.42813e-09
-1.51434e-09
-2.23601e-07
1.58918e-09
-1.42193e-09
-2.23584e-07
1.42684e-09
-1.32427e-09
-2.23499e-07
-4.82912e-10
-2.23437e-07
7.666e-10
-1.63877e-09
-4.03602e-10
-2.23385e-07
1.24949e-09
-1.72007e-09
-1.0897e-09
-2.23505e-07
-1.50647e-09
-1.1104e-09
-2.23605e-07
-1.17071e-09
-1.18251e-09
-2.23653e-07
-8.03713e-10
-1.30612e-09
-2.23675e-07
-4.24774e-10
-1.40269e-09
-2.23679e-07
-5.43384e-12
-1.49762e-09
-2.23787e-07
4.18127e-10
-1.49858e-09
-2.23786e-07
8.04838e-10
-1.40209e-09
-2.23678e-07
1.18056e-09
-1.30671e-09
-2.23674e-07
1.52593e-09
-1.18115e-09
-2.23652e-07
1.74642e-09
-1.10859e-09
-2.23604e-07
1.66767e-09
-1.08445e-09
-2.23505e-07
-3.96768e-10
-2.23385e-07
1.27491e-09
-1.82758e-09
-3.21059e-10
-2.23352e-07
1.57727e-09
-1.85603e-09
-7.82837e-10
-2.23517e-07
-1.6315e-09
-7.65315e-10
-2.23593e-07
-1.29511e-09
-8.17646e-10
-2.23677e-07
-9.05537e-10
-9.19075e-10
-2.23733e-07
-4.80747e-10
-1.00349e-09
-2.23742e-07
-5.43985e-12
-1.07674e-09
-2.23858e-07
4.74223e-10
-1.07694e-09
-2.23857e-07
9.06592e-10
-1.00101e-09
-2.23741e-07
1.30587e-09
-9.1708e-10
-2.23732e-07
1.65281e-09
-8.13121e-10
-2.23678e-07
1.88434e-09
-7.58734e-10
-2.23593e-07
1.85802e-09
-7.71444e-10
-2.23517e-07
-3.06815e-10
-2.23352e-07
1.60396e-09
-1.94057e-09
-1.99209e-10
-2.2337e-07
1.73172e-09
-1.95867e-09
-4.25668e-10
-2.23514e-07
-1.73465e-09
-4.09526e-10
-2.23598e-07
-1.39253e-09
-4.37954e-10
-2.23682e-07
-9.90666e-10
-4.94847e-10
-2.23744e-07
-5.2859e-10
-5.42327e-10
-2.23748e-07
-4.94047e-12
-5.83916e-10
-2.23859e-07
5.23058e-10
-5.82556e-10
-2.23858e-07
9.92699e-10
-5.36588e-10
-2.23747e-07
1.40404e-09
-4.88299e-10
-2.23743e-07
1.75719e-09
-4.279e-10
-2.23683e-07
1.98872e-09
-3.96832e-10
-2.23599e-07
1.97331e-09
-4.07899e-10
-2.23514e-07
-1.77326e-10
-2.23369e-07
1.76091e-09
-2.01807e-09
-1.50089e-11
-2.23475e-07
1.77511e-09
-2.05741e-09
-1.40767e-11
-2.236e-07
-1.84443e-09
-1.37556e-11
-2.23706e-07
-1.48669e-09
-1.62508e-11
-2.23791e-07
-1.06325e-09
-1.79092e-11
-2.23861e-07
-5.69419e-10
-1.79986e-11
-2.2386e-07
-5.60816e-12
-2.0857e-11
-2.23975e-07
5.62943e-10
-1.91478e-11
-2.23973e-07
1.0658e-09
-1.19226e-11
-2.23859e-07
1.50162e-09
-9.27996e-12
-2.2386e-07
1.87472e-09
-2.77989e-12
-2.23793e-07
2.09866e-09
5.16496e-12
-2.23708e-07
2.0628e-09
1.13693e-11
-2.23601e-07
1.74365e-11
-2.23478e-07
1.81404e-09
-2.01364e-09
1.79552e-10
-2.23475e-07
1.76623e-09
-2.05572e-09
4.0517e-10
-2.236e-07
-1.84372e-09
3.87461e-10
-2.23706e-07
-1.48583e-09
4.11128e-10
-2.23792e-07
-1.06177e-09
4.64918e-10
-2.23861e-07
-5.67267e-10
5.12706e-10
-2.23861e-07
-3.04088e-12
5.49803e-10
-2.23976e-07
5.65761e-10
5.5138e-10
-2.23975e-07
1.06863e-09
5.19891e-10
-2.2386e-07
1.50463e-09
4.76059e-10
-2.23861e-07
1.87805e-09
4.27408e-10
-2.23793e-07
2.10306e-09
4.08432e-10
-2.23708e-07
2.06896e-09
4.29065e-10
-2.23601e-07
2.08314e-10
-2.23478e-07
1.82277e-09
-1.9394e-09
3.13015e-10
-2.2337e-07
1.72874e-09
-1.95845e-09
7.71441e-10
-2.23516e-07
-1.73556e-09
7.51614e-10
-2.236e-07
-1.39287e-09
8.01096e-10
-2.23685e-07
-9.89032e-10
8.98889e-10
-2.23747e-07
-5.24602e-10
9.83446e-10
-2.23751e-07
1.27603e-12
1.05242e-09
-2.23862e-07
5.32734e-10
1.05458e-09
-2.23862e-07
1.00545e-09
9.93739e-10
-2.23749e-07
1.4191e-09
9.14841e-10
-2.23746e-07
1.77343e-09
8.22847e-10
-2.23686e-07
2.00426e-09
7.76415e-10
-2.23602e-07
1.98747e-09
7.96292e-10
-2.23517e-07
3.3965e-10
-2.23373e-07
1.77141e-09
-1.82934e-09
4.10295e-10
-2.23351e-07
1.57558e-09
-1.85983e-09
1.09092e-09
-2.23518e-07
-1.63713e-09
1.109e-09
-2.23594e-07
-1.29963e-09
1.17886e-09
-2.2368e-07
-9.06812e-10
1.29978e-09
-2.23736e-07
-4.77707e-10
1.39636e-09
-2.23746e-07
2.49648e-12
1.48763e-09
-2.23862e-07
4.88103e-10
1.49003e-09
-2.23861e-07
9.25993e-10
1.40836e-09
-2.23744e-07
1.32931e-09
1.3182e-09
-2.23735e-07
1.67815e-09
1.2025e-09
-2.23681e-07
1.90762e-09
1.13487e-09
-2.23596e-07
1.87677e-09
1.11513e-09
-2.2352e-07
4.32225e-10
-2.23356e-07
1.61383e-09
-1.644e-09
5.04875e-10
-2.23384e-07
1.25145e-09
-1.72652e-09
1.34014e-09
-2.23507e-07
-1.51373e-09
1.43292e-09
-2.23607e-07
-1.17747e-09
1.5254e-09
-2.23657e-07
-8.063e-10
1.64908e-09
-2.23682e-07
-4.19809e-10
1.75246e-09
-2.23685e-07
7.16828e-12
1.86101e-09
-2.23793e-07
4.38904e-10
1.86344e-09
-2.23791e-07
8.33755e-10
1.76488e-09
-2.23683e-07
1.21343e-09
1.66782e-09
-2.2368e-07
1.55819e-09
1.54698e-09
-2.23656e-07
1.77486e-09
1.45608e-09
-2.23607e-07
1.68866e-09
1.35884e-09
-2.23508e-07
5.18322e-10
-2.23389e-07
1.28363e-09
-1.41321e-09
6.27037e-10
-2.23434e-07
7.5038e-10
-1.57868e-09
1.42251e-09
-2.23502e-07
-1.4227e-09
1.59762e-09
-2.23589e-07
-1.10677e-09
1.74971e-09
-2.23607e-07
-7.54298e-10
1.88543e-09
-2.23595e-07
-3.91333e-10
1.99024e-09
-2.23599e-07
1.25931e-11
2.08843e-09
-2.23705e-07
4.18916e-10
2.09131e-09
-2.23704e-07
7.87579e-10
2.00139e-09
-2.23596e-07
1.14544e-09
1.90179e-09
-2.23591e-07
1.46606e-09
1.76556e-09
-2.23604e-07
1.62172e-09
1.61382e-09
-2.23588e-07
1.44917e-09
1.43001e-09
-2.23502e-07
6.27294e-10
-2.23441e-07
7.73734e-10
-1.12786e-09
9.42087e-10
-2.23482e-07
-2.217e-11
-1.40215e-09
1.15602e-09
-2.23414e-07
-1.32834e-09
1.44087e-09
-2.23502e-07
-1.0871e-09
1.67842e-09
-2.23505e-07
-7.71904e-10
1.86772e-09
-2.23517e-07
-4.06259e-10
1.98486e-09
-2.23513e-07
1.74073e-11
2.059e-09
-2.23598e-07
4.40145e-10
2.06338e-09
-2.23596e-07
8.09324e-10
1.992e-09
-2.2351e-07
1.12692e-09
1.87703e-09
-2.23513e-07
1.36844e-09
1.68315e-09
-2.23501e-07
1.43599e-09
1.44526e-09
-2.23498e-07
1.15224e-09
1.14922e-09
-2.23414e-07
9.24425e-10
-2.23487e-07
-7.37126e-12
-9.07958e-10
-2.2339e-07
2.59232e-10
2.23115e-10
-5.99449e-10
-2.23483e-07
1.46506e-11
-4.87548e-10
-2.23437e-07
7.88603e-10
-4.01266e-10
-2.23384e-07
1.29592e-09
-3.0903e-10
-2.23349e-07
1.62466e-09
-1.77073e-10
-2.23365e-07
1.78494e-09
2.18003e-11
-2.23468e-07
1.81876e-09
2.16337e-10
-2.23466e-07
1.82583e-09
3.49169e-10
-2.23361e-07
1.78399e-09
4.40871e-10
-2.23344e-07
1.62015e-09
5.2225e-10
-2.23378e-07
1.28272e-09
6.24862e-10
-2.23431e-07
7.73921e-10
9.22495e-10
-2.23481e-07
-1.0791e-11
-2.23392e-07
2.30751e-10
2.28153e-10
-5.19836e-10
-5.28524e-10
-2.21318e-07
-7.85403e-10
-7.98425e-10
-5.1151e-10
-1.16423e-09
-2.21427e-07
-8.24047e-10
-6.014e-10
-1.74088e-09
-2.21278e-07
4.37453e-10
-6.13329e-10
-2.24023e-09
-2.21102e-07
1.34057e-09
-5.10763e-10
-2.63093e-09
-2.20937e-07
1.94902e-09
-2.97093e-10
-2.81342e-09
-2.2088e-07
2.2402e-09
3.76515e-12
-3.03508e-09
-2.20939e-07
2.45043e-09
3.05608e-10
-3.03817e-09
-2.20938e-07
2.4564e-09
5.24227e-10
-2.81584e-09
-2.20875e-07
2.23997e-09
6.31376e-10
-2.63915e-09
-2.20931e-07
1.95379e-09
6.23387e-10
-2.24705e-09
-2.21093e-07
1.34154e-09
5.35364e-10
-1.75355e-09
-2.2127e-07
4.45066e-10
5.42516e-10
-1.17503e-09
-2.21419e-07
-8.14595e-10
-5.40303e-10
-2.21315e-07
-7.71585e-10
-7.83226e-10
-1.15271e-09
-5.21503e-10
-2.2143e-07
-8.34312e-10
-1.8018e-09
-1.81827e-09
-2.21208e-07
-1.88124e-09
-2.26108e-09
-2.21183e-07
-1.60705e-09
-2.61457e-09
-2.21027e-07
-1.19047e-09
-2.86199e-09
-2.20891e-07
-6.43233e-10
-2.9706e-09
-2.20826e-07
7.47142e-13
-3.19274e-09
-2.20877e-07
6.50053e-10
-3.19663e-09
-2.20875e-07
1.20426e-09
-2.97489e-09
-2.20822e-07
1.62692e-09
-2.87179e-09
-2.20886e-07
1.90722e-09
-2.62427e-09
-2.21022e-07
1.82977e-09
-2.27493e-09
-2.21179e-07
1.17852e-09
-1.82856e-09
-2.21205e-07
-5.28812e-10
-2.21432e-07
-8.13576e-10
-1.73245e-09
-6.19046e-10
-2.21281e-07
4.35067e-10
-2.24602e-09
-1.90507e-09
-2.21183e-07
-2.17142e-09
-2.1947e-09
-2.21124e-07
-1.75233e-09
-2.42718e-09
-2.20968e-07
-1.21972e-09
-2.60924e-09
-2.2079e-07
-6.18518e-10
-2.67747e-09
-2.20715e-07
-1.95209e-12
-2.86208e-09
-2.20772e-07
6.20715e-10
-2.86649e-09
-2.20771e-07
1.23016e-09
-2.68313e-09
-2.20713e-07
1.77101e-09
-2.61988e-09
-2.20786e-07
2.19877e-09
-2.43798e-09
-2.20964e-07
2.27755e-09
-2.20745e-09
-2.21122e-07
1.76213e-09
-1.91199e-09
-2.21183e-07
-6.21415e-10
-2.21284e-07
4.5797e-10
-2.23559e-09
-6.36337e-10
-2.21101e-07
1.34074e-09
-2.60324e-09
-1.63581e-09
-2.21027e-07
-2.40748e-09
-1.78151e-09
-2.20968e-07
-1.91607e-09
-1.94286e-09
-2.20823e-07
-1.34786e-09
-2.11197e-09
-2.2067e-07
-6.8913e-10
-2.18121e-09
-2.20607e-07
-4.18481e-12
-2.31688e-09
-2.20684e-07
6.86619e-10
-2.32103e-09
-2.20682e-07
1.35537e-09
-2.18646e-09
-2.20605e-07
1.93377e-09
-2.12173e-09
-2.20667e-07
2.4364e-09
-1.95288e-09
-2.20821e-07
2.63917e-09
-1.79182e-09
-2.20967e-07
2.27084e-09
-1.63938e-09
-2.21027e-07
-6.33662e-10
-2.21104e-07
1.3682e-09
-2.63026e-09
-5.3586e-10
-2.20937e-07
1.95509e-09
-2.85377e-09
-1.22191e-09
-2.20889e-07
-2.59203e-09
-1.25213e-09
-2.20789e-07
-2.08622e-09
-1.37883e-09
-2.2067e-07
-1.47627e-09
-1.50754e-09
-2.20584e-07
-7.67247e-10
-1.56729e-09
-2.20532e-07
-2.62256e-12
-1.64681e-09
-2.20616e-07
7.6274e-10
-1.64961e-09
-2.20615e-07
1.47937e-09
-1.56875e-09
-2.2053e-07
2.10333e-09
-1.51111e-09
-2.2058e-07
2.62139e-09
-1.38457e-09
-2.20668e-07
2.89155e-09
-1.25828e-09
-2.20788e-07
2.66917e-09
-1.22167e-09
-2.20889e-07
-5.28845e-10
-2.20938e-07
1.9865e-09
-2.81301e-09
-3.19262e-10
-2.2088e-07
2.2475e-09
-2.96375e-09
-6.69625e-10
-2.20822e-07
-2.66301e-09
-6.4653e-10
-2.20714e-07
-2.15671e-09
-7.18054e-10
-2.20607e-07
-1.53604e-09
-7.97458e-10
-2.20531e-07
-8.16787e-10
-8.46791e-10
-2.20473e-07
-2.90101e-12
-8.91785e-10
-2.20554e-07
8.11868e-10
-8.93002e-10
-2.20553e-07
1.539e-09
-8.44461e-10
-2.20472e-07
2.17501e-09
-7.94822e-10
-2.20529e-07
2.69564e-09
-7.13573e-10
-2.20607e-07
3.00456e-09
-6.41619e-10
-2.20713e-07
2.85471e-09
-6.59553e-10
-2.20822e-07
-3.04092e-10
-2.2088e-07
2.28043e-09
-3.03481e-09
-1.46836e-11
-2.2094e-07
2.46149e-09
-3.18409e-09
-1.86865e-11
-2.20874e-07
-2.84622e-09
-2.12043e-11
-2.20772e-07
-2.29105e-09
-2.62497e-11
-2.20683e-07