/*--------------------------------*- C++ -*----------------------------------*\
| =========                 |                                                 |
| \\      /  F ield         | OpenFOAM: The Open Source CFD Toolbox           |
|  \\    /   O peration     | Version:  v2106                                 |
|   \\  /    A nd           | Website:  www.openfoam.com                      |
|    \\/     M anipulation  |                                                 |
\*---------------------------------------------------------------------------*/
FoamFile
{
    version     2.0;
    format      ascii;
    arch        "LSB;label=32;scalar=64";
    class       surfaceScalarField;
    location    "0.000171";
    object      phi;
}
// * * * * * * * * * * * * * * * * * * * * * * * * * * * * * * * * * * * * * //

dimensions      [1 0 -1 0 0 0 0];

internalField   nonuniform List<scalar> 
52246
(
-1.14492e-08
1.49784e-08
8.55311e-07
-1.66127e-08
1.56155e-08
8.55453e-07
-1.78511e-08
-1.27913e-08
-1.10017e-08
1.28732e-08
8.54957e-07
1.2905e-08
8.55306e-07
-1.20548e-08
-1.10355e-08
1.07281e-08
8.54911e-07
1.03235e-08
8.55199e-07
-1.24133e-08
-1.1144e-08
8.46706e-09
8.54886e-07
7.90958e-09
8.55155e-07
-1.27992e-08
-1.14533e-08
6.10213e-09
8.54883e-07
5.56409e-09
8.55093e-07
-1.32492e-08
-1.16248e-08
3.61486e-09
8.54872e-07
3.21545e-09
8.55032e-07
-1.34654e-08
-1.17661e-08
1.08964e-09
8.54891e-07
9.04178e-10
8.54995e-07
-1.36675e-08
-1.19196e-08
-1.38154e-09
8.54884e-07
-1.34778e-09
8.54998e-07
-1.38732e-08
-1.20365e-08
-3.72614e-09
8.54856e-07
-3.53494e-09
8.55038e-07
-1.4009e-08
-1.20291e-08
-5.8744e-09
8.54854e-07
-5.62328e-09
8.55101e-07
-1.40394e-08
-1.19131e-08
-7.85781e-09
8.54852e-07
-7.68226e-09
8.55154e-07
-1.38859e-08
-1.18679e-08
-9.64498e-09
8.54863e-07
-9.72991e-09
8.55165e-07
-1.3728e-08
-1.18955e-08
-1.135e-08
8.54864e-07
-1.17983e-08
8.55229e-07
-1.35324e-08
-1.2501e-08
8.5519e-07
-1.23872e-08
8.55388e-07
-1.47893e-08
-1.31082e-08
1.1963e-08
1.10102e-08
8.06716e-07
-1.21508e-08
-1.33297e-08
9.83568e-09
1.04514e-08
8.06385e-07
-1.09957e-08
8.06595e-09
1.03761e-08
8.06149e-07
-1.1386e-08
6.40407e-09
1.04104e-08
8.0601e-07
-1.16324e-08
4.76682e-09
1.06183e-08
8.05871e-07
-1.19468e-08
3.05676e-09
1.07863e-08
8.05782e-07
-1.2088e-08
1.29152e-09
1.08762e-08
8.05701e-07
-1.21503e-08
-4.2831e-10
1.09973e-08
8.05696e-07
-1.23069e-08
-2.09237e-09
1.10613e-08
8.05773e-07
-1.23893e-08
-3.66877e-09
1.10826e-08
8.05865e-07
-1.24431e-08
-5.20532e-09
1.10446e-08
8.05989e-07
-1.23642e-08
-6.75792e-09
1.10466e-08
8.06096e-07
-1.22555e-08
-8.55198e-09
1.12356e-08
8.06282e-07
-1.2091e-08
1.18653e-08
8.06579e-07
-1.35253e-08
-9.42099e-09
1.14644e-08
9.04416e-09
8.06383e-07
-1.21086e-08
1.00153e-08
9.10274e-09
8.05932e-07
8.55654e-09
8.9064e-09
8.05775e-07
6.92974e-09
8.99708e-09
8.05655e-07
5.19004e-09
9.22764e-09
8.05564e-07
3.34065e-09
9.45309e-09
8.0552e-07
1.43952e-09
9.56552e-09
8.05479e-07
-4.23933e-10
9.65555e-09
8.0547e-07
-2.2154e-09
9.68067e-09
8.05501e-07
-3.85286e-09
9.6013e-09
8.05529e-07
-5.33309e-09
9.48838e-09
8.05609e-07
-6.64783e-09
9.42354e-09
8.05711e-07
-7.91069e-09
9.67681e-09
8.05846e-07
9.56286e-09
8.06257e-07
-8.29277e-09
1.13823e-08
7.43273e-09
8.06187e-07
-1.24797e-08
9.81078e-09
7.77567e-09
8.0579e-07
8.25053e-09
7.44614e-09
8.05687e-07
6.60162e-09
7.51415e-09
8.05526e-07
4.927e-09
7.68107e-09
8.05418e-07
3.22988e-09
7.87609e-09
8.05335e-07
1.51495e-09
7.96771e-09
8.05254e-07
-1.77272e-10
8.03704e-09
8.05245e-07
-1.82818e-09
8.05568e-09
8.05313e-07
-3.41823e-09
7.96421e-09
8.05381e-07
-4.94197e-09
7.86436e-09
8.05474e-07
-6.36548e-09
7.79669e-09
8.05607e-07
-7.76266e-09
8.12678e-09
8.05684e-07
7.68472e-09
8.06028e-07
-8.67119e-09
1.14187e-08
5.89957e-09
8.06053e-07
-1.26643e-08
9.91648e-09
6.3011e-09
8.05666e-07
8.35214e-09
5.90671e-09
8.05532e-07
6.69759e-09
5.94592e-09
8.0534e-07
5.01121e-09
6.05278e-09
8.05224e-07
3.30724e-09
6.20696e-09
8.05145e-07
1.58017e-09
6.28077e-09
8.05076e-07
-1.29173e-10
6.33163e-09
8.05067e-07
-1.78792e-09
6.33377e-09
8.05122e-07
-3.39852e-09
6.24544e-09
8.05181e-07
-4.95184e-09
6.16746e-09
8.05283e-07
-6.40523e-09
6.10168e-09
8.05447e-07
-7.77218e-09
6.44953e-09
8.05562e-07
5.9628e-09
8.05896e-07
-8.92311e-09
1.15103e-08
4.35403e-09
8.05913e-07
-1.28018e-08
1.00839e-08
4.68594e-09
8.05583e-07
8.49626e-09
4.3243e-09
8.05437e-07
6.81187e-09
4.33817e-09
8.05238e-07
5.08863e-09
4.39003e-09
8.05114e-07
3.35788e-09
4.49091e-09
8.05027e-07
1.61427e-09
4.53376e-09
8.04949e-07
-1.15767e-10
4.56862e-09
8.04938e-07
-1.8086e-09
4.56787e-09
8.04999e-07
-3.4748e-09
4.50502e-09
8.05069e-07
-5.09312e-09
4.45787e-09
8.05181e-07
-6.61579e-09
4.3998e-09
8.05357e-07
-7.97047e-09
4.68245e-09
8.0549e-07
4.28429e-09
8.05781e-07
-9.23123e-09
1.15497e-08
2.74837e-09
8.05794e-07
-1.28218e-08
1.02116e-08
2.93721e-09
8.05522e-07
8.62042e-09
2.69913e-09
8.05333e-07
6.92616e-09
2.69005e-09
8.05139e-07
5.17637e-09
2.70281e-09
8.05006e-07
3.41595e-09
2.75399e-09
8.0492e-07
1.64062e-09
2.77016e-09
8.04842e-07
-1.26856e-10
2.79503e-09
8.04832e-07
-1.86435e-09
2.79669e-09
8.04894e-07
-3.5808e-09
2.76349e-09
8.04965e-07
-5.24044e-09
2.73832e-09
8.05085e-07
-6.79601e-09
2.68418e-09
8.0526e-07
-8.09093e-09
2.80974e-09
8.05435e-07
2.53976e-09
8.05685e-07
-9.32632e-09
1.15698e-08
1.0876e-09
8.05733e-07
-1.28123e-08
1.02815e-08
1.11329e-09
8.05512e-07
8.68597e-09
1.04863e-09
8.05286e-07
6.98765e-09
1.01391e-09
8.05106e-07
5.21979e-09
9.99995e-10
8.04965e-07
3.44225e-09
1.00261e-09
8.04879e-07
1.6524e-09
9.92526e-10
8.048e-07
-1.30122e-10
1.00925e-09
8.04791e-07
-1.88909e-09
1.01779e-09
8.04854e-07
-3.6324e-09
1.01627e-09
8.04926e-07
-5.30908e-09
1.00373e-09
8.05053e-07
-6.88504e-09
9.584e-10
8.05218e-07
-8.16034e-09
8.94003e-10
8.05431e-07
7.73819e-10
8.05638e-07
-9.40452e-09
1.15295e-08
-5.92161e-10
8.05727e-07
-1.27641e-08
1.02618e-08
-7.41602e-10
8.05509e-07
8.68027e-09
-6.25118e-10
8.05284e-07
6.99413e-09
-6.83896e-10
8.05106e-07
5.23654e-09
-7.20613e-10
8.04965e-07
3.46513e-09
-7.60101e-10
8.0488e-07
1.68021e-09
-7.92828e-10
8.04801e-07
-1.01052e-10
-7.7903e-10
8.04791e-07
-1.86869e-09
-7.53749e-10
8.04854e-07
-3.6284e-09
-7.17002e-10
8.04928e-07
-5.32879e-09
-7.09821e-10
8.05055e-07
-6.93568e-09
-7.38026e-10
8.05224e-07
-8.25314e-09
-9.78559e-10
8.05437e-07
-9.34739e-10
8.05656e-07
-9.5536e-09
1.13679e-08
-2.25691e-09
8.0578e-07
-1.262e-08
1.00912e-08
-2.58525e-09
8.0552e-07
8.54366e-09
-2.321e-09
8.0533e-07
6.8879e-09
-2.3928e-09
8.05138e-07
5.17012e-09
-2.45584e-09
8.05005e-07
3.42864e-09
-2.52575e-09
8.04919e-07
1.66668e-09
-2.57415e-09
8.04841e-07
-1.00187e-10
-2.55472e-09
8.04832e-07
-1.86469e-09
-2.49987e-09
8.04893e-07
-3.62576e-09
-2.41831e-09
8.04969e-07
-5.34433e-09
-2.37513e-09
8.0509e-07
-6.96893e-09
-2.38814e-09
8.05277e-07
-8.34348e-09
-2.76767e-09
8.05452e-07
-2.58798e-09
8.0573e-07
-9.66689e-09
1.12152e-08
-3.90595e-09
8.05882e-07
-1.24544e-08
9.90103e-09
-4.35616e-09
8.05578e-07
8.38696e-09
-4.00866e-09
8.05437e-07
6.76717e-09
-4.0875e-09
8.05237e-07
5.10053e-09
-4.1869e-09
8.05112e-07
3.40624e-09
-4.28185e-09
8.05025e-07
1.6882e-09
-4.34312e-09
8.04947e-07
-3.83997e-11
-4.31454e-09
8.04936e-07
-1.76812e-09
-4.22279e-09
8.04996e-07
-3.49674e-09
-4.09134e-09
8.05071e-07
-5.20287e-09
-3.9925e-09
8.05181e-07
-6.83718e-09
-3.97406e-09
8.05373e-07
-8.32483e-09
-4.38968e-09
8.05509e-07
-4.13082e-09
8.05847e-07
-9.71126e-09
1.1046e-08
-5.57528e-09
8.06017e-07
-1.22163e-08
9.69522e-09
-6.02711e-09
8.05674e-07
8.2352e-09
-5.67916e-09
8.05543e-07
6.67258e-09
-5.75927e-09
8.05347e-07
5.06145e-09
-5.888e-09
8.05227e-07
3.40588e-09
-5.98874e-09
8.05148e-07
1.71176e-09
-6.0454e-09
8.05073e-07
4.05825e-12
-6.00196e-09
8.05061e-07
-1.70156e-09
-5.8787e-09
8.05114e-07
-3.39753e-09
-5.705e-09
8.05181e-07
-5.07586e-09
-5.54694e-09
8.05284e-07
-6.69583e-09
-5.48747e-09
8.05463e-07
-8.25789e-09
-5.85219e-09
8.05591e-07
-5.62398e-09
8.05971e-07
-9.61865e-09
1.09916e-08
-7.3767e-09
8.06153e-07
-1.19505e-08
9.59208e-09
-7.55304e-09
8.05797e-07
8.16961e-09
-7.2858e-09
8.05706e-07
6.64849e-09
-7.36012e-09
8.05538e-07
5.07107e-09
-7.50582e-09
8.05427e-07
3.43741e-09
-7.595e-09
8.05343e-07
1.76059e-09
-7.63852e-09
8.05255e-07
6.58249e-11
-7.57502e-09
8.05239e-07
-1.63094e-09
-7.41896e-09
8.053e-07
-3.31957e-09
-7.2065e-09
8.05371e-07
-4.99411e-09
-6.98966e-09
8.05465e-07
-6.61606e-09
-6.89031e-09
8.05614e-07
-8.23336e-09
-7.15378e-09
8.05709e-07
-7.14255e-09
8.06081e-07
-9.47041e-09
1.11391e-08
-9.55422e-09
8.06401e-07
-1.16208e-08
9.82692e-09
-9.04073e-09
8.05961e-07
8.53162e-09
-8.89902e-09
8.05812e-07
7.08193e-09
-8.90504e-09
8.05674e-07
5.47283e-09
-8.96415e-09
8.0557e-07
3.70565e-09
-8.9411e-09
8.05526e-07
1.84201e-09
-8.91298e-09
8.05467e-07
-4.91633e-11
-8.82142e-09
8.0545e-07
-1.90612e-09
-8.67482e-09
8.05476e-07
-3.67666e-09
-8.50219e-09
8.05498e-07
-5.34346e-09
-8.31746e-09
8.05581e-07
-6.88937e-09
-8.24791e-09
8.05694e-07
-8.41999e-09
-8.41353e-09
8.0584e-07
-8.95013e-09
8.0626e-07
-9.24171e-09
1.16857e-08
8.06771e-07
-1.10315e-08
-1.27244e-08
9.74356e-09
8.06408e-07
-9.7007e-09
8.1855e-09
8.06207e-07
-1.00592e-08
6.69515e-09
8.06067e-07
-1.02137e-08
5.16661e-09
8.05909e-07
-1.03011e-08
3.54763e-09
8.05794e-07
-1.02297e-08
1.84645e-09
8.05687e-07
-1.01463e-08
1.21998e-10
8.05666e-07
-1.00335e-08
-1.56878e-09
8.05725e-07
-9.8957e-09
-3.22432e-09
8.05797e-07
-9.715e-09
-4.8934e-09
8.05914e-07
-9.45239e-09
-6.7037e-09
8.06031e-07
-9.159e-09
-8.9331e-09
8.06242e-07
-8.81306e-09
8.06591e-07
-1.0568e-08
-9.8314e-09
6.52392e-09
5.97073e-09
7.62096e-07
-6.64944e-09
-7.16052e-09
5.20276e-09
5.43439e-09
7.61703e-07
-5.43015e-09
4.38449e-09
5.08804e-09
7.61459e-07
-5.63989e-09
3.65626e-09
5.0806e-09
7.613e-07
-5.75472e-09
2.92265e-09
5.16851e-09
7.61154e-07
-5.87149e-09
2.11097e-09
5.29651e-09
7.61051e-07
-5.93019e-09
1.22146e-09
5.31307e-09
7.60967e-07
-5.87702e-09
3.4836e-10
5.36554e-09
7.60953e-07
-5.9356e-09
-4.85307e-10
5.40571e-09
7.61021e-07
-5.99413e-09
-1.24679e-09
5.39918e-09
7.61112e-07
-6.04088e-09
-1.98987e-09
5.41324e-09
7.61223e-07
-6.03892e-09
-2.81172e-09
5.44806e-09
7.61331e-07
-5.97036e-09
-4.02643e-09
5.91508e-09
7.61508e-07
-6.00156e-09
6.36068e-09
7.61804e-07
-7.21427e-09
-4.49003e-09
6.17531e-09
4.61325e-09
7.61732e-07
-6.08955e-09
5.47326e-09
4.73094e-09
7.61351e-07
4.76829e-09
4.34879e-09
7.61155e-07
3.9793e-09
4.39654e-09
7.60994e-07
3.12874e-09
4.51589e-09
7.60878e-07
2.23071e-09
4.68329e-09
7.60809e-07
1.29389e-09
4.7359e-09
7.60761e-07
3.67891e-10
4.78832e-09
7.60742e-07
-5.25193e-10
4.81142e-09
7.60766e-07
-1.33862e-09
4.74251e-09
7.60797e-07
-2.06481e-09
4.69788e-09
7.60875e-07
-2.72082e-09
4.68399e-09
7.60988e-07
-3.35835e-09
5.15872e-09
7.6113e-07
4.96104e-09
7.61422e-07
-3.24945e-09
5.82085e-09
3.78144e-09
7.61537e-07
-6.2816e-09
5.07081e-09
4.07615e-09
7.61184e-07
4.34266e-09
3.64498e-09
7.61026e-07
3.59047e-09
3.68075e-09
7.60833e-07
2.83419e-09
3.76969e-09
7.60706e-07
2.0872e-09
3.91769e-09
7.606e-07
1.33209e-09
3.97108e-09
7.60517e-07
5.85625e-10
4.02249e-09
7.60497e-07
-1.4504e-10
4.04556e-09
7.60551e-07
-8.6617e-10
3.98193e-09
7.60616e-07
-1.56941e-09
3.94908e-09
7.607e-07
-2.24875e-09
3.93511e-09
7.60839e-07
-2.92747e-09
4.419e-09
7.60938e-07
4.1076e-09
7.61196e-07
-3.40728e-09
5.83887e-09
3.07215e-09
7.61394e-07
-6.42606e-09
5.14218e-09
3.36846e-09
7.61037e-07
4.40995e-09
2.94012e-09
7.60853e-07
3.64997e-09
2.96164e-09
7.60631e-07
2.88353e-09
3.02242e-09
7.60496e-07
2.12985e-09
3.14635e-09
7.60394e-07
1.37092e-09
3.19738e-09
7.6032e-07
6.23261e-10
3.24318e-09
7.603e-07
-1.0041e-10
3.25591e-09
7.60339e-07
-8.19447e-10
3.20074e-09
7.60394e-07
-1.52963e-09
3.1849e-09
7.60486e-07
-2.21936e-09
3.17654e-09
7.60649e-07
-2.85735e-09
3.62143e-09
7.60778e-07
3.36643e-09
7.61045e-07
-3.4715e-09
5.87988e-09
2.36509e-09
7.61254e-07
-6.48535e-09
5.2443e-09
2.5893e-09
7.60939e-07
4.49539e-09
2.23915e-09
7.60747e-07
3.71571e-09
2.25045e-09
7.60519e-07
2.92861e-09
2.2828e-09
7.60377e-07
2.16216e-09
2.37096e-09
7.60266e-07
1.39875e-09
2.40573e-09
7.60183e-07
6.45774e-10
2.44433e-09
7.6016e-07
-9.09328e-11
2.45606e-09
7.60204e-07
-8.3399e-10
2.42146e-09
7.60269e-07
-1.57224e-09
2.42404e-09
7.60367e-07
-2.29263e-09
2.42118e-09
7.6054e-07
-2.9018e-09
2.76859e-09
7.60682e-07
2.61613e-09
7.60921e-07
-3.53814e-09
5.93695e-09
1.61213e-09
7.61125e-07
-6.50159e-09
5.35824e-09
1.75025e-09
7.60859e-07
4.60014e-09
1.54308e-09
7.6063e-07
3.81177e-09
1.5451e-09
7.60406e-07
3.00604e-09
1.55765e-09
7.60255e-07
2.2174e-09
1.60873e-09
7.60143e-07
1.42805e-09
1.62658e-09
7.60058e-07
6.45569e-10
1.65867e-09
7.60035e-07
-1.22184e-10
1.67135e-09
7.6008e-07
-8.93665e-10
1.65809e-09
7.60145e-07
-1.64838e-09
1.66811e-09
7.60251e-07
-2.38069e-09
1.66413e-09
7.60422e-07
-2.94369e-09
1.85356e-09
7.60602e-07
1.77542e-09
7.60807e-07
-3.50605e-09
5.9772e-09
8.20646e-10
7.61055e-07
-6.50584e-09
5.4194e-09
8.89934e-10
7.60835e-07
4.6504e-09
8.55114e-10
7.60575e-07
3.85827e-09
8.41497e-10
7.60365e-07
3.04053e-09
8.40091e-10
7.60206e-07
2.24084e-09
8.5019e-10
7.60095e-07
1.44183e-09
8.4758e-10
7.60008e-07
6.49964e-10
8.70454e-10
7.59985e-07
-1.29758e-10
8.84864e-10
7.6003e-07
-9.13648e-10
8.95042e-10
7.60097e-07
-1.66885e-09
9.04469e-10
7.6021e-07
-2.39792e-09
8.95776e-10
7.60372e-07
-2.92068e-09
8.91427e-10
7.60583e-07
8.58432e-10
7.60749e-07
-3.4242e-09
5.9882e-09
4.28372e-11
7.61031e-07
-6.53505e-09
5.42756e-09
3.33472e-11
7.60812e-07
4.6595e-09
1.69129e-10
7.60557e-07
3.87207e-09
1.36435e-10
7.60352e-07
3.06081e-09
1.19576e-10
7.60194e-07
2.26668e-09
8.88426e-11
7.60084e-07
1.47369e-09
6.44076e-11
7.59996e-07
6.86265e-10
7.79277e-11
7.59973e-07
-9.46484e-11
9.79958e-11
7.60017e-07
-8.83641e-10
1.35751e-10
7.60085e-07
-1.64625e-09
1.48382e-10
7.60198e-07
-2.38487e-09
1.37779e-10
7.60363e-07
-2.91876e-09
-5.87962e-11
7.60573e-07
-3.7525e-11
7.60755e-07
-3.44834e-09
5.88471e-09
-6.98314e-10
7.61064e-07
-6.47661e-09
5.31571e-09
-8.21729e-10
7.60809e-07
4.56902e-09
-5.37444e-10
7.60585e-07
3.79984e-09
-5.81396e-10
7.60369e-07
3.01461e-09
-6.16543e-10
7.60219e-07
2.23975e-09
-6.78966e-10
7.60109e-07
1.462e-09
-7.2052e-10
7.60024e-07
6.84947e-10
-7.12099e-10
7.60001e-07
-9.2622e-11
-6.7978e-10
7.60044e-07
-8.81702e-10
-6.1205e-10
7.60112e-07
-1.65621e-09
-5.87227e-10
7.60219e-07
-2.40586e-09
-6.01158e-10
7.60401e-07
-2.97522e-09
-9.66563e-10
7.60578e-07
-8.87841e-10
7.60813e-07
-3.53889e-09
5.77554e-09
-1.39448e-09
7.61141e-07
-6.40973e-09
5.17716e-09
-1.64364e-09
7.60852e-07
4.44907e-09
-1.25292e-09
7.60676e-07
3.70156e-09
-1.30895e-09
7.60454e-07
2.95236e-09
-1.37245e-09
7.60315e-07
2.21272e-09
-1.46136e-09
7.60207e-07
1.47091e-09
-1.51696e-09
7.60124e-07
7.2971e-10
-1.51172e-09
7.601e-07
-1.65264e-11
-1.46328e-09
7.60141e-07
-7.77784e-10
-1.36563e-09
7.60208e-07
-1.53886e-09
-1.3192e-09
7.60303e-07
-2.28788e-09
-1.32608e-09
7.6049e-07
-2.93319e-09
-1.78162e-09
7.6063e-07
-1.63988e-09
7.60923e-07
-3.57912e-09
5.69443e-09
-2.07653e-09
7.61244e-07
-6.33167e-09
5.06283e-09
-2.42085e-09
7.60937e-07
4.36131e-09
-1.97484e-09
7.60768e-07
3.64241e-09
-2.04228e-09
7.60552e-07
2.92242e-09
-2.13155e-09
7.60419e-07
2.20172e-09
-2.23314e-09
7.6032e-07
1.47124e-09
-2.29036e-09
7.6024e-07
7.41362e-10
-2.28623e-09
7.60216e-07
1.033e-11
-2.22787e-09
7.60251e-07
-7.3014e-10
-2.10928e-09
7.60307e-07
-1.47482e-09
-2.03974e-09
7.60396e-07
-2.21989e-09
-2.02707e-09
7.60571e-07
-2.93256e-09
-2.50171e-09
7.60709e-07
-2.35106e-09
7.61034e-07
-3.58451e-09
5.65238e-09
-2.86038e-09
7.61358e-07
-6.17335e-09
4.98576e-09
-3.1511e-09
7.61064e-07
4.31091e-09
-2.70224e-09
7.60929e-07
3.61743e-09
-2.77253e-09
7.6074e-07
2.91375e-09
-2.87721e-09
7.60617e-07
2.20084e-09
-2.98085e-09
7.60516e-07
1.47858e-09
-3.03768e-09
7.60424e-07
7.58395e-10
-3.03599e-09
7.60396e-07
3.5377e-11
-2.96872e-09
7.60438e-07
-6.96507e-10
-2.83122e-09
7.60497e-07
-1.43622e-09
-2.73469e-09
7.60578e-07
-2.18504e-09
-2.69712e-09
7.60728e-07
-2.94371e-09
-3.15401e-09
7.6084e-07
-3.12854e-09
7.61143e-07
-3.50137e-09
6.05504e-09
-4.14159e-09
7.61575e-07
-6.05475e-09
5.38679e-09
-3.86109e-09
7.61236e-07
4.75289e-09
-3.45918e-09
7.61058e-07
4.05999e-09
-3.48269e-09
7.60894e-07
3.27528e-09
-3.51731e-09
7.60776e-07
2.40733e-09
-3.54731e-09
7.60712e-07
1.49944e-09
-3.56896e-09
7.60643e-07
5.93946e-10
-3.57195e-09
7.60614e-07
-2.90573e-10
-3.52359e-09
7.60625e-07
-1.1339e-09
-3.41811e-09
7.60639e-07
-1.92902e-09
-3.35243e-09
7.60713e-07
-2.68393e-09
-3.34244e-09
7.60835e-07
-3.4294e-09
-3.79353e-09
7.60987e-07
-4.32292e-09
7.61311e-07
-3.52746e-09
6.52719e-09
7.6195e-07
-4.83048e-09
-7.14108e-09
5.20449e-09
7.61566e-07
-3.79125e-09
4.42591e-09
7.61374e-07
-3.97587e-09
3.74921e-09
7.61229e-07
-4.11948e-09
3.0456e-09
7.61073e-07
-4.15243e-09
2.26608e-09
7.60946e-07
-4.11534e-09
1.42587e-09
7.60834e-07
-4.08196e-09
5.93076e-10
7.60803e-07
-4.09663e-09
-1.84847e-10
7.60844e-07
-4.09717e-09
-9.02537e-10
7.60901e-07
-4.04195e-09
-1.6045e-09
7.60995e-07
-3.97452e-09
-2.41311e-09
7.61098e-07
-3.84184e-09
-3.72775e-09
7.61282e-07
-3.76501e-09
7.61628e-07
-4.55915e-09
-4.79479e-09
8.60235e-10
8.51588e-10
7.20777e-07
-1.15747e-09
-8.11499e-10
5.68573e-10
5.65122e-10
7.20474e-07
-3.74037e-10
6.91376e-10
-3.11108e-11
7.20353e-07
-1.66514e-10
8.79337e-10
-4.9239e-11
7.20271e-07
-1.71037e-10
1.0427e-09
-6.27955e-11
7.20182e-07
-1.04236e-10
1.11839e-09
2.21766e-12
7.20106e-07
-6.40903e-11
1.10258e-09
-3.38148e-11
7.20041e-07
6.99504e-11
1.04798e-09
-6.8163e-11
7.20014e-07
1.32493e-10
1.01091e-09
-9.06784e-11
7.20051e-07
1.27283e-10
1.0282e-09
-1.53804e-10
7.20101e-07
1.23105e-10
1.04268e-09
-1.51272e-10
7.20143e-07
9.20239e-11
9.45762e-10
-1.53852e-10
7.20164e-07
1.55876e-10
4.92405e-10
5.53022e-10
7.20224e-07
-2.25679e-10
7.07726e-10
7.20417e-07
-7.78003e-10
3.00366e-10
7.60507e-10
3.21134e-10
7.20505e-07
-3.31447e-10
8.10064e-10
5.00092e-10
7.20236e-07
8.52278e-10
-4.48303e-11
7.2013e-07
9.18136e-10
-3.24189e-11
7.20035e-07
9.88782e-10
-1.47073e-11
7.19967e-07
1.05224e-09
7.70328e-11
7.19927e-07
1.09203e-09
7.12347e-11
7.19897e-07
1.09761e-09
6.66714e-11
7.19867e-07
1.07821e-09
5.97162e-11
7.19862e-07
1.0604e-09
-1.40732e-11
7.19853e-07
1.03216e-09
-3.3273e-11
7.19871e-07
9.60517e-10
-4.74611e-11
7.19901e-07
9.23081e-10
5.86742e-10
7.19938e-07
4.00953e-10
7.20105e-07
1.15083e-09
1.5629e-10
2.56324e-10
7.20415e-07
-1.40858e-10
2.52117e-10
4.48063e-10
7.20153e-07
3.52263e-10
-4.91348e-11
7.20098e-07
5.02726e-10
-3.82679e-11
7.19979e-07
6.79914e-10
-1.63302e-11
7.19907e-07
8.77902e-10
7.57415e-11
7.19834e-07
1.07071e-09
8.32738e-11
7.19772e-07
1.24417e-09
9.47206e-11
7.19742e-07
1.39384e-09
1.00193e-10
7.19763e-07
1.51052e-09
4.75687e-11
7.19787e-07
1.58012e-09
4.86714e-11
7.19806e-07
1.57644e-09
5.40591e-11
7.19857e-07
1.58758e-09
6.22644e-10
7.19839e-07
5.25401e-10
7.20005e-07
1.41334e-09
2.01814e-10
3.19269e-10
7.20344e-07
-2.54466e-10
3.13555e-10
4.45415e-10
7.2007e-07
3.93621e-10
2.81258e-11
7.19995e-07
5.18589e-10
3.34994e-11
7.19852e-07
6.74671e-10
5.26584e-11
7.1977e-07
8.68152e-10
1.32901e-10
7.197e-07
1.07016e-09
1.48123e-10
7.19647e-07
1.26288e-09
1.67958e-10
7.19616e-07
1.43439e-09
1.77396e-10
7.19624e-07
1.56273e-09
1.45434e-10
7.19638e-07
1.63722e-09
1.70842e-10
7.19664e-07
1.64005e-09
2.02714e-10
7.19737e-07
1.68104e-09
6.83808e-10
7.1974e-07
7.10119e-10
7.19921e-07
1.48667e-09
2.31972e-10
3.90664e-10
7.20259e-07
-2.52743e-10
3.71933e-10
4.60663e-10
7.20017e-07
4.35336e-10
1.63055e-10
7.1994e-07
5.38926e-10
1.6592e-10
7.1979e-07
6.78402e-10
1.79813e-10
7.19702e-07
8.66774e-10
2.41206e-10
7.19625e-07
1.07484e-09
2.56764e-10
7.19563e-07
1.27926e-09
2.81048e-10
7.1953e-07
1.46089e-09
2.93443e-10
7.19541e-07
1.59018e-09
2.81365e-10
7.19563e-07
1.66327e-09
3.22771e-10
7.19593e-07
1.67194e-09
3.72462e-10
7.19676e-07
1.74483e-09
7.41617e-10
7.19687e-07
8.49266e-10
7.19843e-07
1.61762e-09
3.24331e-10
4.18511e-10
7.20163e-07
-2.78457e-10
4.80298e-10
4.87842e-10
7.19967e-07
5.2801e-10
3.4173e-10
7.19856e-07
6.12094e-10
3.49982e-10
7.19708e-07
7.31112e-10
3.64545e-10
7.19612e-07
9.00535e-10
4.06813e-10
7.19534e-07
1.09147e-09
4.1966e-10
7.19471e-07
1.28086e-09
4.45782e-10
7.19438e-07
1.4497e-09
4.59834e-10
7.19449e-07
1.56874e-09
4.62902e-10
7.19468e-07
1.6399e-09
5.02811e-10
7.19505e-07
1.66249e-09
5.45843e-10
7.19584e-07
1.77967e-09
7.69378e-10
7.19628e-07
8.76984e-10
7.19745e-07
1.77993e-09
3.98262e-10
4.20381e-10
7.20106e-07
-3.18952e-10
5.45645e-10
5.37256e-10
7.19955e-07
5.77951e-10
5.53141e-10
7.19817e-07
6.49327e-10
5.7083e-10
7.19682e-07
7.55584e-10
5.90321e-10
7.1958e-07
9.14863e-10
6.09805e-10
7.19504e-07
1.09867e-09
6.13401e-10
7.19439e-07
1.28508e-09
6.3512e-10
7.19406e-07
1.45436e-09
6.4892e-10
7.19416e-07
1.5782e-09
6.6541e-10
7.19436e-07
1.66154e-09
6.93203e-10
7.19477e-07
1.70265e-09
7.13966e-10
7.19546e-07
1.85291e-09
7.71163e-10
7.19617e-07
8.16256e-10
7.19695e-07
1.94719e-09
4.84691e-10
4.66714e-10
7.20075e-07
-4.37002e-10
6.03747e-10
6.22965e-10
7.1992e-07
6.18256e-10
7.9152e-10
7.19786e-07
6.79997e-10
8.12979e-10
7.19655e-07
7.82089e-10
8.32827e-10
7.19554e-07
9.39966e-10
8.24778e-10
7.19479e-07
1.12605e-09
8.13166e-10
7.19414e-07
1.31921e-09
8.24946e-10
7.1938e-07
1.49604e-09
8.37856e-10
7.19389e-07
1.62785e-09
8.68602e-10
7.19408e-07
1.71987e-09
8.83001e-10
7.19449e-07
1.7701e-09
8.7769e-10
7.1952e-07
1.94319e-09
7.50505e-10
7.19589e-07
7.27302e-10
7.19683e-07
2.05835e-09
4.61683e-10
5.72262e-10
7.20083e-07
-4.80473e-10
5.75992e-10
7.12029e-10
7.19888e-07
5.92275e-10
1.02358e-09
7.19783e-07
6.56162e-10
1.04324e-09
7.19641e-07
7.63747e-10
1.05638e-09
7.19545e-07
9.24401e-10
1.0228e-09
7.1947e-07
1.11311e-09
9.97403e-10
7.19405e-07
1.31059e-09
9.98589e-10
7.19371e-07
1.49038e-09
1.01073e-09
7.19379e-07
1.62413e-09
1.05404e-09
7.19399e-07
1.7173e-09
1.05576e-09
7.19434e-07
1.76898e-09
1.02829e-09
7.19521e-07
1.94917e-09
7.16268e-10
7.19558e-07
6.67225e-10
7.19705e-07
2.02818e-09
4.15232e-10
7.66127e-10
7.20114e-07
-5.41784e-10
5.10262e-10
8.11526e-10
7.19884e-07
5.27898e-10
1.24502e-09
7.19824e-07
6.02214e-10
1.24448e-09
7.19677e-07
7.27856e-10
1.23533e-09
7.19591e-07
9.06352e-10
1.17387e-09
7.19516e-07
1.11477e-09
1.13406e-09
7.19452e-07
1.33572e-09
1.12218e-09
7.19417e-07
1.539e-09
1.13177e-09
7.19424e-07
1.69514e-09
1.18584e-09
7.19444e-07
1.80988e-09
1.17914e-09
7.19469e-07
1.87509e-09
1.14698e-09
7.19562e-07
2.03521e-09
6.94688e-10
7.19563e-07
6.85513e-10
7.19769e-07
2.02885e-09
4.50136e-10
1.01673e-09
7.20146e-07
-6.46373e-10
5.11033e-10
9.18626e-10
7.19901e-07
5.17984e-10
1.44974e-09
7.19842e-07
5.93481e-10
1.41388e-09
7.19702e-07
7.22055e-10
1.37375e-09
7.19621e-07
8.96876e-10
1.28426e-09
7.19554e-07
1.09754e-09
1.23041e-09
7.19492e-07
1.31473e-09
1.19931e-09
7.19457e-07
1.52078e-09
1.19955e-09
7.19459e-07
1.6878e-09
1.26019e-09
7.1947e-07
1.82097e-09
1.24675e-09
7.19491e-07
1.89532e-09
1.22536e-09
7.19572e-07
2.02351e-09
6.7472e-10
7.19576e-07
7.27091e-10
7.19809e-07
1.96681e-09
4.30603e-10
1.21392e-09
7.20157e-07
-6.14761e-10
4.75465e-10
9.83182e-10
7.19934e-07
4.95218e-10
1.58625e-09
7.19904e-07
5.86714e-10
1.52032e-09
7.19788e-07
7.21949e-10
1.45831e-09
7.19718e-07
8.8796e-10
1.35142e-09
7.19651e-07
1.0724e-09
1.28465e-09
7.19577e-07
1.27837e-09
1.22461e-09
7.1954e-07
1.48337e-09
1.20678e-09
7.19551e-07
1.66683e-09
1.26495e-09
7.19564e-07
1.82786e-09
1.24233e-09
7.19578e-07
1.92202e-09
1.23493e-09
7.19637e-07
2.03696e-09
6.10655e-10
7.19617e-07
6.72217e-10
7.19825e-07
2.02019e-09
1.08731e-09
1.05637e-09
7.20226e-07
-9.65505e-10
1.04921e-09
1.07303e-09
7.19989e-07
1.01074e-09
1.7254e-09
7.199e-07
1.01568e-09
1.66209e-09
7.19805e-07
1.01761e-09
1.62646e-09
7.19736e-07
1.01571e-09
1.53455e-09
7.19705e-07
1.02899e-09
1.45641e-09
7.19652e-07
1.07469e-09
1.35584e-09
7.19615e-07
1.1292e-09
1.31411e-09
7.19599e-07
1.18503e-09
1.35129e-09
7.19569e-07
1.23804e-09
1.30231e-09
7.19581e-07
1.24657e-09
1.28306e-09
7.19617e-07
1.27917e-09
5.77491e-10
7.19656e-07
2.67748e-10
7.19872e-07
1.56381e-09
1.30343e-09
7.20455e-07
1.17057e-09
-1.59846e-09
8.15985e-10
7.20183e-07
1.51015e-09
7.84215e-10
7.20104e-07
1.74449e-09
8.6343e-10
7.20035e-07
1.6091e-09
9.26192e-10
7.19935e-07
1.61085e-09
9.25383e-10
7.19845e-07
1.59595e-09
8.89593e-10
7.19751e-07
1.55829e-09
8.954e-10
7.1972e-07
1.41727e-09
9.71744e-10
7.19736e-07
1.28994e-09
1.12896e-09
7.19753e-07
1.21686e-09
1.33038e-09
7.19782e-07
1.09355e-09
1.476e-09
7.19795e-07
1.08125e-09
1.26096e-09
7.19838e-07
6.88981e-10
7.20067e-07
1.22139e-09
5.97886e-11
-3.08282e-09
-2.75631e-09
6.81894e-07
2.75266e-09
3.60953e-09
-2.59524e-09
-2.6469e-09
6.81836e-07
2.79484e-09
-1.88876e-09
-3.4124e-09
6.81849e-07
3.44979e-09
-1.12154e-09
-3.38146e-09
6.81886e-07
3.46397e-09
-3.71571e-10
-3.44743e-09
6.8188e-07
3.64166e-09
3.00137e-10
-3.41666e-09
6.81851e-07
3.74183e-09
8.67473e-10
-3.50087e-09
6.81809e-07
3.92925e-09
1.371e-09
-3.58607e-09
6.81776e-07
4.0592e-09
1.85614e-09
-3.66082e-09
6.81776e-07
4.11626e-09
2.35443e-09
-3.77898e-09
6.81763e-07
4.15015e-09
2.82847e-09
-3.81267e-09
6.81719e-07
4.11097e-09
3.20389e-09
-3.9079e-09
6.81631e-07
4.22336e-09
3.37431e-09
-3.06956e-09
6.81571e-07
3.49242e-09
-3.22721e-09
6.81561e-07
3.69265e-09
3.40354e-09
-2.89723e-09
-2.58542e-09
6.81833e-07
3.35393e-09
-2.41906e-09
-2.36824e-09
6.8175e-07
-1.94191e-09
-3.01717e-09
6.81765e-07
-1.33645e-09
-3.00717e-09
6.81795e-07
-6.49039e-10
-3.05508e-09
6.81818e-07
8.67826e-11
-3.01029e-09
6.81836e-07
7.97341e-10
-3.06074e-09
6.81836e-07
1.45791e-09
-3.1068e-09
6.81803e-07
2.04358e-09
-3.13988e-09
6.81759e-07
2.53179e-09
-3.23493e-09
6.8168e-07
2.90589e-09
-3.2562e-09
6.81609e-07
3.13532e-09
-3.30712e-09
6.8153e-07
3.38259e-09
-2.60745e-09
6.81458e-07
-2.7541e-09
6.81475e-07
3.505e-09
-3.65448e-09
-2.15927e-09
6.81857e-07
3.95731e-09
-3.05046e-09
-2.09874e-09
6.81771e-07
-2.44885e-09
-2.61297e-09
6.81863e-07
-1.71875e-09
-2.61091e-09
6.81871e-07
-9.2365e-10
-2.6216e-09
6.81896e-07
-8.4967e-11
-2.55566e-09
6.81885e-07
7.35892e-10
-2.57316e-09
6.81855e-07
1.50934e-09
-2.59426e-09
6.81825e-07
2.2415e-09
-2.61562e-09
6.81809e-07
2.90104e-09
-2.69477e-09
6.81764e-07
3.44692e-09
-2.7024e-09
6.81689e-07
3.82326e-09
-2.70761e-09
6.81629e-07
4.19159e-09
-2.14197e-09
6.81478e-07
-2.04264e-09
6.81506e-07
4.20418e-09
-3.53529e-09
-1.63133e-09
6.81897e-07
3.82179e-09
-2.97814e-09
-1.69199e-09
6.81799e-07
-2.42262e-09
-2.04712e-09
6.81872e-07
-1.73486e-09
-2.05075e-09
6.81862e-07
-9.66878e-10
-2.04305e-09
6.8188e-07
-1.30571e-10
-1.98392e-09
6.81876e-07
7.09152e-10
-1.98744e-09
6.81855e-07
1.5082e-09
-1.99029e-09
6.81827e-07
2.26248e-09
-1.99684e-09
6.81799e-07
2.93122e-09
-2.04222e-09
6.81744e-07
3.48579e-09
-2.02284e-09
6.81675e-07
3.8769e-09
-1.97862e-09
6.81629e-07
4.2395e-09
-1.54621e-09
6.81496e-07
-1.2773e-09
6.81528e-07
4.30135e-09
-3.48142e-09
-1.09005e-09
6.81893e-07
3.84306e-09
-2.94332e-09
-1.17685e-09
6.81828e-07
-2.39652e-09
-1.37486e-09
6.81905e-07
-1.72809e-09
-1.37333e-09
6.8189e-07
-9.74115e-10
-1.35184e-09
6.81907e-07
-1.47266e-10
-1.3021e-09
6.81896e-07
6.92249e-10
-1.2974e-09
6.81869e-07
1.49812e-09
-1.28808e-09
6.81839e-07
2.26492e-09
-1.28613e-09
6.81814e-07
2.95072e-09
-1.30376e-09
6.81766e-07
3.52912e-09
-1.26648e-09
6.81699e-07
3.96729e-09
-1.19342e-09
6.81658e-07
4.35105e-09
-8.74302e-10
6.81527e-07
-5.50556e-10
6.81525e-07
4.53096e-09
-3.34212e-09
-5.62458e-10
6.81851e-07
3.78459e-09
-2.83012e-09
-5.61198e-10
6.81836e-07
-2.29626e-09
-6.19681e-10
6.81881e-07
-1.66015e-09
-5.99532e-10
6.81868e-07
-9.32898e-10
-5.68419e-10
6.81877e-07
-1.28604e-10
-5.29438e-10
6.81868e-07
6.95814e-10
-5.21613e-10
6.8184e-07
1.49212e-09
-5.04716e-10
6.8181e-07
2.25064e-09
-4.96224e-10
6.81784e-07
2.93341e-09
-4.9311e-10
6.81734e-07
3.51467e-09
-4.51522e-10
6.81671e-07
3.99025e-09
-3.88097e-10
6.81622e-07
4.41072e-09
-1.7965e-10
6.81522e-07
6.43764e-11
6.81469e-07
4.7531e-09
-3.22063e-09
-2.41721e-11
6.81822e-07
3.69116e-09
-2.74112e-09
1.27136e-10
6.81855e-07
-2.22316e-09
1.86341e-10
6.81873e-07
-1.61452e-09
2.3196e-10
6.81873e-07
-9.0913e-10
2.68564e-10
6.81877e-07
-1.21807e-10
2.93369e-10
6.81868e-07
6.93594e-10
2.97499e-10
6.81838e-07
1.48872e-09
3.14113e-10
6.81808e-07
2.25097e-09
3.24116e-10
6.81783e-07
2.94613e-09
3.3915e-10
6.81732e-07
3.54574e-09
3.73551e-10
6.81671e-07
4.06089e-09
4.02426e-10
6.81612e-07
4.5237e-09
4.97211e-10
6.81535e-07
5.87416e-10
6.81436e-07
4.97934e-09
-3.09089e-09
5.6768e-10
6.81799e-07
3.51539e-09
-2.6453e-09
8.50368e-10
6.81826e-07
-2.15738e-09
1.01682e-09
6.81846e-07
-1.57223e-09
1.07871e-09
6.81848e-07
-8.81966e-10
1.11154e-09
6.81851e-07
-1.02351e-10
1.11402e-09
6.81842e-07
7.1312e-10
1.10601e-09
6.81812e-07
1.51587e-09
1.11413e-09
6.81781e-07
2.28976e-09
1.12153e-09
6.81754e-07
3.00007e-09
1.14541e-09
6.81703e-07
3.61849e-09
1.16959e-09
6.81642e-07
4.15209e-09
1.16377e-09
6.81583e-07
4.65341e-09
1.12487e-09
6.81502e-07
1.05368e-09
6.81416e-07
5.1511e-09
-3.05212e-09
1.22072e-09
6.81788e-07
3.39318e-09
-2.61494e-09
1.57181e-09
6.81764e-07
-2.14786e-09
1.85299e-09
6.81812e-07
-1.57212e-09
1.91535e-09
6.818e-07
-8.89339e-10
1.93855e-09
6.81806e-07
-1.15266e-10
1.91368e-09
6.81796e-07
6.97028e-10
1.8892e-09
6.81766e-07
1.50148e-09
1.88293e-09
6.81735e-07
2.28011e-09
1.88419e-09
6.81707e-07
2.9963e-09
1.91456e-09
6.81657e-07
3.62879e-09
1.9237e-09
6.8159e-07
4.16874e-09
1.89487e-09
6.81546e-07
4.71037e-09
1.6905e-09
6.81431e-07
1.51538e-09
6.81401e-07
5.19046e-09
-3.042e-09
1.97174e-09
6.81767e-07
3.25426e-09
-2.62266e-09
2.27293e-09
6.81694e-07
-2.18433e-09
2.67784e-09
6.81783e-07
-1.60785e-09
2.70872e-09
6.81764e-07
-9.18493e-10
2.71225e-09
6.81778e-07
-1.34921e-10
2.65438e-09
6.81767e-07
6.891e-10
2.61036e-09
6.81736e-07
1.51226e-09
2.58241e-09
6.81705e-07
2.31581e-09
2.5706e-09
6.81677e-07
3.05931e-09
2.6025e-09
6.81627e-07
3.72787e-09
2.58958e-09
6.81551e-07
4.28414e-09
2.55947e-09
6.81514e-07
4.84922e-09
2.18311e-09
6.81362e-07
2.024e-09
6.81399e-07
5.23758e-09
-2.94456e-09
2.79732e-09
6.81721e-07
3.017e-09
-2.55789e-09
2.91221e-09
6.81621e-07
-2.16429e-09
3.45328e-09
6.81704e-07
-1.605e-09
3.43187e-09
6.81689e-07
-9.30068e-10
3.41018e-09