/*--------------------------------*- C++ -*----------------------------------*\
| =========                 |                                                 |
| \\      /  F ield         | OpenFOAM: The Open Source CFD Toolbox           |
|  \\    /   O peration     | Version:  v2106                                 |
|   \\  /    A nd           | Website:  www.openfoam.com                      |
|    \\/     M anipulation  |                                                 |
\*---------------------------------------------------------------------------*/
FoamFile
{
    version     2.0;
    format      ascii;
    arch        "LSB;label=32;scalar=64";
    class       volScalarField;
    location    "0.000207";
    object      nut;
}
// * * * * * * * * * * * * * * * * * * * * * * * * * * * * * * * * * * * * * //

dimensions      [0 2 -1 0 0 0 0];

internalField   nonuniform List<scalar> 
17920
(
3.56508e-17
3.56504e-17
3.56512e-17
3.56508e-17
3.56518e-17
3.56513e-17
3.56524e-17
3.56519e-17
3.56531e-17
3.56525e-17
3.56539e-17
3.56532e-17
3.56548e-17
3.56541e-17
3.56559e-17
3.56551e-17
3.5657e-17
3.56561e-17
3.56582e-17
3.56573e-17
3.56595e-17
3.56585e-17
3.56608e-17
3.56598e-17
3.56622e-17
3.56613e-17
3.56638e-17
3.56628e-17
3.56573e-17
3.56559e-17
3.56548e-17
3.56538e-17
3.56528e-17
3.56518e-17
3.56509e-17
3.56499e-17
3.5649e-17
3.56481e-17
3.56473e-17
3.56464e-17
3.56456e-17
3.56448e-17
3.56575e-17
3.56562e-17
3.56551e-17
3.5654e-17
3.56529e-17
3.56519e-17
3.56509e-17
3.56499e-17
3.5649e-17
3.5648e-17
3.56472e-17
3.56463e-17
3.56454e-17
3.56446e-17
3.56576e-17
3.56563e-17
3.56552e-17
3.56541e-17
3.5653e-17
3.5652e-17
3.5651e-17
3.565e-17
3.5649e-17
3.5648e-17
3.56471e-17
3.56462e-17
3.56453e-17
3.56444e-17
3.56578e-17
3.56565e-17
3.56554e-17
3.56542e-17
3.56532e-17
3.56521e-17
3.56511e-17
3.565e-17
3.5649e-17
3.5648e-17
3.56471e-17
3.56461e-17
3.56451e-17
3.56442e-17
3.56578e-17
3.56566e-17
3.56555e-17
3.56544e-17
3.56533e-17
3.56522e-17
3.56512e-17
3.56501e-17
3.56491e-17
3.5648e-17
3.5647e-17
3.5646e-17
3.5645e-17
3.5644e-17
3.5658e-17
3.56568e-17
3.56557e-17
3.56546e-17
3.56535e-17
3.56523e-17
3.56513e-17
3.56502e-17
3.56491e-17
3.5648e-17
3.5647e-17
3.56459e-17
3.56448e-17
3.56438e-17
3.56581e-17
3.5657e-17
3.56559e-17
3.56548e-17
3.56536e-17
3.56525e-17
3.56514e-17
3.56502e-17
3.56491e-17
3.5648e-17
3.56469e-17
3.56458e-17
3.56447e-17
3.56436e-17
3.56582e-17
3.56572e-17
3.56561e-17
3.56549e-17
3.56538e-17
3.56526e-17
3.56515e-17
3.56503e-17
3.56492e-17
3.56481e-17
3.56469e-17
3.56458e-17
3.56447e-17
3.56435e-17
3.56584e-17
3.56574e-17
3.56563e-17
3.56551e-17
3.5654e-17
3.56528e-17
3.56516e-17
3.56505e-17
3.56493e-17
3.56481e-17
3.56469e-17
3.56458e-17
3.56446e-17
3.56434e-17
3.56585e-17
3.56575e-17
3.56564e-17
3.56553e-17
3.56541e-17
3.5653e-17
3.56518e-17
3.56506e-17
3.56494e-17
3.56482e-17
3.5647e-17
3.56458e-17
3.56445e-17
3.56434e-17
3.56587e-17
3.56577e-17
3.56566e-17
3.56555e-17
3.56543e-17
3.56531e-17
3.56519e-17
3.56507e-17
3.56495e-17
3.56482e-17
3.5647e-17
3.56457e-17
3.56445e-17
3.56433e-17
3.56589e-17
3.5658e-17
3.56568e-17
3.56557e-17
3.56545e-17
3.56533e-17
3.56521e-17
3.56509e-17
3.56496e-17
3.56483e-17
3.5647e-17
3.56458e-17
3.56445e-17
3.56432e-17
3.56591e-17
3.56581e-17
3.5657e-17
3.56559e-17
3.56547e-17
3.56535e-17
3.56523e-17
3.5651e-17
3.56497e-17
3.56485e-17
3.56471e-17
3.56458e-17
3.56445e-17
3.56431e-17
3.56592e-17
3.56582e-17
3.56572e-17
3.56561e-17
3.56549e-17
3.56537e-17
3.56525e-17
3.56512e-17
3.565e-17
3.56487e-17
3.56473e-17
3.5646e-17
3.56447e-17
3.56433e-17
3.56516e-17
3.56505e-17
3.56494e-17
3.56484e-17
3.56473e-17
3.56463e-17
3.56452e-17
3.5644e-17
3.56429e-17
3.56418e-17
3.56407e-17
3.56395e-17
3.56385e-17
3.56374e-17
3.56511e-17
3.565e-17
3.5649e-17
3.56479e-17
3.56468e-17
3.56457e-17
3.56446e-17
3.56434e-17
3.56423e-17
3.56411e-17
3.564e-17
3.56389e-17
3.56378e-17
3.56367e-17
3.56504e-17
3.56494e-17
3.56483e-17
3.56473e-17
3.56462e-17
3.56451e-17
3.5644e-17
3.56429e-17
3.56417e-17
3.56405e-17
3.56394e-17
3.56382e-17
3.56371e-17
3.56359e-17
3.56499e-17
3.56488e-17
3.56477e-17
3.56466e-17
3.56456e-17
3.56445e-17
3.56434e-17
3.56422e-17
3.5641e-17
3.56398e-17
3.56387e-17
3.56374e-17
3.56363e-17
3.56351e-17
3.56492e-17
3.56481e-17
3.56471e-17
3.5646e-17
3.56449e-17
3.56438e-17
3.56427e-17
3.56415e-17
3.56403e-17
3.56391e-17
3.56379e-17
3.56367e-17
3.56355e-17
3.56342e-17
3.56485e-17
3.56475e-17
3.56464e-17
3.56453e-17
3.56442e-17
3.56431e-17
3.5642e-17
3.56408e-17
3.56396e-17
3.56383e-17
3.56371e-17
3.56358e-17
3.56346e-17
3.56333e-17
3.56478e-17
3.56468e-17
3.56458e-17
3.56447e-17
3.56435e-17
3.56424e-17
3.56412e-17
3.564e-17
3.56388e-17
3.56375e-17
3.56363e-17
3.5635e-17
3.56337e-17
3.56324e-17
3.56471e-17
3.56461e-17
3.5645e-17
3.56439e-17
3.56428e-17
3.56416e-17
3.56404e-17
3.56392e-17
3.56379e-17
3.56367e-17
3.56354e-17
3.56341e-17
3.56328e-17
3.56314e-17
3.56464e-17
3.56454e-17
3.56443e-17
3.56432e-17
3.5642e-17
3.56408e-17
3.56396e-17
3.56383e-17
3.5637e-17
3.56357e-17
3.56344e-17
3.56331e-17
3.56317e-17
3.56304e-17
3.56456e-17
3.56446e-17
3.56435e-17
3.56423e-17
3.56411e-17
3.56399e-17
3.56387e-17
3.56374e-17
3.56361e-17
3.56348e-17
3.56335e-17
3.56321e-17
3.56307e-17
3.56294e-17
3.56448e-17
3.56438e-17
3.56427e-17
3.56415e-17
3.56403e-17
3.56391e-17
3.56378e-17
3.56365e-17
3.56351e-17
3.56338e-17
3.56324e-17
3.5631e-17
3.56296e-17
3.56283e-17
3.56439e-17
3.56429e-17
3.56418e-17
3.56406e-17
3.56394e-17
3.56381e-17
3.56368e-17
3.56355e-17
3.56342e-17
3.56328e-17
3.56314e-17
3.563e-17
3.56286e-17
3.56273e-17
3.56431e-17
3.5642e-17
3.56409e-17
3.56397e-17
3.56385e-17
3.56372e-17
3.56359e-17
3.56345e-17
3.56331e-17
3.56317e-17
3.56303e-17
3.56289e-17
3.56274e-17
3.56261e-17
3.56422e-17
3.5641e-17
3.56399e-17
3.56387e-17
3.56375e-17
3.56362e-17
3.56349e-17
3.56335e-17
3.56322e-17
3.56308e-17
3.56293e-17
3.56279e-17
3.56265e-17
3.56251e-17
3.56398e-17
3.56388e-17
3.56379e-17
3.5637e-17
3.5636e-17
3.5635e-17
3.56339e-17
3.56328e-17
3.56316e-17
3.56304e-17
3.56292e-17
3.56279e-17
3.56268e-17
3.56255e-17
3.56386e-17
3.56377e-17
3.56368e-17
3.56359e-17
3.56349e-17
3.56339e-17
3.56328e-17
3.56316e-17
3.56305e-17
3.56292e-17
3.5628e-17
3.56268e-17
3.56256e-17
3.56244e-17
3.56372e-17
3.56364e-17
3.56355e-17
3.56346e-17
3.56337e-17
3.56327e-17
3.56316e-17
3.56305e-17
3.56293e-17
3.56281e-17
3.56269e-17
3.56256e-17
3.56244e-17
3.56232e-17
3.56359e-17
3.56351e-17
3.56343e-17
3.56334e-17
3.56324e-17
3.56314e-17
3.56303e-17
3.56292e-17
3.5628e-17
3.56268e-17
3.56256e-17
3.56243e-17
3.56232e-17
3.56219e-17
3.56346e-17
3.56338e-17
3.56329e-17
3.5632e-17
3.56311e-17
3.56301e-17
3.5629e-17
3.56278e-17
3.56267e-17
3.56255e-17
3.56243e-17
3.5623e-17
3.56218e-17
3.56205e-17
3.56332e-17
3.56324e-17
3.56316e-17
3.56307e-17
3.56297e-17
3.56287e-17
3.56276e-17
3.56264e-17
3.56253e-17
3.56241e-17
3.56229e-17
3.56216e-17
3.56204e-17
3.56191e-17
3.56319e-17
3.56311e-17
3.56302e-17
3.56292e-17
3.56282e-17
3.56272e-17
3.56261e-17
3.5625e-17
3.56238e-17
3.56226e-17
3.56214e-17
3.56201e-17
3.56189e-17
3.56176e-17
3.56304e-17
3.56296e-17
3.56287e-17
3.56277e-17
3.56267e-17
3.56257e-17
3.56246e-17
3.56235e-17
3.56223e-17
3.56211e-17
3.56198e-17
3.56186e-17
3.56173e-17
3.5616e-17
3.5629e-17
3.56281e-17
3.56272e-17
3.56262e-17
3.56252e-17
3.56241e-17
3.5623e-17
3.56219e-17
3.56207e-17
3.56195e-17
3.56182e-17
3.5617e-17
3.56157e-17
3.56144e-17
3.56274e-17
3.56265e-17
3.56256e-17
3.56246e-17
3.56236e-17
3.56225e-17
3.56214e-17
3.56202e-17
3.5619e-17
3.56178e-17
3.56165e-17
3.56153e-17
3.5614e-17
3.56128e-17
3.56259e-17
3.5625e-17
3.5624e-17
3.5623e-17
3.56219e-17
3.56208e-17
3.56197e-17
3.56185e-17
3.56173e-17
3.56161e-17
3.56148e-17
3.56135e-17
3.56122e-17
3.56111e-17
3.56243e-17
3.56233e-17
3.56223e-17
3.56212e-17
3.56202e-17
3.56191e-17
3.5618e-17
3.56168e-17
3.56156e-17
3.56143e-17
3.5613e-17
3.56118e-17
3.56105e-17
3.56094e-17
3.56227e-17
3.56216e-17
3.56206e-17
3.56196e-17
3.56185e-17
3.56174e-17
3.56162e-17
3.5615e-17
3.56137e-17
3.56125e-17
3.56111e-17
3.56099e-17
3.56086e-17
3.56075e-17
3.5621e-17
3.56199e-17
3.56188e-17
3.56178e-17
3.56167e-17
3.56156e-17
3.56144e-17
3.56132e-17
3.5612e-17
3.56108e-17
3.56095e-17
3.56082e-17
3.56069e-17
3.56059e-17
3.56186e-17
3.5618e-17
3.56174e-17
3.56167e-17
3.5616e-17
3.56153e-17
3.56144e-17
3.56135e-17
3.56125e-17
3.56115e-17
3.56104e-17
3.56094e-17
3.56083e-17
3.56072e-17
3.5617e-17
3.56165e-17
3.56159e-17
3.56152e-17
3.56145e-17
3.56138e-17
3.56129e-17
3.5612e-17
3.5611e-17
3.561e-17
3.56089e-17
3.56078e-17
3.56068e-17
3.56057e-17
3.56153e-17
3.56148e-17
3.56142e-17
3.56136e-17
3.56129e-17
3.56122e-17
3.56113e-17
3.56104e-17
3.56095e-17
3.56085e-17
3.56075e-17
3.56064e-17
3.56054e-17
3.56043e-17
3.56136e-17
3.56132e-17
3.56126e-17
3.56119e-17
3.56113e-17
3.56105e-17
3.56097e-17
3.56088e-17
3.56078e-17
3.56068e-17
3.56058e-17
3.56048e-17
3.56038e-17
3.56027e-17
3.56119e-17
3.56115e-17
3.56109e-17
3.56102e-17
3.56095e-17
3.56088e-17
3.56079e-17
3.56071e-17
3.56061e-17
3.56052e-17
3.56042e-17
3.56032e-17
3.56022e-17
3.56011e-17
3.56102e-17
3.56097e-17
3.56091e-17
3.56085e-17
3.56078e-17
3.5607e-17
3.56062e-17
3.56053e-17
3.56044e-17
3.56034e-17
3.56025e-17
3.56015e-17
3.56005e-17
3.55994e-17
3.56084e-17
3.56079e-17
3.56073e-17
3.56066e-17
3.56059e-17
3.56052e-17
3.56043e-17
3.56035e-17
3.56026e-17
3.56016e-17
3.56007e-17
3.55997e-17
3.55987e-17
3.55977e-17
3.56066e-17
3.56061e-17
3.56054e-17
3.56048e-17
3.5604e-17
3.56033e-17
3.56024e-17
3.56016e-17
3.56007e-17
3.55998e-17
3.55988e-17
3.55979e-17
3.55969e-17
3.55959e-17
3.56048e-17
3.56042e-17
3.56035e-17
3.56029e-17
3.56021e-17
3.56013e-17
3.56005e-17
3.55997e-17
3.55988e-17
3.55978e-17
3.55969e-17
3.5596e-17
3.5595e-17
3.55941e-17
3.56029e-17
3.56023e-17
3.56016e-17
3.56009e-17
3.56001e-17
3.55994e-17
3.55985e-17
3.55977e-17
3.55968e-17
3.55959e-17
3.55949e-17
3.5594e-17
3.5593e-17
3.55922e-17
3.5601e-17
3.56003e-17
3.55996e-17
3.55989e-17
3.55982e-17
3.55974e-17
3.55965e-17
3.55957e-17
3.55948e-17
3.55939e-17
3.55929e-17
3.55921e-17
3.55911e-17
3.55904e-17
3.5599e-17
3.55983e-17
3.55976e-17
3.55969e-17
3.55961e-17
3.55953e-17
3.55945e-17
3.55937e-17
3.55928e-17
3.55919e-17
3.5591e-17
3.55901e-17
3.55891e-17
3.55884e-17
3.55972e-17
3.55964e-17
3.55957e-17
3.55949e-17
3.55941e-17
3.55933e-17
3.55925e-17
3.55916e-17
3.55907e-17
3.55898e-17
3.55889e-17
3.5588e-17
3.55871e-17
3.55865e-17
3.55951e-17
3.55943e-17
3.55936e-17
3.55928e-17
3.5592e-17
3.55912e-17
3.55904e-17
3.55896e-17
3.55887e-17
3.55879e-17
3.55869e-17
3.55861e-17
3.55852e-17
3.55846e-17
3.55876e-17
3.55874e-17
3.55872e-17
3.5587e-17
3.55867e-17
3.55863e-17
3.55859e-17
3.55854e-17
3.55848e-17
3.55843e-17
3.55836e-17
3.5583e-17
3.55824e-17
3.55816e-17
3.5586e-17
3.55859e-17
3.55858e-17
3.55855e-17
3.55852e-17
3.55848e-17
3.55844e-17
3.55839e-17
3.55833e-17
3.55828e-17
3.55822e-17
3.55815e-17
3.55809e-17
3.55801e-17
3.55844e-17
3.55844e-17
3.55842e-17
3.55839e-17
3.55836e-17
3.55832e-17
3.55828e-17
3.55823e-17
3.55818e-17
3.55813e-17
3.55807e-17
3.55801e-17
3.55795e-17
3.55787e-17
3.55828e-17
3.55828e-17
3.55826e-17
3.55823e-17
3.5582e-17
3.55816e-17
3.55812e-17
3.55807e-17
3.55802e-17
3.55797e-17
3.55792e-17
3.55785e-17
3.5578e-17
3.55773e-17
3.55812e-17
3.55812e-17
3.5581e-17
3.55807e-17
3.55803e-17
3.558e-17
3.55796e-17
3.55791e-17
3.55786e-17
3.55781e-17
3.55776e-17
3.5577e-17
3.55765e-17
3.55758e-17
3.55796e-17
3.55795e-17
3.55793e-17
3.5579e-17
3.55787e-17
3.55783e-17
3.55779e-17
3.55774e-17
3.5577e-17
3.55765e-17
3.55759e-17
3.55754e-17
3.55749e-17
3.55742e-17
3.5578e-17
3.55778e-17
3.55775e-17
3.55773e-17
3.55769e-17
3.55766e-17
3.55762e-17
3.55757e-17
3.55753e-17
3.55748e-17
3.55743e-17
3.55738e-17
3.55732e-17
3.55727e-17
3.55763e-17
3.55761e-17
3.55758e-17
3.55755e-17
3.55752e-17
3.55748e-17
3.55744e-17
3.5574e-17
3.55736e-17
3.55731e-17
3.55726e-17
3.55721e-17
3.55716e-17
3.55711e-17
3.55746e-17
3.55743e-17
3.5574e-17
3.55737e-17
3.55734e-17
3.5573e-17
3.55727e-17
3.55722e-17
3.55718e-17
3.55713e-17
3.55709e-17
3.55704e-17
3.55699e-17
3.55695e-17
3.55728e-17
3.55725e-17
3.55723e-17
3.55719e-17
3.55716e-17
3.55713e-17
3.55709e-17
3.55705e-17
3.557e-17
3.55696e-17
3.55691e-17
3.55687e-17
3.55682e-17
3.55678e-17
3.55711e-17
3.55707e-17
3.55705e-17
3.55702e-17
3.55698e-17
3.55695e-17
3.55691e-17
3.55687e-17
3.55682e-17
3.55678e-17
3.55673e-17
3.5567e-17
3.55665e-17
3.55662e-17
3.55694e-17
3.55689e-17
3.55686e-17
3.55683e-17
3.5568e-17
3.55677e-17
3.55673e-17
3.55669e-17
3.55665e-17
3.5566e-17
3.55656e-17
3.55652e-17
3.55647e-17
3.55646e-17
3.55677e-17
3.55672e-17
3.55669e-17
3.55666e-17
3.55663e-17
3.55659e-17
3.55655e-17
3.55651e-17
3.55647e-17
3.55642e-17
3.55638e-17
3.55634e-17
3.55631e-17
3.5563e-17
3.55659e-17
3.55654e-17
3.55651e-17
3.55648e-17
3.55644e-17
3.55641e-17
3.55637e-17
3.55633e-17
3.55629e-17
3.55625e-17
3.55621e-17
3.55617e-17
3.55614e-17
3.55613e-17
3.55494e-17
3.55496e-17
3.55497e-17
3.55499e-17
3.555e-17
3.55501e-17
3.55502e-17
3.55502e-17
3.55502e-17
3.55502e-17
3.55501e-17
3.55499e-17
3.55498e-17
3.55496e-17
3.55484e-17
3.55486e-17
3.55487e-17
3.55489e-17
3.5549e-17
3.55491e-17
3.55492e-17
3.55492e-17
3.55492e-17
3.55491e-17
3.5549e-17
3.55489e-17
3.55487e-17
3.55485e-17
3.55473e-17
3.55476e-17
3.55477e-17
3.55478e-17
3.55479e-17
3.5548e-17
3.55481e-17
3.55481e-17
3.55481e-17
3.55481e-17
3.5548e-17
3.55478e-17
3.55477e-17
3.55475e-17
3.55462e-17
3.55465e-17
3.55466e-17
3.55467e-17
3.55468e-17
3.55469e-17
3.5547e-17
3.5547e-17
3.5547e-17
3.5547e-17
3.55469e-17
3.55468e-17
3.55467e-17
3.55465e-17
3.55451e-17
3.55454e-17
3.55455e-17
3.55456e-17
3.55457e-17
3.55458e-17
3.55459e-17
3.55459e-17
3.55459e-17
3.55459e-17
3.55458e-17
3.55457e-17
3.55456e-17
3.55454e-17
3.5544e-17
3.55442e-17
3.55444e-17
3.55445e-17
3.55446e-17
3.55446e-17
3.55447e-17
3.55447e-17
3.55447e-17
3.55447e-17
3.55447e-17
3.55446e-17
3.55446e-17
3.55444e-17
3.55429e-17
3.55431e-17
3.55432e-17
3.55433e-17
3.55434e-17
3.55435e-17
3.55435e-17
3.55436e-17
3.55436e-17
3.55436e-17
3.55436e-17
3.55435e-17
3.55435e-17
3.55434e-17
3.55417e-17
3.55419e-17
3.5542e-17
3.55421e-17
3.55422e-17
3.55423e-17
3.55424e-17
3.55424e-17
3.55424e-17
3.55424e-17
3.55424e-17
3.55424e-17
3.55423e-17
3.55423e-17
3.55406e-17
3.55407e-17
3.55408e-17
3.55409e-17
3.5541e-17
3.55411e-17
3.55412e-17
3.55412e-17
3.55412e-17
3.55413e-17
3.55412e-17
3.55413e-17
3.55412e-17
3.55412e-17
3.55394e-17
3.55394e-17
3.55396e-17
3.55397e-17
3.55398e-17
3.55399e-17
3.554e-17
3.554e-17
3.554e-17
3.55401e-17
3.55401e-17
3.55401e-17
3.55401e-17
3.55401e-17
3.55382e-17
3.55382e-17
3.55384e-17
3.55385e-17
3.55386e-17
3.55387e-17
3.55388e-17
3.55388e-17
3.55389e-17
3.55389e-17
3.55389e-17
3.5539e-17
3.55389e-17
3.55391e-17
3.55371e-17
3.5537e-17
3.55372e-17
3.55373e-17
3.55374e-17
3.55375e-17
3.55376e-17
3.55376e-17
3.55377e-17
3.55377e-17
3.55377e-17
3.55378e-17
3.55378e-17
3.55379e-17
3.5536e-17
3.55359e-17
3.5536e-17
3.55361e-17
3.55362e-17
3.55363e-17
3.55364e-17
3.55364e-17
3.55365e-17
3.55365e-17
3.55366e-17
3.55366e-17
3.55367e-17
3.55369e-17
3.55348e-17
3.55347e-17
3.55348e-17
3.55349e-17
3.5535e-17
3.55351e-17
3.55352e-17
3.55352e-17
3.55353e-17
3.55354e-17
3.55354e-17
3.55355e-17
3.55355e-17
3.55357e-17
3.55082e-17
3.55086e-17
3.5509e-17
3.55095e-17
3.55099e-17
3.55103e-17
3.55108e-17
3.55111e-17
3.55115e-17
3.55119e-17
3.55122e-17
3.55125e-17
3.55127e-17
3.55129e-17
3.55078e-17
3.55083e-17
3.55087e-17
3.55091e-17
3.55096e-17
3.551e-17
3.55104e-17
3.55108e-17
3.55111e-17
3.55115e-17
3.55118e-17
3.55121e-17
3.55123e-17
3.55125e-17
3.55074e-17
3.55079e-17
3.55083e-17
3.55088e-17
3.55092e-17
3.55096e-17
3.551e-17
3.55104e-17
3.55108e-17
3.55111e-17
3.55114e-17
3.55117e-17
3.5512e-17
3.55121e-17
3.55071e-17
3.55075e-17
3.5508e-17
3.55084e-17
3.55088e-17
3.55092e-17
3.55096e-17
3.551e-17
3.55104e-17
3.55107e-17
3.5511e-17
3.55113e-17
3.55116e-17
3.55117e-17
3.55067e-17
3.55071e-17
3.55076e-17
3.5508e-17
3.55084e-17
3.55088e-17
3.55092e-17
3.55096e-17
3.551e-17
3.55103e-17
3.55106e-17
3.55109e-17
3.55112e-17
3.55114e-17
3.55063e-17
3.55067e-17
3.55071e-17
3.55076e-17
3.5508e-17
3.55084e-17
3.55088e-17
3.55092e-17
3.55095e-17
3.55099e-17
3.55102e-17
3.55105e-17
3.55108e-17
3.5511e-17
3.55058e-17
3.55063e-17
3.55067e-17
3.55071e-17
3.55076e-17
3.5508e-17
3.55084e-17
3.55087e-17
3.55091e-17
3.55094e-17
3.55098e-17
3.55101e-17
3.55103e-17
3.55106e-17
3.55054e-17
3.55058e-17
3.55062e-17
3.55067e-17
3.55071e-17
3.55075e-17
3.55079e-17
3.55083e-17
3.55087e-17
3.5509e-17
3.55093e-17
3.55096e-17
3.55099e-17
3.55102e-17
3.55049e-17
3.55053e-17
3.55058e-17
3.55062e-17
3.55066e-17
3.55071e-17
3.55074e-17
3.55078e-17
3.55082e-17
3.55085e-17
3.55089e-17
3.55092e-17
3.55095e-17
3.55098e-17
3.55044e-17
3.55048e-17
3.55053e-17
3.55057e-17
3.55062e-17
3.55066e-17
3.5507e-17
3.55074e-17
3.55077e-17
3.55081e-17
3.55084e-17
3.55087e-17
3.5509e-17
3.55093e-17
3.55039e-17
3.55043e-17
3.55048e-17
3.55052e-17
3.55057e-17
3.55061e-17
3.55065e-17
3.55069e-17
3.55072e-17
3.55076e-17
3.55079e-17
3.55083e-17
3.55086e-17
3.55089e-17
3.55034e-17
3.55038e-17
3.55043e-17
3.55048e-17
3.55052e-17
3.55056e-17
3.5506e-17
3.55064e-17
3.55068e-17
3.55071e-17
3.55075e-17
3.55078e-17
3.55081e-17
3.55085e-17
3.5503e-17
3.55034e-17
3.55038e-17
3.55043e-17
3.55047e-17
3.55051e-17
3.55055e-17
3.55059e-17
3.55062e-17
3.55066e-17
3.5507e-17
3.55073e-17
3.55077e-17
3.55081e-17
3.55025e-17
3.55029e-17
3.55033e-17
3.55038e-17
3.55042e-17
3.55046e-17
3.5505e-17
3.55054e-17
3.55057e-17
3.55061e-17
3.55065e-17
3.55068e-17
3.55072e-17
3.55075e-17
3.54674e-17
3.54678e-17
3.54683e-17
3.54689e-17
3.54694e-17
3.54699e-17
3.54705e-17
3.5471e-17
3.54715e-17
3.5472e-17
3.54725e-17
3.5473e-17
3.54734e-17
3.54739e-17
3.54675e-17
3.5468e-17
3.54686e-17
3.54691e-17
3.54696e-17
3.54702e-17
3.54707e-17
3.54713e-17
3.54718e-17
3.54723e-17
3.54727e-17
3.54732e-17
3.54736e-17
3.5474e-17
3.54678e-17
3.54683e-17
3.54688e-17
3.54694e-17
3.54699e-17
3.54704e-17
3.5471e-17
3.54715e-17
3.5472e-17
3.54725e-17
3.5473e-17
3.54734e-17
3.54738e-17
3.54742e-17
3.5468e-17
3.54685e-17
3.5469e-17
3.54696e-17
3.54701e-17
3.54707e-17
3.54712e-17
3.54717e-17
3.54722e-17
3.54727e-17
3.54732e-17
3.54736e-17
3.5474e-17
3.54744e-17
3.54682e-17
3.54687e-17
3.54692e-17
3.54698e-17
3.54704e-17
3.54709e-17
3.54714e-17
3.54719e-17
3.54724e-17
3.54729e-17
3.54734e-17
3.54738e-17
3.54742e-17
3.54746e-17
3.54683e-17
3.54689e-17
3.54694e-17
3.547e-17
3.54706e-17
3.54711e-17
3.54716e-17
3.54721e-17
3.54726e-17
3.54731e-17
3.54736e-17
3.5474e-17
3.54744e-17
3.54748e-17
3.54685e-17
3.5469e-17
3.54696e-17
3.54702e-17
3.54707e-17
3.54713e-17
3.54718e-17
3.54723e-17
3.54728e-17
3.54733e-17
3.54737e-17
3.54742e-17
3.54746e-17
3.54749e-17
3.54686e-17
3.54692e-17
3.54698e-17
3.54703e-17
3.54709e-17
3.54714e-17
3.5472e-17
3.54725e-17
3.5473e-17
3.54735e-17
3.54739e-17
3.54743e-17
3.54747e-17
3.54751e-17
3.54687e-17
3.54693e-17
3.54699e-17
3.54705e-17
3.5471e-17
3.54716e-17
3.54721e-17
3.54726e-17
3.54731e-17
3.54736e-17
3.5474e-17
3.54745e-17
3.54749e-17
3.54753e-17
3.54688e-17
3.54694e-17
3.547e-17
3.54706e-17
3.54711e-17
3.54717e-17
3.54722e-17
3.54728e-17
3.54732e-17
3.54737e-17
3.54742e-17
3.54746e-17
3.5475e-17
3.54754e-17
3.54689e-17
3.54695e-17
3.54701e-17
3.54707e-17
3.54712e-17
3.54718e-17
3.54723e-17
3.54729e-17
3.54734e-17
3.54738e-17
3.54743e-17
3.54747e-17
3.54751e-17
3.54755e-17
3.5469e-17
3.54696e-17
3.54702e-17
3.54708e-17
3.54713e-17
3.54719e-17
3.54724e-17
3.54729e-17
3.54734e-17
3.54739e-17
3.54744e-17
3.54748e-17
3.54752e-17
3.54756e-17
3.54691e-17
3.54697e-17
3.54702e-17
3.54708e-17
3.54714e-17
3.54719e-17
3.54725e-17
3.5473e-17
3.54735e-17
3.5474e-17
3.54745e-17
3.54749e-17
3.54753e-17
3.54758e-17
3.54691e-17
3.54697e-17
3.54703e-17
3.54709e-17
3.54714e-17
3.5472e-17
3.54725e-17
3.5473e-17
3.54735e-17
3.5474e-17
3.54745e-17
3.54749e-17
3.54754e-17
3.54758e-17
3.54288e-17
3.54291e-17
3.54296e-17
3.543e-17
3.54304e-17
3.54309e-17
3.54314e-17
3.54318e-17
3.54322e-17
3.54327e-17
3.54331e-17
3.54336e-17
3.5434e-17
3.54344e-17
3.54292e-17
3.54296e-17
3.54301e-17
3.54305e-17
3.5431e-17
3.54314e-17
3.54319e-17
3.54324e-17
3.54328e-17
3.54333e-17
3.54337e-17
3.54341e-17
3.54345e-17
3.54349e-17
3.54297e-17
3.54301e-17
3.54306e-17
3.54311e-17
3.54315e-17
3.5432e-17
3.54325e-17
3.54329e-17
3.54334e-17
3.54338e-17
3.54342e-17
3.54346e-17
3.5435e-17
3.54354e-17
3.54302e-17
3.54306e-17
3.54311e-17
3.54316e-17
3.54321e-17
3.54326e-17
3.5433e-17
3.54335e-17
3.54339e-17
3.54344e-17
3.54348e-17
3.54352e-17
3.54356e-17
3.54359e-17
3.54307e-17
3.54312e-17
3.54317e-17
3.54321e-17
3.54326e-17
3.54331e-17
3.54336e-17
3.5434e-17
3.54345e-17
3.54349e-17
3.54353e-17
3.54357e-17
3.54361e-17
3.54364e-17
3.54312e-17
3.54317e-17
3.54322e-17
3.54326e-17
3.54331e-17
3.54336e-17
3.54341e-17
3.54345e-17
3.5435e-17
3.54354e-17
3.54358e-17
3.54362e-17
3.54366e-17
3.54369e-17
3.54317e-17
3.54322e-17
3.54327e-17
3.54332e-17
3.54336e-17
3.54341e-17
3.54346e-17
3.54351e-17
3.54355e-17
3.54359e-17
3.54363e-17
3.54367e-17
3.54371e-17
3.54374e-17
3.54321e-17
3.54326e-17
3.54331e-17
3.54336e-17
3.54341e-17
3.54346e-17
3.54351e-17
3.54356e-17
3.5436e-17
3.54364e-17
3.54368e-17
3.54372e-17
3.54376e-17
3.54379e-17
3.54326e-17
3.54331e-17
3.54336e-17
3.54341e-17
3.54346e-17
3.54351e-17
3.54356e-17
3.5436e-17
3.54365e-17
3.54369e-17
3.54373e-17
3.54377e-17
3.5438e-17
3.54384e-17
3.5433e-17
3.54335e-17
3.5434e-17
3.54346e-17
3.54351e-17
3.54356e-17
3.5436e-17
3.54365e-17
3.54369e-17
3.54374e-17
3.54378e-17
3.54381e-17
3.54385e-17
3.54388e-17
3.54334e-17
3.5434e-17
3.54345e-17
3.5435e-17
3.54355e-17
3.5436e-17
3.54365e-17
3.54369e-17
3.54374e-17
3.54378e-17
3.54382e-17
3.54386e-17
3.54389e-17
3.54393e-17
3.54338e-17
3.54344e-17
3.54349e-17
3.54354e-17
3.54359e-17
3.54364e-17
3.54369e-17
3.54374e-17
3.54378e-17
3.54382e-17
3.54386e-17
3.5439e-17
3.54394e-17
3.54397e-17
3.54342e-17
3.54348e-17
3.54353e-17
3.54358e-17
3.54363e-17
3.54368e-17
3.54373e-17
3.54378e-17
3.54382e-17
3.54386e-17
3.5439e-17
3.54394e-17
3.54398e-17
3.54402e-17
3.54346e-17
3.54352e-17
3.54357e-17
3.54362e-17
3.54367e-17
3.54372e-17
3.54377e-17
3.54381e-17
3.54386e-17
3.5439e-17
3.54394e-17
3.54398e-17
3.54402e-17
3.54406e-17
3.53931e-17
3.53933e-17
3.53935e-17
3.53938e-17
3.5394e-17
3.53943e-17
3.53946e-17
3.53948e-17
3.53951e-17
3.53954e-17
3.53956e-17
3.53959e-17
3.53962e-17
3.53966e-17
3.53936e-17
3.53937e-17
3.5394e-17
3.53943e-17
3.53945e-17
3.53948e-17
3.53951e-17
3.53954e-17
3.53957e-17
3.53959e-17
3.53962e-17
3.53965e-17
3.53968e-17
3.53971e-17
3.5394e-17
3.53942e-17
3.53945e-17
3.53948e-17
3.53951e-17
3.53954e-17
3.53956e-17
3.53959e-17
3.53962e-17
3.53965e-17
3.53967e-17
3.5397e-17
3.53973e-17
3.53976e-17
3.53945e-17
3.53948e-17
3.53951e-17
3.53953e-17
3.53956e-17
3.53959e-17
3.53962e-17
3.53965e-17
3.53967e-17
3.5397e-17
3.53973e-17
3.53976e-17
3.53978e-17
3.53981e-17
3.5395e-17
3.53953e-17
3.53956e-17
3.53959e-17
3.53961e-17
3.53964e-17
3.53967e-17
3.5397e-17
3.53973e-17
3.53976e-17
3.53978e-17
3.53981e-17
3.53984e-17
3.53987e-17
3.53955e-17
3.53958e-17
3.53961e-17
3.53964e-17
3.53967e-17
3.5397e-17
3.53973e-17
3.53975e-17
3.53978e-17
3.53981e-17
3.53984e-17
3.53986e-17
3.53989e-17
3.53992e-17
3.53961e-17
3.53963e-17
3.53966e-17
3.53969e-17
3.53972e-17
3.53975e-17
3.53978e-17
3.53981e-17
3.53984e-17
3.53986e-17
3.53989e-17
3.53992e-17
3.53994e-17
3.53997e-17
3.53966e-17
3.53969e-17
3.53971e-17
3.53974e-17
3.53977e-17
3.5398e-17
3.53983e-17
3.53986e-17
3.53989e-17
3.53992e-17
3.53995e-17
3.53997e-17
3.54e-17
3.54002e-17
3.53971e-17
3.53974e-17
3.53977e-17
3.5398e-17
3.53983e-17
3.53986e-17
3.53989e-17
3.53991e-17
3.53994e-17
3.53997e-17
3.54e-17
3.54002e-17
3.54005e-17
3.54007e-17
3.53976e-17
3.53979e-17
3.53982e-17
3.53985e-17
3.53988e-17
3.53991e-17
3.53994e-17
3.53997e-17
3.54e-17
3.54002e-17
3.54005e-17
3.54008e-17
3.5401e-17
3.54012e-17
3.53981e-17
3.53984e-17
3.53987e-17
3.5399e-17
3.53993e-17
3.53996e-17
3.53999e-17
3.54002e-17
3.54005e-17
3.54008e-17
3.5401e-17
3.54013e-17
3.54015e-17
3.54017e-17
3.53986e-17
3.53989e-17
3.53992e-17
3.53995e-17
3.53998e-17
3.54001e-17
3.54004e-17
3.54007e-17
3.5401e-17
3.54013e-17
3.54015e-17
3.54018e-17
3.5402e-17
3.54022e-17
3.53991e-17
3.53994e-17
3.53997e-17
3.54e-17
3.54003e-17
3.54006e-17
3.54009e-17
3.54012e-17
3.54015e-17
3.54018e-17
3.5402e-17
3.54023e-17
3.54025e-17
3.54027e-17
3.53996e-17
3.53999e-17
3.54002e-17
3.54005e-17
3.54008e-17
3.54011e-17
3.54014e-17
3.54017e-17
3.5402e-17
3.54023e-17
3.54025e-17
3.54028e-17
3.5403e-17
3.54033e-17
3.53605e-17
3.53605e-17
3.53606e-17
3.53606e-17
3.53607e-17
3.53608e-17
3.53608e-17
3.53609e-17
3.5361e-17
3.53611e-17
3.53612e-17
3.53614e-17
3.53615e-17
3.53617e-17
3.53608e-17
3.53608e-17
3.53609e-17
3.53609e-17
3.5361e-17
3.53611e-17
3.53611e-17
3.53612e-17
3.53613e-17
3.53615e-17
3.53616e-17
3.53617e-17
3.53619e-17
3.53621e-17
3.53611e-17
3.53611e-17
3.53612e-17
3.53612e-17
3.53613e-17
3.53614e-17
3.53615e-17
3.53616e-17
3.53617e-17
3.53618e-17
3.53619e-17
3.53621e-17
3.53622e-17
3.53624e-17
3.53614e-17
3.53614e-17
3.53615e-17
3.53616e-17
3.53616e-17
3.53617e-17
3.53618e-17
3.53619e-17
3.5362e-17
3.53621e-17
3.53623e-17
3.53624e-17
3.53626e-17
3.53628e-17
3.53617e-17
3.53618e-17
3.53618e-17
3.53619e-17
3.5362e-17
3.5362e-17
3.53621e-17
3.53622e-17
3.53624e-17
3.53625e-17
3.53626e-17
3.53628e-17
3.53629e-17
3.53631e-17
3.53621e-17
3.53621e-17
3.53622e-17
3.53623e-17
3.53623e-17
3.53624e-17
3.53625e-17
3.53626e-17
3.53627e-17
3.53629e-17
3.5363e-17
3.53631e-17
3.53633e-17
3.53635e-17
3.53625e-17
3.53625e-17
3.53626e-17
3.53626e-17
3.53627e-17
3.53628e-17
3.53629e-17
3.5363e-17
3.53631e-17
3.53632e-17
3.53634e-17
3.53635e-17
3.53637e-17
3.53638e-17
3.53628e-17
3.53629e-17
3.53629e-17
3.5363e-17
3.53631e-17
3.53632e-17
3.53633e-17
3.53634e-17
3.53635e-17
3.53636e-17
3.53637e-17
3.53639e-17
3.5364e-17
3.53642e-17
3.53632e-17
3.53633e-17
3.53633e-17
3.53634e-17
3.53635e-17
3.53636e-17
3.53637e-17
3.53638e-17
3.53639e-17
3.5364e-17
3.53641e-17
3.53643e-17
3.53644e-17
3.53645e-17
3.53636e-17
3.53637e-17
3.53637e-17
3.53638e-17
3.53639e-17
3.5364e-17
3.53641e-17
3.53642e-17
3.53643e-17
3.53644e-17
3.53645e-17
3.53647e-17
3.53648e-17
3.53649e-17
3.5364e-17
3.53641e-17
3.53641e-17
3.53642e-17
3.53643e-17
3.53644e-17
3.53645e-17
3.53646e-17
3.53647e-17
3.53648e-17
3.53649e-17
3.53651e-17
3.53652e-17
3.53653e-17
3.53644e-17
3.53645e-17
3.53646e-17
3.53646e-17
3.53647e-17
3.53648e-17
3.53649e-17
3.5365e-17
3.53651e-17
3.53652e-17
3.53653e-17
3.53655e-17
3.53656e-17
3.53657e-17
3.53648e-17
3.53649e-17
3.5365e-17
3.53651e-17
3.53651e-17
3.53652e-17
3.53653e-17
3.53654e-17
3.53655e-17
3.53657e-17
3.53658e-17
3.53659e-17
3.5366e-17
3.53661e-17
3.53653e-17
3.53653e-17
3.53654e-17
3.53655e-17
3.53656e-17
3.53657e-17
3.53658e-17
3.53659e-17
3.5366e-17
3.53661e-17
3.53662e-17
3.53663e-17
3.53664e-17
3.53666e-17
3.53309e-17
3.53308e-17
3.53307e-17
3.53307e-17
3.53306e-17
3.53306e-17
3.53305e-17
3.53305e-17
3.53305e-17
3.53305e-17
3.53305e-17
3.53305e-17
3.53306e-17
3.53306e-17
3.5331e-17
3.53309e-17
3.53308e-17
3.53307e-17
3.53307e-17
3.53306e-17
3.53306e-17
3.53306e-17
3.53306e-17
3.53306e-17
3.53306e-17
3.53306e-17
3.53307e-17
3.53308e-17
3.53311e-17
3.5331e-17
3.53309e-17
3.53308e-17
3.53308e-17
3.53307e-17
3.53307e-17
3.53307e-17
3.53307e-17
3.53307e-17
3.53307e-17
3.53307e-17
3.53308e-17
3.53309e-17
3.53312e-17
3.53311e-17
3.5331e-17
3.53309e-17
3.53309e-17
3.53308e-17
3.53308e-17
3.53308e-17
3.53308e-17
3.53308e-17
3.53308e-17
3.53309e-17
3.53309e-17
3.5331e-17
3.53313e-17
3.53312e-17
3.53311e-17
3.53311e-17
3.5331e-17
3.5331e-17
3.53309e-17
3.53309e-17
3.53309e-17
3.53309e-17
3.53309e-17
3.5331e-17
3.53311e-17
3.53311e-17
3.53315e-17
3.53314e-17
3.53313e-17
3.53312e-17
3.53312e-17
3.53311e-17
3.53311e-17
3.5331e-17
3.5331e-17
3.53311e-17
3.53311e-17
3.53311e-17
3.53312e-17
3.53313e-17
3.53317e-17
3.53316e-17
3.53315e-17
3.53314e-17
3.53313e-17
3.53313e-17
3.53312e-17
3.53312e-17
3.53312e-17
3.53312e-17
3.53312e-17
3.53313e-17
3.53314e-17
3.53315e-17
3.53319e-17
3.53318e-17
3.53317e-17
3.53316e-17
3.53315e-17
3.53314e-17
3.53314e-17
3.53314e-17
3.53314e-17
3.53314e-17
3.53314e-17
3.53315e-17
3.53315e-17
3.53316e-17
3.53321e-17
3.5332e-17
3.53319e-17
3.53318e-17
3.53317e-17
3.53317e-17
3.53316e-17
3.53316e-17
3.53316e-17
3.53316e-17
3.53316e-17
3.53317e-17
3.53317e-17
3.53318e-17
3.53323e-17
3.53322e-17
3.53321e-17
3.5332e-17
3.53319e-17
3.53319e-17
3.53318e-17
3.53318e-17
3.53318e-17
3.53318e-17
3.53318e-17
3.53319e-17
3.53319e-17
3.5332e-17
3.53325e-17
3.53324e-17
3.53323e-17
3.53322e-17
3.53322e-17
3.53321e-17
3.53321e-17
3.5332e-17
3.5332e-17
3.5332e-17
3.5332e-17
3.53321e-17
3.53321e-17
3.53322e-17
3.53327e-17
3.53327e-17
3.53326e-17
3.53325e-17
3.53324e-17
3.53324e-17
3.53323e-17
3.53323e-17
3.53323e-17
3.53323e-17
3.53323e-17
3.53323e-17
3.53324e-17
3.53324e-17
3.5333e-17
3.53329e-17
3.53328e-17
3.53327e-17
3.53327e-17
3.53326e-17
3.53326e-17
3.53326e-17
3.53325e-17
3.53325e-17
3.53325e-17
3.53326e-17
3.53326e-17
3.53326e-17
3.53333e-17
3.53332e-17
3.53331e-17
3.5333e-17
3.5333e-17
3.53329e-17
3.53329e-17
3.53328e-17
3.53328e-17
3.53328e-17
3.53328e-17
3.53328e-17
3.53328e-17
3.53328e-17
3.53041e-17
3.5304e-17
3.53039e-17
3.53038e-17
3.53037e-17
3.53037e-17
3.53036e-17
3.53035e-17
3.53035e-17
3.53034e-17
3.53034e-17
3.53033e-17
3.53033e-17
3.53033e-17
3.53041e-17
3.5304e-17
3.53039e-17
3.53038e-17
3.53037e-17
3.53036e-17
3.53035e-17
3.53035e-17
3.53034e-17
3.53033e-17
3.53033e-17
3.53033e-17
3.53032e-17
3.53032e-17
3.53041e-17
3.5304e-17
3.53039e-17
3.53037e-17
3.53037e-17
3.53036e-17
3.53035e-17
3.53034e-17
3.53034e-17
3.53033e-17
3.53033e-17
3.53032e-17
3.53032e-17
3.53032e-17
3.53041e-17
3.53039e-17
3.53038e-17
3.53037e-17
3.53036e-17
3.53035e-17
3.53035e-17
3.53034e-17
3.53033e-17
3.53033e-17
3.53032e-17
3.53032e-17
3.53032e-17
3.53032e-17
3.53041e-17
3.5304e-17
3.53038e-17
3.53037e-17
3.53036e-17
3.53035e-17
3.53034e-17
3.53034e-17
3.53033e-17
3.53033e-17
3.53032e-17
3.53032e-17