/*--------------------------------*- C++ -*----------------------------------*\
| =========                 |                                                 |
| \\      /  F ield         | OpenFOAM: The Open Source CFD Toolbox           |
|  \\    /   O peration     | Version:  v2106                                 |
|   \\  /    A nd           | Website:  www.openfoam.com                      |
|    \\/     M anipulation  |                                                 |
\*---------------------------------------------------------------------------*/
FoamFile
{
    version     2.0;
    format      ascii;
    arch        "LSB;label=32;scalar=64";
    class       volScalarField;
    location    "0.000194";
    object      rho;
}
// * * * * * * * * * * * * * * * * * * * * * * * * * * * * * * * * * * * * * //

dimensions      [1 -3 0 0 0 0 0];

internalField   nonuniform List<scalar> 
18273
(
2.35843
2.35781
2.35309
2.34952
2.34714
2.34289
2.33958
2.33425
2.32922
2.32538
2.32359
2.32501
2.3259
2.33313
2.35466
2.35475
2.35189
2.34909
2.34661
2.34261
2.33938
2.33459
2.32971
2.32587
2.32443
2.32637
2.32763
2.33542
2.35731
2.35544
2.35235
2.34923
2.34678
2.34305
2.33993
2.33569
2.33112
2.32728
2.32536
2.32595
2.32687
2.33235
2.35769
2.3551
2.3522
2.34954
2.34708
2.34408
2.34087
2.33712
2.33301
2.32957
2.32774
2.32774
2.32872
2.33266
2.35959
2.35611
2.35291
2.35042
2.34794
2.34537
2.3424
2.33899
2.33522
2.33207
2.3302
2.32982
2.33069
2.33373
2.36119
2.35718
2.35395
2.35144
2.34914
2.34684
2.34424
2.34108
2.33758
2.33471
2.33303
2.33255
2.33303
2.33512
2.36397
2.35941
2.35595
2.35322
2.35085
2.34858
2.34624
2.34324
2.33987
2.33724
2.33533
2.33478
2.33516
2.33661
2.36744
2.36266
2.35876
2.35556
2.35293
2.35063
2.34833
2.34545
2.34228
2.33971
2.3382
2.33762
2.33737
2.33781
2.37067
2.36591
2.36188
2.35839
2.35538
2.35265
2.35031
2.34762
2.34461
2.34203
2.34013
2.33906
2.33874
2.33881
2.37431
2.36951
2.36521
2.36113
2.35771
2.35465
2.35206
2.34953
2.34668
2.34415
2.34231
2.34122
2.3406
2.34013
2.37697
2.37227
2.36755
2.36325
2.35944
2.35619
2.35352
2.3511
2.34847
2.34611
2.34433
2.34317
2.34274
2.34167
2.38085
2.37547
2.37051
2.36529
2.36121
2.35785
2.35542
2.35312
2.35078
2.34876
2.34748
2.3468
2.34719
2.3455
2.38456
2.37805
2.37359
2.36814
2.36369
2.36031
2.35807
2.35586
2.35357
2.35166
2.35046
2.34961
2.34993
2.3469
2.38561
2.37776
2.37578
2.37091
2.3671
2.36369
2.36197
2.36009
2.358
2.3565
2.35584
2.35649
2.3594
2.35645
2.36688
2.36658
2.36389
2.36182
2.35981
2.35818
2.35622
2.35318
2.34999
2.34765
2.34601
2.34673
2.34473
2.3488
2.36578
2.36478
2.36258
2.36097
2.35915
2.35735
2.35537
2.35265
2.34966
2.34772
2.34681
2.34781
2.34743
2.35109
2.36652
2.36407
2.36144
2.35978
2.35803
2.35657
2.35479
2.35243
2.34981
2.34794
2.34694
2.34734
2.3475
2.34992
2.36487
2.36179
2.35978
2.3584
2.35713
2.35593
2.35449
2.35258
2.35044
2.34892
2.34817
2.34846
2.34898
2.35086
2.36447
2.36115
2.35886
2.35751
2.35672
2.35588
2.35473
2.3532
2.35147
2.35024
2.3496
2.34979
2.35058
2.35245
2.3636
2.36056
2.35873
2.35772
2.35709
2.35644
2.35552
2.35425
2.35281
2.35182
2.35152
2.35182
2.3526
2.35437
2.36434
2.36181
2.3599
2.35893
2.3582
2.35753
2.35664
2.35555
2.3543
2.35337
2.353
2.3534
2.35448
2.35592
2.36573
2.36336
2.36151
2.36044
2.35964
2.35883
2.35786
2.35682
2.35572
2.35496
2.35468
2.35502
2.35579
2.3572
2.36735
2.3652
2.36341
2.36219
2.36117
2.36022
2.35907
2.35788
2.35676
2.35606
2.35588
2.35622
2.3569
2.358
2.36969
2.36703
2.36508
2.36355
2.36242
2.36128
2.36002
2.35864
2.3575
2.35689
2.35667
2.35695
2.35753
2.35817
2.37196
2.36912
2.36655
2.36473
2.36328
2.36209
2.36068
2.35928
2.35817
2.35766
2.35755
2.35783
2.35831
2.35819
2.37551
2.37151
2.36856
2.36596
2.36404
2.36262
2.36129
2.36003
2.35904
2.3587
2.3587
2.35919
2.36
2.3595
2.37876
2.37395
2.37088
2.36777
2.36563
2.36412
2.36266
2.36145
2.36037
2.36001
2.35991
2.36004
2.36031
2.35832
2.38068
2.3761
2.37411
2.37091
2.36827
2.36657
2.36497
2.3639
2.36282
2.36238
2.36235
2.36309
2.36391
2.36355
2.36514
2.36633
2.3649
2.36189
2.36079
2.359
2.35704
2.35492
2.35251
2.35017
2.3483
2.34724
2.34525
2.34453
2.36715
2.36581
2.36448
2.36203
2.36098
2.35913
2.35717
2.35504
2.35291
2.35138
2.35046
2.3503
2.34886
2.34928
2.3669
2.3655
2.3637
2.36171
2.36069
2.35899
2.35714
2.35516
2.35339
2.35219
2.35119
2.35069
2.3496
2.34988
2.36731
2.36584
2.3638
2.36249
2.36124
2.35967
2.35788
2.35592
2.35413
2.35275
2.35178
2.35133
2.35083
2.35101
2.36857
2.36672
2.36536
2.364
2.36296
2.36145
2.35966
2.35759
2.3556
2.3539
2.35264
2.35228
2.35223
2.35267
2.3705
2.36884
2.36773
2.36646
2.36538
2.36382
2.36195
2.35978
2.35759
2.35567
2.35421
2.35373
2.35374
2.35468
2.37289
2.37152
2.37042
2.36922
2.36812
2.36653
2.36458
2.36231
2.35998
2.35795
2.35643
2.35598
2.35602
2.35691
2.37564
2.37439
2.37318
2.37193
2.37076
2.36907
2.36702
2.36464
2.36224
2.36022
2.35875
2.35834
2.35852
2.35972
2.37827
2.37692
2.37555
2.37413
2.37286
2.37114
2.36901
2.36656
2.36415
2.36219
2.36093
2.3606
2.36099
2.36228
2.38068
2.37927
2.37758
2.37587
2.37439
2.37261
2.37045
2.368
2.36572
2.36397
2.36297
2.36271
2.36305
2.36435
2.38303
2.38116
2.37924
2.37728
2.37552
2.37371
2.37158
2.36926
2.36713
2.36543
2.36482
2.36457
2.36486
2.36565
2.38584
2.38288
2.38072
2.37861
2.37665
2.37473
2.37258
2.37036
2.36831
2.36678
2.36652
2.36667
2.36739
2.36729
2.38884
2.38534
2.38272
2.38037
2.37828
2.37615
2.37391
2.37174
2.36973
2.3686
2.36816
2.36815
2.36879
2.36719
2.39004
2.38726
2.385
2.38265
2.38036
2.37808
2.37558
2.37352
2.37177
2.37127
2.37112
2.37198
2.37235
2.37066
2.34897
2.36194
2.36722
2.37917
2.38534
2.40229
2.33205
2.3455
2.35606
2.37364
2.38269
2.4058
2.33407
2.34734
2.35729
2.37522
2.38434
2.40764
2.33532
2.34598
2.3552
2.37237
2.38142
2.4064
2.33732
2.3468
2.35608
2.3729
2.38214
2.40689
2.3383
2.34617
2.35523
2.37079
2.38141
2.40251
2.33907
2.34645
2.3544
2.36849
2.37865
2.39928
2.33987
2.346
2.35303
2.3651
2.37325
2.3934
2.34042
2.34556
2.35194
2.36373
2.37079
2.39116
2.34125
2.34558
2.35273
2.36486
2.36966
2.38963
2.34325
2.34878
2.35626
2.36825
2.3728
2.3905
2.34712
2.35194
2.35958
2.37246
2.37794
2.39459
2.35234
2.35899
2.36716
2.38032
2.38677
2.40273
2.35048
2.3581
2.37076
2.38852
2.39781
2.41123
2.35978
2.36933
2.37093
2.3778
2.37846
2.39037
2.34587
2.35452
2.36148
2.37376
2.37616
2.39762
2.34962
2.35722
2.36443
2.37792
2.38122
2.40087
2.3521
2.35819
2.36435
2.37744
2.38209
2.40259
2.35502
2.36103
2.36732
2.38066
2.38489
2.40435
2.35667
2.36196
2.36785
2.38019
2.38396
2.40286
2.35795
2.36345
2.36826
2.37909
2.38196
2.40018
2.35902
2.36371
2.36714
2.37532
2.37624
2.39331
2.35945
2.36317
2.36525
2.37181
2.37067
2.38939
2.35934
2.36157
2.36278
2.36891
2.36664
2.3857
2.35908
2.36028
2.36189
2.36821
2.36626
2.38385
2.35974
2.35999
2.36145
2.36792
2.36821
2.38325
2.36028
2.36161
2.36387
2.37151
2.37425
2.38904
2.35166
2.35373
2.35858
2.37337
2.38123
2.39309
2.35355
2.36003
2.35928
2.35811
2.36085
2.35903
2.34226
2.34405
2.34615
2.354
2.35781
2.36958
2.34633
2.34687
2.3497
2.36072
2.3667
2.38353
2.35007
2.35026
2.35316
2.3637
2.37019
2.38741
2.3534
2.35467
2.35893
2.37056
2.37774
2.39907
2.35634
2.35858
2.36323
2.37501
2.38212
2.40484
2.35858
2.36207
2.36702
2.37902
2.38632
2.40873
2.36161
2.36498
2.36924
2.37928
2.38549
2.40647
2.36419
2.36719
2.37027
2.37785
2.38133
2.40427
2.36612
2.36823
2.37004
2.37483
2.37676
2.40001
2.36733
2.36824
2.36941
2.37319
2.37486
2.39648
2.36918
2.36856
2.36888
2.37175
2.37365
2.39009
2.37026
2.36905
2.36945
2.37351
2.37694
2.39109
2.36045
2.36038
2.36141
2.36851
2.37715
2.39126
2.36958
2.38223
2.38707
2.39874
2.40521
2.41786
2.35382
2.36818
2.37788
2.39536
2.40218
2.42349
2.35772
2.37147
2.38132
2.39995
2.40523
2.43127
2.35967
2.37116
2.38111
2.39934
2.40643
2.43145
2.36238
2.37335
2.38442
2.40277
2.40942
2.43496
2.36436
2.37481
2.3858
2.40348
2.41096
2.4336
2.36666
2.37681
2.3874
2.40482
2.41251
2.43396
2.3682
2.37752
2.38771
2.40379
2.41162
2.42991
2.36975
2.37885
2.38785
2.40172
2.40781
2.42811
2.37218
2.3796
2.38619
2.39807
2.40433
2.42457
2.37541
2.38144
2.38679
2.396
2.4018
2.41997
2.37878
2.38238
2.38619
2.394
2.39878
2.41999
2.38266
2.38673
2.3902
2.39765
2.40203
2.41314
2.37935
2.383
2.38908
2.40036
2.40619
2.41194
2.37119
2.37942
2.38053
2.38795
2.38999
2.39973
2.35885
2.36714
2.37121
2.38355
2.38633
2.40519
2.36255
2.36951
2.37494
2.38954
2.3913
2.41504
2.36407
2.37013
2.37649
2.39043
2.39439
2.41573
2.36576
2.3721
2.38011
2.39498
2.39978
2.41975
2.36695
2.37421
2.38334
2.39843
2.40392
2.41978
2.36871
2.3766
2.38565
2.40101
2.40589
2.42162
2.36968
2.37819
2.38749
2.40167
2.40571
2.4191
2.37181
2.38012
2.38846
2.40046
2.40232
2.41787
2.37341
2.38082
2.38766
2.3968
2.39775
2.413
2.37579
2.38182
2.38658
2.39241
2.39417
2.41129
2.37806
2.38259
2.38552
2.38985
2.39206
2.40132
2.38058
2.38383
2.38611
2.3895
2.39168
2.40072
2.3766
2.3784
2.38065
2.38581
2.38929
2.39651
2.37835
2.38422
2.38574
2.38923
2.38945
2.39696
2.36926
2.37411
2.37624
2.38416
2.38739
2.39903
2.37143
2.37562
2.3787
2.38949
2.394
2.40986
2.37222
2.37637
2.38075
2.39272
2.39928
2.41731
2.37372
2.37821
2.38483
2.39944
2.40877
2.42845
2.37496
2.38093
2.38938
2.40504
2.41564
2.43177
2.3769
2.38314
2.39331
2.40989
2.42033
2.43879
2.3797
2.38694
2.39709
2.41375
2.4229
2.43844
2.38255
2.39065
2.40022
2.4151
2.42224
2.43592
2.38503
2.39314
2.40127
2.41344
2.41926
2.43039
2.38754
2.39442
2.40104
2.40893
2.41376
2.42178
2.39012
2.39503
2.39989
2.40359
2.40601
2.40931
2.39288
2.39527
2.39806
2.39916
2.39993
2.40024
2.38876
2.38965
2.39076
2.39097
2.39107
2.38868
2.38974
2.38356
2.38029
2.36954
2.36073
2.35545
2.39261
2.38397
2.37907
2.37153
2.36622
2.36202
2.40413
2.38502
2.37744
2.36942
2.36394
2.36085
2.41368
2.39225
2.38494
2.37416
2.3671
2.3625
2.42166
2.39868
2.38995
2.37835
2.37071
2.36469
2.42441
2.40757
2.39918
2.38507
2.37533
2.36722
2.42636
2.41361
2.40453
2.38984
2.37948
2.37042
2.43056
2.41606
2.40771
2.39276
2.3831
2.37381
2.42946
2.41448
2.40695
2.39247
2.38454
2.3765
2.4307
2.41168
2.40509
2.39274
2.38658
2.37953
2.42708
2.40653
2.40203
2.3916
2.38716
2.38082
2.42807
2.40623
2.40399
2.39376
2.38942
2.38257
2.4205
2.40488
2.40271
2.3936
2.38958
2.38144
2.41827
2.41001
2.40876
2.40297
2.40156
2.39281
2.37553
2.36989
2.36728
2.36231
2.35998
2.36188
2.38231
2.37529
2.37433
2.37147
2.36966
2.37004
2.38749
2.38025
2.37811
2.37436
2.37144
2.3698
2.40051
2.38819
2.38479
2.37884
2.37402
2.37012
2.40877
2.39347
2.38989
2.38226
2.37534
2.36981
2.41143
2.40225
2.39515
2.38465
2.37581
2.36906
2.41407
2.40528
2.39604
2.38479
2.37558
2.36889
2.41616
2.40617
2.396
2.38414
2.37576
2.36979
2.41388
2.40361
2.39435
2.383
2.37591
2.37075
2.41171
2.40074
2.39239
2.3827
2.37755
2.37317
2.40561
2.39595
2.39033
2.38215
2.37824
2.37433
2.40512
2.39338
2.39017
2.38339
2.38103
2.37713
2.3997
2.39058
2.38885
2.3838
2.38227
2.37745
2.39884
2.39443
2.395
2.39233
2.39193
2.38604
2.315
2.3352
2.33685
2.3448
2.35054
2.3592
2.32607
2.34646
2.35268
2.36185
2.36519
2.37055
2.33512
2.35452
2.36163
2.36918
2.36863
2.37038
2.35576
2.36858
2.37217
2.37524
2.37165
2.37147
2.37135
2.38086
2.3797
2.37909
2.37349
2.37188
2.38257
2.38978
2.38509
2.38193
2.37528
2.37294
2.38862
2.39466
2.38741
2.3831
2.37709
2.37468
2.39062
2.39679
2.3875
2.38368
2.37911
2.37723
2.38864
2.39557
2.38629
2.38385
2.38123
2.37979
2.38593
2.39292
2.38511
2.3844
2.38332
2.3821
2.38342
2.39023
2.38492
2.38556
2.38542
2.38442
2.38291
2.39056
2.38719
2.38839
2.38853
2.38723
2.38469
2.39122
2.38969
2.39115
2.39129
2.38917
2.38945
2.39482
2.39751
2.39943
2.39915
2.3959
2.39399
2.38127
2.37226
2.35532
2.34129
2.33249
2.38638
2.37123
2.36368
2.35093
2.34127
2.33437
2.38108
2.36517
2.35787
2.34549
2.33571
2.32914
2.37988
2.36175
2.3556
2.34387
2.33368
2.32725
2.3823
2.36187
2.35418
2.34237
2.33388
2.32843
2.38597
2.36667
2.35788
2.3456
2.33716
2.33172
2.39136
2.37183
2.36135
2.34895
2.34143
2.33623
2.39468
2.37556
2.36688
2.35361
2.3466
2.34121
2.39718
2.37796
2.36978
2.35569
2.34962
2.34386
2.40089
2.38015
2.37163
2.35714
2.35256
2.34827
2.40037
2.37665
2.37107
2.35872
2.35456
2.34959
2.40036
2.37889
2.37573
2.36333
2.35899
2.35223
2.39537
2.37791
2.3781
2.36691
2.36109
2.35246
2.39372
2.3843
2.38554
2.38057
2.37799
2.36883
2.38193
2.37153
2.36635
2.35174
2.3445
2.3422
2.37956
2.36373
2.36155
2.35459
2.35046
2.34936
2.3747
2.35901
2.35744
2.35084
2.3476
2.34765
2.37725
2.35876
2.35915
2.35227
2.34857
2.34774
2.37997
2.36171
2.36109
2.35455
2.35113
2.3494
2.38532
2.36974
2.36676
2.35944
2.35485
2.35193
2.38873
2.37708
2.37208
2.36338
2.35813
2.3549
2.39344
2.38236
2.37594
2.36565
2.36086
2.35755
2.39506
2.38182
2.37562
2.36552
2.36199
2.35916
2.39537
2.38175
2.37515
2.36477
2.36179
2.36018
2.39107
2.37712
2.37284
2.3645
2.36266
2.36159
2.3856
2.37469
2.37288
2.36501
2.36319
2.36227
2.38125
2.36978
2.37043
2.36448
2.36319
2.36148
2.37935
2.37406
2.37658
2.37627
2.37724
2.37293
2.34455
2.3435
2.33334
2.32719
2.32457
2.33233
2.34241
2.3444
2.33821
2.33903
2.34041
2.34656
2.33799
2.34061
2.33673
2.3382
2.34037
2.34653
2.34554
2.34257
2.34093
2.34156
2.34324
2.34798
2.34733
2.34851
2.34578
2.34684
2.34705
2.35007
2.35154
2.35764
2.35276
2.3529
2.35127
2.35271
2.35606
2.36341
2.35673
2.35676
2.35442
2.35518
2.35973
2.36417
2.35753
2.35813
2.35656
2.35718
2.35725
2.36217
2.35611
2.35735
2.35716
2.35863
2.35347
2.35904
2.35366
2.3559
2.35741
2.35983
2.34525
2.35364
2.35036
2.35427
2.35748
2.36076
2.33772
2.34871
2.34849
2.35435
2.35856
2.36211
2.32643
2.34293
2.34636
2.35443
2.35946
2.36251
2.32074
2.34133
2.35154
2.36361
2.36844
2.3697
2.3896
2.38687
2.38171
2.37747
2.37439
2.37055
2.36738
2.36411
2.36115
2.3583
2.35581
2.35379
2.35279
2.35238
2.38811
2.38343
2.37887
2.3756
2.37264
2.36942
2.36643
2.36328
2.36029
2.35746
2.35504
2.35377
2.35332
2.35386
2.38591
2.38121
2.37719
2.3743
2.37165
2.36884
2.36597
2.36297
2.36001
2.35725
2.35498
2.35382
2.35303
2.35344
2.38487
2.38092
2.37744
2.37468
2.37211
2.36936
2.36644
2.36336
2.36029
2.35739
2.35506
2.35361
2.35319
2.35336
2.38515
2.38178
2.37883
2.37625
2.37375
2.37101
2.36802
2.3648
2.36161
2.35845
2.356
2.35425
2.35369
2.35353
2.38648
2.38349
2.38093
2.37846
2.376
2.37323
2.37017
2.36677
2.36342
2.36007
2.35746
2.35561
2.35499
2.35465
2.38824
2.38546
2.38316
2.38078
2.37836
2.37556
2.37243
2.36894
2.3655
2.36209
2.35942
2.35751
2.35682
2.35649
2.39028
2.38748
2.38518
2.38281
2.38039
2.37759
2.37443
2.3709
2.36743
2.36407
2.36142
2.35949
2.35873
2.35844
2.39208
2.38914
2.38669
2.38427
2.38184
2.37906
2.37591
2.37242
2.36898
2.36575
2.36319
2.36138
2.36083
2.36069
2.39411
2.39076
2.38792
2.3853
2.38274
2.37995
2.37684
2.37342
2.37005
2.36695
2.36457
2.36296
2.36261
2.36263
2.396
2.39218
2.3889
2.38605
2.38331
2.38047
2.37736
2.37402
2.37073
2.36778
2.36557
2.36424
2.36398
2.36418
2.39845
2.39368
2.38994
2.38684
2.38391
2.38098
2.37784
2.37452
2.37123
2.36833
2.36624
2.36543
2.36538
2.36609
2.40136
2.39624
2.39192
2.38841
2.38506
2.38179
2.37834
2.37493
2.37166
2.3687
2.36678
2.36605
2.36657
2.36651
2.404
2.39878
2.39416
2.39029
2.38663
2.38314
2.37962
2.37621
2.37317
2.37085
2.36974
2.36947
2.36996
2.36856
2.39825
2.39313
2.38859
2.38372
2.38017
2.37637
2.37274
2.36908
2.36543
2.36191
2.35866
2.3562
2.35434
2.35364
2.39714
2.39117
2.38647
2.38228
2.37887
2.37541
2.37192
2.36831
2.36449
2.36067
2.35705
2.35435
2.35262
2.3529
2.39616
2.39058
2.38617
2.38215
2.37868
2.37531
2.37191
2.36841
2.36468
2.36079
2.35699
2.35381
2.35193
2.3527
2.39622
2.39106
2.38709
2.38333
2.37985
2.37637
2.37279
2.36912
2.36528
2.36127
2.35745
2.3541
2.352
2.35207
2.3968
2.39222
2.38868
2.38515
2.38166
2.37805
2.3743
2.37043
2.36646
2.36236
2.35851
2.35519
2.353
2.35237
2.39789
2.39388
2.3906
2.38728
2.38385
2.38019
2.37632
2.37227
2.36811
2.36392
2.35996
2.35659
2.35425
2.35317
2.39918
2.39555
2.39245
2.38926
2.38591
2.38226
2.37835
2.37422
2.36995
2.36573
2.36174
2.35837
2.35596
2.35462
2.40064
2.39711
2.39402
2.39088
2.3876
2.38398
2.38009
2.37596
2.37169
2.36751
2.36356
2.36023
2.35778
2.35636
2.40203
2.39842
2.39521
2.39204
2.38878
2.38522
2.38137
2.37729
2.37309
2.36901
2.3652
2.36204
2.35972
2.3585
2.40355
2.39961
2.39614
2.39283
2.38952
2.38597
2.38218
2.37816
2.37405
2.3701
2.36649
2.36357
2.36153
2.36058
2.40516
2.40079
2.39698
2.39348
2.39001
2.38637
2.38255
2.37854
2.37452
2.37074
2.36744
2.36481
2.36315
2.36229
2.40716
2.40202
2.39773
2.39404
2.3904
2.38666
2.38278
2.37881
2.37486
2.37119
2.3681
2.36569
2.36446
2.36382
2.40949
2.40415
2.39943
2.39536
2.39128
2.38717
2.38301
2.37892
2.37502
2.37149
2.36858
2.36659
2.36543
2.3647
2.41218
2.40645
2.40107
2.39655
2.39214
2.3879
2.38373
2.37962
2.3758
2.37255
2.37009
2.36856
2.36739
2.36579
2.4149
2.40842
2.40279
2.39725
2.39263
2.38827
2.38397
2.37969
2.37542
2.3711
2.36703
2.36317
2.35993
2.35753
2.41427
2.40714
2.40149
2.39614
2.39136
2.38693
2.38265
2.37841
2.37405
2.36941
2.36481
2.36055
2.3574
2.35596
2.41294
2.40652
2.40106
2.39589
2.39111
2.38666
2.38237
2.37815
2.37386
2.36918
2.36436
2.35973
2.3562
2.35515
2.41246
2.40669
2.4015
2.39653
2.39178
2.38726
2.38286
2.3785
2.374
2.36921
2.36429
2.35968
2.35603
2.3543
2.41237
2.40727
2.40255
2.39781
2.39309
2.38845
2.3839
2.37934
2.37465
2.36973
2.36477
2.36015
2.35639
2.35422
2.41263
2.40803
2.40366
2.39917
2.39456
2.3899
2.38523
2.38049
2.37566
2.37066
2.36568
2.36103
2.35711
2.35453
2.41308
2.40873
2.40455
2.40023
2.39578
2.3912
2.38655
2.38177
2.37686
2.37184
2.36686
2.36219
2.35818
2.35529
2.41357
2.40925
2.40509
2.40085
2.39653
2.39207
2.38753
2.38285
2.37801
2.37305
2.36814
2.36352
2.35951
2.35645
2.41412
2.40969
2.40546
2.40126
2.39702
2.39267
2.38823
2.38366
2.37892
2.37409
2.36936
2.36493
2.36106
2.35802
2.41471
2.41005
2.40566
2.40146
2.39724
2.39293
2.38855
2.38405
2.37945
2.37484
2.37039
2.36627
2.36269
2.35987
2.41554
2.41061
2.40603
2.4017
2.39735
2.39293
2.3885
2.38399
2.3795
2.37512
2.37106
2.36735
2.3642
2.36171
2.41645
2.41093
2.406
2.40156
2.39714
2.39271
2.38828
2.38381
2.37946
2.37527
2.3715
2.36809
2.36521
2.3631
2.41807
2.41234
2.40715
2.4023
2.39746
2.39264
2.38792
2.38332
2.37901
2.37496
2.3714
2.36824
2.36581
2.36362
2.41954
2.41313
2.40743
2.40226
2.39729
2.39244
2.38772
2.38313
2.37887
2.37503
2.37171
2.36886
2.36639
2.36407
2.42758
2.42121
2.41473
2.40849
2.40281
2.39768
2.39305
2.38873
2.38442
2.37993
2.3752
2.37035
2.36548
2.36122
2.4271
2.42048
2.41395
2.40769
2.40188
2.3966
2.39185
2.38747
2.38312
2.37849
2.37343
2.36818
2.36317
2.35964
2.42553
2.41951
2.41328
2.40721
2.40144
2.39618
2.39142
2.38705
2.38271
2.37807
2.37296
2.36749
2.36229
2.35868
2.42483
2.41924
2.4134
2.40747
2.40173
2.39641
2.39158
2.38713
2.38268
2.37792
2.37269
2.36719
2.36199
2.3581
2.42419
2.41899
2.41355
2.40791
2.40235
2.39709
2.39216
2.38751
2.38292
2.37804
2.37274
2.36721
2.36199
2.35782
2.42381
2.41881
2.41364
2.40825
2.40294
2.39782
2.39294
2.38819
2.38344
2.37839
2.37304
2.36747
2.36218
2.35776
2.42349
2.41856
2.41358
2.4084
2.40331
2.39837
2.3936
2.38885
2.38405
2.37892
2.3735
2.36793
2.3626
2.35797
2.42325
2.41825
2.41334
2.40834
2.40343
2.39864
2.39399
2.3893
2.38453
2.37942
2.37401
2.36848
2.36313
2.35839
2.42313
2.418
2.41308
2.40819
2.40342
2.39874
2.39414
2.38949
2.38474
2.37972
2.37446
2.36909
2.36388
2.35909
2.423
2.41772
2.41276
2.40795
2.40329
2.3987
2.39414
2.3895
2.38477
2.37985
2.37476
2.36968
2.3647
2.36012
2.42313
2.41772
2.41266
2.40778
2.40305
2.3984
2.39377
2.38911
2.38441
2.37961
2.37476
2.37005
2.36543
2.3613
2.42325
2.41755
2.41226
2.40728
2.40247
2.39781
2.39317
2.38851
2.38385
2.37921
2.37463
2.37028
2.36601
2.36228
2.42425
2.41817
2.41264
2.40736
2.40218
2.39713
2.39223
2.38744
2.38282
2.37829
2.37416
2.37008
2.36644
2.36285
2.42464
2.41783
2.41192
2.40656
2.40143
2.39641
2.39141
2.38654
2.38195
2.37763
2.3738
2.37017
2.36679
2.36339
2.43855
2.43202
2.42507
2.41845
2.41224
2.40659
2.40153
2.39698
2.39265
2.38824
2.3835
2.37823
2.37263
2.36704
2.43739
2.43148
2.42479
2.418
2.41145
2.40557
2.40041
2.39589
2.39161
2.3872
2.38229
2.3767
2.3709
2.36582
2.43585
2.43015
2.42378
2.41721
2.41083
2.40508
2.40004
2.39556
2.39128
2.38683
2.38182
2.37609
2.37008
2.36454
2.43486
2.4295
2.42354
2.41721
2.41097
2.40522
2.40012
2.39555
2.3912
2.38658
2.38141
2.37552
2.36942
2.36371
2.43395
2.42871
2.42283
2.41683
2.41093
2.40543
2.40043
2.39582
2.39133
2.38654
2.38122
2.37518
2.36901
2.36323
2.43291
2.4276
2.4221
2.41635
2.41076
2.40549
2.40065
2.39608
2.39152
2.38657
2.38108
2.37497
2.36872
2.36295
2.43191
2.42662
2.42124
2.41573
2.41041
2.40537
2.40067
2.39614
2.39155
2.38653
2.38094
2.37482
2.36854
2.36279
2.43088
2.42557
2.42033
2.41507
2.41
2.40514
2.40054
2.39603
2.39137
2.38631
2.3807
2.37464
2.36843
2.36267
2.42994
2.42463
2.41951
2.41443
2.40953
2.40478
2.40021
2.39566
2.39092
2.38584
2.38026
2.37436
2.36832
2.36261
2.42899
2.42362
2.4186
2.4137
2.40896
2.4043
2.39972
2.39511
2.3903
2.38522
2.37974
2.37407
2.36823
2.36267
2.42839
2.42297
2.41789
2.41301
2.40828
2.4036
2.39891
2.39419
2.3893
2.38428
2.37901
2.37365
2.36815
2.36282
2.42798
2.42237
2.41715
2.41214
2.40735
2.40261
2.39788
2.39308
2.38815
2.3832
2.37814
2.37312
2.36796
2.36284
2.42827
2.42243
2.41699
2.41161
2.40644
2.40136
2.39639
2.39144
2.38652
2.38162
2.37703
2.37232
2.36764
2.36284
2.42795
2.42151
2.4158
2.41038
2.40517
2.39997
2.39489
2.38988
2.38501
2.38027
2.37603
2.37175
2.36742
2.36299
2.44556
2.44
2.43369
2.42735
2.42112
2.41524
2.40988
2.40486
2.40013
2.39538
2.39032
2.38496
2.37917
2.3732
2.44451
2.43952
2.4335
2.42701
2.42039
2.41417
2.40861
2.40361
2.39899
2.39435
2.38939
2.38387
2.37788
2.37199
2.44331
2.43823
2.43231
2.42594
2.41952
2.41349
2.40809
2.40323
2.39867
2.39403
2.38896
2.38334
2.37712
2.37095
2.44229
2.43721
2.43144
2.42523
2.41905
2.4132
2.40791
2.40312
2.39857
2.39384
2.38858
2.38266
2.37627
2.36981
2.44118
2.43597
2.43028
2.42425
2.41836
2.41285
2.40782
2.40317
2.3986
2.39377
2.38834
2.3822
2.37563
2.36911
2.43967
2.43435
2.42873
2.42308
2.41756
2.41234
2.40755
2.40303
2.3985
2.3936
2.38805
2.38178
2.37509
2.36852
2.43783
2.4325
2.42722
2.42186
2.41666
2.4117
2.40708
2.40265
2.39813
2.39322
2.38763
2.38135
2.37464
2.36813
2.43592
2.43073
2.42572
2.42067
2.41576
2.411
2.40649
2.40207
2.3975
2.39255
2.38696
2.38074
2.37414
2.3677
2.43418
2.42911
2.42435
2.41955
2.41487
2.41023
2.40574
2.40127
2.39662
2.3916
2.38604
2.37998
2.37353
2.36716
2.43263
2.42765
2.42305
2.41844
2.41392
2.40938
2.40487
2.4003
2.39553
2.39045
2.38492
2.37901
2.37275
2.36657
2.43153
2.42657
2.42195
2.41734
2.41281
2.4082
2.40355
2.39884
2.39397
2.38889
2.3835
2.37784
2.37181
2.36586
2.43069
2.42556
2.42078
2.41604
2.41141
2.40668
2.40191
2.3971
2.39216
2.38713
2.38191
2.37648
2.37073
2.36488
2.43065
2.42523
2.42004
2.41483
2.40982
2.40475
2.39972
2.39474
2.38977
2.38482
2.37988
2.37476
2.36949
2.36386
2.42973
2.42372
2.41838
2.41302
2.40783
2.40263
2.39756
2.39253
2.38759
2.38272
2.37816
2.37337
2.36851
2.36282
2.45045
2.44601
2.44078
2.43521
2.42942
2.42355
2.4179
2.41246
2.40726
2.4021
2.39674
2.39122
2.38549
2.37935
2.4495
2.44516
2.44011
2.43445
2.42842
2.42235
2.4165
2.41096
2.4058
2.4008
2.39565
2.39012
2.38435
2.37807
2.44874
2.44419
2.43894
2.43323
2.42729
2.4213
2.41561
2.4103
2.40524
2.4002
2.39496
2.3893
2.38344
2.37715
2.44767
2.44296
2.4377
2.43202
2.42618
2.4204
2.41488
2.40973
2.40479
2.39977
2.39442
2.38854
2.38227
2.37581
2.44623
2.44132
2.43608
2.43044
2.42483
2.41939
2.41421
2.4093
2.40446
2.39941
2.39395
2.38787
2.38135
2.37472
2.44416
2.43909
2.43386
2.42861
2.42336
2.41823
2.41336
2.40866
2.40394
2.39893
2.39341
2.38724
2.38057
2.37382
2.4417
2.4367
2.43182
2.42684
2.42191
2.41706
2.41241
2.40785
2.4032
2.39823
2.39271
2.38654
2.37988
2.37315
2.43922
2.4344
2.4298
2.42515
2.42051
2.41588
2.41135
2.40686
2.40222
2.39726
2.39178
2.38568
2.37912
2.37249
2.43714
2.43244
2.42808
2.42362
2.41917
2.41463
2.41015
2.40566
2.40101
2.39606
2.39065
2.38473
2.37832
2.37175
2.43541
2.43081
2.42656
2.42216
2.41779
2.4133
2.40881
2.40429
2.39963
2.39469
2.38935
2.38356
2.37732
2.37091
2.43413
2.42947
2.42515
2.42066
2.4162
2.41158
2.40697
2.40238
2.39769
2.39282
2.38765
2.38208
2.37605
2.36981
2.43297
2.42809
2.42356
2.41882
2.4142
2.40944
2.40476
2.40014
2.39547
2.39071
2.38568
2.3803
2.37443
2.3683
2.43234
2.42701
2.422
2.41682
2.41187
2.40687
2.40199
2.39722
2.3925
2.38783
2.38305
2.37795
2.37246
2.36648
2.43035
2.4247
2.41958
2.41424
2.4092
2.40413
2.39925
2.39448
2.38977
2.38516
2.38055
2.37556
2.37053
2.36433
2.42005
2.41445
2.4089
2.40328
2.39745
2.39183
2.38499
2.4184
2.41265
2.40714
2.40167
2.39593
2.39022
2.38382
2.41729
2.41167
2.40609
2.40047
2.39466
2.38884
2.38252
2.41615
2.41067
2.40516
2.39944
2.39343
2.38728
2.38083
2.41511
2.4098
2.40431
2.39851
2.39232
2.38594
2.37947
2.41389
2.40878
2.40339
2.3976
2.39134
2.38484
2.37832
2.41258
2.40761
2.40233
2.39661
2.3904
2.3839
2.37738
2.41106
2.40621
2.40107
2.3955
2.38943
2.38303
2.37649
2.43982
2.4355
2.4314
2.42716
2.42283
2.41837
2.41391
2.40936
2.40461
2.3996
2.3942
2.38836
2.38214
2.37575
2.43806
2.43371
2.42959
2.42525
2.42086
2.41635
2.41191
2.40745
2.40284
2.39798
2.39279
2.38713
2.38109
2.3748
2.43651
2.43193
2.42764
2.42309
2.41857
2.41397
2.40948
2.40508
2.40059
2.39592
2.39098
2.38559
2.37971
2.37357
2.43459
2.42976
2.42523
2.42045
2.41581
2.41114
2.40668
2.40239
2.39806
2.39363
2.38891
2.3837
2.37795
2.37182
2.43255
2.42732
2.42249
2.41747
2.41271
2.40801
2.40349
2.39915
2.39482
2.39049
2.386
2.38112
2.37559
2.36963
2.4291
2.4238
2.41913
2.4142
2.40945
2.40483
2.40035
2.39605
2.39175
2.38751
2.38312
2.37826
2.37311
2.36674
2.3998
2.40874
2.41532
2.41868
2.4293
2.44495
2.38861
2.39317
2.39548
2.40039
2.41767
2.44264
2.38462
2.38813
2.38964
2.39465
2.41238
2.44186
2.37911
2.38145
2.38195
2.38683
2.40596
2.4366
2.37567
2.37707
2.3771
2.3816
2.40062
2.4296
2.37136
2.3724
2.37296
2.37704
2.39518
2.41994
2.36817
2.36921
2.37094
2.37451
2.39034
2.40937
2.36494
2.36615
2.36924
2.37202
2.38494
2.39869
2.3621
2.36299
2.367
2.36898
2.37879
2.3862
2.35937
2.35918
2.36268
2.36352
2.37149
2.37743
2.35699
2.35551
2.35722
2.35742
2.36467
2.37123
2.35508
2.35194
2.35166
2.3519
2.36024
2.36922
2.35521
2.35046
2.34915
2.34992
2.36111
2.37215
2.34238
2.33497
2.33441
2.33948
2.3554
2.37198
2.40727
2.41775
2.42797
2.43604
2.44159
2.45417
2.39682
2.40397
2.41027
2.42022
2.43308
2.45257
2.39277
2.3992
2.40593
2.41557
2.42996
2.45266
2.38702
2.392
2.39752
2.40667
2.42268
2.44718
2.38308
2.38698
2.3917
2.39978
2.41559
2.43881
2.37859
2.38138
2.38545
2.3927
2.40682
2.42639
2.37446
2.37665
2.38075
2.38778
2.39977
2.4146
2.37041
2.37249
2.37724
2.38406
2.39398
2.40558
2.36685
2.36922
2.37497
2.38144
2.38935
2.39829
2.36372
2.36609
2.37249
2.3775
2.38343
2.39047
2.36136
2.36287
2.36887
2.37111
2.37561
2.38248
2.35935
2.3592
2.36272
2.36319
2.36681
2.37446
2.35933
2.35685
2.35737
2.35666
2.36077
2.37018
2.34884
2.34334
2.34223
2.34391
2.35112
2.36496
2.42264
2.43337
2.4441
2.45358
2.46102
2.47054
2.41288
2.42123
2.42972
2.43926
2.45099
2.46587
2.40811
2.41667
2.42532
2.43501
2.4469
2.4644
2.4013
2.40901
2.41637
2.42591
2.43829
2.4581
2.39606
2.40285
2.40889
2.41762
2.42959
2.44962
2.39078
2.39627
2.40069
2.40825
2.41913
2.43685
2.3858
2.39008
2.39335
2.40003
2.40966
2.42401
2.3811
2.38436
2.38751
2.39391
2.40262
2.41352
2.37681
2.37953
2.38379
2.39049
2.39885
2.40683
2.37281
2.37539
2.38108
2.3878
2.39554
2.40181
2.36953
2.37195
2.37867
2.38437
2.3914
2.39808
2.36669
2.36823
2.37448
2.37772
2.38302
2.39025
2.36576
2.36489
2.36931
2.36989
2.37374
2.38136
2.35639
2.35423
2.35618
2.35745
2.3611
2.36945
2.43426
2.4418
2.44948
2.45882
2.46628
2.47446
2.42593
2.43377
2.44066
2.44975
2.45847
2.46942
2.42015
2.4279
2.43554
2.44434
2.45336
2.46552
2.413
2.42014
2.42756
2.43601
2.44572
2.45957
2.40686
2.41322
2.41983
2.42741
2.43664
2.45121
2.40094
2.40612
2.41137
2.41759
2.42568
2.43987
2.39547
2.39948
2.40322
2.4081
2.415
2.42705
2.3903
2.39328
2.39587
2.40006
2.40605
2.41553
2.38541
2.38761
2.38987
2.39416
2.4001
2.40778
2.38076
2.38237
2.38517
2.38985
2.39627
2.4028
2.37641
2.37765
2.38168
2.38651
2.39387
2.39991
2.37233
2.3729
2.37778
2.38208
2.38898
2.39493
2.36933
2.36883
2.37378
2.37643
2.38148
2.38625
2.36134
2.36048
2.36389
2.36588
2.36965
2.37489
2.4434
2.44932
2.4558
2.46354
2.47026
2.47744
2.43638
2.44317
2.44949
2.45744
2.46479
2.47362
2.42999
2.43664
2.44337
2.45134
2.45885
2.46785
2.42276
2.4292
2.43586
2.44382
2.45178
2.46211
2.41605
2.42201
2.4284
2.43596
2.44372
2.45523
2.40975
2.41485
2.42046
2.42689
2.43373
2.44534
2.40407
2.40801
2.41253
2.4173
2.42304
2.43387
2.39876
2.40152
2.40469
2.40771
2.41306
2.42172
2.39363
2.39541
2.39725
2.39983
2.40481
2.41154
2.38866
2.38961
2.39112
2.39368
2.39865
2.40452
2.38378
2.38438
2.38628
2.38943
2.39553
2.40133
2.37917
2.37908
2.38191
2.38536
2.3918
2.3974
2.37498
2.37418
2.37808
2.38149
2.38791
2.39325
2.36699
2.36557
2.36881
2.37104
2.37595
2.38069
2.4493
2.454
2.45952
2.46606
2.47224
2.47871
2.44384
2.44932
2.4552
2.46245
2.46929
2.47694
2.43802
2.44355
2.44972
2.45681
2.4637
2.47147
2.43138
2.43685
2.44283
2.44987
2.45698
2.4654
2.42473
2.42998
2.43563
2.44249
2.4494
2.45861
2.41829
2.42298
2.42803
2.43416
2.44028
2.45009
2.41228
2.41603
2.42027
2.42523
2.43057
2.44022
2.40658
2.40914
2.41228
2.4157
2.42027
2.42927
2.40107
2.40247
2.40452
2.40634
2.41075
2.41819
2.39561
2.39612
2.39705
2.3985
2.40264
2.40854
2.39039
2.39011
2.39097
2.39262
2.39732
2.40332
2.38512
2.38454
2.3857
2.38779
2.39277
2.39839
2.38028
2.37913
2.38123
2.38405
2.38996
2.39569
2.37291
2.37103
2.3734
2.37582
2.38109
2.38625
2.45309
2.45643
2.46069
2.46604
2.4717
2.47793
2.44915
2.45326
2.45823
2.46439
2.4707
2.4779
2.4444
2.44883
2.45423
2.46067
2.46716
2.47442
2.43878
2.44335
2.44864
2.45506
2.46155
2.46908
2.43278
2.43723
2.44226
2.44853
2.45516
2.46306
2.42657
2.4307
2.43521
2.44103
2.44729
2.45541
2.42041
2.42385
2.42771
2.43277
2.43833
2.44674
2.41434
2.41679
2.41977
2.42368
2.42804
2.43614
2.40841
2.40987
2.41174
2.41424
2.41757
2.42493
2.40251
2.40285
2.40377
2.40481
2.40752
2.41371
2.39689
2.39654
2.39642
2.39664
2.4002
2.40604
2.39118
2.38988
2.39009
2.3907
2.39474
2.39958
2.3857
2.38436
2.38487