/*--------------------------------*- C++ -*----------------------------------*\
| =========                 |                                                 |
| \\      /  F ield         | OpenFOAM: The Open Source CFD Toolbox           |
|  \\    /   O peration     | Version:  v2106                                 |
|   \\  /    A nd           | Website:  www.openfoam.com                      |
|    \\/     M anipulation  |                                                 |
\*---------------------------------------------------------------------------*/
FoamFile
{
    version     2.0;
    format      ascii;
    arch        "LSB;label=32;scalar=64";
    class       volScalarField;
    location    "0.000181";
    object      epsilon;
}
// * * * * * * * * * * * * * * * * * * * * * * * * * * * * * * * * * * * * * //

dimensions      [0 2 -3 0 0 0 0];

internalField   nonuniform List<scalar> 
18273
(
466644
341986
235862
142602
80942
51834.5
49820.1
67034.5
109331
183788
292116
383783
379039
309568
413820
274661
163130
87001.9
47329.8
29841.1
26345
35054.2
60817.8
112429
196170
288218
315096
267059
277977
164391
86860.1
43260.7
23829.9
15098.4
12850.8
17476.3
33210.1
65963.1
122529
194248
237419
223717
148694
78129.9
37883.1
18050.9
9951.02
6441.96
5806.58
8746.44
18045.7
37360.7
69624.7
116550
157358
170015
70023.1
32144
14086.8
6241.41
3371.02
2345.64
2599.9
4893.75
11200.6
23960.2
44273.6
72014.2
100684
124690
31808.4
12647.3
4840.22
1919.71
1016.29
866.855
1420.99
3356.26
8053.7
17042
30686.8
48304.2
69943.8
98828.8
17233.3
6237.54
2101.78
809.155
466.781
559.728
1212.43
2976.89
6812.65
13699.9
23936.1
37815.1
61540.1
101635
14920.5
5302.94
1903.44
919.261
636.595
784.768
1512.53
3241.89
6637.51
12393.9
21150.1
37026.7
73049.4
133708
20356.4
7149.42
2991.11
1792
1362.93
1469.59
2243.07
3984.72
7184.23
12594
22115.4
49840
108756
203873
39866.1
12957.6
5649.52
3818.72
3085.4
3026.13
3791.11
5667.99
9238.07
16101
34021.1
86841.4
179430
311293
99889
36126.4
12276.1
8086.25
6952.81
6703.01
7584.19
10155
15701.3
30099.4
68459.2
159216
286624
419352
205450
120454
53250.3
23374.9
15795
14601.3
16058.4
20931.3
32598.7
63753.3
134140
257010
375505
440052
311537
250355
150285
74289.8
40013.9
29930.5
30650.6
39411.5
61331.4
112677
201711
305816
361655
358104
382807
380960
298615
183910
105154
66223.3
54874.9
62940
90432.6
148221
217454
269050
278911
273165
442855
303878
196671
112876
64363.8
42944.2
41611.6
57668.7
96912
164238
259188
354329
383210
339556
361847
227912
130390
69886.8
39909.7
26171.8
22631.7
29643.5
52977.6
97817.7
167252
246461
291249
274233
232716
134000
70518.2
36747.9
21300.4
13882.5
11525.7
15260.8
29590.5
58404.4
102555
158808
204354
215804
121270
62736.4
31151.9
15910.7
9259.8
6119.66
5330.94
7840.01
16574.4
34312.9
60800.4
94805.9
128474
151470
54066.4
24376.2
11297.9
5526.07
3201.96
2258.31
2398.23
4461.32
10386.9
22191
39567.1
60397.5
82280.9
105014
22398.8
8686.89
3545.64
1596.32
926.211
797.339
1275.46
3048.01
7428.32
15718.6
27706.9
41659.8
57443
79786.2
11276.6
3928.22
1329.2
532.844
329.398
432.374
1005.91
2588.82
6075.39
12297.3
21274.4
32446.7
48559
79719.5
9773.42
3356.87
1113.9
495.886
351.658
511.622
1131.97
2622.28
5598.3
10655.8
18196.5
29811.1
54857.8
103426
13532.7
4676.37
1773.05
984.12
750.882
903.891
1560.56
3021.42
5761.82
10446.5
18526.2
36598.7
79822
156714
25637
8507.01
3460.69
2221.47
1792.93
1879.77
2587.78
4195.48
7287.13
13259.9
26265
61568.6
129923
237914
63503.4
21341.4
7389.9
4999.4
4274.58
4319.51
5302.29
7690.14
12627.7
23188.4
48080.5
109467
206589
334362
148178
78172.5
32699.1
13681.1
9848.84
9641.39
11367.1
15605.3
24306.7
44398.7
89025.2
174979
289215
403427
266369
185649
102852
46275.8
24297.8
19647.1
21509.6
28403.3
43130.1
75381.8
137471
235462
330637
392281
394531
325321
223121
125847
67668
42674.7
37457
44865.2
64717.6
107626
177599
256277
307966
333638
324179
204089
126552
75248.2
46657.1
32894.5
30485.5
40291
67917.1
115027
181008
259479
324227
352622
234609
143902
83212.3
47789.4
29642.6
20423.5
17412
21840
39173.7
72667
119792
173099
220488
242455
142672
84233.9
46495.3
26096.2
16172.9
10992.8
9080.35
11558.5
22476.7
45080.7
77402.3
114315
148981
178028
73963.5
39936
20985.6
11593.2
7167.59
4919.53
4251.68
6092.67
13062.2
27705.7
49109.3
73348.5
97000.4
122359
32550.7
15287.5
7504.73
4060.26
2527.93
1831.34
1905.44
3499.08
8280.96
18037.5
32613.3
49505.4
66322.9
86294.9
13124.7
5135
2214.11
1132.61
721.506
629.386
988.255
2389.34
5929.75
12797.3
23126
35481.1
48303.8
64388
6626.5
2186.07
730.705
313.262
213.237
298.791
734.792
1980.21
4789.21
9950.74
17714.6
27576.8
39325.8
57474.7
5974.49
1877.72
557.562
223.817
166.577
296.171
757.467
1905.55
4279.79
8458.38
14843.9
23879.9
37572.3
64752.8
8288.42
2661.84
899.755
452.999
347.328
482.368
968.621
2081.76
4257.86
8088.86
14490.4
25636.7
47991.9
92845.7
15028.5
4859.4
1846.39
1124.17
905.041
1021.27
1566.56
2800.44
5248.83
9979.04
19329.6
38870.4
76001.1
139433
35421.9
11310.1
4159.19
2787.57
2378.02
2512.35
3325.21
5222.47
9179.14
17286.2
33860.4
66936.6
121391
198249
84748.1
41544.1
16406.6
6964.21
5823.8
6091.26
7640.46
11176.8
18209
31860.7
58097
104890
177074
266956
169538
104304
52605.1
21694.3
12809.9
12772.5
15321
21054.2
31793.8
51381.4
86691.9
144938
229220
324564
277029
191236
117226
61567.7
33394.1
24952
26474.8
33878.8
47882.5
73499.5
120160
189395
269280
368941
259312
282645
334021
448028
720118
1.78634e+06
215463
230857
272313
372243
633002
1.59258e+06
188983
193113
220767
306831
566970
1.43773e+06
159107
163716
185362
256150
513515
1.31259e+06
137104
146796
170072
228399
477711
1.20989e+06
127106
147968
177263
228609
464478
1.12573e+06
144520
175437
207944
253330
475446
1.06716e+06
194603
234911
262338
294115
495618
1.04223e+06
280055
318423
323150
333555
507917
1.04435e+06
371867
379032
349764
345207
494377
1.07924e+06
411986
372528
327978
328725
467566
1.15898e+06
374277
321686
291830
313982
464526
1.31726e+06
302652
273514
270701
319852
501960
1.60134e+06
250219
249225
270325
346142
581486
2.04943e+06
275031
287234
317155
403053
674116
1.95811e+06
225334
234240
261708
329525
550888
1.61957e+06
191696
198521
220934
277272
464872
1.36121e+06
153132
167577
193877
244024
411486
1.16782e+06
123168
145754
181182
231869
394442
1.02765e+06
108143
139573
185040
238808
408151
939234
119170
158224
209827
262091
435884
895926
158506
207032
262411
304216
464149
895309
228592
287318
336043
351937
478712
935306
314538
370235
392814
376012
463123
1.01386e+06
384977
409256
394308
358767
430973
1.13493e+06
402238
389115
355937
330196
423089
1.31208e+06
364203
341118
316322
318728
454744
1.57499e+06
309653
298570
292038
327078
518309
1.95757e+06
331422
354334
362988
403742
601876
1.71426e+06
237388
268036
297961
338732
471624
1.31336e+06
190114
222561
259853
300063
391123
1.03919e+06
144338
182546
229066
279052
354636
860275
110718
152637
208987
269545
350188
755264
89098.5
132386
198589
268220
368998
703235
86819.8
133557
204309
274280
397728
695312
104149
154697
231586
299586
419299
711862
140138
200303
285852
347482
435395
758776
190619
262438
352796
391633
434384
839177
245102
326222
406395
409271
417650
954024
299088
374128
427725
408556
422746
1.11744e+06
342623
403135
433899
413399
461273
1.33763e+06
373907
424067
436448
423415
522556
1.61323e+06
229470
246133
284894
390654
707871
2.27544e+06
212650
216118
240278
318157
574322
1.94507e+06
202750
193789
206491
268002
480703
1.68947e+06
177727
171707
185816
238337
423939
1.49165e+06
143687
149765
175234
229532
401880
1.34122e+06
109410
134266
177612
240336
412439
1.23073e+06
94289.8
136137
195970
267917
447367
1.16212e+06
101292
163294
238062
313197
490973
1.12894e+06
138320
224893
310136
371028
521761
1.11649e+06
208364
316651
392724
415185
515996
1.12926e+06
301155
402400
436209
412235
472059
1.17214e+06
383725
435941
420651
375528
434619
1.27591e+06
406128
409978
373333
342983
437923
1.48003e+06
369951
353495
321528
329497
487533
1.82843e+06
261640
266379
282540
351881
611031
2.09475e+06
238565
237773
255078
305900
490117
1.70197e+06
215208
215754
235137
279931
413663
1.42031e+06
173066
184839
217671
269889
382527
1.21496e+06
124602
149521
199906
269098
387217
1.06759e+06
86272.2
120720
187090
274707
412174
980510
68917.3
111659
189965
291438
456679
945973
70349.3
126673
217879
326855
515022
946124
95903.3
174268
284763
389948
557572
962225
149720
256833
385037
460371
556442
1.00557e+06
228986
354274
472626
487352
503044
1.07967e+06
321664
432000
498131
458215
449458
1.20322e+06
392435
460647
469507
414412
441039
1.39621e+06
412723
440361
410601
375042
468392
1.69551e+06
374823
406404
410209
435148
590933
1.6317e+06
270522
315281
357390
404444
512272
1.30143e+06
211034
263219
325274
387264
466597
1.07969e+06
152199
205888
286638
376766
455756
926514
102243
152469
244677
361852
462188
824110
69119.9
111221
203145
340838
470563
769304
51715.7
90530.6
179561
324477
490379
751304
45457
86560.9
175591
323151
528491
758345
52265.6
103830
203688
357319
560928
779148
76484.3
143774
267106
427694
573171
822377
117285
201680
354279
491421
547766
890467
173736
272614
434840
520784
511730
998201
243137
348625
485343
520057
506650
1.16346e+06
313101
414744
502739
498643
522811
1.39504e+06
1.7467e+06
649189
463824
445825
462204
463139
1.52671e+06
723816
527346
506991
491093
455939
1.42514e+06
876256
566497
495514
426793
354031
1.34986e+06
965324
512622
393237
298951
223817
1.261e+06
867532
389333
263018
180932
124967
1.17335e+06
663821
273685
167841
107243
67626.1
1.10822e+06
482211
201664
118500
72357.8
41369
1.06571e+06
368315
167960
102297
64732.7
36439.9
1.09172e+06
315425
161815
110445
79456.6
47937.3
1.16808e+06
307673
175010
138665
119503
83808.5
1.28946e+06
333661
202601
176822
174492
150963
1.46087e+06
388560
239015
213629
223539
222168
1.68772e+06
475110
285603
247303
255918
267491
1.99487e+06
586071
339109
279510
287038
302427
1.83478e+06
625677
466122
472019
477604
452405
1.57958e+06
686665
538255
522579
473833
412082
1.41655e+06
814212
567651
484747
383848
302068
1.2737e+06
893195
499666
367228
256260
184797
1.13075e+06
796310
371567
239374
151862
99648.1
1.00918e+06
614412
259179
148659
87298.4
50684.5
924450
455730
194066
103013
55915.1
28974.4
872606
356071
168578
90368.4
48834.7
24799.6
870598
310862
170241
101658
60674.2
32635.1
926275
301282
190149
136201
96827.2
57035.2
1.04526e+06
312523
219623
185742
159779
114253
1.22061e+06
352066
253584
236346
230202
193729
1.46185e+06
425121
294310
280024
288700
270637
1.80095e+06
522516
343990
328970
365284
370429
1.66739e+06
607883
499134
492260
427404
346489
1.45716e+06
633536
532769
468335
353403
269682
1.28056e+06
685017
507224
378373
248365
178750
1.11268e+06
699893
419364
266164
156207
104916
959849
614556
309246
171005
92814.4
56815.7
838433
498733
223854
108034
55641.7
29426.9
754272
410962
180216
79254.6
37843.6
17755.7
705941
360627
170095
74236.6
34870.5
16106.8
691987
339601
181429
86452.5
43139
20991.7
722735
343752
210494
119365
67183.4
34830.6
808634
360962
250323
172963
116445
72031.3
947249
398783
302273
243504
186694
130950
1.1412e+06
462014
362519
322140
272940
213185
1.41584e+06
540974
436835
439500
420218
352984
1.65537e+06
650160
425504
340981
308289
299519
1.39667e+06
665528
440349
378166
361168
365224
1.27503e+06
753599
477019
420379
402639
397973
1.21168e+06
842823
481358
413730
374580
345006
1.1455e+06
824809
414840
333845
280193
242943
1.07696e+06
703769
312979
231236
183577
154851
1.03767e+06
569831
233108
159494
122177
100048
1.03967e+06
466585
192498
128429
97402.7
76789.4
1.07154e+06
411288
183995
128846
102121
79464.7
1.15328e+06
410370
203028
155547
136124
112541
1.26164e+06
448762
247276
201459
188678
170692
1.40165e+06
505438
304144
254628
246183
240180
1.57965e+06
578852
366044
307827
300890
303365
1.81384e+06
674343
435756
374205
381680
396805
1.87348e+06
610103
397735
343426
328151
325020
1.55551e+06
608114
424226
389757
379611
380056
1.3473e+06
673363
464398
427869
401912
382806
1.19109e+06
753291
467249
409332
353694
313308
1.05369e+06
737985
401747
323382
257230
216864
941256
632131
304364
222725
168521
137358
873229
515583
228843
152773
110631
87030.7
853607
424556
191977
122076
85384
64016.1
876876
368569
185304
121939
87468.1
64200.9
954555
351242
199721
149050
119262
91023.2
1.08208e+06
375418
233977
195116
174476
146024
1.26894e+06
430827
281321
248856
239928
220558
1.52331e+06
515771
339799
305667
305097
295764
1.86294e+06
634813
415383
385891
410241
416389
1.77163e+06
555864
413583
397995
379871
349313
1.52337e+06
540618
438525
416677
374899
336146
1.3018e+06
556137
453423
404142
333176
283899
1.10559e+06
579919
429236
348974
262432
213315
935993
553658
357424
266733
187932
146625
806763
486447
275874
188035
127837
94721.4
723783
424881
218443
134310
87184.5
61428.6
682981
378433
193879
111054
69186.1
46879.8
675002
346003
193647
112364
70976.1
48169.7
711320
334269
211544
139163
95404.7
66652.1
801367
349423
244135
183999
139448
103579
963502
394054
290903
245051
203724
161546
1.21361e+06
476130
353976
317780
284144
238063
1.57832e+06
597378
445346
437447
430781
380010
125488
81109.7
52525.8
34968
25554.9
20047.7
17684.6
18940.1
27082.9
44392.7
71459.5
111004
167935
244122
73397.2
48107
30817
20205.2
14577
11180.6
9555.7
10270.9
16009.5
29457.8
51328.1
81035.5
118755
163909
39686.8
25053.6
15497.8
10014.1
7137.55
5379.37
4569.78
5226.27
9235.6
18892.6
35080
56827.8
83719.1
116935
19083.5
10753.5
6263.88
4021.88
2863.17
2162.18
1939.59
2640.27
5523.3
12301.1
23912.1
39883.3
59710.6
84770.5
8167.71
3765.47
2004.35
1272.54
915.964
727.987
799.026
1493.59
3666.47
8541.29
17032.1
29098.4
44546.8
64962.4
3607.77
1265.79
546.803
321.512
237.341
233.132
406.439
1052.74
2786.62
6487.33
12932.6
22391.9
34969
52152.3
2292.17
633.452
186.88
81.4226
64.3477
109.74
307.873
904.879
2370.82
5367.73
10540.4
18339.1
29244.3
45098.4
2328.63
610.701
154.334
53.0504
44.8512
103.758
311.145
878.447
2184.36
4753.11
9142.61
15917.7
25907.4
41404.1
3113.96
858.767
258.409
115.693
94.3812
160.276
383.087
949.456
2183.22
4537.48
8575.44
15086.7
25522.1
43282.3
4974.41
1497.15
583.578
346.145
286.767
354.974
610.656
1225.58
2514.01
4965.67
9346.45
16932.3
30047.7
52091.7
9657.53
3195.28
1459.11
1018.17
887.342
971.886
1337.94
2190.09
3946.78
7342.88
13659.3
24815.8
43155.9
69194.4
22113.9
8718.39
3668.33
2712.23
2502.94
2698.57
3399.15
4922.51
7930.32
13545.6
23609.6
40498.4
65364.9
96912.8
49439
22211.8
9774.72
6411.8
6145.91
6647.14
8044.59
10797.2
15837.7
24649
39565.2
63484.8
99641.5
143726
86178.4
45144.2
25369.1
15909.5
13522.1
14257.3
16643.4
21140.3
28848.3
41675.9
63126.4
97928.7
152326
229750
49256.8
35997.5
26303.2
19270.3
15534.1
13129.9
11784.6
11548.9
13895.9
20747.3
33656.8
53495.9
83337.7
131556
26996.7
19265.9
13710.2
9955.54
7984.2
6659.38
5896.62
5872.2
7725.8
13213.4
24098.6
41278.4
65938.7
101763
13798.7
8889.35
6013.49
4356.45
3497.8
2895.93
2581.82
2769.24
4267.99
8458.68
16928.6
30628.7
50224.8
77662.2
6415.08
3444.73
2158.96
1553.83
1254.78
1050.07
998.572
1297.34
2516.14
5673.27
12054.7
22608.4
38049.1
59467.9
2893.51
1195.85
643.511
448.386
363.18
323.282
382.861
708.823
1719.98
4173.99
9086.25
17383.1
29807.2
47703.9
1554.88
470.108
182.899
109.621
88.9388
100.626
193.215
511.366
1387.62
3410.53
7382.17
14140.9
24492.1
39844.8
1174.33
294.307
77.2965
30.5927
25.7227
51.1003
152.862
462.923
1263.64
3036.81
6438.43
12222.7
21242.4
35122.6
1214.85
300.714
73.0032
23.8662
21.1346
51.99
161.266
473.402
1239.3
2869.42
5918.65
11061.9
19183.1
32056.4
1526.63
405.56
122.665
54.9587
47.1207
82.8548
204.973
533.232
1298.35
2863.52
5719.03
10522.2
18258.7
30949.5
2227.35
674.808
286.801
175.029
149.175
187.575
330.517
692.974
1491.93
3067.46
5898.92
10683.5
18584.6
31876.3
3765.48
1373.59
756.731
553.05
484.758
524.105
712.67
1170.21
2127.83
3964.7
7256.34
12854
22147.1
37505.4
7607.6
3094.78
1932.22
1578.4
1449.5
1514.48
1833.15
2559.99
3997.95
6656.54
11312.3
19002.7
31095
48388.9
16777.4
7182.44
4509.2
3938.9
3807.54
4013.41
4673
6021.26
8506.14
12877
20240.6
31946.4
48800.4
68110
30030.5
15917.9
10423.7
8802.33
8757.14
9370.84
10758.6
13296.4
17649.4
24994.4
37132.3
56323.6
83249
113078
16272.7
12665.2
10371.5
8574.32
7722.42
7112.73
6696.47
6424.95
6751.83
8520.99
13055.4
21635.1
36185.6
61650.7
8217.34
5881.85
4645.12
3811.17
3466.12
3202.04
3015.11
2951.32
3365.25
4950.04
8876.47
16558.7
29790.9
51603.7
3910.51
2381.08
1759.21
1431.29
1312.67
1218.37
1169.52
1233.74
1676.65
3039.45
6292.74
12781.6
24141
42690.9
1862.63
870.452
561.507
445.049
407.811
384.533
397.972
512.467
926.045
2061.19
4704.24
10039
19559.2
35157.9
1001.61
330.59
160.032
115.565
104.133
105.014
138.191
263.361
641.826
1622.27
3853.25
8343.62
16418.2
29773.3
674.139
168.229
51.953
27.5853
23.8262
31.7821
69.8039
195.336
553.262
1451.09
3444.07
7382.46
14395.5
25982.3
563.561
129.141
29.8068
9.48949
7.87897
18.39
59.731
190.175
549.766
1423.55
3301.09
6908.2
13212.4
23570.2
577.534
137.295
32.0655
9.71462
8.47325
21.4397
68.7392
211.569
589.975
1473.06
3296.74
6684.04
12479.1
21881.6
689.946
180.324
54.0695
24.1074
21.204
37.4915
94.7148
257.942
668.445
1580.8
3385.91
6630.13
12075.1
20867.6
933.957
295.849
132.168
82.0179
70.9922
89.8181
161.283
352.578
802.531
1748.9
3543.05
6665.43
11806.5
20112.8
1458.48
617.678
377.689
280.147
243.421
258.815
350.567
585.503
1098.02
2115.52
3969.25
7107.68
12220.7
20587.4
2682.22
1427.1
1043.21
863.536
773.356
776.223
904.021
1226.48
1879.7
3100.23
5237.34
8771.54
14459.1
23693.4
5229.31
3195.15
2574.27
2318.37
2180.04
2196.14
2427.93
2968.97
3983.4
5770.79
8770.94
13541.9
20836.5
31563.6
9861.54
6695.6
5630.37
5376.17
5354.46
5568.58
6139.16
7243.55
9136.91
12317.9
17476.2
25441.4
36857.7
50570.8
4990.42
3868.03
3356.34
3111.17
3167.94
3244.1
3286.78
3265.76
3312.29
3714.99
5109.89
8332.61
14707.9
27018
2372.99
1588.27
1304.34
1200.88
1239.53
1286.34
1319.32
1339.23
1448.1
1885.14
3164.77
6089.36
11969.8
23142.1
1144.19
594.068
436.981
393.984
408.158
428.012
451.296
491.668
627.236
1050.79
2180.08
4759.97
10065.9
20295.9
617.494
222.039
127.786
108.157
110.729
118.063
134.819
178.776
312.183
692.643
1670.48
3924.47
8660.4
17903.3
397.639
100.717
36.9828
25.5169
25.0661
28.7738
42.2853
84.8934
213.435
570.232
1471.83
3539.86
7868.24
16244.1
298.897
64.2195
15.3108
6.30977
5.48102
8.66406
21.7043
65.2297
196.809
557.056
1449.72
3449.09
7508.53
15110
258.143
55.527
11.6015
2.94572
2.23792
5.92627
20.7675
70.214
217.27
609.094
1543.64
3546.1
7432.02
14425.1
265.462
60.8628
13.4341
3.71029
3.11406
8.00745
26.687
86.7634
258.686
696.483
1686.72
3696.84
7419.93
13860.1
315.426
80.0878
22.8126
9.8261
8.74318
15.5767
40.5022
116.054
320.093
809.99
1855.73
3868.56
7443.45
13442.9
420.036
134.498
59.1298
36.0737
31.3026
40.0424
73.9649
169.397
408.215
944.861
2028.6
4019.2
7431.07
13030.4
655.912
301.367
185.41
134.402
114.377
120.595
165.763
286.812
564.227
1145.2
2259.9
4228.01
7505.02
12854.1
1235.29
754.043
559.143
449.927
389.112
378.615
434.724
592.421
926.261
1576.24
2762.48
4791.36
8121.46
13603.8
2463.16
1787.8
1483.24
1298.21
1174.6
1136.27
1212.75
1441.9
1898.33
2728.51
4158.07
6512.62
10308.6
16573.7
4749.88
3798.73
3380.7
3191.96
3080.18
3085.89
3271.99
3700.79
4476.47
5801.76
7938.52
11272.7
16288.3
24010.3
1783.72
1275.94
1077.55
1040.67
1135.08
1263.73
1386.8
1470.32
1551.81
1735.67
2303.11
3691.65
6677.38
12970.1
836.336
481.901
372.902
355.494
390.692
439.825
489.35
530.386
594.292
771.62
1280.51
2511.68
5210.34
10901.9
424.694
173.982
112.545
103.393
113.165
128.08
146.283
170.264
226.236
387.361
828.456
1906.88
4349.67
9629.36
251.989
69.3637
30.9327
25.3738
27.1756
31.1853
38.6103
55.2948
103.267
243.106
624.699
1583.44
3828.04
8772.76
173.928
36.6537
9.73988
5.59785
5.54954
6.93689
11.3612
25.3967
69.9125
202.272
566.133
1488.43
3649.68
8351.69
133.756
26.4553
5.27568
1.57119
1.20192
2.15904
6.20868
20.6433
67.777
208.187
590.18
1539.2
3691.2
8175.66
118.203
24.5188
4.74678
0.986235
0.614867
1.74041
6.60834
24.0967
80.4693
244.129
672.708
1687.09
3865.73
8168.43
125.806
27.7468
5.64406
1.37177
1.05293
2.68895
9.32914
32.249
103.123
299.377
785.445
1867.1
4055.09
8153.25
154.075
36.9703
9.54405
3.80612
3.33711
5.86201
15.46
46.4505
136.643
371.735
918.512
2061.65
4249.72
8174.13
210.82
64.1812
26.1588
15.2219
13.0807
16.6623
30.8931
73.033
186.193
461.417
1063.01
2251.91
4424.29
8186.21
344.207
154.475
89.8807
62.1344
51.6816
54.3476
75.4513
133.988
275.878
593.459
1244.66
2469.06
4619.51
8246.11
688.944
418.237
294.976
225.745
188.801
181.402
209.825
292.547
473.906
844.373
1556.94
2842.2
5039.98
8734.82
1456.05
1056.94
838.726
697.491
606.653
573.396
608.338
729.757
980.142
1450.66
2295.83
3756.6
6211.64
10415.9
2915.98
2346.01
2019.01
1821.02
1687.54
1644.02
1714.11
1923.07
2323.36
3019.12
4165.53
6011.73
8998.77
14218.4
789.476
498.103
377.343
341.744
366.201
419.303
487.84
555.154
635.801
771.235
1095.4
1843.58
3462.82
6947.7
359.006
171.42
114.624
101.962
110.094
126.893
149.04
173.912
214.579
310.031
564.323
1180.82
2571.17
5622.44
183.326
59.1022
30.5017
25.6768
27.5794
31.8253
38.3334
48.8968
74.4565
146.373
345.24
849.399
2049.26
4800.96
110.934
24.7214
7.90435
5.49404
5.70425
6.69095
8.92814
14.8067
33.0033
88.5783
248.207
674.692
1746.34
4301.76
77.4494
14.6094
2.9364
1.16809
1.02416
1.34364
2.58007
7.01491
22.3846
71.6813
217.74
619.207
1647.78
4109.23
60.8943
11.6526
2.09591
0.436882
0.229096
0.452577
1.56884
5.97745
21.7659
73.0889
225.409
640.842
1683.8
4096.64
57.1082
11.7006
2.13266
0.366835
0.156034
0.436487
1.81867
7.26995
26.5345
87.8477
264.139
724.593
1821.26
4216.68
65.3596
13.9124
2.59683
0.537983
0.335044
0.783297
2.78671
10.3144
35.7487
113.057
324.21
843.884
2004.56
4386.49
84.1791
18.8886
4.3525
1.5583
1.28165
2.07061
5.24845
16.2576
51.0769
150.591
405.682
992.517
2221.72
4605.56
119.422
33.4973
12.3028
6.72571
5.66029
6.98293
12.3609
29.0008
76.9585
203.948
507.514
1160.79
2450.55
4835.84
203.635
84.4424
45.1077
29.4315
23.9985
25.2791
34.8181
61.3873
128.818
290.251
646.761
1366.97
2715.32
5110.06
426.785
241.62
157.546
113.341
91.9821
88.932
105.046
149.573
248.33
457.838
882.126
1691.76
3147.21
5676.15
940.667
641.28
472.688
368.517
307.98
289.598
314.166
390.934
546.567
839.976
1379.6
2350.52
4047.05
7014.62
1942.75
1479.85
1192.24
1010.02
895.346
857.345
900.536
1037.78
1302.54
1758.11
2510.85
3754.77
5848.32
9622.57
411.45
231.309
153.045
120.945
117.655
131.292
158.393
193.843
245.598
334.13
532.358
982.577
1955.49
4038.4
176.362
71.4497
40.1994
30.991
30.6667
34.712
42.6288
54.2172
76.0316
127.469
264.06
603.158
1383.74
3115.21
86.1771
22.9521
9.26314
6.61549
6.59011
7.57097
9.73502
14.077
25.573
59.0649
154.997
408.012
1030.51
2500.86
50.6528
9.8189
2.33179
1.22924
1.16672
1.39967
2.11646
4.27891
11.4619
34.6038
104.589
301.323
821.005
2128.27
35.5337
6.42181
1.11383
0.286621
0.189655
0.26857
0.648792
2.13532
7.63893
26.4491
85.8813
260.382
739.257
1972.99
29.753
5.7435
0.997962
0.164486
0.0515283
0.1068
0.436958
1.83796
7.20826
25.9424
85.8373
262.427
743.37
1956.21
31.008
6.34472
1.10671
0.167957
0.0485779
0.120206
0.527087
2.24924
8.78609
31.21
101.068
299.665
816.143
2050.75
38.7725
7.95864
1.37889
0.251574
0.128597
0.254849
0.871895
3.35432
12.3734
41.9373
129.472
364.128
936.526
2217.42
52.7276
11.0617
2.28531
0.740111
0.578926
0.838625
1.9122
5.82949
19.0814
59.8495
172.976
455.716
1099.03
2448.83
77.6576
19.8012
6.43842
3.31312
2.77309
3.30764
5.41171
12.0213
32.0238
88.5971
234.215
572.546
1291.87
2715.85
136.114
50.4872
24.2371
14.9657
12.1722
12.9431
17.5082
29.8094
61.5104
141.057
328.03
732.666
1542.34
3067.53
290.892
148.343
87.7682
59.3125
47.4565
46.9066
56.8146
81.7517
135.962
253.179
500.948
1001.23
1952.44
3682.9
654.215
406.4
272.913
198.82
161.72
154.408
174.492
226.697
327.66
516.589
870.541
1530.52
2727.98
4875.98
1384.67
969.969
714.931
565.151
482.969
462.785
502.932
610.099
805.907
1135.09
1677.79
2585.02
4138.57
6966.7
63.2943
88.7294
141.972
268.624
561.605
1197.77
2544.95
15.8132
26.019
54.2391
133.556
337.581
816.047
1875.31
3.99876
9.2403
26.2247
77.6055
218.292
570.941
1406.19
1.35702
4.47479
15.2704
49.588
149.646
420.232
1113.61
0.74042
2.94274
10.9191
37.3993
118.563
350.293
972.982
0.614976
2.57985
9.85709
34.5113
111.425
333.445
929.509
0.716236
2.98384
11.3098
39.0674
123.547
359.27
966.464
1.08866
4.21814
15.2498
50.3769
151.712
418.412
1064.71
40.1004
7.95537
1.49453
0.438774
0.328893
0.42241
0.78642
2.13161
6.95337
22.8767
70.4569
198.663
514.114
1230.02
60.6176
14.1225
4.03409
1.94301
1.63949
1.90927
2.80031
5.42743
13.4852
37.5146
103.715
269.373
649.381
1459.62
106.87
35.1882
14.986
8.76982
7.24703
7.88284
10.3979
16.4765
31.5487
70.1368
165.738
387.102
861.54
1814.91
226.598
103.011
54.8113
34.9225
28.121
28.9494
35.9414
51.3722
82.9387
150.388
296.756
607.433
1230.88
2422.71
508.155
285.276
173.305
118.393
95.5748
94.9967
112.738
151.627
222.255
351.051
592.43
1053.4
1917.53
3513.88
1091.02
696.567
465.066
343.153
286.844
282.538
323.825
414.806
570.865
825.736
1239.46
1930.19
3122.34
5314.13
199807
283820
370903
446969
511953
631574
124951
184705
262726
357025
473407
624523
82364
127058
194212
293695
433040
587999
55505.4
88278.7
144247
243682
396908
550964
40831.4
66819
116323
214920
372513
514940
32672.8
54941.7
100427
198213
357558
478571
29806.7
51931.4
98296.2
195586
351367
448270
31930.7
56879.5
108806
205617
351044
429111
42049.1
73734.6
136119
232036
359134
420332
61035.5
102037
176711
273323
373553
412460
88004.2
140001
226447
321532
390899
406245
124070
186755
279399
366282
415297
416818
174679
247183
336264
408984
443417
447344
241967
327156
401235
442723
460331
477499
84525.1
129320
195947
289062
404576
551258
60992.5
96997.6
154139
244427
380953
562074
44810
74016.9
123020
208855
357298
541524
33413.1
56648.1
98149
178317
331363
509456
27100
47076.4
85014
164076
312899
470107
23201.9
41357.5
77164.7
155707
292586
422340
21319.2
39358.2
76055.4
154205
273506
377433
21150.1
40461
80370.9
157014
258287
344431
24402.4
47407.5
93243.7
166725
252156
324320
32826.5
61710.9
113554
182896
255984
312077
47275.9
83236.4
140751
209315
270752
308440
66957.5
110174
174226
246090
301240
326338
94279.8
146052
217485
297532
354312
375489
136752
203164
282967
367817
426149
437776
30202.6
47833.7
77091.8
126404
208362
337867
24256.7
41068.4
69788
121253
213562
375830
20213.5
36057.7
63765.1
115321
212641
404384
16916.2
31301.6
56885.9
106759
207514
420736
15158.9
28688.1
53267.7
103112
209344
409624
13923.4
26639.7
50247.4
99574.9
206679
369305
13163.5
25401.4
48714.9
97878.7
197370
319878
12664.3
24703
48370.3
97569.8
184403
277191
12999.3
25721.5
51211.1
100143
173544
247724
15132.8
29807.6
58154.9
105236
167711
230834
20505.3
38693.8
70584.3
116709
173345
227608
29873.1
52579.4
89147.5
138480
195228
243757
44299.7
72892.7
116838
175969
239717
288261
66907.5
105555
161269
234763
307684
355753
10283.7
17733.4
30618.7
53722.7
97314
185107
8511.96
15984.6
29422.3
54799.9
106069
218652
7591.54
15215.5
29354.2
56785.2
114905
252533
7045.8
14667.9
29187.4
58271
122283
284340
7047.05
14891.3
30007.1
60774.8
128999
303949
7104.32
15015.4
30190.9
61266.2
130808
295804
7138.8
14968.1
29869.2
60586.9
129825
266234
7060.29
14621.2
29029.6
58979.2
124353
230285
7052.83
14487.4
28894.3
58498.5
117034
200031
7443.11
15160.5
30215
59374
110225
177509
9036.77
17987.6
34824.2
64230.3
109944
167427
12690
24004.3
43915.4
75557.7
120773
174284
19410.3
34407.9
59272.1
97235.9
149166
206851
30652
51498.4
84567.3
134441
200131
267594
3922.91
7392.95
13921.7
26521.7
52964.4
114026
3112.04
6509.09
13282.7
27038.8
56662.9
127135
2749.85
6193.74
13348.1
28371.9
61570.8
147504
2665.18
6254.73
13905.9
30275
67402.1
171317
2860.73
6813.84
15255.9
33354.4
75144.8
190817
3123.37
7405.91
16393.7
35475
80031.8
197553
3382.08
7899.3
17157.5
36764.9
82931.8
196512
3561.31
8144.38
17341.4
36638.4
81356.6
181529
3714.01
8310.53
17437
36502.5
79082.9
162785
3940.04
8605.21
17790.1
36592.4
75633.6
144101
4609.14
9743.03
19685.1
39031.7
75329.8
133343
6228.86
12564.4
24452.8
46054.1
82785.9
137219
9523.54
18144.4
33767
60810.2
104340
164721
15493.6
27957.3
49818.4
86500.3
143047
216351
1842.81
3764
7597.62
15226.3
31748.1
72486.5
1339.73
3094.15
6852.01
14803.8
32457.6
76547.2
1082.4
2727.15
6472.17
14830.4
34130.2
86350.3
989.607
2618.21
6476.75
15364.8
36295.2
98131.8
1045.55
2815.48
7056.36
16924.4
40470.1
111558
1177.83
3156.82
7816.67
18549.9
44377.8
120859
1356.24
3582.09
8684.86
20286.6
48660.8
128081
1532.85
3957.9
9347
21323
50199.1
125336
1729.45
4340.02
9981.35
22227.4
50889.2
118152
1973.18
4762.44
10571.3
22780
49943.9
107028
2428.47
5551.88
11794.1
24414.3
50468.8
99931
3365.5
7212.77
14626.9
28967.5
56290.9
103732
5217.84
10464.5
20391.3
39018.4
72522.2
126670
8631.89
16314.3
30676.1
56914.6
102110
171317
1032.5
2264.95
4833.08
10050
21367.3
48848.6
690.216
1747.79
4151.6
9412.16
21277.6
51153.8
496.26
1395.32
3611.01
8833.96
21288
54161.6
399.326
1197.21
3289.88
8488.42
21268.1
57907.8
382.312
1172.49
3309.08
8757.9
22498.2
63871.3
418.127
1272.57
3562.04
9373.1
24192.2
69191.6
497.342
1486.44
4064.96
10491.1
27033.8
76103.1
602.012
1750.95
4630.53
11587.9
29199.8
78596.2
744.022
2089.17
5303.6
12775.5
30999.7
77301.4
934.67
2492.9
6008.47
13776.1
31623.2
72499.6
1262.33
3134.19
7090.23
15329.5
32913.5
69567.8
1887.35
4304.35
9107.85
18592
37521.2
73900.6
3065.15
6406.87
12848
25307
49153
91880.1
5163.17
10032.1
19374.5
37285.4
70340.5
125922
421.145
1156.47
2910.51
6829.14
15681.5
37648
276.213
856.661
2381.03
6109.45
15170.5
38854.5
194.728
657.627
1982.29
5492.15
14487.9
39292.8
161.549
566.681
1789.05
5199.32
14292.6
40487.6
159.04
557.635
1771.35
5196.38
14487.1
41970.7
181.705
624.874
1948.14
5627.1
15600.2
44484.7
224.177
745.86
2239.57
6235.13
16828
46431.8
300.39
956.075
2722.99
7203.46
18507.5
47242.8
427.589
1276.43
3387.87
8340.55
19800.2
46052.6
664.101
1806.23
4384.79
9882.86
21466.3
45875.6
1111.98
2704.62
5973.66
12425
25192.3
50550.9
1929.53
4185.92
8556.09
16972.2
33317.1