/*--------------------------------*- C++ -*----------------------------------*\
| =========                 |                                                 |
| \\      /  F ield         | OpenFOAM: The Open Source CFD Toolbox           |
|  \\    /   O peration     | Version:  v2106                                 |
|   \\  /    A nd           | Website:  www.openfoam.com                      |
|    \\/     M anipulation  |                                                 |
\*---------------------------------------------------------------------------*/
FoamFile
{
    version     2.0;
    format      ascii;
    arch        "LSB;label=32;scalar=64";
    class       volScalarField;
    location    "0.00017";
    object      k;
}
// * * * * * * * * * * * * * * * * * * * * * * * * * * * * * * * * * * * * * //

dimensions      [0 2 -2 0 0 0 0];

internalField   nonuniform List<scalar> 
18273
(
9.61361
8.72484
7.94474
7.10977
5.98025
4.64371
3.68207
3.26664
3.23473
3.54696
4.31211
5.76444
8.16305
11.6979
6.32107
5.22412
4.27122
3.43465
2.80668
2.19469
1.85885
1.83156
2.02352
2.49302
3.4218
5.06115
7.65784
11.1361
4.25785
3.0911
2.15468
1.44205
1.05466
0.82047
0.746498
0.860917
1.14463
1.69537
2.72335
4.52759
7.33239
10.8443
3.07309
1.9025
1.06157
0.527882
0.305757
0.231725
0.245905
0.356303
0.613652
1.13744
2.16272
3.98898
6.77291
10.0938
2.49848
1.29504
0.548383
0.192362
0.0822623
0.0596961
0.0834956
0.167942
0.383561
0.879744
1.89048
3.6331
6.09411
8.75837
2.28412
1.00247
0.348713
0.119661
0.050386
0.0335087
0.0540194
0.131609
0.335694
0.80552
1.72204
3.19889
5.15964
7.20643
2.43687
0.950949
0.344887
0.156439
0.081403
0.0594764
0.0857477
0.181524
0.409824
0.877521
1.69696
2.91656
4.4625
6.05202
3.02633
1.12815
0.489947
0.275657
0.171729
0.137383
0.174004
0.300115
0.562328
1.03173
1.772
2.82851
4.17033
5.58212
4.21492
1.54724
0.787328
0.514217
0.365197
0.302847
0.339324
0.489214
0.777165
1.25447
1.97653
3.08509
4.4573
5.72349
6.94635
2.51759
1.30309
0.954207
0.753716
0.640913
0.646704
0.799124
1.12134
1.70143
2.59242
3.99519
5.32518
6.62378
10.328
4.66472
2.24768
1.6734
1.48643
1.35124
1.32558
1.50343
1.97325
3.00036
4.2512
5.84762
7.22109
8.53783
13.0893
7.41244
4.14258
2.9143
2.66974
2.65466
2.76139
3.21455
4.25318
5.91448
7.53134
9.24973
10.5205
11.6497
15.5708
10.2496
6.44766
4.51174
3.99431
4.18843
4.81773
5.97351
7.7522
9.99178
12.042
13.5542
14.4273
15.3385
18.1894
12.9035
8.82679
6.43183
5.52611
5.60208
6.45595
8.15066
10.3059
12.4871
14.5264
15.7282
16.5532
17.662
11.504
10.475
9.491
8.28332
6.6326
4.90735
3.70869
3.12566
3.04303
3.49801
4.63918
6.59045
9.50937
13.5677
7.27172
6.06733
5.02963
4.0998
3.32108
2.53408
2.02162
1.81959
1.91193
2.44367
3.67387
5.79171
8.94898
12.9234
4.4359
3.21502
2.3414
1.68972
1.31399
1.02072
0.856557
0.865401
1.0901
1.70565
2.98942
5.18552
8.43247
12.3205
2.70578
1.62477
0.959615
0.554097
0.381962
0.301899
0.286697
0.358471
0.594385
1.17545
2.38228
4.45748
7.45926
10.934
1.88933
0.934786
0.408323
0.164936
0.0881382
0.0711132
0.090005
0.167252
0.388866
0.937352
2.05906
3.88988
6.33449
8.98034
1.64522
0.706105
0.242605
0.0813692
0.0339365
0.0257772
0.0473789
0.124409
0.336263
0.834417
1.78622
3.23394
5.05067
6.97418
1.78856
0.702272
0.240372
0.0977267
0.0470134
0.0370273
0.0642812
0.154537
0.376467
0.838216
1.63098
2.75026
4.10984
5.56904
2.31685
0.870799
0.341935
0.173645
0.10302
0.0867908
0.124165
0.236457
0.473815
0.904359
1.57659
2.49997
3.66199
5.0323
3.37302
1.23171
0.551132
0.332279
0.230485
0.199674
0.243404
0.375914
0.624898
1.038
1.66478
2.61846
3.89537
5.31315
5.72764
1.99964
0.924297
0.631406
0.492504
0.43629
0.472742
0.61967
0.901039
1.38444
2.12347
3.45337
4.87071
6.45418
9.20949
3.81501
1.57002
1.13437
0.989695
0.927612
0.971182
1.17357
1.61161
2.40485
3.56068
5.24213
6.86924
8.53818
12.3744
6.67693
3.38909
2.10837
1.83814
1.81871
1.96152
2.36708
3.24978
4.75918
6.36517
8.37732
10.0861
11.5984
15.4617
9.89526
5.84008
3.62711
2.94234
2.97657
3.4115
4.30457
5.82442
8.12577
10.4838
12.5729
14.0529
15.337
18.6176
12.9089
8.57253
5.84525
4.57949
4.32291
4.87592
6.29691
8.47141
11.2337
14.0258
15.8702
16.9945
18.3212
11.5174
10.413
9.26945
7.88435
6.136
4.49344
3.32938
2.75465
2.68033
3.25608
4.67857
6.89062
9.73336
13.2324
7.44221
6.21286
5.16798
4.23605
3.37801
2.55774
1.94705
1.62548
1.63281
2.18449
3.60073
5.95944
9.04466
12.497
4.34495
3.12503
2.35387
1.79872
1.44328
1.1208
0.883846
0.765742
0.913954
1.53235
2.95167
5.3043
8.36716
11.6286
2.33787
1.35601
0.85362
0.571714
0.445873
0.358217
0.306813
0.321905
0.502884
1.07235
2.33418
4.44116
7.14337
9.9807
1.40971
0.647841
0.295853
0.146615
0.0990302
0.0838434
0.0918988
0.149787
0.347026
0.874198
1.97774
3.72707
5.83905
7.98046
1.16978
0.466291
0.154832
0.0523324
0.0239707
0.0208654
0.0388855
0.104853
0.297161
0.762786
1.6574
2.98208
4.51033
6.04031
1.27932
0.479819
0.149683
0.0521078
0.022322
0.0195472
0.0420748
0.115817
0.306202
0.715984
1.43294
2.42851
3.53938
4.68188
1.67259
0.612967
0.21034
0.0917414
0.0495654
0.0444799
0.0744463
0.160685
0.351198
0.712972
1.29593
2.0777
3.00053
4.1001
2.46185
0.885608
0.337063
0.182261
0.120408
0.109051
0.146176
0.245494
0.43619
0.764106
1.2808
2.02656
3.0082
4.48371
4.14697
1.44286
0.572454
0.362412
0.276888
0.255891
0.298055
0.414187
0.625833
0.984182
1.57413
2.54728
3.917
5.77159
6.90076
2.66642
0.983517
0.695974
0.596939
0.579038
0.64561
0.822243
1.15519
1.71945
2.57993
4.06851
5.85361
7.85192
9.59629
5.22657
2.41069
1.33611
1.18501
1.1994
1.36396
1.71966
2.37268
3.38657
4.66593
6.67211
8.57388
10.3503
12.6755
8.28232
4.61254
2.54333
2.03635
2.09626
2.42512
3.0615
4.15373
5.83402
7.79625
9.8109
11.6071
13.1194
15.3424
11.0095
7.41413
4.8024
3.55143
3.20545
3.54385
4.5203
6.17568
8.54509
11.0964
12.9168
14.3847
15.9945
16.0204
19.5815
24.7114
32.6682
46.7088
20.0454
14.8492
17.928
21.6363
27.6228
37.3323
18.9166
13.9544
16.3214
19.1936
24.5346
33.0845
19.1602
12.5406
14.2834
16.6076
21.9399
31.7247
20.6613
10.5272
11.8635
14.0297
19.6153
32.845
22.9202
8.59814
9.76718
11.814
17.2712
33.9137
25.6624
7.18388
8.21292
10.0334
14.9204
33.6363
28.5792
6.56054
7.38248
8.94898
13.3109
32.3118
31.1015
6.70788
7.42354
8.83614
12.9241
32.0115
32.9237
7.71284
8.47197
9.88949
13.8987
33.088
34.0447
9.77185
10.647
12.1784
16.2046
35.0203
34.2851
12.7495
13.6496
15.2842
19.3295
36.6465
33.0759
15.8628
16.4922
18.0721
21.9765
36.0419
29.7921
17.6152
17.9987
19.5986
23.2826
32.2874
25.2681
17.9767
20.5872
23.6073
27.9526
36.3474
25.03
16.6405
19.183
21.6118
24.9057
30.2256
25.2122
15.441
17.535
19.5873
22.6901
27.6307
26.3786
13.4557
15.1364
16.8956
20.4265
27.3134
28.1098
10.8683
12.215
13.9919
18.1109
27.9673
29.861
8.49272
9.66573
11.4048
15.4737
27.7447
31.1985
6.82161
7.831
9.44069
13.1314
26.1917
31.8927
6.11761
6.93542
8.38206
11.6956
24.3874
31.95
6.40833
7.11822
8.43152
11.5409
24.0528
31.7507
7.64146
8.35294
9.60786
12.5903
25.3148
31.597
9.82337
10.6231
11.894
14.7266
27.4647
31.4877
12.7511
13.5986
14.856
17.4618
29.6253
31.2226
15.9224
16.4505
17.4081
19.664
30.0971
30.4295
18.078
18.0368
18.5735
20.5825
27.961
29.4912
16.9887
19.2306
21.0661
23.022
26.6657
32.0306
15.6796
18.1425
20.0977
21.8107
24.9349
32.8118
14.3184
16.4916
18.1117
19.6652
23.3144
33.2018
12.2105
14.0405
15.368
17
21.385
32.9243
9.71784
11.2415
12.5471
14.5004
19.6775
31.8884
7.4312
8.75768
10.2052
12.4178
18.0885
30.204
5.80507
6.93476
8.49219
10.9297
16.8677
28.1947
5.13969
6.06824
7.63463
10.2176
16.1829
26.6682
5.52888
6.29299
7.75646
10.2708
16.4617
25.9264
6.86077
7.4959
8.76975
11.0931
17.4985
25.8992
8.85715
9.49716
10.6333
12.6714
18.9991
26.5411
11.1192
11.9256
13.0752
14.7575
20.8754
27.9321
13.6188
14.4347
15.4424
16.6221
22.0271
29.7946
16.0358
16.5928
17.1029
17.7189
21.7157
31.5992
17.5086
18.1348
20.0455
23.5369
27.3772
22.2813
15.6344
15.4995
17.037
20.6922
25.2143
23.6081
14.211
13.5106
14.8373
18.9409
25.3818
25.7861
12.8541
11.8947
13.0302
17.2343
25.9017
28.4757
11.3491
10.6301
11.5002
15.3747
25.969
31.2598
9.85748
9.52853
10.168
13.5415
25.218
33.6579
8.40632
8.55486
9.21165
12.3115
24.2092
35.406
7.2341
7.76917
8.75068
11.8995
24.1098
36.597
6.71122
7.55535
8.9641
12.4176
25.6739
37.6035
6.98067
8.21328
10.0783
14.0266
28.8131
38.1998
8.3245
10.0226
12.3301
16.7733
32.8178
38.1715
10.9792
13.1146
15.7279
20.3021
35.9249
36.683
14.8497
17.0199
19.3465
23.215
35.8008
32.8736
18.9537
20.4589
21.6519
24.1527
31.5852
27.7579
18.4306
17.9601
18.3805
20.5743
25.1831
29.632
16.4763
15.7033
15.7846
18.0105
22.9862
31.0343
15.2784
14.0128
13.8062
16.2247
22.5069
32.5556
13.7264
12.3789
12.161
14.5241
21.8883
33.8432
11.5812
10.79
10.8305
13.0235
20.844
34.4858
9.37394
9.22872
9.72369
11.9338
19.5548
34.3062
7.32481
7.85937
8.8954
11.3472
18.7776
33.6902
6.00468
6.97801
8.48223
11.2894
19.1171
33.245
5.71615
6.97585
8.80585
11.9481
20.8761
33.3108
6.42754
7.94771
10.0282
13.5122
23.9025
33.5441
8.14482
10.0231
12.3746
16.1195
27.9009
33.8886
10.969
13.2718
15.9057
19.484
31.1179
33.6857
15.0057
17.4689
19.7504
22.1878
31.2314
32.3946
19.5711
21.5728
22.3003
22.7653
27.4972
30.5852
17.6193
17.9309
17.6007
17.8689
21.2497
33.0713
15.5448
15.9899
15.5986
15.9139
19.6024
33.2944
14.3313
14.6347
14.0475
14.3724
18.2642
33.174
12.6477
12.984
12.6367
13.1442
16.9309
32.3106
10.1593
11.0309
11.3495
12.3181
15.8915
30.7808
7.8069
8.98209
10.1226
11.7993
15.433
28.8601
5.85721
7.2104
9.06951
11.5377
15.477
27.4188
4.66337
6.14205
8.39643
11.4448
15.9907
26.8967
4.50345
6.07969
8.47275
11.7555
17.1908
27.1174
5.42188
7.03093
9.33711
12.6396
19.1836
27.6863
7.15197
8.92109
11.1637
14.3425
21.5976
28.5112
9.43729
11.4422
13.9649
16.8838
23.7923
29.4608
12.3877
14.7198
17.4235
19.461
24.4424
30.4882
16.113
18.7622
20.7927
20.8762
22.5763
31.3111
31.0937
54.5355
28.1599
18.6565
13.547
10.5659
34.9716
46.0525
20.2304
12.6658
9.2552
7.46712
35.2233
34.1618
14.391
8.95134
6.71677
5.43905
34.287
25.4474
11.061
7.11502
5.43899
4.32271
33.394
20.5641
9.6687
6.57391
5.0847
3.88164
32.6678
18.5343
9.59709
6.99819
5.53066
4.0052
32.0502
18.2089
10.3944
8.19962
6.76948
4.783
31.3432
18.8446
11.6055
9.89514
8.88131
6.37132
30.3044
19.858
12.8672
11.5679
11.5476
8.90594
28.8386
20.7082
14.1584
13.0722
14.0247
12.0457
27.1131
21.1793
15.4862
14.4622
16.0579
15.0863
25.5543
21.7468
17.149
16.1408
17.7701
17.1738
24.5108
22.9738
19.4108
18.3037
19.3571
18.8109
24.1571
26.1529
23.0363
21.6516
22.0898
21.6005
30.8159
43.0443
26.7878
20.2262
15.6324
12.4727
32.4009
37.5255
19.9185
13.9022
10.5601
8.57721
31.8179
28.7013
14.3042
9.60228
7.30962
5.84706
30.5978
21.6471
10.9066
7.19459
5.40987
4.13065
29.7415
17.6724
9.37531
6.18309
4.50146
3.23856
29.2753
15.7875
9.16545
6.25194
4.47469
3.05141
29.2978
15.4164
9.93143
7.35044
5.40565
3.57001
29.7107
15.8917
11.2602
9.3996
7.49372
4.88817
30.3556
16.7643
12.6384
11.8701
10.672
7.18842
30.9053
17.7181
13.7962
14.159
14.2395
10.6647
30.8185
18.5133
14.9124
16.0013
17.3224
14.5725
30.279
19.3155
16.2495
17.6568
19.6204
17.4257
29.7551
20.4972
18.0336
19.382
21.2214
19.5898
29.6062
23.2621
21.0428
22.1814
24.0335
23.1027
32.4539
29.1459
22.2658
18.4111
14.8557
12.1886
30.4845
25.8827
17.4093
13.2089
10.3299
8.4891
28.5112
21.4624
13.1864
9.38708
7.19558
5.70745
27.0227
18.2096
10.4907
6.98971
5.13679
3.7804
25.7901
15.8499
9.25049
5.8056
3.96848
2.69154
24.8156
14.5908
9.11527
5.67429
3.66891
2.34548
24.4083
14.2566
9.89302
6.57286
4.24535
2.62428
24.8382
14.5592
11.371
8.62246
5.84711
3.50855
26.1575
15.0991
13.0615
11.5711
8.60491
5.15622
28.2362
15.6139
14.5677
14.6412
12.2173
8.04083
30.1426
16.5183
15.8092
17.1327
15.756
11.6974
31.334
17.7311
16.9797
18.925
18.2709
14.2817
31.81
19.0584
18.2582
20.3457
19.9552
16.5682
32.0648
20.8082
20.2949
22.6457
22.75
19.9774
27.997
50.5829
26.9161
18.6224
14.4956
12.3405
32.4326
45.7453
20.3019
13.3629
10.4548
9.05589
33.5431
37.6823
15.0047
9.66381
7.67788
6.67383
33.179
31.1959
11.952
7.62962
6.08809
5.24123
32.4547
27.7893
10.917
6.99634
5.48498
4.58581
31.5128
27.1878
11.4989
7.57668
5.76015
4.52706
30.2373
28.1698
13.3719
9.25771
6.92514
5.03227
28.446
29.5003
15.8596
11.727
9.02219
6.18178
26.3179
29.7139
18.1126
14.3759
11.7544
8.05461
24.2473
29.2999
20.3234
17.0836
14.5862
10.2392
22.5326
29.7203
22.9653
19.9288
17.0927
12.1285
21.4835
33.0554
26.1684
22.2615
18.4602
13.0971
21.4883
39.5991
30.1625
24.2564
19.2657
13.8274
22.8358
51.3921
35.6195
26.6037
20.1268
14.803
27.8981
38.4961
23.8145
18.8181
15.9258
14.1007
29.5372
34.7792
18.6895
14.0766
11.7586
10.4183
29.6679
28.9398
14.0996
10.2782
8.57475
7.57021
29.3406
23.8706
11.1026
7.81939
6.49115
5.66984
29.2915
21.0432
9.84023
6.71088
5.39395
4.57587
29.6743
20.5041
10.0942
6.86521
5.25584
4.20741
30.2417
21.6951
11.7455
8.37222
6.22814
4.60185
30.6243
23.6199
14.3694
11.1536
8.48128
5.86009
30.5118
25.099
17.1383
14.5397
11.7633
8.04704
29.7446
25.4999
19.7492
18.071
15.4463
10.8794
28.5863
25.5309
22.2352
21.5088
18.8315
13.6295
27.6112
26.8402
25.0798
24.301
20.9821
15.3345
27.1409
30.8172
28.4089
26.1674
22.0315
16.3335
27.306
39.8558
32.4081
27.7871
22.8631
17.5515
30.3622
25.356
19.8018
17.1418
15.1409
13.5617
27.9966
22.8213
16.2063
13.2865
11.5126
10.3133
25.8737
19.6574
12.7487
10.0472
8.63583
7.68072
24.5248
17.0825
10.2871
7.6748
6.48144
5.69987
23.9175
15.6101
9.05916
6.32992
5.07395
4.32883
23.9949
14.8187
8.96471
6.05824
4.55379
3.70102
24.8407
15.0201
9.92319
6.99268
5.07602
3.8564
26.6482
16.2341
11.7933
9.24945
6.86193
4.86376
29.1433
17.8553
14.1686
12.3825
9.74665
6.79548
31.4169
19.5597
16.7856
15.8739
13.1912
9.39894
32.8457
21.4738
19.6377
19.3204
16.4914
12.1207
33.4911
23.7028
22.3816
22.0475
18.8614
14.0964
33.5956
25.9279
24.7554
23.8288
20.1638
15.3529
33.4534
29.4539
26.4985
24.5116
21.0539
16.7479
7.59815
6.58825
5.65227
4.81084
3.90788
3.09781
2.44717
1.98861
1.85286
2.18572
3.22721
4.90843
6.99764
9.52728
4.85875
3.87058
3.14709
2.61794
2.16199
1.73993
1.38682
1.10957
1.00116
1.28229
2.2128
3.9135
6.17312
8.7516
2.72688
1.82233
1.35586
1.08539
0.914443
0.753114
0.609067
0.501991
0.51147
0.820682
1.71225
3.34223
5.52536
7.95855
1.37634
0.707043
0.437009
0.321723
0.272474
0.232898
0.200153
0.191353
0.271652
0.58652
1.36721
2.77268
4.68244
6.83095
0.810204
0.314104
0.130636
0.0723345
0.0560208
0.0503856
0.0527548
0.0790078
0.184082
0.491597
1.18476
2.37102
3.92636
5.63588
0.706779
0.239069
0.0688186
0.0220124
0.0106559
0.0100019
0.0186316
0.0526446
0.161459
0.447087
1.04101
2.00091
3.21044
4.48646
0.797059
0.259837
0.0700588
0.0196922
0.00708967
0.00671952
0.017628
0.0561454
0.166507
0.428914
0.932131
1.7007
2.63821
3.60325
1.02662
0.33598
0.0970944
0.0335413
0.0154668
0.0146159
0.0288349
0.0732162
0.184731
0.423256
0.847908
1.47092
2.22706
3.05478
1.42666
0.471166
0.152453
0.071809
0.0440284
0.0414029
0.0602364
0.111836
0.223417
0.438602
0.803615
1.34146
2.04843
2.96794
2.13984
0.720114
0.261164
0.157557
0.120853
0.116397
0.142881
0.207449
0.328829
0.542549
0.902037
1.47401
2.30524
3.59366
3.33178
1.24021
0.477641
0.33733
0.297429
0.302545
0.352766
0.455191
0.632233
0.926247
1.41573
2.22181
3.33444
5.08801
4.84133
2.50212
1.04296
0.691029
0.654552
0.699249
0.819873
1.02603
1.35386
1.85442
2.59672
3.73376
5.13664
6.98111
7.02193
4.34611
2.21363
1.33592
1.27496
1.37465
1.61662
1.99668
2.55813
3.34134
4.34192
5.67009
7.27235
8.8106
8.82817
6.42964
4.31899
2.80913
2.26867
2.31913
2.63767
3.21869
4.05676
5.19046
6.52135
7.80356
9.3377
10.7663
4.53793
3.85991
3.33209
2.90103
2.49744
2.11588
1.77835
1.4882
1.30624
1.39054
1.94148
3.02515
4.50394
6.25305
2.71544
2.05067
1.67549
1.43628
1.25974
1.08609
0.921675
0.768318
0.675119
0.749651
1.20025
2.20983
3.7598
5.63602
1.44787
0.879847
0.642336
0.532959
0.475734
0.421779
0.368043
0.317364
0.31067
0.441087
0.893791
1.86673
3.36757
5.15842
0.754399
0.339455
0.191966
0.14425
0.127815
0.116999
0.1086
0.10847
0.147228
0.301668
0.723378
1.58738
2.92258
4.53648
0.508229
0.174626
0.0621052
0.0320202
0.0246585
0.0232096
0.0260107
0.040525
0.0938564
0.255722
0.655145
1.42702
2.57734
3.94603
0.473076
0.146236
0.0390394
0.0113954
0.00496566
0.00457448
0.00906048
0.0266464
0.0841086
0.244917
0.613932
1.28357
2.24316
3.36555
0.523184
0.157572
0.040837
0.0107461
0.00358511
0.00327807
0.00883363
0.0292817
0.0912699
0.250497
0.586731
1.15997
1.95186
2.87451
0.638542
0.194913
0.0548061
0.0176596
0.00777948
0.00734386
0.0147259
0.039155
0.105596
0.260376
0.562116
1.05108
1.71283
2.48989
0.835062
0.261509
0.0854635
0.0388741
0.0235931
0.0222413
0.0325465
0.0623968
0.132551
0.279378
0.548323
0.972746
1.55287
2.26884
1.16882
0.37845
0.15144
0.0919679
0.0704619
0.0675744
0.0815853
0.118629
0.194394
0.337478
0.588789
0.993446
1.5842
2.40337
1.72213
0.605402
0.289305
0.213586
0.188329
0.187905
0.212382
0.266552
0.365967
0.539306
0.836032
1.32568
2.04852
3.12995
2.65933
1.17159
0.571089
0.463523
0.446497
0.467961
0.528501
0.633539
0.807073
1.08505
1.52252
2.20644
3.12458
4.43433
4.11978
2.18608
1.12779
0.915425
0.920696
0.998025
1.14025
1.35158
1.66702
2.11777
2.73611
3.59564
4.67152
5.96267
5.57278
3.78638
2.48291
1.77695
1.67655
1.80177
2.06178
2.4295
2.93301
3.58261
4.35572
5.24058
6.38139
7.52804
2.0572
1.65736
1.46722
1.33424
1.25598
1.16575
1.06828
0.952466
0.84694
0.799907
0.943939
1.41875
2.23041
3.36157
1.13041
0.768341
0.625281
0.558299
0.532467
0.50482
0.473228
0.42685
0.385575
0.389944
0.534094
0.943178
1.7127
2.86879
0.601536
0.311005
0.211168
0.180138
0.172064
0.16609
0.159339
0.149696
0.150581
0.19621
0.364839
0.774018
1.53884
2.69111
0.370324
0.137137
0.0628362
0.0448384
0.0411123
0.0401541
0.040357
0.0437744
0.0613717
0.121858
0.290127
0.672291
1.38591
2.47566
0.298255
0.0893384
0.0259575
0.0108933
0.00765296
0.00734811
0.00890736
0.0152116
0.0368004
0.101946
0.272144
0.644748
1.31681
2.31508
0.282791
0.0792487
0.0199841
0.00526274
0.00187247
0.00153504
0.00327101
0.0102908
0.0337795
0.102384
0.273661
0.630707
1.24633
2.13158
0.293006
0.0821832
0.0209977
0.0052554
0.001594
0.00128446
0.00340933
0.0117184
0.0383906
0.112131
0.284939
0.624239
1.18213
1.95643
0.333949
0.0973594
0.0268717
0.0081616
0.00347542
0.00317939
0.00611701
0.0164768
0.0469967
0.125277
0.296775
0.615202
1.11773
1.80049
0.409253
0.124953
0.0412453
0.0180779
0.0109956
0.0103744
0.0146496
0.0280316
0.0629458
0.1447
0.312409
0.609841
1.06692
1.6843
0.533608
0.174077
0.0764629
0.0464342
0.0353613
0.0334642
0.039256
0.0567403
0.0967025
0.181031
0.343185
0.622172
1.04919
1.63431
0.723748
0.273572
0.158248
0.119303
0.102927
0.0992385
0.10748
0.131622
0.180855
0.274388
0.443671
0.730439
1.16906
1.78999
1.12495
0.489982
0.331597
0.285248
0.266882
0.266182
0.283654
0.323923
0.397488
0.523208
0.732401
1.07408
1.57159
2.29295
1.85297
0.913257
0.660738
0.609426
0.60577
0.627153
0.676247
0.757054
0.886485
1.08693
1.38338
1.8261
2.41117
3.22366
2.87504
1.85635
1.29785
1.17025
1.19204
1.27408
1.40012
1.56784
1.79842
2.10183
2.48349
3.0077
3.69844
4.54843
0.770855
0.56533
0.496585
0.468153
0.478659
0.491212
0.503868
0.49794
0.474866
0.446961
0.458504
0.588679
0.912041
1.46627
0.425777
0.243111
0.183179
0.165597
0.168238
0.173925
0.180678
0.182272
0.180204
0.181935
0.221398
0.354999
0.654443
1.18427
0.259308
0.103713
0.0562748
0.0456814
0.0451066
0.0464895
0.0485187
0.0506947
0.0561662
0.0736353
0.129108
0.269157
0.56548
1.10418
0.198422
0.0584363
0.0185302
0.0103919
0.00907654
0.00915805
0.00989681
0.0120281
0.0189001
0.0393191
0.0949006
0.228918
0.515174
1.05063
0.172569
0.0451315
0.0107732
0.00322987
0.00163725
0.00142431
0.00190734
0.00388582
0.0105958
0.0311489
0.0878437
0.226425
0.521935
1.06658
0.157335
0.0403929
0.00968122
0.00229337
0.000607569
0.000343025
0.000777477
0.00275806
0.00980157
0.031962
0.093229
0.240486
0.545335
1.08844
0.152968
0.0409298
0.0102181
0.00240366
0.000644015
0.000396289
0.000932209
0.00331112
0.0116876
0.0375103
0.106611
0.265714
0.5795
1.11168
0.166741
0.0474646
0.0126537
0.00358477
0.00145075
0.00121685
0.00204056
0.00527081
0.0158325
0.0465053
0.124209
0.293651
0.610491
1.12006
0.196702
0.0594899
0.0190476
0.0079857
0.00484457
0.00450975
0.00589029
0.0106177
0.0243757
0.0610298
0.147678
0.325222
0.638907
1.12036
0.244133
0.0825513
0.0371682
0.0222427
0.0166439
0.015523
0.0176322
0.0247598
0.0429208
0.08613
0.179822
0.35928
0.662039
1.1132
0.316101
0.136519
0.0847627
0.0635072
0.0528525
0.0490048
0.051321
0.0618009
0.0857953
0.135731
0.234494
0.414055
0.706612
1.13377
0.469378
0.257625
0.195591
0.167213
0.14925
0.140824
0.142193
0.156389
0.188498
0.248421
0.355246
0.53859
0.827691
1.25021
0.761102
0.494581
0.417393
0.388908
0.369338
0.360714
0.36366
0.38372
0.429622
0.511176
0.643621
0.855041
1.16211
1.61075
1.34773
0.950333
0.811858
0.789699
0.794835
0.810005
0.83579
0.876652
0.946447
1.06095
1.23401
1.49806
1.84959
2.36716
0.312027
0.193007
0.154578
0.143513
0.153069
0.171311
0.195803
0.218129
0.231978
0.231355
0.229962
0.261289
0.384774
0.641624
0.186714
0.0819477
0.0504964
0.0433663
0.0451742
0.0504625
0.0582808
0.0667658
0.0741776
0.0790429
0.0918806
0.136887
0.253818
0.485769
0.13016
0.0393767
0.0146123
0.0101438
0.0100739
0.0111723
0.0129917
0.015401
0.0188721
0.0255451
0.0438264
0.0914823
0.200899
0.423704
0.107598
0.0263888
0.00587548
0.00223271
0.00171494
0.00181177
0.00219694
0.00304955
0.00526676
0.0114988
0.0286614
0.0724268
0.175454
0.397882
0.0920573
0.0214387
0.00448025
0.00103797
0.000349322
0.000248898
0.000376749
0.000905011
0.00270438
0.00841231
0.0251471
0.0703086
0.181156
0.424579
0.0802737
0.0190273
0.00429981
0.000928332
0.000204014
7.98473e-05
0.000174118
0.00066597
0.00251091
0.00873407
0.0276866
0.0796355
0.206275
0.47734
0.0755301
0.0191552
0.00451875
0.000973174
0.000235503
0.00012186
0.000245576
0.00086518
0.00322124
0.0111953
0.0351927
0.0990079
0.247413
0.547126
0.0811774
0.0220365
0.00543783
0.00139048
0.000544624
0.000445744
0.000666104
0.00161429
0.00500759
0.0158975
0.0469242
0.124745
0.294497
0.614465
0.0953192
0.0274573
0.00809925
0.00313814
0.00191012
0.00179038
0.00222105
0.00381673
0.00889775
0.0238534
0.0635026
0.155772
0.342281
0.668935
0.117191
0.0389305
0.0168453
0.00961696
0.00711374
0.00659895
0.00731986
0.0100892
0.0177324
0.0376515
0.0859035
0.189605
0.384087
0.705948
0.152526
0.0698553
0.0429492
0.031009
0.0249036
0.0223685
0.0228064
0.0272813
0.0385341
0.0639023
0.119095
0.229618
0.427033
0.739801
0.236031
0.145299
0.110489
0.0912514
0.0781607
0.0698931
0.0674154
0.0728634
0.0882967
0.119644
0.180404
0.293604
0.488155
0.790242
0.405489
0.299519
0.257648
0.232964
0.212179
0.195949
0.187103
0.19024
0.208731
0.248632
0.319717
0.440736
0.634169
0.933376
0.737267
0.586675
0.527366
0.510525
0.496573
0.482281
0.472695
0.472626
0.490809
0.538856
0.62701
0.77134
0.972156
1.29214
0.145734
0.0727114
0.0496073
0.0428659
0.0450743
0.0522294
0.0632389
0.076015
0.0876275
0.0938689
0.0980034
0.113241
0.170072
0.302739
0.0921144
0.0311619
0.0145121
0.0111197
0.0113366
0.0129687
0.0156142
0.0188753
0.022226
0.0253267
0.0315632
0.0511542
0.104082
0.215388
0.0670933
0.0164061
0.00416034
0.00223168
0.00211013
0.00238084
0.00285528
0.00350352
0.00447524
0.00665528
0.0131155
0.0312095
0.075369
0.170501
0.0549269
0.0117483
0.00208947
0.000535817
0.000312808
0.000315294
0.000392235
0.000574846
0.00110833
0.00284641
0.00819121
0.0231278
0.0611877
0.150505
0.045141
0.00961476
0.00184851
0.000364542
8.58577e-05
4.05022e-05
5.99601e-05
0.000166884
0.000580298
0.00205843
0.00689263
0.0213632
0.060976
0.159629
0.0383781
0.00861385
0.0018283
0.000355403
6.65287e-05
1.77466e-05
3.13524e-05
0.000131523
0.000555676
0.0021674
0.0076866
0.0247197
0.0720965
0.190093
0.0365623
0.0088531
0.00192914
0.000366325
7.59278e-05
3.19007e-05
5.3196e-05
0.000186881
0.000760924
0.0029614
0.0104665
0.0331651
0.0940668
0.238458
0.0403213
0.0102781
0.00226752
0.000491381
0.00017069
0.000133271
0.000181722
0.000409151
0.00131697
0.00461619
0.0153232
0.045977
0.123145
0.293322
0.0483356
0.012773
0.00326753
0.00109082
0.000639533
0.000605186
0.000729706
0.00117551
0.00269944
0.00770149
0.0227825
0.0631138
0.157098
0.347653
0.0601539
0.0183245
0.0070204
0.00365049
0.00264568
0.00248889
0.0027656
0.00370122
0.00633755
0.0137816
0.0340979
0.0843039
0.192555
0.395764
0.080592
0.0350938
0.0200042
0.0134228
0.0104071
0.00932977
0.00961038
0.0114802
0.0161176
0.0270595
0.0532366
0.112391
0.231509
0.442345
0.132784
0.0805437
0.0578972
0.0450024
0.0367921
0.0321441
0.0309995
0.0337926
0.0415294
0.0574451
0.0898412
0.155894
0.281778
0.496147
0.245969
0.181026
0.149153
0.127644
0.111167
0.0990987
0.0927567
0.0942339
0.10496
0.127969
0.169368
0.243351
0.372394
0.587605
0.46187
0.370944
0.328372
0.304547
0.283457
0.265412
0.252945
0.248818
0.257728
0.286365
0.340764
0.43092
0.565632
0.786753
0.07126
0.0284077
0.0158718
0.0125084
0.0126674
0.0145765
0.0178814
0.0222545
0.0271745
0.0315841
0.0360129
0.0453115
0.0737593
0.146513
0.0455594
0.0121667
0.00398317
0.00258013
0.00255957
0.00294268
0.00360423
0.00447695
0.00549949
0.00682907
0.00971637
0.0184945
0.0430495
0.0995071
0.0327781
0.00675784
0.00118537
0.000422835
0.000364929
0.000416704
0.000513145
0.000647861
0.000884525
0.00155833
0.00379847
0.0106988
0.0290797
0.0719761
0.0258094
0.00500545
0.000780591
0.000138697
4.86794e-05
4.09165e-05
5.19534e-05
8.47137e-05
0.000204777
0.0006719
0.00231665
0.0074548
0.0217665
0.0580283
0.0206639
0.00418593
0.000768725
0.000133882
2.31792e-05
5.64958e-06
6.95323e-06
2.53995e-05
0.000111752
0.000473169
0.00182452
0.00634773
0.0200032
0.0575607
0.0178677
0.0039056
0.000785397
0.00013673
2.14547e-05
3.95072e-06
4.73351e-06
2.21145e-05
0.000108524
0.000487084
0.00196197
0.00708191
0.0230483
0.0680358
0.0178285
0.0041842
0.000846658
0.000142415
2.50906e-05
9.0786e-06
1.16884e-05
3.61784e-05
0.000155855
0.000677612
0.00270086
0.00965666
0.0309894
0.0896351
0.0205455
0.00493735
0.000989924
0.000187407
5.92041e-05
4.49255e-05
5.44295e-05
0.000101154
0.000304874
0.00113821
0.00421687
0.0143205
0.0436845
0.119483
0.0252801
0.00614975
0.00140903
0.000420624
0.000240974
0.000226767
0.000260735
0.000372005
0.000762477
0.00217226
0.00697424
0.0216888
0.0614562
0.155744
0.0319894
0.0089622
0.00310521
0.00150601
0.00107641
0.00101032
0.00110974
0.00140841
0.00222305
0.00465165
0.0119961
0.0325887
0.0836384
0.194179
0.0444536
0.0180608
0.00952886
0.00598041
0.00449637
0.00401141
0.00417348
0.00494462
0.00673848
0.0110097
0.0219555
0.0494608
0.111866
0.236109
0.0773886
0.0446419
0.0299355
0.0216538
0.0168369
0.0144725
0.0141759
0.0157303
0.01953
0.0271247
0.042956
0.077662
0.150294
0.286546
0.152498
0.107431
0.0829198
0.0662934
0.0544192
0.0469787
0.0441251
0.0458359
0.0526453
0.0660072
0.0895609
0.132814
0.2141
0.360358
0.2939
0.22916
0.194058
0.169314
0.149084
0.134638
0.126377
0.125173
0.1333
0.153819
0.190039
0.248151
0.339466
0.496446
0.00566275
0.00703879
0.00862516
0.0108032
0.015959
0.0315752
0.0735213
0.000953096
0.00118331
0.00158217
0.0027022
0.00656524
0.0184251
0.0485215
0.000112506
0.000165581
0.000362556
0.00113115
0.0038156
0.0118592
0.0326874
1.31144e-05
4.13264e-05
0.000169731
0.000685637
0.00250889
0.0081843
0.0239128
4.44618e-06
2.3616e-05
0.000115459
0.000503875
0.00195812
0.0068021
0.0213104
3.94211e-06
2.18589e-05
0.000111237
0.000503878
0.00202422
0.00726009
0.0235199
7.28709e-06
3.11639e-05
0.000149225
0.000666564
0.00266547
0.00951927
0.0306194
2.69657e-05
6.88031e-05
0.000260065
0.00106082
0.00404298
0.0138841
0.0427843
0.0139182
0.00310619
0.000615987
0.000154021
8.55686e-05
8.49508e-05
9.72289e-05
0.000125544
0.000216396
0.000566155
0.00190221
0.00655579
0.0209208
0.0600039
0.0179912
0.00445039
0.00128777
0.000562511
0.000410446
0.000407738
0.000454368
0.000554033
0.000788389
0.00148228
0.00376011
0.0109527
0.0312748
0.0815857
0.0255445
0.00893863
0.00409956
0.00240099
0.00182382
0.00171186
0.00183125
0.00215997
0.00281822
0.00429858
0.00820867
0.0190341
0.0467579
0.109262
0.0455967
0.0232682
0.0139546
0.00939539
0.00721055
0.00641569
0.00652008
0.0074025
0.00918374
0.0125074
0.0193245
0.0351195
0.071497
0.147333
0.0941632
0.0600842
0.0419335
0.0310783
0.0246615
0.0214937
0.0209149
0.0226396
0.0267942
0.0341702
0.0466818
0.0698756
0.116248
0.206844
0.188289
0.136192
0.10577
0.0855158
0.0721441
0.0643408
0.0615655
0.0635092
0.0709328
0.085454
0.10906
0.145711
0.204784
0.310812
10.8572
14.1012
17.7525
21.4883
24.8535
26.7566
9.62751
12.9964
16.8793
20.5581
23.8894
26.5623
8.60197
12.0365
15.9416
19.5215
22.8993
25.9686
7.38435
10.5571
14.2654
17.551
20.7443
24.3131
5.9508
8.6375
11.7881
14.6138
17.865
21.3186
4.62703
6.63011
9.11615
11.9268
15.2882
18.4568
3.59814
5.02483
7.02194
9.94943
13.3867
16.4823
2.96684
4.06291
5.71254
8.67617
12.6011
15.577
2.79158
3.73353
5.26374
8.21528
12.9397
15.8163
3.16071
4.04468
5.54083
8.53251
14.1298
16.6212
4.11338
5.02333
6.59065
9.75475
15.9048
17.778
5.48938
6.52028
8.3633
11.9931
17.9365
19.2697
7.25202
8.51698
10.7628
15.0539
19.8534
20.9399
9.58195
11.2728
13.8862
17.8863
21.5675
22.8652
6.59784
8.42378
10.5001
12.5367
14.2044
15.3072
5.88897
7.98598
10.3678
12.7019
14.5202
15.6222
5.32333
7.57911
10.0959
12.5067
14.4738
15.6857
4.70949
6.8619
9.32593
11.9171
14.3896
15.7808
4.02909
5.97676
8.29474
10.9912
13.9738
15.1297
3.3887
5.00969
7.02694
9.70403
13.0112
13.7195
2.83184
4.13527
5.86003
8.59111
11.7169
12.2175
2.39561
3.47252
5.00434
7.71179
10.5988
11.1141
2.15173
3.15431
4.59919
7.17447
9.9055
10.5025
2.22171
3.15723
4.61755
7.01103
9.55899
10.1891
2.69155
3.61061
5.14727
7.41531
9.63008
10.1026
3.54591
4.52159
6.18402
8.38526
10.0375
10.3865
4.68271
5.78329
7.59388
9.53589
10.7379
11.1335
6.14712
7.39945
9.15899
10.7312
11.7487
12.2567
3.33276
4.57383
6.01375
7.65747
9.43167
11.1437
2.94492
4.36865
6.08825
8.11232
10.2766
12.1726
2.74254
4.26007
6.14624
8.41087
10.8085
12.7302
2.54081
4.06865
6.00172
8.38541
10.9664
13.0481
2.35987
3.83369
5.72921
8.10669
10.8852
13.2097
2.15268
3.50617
5.22361
7.49414
10.5218
12.8548
1.94083
3.13733
4.6506
6.83356
10.0209
11.7987
1.73289
2.77568
4.10161
6.1704
9.26316
10.5512
1.5513
2.47096
3.68017
5.69163
8.37594
9.45206
1.44226
2.26472
3.45537
5.31244
7.58382
8.49242