/*--------------------------------*- C++ -*----------------------------------*\
| =========                 |                                                 |
| \\      /  F ield         | OpenFOAM: The Open Source CFD Toolbox           |
|  \\    /   O peration     | Version:  v2106                                 |
|   \\  /    A nd           | Website:  www.openfoam.com                      |
|    \\/     M anipulation  |                                                 |
\*---------------------------------------------------------------------------*/
FoamFile
{
    version     2.0;
    format      ascii;
    arch        "LSB;label=32;scalar=64";
    class       volScalarField;
    location    "0.000211";
    object      epsilon;
}
// * * * * * * * * * * * * * * * * * * * * * * * * * * * * * * * * * * * * * //

dimensions      [0 2 -3 0 0 0 0];

internalField   nonuniform List<scalar> 
18109
(
2400.29
1839.78
1408.58
1101.87
899.888
804.864
823.586
1154.56
872.188
665.823
512.326
404.637
342.95
329.528
565.889
399.334
299.445
226.526
174.204
141.715
129.799
282.483
178.481
128.628
94.9632
71.1388
55.9401
49.4513
141.746
78.2213
52.8955
37.6983
27.4371
20.9368
18.0468
71.5744
33.9724
20.9307
14.1746
9.97545
7.40336
6.28087
38.1327
15.2957
8.15451
5.0839
3.42115
2.47084
2.08988
24.2556
8.14428
3.42375
1.80831
1.12017
0.782294
0.675914
2210.47
1712.14
1317.48
1027.21
827.448
718.115
702.849
801.582
1048.6
1467.79
2079.52
2901.35
4049.34
5745.19
1025.12
794.686
612.152
471.912
370.617
308.466
287.023
314.325
409.193
598.225
911.382
1378.06
2083.7
3184.04
475.667
353.414
269.454
204.961
157.572
126.953
113.804
120.863
156.93
238.673
390.726
644.294
1064.17
1773.42
220.534
151.891
112.864
84.1681
63.3028
49.599
43.254
45.1128
59.1749
94.4899
167.707
305.412
558.614
1031.9
101.08
63.232
45.0543
32.6727
23.9757
18.313
15.6647
16.3023
22.1218
38.0328
74.6814
152.538
312.767
644.837
46.2509
25.7059
17.1869
11.99
8.55516
6.38109
5.39667
5.73302
8.38143
16.1716
36.0309
83.264
191.174
434.701
22.6468
10.6422
6.36019
4.175
2.87714
2.09866
1.77697
2.00463
3.36553
7.63382
19.5534
50.6808
127.941
313.178
13.9579
5.15296
2.44969
1.41403
0.918431
0.654545
0.569617
0.736156
1.53819
4.19333
12.167
34.4699
93.1145
239.256
12.5651
3.69012
1.21683
0.519357
0.291146
0.20155
0.193506
0.324844
0.880289
2.79041
8.80963
26.374
74.1266
195.582
15.4666
4.07785
1.01694
0.290403
0.126364
0.0931671
0.115437
0.244153
0.729934
2.40104
7.72877
23.4447
66.4937
176.248
21.7822
5.61384
1.32194
0.362755
0.187316
0.188193
0.259738
0.460691
1.07304
3.00923
8.91199
25.8165
71.0725
183.992
32.2533
8.66166
2.30439
0.870373
0.641858
0.728378
0.974686
1.47492
2.63637
5.71333
14.1334
36.5732
93.5713
229.231
49.4191
15.0955
5.16613
2.71758
2.36053
2.72383
3.55717
5.04929
7.89519
14.1099
28.8234
64.2904
148.158
335.379
80.7594
31.0297
13.8602
8.82468
8.06864
9.25825
11.8969
16.3726
23.93
37.9742
66.3354
126.984
259.025
535.31
5050.08
8497.49
14114.1
23463.2
40184.1
73903.7
4767.97
8063.16
13441.2
22289
37591.4
66493.8
3498.03
6305.17
11188.1
19807.9
35964.3
69456.2
2683.59
5140.55
9678.53
18368.7
36557
79678.7
2128.3
4354.93
8843.54
18470.8
41614
103950
1777.92
3932.74
8798.5
20702.8
53276.6
147660
1634.51
3962.78
9894.92
26120
73484.2
210748
1708.05
4504.57
12241
34508.2
99588.8
281837
2032.96
5599.16
15632.5
44137.4
124033
332161
2643.24
7150.59
19371.3
52574.9
140696
351328
3497.91
8814.98
22276.3
56526.5
141409
327680
4588.22
10473.1
24064.9
55851.6
128843
278708
5887.92
11995.7
24738.1
51990.9
109944
223324
7566.97
13760.9
25492.6
48484.8
93349
176416
9999.11
16340.4
27218.5
46317.1
79814.9
137391
6773.24
10578.4
18817.1
34340.6
61531.7
106517
4274.72
7246.1
13918.2
26261.6
47700.6
86781.4
2773.57
5295.27
10711.3
20594.9
38420.4
75949.2
1914.5
4010.13
8319.74
16262.5
31340.3
67256.3
1388.16
3073.01
6493.74
13004.1
26178
61438.3
1035.37
2364.33
5089.44
10458.9
21836.5
54625.5
788.239
1835.24
4027.64
8503.01
18493.9
49931.4
615.936
1451.85
3242.31
7016.12
15783.7
45321.8
504.122
1194.44
2700.38
5960.73
13866.1
43090.6
446.97
1051.05
2377.48
5298.28
12628
40822.2
449.431
1026.94
2279.96
5040.27
12049.3
38088.2
525.703
1133.56
2403.3
5131.94
11838.4
34103.9
703.887
1397.2
2758.24
5532.43
11867.9
30212.1
1007.35
1822.16
3303.5
6098.94
11848
25859.1
897.698
1485.04
2582.07
4785.9
9405.17
20140.4
551.32
1053.71
2023.62
4054.23
8331.48
18045.4
326.727
732.97
1595.16
3450.18
7358.38
16222.4
203.72
522.94
1243.47
2827.11
6231.83
14222.7
133.982
375.696
949.526
2263.11
5201.95
12453.6
90.6212
267.135
708.319
1767.77
4240.62
10641.4
62.5816
189.613
523.901
1369.31
3441.71
9084.39
44.1682
135.586
387.017
1055.48
2777.72
7747.99
33.3516
102.873
299.565
843.951
2320.17
6934.29
29.5017
90.6604
262.645
744.737
2102.96
6705.79
33.7782
102.258
286.998
791.843
2225.61
7244.51
48.5475
141.58
384.317
1015.09
2718.41
8329.53
76.5401
206.11
547.569
1392.51
3481.56
9597.47
124.632
301.777
766.468
1861.25
4353.6
10839.7
621.637
1837.45
5224.45
14065.7
35966
87819.2
1039.07
2684.17
6692.36
15926.3
36426.6
80322
1749.57
3910.08
8477.78
17885
37132.6
75768.4
3049.7
5879.23
11112.9
20857.9
39330
75106.7
212.999
509.331
1179.3
2599.14
5615.1
12815.8
149.146
399.426
996.485
2347.44
5390.68
13121.1
103.582
300.716
800.14
2015.21
4990.13
13441.3
71.7849
221.587
630.291
1718.2
4700.32
14345.2
51.5984
168.621
518.919
1572.38
4897.88
17043.9
41.9738
146.544
498.148
1712.04
6098.91
23161.7
44.5404
165.692
619.534
2339.29
8927.86
34174
65.5077
248.936
957.01
3628.43
13435.5
48049.9
119.178
434.995
1585.44
5592.51
18885.9
60575.4
230.315
770.219
2531.71
7957.29
23731.2
66951.4
436.717
1303.42
3786.46
10452.6
27378.6
68020.2
799.386
2095.59
5338.95
12983
30191.7
67081.9
1450.67
3303.25
7318.85
15703.9
32881.9
66905.2
2659.2
5241.84
10092.7
19161.6
36216.5
68020.9
120831
675860
2.17889e+06
1.5356e+06
933271
145411
845701
2.31706e+06
1.48501e+06
910998
196417
1.09346e+06
2.39076e+06
1.43266e+06
925098
287332
1.41469e+06
2.41712e+06
1.41692e+06
964878
422701
1.73771e+06
2.37065e+06
1.38083e+06
985097
576698
1.93103e+06
2.26883e+06
1.33619e+06
1.00358e+06
713589
1.95996e+06
2.19626e+06
1.3149e+06
1.04726e+06
764985
1.82405e+06
2.15011e+06
1.36468e+06
1.1197e+06
1.33546e+06
744311
1.64126e+06
2.12265e+06
1.46385e+06
1.18659e+06
1.42818e+06
644312
1.37277e+06
2.03119e+06
1.52448e+06
1.20296e+06
1.47825e+06
511945
1.10416e+06
1.94655e+06
1.57988e+06
1.18244e+06
1.46333e+06
2.26723e+06
385481
859160
1.89783e+06
1.68793e+06
1.16958e+06
1.32944e+06
2.50104e+06
4.37292e+06
282663
664742
1.9563e+06
1.87739e+06
1.21985e+06
1.14023e+06
2.29374e+06
7.26047e+06
214007
578737
2.17336e+06
2.17288e+06
1.39274e+06
1.11781e+06
1.49401e+06
4.64374e+06
188766
605512
2.5166e+06
2.47261e+06
1.55742e+06
1.15627e+06
1.42213e+06
5.10552e+06
179701
684340
2.92759e+06
2.62785e+06
1.55111e+06
1.17684e+06
1.48408e+06
4.01596e+06
182734
830990
3.34348e+06
2.67196e+06
1.5711e+06
1.25009e+06
1.51268e+06
5.04954e+06
189090
1.05446e+06
3.75325e+06
2.80186e+06
1.67046e+06
1.35718e+06
1.41275e+06
2.12112e+06
195987
1.30891e+06
3.9346e+06
2.79777e+06
1.63872e+06
1.36009e+06
1.3958e+06
1.47211e+06
202670
1.48022e+06
3.74802e+06
2.62633e+06
1.49342e+06
1.32025e+06
1.42297e+06
1.40087e+06
215883
1.54004e+06
3.43426e+06
2.42684e+06
1.40816e+06
1.35094e+06
1.54896e+06
2.4637e+06
224398
1.4643e+06
3.12365e+06
2.40523e+06
1.48274e+06
1.46075e+06
1.78334e+06
1.77794e+06
224915
1.28303e+06
2.75439e+06
2.4614e+06
1.57555e+06
1.57161e+06
207901
1.01909e+06
2.26024e+06
2.44211e+06
1.66601e+06
1.62255e+06
176576
741263
1.7116e+06
2.343e+06
1.72355e+06
1.62281e+06
142732
516699
1.24056e+06
2.24294e+06
1.80555e+06
1.51466e+06
115996
369309
970628
2.21168e+06
1.99907e+06
1.41653e+06
95554.4
285415
895216
2.40811e+06
2.36306e+06
80853.1
240018
959324
2.87149e+06
2.73998e+06
70836.6
216210
1.13625e+06
3.37038e+06
2.79308e+06
63158.3
206701
1.44923e+06
3.78086e+06
2.71837e+06
56406
211396
1.9358e+06
4.29732e+06
2.81586e+06
50672.5
233588
2.47987e+06
4.56388e+06
2.69245e+06
45333.2
271610
2.81167e+06
4.29065e+06
2.30512e+06
41664
314750
2.78325e+06
3.71295e+06
1.9492e+06
40028.3
346663
2.52467e+06
3.26421e+06
1.79292e+06
40924.1
352094
2.08768e+06
2.89817e+06
1.67622e+06
43747.6
325952
1.57274e+06
2.48578e+06
1.50278e+06
47844.7
288731
1.16201e+06
2.10913e+06
1.38798e+06
51811.5
252144
899227
1.83084e+06
1.34934e+06
54632.5
225335
806031
1.74925e+06
1.36131e+06
55573.5
211370
878273
1.89438e+06
1.42063e+06
54742.7
211186
1.11684e+06
2.1518e+06
1.44372e+06
52611.3
227328
1.52125e+06
2.30833e+06
1.32855e+06
51339.3
267306
2.10461e+06
2.3524e+06
1.2466e+06
55142.8
338397
2.81086e+06
2.40291e+06
1.22973e+06
68185.4
442445
3.41034e+06
2.33321e+06
1.14745e+06
91450.6
563551
3.50877e+06
2.12282e+06
1.01727e+06
125943
679043
3.23875e+06
1.88701e+06
922646
157915
741072
2.87418e+06
1.77548e+06
905033
174820
728088
2.55005e+06
1.71496e+06
898258
168121
642552
2.19136e+06
1.61511e+06
872153
149273
543693
1.90864e+06
1.53258e+06
849135
130123
484216
1.74912e+06
1.48003e+06
848555
118201
493202
1.77787e+06
1.47366e+06
880949
114898
560323
1.9573e+06
1.51133e+06
922406
2084.01
1616.65
1247.44
971.81
778.906
665.855
634.686
697.388
886.725
1235.41
1776.97
2536.38
3645.33
5318.86
936.451
733.668
567.284
438.142
344.139
284.656
260.786
277.396
351.335
508.176
781.511
1204.73
1868.99
2926.86
416.225
317.848
243.952
186.12
143.547
115.635
102.962
107.097
135.812
203.995
336.014
563.547
952.622
1626.78
182.825
132.463
99.6614
74.6312
56.4489
44.4255
38.7443
39.8683
51.3263
81.0708
144.714
267.815
501.167
951.449
78.6154
53.1639
38.727
28.2681
20.9136
16.1073
13.8501
14.3072
19.1571
32.7112
64.7711
134.639
282.895
601.213
33.497
20.6644
14.3363
10.1191
7.30266
5.51158
4.70568
4.98505
7.23353
13.9564
31.5192
74.3329
175.164
410.932
15.2658
8.05076
5.10732
3.43203
2.40548
1.78197
1.52879
1.72692
2.89922
6.63637
17.327
45.937
119.086
300.452
8.96116
3.57291
1.8455
1.1211
0.751163
0.547096
0.48435
0.629908
1.32911
3.68802
10.9479
31.7641
88.0994
232.893
8.11262
2.35124
0.814635
0.38113
0.229996
0.165918
0.163171
0.277398
0.765806
2.48385
8.0395
24.6805
71.2259
193.005
10.3312
2.53105
0.605887
0.185283
0.0942729
0.0768975
0.0982
0.20932
0.637125
2.14949
7.1112
22.1667
64.5775
175.541
15.0469
3.54819
0.782205
0.231479
0.147694
0.163692
0.228456
0.402207
0.940054
2.69251
8.20683
24.4851
69.279
183.759
23.0421
5.7097
1.48233
0.638026
0.545689
0.651591
0.876649
1.31699
2.34089
5.12224
12.9738
34.554
90.8895
228.008
36.7382
10.6937
3.74307
2.20337
2.08113
2.47762
3.25106
4.59307
7.1337
12.7691
26.4583
60.4212
142.941
331.17
63.202
24.0527
11.0535
7.57513
7.29275
8.56318
11.0535
15.164
22.0287
34.8848
61.284
119.084
248.122
524.026
2007.65
1535.49
1180.11
912.539
723.989
601.059
545.092
549.405
641.927
862.21
1271.07
1919.58
2966.27
4639.39
844.963
652.181
502.372
386.565
302.861
246.667
219.116
217.476
254.788
351.788
547.088
883.796
1463.32
2442.24
349.066
263.592
201.448
153.298
118.523
94.9506
83.1426
81.9041
97.0311
138.871
229.751
401.602
723.3
1325.94
141.113
101.996
76.3891
57.0591
43.4412
34.2802
29.7294
29.3078
35.5866
53.799
96.6776
186.799
374.871
776.766
55.1153
37.7388
27.4156
19.9651
14.9296
11.6127
10.0152
9.98858
12.7254
21.0479
42.5584
93.4613
213.24
501.868
20.9875
13.3735
9.32058
6.57856
4.82018
3.69619
3.18495
3.27241
4.56967
8.75441
20.7233
52.5421
135.867
354.305
8.44443
4.66159
3.02055
2.04564
1.46424
1.1075
0.962618
1.0591
1.75276
4.15015
11.6888
33.7811
96.447
269.113
4.5733
1.81316
0.969312
0.605923
0.41972
0.313864
0.282246
0.362437
0.790098
2.36902
7.72354
24.5676
74.8761
217.027
4.29478
1.09292
0.364801
0.180406
0.116893
0.0881672
0.0889012
0.154952
0.465405
1.67192
5.9813
20.1577
63.6402
187.385
6.00054
1.21612
0.245517
0.0767817
0.0476781
0.0446684
0.0590971
0.126476
0.409575
1.52171
5.56012
19.0167
60.2771
176.379
9.62404
1.88231
0.352067
0.11766
0.100461
0.123925
0.171902
0.289015
0.665714
2.01672
6.70949
21.8728
66.882
189.262
16.1823
3.4243
0.829071
0.426681
0.428732
0.539026
0.723429
1.05822
1.82892
4.06562
10.9466
31.52
89.1184
237.156
28.1316
7.3651
2.57438
1.71728
1.75695
2.15712
2.82795
3.93382
5.98044
10.6892
22.89
55.5091
140.258
343.7
51.8659
19.0472
8.87307
6.54482
6.55368
7.84212
10.101
13.7001
19.5801
30.7871
54.6492
109.944
241.11
536.416
1989.77
1493.68
1132.74
863.521
679.197
552.813
489.861
471.603
523.807
676.125
997.827
1558.41
2555.07
4237.48
786
588.477
447.868
340.403
265.293
213.257
187.073
178.803
200.126
264.645
409.152
678.026
1185.28
2099.36
304.329
219.815
165.636
124.704
96.2324
76.3933
66.5425
63.5317
72.299
99.1097
162.806
291.607
557.617
1109.31
114.22
78.0234
57.5618
42.6234
32.503
25.4568
22.0517
21.1474
24.7741
35.9818
64.633
129.412
281.23
652.315
41.1272
26.2996
18.8382
13.629
10.2414
7.90238
6.81355
6.61021
8.15038
13.0925
27.0465
63.2782
160.739
432.384
14.481
8.46526
5.81804
4.08564
3.01598
2.28885
1.96756
1.95992
2.66659
5.1124
12.8808
36.0433
105.819
315.84
5.57536
2.70729
1.71004
1.15149
0.831578
0.619761
0.534514
0.56883
0.94302
2.37188
7.44424
24.3354
79.1839
250.199
3.22933
1.03544
0.50266
0.308031
0.215193
0.15758
0.139574
0.176169
0.412404
1.40051
5.21905
18.8947
65.1154
210.525
3.45198
0.713067
0.186927
0.0835815
0.0543987
0.0403869
0.0404988
0.0738935
0.25577
1.069
4.38796
16.7453
58.9718
190.446
5.28529
0.937347
0.149268
0.038673
0.0258077
0.0266277
0.0358528
0.0748769
0.256771
1.0752
4.44332
16.9759
59.0145
186.077
9.10758
1.63331
0.263573
0.084663
0.0790889
0.101796
0.139959
0.223948
0.499319
1.59422
5.82722
20.8565
68.816
206.568
16.3778
3.24363
0.713032
0.364475
0.37524
0.478583
0.640273
0.919087
1.54866
3.49076
9.99025
31.092
94.1432
264.043
29.649
7.31117
2.42729
1.61725
1.64647
2.02194
2.63224
3.62298
5.42643
9.7112
21.4837
55.3385
149.152
385.124
54.1812
19.7487
9.14659
6.72978
6.58653
7.8041
9.9197
13.3031
18.8017
29.4946
52.8704
109.901
253.18
593.381
1765.23
1298.36
966.889
726.408
575.144
468.515
416.971
393.87
426.367
529.612
773.736
1231.63
2143.29
3747.1
649.859
465.451
347.23
260.803
205.583
166.456
147.452
139.51
153.065
195.404
299.344
504.52
936.55
1780.65
234.992
156.984
115.557
86.1837
67.5437
54.2968
48.0135
45.75
51.2646
68.1152
111.642
205.408
425.42
949.774
82.1767
49.8484
35.7025
26.2536
20.4246
16.2806
14.3897
13.8593
16.014
22.666
41.3073
87.4784
213.794
577.293
27.6876
14.9081
10.2508
7.37877
5.68366
4.48434
3.96555
3.88027
4.7223
7.51061
16.3699
42.6287
126.333
399.065
9.52159
4.28265
2.74304
1.91443
1.45513
1.13441
1.0053
1.01215
1.36934
2.72567
7.74012
25.3163
87.7043
302.723
4.12465
1.32457
0.700755
0.459445
0.342356
0.263431
0.235481
0.254794
0.439926
1.26565
4.7496
18.4539
69.9473
249.9
3.25413
0.672624
0.202029
0.10477
0.0742136
0.0564314
0.0522995
0.0700299
0.193008
0.812809
3.65562
15.5102
60.8246
217.39
4.22036
0.730914
0.113226
0.0282795
0.0165415
0.0132076
0.0145492
0.0312357
0.137064
0.706423
3.42077
14.9286
58.3714
204.045
6.88433
1.1985
0.156042
0.0241836
0.0142502
0.0167368
0.0229043
0.0456165
0.165812
0.798296
3.7652
16.0421
60.6062
203.366
12.1619
2.23975
0.326097
0.0781322
0.066823
0.0856576
0.114499
0.174099
0.37989
1.29993
5.26737
20.6642
73.0921
230.845
21.9589
4.43107
0.860221
0.355854
0.34226
0.428268
0.559468
0.78179
1.28957
2.98028
9.18484
31.1035
100.994
297.864
38.85
9.42047
2.82191
1.67119
1.60598
1.92065
2.43358
3.28072
4.82912
8.67755
20.0113
55.3372
160.121
436.19
66.0667
23.8921
10.8737
7.51293
6.92602
7.94609
9.78521
12.8569
17.8874
27.9982
50.8115
109.77
267.259
663.919
1033.28
739.484
542.383
406.449
330.734
275.327
252.42
240.634
259.806
312.582
456.671
745.522
1397.68
2612.96
347.244
232.611
168.351
125.342
102.071
85.4008
78.9971
76.5373
84.6807
106.104
163.949
287.823
589.021
1292.32
115.55
68.2855
48.027
35.2879
28.6664
24.0254
22.4287
22.1542
25.3267
33.604
56.7316
113.313
274.714
758.93
38.1291
18.8692
12.6258
9.07928
7.32761
6.12639
5.76678
5.81873
6.95489
10.1236
19.9762
49.471
149.726
499.969
12.8509
4.99208
3.06824
2.13723
1.70501
1.41482
1.3409
1.38975
1.79644
3.1525
8.20035
26.9113
99.3
371.051
5.25676
1.40753
0.703296
0.460793
0.360551
0.295574
0.282132
0.306902
0.47506
1.20281
4.4607
18.4544
76.152
296.029
3.3391
0.60435
0.174798
0.0924359
0.069079
0.0557131
0.0541222
0.0677855
0.162427
0.675617
3.27483
15.306
65.9372
256.464
3.70127
0.587352
0.0852198
0.0205125
0.0122135
0.00963916
0.0101245
0.0196441
0.0909011
0.528012
2.87649
14.0039
60.4013
229.724
5.34141
0.884195
0.106517
0.0111978
0.00333075
0.00300469
0.00414553
0.0132095
0.0826787
0.529701
2.96943
14.4212
60.6844
222.312
8.93531
1.57976
0.198995
0.0220469
0.00917337
0.0112319
0.0152151
0.028912
0.113836
0.637966
3.40296
15.8673
63.8169
222.668
15.8838
3.01255
0.430409
0.076017
0.0528202
0.0667793
0.0875058
0.128393
0.282162
1.07501
4.88815
20.8874
78.3582
256.792
28.8756
5.95974
1.07963
0.338677
0.28785
0.352182
0.451162
0.616518
1.00317
2.43268
8.28647
30.8004
107.266
330.628
51.0442
12.2095
3.30937
1.65132
1.46119
1.69277
2.08834
2.76289
4.00863
7.29483
17.8668
53.9373
168.811
485.965
83.0958
28.7599
12.7835
8.07458
6.91082
7.60963
9.03816
11.6398
15.9774
25.0933
46.586
105.986
275.481
729.993
304.407
206.257
151.149
115.563
99.2122
86.7604
84.1856
83.3928
92.2601
109.874
160.056
268.034
545.496
1145.33
91.6903
55.5864
39.5726
29.72
25.3568
22.2678
21.8999
22.2437
25.4388
32.0797
50.6726
95.9374
225.509
593.934
28.5509
14.0849
9.47813
6.93473
5.84387
5.12495
5.09638
5.31109
6.32953
8.67938
15.8199
37.291
111.902
379.302
9.84305
3.48894
2.08582
1.46718
1.21287
1.05611
1.05839
1.13309
1.43491
2.2973
5.47849
17.7049
67.722
267.977
4.21758
0.954166
0.431771
0.281236
0.226017
0.194271
0.19563
0.217616
0.316124
0.717344
2.60261
11.3638
50.812
216.227
2.78269
0.424838
0.100831
0.0497587
0.0376028
0.0317268
0.0322035
0.0396803
0.084989
0.342804
1.76901
9.04616
42.9458
185.007
2.6819
0.38068
0.0493625
0.0100332
0.0056239
0.00457642
0.00487536
0.00893377
0.0409927
0.258301
1.5564
8.40972
40.3319
171.046
3.55081
0.536456
0.061826
0.00558484
0.000986427
0.00069379
0.000973569
0.0043087
0.0337912
0.246973
1.55115
8.41001
39.5262
161.71
5.26878
0.858287
0.10318
0.00861337
0.00115052
0.00105817
0.00157193
0.00543778
0.0391823
0.284696
1.76912
9.3502
42.2874
165.281
8.71868
1.50828
0.194572
0.01978
0.00612376
0.00728379
0.00960222
0.0167687
0.0642658
0.383956
2.21057
11.0214
47.0744
173.954
15.1079
2.77194
0.399477
0.0624527
0.0369563
0.0458949
0.0591977
0.084035
0.179647
0.703081
3.39415
15.3913
61.1609
212.487
27.7963
5.46693
0.980578
0.274251
0.21338
0.255603
0.321647
0.431382
0.689357
1.6824
5.9772
23.4415
86.0421
280.984
51.1571
11.5088
3.05357
1.42419
1.19238
1.34279
1.60881
2.09444
3.00356
5.48308
13.8173
43.5642
142.833
436.948
87.6482
28.3193
12.5888
7.70644
6.30306
6.72468
7.68166
9.72656
13.1843
20.6525
38.6012
89.5625
240.651
680.299
29.3227
18.7474
13.7012
10.5288
9.33604
8.5414
8.7898
9.32557
11.0145
13.8202
20.925
36.8717
80.0808
194.197
7.98895
4.35528
3.03899
2.26928
1.9634
1.7826
1.8441
2.00704
2.4659
3.34019
5.71206
12.1805
33.0988
104.258
2.47289
0.98114
0.620093
0.445578
0.373666
0.333851
0.345166
0.384374
0.496973
0.766688
1.6686
4.9465
18.2013
72.7947
1.04143
0.245187
0.118133
0.079025
0.0638278
0.0557517
0.0573182
0.0655644
0.0941369
0.195875
0.654139
2.77727
12.6347
56.7182
0.678728
0.100342
0.0247514
0.0127546
0.00965762
0.00820653
0.00839846
0.0103786
0.0209848
0.0798043
0.410296
2.16114
10.8953
51.4917
0.692539
0.0910374
0.0113952
0.00232105
0.00129178
0.00104907
0.00110805
0.00196391
0.00872765
0.0557082
0.347839
1.99096
10.4071
49.4948
0.871467
0.121255
0.013345
0.00116904
0.000188534
0.000122445
0.000172592
0.00083287
0.00687682
0.052567
0.350836
2.06976
10.8663
50.8184
1.29651
0.191302
0.0214386
0.0016363
0.000127742
7.86653e-05
0.000140573
0.00080582
0.00718477
0.0573126
0.390371
2.29983
11.8152
53.2198
2.01501
0.313915
0.036635
0.003015
0.000523458
0.000568727
0.00076446
0.00171127
0.00993027
0.0737932
0.490995
2.80907
13.8618
59.5271
3.39406
0.550604
0.0687054
0.00756403
0.00326617
0.00410515
0.00528278
0.0077231
0.0211627
0.113476
0.676282
3.61339
16.7591
67.837
5.86931
1.0069
0.145725
0.0282327
0.0206384
0.0259737
0.0330664
0.0438895
0.0762823
0.243125
1.13625
5.41166
23.231
88.3367
11.1808
2.11796
0.42178
0.150398
0.127199
0.150971
0.187091
0.241449
0.350048
0.716856
2.28217
8.93648
34.5416
122.455
22.7047
5.46244
1.84147
1.01839
0.844538
0.917381
1.05601
1.32115
1.78613
2.92005
6.44243
19.0542
63.1651
206.585
49.6545
19.189
10.1196
6.84619
5.62221
5.84913
6.25213
7.56067
9.57948
14.0431
23.5164
48.8806
122.156
350.963
1.4871
0.914062
0.658985
0.504634
0.438698
0.406815
0.427471
0.478887
0.599387
0.811165
1.31872
2.54797
6.05789
16.1664
0.388456
0.196149
0.133781
0.0988432
0.0824674
0.0743125
0.0771226
0.0872729
0.112894
0.168018
0.327014
0.826685
2.59901
9.09081
0.130661
0.0421434
0.0245461
0.0172861
0.0138607
0.0121095
0.0123673
0.0141277
0.0195258
0.0363207
0.103549
0.386947
1.60715
6.79498
0.0778144
0.0135973
0.00451389
0.00267191
0.00203442
0.00172554
0.00173841
0.0020686
0.00364551
0.0116266
0.0535139
0.261134
1.24109
5.6833
0.0779909
0.011024
0.00163002
0.000431174
0.000258214
0.000209872
0.000214472
0.000331533
0.00121559
0.00707763
0.0416612
0.226531
1.14975
5.52221
0.104428
0.015099
0.00177767
0.000180986
3.45559e-05
2.19172e-05
2.75391e-05
0.000108195
0.000822114
0.00600083
0.0384617
0.221181
1.16884
5.73772
0.153044
0.02311
0.00266563
0.000217649
1.53655e-05
5.2018e-06
1.1019e-05
8.33386e-05
0.000762345
0.00597112
0.0402891
0.241045
1.30212
6.39917
0.24282
0.0376007
0.00431817
0.000342473
3.5148e-05
2.80758e-05
3.92552e-05
0.000117412
0.000851253
0.00671629
0.0466403
0.283733
1.52838
7.34885
0.389434
0.0617852
0.00720415
0.000644387
0.000182235
0.000220237
0.000280246
0.000423621
0.00142915
0.0092285
0.0618857
0.36928
1.93398
8.94945
0.646411
0.105366
0.0132085
0.00182074
0.00116896
0.00151888
0.00191748
0.00247368
0.00445655
0.0168854
0.0941071
0.518396
2.55508
11.1687
1.11514
0.195573
0.0312918
0.00876184
0.00779112
0.00980901
0.0122398
0.0154593
0.0220543
0.0487936
0.185523
0.859917
3.83855
15.5891
2.11894
0.459314
0.126444
0.0649245
0.0597867
0.0694527
0.082315
0.102082
0.133535
0.215358
0.508378
1.71334
6.42242
23.4259
4.38086
1.34673
0.613929
0.416047
0.37972
0.417471
0.475377
0.58104
0.742715
1.07419
1.88848
4.46283
13.1156
41.9717
10.9376
5.0273
3.06767
2.34718
2.12962
2.27645
2.50198
3.01516
3.77283
5.21639
7.92317
14.1215
29.938
78.1058
0.0867408
0.0526838
0.0371024
0.0276938
0.022718
0.0201689
0.0204554
0.0228236
0.0287896
0.0411967
0.0732028
0.160162
0.425939
1.25494
0.0218585
0.0103186
0.00682137
0.00492748
0.00390196
0.00335078
0.00331543
0.0036626
0.00472977
0.00769838
0.0178889
0.0551492
0.19726
0.737499
0.00883341
0.00229842
0.00112869
0.00075081
0.000573839
0.000480286
0.000466577
0.000518813
0.000758527
0.00183641
0.00701182
0.0307545
0.134408
0.567886
0.00777397
0.0012705
0.000268263
0.000107035
7.13303e-05
5.79248e-05
5.61985e-05
7.06889e-05
0.000176507
0.000841979
0.00456297
0.0231065
0.108306
0.479676
0.0101631
0.00159839
0.000219611
3.1176e-05
8.77231e-06
5.84882e-06
6.20708e-06
1.52938e-05
9.29609e-05
0.000631513
0.00381243
0.020416
0.100223
0.463961
0.0150106
0.00237215
0.000300479
3.03981e-05
2.88158e-06
7.23274e-07
1.20791e-06
8.47675e-06
7.35559e-05
0.000546668
0.00347954
0.0195955
0.100902
0.485524
0.0228892
0.00360147
0.000432842
3.94153e-05
3.41557e-06
1.26664e-06
1.88339e-06
8.43351e-06
6.86052e-05
0.000527979
0.00353315
0.0209452
0.112539
0.555861
0.0358687
0.00557939
0.000642207
5.70208e-05
9.86422e-06
9.53991e-06
1.20429e-05
2.0128e-05
8.44907e-05
0.000590082
0.00403962
0.0247413
0.135659
0.671944
0.0560208
0.00865166
0.00098682
0.000109711
5.48065e-05
6.99653e-05
8.74298e-05
0.000111257
0.000210436
0.000904143
0.0055621
0.0333152
0.179705
0.869401
0.0897075
0.0141243
0.00179762
0.000376859
0.000342949
0.000452236
0.000567104
0.000698521
0.00097213
0.00225089
0.00973239
0.0512839
0.25791
1.1785
0.150269
0.027239
0.00546877
0.00249724
0.00261775
0.00330024
0.0040753
0.00503079
0.00644574
0.0102503
0.0259969
0.100438
0.431479
1.78511
0.278529
0.0689384
0.0243652
0.0157413
0.0161279
0.0193914
0.0235417
0.0290495
0.0366626
0.0514071
0.0919687
0.241642
0.813754
2.9166
0.591692
0.222255
0.117074
0.0877956
0.0868815
0.0992884
0.11656
0.141984
0.177691
0.239813
0.365962
0.713302
1.81314
5.49459
1.56774
0.827667
0.539126
0.440326
0.42827
0.472629
0.53632
0.642195
0.793503
1.05296
1.49737
2.41913
4.579
10.9593
0.00897975
0.00536277
0.0037062
0.00269571
0.00212158
0.00181552
0.00177293
0.00193048
0.00239722
0.0035194
0.00671441
0.0163535
0.0478392
0.151622
0.00228919
0.000975146
0.00060891
0.000425138
0.000324579
0.000270868
0.000258919
0.00027836
0.000356728
0.000629733
0.00172381
0.00616142
0.0239771
0.0930467
0.00120271
0.000268047
9.92142e-05
5.69922e-05
4.11231e-05
3.36767e-05
3.19063e-05
3.52807e-05
5.68314e-05
0.000176213
0.000808806
0.00384046
0.0172412
0.0726551
0.00136438
0.000237408
4.14466e-05
9.82078e-06
4.61096e-06
3.46709e-06
3.34454e-06
4.84483e-06
1.71163e-05
9.93133e-05
0.000574192
0.00296887
0.0139162
0.0605056
0.00194837
0.000334553
4.94298e-05
6.42399e-06
9.40526e-07
3.47558e-07
3.86072e-07
1.50626e-06
1.11325e-05
7.86409e-05
0.000481746
0.00258459
0.0125637
0.056829
0.00287988
0.000480464
6.62902e-05
7.54865e-06
7.44225e-07
1.27702e-07
1.65805e-07
1.0757e-06
9.10737e-06
6.74431e-05
0.000429482
0.00240454
0.0122164
0.057712
0.00431141
0.000691256
8.85796e-05
9.24866e-06
1.02779e-06
4.50459e-07
5.53004e-07
1.39963e-06
8.71359e-06
6.38826e-05
0.000422676
0.00248431
0.0132284
0.0649843
0.00651225
0.00100246
0.000120577
1.264e-05
3.08874e-06
3.18089e-06
3.92044e-06
5.27781e-06
1.32366e-05
7.26708e-05
0.000473295
0.00286944
0.015735
0.0787615
0.00973135
0.00145228
0.000172301
2.52887e-05
1.68999e-05
2.18139e-05
2.71486e-05
3.29939e-05
4.76479e-05
0.000131904
0.000674673
0.00389619
0.0210445
0.103843
0.0148993
0.00226736
0.000319968
9.91794e-05
0.000105097
0.000137818
0.000171755
0.000208578
0.000262996
0.00044588
0.00137769
0.00645101
0.0317761
0.147593
0.0239785
0.00438272
0.00104418
0.000603461
0.000686294
0.000878793
0.00109529
0.00134642
0.00166716
0.00232796
0.00452987
0.0142814
0.0570942
0.23494
0.0445036
0.0119106
0.00474823
0.00341891
0.003737
0.00459417
0.00564519
0.00693939
0.00857839
0.0113205
0.0176061
0.0387975
0.11756
0.410173
0.0983232
0.040268
0.0220741
0.0173862
0.0181532
0.0212948
0.025478
0.0310131
0.0382866
0.0497927
0.0705977
0.122799
0.280441
0.808717
0.267523
0.14658
0.0959303
0.0802009
0.0812485
0.0915664
0.106144
0.127015
0.155789
0.201872
0.27618
0.420421
0.740368
1.67451
0.00116117
0.000664609
0.000452317
0.000325163
0.000251377
0.000211626
0.000201722
0.000213114
0.000254939
0.000371703
0.00074103
0.00196637
0.00618875
0.0206791
0.00033947
0.000124103
7.02512e-05
4.74467e-05
3.56971e-05
2.96061e-05
2.78814e-05
2.92726e-05
3.68228e-05
6.90311e-05
0.000214255
0.000844896
0.00344429
0.0135641
0.000248063
5.19484e-05
1.42181e-05
6.35777e-06
4.21618e-06
3.41288e-06
3.21552e-06
3.58172e-06
6.36911e-06
2.34893e-05
0.000118221
0.000580033
0.00261642
0.0108896
0.000329504
6.24114e-05
1.07526e-05
1.91488e-06
5.54301e-07
3.43571e-07
3.29573e-07
5.53967e-07
2.42655e-06
1.51802e-05
8.9566e-05
0.000464915
0.00216232
0.00920575
0.000484308
8.99982e-05
1.43801e-05
1.96969e-06
2.54041e-07
5.7773e-08
5.444e-08
2.31199e-07
1.74563e-06
1.23803e-05
7.60944e-05
0.000407116
0.00195276
0.00859591
0.00070379
0.000125012
1.87186e-05
2.35183e-06
2.63927e-07
4.97188e-08
4.59927e-08
1.90953e-07
1.45561e-06
1.06162e-05
6.74556e-05
0.000375273
0.00187734
0.00862295
0.0010237
0.000171977
2.38527e-05
2.78023e-06
3.60274e-07
1.6471e-07
1.85659e-07
3.301e-07
1.47904e-06
1.00276e-05
6.5294e-05
0.000379823
0.0019923
0.00957061
0.0014876
0.000236365
3.07018e-05
3.66922e-06
1.02898e-06
1.05808e-06
1.28815e-06
1.5996e-06
2.91343e-06
1.20768e-05
7.28092e-05
0.000432677
0.00234306
0.0115874
0.0021305
0.000324175
4.17752e-05
7.3224e-06
5.37144e-06
6.91067e-06
8.57042e-06
1.02186e-05
1.31665e-05
2.68299e-05
0.000109932
0.000596052
0.00316102
0.0155088
0.0031104
0.000480777
7.54386e-05
2.80452e-05
3.13496e-05
4.12598e-05
5.13333e-05
6.16266e-05
7.43681e-05
0.000107907
0.000258015
0.00104892
0.00495064
0.0228187
0.0048386
0.000910807
0.000239228
0.000153403
0.000182323
0.000235785
0.00029388
0.000358131
0.000432915
0.000566317
0.000948485
0.00254857
0.00943569
0.0380242
0.00902362
0.00253929
0.00106632
0.000818062
0.000936155
0.00117067
0.00144454
0.00176408
0.00214162
0.00271797
0.00389213
0.00757702
0.0208908
0.0702006
0.0208027
0.00875063
0.0048261
0.00394145
0.00429367
0.00514657
0.00621761
0.00754658
0.00918638
0.0116035
0.0156476
0.0251409
0.0528438
0.144762
0.0576091
0.0312486
0.0202353
0.0172386
0.0180939
0.0208325
0.0244944
0.0293349
0.0356677
0.0452173
0.0598457
0.0868429
0.14477
0.311349
0.000160289
8.32675e-05
5.48117e-05
3.88563e-05
2.97732e-05
2.49568e-05
2.35067e-05
2.41391e-05
2.75015e-05
3.89942e-05
8.03882e-05
0.000231472
0.000780017
0.00273192
5.95989e-05
1.78086e-05
8.36154e-06
5.26026e-06
3.89877e-06
3.24493e-06
3.05121e-06
3.1492e-06
3.87933e-06
7.67228e-06
2.65713e-05
0.000113216
0.000478662
0.00190969
5.84067e-05
1.21456e-05
2.65531e-06
8.27589e-07
4.53696e-07
3.56003e-07
3.3696e-07
3.81952e-07
7.45278e-07
3.11214e-06
1.65987e-05
8.33855e-05
0.000378839
0.00156919
8.40249e-05
1.70088e-05
3.02647e-06
4.97657e-07
1.01856e-07
4.65722e-08
4.26814e-08
7.49074e-08
3.44037e-07
2.19163e-06
1.30749e-05
6.83767e-05
0.000318342
0.00134298
0.000123372
2.44116e-05
4.15467e-06
6.10034e-07
8.62335e-08
2.12104e-08
1.68512e-08
4.27087e-08
2.64413e-07
1.82181e-06
1.12056e-05
6.01209e-05
0.000287566
0.00124771
0.000175024
3.29918e-05
5.28413e-06
7.22267e-07
9.4895e-08
2.36029e-08
1.93804e-08
4.09461e-08
2.27141e-07
1.57065e-06
9.91991e-06
5.50852e-05
0.000273669
0.0012346
0.000246737
4.38622e-05
6.53586e-06
8.35396e-07
1.23322e-07
5.78125e-08
6.13225e-08
8.55538e-08
2.56184e-07
1.5015e-06
9.50884e-06
5.48005e-05
0.000284443
0.00134283
0.000345226
5.78843e-05
8.11884e-06
1.06932e-06
3.12823e-07
3.1172e-07