/*--------------------------------*- C++ -*----------------------------------*\
| =========                 |                                                 |
| \\      /  F ield         | OpenFOAM: The Open Source CFD Toolbox           |
|  \\    /   O peration     | Version:  v2106                                 |
|   \\  /    A nd           | Website:  www.openfoam.com                      |
|    \\/     M anipulation  |                                                 |
\*---------------------------------------------------------------------------*/
FoamFile
{
    version     2.0;
    format      ascii;
    arch        "LSB;label=32;scalar=64";
    class       volScalarField;
    location    "0.000211";
    object      p;
}
// * * * * * * * * * * * * * * * * * * * * * * * * * * * * * * * * * * * * * //

dimensions      [1 -1 -2 0 0 0 0];

internalField   nonuniform List<scalar> 
18109
(
199090
198716
198388
198032
197697
197352
197034
199609
199212
198860
198485
198135
197785
197466
200049
199658
199316
198950
198608
198269
197956
200526
200142
199801
199448
199119
198796
198494
200991
200623
200293
199970
199665
199364
199074
201467
201115
200807
200520
200243
199966
199690
201950
201621
201340
201089
200841
200588
200324
202476
202177
201912
201688
201462
201225
200970
199502
199121
198785
198430
198104
197771
197456
197116
196773
196407
196062
195682
195376
195116
199940
199565
199214
198854
198522
198191
197880
197564
197237
196900
196577
196246
195935
195688
200316
199943
199618
199282
198973
198661
198360
198054
197744
197429
197115
196816
196505
196248
200731
200363
200054
199745
199462
199174
198891
198598
198299
197995
197688
197402
197096
196843
201159
200808
200516
200240
199987
199727
199461
199179
198889
198591
198290
198003
197702
197443
201619
201286
201018
200780
200554
200318
200065
199790
199501
199202
198902
198611
198323
198064
202116
201804
201559
201350
201148
200930
200685
200409
200115
199810
199507
199212
198936
198685
202661
202379
202146
201956
201766
201554
201306
201024
200720
200405
200098
199803
199544
199306
203253
202999
202767
202582
202389
202171
201913
201619
201303
200978
200669
200376
200127
199896
203892
203652
203400
203199
202986
202754
202483
202180
201859
201532
201222
200932
200689
200454
204551
204310
204025
203795
203550
203297
203013
202704
202381
202055
201751
201465
201227
200989
205201
204931
204599
204332
204056
203788
203498
203195
202883
202573
202285
202013
201787
201550
205821
205515
205146
204848
204546
204263
203971
203676
203378
203085
202808
202546
202323
202094
206366
205997
205610
205297
204996
204720
204444
204174
203900
203634
203373
203136
202917
202738
198976
198915
198865
198878
198784
198699
199447
199396
199368
199439
199410
199325
198907
198845
198674
198602
198463
198353
198533
198404
198165
197986
197716
197477
198113
197908
197615
197387
197069
196757
197749
197486
197153
196884
196538
196168
197374
197047
196673
196356
195943
195497
197023
196622
196198
195809
195339
194839
196639
196174
195679
195197
194628
194075
196272
195753
195181
194619
193989
193466
195874
195263
194625
194027
193431
193027
195541
194893
194309
193707
193129
192647
195220
194535
193969
193331
192766
192311
195000
194347
193873
193340
192823
192292
194533
193911
193476
192980
192580
192228
194867
194444
194106
193606
193176
192682
195402
194927
194553
194048
193578
193084
195941
195478
195082
194599
194146
193638
196536
196093
195732
195303
194933
194531
197157
196768
196471
196120
195872
195588
197810
197498
197276
197024
196821
196590
198463
198245
198091
197930
197777
197589
199108
198988
198893
198811
198717
198589
199725
199690
199664
199660
199640
199636
200323
200370
200408
200483
200560
200667
200906
201016
201126
201291
201452
201676
201526
201683
201847
202071
202300
202573
202102
202311
202521
202778
203067
203389
202764
203001
203233
203513
203813
204151
203201
203435
203766
204077
204404
204762
203356
203669
204045
204422
204823
205234
203637
204028
204464
204895
205321
205720
203901
204378
204885
205387
205854
206253
204194
204752
205339
205920
206444
206867
204474
205098
205756
206401
206963
207372
204754
205414
206115
206794
207389
207801
205018
205689
206392
207072
207679
208120
205280
205939
206615
207279
207889
208385
205548
206188
206824
207468
208082
208655
205841
206462
207066
207702
208335
208988
206164
206779
207359
207998
208644
209337
206508
207117
207693
208332
208949
209629
206897
207480
208008
208630
209216
209833
200847
200976
201189
201357
201625
202024
200368
200416
200611
200770
201066
201405
199906
199855
200059
200186
200453
200700
199360
199210
199303
199322
199452
199578
206890
207490
208020
208597
209199
209876
206315
206967
207558
208217
208818
209431
205727
206389
207005
207658
208260
208828
205045
205703
206336
206981
207592
208152
204360
204991
205632
206282
206886
207426
203696
204307
204945
205578
206169
206670
203093
203662
204288
204887
205444
205866
202542
203047
203614
204121
204522
204813
202019
202432
202876
203242
203509
203712
201516
201815
202137
202376
202544
202702
201069
201242
201482
201632
201770
201971
200651
200720
200909
201018
201186
201392
200252
200218
200404
200494
200675
200873
199786
199663
199766
199792
199919
200079
199406
199933
202475
207533
217119
198228
198653
201682
207819
218087
197273
197897
201400
208070
221420
196542
197010
200433
206805
218576
196093
196311
199635
205275
214598
195362
195521
199002
204491
213278
194712
195096
198656
204976
215961
194125
194789
198257
204146
214150
224509
193504
194137
197190
201363
207933
214223
193139
193714
196624
200755
207866
215116
192525
192940
196054
200828
210131
221188
231315
192179
192633
195924
201520
212774
227206
244969
262886
191871
192183
195176
201087
214305
234931
267807
303187
191695
191942
194634
200145
211320
229958
254544
275741
191882
191840
193925
198058
204963
216052
230583
239980
192349
192220
193954
198692
206677
219909
227012
236383
193034
193239
195181
200402
211805
233216
258066
267485
193989
194340
196162
200764
211243
229309
251206
284698
195227
195500
196971
200695
208297
218461
230802
238379
196306
196316
197886
201606
207941
216221
220201
224453
197440
197594
199793
204667
214925
227745
238650
240977
198581
199031
201392
206247
215282
227762
244526
265381
199711
200437
202676
206897
213000
221041
200863
201784
203845
207533
212893
220048
201999
203105
205303
209221
215376
224122
203097
204366
206758
211271
218754
231164
204059
205401
207692
212024
220622
237213
204797
206133
208388
212186
219780
205458
206646
208717
211524
217230
205943
206912
208711
211791
218454
206416
207246
208907
212109
220734
206866
207461
208869
211548
219933
207363
207646
208667
210880
216944
207775
207906
208764
210998
215399
208218
208389
209427
212534
219663
208640
209126
210334
213459
219345
209065
209946
211357
214196
217766
209542
210898
212733
215813
219874
210075
211818
214082
217433
223079
210571
212642
215246
218840
225828
210984
213222
215947
219616
227403
211194
213438
215943
219615
227239
211144
213315
215764
219685
226205
210615
212596
215016
219633
227444
209895
211695
214237
219154
229514
209097
210517
213084
218244
228532
208285
209530
211901
216650
225372
207275
208139
210362
214670
221633
206288
207010
209204
213873
222265
205017
205875
208250
212938
220656
204031
205079
207351
211099
216564
203210
204453
207096
211153
217546
202650
203942
206760
211020
219577
202090
203421
206611
211299
221837
201471
202630
205595
210655
222960
200509
201375
203914
208941
220847
200010
199609
199269
198915
198597
198289
198007
197707
197384
197016
196639
196209
195831
195491
200411
200013
199650
199298
198984
198687
198413
198134
197825
197479
197104
196715
196325
196017
200741
200347
200016
199688
199398
199120
198859
198589
198293
197963
197598
197233
196841
196524
201125
200749
200436
200132
199865
199603
199350
199083
198789
198462
198101
197745
197364
197052
201529
201178
200885
200613
200367
200121
199873
199604
199305
198978
198621
198268
197898
197588
201997
201675
201402
201153
200918
200679
200425
200145
199835
199500
199145
198795
198444
198143
202524
202220
201959
201724
201495
201255
200990
200693
200368
200023
199669
199320
198991
198698
203102
202815
202551
202319
202084
201833
201550
201235
200895
200539
200186
199841
199533
199249
203701
203426
203152
202912
202662
202394
202092
201760
201408
201042
200689
200347
200054
199776
204308
204034
203735
203474
203198
202912
202596
202255
201897
201527
201177
200839
200558
200286
204882
204610
204281
203996
203693
203389
203066
202721
202365
202000
201656
201323
201052
200773
205422
205127
204761
204454
204134
203823
203503
203169
202825
202472
202140
201815
201559
201274
205922
205609
205223
204900
204567
204250
203934
203606
203272
202933
202611
202293
202045
201759
206358
205990
205602
205276
204956
204651
204348
204041
203730
203413
203102
202808
202561
202310
200493
200169
199872
199562
199285
199022
198777
198522
198241
197915
197551
197115
196679
196244
200922
200552
200235
199915
199635
199377
199140
198898
198626
198307
197936
197526
197072
196690
201229
200857
200551
200247
199985
199746
199520
199290
199025
198715
198346
197945
197493
197114
201652
201290
200974
200672
200411
200171
199941
199700
199421
199101
198726
198330
197892
197523
202074
201723
201406
201117
200858
200617
200375
200120
199825
199494
199116
198722
198303
197934
202562
202225
201908
201622
201352
201095
200830
200551
200234
199889
199509
199120
198721
198357
203094
202761
202439
202143
201857
201579
201290
200985
200651
200293
199914
199529
199155
198800
203646
203318
202981
202667
202360
202060
201747
201420
201073
200705
200333
199952
199599
199252
204180
203860
203510
203178
202844
202522
202190
201847
201492
201116
200749
200372
200038
199695
204669
204351
203992
203654
203299
202958
202614
202262
201904
201524
201164
200786
200461
200118
205097
204794
204427
204092
203729
203377
203027
202670
202309
201924
201562
201185
200873
200526
205459
205159
204788
204462
204113
203767
203423
203069
202709
202324
201964
201586
201284
200921
205800
205510
205143
204818
204479
204139
203800
203448
203089
202705
202342
201967
201670
201304
206090
205749
205394
205084
204776
204457
204138
203804
203457
203087
202726
202367
202060
201729
201943
201732
201572
201380
201165
200926
200678
200421
200123
199783
199387
198926
198428
197902
202435
202196
202005
201770
201539
201295
201040
200774
200465
200120
199712
199265
198747
198290
202809
202578
202371
202129
201895
201649
201396
201129
200817
200470
200059
199621
199113
198653
203232
202996
202769
202518
202276
202022
201754
201468
201136
200773
200354
199915
199417
198958
203615
203388
203151
202902
202650
202386
202100
201794
201444
201067
200639
200199
199714
199257
203987
203775
203538
203291
203029
202749
202440
202110
201737
201344
200909
200468
199993
199537
204350
204142
203910
203660
203389
203092
202762
202409
202021
201615
201175
200732
200272
199827
204673
204469
204242
203998
203724
203418
203074
202702
202300
201885
201448
201005
200559
200115
204961
204759
204528
204293
204022
203714
203365
202985
202577
202152
201717
201273
200846
200407
205195
204992
204757
204532
204273
203978
203638
203259
202850
202420
201991
201544
201134
200686
205388
205191
204951
204727
204481
204207
203883
203511
203103
202667
202239
201791
201398
200947
205535
205349
205108
204893
204660
204401
204091
203728
203330
202897
202479
202031
201650
201190
205661
205487
205253
205036
204807
204555
204262
203912
203531
203101
202686
202241
201877
201420
205722
205522
205322
205129
204921
204679
204402
204068
203701
203292
202897
202473
202124
201666
204463
204502
204447
204337
204239
204056
203881
203622
203332
202979
202560
202074
201529
200910
204982
204908
204821
204673
204546
204336
204140
203865
203559
203206
202786
202327
201798
201256
205358
205259
205154
204974
204824
204600
204387
204111
203803
203457
203042
202605
202077
201559
205727
205582
205452
205242
205067
204821
204585
204296
203978
203632
203222
202800
202287
201791
206040
205854
205704
205475
205285
205029
204777
204481
204154
203805
203396
202978
202477
201993
206306
206091
205928
205682
205475
205203
204931
204625
204288
203935
203528
203114
202631
202156
206510
206295
206110
205850
205634
205352
205071
204761
204423
204067
203666
203252
202784
202313
206661
206469
206273
206009
205789
205502
205210
204893
204550
204191
203792
203382
202927
202462
206795
206612
206405
206152
205926
205633
205338
205021
204676
204316
203921
203513
203073
202610
206892
206719
206517
206284
206055
205773
205477
205159
204811
204448
204056
203647
203213
202742
206947
206804
206616
206395
206177
205904
205607
205287
204935
204567
204174
203762
203337
202867
206940
206844
206674
206485
206267
206011
205720
205404
205053
204684
204294
203874
203451
202952
206914
206847
206710
206544
206341
206104
205811
205500
205148
204769
204375
203944
203522
203009
206795
206759
206669
206527
206351
206135
205862
205571
205235
204863
204471
204023
203616
203045
209136
209311
209416
209416
209354
209213
209053
208790
208518
208146
207740
207272
206723
206067
209567
209619
209649
209613
209535
209378
209193
208916
208632
208264
207858
207404
206909
206331
209851
209857
209881
209815
209718
209544
209343
209064
208772
208411
208010
207570
207053
206528
210070
210023
210026
209931
209823
209636
209420
209134
208833
208475
208080
207653
207153
206652
210178
210104
210098
209986
209872
209681
209462
209180
208879
208529
208137
207715
207221
206734
210237
210140
210123
210000
209883
209689
209469
209192
208891
208544
208155
207734
207249
206760
210213
210123
210091
209964
209851
209659
209444
209173
208872
208530
208145
207730
207256
206769
210157
210085
210038
209908
209799
209609
209396
209131
208832
208494
208111
207698
207227
206739
210059
210002
209949
209820
209718
209532
209322
209064
208768
208438
208059
207652
207189
206702
209952
209894
209844
209720
209623
209437
209229
208975
208681
208358
207986
207585
207124
206632
209821
209757
209716
209596
209504
209323
209115
208863
208571
208255
207888
207493
207038
206550
209630
209581
209559
209448
209366
209193
208990
208743
208457
208150
207793
207401
206941
206426
209418
209394
209374
209282
209203
209047
208853
208618
208334
208030
207671
207274
206815
206281
209092
209136
209153
209099
209007
208889
208712
208503
208232
207938
207581
207165
206697
206044
215430
215519
215612
215627
215592
215487
215346
215133
214909
214602
214297
213921
213484
212988
215630
215667
215704
215690
215634
215518
215362
215142
214904
214594
214272
213895
213505
213019
215720
215729
215771
215734
215661
215533
215371
215155
214920
214626
214311
213935
213530
213071
215773
215731
215767
215711
215629
215492
215324
215107
214870
214582
214272
213908
213512
213078
215740
215672
215698
215639
215559
215424
215260
215050
214816
214536
214230
213876
213485
213073
215669
215594
215607
215540
215459
215325
215162
214958
214726
214453
214151
213807
213419
213014
215533
215465
215472
215402
215326
215199
215042
214847
214620
214356
214060
213730
213353
212962
215397
215336
215334
215258
215181
215055
214899
214709
214484
214227
213933
213610
213233
212844
215213
215166
215167
215091
215017
214893
214736
214553
214333
214085
213798
213485
213118
212736
215040
214992
214996
214921
214847
214723
214563
214382
214164
213921
213636
213326
212954
212565
214843
214802
214810
214735
214665
214541
214376
214198
213979
213742
213461
213150
212782
212386
214604
214570
214604
214535
214473
214355
214192
214019
213803
213572
213293
212983
212592
212169
214332
214351
214388
214325
214272
214160
213998
213831
213610
213377
213089
212761
212372
211896
213964
214053
214136
214107
214063
213968
213820
213671
213450
213220
212924
212568
212134
211560
221805
221775
221814
221813
221795
221731
221640
221503
221365
221189
221029
220837
220631
220428
221803
221769
221775
221745
221701
221624
221526
221392
221252
221079
220909
220715
220520
220276
221773
221704
221713
221680
221633
221556
221459
221332
221196
221034
220866
220672
220471
220233
221718
221621
221622
221580
221527
221445
221345
221220
221085
220927
220761
220569
220366
220140
221615
221511
221508
221462
221407
221327
221231
221112
220982
220830
220668
220483
220280
220066
221505
221399
221382
221328
221268
221188
221093
220978
220850
220704
220547
220370
220171
219963
221343
221249
221229
221173
221113
221037
220945
220835
220711
220572
220421
220252
220060
219862
221187
221098
221074
221014
220951
220874
220783
220677
220555
220420
220272
220108
219919
219722
220992
220915
220898
220841
220778
220704
220614
220513
220394
220265
220120
219961
219777
219584
220811
220733
220723
220669
220605
220534
220443
220345
220226
220099
219953
219791
219600
219397
220614
220542
220542
220492
220431
220364
220272
220178
220061
219938
219792
219627
219437
219220
220412
220341
220357
220316
220264
220205
220113
220024
219904
219784
219634
219465
219256
219018
220205
220176
220188
220151
220100
220047
219957
219875
219751
219632
219474
219289
219080
218782
219938
219953
220004
219996
219959
219920
219834
219761
219630
219511
219340
219135
218882
218537
227415
227283
227253
227226
227209
227171
227119
227043
226968
226878
226810
226735
226680
226647
227320
227191
227134
227073
227037
226993
226943
226871
226797
226709
226633
226551
226492
226399
227233
227088
227028
226961
226917
226870
226820
226757
226691
226614
226543
226467
226402
226324
227120
226967
226900
226826
226776
226726
226677
226618
226555
226484
226413
226338
226268
226199
226983
226835
226769
226700
226652
226605
226559
226505
226448
226383
226318
226249
226179
226119
226845
226700
226632
226564
226518
226473
226429
226380
226326
226267
226207
226146
226082
226028
226685
226553
226491
226428
226386
226346
226306
226263
226214
226164
226111
226059
226002
225957
226542
226416
226357
226296
226254
226217
226181
226143
226100
226057
226010
225965
225916
225875
226394
226276
226225
226168
226127
226094
226063
226034
225998
225963
225924
225885
225845
225813
226283
226162
226112
226053
226012
225983
225956
225936
225906
225877
225842
225808
225772
225739
226187
226066
226016
225955
225913
225887
225865
225857
225836
225816
225789
225762
225731
225696
226134
226006
225950
225885
225841
225818
225799
225801
225785
225775
225755
225732
225703
225657
226084
225973
225910
225840
225791
225770
225752
225765
225755
225756
225741
225718
225683
225593
226083
225942
225888
225828
225778
225757
225737
225758
225747
225756
225742
225715
225668
225606
231597
231446
231386
231351
231341
231332
231323
231304
231280
231243
231219
231188
231195
231215
231505
231361
231280
231216
231192
231178
231167
231149
231125
231090
231062
231034
231035
231025
231412
231264
231178
231108
231077
231058
231047
231034
231017
230991
230968
230947
230944
230939
231303
231148
231055
230980
230946
230924
230915
230907
230895
230877
230857
230839
230832
230833
231172
231024
230934
230863
230832
230815
230810
230809
230805
230797
230785
230775
230773
230779
231042
230894
230809
230741
230714
230700
230700
230707
230711
230712
230709
230711
230714
230728
230906
230767
230691
230630
230607
230600
230607
230622
230636
230652
230663
230675
230688
230712
230795
230656
230586
230528
230506
230504
230519
230541
230566
230597
230623
230648
230668
230702
230708
230568
230502
230445
230424
230427
230449
230482
230519
230563
230603
230641
230674
230718
230667
230518
230448
230389
230366
230373
230401
230444
230490
230545
230597
230653
230701
230759
230668
230508
230429
230364
230338
230347
230379
230434
230492
230562
230630
230706
230772
230847
230725
230555
230461
230386
230355
230366
230403
230470
230540
230628
230710
230800
230880
230962
230821
230646
230543
230457
230418
230431
230471
230553
230637
230741
230839
230942
231020
231091
231012
230753
230653
230569
230525
230535
230572
230662
230754
230874
230987
231105
231186
231330
234547
234485
234455
234436
234435
234436
234436
234426
234408
234371
234338
234292
234280
234262
234505
234438
234394
234357
234345
234337
234332
234320
234301
234266
234231
234192
234180
234164
234435
234366
234316
234271
234252
234240
234233
234223
234208
234181
234152
234120
234110
234097
234362
234275
234216
234163
234139
234123
234117
234112
234101
234083
234059
234036
234027
234025
234260
234168
234102
234046
234021
234008
234008
234012
234012
234006
233994
233983
233980
233984
234162
234057
233986
233926
233903
233893
233898
233912
233922
233930
233930
233933
233936
233951
234060
233950
233877
233818
233797
233791
233804
233828
233852
233876
233893
233910
233924
233949
233981
233859
233785
233724
233704
233700
233719
233753
233789
233831
233864
233895
233918
233955
233925
233795
233718
233655
233634
233632
233656
233700
233749
233806
233853
233899
233937
233987
233904
233763
233683
233615
233592
233592
233620
233671
233729
233799
233862
233927
233983
234048
233929
233777
233687
233613
233587
233589
233620
233681
233750
233834
233913
233998
234073
234158
234005
233842
233742
233662
233634
233639
233675
233745
233825
233923
234014
234115
234205
234304
234122
233951
233847
233763
233730
233739
233780
233860
233951
234063
234170
234286
234384
234489
234325
234083
233994
233912
233879
233890
233933
234019
234115
234239
234358
234490
234591
234789
236562
236570
236583
236594
236604
236607
236603
236588
236564
236523
236480
236424
236385
236344
236576
236576
236583
236584
236589
236586
236577
236558
236529
236485
236438
236384
236349
236319
236563
236556
236560
236553
236549
236539
236526
236505
236477
236437
236395
236348
236319
236290
236544
236521
236516
236496
236484
236470
236455
236435
236409
236374
236337
236300
236276
236259
236499
236468
236449
236421
236404
236388
236374
236360
236341
236315
236289
236262
236247
236234
236455
236407
236375
236337
236317
236300
236289
236281
236269
236256
236240
236225
236216
236209
236401
236343
236300
236257
236234
236218
236212
236212
236211
236212
236209
236206
236204
236205
236360
236288
236235
236186
236160
236145
236142
236150
236160
236174
236183
236193
236194
236203
236330
236247
236187
236133
236106
236092
236093
236109
236129
236156
236175
236194
236204
236222
236319
236226
236160
236101
236073
236059
236063
236086
236115
236154
236183
236213
236234
236262
236330
236230
236159
236096
236069
236058
236066
236097
236134
236184
236223
236264
236295
236332
236372
236265
236190
236126
236101
236094
236107
236146
236188
236245
236290
236342
236382
236430
236445
236335
236261
236197
236174
236170
236186
236231
236279
236344
236397
236456
236507
236556
236564
236426
236360
236301
236282
236286
236306
236355
236408
236479
236537
236608
236664
236780
237899
237898
237917
237930
237941
237946
237943
237931
237915
237889
237861
237821
237782
237740
237969
237961
237982
237989
237996
237996
237987
237967
237943
237908
237870
237825
237784
237742
238015
238003
238027
238030
238033
238025
238010
237986
237956
237918
237877
237831
237789
237745
238057
238041
238058
238054
238050
238036
238017
237990
237957
237916
237873
237828
237785
237747
238080
238064
238070
238061
238051
238034
238012
237983
237950
237910
237867
237823
237783
237746
238100
238081
238075
238058
238045
238023
237998
237970
237936
237899
237858
237817
237777
237742
238112
238089
238073
238052
238033
238010
237985
237958
237927
237894
237857
237820
237783
237750
238125
238096
238071
238044
238022
237998
237973
237950
237921
237893
237859
237826
237793
237765
238140
238104
238073
238041
238018
237995
237973
237954
237930
237907
237878
237849
237821
237798
238156
238115
238079
238044
238022
238000
237982
237969
237951
237934
237910
237886
237864
237843
238183
238138
238101
238064
238045
238026
238012
238005
237993
237981
237964
237942
237928
237904
238217
238171
238133
238097
238082
238068
238059
238059
238053
238047
238034
238020
238010
237985
238273
238227
238191
238158
238146
238136
238131
238135
238132
238130
238123
238112
238108
238077
238342
238294
238261
238233
238226
238224
238226
238237
238240
238246
238241
238239
238234
238236
238827
238775
238768
238749
238739
238729
238721
238710
238702
238691
238680
238660
238636
238609
238941
238888
238883
238862
238850
238834
238819
238799
238780
238756
238732
238703
238671
238633
239037
238986
238984
238963
238947
238927
238905
238879
238851
238820
238786
238748
238705
238661
239129
239084
239080
239056
239037
239013
238985
238953
238918
238878
238834
238787
238735
238687
239215
239175
239165
239139
239117
239089
239057
239019
238978
238932
238880
238826
238767
238711
239294
239259
239242
239215
239190
239158
239121
239079
239032
238979
238920
238859
238794
238731
239367
239338
239315
239288
239260
239225
239184
239138
239085
239027
238964
238897
238829
238761
239434
239408
239382
239353
239323
239286
239243
239193
239136
239075
239007
238937
238865
238794
239501
239477
239449
239418
239388
239350
239304
239253
239194
239129
239058
238985
238913
238838
239560
239538
239509
239478
239449
239410
239366
239315
239256
239191
239120
239045
238973
238894
239626
239606
239578
239547
239519
239481
239437
239388
239329
239263
239194
239117
239048
238963
239685
239668
239642
239613
239588
239554
239514
239468
239413
239350
239282
239207
239138
239050
239755
239739
239716
239689
239668
239638
239600
239558
239503
239442
239375
239301
239235
239143
239825
239809
239788
239765
239750
239727
239696
239662
239615
239559
239496
239425
239354
239275
239613
239513
239452
239388
239343
239304
239273
239246
239225
239204
239185
239162
239138
239102
239737
239642
239587
239523
239477
239433
239395
239359
239327
239294
239264
239231
239195
239156
239846
239758
239709
239648
239601
239555
239512
239470
239429
239388
239346
239301
239252
239203
239957
239878
239832
239774
239726
239678
239629
239580
239530
239478
239422
239367
239307
239249
240067
239997
239952
239896
239847
239797
239743
239687
239628
239567
239501
239434
239362
239292
240175
240113
240067
240014
239964
239910
239851
239789
239721
239650
239572
239494
239410
239330
240282
240229
240181
240130
240078
240019
239956
239886
239810
239730
239644
239555
239463
239372
240384
240338
240289
240236
240183
240120
240052
239977
239894
239806
239712
239614
239513
239414
240483
240442
240392
240339
240283
240217
240145
240064
239975
239880
239779
239674
239568
239460
240571
240535
240485
240430
240374
240305
240230
240147
240054
239955
239850
239739
239629
239512
240659
240625
240577
240521
240464
240392
240315
240229
240132
240029
239921
239807
239695
239571
240730
240700
240655
240600
240546
240475
240398
240311
240215
240111
240002
239885
239771
239640
240805
240774
240733
240680
240628
240558
240482
240394
240296
240191
240082
239965
239852
239718
240869
240836
240797
240749
240703
240638
240566
240483
240389
240287
240180
240065
239952
239813
240345
240217
240121
240029
239946
239873
239808
239748
239692
239638
239589
239541
239499
239450
240434
240331
240240
240150
240067
239992
239922
239854
239790
239727
239669
239613
239559
239510
240523
240427
240345
240262
240181
240106
240032
239961
239892
239822
239753
239686
239621
239562
240620
240531
240456
240377
240300
240224
240146
240070
239991
239910
239832
239755
239681
239612
240719
240639
240569
240493
240416
240338
240256
240173
240087
240001
239913
239826
239740
239658
240820
240746
240678
240604
240527
240447
240361
240273
240178
240083
239984
239887
239791
239700
240916
240850
240783
240710
240632
240547
240458
240363
240262
240159
240052
239947
239841
239741
241007
240946
240879
240805
240727
240638
240545
240444
240337
240227
240113
240000
239885
239776
241089
241032
240966
240892
240812
240719
240623
240516
240403
240287
240167
240047
239927
239810
241162
241108
241043
240968
240886
240790
240690
240579
240462
240341
240217
240092
239967
239843
241226
241174
241110
241035
240953
240854
240752
240637
240515
240390
240263
240133
240006
239876
241272
241221
241159
241084
241004
240906
240804
240689
240567
240439
240309
240176
240045
239905
241316
241263
241204
241130
241052
240953
240852
240735
240611
240482
240350
240214
240082
239938
241343
241286
241232
241160
241085
240990
240892
240779
240658
240530
240397
240257
240122
239967
241029
240904
240796
240689
240586
240485
240386
240289
240198
240110
240032
239956
239894
239827
241054
240949
240851
240753
240654
240555
240458
240359
240265
240173
240089
240008
239939
239875
241095
241000
240910
240816
240722
240627
240531
240433
240338
240242
240152
240065
239988
239916
241149
241066
240981
240892
240800
240705
240607
240505
240404
240304
240209
240116
240033
239956
241204
241129
241051
240967
240875
240779
240678
240574
240470
240365
240265
240166
240076
239991
241263
241194
241117
241035
240944
240847
240745
240638
240529
240419
240312
240208
240112
240020
241315
241250
241176
241095
241005
240907
240803
240694
240581
240468
240355
240246
240142
240045
241360
241297
241225
241145
241056
240957
240852
240740
240624
240508
240389
240276
240165
240063
241395
241334
241264
241185
241097
240997
240890
240775
240657
240537
240414
240297
240180
240073
241421
241361
241292
241213
241125
241024
240917
240800
240679
240556
240430
240308
240186
240075
241436
241376
241310
241230
241142
241040
240932
240813
240691
240565
240439
240314
240190
240075
241442
241381
241315
241235
241148
241044
240936
240817
240695
240570
240442
240316
240189
240067
241446
241383
241318
241238
241150
241046
240937
240817
240694
240567
240439
240310
240180
240051
241436
241365
241302
241224
241138
241036
240929
240812
240691
240565
240437
240306
240177
240030
241202
241095
240986
240875
240767
240664
240572
240482
240409
240334
241594
241504
241410
241314
241212
241108
241001
240892
240785
240681
240587
240498
240425
240352
241576
241498
241409
241318
241221
241120
241017
240911
240806
240704
240611
240521
240445
240369
241570
241499
241415
241329
241235
241137
241034
240929
240826
240724
240630
240539
240461
240385
241569
241501
241422
241339
241248
241152
241051
240947
240843
240742
240647
240554
240473
240395
241568
241503
241427
241347
241258
241164
241064
240960
240856
240753
240656
240562
240479