/*--------------------------------*- C++ -*----------------------------------*\
| =========                 |                                                 |
| \\      /  F ield         | OpenFOAM: The Open Source CFD Toolbox           |
|  \\    /   O peration     | Version:  v2106                                 |
|   \\  /    A nd           | Website:  www.openfoam.com                      |
|    \\/     M anipulation  |                                                 |
\*---------------------------------------------------------------------------*/
FoamFile
{
    version     2.0;
    format      ascii;
    arch        "LSB;label=32;scalar=64";
    class       volScalarField;
    location    "0.000215";
    object      k;
}
// * * * * * * * * * * * * * * * * * * * * * * * * * * * * * * * * * * * * * //

dimensions      [0 2 -2 0 0 0 0];

internalField   nonuniform List<scalar> 
18109
(
0.20554
0.161681
0.127245
0.101229
0.0829442
0.072457
0.0700765
0.106379
0.0806782
0.0630976
0.0495331
0.0394687
0.0329772
0.030256
0.0564976
0.0392657
0.0298535
0.0230296
0.0179154
0.0144376
0.0126971
0.030612
0.0188331
0.0135527
0.0101676
0.00771197
0.00602036
0.00511579
0.0166262
0.00892921
0.00593107
0.00426682
0.00313998
0.00237779
0.00196542
0.00907017
0.00422875
0.00252345
0.00170672
0.00120883
0.000887693
0.000717826
0.00521047
0.00210032
0.00107758
0.000659339
0.000441555
0.000313341
0.000249684
0.003528
0.00124397
0.000514184
0.00026071
0.000156457
0.000105373
8.36055e-05
0.191891
0.152205
0.120224
0.0956907
0.0782038
0.0676755
0.0643366
0.069006
0.0835647
0.108857
0.146607
0.197343
0.267819
0.369967
0.0952102
0.0741568
0.058514
0.0461012
0.0368041
0.0306893
0.0279212
0.0289864
0.0350865
0.0477092
0.0688399
0.100019
0.146192
0.216138
0.0478257
0.0349289
0.0270705
0.0210303
0.0164419
0.013292
0.0116768
0.0117918
0.0142541
0.0201665
0.0312127
0.0493107
0.0783941
0.125635
0.0241875
0.0160422
0.0119675
0.00909381
0.0069529
0.00546605
0.00466672
0.004618
0.0056202
0.00833541
0.0139782
0.0243329
0.0426831
0.075363
0.012128
0.00719451
0.00507104
0.00373107
0.00277933
0.00212704
0.00177475
0.00174011
0.00217025
0.00344577
0.00638377
0.0124388
0.0243723
0.047813
0.0060718
0.00317968
0.00207073
0.00145498
0.00105029
0.000782647
0.000641472
0.000633232
0.000835877
0.00147532
0.00309514
0.00681781
0.0149307
0.0322973
0.00323848
0.00145418
0.00083397
0.000543542
0.000375992
0.000272501
0.000221037
0.000225821
0.000333002
0.000685193
0.00165362
0.00409242
0.0098724
0.0231026
0.00212361
0.000792264
0.000362514
0.000202306
0.00012922
9.02514e-05
7.34092e-05
8.18799e-05
0.000145759
0.000361482
0.000994844
0.0027059
0.0070301
0.0174264
0.00193325
0.000621338
0.00021117
8.63501e-05
4.53737e-05
2.94232e-05
2.47418e-05
3.32594e-05
7.64499e-05
0.00022516
0.000683472
0.0019853
0.00542912
0.013991
0.00231724
0.00070035
0.000195561
5.67648e-05
2.14203e-05
1.26397e-05
1.22875e-05
2.09623e-05
5.6145e-05
0.000177067
0.000558523
0.00167083
0.00468564
0.0123094
0.00313883
0.000936463
0.000247826
6.57106e-05
2.49031e-05
1.89089e-05
2.27337e-05
3.60857e-05
7.6845e-05
0.000205997
0.000601883
0.00174278
0.00481399
0.0125146
0.00444472
0.00135013
0.000374228
0.000118025
6.55e-05
6.57181e-05
8.32019e-05
0.000117869
0.00019399
0.00039185
0.000935652
0.00240394
0.00618113
0.01527
0.00639969
0.00208158
0.000671289
0.000286582
0.000213514
0.000235536
0.000299811
0.000408823
0.000603274
0.00101034
0.00196085
0.00426312
0.00975787
0.0221356
0.00959337
0.0036299
0.00147206
0.000809893
0.000684299
0.000769234
0.000975887
0.00131222
0.00185138
0.0028089
0.00468639
0.00865873
0.0172915
0.0353895
0.395225
0.648946
1.03399
1.62111
2.56175
4.25104
0.385086
0.634208
1.01446
1.59222
2.50982
4.11025
0.298692
0.513909
0.864323
1.43923
2.42875
4.28284
0.234603
0.427097
0.759803
1.34792
2.46137
4.78621
0.189483
0.367294
0.700371
1.3484
2.72144
5.90565
0.159904
0.332486
0.68804
1.45644
3.26626
7.77416
0.145088
0.325305
0.733467
1.69925
4.11551
10.217
0.145132
0.346851
0.834292
2.04656
5.12867
12.6818
0.16045
0.3955
0.971989
2.40705
5.9722
14.1354
0.192014
0.464964
1.11747
2.69515
6.45886
14.4642
0.236974
0.540174
1.227
2.81043
6.40425
13.5874
0.296449
0.619612
1.29869
2.75819
5.86783
11.7821
0.368392
0.696388
1.3261
2.57603
5.08409
9.78753
0.462175
0.791279
1.37525
2.46892
4.49067
8.09511
0.597209
0.931895
1.49717
2.47155
4.10783
6.72823
0.450715
0.663656
1.10462
1.91447
3.30475
5.50979
0.300885
0.475502
0.852513
1.54171
2.71023
4.73705
0.199625
0.354192
0.678151
1.26183
2.2805
4.27572
0.138423
0.272065
0.541935
1.03066
1.91849
3.84952
0.10035
0.211347
0.432919
0.84544
1.63855
3.50613
0.0748594
0.164552
0.345517
0.693242
1.38702
3.10945
0.0569466
0.128822
0.277045
0.571555
1.18421
2.80759
0.0443354
0.102359
0.224854
0.475662
1.01199
2.49877
0.0359763
0.0841312
0.187698
0.404665
0.881021
2.2743
0.0314228
0.0734387
0.164297
0.356569
0.785642
2.06033
0.030979
0.0706946
0.155294
0.332689
0.727459
1.87184
0.0355603
0.0766205
0.160092
0.329008
0.692103
1.66257
0.0471239
0.0929706
0.179557
0.344565
0.67769
1.47834
0.0658463
0.117862
0.208264
0.368171
0.664144
1.28786
0.060471
0.099721
0.168093
0.29539
0.538611
1.04311
0.0370428
0.0712307
0.133688
0.254407
0.488727
0.971661
0.0225981
0.0507111
0.106848
0.21894
0.439681
0.899849
0.0146188
0.0369912
0.084324
0.181782
0.380128
0.810394
0.0099177
0.0270049
0.0650494
0.147392
0.323856
0.727078
0.00686748
0.0194427
0.0490248
0.116899
0.270315
0.639536
0.00482379
0.0139511
0.036704
0.0922603
0.225301
0.564272
0.00345285
0.0101196
0.027643
0.073021
0.188064
0.502171
0.00265669
0.0078896
0.0221826
0.0609732
0.164685
0.470788
0.00243883
0.00731942
0.0206644
0.0573515
0.15831
0.472972
0.00294378
0.00875575
0.0241347
0.0649161
0.1749
0.515453
0.00444122
0.0124994
0.0332421
0.0847474
0.21328
0.581757
0.00739551
0.0186281
0.0473918
0.114298
0.265696
0.659312
0.0130307
0.0289846
0.0679784
0.152801
0.331703
0.780533
0.0650517
0.168688
0.417943
0.981727
2.20417
4.72631
0.103521
0.238098
0.526237
1.11443
2.2838
4.50044
0.16555
0.334436
0.655346
1.25411
2.37166
4.36911
0.27389
0.485963
0.84517
1.46247
2.52775
4.35863
0.024536
0.0526333
0.109218
0.219162
0.437998
0.954407
0.0176356
0.0418681
0.0934488
0.200242
0.431059
1.02146
0.0126687
0.0324366
0.0772685
0.17765
0.414702
1.0632
0.00912091
0.0248961
0.0635988
0.159289
0.409625
1.14557
0.0068629
0.0199846
0.0555608
0.154444
0.441797
1.33808
0.00583468
0.0182881
0.0560295
0.172559
0.537978
1.69637
0.00631632
0.0210413
0.0694634
0.22682
0.727385
2.26476
0.00902673
0.0303879
0.100915
0.324348
0.999086
2.91382
0.0153681
0.0493376
0.154462
0.462064
1.3098
3.49192
0.0274598
0.080887
0.230119
0.621257
1.58691
3.81506
0.0483074
0.128312
0.327065
0.789562
1.81336
3.94275
0.0825801
0.1949
0.442535
0.960091
2.00497
3.99428
0.140266
0.291327
0.5856
1.14388
2.19541
4.08423
0.242969
0.442966
0.787999
1.38611
2.42382
4.19743
7.06527
30.3361
75.8355
62.3566
42.4268
8.3592
36.9043
79.0947
61.5494
41.6574
10.6709
46.0836
81.4353
60.8567
41.8293
14.3176
56.3502
83.3011
61.4393
42.5683
19.0625
64.5168
84.0741
61.4662
42.3267
24.1036
67.308
83.4729
60.8846
42.0274
27.9362
65.8434
82.8453
61.0455
43.1548
28.8306
61.3122
82.0422
63.5542
46.1607
42.93
27.6534
55.9657
81.1518
67.8384
49.4281
45.5529
24.5892
48.6875
78.4475
71.1707
52.0797
47.7874
20.1361
40.6368
75.4591
74.4036
54.7795
49.4027
58.9314
15.8587
32.9593
73.1309
78.5526
58.2232
49.3113
65.16
91.6742
12.3301
26.7782
73.2322
83.9093
62.6777
48.1866
63.0262
144.603
10.414
24.9434
77.2319
91.1431
69.0688
49.1194
50.0512
110.659
9.67126
25.7187
85.5453
98.3587
73.5658
49.5126
46.4147
107.704
9.30521
28.2574
95.2615
100.874
71.5741
48.4602
45.5905
90.7358
9.26635
32.7125
103.717
100.459
70.206
48.8744
46.1942
77.7704
9.24993
38.5952
110.83
102.967
71.5645
50.0819
44.0946
60.6831
9.28913
44.1403
112.38
102.965
69.2651
47.4474
40.6169
52.2064
9.28729
46.9895
107.307
99.3415
64.2015
44.3417
39.0751
47.4153
9.40862
46.9483
99.1466
94.4778
61.2645
44.4719
41.8025
44.6433
9.31268
43.7493
89.7719
93.3485
64.0755
47.9651
47.1795
43.9253
9.0056
38.2482
78.9646
93.9861
67.863
51.2564
8.29977
31.3033
66.0984
92.3313
72.0463
54.1648
7.28243
24.3148
52.8607
88.1042
76.3823
57.1332
6.18217
18.5292
41.2663
83.8328
81.6095
58.6884
5.28348
14.4791
34.5884
81.9093
88.6804
60.8289
4.56864
11.9645
32.859
87.4623
97.9859
3.98849
10.4646
34.984
99.4126
106.086
3.57599
9.56796
40.1483
109.525
103.557
3.24401
9.09186
48.1429
115.099
98.0377
2.93395
9.34518
59.2258
121.534
97.2962
2.66649
10.3818
70.068
122.83
92.643
2.43472
11.8567
74.4999
115.195
82.6221
2.30639
13.2284
71.3029
103.221
72.081
2.29104
14.1294
64.1332
94.1017
66.5354
2.39836
14.1728
54.7445
87.2743
62.7735
2.58729
13.4348
44.9993
79.6562
58.2768
2.80731
12.3579
37.1527
72.3801
55.6611
3.00119
11.2696
32.4505
67.5658
55.2903
3.13165
10.5001
32.2006
67.783
55.8133
3.16966
10.2268
37.309
73.5635
56.7623
3.1514
10.4963
48.0918
80.5463
56.26
3.13112
11.3799
63.2273
82.4422
52.3732
3.20697
13.1999
80.8901
81.8711
50.2052
3.51801
16.1952
97.7712
82.3838
49.4804
4.20267
20.0343
105.529
80.2635
47.0144
5.2372
23.8559
101.718
75.7034
43.3498
6.59577
26.7335
94.1939
70.8655
40.8151
7.72731
27.6032
86.6498
68.4079
40.0964
8.32504
27.071
80.2846
66.9944
39.8259
8.17281
25.4896
72.76
64.2256
39.2543
7.60179
23.5057
67.049
61.9456
39.1915
6.96742
22.3769
64.3415
60.3775
39.6842
6.59048
23.1433
65.9256
60.0815
40.7753
6.55093
25.8982
70.5156
61.2115
42.0848
0.183794
0.145659
0.115068
0.0915383
0.0747288
0.0642938
0.0604392
0.0634728
0.0754317
0.0978204
0.13306
0.181844
0.252091
0.356075
0.0880583
0.069417
0.0548968
0.0433047
0.0346479
0.0289013
0.0262041
0.0267987
0.0318847
0.0429981
0.0623787
0.0917108
0.136538
0.20566
0.0423405
0.0318212
0.0248504
0.0193573
0.0151986
0.012343
0.0108738
0.0108875
0.0129828
0.0181905
0.028219
0.0449978
0.0726862
0.118609
0.0203417
0.0141548
0.0107371
0.00819811
0.00630481
0.00499432
0.00429789
0.00424217
0.00511261
0.00751081
0.0126021
0.0221059
0.0393498
0.0709051
0.00961925
0.00611295
0.00443858
0.00329407
0.00247292
0.00191196
0.00161456
0.00158685
0.00196655
0.00309584
0.0057378
0.0112682
0.0224249
0.0450463
0.00451574
0.00258086
0.0017617
0.00125758
0.000917809
0.000692878
0.000576714
0.000572593
0.000752741
0.00132001
0.00277676
0.00617831
0.0137748
0.0305928
0.00225743
0.00111032
0.000682222
0.00045855
0.000322982
0.000238035
0.000196635
0.000202399
0.00029765
0.000610995
0.00148556
0.00372708
0.009178
0.0220842
0.00141338
0.000557087
0.000276441
0.000163998
0.000108736
7.7874e-05
6.47132e-05
7.27215e-05
0.000129351
0.000322155
0.000898356
0.00248672
0.00660988
0.0168556
0.00128284
0.000407018
0.00014329
6.38293e-05
3.65065e-05
2.49418e-05
2.15939e-05
2.922e-05
6.74246e-05
0.000201039
0.000621701
0.00184524
0.00517434
0.0137153
0.00157473
0.000449839
0.000120559
3.61316e-05
1.55207e-05
1.03444e-05
1.05603e-05
1.81398e-05
4.91038e-05
0.000158034
0.000510792
0.00156806
0.00451804
0.0121961
0.00219101
0.000609991
0.000150551
3.98561e-05
1.77506e-05
1.57543e-05
1.97039e-05
3.12686e-05
6.68572e-05
0.000182971
0.000550247
0.00164169
0.0046659
0.0124485
0.00318163
0.00090329
0.000236543
7.8504e-05
5.17636e-05
5.70227e-05
7.35583e-05
0.000103945
0.000170371
0.000347506
0.000850465
0.00225291
0.00596649
0.015117
0.0047042
0.00145416
0.000460329
0.00021457
0.000179896
0.000208964
0.000269149
0.00036652
0.000538126
0.000902846
0.00177758
0.00396161
0.00932688
0.0216923
0.00729159
0.00270643
0.00111006
0.000658283
0.000597643
0.000694578
0.000889189
0.00119519
0.00167927
0.00254475
0.00426963
0.00800918
0.0163564
0.034266
0.181227
0.140832
0.110207
0.0869018
0.0704279
0.0595077
0.0544432
0.0543831
0.0615178
0.078317
0.108758
0.154706
0.226654
0.338485
0.0816526
0.0632739
0.0495954
0.0389025
0.0310734
0.0257218
0.0230204
0.0226414
0.0257179
0.0337611
0.0495131
0.0752106
0.117659
0.186426
0.0365962
0.0271998
0.0210867
0.0163609
0.0128749
0.0104559
0.00919323
0.00894832
0.0102504
0.0139288
0.021699
0.0355699
0.0602399
0.103859
0.0162527
0.0112913
0.00852925
0.00649234
0.00501888
0.0039995
0.00346575
0.00335623
0.00391032
0.00556871
0.00936044
0.0168684
0.0316039
0.0609923
0.00702661
0.00452032
0.00328829
0.00243632
0.00184367
0.00144114
0.00123396
0.00119767
0.00144168
0.00220703
0.00411855
0.00836928
0.0177195
0.0387462
0.00297665
0.00175082
0.00121078
0.000866383
0.000639644
0.000490259
0.000415761
0.000408929
0.000523933
0.000902672
0.00194317
0.00454324
0.010922
0.0266922
0.00132802
0.000677002
0.000429732
0.000292942
0.000210098
0.000157824
0.000133166
0.000135799
0.000196016
0.000404954
0.00103395
0.00277582
0.00744872
0.019779
0.000762545
0.000298201
0.000154603
9.55826e-05
6.56471e-05
4.82474e-05
4.0981e-05
4.56255e-05
8.13983e-05
0.000211907
0.000636344
0.00191101
0.00556474
0.0156116
0.000690571
0.000198122
6.79069e-05
3.22245e-05
2.00004e-05
1.43579e-05
1.27613e-05
1.72935e-05
4.17243e-05
0.000134852
0.000456777
0.00148375
0.00456163
0.0132153
0.000897895
0.000220741
5.10959e-05
1.50375e-05
7.59155e-06
5.87103e-06
6.34891e-06
1.09755e-05
3.12632e-05
0.000110123
0.00039264
0.00132457
0.00416986
0.0121862
0.00134575
0.000322031
6.68277e-05
1.71425e-05
1.01514e-05
1.10754e-05
1.43831e-05
2.21874e-05
4.67484e-05
0.000134924
0.00044365
0.00145081
0.00447337
0.0127795
0.00210318
0.000521098
0.000120168
4.34769e-05
3.65973e-05
4.48536e-05
5.89108e-05
8.2067e-05
0.000131502
0.000272146
0.000708887
0.00203746
0.00582013
0.015677
0.00333459
0.00092813
0.000279222
0.000147087
0.000141285
0.000173653
0.000226377
0.000306459
0.000443353
0.000744046
0.00151474
0.00359465
0.00907109
0.0223671
0.00547312
0.00193469
0.000800208
0.000520882
0.000505959
0.000606798
0.000781978
0.00104715
0.00145697
0.0022007
0.00373828
0.00727207
0.0156651
0.0346656
0.182792
0.138465
0.106461
0.0826345
0.0665448
0.0554601
0.050134
0.0488184
0.0538665
0.0675555
0.0949841
0.139508
0.215199
0.337854
0.0784527
0.0585474
0.0450671
0.0348991
0.0277774
0.0227951
0.0203052
0.0195798
0.0217415
0.0279721
0.0412525
0.0642156
0.105287
0.175158
0.0334554
0.0235943
0.0179225
0.0137495
0.0108045
0.00873103
0.00768828
0.00737779
0.00828716
0.0110045
0.0171717
0.0287359
0.0510817
0.0937776
0.0140406
0.00912464
0.00673549
0.0050767
0.00392796
0.00312263
0.00272256
0.00261048
0.00298934
0.00415297
0.00698965
0.0129057
0.0256868
0.0541309
0.00569523
0.00337794
0.00239563
0.0017615
0.00133815
0.00104522
0.000902702
0.000868667
0.00102798
0.00153686
0.00289545
0.00613052
0.0141058
0.0345244
0.00226931
0.00120507
0.000808951
0.000575892
0.000428332
0.000328311
0.000280864
0.000273257
0.000343703
0.000584201
0.00130133
0.00326783
0.0087491
0.0242316
0.000974734
0.000433023
0.000262614
0.000178084
0.000129089
9.69478e-05
8.2319e-05
8.25815e-05
0.000117553
0.00024773
0.000682389
0.00203204
0.0061654
0.0185379
0.000575188
0.000188008
8.76481e-05
5.29507e-05
3.67891e-05
2.69993e-05
2.29532e-05
2.50406e-05
4.54222e-05
0.000128003
0.000431402
0.00146486
0.00483178
0.0151961
0.000556535
0.000136599
3.85102e-05
1.64526e-05
1.01975e-05
7.32216e-06
6.49305e-06
8.78153e-06
2.30562e-05
8.50978e-05
0.00033015
0.00121796
0.00420554
0.0134473
0.000764352
0.000170383
3.30049e-05
7.94037e-06
3.9249e-06
3.25897e-06
3.64803e-06
6.2628e-06
1.89751e-05
7.57625e-05
0.000307854
0.00116878
0.0040669
0.0128787
0.00119927
0.000269875
4.97048e-05
1.13661e-05
7.23299e-06
8.53112e-06
1.11742e-05
1.66105e-05
3.40182e-05
0.000103966
0.000378982
0.00137126
0.00459145
0.0139715
0.00195942
0.000462652
9.81386e-05
3.42952e-05
3.01822e-05
3.80391e-05
5.00762e-05
6.88852e-05
0.000108278
0.000228222
0.000636898
0.00199408
0.00613306
0.017458
0.00321445
0.00085276
0.000244839
0.000129355
0.00012557
0.000155465
0.000202192
0.000272177
0.000390099
0.000658713
0.0013943
0.00354032
0.00957941
0.0249463
0.0052802
0.001832
0.000766035
0.00050596
0.000484141
0.000576035
0.000734992
0.000977763
0.00135203
0.00204744
0.00353293
0.00714733
0.0162593
0.0379692
0.171813
0.126643
0.095327
0.0724971
0.0583575
0.0485445
0.0442614
0.0426463
0.0465511
0.0572542
0.0811086
0.122836
0.200358
0.330028
0.0702725
0.0497662
0.0373166
0.02834
0.0226268
0.018646
0.0168635
0.0162192
0.0178972
0.0225882
0.0334454
0.053343
0.09224
0.162512
0.0286495
0.0185501
0.0136093
0.0102421
0.00809891
0.0066057
0.00593986
0.00573283
0.00643176
0.00839618
0.0131608
0.0225623
0.0427202
0.0856116
0.0114641
0.00658635
0.00464323
0.00343358
0.00268274
0.00216332
0.0019354
0.00188029
0.00215861
0.00295588
0.00502725
0.00963226
0.0209432
0.0498841
0.00446465
0.00222784
0.00148284
0.00106895
0.000822975
0.000655134
0.000583209
0.000571968
0.000679932
0.00100838
0.00195711
0.0044443
0.0115627
0.0326528
0.00175576
0.00073172
0.00044558
0.000309725
0.000234119
0.00018361
0.000162628
0.000161874
0.000204961
0.00035279
0.000845413
0.00238739
0.00740604
0.0236254
0.000799713
0.000256783
0.0001296
8.38696e-05
6.17299e-05
4.75871e-05
4.20207e-05
4.326e-05
6.29645e-05
0.000142505
0.000449642
0.00156159
0.00550596
0.0187777
0.000553144
0.000132305
4.2828e-05
2.1972e-05
1.51431e-05
1.14247e-05
1.01547e-05
1.15089e-05
2.27521e-05
7.54146e-05
0.000303027
0.0012069
0.0045589
0.0159296
0.000601332
0.000127456
2.49398e-05
6.85109e-06
3.67422e-06
2.70505e-06
2.55366e-06
3.79734e-06
1.21261e-05
5.52992e-05
0.000255611
0.00108937
0.00421297
0.0146407
0.000860845
0.000184532
3.06729e-05
4.96988e-06
1.85725e-06
1.71167e-06
2.07086e-06
3.58534e-06
1.18412e-05
5.548e-05
0.00026104
0.00111676
0.00425323
0.0143616
0.0013806
0.000309791
5.3412e-05
1.00127e-05
5.71657e-06
6.90141e-06
8.94624e-06
1.27529e-05
2.56067e-05
8.46874e-05
0.000346408
0.00138476
0.00499037
0.0159711
0.00229341
0.000541837
0.000108183
3.2365e-05
2.65654e-05
3.33079e-05
4.32048e-05
5.81534e-05
8.97975e-05
0.00019549
0.000594225
0.0020389
0.00673827
0.0201362
0.00378074
0.000986154
0.000267662
0.000128408
0.000118105
0.000143836
0.000183728
0.000243664
0.00034477
0.000588466
0.00131003
0.00359727
0.0104781
0.0287634
0.00599528
0.00206843
0.000865026
0.000545412
0.000492699
0.000569421
0.000708125
0.00092825
0.00126955
0.00193018
0.0033991
0.0072002
0.0173842
0.0429914
0.122097
0.0873499
0.0639581
0.0475973
0.0384975
0.0320337
0.0297235
0.0286292
0.0315997
0.0382779
0.0556669
0.0884827
0.156014
0.271761
0.0464314
0.0309235
0.0222948
0.0164544
0.0132522
0.0110223
0.0102542
0.00997335
0.0112063
0.0140428
0.0213974
0.0359878
0.0679165
0.132961
0.0177308
0.0103127
0.0071619
0.00521125
0.00416946
0.00346037
0.00323184
0.00318671
0.00366788
0.00480429
0.00782549
0.0144255
0.0309798
0.0740317
0.0067444
0.00327313
0.0021331
0.001517
0.00120158
0.000992176
0.000929556
0.000930595
0.00110471
0.00154099
0.00279646
0.00603091
0.0156998
0.0459225
0.00257987
0.00100093
0.000591491
0.000406502
0.000317406
0.000259662
0.000243639
0.000248117
0.000308872
0.000483308
0.00106277
0.00291211
0.00938388
0.0319234
0.00109247
0.000317105
0.000155765
0.000100604
7.68768e-05
6.20132e-05
5.81717e-05
6.07059e-05
8.30059e-05
0.000163496
0.000484702
0.00172709
0.0065328
0.0240374
0.000604898
0.000129979
4.3059e-05
2.33585e-05
1.70531e-05
1.34896e-05
1.26724e-05
1.40013e-05
2.41052e-05
7.15699e-05
0.00029397
0.00127024
0.00524932
0.0198716
0.000536043
0.000100652
1.9116e-05
5.81723e-06
3.5111e-06
2.68098e-06
2.56245e-06
3.39393e-06
9.59468e-06
4.47141e-05
0.000225817
0.0010674
0.00456233
0.0172181
0.000654655
0.000127518
1.94162e-05
2.76758e-06
8.40802e-07
6.0628e-07
6.54145e-07
1.34012e-06
6.50549e-06
3.87962e-05
0.000213542
0.00103833
0.00441677
0.0162581
0.000985119
0.000204343
3.15116e-05
3.89174e-06
9.8708e-07
9.78057e-07
1.24703e-06
2.15861e-06
7.85978e-06
4.33273e-05
0.000233162
0.00110555
0.00453736
0.0160737
0.00161712
0.000356798
5.94024e-05
9.38394e-06
4.44896e-06
5.37112e-06
6.90846e-06
9.59823e-06
1.93406e-05
7.06969e-05
0.000324797
0.00142115
0.00546597
0.0182503
0.00276162
0.000643821
0.000122969
3.06659e-05
2.21662e-05
2.74573e-05
3.52737e-05
4.68819e-05
7.19195e-05
0.000164651
0.000552347
0.00207823
0.00736852
0.0230652
0.00464949
0.00118234
0.000301771
0.000126357
0.000106583
0.000126589
0.000158886
0.000208817
0.000293762
0.000512454
0.00121687
0.00363924
0.0114111
0.0329996
0.00728275
0.00243817
0.001004
0.000589023
0.000492591
0.000546314
0.000657764
0.000851873
0.00115818
0.00178442
0.00323766
0.00723799
0.0185668
0.0486773
0.053172
0.0361895
0.0260316
0.0194522
0.016239
0.0138789
0.0133033
0.0130498
0.0146286
0.0175522
0.0258939
0.042804
0.0823451
0.157458
0.0183721
0.0112095
0.00782023
0.00575313
0.00477219
0.00408928
0.00395383
0.00395711
0.00455595
0.00573347
0.00899981
0.0162717
0.0347769
0.0799888
0.00650476
0.00326826
0.00214985
0.00154507
0.00126735
0.00108419
0.00105651
0.00108089
0.00128626
0.00172666
0.00299539
0.00631759
0.0163937
0.0479909
0.00243916
0.000927071
0.000544335
0.000376955
0.000303961
0.000258386
0.000253188
0.000264887
0.000329105
0.000489446
0.00101606
0.00274384
0.00902445
0.0317503
0.0010232
0.000274399
0.000129232
8.36141e-05
6.57628e-05
5.52612e-05
5.42861e-05
5.82744e-05
7.82028e-05
0.000143829
0.00041174
0.00151027
0.00604368
0.0236187
0.000565259
0.000107056
3.20367e-05
1.70965e-05
1.27952e-05
1.05672e-05
1.0387e-05
1.16616e-05
1.8995e-05
5.35946e-05
0.000226912
0.00104508
0.00462952
0.0187733
0.000432475
7.16222e-05
1.23881e-05
3.64006e-06
2.24777e-06
1.79541e-06
1.7776e-06
2.3082e-06
6.27572e-06
3.09467e-05
0.000170807
0.000876485
0.00402483
0.0163334
0.000479504
8.29513e-05
1.1716e-05
1.5233e-06
4.08209e-07
2.79723e-07
2.94172e-07
6.33085e-07
3.66592e-06
2.50942e-05
0.000153252
0.00081099
0.00371087
0.0147123
0.000629874
0.000118407
1.7125e-05
1.8132e-06
2.15721e-07
1.25041e-07
1.59959e-07
4.8678e-07
3.55001e-06
2.61684e-05
0.000162914
0.000855039
0.00380828
0.0145408
0.000966469
0.000193357
2.95821e-05
3.41128e-06
6.70199e-07
6.4606e-07
8.19118e-07
1.34709e-06
5.24148e-06
3.27262e-05
0.00019257
0.000965838
0.00410174
0.0149087
0.0015792
0.000333305
5.48984e-05
8.09664e-06
3.33053e-06
3.9593e-06
5.04402e-06
6.86701e-06
1.42068e-05
5.71858e-05
0.000285088
0.00131091
0.00520218
0.0178075
0.00277664
0.000612858
0.000114932
2.64585e-05
1.7441e-05
2.12613e-05
2.70211e-05
3.55667e-05
5.4972e-05
0.000133665
0.000487953
0.00195253
0.00718786
0.0231091
0.00492591
0.00118289
0.0002966
0.000116989
9.21605e-05
0.000106285
0.000130403
0.00017011
0.000239946
0.00043223
0.00109814
0.00351702
0.0115435
0.03459
0.00811692
0.00259586
0.00108304
0.000621116
0.000489905
0.000520495
0.000597881
0.000764261
0.00103172
0.00161297
0.00301007
0.00703537
0.018853
0.051955
0.00837501
0.0053641
0.00382724
0.00285183
0.00244716
0.00215369
0.00215541
0.00222008
0.00260187
0.00324507
0.00494559
0.00861306
0.018159
0.0409683
0.00253574
0.00139848
0.000955018
0.000696165
0.000586693
0.000514728
0.00051845
0.000547781
0.000665434
0.000887544
0.00149032
0.00301539
0.00757405
0.0216213
0.000838212
0.000350678
0.000218833
0.000154641
0.000127303
0.00011056
0.000111539
0.000120692
0.000153124
0.000225856
0.000452601
0.00118845
0.00390766
0.0141868
0.000336796
9.26915e-05
4.67044e-05
3.11507e-05
2.4899e-05
2.127e-05
2.13822e-05
2.36893e-05
3.22268e-05
5.80527e-05
0.000161538
0.000595734
0.00247493
0.0102916
0.000182346
3.27162e-05
1.01673e-05
5.71111e-06
4.35368e-06
3.63791e-06
3.63301e-06
4.19253e-06
6.88775e-06
1.9448e-05
8.42957e-05
0.000406965
0.0019275
0.00852399
0.000149405
2.21292e-05
3.56349e-06
1.06385e-06
6.76858e-07
5.46352e-07
5.46372e-07
7.34651e-07
2.08396e-06
1.07542e-05
6.21962e-05
0.000338507
0.00168047
0.00751281
0.000158795
2.43376e-05
3.12026e-06
3.77824e-07
1.0257e-07
7.16817e-08
7.73058e-08
1.93055e-07
1.23211e-06
8.8527e-06
5.69615e-05
0.000323272
0.00161916
0.00714879
0.000212268
3.4843e-05
4.51368e-06
4.21301e-07
3.63166e-08
1.47121e-08
2.20448e-08
1.23556e-07
1.11165e-06
8.76695e-06
5.83355e-05
0.000332645
0.00163761
0.00700017
0.000304811
5.33022e-05
7.21411e-06
6.90554e-07
7.6589e-08
5.67508e-08
7.5088e-08
1.96011e-07
1.34574e-06
1.03621e-05
6.84287e-05
0.000382052
0.00181755
0.00745069
0.000492122
8.95165e-05
1.2712e-05
1.40656e-06
3.57438e-07
4.01087e-07
5.07945e-07
7.53659e-07
2.40584e-06
1.44148e-05
8.78075e-05
0.000463495
0.00208964
0.00813214
0.000822323
0.000156165
2.41273e-05
3.76886e-06
1.99095e-06
2.49479e-06
3.17728e-06
4.16863e-06
7.65325e-06
2.78152e-05
0.000138839
0.000666181
0.00280811
0.0103325
0.00152608
0.000305628
5.71334e-05
1.53809e-05
1.14968e-05
1.40959e-05
1.78043e-05
2.29218e-05
3.34526e-05
7.3834e-05
0.000257682
0.00104893
0.00404746
0.0139755
0.00297908
0.000689303
0.000193204
8.81753e-05
7.01827e-05
7.86661e-05
9.41141e-05
0.000120256
0.000164359
0.000278914
0.000664707
0.00209349
0.00707716
0.0227591
0.00606337
0.00220602
0.0010754
0.000662742
0.000503634
0.000508414
0.000530016
0.000650949
0.000821094
0.00123372
0.00214693
0.00476167
0.0126448
0.0369284
0.000529953
0.000327951
0.000235826
0.000178268
0.000153288
0.000138122
0.000141343
0.000153224
0.000188487
0.000250295
0.000403664
0.000761618
0.00174475
0.00443714
0.000148217
7.65724e-05
5.23061e-05
3.85468e-05
3.21319e-05
2.84119e-05
2.88679e-05
3.17648e-05
4.03487e-05
5.81758e-05
0.000108152
0.000253763
0.00074192
0.002452
4.97207e-05
1.76953e-05
1.06196e-05
7.55082e-06
6.09816e-06
5.26726e-06
5.28672e-06
5.88186e-06
7.84424e-06
1.32828e-05
3.31255e-05
0.000110492
0.000430648
0.00175312
2.52103e-05
5.22018e-06
2.08305e-06
1.32335e-06
1.02823e-06
8.6674e-07
8.58352e-07
9.75601e-07
1.49718e-06
3.76029e-06
1.48192e-05
6.75922e-05
0.000311899
0.00139382
2.05338e-05
3.17628e-06
5.96906e-07
2.22408e-07
1.51314e-07
1.2382e-07
1.22194e-07
1.56175e-07
3.93175e-07
1.86648e-06
1.03044e-05
5.44935e-05
0.000270884
0.00126548
2.40943e-05
3.72142e-06
4.91188e-07
6.58285e-08
2.0773e-08
1.50543e-08
1.58463e-08
3.55702e-08
2.08243e-07
1.43311e-06
8.93585e-06
5.01577e-05
0.000257979
0.00122188
3.22846e-05
5.27638e-06
6.79951e-07
6.35773e-08
5.43265e-09
1.91685e-09
3.04745e-09
1.95856e-08
1.75044e-07
1.34401e-06
8.84552e-06
5.14532e-05
0.000268941
0.00126872
4.88877e-05
8.2787e-06
1.07755e-06
9.70479e-08
7.35851e-09
3.33782e-09
4.89923e-09
2.09151e-08
1.77297e-07
1.41089e-06
9.60655e-06
5.68076e-05
0.000295436
0.00136114
7.54682e-05
1.3175e-05
1.74812e-06
1.65772e-07
2.58476e-08
2.51814e-08
3.15244e-08
5.36749e-08
2.45347e-07
1.77138e-06
1.19541e-05
6.98677e-05
0.000354228
0.00157353
0.000123969
2.20222e-05
3.03596e-06
3.57598e-07
1.39867e-07
1.73536e-07
2.15782e-07
2.78893e-07
5.92075e-07
2.80534e-06
1.67752e-05
9.23163e-05
0.000444143
0.00187436
0.00021019
3.87514e-05
6.03397e-06
1.18808e-06
8.622e-07
1.10911e-06
1.38701e-06
1.72916e-06
2.57753e-06
6.81428e-06
3.00147e-05
0.00014499
0.00064448
0.00255922
0.000400181
8.43949e-05
1.97901e-05
7.99914e-06
6.87628e-06
8.15119e-06
9.69976e-06
1.20089e-05
1.56728e-05
2.70982e-05
7.30305e-05
0.000269096
0.00103533
0.00375258
0.000814659
0.00022541
8.91757e-05
5.38805e-05
4.65956e-05
5.12569e-05
5.86694e-05
7.29211e-05
9.38465e-05
0.000140139
0.000262375
0.000668958
0.00205683
0.00664981
0.00195468
0.000817767
0.000460492
0.000324853
0.000275775
0.000288535
0.000312538
0.000384213
0.000485958
0.000692519
0.00108754
0.0020263
0.00449584
0.0120597
2.81161e-05
1.74378e-05
1.25192e-05
9.47398e-06
7.85196e-06
6.92052e-06
6.9039e-06
7.51896e-06
9.33001e-06
1.30686e-05
2.27207e-05
4.76759e-05
0.000121037
0.000338623
7.53829e-06
3.75704e-06
2.559e-06
1.89252e-06
1.52496e-06
1.30763e-06
1.27683e-06
1.37907e-06
1.73841e-06
2.68911e-06
5.76991e-06
1.62487e-05
5.45926e-05
0.000196217
2.84423e-06
8.56341e-07
4.69922e-07
3.29483e-07
2.58648e-07
2.17003e-07
2.08293e-07
2.24532e-07
3.03849e-07
6.23683e-07
2.05665e-06
8.36158e-06
3.54495e-05
0.000147583
2.11503e-06
3.79154e-07
1.01418e-07
5.13903e-08
3.74508e-08
3.07977e-08
2.93567e-08
3.3415e-08
6.33963e-08
2.41839e-07
1.21282e-06
5.98408e-06
2.77808e-05
0.000122179
2.47572e-06
4.07407e-07
6.0679e-08
1.11828e-08
4.81025e-09
3.64721e-09
3.59671e-09
5.96494e-09
2.65191e-08
1.66927e-07
9.82039e-07
5.16987e-06
2.50341e-05
0.000114313
3.47084e-06
5.81876e-07
7.76942e-08
8.17367e-09
9.53999e-10
3.85524e-10
4.97482e-10
2.39383e-09
1.95095e-08
1.42034e-07
8.83022e-07
4.84961e-06
2.4382e-05
0.000114664
5.07869e-06
8.6417e-07
1.11719e-07
1.04227e-08
7.67283e-10
1.91053e-10
3.19743e-10
1.98966e-09
1.75199e-08
1.33583e-07
8.69608e-07
4.99737e-06
2.60486e-05
0.000124949
7.79659e-06
1.32977e-06
1.67769e-07
1.5103e-08
1.6848e-09
1.23959e-09
1.55779e-09
3.26822e-09
1.87563e-08
1.39818e-07
9.44806e-07
5.63023e-06
2.99374e-05
0.000143558
1.19644e-05
2.04299e-06
2.55779e-07
2.54305e-08
7.70194e-09
9.14698e-09
1.11372e-08
1.44574e-08
3.45531e-08
1.87436e-07
1.21388e-06
7.20924e-06
3.79587e-05
0.000178049
1.90904e-05
3.28845e-06
4.32642e-07
6.50978e-08
4.56022e-08
5.97645e-08
7.32615e-08
8.83368e-08
1.30545e-07
3.78845e-07
1.9142e-06
1.04264e-05
5.19781e-05
0.000232081
3.17243e-05
5.97096e-06
1.07487e-06
3.76357e-07
3.78225e-07
4.86806e-07
5.95379e-07
7.23918e-07
9.24773e-07
1.58822e-06
4.65388e-06
1.94719e-05
8.47478e-05
0.000345041
5.76465e-05
1.34818e-05
4.12024e-06
2.36523e-06
2.40286e-06
2.97023e-06
3.63446e-06
4.48754e-06
5.64485e-06
8.10869e-06
1.55873e-05
4.43223e-05
0.000154245
0.0005513
0.000117787
3.95312e-05
1.91032e-05
1.35155e-05
1.31322e-05
1.52788e-05
1.81726e-05
2.24877e-05
2.8375e-05
3.90143e-05
6.16707e-05
0.000126431
0.000334016
0.00102628
0.000300549
0.000145431
9.02335e-05
7.01992e-05
6.59559e-05
7.2988e-05
8.32772e-05
0.000102128
0.000128406
0.000174594
0.000254653
0.000423715
0.000826308
0.00202051
2.2738e-06
1.42084e-06
1.01633e-06
7.61492e-07
6.11728e-07
5.23974e-07
5.03815e-07
5.33643e-07
6.42952e-07
9.12054e-07
1.67908e-06
3.90673e-06
1.09454e-05
3.34239e-05
5.95075e-07
2.79352e-07
1.8519e-07
1.35043e-07
1.06136e-07
8.92402e-08
8.43566e-08
8.80973e-08
1.07539e-07
1.74397e-07
4.30795e-07
1.4223e-06
5.29462e-06
2.01251e-05
2.86137e-07
7.22399e-08
3.18872e-08
2.04722e-08
1.55237e-08
1.28847e-08
1.20851e-08
1.27447e-08
1.78757e-08
4.52913e-08
1.85483e-07
8.42685e-07
3.71705e-06
1.5576e-05
3.00816e-07
5.40756e-08
1.05359e-08
3.28199e-09
1.93525e-09
1.5447e-09
1.46136e-09
1.78064e-09
4.56961e-09
2.30321e-08
1.27799e-07
6.48174e-07
2.99644e-06