/*--------------------------------*- C++ -*----------------------------------*\
| =========                 |                                                 |
| \\      /  F ield         | OpenFOAM: The Open Source CFD Toolbox           |
|  \\    /   O peration     | Version:  v2106                                 |
|   \\  /    A nd           | Website:  www.openfoam.com                      |
|    \\/     M anipulation  |                                                 |
\*---------------------------------------------------------------------------*/
FoamFile
{
    version     2.0;
    format      ascii;
    arch        "LSB;label=32;scalar=64";
    class       volScalarField;
    location    "0.000215";
    object      p;
}
// * * * * * * * * * * * * * * * * * * * * * * * * * * * * * * * * * * * * * //

dimensions      [1 -1 -2 0 0 0 0];

internalField   nonuniform List<scalar> 
18109
(
198467
198203
197985
197731
197498
197247
197023
199086
198763
198508
198227
197979
197733
197525
199607
199284
199019
198731
198484
198253
198064
200134
199815
199531
199241
198998
198785
198615
200626
200311
200024
199751
199523
199332
199177
201098
200787
200504
200256
200052
199884
199743
201535
201235
200973
200761
200586
200443
200313
201963
201684
201448
201270
201120
201001
200885
198723
198413
198150
197872
197640
197409
197203
196976
196774
196566
196394
196210
196077
196009
199324
198965
198668
198360
198107
197872
197678
197489
197313
197143
196997
196871
196753
196690
199831
199470
199165
198850
198596
198370
198187
198014
197856
197705
197563
197437
197329
197243
200350
199986
199664
199349
199095
198880
198706
198546
198397
198256
198126
198013
197914
197824
200822
200463
200143
199846
199603
199401
199233
199076
198930
198792
198671
198557
198463
198381
201269
200925
200620
200349
200123
199931
199763
199606
199460
199325
199204
199099
199023
198956
201692
201378
201104
200865
200656
200471
200299
200140
199988
199848
199727
199636
199578
199529
202128
201853
201606
201393
201194
201012
200834
200668
200509
200371
200262
200196
200154
200121
202583
202349
202121
201927
201730
201543
201356
201188
201033
200906
200815
200771
200747
200725
203068
202868
202642
202451
202249
202056
201869
201707
201569
201463
201398
201373
201377
201353
203569
203395
203165
202978
202767
202572
202388
202239
202117
202029
201986
201978
202013
201975
204086
203919
203681
203488
203269
203078
202903
202770
202664
202598
202582
202592
202653
202604
204625
204451
204206
204004
203779
203590
203421
203300
203205
203156
203160
203183
203252
203209
205164
204946
204692
204481
204266
204090
203933
203821
203735
203695
203706
203739
203814
203834
198319
198149
198002
197849
197640
197427
198584
198450
198338
198260
198125
197950
198140
197969
197739
197576
197398
197238
197835
197622
197369
197167
196926
196703
197506
197239
196954
196750
196494
196240
197236
196921
196603
196373
196104
195838
196954
196574
196206
195914
195592
195329
196705
196242
195808
195436
195031
194631
196425
195877
195351
194863
194375
193983
196201
195598
194990
194417
193834
193393
195964
195286
194604
193977
193400
193010
195835
195124
194491
193850
193263
192753
195702
194995
194383
193716
193142
192632
195682
195054
194536
193979
193435
192822
195408
194831
194377
193887
193430
193008
195901
195491
195202
194642
194200
193654
196518
196109
195764
195249
194735
194169
197072
196714
196361
195871
195395
194910
197662
197338
197012
196579
196234
195826
198246
197986
197728
197383
197135
196835
198854
198667
198484
198234
198032
197755
199476
199374
199263
199100
198942
198704
200131
200113
200065
199992
199867
199693
200789
200863
200871
200881
200828
200744
201469
201614
201694
201783
201817
201864
202134
202334
202486
202648
202776
202917
202804
203051
203268
203491
203688
203884
203403
203696
203951
204221
204454
204685
204039
204355
204610
204891
205109
205335
204346
204672
204987
205260
205519
205793
204264
204652
205024
205373
205715
206032
204238
204691
205104
205482
205847
206170
204227
204726
205183
205590
205971
206305
204251
204806
205321
205790
206234
206648
204308
204904
205480
206017
206539
207012
204403
205024
205651
206253
206848
207390
204513
205149
205800
206444
207085
207677
204661
205291
205928
206576
207221
207831
204826
205438
206043
206666
207290
207903
205018
205597
206157
206742
207333
207945
205208
205748
206263
206806
207358
207956
205399
205912
206392
206910
207425
207974
205628
206069
206485
206975
207437
207923
200372
200329
200388
200395
200535
200779
199830
199709
199753
199755
199865
200017
199283
199058
199098
199072
199141
199213
198604
198302
198279
198141
198124
198113
205543
206004
206392
206830
207257
207772
204971
205447
205870
206339
206787
207230
204473
204931
205367
205820
206253
206685
203936
204396
204839
205298
205728
206151
203429
203892
204347
204824
205262
205714
202942
203416
203883
204348
204750
205132
202499
202950
203410
203824
204129
204368
202071
202463
202839
203117
203297
203411
201625
201914
202158
202284
202347
202393
201143
201287
201413
201423
201412
201483
200642
200629
200691
200642
200637
200764
200091
199977
200001
199936
199966
200096
199544
199330
199366
199328
199402
199533
198890
198623
198624
198549
198589
198680
197879
198280
201154
207013
216813
197112
197411
200978
207530
218139
196657
197126
200888
207623
221622
196305
196537
199852
206064
218276
195879
195938
199043
204209
212609
195215
195539
198555
203530
211397
194580
195168
198420
204277
214691
194081
194734
197845
203275
213210
223738
193359
193834
196623
200544
207033
213677
192987
193333
195998
199815
206923
214702
192406
192564
195394
199763
208742
219785
229665
192199
192362
195411
200684
211682
225762
243992
262780
192080
192068
194709
200285
212994
233287
266726
303046
192218
191928
194259
199351
209837
227803
252965
274514
192748
192149
193728
197382
203559
214219
228747
237843
193350
192840
194571
198798
205867
218221
224706
233324
194249
193999
195837
200755
211778
232140
256502
264978
195209
195126
196600
200981
211403
228760
250586
283471
196253
196215
197284
200797
208065
217598
229642
237241
197239
197141
198280
201348
207232
215036
218720
223012
198357
198348
199985
203967
213278
225594
236626
238465
199546
199667
201291
205161
213127
224879
241076
261988
200665
201006
202516
206093
211417
219389
201831
202428
203952
207153
211765
219638
203042
203850
205648
209193
214958
224083
204176
205164
207161
211099
218143
230490
205131
206155
208080
211831
219852
236261
205792
206746
208587
211729
218547
206292
207059
208577
210758
215811
206581
207281
208595
211082
216545
206779
207610
209006
211826
219494
206949
207868
209314
211989
220035
207342
208306
209721
212147
218929
207719
208639
209925
212469
217157
208141
209105
210512
213765
220847
208490
209600
211051
214396
220628
208711
209946
211451
214383
218244
208859
210263
212019
215177
219299
208974
210522
212594
215886
221448
209045
210717
213011
216392
223288
209085
210814
213171
216547
224220
209033
210742
212782
216070
223367
208796
210515
212596
216095
222584
208162
209719
211779
215860
223482
207510
208868
211192
216099
226379
206919
208099
210516
215531
225880
206296
207221
209474
214486
223628
205439
206200
208536
213345
221290
204496
205288
207620
212896
221974
203493
204610
207124
212408
220539
202740
203997
206329
210503
216350
202034
203445
206175
210539
217379
201451
202790
205746
210220
219363
200733
201994
205312
210414
221531
199968
200946
204017
209765
222812
198902
199587
202306
208055
220445
199148
198859
198588
198287
198035
197792
197589
197377
197165
196918
196676
196402
196147
195954
199720
199374
199076
198752
198483
198237
198036
197840
197646
197428
197204
196983
196738
196552
200190
199839
199538
199211
198941
198699
198499
198311
198124
197923
197710
197499
197273
197082
200669
200321
200009
199683
199412
199170
198967
198778
198593
198403
198204
198008
197805
197622
201107
200771
200460
200148
199878
199637
199428
199235
199049
198864
198674
198490
198306
198137
201535
201220
200917
200621
200350
200105
199886
199685
199494
199311
199134
198967
198810
198664
201953
201663
201376
201093
200822
200571
200339
200127
199930
199751
199589
199445
199314
199199
202391
202121
201842
201567
201292
201031
200785
200566
200370
200204
200063
199945
199851
199765
202838
202585
202307
202034
201754
201485
201233
201015
200830
200684
200566
200476
200420
200355
203293
203048
202760
202483
202197
201929
201684
201480
201318
201198
201111
201056
201033
200981
203746
203511
203211
202932
202644
202386
202156
201975
201838
201746
201691
201661
201665
201605
204199
203961
203649
203375
203097
202855
202644
202486
202375
202311
202285
202277
202308
202223
204660
204423
204115
203852
203582
203350
203153
203011
202914
202868
202857
202863
202902
202813
205130
204870
204572
204316
204065
203847
203658
203522
203431
203395
203391
203411
203457
203419
199579
199405
199191
198912
198643
198366
198121
197871
197621
197342
197052
196721
196383
196079
200119
199864
199631
199337
199060
198784
198538
198296
198057
197797
197516
197230
196898
196635
200529
200266
200034
199740
199469
199201
198961
198728
198493
198249
197982
197714
197399
197138
200977
200722
200475
200177
199901
199632
199387
199154
198919
198682
198425
198171
197880
197634
201401
201149
200885
200591
200308
200038
199790
199558
199326
199097
198853
198612
198344
198100
201835
201581
201303
201005
200709
200432
200176
199940
199712
199490
199264
199037
198798
198561
202249
201989
201699
201393
201086
200800
200538
200302
200083
199874
199667
199456
199246
199022
202650
202379
202075
201763
201449
201157
200892
200662
200456
200263
200081
199892
199713
199510
203029
202751
202437
202122
201806
201516
201258
201037
200847
200673
200514
200348
200202
200017
203376
203095
202773
202463
202155
201877
201633
201430
201260
201108
200979
200842
200732
200553
203701
203431
203112
202812
202515
202257
202033
201852
201704
201577
201476
201360
201274
201090
204036
203764
203432
203144
202867
202636
202439
202284
202160
202060
201982
201887
201824
201634
204408
204137
203801
203520
203251
203035
202860
202726
202622
202542
202475
202393
202337
202156
204817
204502
204162
203880
203630
203427
203263
203142
203053
202990
202934
202883
202849
202711
200321
200228
200089
199875
199622
199334
199024
198716
198396
198074
197744
197386
197019
196627
200821
200666
200514
200277
200014
199719
199411
199104
198791
198479
198153
197831
197465
197159
201201
201043
200883
200647
200390
200102
199806
199512
199212
198918
198607
198306
197952
197657
201627
201464
201284
201042
200783
200497
200207
199919
199626
199339
199035
198743
198400
198116
202000
201837
201642
201404
201145
200869
200588
200312
200029
199753
199459
199174
198847
198553
202361
202188
201982
201745
201485
201217
200945
200679
200408
200141
199858
199578
199267
198966
202679
202492
202275
202039
201784
201529
201270
201018
200762
200508
200240
199968
199675
199368
202958
202755
202528
202295
202048
201808
201568
201335
201098
200860
200613
200352
200078
199766
203204
202986
202752
202524
202290
202069
201851
201640
201427
201206
200981
200729
200477
200164
203445
203210
202957
202731
202510
202313
202120
201934
201749
201552
201353
201112
200883
200569
203719
203454
203175
202947
202735
202554
202387
202228
202070
201892
201715
201484
201278
200969
203993
203716
203404
203160
202955
202792
202648
202509
202372
202214
202057
201846
201666
201362
204258
204001
203686
203428
203206
203037
202899
202775
202658
202523
202386
202200
202035
201735
204518
204185
203869
203625
203424
203263
203137
203028
202925
202811
202693
202550
202391
202160
202120
202080
202010
201866
201684
201422
201153
200833
200485
200129
199753
199352
198919
198431
202610
202512
202423
202251
202057
201776
201491
201161
200815
200467
200100
199737
199329
198951
203002
202899
202791
202597
202398
202126
201844
201532
201202
200876
200526
200189
199788
199428
203406
203285
203162
202953
202744
202466
202182
201877
201557
201246
200908
200585
200197
199853
203785
203638
203501
203284
203074
202806
202527
202238
201931
201632
201303
200986
200606
200259
204137
203962
203810
203587
203372
203109
202838
202560
202266
201978
201662
201351
200984
200629
204454
204254
204088
203859
203645
203395
203137
202876
202598
202322
202015
201706
201346
200975
204701
204506
204328
204100
203890
203653
203410
203162
202900
202633
202340
202032
201682
201298
204921
204735
204534
204308
204103
203877
203651
203420
203176
202920
202639
202329
201990
201587
205079
204892
204688
204484
204293
204091
203889
203677
203450
203202
202930
202615
202277
201853
205144
205005
204819
204637
204459
204273
204090
203892
203681
203440
203178
202860
202532
202092
205156
205033
204885
204748
204581
204424
204265
204088
203892
203660
203407
203081
202755
202295
205173
205058
204919
204809
204671
204536
204398
204240
204062
203841
203599
203275
202958
202484
205110
204993
204878
204788
204694
204589
204476
204348
204198
203992
203757
203445
203159
202695
205726
205738
205710
205622
205508
205328
205152
204875
204612
204284
203922
203520
203064
202508
206117
206078
206007
205891
205759
205557
205361
205078
204812
204494
204145
203773
203363
202916
206456
206377
206306
206160
206018
205813
205613
205341
205075
204773
204436
204090
203668
203265
206773
206657
206571
206410
206255
206041
205833
205566
205301
205010
204685
204355
203949
203564
207058
206909
206815
206644
206486
206274
206068
205813
205555
205273
204953
204625
204223
203844
207321
207144
207041
206862
206703
206493
206287
206040
205784
205508
205191
204861
204461
204065
207523
207346
207231
207048
206890
206684
206482
206245
205996
205726
205415
205083
204688
204280
207684
207523
207399
207216
207058
206856
206658
206431
206187
205921
205612
205276
204878
204454
207789
207649
207511
207330
207181
206990
206802
206588
206353
206091
205783
205442
205042
204601
207867
207737
207594
207420
207274
207091
206915
206713
206488
206233
205931
205586
205181
204720
207878
207754
207614
207454
207323
207160
206995
206803
206590
206342
206045
205697
205292
204821
207802
207702
207576
207437
207326
207181
207035
206858
206663
206426
206141
205794
205385
204892
207690
207607
207504
207382
207283
207153
207034
206880
206707
206477
206201
205856
205450
204933
207417
207409
207353
207271
207198
207096
207005
206881
206733
206521
206255
205902
205507
204916
211261
211201
211172
211094
211010
210887
210757
210553
210366
210093
209821
209500
209103
208657
211498
211419
211345
211246
211144
211008
210865
210657
210461
210191
209914
209604
209272
208870
211696
211591
211522
211410
211301
211162
211017
210820
210626
210373
210106
209798
209445
209068
211891
211755
211685
211561
211445
211299
211148
210953
210757
210513
210252
209957
209614
209257
212039
211888
211821
211694
211580
211436
211288
211103
210914
210683
210428
210137
209794
209445
212179
212019
211952
211824
211714
211573
211426
211250
211063
210840
210586
210297
209948
209591
212255
212113
212052
211932
211832
211701
211563
211399
211219
211004
210752
210464
210114
209749
212321
212198
212146
212036
211945
211822
211690
211536
211358
211145
210886
210590
210226
209841
212322
212240
212198
212100
212023
211915
211794
211655
211482
211272
211009
210704
210332
209933
212273
212233
212212
212137
212077
211984
211873
211744
211572
211362
211089
210774
210382
209954
212157
212156
212160
212111
212076
212004
211906
211790
211622
211412
211132
210795
210379
209921
211952
211995
212046
212028
212015
211970
211890
211790
211627
211418
211128
210776
210328
209835
211673
211779
211861
211885
211902
211880
211810
211724
211559
211345
211042
210667
210208
209655
211233
211455
211605
211681
211737
211749
211700
211637
211477
211266
210955
210548
210052
209384
217730
217585
217531
217460
217412
217349
217292
217195
217108
216964
216831
216664
216462
216294
217807
217665
217576
217479
217407
217331
217262
217163
217066
216920
216774
216603
216425
216219
217893
217731
217638
217532
217449
217367
217293
217195
217097
216961
216819
216648
216467
216256
217969
217792
217701
217587
217494
217403
217320
217220
217118
216985
216842
216672
216484
216278
218020
217843
217757
217642
217547
217454
217369
217273
217172
217044
216902
216730
216533
216325
218066
217897
217815
217702
217607
217514
217427
217332
217232
217109
216965
216790
216579
216357
218072
217922
217850
217748
217661
217575
217492
217402
217303
217182
217035
216854
216632
216396
218069
217944
217883
217790
217711
217633
217551
217464
217362
217237
217080
216890
216652
216399
218016
217924
217884
217810
217741
217671
217594
217511
217408
217281
217116
216913
216659
216386
217954
217886
217868
217810
217752
217691
217617
217538
217428
217294
217114
216893
216615
216315
217829
217800
217808
217768
217727
217678
217608
217530
217414
217272
217079
216842
216549
216223
217661
217658
217707
217688
217661
217624
217559
217485
217363
217217
217011
216758
216433
216076
217419
217487
217553
217561
217554
217532
217470
217399
217266
217109
216882
216601
216266
215848
217065
217218
217335
217389
217409
217406
217351
217292
217150
216989
216744
216436
216055
215569
223734
223525
223436
223358
223317
223287
223273
223251
223244
223215
223214
223217
223225
223313
223676
223516
223419
223326
223273
223232
223207
223177
223158
223121
223101
223089
223094
223105
223690
223527
223434
223341
223283
223238
223209
223178
223154
223120
223097
223080
223075
223073
223698
223540
223453
223359
223293
223240
223203
223169
223140
223106
223078
223052
223034
223022
223703
223563
223487
223396
223329
223273
223233
223199
223169
223135
223102
223067
223035
223010
223714
223595
223531
223448
223383
223326
223283
223246
223213
223175
223134
223088
223040
222994
223709
223616
223570
223501
223443
223390
223345
223305
223266
223222
223172
223115
223052
222991
223713
223644
223615
223556
223504
223451
223401
223355
223306
223254
223193
223124
223046
222969
223691
223649
223641
223597
223553
223503
223449
223398
223341
223281
223210
223129
223034
222943
223677
223656
223663
223630
223593
223544
223485
223429
223361
223292
223207
223109
222991
222880
223639
223641
223664
223642
223611
223567
223506
223447
223370
223290
223190
223077
222942
222814
223597
223610
223651
223643
223617
223579
223513
223450
223360
223268
223152
223021
222868
222717
223515
223566
223613
223621
223599
223568
223497
223431
223325
223223
223086
222933
222769
222570
223395
223486
223560
223590
223573
223542
223465
223400
223281
223172
223018
222849
222663
222463
228286
228140
228059
227996
227970
227962
227975
228003
228055
228111
228206
228329
228497
228768
228246
228125
228044
227968
227929
227908
227910
227929
227976
228031
228123
228243
228407
228608
228242
228127
228050
227972
227927
227900
227895
227912
227957
228014
228104
228223
228379
228567
228271
228161
228083
227996
227939
227902
227890
227907
227957
228021
228113
228228
228370
228537
228332
228235
228160
228069
228003
227956
227940
227961
228016
228087
228177
228283
228404
228540
228406
228326
228260
228169
228099
228047
228025
228045
228098
228165
228244
228331
228426
228533
228473
228415
228363
228281
228211
228155
228127
228140
228184
228239
228302
228370
228442
228527
228544
228501
228466
228392
228323
228263
228225
228225
228252
228291
228335
228385
228438
228506
228598
228568
228555
228493
228430
228368
228319
228302
228308
228328
228354
228390
228424
228473
228656
228633
228635
228584
228526
228462
228403
228367
228348
228348
228356
228373
228381
228413
228704
228693
228702
228661
228609
228544
228474
228424
228381
228357
228345
228340
228330
228355
228747
228754
228766
228733
228683
228618
228538
228475
228409
228360
228320
228293
228270
228281
228769
228807
228819
228791
228742
228679
228590
228514
228426
228357
228288
228241
228203
228195
228819
228842
228869
228863
228812
228749
228646
228560
228452
228368
228277
228208
228158
228188
231396
231315
231237
231177
231140
231121
231125
231160
231234
231333
231474
231646
231865
232152
231410
231318
231239
231163
231112
231080
231075
231107
231183
231291
231444
231630
231857
232129
231424
231333
231246
231162
231104
231066
231058
231090
231167
231281
231441
231638
231878
232150
231507
231401
231304
231205
231136
231090
231080
231118
231204
231331
231501
231705
231942
232206
231622
231519
231418
231310
231230
231177
231167
231214
231312
231453
231629
231833
232062
232307
231776
231672
231568
231452
231365
231305
231295
231346
231446
231591
231767
231967
232183
232409
231934
231837
231735
231618
231529
231467
231456
231507
231605
231746
231916
232108
232311
232517
232093
232004
231908
231795
231707
231643
231629
231675
231764
231894
232049
232225
232407
232594
232241
232163
232079
231974
231890
231826
231807
231844
231916
232028
232161
232317
232476
232645
232381
232313
232245
232149
232070
232006
231978
231999
232050
232138
232243
232374
232504
232657
232508
232450
232401
232315
232242
232178
232139
232140
232166
232224
232300
232407
232515
232663
232627
232580
232550
232475
232407
232343
232289
232267
232269
232299
232345
232427
232511
232649
232737
232696
232677
232616
232558
232495
232428
232384
232358
232361
232378
232434
232499
232631
232889
232816
232817
232772
232717
232651
232567
232507
232451
232431
232430
232462
232495
232667
233624
233566
233488
233428
233383
233354
233348
233375
233442
233539
233679
233846
234050
234292
233652
233576
233499
233426
233370
233330
233319
233346
233418
233527
233680
233863
234081
234328
233674
233592
233504
233425
233364
233323
233311
233341
233416
233533
233696
233891
234126
234383
233757
233653
233554
233464
233398
233354
233344
233380
233463
233592
233765
233972
234209
234472
233864
233753
233648
233552
233481
233436
233432
233478
233571
233709
233889
234102
234346
234607
234018
233897
233787
233681
233607
233560
233559
233612
233710
233856
234042
234260
234504
234759
234181
234061
233948
233841
233767
233721
233724
233783
233886
234038
234228
234447
234690
234935
234354
234238
234125
234019
233947
233904
233911
233973
234076
234229
234415
234630
234865
235097
234524
234416
234309
234209
234141
234104
234113
234175
234275
234421
234598
234802
235026
235244
234689
234593
234495
234402
234339
234306
234315
234372
234463
234598
234758
234947
235154
235356
234845
234759
234675
234590
234533
234503
234510
234557
234634
234751
234891
235063
235249
235441
234998
234923
234852
234773
234719
234689
234690
234725
234783
234881
234998
235154
235317
235500
235142
235066
235012
234943
234896
234865
234857
234879
234916
234991
235081
235215
235354
235535
235317
235223
235179
235113
235068
235031
235010
235017
235033
235084
235152
235266
235382
235587
235443
235397
235333
235282
235240
235212
235200
235210
235249
235307
235396
235506
235641
235805
235465
235408
235341
235281
235233
235199
235185
235197
235241
235310
235411
235536
235688
235854
235473
235406
235335
235275
235227
235196
235185
235201
235249
235326
235436
235569
235732
235912
235519
235437
235361
235295
235247
235215
235208
235232
235287
235372
235489
235632
235800
235991
235577
235486
235405
235338
235292
235264
235265
235298
235360
235452
235577
235729
235910
236109
235671
235569
235485
235413
235369
235345
235350
235389
235456
235557
235690
235851
236039
236243
235775
235671
235585
235514
235472
235453
235465
235510
235585
235696
235839
236008
236204
236408
235896
235793
235706
235636
235596
235581
235598
235650
235732
235850
236000
236174
236374
236576
236022
235924
235840
235773
235736
235726
235749
235807
235895
236019
236173
236348
236552
236747
236151
236062
235980
235918
235884
235879
235906
235969
236060
236186
236340
236514
236718
236905
236282
236201
236125
236067
236038
236037
236066
236130
236221
236344
236495
236664
236861
237042
236413
236342
236271
236215
236189
236191
236219
236281
236366
236487
236630
236796
236984
237162
236549
236475
236415
236363
236338
236341
236366
236425
236503
236616
236748
236904
237076
237257
236688
236616
236555
236505
236481
236482
236502
236552
236618
236718
236834
236979
237147
237328
236972
236948
236915
236885
236856
236830
236813
236801
236804
236813
236839
236875
236925
236990
236989
236957
236916
236878
236846
236820
236803
236794
236800
236818
236855
236904
236969
237039
236995
236948
236905
236865
236836
236813
236802
236799
236812
236842
236887
236946
237018
237105
237014
236958
236911
236870
236840
236818
236809
236813
236835
236872
236926
236996
237078
237176
237035
236969
236920
236878
236850
236833
236831
236847
236878
236924
236989
237070
237163
237273
237073
237000
236947
236903
236879
236866
236871
236893
236931
236987
237062
237152
237258
237376
237118
237044
236989
236947
236924
236917
236929
236959
237007
237073
237159
237259
237377
237502
237178
237104
237048
237007
236986
236984
237001
237039
237095
237171
237267
237376
237506
237638
237248
237177
237121
237081
237064
237068
237091
237136
237200
237284
237390
237508
237650
237784
237327
237262
237206
237168
237155
237163
237191
237242
237314
237405
237521
237647
237799
237934
237418
237358
237304
237269
237258
237270
237302
237358
237435
237531
237655
237785
237941
238075
237515
237463
237409
237375
237366
237381
237415
237475
237555
237657
237785
237921
238081
238218
237625
237573
237524
237491
237481
237497
237532
237594
237676
237783
237911
238048
238203
238343
237734
237688
237637
237605
237596
237612
237646
237708
237789
237894
238019
238152
238308
238447
238138
238116
238101
238084
238067
238048
238029
238007
237989
237969
237954
237938
237927
237914
238175
238146
238121
238097
238076
238055
238036
238016
237999
237984
237974
237968
237968
237970
238199
238157
238131
238102
238080
238060
238044
238030
238020
238015
238013
238018
238024
238037
238223
238173
238142
238110
238088
238069
238056
238047
238043
238045
238051
238065
238081
238108
238243
238187
238153
238120
238099
238083
238076
238075
238080
238091
238108
238132
238158
238195
238266
238208
238171
238138
238119
238107
238103
238109
238122
238143
238169
238204
238241
238288
238295
238237
238198
238166
238150
238142
238145
238158
238180
238209
238247
238290
238340
238393
238330
238275
238235
238206
238193
238189
238197
238218
238247
238285
238333
238386
238448
238508
238378
238327
238288
238262
238251
238252
238265
238291
238328
238374
238432
238492
238565
238629
238435
238390
238352
238329
238320
238325
238344
238376
238420
238474
238542
238608
238691
238761
238506
238469
238432
238411
238405
238413
238435
238472
238523
238585
238660
238729
238818
238891
238587
238557
238521
238502
238498
238510
238536
238578
238636
238705
238786
238862
238958
239034
238681
238656
238624
238606
238604
238618
238646
238693
238755
238829
238915
238996
239093
239168
238783
238762
238731
238715
238713
238730
238761
238811
238877
238955
239044
239131
239232
239308
238935
238899
238873
238850
238830
238809
238787
238763
238739
238712
238686
238655
238623
238587
239005
238957
238928
238896
238873
238849
238825
238799
238774
238747
238720
238692
238663
238638
239060
239003
238971
238934
238909
238883
238860
238837
238814
238790
238766
238743
238717
238694
239113
239050
239014
238973
238946
238919
238897
238875
238854
238834
238814
238795
238774
238760
239162
239097
239057
239016
238987
238962
238941
238923
238906
238891
238875
238862
238846
238837
239209
239145
239103
239063
239034
239010
238991
238977
238964
238955
238945
238938
238928
238923
239261
239201
239157
239120
239092
239070
239054
239043
239036
239031
239028
239026
239024
239022
239316
239262
239217
239183
239157
239139
239127
239121
239119
239120
239124
239128
239133
239134
239378
239331
239288
239257
239234
239219
239211
239210
239214
239221
239231
239241
239253
239255
239448
239408
239366
239340
239320
239309
239306
239310
239320
239334
239351
239366
239384
239385
239526
239495
239456
239434
239418
239411
239412
239420
239435
239454
239476
239495
239518
239513
239615
239592
239555
239537
239525
239522
239527
239541
239561
239583
239610
239634
239660
239651
239712
239697
239667
239652
239643
239643
239651
239668
239690
239716
239744
239770
239797
239782
239827
239810
239785
239772
239766
239769
239781
239802
239828
239856
239887
239915
239942
239934
239505
239435
239392
239345
239309
239277
239249
239223
239195
239167
239139
239106
239074
239035
239593
239519
239469
239418
239377
239343
239312
239281
239251
239220
239188
239154
239118
239082
239672
239595
239542
239490
239444
239407
239373
239341
239309
239276
239242
239208
239169
239131
239751
239674
239616
239562
239513
239474
239438
239404
239370
239336
239301
239265
239226
239187
239827
239752
239691
239636
239586
239545
239507
239472
239437
239402
239366
239330
239290
239250
239904
239830
239769
239714
239666
239622
239583
239547
239512
239477
239440
239403
239363
239322
239981
239911
239850
239796
239749
239706
239666
239631
239596
239561
239525
239487
239446
239404
240061
239995
239935
239883
239838
239797
239759
239725
239691
239657
239621
239583
239541
239496
240144
240084
240025
239977
239934
239896
239861
239829
239797
239764
239729
239690
239647
239599
240232
240178
240121
240077
240038
240004
239972
239943
239914
239883
239849
239810
239767
239714
240326
240280
240226
240186
240151
240121
240093
240067
240040
240010
239978
239938
239896
239839
240429
240387
240337
240301
240271
240244
240220
240198
240174
240147
240117
240077
240036
239974
240535
240501
240456
240424
240398
240374
240353
240332
240309
240283
240253
240214
240174
240104
240653
240615
240576
240546
240523
240502
240485
240467
240448
240426
240397
240359
240317
240252
239720
239674
239633
239595
239559
239525
239492
239457
239420
239379
240093
239996
239928
239861
239806
239755
239709
239666
239626
239587
239549
239508
239465
239424
240179
240085
240015
239947
239889
239836
239787
239741
239696
239653
239610
239564
239514
239466
240264
240176
240104
240036
239975
239918
239865
239815
239766
239719
239671
239620
239566
239513
240347
240263
240192
240123
240061
240002
239946
239893
239840
239789
239736
239679
239621
239562
240429
240350
240279
240211
240147
240087
240029
239973
239917
239863
239805
239745
239681