/*--------------------------------*- C++ -*----------------------------------*\
| =========                 |                                                 |
| \\      /  F ield         | OpenFOAM: The Open Source CFD Toolbox           |
|  \\    /   O peration     | Version:  v2106                                 |
|   \\  /    A nd           | Website:  www.openfoam.com                      |
|    \\/     M anipulation  |                                                 |
\*---------------------------------------------------------------------------*/
FoamFile
{
    version     2.0;
    format      ascii;
    arch        "LSB;label=32;scalar=64";
    class       volScalarField;
    location    "0.000171";
    object      nut;
}
// * * * * * * * * * * * * * * * * * * * * * * * * * * * * * * * * * * * * * //

dimensions      [0 2 -1 0 0 0 0];

internalField   nonuniform List<scalar> 
18273
(
5.13818e-05
4.65612e-05
4.15257e-05
3.62566e-05
3.0068e-05
2.35786e-05
1.91777e-05
1.7298e-05
1.71229e-05
1.8781e-05
2.33921e-05
3.23207e-05
4.6233e-05
6.37482e-05
3.36448e-05
2.80112e-05
2.27705e-05
1.81678e-05
1.47079e-05
1.15685e-05
9.97646e-06
9.99756e-06
1.10945e-05
1.36317e-05
1.88996e-05
2.85181e-05
4.32813e-05
6.09246e-05
2.20944e-05
1.63818e-05
1.16015e-05
7.87972e-06
5.77167e-06
4.50384e-06
4.13618e-06
4.87694e-06
6.51084e-06
9.53385e-06
1.52112e-05
2.53062e-05
4.05334e-05
5.79734e-05
1.56527e-05
1.00561e-05
5.811e-06
3.00133e-06
1.77502e-06
1.35737e-06
1.45314e-06
2.12207e-06
3.62353e-06
6.54382e-06
1.21701e-05
2.21065e-05
3.66938e-05
5.27852e-05
1.25915e-05
6.8149e-06
3.01936e-06
1.12848e-06
5.08394e-07
3.78266e-07
5.31068e-07
1.04868e-06
2.30641e-06
5.10069e-06
1.06376e-05
1.99614e-05
3.2608e-05
4.5553e-05
1.12853e-05
5.18532e-06
1.92842e-06
7.1852e-07
3.14474e-07
2.15647e-07
3.487e-07
8.22979e-07
2.01999e-06
4.68157e-06
9.75269e-06
1.77188e-05
2.78621e-05
3.79556e-05
1.15365e-05
4.82816e-06
1.94738e-06
9.36917e-07
4.92267e-07
3.68511e-07
5.37077e-07
1.11524e-06
2.45179e-06
5.12288e-06
9.70168e-06
1.63013e-05
2.42812e-05
3.21895e-05
1.35557e-05
5.64839e-06
2.78798e-06
1.62051e-06
1.01475e-06
8.33557e-07
1.07788e-06
1.84256e-06
3.38595e-06
6.08372e-06
1.02121e-05
1.57984e-05
2.26025e-05
2.94703e-05
1.78566e-05
7.61414e-06
4.43104e-06
2.96628e-06
2.10737e-06
1.7841e-06
2.06167e-06
2.99092e-06
4.68688e-06
7.37389e-06
1.1222e-05
1.67907e-05
2.34342e-05
2.96138e-05
2.79793e-05
1.16071e-05
7.13606e-06
5.37912e-06
4.21842e-06
3.59414e-06
3.7064e-06
4.64531e-06
6.45018e-06
9.43441e-06
1.3873e-05
2.05938e-05
2.71568e-05
3.38235e-05
4.14126e-05
2.03564e-05
1.14002e-05
9.21569e-06
8.08035e-06
7.20057e-06
7.00582e-06
7.89162e-06
1.01391e-05
1.49783e-05
2.10235e-05
2.87141e-05
3.59767e-05
4.31788e-05
5.38123e-05
3.22572e-05
1.93579e-05
1.48501e-05
1.40115e-05
1.36784e-05
1.38177e-05
1.55384e-05
1.9938e-05
2.7137e-05
3.47366e-05
4.32926e-05
5.06737e-05
5.73925e-05
6.53947e-05
4.49637e-05
2.94554e-05
2.17224e-05
2.00745e-05
2.10673e-05
2.34628e-05
2.77579e-05
3.47429e-05
4.37599e-05
5.2727e-05
6.06366e-05
6.67585e-05
7.23266e-05
7.65776e-05
5.70923e-05
4.03178e-05
3.01385e-05
2.65739e-05
2.7455e-05
3.12908e-05
3.79945e-05
4.65175e-05
5.53147e-05
6.3723e-05
7.01209e-05
7.55028e-05
8.0614e-05
5.84244e-05
5.25193e-05
4.62822e-05
3.94778e-05
3.14831e-05
2.37164e-05
1.83967e-05
1.56781e-05
1.51602e-05
1.74278e-05
2.36792e-05
3.47914e-05
5.1235e-05
7.15235e-05
3.67497e-05
3.06717e-05
2.51299e-05
2.02807e-05
1.63161e-05
1.25725e-05
1.01919e-05
9.31572e-06
9.84279e-06
1.25867e-05
1.90735e-05
3.05376e-05
4.74306e-05
6.70578e-05
2.19839e-05
1.62413e-05
1.19096e-05
8.63791e-06
6.68653e-06
5.21906e-06
4.42722e-06
4.58151e-06
5.82681e-06
9.0113e-06
1.56116e-05
2.69818e-05
4.34579e-05
6.19561e-05
1.32828e-05
8.29163e-06
5.03303e-06
2.97906e-06
2.06142e-06
1.63526e-06
1.57283e-06
2.00242e-06
3.31306e-06
6.36492e-06
1.25505e-05
2.30858e-05
3.7886e-05
5.40309e-05
9.2744e-06
4.79726e-06
2.1892e-06
9.33594e-07
5.13736e-07
4.18726e-07
5.36074e-07
9.8938e-07
2.2145e-06
5.11807e-06
1.08737e-05
2.01164e-05
3.21057e-05
4.44248e-05
8.00525e-06
3.56872e-06
1.31387e-06
4.77521e-07
2.06645e-07
1.61213e-07
2.94148e-07
7.43717e-07
1.9247e-06
4.59396e-06
9.57133e-06
1.70226e-05
2.60807e-05
3.51206e-05
8.40111e-06
3.48447e-06
1.33072e-06
5.73829e-07
2.78913e-07
2.24781e-07
3.89609e-07
9.114e-07
2.15241e-06
4.66295e-06
8.88796e-06
1.47322e-05
2.15375e-05
2.83902e-05
1.03197e-05
4.26493e-06
1.90938e-06
9.98397e-07
5.95934e-07
5.16492e-07
7.46345e-07
1.39632e-06
2.73388e-06
5.10423e-06
8.71143e-06
1.34499e-05
1.91313e-05
2.53037e-05
1.41538e-05
5.91332e-06
3.03924e-06
1.87428e-06
1.30507e-06
1.1607e-06
1.44913e-06
2.22826e-06
3.63504e-06
5.88452e-06
9.1176e-06
1.36751e-05
1.95116e-05
2.57312e-05
2.23506e-05
9.05307e-06
4.94552e-06
3.48313e-06
2.71107e-06
2.42541e-06
2.68551e-06
3.5407e-06
5.05078e-06
7.46416e-06
1.09609e-05
1.68797e-05
2.32425e-05
3.03661e-05
3.51469e-05
1.60887e-05
7.92643e-06
6.12839e-06
5.29623e-06
4.90327e-06
5.10781e-06
6.10541e-06
8.13737e-06
1.16602e-05
1.6846e-05
2.41564e-05
3.16972e-05
3.96072e-05
4.79594e-05
2.75665e-05
1.51839e-05
1.05663e-05
9.53505e-06
9.30914e-06
9.81371e-06
1.14658e-05
1.50992e-05
2.11732e-05
2.79982e-05
3.68232e-05
4.51472e-05
5.30276e-05
6.09227e-05
4.06138e-05
2.50969e-05
1.68664e-05
1.46803e-05
1.50004e-05
1.67139e-05
2.011e-05
2.58377e-05
3.4373e-05
4.36135e-05
5.29112e-05
6.08829e-05
6.82125e-05
7.37249e-05
5.33291e-05
3.63897e-05
2.57529e-05
2.13234e-05
2.1042e-05
2.35904e-05
2.89441e-05
3.6855e-05
4.68216e-05
5.71423e-05
6.56246e-05
7.24968e-05
7.94345e-05
5.471e-05
4.86909e-05
4.22573e-05
3.54191e-05
2.77477e-05
2.07633e-05
1.57428e-05
1.31149e-05
1.25803e-05
1.51619e-05
2.20205e-05
3.32992e-05
4.86099e-05
6.70656e-05
3.47294e-05
2.89982e-05
2.38403e-05
1.93782e-05
1.54648e-05
1.18757e-05
9.17182e-06
7.78504e-06
7.89063e-06
1.05589e-05
1.73591e-05
2.88795e-05
4.43765e-05
6.1788e-05
2.00194e-05
1.47064e-05
1.10929e-05
8.47766e-06
6.77538e-06
5.31278e-06
4.24738e-06
3.77874e-06
4.57167e-06
7.56997e-06
1.42756e-05
2.53612e-05
4.0008e-05
5.57824e-05
1.08411e-05
6.55567e-06
4.19811e-06
2.84526e-06
2.2068e-06
1.77975e-06
1.55221e-06
1.68434e-06
2.64661e-06
5.44072e-06
1.14155e-05
2.1289e-05
3.40374e-05
4.7484e-05
6.64521e-06
3.20495e-06
1.5201e-06
7.80344e-07
5.29606e-07
4.50932e-07
5.05153e-07
8.34039e-07
1.86929e-06
4.48501e-06
9.7575e-06
1.8018e-05
2.81421e-05
3.83254e-05
5.52544e-06
2.28763e-06
8.16822e-07
2.95809e-07
1.38682e-07
1.23555e-07
2.29782e-07
5.97641e-07
1.61475e-06
3.9696e-06
8.37081e-06
1.48612e-05
2.24054e-05
2.9772e-05
5.8938e-06
2.31538e-06
8.09067e-07
2.98605e-07
1.29495e-07
1.15982e-07
2.4655e-07
6.55699e-07
1.67211e-06
3.79032e-06
7.42417e-06
1.2452e-05
1.8047e-05
2.35284e-05
7.39741e-06
2.92747e-06
1.14729e-06
5.12942e-07
2.79937e-07
2.58967e-07
4.32695e-07
9.11322e-07
1.94108e-06
3.85232e-06
6.86677e-06
1.08314e-05
1.53548e-05
2.02617e-05
1.03152e-05
4.13438e-06
1.81849e-06
1.00152e-06
6.68067e-07
6.25074e-07
8.4998e-07
1.40757e-06
2.44768e-06
4.18754e-06
6.81264e-06
1.03522e-05
1.4737e-05
2.07172e-05
1.61388e-05
6.35769e-06
2.99934e-06
1.95344e-06
1.49973e-06
1.41162e-06
1.67781e-06
2.32959e-06
3.44558e-06
5.21808e-06
7.94413e-06
1.20548e-05
1.76856e-05
2.49442e-05
2.59399e-05
1.09498e-05
4.9744e-06
3.67393e-06
3.13462e-06
3.02469e-06
3.36467e-06
4.22648e-06
5.73847e-06
8.21008e-06
1.18552e-05
1.77399e-05
2.49588e-05
3.28848e-05
3.63249e-05
2.07168e-05
1.0463e-05
6.70493e-06
6.04021e-06
6.03805e-06
6.70766e-06
8.18626e-06
1.0833e-05
1.47967e-05
1.99246e-05
2.77798e-05
3.57182e-05
4.33401e-05
4.80715e-05
3.20543e-05
1.88015e-05
1.17168e-05
1.01974e-05
1.04879e-05
1.18154e-05
1.43095e-05
1.84609e-05
2.45008e-05
3.17443e-05
3.9939e-05
4.78605e-05
5.51821e-05
5.85673e-05
4.26615e-05
2.92009e-05
2.00338e-05
1.63098e-05
1.58524e-05
1.75307e-05
2.12676e-05
2.72027e-05
3.53545e-05
4.41467e-05
5.1856e-05
5.91497e-05
6.67856e-05
8.0365e-05
8.98988e-05
9.9546e-05
0.000111595
0.000127566
6.13822e-05
7.63135e-05
8.62156e-05
9.46479e-05
0.000105891
0.000118668
6.91488e-05
7.133e-05
8.01145e-05
8.79456e-05
0.000100146
0.000115615
7.8444e-05
6.37967e-05
7.1439e-05
7.91623e-05
9.34463e-05
0.000115823
8.8853e-05
5.41967e-05
6.11451e-05
6.94341e-05
8.57626e-05
0.000117123
9.93414e-05
4.49593e-05
5.12152e-05
5.96313e-05
7.68387e-05
0.000115297
0.000108811
3.79289e-05
4.3294e-05
5.11144e-05
6.77406e-05
0.000109781
0.000115981
3.45242e-05
3.90729e-05
4.62348e-05
6.15413e-05
0.000103574
0.000119799
3.51372e-05
3.96465e-05
4.65021e-05
6.07531e-05
0.000101424
0.000119964
4.03613e-05
4.53401e-05
5.21665e-05
6.53865e-05
0.000103564
0.00011653
5.04465e-05
5.5825e-05
6.25236e-05
7.43635e-05
0.000108151
0.000109483
6.3626e-05
6.85014e-05
7.44948e-05
8.46196e-05
0.00011212
9.84934e-05
7.56158e-05
7.8709e-05
8.33857e-05
9.17313e-05
0.000111123
8.3987e-05
8.11612e-05
8.28996e-05
8.68927e-05
9.41406e-05
0.000104596
6.87169e-05
8.96908e-05
9.87579e-05
0.000105422
0.000110212
0.000115834
6.92478e-05
8.32451e-05
9.35902e-05
0.000100716
0.000106378
0.000110555
8.02431e-05
7.58347e-05
8.52521e-05
9.21979e-05
9.97964e-05
0.000108965
9.14473e-05
6.54155e-05
7.34786e-05
8.01259e-05
9.05905e-05
0.000108111
0.000102149
5.31697e-05
6.00439e-05
6.69167e-05
7.96171e-05
0.000105316
0.000111029
4.20063e-05
4.7832e-05
5.46289e-05
6.80167e-05
9.89891e-05
0.000116973
3.40021e-05
3.88736e-05
4.5481e-05
5.86231e-05
9.09337e-05
0.000119584
3.02695e-05
3.4585e-05
4.11078e-05
5.37189e-05
8.50498e-05
0.000119051
3.1237e-05
3.56083e-05
4.21681e-05
5.44337e-05
8.46906e-05
0.000116187
3.68597e-05
4.16817e-05
4.83926e-05
6.01517e-05
8.89639e-05
0.000111526
4.68612e-05
5.22866e-05
5.90978e-05
6.96855e-05
9.54244e-05
0.000104993
5.96951e-05
6.51473e-05
7.14877e-05
8.00736e-05
0.000101139
9.64949e-05
7.24216e-05
7.63027e-05
8.09128e-05
8.68907e-05
0.000101631
8.59994e-05
8.01584e-05
8.18056e-05
8.42542e-05
8.8099e-05
9.60507e-05
7.47089e-05
8.51661e-05
9.60115e-05
0.000103368
0.000104812
9.90949e-05
7.80602e-05
7.74825e-05
8.96121e-05
9.83152e-05
0.00010172
0.000100129
9.00203e-05
6.9022e-05
7.99285e-05
8.78178e-05
9.29965e-05
9.87563e-05
0.000100158
5.82077e-05
6.72398e-05
7.38426e-05
8.03604e-05
9.28328e-05
0.000107563
4.64859e-05
5.37008e-05
5.94902e-05
6.71267e-05
8.46057e-05
0.000111652
3.60043e-05
4.18503e-05
4.74657e-05
5.58864e-05
7.57903e-05
0.000112382
2.84044e-05
3.33064e-05
3.92469e-05
4.86228e-05
6.98855e-05
0.000110635
2.47887e-05
2.91553e-05
3.54872e-05
4.57087e-05
6.79699e-05
0.000108013
2.54458e-05
2.96286e-05
3.61715e-05
4.67378e-05
7.04787e-05
0.000104992
3.02063e-05
3.43731e-05
4.08715e-05
5.15044e-05
7.56779e-05
0.000101352
3.8185e-05
4.27407e-05
4.93238e-05
5.95635e-05
8.2072e-05
9.70551e-05
4.79441e-05
5.31498e-05
6.00531e-05
6.91523e-05
8.7579e-05
9.20048e-05
5.86825e-05
6.38498e-05
7.0112e-05
7.6531e-05
8.80167e-05
8.54121e-05
6.82335e-05
7.24892e-05
7.65341e-05
7.89681e-05
8.24998e-05
7.67268e-05
8.01055e-05
8.22309e-05
8.65826e-05
9.35728e-05
9.68247e-05
6.65477e-05
7.41883e-05
7.49107e-05
7.95248e-05
8.93449e-05
9.88861e-05
7.87782e-05
6.80739e-05
6.76832e-05
7.20086e-05
8.38421e-05
0.000100863
9.14974e-05
6.18651e-05
6.07152e-05
6.4271e-05
7.65568e-05
0.000100287
0.000103844
5.50289e-05
5.41535e-05
5.67121e-05
6.83804e-05
9.66487e-05
0.000114563
4.79291e-05
4.77929e-05
4.99072e-05
6.08542e-05
9.09248e-05
0.000122461
4.10081e-05
4.21776e-05
4.50443e-05
5.58897e-05
8.5677e-05
0.000126962
3.52931e-05
3.80758e-05
4.28074e-05
5.43393e-05
8.40937e-05
0.000128283
3.25037e-05
3.70248e-05
4.38454e-05
5.66527e-05
8.74221e-05
0.000127073
3.3513e-05
4.01229e-05
4.89018e-05
6.2993e-05
9.45998e-05
0.000122653
3.95141e-05
4.82597e-05
5.85052e-05
7.29786e-05
0.000103386
0.000114971
5.09142e-05
6.10014e-05
7.15724e-05
8.45386e-05
0.000109844
0.000103287
6.62052e-05
7.54291e-05
8.3916e-05
9.28897e-05
0.000109211
8.78831e-05
8.05388e-05
8.67609e-05
9.08426e-05
9.48469e-05
0.000101432
7.16045e-05
8.09913e-05
8.11623e-05
8.20783e-05
8.52814e-05
8.88092e-05
7.57474e-05
7.34319e-05
7.35002e-05
7.45725e-05
8.02842e-05
9.01143e-05
8.85534e-05
6.70405e-05
6.61055e-05
6.65281e-05
7.35486e-05
9.0011e-05
0.000100419
5.97843e-05
5.85463e-05
5.86751e-05
6.57428e-05
8.63732e-05
0.000110341
5.10978e-05
5.1025e-05
5.16606e-05
5.85838e-05
8.0468e-05
0.000117338
4.22859e-05
4.36845e-05
4.57872e-05
5.33291e-05
7.46257e-05
0.00012092
3.42617e-05
3.7345e-05
4.14972e-05
5.03868e-05
7.1482e-05
0.000121821
2.87449e-05
3.31925e-05
3.94016e-05
5.00645e-05
7.22891e-05
0.000121012
2.69083e-05
3.26536e-05
4.05643e-05
5.2912e-05
7.73267e-05
0.000118967
2.9133e-05
3.63705e-05
4.57202e-05
5.94663e-05
8.55904e-05
0.000114874
3.58719e-05
4.49417e-05
5.5634e-05
6.9837e-05
9.55963e-05
0.000108702
4.73212e-05
5.79412e-05
6.95086e-05
8.21223e-05
0.000103018
9.97889e-05
6.28441e-05
7.34208e-05
8.3377e-05
9.12241e-05
0.000102786
8.81405e-05
7.85568e-05
8.71351e-05
9.20409e-05
9.30575e-05
9.45995e-05
7.54059e-05
7.38981e-05
7.71742e-05
7.73913e-05
7.58986e-05
7.58852e-05
7.84787e-05
6.55643e-05
6.96447e-05
7.05655e-05
7.12023e-05
7.6252e-05
8.98369e-05
5.90929e-05
6.31062e-05
6.37271e-05
6.53739e-05
7.4494e-05
9.92294e-05
5.18191e-05
5.5932e-05
5.69438e-05
5.93354e-05
7.06155e-05
0.000105737
4.29634e-05
4.81845e-05
5.06988e-05
5.43248e-05
6.60988e-05
0.000109177
3.46253e-05
4.04086e-05
4.49775e-05
5.0697e-05
6.32539e-05
0.000109937
2.76554e-05
3.36979e-05
4.02525e-05
4.85021e-05
6.24927e-05
0.000109681
2.29409e-05
2.90949e-05
3.70286e-05
4.74175e-05
6.39167e-05
0.000109067
2.13927e-05
2.77658e-05
3.65364e-05
4.83199e-05
6.79719e-05
0.000107638
2.34737e-05
3.02747e-05
3.93592e-05
5.20514e-05
7.49365e-05
0.000104773
2.90808e-05
3.68169e-05
4.64358e-05
5.9511e-05
8.30027e-05
0.000100095
3.76641e-05
4.64218e-05
5.74262e-05
7.0096e-05
9.01673e-05
9.37596e-05
4.90901e-05
5.87924e-05
7.04935e-05
8.02372e-05
9.15351e-05
8.56866e-05
6.23483e-05
7.2756e-05
8.23874e-05
8.55362e-05
8.51334e-05
7.58195e-05
7.51813e-05
0.000138477
0.000103032
8.37018e-05
6.81395e-05
5.59934e-05
9.17578e-05
0.000124769
8.16568e-05
6.17482e-05
4.87945e-05
4.00758e-05
0.000102916
0.000101849
6.25834e-05
4.54216e-05
3.54483e-05
2.864e-05
0.000110314
8.25825e-05
4.98762e-05
3.57965e-05
2.78508e-05
2.20138e-05
0.000115537
7.09963e-05
4.36319e-05
3.19826e-05
2.50959e-05
1.92552e-05
0.000118785
6.65025e-05
4.26453e-05
3.28426e-05
2.63378e-05
1.93898e-05
0.000120235
6.72851e-05
4.57317e-05
3.74959e-05
3.10189e-05
2.21047e-05
0.000119395
7.1591e-05
5.15156e-05
4.49646e-05
3.91224e-05
2.76473e-05
0.000115832
7.78762e-05
5.85931e-05
5.35201e-05
4.97625e-05
3.65298e-05
0.000109358
8.42259e-05
6.61399e-05
6.18737e-05
6.05574e-05
4.87944e-05
0.000100394
8.88025e-05
7.32744e-05
6.9383e-05
6.97057e-05
6.08811e-05
9.00019e-05
9.12293e-05
7.98324e-05
7.65207e-05
7.73695e-05
7.05166e-05
7.92135e-05
9.19706e-05
8.57302e-05
8.33113e-05
8.39401e-05
7.86635e-05
6.85242e-05
9.21828e-05
9.11876e-05
9.04978e-05
9.15276e-05
8.82185e-05
7.56369e-05
0.000127408
0.000108502
9.36539e-05
7.71617e-05
6.33868e-05
8.87845e-05
0.000117268
8.70989e-05
6.83267e-05
5.38994e-05
4.39347e-05
9.80785e-05
9.72868e-05
6.55742e-05
4.81581e-05
3.70332e-05
2.93511e-05
0.000104276
7.83425e-05
5.00121e-05
3.52811e-05
2.65937e-05
2.01564e-05
0.000108825
6.61256e-05
4.1588e-05
2.90965e-05
2.15457e-05
1.5559e-05
0.000111842
5.96763e-05
3.9091e-05
2.83217e-05
2.10145e-05
1.45792e-05
0.000113843
5.85468e-05
4.12548e-05
3.20756e-05
2.44285e-05
1.64748e-05
0.000114577
6.10992e-05
4.66237e-05
3.97375e-05
3.18065e-05
2.10904e-05
0.000113776
6.60017e-05
5.35307e-05
4.98266e-05
4.29169e-05
2.88913e-05
0.000110932
7.22848e-05
6.07173e-05
6.02819e-05
5.61939e-05
4.10624e-05
0.000104979
7.83768e-05
6.80965e-05
6.94686e-05
6.82025e-05
5.49776e-05
9.63419e-05
8.26287e-05
7.53954e-05
7.75717e-05
7.79695e-05
6.6647e-05
8.59919e-05
8.44112e-05
8.19231e-05
8.47655e-05
8.56393e-05
7.67504e-05
7.49292e-05
8.47196e-05
8.76254e-05
9.23652e-05
9.47554e-05
8.89603e-05
7.81924e-05
0.000113011
0.000102368
8.76851e-05
7.12328e-05
5.84214e-05
8.68604e-05
0.00010622
8.23333e-05
6.38666e-05
4.96243e-05
4.03733e-05
9.3297e-05
9.03037e-05
6.15226e-05
4.46761e-05
3.37279e-05
2.64716e-05
9.82927e-05
7.42072e-05
4.64075e-05
3.20112e-05
2.34676e-05
1.71835e-05
0.000101705
6.24282e-05
3.8477e-05
2.5724e-05
1.80749e-05
1.22818e-05
0.000103539
5.57718e-05
3.64044e-05
2.47819e-05
1.70163e-05
1.09704e-05
0.000104175
5.38023e-05
3.86982e-05
2.8065e-05
1.94804e-05
1.21908e-05
0.000104553
5.52579e-05
4.42238e-05
3.5187e-05
2.51539e-05
1.54607e-05
0.000104762
5.87125e-05
5.1408e-05
4.54145e-05
3.42412e-05
2.1146e-05
0.000104474
6.31325e-05
5.88779e-05
5.67109e-05
4.63541e-05
3.08473e-05
0.000101862
6.89102e-05
6.59748e-05
6.66287e-05
5.83983e-05
4.31542e-05
9.61673e-05
7.38616e-05
7.26252e-05
7.46259e-05
6.80628e-05
5.31924e-05
8.74905e-05
7.64303e-05
7.83137e-05
8.1211e-05
7.58241e-05
6.29585e-05
7.69485e-05
7.71168e-05
8.34516e-05
8.84828e-05
8.51662e-05
7.45866e-05
7.12735e-05
0.000132994
9.9993e-05
8.41287e-05
7.38693e-05
6.66512e-05
8.81838e-05
0.000123791
8.27787e-05
6.64322e-05
5.71588e-05
5.11145e-05
0.000100215
0.000107705
6.58918e-05
5.09239e-05
4.3019e-05
3.77878e-05
0.000108427
9.33104e-05
5.41301e-05
4.03721e-05
3.34582e-05
2.87567e-05
0.000113984
8.58204e-05
4.89669e-05
3.568e-05
2.89147e-05
2.41926e-05
0.000117209
8.57323e-05
5.01875e-05
3.67268e-05
2.91785e-05
2.34194e-05
0.000117765
9.13281e-05
5.73537e-05
4.33206e-05
3.39824e-05
2.57023e-05
0.000115155
9.95097e-05
6.86281e-05
5.45526e-05
4.31891e-05
3.08593e-05
0.000109375
0.000105731
8.00468e-05
6.74461e-05
5.53616e-05
3.9089e-05
0.000101351
0.000108581
8.96387e-05
7.97245e-05
6.80915e-05
4.92014e-05
9.20636e-05
0.00010987
9.7692e-05
9.06237e-05
7.94021e-05
5.87686e-05
8.2455e-05
0.000113235
0.00010512
9.88468e-05
8.67981e-05
6.5267e-05
7.34661e-05
0.000119733
0.000111899
0.000104
9.09008e-05
7.02295e-05
6.54549e-05
0.000132584
0.000118243
0.000106772
9.25991e-05
7.44855e-05
7.21794e-05
0.000120644
0.000101699
9.15512e-05
8.22745e-05
7.45521e-05
8.48382e-05
0.000112151
8.59487e-05
7.29289e-05
6.34561e-05
5.66196e-05
9.45402e-05
9.72076e-05
6.80378e-05
5.47655e-05
4.64697e-05
4.07422e-05
0.000101731
8.26069e-05
5.35586e-05
4.1063e-05
3.41632e-05
2.93852e-05
0.000107442
7.32525e-05
4.53599e-05
3.34924e-05
2.71992e-05
2.27996e-05
0.000112173
7.04305e-05
4.37498e-05
3.21586e-05
2.5541e-05
2.06453e-05
0.00011555
7.39078e-05
4.85803e-05
3.71051e-05
2.92076e-05
2.24292e-05
0.000116825
8.19373e-05
5.89511e-05
4.82657e-05
3.84835e-05
2.79815e-05
0.000115264
9.14968e-05
7.23069e-05
6.34551e-05
5.23516e-05
3.72528e-05
0.000110346
9.91775e-05
8.59046e-05
7.97828e-05
6.83657e-05
4.95912e-05
0.000102455
0.000103838
9.79602e-05
9.50182e-05
8.34641e-05
6.22093e-05
9.28714e-05
0.000106993
0.000108075
0.0001071
9.45555e-05
7.1736e-05
8.25953e-05
0.000109905
0.000115917
0.000114704
0.000101277
7.87518e-05
7.20122e-05
0.000118876
0.000120738
0.000117755
0.000104808
8.5121e-05
7.619e-05
0.000104706
9.84767e-05
8.87745e-05
7.82706e-05
6.9563e-05
8.38161e-05
0.000101495
8.39556e-05
6.98451e-05
5.95312e-05
5.25566e-05
8.94029e-05
9.03334e-05
6.57432e-05
5.18484e-05
4.33834e-05
3.78465e-05
9.3938e-05
7.64051e-05
5.03631e-05
3.8106e-05
3.14422e-05
2.69805e-05
9.7914e-05
6.60076e-05
4.12457e-05
3.00406e-05
2.4079e-05
2.00845e-05
0.000101262
5.95439e-05
3.81885e-05
2.76215e-05
2.1516e-05
1.73149e-05
0.000104196
5.83632e-05
4.04627e-05
3.0568e-05
2.3682e-05
1.83246e-05
0.000107241
6.25803e-05
4.77058e-05
3.9208e-05
3.08852e-05
2.28136e-05
0.000109888
7.12528e-05
5.90291e-05
5.24714e-05
4.25796e-05
3.08075e-05
0.000110361
8.22309e-05
7.31868e-05
6.84228e-05
5.71827e-05
4.17548e-05
0.00010712
9.26201e-05
8.83138e-05
8.46582e-05
7.18839e-05
5.35812e-05
0.000100234
0.000100663
0.000101581
9.81491e-05
8.37049e-05
6.33793e-05
9.0628e-05
0.000103949
0.000110543
0.000107316
9.18402e-05
7.12226e-05
7.92623e-05
0.00010633
0.000114213
0.000110879
9.70477e-05
7.86255e-05
3.2082e-05
2.77818e-05
2.36079e-05
2.00606e-05
1.65648e-05
1.34767e-05
1.0934e-05
9.03511e-06
8.3466e-06
9.54659e-06
1.37343e-05
2.09392e-05
3.07893e-05
4.37465e-05
2.01845e-05
1.6269e-05
1.3202e-05
1.09902e-05
9.17892e-06
7.54697e-06
6.1574e-06
5.04043e-06
4.62758e-06
5.85483e-06
9.82896e-06
1.70871e-05
2.71716e-05
3.95926e-05
1.13964e-05
7.85921e-06
5.87134e-06
4.71213e-06
3.98123e-06
3.32611e-06
2.74139e-06
2.32869e-06
2.44427e-06
3.86366e-06
7.6972e-06
1.45466e-05
2.40282e-05
3.52814e-05
5.961e-06
3.20788e-06
2.00474e-06
1.48289e-06
1.24933e-06
1.07586e-06
9.4119e-07
9.37913e-07
1.36063e-06
2.82871e-06
6.2611e-06
1.22739e-05
2.05682e-05
3.04009e-05
3.67279e-06
1.49117e-06
6.40936e-07
3.6093e-07
2.77292e-07
2.51069e-07
2.70518e-07
4.18214e-07
9.48604e-07
2.39537e-06
5.49895e-06
1.07052e-05
1.7663e-05
2.55458e-05
3.22931e-06
1.14038e-06
3.57366e-07
1.20308e-07
5.81673e-08
5.58894e-08
1.05686e-07
2.89346e-07
8.41597e-07
2.21492e-06
4.9632e-06
9.34937e-06
1.49916e-05
2.10789e-05
3.55202e-06
1.22841e-06
3.74156e-07
1.11397e-07
4.05662e-08
3.93831e-08
1.01276e-07
3.09198e-07
8.77683e-07
2.17336e-06
4.58647e-06
8.248e-06
1.28042e-05
1.75675e-05
4.4326e-06
1.58177e-06
5.20043e-07
1.83049e-07
8.62776e-08
8.44151e-08
1.64562e-07
4.05101e-07
9.90181e-07
2.20392e-06
4.31633e-06
7.39125e-06
1.11443e-05
1.51697e-05
5.93995e-06
2.18271e-06
8.10285e-07
3.86881e-07
2.41154e-07
2.35835e-07
3.44677e-07
6.269e-07
1.22363e-06
2.34854e-06
4.20895e-06
6.86933e-06
1.02051e-05
1.41451e-05
8.45735e-06
3.19831e-06
1.36832e-06
8.42072e-07
6.51408e-07
6.38352e-07
7.92985e-07
1.14642e-06
1.791e-06
2.89064e-06
4.64474e-06
7.22641e-06
1.06863e-05
1.53817e-05
1.26957e-05
5.17509e-06
2.4362e-06
1.7771e-06
1.55892e-06
1.57494e-06
1.82355e-06
2.32433e-06
3.16355e-06
4.49889e-06
6.59533e-06
9.78435e-06
1.39671e-05
1.98295e-05
1.83924e-05
9.79242e-06
4.73634e-06
3.52962e-06
3.33683e-06
3.49104e-06
3.98641e-06
4.84519e-06
6.1899e-06
8.18437e-06
1.10721e-05
1.52611e-05
2.03e-05
2.65453e-05
2.609e-05
1.63067e-05
9.1743e-06
6.56403e-06
6.38687e-06
6.76382e-06
7.70662e-06
9.16656e-06
1.12777e-05
1.41533e-05
1.78403e-05
2.271e-05
2.84723e-05
3.4255e-05
3.2581e-05
2.37094e-05
1.6508e-05
1.21164e-05
1.09689e-05
1.14495e-05
1.27403e-05
1.49256e-05
1.79038e-05
2.17745e-05
2.6338e-05
3.12507e-05
3.72574e-05
4.29742e-05
1.78949e-05
1.54493e-05
1.33728e-05
1.17409e-05
1.03162e-05
9.00336e-06
7.81784e-06
6.7335e-06
5.98332e-06
6.18585e-06
8.22172e-06
1.24012e-05
1.83384e-05
2.56862e-05
1.09188e-05
8.43868e-06
6.90307e-06
5.94558e-06
5.27871e-06
4.65096e-06
4.05108e-06
3.47826e-06
3.14097e-06
3.50305e-06
5.39997e-06
9.48134e-06
1.57094e-05
2.34728e-05
6.03951e-06
3.80846e-06
2.78942e-06
2.31385e-06
2.06917e-06
1.85738e-06
1.65076e-06
1.46797e-06
1.49401e-06
2.12625e-06
4.08956e-06
8.06465e-06
1.40704e-05
2.14721e-05
3.34071e-06
1.56953e-06
8.96882e-07
6.71156e-07
5.90545e-07
5.42862e-07
5.12347e-07
5.32918e-07
7.47988e-07
1.48888e-06
3.35646e-06
6.98448e-06
1.24861e-05
1.93332e-05
2.35664e-06
8.4563e-07
3.13715e-07
1.62769e-07
1.23822e-07
1.16852e-07
1.35173e-07
2.18155e-07
4.94695e-07
1.27091e-06
3.06686e-06
6.39411e-06
1.13159e-05
1.73453e-05
2.18203e-06
7.12014e-07
2.09487e-07
6.42568e-08
2.76981e-08
2.61185e-08
5.27384e-08
1.50063e-07
4.47861e-07
1.23123e-06
2.93699e-06
5.93907e-06
1.02377e-05
1.54115e-05
2.35161e-06
7.67208e-07
2.23995e-07
6.22071e-08
2.10205e-08
1.96985e-08
5.20259e-08
1.64828e-07
4.89358e-07
1.2824e-06
2.8902e-06
5.5735e-06
9.29743e-06
1.37243e-05
2.81647e-06
9.55889e-07
2.9942e-07
9.8136e-08
4.46052e-08
4.36058e-08
8.60159e-08
2.21094e-07
5.74846e-07
1.36817e-06
2.86715e-06
5.25739e-06
8.50169e-06
1.23372e-05
3.59625e-06
1.27454e-06
4.62755e-07
2.1288e-07
1.32623e-07
1.30097e-07
1.90074e-07
3.55653e-07
7.36278e-07
1.51331e-06
2.90093e-06
5.04659e-06
7.93687e-06
1.13985e-05
4.84905e-06
1.80337e-06
8.12487e-07
5.00376e-07
3.88794e-07
3.81157e-07
4.65445e-07
6.73259e-07
1.08886e-06
1.85676e-06
3.16194e-06
5.16227e-06
7.90542e-06
1.1381e-05
6.85941e-06
2.78991e-06
1.52894e-06
1.14728e-06
1.00755e-06
1.00353e-06
1.13351e-06
1.41789e-06
1.92881e-06
2.79106e-06
4.18965e-06
6.32399e-06
9.245e-06
1.3135e-05
1.04751e-05
4.95157e-06
2.90156e-06
2.44039e-06
2.31933e-06
2.38014e-06
2.63157e-06
3.0907e-06
3.8524e-06
5.04134e-06
6.84238e-06
9.47777e-06
1.28309e-05
1.71184e-05
1.55371e-05
8.75701e-06
5.36154e-06
4.70055e-06
4.68435e-06
4.94761e-06
5.47585e-06
6.28178e-06
7.49872e-06
9.22451e-06
1.15722e-05
1.47197e-05
1.8475e-05
2.2609e-05
2.06998e-05
1.4456e-05
1.03076e-05
8.51265e-06
8.34857e-06
8.89348e-06
9.86885e-06
1.11932e-05
1.29872e-05
1.52717e-05
1.80183e-05
2.12777e-05
2.52468e-05
2.90085e-05
8.52723e-06
6.96807e-06
6.1213e-06
5.57779e-06
5.29652e-06
5.01219e-06
4.71614e-06
4.33324e-06
3.96826e-06
3.81248e-06
4.39626e-06
6.26784e-06
9.48799e-06
1.39745e-05
4.90646e-06
3.40696e-06
2.74353e-06
2.43337e-06
2.31881e-06
2.2224e-06
2.12132e-06
1.96217e-06
1.83541e-06
1.92193e-06
2.62297e-06
4.41565e-06
7.60641e-06
1.2245e-05
2.75209e-06
1.4676e-06
9.89395e-07
8.31e-07
7.84784e-07
7.58406e-07
7.35626e-07
7.09512e-07
7.48341e-07
1.00988e-06
1.82145e-06
3.62166e-06
6.79544e-06
1.1449e-05
1.77046e-06
6.80597e-07
3.16412e-07
2.21926e-07
1.99211e-07
1.9312e-07
1.9658e-07
2.22876e-07
3.28419e-07
6.4708e-07
1.4541e-06
3.16119e-06
6.19286e-06
1.07086e-05
1.43656e-06
4.52869e-07
1.40223e-07
5.89944e-08
4.01477e-08
3.82655e-08
4.81861e-08
8.63658e-08
2.06565e-07
5.41339e-07
1.35513e-06
3.03642e-06
5.95808e-06
1.02348e-05
1.34488e-06
4.07405e-07
1.14048e-07
3.15718e-08
1.09671e-08
9.15613e-09
2.00652e-08
6.12543e-08
1.90058e-07
5.42499e-07
1.37219e-06
3.0246e-06
5.79931e-06
9.74862e-06
1.38403e-06
4.30586e-07
1.21972e-07
3.18574e-08
9.78691e-09
8.07713e-09
2.1067e-08
6.91353e-08
2.15187e-07
5.98008e-07
1.45394e-06
3.07641e-06
5.69159e-06
9.30461e-06
1.58442e-06
5.18974e-07
1.54447e-07
4.7586e-08
2.1023e-08
1.98462e-08
3.73271e-08
9.69005e-08
2.65737e-07
6.81217e-07
1.55737e-06
3.13833e-06
5.59178e-06
8.90138e-06
1.94007e-06
6.68794e-07
2.3349e-07
1.0342e-07
6.54223e-08
6.40687e-08
8.96959e-08
1.66473e-07
3.62481e-07
8.08544e-07
1.69597e-06
3.22947e-06
5.54024e-06
8.60933e-06
2.48704e-06
9.26921e-07
4.27974e-07
2.62798e-07
2.05118e-07
2.00281e-07
2.37686e-07
3.39948e-07
5.68168e-07
1.03981e-06
1.92406e-06
3.40045e-06
5.58807e-06
8.47349e-06
3.30786e-06
1.44572e-06
8.75197e-07
6.63099e-07
5.74733e-07
5.60699e-07
6.1546e-07
7.5912e-07
1.04182e-06
1.56332e-06
2.47477e-06
3.94194e-06
6.06698e-06
8.8779e-06
4.91632e-06
2.50519e-06
1.79771e-06
1.54783e-06
1.43355e-06
1.41774e-06
1.50485e-06
1.71606e-06
2.09985e-06
2.73909e-06
3.76089e-06
5.32509e-06
7.48279e-06
1.0356e-05
7.77893e-06
4.44212e-06
3.477e-06
3.22312e-06
3.15082e-06
3.19394e-06
3.37552e-06
3.71577e-06
4.28853e-06
5.17311e-06
6.45989e-06
8.28506e-06
1.05853e-05
1.34824e-05
1.17014e-05
8.12097e-06
6.36167e-06
5.97695e-06
6.05235e-06
6.32415e-06
6.75556e-06
7.35933e-06
8.23055e-06
9.40677e-06
1.09294e-05
1.29777e-05
1.55404e-05
1.83896e-05
3.71716e-06
2.74043e-06
2.34638e-06
2.17052e-06
2.18814e-06
2.24463e-06
2.32208e-06
2.33359e-06
2.28353e-06
2.22162e-06
2.35353e-06
3.03104e-06
4.5635e-06
7.04487e-06
2.12035e-06
1.23862e-06
9.1847e-07
8.12381e-07
8.08699e-07
8.30077e-07
8.65637e-07
8.85316e-07
8.97587e-07
9.47001e-07
1.20529e-06
1.92839e-06
3.39837e-06
5.81238e-06
1.29952e-06
5.42357e-07
2.98861e-07
2.38289e-07
2.29555e-07
2.33473e-07
2.43983e-07
2.60026e-07
3.00092e-07
4.14277e-07
7.32425e-07
1.46162e-06
2.88666e-06
5.31389e-06
9.8254e-07
3.04392e-07
1.02753e-07
5.78942e-08
4.92758e-08
4.89284e-08
5.34037e-08
6.80079e-08
1.12657e-07
2.35447e-07
5.43468e-07
1.23174e-06
2.6033e-06
5.02191e-06
8.50321e-07
2.38803e-07
6.28821e-08
1.95642e-08
9.63572e-09
8.34852e-09
1.17403e-08
2.50668e-08
6.72481e-08
1.87033e-07
4.93851e-07
1.1944e-06
2.60212e-06
5.07465e-06
7.80236e-07
2.21823e-07
5.91352e-08
1.47641e-08
3.91975e-09
2.31596e-09
5.43637e-09
1.85066e-08
6.17695e-08
1.88583e-07
5.16693e-07
1.26023e-06
2.72477e-06
5.23014e-06
7.76946e-07
2.32979e-07
6.29708e-08
1.52611e-08
4.17733e-09
2.71285e-09
6.3997e-09
2.16918e-08
7.2291e-08
2.19034e-07
5.89867e-07
1.40148e-06
2.93465e-06
5.44429e-06
8.72978e-07
2.74908e-07
7.65767e-08
2.19182e-08
9.29356e-09
8.154e-09
1.34999e-08
3.37497e-08
9.7193e-08
2.72624e-07
6.95675e-07
1.57754e-06
3.1636e-06
5.63341e-06
1.04834e-06
3.43815e-07
1.12561e-07
4.78582e-08
3.0665e-08
2.97878e-08
3.86529e-08
6.76946e-08
1.50277e-07
3.6244e-07
8.43701e-07
1.78988e-06
3.40278e-06
5.80626e-06
1.29837e-06
4.72253e-07
2.15268e-07
1.30566e-07
1.01734e-07
9.89137e-08
1.14151e-07
1.58499e-07
2.6805e-07
5.21452e-07
1.05241e-06
2.03481e-06
3.63705e-06
5.95089e-06
1.67258e-06
7.72837e-07
4.82435e-07
3.63105e-07
3.07871e-07
2.94048e-07
3.16183e-07
3.85415e-07
5.33217e-07
8.30106e-07
1.40061e-06
2.40431e-06
3.98122e-06
6.19759e-06
2.43879e-06
1.43347e-06
1.09039e-06
9.27437e-07
8.2933e-07
7.91018e-07
8.13707e-07
9.12597e-07
1.11456e-06
1.47201e-06
2.08618e-06
3.09749e-06
4.63396e-06
6.77956e-06
3.87203e-06
2.67939e-06
2.26997e-06
2.09264e-06
1.9666e-06
1.90941e-06
1.92981e-06
2.05649e-06
2.32972e-06
2.7937e-06
3.51574e-06
4.60133e-06
6.12307e-06
8.20733e-06
6.46536e-06
4.86268e-06
4.25835e-06
4.11747e-06
4.08245e-06
4.09028e-06
4.16669e-06
4.34693e-06
4.69557e-06
5.27992e-06
6.15573e-06
7.41403e-06
9.029e-06
1.11623e-05
1.67951e-06
1.07055e-06
8.47063e-07
7.66798e-07
7.89884e-07
8.61545e-07
9.70107e-07
1.07586e-06
1.15193e-06
1.17458e-06
1.21762e-06
1.46539e-06
2.21121e-06
3.62589e-06
9.85665e-07
4.57471e-07
2.89471e-07
2.45763e-07
2.48249e-07
2.69636e-07
3.05546e-07
3.46814e-07
3.86366e-07
4.23769e-07
5.2515e-07
8.28775e-07
1.532e-06
2.8076e-06
6.63822e-07
2.13135e-07
8.60527e-08
6.09782e-08
5.91363e-08
6.36817e-08
7.25608e-08
8.56464e-08
1.07066e-07
1.52952e-07
2.75439e-07
5.73437e-07
1.20678e-06
2.3964e-06
5.3823e-07
1.40364e-07
3.49138e-08
1.4178e-08
1.07928e-08
1.11284e-08
1.33866e-08
1.90678e-08
3.45032e-08
7.71289e-08
1.8856e-07
4.54655e-07
1.03575e-06
2.19295e-06
4.64801e-07
1.18855e-07
2.80374e-08
6.96973e-09
2.3517e-09
1.70276e-09
2.68968e-09
6.64907e-09
1.95641e-08
5.81512e-08
1.63879e-07