/*--------------------------------*- C++ -*----------------------------------*\
| =========                 |                                                 |
| \\      /  F ield         | OpenFOAM: The Open Source CFD Toolbox           |
|  \\    /   O peration     | Version:  v2106                                 |
|   \\  /    A nd           | Website:  www.openfoam.com                      |
|    \\/     M anipulation  |                                                 |
\*---------------------------------------------------------------------------*/
FoamFile
{
    version     2.0;
    format      ascii;
    arch        "LSB;label=32;scalar=64";
    class       volScalarField;
    location    "0.000173";
    object      epsilon;
}
// * * * * * * * * * * * * * * * * * * * * * * * * * * * * * * * * * * * * * //

dimensions      [0 2 -3 0 0 0 0];

internalField   nonuniform List<scalar> 
18109
(
377.277
142.036
72.3416
50.1423
45.507
48.6778
57.7928
203.869
48.7159
14.8062
8.65961
7.82815
8.3861
9.92019
123.012
21.7441
3.47078
1.18649
0.966539
1.02812
1.22867
84.7346
14.0371
1.92292
0.304225
0.10426
0.0892203
0.123976
64.3575
11.4935
1.87837
0.284108
0.0405535
0.0111043
0.0255601
57.2872
11.3641
2.04258
0.310028
0.0392016
0.0079268
0.0204826
62.8086
13.2898
2.36816
0.344785
0.0500009
0.0210219
0.0413873
80.2863
16.9653
2.93997
0.473767
0.140112
0.122124
0.175388
211.066
68.9189
29.5577
17.4396
13.5952
12.9006
14.2554
17.0224
21.8933
30.606
51.7606
115.904
302.341
768.983
108.205
22.5168
5.27006
2.38007
1.84421
1.78079
1.99565
2.42574
3.43732
6.62432
18.3965
59.4943
182.63
494.243
60.8473
10.0999
1.38798
0.297722
0.175634
0.167172
0.196523
0.290779
0.692795
2.47072
9.61524
34.7839
111.734
317.075
41.3705
7.08044
1.04163
0.147558
0.0256846
0.0119305
0.0182521
0.0611367
0.287169
1.34327
5.67298
21.3375
71.7377
218.333
33.6572
6.47566
1.13017
0.173047
0.0216523
0.00303572
0.00533932
0.0316303
0.177779
0.887012
3.92051
15.4891
55.4121
182.552
33.804
7.06556
1.28717
0.192979
0.0227037
0.00321763
0.00488557
0.0270415
0.153033
0.78136
3.56137
14.606
54.6754
189.59
41.3557
8.81409
1.5418
0.218478
0.0292979
0.0104237
0.0137914
0.0420295
0.197977
0.972633
4.41359
18.1528
68.1187
235.552
56.1459
11.5964
1.93551
0.295096
0.0798942
0.0658884
0.0800182
0.137474
0.405572
1.64848
6.93918
27.2373
97.582
319.703
78.1934
15.998
2.95165
0.703972
0.389598
0.390776
0.461288
0.642159
1.24484
3.59021
12.6374
44.8026
147.964
446.074
112.987
26.5384
7.16402
2.87728
1.98644
1.96932
2.28288
2.99104
4.68063
9.6569
25.8813
77.4759
227.327
619.079
184.538
60.6623
24.8698
12.9759
9.17023
8.60555
9.6931
12.3849
17.691
29.4767
59.978
143.636
361.364
876.848
363.481
168.088
88.5035
52.6528
37.4953
33.385
36.0598
44.8258
61.1241
90.9578
151.506
289.813
608.489
1294.19
782.973
453.006
277.507
182.56
134.264
116.594
120.795
144.265
188.884
263.68
390.167
627.037
1098.28
2030.41
1629.08
1080.67
737.885
535.636
419.648
369.853
374.397
426.777
530.707
702.74
968.135
1384.12
2068.85
3292.08
780.592
1777.36
3946.92
8131.59
16379.9
34504.5
445.748
1101.77
2644.61
5721.62
11606.9
23825
232.788
750.025
2100.22
5083.21
11443.3
26292.5
141.035
538.392
1680.28
4521.47
11510.8
30352.5
92.8199
394.139
1369.06
4170.36
12074.8
35218.4
72.9685
330.733
1247.73
4178.1
13131.6
39950.5
69.0074
321.532
1264.02
4427.35
14363.3
43606.7
76.0757
354.652
1397.63
4874.72
15408.4
44966.9
91.1085
414.742
1585.46
5311.92
15928
43852.6
116.636
504.674
1823.94
5719.35
15912.8
40502.8
154.791
621.163
2065.16
5904.76
14932.6
34577.5
214.617
778.076
2328.66
5974.52
13569.9
28284
324.256
1030.9
2720.72
6195.03
12598.9
23640.9
537.007
1456.32
3370.59
6850.71
12646.1
21763.2
948.548
2115.59
4279.23
7900.91
13692.9
22834.4
1778.46
3164.41
5438.74
9117.91
15335
26688.8
1174.35
2356.37
4546.73
8662.76
16904.8
34336
807.46
1857.61
4133.68
9218.23
20997.6
47998.6
613.927
1646.94
4295.35
11050.9
27745.3
66188.4
564.669
1719.91
4985.55
13669.2
35033.8
82871.6
616.484
1990.49
5939.8
16308.8
41049.8
94048.9
754.338
2396.34
6918.83
18188.4
43729.9
95688.8
960.135
2855.37
7712.51
18988.6
43010.3
89653.3
1229.66
3348.35
8317.34
18935.7
39863.2
78309
1549.16
3802.12
8583.28
17922.9
35003.9
65249.9
1988.24
4359.79
8888.68
16987
30937.1
54593.1
2651.62
5205.57
9632.15
16978.3
29225.8
49899.7
3774.6
6677.51
11377.3
18988.3
31957.2
54809.3
5605.56
9046.42
14438.8
23347.1
39265.8
69351.2
5318.57
9362.5
15823.2
26947.4
47813.9
89298.2
4050.48
7597.52
14028.9
27039.8
54786.6
112730
3051.78
6255.67
12987.5
28537.4
64548.1
143110
2308.6
5263.17
12402.2
30348.4
73501.4
168632
1786.65
4555.19
11940.5
31158.8
78338.9
184255
1435.76
4019.55
11235.6
30076
75938.9
178987
1215.74
3599.26
10242.8
27178.1
67295.3
156534
1089.93
3262.66
9160.04
23684
56813
130821
1055
3052.2
8277.77
20726.2
47768.9
107313
1130.8
3038.81
7751.12
18456.6
40519.4
86375.9
1324.1
3200.48
7545.62
16797.7
34360.5
69321.4
1663.59
3594.65
7657.9
15716.7
29955.8
58335.2
2236.61
4338.65
8350.89
15546.6
28578.6
56911.8
3114.13
5545.54
9780.14
16949.6
30798.6
62709.1
404.055
1380.79
4037.65
10206.4
22724.7
49793.5
476.56
1414.15
3694.05
8583.96
18056
37692.3
533.805
1374.35
3332.89
7345.73
14916.7
30997.2
583.314
1304.89
3085.39
6710
13916.8
30587
2076.82
4148.29
9138.44
17667.1
33589.8
70015.8
1255.36
3140.31
7623.84
15902.1
33602.4
77964.7
840.774
2501.76
6222.18
13793.1
32614.1
85364
603.664
1892.45
4837.65
11716.3
31110.5
89380.1
442.839
1400.4
3766.84
10192.1
29830.4
92062.7
320.976
1039.05
3024.02
9207.37
28876.6
91170.2
232.232
800.193
2598.09
8635.66
27617.8
84330.4
176.271
665.847
2396.17
8252.39
25660.5
73541.7
154.201
627.702
2354.41
7940.03
23125.2
61146.5
164.861
665.964
2392.33
7484.57
19953.3
48242.6
204.383
752.043
2430.95
6829.15
16553.5
36941.8
265.169
850.392
2416.89
6075.03
13547.3
28609.3
327.976
911.523
2343.71
5422.3
11377.7
23587
358.034
878.247
2197.06
4966.61
10414.7
22440.1
50982.4
191682
759823
780981
514164
63954.2
256469
874780
724527
478549
82654.5
314833
908379
690977
484925
100995
360829
923783
702402
512110
116283
397119
904276
709626
528428
122493
400755
836575
691106
523914
118760
360747
722115
652483
526094
107528
299457
608615
639742
554477
693197
90531.5
234093
492788
630966
582198
751955
70190.6
172214
371204
585532
578222
769232
51648.3
120440
273699
516236
521085
743059
1.16083e+06
39109.4
87445.2
216231
463653
438676
636125
1.33618e+06
1.61597e+06
33755
78614.1
212499
455848
390310
467639
1.25638e+06
4.07297e+06
36446.5
98203
276143
492466
401839
413126
606979
2.3772e+06
48102.6
148134
396969
520866
414356
432643
599492
2.71844e+06
70242.8
217858
505263
494903
397295
464042
665576
2.27068e+06
104534
297699
571019
468758
403719
516484
707377
2.85064e+06
143622
369569
608294
471704
435166
581221
678314
1.08595e+06
173712
407545
605319
485587
463086
633297
708936
671222
188147
405203
577247
501814
483960
685507
773684
559027
182272
362609
535257
528111
520644
759456
894170
876137
164452
311349
508762
581606
570162
848115
1.07318e+06
616881
136859
257853
478678
631636
618042
942448
108496
212420
457829
649689
622320
1.00237e+06
87866.2
185529
465669
632134
565237
982855
81328.5
193225
522259
600206
481620
823892
92506.3
247442
628091
546670
419364
627315
122627
351352
746067
496130
398559
168174
479645
781665
450041
393160
225368
600081
735329
418535
392500
292547
712824
696033
420870
419507
342969
763941
672773
457084
465812
370513
736337
649153
503264
505070
357741
631048
617314
551695
529829
312367
506866
590375
612323
568707
251906
401775
585302
701149
608541
195138
315530
589567
789080
637788
150803
251263
618711
831613
615581
121419
218895
694369
806071
555185
104830
236345
828152
748135
493735
105001
310607
1.00928e+06
689667
468270
123734
446507
1.14103e+06
656866
473768
155001
597456
1.11398e+06
641665
471916
191503
725265
1.02205e+06
615950
467001
232353
843067
977605
606667
482683
263041
886024
960586
631618
515569
287013
838659
921005
654785
539164
286203
712765
845522
664530
547146
254753
551897
729237
666458
567005
206046
409148
612266
695211
598918
156046
294212
494118
727759
624685
112970
203778
380275
719238
609401
80683.6
140319
302583
677824
554185
59158.9
104914
290057
656701
504299
47151
98344.7
371385
690515
503390
44583.1
127432
552481
761758
527480
136.05
40.4959
15.703
8.42948
5.83477
4.8775
4.76033
5.08727
6.34905
10.0221
21.3959
58.7441
172.802
474.39
67.5147
12.8776
2.55197
0.933426
0.614516
0.5222
0.520859
0.577281
0.877223
2.28636
8.32508
31.0544
103.748
299.516
36.912
5.98337
0.788133
0.123722
0.0445762
0.0335592
0.0363988
0.063389
0.225889
1.05229
4.65284
18.1815
61.9501
184.35
26.0508
4.64275
0.726763
0.104139
0.0135326
0.00241407
0.00356562
0.019393
0.11294
0.586662
2.66334
10.6039
37.2778
117.05
23.2236
4.67499
0.840258
0.130583
0.016053
0.00174188
0.00169236
0.0108326
0.0662367
0.355177
1.6685
6.9163
25.593
86.0418
25.4162
5.41203
0.985371
0.147246
0.0171822
0.00222966
0.0019261
0.00855933
0.0492764
0.266663
1.28778
5.54173
21.4945
76.5753
32.9495
6.98843
1.20356
0.168733
0.0225341
0.00821031
0.00896515
0.0166323
0.0587133
0.280628
1.33533
5.82612
23.1309
84.4578
46.0447
9.35586
1.51923
0.224786
0.0598629
0.0515664
0.0610162
0.0816492
0.154389
0.485682
1.9838
8.19684
31.5805
111.849
65.3006
12.9893
2.25046
0.499352
0.278331
0.29624
0.356316
0.454377
0.671325
1.38192
4.14125
14.6498
51.4429
168.183
95.2607
21.0461
5.06977
1.90189
1.35999
1.44258
1.73115
2.21099
3.05965
5.03025
11.0028
30.742
92.7396
269.096
153.644
45.9284
16.8496
8.33858
6.06367
6.08759
7.1656
9.17349
12.4881
18.6371
32.8473
71.8444
179.524
453.225
295.001
124.529
59.9724
33.7318
24.1609
22.7903
25.9103
32.868
44.3601
63.3897
98.5171
176.492
361.661
782.761
626.149
337.048
190.75
118.031
85.5199
77.2558
84.2219
104.166
138.209
192.224
278.732
435.577
748.092
1387.16
1310.92
818.327
519.059
353.633
268.033
240.123
252.879
301.062
386.447
520.99
722.27
1031.78
1533.11
2433.85
35.6241
12.2186
6.39985
3.82566
2.43591
1.77766
1.50896
1.36664
1.39029
1.82585
3.85139
12.1953
43.1709
141.653
15.4267
2.89191
0.777934
0.367304
0.221073
0.16266
0.142938
0.133428
0.156305
0.359517
1.50472
6.79973
27.2739
93.4783
9.27038
1.53646
0.22943
0.0418215
0.0134868
0.00850812
0.00789843
0.0101069
0.0317924
0.174986
0.949183
4.46513
17.9652
61.9805
8.99826
1.69957
0.278511
0.041106
0.00523379
0.00064538
0.000395505
0.00223232
0.0165348
0.107656
0.596365
2.82297
11.5117
40.8303
10.434
2.1103
0.366768
0.0552376
0.00670091
0.000631599
0.000193333
0.00131231
0.0101874
0.0675512
0.38164
1.85094
7.79049
28.9131
13.2983
2.71801
0.4595
0.0647808
0.00734524
0.000810399
0.000367605
0.00114892
0.0073375
0.0477125
0.272614
1.35296
5.89562
22.9908
18.6427
3.72486
0.588719
0.0763406
0.00922945
0.00275094
0.00269732
0.00360893
0.00880632
0.0413419
0.224566
1.13111
5.1219
21.0802
27.1539
5.18663
0.757297
0.0969626
0.0211452
0.0175642
0.0208947
0.0250146
0.0340955
0.0724782
0.272686
1.26279
5.70962
23.8854
39.6881
7.27108
1.04176
0.177715
0.0929918
0.106043
0.131128
0.159884
0.201913
0.294189
0.636961
2.15782
8.67925
34.1639
58.5117
10.7195
1.85772
0.577282
0.460864
0.54366
0.678575
0.848885
1.08398
1.45539
2.33045
5.34247
16.7426
56.8033
88.8836
18.8677
5.11474
2.45959
2.1083
2.40548
2.98392
3.79579
4.93313
6.55858
9.36585
16.4215
38.7121
107.315
150.961
44.3012
17.9209
10.3043
8.67197
9.41369
11.444
14.5986
19.1409
25.5112
34.9235
52.9006
98.3861
220.056
289.357
120.213
61.1037
38.6421
32.1175
33.3441
39.3174
49.4777
64.5078
85.8127
115.583
162.955
256.753
470.958
604.509
317.86
184.885
127.303
107.408
109.002
124.619
152.539
194.288
254.231
337.597
458.155
647.019
996.297
8.25247
2.91699
1.57477
0.94417
0.575377
0.367181
0.281759
0.230737
0.205653
0.215793
0.408692
1.48941
6.50166
26.3769
3.33745
0.592756
0.155608
0.0744267
0.0433153
0.0279504
0.0226101
0.0191638
0.0186671
0.0341097
0.158338
0.882314
4.33503
17.9977
2.56515
0.42968
0.0630539
0.00987626
0.00235552
0.00108658
0.000898787
0.000942834
0.00246303
0.0157588
0.106948
0.621554
3.03855
12.5326
3.15612
0.592289
0.0968042
0.0136847
0.00170929
0.000175269
2.8002e-05
0.000130071
0.00128057
0.0107386
0.0746339
0.432654
2.10868
8.72824
4.18796
0.811486
0.137595
0.0193041
0.00230061
0.000218387
2.4669e-05
8.87068e-05
0.000878384
0.0073947
0.0516538
0.301555
1.48493
6.23902
5.82382
1.10983
0.182176
0.023762
0.00259851
0.000261644
6.83116e-05
0.000113653
0.000672745
0.00529314
0.0368875
0.217315
1.08727
4.67899
8.66738
1.59811
0.245925
0.0292763
0.00312715
0.000668035
0.000574349
0.000668926
0.00112719
0.00459691
0.0283285
0.165666
0.845222
3.77217
13.0518
2.31766
0.326161
0.0364988
0.00570569
0.00395914
0.00475519
0.00553551
0.00652443
0.00990664
0.0302712
0.148303
0.753105
3.50616
19.257
3.34502
0.43643
0.0552497
0.0216786
0.0251919
0.0320978
0.0385315
0.0452698
0.0547983
0.0850506
0.235452
0.996283
4.50189
27.7957
4.82902
0.652526
0.138738
0.108891
0.138962
0.179567
0.221562
0.267839
0.322425
0.416895
0.727516
2.09599
7.93225
39.5396
7.44058
1.38475
0.550872
0.52619
0.661311
0.853453
1.07355
1.33079
1.63666
2.05522
2.97237
6.14526
17.9618
60.5212
14.9983
4.47604
2.44161
2.30811
2.76756
3.51947
4.46331
5.62289
7.05646
8.8896
11.9591
19.9289
45.4611
107.819
39.5254
16.4692
10.1929
9.2338
10.4389
12.8808
16.2239
20.5208
26.0877
33.2271
43.5878
63.6856
117.083
230.767
113.016
57.4143
38.5281
34.0907
36.4775
43.0681
52.862
65.964
83.8001
107.538
140.357
190.915
294.05
1.91284
0.497442
0.211533
0.121915
0.072831
0.0480827
0.0374829
0.030792
0.0258491
0.0219062
0.0291911
0.103847
0.542412
2.68606
0.930918
0.143741
0.0230937
0.00765679
0.00400147
0.00271834
0.00231002
0.00202694
0.00182462
0.00231571
0.00971476
0.0649041
0.389128
1.95462
0.825483
0.142761
0.0193175
0.00256374
0.000346237
7.69445e-05
5.08077e-05
5.3596e-05
0.000117763
0.000820441
0.00692092
0.0496914
0.295746
1.46738
1.06457
0.207669
0.031461
0.00437139
0.000517292
5.29727e-05
4.79684e-06
4.85967e-06
5.57969e-05
0.000600567
0.00527099
0.0378326
0.224118
1.10707
1.44411
0.292221
0.0453196
0.00615727
0.000691752
6.69581e-05
5.76037e-06
3.8624e-06
4.11354e-05
0.000443959
0.00391384
0.0282211
0.168086
0.835975
1.99254
0.402359
0.060745
0.0075796
0.000771648
7.48992e-05
1.41927e-05
1.26702e-05
4.02828e-05
0.00033847
0.00292135
0.0211336
0.126882
0.637997
2.86503
0.569999
0.0824976
0.00922587
0.000876711
0.000148158
0.00011064
0.000122085
0.000148973
0.00037368
0.00231297
0.0160725
0.0969433
0.495608
4.11434
0.796669
0.109179
0.0111205
0.00134342
0.000780912
0.000938867
0.00109056
0.0012078
0.00143973
0.00298654
0.0138237
0.0786028
0.408582
5.76014
1.08606
0.142673
0.0149626
0.00437823
0.00511039
0.00664189
0.00795063
0.00901535
0.00999848
0.0122068
0.0240719
0.0933896
0.454115
7.91761
1.46736
0.196296
0.0304776
0.0218593
0.0297031
0.0391848
0.0480582
0.0561142
0.0635326
0.072526
0.0974606
0.217632
0.806641
10.7006
2.06034
0.340204
0.107611
0.109545
0.148855
0.196407
0.245389
0.293766
0.341715
0.393966
0.485596
0.803371
2.16918
15.484
3.69012
0.950074
0.481296
0.500636
0.651374
0.849987
1.07361
1.30964
1.56076
1.8379
2.2295
3.18413
6.69217
26.8468
9.31188
3.51259
2.14291
2.0926
2.54382
3.2317
4.08024
5.03198
6.11618
7.37022
9.00306
11.8938
20.5253
60.6728
28.1046
13.3843
8.91859
8.159
9.12327
11.0387
13.6813
16.8569
20.7469
25.5281
31.7069
40.4592
60.185
0.345606
0.0717959
0.0211162
0.0102474
0.00602893
0.00415138
0.00358607
0.00319628
0.00275639
0.00217934
0.00203922
0.00589313
0.0357517
0.213016
0.174175
0.0290858
0.0041219
0.00062496
0.000198789
0.000135649
0.000143058
0.000151475
0.000150601
0.000159053
0.000493423
0.00375087
0.0271325
0.163372
0.176741
0.0349226
0.00576537
0.000763962
9.4885e-05
1.09891e-05
2.98178e-06
3.4591e-06
6.4618e-06
3.53387e-05
0.000345842
0.00303888
0.021922
0.130232
0.242675
0.0521158
0.00931224
0.00131114
0.000163839
1.65884e-05
1.49725e-06
3.52813e-07
1.94315e-06
2.43575e-05
0.000268348
0.0023892
0.0172982
0.102992
0.340899
0.0745633
0.0134481
0.00187354
0.00022345
2.11864e-05
1.79618e-06
2.93994e-07
1.40317e-06
1.84282e-05
0.000206265
0.00185677
0.0135774
0.0816185
0.477487
0.103099
0.017984
0.00235585
0.000257038
2.3083e-05
3.05042e-06
1.6679e-06
2.44042e-06
1.51126e-05
0.000157687
0.00142772
0.0105709
0.064389
0.682492
0.143964
0.0239408
0.00289746
0.000290306
3.38776e-05
1.70809e-05
1.73081e-05
1.81545e-05
2.72909e-05
0.000134924
0.00110845
0.00821114
0.0506751
0.964735
0.197066
0.0310644
0.00349457
0.00037641
0.000128871
0.000139336
0.000156055
0.00016444
0.000173324
0.000254275
0.00100182
0.00652936
0.0401761
1.32189
0.261247
0.0393629
0.00437986
0.000856345
0.000799046
0.00100543
0.00116356
0.00126402
0.00132865
0.00143594
0.00217019
0.00744105
0.0397755
1.78146
0.343736
0.0515618
0.00717176
0.00363628
0.00475291
0.00614592
0.007285
0.0081499
0.00880633
0.0093943
0.0108804
0.0190054
0.0662883
2.35087
0.461814
0.0786915
0.0195937
0.0178712
0.0247081
0.0321632
0.0389015
0.0446551
0.0495972
0.0540414
0.0605481
0.0825952
0.196429
3.31635
0.763831
0.18389
0.0787396
0.0825683
0.112187
0.145845
0.179233
0.210199
0.239322
0.267363
0.301681
0.37597
0.702717
5.65412
1.80663
0.624091
0.342671
0.348184
0.450866
0.579858
0.719833
0.858575
0.999377
1.14531
1.31726
1.57873
2.47889
13.0213
5.46402
2.36631
1.44199
1.3596
1.63537
2.04751
2.5421
3.06525
3.63624
4.27185
5.03905
5.98813
8.32796
0.0619981
0.0115037
0.0024497
0.000903413
0.000522664
0.000407685
0.000412556
0.000415513
0.000389321
0.000315459
0.000245065
0.000518308
0.00332817
0.0222832
0.0333868
0.00597839
0.0009141
0.000126313
2.41226e-05
1.3951e-05
1.73049e-05
2.18643e-05
2.46963e-05
2.48982e-05
4.69667e-05
0.000330426
0.00265681
0.0178712
0.0375268
0.00792883
0.00143516
0.000217081
2.79225e-05
3.34757e-06
8.64331e-07
9.65721e-07
1.39586e-06
3.40428e-06
2.74407e-05
0.000269888
0.00220683
0.0147541
0.054163
0.0121961
0.00234264
0.000371346
4.8032e-05
5.13091e-06
4.8836e-07
9.91582e-08
1.82967e-07
1.67586e-06
2.06538e-05
0.000212451
0.00175911
0.0118873
0.0773177
0.0175265
0.00336467
0.000525495
6.54216e-05
6.59457e-06
5.75781e-07
7.36208e-08
1.05805e-07
1.21472e-06
1.5708e-05
0.000164718
0.00138806
0.00954129
0.10808
0.023973
0.00442692
0.000652078
7.51919e-05
7.1003e-06
7.60322e-07
2.76645e-07
2.83981e-07
1.08193e-06
1.19552e-05
0.000126145
0.00108355
0.00759622
0.1527
0.0328566
0.00575989
0.000787381
8.34148e-05
8.63962e-06
2.80521e-06
2.56199e-06
2.55834e-06
3.03446e-06
1.11208e-05
9.87226e-05
0.000846624
0.00602506
0.213338
0.0442768
0.00734512
0.000935908
9.92129e-05
2.27416e-05
2.10724e-05
2.30566e-05
2.37229e-05
2.3766e-05
2.91128e-05
9.56815e-05
0.000675723
0.00474806
0.288177
0.0576836
0.00911855
0.00112517
0.000174778
0.000125729
0.000154258
0.000175693
0.000186472
0.000190091
0.000194035
0.000253911
0.000779654
0.00447852
0.381806
0.0741276
0.011479
0.0016063
0.000616039
0.00075857
0.000976013
0.00113774
0.00124195
0.00130361
0.00133761
0.00144727
0.00218344
0.00714947
0.49095
0.0953524
0.0159452
0.00357613
0.00294486
0.00410143
0.00533104
0.00633521
0.00709012
0.00764756
0.00803345
0.00858997
0.0105383
0.0224574
0.664602
0.14484
0.0321499
0.0128964
0.0138788
0.0194788
0.0253569
0.0306136
0.03499
0.0386579
0.0416361
0.0451677
0.0521413
0.0885893
1.08635
0.3163
0.10046
0.054519
0.0597898
0.0816681
0.105894
0.12947
0.150656
0.170124
0.187879
0.208297
0.235414
0.343205
2.47528
0.939246
0.376562
0.228592
0.235943
0.305912
0.391366
0.48172
0.568338
0.65451
0.741144
0.843277
0.956336
1.25832
0.0108018
0.00201818
0.000417519
0.000139649
8.01084e-05
6.84459e-05
7.49856e-05
8.04601e-05
7.93908e-05
6.62483e-05
4.63105e-05
5.53559e-05
0.000294771
0.00211946
0.00619784
0.00116705
0.000192125
2.88483e-05
5.37395e-06
2.9571e-06
3.84234e-06
5.1327e-06
6.0658e-06
5.95387e-06
6.42368e-06
2.84479e-05
0.000239485
0.00176594
0.00766632
0.00168048
0.000320336
5.22631e-05
7.27007e-06
9.37331e-07
2.58384e-07
2.89935e-07
3.94888e-07
5.58754e-07
2.31635e-06
2.27375e-05
0.000204641
0.0015065
0.0114843
0.00264778
0.000528953
8.92286e-05
1.24399e-05
1.42756e-06
1.51716e-07
4.02727e-08
4.42941e-08
1.47775e-07
1.58697e-06
1.79467e-05
0.000165185
0.00123647
0.0165549
0.0038194
0.000758086
0.000125467
1.68851e-05
1.83544e-06
1.75522e-07
3.08407e-08
2.46281e-08
9.90079e-08
1.20317e-06
1.39929e-05
0.000131659
0.00100783
0.0229899
0.00515985
0.000981052
0.000153251
1.92458e-05
1.95729e-06
2.01806e-07
5.94609e-08
5.07124e-08
1.01547e-07
9.26508e-07
1.07405e-05
0.00010341
0.000811682
0.031954
0.00691553
0.00124301
0.000180408
2.08947e-05
2.1543e-06
4.91353e-07
3.84851e-07
3.69313e-07
3.80355e-07
9.7566e-07
8.50873e-06
8.12696e-05
0.000649058
0.0438211
0.00910985
0.00154548
0.000209136
2.35513e-05
4.2053e-06
3.17019e-06
3.33711e-06
3.34634e-06
3.21087e-06
3.45611e-06
9.04453e-06
6.52556e-05
0.000510309
0.0581472
0.0116361
0.00187853
0.000244151
3.53022e-05
1.97619e-05
2.31579e-05
2.57589e-05
2.66349e-05
2.62242e-05
2.54936e-05
2.95006e-05
7.79111e-05
0.000466214
0.0757338
0.0146588
0.00230171
0.000324261
0.000104455
0.000118279
0.000149978
0.000170923
0.000181527
0.000184167
0.000181685
0.000184658
0.000242281
0.000720044
0.0955064
0.0183137
0.00301638
0.000632271
0.000477267
0.000656068
0.000844874
0.000981521
0.00106774
0.00111334
0.00112523
0.00114497
0.00127352
0.00237666
0.124659
0.0260186
0.00542394
0.00207946
0.002273
0.00322215
0.00416427
0.00491545
0.00545807
0.00582797
0.00603446
0.00625387
0.00670224
0.0101793
0.194399
0.0523596
0.0155112
0.00853625
0.00997414
0.0139934
0.018076
0.0216322
0.0244618
0.0266909
0.0283023
0.030004
0.0319234
0.0426371
0.433316
0.150503
0.056709
0.0354162
0.0398426
0.054125
0.0694994
0.0839811
0.0963919
0.107242
0.11647
0.12662
0.136219
0.167568
0.00164391
0.000311919
6.60874e-05
2.22493e-05
1.36302e-05
1.28642e-05
1.50185e-05
1.68721e-05
1.72889e-05
1.48484e-05
1.0101e-05
7.60923e-06
2.47617e-05
0.000182309
0.0010266
0.000201418
3.51471e-05
5.67671e-06
1.13703e-06
6.67042e-07
8.9542e-07
1.22749e-06
1.4854e-06
1.47083e-06
1.22453e-06
2.54465e-06
1.97268e-05
0.000157531
0.00139873
0.000314573
6.20997e-05
1.06411e-05
1.57909e-06
2.28227e-07
7.81324e-08
8.90114e-08
1.16683e-07
1.35817e-07
2.41753e-07
1.79036e-06
1.72469e-05
0.000138825
0.00217249
0.000509131
0.000104357
1.83099e-05
2.70014e-06
3.38094e-07
4.89048e-08
2.26526e-08
2.28844e-08
3.02281e-08
1.29452e-07
1.39558e-06
1.40656e-05
0.000115992
0.00316428
0.000738789
0.000149847
2.57421e-05
3.66472e-06
4.33301e-07
5.44588e-08
1.97736e-08
1.74614e-08
2.19992e-08
9.85411e-08
1.09201e-06
1.12904e-05
9.57916e-05
0.00436303
0.000986339
0.000191218
3.10848e-05
4.15094e-06
4.59986e-07
5.75687e-08
2.29757e-08
2.03529e-08
2.30652e-08
7.9616e-08
8.39025e-07
8.87925e-06
7.77013e-05
0.00596007
0.0012931
0.000236557
3.58524e-05
4.43109e-06
4.77078e-07
9.03603e-08
6.10753e-08
5.70462e-08
5.47429e-08
9.28605e-08
6.72631e-07
6.9878e-06
6.24081e-05
0.00801448
0.00166506
0.000287214
4.06643e-05
4.80132e-06
7.19564e-07
4.15753e-07
4.1462e-07
4.04865e-07
3.74034e-07
3.67422e-07
7.77913e-07
5.60959e-06
4.87755e-05
0.0104336
0.00208386
0.000341848
4.62152e-05
6.32203e-06
2.67777e-06
2.92203e-06
3.16959e-06
3.19005e-06
3.02581e-06
2.81074e-06
2.97078e-06
6.89327e-06
4.32245e-05
0.0133273
0.00257032
0.000407953
5.7624e-05
1.5432e-05
1.55436e-05
1.93513e-05
2.15675e-05
2.2267e-05
2.17675e-05
2.06369e-05
1.99421e-05
2.34918e-05
6.41775e-05
0.0164305
0.00311271
0.000505732
9.85124e-05
6.59021e-05
8.83966e-05
0.000112726
0.000128045
0.00013528
0.000136006
0.000132256
0.000128922
0.000132707
0.000219802
0.0205823
0.00412377
0.000808734
0.000291339
0.000317321
0.000450376
0.000577317
0.000665956
0.000717693
0.000739336
0.00073646
0.000732342
0.000737165
0.00101087
0.0300429
0.00748582
0.00207122
0.00116015
0.00142987
0.00203581
0.00261202
0.00305494
0.00335283
0.00353089
0.0035983
0.00365753
0.00368511
0.00453618
0.0637261
0.0203174
0.00727596
0.00478861
0.00585276
0.00819636
0.0104904
0.0124001
0.0138173
0.0148295
0.0154523
0.0160723
0.0164456
0.0189567
0.000220551
4.26516e-05
9.41335e-06
3.36138e-06
2.31015e-06
2.41455e-06
2.96322e-06
3.44455e-06
3.62532e-06
3.18826e-06
2.18093e-06
1.31659e-06
2.11968e-06
1.43839e-05
0.000152587
3.103e-05
5.67744e-06
9.82375e-07
2.25859e-07
1.52884e-07
2.07536e-07
2.84182e-07
3.45571e-07
3.46223e-07
2.70623e-07
2.84498e-07
1.51878e-06
1.27871e-05
0.000227984
5.22428e-05
1.05697e-05
1.88184e-06
3.01906e-07
5.77417e-08
3.03412e-08
3.36889e-08
4.03864e-08
4.3757e-08
4.67089e-08
1.48941e-07
1.33706e-06
1.16244e-05
0.000366549
8.69081e-05
1.81202e-05
3.27233e-06
5.10715e-07
7.8258e-08
2.30213e-08
1.78388e-08
1.79344e-08
1.85997e-08
2.47006e-08
1.13337e-07
1.10032e-06
9.87199e-06
0.000540025
0.000127002
2.61125e-05
4.60594e-06
6.90779e-07
9.71014e-08
2.4122e-08
1.70972e-08
1.65865e-08
1.68381e-08
2.1649e-08
9.14343e-08
8.89076e-07
8.23841e-06
0.000739397
0.000167677
3.29176e-05
5.50587e-06
7.76856e-07
1.02245e-07
2.446e-08
1.73888e-08
1.68347e-08
1.69352e-08
2.04289e-08
7.33127e-08
6.9973e-07
6.70679e-06
0.000991686
0.00021492
3.97806e-05
6.22064e-06
8.15368e-07
1.02488e-07
2.74431e-08
2.11985e-08
2.0456e-08
1.99907e-08
2.20626e-08
6.20191e-08
5.52556e-07
5.40263e-06
0.00130588
0.000270247
4.71386e-05
6.89635e-06
8.55967e-07
1.2611e-07
6.14221e-08
5.77914e-08
5.55788e-08
5.11564e-08
4.81563e-08
7.45509e-08
4.45773e-07
4.20346e-06
0.00166481
0.000330745
5.48332e-05
7.63019e-06
1.02234e-06
3.39718e-07
3.34216e-07
3.51776e-07
3.45001e-07
3.17292e-07
2.84389e-07
2.80104e-07
5.61984e-07
3.63222e-06
0.00208129
0.000398767
6.37362e-05
9.02804e-06
2.06835e-06
1.80603e-06
2.18753e-06
2.38328e-06
2.39512e-06
2.26307e-06
2.0676e-06
1.91231e-06
2.05521e-06
5.18199e-06
0.00250338
0.000468451
7.53376e-05
1.3772e-05
8.05423e-06
1.04262e-05
1.31257e-05
1.45907e-05
1.50026e-05
1.45811e-05
1.3669e-05
1.27925e-05
1.23104e-05
1.82661e-05
0.00301332
0.000583151
0.000108679
3.65043e-05
3.89708e-05
5.50135e-05
6.98283e-05
7.88399e-05
8.26694e-05
8.2337e-05
7.90411e-05
7.54628e-05
7.17259e-05
8.9506e-05
0.00409863
0.000951892
0.000247509
0.000140804
0.000180703
0.000258902
0.00032937
0.000376987
0.00040244
0.00040972
0.000401986
0.000391835
0.000374777
0.000427206
0.00810675
0.00239158
0.000824794
0.000581043
0.000762734
0.00108756
0.00138279
0.00159957
0.00173276
0.0017959
0.00179767
0.00178866
0.00174235
0.00188408
2.62641e-05
5.20876e-06
1.22667e-06
4.93226e-07
3.92151e-07
4.45663e-07
5.62276e-07
6.66097e-07
7.11578e-07
6.37057e-07
4.442e-07
2.53977e-07
2.17432e-07
1.06247e-06
2.042e-05
4.28057e-06
8.20247e-07
1.6015e-07
5.14669e-08
4.28484e-08
5.45778e-08
7.02818e-08
8.29456e-08
8.35652e-08
6.74641e-08
5.28469e-08
1.25832e-07
9.59373e-07
3.31842e-05
7.69168e-06
1.58719e-06
2.99492e-07
6.10501e-08
2.33372e-08
1.91943e-08
2.00645e-08
2.14991e-08
2.21645e-08
2.15617e-08
2.67083e-08
1.08931e-07
8.9865e-07
5.51055e-05
1.31286e-05
2.76843e-06
5.18567e-07
9.45192e-08
2.65244e-08
1.75507e-08
1.66898e-08
1.67314e-08
1.68252e-08
1.71398e-08
2.26874e-08
9.23131e-08
7.76751e-07
8.20848e-05
1.93317e-05
4.00603e-06
7.27711e-07
1.23632e-07
2.97247e-08
1.77391e-08
1.65279e-08
1.64401e-08
1.64566e-08
1.67312e-08
2.11529e-08
7.75871e-08
6.56497e-07
0.000111621
2.52799e-05
5.00035e-06
8.61305e-07
1.36993e-07
3.0605e-08
1.77844e-08
1.65547e-08
1.646e-08
1.6462e-08
1.66585e-08
1.99764e-08
6.40545e-08
5.38438e-07
0.00014699
3.17163e-05
5.91504e-06
9.54038e-07
1.41318e-07
3.03461e-08
1.79927e-08
1.6892e-08
1.67801e-08
1.67262e-08
1.68183e-08
1.9292e-08
5.36482e-08
4.37273e-07
0.00018948
3.89441e-05
6.84376e-06
1.03372e-06
1.4438e-07
3.21445e-08
2.10873e-08
2.02319e-08
1.99092e-08
1.94111e-08
1.89922e-08
2.04623e-08
4.61409e-08
3.41798e-07
0.000236407
4.65739e-05
7.77503e-06
1.11394e-06
1.59326e-07
5.25271e-08
4.72618e-08
4.79427e-08
4.64749e-08
4.30106e-08
3.91211e-08
3.74111e-08
5.53895e-08
2.90379e-07
0.000289034
5.48623e-05
8.80866e-06
1.26028e-06
2.64525e-07
2.00153e-07
2.31828e-07
2.46175e-07
2.41175e-07
2.21466e-07
1.96363e-07
1.75817e-07
1.74781e-07
3.91824e-07
0.000338875
6.26029e-05
9.99595e-06
1.74206e-06
8.91992e-07
1.10188e-06
1.36312e-06
1.48274e-06
1.4838e-06
1.39391e-06
1.25896e-06
1.13315e-06
1.02817e-06
1.37586e-06
0.000392832
7.38109e-05
1.32061e-05
4.12493e-06
4.25871e-06
5.95308e-06
7.46782e-06
8.25568e-06
8.4226e-06
8.10377e-06
7.48952e-06
6.86661e-06
6.18827e-06
7.081e-06
0.000498008
0.00010877
2.67688e-05
1.53635e-05
2.02825e-05
2.90877e-05
3.66256e-05
4.10277e-05
4.25939e-05
4.18909e-05
3.9552e-05
3.69788e-05
3.36376e-05
3.56889e-05
0.000903472
0.000249514
8.3995e-05
6.37328e-05
8.85477e-05
0.000127387
0.000160451
0.000181548
0.000191119
0.0001912
0.000183874
0.000175039
0.000162341
0.000165152
2.8203e-06
5.87767e-07
1.60522e-07
8.1793e-08
7.54826e-08
8.84726e-08
1.09895e-07
1.29138e-07
1.3791e-07
1.25746e-07
9.22916e-08
5.7586e-08
3.94089e-08
8.81323e-08
2.49615e-06
5.43703e-07
1.17969e-07
3.5349e-08
2.17304e-08
2.10893e-08
2.33278e-08
2.61901e-08
2.84701e-08
2.85983e-08
2.56563e-08
2.20487e-08
2.4538e-08
8.01199e-08
4.35566e-06
1.02149e-06
2.22952e-07
5.39698e-08
2.24298e-08
1.74001e-08
1.68863e-08
1.70797e-08
1.73515e-08
1.74734e-08
1.72986e-08
1.73416e-08
2.23931e-08
7.76646e-08
7.43624e-06
1.77722e-06
3.85948e-07
8.41822e-08
2.70735e-08
1.78085e-08
1.65585e-08
1.64403e-08
1.64541e-08
1.64721e-08
1.64836e-08
1.6785e-08
2.12441e-08
6.99874e-08
1.11778e-05
2.63089e-06
5.55708e-07
1.13035e-07
3.11783e-08
1.82812e-08
1.65899e-08
1.64137e-08
1.64031e-08
1.6407e-08
1.64233e-08
1.6676e-08
2.02988e-08
6.18594e-08
1.50865e-05
3.40763e-06
6.85051e-07
1.3058e-07
3.30049e-08
1.84171e-08
1.66023e-08
1.6422e-08
1.64102e-08
1.64123e-08
1.64244e-08
1.66123e-08
1.94185e-08
5.3501e-08
1.9493e-05
4.18498e-06
7.92469e-07
1.40995e-07
3.33907e-08
1.83569e-08
1.6616e-08
1.64544e-08
1.64418e-08
1.64389e-08
1.64436e-08
1.65815e-08
1.8752e-08
4.63046e-08
2.45619e-05
5.01121e-06
8.93602e-07
1.48693e-07
3.34313e-08
1.84437e-08
1.68663e-08
1.67295e-08
1.66937e-08
1.66484e-08
1.66079e-08
1.66776e-08
1.82748e-08
3.9372e-08
2.99333e-05
5.84276e-06
9.88636e-07
1.55527e-07
3.44282e-08
2.01435e-08
1.90915e-08
1.90453e-08
1.88526e-08
1.84986e-08
1.81202e-08
1.79077e-08
1.89216e-08
3.52559e-08
3.57123e-05
6.71019e-06
1.08936e-06
1.68124e-07