/*--------------------------------*- C++ -*----------------------------------*\
| =========                 |                                                 |
| \\      /  F ield         | OpenFOAM: The Open Source CFD Toolbox           |
|  \\    /   O peration     | Version:  v2106                                 |
|   \\  /    A nd           | Website:  www.openfoam.com                      |
|    \\/     M anipulation  |                                                 |
\*---------------------------------------------------------------------------*/
FoamFile
{
    version     2.0;
    format      ascii;
    arch        "LSB;label=32;scalar=64";
    class       volScalarField;
    location    "0.000173";
    object      Ttot;
}
// * * * * * * * * * * * * * * * * * * * * * * * * * * * * * * * * * * * * * //

dimensions      [0 0 0 1 0 0 0];

internalField   nonuniform List<scalar> 
18109
(
299.958
299.818
299.733
299.657
299.626
299.619
299.685
300.041
299.912
299.716
299.592
299.517
299.49
299.516
300.05
299.899
299.696
299.57
299.473
299.425
299.405
300.019
299.818
299.628
299.499
299.395
299.335
299.29
299.885
299.668
299.507
299.394
299.302
299.241
299.183
299.694
299.499
299.354
299.263
299.185
299.124
299.063
299.451
299.312
299.193
299.118
299.06
298.999
298.938
299.201
299.115
299.042
298.97
298.926
298.866
298.809
300.218
300.113
300.024
299.95
299.909
299.907
299.968
300.038
300.142
300.24
300.32
300.352
300.386
300.377
300.265
300.158
299.986
299.878
299.807
299.79
299.824
299.877
299.957
300.046
300.121
300.175
300.219
300.185
300.251
300.125
299.956
299.856
299.773
299.739
299.732
299.754
299.789
299.84
299.898
299.947
300.002
300.022
300.187
300.024
299.873
299.78
299.697
299.652
299.624
299.629
299.637
299.659
299.691
299.721
299.77
299.831
300.043
299.876
299.752
299.675
299.604
299.555
299.517
299.506
299.494
299.493
299.504
299.527
299.581
299.677
299.845
299.716
299.608
299.546
299.487
299.436
299.392
299.367
299.347
299.332
299.331
299.355
299.415
299.525
299.603
299.529
299.463
299.405
299.363
299.312
299.265
299.231
299.206
299.187
299.181
299.212
299.285
299.406
299.374
299.344
299.318
299.267
299.232
299.182
299.136
299.097
299.074
299.057
299.054
299.095
299.177
299.301
299.164
299.172
299.177
299.153
299.114
299.069
299.024
298.986
298.963
298.951
298.954
299.005
299.095
299.213
298.992
299.033
299.063
299.05
299.009
298.966
298.921
298.886
298.859
298.849
298.861
298.923
299.012
299.115
298.851
298.93
298.984
298.987
298.937
298.893
298.839
298.806
298.77
298.762
298.784
298.851
298.923
299.015
298.774
298.891
298.934
298.936
298.877
298.841
298.772
298.73
298.68
298.659
298.664
298.712
298.766
298.82
298.678
298.866
298.924
298.964
298.894
298.843
298.746
298.67
298.59
298.549
298.533
298.558
298.57
298.622
298.611
298.799
298.886
298.936
298.874
298.845
298.75
298.644
298.525
298.431
298.343
298.279
298.201
298.237
299.844
299.838
299.742
299.719
299.715
299.699
300.156
300.152
300.068
300.051
300.037
300.034
300.028
300.023
299.973
299.985
299.975
299.933
299.998
300.001
299.998
300.027
299.966
299.58
299.973
299.999
300.028
300.041
299.837
299.012
299.976
300.037
300.104
300.077
299.667
298.408
300.022
300.129
300.23
300.118
299.508
297.951
300.14
300.293
300.367
300.177
299.339
297.628
300.234
300.391
300.416
300.147
299.19
297.478
300.342
300.458
300.432
300.058
299.06
297.64
300.421
300.49
300.402
299.96
299.083
298.151
300.454
300.473
300.334
299.918
299.34
298.936
300.424
300.431
300.291
300.008
299.761
299.665
300.431
300.448
300.344
300.234
300.185
300.226
300.388
300.449
300.395
300.437
300.548
300.62
300.402
300.518
300.538
300.712
300.877
300.976
300.173
300.313
300.401
300.612
300.75
300.779
300.085
300.31
300.459
300.598
300.617
300.204
299.949
300.196
300.322
300.393
300.096
299.025
299.817
300.03
300.106
300.035
299.3
297.554
299.665
299.819
299.833
299.544
298.35
296.171
299.534
299.636
299.551
298.966
297.504
295.247
299.404
299.435
299.25
298.494
296.958
294.995
299.282
299.252
298.965
298.141
296.749
295.319
299.137
299.055
298.692
297.904
296.893
296.127
298.991
298.821
298.419
297.78
297.215
296.894
298.717
298.467
298.107
297.654
297.432
297.348
298.473
298.181
297.882
297.608
297.556
297.567
298.029
297.772
297.54
297.403
297.437
297.452
297.993
297.878
297.703
297.599
297.43
297.045
297.942
297.765
297.556
297.359
296.909
295.891
298.052
297.873
297.63
297.19
296.227
294.423
298.149
297.963
297.612
296.879
295.295
292.946
298.281
298.096
297.656
296.575
294.464
291.873
298.435
298.265
297.745
296.416
294.065
291.417
298.608
298.457
297.855
296.442
294.139
291.597
298.749
298.592
297.926
296.507
294.481
292.349
298.839
298.664
297.984
296.639
294.899
293.404
298.839
298.602
297.928
296.787
295.482
294.599
298.831
298.516
297.912
297.011
296.224
295.776
298.694
298.339
297.817
297.213
296.849
296.697
298.557
298.201
297.777
297.371
297.214
297.173
298.3
297.999
297.62
297.306
297.214
297.163
300.132
300.172
299.917
299.298
298.642
298.354
300.118
300.109
299.878
299.476
299.131
299.059
300.054
300.012
299.835
299.585
299.434
299.415
299.913
299.907
299.744
299.643
299.618
299.599
298.347
298.125
297.825
297.579
297.419
297.04
298.362
298.115
297.818
297.614
297.273
296.491
298.486
298.265
298.033
297.778
297.051
295.496
298.656
298.471
298.257
297.872
296.788
294.663
298.88
298.773
298.602
298.055
296.594
294.223
299.149
299.131
298.977
298.284
296.549
294.177
299.433
299.474
299.339
298.534
296.779
294.529
299.711
299.803
299.635
298.842
297.217
295.219
299.962
300.074
299.91
299.158
297.695
296.204
300.159
300.256
300.093
299.408
298.23
297.262
300.295
300.353
300.163
299.573
298.776
298.267
300.318
300.33
300.135
299.732
299.25
299.068
300.289
300.265
300.12
299.85
299.63
299.559
300.181
300.188
300.052
299.951
299.895
299.851
299.677
297.746
295.224
298.144
304.237
298.531
295.148
292.816
298.378
306.9
297.226
293.221
292.681
300.154
309.28
296.026
292.198
293.594
303.174
312.931
295.215
292.263
295.614
306.425
315.238
294.758
292.867
297.723
309.393
317.511
294.827
294.215
299.79
310.374
317.014
295.441
295.985
301.67
311.13
316.766
314.689
296.552
297.931
303.37
311.273
315.432
313.697
297.855
299.721
304.58
310.382
313.968
313.623
299.133
301.108
304.954
308.906
311.65
312.776
311.68
300.208
301.964
304.788
307.017
308.83
310.648
311.429
308.778
300.843
302.191
303.906
304.607
306.392
307.682
308.074
312.188
301.112
301.896
302.113
301.622
303.624
306.52
308.378
307.503
300.959
300.316
299.268
300.097
304.625
308.78
308.951
305.368
299.752
297.248
295.783
299.818
307.028
310.902
309.872
308.113
297.77
294.249
294.232
300.692
309.121
312.365
311.892
307.841
295.606
292.283
294.744
303.76
313.383
316.328
313.299
306.024
293.882
292.034
296.515
306.549
314.635
315.551
312.364
304.321
292.917
292.534
298.61
309.311
317.069
317.076
312.191
306.72
292.806
293.672
300.201
309.208
315.226
315.107
312.199
306.551
293.396
295.349
302.048
309.948
315.391
314.788
310.194
306.347
294.68
297.16
303.197
309.499
313.204
312.842
296.133
298.818
303.609
308.248
311.616
312.933
297.205
299.501
302.952
306.169
308.835
311.331
297.819
299.409
301.159
303.334
307.187
310.065
297.694
298.046
298.188
300.69
306.19
309.028
296.787
295.543
295.29
299.662
306.771
295.178
292.629
293.739
301.186
309.503
293.139
290.371
293.537
302.527
311.252
291.154
289.406
294.592
304.017
312.521
289.5
288.981
295.356
305.54
313.154
288.708
289.164
296.398
306.611
312.777
288.576
289.595
297.136
307.233
313.276
289.454
291.367
298.843
306.505
310.505
291.133
293.746
300.7
306.619
309.081
293.106
296.164
301.895
305.479
306.312
294.923
297.817
301.891
303.584
304.335
296.285
298.299
300.514
300.68
301.297
297.053
297.852
297.891
298.159
300.779
297.119
296.316
294.906
296.685
301.522
296.497
293.875
292.395
297.236
305.046
295.032
291.307
291.289
299.857
308.996
293.354
289.65
291.594
301.573
311.518
291.903
288.962
292.956
303.807
312.662
290.917
288.931
294.216
306.035
314.889
290.597
289.593
296.084
308.201
314.966
290.922
290.787
297.829
309.764
316.081
292.028
292.672
299.421
308.913
313.348
293.602
294.886
301.191
308.681
312.519
295.378
297.132
302.71
307.974
309.557
297.069
299.031
303.607
306.487
307.25
298.44
300.283
303.505
304.639
304.653
299.398
300.929
302.973
303.069
302.711
299.849
300.723
301.172
300.884
302.096
299.912
299.864
298.558
298.545
300.791
300.8
300.742
300.663
300.605
300.578
300.586
300.637
300.696
300.776
300.873
300.966
301.045
301.12
301.162
300.766
300.71
300.6
300.529
300.481
300.485
300.518
300.571
300.643
300.731
300.821
300.9
300.966
301.001
300.671
300.624
300.535
300.484
300.436
300.433
300.446
300.479
300.525
300.587
300.655
300.725
300.793
300.86
300.541
300.496
300.431
300.395
300.354
300.351
300.355
300.375
300.402
300.442
300.49
300.544
300.6
300.681
300.365
300.345
300.304
300.289
300.261
300.256
300.252
300.258
300.27
300.292
300.326
300.373
300.428
300.53
300.163
300.169
300.16
300.162
300.148
300.14
300.129
300.126
300.125
300.133
300.153
300.195
300.253
300.363
299.96
299.989
300.012
300.03
300.029
300.018
300.003
299.99
299.979
299.974
299.984
300.024
300.092
300.212
299.767
299.818
299.867
299.896
299.903
299.893
299.873
299.852
299.837
299.824
299.828
299.868
299.945
300.075
299.6
299.678
299.746
299.785
299.797
299.787
299.761
299.73
299.709
299.696
299.697
299.742
299.828
299.967
299.492
299.579
299.657
299.698
299.704
299.69
299.657
299.619
299.589
299.578
299.583
299.639
299.727
299.87
299.424
299.537
299.621
299.664
299.653
299.628
299.579
299.529
299.487
299.477
299.497
299.568
299.653
299.8
299.396
299.539
299.611
299.653
299.613
299.576
299.507
299.446
299.385
299.368
299.384
299.46
299.544
299.666
299.367
299.558
299.626
299.685
299.631
299.579
299.477
299.38
299.285
299.257
299.278
299.362
299.439
299.562
299.38
299.575
299.647
299.696
299.621
299.57
299.45
299.324
299.199
299.14
299.122
299.152
299.161
299.291
302.113
302.115
302.079
302.067
302.067
302.096
302.135
302.187
302.242
302.311
302.396
302.487
302.587
302.655
302.015
302.033
301.997
301.998
301.998
302.026
302.06
302.109
302.16
302.222
302.296
302.375
302.458
302.53
301.874
301.915
301.903
301.927
301.94
301.973
302.005
302.046
302.089
302.139
302.197
302.261
302.34
302.417
301.728
301.783
301.8
301.845
301.872
301.906
301.936
301.97
302.006
302.046
302.094
302.147
302.214
302.293
301.571
301.649
301.695
301.753
301.79
301.824
301.849
301.874
301.901
301.93
301.97
302.016
302.078
302.166
301.408
301.505
301.578
301.647
301.692
301.723
301.744
301.759
301.777
301.797
301.828
301.869
301.928
302.029
301.243
301.355
301.452
301.532
301.586
301.615
301.629
301.635
301.644
301.654
301.675
301.712
301.775
301.888
301.094
301.216
301.331
301.418
301.475
301.501
301.509
301.507
301.508
301.509
301.523
301.559
301.629
301.755
300.983
301.11
301.231
301.323
301.381
301.404
301.402
301.389
301.383
301.378
301.387
301.426
301.507
301.644
300.926
301.048
301.161
301.249
301.302
301.316
301.302
301.279
301.265
301.262
301.273
301.32
301.413
301.556
300.909
301.036
301.134
301.217
301.253
301.25
301.222
301.184
301.16
301.161
301.182
301.247
301.355
301.501
300.918
301.059
301.135
301.205
301.216
301.194
301.149
301.098
301.063
301.067
301.1
301.186
301.299
301.448
300.916
301.102
301.162
301.221
301.211
301.165
301.095
301.018
300.969
300.979
301.028
301.138
301.264
301.452
300.948
301.146
301.183
301.248
301.214
301.146
301.051
300.951
300.887
300.889
300.918
301.015
301.115
301.325
303.408
303.44
303.456
303.484
303.507
303.541
303.574
303.616
303.663
303.721
303.8
303.896
304.009
304.117
303.277
303.334
303.359
303.401
303.434
303.472
303.509
303.55
303.594
303.644
303.711
303.792
303.891
304.007
303.147
303.218
303.265
303.323
303.37
303.415
303.456
303.496
303.538
303.583
303.642
303.713
303.806
303.917
303.026
303.109
303.174
303.245
303.301
303.351
303.393
303.432
303.472
303.514
303.568
303.634
303.719
303.823
302.907
303.003
303.085
303.166
303.231
303.283
303.325
303.36
303.397
303.436
303.487
303.551
303.631
303.735
302.801
302.904
302.999
303.086
303.156
303.209
303.248
303.28
303.314
303.351
303.4
303.462
303.541
303.651
302.707
302.814
302.918
303.012
303.084
303.135
303.171
303.199
303.229
303.263
303.31
303.373
303.455
303.575
302.643
302.747
302.854
302.947
303.017
303.064
303.095
303.118
303.143
303.175
303.221
303.287
303.376
303.51
302.611
302.709
302.81
302.9
302.966
303.006
303.029
303.046
303.066
303.096
303.141
303.212
303.312
303.462
302.616
302.7
302.787
302.868
302.926
302.957
302.97
302.979
302.996
303.026
303.073
303.152
303.265
303.431
302.633
302.712
302.783
302.854
302.9
302.918
302.918
302.92
302.935
302.967
303.021
303.114
303.24
303.424
302.661
302.744
302.794
302.849
302.875
302.878
302.868
302.863
302.877
302.917
302.983
303.095
303.234
303.436
302.68
302.779
302.816
302.858
302.865
302.85
302.823
302.808
302.819
302.869
302.952
303.09
303.245
303.467
302.69
302.817
302.836
302.865
302.853
302.821
302.781
302.76
302.769
302.822
302.913
303.06
303.223
303.453
304.762
304.843
304.896
304.954
304.998
305.038
305.073
305.108
305.15
305.204
305.279
305.376
305.498
305.631
304.678
304.756
304.818
304.881
304.933
304.977
305.015
305.051
305.092
305.144
305.213
305.306
305.42
305.563
304.594
304.675
304.746
304.814
304.872
304.92
304.961
304.999
305.041
305.092
305.158
305.246
305.358
305.497
304.524
304.607
304.684
304.756
304.817
304.866
304.909
304.947
304.99
305.042
305.108
305.195
305.304
305.44
304.47
304.552
304.633
304.706
304.768
304.818
304.86
304.9
304.944
304.998
305.066
305.154
305.261
305.396
304.436
304.514
304.593
304.665
304.727
304.776
304.817
304.858
304.904
304.961
305.032
305.123
305.23
305.366
304.427
304.497
304.571
304.639
304.696
304.742
304.782
304.822
304.87
304.93
305.005
305.1
305.21
305.35
304.436
304.5
304.567
304.626
304.676
304.717
304.753
304.793
304.841
304.904
304.983
305.083
305.2
305.346
304.459
304.515
304.575
304.625
304.667
304.7
304.732
304.77
304.819
304.884
304.968
305.075
305.2
305.354
304.494
304.537
304.586
304.627
304.66
304.686
304.713
304.75
304.8
304.869
304.958
305.072
305.208
305.373
304.536
304.566
304.598
304.629
304.653
304.672
304.694
304.729
304.781
304.856
304.954
305.08
305.227
305.408
304.564
304.59
304.605
304.625
304.639
304.652
304.669
304.704
304.762
304.848
304.959
305.101
305.26
305.457
304.571
304.606
304.612
304.624
304.627
304.631
304.644
304.677
304.74
304.84
304.969
305.134
305.309
305.526
304.582
304.621
304.611
304.618
304.61
304.609
304.621
304.656
304.726
304.839
304.987
305.167
305.361
305.579
305.982
306.048
306.104
306.157
306.201
306.236
306.27
306.307
306.354
306.419
306.505
306.62
306.752
306.91
305.953
306.015
306.069
306.119
306.161
306.196
306.229
306.266
306.314
306.379
306.464
306.578
306.707
306.87
305.938
305.992
306.045
306.091
306.129
306.161
306.194
306.231
306.277
306.342
306.425
306.536
306.667
306.827
305.937
305.983
306.029
306.07
306.104
306.135
306.166
306.204
306.251
306.317
306.401
306.513
306.642
306.801
305.943
305.984
306.024
306.058
306.088
306.117
306.148
306.187
306.237
306.306
306.393
306.507
306.637
306.796
305.961
305.994
306.029
306.057
306.083
306.11
306.142
306.183
306.238
306.311
306.403
306.52
306.652
306.81
305.991
306.014
306.041
306.064
306.087
306.113
306.146
306.191
306.251
306.33
306.428
306.549
306.683
306.84
306.027
306.041
306.059
306.076
306.096
306.121
306.155
306.204
306.27
306.357
306.462
306.589
306.727
306.884
306.065
306.071
306.081
306.092
306.108
306.132
306.169
306.223
306.296
306.391
306.504
306.638
306.781
306.94
306.1
306.099
306.103
306.109
306.122
306.146
306.186
306.246
306.326
306.43
306.553
306.694
306.844
307.005
306.135
306.126
306.123
306.125
306.137
306.16
306.202
306.269
306.358
306.472
306.605
306.755
306.912
307.079
306.157
306.147
306.138
306.138
306.149
306.173
306.218
306.291
306.391
306.517
306.661
306.822
306.986
307.158
306.169
306.166
306.154
306.152
306.163
306.188
306.236
306.315
306.424
306.563
306.721
306.894
307.065
307.247
306.172
306.178
306.164
306.163
306.173
306.2
306.254
306.341
306.46
306.609
306.779
306.961
307.14
307.322
306.963
306.988
307.014
307.038
307.062
307.087
307.118
307.16
307.213
307.288
307.379
307.497
307.624
307.777
306.983
307
307.017
307.034
307.052
307.073
307.102
307.145
307.201
307.28
307.376
307.499
307.626
307.779
307.007
307.019
307.03
307.041
307.053
307.07
307.097
307.137
307.193
307.27
307.365
307.486
307.616
307.768
307.04
307.046
307.05
307.055
307.063
307.079
307.104
307.144
307.198
307.276
307.37
307.489
307.619
307.77
307.077
307.077
307.077
307.076
307.08
307.094
307.119
307.159
307.214
307.292
307.387
307.506
307.637
307.788
307.115
307.111
307.106
307.101
307.104
307.118
307.144
307.186
307.244
307.324
307.422
307.542
307.675
307.825
307.154
307.146
307.136
307.13
307.134
307.149
307.178
307.224
307.287
307.372
307.475
307.598
307.733
307.881
307.189
307.179
307.167
307.161
307.167
307.185
307.218
307.271
307.341
307.434
307.543
307.67
307.808
307.954
307.222
307.211
307.198
307.193
307.202
307.224
307.264
307.325
307.405
307.507
307.624
307.755
307.896
308.039
307.251
307.239
307.228
307.227
307.239
307.267
307.315
307.385
307.475
307.587
307.712
307.85
307.993
308.134
307.279
307.267
307.26
307.262
307.278
307.312
307.369
307.449
307.55
307.672
307.806
307.95
308.095
308.235
307.307
307.299
307.293
307.298
307.319
307.361
307.426
307.516
307.628
307.76
307.903
308.053
308.2
308.338
307.338
307.335
307.331
307.34
307.366
307.415
307.489
307.589
307.712
307.854
308.005
308.16
308.305
308.446
307.371
307.38
307.375
307.39
307.421
307.476
307.558
307.665
307.795
307.942
308.098
308.254
308.404
308.544
307.659
307.658
307.658
307.664
307.676
307.697
307.729
307.776
307.835
307.916
308.004
308.111
308.215
308.342
307.685
307.68
307.676
307.679
307.689
307.709
307.741
307.79
307.853
307.937
308.03
308.141
308.248
308.367
307.717
307.709
307.703
307.704
307.712
307.73
307.761
307.809
307.871
307.954
308.045
308.154
308.262
308.383
307.756
307.745
307.738
307.737
307.744
307.762
307.792
307.841
307.903
307.985
308.077
308.184
308.292
308.41
307.8
307.786
307.779
307.778
307.785
307.803
307.834
307.883
307.946
308.027
308.119
308.225
308.332
308.45
307.845
307.832
307.825
307.825
307.833
307.853
307.887
307.938
308.002
308.083
308.174
308.279
308.387
308.503
307.89
307.879
307.874
307.877
307.888
307.912
307.949
308.002
308.069
308.152
308.244
308.348
308.456
308.571
307.935
307.929
307.927
307.933
307.949
307.977
308.019
308.077
308.148
308.232
308.327
308.431
308.54
308.651
307.98
307.98
307.981
307.992
308.014
308.048
308.097
308.16
308.236
308.324
308.422
308.525
308.636
308.743
308.029
308.034
308.04
308.056
308.084
308.125
308.18
308.249
308.331
308.423
308.524
308.629
308.739
308.842
308.078
308.091
308.1
308.122
308.157
308.205
308.268
308.344
308.433
308.53
308.634
308.74
308.849
308.946
308.136
308.155
308.168
308.195
308.236
308.291
308.361
308.443
308.537
308.639
308.746
308.852
308.96
309.051
308.196
308.22
308.236
308.27
308.317
308.38
308.458
308.549
308.65
308.756
308.864
308.97
309.071
309.159
308.268
308.302
308.321
308.36
308.413
308.481
308.563
308.658
308.76
308.866
308.973
309.076
309.176
309.26
308.083
308.088
308.092
308.104
308.122
308.15
308.188
308.239
308.297
308.367
308.438
308.516
308.585
308.669
308.107
308.113
308.115
308.126
308.144
308.176
308.216
308.271
308.331
308.403
308.477
308.557
308.63
308.706
308.142
308.145
308.148
308.16
308.18
308.212
308.254
308.309
308.37
308.441
308.514
308.593
308.665
308.743
308.183
308.184
308.189
308.202
308.225
308.258
308.302
308.357
308.419
308.489
308.562
308.639
308.712
308.788
308.231
308.232
308.239
308.254
308.279
308.314
308.359
308.415
308.477
308.547
308.618
308.694
308.766
308.841
308.286
308.288
308.297
308.315
308.342
308.379
308.425
308.481
308.543
308.612
308.682
308.756
308.828
308.901
308.344
308.349
308.361
308.383
308.412
308.452
308.5
308.556
308.618
308.685
308.755
308.827
308.897
308.968
308.407
308.418
308.432
308.457
308.489
308.531
308.58
308.637
308.699
308.765
308.834
308.903
308.974
309.041
308.472
308.489
308.507
308.535
308.571
308.615
308.666
308.723
308.786
308.851
308.919
308.986
309.056
309.12
308.544
308.567
308.587
308.618
308.657
308.703
308.756
308.814
308.877
308.941
309.008
309.073
309.142
309.202
308.616
308.645
308.667
308.702
308.744
308.793
308.849
308.908
308.971
309.035
309.1
309.164
309.231
309.286
308.695
308.73
308.754
308.792
308.836
308.887
308.944
309.004
309.066
309.129
309.193
309.255
309.32
309.37
308.771
308.81
308.836
308.878
308.926
308.98
309.039
309.101
309.164
309.227
309.288
309.348
309.406
309.453
308.857
308.9
308.929
308.973
309.022
309.077
309.137
309.197
309.259
309.319
309.378
309.434
309.489
309.531
308.316
308.336
308.349
308.369
308.393
308.424
308.458
308.5
308.541
308.587
308.63
308.676
308.717
308.765
308.354
308.371
308.386
308.406
308.431
308.464
308.5
308.543
308.586
308.633
308.677
308.724
308.767
308.814
308.4
308.411
308.428
308.449
308.477
308.512
308.551
308.595
308.639
308.686
308.73
308.777
308.818
308.866
308.448
308.458
308.477
308.501
308.531
308.568
308.608
308.653
308.697
308.744
308.788
308.834
308.875
308.922
308.502
308.512
308.533
308.559
308.591
308.63
308.672
308.717
308.761
308.808
308.851
308.896
308.937
308.982
308.561
308.573
308.596
308.623
308.657
308.697
308.739
308.784
308.829
308.874
308.918
308.961
309.002
309.044
308.623
308.638
308.663
308.692
308.727
308.768
308.811
308.855
308.9
308.944
308.987
309.029
309.069
309.109
308.69
308.709
308.734
308.765
308.801
308.841
308.884
308.927
308.972
309.014
309.056
309.097
309.137
309.174
308.758
308.781
308.807
308.84
308.876
308.916
308.959
309.001
309.045
309.086
309.128
309.168
309.208
309.242
308.828
308.856
308.882
308.916
308.953
308.992
309.035
309.076
309.119
309.159
309.201
309.239
309.279
309.311
308.897
308.93
308.956
308.992
309.028
309.069
309.111
309.152
309.194
309.234
309.274
309.311
309.35
309.38
308.968
309.006
309.032
309.069
309.106
309.147
309.189
309.229
309.27
309.308
309.348
309.383
309.422
309.449
309.035
309.076
309.103
309.142
309.181
309.223
309.266
309.306
309.346
309.384
309.421
309.456
309.491
309.516
309.107
309.149
309.179
309.218
309.259
309.301
309.343
309.382
309.421
309.456
309.492
309.524
309.559
309.58
308.355
308.382
308.408
308.436
308.466
308.498
308.531
308.565
308.598
308.631
308.662
308.692
308.72
308.745
308.409
308.432
308.456
308.485
308.516
308.55
308.584
308.619
308.652
308.686
308.716
308.748
308.774
308.803
308.463
308.485
308.511
308.54
308.572
308.607
308.643
308.679
308.712
308.746
308.776
308.807
308.833
308.862
308.522
308.54
308.567
308.597
308.631
308.668
308.705
308.742
308.777
308.811
308.84
308.871
308.896
308.924
308.582
308.599
308.628
308.659
308.695
308.732
308.77
308.808
308.843
308.876
308.906
308.935
308.96
308.985
308.644
308.662
308.692
308.724
308.76
308.798
308.837
308.874
308.91
308.943
308.972
309
309.024
309.047
308.707
308.727
308.757
308.79
308.827
308.865
308.904
308.941
308.976
309.008
309.037
309.064
309.087
309.108
308.773
308.795
308.825
308.858
308.895
308.932
308.97
309.006
309.041
309.072
309.1
309.125
309.147
309.166
308.837
308.863
308.892
308.926
308.962
308.999
309.036
309.071
309.104
309.134
309.161
309.184
309.206
309.222
308.901
308.93
308.959
308.993
309.029
309.064
309.1
309.133
309.165
309.193
309.22
309.242
309.263
309.277
308.962
308.994
309.023
309.058
309.092
309.127
309.162
309.194
309.224
309.251
309.276
309.297
309.318
309.33
309.02
309.056
309.085
309.12
309.154
309.188
309.222
309.252
309.281
309.306
309.331
309.351
309.372
309.382
309.072
309.11
309.14
309.176
309.211
309.245
309.279
309.308
309.336
309.361
309.384
309.403
309.422
309.433
309.122
309.161
309.194
309.231
309.267
309.302
309.334
309.363
309.389
309.412
309.434
309.453
309.472
309.481
308.249
308.274
308.304
308.335
308.365
308.395
308.423
308.45
308.473
308.495
308.514
308.531
308.547
308.56
308.309
308.33
308.36
308.391
308.422
308.453
308.482
308.51
308.533
308.556
308.575
308.592
308.607
308.621
308.371
308.391
308.422
308.452
308.484
308.515
308.544
308.571
308.595
308.617
308.636
308.653
308.667
308.68
308.432
308.45
308.482
308.511
308.544
308.575
308.606
308.634
308.658
308.681
308.7
308.717
308.731
308.744
308.49
308.51
308.541
308.571
308.604
308.636
308.667
308.695
308.72
308.743
308.762
308.779
308.792
308.805
308.549
308.57
308.6
308.63
308.663
308.695
308.726
308.755
308.781
308.804
308.823
308.84
308.852
308.864
308.605
308.628
308.657
308.688
308.721
308.753
308.784
308.813
308.839
308.862
308.881
308.897
308.909
308.92
308.661
308.685
308.714
308.746
308.778
308.81
308.841
308.869
308.895
308.917
308.935
308.95
308.963
308.973
308.714
308.74
308.769
308.801
308.833
308.865
308.895
308.923
308.948
308.969
308.987
309.001
309.014
309.023
308.768
308.795
308.824
308.855
308.887
308.918
308.947
308.973
308.997
309.018
309.035
309.049
309.063
309.07
308.817
308.846
308.875
308.907
308.938
308.968
308.997
309.022
309.045
309.064
309.082
309.096
309.11
309.116
308.864
308.895
308.925
308.957
308.988
309.017
309.044
309.068
309.09
309.108
309.126
309.14
309.155
309.161
308.905
308.937
308.969
309.001
309.033
309.062
309.089
309.112
309.134
309.153
309.17
309.184
309.199
309.205
308.94
308.976
309.011
309.045
309.077
309.106
309.133
309.156
309.177
309.195
309.212
309.227
309.241
309.246
308.077
308.092
308.115
308.139
308.164
308.188
308.21
308.23
308.248
308.264
308.277
308.289
308.301
308.309
308.139
308.15
308.173
308.196
308.22
308.244
308.266
308.286
308.303
308.318
308.33
308.342
308.353
308.362
308.197
308.208
308.231
308.253
308.277
308.299
308.321
308.34
308.357
308.371
308.383
308.395
308.405
308.414
308.252
308.264
308.286
308.308
308.331
308.354
308.375
308.394
308.411
308.425
308.437
308.449
308.458
308.468
308.302
308.317
308.338
308.36
308.384
308.406
308.427
308.446
308.462
308.478
308.49
308.502
308.511
308.522
308.351
308.369
308.39
308.412
308.435
308.456
308.477
308.496
308.513
308.529
308.542
308.554
308.563
308.575
308.397
308.416
308.438
308.46
308.483
308.505
308.526
308.545
308.562
308.578
308.591
308.603
308.614
308.625
308.441
308.462
308.484
308.507
308.53
308.552
308.573
308.592
308.609
308.625
308.64
308.652
308.664
308.674
308.482
308.505
308.528
308.551
308.575
308.597
308.618
308.638
308.656
308.672
308.687
308.7
308.713
308.722
308.523
308.547
308.571
308.595
308.619
308.642
308.663
308.682
308.701
308.717
308.733
308.746
308.761
308.77
308.56
308.586
308.611
308.637
308.662
308.685
308.707
308.727
308.746
308.763
308.78
308.793
308.81
308.818
308.599
308.627
308.654
308.68
308.705
308.728
308.751
308.771
308.79
308.807
308.824
308.839
308.857
308.866
308.634
308.663
308.692
308.72
308.746
308.771
308.794
308.815
308.835
308.853
308.872
308.887
308.906
308.915
308.671
308.704
308.735
308.764
308.791
308.816
308.839
308.86
308.88
308.898
308.917
308.933
308.951
308.963
307.864
307.862
307.871
307.883
307.897
307.912
307.929
307.945
307.961
307.977
307.992
308.008
308.023
308.037
307.92
307.916
307.926
307.937
307.95
307.965
307.98
307.995
308.01
308.024
308.037
308.051
308.064
308.078
307.968
307.968
307.978
307.99
308.002
308.015
308.029
308.043
308.056
308.069
308.081
308.094
308.106
308.12
308.014
308.019
308.03
308.04
308.052
308.064
308.077
308.09
308.102
308.115
308.126
308.139
308.15
308.164
308.058
308.066
308.077
308.088
308.1
308.112
308.124
308.136
308.147
308.159
308.171
308.183
308.195
308.209
308.101
308.111
308.123
308.135
308.146
308.158
308.17
308.182
308.193
308.205
308.217
308.229
308.241
308.255
308.141
308.153
308.166
308.179
308.192
308.204
308.216
308.227
308.239
308.251
308.263
308.275
308.288
308.302
308.18
308.195
308.209
308.223
308.236
308.249
308.261
308.273
308.285
308.298
308.311
308.323
308.337
308.351
308.217
308.235
308.251
308.266
308.28
308.294
308.307
308.32
308.333
308.345
308.359
308.372
308.388
308.401
308.256
308.276
308.293
308.309
308.325
308.339
308.353
308.366
308.38
308.394
308.409
308.423
308.44
308.453
308.295
308.315
308.334
308.352
308.369
308.384
308.4
308.415
308.43
308.444
308.46
308.475
308.494
308.506
308.337
308.359
308.379
308.397
308.415
308.431
308.448
308.463
308.479
308.495
308.512
308.528
308.549
308.561
308.377
308.4
308.421
308.442
308.461
308.479
308.497
308.514
308.531
308.548
308.566
308.583
308.605
308.618
308.424
308.448
308.471
308.492
308.511
308.529
308.548
308.565
308.582
308.6
308.618
308.637
308.659
308.675
307.71
307.702
307.702
307.703
307.704
307.707
307.713
307.722
307.732
307.744
307.758
307.774
307.789
307.807
307.756
307.748
307.749
307.749
307.751
307.754
307.759
307.766
307.776
307.786
307.799
307.812
307.826
307.842
307.795
307.79
307.792
307.793
307.795
307.798
307.803
307.809
307.817
307.826
307.836
307.848
307.861
307.876
307.835
307.833
307.836
307.837
307.839
307.842
307.846
307.852
307.858
307.867
307.876
307.887
307.899
307.913
307.872
307.874
307.877
307.879
307.882
307.885
307.889
307.894
307.9
307.907
307.915
307.926
307.936
307.95
307.909
307.913
307.918
307.921
307.924
307.928
307.932
307.936
307.942
307.948
307.957
307.966
307.977
307.99
307.946
307.952
307.958
307.962
307.966
307.97
307.974
307.979
307.984
307.991
307.999
308.008
308.019
308.031
307.983
307.991
307.998
308.003
308.008
308.013
308.017
308.022
308.028
308.035
308.043
308.053
308.064
308.076
308.02
308.03
308.038
308.044
308.05
308.056
308.061
308.067
308.073
308.08
308.089
308.099
308.111
308.122
308.059
308.07
308.079
308.087
308.093
308.1
308.106
308.112
308.119
308.127
308.137
308.147
308.161
308.171
308.099
308.111
308.121
308.13
308.137
308.145
308.152
308.159
308.167
308.175
308.186
308.198
308.212
308.221
308.144
308.155
308.165
308.175
308.183
308.191
308.199
308.207
308.216
308.225
308.237
308.25
308.266
308.275
308.187
308.199
308.21
308.22
308.23
308.239
308.248
308.257
308.267
308.277
308.29
308.304
308.321
308.332
308.238
308.248
308.261
308.27
308.279
308.289
308.298
308.308
308.319
308.33
308.343
308.358
308.376
308.39
307.657
307.647
307.642
307.635
307.627
307.621