/*--------------------------------*- C++ -*----------------------------------*\
| =========                 |                                                 |
| \\      /  F ield         | OpenFOAM: The Open Source CFD Toolbox           |
|  \\    /   O peration     | Version:  v2106                                 |
|   \\  /    A nd           | Website:  www.openfoam.com                      |
|    \\/     M anipulation  |                                                 |
\*---------------------------------------------------------------------------*/
FoamFile
{
    version     2.0;
    format      ascii;
    arch        "LSB;label=32;scalar=64";
    class       volScalarField;
    location    "0.000143";
    object      k;
}
// * * * * * * * * * * * * * * * * * * * * * * * * * * * * * * * * * * * * * //

dimensions      [0 2 -2 0 0 0 0];

internalField   nonuniform List<scalar> 
18273
(
7.79405
6.64699
5.75031
4.69616
3.65732
2.59992
1.83105
1.27104
0.908626
0.712761
0.760756
1.13813
1.8795
3.05321
6.19768
5.26722
4.46464
3.49811
2.58266
1.72358
1.1566
0.759488
0.51972
0.420188
0.530489
0.943212
1.6498
2.62728
4.57189
3.76506
3.07224
2.2342
1.46828
0.879913
0.533053
0.322819
0.214629
0.195187
0.33719
0.755317
1.4371
2.31718
3.14525
2.47158
1.80335
1.10693
0.571969
0.295525
0.151843
0.0828184
0.0569462
0.071987
0.198334
0.561315
1.17735
1.96922
2.2312
1.61803
1.00323
0.504929
0.231966
0.0955435
0.0359907
0.0141356
0.0100829
0.0265343
0.11925
0.398823
0.916765
1.60168
1.87643
1.35148
0.858657
0.478216
0.222839
0.0841987
0.0251805
0.00630467
0.00299833
0.0133113
0.0753915
0.275651
0.683656
1.2589
1.97467
1.53168
1.08401
0.639106
0.299898
0.110716
0.0336793
0.0114786
0.00699921
0.0130269
0.0552424
0.19965
0.512478
0.983493
2.40812
1.99498
1.49731
0.930474
0.460071
0.180476
0.064814
0.0336592
0.0278128
0.0324102
0.0611587
0.162687
0.394092
0.764924
3.05565
2.61363
2.03213
1.34228
0.71642
0.309211
0.135378
0.0943201
0.0932685
0.106066
0.133669
0.209259
0.370517
0.640134
4.02544
3.47928
2.73403
1.87409
1.07439
0.51646
0.271326
0.227336
0.24961
0.293579
0.343504
0.417155
0.522983
0.697551
5.09778
4.47464
3.55296
2.4978
1.52598
0.820657
0.501447
0.466882
0.540187
0.649667
0.753667
0.853527
0.924237
1.02227
6.28601
5.58071
4.45413
3.1822
2.05134
1.22858
0.846472
0.825763
0.966374
1.16887
1.35479
1.50924
1.58206
1.64729
7.29397
6.51846
5.23593
3.7883
2.54948
1.6851
1.28448
1.27853
1.48044
1.78258
2.08463
2.34581
2.50003
2.63457
8.58679
7.47449
5.98977
4.35625
3.01074
2.13924
1.75531
1.77388
2.03887
2.45854
2.92124
3.35481
3.67395
4.0242
9.22583
7.83324
6.69093
5.33806
4.09253
2.88524
2.00982
1.37095
1.01691
0.979547
1.39875
2.29855
3.6481
5.49876
8.53198
7.09923
5.85453
4.45056
3.22255
2.0858
1.31846
0.817882
0.574394
0.603116
1.03784
1.91802
3.08966
4.47582
7.1239
5.7302
4.56234
3.24356
2.07075
1.15736
0.630116
0.343514
0.234194
0.306155
0.707578
1.52154
2.57097
3.71593
5.33369
4.14169
3.0081
1.83414
0.911677
0.417493
0.183444
0.0858211
0.0638827
0.133165
0.433623
1.09555
2.00278
2.98697
3.83178
2.74608
1.67625
0.800607
0.336621
0.128557
0.0429495
0.0142205
0.0137231
0.0593875
0.255379
0.738016
1.48557
2.32095
2.85757
1.94646
1.1429
0.615061
0.287756
0.108226
0.0308088
0.00738633
0.0057152
0.0311579
0.149584
0.472507
1.04074
1.74032
2.5692
1.91716
1.33548
0.822488
0.397439
0.148109
0.0450669
0.0170986
0.0131583
0.0279323
0.101645
0.316759
0.731483
1.29997
2.85421
2.39718
1.88638
1.24281
0.64515
0.259649
0.0955627
0.0549382
0.0510704
0.0656739
0.116982
0.263555
0.563234
1.0096
3.43575
3.09409
2.59926
1.85874
1.06128
0.475414
0.210769
0.15495
0.166354
0.206614
0.272545
0.4021
0.627894
0.961426
4.38265
4.08858
3.54087
2.67462
1.67002
0.839044
0.432151
0.363319
0.424592
0.539825
0.676601
0.850455
1.04639
1.29775
5.45888
5.23865
4.66717
3.6704
2.46696
1.38985
0.805851
0.716937
0.864026
1.10974
1.37099
1.64124
1.84951
2.05971
6.81901
6.66007
6.02243
4.81543
3.41459
2.12549
1.36194
1.22176
1.44358
1.83389
2.2405
2.64995
2.95195
3.22602
7.96287
7.95172
7.31832
5.91483
4.34256
2.94572
2.06136
1.84033
2.07534
2.56685
3.13931
3.7507
4.28637
4.83785
9.52116
9.47493
8.62324
6.98987
5.21196
3.72684
2.7757
2.48187
2.70285
3.28029
4.04402
4.90301
5.72531
6.739
8.11839
6.94669
6.04286
4.92565
3.9247
2.8912
2.0727
1.4584
1.25147
1.6055
2.62139
4.12399
5.86172
7.67893
8.59072
7.24953
6.06199
4.70072
3.45767
2.25547
1.37936
0.832521
0.68073
1.00485
1.94412
3.33619
4.79997
6.08896
8.35478
6.84367
5.47487
3.9508
2.51635
1.33963
0.658306
0.332039
0.273172
0.534407
1.32398
2.5787
3.85999
4.86855
7.295
5.69958
4.1211
2.53471
1.23929
0.499844
0.18551
0.078188
0.0797885
0.2488
0.79733
1.79255
2.90703
3.79962
5.89627
4.15173
2.45719
1.17177
0.431332
0.144686
0.041027
0.0124136
0.0221598
0.114445
0.443978
1.14478
2.07133
2.89405
4.37401
2.78322
1.45177
0.691822
0.311112
0.111508
0.0290223
0.00685318
0.0101144
0.0568741
0.237935
0.675964
1.3657
2.11192
3.45112
2.31477
1.46118
0.88674
0.424769
0.154551
0.0453699
0.0187401
0.0182277
0.0459363
0.155042
0.435205
0.930628
1.56562
3.36721
2.68673
2.08963
1.38739
0.723292
0.28836
0.105311
0.0659012
0.0682987
0.0993704
0.1838
0.387793
0.761407
1.28783
3.66041
3.30441
2.88497
2.14376
1.25841
0.564955
0.248172
0.193965
0.225196
0.306971
0.439687
0.668966
1.01787
1.4855
4.2677
4.13739
3.85484
3.15978
2.10056
1.08031
0.540489
0.462275
0.573176
0.783976
1.05992
1.41422
1.81408
2.27267
4.85994
4.98856
4.9375
4.35315
3.23235
1.91159
1.06899
0.913796
1.1432
1.54716
2.02048
2.54614
3.03072
3.5349
5.78762
6.11706
6.21909
5.68629
4.56441
3.06069
1.90168
1.56677
1.83658
2.41646
3.05541
3.76507
4.41837
5.06341
6.59538
7.18498
7.47816
6.9838
5.91256
4.39042
3.00792
2.4131
2.55962
3.16932
3.90978
4.80401
5.73166
6.71817
7.81599
8.55131
8.78656
8.25504
7.17615
5.63544
4.14319
3.3085
3.25077
3.77431
4.56151
5.59
6.703
8.11948
4.67475
6.38638
8.37414
11.2498
18.7436
6.39712
3.8135
5.27119
7.23247
9.95048
16.2227
5.04582
3.36117
4.76051
6.74996
9.73292
16.8064
4.51527
2.91147
4.24972
6.25814
9.61923
18.6742
4.46165
2.41629
3.59527
5.45086
9.05836
20.9837
4.65836
1.94796
2.91264
4.45668
8.00258
22.7986
4.98833
1.55771
2.31839
3.56019
6.83764
23.2883
5.46441
1.23842
1.85137
2.87129
5.76019
22.8727
5.90939
1.01563
1.53686
2.40319
4.94846
21.7409
6.32279
0.9713
1.44204
2.23337
4.54816
20.3189
6.66322
1.20476
1.68061
2.50334
4.70205
19.2995
7.04028
1.7744
2.34536
3.3527
5.57743
18.7962
7.61717
2.73076
3.54118
4.9109
7.25654
18.653
8.34963
4.07116
5.29473
7.09666
9.62973
19.3287
8.40753
7.4769
9.18754
10.4994
12.3145
14.589
6.72894
5.81306
7.44398
9.22813
11.59
14.5534
6.50436
4.88086
6.45259
8.49089
11.3539
15.6444
6.62912
4.01343
5.43596
7.46333
10.7252
16.893
6.74768
3.17964
4.35258
6.09319
9.43405
17.7916
6.72847
2.46157
3.37893
4.7278
7.76812
18.0254
6.56265
1.9041
2.62051
3.64865
6.13453
17.3547
6.32385
1.51283
2.11973
2.98584
4.9743
15.8714
6.15165
1.36873
1.9513
2.75226
4.47781
14.2342
6.15223
1.60883
2.22834
3.08168
4.76694
13.2166
6.22133
2.30687
3.06365
4.10786
5.91415
12.9277
6.4318
3.45252
4.47306
5.82507
7.77988
13.353
6.8359
5.0365
6.40355
8.07789
10.1424
14.2698
7.37805
6.84806
8.50094
10.3341
12.3516
15.6056
7.51085
8.71856
9.33928
9.35523
9.86652
10.3055
11.7976
6.72332
7.55423
8.2426
9.22909
10.1642
10.9746
5.53029
6.37825
7.31022
8.54814
10.0519
10.0143
4.44804
5.22479
6.16181
7.47529
9.5297
8.96607
3.50531
4.22016
5.04634
6.28053
8.9085
7.89552
2.7285
3.3822
4.09657
5.17348
8.0601
6.88606
2.16192
2.7977
3.48219
4.43657
7.12722
6.08576
1.85463
2.5426
3.28556
4.18715
6.51624
5.68588
2.01404
2.83629
3.69705
4.62293
6.54918
5.88726
2.76546
3.78447
4.84157
5.8068
7.25238
6.78308
4.01233
5.24373
6.47069
7.37031
8.14849
8.1786
5.47169
6.8156
8.03453
8.92594
9.15725
9.84381
6.96099
8.2578
9.30109
10.3412
10.1212
11.452
8.10671
9.17471
10.0216
11.0245
10.871
12.4119
5.86381
7.46562
9.32122
11.9225
18.658
6.52601
5.02832
6.51683
8.52027
11.3079
17.3996
5.14184
4.47931
6.00428
8.14328
11.4268
18.843
4.61475
3.8658
5.28436
7.48791
11.3905
21.298
4.54731
3.20783
4.38842
6.35375
10.6422
23.4794
4.65602
2.62621
3.5645
5.19155
9.46517
24.7639
4.78657
2.26585
3.03861
4.37158
8.3416
25.1512
4.91453
2.19395
2.8783
4.01919
7.55305
24.8744
5.09524
2.50539
3.15544
4.20722
7.46642
24.1519
5.33887
3.24494
3.95647
5.01191
8.09635
23.3145
5.64008
4.39646
5.29548
6.44375
9.31063
22.2395
6.20934
5.81595
6.9354
8.30204
10.8855
20.8012
7.18606
7.33732
8.62643
10.354
12.6753
19.7457
8.01901
8.58392
9.9299
11.8388
14.0981
19.295
7.66356
8.55884
10.102
11.446
13.3687
15.6317
6.90544
7.04277
8.7086
10.6971
13.3861
16.7515
6.77563
6.04758
7.69906
9.98043
13.3652
18.3772
6.90668
4.97279
6.35239
8.47809
12.353
19.4693
6.94303
3.97835
5.02326
6.74189
10.6129
19.6036
6.79791
3.28279
4.11941
5.47863
8.97496
18.937
6.53858
3.04296
3.80889
4.94287
7.91462
17.9596
6.29763
3.33757
4.10426
5.13732
7.66779
17.0833
6.20471
4.23348
5.04032
6.08312
8.4176
16.4565
6.31425
5.63354
6.57309
7.68715
10.0853
16.2658
6.60166
7.22663
8.4257
9.62732
12.1485
16.4991
7.16964
8.59948
9.91124
11.3109
13.7273
16.8689
8.05184
9.48749
10.7172
12.3834
14.576
17.3709
8.81169
9.71488
10.896
12.7702
14.9018
18.2084
8.80016
9.01372
9.6523
10.0457
10.7186
11.1207
12.1777
7.31367
8.13128
9.01617
10.1762
11.1585
11.2664
6.14056
6.84381
7.78377
9.13172
10.7924
10.1662
5.02511
5.57805
6.35281
7.68347
9.90762
9.04155
4.21603
4.7438
5.38867
6.58643
9.15771
8.11655
3.82139
4.45652
5.11619
6.21372
8.5451
7.61863
4.08428
4.89308
5.63445
6.56353
8.42541
7.73009
5.0403
5.98758
6.79909
7.56932
8.83518
8.49336
6.49811
7.46736
8.28458
8.92015
9.47083
9.77015
7.90765
8.74425
9.43545
10.196
10.1488
11.3509
8.76111
9.42643
9.96562
11.1704
10.8547
12.9522
8.96899
9.42832
9.90423
11.4212
11.2894
14.0853
8.66828
8.98053
9.51859
10.9176
11.463
14.3147
7.87042
8.29516
8.9967
10.2375
11.6984
13.6486
7.79342
18.3493
13.1315
10.9377
9.10353
7.77716
8.69939
19.8503
12.0149
9.43913
7.50493
6.30203
8.36083
21.5339
10.623
7.64378
5.85391
4.7997
7.63729
22.9872
9.19527
6.04008
4.50053
3.5639
6.9774
24.2372
8.02813
4.87741
3.56702
2.74595
6.48139
25.2517
7.38402
4.23878
3.07676
2.34699
5.98547
26.2317
7.37619
4.09146
2.99039
2.34367
5.40829
26.9929
8.06699
4.4091
3.28737
2.69473
4.98352
26.871
9.35082
5.26906
3.99527
3.35792
4.75855
25.47
11.0264
6.72063
5.15315
4.37604
4.63695
23.1085
12.5333
8.47862
6.57624
5.51982
4.66082
20.4055
13.3833
9.9874
7.98181
6.73018
5.00229
18.0952
13.5984
11.0199
9.15001
7.85857
5.95817
17.6382
14.5749
12.4505
10.8307
9.54959
8.46188
14.7944
12.7246
11.4128
10.1509
9.1643
8.82541
15.4582
12.8077
11.071
9.64988
8.55974
8.52421
16.3134
12.3485
10.1164
8.55392
7.33784
7.94402
17.1146
11.2086
8.74028
7.16736
5.90125
7.48697
17.6156
9.55823
7.24902
5.81931
4.64956
7.14529
17.9919
8.11836
6.01468
4.783
3.68381
6.78619
18.7259
7.3209
5.2276
4.12367
3.19393
6.5796
19.5712
7.35918
4.92367
3.92568
3.22636
6.59437
20.2887
8.17248
5.2066
4.20706
3.65399
6.78593
20.9203
9.68121
6.17818
5.00457
4.49746
7.06048
21.1691
11.6573
7.85341
6.32314
5.6004
7.34795
20.9683
13.6927
9.98694
8.05936
7.00024
7.63655
19.6752
14.8921
11.7588
9.58438
8.23377
7.96505
18.1536
15.0599
12.7439
10.8732
9.59499
13.0459
9.40242
8.59866
8.14851
8.05674
7.86152
13.7251
9.67126
9.2228
8.61076
8.55791
8.38678
13.6847
10.0162
9.75202
8.96755
8.77631
8.30851
12.8916
10.1318
9.82896
9.1949
8.75874
7.86814
11.6876
10.0528
9.48829
9.12452
8.36056
7.09744
10.4027
9.97325
8.94262
8.39635
7.4068
5.86179
9.21152
9.78351
8.05321
7.2366
6.18935
4.71405
8.28903
9.49123
7.07754
6.14945
5.22849
4.14067
7.81202
9.37734
6.37769
5.3847
4.6811
4.01302
7.84617
9.68518
6.18765
5.10827
4.58746
4.29515
8.35449
10.3634
6.60017
5.37466
4.90436
4.73369
9.28511
11.3241
7.60117
6.24106
5.67647
5.48626
10.5797
11.9529
8.89626
7.52376
6.72066
6.32019
12.1928
12.0454
9.77624
8.60073
7.79109
7.34015
8.92593
20.3064
9.30731
6.38373
4.38022
3.26504
9.47271
19.8559
7.11189
4.42613
2.89454
2.14917
9.06164
19.6643
5.48476
3.11352
1.98386
1.41236
8.47857
19.8051
4.58882
2.44324
1.54673
1.04888
7.90251
20.5786
4.39205
2.28462
1.49815
1.02547
7.34333
21.703
4.76963
2.52378
1.75837
1.278
6.7005
22.8528
5.61792
3.07576
2.27008
1.73921
5.96501
23.753
6.88417
3.92908
3.01993
2.41471
5.2634
23.608
8.52185
5.14992
4.00614
3.28658
4.83081
21.8389
10.2243
6.70704
5.22698
4.36271
4.57067
19.3662
11.3244
8.1381
6.43007
5.3877
4.5138
16.898
11.7095
9.16039
7.51747
6.38862
4.82096
15.1291
11.8578
9.971
8.51685
7.33776
5.74236
15.6011
13.1699
11.4944
10.2838
9.00082
7.75688
15.6528
11.5529
9.45542
7.36795
5.73753
8.06809
15.1323
9.60131
7.35839
5.37257
4.05919
7.83146
14.3607
7.54333
5.39682
3.76117
2.72698
7.47508
13.6284
5.83777
3.94027
2.68255
1.84058
7.09899
13.5712
4.7287
3.11146
2.1271
1.41891
6.789
14.1213
4.38073
2.88409
2.05743
1.45058
6.56086
15.2194
4.69529
3.126
2.39172
1.83917
6.45905
16.5879
5.53249
3.73129
3.03806
2.51662
6.51523
17.5606
7.01494
4.73627
3.93103
3.39477
6.68722
17.8076
8.90707
6.16311
5.08121
4.51011
6.89523
17.4585
10.6729
7.7838
6.36451
5.62233
7.10972
16.5416
11.9332
9.28073
7.67952
6.76745
7.37768
14.7443
12.277
10.237
8.73442
7.75148
7.69667
13.6688
12.3507
11.033
10.0087
9.16945
12.131
10.4398
10.1378
9.65959
8.82936
7.67541
11.4103
10.174
9.70477
9.15222
7.77208
6.24318
10.103
9.62537
8.78606
8.09557
6.39547
4.72519
8.66102
8.92757
7.58
6.56359
4.92797
3.36344
7.32189
8.14086
6.18953
5.06337
3.65516
2.35137
6.31173
7.37394
5.04675
4.01942
2.91687
1.89461
5.80299
6.89786
4.43944
3.62246
2.77887
2.0109
5.7974
6.98952
4.35001
3.70767
3.09643
2.52823
6.20166
7.5747
4.6703
4.07876
3.60188
3.21851
6.90263
8.27609
5.32977
4.64543
4.2546
4.04543
7.82379
8.98279
6.22184
5.37404
4.95254
4.77674
8.93647
9.63606
7.22777
6.22112
5.73566
5.55825
10.221
9.58049
7.9437
7.02076
6.48935
6.22663
11.7565
9.46464
8.30705
7.64843
7.38372
7.17997
7.71883
6.44583
5.59524
4.61541
3.76539
2.78581
1.97832
1.4337
1.42615
2.15679
3.56559
5.22696
6.79694
8.43597
7.93432
6.77472
5.65398
4.48915
3.2956
2.07504
1.19671
0.705784
0.674198
1.22337
2.45325
4.06388
5.53251
6.586
7.79659
6.6218
5.25168
3.76848
2.31772
1.17287
0.521829
0.243912
0.242307
0.611549
1.57403
3.02248
4.39664
5.2648
7.50597
5.87605
4.08006
2.39011
1.11058
0.418832
0.135734
0.0497886
0.065553
0.264799
0.890178
2.01166
3.23567
4.07239
6.7142
4.51481
2.52535
1.1293
0.399339
0.122962
0.0298451
0.00752391
0.0185838
0.110395
0.458046
1.21282
2.2028
3.02495
5.28147
3.08704
1.4948
0.648894
0.267965
0.0898941
0.0211915
0.00458799
0.00798911
0.0484097
0.210113
0.623313
1.30978
2.09741
4.08362
2.42506
1.37715
0.758891
0.342999
0.118451
0.0328873
0.0135643
0.014191
0.0386225
0.133363
0.385057
0.861547
1.54185
3.70011
2.65754
1.90447
1.17368
0.580141
0.221362
0.0790463
0.0501553
0.054101
0.0850551
0.166131
0.366179
0.750745
1.35777
3.86021
3.23868
2.6507
1.85665
1.03523
0.449968
0.196167
0.154031
0.183668
0.268312
0.412777
0.682112
1.11714
1.76211
4.29493
3.99036
3.58249
2.82971
1.80603
0.908279
0.453375
0.383389
0.484767
0.705277
1.0201
1.47795
2.05849
2.80233
4.66859
4.71075
4.58793
3.99661
2.90618
1.69547
0.943162
0.796497
1.01381
1.44408
1.99201
2.67437
3.38461
4.21667
5.39771
5.65348
5.69676
5.29682
4.30958
2.89866
1.78322
1.43784
1.71701
2.34149
3.06549
3.91884
4.75507
5.65167
5.99787
6.57411
6.82289
6.59172
5.84488
4.45459
3.04543
2.37274
2.47082
3.15379
3.92588
4.88321
5.88935
7.02757
7.18566
7.7645
7.87511
7.76817
7.29681
6.09041
4.568
3.54968
3.32673
3.78857
4.4897
5.53725
6.71283
8.40898
7.18773
6.05032
5.15254
4.16174
3.2848
2.33627
1.58209
1.09557
1.03372
1.54413
2.61323
3.93734
5.16518
6.25051
6.85452
5.95036
4.8771
3.74209
2.61413
1.56441
0.848465
0.480595
0.441142
0.78773
1.66462
2.95673
4.26678
5.21075
6.64338
5.47779
4.10842
2.76064
1.58524
0.757826
0.320545
0.147583
0.145179
0.360954
0.9961
2.11565
3.38761
4.34164
6.28044
4.55147
2.86571
1.52948
0.662007
0.237204
0.072895
0.0268971
0.0355852
0.146251
0.531438
1.34422
2.417
3.34565
5.40264
3.27917
1.64601
0.679295
0.241866
0.0741201
0.0173003
0.00408972
0.0096871
0.0598606
0.267523
0.780306
1.59122
2.43797
4.15946
2.21379
1.02275
0.447915
0.179387
0.0573236
0.0128274
0.00254111
0.0041689
0.0263998
0.121589
0.39282
0.90807
1.59753
3.27667
1.84605
1.0238
0.52299
0.21907
0.0707383
0.0186213
0.00732504
0.00728141
0.0203549
0.0759067
0.235931
0.573082
1.12138
3.1262
2.13629
1.40437
0.785734
0.351747
0.124001
0.0437356
0.0280204
0.0285791
0.0434525
0.0894067
0.214732
0.479607
0.947654
3.40772
2.70364
2.00428
1.25215
0.620189
0.248458
0.111416
0.0900803
0.101496
0.142453
0.221008
0.387076
0.687067
1.1967
3.87756
3.39458
2.80897
1.98599
1.11697
0.514845
0.266069
0.235592
0.284545
0.403865
0.590816
0.895637
1.3276
1.95445
4.30313
4.11745
3.72163
2.94227
1.89533
1.00497
0.570618
0.515447
0.641916
0.907998
1.28085
1.7867
2.36413
3.08186
5.07324
4.99259
4.72653
4.09978
3.02336
1.85239
1.12956
0.976672
1.18733
1.62756
2.18698
2.86565
3.52532
4.25155
5.62043
5.80783
5.72007
5.3395
4.43367
3.12397
2.06464
1.67886
1.85339
2.40042
3.05149
3.8291
4.5142
5.23817
6.5947
6.64357
6.58397
6.49067
5.91845
4.70173
3.40786
2.68785
2.62208
3.06763
3.69129
4.51313
5.20266
6.06466
6.03917
5.03382
4.12739
3.21959
2.41108
1.61511
1.00929
0.63875
0.50724
0.650857
1.16465
2.0138
3.03399
4.1126
5.21922
4.3414
3.38522
2.44286
1.59605
0.908733
0.472283
0.252016
0.19762
0.291467
0.655488
1.38951
2.40032
3.39056
4.67668
3.47352
2.37305
1.46176
0.789745
0.363
0.151359
0.0677507
0.0573431
0.118709
0.362062
0.940868
1.83944
2.78948
3.94165
2.49106
1.38695
0.670653
0.278815
0.0978138
0.0301788
0.0108857
0.0116277
0.0434525
0.184078
0.572063
1.26075
2.0887
3.0363
1.62032
0.749994
0.307847
0.115744
0.0369951
0.00892963
0.00175289
0.0026332
0.017554
0.0922155
0.325931
0.798414
1.46407
2.26556
1.15104
0.552903
0.25379
0.100703
0.031788
0.00719631
0.00122925
0.00121382
0.00845922
0.0452481
0.166642
0.448733
0.915092
1.95389
1.12648
0.627045
0.303662
0.121189
0.038186
0.00981541
0.00341499
0.00281991
0.00715076
0.029487
0.102586
0.277139
0.601665
2.14431
1.44404
0.866952
0.443368
0.18414
0.0625501
0.0217482
0.0132105
0.012251
0.0166141
0.0341935
0.088837
0.216705
0.466269
2.56078
1.8899
1.2492
0.691519
0.309294
0.119088
0.0551151
0.0439416
0.0455241
0.0574497
0.0832984
0.145663
0.271138
0.516817
3.05177
2.4602
1.78915
1.09035
0.540312
0.238473
0.133036
0.119803
0.134417
0.174289
0.238304
0.352102
0.529746
0.842098
3.53681
3.06808
2.42206
1.63418
0.911252
0.457547
0.286427
0.273873
0.324113
0.429624
0.5808
0.798559
1.07045
1.47982
4.24226
3.77842
3.17463
2.37134
1.50319
0.851051
0.563544
0.54024
0.651201
0.861275
1.13967
1.48931
1.85179
2.32102
4.81608
4.4679
3.99209
3.28761
2.36511
1.50702
1.03421
0.95121
1.11118
1.42873
1.82377
2.29151
2.71146
3.18657
5.57541
5.12233
4.79938
4.31597
3.47496
2.48698
1.78659
1.55925
1.66377
2.02638
2.46058
3.00705
3.45781
4.00056
4.32925
3.41646
2.66051
1.92535
1.28693
0.780496
0.457545
0.279487
0.199617
0.195041
0.320007
0.654428
1.25833
2.14993
3.27418
2.36919
1.67621
1.07281
0.626721
0.329498
0.167932
0.0922709
0.068469
0.0764761
0.155252
0.398882
0.90696
1.6884
2.44109
1.50177
0.887114
0.472382
0.229825
0.0984466
0.0412201
0.020387
0.0164306
0.0260881
0.078452
0.255417
0.658786
1.31335
1.73159
0.901232
0.432522
0.184584
0.0715677
0.0236966
0.00717293
0.00285916
0.00281326
0.0079816
0.037771
0.148602
0.42729
0.923472
1.22209
0.591409
0.267769
0.11371
0.0432836
0.0135213
0.00310683
0.000543142
0.000496821
0.00309344
0.0190914
0.0840637
0.26089
0.60935
0.985066
0.511832
0.253622
0.112964
0.0420171
0.0123502
0.00262091
0.000411775
0.000234408
0.00155271
0.0100404
0.0444297
0.145114
0.362869
0.997861
0.575006
0.297167
0.130499
0.047317
0.0136757
0.00326237
0.0010605
0.000747499
0.00148749
0.00675959
0.0280683
0.0897645
0.22888
1.24465
0.758679
0.399865
0.178088
0.0655745
0.0204053
0.00692032
0.00422412
0.00364037
0.00417651
0.00797086
0.0230836
0.065726
0.164029
1.61481
1.03249
0.572151
0.266045
0.103544
0.0374633
0.0182872
0.0150679
0.0146121
0.0163686
0.0212213
0.0363436
0.072656
0.157509
2.06633
1.41473
0.836069
0.416425
0.177784
0.0765282
0.0474273
0.044499
0.046813
0.0550987
0.0686294
0.0957634
0.142117
0.24381
2.52182
1.84828
1.17472
0.637815
0.304437
0.153141
0.109684
0.110267
0.123493
0.151934
0.192644
0.253932
0.332739
0.484085
3.08324
2.36965
1.62987
0.981217
0.528118
0.298632
0.228688
0.235726
0.274885
0.347027
0.444809
0.570088
0.702431
0.920439
3.61691
2.92076
2.19632
1.47613
0.893484
0.553419
0.435621
0.44694
0.525866
0.668127
0.850777
1.06791
1.26857
1.54577
4.28997
3.55481
2.91691
2.17879
1.47045
0.981147
0.773617
0.771452
0.879456
1.10331
1.37418
1.68967
1.96715
2.32159
2.64553
1.81459
1.2557
0.797681
0.478641
0.274064
0.162628
0.102661
0.0728185
0.0572882
0.0673306
0.144632
0.364649
0.831606
1.65248
0.947837
0.558143
0.305535
0.160019
0.0812287
0.0445846
0.027596
0.021117
0.0190692
0.0270457
0.07574
0.233943
0.609617
0.99177
0.465531
0.218686
0.097276
0.0419156
0.0174249
0.00819394
0.00502438
0.00421617
0.00494474
0.0114102
0.0449761
0.159557
0.442334
0.613369
0.261189
0.107989
0.0428027
0.0156888
0.00504653
0.00151786
0.000657144
0.00060654
0.00105704
0.00478529
0.0247712
0.0978192
0.290067
0.452585
0.210834
0.0967874
0.0415397
0.015307
0.00451629
0.000987493
0.000158667
7.54881e-05
0.000319488
0.00238487
0.0138117
0.057671
0.180267
0.426121
0.223714
0.108165
0.0451942
0.0156866
0.00434728
0.000895622
0.000130658
3.36286e-05
0.000151807
0.0013262
0.00779668
0.0325503
0.104297
0.489173
0.265363
0.124422
0.0496815
0.0165445
0.00445822
0.000990478
0.000268707
0.000154112
0.000198349
0.000925229
0.00502603
0.0204824
0.0647891
0.640653
0.34105
0.156977
0.0613879
0.0202362
0.00574946
0.00181453
0.00104893
0.000860326
0.000822485
0.00125928
0.00399374
0.0141258
0.0433431
0.850723
0.458037
0.211724
0.083134
0.0282249
0.0095171
0.0048099
0.00408607
0.00382966
0.00381973
0.00421809
0.00659191
0.0140639
0.0362472
1.14557
0.636579
0.302521
0.123069
0.0455686
0.0195867
0.0136573
0.0134442
0.0136045
0.0145312
0.0161576
0.0204281
0.0285567
0.0524154
1.48958
0.863509
0.429658
0.18665
0.0783045
0.0421331
0.0351807
0.0371238
0.0399047
0.0452774
0.0529108
0.0649873
0.0799345
0.118689
1.92812
1.18056
0.633375
0.30364
0.145066
0.0898968
0.0808462
0.0880724
0.0994064
0.118248
0.143804
0.176699
0.209418
0.27951
2.41171
1.58173
0.938875
0.50528
0.270764
0.181561
0.167035
0.183713
0.214267
0.26376
0.327745
0.405194
0.477306
0.594358
3.0561
2.18478
1.44723
0.871734
0.510442
0.351201
0.31683
0.344022
0.403666
0.508038
0.636929
0.790763
0.936126
1.11969
1.32971
0.726287
0.418339
0.2298
0.122653
0.0660131
0.0399431
0.0273982
0.0207976
0.0158924
0.0134887
0.0237278
0.0727569
0.227212
0.671534
0.284003
0.126895
0.0561915
0.0251127
0.0122011
0.00756425
0.00580683
0.00496345
0.00437148
0.0044013
0.0108446
0.0430691
0.157577
0.32275
0.113939
0.0403289
0.0141005
0.00493205
0.00190159
0.00106908
0.000897768
0.000869544
0.000874513
0.0014275
0.00598594
0.0282083
0.108956
0.193545
0.0739658
0.02829
0.010567
0.00355334
0.00100984
0.000262852
0.000114363
0.000111635
0.000144473
0.000481709
0.0031161
0.016601
0.0676447
0.165612
0.0761076
0.0336621
0.0132347
0.00434235
0.00113776
0.000224115
3.32567e-05
1.19071e-05
2.81286e-05
0.000222341
0.00168481
0.00933837
0.0393365
0.175324
0.086763
0.0379304
0.0142434
0.00444912
0.00111906
0.000212921
2.961e-05
5.52762e-06
1.05626e-05
0.000113883
0.000942967
0.00528499
0.0220509
0.212262
0.101227
0.0417769
0.0147683
0.00437483
0.00105844
0.00021325
5.31308e-05
2.84824e-05
2.46644e-05
7.82118e-05
0.000573007
0.00322039
0.0134071
0.280531
0.127592
0.0500169
0.0167746
0.00478256
0.00119544
0.000353519
0.000209497
0.000171791
0.000146765
0.000155288
0.000443243
0.00204286
0.00831217
0.384223
0.170212
0.0644161
0.0208256
0.00593136
0.00182115
0.000994244
0.000905822
0.00083975
0.000774465
0.000723684
0.00092123
0.0019245
0.00611039
0.543562
0.240365
0.090463
0.0293585
0.00912865
0.00398639
0.00323041
0.00336654
0.00332385
0.00329576
0.00327451
0.00368035
0.00457491
0.00848171
0.746369
0.335315
0.128885
0.0440187
0.0162544
0.00983682
0.00957343
0.0105325
0.0109558
0.0116156
0.0124421
0.0141962
0.0161266
0.0230627
1.02125
0.482359
0.198807
0.0755567
0.0334523
0.024134
0.0249899
0.0282538
0.030856
0.0347811
0.039776
0.0466196
0.0529727
0.0694984
1.36407
0.70387
0.32334
0.140109
0.0713124
0.0553041
0.0579487
0.0663921
0.0757799
0.0902209
0.108309
0.130738
0.15175
0.189276
1.91928
1.12875
0.586382
0.284184
0.154572
0.118817
0.12147
0.139014
0.163631
0.20431
0.254408
0.315935
0.377124
0.453191
0.534707
0.223209
0.100757
0.0466037
0.0221804
0.0114601
0.00711668
0.00521747
0.00429041
0.00351485
0.00264061
0.00327611
0.0105408
0.0440148
0.206316
0.0660628
0.0220749
0.00766348
0.00289063
0.0013621
0.000943124
0.000843648
0.000825733
0.000786213
0.000685832
0.0012572
0.00596393
0.0301575
0.0802094
0.0232996
0.00681266
0.0019959
0.000590709
0.000195544
0.000106705
0.000104709
0.000121273
0.000128764
0.000157821
0.000605397
0.00375558
0.0201662
0.0542584
0.0197774
0.00719365
0.00249748
0.000751524
0.000182925
3.7169e-05
1.24498e-05
1.34685e-05
1.71617e-05
3.72333e-05
0.000273941
0.00202191
0.011587
0.0546888
0.0234055
0.00927507
0.00320164
0.000914574
0.000208375
3.56304e-05
4.47146e-06
1.28261e-06
2.09934e-06
1.32909e-05
0.000134009
0.00102261
0.00599173
0.0615417
0.0267156
0.0101506
0.0033095
0.000896588
0.000195829
3.24353e-05
3.92492e-06
5.53014e-07
5.61875e-07
6.11171e-06
7.13245e-05
0.000557142
0.0031684
0.0771297
0.0314543
0.0110888
0.00334601
0.000844627
0.000173996
2.9694e-05
6.23249e-06
2.97809e-06
2.22557e-06
4.86824e-06
4.42204e-05
0.000341775
0.00190585
0.10587
0.0405835
0.0133645
0.00376571
0.000896088
0.000186172
4.72223e-05
2.62873e-05
2.0493e-05
1.67458e-05
1.54226e-05
3.846e-05
0.000221757
0.00119396
0.150033
0.0552282
0.0173665
0.00465045
0.00108395
0.000279936
0.000147174
0.000132167
0.000116885
0.000104623
9.41926e-05
0.000109999
0.000223301
0.00086889
0.217982
0.0789407
0.0243995
0.00649105
0.00165674
0.000669321
0.000561337
0.000578413
0.000546523
0.000530073
0.000516503
0.000567831
0.000660541
0.00121136
0.304561
0.110394
0.0343547
0.00955601
0.00304541
0.00191174
0.00196001
0.00213842
0.00214101
0.00223902
0.00237294
0.00269505
0.00293644
0.00395405
0.432008
0.162879
0.0535179
0.0166298
0.00685001
0.00546932
0.00600656
0.00678692
0.0071899
0.00807272
0.00922776
0.0108286
0.0119355
0.0149584
0.617677
0.255082
0.0923355
0.0329948
0.0165045
0.0145334
0.0162795
0.0188421
0.0210887
0.025294
0.0307198
0.0372593
0.0421972
0.0509355
0.968567
0.463859
0.18876
0.0748082
0.040481
0.0356351
0.0395061
0.0463851
0.0545046
0.0693842
0.0884217
0.111177
0.130727
0.153056
0.000836335
0.000690837
0.000517691
0.00033049
0.000310083
0.0011023
0.00626199
0.000102315
9.95226e-05
8.52638e-05
6.32782e-05
0.000103729
0.000646731
0.00450542
9.56562e-06
1.09872e-05
1.08876e-05
1.0499e-05
4.60504e-05
0.000402357
0.0029901
9.50077e-07
9.39182e-07
1.09619e-06
1.91455e-06
1.80375e-05
0.000193349
0.00158478
4.06655e-07
7.97115e-08
9.19749e-08
4.72151e-07
7.2404e-06
8.35662e-05
0.000705461
3.86571e-07
5.25226e-08
2.86508e-08
1.48181e-07
2.79966e-06
3.59259e-05
0.000313882
6.46799e-07
3.26147e-07
2.43674e-07
2.25471e-07
1.28243e-06
1.6228e-05
0.00014794
3.06024e-06
2.56767e-06
2.19153e-06
1.7889e-06
2.02787e-06
8.51441e-06
7.25936e-05
0.0481043
0.0147296
0.00387954
0.000875228
0.000171701
3.79276e-05
1.92175e-05
1.81294e-05
1.70765e-05
1.58126e-05
1.38954e-05
1.3589e-05
1.62591e-05
5.41783e-05
0.0701269
0.0208296
0.00534527
0.00119011
0.000259692
9.97094e-05
8.72294e-05
9.44489e-05
9.40892e-05
9.31673e-05
8.85179e-05
9.08818e-05
9.01464e-05
0.000124572
0.0988091
0.0289584
0.00741102
0.00173165
0.000508313
0.000338013
0.000364931
0.000417097
0.000436155
0.000459675
0.000471633
0.000506693
0.000506126
0.000589592
0.143221
0.0428209
0.0114304
0.00307254
0.00130306
0.00115375
0.00133412
0.00157842
0.00173133
0.0019388
0.0021383
0.00238166
0.0024411
0.00275447
0.219168
0.0707598
0.0203669
0.00652774
0.00364419
0.00361604
0.00428298
0.00519683
0.00597867
0.00710363
0.00834442
0.00964652
0.0102392
0.0113231
0.387006
0.143744
0.0452916
0.016325
0.0101698
0.0102619
0.0121785
0.0150519
0.0181459
0.0228096
0.0283374
0.0342415
0.0381015
0.0415363
6.74896
6.67306
6.6806
7.10103
8.07777
8.40446
5.57204
5.58697
5.69934
6.07806
6.94197
7.39173
5.03675
5.01879
5.13336
5.44226
6.15979
6.46486
4.39203
4.50735
4.76193
5.06391
5.61123
5.67862
3.90031
4.16193
4.58038
4.9305
5.35744
5.10613
3.23385
3.7965
4.47639
4.9276
5.31104
4.86366
2.64334
3.5556
4.47775
5.06675
5.56692
5.08148
2.28573
3.57771
4.76737
5.63111
6.43249
5.92681
2.53144
4.19242
5.68669
6.90075
8.00949
7.4528
3.51471
5.48459
7.28873
8.78659
10.0101
9.37819
5.00624
7.13794
9.13231
10.7967
11.8344
10.9515
6.52316
8.62587
10.6918
12.3397
13.1895
12.208
7.6938
9.64675
11.6821
13.3132
14.1063
13.1897
8.58763
10.1532
11.9088
13.5267
14.3666
13.1798
6.52506
6.30654
5.83839
5.49061
5.315
4.9935
5.37703
5.439
5.31527
5.10724
4.88814
4.5485
4.8671
4.98931
4.98628
4.85052
4.54582
4.14726
4.13205
4.42719
4.69119
4.69738
4.29008
3.77595
3.62765
4.07844
4.53887
4.59965
4.07441
3.43191
2.93736
3.6199
4.32567
4.42561
3.82724
3.1304
2.32493
3.26467
4.10838
4.18771
3.61551
2.9815
1.9083
3.12333
4.05569
4.1102
3.64793
3.14393
2.00517
3.43663
4.36069
4.38848
4.04621
3.68256
2.70706
4.20152
4.99478
4.99826
4.75967
4.52978
3.7926
5.16161
5.78183
5.74212
5.59932
5.49668
4.92447
6.04665
6.50021
6.46128
6.29486
6.2606
5.76212
6.63719
6.92948
6.80402
6.5959
6.52469
6.35585
6.90951
7.03508
6.82426
6.53865
6.28778
6.20582
6.22816
5.89189
5.56628
5.22536
4.81616
4.96901
5.26694
5.40234
5.36749
5.04293
4.51088
4.34181
4.74962
5.03155
5.10423
4.78486
4.17636
3.52375
3.99295
4.49829
4.79562
4.52419
3.85204
2.94069
3.49972
4.13702
4.54063
4.22274
3.52144
2.24558
2.90026
3.67702
4.14925
3.80736
3.14673
1.65396
2.41406
3.26257
3.69956
3.34912
2.76806
1.2025
2.05801
2.96715
3.33956
3.04349
2.61182
1.06624
2.04037
2.9633
3.27421
3.07819
2.82459
1.32874
2.42677
3.29073
3.55181
3.46486
3.36371
1.95933
3.09511
3.85917
4.07305
4.04418
4.02549
2.80739
3.87398
4.47252