/*--------------------------------*- C++ -*----------------------------------*\
| =========                 |                                                 |
| \\      /  F ield         | OpenFOAM: The Open Source CFD Toolbox           |
|  \\    /   O peration     | Version:  v2106                                 |
|   \\  /    A nd           | Website:  www.openfoam.com                      |
|    \\/     M anipulation  |                                                 |
\*---------------------------------------------------------------------------*/
FoamFile
{
    version     2.0;
    format      ascii;
    arch        "LSB;label=32;scalar=64";
    class       volScalarField;
    location    "0.000143";
    object      rho;
}
// * * * * * * * * * * * * * * * * * * * * * * * * * * * * * * * * * * * * * //

dimensions      [1 -3 0 0 0 0 0];

internalField   nonuniform List<scalar> 
18273
(
2.37484
2.37513
2.37372
2.37203
2.37094
2.37094
2.37251
2.37501
2.3775
2.37973
2.38081
2.38126
2.38133
2.37962
2.37533
2.37651
2.37539
2.37549
2.3748
2.37561
2.37782
2.38036
2.38311
2.38549
2.38668
2.38676
2.38569
2.38289
2.37333
2.37579
2.37602
2.37762
2.3788
2.38031
2.38281
2.38503
2.38779
2.38977
2.3907
2.3902
2.38864
2.38464
2.36989
2.37372
2.37597
2.37866
2.38129
2.38378
2.38668
2.38897
2.39157
2.39324
2.39398
2.39322
2.39111
2.38624
2.36613
2.37108
2.37531
2.37907
2.38262
2.38576
2.38891
2.39155
2.39415
2.39574
2.39633
2.3953
2.39264
2.38721
2.36225
2.3685
2.37403
2.3785
2.38275
2.38649
2.39006
2.39309
2.39566
2.3972
2.39749
2.39655
2.39339
2.38795
2.36104
2.36719
2.37261
2.37753
2.38238
2.38666
2.39041
2.39366
2.39619
2.39771
2.39821
2.39695
2.39381
2.38828
2.35878
2.36513
2.37156
2.37708
2.3822
2.38673
2.39041
2.39359
2.39609
2.3975
2.39789
2.39627
2.39376
2.38799
2.35798
2.36401
2.37069
2.37645
2.38185
2.38639
2.39
2.39297
2.39539
2.39674
2.39712
2.39539
2.39327
2.3874
2.35796
2.36377
2.37016
2.37582
2.38093
2.38528
2.38868
2.39146
2.39361
2.39482
2.39518
2.39357
2.39185
2.38627
2.35918
2.36535
2.37117
2.37594
2.37999
2.38385
2.38676
2.3891
2.39102
2.39229
2.39247
2.391
2.38947
2.38449
2.36186
2.36666
2.37101
2.37493
2.37774
2.38088
2.38335
2.38568
2.38726
2.38812
2.38793
2.3865
2.38499
2.38045
2.36472
2.37062
2.37326
2.37599
2.37686
2.3783
2.37938
2.38096
2.38241
2.38351
2.38383
2.38289
2.38179
2.37944
2.36589
2.3706
2.37133
2.3732
2.37238
2.37258
2.37241
2.3738
2.37486
2.37613
2.37671
2.37693
2.37649
2.37543
2.38672
2.3896
2.3891
2.38741
2.38693
2.38548
2.38772
2.39002
2.39141
2.38954
2.38593
2.38022
2.37575
2.37388
2.38134
2.38545
2.38482
2.38624
2.38744
2.38858
2.39237
2.39429
2.39589
2.39505
2.3919
2.38766
2.38291
2.38162
2.38026
2.38428
2.38402
2.38575
2.3884
2.3906
2.39468
2.39655
2.3987
2.3985
2.39644
2.39351
2.38903
2.38723
2.37782
2.38076
2.38196
2.38409
2.38836
2.39213
2.39674
2.39873
2.40083
2.40097
2.39942
2.39677
2.39303
2.39062
2.37651
2.37825
2.38073
2.38428
2.38885
2.39266
2.39691
2.39894
2.40154
2.40217
2.4019
2.40036
2.39788
2.39458
2.37264
2.37628
2.37996
2.38439
2.38866
2.3927
2.39674
2.39945
2.40164
2.40284
2.40256
2.40157
2.39896
2.39618
2.37295
2.37563
2.37875
2.38334
2.38775
2.39209
2.39573
2.39904
2.40138
2.40305
2.40363
2.40282
2.40088
2.39761
2.36909
2.37184
2.37635
2.38115
2.38601
2.39065
2.39443
2.39785
2.40018
2.40187
2.4027
2.40239
2.40076
2.39711
2.36817
2.37002
2.3744
2.37807
2.38387
2.38826
2.3927
2.39618
2.3984
2.40004
2.40081
2.40027
2.39853
2.394
2.37059
2.37029
2.3733
2.37603
2.38162
2.38557
2.39018
2.39368
2.39552
2.39715
2.39727
2.39641
2.39436
2.38864
2.37259
2.37146
2.37372
2.3747
2.37881
2.38248
2.3871
2.39036
2.39229
2.39359
2.39306
2.39148
2.38867
2.38188
2.37568
2.37163
2.37288
2.37347
2.37656
2.37988
2.38379
2.3867
2.38807
2.38843
2.38693
2.38439
2.38121
2.37394
2.37872
2.37497
2.37475
2.3741
2.37484
2.37748
2.38057
2.38331
2.38443
2.38434
2.3831
2.38018
2.37739
2.37183
2.37677
2.37267
2.37077
2.37018
2.3701
2.37289
2.3758
2.37904
2.38038
2.38102
2.38088
2.37947
2.37637
2.37037
2.38168
2.39088
2.39273
2.39634
2.40517
2.41222
2.41901
2.42166
2.42255
2.41976
2.41206
2.40207
2.38852
2.37641
2.3755
2.38568
2.38957
2.39709
2.40696
2.41423
2.42243
2.42586
2.42779
2.42592
2.41937
2.41163
2.40209
2.39479
2.37988
2.3883
2.39389
2.40102
2.40942
2.41593
2.42368
2.42799
2.43083
2.43046
2.42713
2.42116
2.41414
2.40653
2.382
2.38726
2.39317
2.39965
2.40858
2.41637
2.4246
2.4295
2.43308
2.43363
2.43165
2.42656
2.42151
2.41381
2.3844
2.38859
2.39526
2.40208
2.40986
2.41659
2.42418
2.42985
2.43406
2.43596
2.43588
2.43321
2.42919
2.42309
2.38719
2.39246
2.39803
2.40377
2.41042
2.41677
2.42419
2.42964
2.43398
2.43666
2.4372
2.43618
2.4321
2.42752
2.3887
2.39438
2.39942
2.40444
2.4105
2.41618
2.42325
2.42871
2.43352
2.43716
2.43904
2.43916
2.43626
2.43217
2.38909
2.39312
2.39754
2.40224
2.4083
2.41395
2.42111
2.42678
2.43123
2.43513
2.43731
2.43743
2.43548
2.43129
2.38323
2.3889
2.39433
2.39914
2.40568
2.41066
2.41796
2.42418
2.42834
2.43237
2.43399
2.43366
2.43173
2.42718
2.37535
2.38182
2.38889
2.39506
2.40199
2.40751
2.41435
2.42075
2.42416
2.42816
2.42855
2.42765
2.42409
2.41895
2.36945
2.37466
2.38286
2.39007
2.39683
2.40326
2.41022
2.41632
2.41967
2.42251
2.42147
2.41963
2.41464
2.40926
2.36827
2.36935
2.37729
2.38501
2.39268
2.39938
2.40632
2.41144
2.41379
2.41598
2.41445
2.41192
2.40556
2.3957
2.36955
2.36997
2.37702
2.38155
2.38765
2.3943
2.40196
2.40623
2.40812
2.40802
2.40436
2.40004
2.39375
2.38285
2.36602
2.36309
2.36949
2.37568
2.3832
2.38933
2.39622
2.39965
2.40237
2.40117
2.3963
2.39213
2.38514
2.37072
2.37951
2.37867
2.37861
2.37686
2.3775
2.37777
2.38056
2.37771
2.37793
2.37666
2.37804
2.37924
2.38213
2.37942
2.37939
2.37776
2.37864
2.38029
2.38241
2.3786
2.37796
2.37629
2.37676
2.37871
2.38248
2.37715
2.37575
2.37373
2.37361
2.37515
2.38249
2.37579
2.37336
2.37044
2.3701
2.37052
2.38275
2.37507
2.37152
2.3675
2.36684
2.36609
2.38282
2.37471
2.37014
2.36475
2.36363
2.36336
2.38251
2.37499
2.37025
2.3647
2.36443
2.36431
2.38189
2.37446
2.37024
2.3656
2.36624
2.36688
2.38073
2.37514
2.37227
2.36886
2.36945
2.36901
2.378
2.37397
2.37294
2.37028
2.37097
2.37012
2.3779
2.37523
2.37456
2.37227
2.37272
2.37171
2.37464
2.37205
2.37221
2.37012
2.37164
2.37215
2.37782
2.37637
2.37944
2.37721
2.38221
2.38143
2.38167
2.38138
2.38569
2.38591
2.3915
2.39457
2.38775
2.38802
2.39138
2.39138
2.39626
2.39986
2.39068
2.38998
2.39255
2.39231
2.39697
2.40029
2.39261
2.38962
2.39138
2.39008
2.39379
2.39612
2.39294
2.38816
2.38851
2.38525
2.38742
2.38742
2.39391
2.38666
2.38386
2.37765
2.37805
2.37666
2.39368
2.38383
2.37868
2.36888
2.3673
2.36157
2.39026
2.37896
2.37189
2.35823
2.35595
2.3484
2.38538
2.37179
2.36515
2.35059
2.34875
2.33891
2.37788
2.36635
2.36087
2.34667
2.34578
2.33547
2.37102
2.36149
2.35896
2.34807
2.34915
2.34148
2.37127
2.36514
2.36474
2.35772
2.35947
2.35422
2.36721
2.36239
2.3645
2.3624
2.36715
2.36462
2.37165
2.35994
2.35153
2.33934
2.34334
2.3157
2.38237
2.37027
2.36801
2.36233
2.36737
2.35285
2.3956
2.38367
2.38089
2.37642
2.37945
2.37371
2.40455
2.39314
2.39035
2.38389
2.38525
2.38149
2.41548
2.40456
2.3982
2.38641
2.38319
2.37545
2.42118
2.41191
2.40269
2.38515
2.37508
2.35668
2.42506
2.41485
2.40192
2.37793
2.35903
2.32742
2.42376
2.40942
2.3945
2.3642
2.33846
2.28972
2.41838
2.40075
2.3797
2.34265
2.31374
2.25187
2.4087
2.38684
2.36557
2.32809
2.30044
2.22851
2.39875
2.37436
2.35304
2.31644
2.29366
2.21776
2.38643
2.36154
2.34385
2.31249
2.29559
2.22388
2.37972
2.35716
2.3438
2.31842
2.30784
2.24968
2.36067
2.34105
2.33501
2.32104
2.32079
2.28306
2.37558
2.37449
2.37374
2.37241
2.37317
2.37352
2.37353
2.37091
2.37152
2.37021
2.37134
2.37197
2.37415
2.37032
2.36945
2.36761
2.36745
2.36919
2.37214
2.3674
2.36576
2.36341
2.36329
2.3648
2.3705
2.36416
2.36199
2.35902
2.35889
2.35972
2.36895
2.3615
2.3586
2.35484
2.35507
2.35505
2.36843
2.36026
2.35709
2.3529
2.353
2.35336
2.36765
2.35985
2.35707
2.35299
2.35372
2.35468
2.36956
2.36345
2.36168
2.35858
2.35977
2.36018
2.37134
2.3669
2.36624
2.36377
2.36496
2.36586
2.37419
2.37129
2.37208
2.37037
2.37128
2.37154
2.37389
2.37196
2.37401
2.37319
2.37478
2.37549
2.37467
2.37387
2.37661
2.37695
2.37916
2.38066
2.36942
2.36877
2.37332
2.376
2.37995
2.38302
2.37532
2.37277
2.37451
2.37269
2.37735
2.37814
2.37754
2.3773
2.38062
2.37972
2.38382
2.38617
2.38115
2.3801
2.38252
2.38154
2.38527
2.38837
2.3803
2.37843
2.38071
2.37902
2.38309
2.38538
2.37843
2.37493
2.37659
2.37381
2.37738
2.37825
2.37731
2.37189
2.37168
2.36674
2.36952
2.36858
2.37632
2.36916
2.36711
2.3593
2.36177
2.35839
2.37294
2.36446
2.36279
2.35395
2.35657
2.35315
2.37124
2.36366
2.36341
2.35412
2.35746
2.3539
2.36985
2.36324
2.36522
2.35863
2.36304
2.36255
2.37208
2.36724
2.37142
2.3683
2.37312
2.37531
2.37475
2.37203
2.37726
2.37711
2.38335
2.38505
2.38014
2.38008
2.38657
2.38932
2.39585
2.39916
2.38218
2.38421
2.39291
2.39808
2.40417
2.40855
2.36867
2.36025
2.35178
2.34237
2.34405
2.32212
2.37265
2.36483
2.36363
2.35718
2.35934
2.34887
2.38083
2.37283
2.37099
2.36507
2.3661
2.36211
2.38744
2.37985
2.37605
2.36737
2.36692
2.36068
2.39387
2.38431
2.3779
2.365
2.36057
2.34681
2.39641
2.38552
2.37554
2.35709
2.34755
2.32213
2.39158
2.37918
2.36813
2.3463
2.33372
2.29441
2.38855
2.37483
2.36344
2.34169
2.33036
2.28245
2.3821
2.36955
2.36301
2.3438
2.33745
2.28457
2.37872
2.36732
2.36475
2.34892
2.34823
2.30112
2.37456
2.36467
2.36579
2.35508
2.35902
2.32516
2.36987
2.36138
2.36443
2.36052
2.36799
2.35174
2.37194
2.36638
2.3706
2.37113
2.37957
2.37515
2.36773
2.36359
2.37008
2.37541
2.38294
2.38622
2.38886
2.38469
2.38064
2.37791
2.37427
2.3746
2.38541
2.38384
2.38084
2.37945
2.37688
2.37706
2.37948
2.37787
2.3756
2.37474
2.37291
2.37358
2.37288
2.37115
2.36909
2.3687
2.36767
2.3689
2.36368
2.36162
2.35951
2.36026
2.36039
2.36337
2.35415
2.35243
2.35014
2.35187
2.3533
2.35819
2.34644
2.34517
2.34434
2.34736
2.35037
2.35647
2.34522
2.3436
2.34386
2.3465
2.34899
2.35425
2.34697
2.34583
2.3458
2.34774
2.34971
2.35369
2.35262
2.35034
2.34989
2.35094
2.35151
2.35393
2.36076
2.35727
2.3563
2.35564
2.35513
2.35554
2.36899
2.36443
2.36355
2.36189
2.36014
2.35973
2.37561
2.37154
2.37031
2.36826
2.36475
2.36173
2.37981
2.37682
2.37598
2.37405
2.37316
2.37072
2.41514
2.40946
2.40196
2.39392
2.38497
2.38319
2.4085
2.40395
2.39582
2.39176
2.38558
2.38571
2.39643
2.39355
2.38579
2.3837
2.37905
2.38106
2.3881
2.38475
2.37844
2.37857
2.37526
2.37843
2.37734
2.37687
2.37077
2.37399
2.37276
2.37677
2.36803
2.3702
2.36555
2.37041
2.36915
2.37209
2.36242
2.36473
2.36203
2.36759
2.36781
2.37156
2.365
2.36645
2.36495
2.369
2.36844
2.36948
2.37323
2.37222
2.3699
2.37207
2.37015
2.36915
2.38556
2.38186
2.37841
2.37829
2.37416
2.37182
2.39639
2.39085
2.38573
2.38324
2.37744
2.37381
2.40396
2.39752
2.39277
2.38894
2.3822
2.37764
2.40955
2.40205
2.39736
2.392
2.38579
2.37789
2.41201
2.4048
2.40171
2.39612
2.39269
2.38825
2.38317
2.38429
2.37621
2.37096
2.36547
2.37208
2.36885
2.38001
2.37237
2.37358
2.37147
2.37978
2.34587
2.36713
2.35983
2.36625
2.36583
2.37697
2.32067
2.35694
2.35364
2.36651
2.36829
2.37938
2.29746
2.34421
2.34595
2.36327
2.36836
2.37974
2.28107
2.33154
2.3417
2.36238
2.37064
2.38108
2.27666
2.3231
2.33778
2.35866
2.36877
2.38209
2.28738
2.3245
2.33955
2.36048
2.37197
2.38291
2.31178
2.33477
2.34502
2.36152
2.36843
2.37721
2.34409
2.35151
2.35489
2.36354
2.36441
2.37013
2.36847
2.3654
2.36132
2.36253
2.3608
2.36423
2.38542
2.37538
2.36858
2.36544
2.36435
2.36552
2.39365
2.38064
2.3734
2.36757
2.36601
2.36308
2.39804
2.38464
2.38069
2.37728
2.37849
2.37621
2.37502
2.37516
2.37367
2.37534
2.3752
2.37714
2.37208
2.37312
2.37231
2.37419
2.37522
2.3783
2.36816
2.36885
2.36785
2.3704
2.37266
2.37689
2.36372
2.36325
2.3623
2.36589
2.36938
2.37583
2.35755
2.35674
2.35669
2.36158
2.36737
2.37435
2.35259
2.35193
2.35394
2.35964
2.36526
2.37225
2.35135
2.35121
2.35321
2.35817
2.36314
2.36979
2.3539
2.35331
2.35473
2.35831
2.36201
2.36747
2.35915
2.3568
2.35796
2.36022
2.36243
2.36619
2.36596
2.36166
2.36262
2.36356
2.36458
2.36699
2.37335
2.36803
2.36845
2.36762
2.3676
2.36836
2.38002
2.37467
2.37444
2.37267
2.37172
2.37132
2.38504
2.38096
2.37941
2.37601
2.37345
2.37234
2.38728
2.38451
2.38402
2.38201
2.38077
2.37785
2.36483
2.36835
2.36194
2.36411
2.36256
2.36824
2.35446
2.36061
2.35758
2.36336
2.36453
2.3735
2.33973
2.34876
2.34791
2.35915
2.36369
2.37504
2.33367
2.34457
2.34667
2.36149
2.36828
2.38074
2.33663
2.34571
2.34916
2.36373
2.37211
2.3838
2.34605
2.35255
2.35626
2.36825
2.37661
2.38634
2.35759
2.36107
2.36403
2.37245
2.37849
2.38554
2.37362
2.37237
2.37327
2.37817
2.38042
2.38379
2.38658
2.38304
2.38169
2.3835
2.38306
2.38323
2.39811
2.39211
2.3899
2.38932
2.38761
2.3863
2.40783
2.3998
2.39704
2.39303
2.39013
2.38663
2.41371
2.40558
2.40333
2.39715
2.39339
2.38917
2.41764
2.40885
2.40631
2.39861
2.39312
2.38719
2.41915
2.41093
2.40848
2.4036
2.40136
2.3955
2.26989
2.31267
2.31188
2.32703
2.3347
2.3584
2.23509
2.29806
2.30979
2.33723
2.3532
2.37967
2.20523
2.28178
2.30331
2.33851
2.36066
2.38796
2.19691
2.27771
2.30833
2.34875
2.37431
2.39889
2.20729
2.28229
2.31792
2.3596
2.38638
2.40769
2.23374
2.29851
2.33313
2.37101
2.39658
2.41379
2.27035
2.31948
2.34959
2.38261
2.40208
2.41502
2.31162
2.34174
2.36204
2.38653
2.40018
2.4125
2.34494
2.35962
2.3694
2.38483
2.39369
2.40448
2.37173
2.3729
2.37515
2.38261
2.38802
2.39604
2.38908
2.38164
2.38065
2.38077
2.38356
2.38798
2.39906
2.38639
2.38481
2.38272
2.385
2.38778
2.40117
2.3869
2.3848
2.38132
2.38125
2.38117
2.39888
2.38993
2.38873
2.39046
2.39251
2.38952
2.43053
2.43599
2.43792
2.44046
2.44994
2.45833
2.46996
2.47744
2.48217
2.48258
2.47848
2.46965
2.46148
2.45143
2.42576
2.42926
2.43239
2.43884
2.44917
2.45788
2.46932
2.47635
2.48097
2.48186
2.47883
2.47217
2.46575
2.46002
2.43063
2.43186
2.43502
2.44081
2.44943
2.45724
2.46783
2.47504
2.48001
2.48276
2.48187
2.47718
2.47296
2.47107
2.43323
2.42985
2.43167
2.43753
2.44646
2.4548
2.46536
2.47295
2.47799
2.48111
2.48137
2.47886
2.47629
2.47257
2.43352
2.43149
2.43499
2.44013
2.44761
2.45461
2.46367
2.47127
2.47721
2.48149
2.48342
2.4832
2.48266
2.47901
2.43522
2.43552
2.43813
2.44184
2.44762
2.45373
2.46152
2.46829
2.47439
2.47937
2.4823
2.48413
2.48421
2.48187
2.43574
2.43735
2.43979
2.4425
2.44685
2.4525
2.45988
2.46663
2.47319
2.47955
2.48349
2.4873
2.48851
2.48833
2.43257
2.43336
2.43614
2.43944
2.44418
2.44984
2.45741
2.46445
2.47059
2.47781
2.48203
2.4865
2.48863
2.48958
2.42457
2.42713
2.43205
2.43639
2.4411
2.44659
2.45417
2.46183
2.4679
2.4755
2.47934
2.4841
2.48586
2.48725
2.41688
2.42133
2.42772
2.43348
2.43814
2.44483
2.45224
2.46011
2.46547
2.4725
2.47489
2.47935
2.47976
2.48157
2.41009
2.4145
2.42254
2.42987
2.43419
2.44219
2.44997
2.45795
2.46257
2.46824
2.46923
2.47261
2.47203
2.47349
2.40905
2.41142
2.41918
2.42692
2.43191
2.44097
2.4489
2.45623
2.4597
2.46505
2.46505
2.46681
2.46535
2.46458
2.40888
2.41211
2.41899
2.42578
2.43064
2.43922
2.44714
2.45386
2.45576
2.45852
2.45654
2.45804
2.45471
2.45328
2.40731
2.40802
2.41713
2.42883
2.43457
2.44016
2.4456
2.45057
2.4509
2.45154
2.44711
2.44986
2.44537
2.44145
2.46275
2.46953
2.47292
2.47362
2.48034
2.48645
2.49826
2.50752
2.51455
2.51798
2.51719
2.51272
2.50981
2.50579
2.46441
2.46312
2.4651
2.4689
2.47659
2.48335
2.49462
2.50393
2.51003
2.51349
2.51268
2.50948
2.50615
2.50709
2.46887
2.46289
2.46202
2.46439
2.47232
2.48022
2.49118
2.50037
2.50706
2.51194
2.51299
2.51159
2.50929
2.51282
2.46764
2.45766
2.45748
2.46138
2.46916
2.47724
2.48798
2.49697
2.50355
2.50813
2.51025
2.51066
2.50867
2.51089
2.46661
2.45867
2.45904
2.46232
2.46951
2.47659
2.48585
2.49433
2.50146
2.50697
2.51039
2.51256
2.51357
2.51347
2.46643
2.46184
2.46187
2.46411
2.46982
2.47568
2.4837
2.49136
2.49838
2.50432
2.50854
2.51202
2.5142
2.51474
2.46611
2.46362
2.46329
2.46468
2.46903
2.47453
2.48198
2.48933
2.49662
2.5036
2.50881
2.51434
2.51783
2.52031
2.46237
2.46046
2.46073
2.46232
2.46626
2.47214
2.47966
2.48722
2.49442
2.50211
2.50766
2.51402
2.51821
2.52217
2.45396
2.45574
2.45778
2.45966
2.46314
2.46931
2.47691
2.48483
2.49208
2.50007
2.5055
2.51241
2.51625
2.52135
2.45107
2.45428
2.45597
2.45759
2.46061
2.46751
2.47554
2.48366
2.49042
2.49769
2.50207
2.50864
2.51135
2.51777
2.44448
2.4496
2.45281
2.45505
2.45776
2.465
2.47341
2.48159
2.48757
2.49411
2.49769
2.50326
2.50562
2.5127
2.44311
2.44648
2.45125
2.45434
2.45736
2.46502
2.47353
2.48143
2.48644
2.49237
2.4945
2.49886
2.50066
2.50612
2.43932
2.44454
2.45157
2.45603
2.45843
2.46565
2.47378
2.48111
2.48444
2.48937
2.49102
2.49562
2.4961
2.50125
2.43206
2.44042
2.45283
2.46444
2.4673
2.47141
2.47641
2.48156
2.48298
2.48594
2.48609
2.49215
2.49015
2.49237
2.50858
2.51035
2.51235
2.51105
2.51661
2.52178
2.5323
2.54216
2.54989
2.55602
2.55742
2.55632
2.5534
2.55425
2.50905
2.50116
2.50189
2.5038
2.51021
2.51645
2.52703
2.53693
2.54439
2.54942
2.55091
2.55062
2.54913
2.55256
2.5081
2.4971
2.49544
2.49713
2.50443
2.5124
2.52284
2.53234
2.5404
2.54619
2.54972
2.55101
2.55128
2.55544
2.5045
2.49442
2.49357
2.49555
2.50243
2.5096
2.51941
2.52832
2.53604
2.54171
2.54573
2.54839
2.54965
2.55273
2.50298
2.49498
2.49468
2.49654
2.50269
2.50857
2.51705
2.52527
2.53313
2.53954
2.54421
2.54887
2.55153
2.55448
2.50393
2.49802
2.49647
2.49743
2.50238
2.50723
2.51469
2.52219
2.52979
2.53653
2.54174
2.54698
2.55129
2.55455
2.50326
2.4988
2.49686
2.49751
2.50138
2.50595
2.51281
2.51994
2.52746
2.53474
2.54091
2.54719
2.55264
2.55718
2.49887
2.49552
2.49427
2.4952
2.49855
2.50368
2.51055
2.51781
2.52524
2.53296
2.53936
2.54672
2.55222
2.55802
2.49377
2.49306
2.4919
2.49258
2.49536
2.50107
2.50818
2.51576
2.52316
2.53108
2.53738
2.54527
2.55047
2.55772
2.49381
2.49276
2.49032
2.49045
2.49312
2.49931
2.507
2.51475
2.52173
2.52914
2.53476
2.54243
2.54675
2.55545
2.49106
2.48987
2.48767
2.48733
2.49049
2.49706
2.50545
2.51338
2.52013
2.52706
2.53186
2.53865
2.54245
2.55228
2.4916
2.48807
2.48804
2.48769
2.49115
2.49769
2.50621
2.51394
2.52006
2.52584
2.52962
2.5357
2.53911
2.54823
2.48771
2.48614
2.48986
2.48916
2.49261
2.49876
2.50749
2.5152
2.52057
2.52619
2.5293
2.5349
2.53703
2.54525
2.48178
2.48942
2.49709
2.4996
2.50188
2.50488
2.51127
2.51758
2.52152
2.52618
2.53042
2.53741
2.53727
2.54138
2.52787
2.52638
2.52909
2.53086
2.53838
2.54516
2.55565
2.56545
2.57339
2.57959
2.58303
2.58243
2.57922
2.57807
2.52658
2.51661
2.52031
2.52408
2.53231
2.54001
2.55038
2.55996
2.56793
2.57295
2.57632
2.57715
2.57538
2.57726
2.52452
2.5161
2.51841
2.52163
2.5292
2.53674
2.54632
2.55529
2.56347
2.56965
2.57427
2.57702
2.57736
2.58178
2.52685
2.51916
2.5203
2.52221
2.52851
2.53459
2.54304
2.55119
2.55885
2.56515
2.56979
2.57413
2.57617
2.58021
2.52818
2.52247
2.52271
2.52341
2.52855
2.53323
2.54044
2.54795
2.55554
2.56256
2.56786
2.5735
2.57792
2.5815
2.53071
2.52549
2.52401
2.52395
2.52794
2.53164
2.53796
2.54478
2.55212
2.55932
2.56528
2.57103
2.5767
2.58072
2.53053
2.52597
2.52348
2.52337
2.52649
2.52999
2.53595
2.54243
2.54968
2.55715
2.5638
2.57049
2.57679
2.58212
2.52639
2.52256
2.52056
2.52092
2.5238
2.5279
2.5339
2.54041
2.54747
2.55515
2.56191
2.56952
2.57574
2.58218
2.5236
2.51963
2.51718
2.51791
2.52071
2.52568
2.53191
2.53867
2.54561
2.55337
2.56003
2.5681
2.57395
2.58178
2.52198
2.51646
2.51394
2.51509
2.51846
2.52446
2.53122
2.53818
2.54474
2.55183
2.55801
2.56579
2.57074
2.57988
2.51772
2.51095
2.50952
2.51134
2.51598
2.52269
2.53002
2.53708
2.54343
2.55017
2.55578
2.56262
2.56674
2.57682
2.51747
2.50869
2.50813
2.51021
2.51612
2.52328
2.5311
2.5381
2.54398
2.54948
2.55405
2.55976
2.56305
2.57292
2.51387
2.50673
2.50823
2.50967
2.51623
2.52367
2.53209
2.53927
2.54456
2.54996
2.55328
2.55784
2.5601
2.56872
2.51288
2.51474
2.51672
2.51706
2.52222
2.52833
2.53574
2.54224
2.54662
2.55068
2.55433
2.55958
2.56073
2.56588
2.54278
2.54183
2.54641
2.55041
2.55908
2.5665
2.576
2.58513
2.59222
2.59787
2.60241
2.60246
2.59925
2.59522
2.54284
2.537
2.54197
2.54695
2.55534
2.56298
2.57184
2.58036
2.58766
2.59266
2.59637
2.59754
2.59641
2.59731
2.54572
2.54069
2.54464
2.54801
2.55475
2.56079
2.56874
2.57662
2.5838
2.58994
2.59449
2.59782
2.5987
2.60092
2.54853
2.54425
2.54709
2.54901
2.55452
2.55934
2.56608
2.57305
2.57981
2.5861
2.59077
2.59535
2.59781
2.60101
2.55317
2.54895
2.55017
2.55034
2.55449
2.55814
2.56377
2.57011
2.57675
2.58355
2.58895
2.59456
2.5987
2.60279
2.55568
2.55122
2.55061
2.55024
2.55343
2.55625
2.56132
2.56713
2.57365
2.58054
2.58651
2.59233
2.5979
2.60237
2.55546
2.55119
2.5491
2.54883
2.55154
2.55421
2.55917
2.56482
2.57131
2.57828
2.58462
2.5912
2.59702
2.60283
2.55203
2.54807
2.5463
2.54649
2.549
2.55213
2.55714
2.56279
2.5691
2.57606
2.58243
2.58952
2.59563
2.60211
2.54826
2.54378
2.54234
2.54322
2.54599
2.55004
2.55531
2.5611
2.56724
2.57421
2.58044
2.58785
2.59362
2.60107
2.54423
2.53918
2.53841
2.54015
2.54379
2.54899
2.55467
2.56055
2.56625
2.57265
2.57845
2.58564
2.59051
2.59899
2.53798
2.53261
2.53282
2.53595
2.54103
2.54707
2.5532
2.55924
2.56483
2.57087
2.57627
2.58261
2.58665
2.59581
2.53542
2.52931
2.53044
2.53466
2.54095
2.54756
2.554
2.55997
2.56519
2.57003
2.57465
2.57973
2.5827
2.59096
2.53131
2.52518
2.52744
2.53217
2.53946
2.5472
2.55459
2.56069
2.56539
2.57011
2.57322
2.57672
2.57922
2.58573
2.53193
2.53126
2.53311
2.53646
2.54355
2.55093
2.55786
2.56342
2.56736
2.57126
2.57357
2.57669
2.57775
2.58089
2.5575
2.56049
2.56636
2.57152
2.57925
2.58567
2.59342
2.60084
2.60658
2.61166
2.61569
2.61687
2.61421
2.61086
2.56253
2.56054
2.56589
2.57105
2.5779
2.58386
2.59048
2.59724
2.60311
2.60769
2.61106
2.61298
2.61287
2.61271
2.56765
2.56563
2.56963
2.57262
2.57781
2.5822
2.58821
2.59441
2.60011
2.60552
2.60978
2.61317
2.61442
2.61561
2.5726
2.5693
2.57209
2.57347
2.57753
2.5811
2.58605
2.59153
2.59703
2.60258
2.60707
2.61146
2.61408
2.61669
2.57698
2.57332
2.57451
2.57431
2.57729
2.57983
2.58406
2.58904
2.59448
2.6004
2.60544
2.61056
2.61439
2.61793
2.57836
2.57473
2.57435
2.57384
2.57598
2.57788
2.5818
2.58641
2.59178
2.59777
2.60327
2.60893
2.61373
2.61829
2.57692
2.57365
2.57231
2.57202
2.57394
2.57581
2.57969
2.5842
2.58957
2.59559
2.60127
2.60727
2.61248
2.61817
2.57391
2.57081
2.56985
2.56998
2.57172
2.5739
2.57775
2.58221
2.58742
2.59331
2.59891
2.60512
2.61073
2.6168
2.56865
2.56592
2.56587
2.5666
2.56896
2.5719
2.57598
2.5805
2.58556
2.59136
2.59676
2.60317
2.60853
2.61522
2.5634
2.56105
2.56197
2.56382
2.56711
2.57093
2.57533
2.57983
2.58448
2.58981
2.59478
2.60106
2.60565
2.61305
2.55646
2.55445
2.55668
2.56
2.56435
2.56891
2.57373
2.5784
2.58304
2.58823
2.5928
2.59842
2.60214
2.61006
2.55187
2.55009
2.55368
2.55839
2.56395
2.56921
2.57428
2.57885
2.58306
2.58731
2.5913
2.5958
2.59884
2.60581
2.54592
2.54502
2.5493
2.55498
2.56192
2.56868
2.57462
2.57926
2.58292
2.58688
2.58991
2.59289
2.59523
2.59994
2.54419
2.54729
2.55168
2.55754
2.56486
2.57161
2.5772
2.58148
2.58463
2.58774
2.58962
2.59114
2.59261
2.59458
2.576
2.58137
2.58747
2.59277
2.59924
2.60455
2.6105
2.61603
2.62039
2.62471
2.6281
2.62967
2.62823
2.62533
2.58332
2.58466
2.58935
2.59387
2.59895
2.60344
2.60825
2.61335
2.61768
2.62163
2.62444
2.62649
2.62696
2.62666
2.59084
2.58982
2.59306
2.59538
2.59904
2.60211
2.60656
2.61111
2.61541
2.61998
2.62361
2.6268
2.62817
2.62907
2.59579
2.59302
2.5953
2.59592
2.59889
2.60133
2.60481
2.60893
2.61315
2.61781
2.6217
2.6256
2.62809
2.63029
2.59896
2.59602
2.59686
2.59633
2.59856
2.60021
2.60328
2.60701
2.61124
2.61613
2.62048
2.6249
2.62828
2.63128
2.59957
2.59682
2.59645
2.59584
2.59731
2.59849
2.60136
2.60486
2.60907
2.61399
2.61866
2.62357
2.62769
2.63186
2.59775
2.59546
2.59451
2.59414
2.59542
2.59662
2.59945
2.60289
2.6071
2.61204
2.61684
2.62198
2.62657
2.63159
2.59491
2.59284
2.5923
2.59225
2.59336
2.59483
2.59764
2.60103
2.6051
2.60989
2.61458
2.61981
2.62474
2.63016
2.58959
2.58829
2.58852
2.58916
2.59087
2.59292
2.59587
2.5993
2.60329
2.60799
2.61248
2.61786
2.62255
2.62843
2.58435
2.58373
2.58483
2.58656
2.58919
2.5919
2.59511
2.59851
2.60218
2.60648
2.61055
2.61581
2.61983
2.62614
2.5774
2.5775
2.57986
2.58299
2.58642
2.58986
2.59351
2.59715
2.60087
2.60508
2.60876
2.61359
2.61683
2.62343
2.57183
2.57266
2.57677
2.58117
2.5858
2.58992
2.5938
2.59735
2.60063
2.60405
2.60728
2.6112
2.61392
2.61995
2.56577
2.56715
2.57237
2.57774
2.58386
2.58927
2.59383
2.59741
2.60025
2.60334
2.60593
2.60858
2.61087
2.61487
2.56016
2.56621
2.57282
2.57958
2.58615
2.59159
2.59579
2.599
2.6014
2.60385
2.60498
2.60615
2.60726
2.60933
2.62954
2.63282
2.63631
2.63891
2.64063
2.63982
2.63773
2.62746
2.63061
2.63386
2.63601
2.63782
2.63835
2.63815
2.62564
2.62881
2.63254
2.63552
2.63825
2.63949
2.64016
2.62402
2.62717
2.63094
2.63417
2.63744
2.63965
2.64147
2.62259
2.6258
2.62973
2.63336
2.63702
2.63982
2.64234
2.621
2.62417
2.62806
2.63188
2.63595
2.63934
2.64282
2.61935
2.62253
2.62643
2.63034
2.63458
2.63844
2.64258
2.61763
2.62074
2.62453
2.62832
2.63261
2.63676
2.64133
2.60839
2.60782
2.60813
2.60861
2.60977
2.61121
2.61337
2.61598
2.61907
2.6228
2.62641
2.63076
2.63467
2.63963
2.60336
2.60364
2.60488
2.60621
2.60814
2.61009
2.61246
2.61507
2.61794
2.62136
2.62462
2.62885
2.63215
2.63744
2.59669
2.59824
2.60055
2.60299
2.6055
2.60807
2.61091
2.61382
2.61677
2.62005
2.62296
2.62687
2.62949
2.63505
2.59093
2.59344
2.59741
2.6012
2.6048
2.60794
2.61096
2.61379
2.6164
2.61906
2.62151
2.62462
2.6268
2.63214
2.58485
2.5884
2.59365
2.5982
2.60308
2.60724
2.61077
2.61366
2.616
2.61826
2.62023
2.62232
2.62415
2.62783
2.57929
2.58627
2.59349
2.59966
2.6049
2.60898
2.61216
2.61467
2.6166
2.6182
2.61907
2.61989
2.62069
2.62294
2.43818
2.44307
2.43917
2.4365
2.4448
2.46137
2.42318
2.42406
2.42438
2.42669
2.43626
2.45128
2.43091
2.42815
2.42702
2.42772
2.43634
2.44902
2.43341
2.42969
2.43104
2.43451
2.44401
2.45527
2.44575
2.44237
2.44398
2.44524
2.45468
2.46558
2.45827
2.45733
2.45737
2.45498
2.46452
2.47566
2.46952
2.46839
2.46733
2.4629
2.4726
2.48606
2.47774
2.47588
2.47059
2.4651
2.47161
2.48776
2.48091
2.47686
2.46732
2.45972
2.46784
2.49492
2.4782
2.47219
2.46272
2.45871
2.47297
2.51134
2.47154
2.46429
2.45798
2.45746
2.47973
2.52811
2.46359
2.4552
2.45267
2.45689
2.48598
2.54342
2.45939
2.44781
2.44835
2.4559
2.48706
2.5429
2.44025
2.43069
2.43836
2.45129
2.48199
2.52976
2.46589
2.46643
2.46039
2.45624
2.45927
2.4716
2.45401
2.44673
2.4407
2.44018
2.4453
2.45978
2.46262
2.45182
2.44416
2.44288
2.44871
2.4614
2.46658
2.45705
2.45344
2.45427
2.46282
2.47297
2.47836
2.47258
2.47215
2.47303
2.48405
2.49203
2.48809
2.4887
2.49349
2.49609
2.50798
2.51388
2.50169
2.50362
2.50891
2.51525
2.53119
2.5378
2.51168
2.51648
2.52255
2.52893
2.54466
2.55374
2.51859
2.52323
2.52885
2.53849
2.55878
2.57383
2.51927
2.52419
2.53206
2.54724
2.57392
2.5984
2.51713
2.5236
2.53673
2.55873
2.59018
2.62123
2.51457
2.52307
2.53828
2.56102
2.59288
2.62887
2.51591
2.52059
2.53349
2.55238
2.58014
2.61131
2.50347
2.50071
2.51444
2.53109
2.55424
2.57769
2.51361
2.51376
2.50865
2.50096
2.4979
2.50059
2.50495
2.4974
2.48918
2.48285
2.48156
2.48835
2.51023
2.49999
2.49021
2.48471
2.48287
2.49089
2.51162
2.50275
2.49607
2.49411
2.49458
2.50378
2.51955
2.51508
2.51259
2.51252
2.51499
2.52484
2.52553
2.52596
2.52997
2.53483
2.54105
2.55099
2.53806
2.54299
2.54961
2.55704
2.56612
2.57799
2.54848
2.55634
2.56527
2.57495
2.58599
2.59844
2.55668
2.56615
2.57502
2.58662
2.60038
2.61648
2.56012
2.56871
2.57901
2.59501
2.61381
2.63474
2.55987
2.56924
2.58284
2.60394
2.62716
2.65113
2.55923
2.57031
2.58719
2.60958
2.63217
2.65688
2.56027
2.57248
2.5866
2.60372
2.62029
2.63912
2.55296
2.55666
2.56803
2.58126
2.59305
2.60493
2.53507
2.54256
2.54242
2.53295
2.52284
2.51579
2.5308
2.53444
2.53194
2.51978
2.50929
2.50502
2.53469
2.53684
2.53181
2.52153
2.51234
2.50894
2.53546
2.53737
2.53469
2.52936
2.52445
2.52366
2.54433
2.54576
2.54672
2.54557
2.54474
2.5455
2.55098
2.55444
2.55942
2.56339
2.56732
2.57101
2.56222
2.56868
2.57697
2.58342
2.59039
2.59647
2.57258
2.58124
2.59063
2.59983
2.60941
2.61737
2.58017
2.59038
2.60036
2.61168
2.623
2.63365
2.58476
2.59371
2.6033
2.61684
2.63071
2.64563
2.58512
2.59358
2.60378
2.62012
2.63746
2.6572
2.58276
2.59106
2.60443
2.62455
2.64369
2.6651
2.58499
2.59442
2.60641
2.6214
2.63579
2.65106
2.57627
2.58157
2.59066
2.60294
2.61241
2.6202
2.54629
2.55815
2.56203
2.56004
2.54634
2.53332
2.54662
2.55531
2.55879
2.55486
2.53832
2.52691
2.55221
2.55914
2.56105
2.55683
2.54321
2.53428
2.55488
2.55964
2.56381
2.56249
2.55475
2.55034
2.56447
2.56786
2.57304
2.57425
2.57204
2.57131
2.57196
2.57643
2.58313
2.58756
2.59072
2.59251
2.58203
2.58839
2.5966
2.60383
2.61011
2.61421
2.59142
2.59941
2.60823
2.61692
2.62507
2.63191
2.59798
2.60683
2.61588
2.62617
2.63575
2.64558
2.60246
2.61001
2.61759
2.62759
2.63775
2.65141
2.60317
2.60896
2.61543
2.62504
2.63653
2.65435
2.60073
2.60423
2.60982
2.6216
2.63631
2.65672
2.6009
2.60583
2.61002
2.61878
2.63075
2.647
2.59153
2.59226
2.59601
2.60482
2.61389
2.62431
2.55427
2.56079
2.56672
2.57114
2.56773
2.5563
2.55953
2.56139
2.56852
2.57067
2.56449
2.5508
2.566
2.56827
2.5729
2.57549
2.56917
2.55699
2.57074
2.5727
2.57797
2.5815
2.5786
2.57128
2.58029
2.58295
2.58751
2.5917
2.59232
2.58929
2.58842
2.59217
2.59803
2.60373
2.60769
2.60973
2.59757
2.60288
2.60996
2.61731
2.62416
2.62862
2.6057
2.61246
2.6203
2.62874
2.63689
2.64363
2.61116
2.61849
2.62644
2.63592
2.64535
2.65515
2.61528
2.62172
2.62861
2.63757
2.64642
2.65843
2.61648
2.62132
2.6266
2.63398
2.64212
2.65605
2.61495
2.61759
2.6207
2.62662
2.63562
2.65119
2.61338
2.61677
2.61802
2.62138
2.62853
2.64156
2.60781
2.60586
2.6051
2.60856
2.61503
2.62412
2.56944
2.56983
2.57125
2.57578
2.57856
2.57492
2.57684
2.57423
2.57481
2.57807
2.57827
2.57152
2.58406
2.58157
2.58193
2.58443
2.58447
2.57763
2.59021
2.58809
2.58949
2.59286
2.59433
2.59036
2.59894
2.59849
2.60105
2.60439
2.60716
2.60645
2.60589
2.60763
2.61197
2.61671
2.62113
2.62323
2.61334
2.61709
2.62272
2.62908
2.63543
2.64034
2.61978
2.62515
2.63178
2.63937
2.64706
2.65374
2.62408
2.63002
2.6369
2.64529
2.65395
2.66301
2.62764
2.63322
2.63936
2.64752
2.65569
2.66628
2.62907
2.63358
2.63834
2.64485
2.65144
2.6624
2.6283
2.63111
2.63315
2.6368