/*--------------------------------*- C++ -*----------------------------------*\
| =========                 |                                                 |
| \\      /  F ield         | OpenFOAM: The Open Source CFD Toolbox           |
|  \\    /   O peration     | Version:  v2106                                 |
|   \\  /    A nd           | Website:  www.openfoam.com                      |
|    \\/     M anipulation  |                                                 |
\*---------------------------------------------------------------------------*/
FoamFile
{
    version     2.0;
    format      ascii;
    arch        "LSB;label=32;scalar=64";
    class       volScalarField;
    location    "0.000187";
    object      alphat;
}
// * * * * * * * * * * * * * * * * * * * * * * * * * * * * * * * * * * * * * //

dimensions      [1 -1 -1 0 0 0 0];

internalField   nonuniform List<scalar> 
144746
(
0.000160108
0.000130161
9.70964e-05
6.49796e-05
4.45902e-05
3.63066e-05
4.12986e-05
6.09677e-05
9.60291e-05
0.000141178
0.000176355
0.000182662
0.000166564
0.000147214
0.000165105
0.000124424
8.25797e-05
4.92144e-05
3.07756e-05
2.26693e-05
2.34791e-05
3.42711e-05
5.70332e-05
9.09226e-05
0.000129016
0.000150397
0.000145864
0.000130218
0.000145936
9.76986e-05
5.7359e-05
3.12413e-05
1.86369e-05
1.30392e-05
1.26852e-05
1.84273e-05
3.25024e-05
5.53264e-05
8.39354e-05
0.000110535
0.000118028
0.000112747
0.000105021
6.13821e-05
3.22734e-05
1.65005e-05
9.5886e-06
6.6643e-06
6.52143e-06
9.82708e-06
1.83998e-05
3.31052e-05
5.24151e-05
7.31747e-05
8.59712e-05
9.01916e-05
6.25053e-05
3.1928e-05
1.51335e-05
7.29912e-06
4.15408e-06
2.99753e-06
3.25161e-06
5.51169e-06
1.11631e-05
2.12214e-05
3.48726e-05
4.96494e-05
6.20502e-05
7.22041e-05
3.22658e-05
1.4473e-05
6.17946e-06
2.77859e-06
1.56296e-06
1.26622e-06
1.74665e-06
3.53894e-06
7.67695e-06
1.5035e-05
2.51549e-05
3.60519e-05
4.72765e-05
6.16159e-05
1.62684e-05
6.58378e-06
2.54683e-06
1.0787e-06
6.28417e-07
6.61575e-07
1.24194e-06
2.83255e-06
6.20493e-06
1.20114e-05
1.99942e-05
2.89927e-05
4.15644e-05
6.32885e-05
1.03454e-05
4.09489e-06
1.62291e-06
7.60112e-07
5.14824e-07
6.58923e-07
1.31425e-06
2.8632e-06
5.87049e-06
1.07753e-05
1.74799e-05
2.64344e-05
4.4144e-05
7.76018e-05
1.03074e-05
4.35921e-06
2.05967e-06
1.20128e-06
9.21512e-07
1.0872e-06
1.81078e-06
3.38366e-06
6.2144e-06
1.06445e-05
1.69934e-05
2.94502e-05
5.73517e-05
0.000104705
1.51228e-05
6.67047e-06
3.60042e-06
2.45074e-06
1.98758e-06
2.0825e-06
2.84049e-06
4.47561e-06
7.32584e-06
1.19307e-05
2.03908e-05
4.16989e-05
8.23491e-05
0.000137419
3.01434e-05
1.36774e-05
6.89224e-06
5.05433e-06
4.27922e-06
4.19077e-06
4.94753e-06
6.78958e-06
1.02314e-05
1.68983e-05
3.12088e-05
6.52273e-05
0.00011328
0.000161282
6.05092e-05
3.83115e-05
2.01602e-05
1.14542e-05
8.97735e-06
8.49158e-06
9.31647e-06
1.17749e-05
1.68645e-05
2.79109e-05
5.13095e-05
9.29991e-05
0.000135905
0.000166169
9.56968e-05
7.75607e-05
5.13031e-05
2.96486e-05
1.92477e-05
1.62704e-05
1.68855e-05
2.03739e-05
2.7984e-05
4.39003e-05
7.28801e-05
0.000110821
0.000139418
0.000154712
0.000124602
0.000117554
9.61408e-05
6.70318e-05
4.39747e-05
3.18338e-05
2.876e-05
3.1994e-05
4.10951e-05
5.90739e-05
8.57201e-05
0.000112732
0.000129172
0.000139974
0.000136106
0.000104721
7.45651e-05
4.91587e-05
3.40682e-05
2.75112e-05
3.03465e-05
4.39874e-05
6.94455e-05
0.000103537
0.00013776
0.000156362
0.000154809
0.000142234
0.0001295
9.27907e-05
6.01702e-05
3.6559e-05
2.37813e-05
1.78213e-05
1.80458e-05
2.57523e-05
4.28421e-05
6.78595e-05
9.59348e-05
0.000119723
0.000126535
0.000121078
0.000105521
6.90481e-05
4.09607e-05
2.34449e-05
1.4672e-05
1.0552e-05
1.01443e-05
1.44277e-05
2.54387e-05
4.30731e-05
6.43849e-05
8.48677e-05
9.72086e-05
9.96069e-05
7.15071e-05
4.22591e-05
2.31338e-05
1.26589e-05
7.73372e-06
5.52354e-06
5.35526e-06
7.94975e-06
1.49702e-05
2.6997e-05
4.21546e-05
5.7071e-05
6.91647e-05
7.61603e-05
4.07553e-05
2.13931e-05
1.08194e-05
5.68277e-06
3.4298e-06
2.53288e-06
2.7085e-06
4.54176e-06
9.2593e-06
1.7646e-05
2.87558e-05
4.02093e-05
5.03214e-05
5.93371e-05
2.00378e-05
9.25427e-06
4.29222e-06
2.14241e-06
1.29525e-06
1.06688e-06
1.44525e-06
2.91804e-06
6.37358e-06
1.25113e-05
2.09151e-05
2.99676e-05
3.85909e-05
4.88357e-05
9.64658e-06
3.91742e-06
1.61877e-06
7.53966e-07
4.72909e-07
5.12068e-07
9.77662e-07
2.27848e-06
5.06181e-06
9.85689e-06
1.64916e-05
2.40318e-05
3.26038e-05
4.65677e-05
6.16774e-06
2.35637e-06
9.0488e-07
4.11971e-07
2.92371e-07
4.25991e-07
9.42721e-07
2.18207e-06
4.62398e-06
8.64806e-06
1.42233e-05
2.11222e-05
3.19203e-05
5.24909e-05
6.47798e-06
2.58017e-06
1.1095e-06
6.00332e-07
4.72497e-07
6.35054e-07
1.19984e-06
2.44014e-06
4.72778e-06
8.37934e-06
1.3643e-05
2.16333e-05
3.79961e-05
6.81005e-05
9.73925e-06
4.06249e-06
2.01534e-06
1.29995e-06
1.06972e-06
1.21784e-06
1.83522e-06
3.14177e-06
5.47886e-06
9.30382e-06
1.55965e-05
2.78479e-05
5.29566e-05
9.03782e-05
1.91336e-05
8.14402e-06
4.04987e-06
2.89368e-06
2.45836e-06
2.53912e-06
3.24043e-06
4.78783e-06
7.64811e-06
1.27283e-05
2.21364e-05
4.22973e-05
7.4416e-05
0.000113972
4.12664e-05
2.36234e-05
1.16696e-05
6.61998e-06
5.3971e-06
5.3081e-06
6.1893e-06
8.31615e-06
1.23529e-05
1.99589e-05
3.4942e-05
6.19412e-05
9.62556e-05
0.000131857
7.16001e-05
5.15789e-05
3.11009e-05
1.69734e-05
1.14571e-05
1.04413e-05
1.145e-05
1.4446e-05
2.02313e-05
3.10726e-05
5.03618e-05
8.0356e-05
0.000111756
0.000137957
0.000101526
8.4924e-05
6.20839e-05
3.97436e-05
2.54916e-05
1.98246e-05
1.96171e-05
2.31333e-05
3.03447e-05
4.33416e-05
6.46346e-05
9.3143e-05
0.000117801
0.000136218
9.20979e-05
6.80219e-05
4.8019e-05
3.29588e-05
2.42578e-05
1.99304e-05
2.03779e-05
2.65985e-05
3.99334e-05
5.932e-05
8.24544e-05
0.000105735
0.000124106
0.00013209
7.67698e-05
5.42864e-05
3.59139e-05
2.33167e-05
1.64025e-05
1.28382e-05
1.25389e-05
1.64647e-05
2.63748e-05
4.18392e-05
6.06166e-05
7.93569e-05
9.44062e-05
0.000104458
5.60331e-05
3.73695e-05
2.3619e-05
1.47227e-05
9.91095e-06
7.50567e-06
7.16082e-06
9.59928e-06
1.65072e-05
2.81457e-05
4.2799e-05
5.80503e-05
7.12326e-05
8.16721e-05
3.54901e-05
2.23147e-05
1.32389e-05
7.90999e-06
5.17188e-06
3.88374e-06
3.77995e-06
5.41243e-06
1.01023e-05
1.84745e-05
2.95592e-05
4.14872e-05
5.23008e-05
6.17325e-05
1.98316e-05
1.12641e-05
6.18701e-06
3.54503e-06
2.28564e-06
1.76435e-06
1.89111e-06
3.11018e-06
6.35309e-06
1.23063e-05
2.06467e-05
3.01066e-05
3.93122e-05
4.84258e-05
9.89865e-06
4.8665e-06
2.41914e-06
1.32607e-06
8.59144e-07
7.30539e-07
9.85569e-07
1.98417e-06
4.37571e-06
8.7475e-06
1.51347e-05
2.27967e-05
3.08192e-05
3.9423e-05
5.02073e-06
2.05652e-06
8.75088e-07
4.40873e-07
2.96195e-07
3.28219e-07
6.37937e-07
1.5236e-06
3.46034e-06
6.90941e-06
1.20233e-05
1.84646e-05
2.5804e-05
3.46935e-05
3.49151e-06
1.24418e-06
4.42483e-07
1.93203e-07
1.43323e-07
2.33932e-07
5.73486e-07
1.41747e-06
3.13472e-06
6.08324e-06
1.04481e-05
1.61731e-05
2.33511e-05
3.36544e-05
3.8043e-06
1.36066e-06
5.09239e-07
2.46173e-07
1.97801e-07
3.11142e-07
6.839e-07
1.54028e-06
3.18825e-06
5.93231e-06
1.00225e-05
1.57421e-05
2.40209e-05
3.79258e-05
5.67221e-06
2.14626e-06
9.57364e-07
5.75673e-07
4.78336e-07
5.99117e-07
1.02061e-06
1.94603e-06
3.66912e-06
6.54454e-06
1.10578e-05
1.80489e-05
2.9217e-05
4.73385e-05
1.08273e-05
4.30307e-06
2.08952e-06
1.43188e-06
1.2156e-06
1.3256e-06
1.83728e-06
2.96333e-06
5.07287e-06
8.72905e-06
1.48035e-05
2.45565e-05
4.00063e-05
6.1508e-05
2.28301e-05
1.18718e-05
5.74572e-06
3.42737e-06
2.89634e-06
2.98315e-06
3.68528e-06
5.26867e-06
8.23778e-06
1.34143e-05
2.19524e-05
3.53555e-05
5.48849e-05
8.04932e-05
4.12836e-05
2.60836e-05
1.46539e-05
8.19689e-06
6.25695e-06
6.2523e-06
7.2583e-06
9.53925e-06
1.3691e-05
2.0714e-05
3.19525e-05
4.92585e-05
7.25007e-05
9.96708e-05
6.18156e-05
4.46646e-05
2.96132e-05
1.83628e-05
1.30446e-05
1.19639e-05
1.3143e-05
1.61336e-05
2.14194e-05
3.00776e-05
4.39168e-05
6.56183e-05
9.20969e-05
0.000117576
0.000135827
0.000142414
0.000153905
0.000173414
0.000196682
0.000230882
0.000118659
0.000125165
0.000139156
0.000165236
0.0002042
0.000259771
0.000105506
0.000111767
0.000127984
0.000157735
0.000208749
0.000284105
9.1683e-05
0.000103252
0.000123742
0.000154922
0.000211942
0.000302542
8.34689e-05
0.000102485
0.000128207
0.000159633
0.00021606
0.000315673
8.36569e-05
0.000111833
0.000141767
0.000170935
0.000220218
0.000322774
9.67071e-05
0.000132914
0.000162814
0.00018566
0.000223536
0.000325027
0.000121448
0.000160673
0.000183103
0.000195857
0.000222648
0.000324452
0.000151137
0.00018223
0.000191235
0.000195654
0.00021519
0.000320211
0.000172048
0.000186794
0.000185598
0.000187347
0.00020346
0.000311619
0.000175121
0.000177224
0.00017373
0.000177248
0.000191985
0.000299261
0.000165239
0.000163464
0.000162622
0.000168363
0.000182186
0.00028267
0.000151536
0.000151135
0.000153258
0.000161135
0.000176011
0.000261247
0.000138935
0.000140616
0.000144902
0.00015595
0.000173949
0.000234628
0.000130861
0.000136944
0.000144673
0.000159361
0.000180659
0.000218794
0.000112014
0.000118487
0.000130041
0.000151027
0.000186488
0.000243258
9.62827e-05
0.000103958
0.000118952
0.000144194
0.000191163
0.000264397
7.99547e-05
9.22838e-05
0.000112849
0.000141966
0.000196114
0.000281032
6.88141e-05
8.63082e-05
0.000113241
0.000146784
0.000203297
0.000293636
6.4246e-05
8.83293e-05
0.000121571
0.000157392
0.000210789
0.000301903
6.88563e-05
0.000100285
0.000139148
0.000173345
0.000215329
0.000306026
8.27491e-05
0.000121194
0.000161873
0.000188135
0.000213884
0.000307557
0.000103757
0.000144606
0.000179206
0.000192955
0.000205769
0.000305345
0.000125574
0.000161019
0.000183366
0.000187006
0.000193198
0.000297354
0.000140953
0.000165366
0.000176843
0.000176972
0.000181985
0.000284635
0.000146614
0.00016056
0.000166937
0.00016819
0.000174478
0.000267305
0.000144914
0.00015256
0.000157677
0.000162022
0.000170871
0.000245058
0.00013875
0.000144947
0.00014961
0.000157566
0.000170547
0.000218529
0.000134622
0.00014651
0.000153324
0.000159411
0.000170037
0.000196564
0.000107721
0.000120772
0.000134454
0.000149631
0.000172976
0.000217242
8.91711e-05
0.000103152
0.000120761
0.000141811
0.00017567
0.000236767
7.14751e-05
8.75721e-05
0.000109754
0.000137482
0.000180927
0.000253683
5.91545e-05
7.70248e-05
0.000103584
0.00013749
0.000189901
0.000268368
5.0875e-05
7.10795e-05
0.000102365
0.000142169
0.00020015
0.000278749
4.81084e-05
7.20976e-05
0.000109627
0.000152976
0.000206096
0.000284558
5.04908e-05
7.99176e-05
0.00012347
0.000167829
0.000207011
0.000286128
5.82264e-05
9.27479e-05
0.00014053
0.000180378
0.000204132
0.000284626
7.03499e-05
0.000107611
0.000154898
0.000185789
0.000197203
0.000278845
8.43618e-05
0.000121206
0.000163433
0.000186
0.00019003
0.000268438
9.82538e-05
0.000131856
0.00016769
0.000184964
0.000186629
0.000251991
0.000112866
0.000141625
0.000170582
0.000184306
0.000187457
0.000230171
0.000125855
0.000151324
0.000172792
0.000181712
0.000188378
0.000203355
0.000129079
0.000133292
0.000140006
0.000155219
0.000177953
0.000240634
0.000116408
0.000119874
0.000129343
0.000150381
0.000185013
0.000269612
0.000104832
0.000107444
0.000119474
0.000144933
0.000190021
0.00029372
8.73574e-05
9.44437e-05
0.000112289
0.000141676
0.000193691
0.000312107
6.95119e-05
8.30365e-05
0.00010863
0.000143762
0.000198574
0.000325408
5.57826e-05
7.66493e-05
0.00011018
0.00015114
0.0002049
0.000332105
4.99732e-05
7.8504e-05
0.000119912
0.000163965
0.000212453
0.000333281
5.27892e-05
9.09222e-05
0.000139142
0.000180581
0.000217388
0.000329379
6.57168e-05
0.000113249
0.000162673
0.000193643
0.00021553
0.000321729
8.75931e-05
0.000137752
0.00017874
0.000195991
0.000206246
0.000310315
0.000111979
0.000154266
0.000180986
0.000188162
0.000193286
0.000295513
0.000129949
0.000157935
0.000172733
0.000176241
0.000180674
0.000277057
0.000136105
0.000151538
0.000159471
0.000163241
0.000169794
0.000254597
0.000131424
0.000139618
0.000143789
0.000149462
0.000161417
0.000227896
0.000130399
0.000138373
0.000144743
0.000156795
0.00017413
0.000223339
0.000113162
0.00012159
0.000132666
0.00014991
0.000179788
0.000249357
9.583e-05
0.000105928
0.000121099
0.000143135
0.00018229
0.000271377
7.46994e-05
8.84222e-05
0.000109505
0.00013787
0.000183742
0.000288104
5.61845e-05
7.25971e-05
9.9205e-05
0.00013549
0.000187488
0.000300379
4.31995e-05
6.16023e-05
9.27116e-05
0.000136315
0.000194024
0.000308107
3.62356e-05
5.72538e-05
9.33218e-05
0.000142845
0.000202238
0.000311493
3.46878e-05
6.07823e-05
0.000103962
0.000156783
0.000208283
0.000309197
4.01634e-05
7.36857e-05
0.000123904
0.000173335
0.000208145
0.00030314
5.336e-05
9.28699e-05
0.000144211
0.000182746
0.000200815
0.000293217
7.20561e-05
0.000111731
0.00015556
0.000180893
0.000188876
0.000278718
9.14213e-05
0.000124576
0.000156264
0.000172129
0.000178157
0.000260216
0.000106165
0.000129667
0.000149723
0.000160349
0.000169031
0.000237525
0.000111841
0.000127377
0.000138373
0.000146625
0.000160512
0.000211321
0.000135248
0.000155266
0.000169793
0.00017868
0.000187875
0.000205246
0.000105049
0.000125787
0.000147802
0.000168264
0.000190253
0.000229605
8.08591e-05
0.000102299
0.000128605
0.000156614
0.000188328
0.000250987
5.88976e-05
8.00953e-05
0.000109566
0.000145028
0.000185701
0.000267351
4.3009e-05
6.20379e-05
9.28672e-05
0.00013425
0.00018457
0.000280093
3.27111e-05
5.00224e-05
7.98057e-05
0.000124928
0.000185129
0.000288329
2.63487e-05
4.27346e-05
7.18856e-05
0.000120009
0.00018835
0.000292451
2.29733e-05
3.93995e-05
7.00985e-05
0.000122205
0.000191175
0.000290132
2.26383e-05
4.106e-05
7.61697e-05
0.000131356
0.000191433
0.000282818
2.62635e-05
4.77478e-05
8.76564e-05
0.000141841
0.000187812
0.000271216
3.43092e-05
5.80354e-05
9.96606e-05
0.000148009
0.000180894
0.000257335
4.59364e-05
6.96001e-05
0.000108453
0.000149014
0.000174911
0.000241459
5.91262e-05
8.12819e-05
0.000114273
0.000146437
0.000171498
0.000221679
7.07222e-05
9.09763e-05
0.000117165
0.000141215
0.000167215
0.000196744
0.000227935
0.000189513
0.000179008
0.000173407
0.000169699
0.000164328
0.000257533
0.000207258
0.000201586
0.000197343
0.000189831
0.000178474
0.000284637
0.00023074
0.000223559
0.000214942
0.000196905
0.000173067
0.000308505
0.000254801
0.000238452
0.000216032
0.000180376
0.000143006
0.000327182
0.000270403
0.000232894
0.000190326
0.000140835
9.93965e-05
0.000339208
0.00026672
0.000202113
0.00014566
9.61135e-05
6.07378e-05
0.00034417
0.000242705
0.000160214
0.000103251
6.24549e-05
3.58087e-05
0.000342204
0.000209909
0.000125967
7.67623e-05
4.51307e-05
2.4561e-05
0.00033352
0.00018126
0.000106199
6.62548e-05
4.11034e-05
2.33601e-05
0.000320687
0.000163532
9.95669e-05
6.82066e-05
4.7914e-05
3.04847e-05
0.000304009
0.000156188
0.000102926
7.89859e-05
6.39966e-05
4.80164e-05
0.000284571
0.000155814
0.000112967
9.47865e-05
8.49818e-05
7.34911e-05
0.000261358
0.000157846
0.000126404
0.000112696
0.000106002
9.78296e-05
0.000233917
0.000158072
0.000138342
0.000129651
0.000126444
0.000120078
0.00021573
0.000177545
0.000164479
0.000158588
0.000152127
0.000142379
0.000246643
0.000196548
0.000186698
0.000178191
0.000162525
0.000144718
0.000274131
0.000218708
0.000206663
0.000187475
0.000156587
0.000128123
0.000296525
0.000243463
0.000217
0.000178928
0.000132445
9.77147e-05
0.000313071
0.000260421
0.000205393
0.000148865
9.70484e-05
6.43214e-05
0.00032265
0.000256651
0.00017172
0.000108933
6.39034e-05
3.77944e-05
0.000323999
0.000232013
0.000133163
7.57202e-05
4.13506e-05
2.18496e-05
0.000318938
0.000200232
0.0001052
5.71903e-05
3.06942e-05
1.53659e-05
0.000308397
0.000172459
9.13974e-05
5.18776e-05
2.95268e-05
1.54787e-05
0.000294778
0.000154287
8.91829e-05
5.64689e-05
3.60741e-05
2.08654e-05
0.000279046
0.000146384
9.5129e-05
6.87418e-05
5.07533e-05
3.42293e-05
0.000261226
0.000147086
0.000106565
8.62802e-05
7.1824e-05
5.64465e-05
0.000240415
0.000151534
0.000121292
0.000106069
9.49203e-05
8.15914e-05
0.00021616
0.000154804
0.00013581
0.000126709
0.000119922
0.000108291
0.000197101
0.00017028
0.000152413
0.000136104
0.000115687
9.72082e-05
0.000228234
0.000187169
0.000163211
0.000137452
0.000107185
8.53428e-05
0.000254132
0.000203801
0.000169372
0.000130481
9.06908e-05
6.65386e-05
0.00027464
0.000220895
0.000166955
0.000114251
6.97537e-05
4.66738e-05
0.000289868
0.000229755
0.000151646
9.00165e-05
4.94852e-05
2.99898e-05
0.000298667
0.000223054
0.000126481
6.60377e-05
3.352e-05
1.8139e-05
0.000299957
0.000203309
0.000101769
4.88639e-05
2.38013e-05
1.14752e-05
0.000294435
0.000179465
8.55692e-05
4.10268e-05
2.0084e-05
9.17717e-06
0.000284401
0.000160297
7.95694e-05
4.05026e-05
2.08713e-05
9.83178e-06
0.000271576
0.000149293
8.17376e-05
4.58489e-05
2.59082e-05
1.32476e-05
0.000256197
0.000145938
8.93415e-05
5.63242e-05
3.62206e-05
2.16206e-05
0.000239451
0.000148464
0.000101977
7.26307e-05
5.24387e-05
3.62097e-05
0.000220599
0.000154323
0.000118506
9.29139e-05
7.26262e-05
5.52693e-05
0.000198335
0.000160923
0.00013662
0.000116821
9.75609e-05
7.84634e-05
0.000225881
0.000197833
0.000178136
0.000161522
0.00015221
0.000148063
0.000252625
0.0002066
0.000189174
0.000175553
0.000168537
0.000165844
0.000276307
0.000221432
0.000204731
0.000193579
0.000187894
0.000184453
0.000297512
0.000241285
0.000223118
0.000212671
0.000203914
0.000192774
0.000315015
0.000260598
0.000237056
0.000220715
0.000200275
0.000175332
0.000326527
0.000270884
0.000232537
0.000203098
0.000168753
0.000134704
0.000332003
0.000264892
0.000203923
0.000162893
0.000124398
9.27056e-05
0.000331935
0.000245024
0.000167168
0.000123081
8.9016e-05
6.45174e-05
0.000327018
0.000219523
0.000139337
9.88212e-05
7.1881e-05
5.32475e-05
0.000316223
0.000197596
0.000125148
9.0939e-05
7.09996e-05
5.73304e-05
0.000300744
0.000186078
0.000123533
9.58552e-05
8.23875e-05
7.32955e-05
0.00028151
0.000182902
0.000132508
0.000110484
0.000102095
9.73764e-05
0.00025853
0.000182965
0.00014767
0.000131219
0.000125055
0.000120745
0.000231267
0.000181184
0.00016179
0.000152234
0.00014927
0.000145772
0.000216755
0.000182573
0.000166285
0.000154832
0.000148512
0.000143948
0.000246025
0.000192252
0.000180036
0.000171694
0.000165225
0.000159489
0.000271723
0.000208654
0.000198476
0.000190574
0.000180074
0.00016762
0.000293462
0.00023088
0.000219202
0.000206015
0.000184087
0.000160331
0.000308892
0.000254467
0.000231601
0.00020439
0.000166752
0.00013374
0.000317214
0.000268892
0.000220974
0.000177571
0.000131435
9.74803e-05
0.000318541
0.000263519
0.000187535
0.000136422
9.38745e-05
6.5861e-05
0.000313754
0.000242286
0.000150722
0.000101318
6.73657e-05
4.62539e-05
0.000305414
0.000215445
0.000125014
8.16698e-05
5.56382e-05
3.95348e-05
0.000292792
0.000190197
0.000113095
7.70829e-05
5.71632e-05
4.41274e-05
0.000278018
0.000172214
0.00011125
8.33691e-05
6.85929e-05
5.79836e-05
0.000260021
0.000166163
0.000118882
9.79051e-05
8.76354e-05
7.97859e-05
0.000239376
0.00016639
0.000132884
0.000117599
0.000110006
0.000103286
0.000216078
0.000167089
0.000147681
0.000139397
0.000136111
0.000130405
0.000199154
0.000176487
0.000168691
0.000162385
0.000150434
0.000135629
0.000230692
0.000188264
0.000182601
0.000171823
0.000151374
0.000131734
0.000257516
0.000205302
0.000196773
0.000177681
0.000145967
0.000118232
0.000277578
0.000226299
0.000208037
0.000175449
0.000131208
9.94539e-05
0.000289947
0.000243421
0.000206825
0.000158398
0.000108537
7.68464e-05
0.000296122
0.000249506
0.00018685
0.000129581
8.3182e-05
5.55302e-05
0.000296486
0.000238688
0.000154795
9.88575e-05
6.13551e-05
3.94246e-05
0.000291236
0.000217563
0.000126052
7.66921e-05
4.76634e-05
3.07685e-05
0.000280674
0.000194274
0.000109503
6.62614e-05
4.2776e-05
2.88692e-05
0.000267094
0.000173888
0.000103423
6.60751e-05
4.58836e-05
3.31042e-05
0.000250548
0.000159066
0.000104641
7.33115e-05
5.49893e-05
4.24659e-05
0.000232837
0.000153765
0.000112594
8.76053e-05
7.07029e-05
5.78628e-05
0.000214111
0.000155501
0.000125789
0.00010603
9.039e-05
7.70341e-05
0.000193847
0.000159644
0.000142162
0.000129538
0.000116755
0.000102275
3.6032e-05
2.67015e-05
1.99635e-05
1.5226e-05
1.29186e-05
1.16699e-05
1.14707e-05
1.23753e-05
1.54212e-05
2.12396e-05
3.01227e-05
4.25277e-05
5.9987e-05
8.30588e-05
2.29053e-05
1.6887e-05
1.22744e-05
9.10625e-06
7.56072e-06
6.72095e-06
6.54115e-06
7.15179e-06
9.45354e-06
1.42449e-05
2.19646e-05
3.29317e-05
4.76118e-05
6.54468e-05
1.36338e-05
9.61604e-06
6.702e-06
4.84824e-06
3.96049e-06
3.48521e-06
3.41184e-06
3.92119e-06
5.72851e-06
9.59614e-06
1.59808e-05
2.50316e-05
3.6866e-05
5.11538e-05
7.61751e-06
4.81721e-06
3.1478e-06
2.23044e-06
1.81166e-06
1.59518e-06
1.62071e-06
2.07707e-06
3.49555e-06
6.51778e-06
1.16057e-05
1.89254e-05
2.84855e-05
4.01433e-05
4.05243e-06
2.12817e-06
1.25984e-06
8.76102e-07
7.12505e-07
6.44325e-07
7.29642e-07
1.13802e-06
2.25767e-06
4.60208e-06
8.63227e-06
1.4597e-05
2.25952e-05
3.2754e-05
2.21473e-06
8.93203e-07
4.45747e-07
2.96051e-07
2.42606e-07
2.43e-07
3.53812e-07
7.2119e-07
1.64095e-06
3.52685e-06
6.80861e-06
1.18087e-05
1.87219e-05
2.77989e-05
1.45004e-06
4.46736e-07
1.64749e-07
9.23568e-08
7.79731e-08
1.05038e-07
2.26363e-07
5.73039e-07
1.38988e-06
3.02554e-06
5.86787e-06
1.02673e-05
1.64985e-05
2.49398e-05
1.28357e-06
3.53027e-07
9.88573e-08
3.97769e-08
3.63475e-08
7.45745e-08
2.05648e-07
5.54647e-07
1.3416e-06
2.87371e-06
5.49561e-06
9.5482e-06
1.53378e-05
2.33446e-05
1.45044e-06
4.15255e-07
1.24487e-07
5.39656e-08
5.02792e-08
9.65866e-08
2.44121e-07
6.18352e-07
1.42917e-06
2.95778e-06
5.51217e-06
9.41582e-06
1.50136e-05
2.29288e-05
1.96294e-06
6.28111e-07
2.51262e-07
1.48035e-07
1.35637e-07
1.91505e-07
3.66463e-07
7.88007e-07
1.66002e-06
3.24461e-06
5.82262e-06
9.7084e-06
1.53167e-05
2.34498e-05
3.16832e-06
1.18511e-06
6.17165e-07
4.38305e-07
3.97628e-07
4.64761e-07
6.87397e-07
1.19319e-06
2.18295e-06
3.91558e-06
6.67721e-06
1.07992e-05
1.68161e-05
2.56436e-05
6.05854e-06
2.63705e-06
1.5202e-06
1.19444e-06
1.09085e-06
1.16902e-06
1.47692e-06
2.14469e-06
3.38036e-06
5.46853e-06
8.72957e-06
1.35192e-05
2.04016e-05
3.0186e-05
1.14753e-05
5.69767e-06
3.50647e-06
2.88391e-06
2.6943e-06
2.79431e-06
3.25327e-06
4.22092e-06
5.93401e-06
8.73553e-06
1.30288e-05
1.9232e-05
2.80209e-05
3.96146e-05
1.8719e-05
1.09223e-05
7.3957e-06
6.19427e-06
5.90259e-06
6.08527e-06
6.79811e-06
8.24911e-06
1.0739e-05
1.47143e-05
2.07476e-05
2.96048e-05
4.28844e-05
5.8247e-05
1.65876e-05
1.30459e-05
1.05612e-05
8.697e-06
8.00106e-06
7.69138e-06
7.75555e-06
8.1402e-06
9.33411e-06
1.19332e-05
1.64752e-05
2.31556e-05
3.32011e-05
4.93541e-05
9.63659e-06
7.37174e-06
5.80599e-06
4.71209e-06
4.31983e-06
4.13416e-06
4.15994e-06
4.41823e-06
5.30316e-06
7.39483e-06
1.13271e-05
1.75683e-05
2.69573e-05
4.08289e-05
5.38071e-06
3.75359e-06
2.81516e-06
2.26926e-06
2.0805e-06
1.98934e-06
2.02215e-06
2.24847e-06
2.98041e-06
4.7186e-06
8.07578e-06
1.35745e-05
2.17815e-05
3.33797e-05
2.92559e-06
1.71218e-06
1.19009e-06
9.52908e-07
8.75038e-07
8.43269e-07
8.91082e-07
1.1001e-06
1.71374e-06
3.13798e-06
5.91152e-06
1.05585e-05
1.75235e-05
2.72698e-05
1.61381e-06
7.29138e-07
4.44968e-07
3.46819e-07
3.18394e-07
3.17063e-07
3.74067e-07
5.66451e-07
1.08463e-06
2.25495e-06
4.53717e-06
8.43601e-06
1.43993e-05
2.28811e-05
9.89322e-07
3.30522e-07
1.57094e-07
1.11426e-07
1.021e-07
1.13669e-07
1.73686e-07
3.52963e-07
8.09343e-07
1.81561e-06
3.76599e-06
7.12517e-06
1.23463e-05
1.98943e-05
7.39913e-07
1.99519e-07
6.50604e-08
3.50606e-08
3.24738e-08
4.93803e-08
1.12036e-07
2.89423e-07
7.24936e-07
1.66155e-06
3.44554e-06
6.49548e-06
1.12541e-05
1.81929e-05
6.97362e-07
1.79174e-07
4.62245e-08
1.72067e-08
1.67748e-08
3.73987e-08
1.0634e-07
2.94955e-07
7.43324e-07
1.67862e-06
3.41186e-06
6.31447e-06
1.07917e-05
1.7296e-05
7.82964e-07
2.11954e-07
6.06548e-08
2.62544e-08
2.58431e-08
5.11236e-08
1.31914e-07
3.44802e-07
8.32574e-07
1.81456e-06
3.57597e-06
6.44795e-06
1.07988e-05
1.70822e-05
9.98212e-07
3.10769e-07
1.24785e-07
7.57793e-08
7.2544e-08
1.04451e-07
2.04006e-07
4.53669e-07
9.99944e-07
2.05602e-06
3.88286e-06
6.77389e-06
1.10763e-05
1.72901e-05
1.45483e-06
5.75867e-07
3.22451e-07
2.36692e-07
2.20663e-07
2.61091e-07
3.91104e-07
6.95747e-07
1.32176e-06
2.47522e-06
4.39643e-06
7.3637e-06
1.17496e-05
1.81372e-05
2.52935e-06
1.23415e-06
8.43973e-07
6.83711e-07
6.3166e-07
6.78709e-07
8.57834e-07
1.25048e-06
1.9974e-06
3.30191e-06
5.40097e-06
8.56511e-06
1.31813e-05
1.99002e-05
4.73762e-06
2.65384e-06
2.01662e-06
1.75034e-06
1.63642e-06
1.69002e-06
1.9519e-06
2.50321e-06
3.47963e-06
5.09733e-06
7.61437e-06
1.12925e-05
1.64721e-05
2.36161e-05
8.22439e-06
5.33005e-06
4.27427e-06
3.90749e-06
3.75996e-06
3.86212e-06
4.2817e-06
5.13228e-06
6.57469e-06
8.87862e-06
1.23173e-05
1.71432e-05
2.36815e-05
3.18516e-05
7.15407e-06
5.68487e-06
4.88255e-06
4.37435e-06
4.3208e-06
4.39112e-06
4.58198e-06
4.85931e-06
5.42349e-06
6.58777e-06
8.84244e-06
1.25453e-05
1.83739e-05
2.80689e-05
3.85991e-06
2.86547e-06
2.40407e-06
2.14774e-06
2.1351e-06
2.17902e-06
2.28252e-06
2.45214e-06
2.85426e-06
3.77653e-06
5.67968e-06
9.04321e-06
1.45702e-05
2.34836e-05
2.02538e-06
1.31301e-06
1.05223e-06
9.35823e-07
9.36689e-07
9.6208e-07
1.02235e-06
1.14694e-06
1.47303e-06
2.24986e-06
3.8826e-06
6.87288e-06
1.18676e-05
1.97739e-05
1.07995e-06
5.59623e-07
4.08468e-07
3.5725e-07
3.58859e-07
3.73689e-07
4.14634e-07
5.16545e-07
7.87554e-07
1.43514e-06
2.80856e-06
5.38894e-06
9.76872e-06
1.6674e-05
6.30403e-07
2.40955e-07
1.44334e-07
1.19405e-07
1.19511e-07
1.29448e-07
1.6184e-07
2.50609e-07
4.83349e-07
1.0344e-06
2.20496e-06
4.4356e-06
8.27564e-06
1.43855e-05
4.32439e-07
1.24092e-07
5.1875e-08
3.6177e-08
3.57421e-08
4.39941e-08
7.27168e-08
1.54681e-07
3.67665e-07
8.66858e-07
1.9187e-06
3.91661e-06
7.35631e-06
1.28469e-05
3.57181e-07
8.94853e-08
2.51728e-08
1.16724e-08
1.13542e-08
1.96944e-08
4.86203e-08
1.32036e-07
3.46527e-07
8.40199e-07
1.85681e-06
3.74803e-06
6.95657e-06
1.20307e-05
3.54562e-07
8.77865e-08
2.1055e-08
6.90453e-09
6.8676e-09
1.65893e-08
4.93526e-08
1.42432e-07
3.76134e-07
8.97512e-07
1.93439e-06
3.80232e-06
6.89266e-06
1.16771e-05
4.04016e-07
1.04726e-07
2.85682e-08
1.21403e-08
1.23183e-08
2.47626e-08
6.52496e-08
1.7623e-07
4.44473e-07
1.01899e-06
2.11694e-06
4.0235e-06
7.08763e-06
1.17256e-05
5.06125e-07
1.52681e-07
6.03877e-08
3.72911e-08
3.67617e-08
5.35164e-08
1.06101e-07
2.42669e-07
5.56735e-07
1.19981e-06
2.38145e-06
4.36062e-06
7.45053e-06
1.20327e-05
7.13949e-07
2.91297e-07
1.65867e-07
1.23402e-07
1.171e-07
1.39839e-07
2.11543e-07
3.84094e-07
7.55939e-07
1.4801e-06
2.75813e-06
4.8279e-06
7.98341e-06
1.26085e-05
1.204e-06
6.61304e-07
4.65152e-07
3.77423e-07
3.50795e-07
3.78896e-07
4.82081e-07
7.10359e-07
1.16096e-06
1.98657e-06
3.3831e-06
5.57652e-06
8.85395e-06
1.36331e-05
2.23467e-06
1.49799e-06
1.18361e-06
1.01906e-06
9.49432e-07
9.80756e-07
1.13598e-06
1.46017e-06
2.04277e-06
3.036e-06
4.63572e-06
7.06682e-06
1.0604e-05
1.57029e-05
4.11275e-06
3.09976e-06
2.62355e-06
2.38543e-06
2.27842e-06
2.33326e-06
2.5867e-06
3.09034e-06
3.93239e-06
5.26856e-06
7.27947e-06
1.01577e-05
1.41273e-05
1.95822e-05
3.15322e-06
2.43903e-06
2.09388e-06
1.95782e-06
2.03235e-06
2.17679e-06
2.38047e-06
2.63004e-06
3.01961e-06
3.71247e-06
4.9901e-06
7.14592e-06
1.06414e-05
1.64849e-05
1.58768e-06
1.12134e-06
9.35439e-07
8.76667e-07
9.20427e-07
9.94608e-07
1.09595e-06
1.22891e-06
1.47074e-06
1.97123e-06
2.99207e-06
4.86692e-06
8.09325e-06
1.35515e-05
7.99346e-07
4.74422e-07
3.7279e-07
3.48239e-07
3.68921e-07
4.02976e-07
4.52611e-07
5.3131e-07
7.02382e-07
1.0955e-06
1.94147e-06
3.57092e-06
6.46703e-06
1.13942e-05
4.29074e-07
1.93878e-07
1.33436e-07
1.21658e-07
1.29354e-07
1.43892e-07
1.69854e-07
2.23077e-07
3.53769e-07
6.68775e-07
1.36615e-06
2.75733e-06
5.30599e-06
9.70577e-06
2.64954e-07
8.6655e-08
4.5159e-08
3.76678e-08
3.97996e-08
4.64288e-08
6.25569e-08
1.03631e-07
2.11065e-07
4.74943e-07
1.06809e-06
2.27919e-06
4.54625e-06
8.51106e-06
1.9497e-07
5.08174e-08
1.72911e-08
1.09711e-08
1.12854e-08
1.53156e-08
2.79348e-08
6.41375e-08
1.61724e-07
4.0301e-07
9.46304e-07
2.05875e-06
4.14093e-06
7.76768e-06
1.71438e-07
4.16788e-08
1.01343e-08
3.79786e-09
3.70584e-09
7.31307e-09
1.97736e-08
5.70171e-08
1.57759e-07
4.04043e-07
9.47957e-07
2.03861e-06
4.03819e-06
7.45209e-06
1.78217e-07
4.31719e-08
9.51229e-09
2.73151e-09
2.68633e-09
6.8976e-09
2.14508e-08
6.46414e-08
1.79062e-07
4.50523e-07
1.02827e-06
2.14446e-06
4.12433e-06
7.40406e-06
2.07897e-07
5.17661e-08
1.31039e-08
5.37094e-09
5.53495e-09
1.11717e-08
2.99958e-08
8.39444e-08
2.21513e-07
5.34394e-07
1.17101e-06
2.3485e-06
4.36289e-06
7.59966e-06
2.62827e-07
7.58287e-08
2.85579e-08
1.76676e-08
1.77835e-08
2.59281e-08
5.177e-08
1.21632e-07
2.90601e-07
6.56572e-07
1.36861e-06
2.63212e-06
4.72367e-06
7.99566e-06
3.79242e-07
1.5141e-07
8.39971e-08
6.24066e-08
6.00557e-08
7.23145e-08
1.09947e-07
2.02969e-07
4.12354e-07
8.41639e-07
1.64209e-06
3.01307e-06
5.21804e-06
8.58894e-06
6.6859e-07
3.68008e-07
2.5285e-07
2.02549e-07
1.89165e-07
2.06678e-07
2.65698e-07
3.96601e-07
6.63216e-07
1.17411e-06
2.08509e-06
3.59547e-06
5.96099e-06
9.50112e-06
1.3132e-06
8.87165e-07
6.83067e-07
5.75359e-07
5.34059e-07
5.56802e-07
6.54314e-07
8.54409e-07
1.21865e-06
1.85812e-06
2.93336e-06
4.64604e-06
7.24728e-06
1.10761e-05
2.53696e-06
1.92408e-06
1.59177e-06
1.41135e-06
1.33414e-06
1.37081e-06
1.53828e-06
1.86621e-06
2.41402e-06
3.28672e-06
4.62955e-06
6.62574e-06
9.506e-06
1.36634e-05
1.55634e-06
1.13956e-06
9.2036e-07
8.40135e-07
8.70968e-07
9.58849e-07
1.09884e-06
1.28596e-06
1.57333e-06
2.0592e-06
2.91494e-06
4.34781e-06
6.66584e-06
1.04977e-05
7.33757e-07
4.78295e-07
3.72875e-07
3.41617e-07
3.58785e-07
3.99004e-07
4.61352e-07
5.50388e-07
7.08882e-07
1.02427e-06
1.65495e-06
2.82094e-06
4.85098e-06
8.33835e-06
3.5514e-07
1.86494e-07
1.3453e-07
1.22752e-07
1.30219e-07
1.46529e-07
1.73528e-07
2.19423e-07
3.18063e-07
5.42225e-07
1.02803e-06
1.98492e-06
3.73436e-06
6.80969e-06
1.91073e-07
7.32999e-08
4.41957e-08
3.88908e-08
4.13774e-08
4.75598e-08
5.99617e-08
8.6978e-08
1.54611e-07
3.20568e-07
6.9818e-07
1.47892e-06
2.97092e-06
5.67135e-06
1.22997e-07
3.4524e-08
1.45448e-08
1.10861e-08
1.16488e-08
1.42274e-08
2.11366e-08
3.98913e-08
9.11547e-08
2.22069e-07