/*--------------------------------*- C++ -*----------------------------------*\
| =========                 |                                                 |
| \\      /  F ield         | OpenFOAM: The Open Source CFD Toolbox           |
|  \\    /   O peration     | Version:  v2106                                 |
|   \\  /    A nd           | Website:  www.openfoam.com                      |
|    \\/     M anipulation  |                                                 |
\*---------------------------------------------------------------------------*/
FoamFile
{
    version     2.0;
    format      ascii;
    arch        "LSB;label=32;scalar=64";
    class       volScalarField;
    location    "0.000187";
    object      k;
}
// * * * * * * * * * * * * * * * * * * * * * * * * * * * * * * * * * * * * * //

dimensions      [0 2 -2 0 0 0 0];

internalField   nonuniform List<scalar> 
144746
(
14.345
11.2577
8.14177
5.11748
3.36954
2.79207
3.4238
5.4138
9.01977
13.9182
17.6514
17.6109
14.9573
12.5205
15.4944
11.0312
6.85239
3.7568
2.2287
1.64742
1.81304
2.83048
4.94187
8.22881
12.1096
14.1203
13.0129
10.9628
13.8915
8.57834
4.62746
2.31933
1.31918
0.914872
0.922593
1.4245
2.62285
4.60921
7.22007
9.7677
10.2967
9.61995
9.76359
5.20395
2.51691
1.20136
0.671289
0.458483
0.454775
0.718888
1.3974
2.56458
4.1217
5.88044
7.01469
7.48571
5.56222
2.59955
1.14482
0.522985
0.288149
0.203246
0.220477
0.387036
0.808521
1.55807
2.57349
3.70234
4.77144
5.90134
2.72339
1.12512
0.450944
0.194449
0.106673
0.0843015
0.115929
0.241088
0.535312
1.06002
1.78012
2.57624
3.53617
5.11103
1.27929
0.47784
0.174064
0.0711811
0.0408392
0.0423747
0.0802563
0.18723
0.417698
0.817583
1.37398
2.04373
3.21268
5.64759
0.741034
0.269202
0.0984119
0.044316
0.0300979
0.039547
0.0814838
0.182295
0.381198
0.711568
1.18301
1.90995
3.70413
7.54884
0.704323
0.270814
0.11664
0.0665523
0.0514965
0.0623607
0.107523
0.207295
0.391188
0.691275
1.16405
2.29598
5.26688
10.9639
1.08431
0.42623
0.207377
0.138811
0.113098
0.119665
0.166511
0.270423
0.460275
0.793291
1.4948
3.57737
8.15096
15.0861
2.41355
0.98491
0.426428
0.299251
0.2542
0.251515
0.301899
0.42708
0.675567
1.20556
2.48654
6.06298
11.7577
17.7614
5.32959
3.27547
1.59875
0.797025
0.575468
0.538178
0.600599
0.784953
1.18244
2.12574
4.39627
9.07371
14.1303
17.49
8.86689
7.27504
4.68387
2.51381
1.46092
1.13058
1.14597
1.41464
2.04078
3.48603
6.45222
10.7228
13.7601
15.0727
11.8416
11.6175
9.5945
6.4821
3.97949
2.62147
2.16839
2.34775
3.10296
4.81042
7.54105
10.4049
11.8168
12.7618
12.7146
9.14849
6.17646
3.80431
2.54274
2.09672
2.49806
3.87293
6.40017
9.91172
13.5301
15.2828
14.6351
12.9872
12.2949
8.11146
4.88393
2.75618
1.72144
1.29905
1.39696
2.13391
3.69876
6.01454
8.68505
10.9858
11.4263
10.6709
9.94744
5.94065
3.25233
1.73926
1.0471
0.747885
0.745999
1.13028
2.07204
3.57178
5.41019
7.24203
8.38185
8.65755
6.54638
3.541
1.79918
0.929497
0.548021
0.384936
0.379621
0.593532
1.15849
2.11497
3.30754
4.4888
5.52794
6.29459
3.59174
1.74071
0.82499
0.412905
0.241288
0.174213
0.187167
0.326301
0.685517
1.3194
2.14526
2.99523
3.81636
4.76439
1.68341
0.724447
0.318471
0.153095
0.0900309
0.0722769
0.0979182
0.203231
0.453862
0.898941
1.50287
2.15928
2.85395
3.91817
0.752737
0.28642
0.113456
0.0516382
0.0318017
0.0336844
0.064661
0.153866
0.347632
0.6837
1.15241
1.7083
2.44712
3.96331
0.434005
0.154371
0.055933
0.0250197
0.0178362
0.0264245
0.0600169
0.142113
0.306466
0.582046
0.97793
1.51892
2.55353
4.86096
0.434374
0.159139
0.0629997
0.0335162
0.0266907
0.037138
0.0729555
0.153009
0.304192
0.5555
0.949958
1.64748
3.31969
6.80549
0.679526
0.25754
0.116223
0.0737621
0.0607863
0.0701737
0.108935
0.193547
0.352245
0.633535
1.15433
2.3043
4.98566
9.50828
1.4712
0.567426
0.247369
0.171338
0.145647
0.15195
0.198563
0.305445
0.515809
0.922145
1.7486
3.73574
7.35134
12.2906
3.53133
1.94662
0.88684
0.438944
0.339222
0.334511
0.39929
0.558086
0.873357
1.50711
2.88271
5.70787
9.70738
14.1513
6.66268
4.74952
2.75546
1.37077
0.814924
0.699001
0.767602
0.998482
1.46468
2.39819
4.25098
7.52493
11.1548
14.2956
10.0686
8.46296
6.08798
3.70713
2.17253
1.51035
1.39577
1.64534
2.23846
3.40403
5.53961
8.67481
11.4132
13.6176
8.7573
5.9024
3.91035
2.53939
1.81798
1.509
1.63589
2.2833
3.58023
5.46974
7.81157
10.3111
12.3804
13.376
7.18436
4.6333
2.86083
1.75773
1.19945
0.93833
0.960835
1.35442
2.27177
3.68367
5.41923
7.1952
8.65046
9.74564
5.11266
3.13206
1.86027
1.10141
0.717137
0.537084
0.528295
0.756714
1.36264
2.36518
3.6203
4.95294
6.15748
7.28565
3.13253
1.84238
1.03229
0.588265
0.371757
0.273995
0.271035
0.410497
0.799451
1.48479
2.37897
3.34389
4.257
5.20716
1.68998
0.910568
0.475698
0.261296
0.163042
0.122986
0.132784
0.228171
0.482711
0.948311
1.59164
2.31953
3.06441
3.95388
0.804781
0.379885
0.181569
0.0962898
0.0605978
0.0502304
0.0680088
0.14131
0.319847
0.647885
1.12461
1.69998
2.33922
3.15861
0.377658
0.149612
0.062263
0.0309695
0.0203972
0.0220457
0.0430892
0.105246
0.243705
0.493067
0.865951
1.34825
1.94655
2.81521
0.237461
0.0805221
0.0277497
0.0122247
0.00912228
0.0149604
0.037449
0.0945665
0.212994
0.420246
0.735724
1.17448
1.79586
2.8608
0.248953
0.08277
0.0288955
0.0138491
0.0113364
0.0186472
0.042723
0.0991088
0.210308
0.402157
0.706092
1.17761
1.9631
3.45839
0.385852
0.134499
0.0550832
0.0325859
0.0270767
0.0347372
0.061694
0.122644
0.241189
0.452706
0.818162
1.45198
2.57601
4.56828
0.802388
0.293072
0.126853
0.0843373
0.0714667
0.0789578
0.113212
0.19185
0.348367
0.641608
1.17356
2.10595
3.72166
6.16046
1.86311
0.935267
0.414683
0.21678
0.179074
0.186906
0.238484
0.357967
0.593361
1.03078
1.80777
3.13458
5.25655
8.34824
3.70415
2.28488
1.22177
0.604213
0.410003
0.408315
0.486157
0.665566
1.00369
1.6077
2.6479
4.41115
7.05347
10.5568
6.04471
4.25863
2.71988
1.55742
0.979758
0.826618
0.905173
1.14305
1.57918
2.3357
3.6542
5.96824
9.16368
12.7024
11.3868
12.1787
13.785
17.3832
25.5803
51.2274
9.83584
10.4983
11.9426
15.1511
23.0798
48.9842
8.8631
9.37889
10.8528
13.7537
21.2786
46.8058
7.72457
8.8288
10.6755
13.3168
20.3148
44.8061
7.19696
9.07457
11.4017
13.8084
20.1378
43.1223
7.55182
10.418
13.0883
15.0403
20.392
41.7248
9.35415
13.1282
15.564
16.5652
20.6866
40.7898
12.5298
16.5988
17.7891
17.4322
20.5039
40.8064
16.2544
19.0289
18.2692
17.053
19.8354
41.5587
18.5449
18.9245
17.029
16.0296
19.1989
42.8983
18.1482
17.0288
15.3783
15.2679
19.066
44.8729
16.148
15.0066
14.2881
15.0204
19.3929
47.432
13.9858
13.5454
13.6487
15.0682
20.2774
50.1772
12.4615
12.6085
13.1937
15.3492
21.7727
52.8212
11.792
12.6308
13.6617
16.0796
22.6813
46.6772
9.87639
10.7533
12.0754
14.3663
20.3443
43.6199
8.46783
9.45101
11.1073
13.4459
18.9327
41.2041
6.90369
8.42342
10.7207
13.3189
18.6602
39.2995
5.95198
7.99276
10.99
13.9751
19.3659
37.8963
5.71537
8.45101
12.1274
15.2614
20.2966
37.0162
6.51852
10.1316
14.4371
17.1282
20.7239
36.6375
8.36938
12.931
17.3699
18.7357
20.3396
37.1008
11.0442
15.9439
19.3464
18.9318
19.3582
38.2131
13.6829
17.7465
19.3328
17.9031
18.3438
39.5418
15.2166
17.7078
18.0276
16.783
17.9983
41.1084
15.3716
16.6072
16.7195
16.234
18.3631
43.0025
14.7093
15.4071
15.7897
16.1645
19.2539
44.9193
13.85
14.661
15.1595
16.2656
20.5397
46.7701
13.8717
15.6472
16.5829
17.5079
20.8381
37.746
10.3923
12.3377
14.2584
15.9702
19.1551
34.8831
8.39277
10.4017
12.8007
15.0192
18.2835
33.1242
6.48236
8.67649
11.6198
14.5873
18.3917
32.1558
5.2629
7.57238
10.9842
14.6081
19.1875
31.8302
4.48456
6.9685
10.8721
15.1243
20.3257
31.8035
4.34673
7.22626
11.8697
16.4417
20.8875
31.9062
4.75783
8.30563
13.7963
18.3347
20.7599
32.2749
5.73906
9.99613
16.1201
19.8379
20.3666
33.1877
7.18882
11.8883
17.9266
20.3712
19.9297
34.5872
8.76298
13.5027
18.8337
20.4796
19.9544
36.2443
10.3004
14.7252
19.3592
20.8257
20.7788
37.9455
12.0152
16.016
19.9895
21.418
22.1986
39.3993
13.8221
17.7007
20.8173
21.6887
23.4919
40.4145
11.3647
11.9869
13.1107
16.2372
24.316
55.1438
10.1071
10.5315
11.6609
14.3995
21.6517
52.2434
9.11109
9.32118
10.6302
13.3178
19.8414
49.5821
7.37585
8.08812
10.0447
12.9356
19.0158
47.2455
5.66003
7.05238
9.83118
13.2344
19.0578
45.2764
4.42869
6.61522
10.2065
14.1533
19.6631
43.593
4.07726
7.09761
11.5179
15.6474
20.4802
42.1708
4.61049
8.74922
13.9413
17.5191
20.8722
41.2497
6.1758
11.4932
16.7657
18.8075
20.4164
40.8907
8.65581
14.3507
18.4243
18.7233
19.3771
41.2275
11.3039
15.9918
18.2034
17.5798
18.4582
42.2642
13.0431
15.9393
16.8409
16.3417
18.1504
44.0832
13.2908
14.7106
15.0936
15.271
18.3682
46.3427
12.4086
13.1067
13.3061
14.3072
19.076
48.8846
12.6411
13.7753
14.6696
16.6872
22.3079
48.5245
10.5053
11.6606
13.1808
15.3184
20.37
45.6512
8.62921
9.89803
11.9211
14.4811
19.1299
43.2104
6.35061
7.93328
10.6797
14.0238
18.8441
41.0636
4.49875
6.25525
9.56347
13.8323
19.3112
39.2745
3.30972
5.22963
8.94355
14.0097
20.1583
38.1172
2.78205
5.003
9.22508
14.8527
21.1717
37.3324
2.82766
5.67672
10.7948
16.638
21.7354
36.7899
3.58511
7.39362
13.4932
18.6319
21.36
36.7216
5.1203
9.77175
16.0256
19.4976
20.213
37.1799
7.19329
11.9456
17.1135
18.9062
18.9569
38.0199
9.27177
13.2349
16.7995
17.7361
18.4319
39.3249
10.7474
13.5054
15.6385
16.3652
18.3583
40.9863
11.2184
13.0067
14.0442
14.8553
18.4213
42.9014
15.0493
17.989
20.07
21.285
24.1389
40.8774
10.4876
13.3517
16.6189
19.5588
22.9982
38.7611
7.4704
10.2227
13.9955
17.9463
21.942
37.0366
4.99836
7.44094
11.4769
16.4656
21.3781
35.4826
3.40658
5.37382
9.35341
15.0509
21.066
34.2354
2.46409
4.14258
7.78238
13.7884
21.0248
33.4094
1.92832
3.48837
6.93089
13.1121
21.3743
32.787
1.69016
3.29872
6.91545
13.4551
21.5776
32.102
1.77237
3.66474
7.92446
14.7539
21.3147
31.5519
2.2457
4.55246
9.55613
16.1053
20.5571
31.3804
3.13026
5.78859
11.0965
16.7462
19.653
31.869
4.37669
7.12554
12.0873
16.7874
19.4032
33.1718
5.78659
8.44371
12.6106
16.3985
19.8162
35.0029
7.05744
9.5414
12.8155
15.7508
20.1415
36.6282
49.083
22.3424
16.9499
15.4721
15.07
14.5848
47.4137
22.4016
18.4671
17.8175
17.3667
16.4785
46.3498
23.8148
20.5582
20.0388
18.6281
16.4075
45.9656
26.293
22.5265
20.7761
17.328
13.5213
45.8938
28.5749
22.5143
18.4394
13.3191
9.12024
45.5754
28.5748
19.4306
13.7411
8.71196
5.32599
45.105
25.7271
14.9219
9.26065
5.33637
2.95801
44.5344
21.5976
11.2838
6.51415
3.61968
1.88053
44.1447
17.9788
9.23793
5.40331
3.16019
1.70489
44.2908
15.818
8.54328
5.52349
3.73081
2.29542
45.1554
15.2745
8.87517
6.52311
5.21402
3.89106
46.785
16.0175
9.94072
8.03336
7.19821
6.29911
48.9638
18.0443
11.7081
9.85399
9.20693
8.56533
51.462
20.6892
13.8631
11.8042
11.3283
10.7486
44.71
20.7167
16.1819
15.1283
14.4649
13.3479
44.1211
21.4537
18.0207
17.1893
15.6631
13.7842
43.5019
22.8967
20.1087
18.4891
15.264
12.2238
43.0678
25.4037
21.5469
17.9276
12.8436
9.16216
42.656
27.8616
20.633
14.8112
9.16807
5.8427
41.8672
27.8849
17.0192
10.4795
5.78242
3.28723
40.7108
25.0589
12.8069
6.90531
3.52812
1.78137
39.5792
21.2007
9.82937
4.92309
2.43542
1.14703
38.7416
17.8496
8.41103
4.30191
2.23
1.09807
38.3197
15.6891
8.20506
4.69912
2.77252
1.52243
38.9007
14.7653
8.82649
5.9163
4.15094
2.70794
40.3418
15.0854
10.0261
7.74319
6.26369
4.82449
42.337
16.7175
11.768
9.88737
8.68129
7.3518
44.7763
18.7443
13.7772
12.3585
11.6619
10.4321
37.1852
20.135
16.4205
14.2082
11.6597
9.35791
37.5359
21.061
17.0832
14.125
10.5722
8.06121
37.3213
21.9108
17.4982
13.3306
8.75534
6.13452
36.9822
23.3202
17.1813
11.5251
6.53515
4.17028
36.7516
24.2458
15.4874
8.83724
4.47527
2.58743
36.3264
23.5283
12.6908
6.21917
2.8913
1.49507
35.5085
21.4385
10.0138
4.36154
1.92556
0.880122
34.4119
18.976
8.32151
3.48863
1.51562
0.648242
33.4549
17.1524
7.72953
3.35556
1.52142
0.671369
32.8977
16.2273
8.00343
3.84291
1.93196
0.931454
32.9691
16.097
8.86644
4.91741
2.88561
1.64617
33.8187
16.7062
10.3714
6.73192
4.52532
3.00043
35.3564
18.0134
12.5026
9.15073
6.76012
4.96297
37.3151
19.7921
15.1192
12.4223
10.038
7.81753
49.221
23.4594
16.7975
13.9898
12.8425
12.4353
47.0408
22.637
17.0351
14.9207
14.2632
14.3023
45.2481
22.9263
18.0055
16.6138
16.4883
16.8171
44.2273
24.4868
19.8269
19.0365
18.9325
18.5825
43.7147
26.7117
21.7836
20.7328
19.3536
17.2579
43.238
28.3144
21.8429
19.4054
16.2468
12.955
42.8406
27.8972
18.9283
15.157
11.463
8.48186
42.716
25.4568
14.9778
10.8832
7.707
5.55423
43.0673
22.2332
12.1031
8.33491
5.89242
4.29894
43.6233
19.4645
10.7051
7.49064
5.68593
4.51001
44.6957
18.4864
10.6036
7.89364
6.64464
5.85799
46.3559
19.1658
11.6775
9.25134
8.42169
8.04426
48.4696
21.1309
13.77
11.3591
10.5514
10.0758
50.7551
23.7539
16.3281
13.7459
12.9682
12.4631
45.9674
21.3555
16.0843
14.3415
13.63
13.0771
45.1006
20.9724
16.7542
15.6564
15.1514
14.762
44.174
21.4821
18.1129
17.5376
16.9126
16.0015
43.3089
23.0485
20.2231
19.609
17.8761
15.6995
42.2832
25.6035
22.0307
20.114
16.4313
13.09
41.1016
27.7605
21.3485
17.5219
12.7221
9.28449
39.7473
27.5717
17.8752
13.0485
8.70772
5.99644
38.5673
25.2477
13.9758
9.24881
5.91574
3.96332
38.0705
22.1132
11.4004
7.18038
4.6391
3.1675
38.1162
19.2035
10.34
6.70807
4.68644
3.4399
38.7462
17.2297
10.2706
7.32755
5.71352
4.62791
40.1268
17.215
11.1317
8.76258
7.54327
6.67843
42.2319
18.729
12.8801
10.792
9.74459
8.91322
45.0208
20.9672
15.0971
13.2485
12.6199
11.8628
38.9309
20.6575
18.1701
17.413
15.9156
13.7789
39.6752
20.715
18.9254
17.8074
15.4112
13.0429
39.7904
21.2883
19.7772
18.1166
14.5903
11.5057
39.0001
22.3834
20.663
17.887
12.9828
9.55279
37.7521
23.6514
20.617
16.12
10.5933
7.25398
36.4248
24.4399
18.5534
12.9553
7.9403
5.11213
35.0689
23.6776
15.1427
9.58962
5.67079
3.49453
33.801
21.86
12.2115
7.20593
4.22315
2.5837
32.6604
19.8952
10.717
6.12173
3.65419
2.29964
31.9281
18.1769
10.3515
6.139
3.89877
2.60381
31.7614
16.941
10.6789
6.92858
4.75503
3.41735
32.3272
16.8478
11.6828
8.50401
6.36575
4.8936
33.7471
17.9214
13.3596
10.5791
8.47839
6.85514
36.1031
19.8356
15.6984
13.5629
11.7692
9.91576
3.35738
2.29398
1.62344
1.18673
0.985266
0.880064
0.875313
0.978216
1.27681
1.82177
2.65988
3.92023
5.88076
8.75194
2.02303
1.40278
0.970665
0.691363
0.559163
0.488487
0.47765
0.541626
0.755593
1.18495
1.87964
2.91554
4.41072
6.39427
1.15276
0.779546
0.520951
0.362566
0.287792
0.247814
0.24235
0.288777
0.446155
0.7768
1.32382
2.12343
3.23463
4.71153
0.61922
0.381902
0.241123
0.164825
0.130018
0.111709
0.113045
0.150184
0.266204
0.513192
0.930556
1.5444
2.38531
3.51825
0.31462
0.163812
0.0948075
0.0639601
0.0505588
0.0445369
0.0502556
0.0811749
0.168013
0.35192
0.670932
1.15205
1.82696
2.78046
0.160604
0.0650898
0.0325078
0.0212595
0.0169884
0.0165602
0.024118
0.0506795
0.118958
0.261424
0.512989
0.904931
1.47427
2.30695
0.096127
0.029291
0.0111214
0.00639244
0.005326
0.00699993
0.0151902
0.0393821
0.0977689
0.2171
0.428778
0.76659
1.27453
2.0462
0.0794894
0.0205433
0.00572188
0.0024509
0.00230102
0.00476217
0.0134126
0.0369841
0.0913353
0.199632
0.39015
0.696936
1.16814
1.90433
0.0882715
0.0232488
0.00664333
0.00290244
0.0028226
0.00577846
0.0152699
0.0398091
0.0941951
0.199562
0.382192
0.676878
1.13836
1.87835
0.122791
0.0361323
0.0137509
0.00799505
0.00734281
0.0108213
0.0218633
0.0489917
0.106598
0.214959
0.399947
0.698393
1.17278
1.9449
0.2106
0.072209
0.0352676
0.0246047
0.0221515
0.0262745
0.0403975
0.073405
0.140244
0.262512
0.468846
0.799604
1.32495
2.16797
0.439229
0.175609
0.0912606
0.0699605
0.0637645
0.0691171
0.089849
0.13608
0.224956
0.382177
0.641495
1.04847
1.67518
2.63023
0.918609
0.417949
0.226643
0.176479
0.165343
0.173937
0.207704
0.279457
0.410808
0.635212
0.999252
1.56337
2.43165
3.68428
1.63396
0.863683
0.525437
0.405523
0.380801
0.397408
0.454106
0.568456
0.770069
1.10684
1.65502
2.5387
4.03063
6.02183
1.40798
1.05701
0.827727
0.661146
0.59836
0.567259
0.569871
0.604577
0.715265
0.950973
1.36025
1.98594
3.02164
4.90659
0.774354
0.57622
0.441651
0.348083
0.313011
0.294271
0.293508
0.31453
0.391076
0.570572
0.908946
1.4668
2.37161
3.84607
0.414708
0.28576
0.20967
0.164461
0.14765
0.138337
0.138971
0.156027
0.215105
0.356828
0.634212
1.10428
1.85097
3.00191
0.216596
0.126965
0.0870175
0.0680314
0.0611374
0.0576352
0.0601328
0.0752355
0.122154
0.233438
0.454653
0.837225
1.44135
2.35716
0.11334
0.0520076
0.0318222
0.0244009
0.0219414
0.0213453
0.0249052
0.0384505
0.0765319
0.164864
0.341446
0.65273
1.15255
1.92192
0.0646991
0.0219257
0.0107745
0.00768277
0.00692747
0.00752748
0.011445
0.0238137
0.0563569
0.130105
0.276962
0.538328
0.964743
1.63252
0.0449388
0.0117946
0.00403574
0.00230663
0.00214098
0.00319359
0.00729384
0.0192809
0.0495243
0.116342
0.24735
0.479514
0.861085
1.46663
0.0402694
0.00962393
0.00246833
0.000994231
0.00102154
0.00232597
0.00677101
0.0192215
0.049553
0.114552
0.238809
0.455381
0.809192
1.3719
0.0443907
0.0111124
0.00308258
0.00135258
0.00140717
0.00299301
0.00809652
0.0218096
0.0539744
0.120541
0.244061
0.454801
0.795566
1.33827
0.0574143
0.0167032
0.00656619
0.00394651
0.0037965
0.0057481
0.011917
0.0276615
0.0629192
0.133071
0.259014
0.468768
0.804506
1.34226
0.0870886
0.0323305
0.0177195
0.0128294
0.0118205
0.0141731
0.0221065
0.0411661
0.0813457
0.157712
0.290171
0.506431
0.851971
1.40842
0.161018
0.0726263
0.0482343
0.0387066
0.035484
0.0382121
0.0492774
0.0743748
0.123617
0.212506
0.361492
0.598419
0.969126
1.55939
0.324624
0.164624
0.119814
0.103481
0.0968309
0.100551
0.117799
0.154987
0.223132
0.34027
0.530487
0.822806
1.25852
1.89867
0.594973
0.349941
0.267065
0.241589
0.234002
0.243095
0.273863
0.335963
0.44449
0.625689
0.911646
1.34064
1.96974
2.81445
0.528079
0.41612
0.356514
0.31637
0.310437
0.311936
0.321663
0.338053
0.378614
0.469968
0.654487
0.972068
1.51309
2.52088
0.272887
0.202756
0.170178
0.150715
0.148717
0.149915
0.154888
0.164633
0.1925
0.261517
0.409919
0.685356
1.1735
2.04285
0.138003
0.0903904
0.0727384
0.0642035
0.063762
0.0646458
0.0676787
0.0751622
0.0974667
0.153862
0.277402
0.515234
0.941098
1.67881
0.0706553
0.0373676
0.0276329
0.0240599
0.0239843
0.0246307
0.0269003
0.0332866
0.0516869
0.0978075
0.199753
0.400822
0.76408
1.38465
0.0391963
0.0153268
0.0094937
0.00789883
0.00785795
0.00837899
0.0103136
0.0160099
0.0317372
0.0705106
0.15625
0.327337
0.638994
1.17237
0.0253876
0.00725122
0.00321716
0.0023311
0.00230628
0.0027896
0.00457102
0.00988307
0.0242127
0.0590099
0.135148
0.286111
0.559891
1.02725
0.0198578
0.00471414
0.00137955
0.000705699
0.000707918
0.00121794
0.00303473
0.00843757
0.0227602
0.0567972
0.12941
0.270075
0.520818
0.943864
0.0188987
0.004341
0.00102537
0.000364106
0.000395791
0.000995035
0.00304544
0.00901591
0.0244147
0.0598055
0.132601
0.268975
0.505807
0.897042
0.0211153
0.00514548
0.00137964
0.000595273
0.000645453
0.00141023
0.00391441
0.0109209
0.0282763
0.0665073
0.142003
0.278329
0.508607
0.881688
0.0266613
0.00775351
0.00306072
0.00186825
0.00185263
0.00285962
0.00606156
0.0145201
0.0344115
0.0762387
0.15559
0.293899
0.521414
0.884366
0.0387379
0.0155181
0.00882385
0.00645335
0.00601499
0.00727989
0.0115307
0.0220153
0.0451109
0.0912379
0.175232
0.316977
0.545561
0.908418
0.0679945
0.0367361
0.0257715
0.0206782
0.018891
0.0202508
0.0261448
0.0398068
0.0675719
0.11978
0.21086
0.360056
0.596841
0.973154
0.130987
0.086181
0.0680528
0.0584723
0.0540615
0.0554324
0.0642611
0.0837507
0.120177
0.18431
0.291086
0.460327
0.721865
1.13251
0.249413
0.184657
0.156535
0.143102
0.137145
0.140668
0.156408
0.188451
0.243994
0.335754
0.479854
0.696535
1.01427
1.48769
0.203106
0.159293
0.139622
0.132558
0.139036
0.148753
0.161122
0.175283
0.198462
0.243321
0.333181
0.497076
0.788582
1.33267
0.0985345
0.0707622
0.0603356
0.0574639
0.060994
0.065878
0.0718828
0.0792762
0.093449
0.125159
0.194588
0.331669
0.589927
1.07666
0.0481626
0.0291185
0.023436
0.0222614
0.0238432
0.0260345
0.0289369
0.0333756
0.0435532
0.0685151
0.125663
0.243578
0.471868
0.901456
0.0251091
0.0115339
0.00819111
0.00761695
0.00818928
0.00909803
0.0106055
0.0136848
0.0216258
0.0418567
0.0892469
0.190091
0.389643
0.766061
0.0149611
0.00489509
0.00267717
0.00230981
0.00247271
0.00287268
0.00381118
0.00625306
0.012933
0.0301521
0.0708991
0.159105
0.335706
0.66906
0.0105281
0.0026415
0.000948091
0.000650147
0.000685597
0.000923675
0.00166968
0.00387976
0.0100767
0.026055
0.0637097
0.144853
0.305765
0.60506
0.00880439
0.00199706
0.00048969
0.000207356
0.000216668
0.000430897
0.00118234
0.00349862
0.00997912
0.0264104
0.0641786
0.143364
0.296056
0.572359
0.0087899
0.00199369
0.000429176
0.000132085
0.000146829
0.000399631
0.00128561
0.00398565
0.0113514
0.0293973
0.0691983
0.14922
0.297759
0.557392
0.0101146
0.00241463
0.00060484
0.000251357
0.000279143
0.00061948
0.00176349
0.0051144
0.0138826
0.0344095
0.0775578
0.16036
0.30821
0.558659
0.0129955
0.00370584
0.0014015
0.000851374
0.000861637
0.00134505
0.00290013
0.00717582
0.0177526
0.0412668
0.0884105
0.175033
0.324574
0.571636
0.0194865
0.00784917
0.0043557
0.00315086
0.00295627
0.00361909
0.00581934
0.0113943
0.0242058
0.0510913
0.102628
0.193949
0.347378
0.596361
0.0358794
0.0199649
0.0136996
0.0107567
0.00976355
0.0105221
0.0137557
0.0213531
0.0372893
0.0685458
0.125767
0.223978
0.385447
0.644524
0.0729403
0.0498061
0.0384748
0.0321212
0.0292419
0.0299031
0.0348978
0.0460743
0.0674093
0.106099
0.173157
0.284158
0.462693
0.748074
0.145199
0.111407
0.0930343
0.0826591
0.0776616
0.0789312
0.0876983
0.106071
0.138298
0.191891
0.277822
0.412013
0.619947
0.951398
0.0911369
0.0676054
0.0561238
0.0529153
0.0563661
0.0628505
0.0720131
0.0833242
0.100233
0.129377
0.183697
0.282078
0.458593
0.787389
0.0418265
0.0275168
0.022009
0.0208151
0.0224716
0.0253345
0.0292857
0.034483
0.0435255
0.0619826
0.100948
0.178484
0.327531
0.616516
0.0198841
0.01048
0.00774798
0.0072919
0.00794652
0.00906247
0.0107136
0.0133269
0.0189062
0.0320296
0.0621104
0.125878
0.254116
0.506529
0.0104947
0.00400286
0.00248456
0.00226198
0.00247101
0.00287293
0.00359968
0.00511618
0.00897035
0.0188502
0.0426824
0.095642
0.206052
0.426457
0.00653546
0.00178293
0.000782353
0.000629904
0.000681743
0.000838109
0.00122901
0.00228796
0.00528205
0.0133054
0.0332427
0.0789498
0.17647
0.372703
0.0048543
0.00109304
0.000305218
0.000171127
0.000178205
0.000264451
0.000551852
0.00145367
0.00412259
0.0113906
0.0295889
0.071555
0.161064
0.339543
0.00430863
0.000931706
0.000195303
6.11939e-05
5.94909e-05
0.000136105
0.000421763
0.00135761
0.004137
0.0116264
0.0300309
0.0715195
0.157803
0.325281
0.00455523
0.000991361
0.000194043
4.96039e-05
5.06495e-05
0.000144059
0.000489004
0.00160282
0.00483187
0.0132683
0.0332321
0.0764238
0.1627
0.323935
0.00545556
0.00122701
0.000280188
0.000108338
0.000116546
0.000250398
0.000717044
0.00215714
0.00615956
0.0161689
0.0387617
0.0853337
0.174376
0.334629
0.00720179
0.00191515
0.000670141
0.000398589
0.00040335
0.00061281
0.00129434
0.00324878
0.00836799
0.0205091
0.0465623
0.0977248
0.191692
0.35535
0.011188
0.0042375
0.00221786
0.00157525
0.00148779
0.00182215
0.00289948
0.0056873
0.0123911
0.0272679
0.057527
0.1144
0.215272
0.38615
0.0216233
0.0114207
0.00741495
0.00566642
0.00515397
0.00563749
0.00745911
0.0116995
0.0208168
0.0394527
0.0752616
0.139937
0.251349
0.436331
0.0461684
0.03001
0.021914
0.017659
0.0159728
0.0165772
0.019803
0.0267761
0.0401215
0.0648982
0.109476
0.18659
0.315624
0.526632
0.0956217
0.0700459
0.0554198
0.0473032
0.0437834
0.0448331
0.050895
0.0632449
0.0847078
0.120593
0.179546
0.275233
0.430104
0.682185
0.0482871
0.0330122
0.024784
0.021453
0.0217308
0.0243487
0.0292386
0.0363422
0.0478198
0.0678639
0.104798
0.171237
0.289356
0.506162
0.0206915
0.0121807
0.00870595
0.00755702
0.00779134
0.00886179
0.0107896
0.013772
0.0193241
0.0307969
0.0551271
0.104075
0.198772
0.382193
0.00935199
0.00422714
0.0027215
0.00234893
0.00246308
0.00285305
0.00358942
0.00494548
0.00801688
0.0154158
0.032764
0.0704471
0.147625
0.301521
0.00484655
0.00154112
0.000786487
0.000646382
0.000684352
0.000818567
0.00111895
0.00183134
0.00374938
0.008857
0.0216234
0.0509892
0.114075
0.243795
0.00308342
0.000728444
0.000243914
0.000163278
0.000170381
0.000222135
0.000374902
0.000830793
0.00219724
0.00604239
0.0160416
0.040015
0.0935199
0.206417
0.00242217
0.000512151
0.000114143
4.47581e-05
4.22655e-05
7.12738e-05
0.000179144
0.000543026
0.00168503
0.00497385
0.013672
0.034895
0.0829578
0.184891
0.00232755
0.000490177
9.18526e-05
2.03893e-05
1.60061e-05
4.22521e-05
0.000147656
0.000514195
0.00166839
0.00497304
0.0136224
0.0344555
0.0808858
0.177389
0.0026529
0.000556572
0.000100517
2.14542e-05
1.83115e-05
5.13736e-05
0.000180611
0.000621616
0.00197826
0.00575573
0.0153235
0.0375309
0.0851812
0.180488
0.00334424
0.000709074
0.000147582
5.26179e-05
5.28848e-05
0.000103853
0.000287652
0.000883494
0.00263894
0.00732145
0.0186463
0.0436794
0.094929
0.193201
0.00457026
0.00112131
0.000357027
0.000206943
0.000208012
0.00029934
0.000593988
0.00146564
0.00386752
0.00992076
0.0237931
0.0529045
0.109849
0.21486
0.00732535
0.00252892
0.00122151
0.000852599
0.000816082
0.000995278
0.00153216
0.00291832
0.00636194
0.0144034
0.0317558
0.0664044
0.131407
0.246905
0.0145844
0.00703713
0.00424052
0.00315672
0.00291045
0.00325792
0.00434482
0.00678043
0.0120539
0.023199
0.0456484
0.0883214
0.165298
0.29774
0.0320342
0.0191397
0.0129812
0.0100926
0.0091804
0.0098212
0.0121253
0.0168016
0.0256161
0.0421605
0.0728028
0.127918
0.223495
0.383329
0.0681895
0.0462156
0.0339944
0.0277887
0.0255796
0.0268458
0.0316983
0.0409903
0.0567672
0.0830006
0.126593
0.199317
0.320321
0.519616
0.0300019
0.0193192
0.0131236
0.0100534
0.00915202
0.00976537
0.0118461
0.0156373
0.0227359
0.0362114
0.0620829
0.109537
0.193673
0.345073
0.0119386
0.0064666
0.00412216
0.00314544
0.00292294
0.00319181
0.00397046
0.00548192
0.0087178
0.0159161
0.0318073
0.0646683
0.128865
0.252409
0.00505429
0.00204118
0.00114309
0.000860165
0.00081859
0.000923028
0.00121435
0.00187811
0.00357116
0.00791521
0.0185237
0.042304
0.0917899
0.190811
0.00253402
0.000712139
0.000300278
0.000208932
0.00020216
0.000241633
0.000362716
0.000702601
0.00170175
0.00450983
0.0118168
0.0291785
0.0672893
0.146868
0.00165531
0.000363269
9.70544e-05
4.88986e-05
4.57273e-05
6.30422e-05
0.000126329
0.000336402
0.00100706
0.00298744
0.00835055
0.0216622
0.052258
0.118728
0.00140607
0.00029255
5.72708e-05
1.51334e-05
1.12859e-05
2.18793e-05
6.62462e-05
0.00022599
0.0007538
0.00234752
0.00675301
0.0179561
0.0443753
0.102859
0.00148726
0.000309607
5.46929e-05
9.53231e-06
5.28177e-06
1.49459e-05
5.68791e-05
0.000210432
0.000718754
0.00225047
0.00646917
0.0171596
0.0422529
0.097268
0.00182899
0.000371948
6.34524e-05
1.20083e-05
8.19926e-06
2.04963e-05
7.12578e-05
0.000253033
0.000841638
0.00257181
0.00720868
0.0186111
0.0445666
0.0996904
0.00242057
0.000487648
9.39586e-05
3.1452e-05
2.94406e-05
5.00489e-05
0.000125008
0.00037726
0.00115763
0.00335368
0.00898138
0.0221978
0.0510132
0.109797
0.00341896
0.000777106
0.000225009
0.000127628
0.000128057
0.000172305
0.000306147
0.000703674
0.00183844
0.00484287
0.0121336
0.0283976
0.0622113
0.128407
0.00558719
0.00174232
0.000770537
0.000532069
0.000520781
0.000631546
0.000922438
0.00164364
0.00344775
0.00781756
0.0177503
0.0387755
0.0805053
0.158704
0.0111866
0.00486846
0.00270796
0.00197969
0.00187376
0.00215369
0.00286907
0.00437016
0.0075512
0.0143807
0.0286848
0.0572514
0.11131
0.208232
0.0247043
0.0134361
0.00842466
0.00636912
0.00591557
0.006584
0.00837281
0.0117548
0.0179263
0.0294819
0.0513097
0.0918988
0.164657
0.289377
0.0533459
0.0331759
0.0225316
0.0177355
0.0164887
0.018005
0.0222152
0.0297529
0.0421271
0.062481
0.0964395
0.154001
0.251501
0.413743
0.0218192
0.0137917
0.0088485
0.00613486
0.00492439
0.00468398
0.00532263
0.0070925
0.0112007
0.0199961
0.0379836
0.0722751
0.134109
0.244991
0.00807193
0.00424099
0.00252402
0.00171677
0.00139278
0.00135481
0.00160028
0.00230155
0.00414168
0.00869422
0.0193252
0.0421566
0.0877395
0.175892
0.00318505
0.00122477
0.000627717
0.000412747
0.000340127
0.000344377
0.00044605
0.000766458
0.00172637
0.00440012
0.0112443
0.0271242
0.060891
0.12899
0.00155131
0.000411015
0.000151689
8.80475e-05
7.29424e-05
8.06634e-05
0.000129444
0.000300432
0.000859434
0.00252755
0.00704521
0.0181168
0.0429426
0.0954029
0.00106338
0.000228262
5.29773e-05
1.96237e-05
1.4728e-05
2.0274e-05
4.83264e-05
0.000153972
0.000515792
0.00163716
0.00478782
0.0128461
0.0318188
0.0738611
0.000988482
0.000206378
3.82024e-05
7.55854e-06
3.71739e-06
7.66539e-06
2.73044e-05
0.000103654
0.000370797
0.00121619
0.0036486
0.0100568
0.025671
0.0613736
0.00113874
0.000235146
4.03562e-05
6.21603e-06
2.22987e-06
5.78164e-06
2.32606e-05
9.13325e-05
0.000329974
0.00108779
0.00327948
0.00909333
0.0233709
0.0561557
0.00148507
0.000294656
4.84756e-05
8.59498e-06
4.72783e-06
9.30503e-06
2.95689e-05
0.000105988
0.000368359
0.0011861
0.00350672
0.00954295
0.0240813
0.0567682
0.0020407
0.000395869
7.22607e-05
2.32692e-05
2.06351e-05
2.97491e-05
6.12495e-05
0.000169174
0.000519572
0.00156366
0.00440284
0.01149
0.0279247
0.063562
0.00295586
0.000633269
0.000169957
9.50063e-05
9.57923e-05
0.000121773
0.000188965
0.000378727
0.000928494
0.00244982
0.0063476
0.0155696
0.0359066
0.0780537
0.00486477
0.00139258
0.000571689
0.000393283
0.000394566
0.000477571
0.000660616
0.00107403
0.00207962
0.00456572
0.0104596
0.0235745
0.0509194
0.10472
0.00963099
0.0038349
0.00199704
0.00144895
0.00141227
0.00166164
0.00219804
0.00323163
0.00532056
0.00978696
0.0193664
0.0392194
0.0782679
0.151007
0.0210319
0.0105679
0.00621694
0.00462835
0.00441551
0.00508999
0.00659107
0.00925404
0.0139235
0.022535
0.0388979
0.0699513
0.127083
0.227427
0.0455688
0.0263572
0.0167393
0.0128548
0.0121839
0.0138304
0.0176225
0.0240794
0.0343758
0.0510305
0.0786276
0.125584
0.206273
0.342585
0.0183748
0.0117313
0.00738793
0.0048186
0.00349434
0.00293463
0.00298433
0.00378464
0.00612593
0.011688
0.0238352
0.048403
0.0948331
0.180561
0.00637176
0.0033941
0.00197561
0.00124509
0.000899034
0.00076669
0.000819431
0.00116102
0.00223693
0.00514639
0.0123406
0.0285872
0.0624035
0.129534
0.00233265
0.000908554
0.000453609
0.000271389
0.000195778
0.000173423
0.000210753
0.000382956
0.000962914
0.00268386
0.0072926
0.0184387
0.043022
0.0938763
0.00109663
0.000289488
0.000101742
5.19296e-05
3.6824e-05