/*--------------------------------*- C++ -*----------------------------------*\
| =========                 |                                                 |
| \\      /  F ield         | OpenFOAM: The Open Source CFD Toolbox           |
|  \\    /   O peration     | Version:  v2106                                 |
|   \\  /    A nd           | Website:  www.openfoam.com                      |
|    \\/     M anipulation  |                                                 |
\*---------------------------------------------------------------------------*/
FoamFile
{
    version     2.0;
    format      ascii;
    arch        "LSB;label=32;scalar=64";
    class       surfaceScalarField;
    location    "0.000155";
    object      phi;
}
// * * * * * * * * * * * * * * * * * * * * * * * * * * * * * * * * * * * * * //

dimensions      [1 0 -1 0 0 0 0];

internalField   nonuniform List<scalar> 
51992
(
-9.03073e-06
7.48759e-06
-6.28397e-06
1.00739e-05
-8.23067e-06
-8.18201e-06
4.58738e-06
-6.51106e-06
-5.16723e-06
-7.27783e-06
2.08068e-06
-6.90993e-06
-2.77657e-06
-6.58278e-06
-1.1645e-08
-7.18145e-06
-5.26149e-07
-6.01682e-06
-1.14328e-06
-7.38377e-06
6.76944e-07
-5.65422e-06
-1.66148e-06
-7.46144e-06
1.35549e-06
-5.47867e-06
-1.73096e-06
-7.4536e-06
1.56738e-06
-5.43087e-06
-1.70935e-06
-7.38939e-06
1.65397e-06
-5.47593e-06
-1.68849e-06
-7.28049e-06
1.68021e-06
-5.7319e-06
-1.87278e-06
-7.0732e-06
2.05646e-06
-6.20968e-06
-2.46794e-06
-6.788e-06
2.888e-06
-6.83537e-06
-3.65153e-06
-6.52372e-06
4.26695e-06
-7.45955e-06
-5.22777e-06
-6.36002e-06
5.918e-06
-7.34053e-06
-6.45422e-06
-7.81192e-06
7.86169e-06
-6.84626e-06
6.68353e-06
-5.93033e-06
7.89461e-06
-5.93841e-06
3.90991e-06
-6.35934e-06
-5.1151e-06
1.43046e-06
-6.71689e-06
-4.63486e-06
-3.5797e-07
-7.05101e-06
-4.31791e-06
-1.36849e-06
-7.27007e-06
-4.1405e-06
-1.78287e-06
-7.39342e-06
-4.04979e-06
-1.80608e-06
-7.43974e-06
-4.04089e-06
-1.72077e-06
-7.44035e-06
-4.09599e-06
-1.66977e-06
-7.40885e-06
-4.25851e-06
-1.7394e-06
-7.34684e-06
-4.56244e-06
-2.18366e-06
-7.18602e-06
-4.9754e-06
-3.22926e-06
-6.97621e-06
-5.30384e-06
-4.83383e-06
-6.75087e-06
-6.9767e-06
-6.67292e-06
-5.53245e-06
-5.07064e-06
6.0127e-06
-5.86189e-06
5.93275e-06
-4.2249e-06
3.25478e-06
-6.43801e-06
-3.59998e-06
9.3259e-07
-6.75271e-06
-3.28828e-06
-5.77599e-07
-7.05911e-06
-3.16478e-06
-1.43063e-06
-7.21956e-06
-3.11919e-06
-1.78602e-06
-7.32341e-06
-3.09505e-06
-1.82328e-06
-7.3715e-06
-3.10261e-06
-1.73051e-06
-7.39207e-06
-3.12866e-06
-1.67288e-06
-7.39343e-06
-3.15614e-06
-1.73095e-06
-7.38015e-06
-3.23798e-06
-2.11728e-06
-7.31565e-06
-3.43994e-06
-3.03891e-06
-7.21113e-06
-3.67848e-06
-4.56374e-06
-7.09839e-06
-6.60959e-06
-7.11159e-06
-3.94071e-06
-3.47022e-06
5.55406e-06
-5.96529e-06
4.0664e-06
-2.96717e-06
2.87733e-06
-6.56649e-06
-2.66579e-06
7.11429e-07
-6.87593e-06
-2.54407e-06
-6.5462e-07
-7.08955e-06
-2.54645e-06
-1.40706e-06
-7.18019e-06
-2.55854e-06
-1.75397e-06
-7.25326e-06
-2.5488e-06
-1.84523e-06
-7.29426e-06
-2.52791e-06
-1.79426e-06
-7.32244e-06
-2.51208e-06
-1.74313e-06
-7.35788e-06
-2.46665e-06
-1.82265e-06
-7.39052e-06
-2.37741e-06
-2.22382e-06
-7.40324e-06
-2.29806e-06
-3.12543e-06
-7.38446e-06
-2.2511e-06
-4.59446e-06
-7.3485e-06
-6.49456e-06
-7.36589e-06
-2.31306e-06
-2.42391e-06
5.40705e-06
-6.20317e-06
2.6597e-06
-2.23982e-06
2.75672e-06
-6.7315e-06
-2.18831e-06
7.04078e-07
-6.97795e-06
-2.22265e-06
-6.12949e-07
-7.08684e-06
-2.29072e-06
-1.35553e-06
-7.13686e-06
-2.32407e-06
-1.7348e-06
-7.17717e-06
-2.31507e-06
-1.89139e-06
-7.21816e-06
-2.2704e-06
-1.90521e-06
-7.25374e-06
-2.18578e-06
-1.90727e-06
-7.3028e-06
-2.05885e-06
-2.02506e-06
-7.35727e-06
-1.86807e-06
-2.4614e-06
-7.41748e-06
-1.66001e-06
-3.35765e-06
-7.46241e-06
-1.51625e-06
-4.75085e-06
-7.48746e-06
-6.47739e-06
-7.49353e-06
-1.52765e-06
-1.7008e-06
5.62877e-06
-6.48242e-06
1.54461e-06
-1.84637e-06
2.94995e-06
-6.89929e-06
-1.98051e-06
8.70466e-07
-7.04961e-06
-2.10521e-06
-4.9739e-07
-7.08005e-06
-2.2064e-06
-1.28894e-06
-7.10504e-06
-2.24953e-06
-1.7283e-06
-7.12832e-06
-2.24932e-06
-1.94406e-06
-7.16738e-06
-2.20857e-06
-2.01778e-06
-7.21078e-06
-2.09739e-06
-2.10471e-06
-7.26729e-06
-1.90428e-06
-2.30312e-06
-7.33394e-06
-1.64257e-06
-2.79084e-06
-7.4088e-06
-1.36082e-06
-3.68767e-06
-7.46785e-06
-1.17069e-06
-4.98067e-06
-7.51446e-06
-6.56478e-06
-7.47023e-06
-1.11353e-06
-1.22357e-06
6.16758e-06
-6.75508e-06
7.44173e-07
-1.59424e-06
3.37558e-06
-7.02913e-06
-1.89599e-06
1.2126e-06
-7.07774e-06
-2.1128e-06
-2.84077e-07
-7.07316e-06
-2.22342e-06
-1.21539e-06
-7.08364e-06
-2.2542e-06
-1.74064e-06
-7.09818e-06
-2.23904e-06
-2.00951e-06
-7.14188e-06
-2.20625e-06
-2.11532e-06
-7.18741e-06
-2.11616e-06
-2.27427e-06
-7.24357e-06
-1.93061e-06
-2.57364e-06
-7.31212e-06
-1.67418e-06
-3.12353e-06
-7.39574e-06
-1.37256e-06
-4.05051e-06
-7.45862e-06
-1.1184e-06
-5.29284e-06
-7.49871e-06
-6.8004e-06
-7.38596e-06
-9.36322e-07
-7.9127e-07
6.92154e-06
-6.93926e-06
9.90557e-08
-1.41202e-06
4.07347e-06
-7.07258e-06
-1.86159e-06
1.72263e-06
-7.06339e-06
-2.10036e-06
-2.48675e-08
-7.04e-06
-2.18184e-06
-1.15307e-06
-7.05018e-06
-2.17661e-06
-1.78309e-06
-7.07042e-06
-2.14095e-06
-2.10019e-06
-7.1104e-06
-2.12106e-06
-2.20156e-06
-7.16119e-06
-2.07977e-06
-2.39243e-06
-7.21759e-06
-1.96372e-06
-2.77476e-06
-7.28208e-06
-1.75937e-06
-3.41233e-06
-7.35363e-06
-1.47746e-06
-4.41133e-06
-7.38114e-06
-1.14514e-06
-5.70124e-06
-7.37963e-06
-7.14122e-06
-7.16294e-06
-8.74996e-07
-1.57513e-07
7.91054e-06
-7.03802e-06
-7.51165e-07
-9.74801e-07
4.99587e-06
-7.05222e-06
-1.55797e-06
2.40253e-06
-7.00464e-06
-1.84998e-06
3.38778e-07
-6.98331e-06
-1.93425e-06
-1.04068e-06
-7.00939e-06
-1.90757e-06
-1.81792e-06
-7.06427e-06
-1.86107e-06
-2.19207e-06
-7.11765e-06
-1.83602e-06
-2.29017e-06
-7.17821e-06
-1.79048e-06
-2.51124e-06
-7.2296e-06
-1.68693e-06
-2.95362e-06
-7.26291e-06
-1.50931e-06
-3.6698e-06
-7.29256e-06
-1.26695e-06
-4.73575e-06
-7.23513e-06
-8.80056e-07
-6.15619e-06
-7.15249e-06
-7.59893e-06
-6.80113e-06
-4.94951e-07
9.25532e-07
9.02916e-06
-7.00158e-06
-1.95021e-06
-6.95578e-08
6.10561e-06
-6.88689e-06
-7.78841e-07
3.24104e-06
-6.8053e-06
-1.1485e-06
8.33432e-07
-6.83159e-06
-1.27361e-06
-8.39885e-07
-6.91235e-06
-1.25395e-06
-1.81444e-06
-7.01371e-06
-1.2036e-06
-2.27666e-06
-7.0895e-06
-1.14258e-06
-2.40907e-06
-7.16655e-06
-1.06289e-06
-2.65811e-06
-7.209e-06
-9.62078e-07
-3.11727e-06
-7.20461e-06
-7.784e-07
-3.91663e-06
-7.17657e-06
-4.78509e-07
-5.07933e-06
-7.03874e-06
2.94488e-08
-6.68402e-06
-6.85667e-06
-8.19535e-06
-6.37581e-06
5.67385e-07
2.53293e-06
1.01173e-05
-6.92378e-06
-3.46177e-06
1.56362e-06
7.26145e-06
-6.72924e-06
8.03585e-07
4.19645e-06
-6.58305e-06
3.17973e-07
1.48264e-06
-6.5499e-06
8.1827e-08
-4.92649e-07
-6.69337e-06
3.59129e-08
-1.71445e-06
-6.8799e-06
6.25886e-08
-2.31803e-06
-7.02017e-06
1.74551e-07
-2.54528e-06
-7.14982e-06
3.29301e-07
-2.8299e-06
-7.21263e-06
5.33382e-07
-3.3311e-06
-7.18113e-06
8.25798e-07
-4.21409e-06
-7.09524e-06
1.26989e-06
-5.52878e-06
-6.85054e-06
1.84747e-06
-7.25013e-06
-6.58269e-06
-8.79166e-06
-6.05805e-06
2.43102e-06
4.92774e-06
1.10352e-05
-6.7704e-06
-5.65937e-06
3.99683e-06
8.39693e-06
-6.42504e-06
3.13411e-06
5.27745e-06
-6.17553e-06
2.48405e-06
2.32512e-06
-6.07797e-06
2.10096e-06
3.34489e-08
-6.2581e-06
1.97444e-06
-1.50362e-06
-6.54212e-06
2.02229e-06
-2.33443e-06
-6.82077e-06
2.21648e-06
-2.73217e-06
-7.04047e-06
2.44983e-06
-3.06192e-06
-7.14597e-06
2.80433e-06
-3.6809e-06
-7.12569e-06
3.22616e-06
-4.61562e-06
-7.01105e-06
3.76791e-06
-6.0408e-06
-6.74267e-06
4.30251e-06
-7.72018e-06
-6.46181e-06
-9.30307e-06
-5.96713e-06
4.85834e-06
7.39685e-06
1.16015e-05
-6.4699e-06
-7.75227e-06
6.846e-06
9.19609e-06
-6.19769e-06
6.10425e-06
6.27261e-06
-5.85755e-06
5.3617e-06
3.29293e-06
-5.61538e-06
4.82398e-06
7.40643e-07
-5.70697e-06
4.57731e-06
-1.15684e-06
-6.01855e-06
4.59774e-06
-2.3038e-06
-6.411e-06
4.83051e-06
-2.95224e-06
-6.75729e-06
5.13538e-06
-3.35621e-06
-6.99644e-06
5.54637e-06
-4.0705e-06
-7.05723e-06
6.05298e-06
-5.08593e-06
-6.96285e-06
6.59422e-06
-6.53183e-06
-6.72322e-06
6.96117e-06
-7.99233e-06
-6.42958e-06
-9.64776e-06
-6.0607e-06
7.40656e-06
9.92271e-06
-6.34144e-06
1.1998e-05
-1.00949e-05
9.55326e-06
-5.9112e-06
9.81749e-06
8.95632e-06
-5.37503e-06
7.10233e-06
8.24408e-06
-4.99291e-06
4.20503e-06
7.65107e-06
-4.98942e-06
1.48972e-06
7.32574e-06
-5.27397e-06
-7.38544e-07
7.30806e-06
-5.72935e-06
-2.23072e-06
7.52646e-06
-6.17454e-06
-3.17961e-06
7.90723e-06
-6.5568e-06
-3.77256e-06
8.29973e-06
-6.78767e-06
-4.47717e-06
8.77409e-06
-6.84082e-06
-5.53766e-06
9.19934e-06
-6.74144e-06
-6.89377e-06
9.38424e-06
-6.45828e-06
-8.07011e-06
-6.28053e-06
9.57331e-06
-9.69452e-06
-1.02924e-05
8.23505e-06
-6.81745e-06
1.19121e-05
-9.31291e-06
-9.0651e-06
5.06929e-06
-7.01274e-06
-5.79473e-06
-8.03181e-06
2.44457e-06
-7.25162e-06
-3.14647e-06
-7.23183e-06
4.48588e-07
-7.43628e-06
-1.01574e-06
-6.61813e-06
-5.14443e-07
-7.53578e-06
3.31109e-08
-6.20803e-06
-7.70592e-07
-7.57051e-06
4.5492e-07
-5.98162e-06
-7.86126e-07
-7.53158e-06
6.24083e-07
-5.90995e-06
-8.59562e-07
-7.41675e-06
7.93452e-07
-6.14154e-06
-1.15589e-06
-7.2222e-06
1.30099e-06
-6.62953e-06
-1.8426e-06
-6.9877e-06
2.20966e-06
-7.32914e-06
-2.90393e-06
-6.72682e-06
3.50038e-06
-8.25376e-06
-4.51124e-06
-6.51504e-06
5.38024e-06
-9.26673e-06
-6.54869e-06
-6.51316e-06
7.6758e-06
-9.1263e-06
-6.83339e-06
-1.00122e-05
1.02376e-05
-7.89902e-06
7.12657e-06
-6.36758e-06
9.42528e-06
-6.68405e-06
4.23866e-06
-6.75577e-06
-5.73764e-06
1.74082e-06
-6.97563e-06
-5.17387e-06
1.1839e-08
-7.20327e-06
-4.7899e-06
-8.48145e-07
-7.3467e-06
-4.5163e-06
-1.02811e-06
-7.43111e-06
-4.36516e-06
-9.43375e-07
-7.44818e-06
-4.31087e-06
-9.35443e-07
-7.43309e-06
-4.45661e-06
-1.06997e-06
-7.37156e-06
-4.85878e-06
-1.53642e-06
-7.2825e-06
-5.4698e-06
-2.40191e-06
-7.13314e-06
-6.23943e-06
-3.83931e-06
-6.93908e-06
-6.80327e-06
-5.87583e-06
-6.90186e-06
-8.44691e-06
-7.05019e-06
-7.13603e-06
-6.04427e-06
6.24072e-06
-6.24728e-06
7.29571e-06
-4.91403e-06
3.39409e-06
-6.74774e-06
-4.14077e-06
1.08959e-06
-6.8999e-06
-3.77492e-06
-3.45088e-07
-7.0983e-06
-3.607e-06
-1.04966e-06
-7.21186e-06
-3.4854e-06
-1.208e-06
-7.28691e-06
-3.39236e-06
-1.106e-06
-7.32038e-06
-3.38162e-06
-1.02677e-06
-7.33368e-06
-3.43882e-06
-1.09443e-06
-7.32402e-06
-3.64427e-06
-1.42902e-06
-7.31196e-06
-3.99537e-06
-2.16099e-06
-7.25768e-06
-4.4793e-06
-3.46028e-06
-7.16268e-06
-4.92375e-06
-5.41492e-06
-7.15685e-06
-7.87759e-06
-7.34603e-06
-5.29326e-06
-4.31535e-06
5.63386e-06
-6.23076e-06
5.16591e-06
-3.60419e-06
2.81438e-06
-6.72587e-06
-3.19677e-06
6.69829e-07
-6.89169e-06
-3.04697e-06
-5.5758e-07
-7.05937e-06
-3.02544e-06
-1.15213e-06
-7.12231e-06
-3.01759e-06
-1.32436e-06
-7.1648e-06
-2.97409e-06
-1.26358e-06
-7.19532e-06
-2.95902e-06
-1.16373e-06
-7.21906e-06
-2.97511e-06
-1.20255e-06
-7.25016e-06
-3.03455e-06
-1.49696e-06
-7.29516e-06
-3.14809e-06
-2.18534e-06
-7.31923e-06
-3.31502e-06
-3.39656e-06
-7.3404e-06
-3.51353e-06
-5.2305e-06
-7.38677e-06
-7.50899e-06
-7.52157e-06
-3.76931e-06
-3.08139e-06
5.3974e-06
-6.35708e-06
3.44729e-06
-2.8084e-06
2.57027e-06
-6.78432e-06
-2.75284e-06
5.53587e-07
-6.94519e-06
-2.78579e-06
-6.08842e-07
-7.03632e-06
-2.85831e-06
-1.18771e-06
-7.04932e-06
-2.90789e-06
-1.39982e-06
-7.06383e-06
-2.90758e-06
-1.40213e-06
-7.08833e-06
-2.88059e-06
-1.35003e-06
-7.11702e-06
-2.84201e-06
-1.40507e-06
-7.17238e-06
-2.81825e-06
-1.6737e-06
-7.25104e-06
-2.83961e-06
-2.30763e-06
-7.33595e-06
-2.87496e-06
-3.47975e-06
-7.4063e-06
-2.96765e-06
-5.17882e-06
-7.49171e-06
-7.30572e-06
-7.58017e-06
-3.1205e-06
-2.16203e-06
5.54425e-06
-6.52507e-06
2.03909e-06
-2.33118e-06
2.71198e-06
-6.88854e-06
-2.54085e-06
6.88848e-07
-7.00066e-06
-2.7115e-06
-5.43153e-07
-7.01078e-06
-2.85013e-06
-1.17227e-06
-6.99985e-06
-2.9253e-06
-1.45964e-06
-6.99212e-06
-2.95993e-06
-1.52855e-06
-7.01255e-06
-2.96627e-06
-1.53596e-06
-7.04588e-06
-2.93325e-06
-1.64838e-06
-7.10488e-06
-2.85935e-06
-1.94735e-06
-7.19343e-06
-2.77537e-06
-2.55749e-06
-7.30714e-06
-2.73527e-06
-3.64277e-06
-7.40614e-06
-2.74913e-06
-5.23877e-06
-7.49535e-06
-7.29756e-06
-7.53829e-06
-2.72829e-06
-1.58045e-06
6.02392e-06
-6.74953e-06
1.08477e-06
-2.03811e-06
3.14574e-06
-7.01488e-06
-2.43617e-06
1.0352e-06
-7.04543e-06
-2.72255e-06
-3.47004e-07
-7.01374e-06
-2.88241e-06
-1.12552e-06
-6.98069e-06
-2.9649e-06
-1.50559e-06
-6.96157e-06
-3.00652e-06
-1.64582e-06
-6.98756e-06
-3.04781e-06
-1.69239e-06
-7.01826e-06
-3.07087e-06
-1.85385e-06
-7.06973e-06
-3.03487e-06
-2.21105e-06
-7.15337e-06
-2.94198e-06
-2.84823e-06
-7.2677e-06
-2.814e-06
-3.91195e-06
-7.37753e-06
-2.69063e-06
-5.45526e-06
-7.4517e-06
-7.48108e-06
-7.39582e-06
-2.53208e-06
-1.08256e-06
6.80323e-06
-6.94562e-06
2.91804e-07
-1.77382e-06
3.84011e-06
-7.08852e-06
-2.312e-06
1.55907e-06
-7.05831e-06
-2.65055e-06
-6.60514e-08
-6.99807e-06
-2.8161e-06
-1.0509e-06
-6.95978e-06
-2.90252e-06
-1.55023e-06
-6.93326e-06
-2.9524e-06
-1.76287e-06
-6.95216e-06
-3.01289e-06
-1.83767e-06
-6.98744e-06
-3.07258e-06
-2.03235e-06
-7.04063e-06
-3.07936e-06
-2.44293e-06
-7.11979e-06
-2.98224e-06
-3.15801e-06
-7.21552e-06
-2.73528e-06
-4.30637e-06
-7.29471e-06
-2.40983e-06
-5.90499e-06
-7.3027e-06
-7.93844e-06
-7.08279e-06
-2.068e-06
-4.51615e-07
7.83848e-06
-7.07608e-06
-5.7337e-07
-1.31798e-06
4.75322e-06
-7.11119e-06
-1.95286e-06
2.22607e-06
-7.03708e-06
-2.35084e-06
3.24155e-07
-6.97538e-06
-2.56086e-06
-8.95785e-07
-6.94571e-06
-2.66272e-06
-1.56203e-06
-6.94259e-06
-2.70527e-06
-1.87546e-06
-6.96873e-06
-2.73923e-06
-1.9896e-06
-7.01744e-06
-2.746e-06
-2.23263e-06
-7.07439e-06
-2.6715e-06
-2.70922e-06
-7.13631e-06
-2.45888e-06
-3.53364e-06
-7.19233e-06
-2.02956e-06
-4.82028e-06
-7.19932e-06
-1.46954e-06
-6.56599e-06
-7.09963e-06
-8.57559e-06
-6.69511e-06
-9.67935e-07
6.74982e-07
9.07755e-06
-7.15273e-06
-1.79006e-06
-3.5125e-07
5.96069e-06
-7.07322e-06
-1.1126e-06
3.13801e-06
-6.95369e-06
-1.61344e-06
8.74071e-07
-6.87725e-06
-1.87796e-06
-6.45727e-07
-6.89082e-06
-1.97722e-06
-1.53919e-06
-6.93569e-06
-1.96781e-06
-1.99824e-06
-6.98018e-06
-1.8989e-06
-2.18744e-06
-7.05276e-06
-1.77999e-06
-2.48539e-06
-7.11208e-06
-1.55679e-06
-3.039e-06
-7.14777e-06
-1.17441e-06
-3.98963e-06
-7.15135e-06
-5.83784e-07
-5.44163e-06
-7.04456e-06
1.66989e-07
-7.35753e-06
-6.85115e-06
-9.2974e-06
-6.32588e-06
8.16531e-07
2.33257e-06
1.05084e-05
-7.23484e-06
-3.47456e-06
1.26441e-06
7.37447e-06
-7.07865e-06
4.47863e-07
4.28508e-06
-6.90469e-06
-1.28027e-07
1.68124e-06
-6.77618e-06
-4.74179e-07
-2.0271e-07
-6.78612e-06
-5.96596e-07
-1.42244e-06
-6.87445e-06
-5.41081e-07
-2.11289e-06
-6.96967e-06
-3.39739e-07
-2.47988e-06
-7.07779e-06
-6.6591e-08
-2.85441e-06
-7.1519e-06
3.26583e-07
-3.50851e-06
-7.15334e-06
8.41903e-07
-4.54914e-06
-7.09339e-06
1.52383e-06
-6.13814e-06
-6.87113e-06
2.37141e-06
-8.19616e-06
-6.61196e-06
-1.01427e-05
-6.0263e-06
3.17297e-06
4.90641e-06
1.18741e-05
-7.12729e-06
-5.91863e-06
3.834e-06
8.86614e-06
-6.83949e-06
2.90542e-06
5.68471e-06
-6.63297e-06
2.19974e-06
2.80822e-06
-6.49604e-06
1.76313e-06
5.12595e-07
-6.54079e-06
1.60726e-06
-1.14322e-06
-6.67521e-06
1.66781e-06
-2.16049e-06
-6.8587e-06
1.93907e-06
-2.8081e-06
-7.02121e-06
2.31662e-06
-3.29629e-06
-7.12686e-06
2.85521e-06
-4.07486e-06
-7.13739e-06
3.49372e-06
-5.18019e-06
-7.04585e-06
4.28252e-06
-6.89732e-06
-6.77979e-06
5.20174e-06
-8.98578e-06
-6.58912e-06
-1.09901e-05
-6.09259e-06
6.18956e-06
7.80357e-06
1.29915e-05
-6.92917e-06
-8.46652e-06
6.96568e-06
1.02147e-05
-6.70057e-06
6.0994e-06
7.18549e-06
-6.48038e-06
5.30828e-06
4.18024e-06
-6.19439e-06
4.76651e-06
1.49802e-06
-6.15548e-06
4.51133e-06
-6.40867e-07
-6.27463e-06
4.52215e-06
-2.07977e-06
-6.5268e-06
4.79447e-06
-3.0764e-06
-6.80148e-06
5.2198e-06
-3.73894e-06
-7.02003e-06
5.79491e-06
-4.6282e-06
-7.1079e-06
6.56033e-06
-5.87367e-06
-7.05469e-06
7.4515e-06
-7.66023e-06
-6.85477e-06
8.29767e-06
-9.56603e-06
-6.6819e-06
-1.16857e-05
-6.29329e-06
9.2503e-06
1.08058e-05
-6.81239e-06
1.40251e-05
-1.13767e-05
1.00001e-05
-6.35554e-06
1.14736e-05
9.16939e-06
-5.93344e-06
8.58341e-06
8.42847e-06
-5.53102e-06
5.45883e-06
7.8731e-06
-5.42189e-06
2.48088e-06
7.57231e-06
-5.54685e-06
-7.8199e-08
7.55032e-06
-5.86695e-06
-1.94478e-06
7.84262e-06
-6.26629e-06
-3.30848e-06
8.38987e-06
-6.65248e-06
-4.23288e-06
8.96913e-06
-6.91863e-06
-5.11714e-06
9.70509e-06
-7.03141e-06
-6.44849e-06
1.05238e-05
-6.99109e-06
-8.23237e-06
1.11815e-05
-6.78614e-06
-9.88029e-06
-6.65628e-06
1.19099e-05
-1.20088e-05
-1.20689e-05
8.08898e-06
1.41337e-05
-1.00629e-05
-6.90965e-06
-1.08034e-05
5.1799e-06
-6.41065e-06
-7.06705e-06
-9.74812e-06
3.09471e-06
-4.22515e-06
-7.18402e-06
-8.90123e-06
2.0321e-06
-3.0676e-06
-7.24731e-06
-8.14572e-06
1.85845e-06
-2.9259e-06
-7.20667e-06
-7.52705e-06
2.15936e-06
-3.1616e-06
-7.1658e-06
-6.96749e-06
2.42561e-06
-3.38654e-06
-7.10081e-06
-6.55254e-06
2.23698e-06
-3.01036e-06
-7.03929e-06
-6.42759e-06
1.51485e-06
-1.93792e-06
-6.9188e-06
-6.71045e-06
1.29021e-08
7.45606e-08
-6.79399e-06
-7.40845e-06
-2.15876e-06
2.77116e-06
-6.66909e-06
-8.44219e-06
-4.86772e-06
5.9353e-06
-6.59448e-06
-9.79589e-06
-7.62818e-06
9.0182e-06
-6.60743e-06
-1.06708e-05
-1.12834e-05
1.22014e-05
-6.92305e-06
-9.36832e-06
6.3339e-06
1.1222e-05
-6.48878e-06
-8.03202e-06
3.88012e-06
-6.82447e-06
-7.03487e-06
2.02987e-06
-6.93112e-06
-6.35383e-06
1.14604e-06
-7.0194e-06
-5.85476e-06
1.00894e-06
-6.99782e-06
-5.41376e-06
1.27562e-06
-6.98114e-06
-4.99401e-06
1.52867e-06
-6.95267e-06
-4.69055e-06
1.46326e-06
-6.95437e-06
-4.64213e-06
1.01836e-06
-6.93024e-06
-4.98838e-06
-4.92903e-09
-6.92573e-06
-5.69328e-06
-1.69235e-06
-6.91728e-06
-6.58895e-06
-4.02753e-06
-6.92931e-06
-7.50757e-06
-6.73355e-06
-6.94038e-06
-9.85066e-06
-8.35117e-06
-7.08943e-06
-7.3653e-06
4.88729e-06
8.94042e-06
-6.39757e-06
-6.06468e-06
2.58258e-06
-6.78833e-06
-5.16693e-06
1.03919e-06
-6.83728e-06
-4.67499e-06
3.78824e-07
-6.85204e-06
-4.38995e-06
3.04927e-07
-6.80914e-06
-4.12498e-06
5.08728e-07
-6.79403e-06
-3.87761e-06
7.45985e-07
-6.79152e-06
-3.71215e-06
7.75854e-07
-6.81239e-06
-3.74766e-06
5.33941e-07
-6.82072e-06
-4.07171e-06
-1.63862e-07
-6.84848e-06
-4.60548e-06
-1.53432e-06
-6.89998e-06
-5.32857e-06
-3.52205e-06
-6.9878e-06
-6.10047e-06
-6.08527e-06
-7.08247e-06
-9.17261e-06
-6.89281e-06
-7.26571e-06
-5.4031e-06
3.9554e-06
6.44835e-06
-6.37385e-06
-4.53155e-06
1.6594e-06
-6.71156e-06
-3.98872e-06
3.40309e-07
-6.77789e-06
-3.78547e-06
-1.99848e-07
-6.72323e-06
-3.70232e-06
-2.3792e-07
-6.67957e-06
-3.61785e-06
-1.11276e-07
-6.65316e-06
-3.52057e-06
8.04668e-08
-6.65028e-06
-3.47975e-06
1.74444e-07
-6.66966e-06
-3.54537e-06
2.3571e-08
-6.69226e-06
-3.8161e-06
-4.55617e-07
-6.75114e-06
-4.32161e-06
-1.54479e-06
-6.84414e-06
-4.88727e-06
-3.35322e-06
-6.96711e-06
-5.52103e-06
-5.74804e-06
-7.12476e-06
-8.71806e-06
-6.22079e-06
-7.29033e-06
-3.86924e-06
3.6067e-06
4.27949e-06
-6.43902e-06
-3.52106e-06
1.2019e-06
-6.70383e-06
-3.3626e-06
-8.24645e-08
-6.72329e-06
-3.38802e-06
-5.85219e-07
-6.66751e-06
-3.44831e-06
-6.64113e-07
-6.59546e-06
-3.53846e-06
-5.55168e-07
-6.56211e-06
-3.58288e-06
-4.30075e-07
-6.5597e-06
-3.63333e-06
-3.44054e-07
-6.56741e-06
-3.74975e-06
-4.50812e-07
-6.60292e-06
-3.94654e-06
-8.60638e-07
-6.67067e-06
-4.35307e-06
-1.7192e-06
-6.77593e-06
-4.91322e-06
-3.30447e-06
-6.91545e-06
-5.50204e-06
-5.57455e-06
-7.08121e-06
-8.41539e-06
-6.1444e-06
-7.24181e-06
-2.47511e-06
3.81495e-06
2.26318e-06
-6.53987e-06
-2.71524e-06
1.25125e-06
-6.72703e-06
-2.98359e-06
-1.54482e-07
-6.70209e-06
-3.212e-06
-7.66482e-07
-6.64305e-06
-3.39571e-06
-9.64491e-07
-6.5539e-06
-3.56992e-06
-9.02412e-07
-6.50489e-06
-3.71018e-06
-8.28886e-07
-6.50228e-06
-3.85341e-06
-7.62413e-07
-6.51158e-06
-4.02591e-06
-8.73149e-07
-6.53553e-06
-4.26587e-06
-1.24492e-06
-6.5965e-06
-4.64594e-06
-1.96728e-06
-6.70143e-06
-5.18262e-06
-3.34852e-06
-6.84877e-06
-5.81199e-06
-5.44478e-06
-7.00901e-06
-8.18847e-06
-6.43634e-06
-7.15157e-06
-1.25316e-06
4.5349e-06
4.35859e-07
-6.67445e-06
-2.02752e-06
1.77294e-06
-6.78581e-06
-2.64507e-06
1.14672e-07
-6.72952e-06
-3.08989e-06
-7.26344e-07
-6.63981e-06
-3.41059e-06
-1.10095e-06
-6.55498e-06
-3.64059e-06
-1.16572e-06
-6.50039e-06
-3.84887e-06
-1.13236e-06
-6.50257e-06
-4.06442e-06
-1.09834e-06
-6.49189e-06
-4.30869e-06
-1.20874e-06
-6.51525e-06
-4.62161e-06
-1.54668e-06
-6.56735e-06
-5.01066e-06
-2.20427e-06
-6.66551e-06
-5.50956e-06
-3.42849e-06
-6.81654e-06
-6.09304e-06
-5.37599e-06
-6.94514e-06
-8.02518e-06
-6.59608e-06
-7.0373e-06
-2.66954e-07
5.7514e-06
-1.09764e-06
-6.82463e-06
-1.47519e-06
2.74216e-06
-6.86404e-06
-2.39404e-06
7.26223e-07
-6.7685e-06
-2.99259e-06
-4.93671e-07
-6.6579e-06
-3.39343e-06
-1.12934e-06
-6.5587e-06
-3.68448e-06
-1.34606e-06
-6.49254e-06
-3.93554e-06
-1.37201e-06
-6.48419e-06
-4.17365e-06
-1.39416e-06
-6.47391e-06
-4.43494e-06
-1.50517e-06
-6.50509e-06
-4.75045e-06
-1.8184e-06
-6.55731e-06
-5.08771e-06
-2.44979e-06
-6.65312e-06
-5.43107e-06
-3.61204e-06
-6.78367e-06
-5.76416e-06
-5.46764e-06
-6.87763e-06
-8.0544e-06
-5.9632e-06
-6.85496e-06
4.33287e-07
7.38272e-06
-2.18544e-06
-6.98259e-06
-1.05476e-06
4.09338e-06
-6.97923e-06
-2.17995e-06
1.64091e-06
-6.83162e-06
-2.87305e-06
-8.73039e-08
-6.70272e-06
-3.31325e-06
-1.06194e-06
-6.59479e-06
-3.62091e-06
-1.48896e-06
-6.51811e-06
-3.85853e-06
-1.62393e-06
-6.49783e-06
-4.06661e-06
-1.72957e-06
-6.48755e-06
-4.27363e-06
-1.85926e-06
-6.52916e-06
-4.47097e-06
-2.18665e-06
-6.58709e-06
-4.59937e-06
-2.84434e-06
-6.68005e-06
-4.58496e-06
-4.0455e-06
-6.7832e-06
-4.43549e-06
-5.91043e-06
-6.80879e-06
-8.4021e-06
-4.13678e-06
-6.64584e-06
1.31951e-06
9.22864e-06
-3.20316e-06
-7.13776e-06
-3.72179e-07
5.78043e-06
-7.0687e-06
-1.61823e-06
2.85069e-06
-6.91686e-06
-2.44996e-06
6.20804e-07
-6.76306e-06
-2.97789e-06
-7.97783e-07
-6.64388e-06
-3.27831e-06
-1.5776e-06
-6.56973e-06
-3.40483e-06
-1.96277e-06
-6.53381e-06
-3.46214e-06
-2.19246e-06
-6.54299e-06
-3.4782e-06
-2.3741e-06
-6.59143e-06
-3.40412e-06
-2.76906e-06
-6.6508e-06
-3.18247e-06
-3.50344e-06
-6.7241e-06
-2.65895e-06
-4.84729e-06
-6.77494e-06
-1.88496e-06
-6.7994e-06
-6.74399e-06
-9.16273e-06
-1.03967e-06
-6.4121e-06
2.55347e-06
1.10492e-05
-4.41245e-06
-7.21837e-06
8.91775e-07
7.43828e-06
-7.0759e-06
-4.83463e-07
4.23005e-06
-6.90946e-06
-1.49441e-06
1.61161e-06
-6.76371e-06
-2.12743e-06
-2.84244e-07
-6.6827e-06
-2.41146e-06
-1.573e-06
-6.61774e-06
-2.39255e-06
-2.37489e-06
-6.5952e-06
-2.18362e-06
-2.86792e-06
-6.62226e-06
-1.88545e-06
-3.15581e-06
-6.67661e-06
-1.41366e-06
-3.66114e-06
-6.7413e-06
-7.34821e-07
-4.48581e-06
-6.79917e-06
2.73853e-07
-5.96307e-06
-6.77345e-06
1.51137e-06
-7.97641e-06
-6.69008e-06
-1.02169e-05
2.7682e-06
-6.23841e-06
4.92245e-06
1.27851e-05
-6.66864e-06
-7.13667e-06
3.20222e-06
9.20537e-06
-6.89929e-06
1.61159e-06
5.94314e-06
-6.76102e-06
3.43083e-07
3.01157e-06
-6.64629e-06
-4.64668e-07
5.78351e-07
-6.6183e-06
-7.60861e-07
-1.35877e-06
-6.61507e-06
-6.12511e-07
-2.76496e-06
-6.6359e-06
-1.19294e-07
-3.6982e-06
-6.69728e-06
5.97492e-07
-4.24117e-06
-6.76576e-06
1.51123e-06
-4.85766e-06
-6.85591e-06
2.58703e-06
-5.71969e-06
-6.89129e-06
3.90141e-06
-7.25508e-06
-6.80416e-06
5.36726e-06
-9.30484e-06
-6.72347e-06
-1.15372e-05
6.83004e-06
-6.2309e-06
7.83483e-06
1.43139e-05
-9.30528e-06
-7.0054e-06
6.10789e-06
1.10385e-05
-6.8176e-06
4.41834e-06
7.85952e-06
-6.70924e-06
3.04135e-06
4.67125e-06
-6.49602e-06
2.15515e-06
1.73471e-06
-6.45134e-06
1.86766e-06
-8.82734e-07
-6.48218e-06
2.14244e-06
-3.00503e-06
-6.57549e-06
2.87577e-06
-4.55369e-06
-6.69452e-06
3.89268e-06
-5.47115e-06
-6.81972e-06
5.05093e-06
-6.18327e-06
-6.94805e-06
6.27802e-06
-7.00288e-06
-7.00356e-06
7.61459e-06
-8.56207e-06
-6.884e-06
8.95845e-06
-1.05564e-05
-6.76404e-06
-1.29426e-05
1.04753e-05
-6.38502e-06
1.11357e-05
1.61001e-05
-1.28682e-05
-6.88303e-06
9.23648e-06
1.30379e-05
-6.45263e-06
7.47335e-06
9.88735e-06
-6.20013e-06
6.1629e-06
6.42522e-06
-5.99212e-06
5.45042e-06
2.97124e-06
-5.96855e-06
5.36718e-06
-2.86799e-07
-6.07074e-06
5.76636e-06
-3.01416e-06
-6.25587e-06
6.57051e-06
-5.16291e-06
-6.47051e-06
7.66367e-06
-6.54405e-06
-6.69237e-06
8.85177e-06
-7.40114e-06
-6.90863e-06
1.00714e-05
-8.22924e-06
-7.03015e-06
1.13035e-05
-9.76472e-06
-7.00457e-06
1.23833e-05
-1.1559e-05
-6.84338e-06
1.36984e-05
-1.41623e-05
-6.72873e-06
-6.79652e-06
-9.2949e-06
-4.09894e-06
8.45298e-06
-5.55782e-06
-1.04894e-05
-4.64834e-06
9.46148e-06
-3.9972e-06
-1.13953e-05
-4.98251e-06
1.00845e-05
-2.46921e-06
-1.18607e-05
-5.0024e-06
1.06132e-05
-8.74299e-07
-1.25725e-05
-4.45557e-06
1.1265e-05
-9.27992e-06
-2.48648e-06
8.5995e-06
-5.22891e-06
-9.468e-06
-5.28608e-06
-4.50885e-06
-1.10276e-05
-5.97119e-06
-3.34508e-06
-1.23281e-05
-6.45132e-06
-2.21366e-06
-1.27313e-05
-6.46802e-06
-1.12158e-06
-1.33724e-05
-5.74897e-06
-1.01892e-05
-3.14259e-06
-3.80422e-06
-9.4794e-06
-6.70319e-06
-3.28551e-06
-1.13872e-05
-7.38679e-06
-2.43721e-06
-1.29756e-05
-7.86415e-06
-1.63982e-06
-1.33289e-05
-7.79914e-06
-9.04206e-07
-1.39017e-05
-6.79896e-06
-1.09751e-05
-3.6055e-06
-2.1774e-06
-9.54718e-06
-7.80657e-06
-1.95608e-06
-1.15428e-05
-8.41063e-06
-1.5147e-06
-1.33557e-05
-8.81791e-06
-1.10436e-06
-1.37131e-05
-8.63379e-06
-6.90736e-07
-1.42847e-05
-7.44018e-06
-1.1703e-05
-3.8983e-06
-1.33848e-06
-9.73073e-06
-8.61736e-06
-1.19544e-06
-1.17165e-05
-9.12062e-06
-9.35851e-07
-1.37063e-05
-9.40423e-06
-7.22167e-07
-1.40782e-05
-9.08389e-06
-4.88138e-07
-1.46866e-05
-7.70155e-06
-1.2384e-05
-3.98713e-06
-8.72696e-07
-1.00368e-05
-8.9728e-06
-7.88484e-07
-1.1931e-05
-9.33257e-06
-6.64912e-07
-1.40525e-05
-9.4559e-06
-6.0203e-07
-1.44693e-05
-8.90827e-06
-4.69831e-07
-1.51453e-05
-7.40807e-06
-1.31673e-05
-3.71956e-06
-6.79059e-07
-1.04019e-05
-8.97171e-06
-5.91808e-07
-1.22292e-05
-9.08168e-06
-5.33167e-07
-1.44695e-05
-8.92533e-06
-5.34236e-07
-1.50108e-05
-8.12399e-06
-4.45373e-07
-1.57997e-05
-6.48552e-06
-1.41146e-05
-2.97568e-06
-6.42105e-07
-1.07824e-05
-8.50919e-06
-5.18846e-07
-1.26383e-05
-8.35862e-06
-5.0579e-07
-1.49478e-05
-7.9592e-06
-5.26721e-07
-1.56038e-05
-7.02277e-06
-3.61082e-07
-1.66313e-05
-5.35319e-06
-1.4993e-05
-2.2307e-06
-2.67839e-07
-1.11727e-05
-7.70495e-06
-8.5102e-08
-1.31086e-05
-7.42377e-06
-7.74887e-08
-1.53741e-05
-6.97236e-06
-6.18715e-08
-1.61415e-05
-6.04135e-06
1.53757e-07
-1.73512e-05
-4.62663e-06
-1.5191e-05
-1.8459e-06
8.35467e-07
-1.15602e-05
-6.80268e-06
9.83968e-07
-1.34345e-05
-6.58979e-06
8.34349e-07
-1.54486e-05
-6.23546e-06
7.72884e-07
-1.63594e-05
-5.46842e-06
7.11838e-07
-1.75283e-05
-4.33896e-06
-1.46544e-05
-1.74686e-06
2.6927e-06
-1.18294e-05
-6.05477e-06
2.69515e-06
-1.34669e-05
-6.03781e-06
2.26407e-06
-1.502e-05
-5.90435e-06
1.81835e-06
-1.58999e-05
-5.40123e-06
1.1535e-06
-1.68499e-05
-4.37631e-06
-1.35182e-05
-1.84155e-06
4.94228e-06
-1.18419e-05
-5.41967e-06
4.65381e-06
-1.3109e-05
-5.64019e-06
3.84827e-06
-1.40867e-05
-5.72266e-06
2.79709e-06
-1.46676e-05
-5.46074e-06
1.50509e-06
-1.53712e-05
-4.54777e-06
-1.19021e-05
-2.02984e-06
7.06838e-06
-1.13675e-05
-4.73596e-06
6.35844e-06
-1.22491e-05
-5.14137e-06
5.13296e-06
-1.26594e-05
-5.38197e-06
3.56114e-06
-1.28636e-05
-5.26997e-06
1.71859e-06
-1.32751e-05
-4.52817e-06
-1.0027e-05
-2.18862e-06
8.57343e-06
-3.84678e-06
-1.02517e-05
7.33229e-06
-4.35276e-06
-1.08719e-05
5.76721e-06
-4.67364e-06
-1.09189e-05
3.96691e-06
-4.69396e-06
-1.08497e-05
2.00066e-06
-4.11184e-06
-1.1078e-05
-2.16519e-06
-7.84836e-06
-8.76651e-06
-1.18212e-05
-4.45097e-06
1.09232e-05
-7.27301e-06
-1.34037e-05
-5.0434e-06
1.23034e-05
-5.4143e-06
-1.47453e-05
-5.52628e-06
1.34316e-05
-3.51294e-06
-1.5596e-05
-5.6256e-06
1.43341e-05
-1.14597e-06
-1.67889e-05
-5.28531e-06
1.52664e-05
-1.28972e-05
-3.16517e-06
1.24242e-05
-6.80776e-06
-1.1808e-05
-5.64178e-06
-5.95325e-06
-1.38577e-05
-6.37724e-06
-4.64889e-06
-1.55205e-05
-6.98023e-06
-3.44825e-06
-1.61961e-05
-7.05715e-06
-1.97484e-06
-1.73743e-05
-6.61707e-06
-1.39173e-05
-4.05834e-06
-5.17632e-06
-1.16458e-05
-7.00538e-06
-4.60636e-06
-1.4088e-05
-7.7421e-06
-3.61316e-06
-1.6042e-05
-8.34206e-06
-2.68633e-06
-1.6627e-05
-8.29016e-06
-1.55778e-06
-1.7708e-05
-7.59223e-06
-1.43731e-05
-4.69064e-06
-3.70153e-06
-1.15135e-05
-8.04181e-06
-3.41782e-06
-1.4102e-05
-8.72117e-06
-2.83884e-06
-1.62788e-05
-9.20083e-06
-2.27428e-06
-1.68694e-05
-8.98997e-06
-1.37567e-06
-1.79848e-05
-8.12475e-06
-1.47548e-05
-4.96938e-06
-2.92186e-06
-1.16018e-05
-8.75848e-06
-2.61983e-06
-1.42651e-05
-9.28761e-06
-2.20526e-06
-1.66504e-05
-9.51747e-06
-1.89738e-06
-1.72843e-05
-9.07321e-06
-1.20112e-06
-1.84452e-05
-8.04156e-06
-1.53343e-05
-4.70394e-06
-2.59127e-06
-1.17206e-05
-9.0371e-06
-2.55485e-06
-1.44165e-05
-9.27362e-06
-2.4218e-06
-1.71948e-05
-9.11884e-06
-2.25397e-06
-1.81116e-05
-8.3678e-06
-1.62147e-06
-1.93443e-05
-7.26082e-06
-1.69943e-05
-3.83787e-06
-2.37081e-06
-1.20545e-05
-8.82321e-06
-2.37064e-06
-1.48788e-05
-8.65042e-06
-2.37607e-06
-1.80169e-05
-8.15379e-06
-2.29023e-06
-1.93105e-05
-7.13095e-06
-1.65686e-06
-2.06596e-05
-5.92952e-06
-1.93896e-05
-2.4652e-06
-1.84668e-06
-1.26072e-05
-8.19731e-06
-1.81674e-06
-1.55887e-05
-7.71193e-06
-1.83859e-06
-1.89887e-05
-7.01025e-06
-1.82541e-06
-2.06307e-05
-5.81693e-06
-1.09771e-06
-2.22797e-05
-4.56594e-06
-2.14463e-05
-1.50115e-06
-6.73533e-07
-1.3184e-05
-7.42829e-06
-6.29107e-07
-1.62487e-05
-6.82507e-06
-7.40854e-07
-1.97475e-05
-6.10766e-06
-7.5083e-07
-2.18136e-05
-4.88804e-06
-2.45977e-07
-2.3796e-05
-3.65354e-06
-2.22613e-05
-1.39826e-06
1.19475e-06
-1.37045e-05
-6.66426e-06
1.23272e-06
-1.66484e-05
-6.21664e-06
8.95953e-07
-1.99528e-05
-5.64484e-06
7.19108e-07
-2.24077e-05
-4.66344e-06
4.89995e-07
-2.43016e-05
-3.53192e-06
-2.18033e-05
-1.69722e-06
3.72134e-06
-1.42123e-05
-6.10421e-06
3.71606e-06
-1.66786e-05
-5.95715e-06
3.10948e-06
-1.93984e-05
-5.73673e-06
2.37207e-06
-2.16981e-05
-5.24141e-06
1.33932e-06
-2.32524e-05
-4.24237e-06
-2.02567e-05
-1.92303e-06
6.63922e-06
-1.44583e-05
-5.59252e-06
6.3637e-06
-1.62668e-05
-5.73096e-06