/*--------------------------------*- C++ -*----------------------------------*\
| =========                 |                                                 |
| \\      /  F ield         | OpenFOAM: The Open Source CFD Toolbox           |
|  \\    /   O peration     | Version:  v2106                                 |
|   \\  /    A nd           | Website:  www.openfoam.com                      |
|    \\/     M anipulation  |                                                 |
\*---------------------------------------------------------------------------*/
FoamFile
{
    version     2.0;
    format      ascii;
    arch        "LSB;label=32;scalar=64";
    class       volScalarField;
    location    "0.000155";
    object      T;
}
// * * * * * * * * * * * * * * * * * * * * * * * * * * * * * * * * * * * * * //

dimensions      [0 0 0 1 0 0 0];

internalField   nonuniform List<scalar> 
18273
(
292.264
292.505
292.528
292.671
292.826
292.933
292.969
292.954
292.958
292.987
292.988
293.056
293.127
293.416
291.762
292.002
292.153
292.384
292.581
292.716
292.765
292.794
292.799
292.848
292.838
292.939
293.13
293.482
291.575
291.808
292.053
292.314
292.489
292.586
292.612
292.645
292.64
292.692
292.697
292.807
293.039
293.436
291.402
291.675
292.039
292.34
292.481
292.531
292.529
292.544
292.561
292.614
292.664
292.766
293.004
293.397
291.421
291.76
292.155
292.413
292.498
292.508
292.485
292.473
292.482
292.53
292.62
292.761
293.026
293.41
291.523
291.918
292.324
292.52
292.542
292.518
292.473
292.446
292.454
292.504
292.606
292.758
293.018
293.348
291.723
292.111
292.454
292.578
292.581
292.536
292.478
292.44
292.446
292.495
292.608
292.769
293.045
293.37
291.905
292.245
292.493
292.583
292.58
292.535
292.491
292.465
292.475
292.511
292.616
292.772
293.081
293.357
292.152
292.365
292.481
292.5
292.505
292.501
292.509
292.515
292.553
292.59
292.692
292.823
293.125
293.368
292.31
292.313
292.284
292.242
292.27
292.314
292.416
292.52
292.614
292.666
292.771
292.885
293.134
293.325
292.519
292.268
292.022
291.886
291.92
291.995
292.204
292.448
292.638
292.742
292.886
292.993
293.195
293.353
292.732
292.171
291.754
291.531
291.56
291.618
291.89
292.235
292.535
292.726
292.931
293.087
293.341
293.539
292.959
292.212
291.678
291.373
291.356
291.36
291.576
291.948
292.341
292.683
293.016
293.259
293.536
293.781
292.941
292.181
291.665
291.368
291.308
291.285
291.452
291.782
292.17
292.589
293.087
293.535
293.896
294.163
291.982
292.105
291.915
292.035
292.164
292.239
292.152
291.98
291.721
291.572
291.579
291.786
292.102
292.698
291.104
291.343
291.441
291.795
292.065
292.214
292.245
292.174
292.014
291.87
291.844
292.016
292.264
292.782
290.516
290.893
291.274
291.749
292.041
292.203
292.238
292.216
292.126
292.032
292.001
292.079
292.229
292.615
290.027
290.6
291.241
291.782
292.063
292.209
292.243
292.231
292.194
292.16
292.147
292.179
292.279
292.525
289.817
290.598
291.36
291.86
292.107
292.218
292.252
292.229
292.205
292.167
292.158
292.211
292.317
292.49
289.75
290.707
291.541
291.969
292.145
292.223
292.259
292.231
292.201
292.162
292.145
292.135
292.205
292.287
289.887
290.898
291.65
292.002
292.151
292.211
292.246
292.213
292.171
292.125
292.102
292.075
292.103
292.061
290.105
291.059
291.66
291.945
292.078
292.152
292.185
292.152
292.106
292.041
291.992
291.921
291.866
291.714
290.421
291.171
291.569
291.757
291.891
292.028
292.109
292.104
292.067
291.986
291.898
291.772
291.69
291.493
290.625
291.104
291.283
291.341
291.459
291.643
291.829
291.911
291.912
291.842
291.757
291.606
291.552
291.407
290.904
290.977
290.885
290.79
290.838
291.03
291.319
291.556
291.668
291.657
291.635
291.541
291.588
291.511
291.213
290.834
290.457
290.169
290.116
290.229
290.527
290.902
291.219
291.387
291.519
291.586
291.815
291.774
291.761
291.022
290.329
289.757
289.528
289.498
289.676
290.034
290.53
290.971
291.39
291.663
292.072
292.17
291.905
290.967
290.183
289.549
289.188
288.989
288.968
289.161
289.653
290.296
291.038
291.72
292.393
292.706
290.946
291.342
291.476
291.809
291.889
291.832
291.672
291.293
290.84
290.467
290.279
290.444
290.753
291.603
289.706
290.418
291.072
291.693
291.949
292.008
291.995
291.835
291.539
291.304
291.195
291.336
291.406
292.003
288.964
290.045
290.984
291.692
291.996
292.1
292.122
292.064
291.865
291.73
291.641
291.645
291.722
292.06
288.391
289.837
291.059
291.764
292.082
292.146
292.159
292.14
292.025
291.946
291.895
291.908
291.922
292.063
288.258
289.961
291.227
291.881
292.122
292.173
292.166
292.106
292.072
292.017
291.965
291.927
291.911
291.893
288.332
290.183
291.369
291.909
292.108
292.131
292.122
292.056
292.015
291.953
291.894
291.823
291.769
291.634
288.638
290.449
291.478
291.921
292.062
292.081
292.068
291.999
291.954
291.888
291.804
291.667
291.523
291.197
289.046
290.64
291.462
291.806
291.912
291.943
291.936
291.875
291.807
291.71
291.587
291.383
291.079
290.586
289.454
290.713
291.285
291.517
291.648
291.733
291.776
291.738
291.668
291.554
291.384
291.101
290.716
290.111
289.717
290.549
290.862
290.997
291.13
291.32
291.457
291.505
291.457
291.337
291.126
290.837
290.512
289.821
289.973
290.247
290.239
290.223
290.314
290.574
290.889
291.11
291.188
291.141
290.972
290.672
290.469
289.724
290.053
289.755
289.412
289.152
289.137
289.371
289.813
290.279
290.597
290.723
290.748
290.546
290.558
289.929
290.407
289.547
288.742
288.03
287.781
287.849
288.24
288.88
289.551
290.058
290.45
290.495
290.722
290.384
290.284
289.043
287.967
286.957
286.42
286.293
286.557
287.142
287.991
288.854
289.751
290.444
291.08
291.03
293.938
294.431
294.828
295.269
295.504
295.712
293.614
294.218
294.845
295.483
295.928
296.266
293.823
294.476
295.158
295.854
296.352
296.644
293.899
294.558
295.315
296.04
296.598
296.9
293.965
294.591
295.381
296.144
296.784
297.123
293.895
294.487
295.33
296.097
296.768
297.134
293.928
294.491
295.303
295.996
296.62
296.987
293.91
294.432
295.189
295.801
296.323
296.69
293.877
294.379
295.087
295.616
296.087
296.436
293.82
294.317
294.972
295.46
295.906
296.283
293.848
294.316
294.954
295.418
295.807
296.174
294.099
294.528
295.081
295.472
295.857
296.183
294.346
294.691
295.118
295.51
295.916
296.288
294.645
294.989
295.386
295.764
296.126
296.464
293.695
294.621
295.471
296.374
296.939
297.276
293.03
293.998
295.102
296.24
297.15
297.727
293.07
294.008
295.142
296.239
297.116
297.481
292.938
293.649
294.61
295.555
296.528
296.901
292.835
293.188
293.854
294.529
295.507
295.858
292.477
292.578
292.996
293.442
294.351
294.635
292.104
292.031
292.401
292.826
293.6
293.964
291.719
291.751
292.229
292.71
293.307
293.751
291.596
291.843
292.419
292.885
293.453
294.019
291.649
292.075
292.735
293.332
293.951
294.567
291.947
292.512
293.329
294.068
294.765
295.396
292.342
293.022
293.995
294.864
295.632
296.16
292.964
293.636
294.57
295.44
296.209
296.763
293.37
294.003
294.905
295.828
296.55
297.165
292.933
293.912
294.914
296.035
296.915
297.489
292.257
293.177
294.429
295.628
296.613
297.194
292.438
293.21
294.372
295.26
295.982
295.809
292.346
292.886
293.604
294.015
294.557
293.677
292.007
292.12
292.387
292.286
292.508
291.057
291.507
291.198
290.937
290.402
290.443
288.414
290.757
290.036
289.529
288.837
288.877
286.858
290.016
289.114
288.579
287.992
288.152
286.494
289.49
288.65
288.26
287.951
288.215
287.407
289.197
288.577
288.614
288.893
289.491
289.742
289.302
289.124
289.639
290.602
291.688
292.612
289.859
290.005
290.908
292.344
293.738
294.984
290.854
291.226
292.262
293.627
295.003
296.21
291.359
291.884
292.902
294.066
295.363
296.546
294.676
295.118
295.369
295.743
295.953
296.213
294.175
294.698
295.086
295.545
295.86
296.21
293.748
294.13
294.594
295.144
295.634
296.016
293.144
293.431
293.966
294.684
295.308
295.811
292.62
292.93
293.494
294.326
295.054
295.656
292.164
292.493
293.067
294.002
294.779
295.428
291.772
292.168
292.783
293.774
294.577
295.267
291.507
291.974
292.645
293.645
294.449
295.124
291.415
291.936
292.674
293.677
294.44
295.064
291.505
292.069
292.886
293.874
294.63
295.257
291.727
292.326
293.197
294.18
295.02
295.597
292.205
292.841
293.711
294.656
295.452
295.944
292.808
293.399
294.173
295.096
295.827
296.372
293.349
293.952
294.606
295.382
296.036
296.557
293.488
294.214
294.76
295.42
295.9
296.355
292.404
292.905
293.434
294.099
294.667
295.129
291.524
291.615
291.909
292.408
293.039
293.569
290.463
290.243
290.401
290.975
291.68
292.358
289.603
289.448
289.667
290.45
291.229
292.12
289.003
289.058
289.417
290.385
291.217
292.475
288.698
288.961
289.521
290.69
291.68
293.007
288.641
288.988
289.745
291.21
292.433
293.715
288.812
289.306
290.35
292.063
293.359
294.692
289.277
289.922
291.196
293.077
294.531
295.922
289.913
290.842
292.289
294.192
295.699
296.995
290.827
291.908
293.374
295.113
296.51
297.602
291.858
292.828
294.123
295.612
296.858
297.854
292.481
293.324
294.392
295.716
296.818
297.637
292.092
292.843
293.338
293.865
294.334
294.827
290.767
291.01
291.322
291.591
291.854
291.991
289.826
289.306
289.042
288.867
288.964
288.788
288.52
287.331
286.658
286.34
286.491
286.392
287.264
285.887
285.183
285.066
285.305
285.354
286.165
284.872
284.468
284.687
284.991
285.666
285.408
284.53
284.509
285.255
285.975
287.386
285.176
284.626
285.011
286.556
288.232
290.561
285.29
285.063
285.819
288.124
290.741
294.144
285.726
285.825
286.915
289.698
292.816
296.723
286.7
287.108
288.483
291.334
294.51
298.407
288.049
288.652
290.131
292.714
295.556
298.78
289.578
290.278
291.613
293.674
295.791
298.324
290.392
291.02
292.118
293.743
295.286
296.904
295.847
295.421
294.875
293.876
292.994
292.391
295.623
295.019
294.234
293.202
292.4
292.008
295.318
294.639
293.685
292.591
291.893
291.593
294.907
294.118
293.175
292.155
291.569
291.32
294.639
293.816
292.924
291.926
291.454
291.238
294.536
293.716
292.829
291.845
291.461
291.269
294.677
293.813
292.873
291.882
291.565
291.421
294.864
294.004
292.993
291.994
291.738
291.598
295.034
294.197
293.149
292.163
291.938
291.857
295.328
294.515
293.51
292.533
292.271
292.166
295.488
294.749
293.835
292.942
292.62
292.416
295.651
295.053
294.343
293.618
293.244
292.835
295.836
295.386
294.838
294.178
293.671
293.053
296.16
295.745
295.323
294.663
294.194
293.529
298.237
297.453
296.268
294.614
293.211
292.268
298.007
296.808
295.33
293.545
292.283
291.551
297.454
295.911
294.289
292.422
291.267
290.637
296.388
294.678
293.1
291.34
290.376
289.941
295.157
293.413
291.954
290.332
289.654
289.461
294.045
292.287
291.01
289.587
289.174
289.144
293.249
291.519
290.288
289.087
288.944
289.089
292.65
291.025
289.861
288.865
288.857
289.127
292.224
290.662
289.621
288.743
288.854
289.347
291.989
290.73
289.72
288.92
289.112
289.715
292.096
291.06
290.126
289.486
289.767
290.264
292.95
292.162
291.405
290.923
290.991
290.976
294.33
293.683
293.042
292.408
292.085
291.639
296.154
295.544
294.915
294.081
293.556
292.745
300.277
298.176
295.909
293.413
291.67
290.775
300.01
296.977
294.234
291.764
290.372
289.873
299.323
295.544
292.344
289.811
288.684
288.451
297.666
293.691
290.601
288.094
287.314
287.422
295.432
291.606
288.808
286.547
286.124
286.706
292.559
289.392
287.082
285.378
285.381
286.413
289.307
286.998
285.526
284.416
284.842
286.432
286.653
285.083
284.408
283.923
284.741
286.706
284.963
283.993
283.925
283.882
285.043
287.261
284.499
284.133
284.031
284.406
285.835
287.922
285.141
284.855
284.857
285.534
286.997
288.729
287.129
286.95
287.097
287.745
288.665
289.534
290.173
289.839
289.877
290.005
290.096
290.058
293.954
293.2
292.844
292.426
292.067
291.395
295.517
295.171
294.804
294.338
293.869
293.594
295.022
294.712
294.416
294.099
293.76
293.448
294.988
294.615
294.332
293.973
293.616
293.321
295.14
294.772
294.457
294.056
293.673
293.328
295.5
295.082
294.671
294.189
293.713
293.321
295.9
295.432
294.922
294.324
293.745
293.302
296.221
295.717
295.113
294.409
293.743
293.26
296.535
296.046
295.321
294.494
293.757
293.298
296.734
296.197
295.412
294.551
293.794
293.279
296.985
296.408
295.608
294.684
293.88
293.228
296.871
296.304
295.582
294.651
293.79
293.034
296.67
296.2
295.544
294.584
293.681
292.822
296.362
295.856
295.316
294.4
293.431
292.533
295.797
295.445
295.299
294.618
293.874
292.998
297.19
296.556
295.75
294.732
293.723
293.023
296.092
295.517
294.779
293.868
293.033
292.497
295.118
294.426
293.741
292.885
292.243
291.901
294.207
293.434
292.898
292.231
291.821
291.606
293.501
292.77
292.216
291.716
291.502
291.455
293.258
292.356
291.961
291.546
291.364
291.458
292.995
292.397
291.867
291.501
291.406
291.684
293.147
292.768
292.103
291.793
291.725
292.012
293.849
293.55
292.776
292.453
292.262
292.331
295.314
294.882
293.958
293.348
292.783
292.365
296.742
296.194
295.208
294.169
293.174
292.361
297.696
297.209
296.256
294.962
293.624
292.42
298.155
297.399
296.414
295.018
293.606
292.365
298.125
297.475
296.795
295.643
294.482
293.191
297.69
296.368
294.894
293.353
292.134
291.478
296.233
294.704
293.136
291.721
290.925
290.827
293.847
292.251
290.914
289.776
289.402
289.731
291.09
289.665
288.884
288.381
288.52
289.33
287.509
287.392
287.201
287.345
288.038
289.364
285.415
286.342
286.39
287.128
288.207
289.741
284.634
286.431
286.487
287.538
288.814
290.347
285.222
287.255
287.586
288.803
289.926
291.066
287.193
289.146
289.555
290.499
291.066
291.605
290.376
291.713
291.703
291.992
291.953
291.935
293.537
294.248
293.828
293.4
292.629
292.022
296.33
296.341
295.556
294.413
293.009
291.937
298.473
297.603
296.257
294.587
292.922
291.682
299.578
298.448
297.07
295.41
293.967
292.635
291.345
292.37
292.826
293.429
293.606
293.566
293.147
292.415
291.574
290.947
290.62
290.67
290.933
291.974
289.819
291.293
292.368
293.243
293.592
293.698
293.563
293.274
292.778
292.355
292.137
292.146
292.261
293
289.078
291.043
292.234
293.135
293.552
293.684
293.65
293.551
293.271
293.016
292.89
292.924
292.928
293.362
288.52
290.786
292.277
293.165
293.528
293.643
293.64
293.629
293.496
293.379
293.307
293.285
293.409
293.572
288.362
290.844
292.39
293.22
293.502
293.609
293.618
293.563
293.517
293.451
293.407
293.388
293.422
293.489
288.554
291.05
292.487
293.195
293.427
293.515
293.541
293.511
293.463
293.395
293.332
293.301
293.285
293.155
289.054
291.363
292.57
293.127
293.338
293.393
293.418
293.38
293.35
293.283
293.205
293.122
292.902
292.471
289.718
291.643
292.569
292.989
293.155
293.226
293.258
293.216
293.169
293.064
292.93
292.674
292.25
291.392
290.31
291.747
292.384
292.673
292.863
292.976
293.037
292.989
292.928
292.785
292.587
292.203
291.528
290.473
290.655
291.584
291.923
292.111
292.329
292.565
292.695
292.691
292.626
292.448
292.174
291.71
291.015
289.878
290.775
291.143
291.178
291.222
291.473
291.832
292.103
292.248
292.259
292.114
291.852
291.374
290.797
289.605
290.542
290.367
290.098
289.928
290.037
290.431
290.92
291.392
291.629
291.653
291.512
291.154
290.855
289.734
290.645
289.698
288.927
288.269
288.085
288.323
288.982
289.854
290.597
291.025
291.2
291.073
291.025
290.16
289.997
288.38
287.211
286.254
285.82
285.89
286.474
287.539
288.772
289.81
290.575
290.994
291.386
291.063
291.196
292.913
293.933
294.753
295.019
294.952
294.54
293.786
292.732
291.725
291.018
290.779
290.842
291.776
289.964
292.126
293.66
294.612
294.987
295.016
294.852
294.542
293.993
293.405
292.969
292.8
292.781
293.468
289.602
292.106
293.61
294.517
294.889
294.962
294.894
294.769
294.494
294.202
293.999
293.957
294.045
294.464
289.428
292.084
293.673
294.519
294.784
294.85
294.815
294.745
294.634
294.529
294.479
294.493
294.613
294.805
289.55
292.247
293.793
294.479
294.667
294.717
294.706
294.66
294.605
294.558
294.562
294.602
294.746
294.907
290.018
292.544
293.867
294.401
294.539
294.564
294.566
294.541
294.518
294.496
294.499
294.529
294.578
294.558
290.78
292.905
293.89
294.298
294.404
294.413
294.412
294.393
294.377
294.357
294.352
294.32
294.171
293.762
291.58
293.15
293.843
294.108
294.224
294.241
294.25
294.227
294.199
294.148
294.086
293.874
293.498
292.642
292.1
293.185
293.643
293.839
293.972
294.034
294.059
294.023
293.972
293.867
293.708
293.33
292.582
291.251
292.228
292.874
293.112
293.295
293.536
293.704
293.782
293.77
293.695
293.531
293.249
292.663
291.72
290.233
291.959
292.151
292.202
292.416
292.769
293.122
293.343
293.394
293.365
293.191
292.834
292.14
291.134
289.665
291.175
290.954
290.831
290.935
291.325
291.883
292.398
292.776
292.901
292.796
292.511
291.841
290.97
289.568
290.568
289.572
289.158
288.908
289.137
289.797
290.727
291.642
292.208
292.357
292.269
291.782
291.075
289.773
289.27
287.731
286.949
286.404
286.39
286.946
288.12
289.595
290.862
291.617
291.934
291.796
291.6
290.727
291.995
294.137
295.409
296.23
296.546
296.525
296.327
295.901
295.223
294.334
293.523
292.979
292.806
293.319
291.298
293.771
295.356
296.194
296.476
296.512
296.417
296.252
295.929
295.493
295.124
294.87
294.768
295.023
291.348
293.914
295.323
296.114
296.347
296.428
296.39
296.326
296.182
296.009
295.888
295.82
295.852
296.08
291.556
294.098
295.397
296.03
296.212
296.281
296.278
296.251
296.207
296.168
296.164
296.205
296.351
296.537
292.01
294.337
295.468
295.928
296.077
296.134
296.147
296.152
296.15
296.145
296.172
296.258
296.414
296.6
292.698
294.591
295.48
295.814
295.932
295.985
296.006
296.018
296.034
296.06
296.107
296.198
296.299
296.382
293.436
294.817
295.44
295.68
295.783
295.834
295.853
295.86
295.879
295.905
295.949
295.989
295.984
295.851
294.038
294.949
295.361
295.51
295.615
295.666
295.688
295.689
295.7
295.707
295.705
295.648
295.477
295.047
294.296
294.884
295.141
295.297
295.409
295.478
295.505
295.491
295.479
295.446
295.371
295.177
294.75
293.894
294.207
294.555
294.721
294.913
295.081
295.21
295.271
295.254
295.216
295.14
294.975
294.613
293.944
292.786
293.694
293.788
293.935
294.23
294.534
294.781
294.931
294.965
294.926
294.819
294.582
294.074
293.219
291.902
292.614
292.495
292.6
292.944
293.46
293.948
294.351
294.533
294.596
294.527
294.282
293.726
292.791
291.404
291.462
290.75
290.778
290.999
291.629
292.437
293.257
293.914
294.161
294.25
294.096
293.601
292.678
291.222
289.63
288.435
288.187
288.326
288.94
290.015
291.379
292.671
293.516
293.898
293.918
293.604
293.079
291.894
293.508
295.631
296.69
297.407
297.693
297.75
297.662
297.486
297.186
296.7
296.179
295.68
295.418
295.379
293.405
295.652
296.784
297.42
297.595
297.645
297.603
297.524
297.405
297.2
297.028
296.9
296.79
296.712
293.682
295.883
296.857
297.342
297.462
297.515
297.505
297.478
297.429
297.367
297.358
297.37
297.429
297.529
294.167
296.088
296.884
297.234
297.33
297.37
297.376
297.373
297.378
297.391
297.452
297.541
297.689
297.835
294.711
296.233
296.837
297.092
297.181
297.23
297.248
297.264
297.289
297.325
297.398
297.509
297.665
297.836
295.242
296.317
296.749
296.947
297.03
297.087
297.116
297.138
297.167
297.213
297.289
297.407
297.548
297.718
295.653
296.356
296.648
296.808
296.886
296.944
296.97
296.99
297.016
297.057
297.125
297.219
297.329
297.411
295.881
296.344
296.55
296.648
296.736
296.79
296.81
296.826
296.847
296.881
296.925
296.965
296.99
296.948
295.896
296.206
296.363
296.487
296.575
296.621
296.632
296.637
296.648
296.664
296.678
296.643
296.554
296.26
295.692
295.901
296.076
296.234
296.344
296.407
296.428
296.428
296.429
296.43
296.4
296.28
295.999
295.403
295.064
295.285
295.551
295.816
295.989
296.118
296.184
296.199
296.196
296.183
296.115
295.886
295.414
294.536
294
294.196
294.498
294.976
295.348
295.661
295.856
295.94
295.963
295.955
295.86
295.548
294.911
293.764
292.662
292.46
292.906
293.543
294.184
294.794
295.285
295.603
295.71
295.736
295.671
295.329
294.652
293.373
290.499
290.085
290.447
291.173
292.185
293.285
294.299
295.062
295.433
295.57
295.522
295.228
294.703
293.555
295.671
297.242
298.033
298.549
298.78
298.853
298.838
298.787
298.676
298.488
298.273
298.069
297.921
297.713
295.739
297.506
298.184
298.562
298.675
298.731
298.72
298.702
298.666
298.622
298.607
298.635
298.658
298.61
296.049
297.678
298.224
298.485
298.557
298.598
298.605
298.603
298.612
298.628
298.693
298.773
298.884
298.952
296.487
297.734
298.173
298.362
298.429
298.47
298.488
298.504
298.531
298.583
298.672
298.787
298.949
299.083
296.885
297.747
298.06
298.211
298.287
298.344
298.376
298.405
298.44
298.495
298.583
298.708
298.869
299.035
297.191
297.716
297.938
298.072
298.149
298.214
298.253
298.287
298.324
298.376
298.455
298.575
298.729
298.921
297.341
297.669
297.809
297.937
298.015
298.077
298.113
298.143
298.178
298.226
298.297
298.401
298.542
298.725
297.367
297.582
297.695
297.799
297.875
297.926
297.952
297.978
298.012
298.061
298.128
298.211
298.313
298.435
297.274
297.428
297.557
297.659
297.723
297.757
297.771
297.791
297.826
297.879
297.943
297.996
298.065
298.08
297.014
297.166
297.346
297.459
297.529
297.56
297.572
297.595
297.638
297.701
297.754
297.775
297.75
297.58
296.499
296.771
297.026
297.178
297.285
297.343
297.366
297.395
297.45
297.517
297.556
297.521
297.386
297.003
295.613
295.959
296.363
296.677
296.918
297.072
297.147
297.21
297.281
297.345
297.37
297.282
297.026
296.383
294.435
294.692
295.272
295.821
296.309
296.678
296.908
297.047
297.143
297.206
297.234
297.098
296.767
295.938
292.452
292.63
293.26
294.166
295.069
295.86
296.458
296.826
297.033
297.122
297.124
296.955
296.548
295.784
297.643
298.865
299.256
299.569
299.696
299.753
299.745
299.731
299.714
299.665
299.629
299.596
299.57
299.511
297.776
298.963
299.318
299.528
299.591
299.632
299.631
299.625
299.635
299.654
299.71
299.811
299.927
299.965
297.968
298.956
299.266
299.419
299.47
299.51
299.524
299.532
299.555
299.613
299.712
299.829
299.978
300.094
298.199
298.882
299.151
299.284
299.345
299.394
299.421
299.446
299.482
299.548
299.66
299.792
299.968
300.121
298.387
298.807
299.017
299.143
299.215
299.277
299.319
299.357
299.4
299.463
299.56
299.689
299.866
300.036
298.491
298.75
298.906
299.021
299.094
299.158
299.204
299.248
299.295
299.356
299.439
299.556
299.713
299.893
298.494
298.685
298.784
298.901
298.974
299.032
299.074
299.116
299.161
299.219
299.294
299.398
299.538
299.718
298.452
298.583
298.694
298.783
298.845
298.89
298.923
298.963
299.01
299.07
299.146
299.239
299.362
299.522
298.335
298.461
298.573
298.653
298.701
298.731
298.755
298.793
298.845
298.914
298.996
299.085
299.193
299.329
298.108
298.27
298.402
298.484
298.529
298.55
298.573
298.618
298.687
298.777
298.871
298.946
299.031
299.058
297.769
298.031
298.186
298.286
298.348
298.363
298.39
298.445
298.535
298.647
298.751
298.809
298.834
298.76
297.178
297.56
297.816
297.998
298.12
298.164
298.218
298.294
298.409
298.535
298.623
298.653
298.624
298.384
296.376
296.829
297.215
297.534
297.797
297.958
298.077
298.188
298.317
298.445
298.527
298.531
298.441
298.045
294.969
295.263
295.806
296.501
297.13
297.611
297.924
298.118
298.274
298.389
298.459
298.42
298.298
297.847
299.244
300.08
300.303
300.514
300.581
300.615
300.604
300.591
300.597
300.628
300.643
300.694
300.745
300.856
299.342
300.028
300.255
300.405
300.46
300.494
300.498
300.499
300.513
300.563
300.644
300.771
300.918
301.068
299.393
299.909
300.13
300.256
300.323
300.373
300.395
300.415
300.441
300.503
300.615
300.76
300.936
301.094
299.462
299.796
299.988
300.116
300.195
300.258
300.298
300.335
300.381
300.446
300.558
300.704
300.898
301.07
299.488
299.705
299.868
299.993
300.077
300.149
300.201
300.25
300.305
300.376
300.477
300.609
300.79
300.972
299.507
299.656
299.782
299.893
299.972
300.041
300.096
300.151
300.211
300.284
300.377
300.496
300.653
300.826
299.478
299.606
299.699
299.798
299.869
299.93
299.981
300.034
300.095
300.167
300.255
300.361
300.498
300.661
299.415
299.516
299.621
299.699
299.756
299.805
299.85
299.905
299.968
300.043
300.129
300.225
300.345
300.499
299.322
299.425
299.521
299.584
299.628
299.666
299.706
299.764
299.833
299.914
300.001
300.094
300.204
300.359
299.185
299.298
299.394
299.448
299.481
299.508
299.551
299.619
299.704
299.803
299.903
299.993
300.1
300.221
299.003
299.151
299.249
299.304
299.323
299.349
299.393
299.477
299.583
299.705
299.825
299.926
300.014
300.074
298.694
298.912
299.049
299.125
299.155
299.191
299.248
299.355
299.487
299.634
299.76
299.85
299.915
299.892
298.332
298.572
298.744
298.878
298.967
299.054
299.146
299.273
299.428
299.594
299.734
299.81
299.844
299.748
297.317
297.57
297.949
298.353
298.667
298.916
299.087
299.246
299.409
299.578
299.717
299.768
299.768
299.632
301.358
301.359
301.394
301.443
301.529
301.594
301.754
301.274
301.29
301.341
301.425
301.558
301.704
301.888
301.191
301.225
301.287
301.389
301.535
301.711
301.886
301.11
301.165
301.236
301.343
301.486
301.678
301.861
301.028
301.094
301.174
301.282
301.417
301.596
301.782
300.939
301.012
301.098
301.204
301.332
301.491
301.662
300.844
300.919
301.007
301.109
301.226
301.367
301.519
300.742
300.82
300.91
301.009
301.114
301.238
301.376
300.222
300.299
300.371
300.419
300.461
300.507
300.562
300.637
300.72
300.812
300.907
301.002
301.109
301.239
300.148
300.221
300.28
300.315
300.348
300.387
300.448
300.533
300.627
300.728
300.827
300.922
301.015
301.155
300.042
300.121
300.172
300.205
300.224
300.262
300.333
300.433
300.544
300.659
300.772
300.875
300.978
301.077
299.87
299.993
300.049
300.08
300.092
300.141
300.226
300.351
300.484
300.621
300.744
300.846
300.95
301.032
299.713
299.831
299.888
299.928
299.97
300.044
300.155
300.298
300.455
300.618
300.766
300.878
300.968
300.989
299.044
299.291
299.514
299.692
299.845
299.98
300.125
300.281
300.451
300.639
300.807
300.909
300.972
300.961
293.501
295.064
296.853
298.876
300.955
302.435
292.904
294.21
296.013
298.139
300.352
301.794
293.429
294.435
295.789
297.338
299.026
299.951
293.732
294.384
295.126
295.816
296.605
296.687
293.617
293.487
293.126
292.76
292.781
292.515
293.105
292.088
290.786
289.622
288.918
288.02
292.002
290.08
288.055
286.487
285.472
284.528
290.632
288.199
286.097
284.641
283.843
282.856
289.567
287.108
285.28
284.125
283.592
282.451
288.989
286.672
285.296
284.799
285.055
284.423
288.878
287.02
286.357
286.682
287.837
288.098
289.341
288.071
288.003
288.908
291.207
292.871
290.806
290.149
290.68
292.154
294.798
297.096
291.299
291.803
293.247
295.118
297.729
299.975
292.985
294.28
295.656
297.082
298.816
300.351
293.199
294.094
295.55
297.205
299.061
300.529
294.305
295.004
295.995
297.221
298.671
299.553
294.945
295.333
295.814
296.162
296.613
296.521
295.055
294.874
294.446
293.7
293.094
292.275
294.605
293.563
291.992
290.191
288.737
287.356
293.437
291.297
288.659
286.238
284.551
283.134
291.842
288.767
285.694
283.38
281.895
280.712
290.247
286.918
284.157
282.276
281.14
280.153
289.262
286.244
284.027
282.741
282.31
281.97
288.903
286.381
284.914
284.403
284.886
285.502
289.087
287.182
286.515
286.506
287.746
289.253
290.172
289.031
289.024
289.644
291.542
293.627
290.418
290.541
291.32
292.81
294.997
297.102
292.967
293.606
294.373
295.228
296.377
297.863
294.159
294.615
295.51
296.795
298.198
299.55
295.616
295.978
296.7
297.653
298.754
299.878
296.383
296.661
297.151
297.687
298.207
298.534
296.705
296.767
296.748
296.411
295.914
295.305
296.488
296.081
295.125
293.588
291.99
290.489
295.825
294.495
292.365
289.777
287.424
285.521
294.743
292.411
289.285
286.116
283.578
281.836
293.461
290.407
286.891
283.816
281.654
280.293
292.277
289.139
285.961
283.358
281.751
280.952
291.651
288.785
286.157
284.204
283.42
283.301
291.526
288.932
287.004
285.735
285.597
286.065
292.002
290.023
288.899
288.331
288.859
289.844
291.904
290.981
290.902
291.224
292.36
293.764
293.661
293.351
293.363
293.364
293.899
294.955
295.17
294.926
295.2
295.792
296.712
297.984
296.7
296.706
297.139
297.812
298.688
299.635
297.545
297.709
298.145
298.694
299.434
300.012
297.89
298.108
298.462
298.734
298.919
298.736
297.894
297.96
297.949
297.551
296.749
295.469
297.661
297.342
296.51
295.006
292.948
290.601
297.183
296.204
294.339
291.618
288.475
285.676
296.482
294.721
291.84
288.169
284.727
282.236
295.562
293.233
289.871
286.094
283.079
281.207
294.841
292.325
289.065
285.678
283.275
282.124
294.474
291.95
289.027
286.158
284.522
283.961
294.487
292.178
289.919
287.959
287.16
287.095
294.254
292.475
291.305
290.382
290.35
290.811
295.182
294.16
293.534
293.045
293.008
293.43
296.641
295.925
295.579
295.471
295.856
296.736
297.919
297.616
297.609
297.826
298.478
299.381
298.657
298.64
298.892
299.332
300.025
300.715
298.982
299.177
299.558
300.008
300.543
300.798
299.067
299.293
299.632
299.862
299.898
299.465
299.015
299.133
299.166
298.788
297.79
296.114
298.85
298.69
298.083
296.648
294.377
291.494
298.584
297.975
296.483
293.888
290.403
286.788
298.094
296.928
294.686
291.241
287.262
284.003
297.627
296.049
293.377
289.725
286.098
283.568
297.302
295.539
292.8
289.294
286.314
284.562
297.188
295.454
293.025
290.058
288.056
287.169
297.086
295.471
293.701
291.713
290.644
290.266
297.224
296.056
294.827
293.641
293.114
293.066
298.32
297.451
296.668
296.01
295.864
296.249
299.125
298.686
298.385
298.195
298.466
299.177
299.629
299.542
299.616
299.828
300.388
301.127
299.868
300.017
300.334
300.783
301.4
301.892
299.946
300.181
300.586
301.078
301.535
301.647
299.934
300.177
300.541
300.802
300.803
300.187
299.901
300.067
300.178
299.905
298.942
297.012
299.807
299.778
299.473
298.352
296.095
292.862
299.653
299.304
298.37
296.308
293
289.056
299.437
298.749
297.277
294.61
290.917
287.278
299.248
298.343
296.572
293.718
290.195
287.16
299.204
298.254
296.46
293.795
290.776
288.609
299.28
298.268
296.727
294.516
292.498
291.334
299.097
298.165
296.917
295.264
294.173
293.716
299.864
299.198
298.36
297.291
296.698
296.563
300.337
299.986
299.574
299.121
299.008
299.317
300.62
300.534
300.509
300.51
300.811
301.397
300.738
300.859
301.083
301.417
301.98
302.54
300.79
300.995
301.344
301.81
302.387
302.764
300.783
301.006
301.378
301.839
302.266
302.366
300.767
301.002
301.314
301.545
301.53
300.886
300.753
300.907
301.022
300.896
300.102
298.208
300.723
300.722
300.554
299.827
298.031
294.981
300.673
300.486
299.942
298.6
296.105
292.616
300.654
300.284
299.445
297.723
295.008
291.745
300.651
300.231
299.28
297.488
294.953
292.23