/*--------------------------------*- C++ -*----------------------------------*\
| =========                 |                                                 |
| \\      /  F ield         | OpenFOAM: The Open Source CFD Toolbox           |
|  \\    /   O peration     | Version:  v2106                                 |
|   \\  /    A nd           | Website:  www.openfoam.com                      |
|    \\/     M anipulation  |                                                 |
\*---------------------------------------------------------------------------*/
FoamFile
{
    version     2.0;
    format      ascii;
    arch        "LSB;label=32;scalar=64";
    class       volScalarField;
    location    "0.000206";
    object      epsilon;
}
// * * * * * * * * * * * * * * * * * * * * * * * * * * * * * * * * * * * * * //

dimensions      [0 2 -3 0 0 0 0];

internalField   nonuniform List<scalar> 
144746
(
123826
85500
65533
56545.6
60677.4
75932.3
99952.7
126486
147696
159719
163200
173143
194476
216540
92117.9
58720.6
40192.3
29583.5
27080.4
30895.2
41289.3
57076.2
74827.6
89596.8
102583
114712
129645
161661
70005.7
43587.9
27571.1
17771.4
13953.6
13764.7
17512.3
25208.4
35996.7
47855.2
59020.6
72886.4
84128.8
118873
55254.1
32354.8
19338.4
11657.5
8030.36
6853.24
7938.11
11560.3
17694.4
25445.8
33197.3
39578.3
49649.4
81575.1
41919
23710
13234.3
7469.62
4677.94
3573.15
3770.89
5471.77
8940.94
13906.4
19424.4
24517.3
31406.7
57006.7
30487.4
16089.6
8307.74
4376.73
2548.93
1808.89
1803.25
2649.59
4660.6
7883.18
11869.1
16133.7
21992.3
42560.7
20629.3
9828.86
4638.14
2275.84
1252.02
855.317
855.118
1337.66
2572.53
4741.28
7715.12
11383.8
17256.7
40294.2
13030.8
5486.4
2330.76
1057.95
555.658
382.253
422.469
756.053
1596.72
3156.59
5497.6
8813.47
15531.5
43985.6
8275.33
3080.66
1163.04
482.49
245.569
185.289
255.103
531.684
1186.72
2429.04
4454.95
7884.98
16810.5
51828.7
6439.64
2273.41
799.826
316.596
167.878
148.137
233.609
496.553
1089.96
2240.31
4329.62
8724.24
21874.2
61180.1
7510.42
2973.39
1133.02
480.796
279.543
249.415
343.342
628.807
1270.49
2577.38
5272.97
12098.4
30645
69671.2
12968.2
6685.18
3228.16
1475.35
789.405
607.791
689.098
1044.74
1866.38
3632.5
7698.59
18614.1
42403.2
80535.9
24207.2
15429.7
9340.23
5045.54
2662.19
1709
1574.41
2003.49
3125.93
5593.72
11320.9
25621.6
52472.9
91657.5
41130.6
29405.6
20951.3
13916.1
8583.66
5397.61
4113.69
4228.89
5605.68
8894.82
15982
32600.2
61565.8
99049.8
126620
80168.6
57179.8
45256
43177.2
47210.2
56219.7
66549.3
75572.3
82996
97293.6
128247
181036
235811
78643.1
48021.5
32283
23805
20880.5
21598.2
25834.4
32422.6
40128
47745.2
56539.4
73230.6
104242
148706
47392.1
29224.9
19513
13621.9
10921.3
10422.4
12105.3
15777.2
21085.2
27306.1
34483.5
44286.2
60663.7
92537.9
30623.3
19287.1
12414.4
8206.58
6039.24
5271.26
5807.83
7714.86
11055.5
15567.9
20896.8
27094.2
35115
56872.9
21482.3
13097.6
7968.97
4941.26
3358.96
2701.17
2807.36
3767.79
5791.08
8878.53
12772.5
17301.8
22908.1
37661.9
15492.1
8703.39
4898.03
2821.95
1782.13
1339.21
1333.05
1829.85
3048.86
5115.86
7941.13
11434.8
16059.9
26577.1
10949.2
5472.99
2781.39
1474.19
869.56
621.991
614.296
897.664
1656.39
3058.86
5136.86
7943.81
12056.6
21866
7576.75
3285.72
1465.13
700.972
385.864
269.863
284.394
475.737
988.351
1992.3
3600.76
5979.48
9946.48
20593.1
5533.02
2072.35
787.706
326.938
164.829
118.692
151.461
307.563
703.136
1497.95
2862.04
5102.79
9424.11
21862.9
4971.47
1710.05
573.995
206.77
96.0467
76.2809
119.618
268.612
627.242
1357.99
2700.02
5175.77
10586.7
25198.3
5942.14
2151.91
750.406
279.604
138.611
114.227
163.926
328.164
716.82
1525.69
3111.19
6354.56
13500.8
30065.6
9648.92
4175.02
1765.49
745.098
377.931
285.154
333.664
542.292
1038.49
2087.94
4249.64
8911.8
18442.5
38373.3
17354.6
8975.56
4679.8
2334.28
1205.96
802.295
786.088
1061.46
1743.11
3175.74
6174.6
12753.7
26829.1
52651.4
30114.4
17322.1
10522.1
6291.21
3666.2
2342.92
1955.02
2221.26
3137.11
5067.79
9033.12
18067.9
39367.4
72306.1
115039
71238.6
48654.4
36163.5
31181.4
30073.9
32175.6
35836.6
40908.1
45706
50890.1
62200.2
107103
192983
56574.5
36350.7
24495.9
17826.9
14917.8
14175.4
15232.4
17459
20790.1
24522
29261
37250.1
59121.1
105463
28253.1
18419.7
12481.8
8980.65
7290.58
6751.3
7206.26
8474.51
10610.6
13428.1
17256.9
23138
35312.6
59666.4
16704
10131.4
6662.51
4667.41
3645.76
3253.88
3406.29
4083.4
5419.11
7431.19
10302
14532.8
21783.5
35155
11079.2
6071.95
3723.54
2473.09
1832.1
1560.18
1588.3
1936.36
2751.12
4140.66
6219.01
9265.11
14066.7
22851.4
7839.47
3828.79
2112.74
1292.53
894.853
723.561
717.821
898.987
1390.37
2325.05
3819.33
6070.7
9559.11
16033.6
5793.82
2490.44
1191.65
647.878
411.809
315.937
310.969
414.303
718.686
1350.03
2437.21
4165.13
6937.92
12160.3
4688.44
1754.58
697.825
318.129
178.348
129.321
132.35
202.388
408.181
858.921
1689.39
3093.39
5475.46
10102.6
4224.24
1409.16
466.234
168.769
77.5258
52.8132
62.4884
120.7
282.328
643.069
1340.06
2586.44
4824.65
9312.37
4461.08
1410.66
420.437
126.857
46.6496
30.0996
43.8224
101.33
252.604
589.57
1257.59
2499.53
4816.38
9527.17
5285.73
1708.01
525.564
164.457
63.0365
42.0593
58.199
123.741
291.301
661.871
1403.06
2798.16
5403.18
10668.8
7605.56
2695.77
959.014
357.678
160.215
108.529
123.714
209.307
424.986
892.968
1818.55
3542.09
6685.48
13119.7
11848.6
4761.03
2043.64
925.289
467.395
312.539
309.684
429.127
729.714
1362.72
2602.08
4931.64
9370.73
17952.3
19331.5
8479.59
4196.63
2234.21
1270.41
859.947
782.043
943.525
1379.75
2273.31
4007.26
7542.54
15681.1
31828.3
252460
304854
333625
374855
638216
2.62603e+06
210235
284344
325837
340587
514364
2.09603e+06
182002
283816
337281
328067
435313
1.7715e+06
158198
292856
356590
320650
386024
1.57398e+06
141423
302774
367985
313036
350361
1.46515e+06
131982
306946
361646
302808
328643
1.41856e+06
132970
291682
336262
292019
322208
1.42045e+06
136952
261416
300912
285823
336224
1.46118e+06
131747
220564
266663
281590
354341
1.54789e+06
120006
182245
235825
277099
372806
1.6695e+06
109396
155423
212005
271459
395042
1.83854e+06
107053
144172
197310
264477
419028
2.07647e+06
109722
142340
191367
259580
440711
2.34515e+06
113015
145984
193076
263205
481992
2.74362e+06
293091
370424
406953
416432
556322
2.10986e+06
197577
283161
358698
383422
466881
1.68636e+06
142066
237178
343066
378189
414800
1.41962e+06
102448
205643
339460
380832
384710
1.24798e+06
78401
185224
337093
382367
367155
1.14473e+06
63249.1
173117
330173
376539
363563
1.08917e+06
57507.6
162894
311997
359106
364541
1.08586e+06
57376.9
153333
282626
340160
376267
1.13617e+06
57558.4
137303
247988
325032
396105
1.23067e+06
56837.4
118418
215889
313347
420893
1.35672e+06
56661.5
104484
192306
302916
445780
1.51076e+06
61612.8
102907
182054
292836
467760
1.69474e+06
74145.3
113520
184465
285313
480868
1.89645e+06
88491.7
130390
194475
279608
487338
2.18059e+06
302304
429718
509856
502102
559788
1.49855e+06
170917
265713
364415
421840
491232
1.20702e+06
101347
178310
282740
374836
449874
1.02136e+06
61439.2
125001
230017
347958
435047
893536
42097.1
93516.9
196655
328373
427787
814710
30651.4
74678.1
178827
317240
419619
779433
24361.8
63303.3
169805
306920
407841
792427
21333.3
58480.2
160892
290977
411674
855032
20439
56159.9
147677
275584
431587
955649
20601
52274.2
131191
263650
460800
1.07336e+06
21220.2
47884.4
117578
254950
486738
1.19202e+06
23296.8
47422.5
113016
249904
501873
1.30886e+06
30703.3
56451.9
120733
250009
513226
1.43499e+06
42087.1
73740.2
139504
254317
514910
1.57383e+06
110595
147797
200222
284965
569595
2.89341e+06
69052.5
100620
153157
229230
436991
2.19428e+06
41061.1
68709.4
123582
197931
353111
1.74254e+06
23965.3
48141.7
104886
179630
303906
1.4438e+06
16481.7
38748.9
94401.2
167224
275105
1.25408e+06
13007.2
36753.2
92202.9
158425
251237
1.15279e+06
12461.8
38343.9
92357.8
151615
241008
1.12461e+06
14193.7
41607.6
91500.3
144818
243070
1.18275e+06
17711.7
44079.5
86932.8
137525
258874
1.31665e+06
22293.5
44877.1
80100.8
132515
293663
1.51517e+06
27055.7
45039.5
74846.5
133956
346464
1.77627e+06
32068.4
47278.5
76557.5
147911
413292
2.09674e+06
38542
55032
91251.2
182370
511766
2.5046e+06
48065.3
72336.1
125569
249055
675783
3.06777e+06
96751.8
140951
197804
278643
492566
2.22691e+06
51112.9
81444.3
132381
211903
380799
1.65272e+06
25738.3
46540.8
90527.2
168697
320328
1.27792e+06
14444.4
27519.4
64643.8
139803
279859
1.02543e+06
9387.14
20374.6
52057.8
118913
246082
861522
6794.71
17126.3
46998.2
107572
224867
772602
5769.31
16384.4
45590.8
100609
212638
750373
5962.3
17291.1
45728.9
96385.3
211803
793872
7271.25
18917
45366.7
93965.4
229385
904905
9575.62
20632.5
44264.2
95610.3
269944
1.08144e+06
12666.4
22711
45139.5
106434
331796
1.31622e+06
16798.4
26933.5
52719.9
132842
413451
1.61172e+06
23366.3
37164.7
74266.1
182452
525663
1.98357e+06
35102.3
59705.8
119343
265595
675749
2.47376e+06
52471.7
91735.5
152968
258827
515569
1.47222e+06
26319.3
48427.7
90921.8
174763
371053
1.05011e+06
12293.8
25248.8
54912.2
122284
281467
777959
7094.37
14023.2
33861.2
87645
218463
601166
4516.91
9714.24
24344.8
66364.7
175750
487532
3114.59
7349.48
19527.5
54789.8
148203
425272
2411.25
6160.96
17182.8
48650.3
134723
410158
2189.87
5785.12
16419.7
46217
135280
445358
2402.97
6029
16661.3
47970.6
156290
541529
3082.11
6812.7
17969.9
56717.9
202984
709790
4302.63
8384.26
22024.5
77687.8
277187
948792
6375.07
11815.3
32415.3
116819
377062
1.24783e+06
10563
20587.5
56237.4
178815
494741
1.60106e+06
20818.1
43081.1
105005
268834
625891
2.01196e+06
2.91804e+06
769815
399524
272040
187900
137631
2.45125e+06
657381
326130
211500
142435
106650
2.13457e+06
571111
280850
173306
112629
83185.5
1.90948e+06
507503
254821
156205
98937.5
69877.7
1.70249e+06
450817
244903
154717
94597.8
60510
1.55269e+06
421422
245188
157549
90225.4
51078.2
1.46587e+06
426752
248636
155369
82034.8
40381.9
1.45713e+06
459013
248754
142805
68119.3
29456.4
1.52146e+06
502574
245533
124469
53758.4
21085.8
1.64435e+06
558698
241952
109969
44784.5
17100
1.83746e+06
621958
249437
108211
44629.1
18117.5
2.12241e+06
688081
266638
119990
54437.1
25490
2.54071e+06
756394
297137
143480
73308.3
39783
3.18977e+06
890830
350874
181682
102952
62265.4
2.42514e+06
874403
481833
324221
210021
140005
2.03322e+06
761076
407070
246479
143791
92353.3
1.75217e+06
675149
354531
191514
100413
60315.3
1.54821e+06
618037
315292
160580
78303
43000.5
1.39459e+06
570096
284184
140982
65984.6
33943.3
1.28535e+06
534524
259164
128331
58441.5
27705
1.22271e+06
517477
241725
116019
50811.1
22191.9
1.21835e+06
522332
231093
104337
43430.3
17464.3
1.26939e+06
547007
228199
96526.1
38168.4
14311.9
1.37437e+06
589540
235104
95644.9
37133.1
13612.4
1.53745e+06
642217
253388
103572
41074
15662.3
1.76984e+06
698690
282508
122517
52806.5
22429.1
2.09385e+06
767343
319984
149583
71567.9
34851.9
2.57846e+06
882172
381271
191869
101472
55379.9
1.95936e+06
870298
573066
370487
218472
121225
1.67887e+06
790682
499620
276097
137420
67780.2
1.46475e+06
726528
442743
210178
92742.2
43195.9
1.30674e+06
680238
384249
171863
72187.6
31207.2
1.1841e+06
633657
329152
142002
57350.5
23299.2
1.08701e+06
586182
280847
117574
46284.3
17893.8
1.02349e+06
543179
243678
99464.8
38373
14266.7
1.00456e+06
519171
223740
90261.5
34500.2
12451.4
1.03514e+06
519685
220615
89086.6
33866.1
11960
1.11789e+06
545318
233503
95828.7
36819.3
13035.5
1.25014e+06
587916
257177
108006
42292.7
15394.8
1.43386e+06
625910
290764
128689
53442
20960.7
1.68418e+06
689253
330557
153903
68907.3
30024.7
2.04628e+06
787174
390152
192591
94088.1
45713.5
2.49999e+06
520127
338832
307286
274332
232827
2.10674e+06
447375
313879
282880
245899
211675
1.84427e+06
400614
294650
263858
224257
191155
1.67426e+06
369347
281457
254867
217172
186353
1.57021e+06
350945
273781
259457
232896
198917
1.5153e+06
339374
273224
280860
270735
220872
1.49586e+06
335145
285503
321922
315246
229685
1.49807e+06
350909
317414
369801
337481
211032
1.52536e+06
382114
360667
397999
319144
174143
1.60374e+06
426009
394006
382218
268966
137606
1.75894e+06
508461
409876
340352
220589
115576
2.01139e+06
631798
415175
307367
198484
114883
2.39654e+06
726163
441848
312076
207563
132653
3.00612e+06
887163
494897
349540
247805
173597
2.01017e+06
499813
417037
405820
342577
264845
1.68933e+06
465025
414017
376592
289643
218796
1.47903e+06
439045
403431
345874
241026
167654
1.34491e+06
418802
393637
328856
216642
143909
1.26615e+06
401821
387209
331312
222181
134313
1.2288e+06
389933
387591
353495
236787
134338
1.21979e+06
387202
400779
379672
246859
130577
1.22965e+06
403348
425349
391005
239978
118725
1.25443e+06
444014
446629
375800
216465
102926
1.32899e+06
511651
444381
337173
188782
91526.3
1.47427e+06
599684
439788
303934
172089
88994.6
1.68477e+06
709151
447174
298628
180048
102505
1.98876e+06
811765
485020
328245
212433
132621
2.45812e+06
982460
563669
400936
284176
192864
1.4997e+06
561647
557392
522217
366589
227855
1.31011e+06
566921
569836
446768
264374
153097
1.18136e+06
563646
565232
396947
204309
100682
1.1028e+06
563477
563394
374273
177066
89411
1.06053e+06
565786
559166
357676
177199
86474.5
1.04008e+06
567911
541882
346619
173968
81312.6
1.02785e+06
565765
515983
327228
161981
73705.2
1.02763e+06
569898
488216
301313
148182
67489.1
1.05641e+06
589156
457193
275735
137121
63490.4
1.12277e+06
622914
436775
262643
135578
65200.3
1.22499e+06
678242
442498
266938
144783
73225.8
1.37314e+06
742763
476117
299132
174233
94742.9
1.58618e+06
814682
536494
356603
224100
133005
1.92477e+06
965061
641319
458698
316027
203067
72839.9
45751
30034.7
21790.6
18359.3
17008.8
17130.4
18161.8
20569.7
24102.3
28354.2
32368.2
37508.1
59116.5
31788.8
19424.4
12637.1
9129.95
7715.95
7272.21
7463.68
8048.98
9242.35
11054.7
13479.5
16244.8
20429.5
33782.7
16195.6
8476.15
5227.36
3753.11
3198.32
3066.95
3202.26
3515.15
4110.73
5050.34
6426.69
8274.07
11440.3
19765.6
9629.35
4107.88
2242.06
1552.59
1321.57
1282.68
1355.49
1509.79
1801.89
2296.5
3105.64
4370.4
6710.23
12194.2
6159.43
2226.85
1029.03
654.556
544.44
529.494
563.127
635.438
780.11
1053.14
1557.9
2460.83
4207.74
8009.91
4223.13
1357.06
519.422
283.515
221.435
212.843
227.195
261.48
337.787
501.625
841.484
1514.27
2856.66
5639.68
3160.84
938.408
298.905
129.395
88.4122
82.1313
88.3658
106.536
152.578
263.147
512.412
1037.8
2104.17
4256.97
2699.77
758.923
207.533
67.332
35.5391
30.3999
33.6737
45.7141
79.38
165.458
367.06
803.015
1692.32
3460.83
2554.55
693.324
172.813
44.0917
15.9867
11.4215
13.8937
24.301
54.4262
132.211
314.117
705.395
1497.08
3047.17
2735.76
730.168
175.344
39.7643
10.5309
5.82013
8.43624
19.5983
51.409
131.497
313.635
695.11
1451.99
2905.21
3057.78
807.119
194.771
45.5418
12.6754
7.18464
10.4814
24.1221
61.4452
151.72
349.617
750.638
1525.56
2978.34
4039.37
1077.59
273.098
73.7764
27.4168
18.6019
22.8288
41.2512
88.9498
198.272
427.642
875.592
1712.47
3239.38
5585.8
1544.61
437.622
149.356
74.5689
57.1284
62.1688
89.3237
155.432
297.314
580.704
1113.85
2073.38
3772.55
8874.86
2623.99
860.773
359.912
212.03
171.309
176.769
222.607
327.827
537.801
933.496
1651.49
2918.51
5054.68
37039.2
23274.7
15945.7
12139.1
10756.7
10450.9
10972.4
12019
13805.9
16310.7
19455.2
22952
26958.4
36145.9
16640.9
9609.5
6338.91
4789.94
4274.12
4239.63
4549.12
5107.4
6006.44
7294.45
9032.2
11165.9
14002.1
19980.7
8953.33
4241.16
2552.14
1886.29
1688.96
1703.44
1859.38
2131.86
2567.53
3218.96
4163.93
5455.74
7416.34
11460.5
5472.82
2103.34
1084.49
756.375
670.308
681.798
751.948
875.327
1078.32
1404.35
1924.26
2731.64
4108.21
6949.42
3570.14
1167.96
497.096
310.421
266.144
270.451
299.971
353.557
447.309
614.199
914.615
1448.88
2451.25
4524.63
2487.23
727.524
252.776
131.612
104.718
104.994
116.961
140.325
185.66
277.712
466.531
844.891
1605.29
3182.7
1863.42
508.473
147.724
59.6315
40.7285
39.3752
44.2391
55.3127
80.214
138.189
270.549
558.281
1160.67
2408.33
1526.17
400.898
102.677
31.2573
16.1424
14.2716
16.4694
22.9326
39.8843
83.3986
188.647
426.038
930.378
1965.94
1355.32
350.597
84.325
20.7843
7.31632
5.31045
6.66438
11.8087
26.6039
65.841
161.407
376.465
829.645
1743.9
1331.23
344.884
81.7893
18.4694
4.87902
2.74002
4.05244
9.51394
25.3815
66.6844
164.503
378.392
818.272
1683.82
1359.11
354.635
86.4774
20.6672
5.96412
3.5519
5.27521
12.1938
31.5194
79.7328
189.296
420.087
880.234
1759.93
1608.48
426.171
111.231
32.0568
13.0769
9.57767
12.1138
22.0409
47.9573
108.773
240.191
505.647
1016.08
1962.27
1998.82
554.578
168.655
65.4601
36.9173
30.3043
34.1189
49.8677
87.7881
170.096
337.561
660.983
1258.32
2330.6
2927.85
893.306
330.514
162.9
108.37
93.0214
99.1464
127.47
190.083
313.783
546.393
971.869
1720.63
3002.42
13888.1
9097.7
6768.61
5673.23
5516.34
5869.63
6676.92
7806.5
9271.21
11055.4
13217.8
15887.1
19266.2
25413.8
6527.46
3829.28
2714.79
2228.58
2147.6
2301.91
2663.08
3204.45
3941.55
4890.71
6113.65
7705.88
9900.59
13778.5
3609.97
1752.1
1124.49
888.06
840.974
900.145
1049.05
1287
1631.87
2109.81
2773.83
3708.95
5127.1
7669.96
2268.83
894.616
487.913
358.479
330.188
350.826
408.995
507.303
659.987
891.974
1247.94
1805.38
2740.34
4480.89
1561.73
513.66
225.597
145.969
128.546
135.087
157.209
196.506
262.574
375.188
571.314
919.12
1562.56
2818.95
1141.56
328.127
114.104
60.4327
49.0955
50.7183
59.0494
74.8293
104.316
162.14
278.158
510.66
978.377
1931.43
867.161
229.202
65.2885
26.3817
18.3851
18.3506
21.5315
28.3302
43.0588
76.6829
153.298
322.259
682.769
1437.56
687.063
174.471
43.6355
13.1946
6.9708
6.41272
7.74345
11.2979
20.4388
44.0334
102.315
237.807
535.455
1163.76
571.684
144.569
34.2685
8.39496
3.01868
2.31213
3.05904
5.66016
13.2053
33.7489
85.6232
207.222
474.284
1032.32
513.664
133.544
31.9197
7.27785
1.98925
1.219
1.91508
4.62857
12.6784
34.3469
87.8087
210.035
472.429
1007.87
485.836
132.611
33.7028
8.41733
2.66001
1.80308
2.77279
6.36164
16.5268
42.6728
104.46
240.261
522.136
1079.44
512.243
150.699
43.6286
14.0455
6.53233
5.32106
6.97625
12.5911
27.146
61.9995
139.822
303.027
628.448
1249.11
582.013
193.908
70.5049
31.7248
19.8262
17.45
20.5462
30.5192
53.7099
104.282
209.481
418.865
818.389
1552.8
766.23
307.164
144.368
82.8937
59.8039
54.2324
60.6232
80.5126
121.881
202.545
355.58
640.827
1157.24
2068.04
5829.36
4046.59
3151.42
2790.59
2869.5
3293.76
4049.16
5054.36
6283.73
7699.89
9347.8
11426
14158.3
18635.8
2789.75
1767.06
1311.82
1111.41
1100.23
1242.11
1538.78
1980.96
2574.42
3322.57
4266.67
5515.83
7252.62
10109.1
1554.09
823.149
558.605
449.085
426.661
469.728
578.726
758.341
1022.55
1389.36
1895.92
2620.05
3711.58
5559.23
994.552
418.741
243.084
181.205
165.087
177.152
215.641
284.725
395.834
567.434
831.347
1248.43
1940.29
3172.14
700.205
236.128
109.475
72.2115
62.604
65.7355
79.1911
105.113
150.764
230.302
369.507
617.435
1071.46
1936.97
513.291
146.358
52.5898
28.6143
22.991
23.6524
28.4023
38.2345
57.504
96.0842
173.974
330.872
646.319
1286.62
380.591
98.0942
28.1665
11.7183
8.19267
8.17746
9.91315
13.915
22.9275
43.8913
92.2463
200.354
434.349
931.061
286.95
71.1182
17.6791
5.44902
2.93755
2.73752
3.44376
5.40136
10.5828
24.2813
58.9758
141.863
329.388
736.667
225.878
56.7656
13.4258
3.30611
1.21441
0.963429
1.35161
2.69456
6.70463
18.0056
47.6456
119.94
285.381
645.04
196.46
52.2361
12.6509
2.91014
0.828064
0.55559
0.921144
2.2954
6.48691
18.2138
48.4442
120.84
283.829
632.031
190.898
54.7828
14.3567
3.72036
1.31239
1.01879
1.57684
3.48921
8.96738
23.5168
59.3599
141.894
321.732
694.066
212.243
67.3696
20.5795
7.09234
3.69011
3.3165
4.44301
7.78264
16.2911
37.0168
84.8797
189.551
407.955
841.746
261.417
96.1555
37.3736
17.7972
11.8707
11.1888
13.7555
20.5651
35.7187
68.7179
138.858
283.01
568.721
1110.27
364.96
165.007
82.4062
48.8784
36.6307
35.0737
41.2689
56.5284
86.5203
144.12
254.425
464.193
855.697
1561.62
3379.2
2430.02
1885.45
1642.67
1659.67
1928.62
2456.54
3221.28
4221.45
5415.34
6813.76
8536.35
10761.7
14179.4
1658.42
1115.39
831.011
684.567
649.671
721.119
906.385
1214.77
1666.32
2269.58
3045.75
4069.84
5483.73
7703.55
909.902
523.467
363.871
284.362
255.437
270.448
331.913
448.703
638.454
921.041
1323.94
1904.47
2778.98
4211.53
555.617
255.691
157.058
115.14
98.6396
100.348
120.173
162.762
238.935
365.627
568.484
894.038
1434.23
2379.66
366.323
132.721
67.3733
44.909
36.7026
36.2415
42.6847
58.0853
88.3471
144.961
248.191
435.603
780.099
1433.12
250.463
74.2486
29.5819
16.9616
13.032
12.5734
14.7476
20.466
32.946
59.5335
115.176
229.577
461.915
935.844
174.074
45.2297
14.0689
6.40498
4.42327
4.16223
4.95328
7.25858
12.965
26.9087
60.0704
135.923
303.132
663.567
125.599
30.9535
7.97527
2.6692
1.48445
1.329
1.6642
2.77652
5.93358
14.6201
37.33
93.2218
223.298
513.314
99.1479
24.9664
5.93076
1.49981
0.57264
0.452744
0.649179
1.38864
3.70611
10.5072
29.0672
76.1655
188.182
440.709
91.6951
24.7248
5.94691
1.3628
0.407413
0.294636
0.493976
1.24085
3.59422
10.4589
28.9799
75.4522
184.949
429.119
99.0196
28.8074
7.4823
1.96645
0.778013
0.67752
1.02547
2.12943
5.30615
14.0109
36.3724
90.2909
213.307
479.333
121.58
38.8438
11.8385
4.23453
2.44332
2.38993
3.22433
5.40291
10.7934
24.0769
55.7104
127.641
284.024
606.826
162.271
59.8546
23.3009
11.4378
8.15974
8.22843
10.4407
15.5078
26.2593
49.523
99.7972
206.023
423.562
848.076
239.711
108.953
54.2048
32.5838
25.5417
25.9264
31.8268
44.3541
67.8004
112.183
197.544
362.493
678.054
1259.33
2556.08
1867.45
1415.91
1163.15
1080.21
1170.5
1457.12
1959.71
2704.57
3671.92
4851.24
6315.82
8211.24
11019.9
1242.77
874.075
645.964
506.276
440.867
447.668
534.755
720.149
1032.94
1494.5
2123.62
2970.75
4158.59
5986.36
640.71
402.593
284.764
214.205
177.231
170.325
195.274
261.058
385.566
591.689
906.774
1375.1
2095.5
3271
353.184
185.003
120.613
86.5617
68.6431
63.2154
70.1491
93.2119
141.581
230.941
384.938
642.628
1080.3
1854.24
206.254
86.5474
49.3373
33.1478
25.2386
22.519
24.5117
32.7547
51.7876
91.1109
168.014
314.199
590.472
1123.12
125.493
42.3357
19.8892
12.0623
8.75207
7.62233
8.27179
11.3873
19.3297
37.8115
78.8987
167.122
351.703
735.829
80.0385
22.7248
8.36074
4.26775
2.86745
2.44284
2.70663
4.01758
7.73244
17.4759
41.7907
99.5623
230.777
520.025
56.4996
14.6301
4.19618
1.60352
0.91289
0.75145
0.891317
1.5541
3.63021
9.6504
26.0261
67.7858
168.077
397.543
47.7468
12.303
3.01153
0.811885
0.328309
0.250292
0.352614
0.80139
2.29676
6.88065
19.8984
54.2244
138.822
335.568
50.0949
13.4563
3.18667
0.73499
0.23899
0.186821
0.308111
0.764652
2.25156
6.76704
19.4818
52.7648
134.359
322.91
61.0324
17.2569
4.35098
1.16907
0.53236
0.514641
0.761209
1.4813
3.54712
9.36101
24.8657
63.7798
156.088
363.022
81.4226
25.0602
7.47825
2.80472
1.81687
1.91486
2.59425
4.18235
7.97769
17.3816
40.3358
94.2292
215.46
473.892
115.12
41.0886
15.8262
8.09904
6.24768
6.69434
8.67966
12.7673
21.0669
38.8556
77.7398
161.766
338.71
693.018
177.486
78.9911
38.8658
23.9302
19.8253
21.2325
26.8516
37.6702
57.1228
93.4417
163.429
300.608
569.031
1073.7
2155.03
1595.11
1192.46
935.221
798.702
785.388
910.896
1206.49
1716.45
2457.82
3431.92
4682.77
6341.58
8765.05
1023.34
746.853
551.092
418.384
339.509
312.537
341.561
442.654
645.292
981.59
1480.6
2183.92
3201.73
4769.3
496.024
337.239
242.466
178.568
139.133
121.726
126.801
160.871
238.958
384.317
626.938
1008.55
1616.12
2623.24
247.567
148.078
101.219
71.9276
54.0892
45.5288
45.8647
57.5549
87.6767
149.988
266.948
475.254
843.288
1510.82
127.266
63.9797
40.1708
27.2282
19.7725
16.1515
15.9815
20.2372
32.3315
60.0915
118.805
237.447
471.221
935.373
67.8411
27.8662
15.3103
9.69075
6.76987
5.40088
5.34356
7.05766
12.3343
25.7886
57.7507
130.133
287.595
624.692
39.3509
13.1229
5.8536
3.28921
2.17404
1.70116
1.7302
2.52483
5.1328
12.4766
31.772
79.6317
192.095
446.379
27.5323
7.75762
2.57727
1.13593
0.667877
0.512249
0.56764
1.00863
2.52754
7.15844
20.2649
54.8904
140.6
341.315
25.3924
6.63151
1.6867
0.501377
0.223512
0.168005
0.230064
0.543567
1.64631
5.15911
15.4938
43.661
115.149
285.307
29.9296
7.78523
1.79267
0.423534
0.158478
0.137546
0.224376
0.548277
1.633
5.04064
14.982
41.9002
109.913
270.981
39.8866
10.6858
2.59628
0.732589
0.396924
0.422743
0.619948
1.15599
2.68844
7.09711
19.2195
50.6216
127.324
303.623
56.5748
16.4916
4.84481
1.96887
1.45001
1.62806
2.21916
3.49434
6.45861
13.8353
32.2171
76.5218
178.86
402.29
84.0041
28.8222
11.1417
6.10704
5.12838
5.77481
7.59707
11.0926
17.9618
32.5838
64.9196
136.255
290.085
604.805
135.838
59.1628
29.1709
18.7833
16.5417
18.5063
23.8444
33.4906
50.3352
81.4846
141.806
261.871
501.976
962.458
1905.45
1429.23
1066.5
817.298
661.047
596.556
630.589
790.604
1123.14
1671.78
2463.1
3534.46
5018.4
7199.17
880.36
661.088
489.773
366.729
285.634
244.388
243.91
295.308
423.401
664.099
1056.38
1645.14
2535.89
3929.21
405.015
292.252
212.897
155.559
117.306
96.3178
92.2447
108.998
158.068
260.739
448.116
763.795
1289.93
2185.43
186.625
124.07
87.4422
61.9975
45.3404
36.0282
33.6013
39.4153
58.7329
103.171
193.667
366.181
686.192
1287.04
86.2745
50.8313
33.914
23.1567
16.4204
12.7002
11.6971
13.961
22.0751
42.5134
88.9394
188.687
394.849
819.035
40.9571
20.4695
12.4761
8.09953
5.55814
4.20607
3.89197
4.91417
8.68383
19.0543
45.1746
107.398
248.495
560.3
21.7475
8.67782
4.48487
2.6749
1.75986
1.31039
1.25533
1.79329
3.78277
9.71026
25.9975
68.0198
170.155
407.271
15.0702
4.6383
1.76877
0.871169
0.528054
0.389928
0.41346
0.743307
1.96128
5.82448
17.1363
47.9608
126.389
314.122
14.8646
3.83515
1.01315
0.337215
0.167077
0.126914
0.172009
0.418749
1.32216
4.28914
13.2743
38.429
103.824
262.475
18.8637
4.5979
1.01744
0.253347
0.114025
0.110146
0.180373
0.439147
1.32633
4.19131
12.7879
36.6822
98.4628
247.485
26.5136
6.537
1.52262
0.472328
0.31258
0.361149
0.530331
0.969754
2.229
5.92686
16.3611
44.0851
113.351
275.513
39.3187
10.6391
3.11541
1.43291
1.20614
1.42554
1.95633
3.04601
5.53984
11.7983
27.7116
66.9611
159.632
365.755
61.4291
20.1192
7.95101
4.78965
4.37894
5.13146
6.81978
9.91566
15.8724
28.5473
56.9809
121.017
262.135
556.208
105.507
44.9288
22.452
15.3592
14.3783
16.6638
21.7317
30.5042
45.5127
73.1374
127.09
236.373
459.722
896.35
1716.06
1300.91
974.645
740.502
583.287
500.019
492.496
580.155
803.72
1215.53
1861.36
2786.25
4127.52
6130.44
771.077
590.123
439.723
328.176
251.15
206.639
194.575
221.751
307.775
486.436
801.027
1301.96
2093.54
3359.4
339.879
254.667
187.248
136.823
101.948
81.1351
74.0388
82.8492
116.354
192.919
342.653
610.177
1075.45
1891.26
147.45
104.894
75.22
53.5058
38.8024
30.021
26.8636
30.0583
43.679
77.4993
150.69
297.971
583.174
1138.04
63.0219
41.2983
28.4521
19.584
13.8143
10.432
9.26223
10.6326
16.615
32.6946
71.2031
157.912
344.536
742.412
27.3502
15.7481
10.1525
6.70389
4.59485
3.40214
3.04681
3.74321
6.66784
15.1527
37.4937
92.818
222.753
519.03
13.4177
6.17061
3.4866
2.1565
1.42863
1.04411
0.973934
1.37983
3.00018
8.03231
22.368
60.5416
156.089
383.796
9.07766
2.9882
1.2625
0.671191
0.419
0.306457
0.320696
0.587206
1.61686
4.98937
15.1613
43.6207
117.857
299.498
9.27828
2.31366
0.631114
0.23395
0.127333
0.0993352
0.136343
0.342604
1.12139
3.74958
11.9206
35.3502
97.6383
251.69
12.2936
2.74467
0.579914
0.157128
0.0864274
0.0914496
0.151189
0.369524
1.13537
3.67394
11.4914
33.7502
92.5681
237.072
17.915
3.99018
0.896146
0.321553
0.257822
0.315554
0.463904
0.839377
1.92541
5.18788
14.6331
40.3618
106.074
262.769
27.5879
6.85866
2.04798
1.09699
1.03645
1.2707
1.75074
2.70545
4.87879
10.4103
24.7968
61.1506
148.917
347.796
45.5281
14.2381
5.85911
3.91183
3.84266
4.63748
6.20137
8.98226
14.2696
25.586
51.4264
110.958
245.139
529.993
83.6653
34.912
17.8162
13.0095
12.8307
15.2732
20.0693
28.1211
41.7049
66.7144
116.122
218.214
431.606
856.927
163045
272951
423072
586364
715137
749748
98020.1
182641
314498
483961
658066
762279
66436.8
136558
256273
429471
637418
800455
49710
108108
217760
392051
625376
840027
42429.8
95189.7
199266
375587
628545
879935
38816.3
88581.8
191466
378081
655861
914179
38520.5
89240.2
198607
408986
719159
940141
40371.2
94852.8
218781
464953
800756
935520
45506.7
108137
252637
533547
856142
881730
52504.5
122955
283797
581771
850877
800641
59706.3
133576
301442
602754
809891
726125
64783.4
136773
308407
614115
765077
680354
70147
141865
328444
625662
724165
663142
98976.6
209313
418115
622611
650455
649214
90697.1
165153
280582
438559
623401
823761
53940.9
110228
208516
361101
565612
809334
38307.1
83719
171592
320201
539234
817950
29711.6
68539.5
148708
296160
531805
849229
26413.6
62942
141307
292763
549438
906271
25177.6
60801.4
139882
301276
588123
974415
25873.9
62859.5
147587
328122
655969
1.0429e+06
27713.3
67264.6
160811
368752
739675
1.0791e+06
31267
75596.5
182739
420827
812026
1.05355e+06
36110.8
85285.4
203629
459539
827829
969876
41606.6
93699.8
216946
472415
795988
882495
46936.6
98863.6
220784
468985
752330
819320
52362.6
102033
218874
462791
706564
770028
68621.7
128457
257751
475086
624706
693120
34431.7
68162.6
128653
228323
375842
570980
22246.3
48077.9
99948.6
195159
349731
569742
17065.1
39571.3
87789.5
182532
347227
593928
14536.6
35539.4
83102.8
182012
363914
648127
14171.1
35777.8
86218.5
193981
399046
730281
14815.5
37793.3
92302
211976
447352
830841
16415
41681
102089
237482
510257
941162
18529.7
46097.4
112187
263991
575725
1.02482e+06
21239.9
51470.7
124155
293095
634235
1.0526e+06
24436.8
56960
134621
313833
655033
999370
28066.8
62016.5
141622
321346
636976
907981
32301.2
66864.9
146144
319215
599151
815536
37359.4
71625.5
148206
309958
553794
731153
47843.2
85470.1
162366
303953
484561
623324
13988.2
27816.9
55135.6
107265
201486
359232
9676.48
21126
45977.4
98190
200214
378948
7834.09
18502.6
43148
97941.8
211753
419760
7224.46
18244.9
45117.2
107693
242605
493576
7615.6
20104.1
51375.3
125377
286505
587033
8718.68
23393.9
60280.6
147760
338441
688641
10447.1
27767
70866.6
172572
392344
788288
12487.5
32101.8
79864.7
192162
435336
861344
14787.4
36337.4
87700.9
208202
468587
900344
17226.3
39992.8
93037.6
216427
479194
876459
19869.7
43215.8
96339.3
218310
469431
808724
23108
46887.7
99667.1
217047
441253
715011
27236.3
51139.2
102454
211548
402899
619939
34427.6
59392.9
108747
201633
345802
507391
7600.33
14240.1
27363