/*--------------------------------*- C++ -*----------------------------------*\
| =========                 |                                                 |
| \\      /  F ield         | OpenFOAM: The Open Source CFD Toolbox           |
|  \\    /   O peration     | Version:  v2106                                 |
|   \\  /    A nd           | Website:  www.openfoam.com                      |
|    \\/     M anipulation  |                                                 |
\*---------------------------------------------------------------------------*/
FoamFile
{
    version     2.0;
    format      ascii;
    arch        "LSB;label=32;scalar=64";
    class       volScalarField;
    location    "0.000206";
    object      p;
}
// * * * * * * * * * * * * * * * * * * * * * * * * * * * * * * * * * * * * * //

dimensions      [1 -1 -2 0 0 0 0];

internalField   nonuniform List<scalar> 
144746
(
195310
195161
194745
194480
194171
193982
193753
193548
193337
193236
193240
193367
193356
194004
195207
195246
194983
194796
194537
194349
194162
193983
193812
193707
193675
193753
193780
194256
195515
195487
195260
195104
194898
194745
194607
194464
194319
194180
194082
194055
193966
194160
195713
195698
195532
195418
195270
195161
195061
194951
194818
194688
194552
194437
194309
194296
195975
195941
195809
195720
195609
195536
195462
195373
195258
195127
194983
194811
194643
194534
196234
196200
196105
196040
195960
195901
195833
195743
195631
195500
195355
195179
194976
194798
196532
196475
196411
196349
196294
196244
196172
196071
195944
195799
195651
195468
195254
195041
196843
196747
196711
196664
196628
196575
196491
196374
196231
196074
195911
195724
195500
195238
197118
197010
196993
196960
196930
196866
196761
196633
196483
196320
196141
195938
195701
195438
197337
197253
197249
197228
197194
197114
196997
196862
196721
196562
196381
196165
195913
195617
197567
197513
197483
197468
197417
197325
197199
197065
196933
196792
196619
196405
196166
195876
197805
197724
197703
197669
197611
197503
197379
197255
197143
197010
196854
196654
196431
196129
198053
197913
197888
197840
197768
197662
197541
197431
197338
197207
197058
196847
196621
196275
198162
197911
197965
197934
197865
197765
197665
197578
197505
197400
197300
197229
197218
197011
194757
195108
194951
194909
194846
194832
194779
194692
194585
194526
194484
194488
194408
194898
194977
195262
195225
195202
195164
195136
195099
195044
194994
194986
194985
195038
195029
195392
195335
195576
195477
195467
195451
195410
195381
195342
195324
195313
195296
195310
195282
195434
195644
195802
195735
195719
195700
195671
195659
195629
195601
195606
195611
195604
195595
195630
195937
196027
195988
195963
195938
195906
195883
195864
195865
195850
195871
195879
195879
195889
196228
196265
196234
196214
196189
196161
196147
196126
196104
196098
196109
196119
196134
196121
196480
196500
196483
196455
196429
196404
196386
196367
196351
196328
196330
196344
196319
196328
196721
196743
196724
196701
196674
196653
196630
196603
196577
196544
196516
196502
196500
196434
196919
196953
196943
196923
196897
196874
196847
196814
196783
196747
196711
196669
196629
196559
197105
197146
197157
197144
197118
197087
197053
197017
196981
196939
196902
196842
196798
196692
197290
197318
197337
197334
197308
197274
197236
197202
197168
197126
197105
197044
196993
196890
197456
197485
197503
197503
197490
197455
197416
197379
197345
197315
197311
197264
197208
197083
197615
197599
197632
197633
197621
197596
197570
197541
197519
197504
197489
197448
197415
197214
197648
197617
197728
197751
197757
197735
197734
197712
197708
197719
197735
197761
197834
197704
193433
194180
194296
194436
194528
194604
194629
194598
194534
194460
194410
194420
194393
194850
194210
194725
194962
195129
195205
195243
195249
195242
195220
195185
195233
195322
195416
195836
195100
195480
195647
195771
195811
195819
195811
195798
195786
195810
195832
195874
195929
196260
195835
196120
196278
196376
196410
196405
196390
196372
196358
196340
196386
196445
196497
196718
196478
196708
196853
196928
196955
196951
196936
196918
196900
196888
196893
196945
197003
197159
197062
197257
197396
197460
197486
197484
197470
197451
197433
197423
197416
197431
197486
197617
197583
197757
197883
197943
197975
197978
197969
197950
197930
197920
197907
197911
197960
198074
198119
198290
198397
198450
198471
198472
198455
198431
198408
198390
198372
198370
198407
198497
198570
198753
198859
198915
198930
198932
198913
198884
198858
198835
198812
198808
198834
198886
198975
199173
199278
199340
199356
199362
199346
199322
199292
199265
199232
199226
199236
199252
199292
199527
199652
199729
199750
199759
199749
199733
199708
199682
199650
199642
199625
199606
199530
199781
199961
200066
200115
200142
200146
200142
200120
200097
200068
200052
200026
199963
199697
199958
200139
200278
200363
200434
200480
200516
200522
200517
200486
200468
200477
200316
199657
200024
200318
200544
200703
200820
200892
200938
200946
200947
200920
200974
201037
200793
195263
196078
196010
196441
196388
197987
193683
194482
194832
195841
196170
197607
193945
194521
194850
195807
196267
197728
194090
194408
194670
195579
196072
197359
194350
194538
194742
195607
196038
197534
194582
194655
194763
195556
195906
197476
194787
194803
194897
195662
195913
197668
194972
194963
195076
195863
196098
197902
195175
195176
195286
196093
196351
198125
195394
195427
195529
196359
196608
198294
195716
195842
195932
196677
196804
198879
196013
196117
196266
197053
197259
198403
196403
196662
196839
197443
197721
198661
195945
196343
196672
197682
198119
198695
195982
196694
196457
196540
196086
197560
194803
195219
195253
195980
195991
197320
195201
195533
195545
196339
196232
197973
195494
195656
195640
196346
196366
197638
195832
195978
195999
196654
196670
197943
196073
196190
196208
196765
196753
197919
196246
196339
196324
196828
196740
198079
196374
196423
196391
196837
196709
198105
196486
196504
196485
196929
196876
198266
196615
196641
196629
197027
197081
198346
196813
196862
196852
197238
197298
198508
197066
197074
197012
197461
197488
198179
197342
197386
197416
197717
197764
198540
196861
196985
197027
197461
197789
198481
195988
196093
196137
195868
195270
196195
195382
195560
195404
195748
195678
196620
196010
196106
195999
196557
196479
198484
196620
196682
196675
197302
197434
198918
197206
197359
197517
198155
198298
199636
197744
197957
198163
198688
198787
200020
198238
198466
198673
199140
199228
200353
198651
198847
198964
199378
199438
200364
199002
199147
199153
199497
199460
200168
199299
199379
199295
199532
199527
199974
199597
199646
199547
199646
199639
199901
199977
199971
199866
199888
199906
200057
200506
200408
200422
200480
200528
200634
200440
200460
200435
200615
200757
200889
197857
198527
198348
198793
198772
199368
196707
197416
197405
198109
198031
199120
197068
197566
197511
198273
198123
199949
197270
197530
197414
198048
198053
199504
197472
197634
197601
198159
198267
199207
197578
197705
197687
198174
198361
198844
197647
197779
197783
198228
198285
199019
197719
197834
197839
198217
198276
199034
197805
197908
197929
198283
198400
199173
197897
197971
198013
198307
198460
199164
198005
198059
198146
198405
198579
199270
198122
198159
198271
198511
198682
199247
198231
198268
198358
198622
198843
199493
197607
197640
197789
198280
198540
199152
198478
198946
198776
199062
198924
199293
197617
198119
198063
198600
198560
198901
197737
198133
198096
198680
198647
199500
197804
198110
198143
198682
198868
199210
197869
198122
198225
198634
198870
199297
197904
198160
198296
198588
198764
198952
197905
198165
198325
198566
198705
198893
197914
198150
198321
198496
198563
198661
197889
198094
198265
198363
198469
198612
197888
198033
198167
198191
198358
198462
197885
197941
198066
198113
198304
198456
197910
197852
197955
197994
198169
198287
197913
197735
197817
197883
198168
198425
197167
196939
196997
197205
197648
197838
201687
202096
202169
202320
202210
202326
201269
201717
201821
202165
202175
202323
201346
201801
201969
202336
202363
202443
201362
201846
202072
202396
202451
202445
201379
201884
202168
202404
202371
202147
201360
201852
202161
202252
202088
201636
201309
201760
201988
201890
201551
200772
201182
201543
201636
201381
200804
199766
201026
201267
201236
200748
199963
198473
200821
200925
200719
199958
199078
197149
200618
200560
200173
199239
198278
196055
200358
200108
199661
198460
197483
195049
200127
199546
199101
197810
196919
194632
199278
198335
197689
196548
195956
193793
197428
196349
195948
195120
194716
194617
198192
196790
196546
196068
195850
195793
197964
196630
196481
196002
195827
195844
198413
196623
196501
196063
195938
195926
198560
196771
196596
196170
196069
196079
198276
197380
197046
196510
196319
196299
198425
197376
197197
196742
196625
196569
198674
197665
197533
197084
197003
196869
198609
197795
197716
197322
197298
197132
198787
197958
197937
197534
197541
197353
198798
198002
198089
197673
197740
197530
199335
198447
198517
198000
198074
197715
199290
198420
198577
198113
198252
197807
200227
199195
199435
199189
199111
198643
195488
194724
194176
193547
193457
193984
196410
195436
195149
194901
194936
195449
196290
195357
195254
195101
195138
195581
196783
195762
195632
195477
195466
195803
196948
196050
195867
195776
195752
195989
197002
196274
196173
196135
196092
196243
197097
196374
196317
196322
196323
196444
197245
196635
196552
196518
196564
196670
197312
196821
196687
196621
196732
196850
197525
197028
196896
196761
196914
197006
197597
197133
197086
196919
197096
197148
198106
197575
197497
197204
197321
197261
197947
197667
197638
197356
197504
197359
198907
198517
198528
198405
198252
197998
187472
189210
189104
189933
190532
192110
188162
190253
190703
192050
192716
194289
188049
190597
191201
192782
193439
194860
188991
191555
192163
193680
194301
195507
190064
192474
193106
194492
195111
196130
191527
193589
194193
195381
195963
196736
192800
194535
195132
196134
196731
197278
193870
195392
195958
196821
197399
197840
194570
195902
196519
197325
197895
198283
194962
196242
196936
197747
198332
198683
195098
196443
197187
198036
198636
198977
195154
196697
197421
198333
198907
199214
194813
196648
197326
198445
199110
199354
194759
196837
197701
198854
199351
199640
197580
196214
195746
194494
193773
193217
197242
196039
195536
194621
194082
193751
197187
195549
195039
193968
193521
193330
197109
195253
194798
193737
193305
193112
197007
194955
194436
193387
193071
192966
196841
194809
194292
193330
192996
192961
196680
194708
194196
193319
193138
193175
196427
194814
194339
193564
193392
193404
196321
194866
194460
193770
193651
193667
196611
195033
194820
194088
194006
193900
196727
195135
195037
194284
194263
194162
197510
195601
195476
194729
194797
194474
197257
195559
195801
195105
195102
194654
198201
196925
197192
196783
196774
196017
196524
195466
194905
193863
193433
193507
196235
195106
194888
194395
194243
194589
195840
194483
194300
193878
193889
194316
195698
194188
194153
193731
193790
194182
195592
193840
193898
193526
193705
194123
195536
193806
193903
193571
193813
194201
195490
193969
194045
193788
194037
194346
195488
194215
194308
194054
194240
194461
195164
194355
194522
194224
194376
194537
195727
194684
194676
194277
194465
194561
195614
194358
194525
194174
194441
194591
196030
194655
194712
194293
194541
194604
195600
194576
194725
194286
194462
194490
196510
195452
195814
195720
195779
195369
194144
193632
192857
192380
192478
193178
193099
193133
192794
193020
193312
194293
191992
192230
191937
192443
192934
193955
191729
191853
191761
192248
192816
193775
191736
191438
191529
192047
192764
193726
191847
191510
191730
192230
192935
193810
192048
191854
191997
192461
193130
193907
192226
192115
192287
192681
193290
193989
192051
192127
192208
192642
193234
193951
191994
191759
191865
192416
193045
193839
191136
191133
191363
192029
192770
193651
190531
190881
191127
191847
192532
193377
189190
190359
190697
191649
192361
193029
189281
190497
191281
192568
193073
193608
194803
195106
195237
195299
195307
195287
195282
195241
195188
195081
194965
194870
194769
195051
195534
195821
195946
196029
196024
195970
195930
195871
195823
195744
195677
195682
195728
196036
196307
196548
196646
196711
196704
196644
196581
196505
196450
196391
196336
196339
196296
196563
197044
197191
197299
197331
197318
197256
197181
197098
197036
196983
196936
196907
196933
197119
197761
197829
197919
197922
197901
197841
197763
197681
197611
197556
197508
197476
197457
197584
198449
198466
198518
198502
198468
198401
198325
198247
198176
198118
198073
198042
198042
198134
199075
199096
199112
199085
199034
198958
198880
198801
198732
198677
198628
198603
198605
198673
199734
199744
199723
199675
199599
199511
199422
199341
199273
199219
199174
199152
199163
199204
200302
200309
200278
200225
200139
200045
199952
199873
199808
199754
199713
199691
199706
199728
200898
200889
200837
200772
200677
200578
200483
200403
200337
200281
200242
200225
200243
200245
201372
201376
201338
201276
201182
201089
201002
200929
200869
200813
200776
200759
200782
200768
201956
201910
201870
201804
201715
201634
201557
201487
201426
201366
201329
201307
201341
201312
202322
202340
202294
202252
202196
202143
202093
202046
201999
201949
201918
201901
201937
201894
202992
202979
202951
202916
202860
202799
202734
202671
202609
202548
202512
202506
202544
202602
195729
195886
195983
195937
195867
195756
195682
195579
195469
195323
195157
195031
194902
194986
196471
196561
196620
196624
196574
196475
196382
196272
196160
196042
195917
195828
195793
195941
197197
197250
197290
197289
197243
197155
197054
196939
196822
196716
196612
196552
196489
196614
197947
197924
197950
197934
197888
197809
197708
197593
197474
197370
197271
197217
197168
197276
198693
198621
198619
198579
198522
198439
198335
198221
198104
198000
197904
197843
197795
197847
199425
199338
199296
199234
199156
199065
198957
198846
198730
198628
198531
198467
198418
198435
200129
200042
199968
199884
199785
199679
199564
199451
199340
199242
199146
199078
199033
199029
200810
200727
200632
200528
200410
200287
200163
200045
199936
199837
199747
199673
199635
199627
201433
201353
201254
201142
201012
200880
200750
200630
200525
200427
200344
200267
200236
200220
202064
201975
201865
201743
201607
201468
201337
201216
201115
201018
200940
200864
200838
200811
202625
202545
202437
202312
202176
202043
201920
201806
201710
201615
201541
201464
201448
201404
203267
203170
203053
202921
202785
202655
202537
202424
202328
202230
202159
202079
202074
202008
203772
203716
203603
203487
203373
203265
203164
203064
202973
202880
202810
202734
202731
202651
204578
204511
204385
204250
204114
203989
203874
203763
203663
203568
203494
203437
203428
203398
196928
196875
196922
196824
196719
196547
196380
196213
196041
195855
195632
195379
195120
194967
197715
197560
197529
197453
197358
197221
197068
196911
196743
196567
196373
196160
195965
195861
198445
198248
198202
198114
198016
197892
197744
197589
197420
197250
197066
196890
196707
196640
199225
199000
198910
198800
198690
198562
198413
198258
198089
197922
197740
197576
197401
197344
199973
199767
199646
199512
199378
199233
199075
198915
198745
198579
198399
198240
198074
197983
200705
200526
200376
200221
200061
199897
199726
199560
199388
199222
199046
198889
198734
198638
201390
201238
201074
200908
200730
200550
200366
200190
200014
199848
199678
199524
199383
199283
202041
201905
201738
201566
201377
201184
200990
200804
200625
200455
200293
200143
200021
199920
202648
202520
202354
202183
201991
201793
201595
201405
201228
201056
200903
200757
200651
200550
203275
203148
202973
202795
202599
202397
202198
202006
201831
201660
201515
201370
201278
201164
203887
203761
203578
203395
203200
203001
202808
202618
202445
202273
202132
201983
201899
201766
204581
204448
204248
204047
203845
203642
203449
203258
203085
202909
202767
202611
202532
202379
205292
205125
204923
204707
204513
204313
204125
203935
203755
203572
203421
203254
203169
203002
206148
205949
205726
205463
205247
205035
204842
204649
204467
204283
204120
203957
203854
203701
197862
197687
197660
197510
197360
197165
196963
196756
196559
196350
196078
195738
195400
195079
198709
198421
198314
198143
197988
197807
197618
197422
197228
197038
196791
196485
196168
195908
199490
199188
199041
198841
198659
198465
198269
198075
197885
197682
197453
197183
196884
196701
200275
199982
199794
199566
199354
199140
198931
198730
198531
198326
198096
197849
197578
197370
201007
200751
200541
200298
200060
199824
199596
199381
199170
198959
198732
198497
198246
198067
201679
201462
201247
201002
200750
200500
200256
200028
199806
199589
199364
199141
198910
198735
202296
202109
201897
201662
201407
201152
200901
200662
200432
200210
199990
199778
199566
199390
202885
202716
202508
202282
202030
201776
201521
201277
201043
200819
200606
200404
200211
200033
203470
203304
203094
202878
202632
202382
202128
201881
201648
201424
201220
201024
200851
200677
204099
203929
203699
203480
203232
202984
202731
202484
202254
202032
201836
201644
201486
201306
204773
204594
204342
204112
203858
203606
203352
203102
202870
202645
202451
202258
202107
201909
205516
205324
205040
204785
204517
204255
203995
203741
203506
203275
203079
202874
202721
202504
206301
206081
205785
205502
205220
204941
204670
204403
204154
203908
203702
203478
203316
203082
207105
206886
206570
206235
205934
205639
205362
205088
204830
204571
204350
204113
203935
203711
198820
198513
198361
198132
197935
197708
197481
197254
197045
196823
196567
196230
195860
195427
199682
199303
199084
198805
198571
198330
198101
197881
197680
197473
197241
196938
196576
196247
200448
200090
199846
199539
199263
198988
198733
198505
198300
198091
197856
197585
197225
196952
201180
200860
200599
200278
199971
199668
199389
199140
198913
198691
198447
198182
197857
197580
201823
201552
201293
200981
200661
200344
200043
199771
199521
199280
199032
198771
198472
198227
202401
202179
201933
201640
201325
201005
200694
200404
200132
199874
199620
199362
199088
198850
202952
202762
202528
202259
201958
201645
201332
201030
200742
200472
200215
199962
199708
199472
203519
203341
203111
202859
202570
202267
201955
201648
201352
201074
200818
200570
200329
200087
204129
203951
203713
203467
203183
202887
202575
202266
201967
201687
201431
201186
200955
200710
204789
204606
204341
204091
203802
203505
203192
202882
202585
202306
202052
201809
201581
201323
205501
205313
205021
204753
204443
204134
203812
203496
203198
202917
202666
202421
202195
201917
206243
206041
205715
205420
205088
204762
204427
204106
203808
203526
203271
203013
202789
202491
207029
206790
206441
206110
205749
205397
205043
204708
204399
204106
203844
203568
203338
203033
207753
207498
207124
206752
206371
206000
205639
205300
204988
204686
204414
204130
203885
203592
199732
199389
199126
198814
198546
198249
197961
197677
197420
197163
196912
196579
196239
195799
200581
200187
199882
199516
199191
198855
198550
198267
198014
197770
197529
197240
196905
196565
201237
200879
200582
200209
199853
199492
199160
198865
198605
198360
198108
197840
197497
197178
201842
201531
201241
200878
200510
200134
199785
199471
199191
198931
198668
198392
198068
197772
202377
202108
201833
201496
201136
200764
200404
200073
199771
199493
199221
198946
198635
198361
202901
202662
202398
202085
201741
201380
201019
200675
200355
200060
199780
199501
199207
198934
203443
203221
202961
202669
202339
201989
201629
201276
200942
200635
200349
200069
199789
199513
204030
203811
203544
203261
202938
202595
202237
201880
201537
201223
200932
200652
200376
200090
204676
204457
204169
203882
203554
203210
202849
202489
202142
201824
201533
201251
200976
200682
205362
205139
204822
204523
204179
203826
203458
203095
202750
202435
202141
201857
201576
201270
206086
205851
205504
205181
204808
204435
204052
203686
203341
203028
202734
202448
202167
201844
206800
206549
206168
205813
205409
205015
204620
204253
203913
203603
203308
203016
202741
202394
207549
207243
206820
206414
205976
205560
205156
204789
204451
204138
203844
203544
203272
202917
208175
207829
207371
206932
206482
206062
205662
205303
204973
204661
204364
204057
203771
203433
200462
200137
199833
199459
199118
198751
198395
198037
197708
197396
197111
196755
196449
196074
201180
200821
200505
200108
199727
199328
198952
198592
198263
197959
197681
197380
197070
196769
201733
201395
201094
200709
200322
199916
199529
199163
198831
198528
198242
197962
197637
197339
202260
201949
201660
201296
200914
200510
200119
199748
199406
199093
198796
198507
198189
197895
202785
202493
202200
201856
201487
201096
200706
200330
199979
199655
199349
199054
198737
198453
203314
203035
202752
202422
202065
201685
201298
200918
200558
200222
199906
199602
199287
198996
203883
203615
203320
203000
202650
202277
201891
201506
201138
200793
200469
200155
199841
199538
204498
204233
203923
203603
203246
202872
202483
202095
201721
201369
201037
200710
200391
200069
205160
204894
204555
204220
203847
203466
203071
202681
202304
201946
201606
201270
200946
200607
205843
205569
205197
204840
204439
204039
203634
203241
202867
202512
202171
201830
201496
201143
206543
206243
205826
205434
205000
204580
204163
203770
203402
203054
202716
202378
202038
201668
207188
206856
206401
205977
205519
205084
204661
204273
203915
203578
203248
202913
202575
202180
207834
207438
206944
206477
205995
205551
205130
204753
204402
204071
203747
203415
203080
202677
208345
207894
207372
206891
206414
205981
205579
205222
204885
204563
204238
203901
203559
203179
200863
200599
200330
199981
199633
199242
198849
198437
198038
197652
197305
196888
196578
196232
201480
201165
200882
200523
200161
199762
199356
198943
198543
198165
197822
197473
197135
196837
201990
201665
201393
201040
200676
200283
199883
199476
199079
198709
198362
198039
197693
197390
202538
202219
201929
201577
201212
200822
200427
200027
199633
199262
198909
198581
198245
197928
203086
202762
202453
202104
201747
201367
200978
200583
200191
199817
199457
199121
198782
198466
203642
203319
203007
202667
202306
201926
201536
201142
200752
200373
200006
199659
199309
198992
204231
203911
203583
203237
202868
202485
202092
201695
201302
200918
200547
200189
199835
199512
204850
204534
204180
203823
203435
203040
202638
202238
201843
201456
201082
200711
200355
200011
205500
205174
204783
204399
203984
203574
203164
202762
202370
201983
201606
201228
200867
200496
206137
205790
205359
204946
204504
204078
203660
203261
202875
202495
202119
201731
201355
200967
206757
206375
205898
205452
204987
204550
204128
203732
203352
202980
202606
202215
201829
201420
207304
206887
206377
205915
205435
204990
204567
204179
203812
203451
203083
202695
202309
201876
207841
207382
206843
206347
205850
205402
204988
204610
204254
203901
203539
203155
202775
202342
208275
207738
207181
206689
206217
205794
205408
205056
204715
204371
204009
203625
203244
202841
201088
200861
200646
200363
200067
199714
199329
198905
198466
198021
197599
197110
196725
196337
201666
201359
201125
200827
200527
200172
199784
199358
198914
198472
198048
197622
197212
196892
202163
201847
201606
201298
200985
200636
200256
199838
199398
198965
198544
198157
197755
197418
202720
202402
202132
201813
201485
201127
200743
200332
199899
199473
199055
198673
198287
197954
203274
202944
202646
202315
201978
201617
201235
200829
200405
199985
199572
199192
198814
198488
203844
203508
203191
202851
202496
202123
201733
201328
200910
200495
200084
199700
199320
198996
204438
204101
203757
203395
203016
202627
202229
201822
201406
200992
200587
200198
199823
199494
205049
204703
204322
203935
203528
203121
202712
202303
201890
201478
201076
200682
200311
199963
205668
205295
204868
204449
204011
203588
203171
202763
202358
201953
201556
201153
200777
200400
206234
205832
205361
204918
204462
204030
203612
203209
202814
202413
202014
201598
201209
200808
206757
206329
205823
205353
204879
204444
204028
203631
203244
202848
202448
202023
201620
201193
207218
206764
206230
205748
205269
204836
204427
204043
203669
203282
202883
202453
202044
201598
207671
207186
206633
206136
205653
205224
204830
204458
204091
203707
203309
202878
202473
202022
208049
207493
206935
206456
206007
205609
205245
204896
204543
204165
203765
203333
202928
202504
194934
194894
194522
194086
194436
195002
194114
193524
192911
192468
193133
193822
194309
193479
192716
192140
192625
193229
194394
193468
192591
191862
192104
192566
194454
193547
192705
192013
192114
192433
194476
193616
192844
192171
192094
192039
194525
193706
192982
192314
192060
191621
194503
193661
192888
192147
191695
191217
194435
193516
192664
191810
191230
191021
194279
193263
192358
191465
191012
191156
194188
193187
192384
191603
191411
191377
194231
193168
192482
191721
191830
191497
194543
193527
193128
192495
192851
192053
193690
192819
192456
192272
193334
192788
195850
196048
195866
195664
195355
195640
195214
194976
194587
194442
194301
194773
195284
194751
194200
193926
193708
194118
195188
194482
193769
193305
193025
193399
195101
194309
193541
192979
192707
193061
194991
194157
193392
192779
192468
192915
194950
194127
193419
192818
192443
192884
194875
194046
193353
192697
192242
192506
194775
193903
193163
192366
191773
191845
194612
193652
192820
191900
191201
191133
194463
193489
192711
191807
191113
190989
194348
193348
192573
191714
191120
190954
194518
193605
192991
192234
191649
191233
193795
192890
192171
191693
191769
191773
196877
197003
197019
196972
196738
196856
196412
196183
195873
195754
195716
195873
196391
196025
195607
195301
195024
195000
196198
195695
195085
194584
194156
194023
196020
195369
194611
193982
193510
193443
195796
195023
194211
193560
193128
193174
195632
194817
194046
193438
193112
193335
195486
194647
193929
193337
193013
193180
195345
194485
193794
193145
192696
192624
195162
194255
193516
192700
192113
191934
194963
194015
193299
192496
191900
191630
194712
193748
193031
192204
191606
191296
194675
193793
193224
192485
191845
191434
193954
193061
192432
191839
191661
191628
197585
197569
197581
197515
197338
197342
197253
196934
196641
196499
196500
196524
197166
196837
196486
196183
195895
195750
196949
196535
196049
195597
195113
194781
196734
196205
195566
194933
194271
193861
196461
195805
195027
194299
193598
193218
196208
195459
194607
193884
193265
193045
195992
195176
194327
193612
193049
192888
195811
194952
194148
193440
192895
192731
195611
194701
193889
193109
192504
192290
195381
194413
193651
192893
192295
191937
195061
194094
193355
192565
191938
191560
194869
194002
193412
192709
192006
191583
194142
193259
192628
191962
191649
191591
198440
198323
198242
198177
197902
197856
198005
197749
197426
197260
197114
197193
197829
197504
197164
196896
196587
196554
197585
197192
196808
196461
196064
195875
197362
196874
196394
195900
195342
194938
197087
196488
195862
195191
194500
193952
196800
196109
195350
194566
193829
193331
196516
195758
194894
194107
193349
192823
196287
195463
194586
193828
193092
192625
196070
195202
194333
193517
192762
192363
195861
194925
194091
193278
192592
192171
195572
194588
193803
192961
192305
191886
195301
194373
193745
193015
192317
191809
194534
193593
192914
192195
191802
191642
199326
199134
198956
198883
198711
198628
198825
198511
198133
197922
197778
197805
198536
198138
197731
197439
197137
197031
198233
197795
197376
197054
196703
196568
197979
197508
197058
196668
196236
195989
197670
197139
196626
196119
195578
195161
197349
196728
196113
195450
194829
194375
197012
196307
195576
194814
194113
193524
196710
195951
195132
194354
193593
193013
196450
195623
194784
193980
193155
192603
196204
195367
194546
193742
192994
192418
195964
195076
194297
193459
192758
192231
195715
194840
194216
193502
192837
192254
195018
194136
193494
192795
192353
192069
200140
199931
199749
199698
199589
199522
199634
199338
198978
198767
198597
198538
199279
198880
198441
198125
197811
197625
198890
198442
197983
197668
197323
197108
198564
198099
197635
197281
196880
196637
198203
197704
197221
196797
196326
196002
197829
197276
196745
196223
195703
195322
197436
196812
196206
195590
195010
194465
197077
196399
195741
195035
194341
193760
196753
196010
195261
194523
193789
193209
196454
195704
194980
194247
193530
192917
196197
195419
194708
193934
193226
192682
195978
195192
194595
193928
193291
192689
195376
194591
194007
193373
192912
192575
200642
200453
200286
200222
200146
200129
200219
199992
199706
199525
199392
199377
199885
199570
199189
198901
198614
198433
199489
199104
198665
198328
197995
197753
199125
198692
198231
197869
197502
197261
198731
198264
197794
197396
196996
196768
198332
197827
197348
196899
196486
196240
197900
197358
196844
196361
195910
195466
197488
196905
196368
195815
195239
194710
197083
196438
195816
195187
194600
194104
196724
196055
195448
194803
194223
193696
196392
195696
195086
194400
193801
193329
196131
195435
194897
194324
193775
193256
195588
194899
194403
193875
193457
193140
200899
200730
200570
200462
200345
200278
200557
200370
200148
200012
199908
199890
200284
200037
199744
199534
199346
199199
199950
199633
199267
198962
198662
198394
199614
199226
198794
198417
198037
197686
199235
198789
198317
197908
197511
197157
198843
198359
197873
197440
197013
196715
198408
197900
197404
196950
196496
196099
197970
197439
196943
196453
195902
195310
197508
196923
196362
195793
195198
194660
197088
196459
195910
195324
194737
194187
196657
195985
195419
194785
194216
193725
196325
195649
195128
194589
194088
193579
195763
195076
194613
194125
193731
193406
196008
195982
196038
195289
195424
194383
195793
195766
195730
195438
195912
195376
196415
196311
196321
196261
196944
196691
197052
196972
197090
197194
197954
198176
197699
197701
197962
198242
199133
199619
198264
198424
198800
199220
200208
200707
198874
199127
199603
200105