/*--------------------------------*- C++ -*----------------------------------*\
| =========                 |                                                 |
| \\      /  F ield         | OpenFOAM: The Open Source CFD Toolbox           |
|  \\    /   O peration     | Version:  v2106                                 |
|   \\  /    A nd           | Website:  www.openfoam.com                      |
|    \\/     M anipulation  |                                                 |
\*---------------------------------------------------------------------------*/
FoamFile
{
    version     2.0;
    format      ascii;
    arch        "LSB;label=32;scalar=64";
    class       surfaceScalarField;
    location    "0.000138";
    object      phi;
}
// * * * * * * * * * * * * * * * * * * * * * * * * * * * * * * * * * * * * * //

dimensions      [1 0 -1 0 0 0 0];

internalField   nonuniform List<scalar> 
53237
(
-2.99306e-11
-5.75931e-11
-1.90101e-08
7.23574e-11
-1.90926e-11
-5.62885e-11
-1.90078e-08
7.04503e-11
-8.65805e-12
-5.62652e-11
-1.90069e-08
7.00676e-11
1.09247e-12
-5.61044e-11
-1.90067e-08
6.99549e-11
1.04581e-11
-5.6386e-11
-1.90067e-08
7.03379e-11
2.03675e-11
-5.6897e-11
-1.90069e-08
7.04861e-11
3.05343e-11
-5.7295e-11
-1.90078e-08
7.10259e-11
4.10918e-11
-5.88787e-11
-1.90101e-08
7.30573e-11
5.12984e-11
-5.74824e-11
-1.9014e-08
7.13897e-11
5.99876e-11
-6.86512e-11
-1.90185e-08
8.42026e-11
-6.34575e-11
-1.9021e-08
7.40437e-11
7.218e-11
-5.29268e-11
-5.45298e-11
-1.90162e-08
-3.79414e-11
-4.51662e-11
-1.90119e-08
-2.47044e-11
-4.52398e-11
-1.90082e-08
-1.41473e-11
-4.30532e-11
-1.90057e-08
-5.85099e-12
-4.22432e-11
-1.90037e-08
8.78474e-13
-4.1585e-11
-1.90031e-08
7.31136e-12
-4.17688e-11
-1.9003e-08
1.50995e-11
-4.29174e-11
-1.90036e-08
2.49478e-11
-4.41556e-11
-1.90055e-08
3.74707e-11
-4.67017e-11
-1.9008e-08
5.18741e-11
-4.69617e-11
-1.90118e-08
6.55752e-11
-5.65456e-11
-1.90162e-08
-5.5694e-11
-1.9019e-08
8.27979e-11
-5.59773e-11
-4.41302e-11
-1.90148e-08
7.1957e-11
-4.34957e-11
-4.10383e-11
-1.90124e-08
-3.05439e-11
-3.38223e-11
-1.90072e-08
-1.93775e-11
-3.31638e-11
-1.90042e-08
-1.08397e-11
-3.09746e-11
-1.9002e-08
-4.43559e-12
-3.006e-11
-1.90006e-08
6.21806e-13
-2.94396e-11
-1.90002e-08
5.46288e-12
-2.95327e-11
-1.90001e-08
1.13911e-11
-3.06091e-11
-1.90005e-08
1.92491e-11
-3.18826e-11
-1.90018e-08
2.97245e-11
-3.44155e-11
-1.9004e-08
4.21442e-11
-3.54207e-11
-1.90069e-08
5.44357e-11
-4.29258e-11
-1.90122e-08
-4.59977e-11
-1.90148e-08
7.06116e-11
-5.79459e-11
-3.36285e-11
-1.90114e-08
7.42117e-11
-4.37463e-11
-2.88433e-11
-1.90092e-08
-2.99162e-11
-2.3811e-11
-1.90047e-08
-1.83022e-11
-2.28438e-11
-1.90024e-08
-9.8167e-12
-2.09223e-11
-1.90006e-08
-3.91639e-12
-1.99697e-11
-1.89994e-08
4.39566e-13
-1.94771e-11
-1.89992e-08
4.60034e-12
-1.94821e-11
-1.89991e-08
1.00188e-11
-2.02997e-11
-1.89994e-08
1.78363e-11
-2.1465e-11
-1.90005e-08
2.87795e-11
-2.36061e-11
-1.90022e-08
4.21062e-11
-2.48311e-11
-1.90045e-08
5.61587e-11
-3.01408e-11
-1.90089e-08
-3.49917e-11
-1.90112e-08
7.27541e-11
-5.71142e-11
-2.28986e-11
-1.90095e-08
7.29911e-11
-4.18716e-11
-1.85652e-11
-1.9007e-08
-2.78977e-11
-1.56265e-11
-1.90028e-08
-1.64517e-11
-1.48066e-11
-1.90009e-08
-8.43329e-12
-1.3455e-11
-1.89993e-08
-3.19037e-12
-1.26957e-11
-1.89984e-08
3.31852e-13
-1.24028e-11
-1.89983e-08
3.67019e-12
-1.23005e-11
-1.89983e-08
8.43281e-12
-1.27235e-11
-1.89985e-08
1.57786e-11
-1.35102e-11
-1.89994e-08
2.65392e-11
-1.49084e-11
-1.90009e-08
3.99955e-11
-1.58369e-11
-1.90027e-08
5.5075e-11
-1.89785e-11
-1.90068e-08
-2.34693e-11
-1.90092e-08
7.13082e-11
-5.74639e-11
-1.18173e-11
-1.90087e-08
7.32344e-11
-4.13e-11
-9.58458e-12
-1.90052e-08
-2.715e-11
-8.53722e-12
-1.90016e-08
-1.56529e-11
-8.28063e-12
-1.89999e-08
-7.79915e-12
-7.73332e-12
-1.89986e-08
-2.85473e-12
-7.35827e-12
-1.89978e-08
2.4275e-13
-7.31044e-12
-1.89978e-08
3.17774e-12
-7.10965e-12
-1.89978e-08
7.68212e-12
-7.07335e-12
-1.8998e-08
1.48902e-11
-7.27765e-12
-1.89988e-08
2.57176e-11
-7.70111e-12
-1.90001e-08
3.93339e-11
-7.92014e-12
-1.90017e-08
5.53019e-11
-9.05763e-12
-1.90051e-08
-1.1456e-11
-1.90085e-08
7.13433e-11
-5.81415e-11
-9.07403e-13
-1.90084e-08
7.41549e-11
-4.12421e-11
-1.71397e-12
-1.90044e-08
-2.68308e-11
-2.29251e-12
-1.9001e-08
-1.51761e-11
-2.76397e-12
-1.89993e-08
-7.32203e-12
-3.10026e-12
-1.89981e-08
-2.46564e-12
-3.17395e-12
-1.89974e-08
4.46157e-13
-3.3731e-12
-1.89975e-08
3.19564e-12
-3.07134e-12
-1.89976e-08
7.56749e-12
-2.52442e-12
-1.89979e-08
1.46497e-11
-2.04423e-12
-1.89987e-08
2.54208e-11
-1.40289e-12
-1.9e-08
3.90304e-11
-7.79364e-13
-1.90014e-08
5.55514e-11
-1.1974e-13
-1.90046e-08
3.86599e-13
-1.90084e-08
7.17625e-11
-5.87226e-11
1.01403e-11
-1.90081e-08
7.48772e-11
-4.17814e-11
6.74219e-12
-1.9004e-08
-2.73267e-11
4.69036e-12
-1.90006e-08
-1.55665e-11
3.43047e-12
-1.89989e-08
-7.53672e-12
2.26532e-12
-1.89977e-08
-2.44236e-12
1.76129e-12
-1.8997e-08
6.98331e-13
1.32786e-12
-1.89972e-08
3.66179e-12
1.69852e-12
-1.89973e-08
8.20321e-12
2.70669e-12
-1.89976e-08
1.53457e-11
3.7681e-12
-1.89984e-08
2.60786e-11
5.34931e-12
-1.89998e-08
3.95987e-11
6.76806e-12
-1.90013e-08
5.60146e-11
8.97714e-12
-1.90045e-08
1.21986e-11
-1.90083e-08
7.22067e-11
-5.90808e-11
2.18442e-11
-1.90078e-08
7.49218e-11
-4.28576e-11
1.68411e-11
-1.9004e-08
-2.84662e-11
1.30689e-11
-1.90002e-08
-1.6611e-11
1.1607e-11
-1.89985e-08
-8.31724e-12
9.83621e-12
-1.8997e-08
-2.81048e-12
8.85678e-12
-1.89963e-08
8.24814e-13
8.19807e-12
-1.89965e-08
4.29586e-12
8.55758e-12
-1.89966e-08
9.27256e-12
9.88523e-12
-1.8997e-08
1.66968e-11
1.14132e-11
-1.8998e-08
2.75287e-11
1.35936e-11
-1.89996e-08
4.09419e-11
1.53575e-11
-1.90013e-08
5.65548e-11
1.9267e-11
-1.90048e-08
2.42882e-11
-1.90082e-08
7.22542e-11
-5.9592e-11
3.34937e-11
-1.90083e-08
7.55205e-11
-4.42078e-11
2.84548e-11
-1.90054e-08
-2.98786e-11
2.28076e-11
-1.90009e-08
-1.79055e-11
2.15598e-11
-1.89988e-08
-9.23234e-12
1.93438e-11
-1.89971e-08
-3.1263e-12
1.83316e-11
-1.89963e-08
1.2152e-12
1.76409e-11
-1.89964e-08
5.3535e-12
1.79522e-11
-1.89966e-08
1.08452e-11
1.92898e-11
-1.89971e-08
1.8502e-11
2.08506e-11
-1.89983e-08
2.92382e-11
2.34224e-11
-1.90002e-08
4.23654e-11
2.50702e-11
-1.90022e-08
5.69383e-11
3.08213e-11
-1.90063e-08
3.58154e-11
-1.90089e-08
7.26249e-11
-6.09411e-11
4.50909e-11
-1.90103e-08
7.70507e-11
-4.66149e-11
4.21369e-11
-1.90075e-08
-3.24226e-11
3.47437e-11
-1.90026e-08
-2.02028e-11
3.38839e-11
-1.9e-08
-1.08694e-11
3.14819e-11
-1.89981e-08
-3.84392e-12
3.06216e-11
-1.89969e-08
1.57282e-12
2.99923e-11
-1.89969e-08
6.72506e-12
3.02335e-11
-1.89971e-08
1.30357e-11
3.13694e-11
-1.89978e-08
2.12029e-11
3.26693e-11
-1.89993e-08
3.20251e-11
3.53317e-11
-1.90015e-08
4.48852e-11
3.64144e-11
-1.9004e-08
5.82706e-11
4.38743e-11
-1.90085e-08
4.67309e-11
-1.90109e-08
7.40967e-11
-5.90731e-11
5.56683e-11
-1.9014e-08
7.46702e-11
-4.65077e-11
5.6794e-11
-1.9011e-08
-3.31945e-11
4.77717e-11
-1.90053e-08
-2.13991e-11
4.79922e-11
-1.90021e-08
-1.19947e-11
4.5876e-11
-1.89996e-08
-4.42898e-12
4.49934e-11
-1.89982e-08
1.81978e-12
4.43913e-11
-1.8998e-08
7.74998e-12
4.45234e-11
-1.89983e-08
1.45401e-11
4.53215e-11
-1.89992e-08
2.26933e-11
4.63466e-11
-1.90009e-08
3.29984e-11
4.85419e-11
-1.90035e-08
4.48876e-11
4.83838e-11
-1.90067e-08
5.64178e-11
5.74659e-11
-1.9012e-08
5.61404e-11
-1.90146e-08
7.17102e-11
-6.95898e-11
6.40739e-11
-1.90185e-08
8.64497e-11
-5.56302e-11
6.97841e-11
-1.90154e-08
-4.04054e-11
5.94816e-11
-1.90107e-08
-2.66513e-11
6.16452e-11
-1.90066e-08
-1.53188e-11
6.06761e-11
-1.90038e-08
-5.92223e-12
6.06582e-11
-1.90019e-08
1.95824e-12
6.07132e-11
-1.90014e-08
9.44257e-12
6.06994e-11
-1.90017e-08
1.79664e-11
6.04203e-11
-1.90027e-08
2.80184e-11
6.02431e-11
-1.9005e-08
4.03074e-11
6.10557e-11
-1.9008e-08
5.41541e-11
5.88073e-11
-1.90119e-08
6.70209e-11
6.92719e-11
-1.90163e-08
6.32815e-11
-1.90189e-08
8.35394e-11
-6.36509e-11
-1.90209e-08
7.5208e-11
7.56304e-11
-5.44491e-11
-1.90183e-08
8.581e-11
-4.3169e-11
-1.90135e-08
7.39751e-11
-3.13477e-11
-1.90093e-08
7.66422e-11
-1.99055e-11
-1.90069e-08
7.53934e-11
-8.71224e-12
-1.90059e-08
7.51636e-11
1.79705e-12
-1.90059e-08
7.55256e-11
1.20071e-11
-1.90062e-08
7.52512e-11
2.24382e-11
-1.90067e-08
7.42912e-11
3.27856e-11
-1.90079e-08
7.39577e-11
4.32163e-11
-1.90105e-08
7.49223e-11
5.30328e-11
-1.90145e-08
7.21382e-11
6.08679e-11
-1.90189e-08
8.44154e-11
-1.90211e-08
7.23729e-11
7.32089e-11
-6.07093e-11
-6.41585e-11
-2.1358e-08
7.23227e-11
7.17645e-11
-5.45729e-11
-7.261e-11
-2.13545e-08
8.60038e-11
-4.39509e-11
-6.30767e-11
-2.13504e-08
7.32334e-11
-3.35867e-11
-6.75288e-11
-2.13456e-08
7.73866e-11
-2.21805e-11
-6.85958e-11
-2.13437e-08
7.73337e-11
-1.0318e-11
-7.03271e-11
-2.13429e-08
7.81562e-11
1.21161e-12
-7.10392e-11
-2.1343e-08
7.87531e-11
1.23669e-11
-7.12436e-11
-2.13433e-08
7.88542e-11
2.3521e-11
-7.06706e-11
-2.13436e-08
7.79854e-11
3.40357e-11
-6.89865e-11
-2.13447e-08
7.67724e-11
4.33788e-11
-6.78392e-11
-2.13469e-08
7.64711e-11
5.30021e-11
-6.3175e-11
-2.1352e-08
7.20004e-11
5.7872e-11
-7.26736e-11
-2.13562e-08
8.51534e-11
-6.36533e-11
-2.13598e-08
7.06735e-11
6.83388e-11
-6.97796e-11
-5.99267e-11
-2.13548e-08
8.60174e-11
-5.79338e-11
-6.34488e-11
-2.13509e-08
-4.28324e-11
-5.61526e-11
-2.13469e-08
-3.01586e-11
-5.91328e-11
-2.13424e-08
-1.84493e-11
-5.9507e-11
-2.13404e-08
-8.09647e-12
-6.05057e-11
-2.13386e-08
1.13937e-12
-6.07152e-11
-2.13383e-08
1.00365e-11
-6.09934e-11
-2.13384e-08
1.97528e-11
-6.12857e-11
-2.1339e-08
3.05658e-11
-6.06503e-11
-2.13409e-08
4.22772e-11
-6.04785e-11
-2.13433e-08
5.6404e-11
-5.73515e-11
-2.1348e-08
6.73013e-11
-6.44402e-11
-2.13522e-08
-6.04252e-11
-2.13562e-08
8.30519e-11
-6.03944e-11
-5.05168e-11
-2.13506e-08
7.40749e-11
-5.04849e-11
-4.9942e-11
-2.1347e-08
-3.75432e-11
-4.49999e-11
-2.13421e-08
-2.66872e-11
-4.69853e-11
-2.13388e-08
-1.65269e-11
-4.71153e-11
-2.13374e-08
-7.38467e-12
-4.79724e-11
-2.13365e-08
8.37109e-13
-4.82446e-11
-2.13365e-08
8.77261e-12
-4.85792e-11
-2.13366e-08
1.73333e-11
-4.90491e-11
-2.13366e-08
2.67808e-11
-4.87694e-11
-2.13376e-08
3.69382e-11
-4.89549e-11
-2.13392e-08
4.90934e-11
-4.69324e-11
-2.13427e-08
5.82974e-11
-5.16655e-11
-2.13477e-08
-5.16975e-11
-2.13514e-08
7.15251e-11
-6.5248e-11
-3.99863e-11
-2.13457e-08
7.90427e-11
-5.35925e-11
-3.72913e-11
-2.13424e-08
-3.98109e-11
-3.41031e-11
-2.13387e-08
-2.80079e-11
-3.5216e-11
-2.13363e-08
-1.70759e-11
-3.52236e-11
-2.13358e-08
-7.82994e-12
-3.59178e-11
-2.13353e-08
4.75665e-13
-3.64266e-11
-2.13356e-08
8.5726e-12
-3.67226e-11
-2.13356e-08
1.74342e-11
-3.70875e-11
-2.13354e-08
2.78346e-11
-3.70923e-11
-2.13358e-08
3.9098e-11
-3.74494e-11
-2.13364e-08
5.23419e-11
-3.6284e-11
-2.13389e-08
6.35807e-11
-3.93634e-11
-2.13427e-08
-4.14823e-11
-2.13461e-08
7.71108e-11
-6.67114e-11
-2.71841e-11
-2.13436e-08
7.99246e-11
-5.43325e-11
-2.41468e-11
-2.13401e-08
-4.00433e-11
-2.2315e-11
-2.1337e-08
-2.79034e-11
-2.28598e-11
-2.13354e-08
-1.71795e-11
-2.29567e-11
-2.13351e-08
-7.98974e-12
-2.32697e-11
-2.13349e-08
7.53491e-14
-2.3791e-11
-2.13354e-08
8.01113e-12
-2.40754e-11
-2.13354e-08
1.6918e-11
-2.44406e-11
-2.1335e-08
2.73528e-11
-2.46844e-11
-2.13352e-08
3.92584e-11
-2.49543e-11
-2.13355e-08
5.32885e-11
-2.42947e-11
-2.1337e-08
6.54647e-11
-2.60515e-11
-2.13401e-08
-2.8547e-11
-2.13436e-08
7.8514e-11
-6.86794e-11
-1.29706e-11
-2.13425e-08
8.13397e-11
-5.5541e-11
-1.10685e-11
-2.1338e-08
-4.09139e-11
-1.03585e-11
-2.13357e-08
-2.83401e-11
-1.06141e-11
-2.13346e-08
-1.75237e-11
-1.08147e-11
-2.13346e-08
-8.47344e-12
-1.10501e-11
-2.13348e-08
-4.3643e-13
-1.16457e-11
-2.13354e-08
7.55652e-12
-1.18705e-11
-2.13353e-08
1.66172e-11
-1.20788e-11
-2.13348e-08
2.75184e-11
-1.22796e-11
-2.13347e-08
4.00757e-11
-1.23159e-11
-2.13347e-08
5.4729e-11
-1.1899e-11
-2.13357e-08
6.7948e-11
-1.24131e-11
-2.13379e-08
-1.38042e-11
-2.13423e-08
8.05785e-11
-6.97947e-11
1.37474e-12
-2.13421e-08
8.25948e-11
-5.60482e-11
1.49428e-12
-2.1337e-08
-4.12488e-11
1.41351e-12
-2.13349e-08
-2.84895e-11
1.32391e-12
-2.13339e-08
-1.75893e-11
1.10676e-12
-2.13341e-08
-8.61958e-12
9.17042e-13
-2.13344e-08
-6.43546e-13
2.7748e-13
-2.13351e-08
7.32846e-12
1.69925e-13
-2.13352e-08
1.6434e-11
2.38221e-13
-2.13348e-08
2.75844e-11
1.91917e-13
-2.13346e-08
4.0374e-11
4.11729e-13
-2.13344e-08
5.53075e-11
7.30518e-13
-2.13353e-08
6.93045e-11
1.08161e-12
-2.13372e-08
1.42495e-12
-2.1342e-08
8.21141e-11
-6.99048e-11
1.52772e-11
-2.13418e-08
8.28232e-11
-5.61207e-11
1.35213e-11
-2.13366e-08
-4.14548e-11
1.2937e-11
-2.13344e-08
-2.87575e-11
1.30143e-11
-2.13333e-08
-1.79068e-11
1.28811e-11
-2.13333e-08
-8.8567e-12
1.28681e-11
-2.13336e-08
-7.6547e-13
1.23247e-11
-2.13344e-08
7.34188e-12
1.23318e-11
-2.13345e-08
1.65549e-11
1.26768e-11
-2.13343e-08
2.77959e-11
1.27838e-11
-2.13341e-08
4.06894e-11
1.31673e-11
-2.13341e-08
5.57045e-11
1.32661e-11
-2.13351e-08
6.97919e-11
1.42431e-11
-2.1337e-08
1.62601e-11
-2.13419e-08
8.27556e-11
-6.83157e-11
2.85331e-11
-2.13417e-08
8.10373e-11
-5.54963e-11
2.57961e-11
-2.13367e-08
-4.12528e-11
2.41062e-11
-2.1334e-08
-2.89729e-11
2.46721e-11
-2.13325e-08
-1.83658e-11
2.45153e-11
-2.13323e-08
-9.28165e-12
2.46216e-11
-2.13325e-08
-1.04445e-12
2.43012e-11
-2.13331e-08
7.28433e-12
2.44316e-11
-2.13333e-08
1.67041e-11
2.49166e-11
-2.13332e-08
2.79216e-11
2.51457e-11
-2.13334e-08
4.08254e-11
2.55462e-11
-2.13337e-08
5.56543e-11
2.51821e-11
-2.1335e-08
6.89438e-11
2.7232e-11
-2.13375e-08
3.01947e-11
-2.1342e-08
8.1674e-11
-6.63384e-11
4.01517e-11
-2.13425e-08
7.92941e-11
-5.41148e-11
3.78893e-11
-2.13384e-08
-4.04722e-11
3.49546e-11
-2.13346e-08
-2.88857e-11
3.6203e-11
-2.13325e-08
-1.81369e-11
3.59491e-11
-2.1332e-08
-9.14907e-12
3.65104e-11
-2.13319e-08
-1.07611e-12
3.65079e-11
-2.13323e-08
7.33786e-12
3.66865e-11
-2.13326e-08
1.69213e-11
3.70705e-11
-2.13329e-08
2.80892e-11
3.70736e-11
-2.13334e-08
4.02687e-11
3.75362e-11
-2.13342e-08
5.45073e-11
3.64689e-11
-2.13361e-08
6.71251e-11
3.97208e-11
-2.13395e-08
4.21184e-11
-2.13432e-08
8.01114e-11
-6.47087e-11
4.95007e-11
-2.13448e-08
7.78937e-11
-5.3434e-11
4.90917e-11
-2.13407e-08
-4.00567e-11
4.46561e-11
-2.13361e-08
-2.89214e-11
4.69889e-11
-2.13331e-08
-1.8336e-11
4.70852e-11
-2.1332e-08
-8.99897e-12
4.79703e-11
-2.13317e-08
-7.15188e-13
4.83059e-11
-2.1332e-08
7.74358e-12
4.85253e-11
-2.13323e-08
1.73878e-11
4.87103e-11
-2.13328e-08
2.84772e-11
4.82975e-11
-2.13337e-08
4.04263e-11
4.84203e-11
-2.1335e-08
5.43161e-11
4.63862e-11
-2.1338e-08
6.56747e-11
5.11705e-11
-2.13421e-08
5.13265e-11
-2.13457e-08
7.88987e-11
-5.93447e-11
5.78429e-11
-2.13503e-08
7.24029e-11
-5.01923e-11
6.13016e-11
-2.13459e-08
-3.79475e-11
5.43471e-11
-2.13401e-08
-2.7623e-11
5.79571e-11
-2.1336e-08
-1.77839e-11
5.86179e-11
-2.13341e-08
-8.70589e-12
5.97741e-11
-2.1333e-08
-4.06134e-13
6.03634e-11
-2.13331e-08
7.93664e-12
6.06299e-11
-2.13335e-08
1.73349e-11
6.04987e-11
-2.13343e-08
2.77651e-11
5.97263e-11
-2.13358e-08
3.86395e-11
5.9386e-11
-2.1338e-08
5.1175e-11
5.61208e-11
-2.1342e-08
6.04059e-11
6.31947e-11
-2.13473e-08
5.92752e-11
-2.13512e-08
7.33878e-11
-6.84328e-11
6.07348e-11
-2.13552e-08
8.46595e-11
-5.72564e-11
6.94386e-11
-2.13508e-08
-4.27754e-11
5.99225e-11
-2.1346e-08
-3.07066e-11
6.50154e-11
-2.13407e-08
-1.9539e-11
6.64233e-11
-2.13381e-08
-9.23547e-12
6.85039e-11
-2.13361e-08
-1.43275e-13
7.00146e-11
-2.13358e-08
8.94607e-12
7.01803e-11
-2.13361e-08
1.95466e-11
6.91116e-11
-2.13373e-08
3.12811e-11
6.73855e-11
-2.13397e-08
4.37514e-11
6.62751e-11
-2.13425e-08
5.84013e-11
6.13953e-11
-2.13476e-08
6.93632e-11
7.10676e-11
-2.1352e-08
6.18979e-11
-2.1356e-08
8.51672e-11
-5.92103e-11
-2.13591e-08
6.85859e-11
7.02023e-11
-5.39736e-11
-2.13553e-08
8.26796e-11
-4.37083e-11
-2.13505e-08
6.91693e-11
-3.37179e-11
-2.13451e-08
7.38451e-11
-2.27443e-11
-2.13428e-08
7.43665e-11
-1.11594e-11
-2.13418e-08
7.57414e-11
-6.47167e-14
-2.13419e-08
7.75313e-11
1.12563e-11
-2.13422e-08
7.75009e-11
2.31666e-11
-2.13427e-08
7.62001e-11
3.4536e-11
-2.13441e-08
7.50951e-11
4.46725e-11
-2.13466e-08
7.48861e-11
5.48471e-11
-2.13518e-08
7.03603e-11
5.98728e-11
-2.13563e-08
8.38964e-11
-2.13598e-08
7.03652e-11
6.91611e-11
-5.58347e-11
-6.09082e-11
-2.3903e-08
6.31969e-11
6.18326e-11
-5.48542e-11
-7.48903e-11
-2.39002e-08
8.27519e-11
-4.87037e-11
-6.88819e-11
-2.38945e-08
7.07647e-11
-3.93784e-11
-7.91664e-11
-2.38901e-08
7.99151e-11
-2.77454e-11
-8.46555e-11
-2.38872e-08
8.3932e-11
-1.40934e-11
-8.98999e-11
-2.38863e-08
8.79619e-11
-3.59435e-13
-9.22088e-11
-2.38866e-08
9.03099e-11
1.33618e-11
-9.17963e-11
-2.3887e-08
8.96221e-11
2.6691e-11
-8.85475e-11
-2.38876e-08
8.63931e-11
3.78118e-11
-8.24603e-11
-2.38892e-08
8.12134e-11
4.65877e-11
-7.63478e-11
-2.38924e-08
7.68123e-11
5.22803e-11
-6.55319e-11
-2.3897e-08
6.73572e-11
5.27302e-11
-7.17917e-11
-2.39024e-08
8.01291e-11
-5.73369e-11
-2.39048e-08
6.02655e-11
5.89033e-11
-7.00912e-11
-6.1153e-11
-2.38999e-08
8.11623e-11
-6.28889e-11
-6.96161e-11
-2.38962e-08
-5.20531e-11
-6.69913e-11
-2.38905e-08
-3.99084e-11
-7.56848e-11
-2.38862e-08
-2.7126e-11
-8.03994e-11
-2.38832e-08
-1.34684e-11
-8.45527e-11
-2.38812e-08
2.53332e-13
-8.65861e-11
-2.38809e-08
1.37819e-11
-8.63842e-11
-2.38813e-08
2.66242e-11
-8.38876e-11
-2.38824e-08
3.87591e-11
-7.9593e-11
-2.38849e-08
5.03234e-11
-7.40486e-11
-2.38883e-08
6.06894e-11
-6.47938e-11
-2.38928e-08
6.71875e-11
-6.70278e-11
-2.38984e-08
-5.80933e-11
-2.39017e-08
7.81829e-11
-6.43502e-11
-5.50924e-11
-2.38936e-08
7.01544e-11
-5.99921e-11
-5.92721e-11
-2.38899e-08
-5.14826e-11
-5.902e-11
-2.38831e-08
-4.0682e-11
-6.62239e-11
-2.388e-08
-2.82474e-11
-7.03217e-11
-2.38775e-08
-1.43964e-11
-7.38856e-11
-2.38763e-08
4.21139e-13
-7.61388e-11
-2.38764e-08
1.48114e-11
-7.61427e-11
-2.38766e-08
2.78692e-11
-7.42406e-11
-2.38771e-08
3.99276e-11
-7.09572e-11
-2.38787e-08
5.03654e-11
-6.65692e-11
-2.38818e-08
5.8006e-11
-5.85329e-11
-2.3885e-08
6.17727e-11
-5.80916e-11
-2.38918e-08
-5.31785e-11
-2.38952e-08
6.7259e-11
-7.49252e-11
-4.44332e-11
-2.38884e-08
7.98896e-11
-6.91741e-11
-4.55069e-11
-2.38847e-08
-5.91807e-11
-4.6352e-11
-2.3879e-08
-4.65415e-11
-5.14829e-11
-2.38769e-08
-3.22399e-11
-5.49805e-11
-2.38753e-08
-1.62791e-11
-5.84282e-11
-2.38746e-08
1.8693e-13
-6.04741e-11
-2.38749e-08
1.65303e-11
-6.07886e-11
-2.3875e-08
3.23361e-11
-5.9798e-11
-2.3875e-08
4.59983e-11
-5.66749e-11
-2.3876e-08
5.8173e-11
-5.36883e-11
-2.38779e-08
6.77494e-11
-4.78045e-11
-2.38804e-08
7.30608e-11
-4.59478e-11
-2.38861e-08
-4.38472e-11
-2.38896e-08
7.75653e-11
-8.09907e-11
-3.02194e-11
-2.38846e-08
8.45059e-11
-7.3787e-11
-2.96012e-11
-2.38806e-08
-6.33893e-11
-3.05127e-11
-2.38753e-08
-4.99121e-11
-3.38348e-11
-2.38741e-08
-3.46891e-11
-3.62723e-11
-2.3873e-08
-1.7905e-11
-3.86017e-11
-2.38725e-08
-2.8121e-13
-4.04696e-11
-2.38729e-08
1.73199e-11
-4.10276e-11
-2.3873e-08
3.4186e-11
-4.08226e-11
-2.38727e-08
4.96182e-11
-3.91862e-11
-2.38733e-08
6.29912e-11
-3.6987e-11
-2.38747e-08
7.31895e-11
-3.3334e-11
-2.38761e-08
8.02266e-11
-3.15334e-11
-2.38815e-08
-3.07492e-11
-2.38853e-08
8.33003e-11
-8.60923e-11
-1.33271e-11
-2.38829e-08
8.86231e-11
-7.79296e-11
-1.20393e-11
-2.38777e-08
-6.6928e-11
-1.23042e-11
-2.38732e-08
-5.31966e-11
-1.37511e-11
-2.38726e-08
-3.73628e-11
-1.49207e-11
-2.38717e-08
-1.96623e-11
-1.62929e-11
-2.38713e-08
-1.069e-12
-1.76451e-11
-2.38719e-08
1.76615e-11
-1.83119e-11
-2.38718e-08
3.5747e-11
-1.8699e-11
-2.38714e-08
5.2233e-11
-1.84412e-11
-2.38717e-08
6.68149e-11
-1.77296e-11
-2.38727e-08
7.84965e-11
-1.59731e-11
-2.38735e-08
8.67018e-11
-1.48879e-11
-2.38781e-08
-1.45549e-11
-2.38832e-08
8.88395e-11
-8.79663e-11
3.74155e-12
-2.38823e-08
9.07267e-11
-7.92482e-11
5.33172e-12
-2.38764e-08
-6.82322e-11
6.54006e-12
-2.38722e-08
-5.4448e-11
7.13311e-12
-2.38717e-08
-3.84406e-11
7.19887e-12
-2.38708e-08
-2.0604e-11
7.0406e-12
-2.38706e-08
-1.78991e-12
6.36483e-12
-2.38712e-08
1.73193e-11
5.69701e-12
-2.38712e-08
3.59315e-11
4.86915e-12
-2.38707e-08
5.31956e-11
3.85583e-12
-2.3871e-08
6.85809e-11
3.06492e-12
-2.3872e-08
8.05908e-11
2.80111e-12
-2.38726e-08
8.95213e-11
2.45494e-12
-2.38766e-08
2.46538e-12
-2.38824e-08
9.22185e-11
-8.71365e-11
1.99515e-11
-2.38823e-08
8.97282e-11
-7.82509e-11
2.11502e-11
-2.38763e-08
-6.74099e-11
2.36734e-11
-2.38719e-08
-5.39943e-11
2.66986e-11
-2.38712e-08
-3.8502e-11
2.82869e-11
-2.38703e-08
-2.11165e-11
2.94854e-11
-2.387e-08
-2.56403e-12
2.93316e-11
-2.38705e-08
1.64385e-11
2.87557e-11
-2.38705e-08
3.50733e-11
2.75683e-11
-2.38703e-08
5.24754e-11
2.55867e-11
-2.38706e-08
6.78428e-11
2.34191e-11
-2.38717e-08
8.03939e-11
2.04849e-11
-2.38723e-08
8.99266e-11
1.91397e-11
-2.38765e-08
1.86646e-11
-2.38823e-08
9.2883e-11
-8.20605e-11
3.40124e-11
-2.38829e-08
8.43659e-11
-7.49246e-11
3.53074e-11
-2.38773e-08
-6.48681e-11
3.75999e-11
-2.38723e-08
-5.23292e-11
4.31446e-11
-2.38711e-08
-3.77533e-11
4.62014e-11
-2.387e-08
-2.11683e-11
4.86161e-11
-2.38696e-08
-3.33879e-12
4.90841e-11
-2.38699e-08
1.50844e-11
4.86972e-11
-2.387e-08
3.31957e-11
4.72601e-11
-2.387e-08
5.00142e-11
4.42383e-11
-2.38704e-08
6.51807e-11
4.07571e-11
-2.38717e-08
7.77981e-11
3.58545e-11
-2.38727e-08
8.66902e-11
3.41087e-11
-2.38776e-08
3.31633e-11
-2.38829e-08
8.93523e-11
-7.4479e-11
4.39784e-11
-2.38847e-08
7.78315e-11
-6.91226e-11
4.64582e-11
-2.38802e-08
-6.04803e-11
4.82762e-11
-2.38743e-08
-4.8502e-11
5.47756e-11
-2.38723e-08
-3.53531e-11
5.9252e-11
-2.38707e-08
-2.02746e-11
6.32593e-11
-2.38701e-08
-3.81442e-12
6.4329e-11
-2.38704e-08
1.3272e-11
6.42313e-11
-2.38705e-08
3.01803e-11
6.2723e-11
-2.38708e-08
4.63297e-11
5.83689e-11
-2.38714e-08
6.11043e-11
5.44018e-11
-2.38732e-08
7.21715e-11
4.82692e-11
-2.3875e-08
7.97801e-11
4.63378e-11
-2.38808e-08
4.40055e-11
-2.3885e-08
8.36799e-11
-6.74825e-11
5.04497e-11
-2.38886e-08
7.22242e-11
-6.20985e-11
5.44849e-11
-2.38845e-08
-5.43668e-11
5.53203e-11
-2.3878e-08
-4.42529e-11
6.2668e-11
-2.38751e-08
-3.26799e-11
6.83411e-11
-2.38728e-08
-1.90951e-11
7.27782e-11
-2.38718e-08
-4.06253e-12
7.45641e-11
-2.38719e-08
1.16459e-11
7.46736e-11
-2.3872e-08
2.72559e-11
7.30716e-11
-2.38725e-08
4.20473e-11
6.89975e-11
-2.38736e-08
5.55116e-11
6.42762e-11
-2.38761e-08
6.59984e-11
5.64422e-11
-2.3879e-08
7.30708e-11
5.58947e-11
-2.38852e-08
5.14631e-11
-2.38891e-08
7.8443e-11
-5.64238e-11
5.32967e-11
-2.3894e-08
6.23062e-11
-5.30442e-11
6.06383e-11
-2.389e-08
-4.60973e-11
5.77444e-11
-2.38824e-08
-3.77323e-11
6.66617e-11
-2.38788e-08
-2.78375e-11
7.23203e-11
-2.38756e-08
-1.64314e-11
7.66996e-11
-2.3874e-08
-3.95375e-12
7.95509e-11
-2.38736e-08
9.47047e-12
7.97795e-11
-2.38738e-08
2.31641e-11
7.79106e-11
-2.38746e-08
3.59419e-11
7.45217e-11
-2.38764e-08
4.7605e-11
6.92609e-11
-2.38797e-08
5.72203e-11
6.04754e-11
-2.38834e-08
6.22946e-11
6.35867e-11
-2.38908e-08
5.54943e-11
-2.38948e-08
6.84037e-11
-6.29457e-11
5.07589e-11
-2.39004e-08
7.52121e-11
-5.63564e-11
6.37152e-11
-2.38967e-08
-4.66598e-11
5.6087e-11
-2.38904e-08
-3.6492e-11
6.61782e-11
-2.38856e-08
-2.60537e-11
7.15723e-11
-2.3882e-08
-1.49465e-11
7.71281e-11
-2.38797e-08
-3.43829e-12
8.12869e-11
-2.3879e-08
8.9205e-12
8.17376e-11
-2.38791e-08
2.20764e-11
7.92927e-11
-2.38801e-08
3.54182e-11
7.49599e-11
-2.38825e-08
4.84502e-11
7.01605e-11
-2.38863e-08
6.0485e-11
6.0478e-11
-2.38913e-08
6.83196e-11
6.80906e-11
-2.38974e-08
5.43491e-11
-2.39012e-08
8.02066e-11
-4.9545e-11
-2.39035e-08
5.40389e-11
5.66609e-11
-4.92871e-11
-2.39006e-08
7.2302e-11
-4.41202e-11
-2.38947e-08
5.74513e-11
-3.6199e-11
-2.38899e-08
6.54e-11
-2.66425e-11
-2.38868e-08
6.89467e-11
-1.49259e-11
-2.38855e-08
7.33227e-11
-2.54679e-12
-2.38852e-08
7.77837e-11
1.04408e-11
-2.38853e-08
7.85732e-11
2.36678e-11
-2.38857e-08
7.64088e-11
3.54802e-11
-2.38871e-08
7.3403e-11
4.55542e-11
-2.38904e-08
7.09534e-11
5.26462e-11
-2.38953e-08
6.32286e-11
5.43554e-11
-2.39014e-08
7.73579e-11
-2.39045e-08
6.10058e-11
5.84155e-11
-4.64434e-11
-4.95534e-11
-2.66719e-08
4.98771e-11
4.83732e-11
-5.23632e-11
-6.82013e-11
-2.66684e-08
7.43134e-11
-4.9616e-11
-6.47391e-11
-2.66632e-08
6.30155e-11
-4.38605e-11
-8.06748e-11
-2.66571e-08
7.68069e-11
-3.31303e-11
-9.11762e-11
-2.66537e-08
8.51591e-11
-1.88879e-11
-9.97634e-11
-2.66521e-08
9.28012e-11
-3.45281e-12
-1.03915e-10
-2.66519e-08
9.7478e-11
1.23913e-11
-1.02504e-10
-2.66524e-08
9.61378e-11
2.73336e-11
-9.68652e-11
-2.66531e-08
9.08716e-11
3.92803e-11
-8.69703e-11
-2.66551e-08
8.25267e-11
4.63799e-11
-7.57931e-11
-2.66585e-08
7.45494e-11
5.07018e-11
-5.9916e-11
-2.66642e-08
6.17362e-11
4.72877e-11
-6.45256e-11
-2.66686e-08
7.41065e-11
-4.67862e-11
-2.66711e-08
5.11783e-11
5.1642e-11
-6.4415e-11
-5.48813e-11
-2.66678e-08
7.13646e-11
-6.45453e-11
-6.72498e-11
-2.66628e-08
-5.7403e-11
-6.84302e-11
-2.66568e-08
-4.86673e-11
-8.29708e-11
-2.66504e-08
-3.56654e-11
-9.33136e-11
-2.66464e-08
-1.98536e-11
-1.01037e-10
-2.66433e-08
-2.47593e-12
-1.04675e-10
-2.66425e-08
1.52667e-11
-1.03678e-10
-2.6643e-08
3.12861e-11
-9.82407e-11
-2.66447e-08
4.46193e-11
-8.88169e-11
-2.66482e-08
5.43116e-11
-7.7722e-11
-2.66524e-08
6.29566e-11
-6.25702e-11
-2.66586e-08
6.44004e-11
-6.16257e-11
-2.66637e-08
-4.96622e-11
-2.66677e-08
7.31742e-11
-6.12304e-11
-5.05718e-11
-2.66617e-08
6.02095e-11
-6.59189e-11
-5.79695e-11
-2.66561e-08
-6.22025e-11
-6.23603e-11
-2.66484e-08
-5.42503e-11
-7.58492e-11
-2.66425e-08
-4.01768e-11
-8.48527e-11
-2.66386e-08
-2.21933e-11
-9.14593e-11
-2.66361e-08
-1.40047e-12
-9.51902e-11
-2.66357e-08
1.95571e-11
-9.45767e-11
-2.66362e-08
3.73615e-11
-8.98985e-11
-2.66374e-08
5.10467e-11
-8.20609e-11
-2.66405e-08
5.93186e-11
-7.2031e-11
-2.66448e-08
6.39201e-11
-5.75348e-11
-2.66506e-08
6.03591e-11
-5.25382e-11
-2.66577e-08
-4.51215e-11
-2.66623e-08
6.10884e-11
-7.69414e-11
-4.2433e-11
-2.66545e-08
7.35153e-11
-8.05242e-11
-4.60457e-11
-2.66483e-08
-7.5455e-11
-5.14047e-11
-2.66412e-08
-6.46731e-11
-6.22236e-11
-2.66358e-08
-4.74092e-11
-6.88681e-11
-2.66324e-08
-2.58158e-11
-7.42194e-11
-2.66302e-08
-8.69026e-13
-7.74771e-11
-2.66298e-08
2.38942e-11
-7.73415e-11
-2.66301e-08
4.54995e-11
-7.4316e-11
-2.66313e-08
6.2728e-11
-6.85806e-11
-2.66341e-08
7.33848e-11
-6.10583e-11
-2.66379e-08
7.89035e-11
-4.92105e-11
-2.66433e-08
7.61421e-11
-4.2573e-11
-2.665e-08
-3.80969e-11
-2.66554e-08
7.3842e-11
-8.68324e-11
-2.90253e-11
-2.66501e-08
8.09881e-11
-9.00819e-11
-3.01644e-11
-2.66431e-08
-8.39236e-11
-3.40452e-11
-2.66357e-08
-7.11666e-11
-4.0774e-11
-2.66308e-08
-5.22767e-11
-4.53077e-11
-2.66275e-08
-2.84948e-11
-4.93085e-11
-2.66256e-08
-1.01918e-12
-5.20474e-11
-2.66253e-08
2.62372e-11
-5.23932e-11
-2.66254e-08
5.05725e-11
-5.08807e-11
-2.66263e-08
7.02331e-11
-4.72537e-11
-2.66288e-08
8.29555e-11
-4.24604e-11
-2.66325e-08
8.95568e-11
-3.51239e-11
-2.66374e-08
8.70215e-11
-2.9412e-11
-2.66445e-08
-2.64115e-11
-2.66509e-08
8.16508e-11
-9.4164e-11
-1.25588e-11
-2.66478e-08
8.72407e-11
-9.72322e-11
-1.17502e-11
-2.66392e-08
-9.0711e-11
-1.25309e-11
-2.66323e-08
-7.71276e-11
-1.47408e-11
-2.66276e-08
-5.70163e-11
-1.68277e-11
-2.66246e-08
-3.09712e-11
-1.90381e-11
-2.66225e-08
-1.4365e-12
-2.09779e-11
-2.66222e-08
2.82594e-11
-2.17441e-11
-2.66222e-08
5.45523e-11
-2.18579e-11
-2.66229e-08
7.55363e-11
-2.07254e-11
-2.66251e-08
9.0357e-11
-1.90141e-11
-2.66284e-08
9.81761e-11
-1.62872e-11
-2.66333e-08
9.60405e-11
-1.34476e-11
-2.66399e-08
-1.20612e-11
-2.66482e-08
8.93119e-11
-9.69808e-11
4.40515e-12
-2.6647e-08
9.04389e-11
-9.93515e-11
7.17684e-12
-2.66374e-08
-9.27796e-11
9.74716e-12
-2.66307e-08
-7.91312e-11
1.14964e-11
-2.66261e-08
-5.8895e-11
1.2357e-11
-2.66232e-08
-3.24253e-11
1.261e-11
-2.66213e-08
-2.31567e-12
1.2038e-11
-2.66209e-08
2.82127e-11
1.09955e-11
-2.66209e-08
5.55896e-11
9.16612e-12
-2.66215e-08
7.73628e-11
7.54548e-12
-2.66235e-08
9.31151e-11
5.98557e-12
-2.66266e-08
1.01907e-10
4.75085e-12
-2.66313e-08
1.00684e-10
3.79844e-12
-2.66376e-08
3.05227e-12
-2.66471e-08
9.41636e-11
-9.48372e-11
2.01962e-11
-2.66473e-08
8.77547e-11
-9.72938e-11
2.39066e-11
-2.66379e-08
-9.07366e-11
2.94645e-11
-2.66311e-08
-7.74603e-11
3.5352e-11
-2.66263e-08
-5.81187e-11
3.89528e-11
-2.66233e-08
-3.29593e-11
4.16403e-11
-2.66213e-08
-3.69571e-12
4.23278e-11
-2.66209e-08
2.64194e-11
4.12628e-11
-2.66208e-08
5.36155e-11
3.82906e-11
-2.66214e-08
7.55826e-11
3.43072e-11
-2.66233e-08
9.17482e-11
2.99336e-11
-2.66264e-08
1.0104e-10
2.46233e-11
-2.66312e-08
1.00302e-10
1.98572e-11
-2.66376e-08
1.7268e-11
-2.66471e-08
9.4e-11
-8.70498e-11
3.28778e-11
-2.66485e-08
7.98367e-11
-9.0756e-11
3.71459e-11
-2.66401e-08
-8.5647e-11
4.45876e-11
-2.66331e-08
-7.38934e-11
5.47404e-11
-2.66281e-08
-5.58064e-11
6.08283e-11
-2.66247e-08
-3.23355e-11
6.53398e-11
-2.66225e-08
-4.84659e-12
6.70092e-11
-2.66219e-08
2.37629e-11
6.62215e-11
-2.66217e-08
4.9614e-11
6.27667e-11
-2.66223e-08
7.09996e-11
5.70776e-11
-2.66243e-08
8.66493e-11
5.02649e-11
-2.66277e-08
9.53786e-11
4.05786e-11
-2.66326e-08
9.41056e-11
3.34882e-11
-2.66395e-08
2.956e-11
-2.6648e-08
8.79417e-11
-7.55898e-11
4.13179e-11
-2.66512e-08
7.0063e-11
-7.99268e-11
4.65328e-11
-2.66443e-08
-7.67517e-11
5.34987e-11
-2.66373e-08
-6.72911e-11
6.61753e-11
-2.66319e-08
-5.10473e-11
7.52873e-11
-2.66282e-08
-3.01599e-11
8.16763e-11
-2.66258e-08
-5.71276e-12
8.44047e-11
-2.66249e-08
1.99664e-11
8.4068e-11
-2.66248e-08
4.38088e-11
8.03933e-11
-2.66255e-08
6.39523e-11
7.31809e-11
-2.66276e-08
7.77076e-11
6.40907e-11
-2.66314e-08
8.5153e-11
5.1291e-11
-2.66364e-08
8.36759e-11
4.42039e-11
-2.66438e-08
3.86934e-11
-2.66507e-08
7.90837e-11
-6.36814e-11
4.42378e-11
-2.66553e-08
6.16779e-11
-6.73937e-11
5.09347e-11
-2.66496e-08
-6.50887e-11
5.57051e-11
-2.66426e-08
-5.87873e-11
6.95701e-11
-2.6637e-08
-4.58337e-11
8.04283e-11
-2.66332e-08
-2.76877e-11
8.8658e-11
-2.66306e-08
-6.14529e-12
9.23799e-11
-2.66295e-08
1.66e-11
9.26479e-11
-2.66293e-08
3.78423e-11
8.90163e-11
-2.66301e-08
5.50535e-11
8.0719e-11
-2.66324e-08
6.6239e-11
7.04887e-11
-2.66361e-08
7.31488e-11
5.62375e-11
-2.66418e-08
7.20214e-11
5.09834e-11
-2.6649e-08
4.31996e-11
-2.6655e-08
7.07211e-11
-4.85266e-11
4.49362e-11
-2.66618e-08
4.9637e-11
-5.2963e-11
5.49828e-11
-2.66568e-08
-5.08656e-11
5.4539e-11
-2.66493e-08