/*--------------------------------*- C++ -*----------------------------------*\
| =========                 |                                                 |
| \\      /  F ield         | OpenFOAM: The Open Source CFD Toolbox           |
|  \\    /   O peration     | Version:  v2106                                 |
|   \\  /    A nd           | Website:  www.openfoam.com                      |
|    \\/     M anipulation  |                                                 |
\*---------------------------------------------------------------------------*/
FoamFile
{
    version     2.0;
    format      ascii;
    arch        "LSB;label=32;scalar=64";
    class       surfaceScalarField;
    location    "0.000183";
    object      phi;
}
// * * * * * * * * * * * * * * * * * * * * * * * * * * * * * * * * * * * * * //

dimensions      [1 0 -1 0 0 0 0];

internalField   nonuniform List<scalar> 
51992
(
-6.65033e-06
9.20527e-06
-5.32748e-06
7.97228e-06
-1.04081e-05
-5.62225e-06
6.49179e-06
-5.48763e-06
-7.37508e-06
-4.84487e-06
4.26658e-06
-6.04785e-06
-4.89535e-06
-4.58377e-06
2.38589e-06
-6.55531e-06
-2.5072e-06
-4.62719e-06
1.39372e-06
-6.94154e-06
-1.24632e-06
-4.96629e-06
7.80567e-07
-7.1619e-06
-3.56145e-07
-5.46731e-06
6.83433e-07
-7.3112e-06
-9.66932e-08
-6.17522e-06
6.4862e-07
-7.35206e-06
1.60347e-07
-6.97394e-06
6.79197e-07
-7.21661e-06
2.68505e-07
-7.78072e-06
7.39275e-08
-6.75974e-06
9.68574e-07
-8.59669e-06
-1.09034e-06
-5.91533e-06
2.17364e-06
-9.44033e-06
-2.98681e-06
-4.9304e-06
4.10801e-06
-1.04257e-05
-5.18057e-06
-4.07726e-06
6.4047e-06
-8.41284e-06
-3.74083e-06
-1.15079e-05
9.68498e-06
-3.9481e-06
8.07453e-06
-5.87229e-06
5.20689e-06
-3.02723e-06
5.6898e-06
-6.19174e-06
-2.46227e-06
3.81821e-06
-6.54748e-06
-2.3916e-06
2.42061e-06
-6.8418e-06
-2.58736e-06
1.68473e-06
-7.05316e-06
-3.00807e-06
1.30391e-06
-7.16028e-06
-3.51587e-06
1.29997e-06
-7.27385e-06
-4.10821e-06
1.36203e-06
-7.33867e-06
-4.67314e-06
1.38563e-06
-7.29183e-06
-5.31571e-06
9.05762e-07
-7.00815e-06
-6.01094e-06
-1.63195e-07
-6.39895e-06
-6.7826e-06
-1.94254e-06
-5.55997e-06
-7.48564e-06
-4.22166e-06
-4.67631e-06
-7.53403e-06
-4.07051e-06
-8.14734e-06
-2.27953e-06
7.03119e-06
-6.55833e-06
3.41963e-06
-1.52871e-06
4.99279e-06
-6.78288e-06
-1.15298e-06
3.47961e-06
-6.9447e-06
-1.17251e-06
2.48623e-06
-7.05237e-06
-1.37404e-06
1.95523e-06
-7.14842e-06
-1.71421e-06
1.74516e-06
-7.18814e-06
-2.09039e-06
1.78718e-06
-7.24961e-06
-2.50467e-06
1.88821e-06
-7.28829e-06
-2.87505e-06
1.86685e-06
-7.26755e-06
-3.30985e-06
1.48601e-06
-7.10717e-06
-3.80165e-06
5.32504e-07
-6.70496e-06
-4.38536e-06
-1.07909e-06
-6.06937e-06
-4.97075e-06
-3.33531e-06
-5.33473e-06
-6.6664e-06
-4.81356e-06
-5.57262e-06
-1.20604e-06
6.20075e-06
-7.08116e-06
2.0895e-06
-7.07106e-07
4.50988e-06
-7.16124e-06
-5.14453e-07
3.29274e-06
-7.1737e-06
-6.00367e-07
2.58783e-06
-7.14725e-06
-7.90156e-07
2.19662e-06
-7.16624e-06
-1.031e-06
2.08474e-06
-7.18203e-06
-1.2664e-06
2.13986e-06
-7.21599e-06
-1.48911e-06
2.22605e-06
-7.22797e-06
-1.67922e-06
2.16007e-06
-7.21223e-06
-1.87102e-06
1.79824e-06
-7.12093e-06
-2.09795e-06
9.27672e-07
-6.86992e-06
-2.3577e-06
-5.731e-07
-6.44523e-06
-2.56505e-06
-2.84511e-06
-5.91327e-06
-6.0835e-06
-5.51182e-06
-2.88629e-06
-7.64905e-07
5.54343e-06
-7.33378e-06
1.41741e-06
-4.6986e-07
4.19689e-06
-7.29889e-06
-4.04759e-07
3.2188e-06
-7.24194e-06
-4.37796e-07
2.63596e-06
-7.17733e-06
-5.7037e-07
2.37052e-06
-7.16092e-06
-7.13043e-07
2.31587e-06
-7.17165e-06
-8.34812e-07
2.37236e-06
-7.17502e-06
-9.25203e-07
2.42939e-06
-7.17272e-06
-9.84722e-07
2.32957e-06
-7.15975e-06
-1.01856e-06
1.94845e-06
-7.09852e-06
-1.06151e-06
1.12839e-06
-6.95421e-06
-1.08011e-06
-3.30323e-07
-6.6921e-06
-1.07885e-06
-2.58743e-06
-6.35638e-06
-5.67293e-06
-6.12011e-06
-1.25362e-06
-8.1514e-07
5.00538e-06
-7.38929e-06
1.33389e-06
-5.28086e-07
3.88877e-06
-7.30351e-06
-4.31912e-07
3.11705e-06
-7.23438e-06
-4.70355e-07
2.68847e-06
-7.17117e-06
-5.67035e-07
2.50691e-06
-7.14068e-06
-6.45188e-07
2.46876e-06
-7.13848e-06
-6.88676e-07
2.50854e-06
-7.13119e-06
-6.93456e-07
2.5324e-06
-7.12136e-06
-6.56229e-07
2.40075e-06
-7.11228e-06
-5.82014e-07
1.99679e-06
-7.07312e-06
-4.61953e-07
1.17159e-06
-6.98494e-06
-2.7774e-07
-3.12096e-07
-6.8236e-06
-6.84563e-08
-2.57298e-06
-6.63401e-06
-5.53983e-06
-6.49302e-06
4.42635e-09
-1.0159e-06
4.59923e-06
-7.34216e-06
1.39974e-06
-7.31639e-07
3.58777e-06
-7.2509e-06
-5.98328e-07
2.9824e-06
-7.19752e-06
-5.89076e-07
2.69381e-06
-7.14586e-06
-6.22253e-07
2.57789e-06
-7.11628e-06
-6.479e-07
2.55335e-06
-7.10238e-06
-6.49847e-07
2.5794e-06
-7.08801e-06
-6.16002e-07
2.57662e-06
-7.07592e-06
-5.43327e-07
2.42197e-06
-7.06672e-06
-4.30631e-07
1.99873e-06
-7.04744e-06
-2.51805e-07
1.14336e-06
-6.99387e-06
2.59759e-08
-4.00627e-07
-6.926e-06
3.68833e-07
-2.70521e-06
-6.81851e-06
-5.65553e-06
-6.69763e-06
6.96128e-07
-1.19497e-06
4.38711e-06
-7.26457e-06
1.39125e-06
-9.74272e-07
3.35826e-06
-7.18745e-06
-8.13614e-07
2.82528e-06
-7.14889e-06
-7.29917e-07
2.61527e-06
-7.10526e-06
-6.84197e-07
2.56529e-06
-7.09137e-06
-6.67479e-07
2.57862e-06
-7.06974e-06
-6.57816e-07
2.61792e-06
-7.05244e-06
-6.27456e-07
2.6051e-06
-7.03889e-06
-5.54076e-07
2.42577e-06
-7.03106e-06
-4.15107e-07
1.96123e-06
-7.0262e-06
-1.39839e-07
1.00842e-06
-7.00733e-06
2.73359e-07
-6.38622e-07
-6.97751e-06
7.7328e-07
-2.99574e-06
-6.88921e-06
-6.00127e-06
-6.73023e-06
1.34262e-06
-1.20427e-06
4.32883e-06
-7.14673e-06
1.25284e-06
-1.05332e-06
3.19645e-06
-7.10988e-06
-9.09779e-07
2.67261e-06
-7.09465e-06
-7.81994e-07
2.49815e-06
-7.07839e-06
-6.79988e-07
2.49405e-06
-7.06419e-06
-6.21993e-07
2.55573e-06
-7.03985e-06
-5.93191e-07
2.62646e-06
-7.02178e-06
-5.66296e-07
2.62349e-06
-7.00785e-06
-4.97258e-07
2.42139e-06
-7.00246e-06
-3.3989e-07
1.88987e-06
-7.00606e-06
-4.19071e-08
8.35655e-07
-7.00753e-06
4.1331e-07
-9.22938e-07
-6.97793e-06
1.04884e-06
-3.40704e-06
-6.83606e-06
-6.50216e-06
-6.54961e-06
1.82452e-06
-8.17854e-07
4.50351e-06
-7.01586e-06
6.5299e-07
-7.85594e-07
3.16641e-06
-7.04005e-06
-7.07744e-07
2.59942e-06
-7.05316e-06
-6.12231e-07
2.42559e-06
-7.05173e-06
-5.18037e-07
2.43202e-06
-7.03894e-06
-4.49919e-07
2.52039e-06
-7.01806e-06
-4.10074e-07
2.61937e-06
-6.99864e-06
-3.7805e-07
2.63188e-06
-6.98375e-06
-2.93737e-07
2.4009e-06
-6.98339e-06
-9.58106e-08
1.77967e-06
-6.97915e-06
2.82149e-07
5.88681e-07
-6.95736e-06
8.78413e-07
-1.33068e-06
-6.86242e-06
1.63057e-06
-3.90279e-06
-6.58179e-06
-6.98124e-06
-6.05682e-06
2.43923e-06
6.00658e-08
4.96101e-06
-6.77501e-06
-4.70186e-07
-1.10592e-07
3.36198e-06
-6.92179e-06
-1.70089e-07
2.68795e-06
-7.00095e-06
-1.60101e-07
2.45413e-06
-7.02559e-06
-1.28118e-07
2.43537e-06
-7.02538e-06
-8.46593e-08
2.50885e-06
-7.00778e-06
-5.05036e-08
2.61803e-06
-6.98368e-06
-4.51199e-09
2.63216e-06
-6.95939e-06
1.23767e-07
2.34603e-06
-6.94049e-06
4.07519e-07
1.5978e-06
-6.89901e-06
9.06748e-07
2.42282e-07
-6.80165e-06
1.64221e-06
-1.84342e-06
-6.55867e-06
2.52012e-06
-4.49693e-06
-6.06089e-06
-7.50077e-06
-5.29937e-06
3.39988e-06
1.79758e-06
5.90157e-06
-6.40087e-06
-2.64449e-06
1.23155e-06
3.9977e-06
-6.72053e-06
8.57314e-07
3.11362e-06
-6.92345e-06
7.1159e-07
2.64933e-06
-7.00834e-06
6.51605e-07
2.54385e-06
-7.02095e-06
6.15815e-07
2.57847e-06
-6.99088e-06
6.36902e-07
2.63418e-06
-6.9558e-06
7.16356e-07
2.61387e-06
-6.91262e-06
9.23076e-07
2.24488e-06
-6.86366e-06
1.33354e-06
1.34104e-06
-6.75195e-06
1.98312e-06
-1.98118e-07
-6.51493e-06
2.88828e-06
-2.46653e-06
-6.06289e-06
3.89793e-06
-5.19084e-06
-5.37051e-06
-8.18436e-06
-4.51283e-06
4.94757e-06
4.0616e-06
7.15307e-06
-5.8582e-06
-5.1699e-06
3.19395e-06
4.98643e-06
-6.38512e-06
2.54307e-06
3.8666e-06
-6.75879e-06
2.17384e-06
3.09404e-06
-6.95821e-06
1.99561e-06
2.78535e-06
-7.01346e-06
1.83943e-06
2.79024e-06
-6.98929e-06
1.81642e-06
2.71798e-06
-6.92482e-06
1.9096e-06
2.6154e-06
-6.83694e-06
2.16953e-06
2.13009e-06
-6.70903e-06
2.68405e-06
1.03121e-06
-6.49644e-06
3.38065e-06
-6.39225e-07
-6.08531e-06
4.39112e-06
-3.17397e-06
-5.44238e-06
5.48447e-06
-5.98786e-06
-4.64564e-06
-9.2679e-06
-3.88793e-06
6.87161e-06
7.18133e-06
-5.68813e-06
8.49808e-06
-8.3777e-06
6.02483e-06
-6.02522e-06
6.32119e-06
5.0889e-06
-6.47214e-06
4.96593e-06
4.44826e-06
-6.81414e-06
3.84832e-06
4.03523e-06
-6.97435e-06
3.27618e-06
3.80542e-06
-6.99187e-06
3.09128e-06
3.76638e-06
-6.92473e-06
2.824e-06
3.93416e-06
-6.79341e-06
2.54522e-06
4.34031e-06
-6.56426e-06
1.87581e-06
5.05239e-06
-6.23915e-06
5.32001e-07
5.91821e-06
-5.66236e-06
-1.25679e-06
7.03526e-06
-4.92278e-06
-4.02821e-06
8.16593e-06
-4.10122e-06
-6.87818e-06
-3.78332e-06
9.69186e-06
-1.05549e-05
-5.3731e-06
8.49758e-06
-5.81337e-06
6.98143e-06
-9.52291e-06
-4.26816e-06
5.95157e-06
-5.95551e-06
-6.50482e-06
-3.61139e-06
3.99749e-06
-6.38758e-06
-4.24202e-06
-3.53065e-06
2.43404e-06
-6.75513e-06
-2.24784e-06
-3.75243e-06
1.58423e-06
-7.03918e-06
-1.20488e-06
-4.23961e-06
1.08853e-06
-7.19354e-06
-5.13554e-07
-4.95485e-06
1.07467e-06
-7.30615e-06
-3.02922e-07
-5.84992e-06
1.10233e-06
-7.33095e-06
-1.64686e-07
-6.78124e-06
1.18265e-06
-7.23569e-06
-1.57649e-07
-7.71945e-06
6.9469e-07
-6.91528e-06
4.87618e-07
-8.51738e-06
-3.26008e-07
-6.37862e-06
1.67892e-06
-9.21022e-06
-2.10247e-06
-5.6711e-06
3.62631e-06
-9.8076e-06
-4.24203e-06
-4.90834e-06
5.76318e-06
-7.41617e-06
-4.3643e-06
-1.05627e-05
8.88234e-06
-2.96791e-06
7.52218e-06
-6.23691e-06
4.40215e-06
-2.09981e-06
5.42641e-06
-6.46185e-06
-1.73853e-06
3.83944e-06
-6.68572e-06
-1.86833e-06
2.67378e-06
-6.88905e-06
-2.21577e-06
2.00418e-06
-7.06255e-06
-2.73988e-06
1.657e-06
-7.14204e-06
-3.3357e-06
1.69489e-06
-7.23399e-06
-4.01641e-06
1.7835e-06
-7.27777e-06
-4.68082e-06
1.87011e-06
-7.25406e-06
-5.38894e-06
1.52928e-06
-7.06724e-06
-6.00078e-06
6.56867e-07
-6.70026e-06
-6.49312e-06
-9.43571e-07
-6.15113e-06
-6.73831e-06
-3.16131e-06
-5.43388e-06
-6.28234e-06
-4.70496e-06
-7.15876e-06
-1.7013e-06
6.51517e-06
-6.64594e-06
2.8773e-06
-1.02319e-06
4.82506e-06
-6.79625e-06
-8.06433e-07
3.65334e-06
-6.91753e-06
-9.59292e-07
2.8418e-06
-7.01108e-06
-1.26872e-06
2.32546e-06
-7.09873e-06
-1.69825e-06
2.09231e-06
-7.12575e-06
-2.14474e-06
2.13911e-06
-7.17736e-06
-2.63131e-06
2.25293e-06
-7.206e-06
-3.07767e-06
2.31358e-06
-7.20858e-06
-3.5519e-06
2.06058e-06
-7.11202e-06
-3.97932e-06
1.32455e-06
-6.88952e-06
-4.35015e-06
-7.13254e-08
-6.50524e-06
-4.59849e-06
-2.19773e-06
-5.98004e-06
-5.2787e-06
-5.44224e-06
-4.90082e-06
-9.28464e-07
5.65822e-06
-6.92839e-06
1.70266e-06
-5.47595e-07
4.33662e-06
-6.99813e-06
-4.87613e-07
3.4924e-06
-7.02136e-06
-6.06628e-07
2.92372e-06
-7.05373e-06
-8.33248e-07
2.53892e-06
-7.09163e-06
-1.1453e-06
2.38825e-06
-7.10139e-06
-1.45461e-06
2.43188e-06
-7.12839e-06
-1.76015e-06
2.53603e-06
-7.13979e-06
-1.99635e-06
2.53655e-06
-7.14499e-06
-2.22798e-06
2.31165e-06
-7.0951e-06
-2.40872e-06
1.65083e-06
-6.9693e-06
-2.51812e-06
3.84335e-07
-6.73655e-06
-2.46724e-06
-1.68122e-06
-6.42029e-06
-4.65648e-06
-6.07922e-06
-2.46084e-06
-7.27749e-07
4.94766e-06
-7.0788e-06
1.24048e-06
-5.11481e-07
3.95799e-06
-7.08683e-06
-5.05307e-07
3.35e-06
-7.05728e-06
-5.75757e-07
2.92521e-06
-7.05747e-06
-7.12577e-07
2.64662e-06
-7.07279e-06
-9.07914e-07
2.55153e-06
-7.07596e-06
-1.10237e-06
2.59892e-06
-7.08375e-06
-1.2601e-06
2.66606e-06
-7.08508e-06
-1.3672e-06
2.61767e-06
-7.08372e-06
-1.43857e-06
2.38574e-06
-7.05725e-06
-1.45526e-06
1.75819e-06
-7.00221e-06
-1.38617e-06
5.56361e-07
-6.88488e-06
-1.19551e-06
-1.4435e-06
-6.731e-06
-4.30001e-06
-6.56333e-06
-1.05717e-06
-9.33489e-07
4.33364e-06
-7.12265e-06
1.32804e-06
-7.16544e-07
3.57524e-06
-7.08994e-06
-6.43951e-07
3.13884e-06
-7.05082e-06
-6.63218e-07
2.87426e-06
-7.05069e-06
-7.51993e-07
2.69501e-06
-7.04802e-06
-8.75815e-07
2.63497e-06
-7.04124e-06
-9.80272e-07
2.66445e-06
-7.0399e-06
-1.03459e-06
2.68484e-06
-7.03838e-06
-1.06991e-06
2.61755e-06
-7.03569e-06
-1.05053e-06
2.34917e-06
-7.0191e-06
-9.45135e-07
1.69743e-06
-6.99288e-06
-7.05392e-07
4.72764e-07
-6.94139e-06
-3.29873e-07
-1.51936e-06
-6.89651e-06
-4.29973e-06
-6.82757e-06
3.6466e-08
-1.22381e-06
3.8245e-06
-7.11329e-06
1.54185e-06
-1.00115e-06
3.21233e-06
-7.07061e-06
-8.6689e-07
2.8828e-06
-7.03722e-06
-8.08229e-07
2.74586e-06
-7.02937e-06
-8.32151e-07
2.66414e-06
-7.01654e-06
-8.99024e-07
2.64633e-06
-7.00237e-06
-9.54665e-07
2.66652e-06
-6.99663e-06
-9.77393e-07
2.6602e-06
-6.9965e-06
-9.71168e-07
2.56556e-06
-6.99422e-06
-9.09176e-07
2.25559e-06
-6.99131e-06
-7.46195e-07
1.5528e-06
-6.98474e-06
-4.32502e-07
2.52706e-07
-6.9883e-06
4.4585e-08
-1.79093e-06
-6.99438e-06
-4.54818e-06
-6.96923e-06
5.94817e-07
-1.41089e-06
3.52609e-06
-7.10944e-06
1.58895e-06
-1.21069e-06
2.91522e-06
-7.05964e-06
-1.04878e-06
2.63096e-06
-7.02945e-06
-9.24382e-07
2.57001e-06
-7.01226e-06
-9.02785e-07
2.5754e-06
-6.98703e-06
-9.27627e-07
2.60509e-06
-6.97092e-06
-9.67977e-07
2.64147e-06
-6.96298e-06
-9.98902e-07
2.63268e-06
-6.96116e-06
-9.95647e-07
2.5073e-06
-6.95918e-06
-9.18511e-07
2.13529e-06
-6.96558e-06
-7.10558e-07
1.32666e-06
-6.97215e-06
-3.04308e-07
-1.09327e-07
-7.00264e-06
3.12705e-07
-2.2583e-06
-7.01811e-06
-5.05229e-06
-6.98161e-06
1.09228e-06
-1.40159e-06
3.36059e-06
-7.0543e-06
1.50739e-06
-1.23513e-06
2.69948e-06
-7.02999e-06
-1.08127e-06
2.43089e-06
-7.01611e-06
-9.57873e-07
2.3927e-06
-6.9939e-06
-9.01833e-07
2.44836e-06
-6.96473e-06
-9.03321e-07
2.53485e-06
-6.94449e-06
-9.36589e-07
2.60456e-06
-6.93543e-06
-9.76264e-07
2.60967e-06
-6.93232e-06
-9.93207e-07
2.4627e-06
-6.93275e-06
-9.27365e-07
2.01937e-06
-6.94784e-06
-7.08651e-07
1.08036e-06
-6.9707e-06
-2.87326e-07
-4.89719e-07
-7.00543e-06
4.00288e-07
-2.76787e-06
-6.99352e-06
-5.67491e-06
-6.88962e-06
1.39268e-06
-1.06892e-06
3.34854e-06
-6.98225e-06
1.07396e-06
-9.74158e-07
2.57977e-06
-6.99031e-06
-8.87098e-07
2.30071e-06
-6.9842e-06
-8.12707e-07
2.25883e-06
-6.96672e-06
-7.63063e-07
2.32864e-06
-6.94391e-06
-7.6797e-07
2.46505e-06
-6.92505e-06
-8.15033e-07
2.5787e-06
-6.91502e-06
-8.69478e-07
2.59831e-06
-6.9109e-06
-9.0355e-07
2.43155e-06
-6.91474e-06
-8.33559e-07
1.90611e-06
-6.93231e-06
-5.71163e-07
8.18011e-07
-6.94976e-06
-3.25375e-08
-9.35412e-07
-6.9419e-06
8.08987e-07
-3.31713e-06
-6.85263e-06
-6.20423e-06
-6.63063e-06
1.944e-06
-3.48111e-07
3.54572e-06
-6.81424e-06
2.16878e-07
-3.93631e-07
2.61513e-06
-6.88785e-06
-4.07307e-07
2.2762e-06
-6.93699e-06
-4.13099e-07
2.20489e-06
-6.94221e-06
-4.30583e-07
2.27101e-06
-6.92746e-06
-4.85218e-07
2.43684e-06
-6.90933e-06
-5.74598e-07
2.59014e-06
-6.89659e-06
-6.39242e-07
2.60207e-06
-6.89202e-06
-6.69991e-07
2.41904e-06
-6.8942e-06
-5.54118e-07
1.79642e-06
-6.89924e-06
-1.91394e-07
5.46781e-07
-6.88236e-06
4.77383e-07
-1.34896e-06
-6.79706e-06
1.45574e-06
-3.73219e-06
-6.59922e-06
-6.56384e-06
-6.23919e-06
2.79279e-06
1.06269e-06
4.20656e-06
-6.58646e-06
-1.5107e-06
7.23648e-07
2.99743e-06
-6.73856e-06
4.55265e-07
2.51982e-06
-6.86927e-06
3.14587e-07
2.28596e-06
-6.91805e-06
1.70276e-07
2.33715e-06
-6.91383e-06
1.65708e-08
2.51876e-06
-6.89609e-06
-1.26191e-07
2.67984e-06
-6.88461e-06
-2.04046e-07
2.65845e-06
-6.87597e-06
-1.80751e-07
2.41914e-06
-6.87287e-06
4.55537e-08
1.68101e-06
-6.84704e-06
5.64436e-07
2.88698e-07
-6.75726e-06
1.43747e-06
-1.69862e-06
-6.56342e-06
2.61744e-06
-4.02709e-06
-6.22523e-06
-6.94711e-06
-5.73148e-06
4.26255e-06
2.95951e-06
5.38056e-06
-6.31219e-06
-3.64554e-06
2.37088e-06
3.8048e-06
-6.56906e-06
1.81134e-06
3.1303e-06
-6.77292e-06
1.44058e-06
2.63697e-06
-6.90154e-06
1.14805e-06
2.57796e-06
-6.92498e-06
8.76755e-07
2.74783e-06
-6.91432e-06
6.79786e-07
2.87484e-06
-6.89501e-06
5.98824e-07
2.79112e-06
-6.86468e-06
7.00238e-07
2.46567e-06
-6.83079e-06
1.06639e-06
1.5942e-06
-6.74851e-06
1.72663e-06
1.37294e-07
-6.56608e-06
2.8157e-06
-1.98708e-06
-6.21245e-06
4.10395e-06
-4.23493e-06
-5.6883e-06
-7.47255e-06
-5.14377e-06
5.93624e-06
5.56095e-06
-6.25229e-06
6.95555e-06
-6.52981e-06
4.6956e-06
-6.38701e-06
5.08217e-06
3.85163e-06
-6.59998e-06
4.15176e-06
3.19862e-06
-6.80467e-06
3.32818e-06
2.68658e-06
-6.90068e-06
3.06052e-06
2.29695e-06
-6.92833e-06
3.11069e-06
2.07956e-06
-6.91448e-06
3.11309e-06
2.05525e-06
-6.87114e-06
2.92096e-06
2.3119e-06
-6.80329e-06
2.47996e-06
2.90307e-06
-6.65939e-06
1.4578e-06
3.78815e-06
-6.3139e-06
-5.92693e-08
5.09717e-06
-5.76123e-06
-2.41739e-06
6.63245e-06
-5.04043e-06
-4.78131e-06
-4.70671e-06
8.43562e-06
-8.29382e-06
-2.53717e-06
8.01627e-06
3.90703e-06
-8.9991e-06
-6.09048e-06
-1.69488e-06
6.21429e-06
-6.77885e-06
-6.12702e-06
-1.31815e-06
4.60795e-06
-4.93788e-06
-6.3352e-06
-1.49416e-06
3.45955e-06
-3.40304e-06
-6.53589e-06
-1.94318e-06
2.91684e-06
-2.70401e-06
-6.70363e-06
-2.66959e-06
2.60783e-06
-2.21489e-06
-6.76729e-06
-3.6256e-06
2.75855e-06
-2.21613e-06
-6.80342e-06
-4.7852e-06
2.91581e-06
-2.21075e-06
-6.79328e-06
-5.98692e-06
3.14501e-06
-2.31632e-06
-6.77465e-06
-7.18759e-06
3.06988e-06
-2.00101e-06
-6.68434e-06
-8.26525e-06
2.51741e-06
-1.20219e-06
-6.50203e-06
-9.25659e-06
1.37681e-06
2.91252e-07
-6.22654e-06
-1.00997e-05
-1.92843e-07
2.06483e-06
-5.81528e-06
-2.79123e-06
-1.09126e-05
4.77184e-06
-5.42097e-06
-1.00622e-06
6.98763e-06
2.15783e-06
-6.24522e-06
-3.59557e-07
5.56109e-06
-6.35088e-06
-2.39492e-07
4.38194e-06
-6.48191e-06
-5.69617e-07
3.56741e-06
-6.56804e-06
-1.09642e-06
3.14913e-06
-6.66654e-06
-1.79089e-06
2.95962e-06
-6.70051e-06
-2.57675e-06
3.13768e-06
-6.73157e-06
-3.48626e-06
3.3662e-06
-6.72769e-06
-4.41314e-06
3.64406e-06
-6.73361e-06
-5.35442e-06
3.73093e-06
-6.68787e-06
-6.23092e-06
3.37905e-06
-6.57788e-06
-7.01061e-06
2.51151e-06
-6.39401e-06
-7.52497e-06
1.06584e-06
-6.06891e-06
-1.44211e-06
-7.91584e-06
-5.55936e-06
-1.96995e-07
6.0424e-06
1.06018e-06
-6.45109e-06
2.39568e-07
4.94286e-06
-6.50783e-06
2.18056e-07
4.13581e-06
-6.54492e-06
-1.62181e-07
3.60493e-06
-6.56262e-06
-6.85349e-07
3.29507e-06
-6.6164e-06
-1.31525e-06
3.21049e-06
-6.63941e-06
-1.95688e-06
3.37403e-06
-6.665e-06
-2.62353e-06
3.60932e-06
-6.67707e-06
-3.27778e-06
3.89274e-06
-6.69828e-06
-3.91272e-06
4.04721e-06
-6.68791e-06
-4.51482e-06
3.83488e-06
-6.63678e-06
-5.07087e-06
3.19277e-06
-6.5225e-06
-5.44074e-06
1.88624e-06
-6.3278e-06
-4.08047e-07
-5.82033e-06
-5.99816e-06
4.23134e-07
5.26964e-06
4.39945e-08
-6.51356e-06
5.09341e-07
4.49343e-06
-6.52967e-06
3.07551e-07
3.96914e-06
-6.54631e-06
-9.60455e-08
3.6022e-06
-6.54157e-06
-5.99055e-07
3.38376e-06
-6.56911e-06
-1.13884e-06
3.3444e-06
-6.58531e-06
-1.63924e-06
3.47177e-06
-6.6118e-06
-2.10087e-06
3.67985e-06
-6.63252e-06
-2.50156e-06
3.92412e-06
-6.65921e-06
-2.83092e-06
4.05725e-06
-6.66154e-06
-3.12649e-06
3.91784e-06
-6.6467e-06
-3.37692e-06
3.40839e-06
-6.59557e-06
-3.50107e-06
2.20215e-06
-6.51208e-06
6.35026e-08
-3.60817e-06
-6.34855e-06
4.38693e-07
4.58622e-06
-2.06892e-07
-6.51936e-06
3.91702e-07
4.08211e-06
-6.52108e-06
1.85973e-07
3.75508e-06
-6.53059e-06
-1.99174e-07
3.56037e-06
-6.52291e-06
-6.63476e-07
3.41051e-06
-6.5287e-06
-1.11706e-06
3.36821e-06
-6.53644e-06
-1.50748e-06
3.4549e-06
-6.56106e-06
-1.81795e-06
3.61437e-06
-6.5903e-06
-2.03555e-06
3.80048e-06
-6.62436e-06
-2.1562e-06
3.87341e-06
-6.63864e-06
-2.25316e-06
3.77427e-06
-6.65376e-06
-2.29609e-06
3.32483e-06
-6.65535e-06
-2.28317e-06
2.21099e-06
-6.65431e-06
1.86206e-07
-2.2632e-06
-6.61547e-06
1.2449e-07
3.93918e-06
1.42425e-08
-6.51771e-06
6.45677e-08
3.65709e-06
-6.50515e-06
-1.17484e-07
3.49138e-06
-6.50519e-06
-4.35629e-07
3.42007e-06
-6.49061e-06
-8.16863e-07
3.33955e-06
-6.49385e-06
-1.18836e-06
3.30484e-06
-6.49887e-06
-1.49544e-06
3.35626e-06
-6.52115e-06
-1.70609e-06
3.45524e-06
-6.55406e-06
-1.81955e-06
3.57903e-06
-6.58968e-06
-1.84059e-06
3.59303e-06
-6.61308e-06
-1.80556e-06
3.484e-06
-6.6378e-06
-1.68282e-06
3.02226e-06
-6.66513e-06
-1.49582e-06
1.92244e-06
-6.70096e-06
-6.45672e-08
-1.27072e-06
-6.71938e-06
-2.59712e-07
3.33974e-06
3.36298e-07
-6.50972e-06
-3.10261e-07
3.19991e-06
-6.47916e-06
-4.51341e-07
3.14877e-06
-6.4684e-06
-6.78496e-07
3.16332e-06
-6.45305e-06
-9.68965e-07
3.16795e-06
-6.45814e-06
-1.27068e-06
3.17302e-06
-6.46662e-06
-1.52843e-06
3.21246e-06
-6.48979e-06
-1.71412e-06
3.27215e-06
-6.52417e-06
-1.80735e-06
3.33401e-06
-6.55803e-06
-1.81609e-06
3.29388e-06
-6.59143e-06
-1.70258e-06
3.09584e-06
-6.62201e-06
-1.47147e-06
2.55462e-06
-6.66585e-06
-1.15735e-06
1.42352e-06
-6.72636e-06
-5.79731e-07
-7.58934e-07
-6.77818e-06
-5.37836e-07
2.81393e-06
5.52691e-07
-6.52896e-06
-5.71211e-07
2.71718e-06
-6.47738e-06
-6.63422e-07
2.72967e-06
-6.44886e-06
-8.17394e-07
2.81049e-06
-6.42545e-06
-1.03505e-06
2.91455e-06
-6.42702e-06
-1.30026e-06
3.00044e-06
-6.43798e-06
-1.56437e-06
3.07103e-06
-6.46228e-06
-1.78386e-06
3.11589e-06
-6.49444e-06
-1.90755e-06
3.10812e-06
-6.52426e-06
-1.92848e-06
2.98666e-06
-6.55696e-06
-1.80351e-06
2.65702e-06
-6.5825e-06
-1.51392e-06
1.96831e-06
-6.63169e-06
-1.05543e-06
7.15586e-07
-6.69693e-06
-1.38486e-06
-4.15019e-07
-6.75592e-06
-6.57889e-07
2.37846e-06
6.18935e-07
-6.52427e-06
-6.87606e-07
2.23675e-06
-6.46908e-06
-7.41476e-07
2.25593e-06
-6.4361e-06
-8.53912e-07
2.40889e-06
-6.41275e-06
-1.03743e-06
2.62631e-06
-6.41116e-06
-1.30566e-06
2.83243e-06
-6.42156e-06
-1.60901e-06
2.96963e-06
-6.44601e-06
-1.88818e-06
3.01667e-06
-6.47575e-06
-2.07779e-06
2.93807e-06
-6.50121e-06
-2.13979e-06
2.69931e-06
-6.53006e-06
-2.04413e-06
2.20363e-06
-6.54893e-06
-1.73669e-06
1.31789e-06
-6.60005e-06
-1.17689e-06
-1.07492e-07
-6.67095e-06
-2.34205e-06
-3.42642e-07
-6.71489e-06
-4.63995e-07
2.07211e-06
3.46453e-07
-6.50909e-06
-5.68772e-07
1.84573e-06
-6.45624e-06
-6.66512e-07
1.83459e-06
-6.42493e-06
-7.97524e-07
2.03461e-06
-6.40608e-06
-1.00876e-06
2.36243e-06
-6.39895e-06
-1.31075e-06
2.69393e-06
-6.41072e-06
-1.65973e-06
2.91417e-06
-6.43818e-06
-1.99037e-06
2.96902e-06
-6.46633e-06
-2.24907e-06
2.83017e-06
-6.48623e-06
-2.37239e-06
2.45252e-06
-6.50402e-06
-2.29735e-06
1.75242e-06
-6.51914e-06
-1.93029e-06
6.16352e-07
-6.55763e-06
-1.18267e-06
-1.05083e-06
-6.61099e-06
-3.40032e-06
-9.68278e-08
-6.61949e-06
6.47761e-09
1.94301e-06
-2.12743e-07
-6.43618e-06
-1.34056e-07
1.55082e-06
-6.41833e-06
-3.2694e-07
1.53249e-06
-6.40462e-06
-5.99693e-07
1.80948e-06
-6.39635e-06
-9.41923e-07
2.21921e-06
-6.38637e-06
-1.30709e-06
2.61664e-06
-6.40653e-06
-1.6709e-06
2.88631e-06
-6.43744e-06
-2.01943e-06
2.95229e-06
-6.46452e-06
-2.32538e-06
2.77285e-06
-6.47722e-06
-2.48926e-06
2.258e-06
-6.49325e-06
-2.38333e-06
1.3136e-06
-6.50543e-06
-1.89256e-06
-1.08025e-07
-6.52572e-06
-9.42042e-07
-2.03737e-06
-6.5301e-06
-4.45916e-06
3.68179e-07
-6.45875e-06
9.4234e-07
2.31232e-06
-1.51602e-06
-6.34335e-06
5.80471e-07
1.58361e-06
-6.37497e-06
1.53235e-07
1.48807e-06
-6.36101e-06
-3.1782e-07
1.76495e-06
-6.35591e-06
-7.89971e-07
2.19049e-06
-6.35835e-06
-1.22143e-06
2.59968e-06
-6.39565e-06
-1.61908e-06
2.87693e-06
-6.43192e-06
-1.97189e-06
2.93518e-06
-6.46021e-06
-2.24874e-06
2.69407e-06
-6.47259e-06
-2.36646e-06
2.05616e-06
-6.48614e-06
-2.14926e-06
8.54902e-07
-6.48055e-06
-1.44405e-06
-8.91539e-07
-6.45763e-06
-2.5524e-07
-3.05572e-06
-6.37347e-06
-5.54488e-06
1.35438e-06
-6.22959e-06
2.3258e-06
3.17361e-06
-3.27345e-06
-6.1938e-06
1.56834e-06
2.12868e-06
-6.324e-06
8.15465e-07
1.82709e-06
-6.3237e-06
1.46032e-07
1.90587e-06
-6.32934e-06
-4.6283e-07
2.26793e-06
-6.34385e-06
-9.79417e-07
2.64285e-06
-6.39043e-06
-1.41053e-06
2.89191e-06
-6.43348e-06
-1.72815e-06
2.89767e-06
-6.46628e-06
-1.91713e-06
2.57445e-06
-6.47988e-06
-1.92648e-06
1.82425e-06
-6.47248e-06
-1.63761e-06
4.54326e-07
-6.42883e-06
-8.6503e-07
-1.52323e-06
-6.33354e-06
3.82083e-07
-3.7988e-06
-6.17619e-06
-6.52378e-06
2.21527e-06
-5.9775e-06
4.07302e-06
4.33704e-06
-5.27462e-06
-6.17308e-06
2.94379e-06
3.10293e-06
-6.19548e-06
1.87791e-06
2.54414e-06
-6.21427e-06
1.04856e-06
2.23127e-06
-6.25833e-06
3.01858e-07
2.4681e-06
-6.31124e-06
-3.19267e-07
2.76139e-06
-6.38434e-06
-7.85443e-07
2.91903e-06
-6.43628e-06
-1.03613e-06
2.79483e-06
-6.47974e-06
-1.09871e-06
2.363e-06
-6.49506e-06
-8.98253e-07
1.47177e-06
-6.47767e-06
-4.08574e-07
2.49727e-08
-6.35208e-06
6.23214e-07
-2.13932e-06
-6.15827e-06
2.06258e-06
-4.40939e-06
-5.85211e-06
4.05439e-06
-7.45939e-06
-5.75341e-06
-1.04712e-05
-1.2463e-05
-2.34075e-06
1.14782e-05
-8.95146e-06
-1.4657e-05
-2.6781e-06
1.31628e-05
-7.04116e-06
-1.65122e-05
-2.81461e-06
1.45199e-05
-4.85353e-06
-1.7909e-05
-3.14754e-06
1.55584e-05
-2.50841e-06
-1.85175e-05
-3.47188e-06
1.5949e-05
-1.88684e-05
-3.85786e-06
1.61763e-05
-8.22226e-06
-1.23146e-05
-3.10624e-06
-7.38823e-06
-1.54682e-05
-3.6221e-06
-5.80743e-06
-1.81548e-05
-3.95659e-06
-3.92291e-06
-1.99772e-05
-4.35454e-06
-2.05032e-06
-2.06928e-05
-4.74792e-06
-2.11462e-05
-5.33115e-06
-5.95311e-06
-1.1791e-05
-4.39146e-06
-5.44545e-06
-1.59161e-05
-4.90322e-06
-4.28827e-06
-1.93501e-05
-5.16814e-06
-2.86106e-06
-2.16508e-05
-5.48326e-06
-1.50463e-06
-2.24238e-05
-5.8765e-06
-2.29359e-05
-6.54005e-06
-3.24396e-06
-1.12431e-05
-5.62478e-06
-3.19631e-06
-1.58713e-05
-6.11158e-06
-2.68217e-06
-1.9858e-05
-6.3178e-06
-1.80482e-06
-2.27425e-05
-6.53342e-06
-9.99373e-07
-2.3666e-05
-6.75749e-06
-2.4294e-05
-7.44429e-06
-1.37826e-06
-1.09051e-05
-6.80949e-06
-1.31804e-06
-1.58147e-05
-7.23506e-06
-1.10482e-06
-2.00138e-05
-7.29244e-06
-6.97809e-07
-2.32865e-05
-7.32215e-06
-4.3614e-07
-2.43587e-05
-7.29614e-06
-2.51113e-05
-7.81588e-06
1.41768e-07
-1.08205e-05
-7.57592e-06
2.25494e-07
-1.57372e-05
-7.92947e-06
2.75326e-07
-1.99222e-05
-7.86395e-06
3.65902e-07
-2.33304e-05
-7.82611e-06
3.60305e-07
-2.44428e-05
-7.70741e-06
-2.54528e-05
-7.26705e-06
1.18861e-06
-1.10416e-05
-7.95904e-06
1.53822e-06
-1.58402e-05
-8.17696e-06
1.62472e-06
-1.97744e-05
-7.91338e-06
1.49187e-06
-2.30151e-05
-7.69342e-06
1.12262e-06
-2.41579e-05
-7.2759e-06
-2.50269e-05
-6.76067e-06
2.00797e-06
-1.13822e-05
-7.83506e-06
2.31979e-06
-1.58109e-05
-7.69525e-06
2.31361e-06
-1.94764e-05
-7.13144e-06
1.98451e-06
-2.24892e-05
-6.71387e-06
1.34577e-06
-2.36565e-05
-6.18782e-06
-2.43359e-05
-5.83747e-06
2.4303e-06
-1.15956e-05
-7.12441e-06
2.59133e-06
-1.55695e-05
-6.57403e-06
2.51875e-06
-1.91048e-05
-5.79657e-06
2.0503e-06
-2.18555e-05
-5.31275e-06
1.23922e-06
-2.3066e-05
-4.79174e-06
-2.34981e-05
-4.86139e-06
2.87445e-06
-1.16302e-05
-5.90958e-06
2.89435e-06
-1.52171e-05
-5.16017e-06
2.62148e-06
-1.85863e-05
-4.41697e-06
1.9352e-06
-2.10764e-05
-4.0078e-06
9.85314e-07
-2.23018e-05
-3.66425e-06
-2.27379e-05
-3.86077e-06
3.78359e-06
-1.16567e-05
-4.54771e-06
3.71073e-06
-1.48451e-05
-3.90422e-06
3.22984e-06
-1.79098e-05
-3.41086e-06
2.36198e-06
-2.01927e-05
-3.16841e-06
1.20087e-06
-2.13575e-05
-3.05348e-06
-2.17025e-05
-3.43674e-06
5.27172e-06
-1.17008e-05
-3.40268e-06
5.0056e-06
-1.43553e-05
-3.05673e-06
4.22229e-06
-1.70267e-05
-2.85357e-06
3.04109e-06
-1.90857e-05
-2.82581e-06
1.54587e-06
-2.01153e-05
-2.95915e-06
-2.03548e-05
-3.38425e-06
7.13936e-06
-1.17964e-05
-2.59658e-06
6.62671e-06
-1.37308e-05
-2.62727e-06
5.49722e-06
-1.58851e-05
-2.73209e-06
3.90079e-06
-1.76045e-05
-2.87574e-06
1.93698e-06
-1.84048e-05
-3.04209e-06
-1.86278e-05
-3.42835e-06
9.04843e-06
-2.06039e-06
-1.10639e-05
8.2585e-06
-2.38694e-06
-1.29072e-05
6.86803e-06
-2.67061e-06
-1.4571e-05
4.85171e-06
-2.93228e-06
-1.57712e-05
2.39505e-06
-3.11141e-06
-1.62211e-05
-3.42108e-06
-1.64918e-05
-9.63227e-06
-1.1379e-05
-2.45273e-06
1.06187e-05
-8.21645e-06
-1.39558e-05
-2.68112e-06
1.26094e-05
-6.28477e-06
-1.6207e-05
-2.73823e-06
1.42696e-05
-4.07325e-06
-1.79919e-05
-2.85167e-06
1.55576e-05
-2.09293e-06
-1.8682e-05
-2.73598e-06
1.60397e-05
-1.91989e-05
-3.01951e-06
1.63484e-05
-7.34624e-06
-1.08766e-05
-3.36321e-06
-6.78825e-06
-1.44539e-05
-3.62314e-06
-5.32141e-06
-1.77405e-05
-3.82482e-06
-3.35864e-06
-2.01688e-05
-4.08167e-06
-1.71226e-06
-2.10789e-05
-3.94979e-06
-2.17875e-05
-4.4028e-06
-5.08045e-06
-1.02276e-05
-4.79399e-06
-4.71856e-06
-1.4646e-05
-5.00661e-06
-3.70787e-06
-1.87516e-05
-5.11267e-06
-2.15468e-06
-2.18753e-05
-5.29634e-06
-1.04021e-06
-2.30434e-05
-5.0122e-06
-2.3924e-05
-5.43526e-06
-2.47917e-06
-9.64522e-06
-6.13038e-06
-2.32609e-06
-1.45101e-05
-6.34681e-06
-1.85925e-06
-1.91641e-05
-6.33959e-06
-9.06981e-07
-2.29661e-05
-6.37393e-06
-3.51266e-07
-2.4405e-05
-5.95252e-06
-2.55188e-05
-6.21422e-06
-7.7521e-07
-9.37026e-06
-7.31783e-06
-4.1711e-07
-1.44886e-05
-7.57856e-06
-7.23652e-08
-1.93309e-05
-7.44673e-06
2.95456e-07
-2.34197e-05
-7.2149e-06
4.57566e-07
-2.52362e-05
-6.61594e-06
-2.63116e-05
-6.52502e-06
6.28742e-07
-9.44137e-06
-8.06894e-06
1.11498e-06
-1.45253e-05
-8.35757e-06
1.39458e-06
-1.92582e-05
-8.1892e-06
1.24368e-06
-2.32627e-05
-7.7967e-06
6.72776e-07
-2.52717e-05
-7.07418e-06
-2.67522e-05
-6.08466e-06
1.46954e-06
-9.7798e-06
-8.46002e-06
2.25574e-06
-1.47228e-05
-8.73425e-06
2.7918e-06
-1.91582e-05
-8.50958e-06
2.52257e-06
-2.27634e-05
-7.8672e-06
1.81661e-06
-2.4711e-05
-7.0659e-06
-2.63326e-05
-5.2817e-06
2.19416e-06
-1.02758e-05
-8.41138e-06
3.10541e-06
-1.47873e-05
-8.50208e-06
3.71713e-06
-1.87819e-05
-8.06259e-06
3.36329e-06
-2.20108e-05
-7.04054e-06
2.40415e-06
-2.38302e-05
-6.03127e-06
-2.52486e-05
-4.46195e-06
2.54937e-06
-1.05731e-05
-7.93972e-06
3.40925e-06
-1.44354e-05
-7.73158e-06
3.88076e-06
-1.8065e-05
-6.91524e-06
3.45732e-06
-2.11864e-05
-5.60362e-06
2.45632e-06
-2.28733e-05
-4.59599e-06
-2.38743e-05
-3.58005e-06
2.96794e-06
-1.04196e-05
-7.04261e-06
3.63808e-06
-1.36894e-05
-6.51051e-06
3.71475e-06
-1.7074e-05
-5.38473e-06
3.01862e-06
-2.02154e-05
-4.13004e-06
1.88319e-06
-2.1799e-05
-3.40365e-06
-2.25233e-05
-3.1301e-06
3.80373e-06
-1.00949e-05
-5.83015e-06
4.36467e-06
-1.29344e-05
-5.13924e-06
4.16834e-06
-1.61131e-05
-4.06025e-06
3.26908e-06
-1.91514e-05
-3.17802e-06
1.96541e-06
-2.05453e-05
-2.79061e-06
-2.11509e-05
-2.58683e-06
5.19358e-06
-9.81166e-06
-4.55993e-06
5.5453e-06
-1.22764e-05
-3.97927e-06
5.10556e-06
-1.5211e-05
-3.2007e-06
4.00158e-06
-1.80142e-05
-2.72675e-06
2.29082e-06
-1.92231e-05
-2.4017e-06
-1.97307e-05
-2.32506e-06
6.83212e-06
-9.81594e-06
-3.42859e-06
6.94532e-06
-1.17921e-05
-3.15118e-06
6.24639e-06
-1.43667e-05
-2.7892e-06
4.72623e-06
-1.667e-05
-2.59272e-06