/*--------------------------------*- C++ -*----------------------------------*\
| =========                 |                                                 |
| \\      /  F ield         | OpenFOAM: The Open Source CFD Toolbox           |
|  \\    /   O peration     | Version:  v2106                                 |
|   \\  /    A nd           | Website:  www.openfoam.com                      |
|    \\/     M anipulation  |                                                 |
\*---------------------------------------------------------------------------*/
FoamFile
{
    version     2.0;
    format      ascii;
    arch        "LSB;label=32;scalar=64";
    class       volVectorField;
    location    "0.00017";
    object      U;
}
// * * * * * * * * * * * * * * * * * * * * * * * * * * * * * * * * * * * * * //

dimensions      [0 1 -1 0 0 0 0];

internalField   nonuniform List<vector> 
18069
(
(-0.00997531 -0.00852256 1.70943)
(-0.00791886 -0.00834957 1.70985)
(-0.00618538 -0.008497 1.7105)
(-0.00452738 -0.00836023 1.71106)
(-0.00287624 -0.00827682 1.71147)
(-0.00123119 -0.00820489 1.71172)
(0.000419843 -0.00816519 1.71184)
(0.00204017 -0.00815611 1.71187)
(0.00366879 -0.00817796 1.71181)
(0.00529822 -0.00824795 1.71162)
(0.00693632 -0.0083092 1.71128)
(0.00858387 -0.00845014 1.71073)
(0.0103157 -0.00821379 1.71011)
(0.0123658 -0.00847242 1.70972)
(-0.00976234 -0.00646925 1.71)
(-0.00787547 -0.00646898 1.71034)
(-0.00623327 -0.00652065 1.7111)
(-0.00452938 -0.00644718 1.71168)
(-0.00284976 -0.0064137 1.71218)
(-0.00118365 -0.00638859 1.71253)
(0.000476626 -0.00638224 1.71273)
(0.00208132 -0.00638506 1.71278)
(0.00371965 -0.0063836 1.71266)
(0.00536135 -0.00640502 1.71238)
(0.00701676 -0.00642303 1.71195)
(0.00867643 -0.00651427 1.71139)
(0.0103223 -0.00639726 1.71069)
(0.0121921 -0.00650698 1.71016)
(-0.00990529 -0.00474499 1.71074)
(-0.00793941 -0.00478807 1.71118)
(-0.00630599 -0.00484937 1.71205)
(-0.00457765 -0.00479319 1.71258)
(-0.00289751 -0.00474196 1.71305)
(-0.00121931 -0.0046904 1.71334)
(0.000460727 -0.0046635 1.71349)
(0.00208074 -0.00466202 1.71352)
(0.00374294 -0.00467052 1.71342)
(0.00540567 -0.00471198 1.71318)
(0.00707793 -0.00474686 1.71279)
(0.00877292 -0.00482955 1.71228)
(0.0104124 -0.00474758 1.71148)
(0.0123271 -0.00483912 1.7109)
(-0.00976332 -0.00308846 1.71136)
(-0.00787699 -0.00304867 1.71184)
(-0.00625091 -0.00309409 1.71266)
(-0.00454798 -0.00306866 1.71317)
(-0.00288468 -0.00303276 1.71365)
(-0.00121738 -0.00300133 1.71395)
(0.000458761 -0.00298578 1.71412)
(0.00206834 -0.00298753 1.71415)
(0.00372994 -0.00299062 1.71403)
(0.00538601 -0.00301608 1.71377)
(0.00704718 -0.00303847 1.71337)
(0.00872487 -0.00309014 1.71284)
(0.0103555 -0.00304081 1.71209)
(0.0121841 -0.00318047 1.71152)
(-0.00969357 -0.00142966 1.71181)
(-0.00785684 -0.00133876 1.71241)
(-0.00620401 -0.00140041 1.7132)
(-0.0045103 -0.00139541 1.71372)
(-0.00285231 -0.00136803 1.71419)
(-0.00119455 -0.00134305 1.71447)
(0.00047189 -0.00132845 1.71464)
(0.00206741 -0.00132954 1.71466)
(0.00372 -0.00133398 1.71454)
(0.00536581 -0.0013574 1.71429)
(0.00701726 -0.00137603 1.71389)
(0.00868334 -0.00141055 1.71336)
(0.0103286 -0.00135843 1.71263)
(0.0120994 -0.00151455 1.71197)
(-0.00964343 0.000220603 1.71209)
(-0.00784739 0.00034369 1.7128)
(-0.00616127 0.000285116 1.71354)
(-0.00448175 0.000280818 1.71408)
(-0.00282824 0.000297742 1.71454)
(-0.00118063 0.000310442 1.71483)
(0.00047713 0.000318956 1.715)
(0.00206185 0.000316639 1.71502)
(0.00370651 0.000313488 1.7149)
(0.00534266 0.000297027 1.71464)
(0.00698573 0.000285091 1.71424)
(0.00863685 0.00026002 1.71371)
(0.0103025 0.000305327 1.71302)
(0.012031 0.000145221 1.71226)
(-0.0096259 0.00187154 1.71223)
(-0.00785414 0.00199837 1.71304)
(-0.00614454 0.0019533 1.71375)
(-0.00447225 0.00194581 1.71431)
(-0.00281799 0.00195216 1.71476)
(-0.00117412 0.0019551 1.71506)
(0.000480094 0.00195886 1.71523)
(0.00206018 0.00195606 1.71525)
(0.0037006 0.00195441 1.71513)
(0.00533143 0.00194441 1.71487)
(0.00696853 0.00193948 1.71447)
(0.0086109 0.00191641 1.71393)
(0.0102859 0.00194412 1.71325)
(0.0119993 0.00179771 1.71246)
(-0.00962717 0.00349747 1.71229)
(-0.0078583 0.00361545 1.71312)
(-0.00614352 0.00360146 1.71383)
(-0.00447318 0.00359522 1.7144)
(-0.00281825 0.00359421 1.71485)
(-0.00117474 0.00358997 1.71515)
(0.000478904 0.00359059 1.71532)
(0.00205826 0.0035883 1.71534)
(0.00369662 0.00358913 1.71522)
(0.00532461 0.00358811 1.71496)
(0.00695576 0.0035912 1.71456)
(0.00859489 0.00357323 1.71404)
(0.0102633 0.0035721 1.71335)
(0.0119834 0.00345714 1.71257)
(-0.00964998 0.00510065 1.71223)
(-0.00785939 0.00520291 1.71304)
(-0.0061556 0.00521386 1.71377)
(-0.00448076 0.00520157 1.71433)
(-0.00282521 0.00518905 1.71479)
(-0.00117864 0.00517534 1.71509)
(0.000477563 0.00517161 1.71526)
(0.00205958 0.00516888 1.71528)
(0.00369944 0.0051723 1.71516)
(0.00532839 0.00518073 1.7149)
(0.00695611 0.00518982 1.7145)
(0.00859827 0.00517277 1.71399)
(0.0102448 0.00513135 1.71328)
(0.0119872 0.00503046 1.71258)
(-0.00971886 0.00672029 1.71207)
(-0.00788415 0.00681642 1.7128)
(-0.00619972 0.00686259 1.71359)
(-0.00450998 0.00684268 1.71413)
(-0.00284971 0.00682283 1.7146)
(-0.00119389 0.00680194 1.7149)
(0.000470957 0.00679611 1.71506)
(0.00206288 0.00679388 1.71509)
(0.00371197 0.00679983 1.71497)
(0.00535045 0.00682004 1.71472)
(0.00698256 0.00683568 1.7143)
(0.00863613 0.00683399 1.71381)
(0.0102587 0.00675865 1.71305)
(0.0120367 0.00668446 1.71246)
(-0.00978289 0.00834591 1.71175)
(-0.00791063 0.00842721 1.71243)
(-0.00623302 0.00850537 1.71325)
(-0.00452982 0.00847182 1.71379)
(-0.00286157 0.00844456 1.71426)
(-0.00119824 0.00841751 1.71457)
(0.000472996 0.00841067 1.71473)
(0.00206913 0.0084078 1.71475)
(0.00372185 0.00841428 1.71462)
(0.00536245 0.00844457 1.71436)
(0.00699746 0.00846761 1.71393)
(0.00865541 0.00848677 1.71344)
(0.0102676 0.00838819 1.71268)
(0.0120699 0.00833502 1.71214)
(-0.00991868 0.0099751 1.71124)
(-0.00800162 0.0100276 1.71193)
(-0.00631255 0.0101592 1.71279)
(-0.00457872 0.0101077 1.71333)
(-0.00289097 0.0100766 1.71382)
(-0.00121516 0.0100418 1.71412)
(0.000460862 0.0100333 1.71428)
(0.00206161 0.0100332 1.7143)
(0.00372194 0.0100448 1.71418)
(0.00537874 0.0100894 1.71392)
(0.00703469 0.0101165 1.71348)
(0.00871744 0.0101607 1.71295)
(0.0103332 0.0100203 1.71215)
(0.0121811 0.00999167 1.71161)
(-0.00966801 0.0116939 1.71073)
(-0.00787414 0.0116217 1.71132)
(-0.00621517 0.011761 1.71208)
(-0.00451589 0.0116985 1.71267)
(-0.00282904 0.0116843 1.71316)
(-0.0011637 0.011674 1.7135)
(0.00049576 0.0116801 1.71367)
(0.002062 0.0116796 1.71368)
(0.00369099 0.0116736 1.71352)
(0.00531498 0.0117001 1.71322)
(0.00694845 0.011721 1.71277)
(0.00858036 0.0117899 1.71221)
(0.0101592 0.0116376 1.71149)
(0.0119173 0.0117037 1.71105)
(-0.00991546 0.0136739 1.71036)
(-0.00794192 0.0134037 1.71083)
(-0.00625006 0.0136052 1.71158)
(-0.00457942 0.0134695 1.7122)
(-0.00289966 0.0134132 1.7126)
(-0.00123513 0.0133667 1.71282)
(0.000437704 0.0133602 1.71293)
(0.00202479 0.0133764 1.71295)
(0.00367105 0.0134018 1.71288)
(0.00530993 0.0134702 1.71269)
(0.00696447 0.013525 1.71231)
(0.008607 0.0136643 1.71174)
(0.0102698 0.0134462 1.71108)
(0.0121944 0.0136846 1.71073)
(-0.0078678 -0.00611001 1.5106)
(-0.00635767 -0.0062328 1.51061)
(-0.00495005 -0.00619747 1.51087)
(-0.0035567 -0.00609151 1.5111)
(-0.00215948 -0.00602026 1.51123)
(-0.000774677 -0.00598017 1.51127)
(0.000587839 -0.00596673 1.51126)
(0.00192819 -0.00598836 1.51122)
(0.00327158 -0.00602921 1.51117)
(0.00460913 -0.00610151 1.51108)
(0.00594425 -0.0061861 1.5109)
(0.00725738 -0.00633519 1.5106)
(0.00861065 -0.00628337 1.5103)
(0.0100548 -0.00631831 1.51018)
(-0.00792302 -0.0047092 1.51066)
(-0.0063354 -0.00470088 1.51064)
(-0.00490333 -0.0046909 1.51098)
(-0.00346685 -0.00460834 1.5112)
(-0.00206768 -0.00455012 1.5114)
(-0.000703182 -0.00451006 1.51153)
(0.000627917 -0.00449775 1.51158)
(0.00194113 -0.00451439 1.51156)
(0.00325944 -0.00454331 1.51148)
(0.00458014 -0.00460024 1.51131)
(0.00591519 -0.00466418 1.51108)
(0.00725095 -0.00478625 1.51078)
(0.00860822 -0.00474763 1.51044)
(0.0100971 -0.00488861 1.51013)
(-0.00786787 -0.00338468 1.51093)
(-0.00633716 -0.00327998 1.51098)
(-0.0049324 -0.00329399 1.51138)
(-0.00351776 -0.00321549 1.51156)
(-0.00213088 -0.0031583 1.51173)
(-0.00075984 -0.0031111 1.5118)
(0.000590263 -0.00309201 1.51182)
(0.00193241 -0.00310239 1.51178)
(0.00327609 -0.00312607 1.51171)
(0.00461746 -0.00318247 1.51158)
(0.00596243 -0.0032388 1.51138)
(0.00730507 -0.00334894 1.51112)
(0.0086445 -0.00331322 1.51072)
(0.0100683 -0.00351527 1.51043)
(-0.00773548 -0.00204556 1.51114)
(-0.00625407 -0.00185692 1.5112)
(-0.00485144 -0.0018976 1.51155)
(-0.00345711 -0.00183536 1.51172)
(-0.00209068 -0.00179074 1.51189)
(-0.000740834 -0.00175179 1.51196)
(0.000587397 -0.00173555 1.512)
(0.00190945 -0.00174312 1.51197)
(0.0032341 -0.00175962 1.51188)
(0.00455696 -0.00180532 1.51174)
(0.005887 -0.00184576 1.51153)
(0.00722141 -0.00193107 1.51127)
(0.00856334 -0.00187495 1.51091)
(0.00995713 -0.0021119 1.51065)
(-0.00763968 -0.000680738 1.51126)
(-0.00617895 -0.000474027 1.5114)
(-0.00478039 -0.000533041 1.51173)
(-0.00340645 -0.000485633 1.51189)
(-0.0020571 -0.000450505 1.51205)
(-0.000722428 -0.00041846 1.51212)
(0.000592247 -0.000403752 1.51214)
(0.00190379 -0.000408429 1.51211)
(0.00321715 -0.000419923 1.51202)
(0.00452733 -0.000456013 1.51188)
(0.00584308 -0.000483737 1.51168)
(0.00716488 -0.000547362 1.51143)
(0.00850622 -0.000476796 1.51108)
(0.00988556 -0.000699613 1.51077)
(-0.00757836 0.000680025 1.51128)
(-0.00611932 0.000869925 1.51151)
(-0.00471726 0.000817124 1.51179)
(-0.0033576 0.000850108 1.51196)
(-0.0020212 0.000875765 1.51211)
(-0.000701375 0.000897847 1.51219)
(0.00059799 0.000908825 1.51221)
(0.00189457 0.000905973 1.51218)
(0.00319452 0.000899127 1.5121)
(0.00449248 0.000874961 1.51195)
(0.00579845 0.000859217 1.51175)
(0.0071126 0.000815748 1.5115)
(0.00846317 0.000880717 1.51118)
(0.00984645 0.000695523 1.51081)
(-0.00754196 0.00201593 1.51124)
(-0.00608364 0.00217221 1.51155)
(-0.004681 0.00214668 1.51181)
(-0.00333059 0.00216645 1.51199)
(-0.00200202 0.00218457 1.51214)
(-0.000690376 0.00219701 1.51221)
(0.000601666 0.00220457 1.51224)
(0.00189117 0.00220314 1.51221)
(0.0031852 0.00219998 1.51212)
(0.00447698 0.00218752 1.51198)
(0.00577652 0.00218181 1.51178)
(0.00708616 0.00215591 1.51152)
(0.00844058 0.00219625 1.5112)
(0.00983403 0.00206143 1.51081)
(-0.00751998 0.00335368 1.51117)
(-0.00606112 0.00347176 1.51151)
(-0.00466283 0.00347858 1.51176)
(-0.00331768 0.00348 1.51195)
(-0.00199406 0.00348664 1.5121)
(-0.000686665 0.00348525 1.51218)
(0.000602568 0.00348667 1.5122)
(0.00188908 0.00348529 1.51217)
(0.00318166 0.00348641 1.51209)
(0.00447116 0.00348794 1.51195)
(0.00576651 0.00349327 1.51174)
(0.00707538 0.00348525 1.5115)
(0.00842829 0.00348818 1.51117)
(0.00983667 0.00340028 1.5108)
(-0.00751057 0.00469006 1.51109)
(-0.00605016 0.00477312 1.5114)
(-0.0046613 0.00481447 1.51167)
(-0.00331778 0.00479944 1.51185)
(-0.00199598 0.00479523 1.51201)
(-0.000688713 0.00478206 1.51209)
(0.000601897 0.0047785 1.51211)
(0.00188992 0.00477662 1.51208)
(0.00318593 0.00478037 1.512)
(0.00447858 0.00479381 1.51185)
(0.00577526 0.00480798 1.51164)
(0.0070885 0.00481724 1.51141)
(0.0084339 0.00477886 1.51105)
(0.00985312 0.00473822 1.51075)
(-0.00754068 0.00603114 1.51097)
(-0.00607549 0.00607991 1.51122)
(-0.00469785 0.00614926 1.51153)
(-0.00334905 0.0061135 1.5117)
(-0.00202199 0.00609578 1.51186)
(-0.000706497 0.00607052 1.51194)
(0.000593436 0.00606169 1.51197)
(0.00189258 0.00605838 1.51194)
(0.00320113 0.00606375 1.51185)
(0.00450722 0.00608829 1.51171)
(0.00581465 0.00610986 1.51149)
(0.00714008 0.00613946 1.51127)
(0.00847729 0.00606676 1.51088)
(0.0099048 0.00607198 1.51067)
(-0.00757933 0.00737982 1.51076)
(-0.00610709 0.00739997 1.51099)
(-0.00472979 0.00748534 1.51132)
(-0.00337114 0.00742877 1.51149)
(-0.00203516 0.00739566 1.51166)
(-0.000712814 0.00735991 1.51174)
(0.000591103 0.00734557 1.51177)
(0.0018954 0.00733907 1.51173)
(0.00320924 0.00734416 1.51164)
(0.00452254 0.00737709 1.51149)
(0.00583986 0.00740589 1.51127)
(0.00717509 0.00745506 1.51103)
(0.00851712 0.00736414 1.51064)
(0.00995446 0.00740593 1.51046)
(-0.00768947 0.00872244 1.51043)
(-0.00620117 0.00872423 1.51067)
(-0.00481769 0.00882351 1.51104)
(-0.00344162 0.00874724 1.51122)
(-0.00208814 0.00870068 1.51141)
(-0.000749408 0.00865585 1.5115)
(0.000567435 0.00863637 1.51152)
(0.00188843 0.00862813 1.5115)
(0.00321956 0.00863513 1.51141)
(0.0045555 0.00867673 1.51126)
(0.00589542 0.00870834 1.511)
(0.00725209 0.00877372 1.51074)
(0.00860427 0.00866372 1.51031)
(0.0100726 0.00871818 1.51011)
(-0.00759855 0.0101187 1.51018)
(-0.00612876 0.0100756 1.51036)
(-0.00474744 0.0101662 1.51066)
(-0.00336756 0.0100781 1.51088)
(-0.00201336 0.0100267 1.51106)
(-0.000691742 0.00998642 1.51117)
(0.000592471 0.00996714 1.5112)
(0.00187677 0.00995315 1.51116)
(0.00316898 0.00994851 1.51104)
(0.00447523 0.00998031 1.51086)
(0.00580196 0.0100133 1.51061)
(0.00714215 0.0100944 1.51032)
(0.00848198 0.00998773 1.50994)
(0.00993706 0.0100607 1.50981)
(-0.00760313 0.0115858 1.50999)
(-0.00622257 0.0115364 1.51003)
(-0.00489256 0.0115919 1.51038)
(-0.00354148 0.0114695 1.51066)
(-0.0021714 0.0114012 1.51079)
(-0.00081504 0.0113548 1.51082)
(0.000513048 0.0113348 1.5108)
(0.00184512 0.0113272 1.51078)
(0.00318109 0.0113328 1.51074)
(0.00453117 0.0113712 1.51065)
(0.00589929 0.0114111 1.51045)
(0.00725406 0.0115255 1.51011)
(0.00861186 0.0114308 1.50976)
(0.0100499 0.0114887 1.50974)
(-0.00741544 -0.00574522 1.3245)
(-0.00615716 -0.00595256 1.32418)
(-0.00484709 -0.00589538 1.32415)
(-0.00350987 -0.00579536 1.32413)
(-0.00216818 -0.0057477 1.32408)
(-0.000846756 -0.005728 1.32397)
(0.000444523 -0.00573443 1.32385)
(0.00171807 -0.00576407 1.32376)
(0.00298495 -0.00580537 1.32371)
(0.00425387 -0.00586687 1.32366)
(0.00551797 -0.00594505 1.32358)
(0.00676985 -0.00610226 1.32344)
(0.00801932 -0.0061004 1.32336)
(0.0092428 -0.00601379 1.32346)
(-0.00756596 -0.00464557 1.32412)
(-0.00611821 -0.00456831 1.32381)
(-0.00474504 -0.00458326 1.32385)
(-0.00340131 -0.00448968 1.32382)
(-0.00208398 -0.00443016 1.32382)
(-0.000796238 -0.00438084 1.32378)
(0.00046819 -0.00436405 1.32373)
(0.00171926 -0.00438108 1.32366)
(0.00296511 -0.00441976 1.32359)
(0.00420915 -0.00449075 1.32348)
(0.005457 -0.00456229 1.32336)
(0.00670333 -0.00470003 1.32323)
(0.0079767 -0.00465994 1.32312)
(0.00932651 -0.00483751 1.32304)
(-0.00747868 -0.00342469 1.32402)
(-0.00614109 -0.00322577 1.32377)
(-0.00478239 -0.00325426 1.32385)
(-0.00346106 -0.00316592 1.32378)
(-0.00214825 -0.00311589 1.32374)
(-0.000852964 -0.0030729 1.32366)
(0.000431904 -0.00305944 1.32357)
(0.00170822 -0.00307244 1.32349)
(0.00297935 -0.00309912 1.32343)
(0.00424284 -0.00315755 1.32336)
(0.00550596 -0.00321073 1.32328)
(0.00676179 -0.00332799 1.32319)
(0.00803385 -0.0032836 1.32304)
(0.00929024 -0.00353536 1.323)
(-0.00735437 -0.00214403 1.32392)
(-0.00603958 -0.00191813 1.32367)
(-0.00468807 -0.00197192 1.3237)
(-0.00338874 -0.00189639 1.32361)
(-0.00209901 -0.00185298 1.32356)
(-0.000828982 -0.00181146 1.32348)
(0.000430786 -0.00179526 1.32341)
(0.00168136 -0.00180259 1.32333)
(0.00292842 -0.00182196 1.32327)
(0.00416971 -0.00187289 1.32319)
(0.0054173 -0.00191254 1.32311)
(0.00666129 -0.00200678 1.32303)
(0.007929 -0.00193533 1.32292)
(0.0091745 -0.00217818 1.32292)
(-0.00726892 -0.000841015 1.32379)
(-0.00595109 -0.00063477 1.3236)
(-0.00461906 -0.000688944 1.3236)
(-0.0033396 -0.000627903 1.32349)
(-0.00206715 -0.000592181 1.32344)
(-0.00081198 -0.000558728 1.32335)
(0.000435769 -0.00054443 1.32327)
(0.00167507 -0.000548166 1.32319)
(0.00291104 -0.000560055 1.32312)
(0.00414108 -0.000598018 1.32305)
(0.00537807 -0.000624537 1.32298)
(0.00661125 -0.00069535 1.32292)
(0.0078698 -0.000620847 1.32281)
(0.00912402 -0.000821338 1.32279)
(-0.00720933 0.000449017 1.32362)
(-0.00586929 0.000620249 1.32349)
(-0.0045521 0.000580646 1.32344)
(-0.00328535 0.0006239 1.32334)
(-0.00202845 0.000652013 1.32327)
(-0.000788754 0.000676562 1.32319)
(0.000443009 0.000688482 1.32311)
(0.00166613 0.00068753 1.32303)
(0.00288674 0.000681322 1.32297)
(0.0041044 0.000656709 1.3229)
(0.00533256 0.000642047 1.32283)
(0.00656009 0.000594723 1.32278)
(0.00781788 0.000658126 1.32269)
(0.00909552 0.000506076 1.32262)
(-0.00717153 0.00171607 1.32344)
(-0.0058161 0.00185599 1.32337)
(-0.00451228 0.00184597 1.3233)
(-0.00325444 0.00187155 1.32321)
(-0.00200786 0.00189324 1.32313)
(-0.000776609 0.00190698 1.32305)
(0.000447805 0.00191491 1.32296)
(0.00166428 0.00191489 1.32289)
(0.00287851 0.00191266 1.32282)
(0.00408992 0.00190127 1.32275)
(0.00531254 0.00189578 1.32269)
(0.00653622 0.00186903 1.32263)
(0.00779294 0.00190603 1.32256)
(0.00908999 0.00179705 1.32246)
(-0.00714 0.00297136 1.32329)
(-0.0057804 0.00308164 1.32324)
(-0.00448652 0.00310534 1.32315)
(-0.00323594 0.00311159 1.32306)
(-0.00199686 0.00312571 1.32299)
(-0.000771019 0.00312756 1.3229)
(0.000449472 0.00313085 1.32282)
(0.0016634 0.00313069 1.32274)
(0.00287568 0.00313117 1.32268)
(0.00408405 0.00313251 1.32261)
(0.00530307 0.00313541 1.32254)
(0.00652496 0.0031286 1.3225)
(0.00778272 0.00313041 1.32241)
(0.00909415 0.0030601 1.32234)
(-0.00711429 0.00422727 1.32317)
(-0.0057625 0.00430824 1.32309)
(-0.00447474 0.00436425 1.32302)
(-0.00322927 0.00434993 1.32292)
(-0.00199374 0.0043542 1.32285)
(-0.000770013 0.00434363 1.32276)
(0.000449534 0.00434204 1.32268)
(0.00166415 0.00434066 1.32261)
(0.00287848 0.00434237 1.32254)
(0.00408849 0.00435444 1.32247)
(0.00530938 0.0043645 1.32239)
(0.00653474 0.00437747 1.32236)
(0.00779593 0.00433958 1.32224)
(0.00910898 0.00430828 1.32224)
(-0.00712169 0.00549916 1.32305)
(-0.00578757 0.00554357 1.32292)
(-0.00450221 0.00562445 1.32289)
(-0.00325666 0.00558628 1.32278)
(-0.00201605 0.0055766 1.32271)
(-0.00078562 0.00555285 1.32263)
(0.000441486 0.00554549 1.32255)
(0.00166551 0.00554177 1.32248)
(0.0028911 0.00554401 1.32241)
(0.00411372 0.00556545 1.32234)
(0.0053471 0.00558206 1.32225)
(0.00658432 0.00561818 1.32222)
(0.00785015 0.00554662 1.32207)
(0.0091513 0.00556514 1.32214)
(-0.00713485 0.00678908 1.3229)
(-0.00580993 0.00679844 1.32275)
(-0.00452297 0.00689354 1.32274)
(-0.00327164 0.00683228 1.32264)
(-0.00202476 0.00680564 1.32257)
(-0.000789823 0.00676868 1.3225)
(0.000438885 0.00675364 1.32241)
(0.00166465 0.0067457 1.32234)
(0.00289349 0.00674832 1.32227)
(0.00412316 0.00677786 1.32219)
(0.00536664 0.00680193 1.3221)
(0.00661529 0.0068604 1.32205)
(0.00789233 0.00676833 1.32189)
(0.00918784 0.00683413 1.32198)
(-0.00723481 0.00808833 1.32268)
(-0.00590644 0.00806178 1.32254)
(-0.00461354 0.00816217 1.32257)
(-0.00334879 0.0080772 1.32249)
(-0.00208518 0.0080343 1.32245)
(-0.000833065 0.007986 1.32238)
(0.000412386 0.00796217 1.3223)
(0.00165708 0.00794946 1.32223)
(0.00290704 0.00795315 1.32216)
(0.00416146 0.00798848 1.32208)
(0.00542879 0.00801599 1.32196)
(0.00670144 0.00809469 1.32187)
(0.00799724 0.0079847 1.32167)
(0.00931473 0.00808475 1.32174)
(-0.0071657 0.00940809 1.32257)
(-0.0058155 0.00935521 1.3224)
(-0.0045257 0.00945691 1.32237)
(-0.00325909 0.00935271 1.32232)
(-0.00201021 0.00929431 1.32228)
(-0.000783111 0.00923849 1.32223)
(0.000429811 0.00920572 1.32215)
(0.00163941 0.00918538 1.32208)
(0.00285448 0.00918423 1.32198)
(0.00408061 0.0092169 1.32187)
(0.00532787 0.00924938 1.32175)
(0.00658629 0.00934578 1.32163)
(0.00787211 0.00922627 1.32149)
(0.00919739 0.00933586 1.32159)
(-0.00711662 0.010682 1.32253)
(-0.00597247 0.0106745 1.32223)
(-0.00472626 0.0107144 1.32226)
(-0.0034445 0.0105907 1.32228)
(-0.00215391 0.010538 1.32221)
(-0.000884415 0.0104974 1.3221)
(0.000363426 0.0104753 1.32199)
(0.00160348 0.0104584 1.32193)
(0.00285093 0.0104503 1.3219)
(0.00412379 0.0104663 1.32187)
(0.00542418 0.01048 1.32179)
(0.00673229 0.0105846 1.32162)
(0.00802945 0.0104792 1.32148)
(0.0092717 0.0105048 1.32168)
(-0.00782033 -0.00657086 1.15161)
(-0.00661261 -0.00669653 1.1512)
(-0.00527418 -0.00671877 1.1511)
(-0.00391141 -0.00662286 1.15103)
(-0.00254635 -0.00660112 1.15092)
(-0.00120481 -0.00658847 1.15077)
(0.000108259 -0.00659606 1.15061)
(0.00140445 -0.0066156 1.15049)
(0.00269585 -0.00663946 1.15042)
(0.0039922 -0.00668147 1.15036)
(0.00529601 -0.00672538 1.15028)
(0.00660202 -0.00686615 1.15015)
(0.0078939 -0.00681069 1.15011)
(0.00911258 -0.00677712 1.1502)
(-0.00792528 -0.00548347 1.15105)
(-0.00655745 -0.00535601 1.15074)
(-0.00519134 -0.00542903 1.15068)
(-0.00385266 -0.0053373 1.15059)
(-0.00251739 -0.00529452 1.15051)
(-0.00119682 -0.00524658 1.15041)
(0.000114913 -0.00522749 1.15032)
(0.00141724 -0.00523626 1.15022)
(0.00270925 -0.00526498 1.15012)
(0.00398635 -0.00532785 1.15001)
(0.00526792 -0.0053791 1.14992)
(0.00653839 -0.00550553 1.14981)
(0.00782469 -0.0054159 1.14975)
(0.00912386 -0.0056016 1.14969)
(-0.00792973 -0.00419239 1.15083)
(-0.00663106 -0.0040142 1.15055)
(-0.00525501 -0.00407748 1.15052)
(-0.00391687 -0.0039974 1.15038)
(-0.0025734 -0.00396308 1.15027)
(-0.00124122 -0.0039263 1.15014)
(8.89317e-05 -0.00391556 1.15001)
(0.00141256 -0.0039246 1.14991)
(0.00272726 -0.00394309 1.14983)
(0.00402539 -0.00398923 1.14975)
(0.00532845 -0.00402324 1.14969)
(0.00661811 -0.00412506 1.14963)
(0.00792412 -0.00404639 1.14952)
(0.00917855 -0.00424838 1.14952)
(-0.00781709 -0.00285878 1.15063)
(-0.00652722 -0.00270813 1.15033)
(-0.00517044 -0.00277095 1.15025)
(-0.00385395 -0.00270439 1.15008)
(-0.00253215 -0.00267205 1.14996)
(-0.00122182 -0.0026365 1.14983)
(8.70477e-05 -0.00262401 1.14972)
(0.00138983 -0.00263022 1.14961)
(0.00268535 -0.00264541 1.14953)
(0.00396436 -0.00268594 1.14945)
(0.00525397 -0.00270991 1.1494)
(0.00652393 -0.00278764 1.14935)
(0.00782129 -0.00270736 1.14929)
(0.00907401 -0.00286347 1.14934)
(-0.00776702 -0.00151477 1.15042)
(-0.00646064 -0.00139896 1.15013)
(-0.005122 -0.00144728 1.15003)
(-0.0038176 -0.00139731 1.14985)
(-0.00250825 -0.00137009 1.14972)
(-0.0012089 -0.00134333 1.14957)
(9.04594e-05 -0.00133361 1.14945)
(0.0013849 -0.00133812 1.14934)
(0.00267337 -0.00134823 1.14926)
(0.00394611 -0.0013778 1.1492)
(0.00523054 -0.00139216 1.14915)
(0.00649508 -0.00144673 1.14912)
(0.00777719 -0.00137895 1.14907)
(0.00904935 -0.00148831 1.14911)
(-0.00772383 -0.000196074 1.15017)
(-0.00638934 -0.00010477 1.14993)
(-0.00506604 -0.000135594 1.14978)
(-0.0037713 -0.000102656 1.1496)
(-0.00247638 -8.00764e-05 1.14945)
(-0.00119048 -6.0555e-05 1.14931)
(9.46449e-05 -5.16891e-05 1.14918)
(0.00137525 -5.35167e-05 1.14908)
(0.00265188 -5.97671e-05 1.149)
(0.00391683 -8.07043e-05 1.14894)
(0.00519475 -8.97448e-05 1.14889)
(0.00645531 -0.0001268 1.14888)
(0.00772799 -7.3214e-05 1.14884)
(0.00902196 -0.000149653 1.14885)
(-0.00769989 0.00109317 1.14992)
(-0.00634568 0.00118026 1.14973)
(-0.00503505 0.00117372 1.14956)
(-0.003747 0.00119149 1.14937)
(-0.00246053 0.00121036 1.14922)
(-0.00118067 0.00122157 1.14907)
(9.84958e-05 0.00122879 1.14895)
(0.00137308 0.00122861 1.14884)
(0.00264433 0.00122546 1.14877)
(0.00390579 0.00121303 1.1487)
(0.00518026 0.00120724 1.14866)
(0.00643886 0.00118438 1.14865)
(0.00770712 0.0012172 1.14862)
(0.00901797 0.00115268 1.1486)
(-0.00767596 0.00236709 1.14971)
(-0.00631603 0.00245824 1.14952)
(-0.0050137 0.00247837 1.14934)
(-0.00373228 0.00248067 1.14915)
(-0.00245155 0.00249471 1.149)
(-0.00117519 0.00249678 1.14885)
(0.000100658 0.0025015 1.14873)
(0.00137166 0.00250209 1.14862)
(0.00263946 0.00250171 1.14855)
(0.00389849 0.00249893 1.14848)
(0.00517061 0.00249769 1.14844)
(0.00642863 0.0024893 1.14843)
(0.00769598 0.00249538 1.14839)
(0.0090199 0.00243063 1.1484)
(-0.00765118 0.0036436 1.14954)
(-0.00630085 0.00373683 1.14932)
(-0.00500129 0.00378581 1.14915)
(-0.00372581 0.00377167 1.14895)
(-0.00244779 0.00377814 1.1488)
(-0.00117265 0.00376931 1.14866)
(0.000102424 0.00376979 1.14853)
(0.0013726 0.00376955 1.14843)
(0.0026399 0.00377115 1.14835)
(0.00389891 0.00377849 1.14828)
(0.00517151 0.00378306 1.14823)
(0.00643273 0.00379118 1.14824)
(0.00770155 0.00376323 1.14817)
(0.00902722 0.00370105 1.14824)
(-0.00765095 0.0049409 1.14939)
(-0.00632506 0.00501537 1.14911)
(-0.00502305 0.00509317 1.14897)
(-0.00374897 0.00506 1.14877)
(-0.00246616 0.00505646 1.14862)
(-0.00118518 0.00503612 1.14848)
(9.63324e-05 0.00503124 1.14836)
(0.00137366 0.00502877 1.14825)
(0.00264933 0.0050307 1.14818)
(0.00391849 0.00504738 1.14811)
(0.00519968 0.00505656 1.14805)
(0.00647348 0.00508564 1.14805)
(0.00774549 0.00502071 1.14794)
(0.00905348 0.00498533 1.14808)
(-0.00763692 0.00626849 1.14921)
(-0.00633066 0.00630561 1.14892)
(-0.00502893 0.00640564 1.14879)
(-0.00375598 0.00635241 1.1486)
(-0.00247183 0.0063351 1.14846)
(-0.00118898 0.00630161 1.14832)
(9.42407e-05 0.00628875 1.14819)
(0.00137384 0.00628216 1.14809)
(0.00265267 0.0062841 1.14801)
(0.0039256 0.00630948 1.14794)
(0.00520984 0.00632494 1.14787)
(0.00649097 0.00637523 1.14785)
(0.00776759 0.0062785 1.14774)
(0.00905768 0.00629099 1.14789)
(-0.00772935 0.00759917 1.14896)
(-0.00642211 0.00757299 1.14869)
(-0.00511068 0.00769402 1.14861)
(-0.0038244 0.0076221 1.14844)
(-0.0025241 0.00759904 1.14832)
(-0.00122637 0.0075597 1.14819)
(7.07425e-05 0.00754136 1.14807)
(0.0013658 0.00753063 1.14798)
(0.00266235 0.00753005 1.1479)
(0.00395778 0.00755814 1.14782)
(0.00526274 0.00757028 1.14772)
(0.00656951 0.00763547 1.14767)
(0.00786652 0.00749798 1.14751)
(0.00917411 0.00758337 1.14763)
(-0.0075912 0.00894597 1.14885)
(-0.0062749 0.00887306 1.14855)
(-0.00498759 0.00900783 1.1484)
(-0.0037237 0.00891382 1.14826)
(-0.00245506 0.00887886 1.14814)
(-0.00118694 0.00883084 1.14804)
(8.37525e-05 0.00880178 1.14792)
(0.00135416 0.0087841 1.14782)
(0.00262193 0.00878215 1.14772)
(0.00388389 0.00881186 1.14761)
(0.00515927 0.00882801 1.14751)
(0.00642431 0.00890954 1.14743)
(0.00770062 0.0087458 1.14734)
(0.00899058 0.00887977 1.14748)
(-0.00764119 0.0102025 1.14878)
(-0.00647827 0.0101339 1.14838)
(-0.00517501 0.0102542 1.14829)
(-0.00384183 0.010148 1.14822)
(-0.00251655 0.0101255 1.14808)
(-0.0012218 0.0100958 1.14793)
(4.94391e-05 0.0100828 1.14779)
(0.00131156 0.0100707 1.1477)
(0.00257849 0.01006 1.14766)
(0.00387038 0.0100658 1.14764)
(0.00519377 0.0100545 1.14757)
(0.00654035 0.0101467 1.14743)
(0.00787073 0.00997024 1.14734)
(0.00913503 0.0100734 1.14753)
(-0.00820657 -0.00752363 0.990771)
(-0.00696654 -0.00747858 0.99058)
(-0.00560341 -0.00760335 0.990567)
(-0.0042553 -0.00751467 0.990588)
(-0.00290855 -0.00751478 0.990543)
(-0.00158484 -0.00750301 0.990429)
(-0.000283987 -0.00750607 0.990286)
(0.00100319 -0.00751444 0.990161)
(0.00229009 -0.00752178 0.990066)
(0.00359089 -0.0075437 0.989962)
(0.00492148 -0.00754709 0.989813)
(0.00625171 -0.00765795 0.989587)
(0.0076041 -0.00750058 0.989442)
(0.00884415 -0.00761732 0.989357)
(-0.00815946 -0.00631296 0.990382)
(-0.00689401 -0.00618794 0.990251)
(-0.00556621 -0.00631136 0.990268)
(-0.00426905 -0.00623605 0.990256)
(-0.00295072 -0.00621574 0.990229)
(-0.00162867 -0.0061781 0.99017)
(-0.000299524 -0.00616197 0.990083)
(0.00102841 -0.00616333 0.989975)
(0.00235023 -0.00617529 0.989852)
(0.00365736 -0.00621485 0.989692)
(0.00496196 -0.00623595 0.989531)
(0.00622913 -0.00633428 0.989331)
(0.00751227 -0.00619056 0.989172)
(0.00872009 -0.00635989 0.989007)
(-0.00826639 -0.00497014 0.990237)
(-0.00700509 -0.00487106 0.990118)
(-0.00566029 -0.00496637 0.99017)
(-0.00433808 -0.00491188 0.990118)
(-0.00299682 -0.00489688 0.990073)
(-0.0016568 -0.00486872 0.989979)
(-0.000312102 -0.00485968 0.989872)
(0.0010304 -0.00486228 0.989757)
(0.00236923 -0.00486831 0.989647)
(0.0036999 -0.00489677 0.989522)
(0.00502985 -0.00491071 0.989383)
(0.00633652 -0.00498694 0.989231)
(0.00764753 -0.00488135 0.989015)
(0.00887496 -0.00500253 0.988884)
(-0.00817725 -0.00361631 0.990114)
(-0.0069211 -0.00358026 0.98995)
(-0.00560473 -0.00365112 0.989965)
(-0.0042994 -0.00361306 0.989888)
(-0.00297257 -0.00359603 0.989827)
(-0.00164552 -0.003569 0.98973)
(-0.000313424 -0.0035586 0.989627)
(0.00101677 -0.00355974 0.989517)
(0.00234377 -0.0035656 0.989406)
(0.00366206 -0.0035915 0.989282)
(0.00497609 -0.00360451 0.989152)
(0.00626779 -0.00365923 0.98902)
(0.00755989 -0.00358377 0.988837)
(0.00878733 -0.00362567 0.988764)
(-0.0081703 -0.00226518 0.989946)
(-0.00689045 -0.00226847 0.989789)
(-0.00558547 -0.00231502 0.989785)
(-0.00428161 -0.00229197 0.989689)
(-0.00295906 -0.00227629 0.989614)
(-0.00163521 -0.00225711 0.989505)
(-0.000307152 -0.00224966 0.989397)
(0.00101888 -0.00225061 0.989285)
(0.00234162 -0.00225423 0.989178)
(0.00365567 -0.00227278 0.989061)
(0.00496177 -0.00228141 0.988936)
(0.00625217 -0.00231609 0.988822)
(0.00753906 -0.00226471 0.98865)
(0.00879577 -0.00226039 0.988568)
(-0.00815359 -0.00094692 0.989719)
(-0.0068471 -0.000956073 0.989599)
(-0.00554932 -0.000984112 0.98956)
(-0.00424922 -0.000971927 0.989454)
(-0.00293675 -0.000957524 0.989368)
(-0.00162188 -0.000944983 0.989259)
(-0.000303566 -0.000939166 0.989151)
(0.00101315 -0.000939764 0.989041)
(0.00232713 -0.000942141 0.988935)
(0.00363364 -0.000955518 0.988822)
(0.00493118 -0.000961354 0.988701)
(0.00621916 -0.000984561 0.988595)
(0.00750142 -0.000948359 0.988446)
(0.0087828 -0.000937819 0.988326)
(-0.00815406 0.000339708 0.98947)
(-0.00682765 0.000358786 0.989392)
(-0.00553425 0.000348528 0.989331)
(-0.00423561 0.000353972 0.989222)
(-0.00292816 0.000367293 0.98913)
(-0.00161652 0.000372891 0.98902)
(-0.000301177 0.000376856 0.988909)
(0.00101294 0.00037587 0.988799)
(0.0023242 0.000374204 0.988693)
(0.00362818 0.00036536 0.988582)
(0.0049214 0.000361301 0.98846)
(0.00620811 0.000343654 0.98836)
(0.00748369 0.000366726 0.988214)
(0.00878347 0.00034971 0.988076)
(-0.00814926 0.00160795 0.98924)
(-0.00681284 0.00167032 0.989162)
(-0.00552183 0.00167788 0.989092)
(-0.00422659 0.00167695 0.988981)
(-0.00292315 0.00168846 0.988884)
(-0.00161421 0.00168766 0.988775)
(-0.000301113 0.00169024 0.988663)