/*--------------------------------*- C++ -*----------------------------------*\
| =========                 |                                                 |
| \\      /  F ield         | OpenFOAM: The Open Source CFD Toolbox           |
|  \\    /   O peration     | Version:  v2106                                 |
|   \\  /    A nd           | Website:  www.openfoam.com                      |
|    \\/     M anipulation  |                                                 |
\*---------------------------------------------------------------------------*/
FoamFile
{
    version     2.0;
    format      ascii;
    arch        "LSB;label=32;scalar=64";
    class       volScalarField;
    location    "0.000162";
    object      T;
}
// * * * * * * * * * * * * * * * * * * * * * * * * * * * * * * * * * * * * * //

dimensions      [0 0 0 1 0 0 0];

internalField   nonuniform List<scalar> 
18273
(
292.772
292.808
292.464
292.283
292.079
291.974
291.874
291.769
291.725
291.797
291.948
292.228
292.634
293.212
292.069
292.146
292.041
292.077
292.038
291.989
291.917
291.83
291.802
291.849
291.973
292.25
292.649
293.116
291.542
291.667
291.76
291.935
291.992
291.995
291.955
291.883
291.847
291.846
291.928
292.111
292.38
292.686
291.045
291.261
291.566
291.859
291.966
291.983
291.961
291.91
291.898
291.889
291.942
292.045
292.21
292.395
290.671
291.07
291.511
291.857
291.969
291.979
291.954
291.91
291.891
291.89
291.907
291.946
292.031
292.124
290.437
290.972
291.517
291.883
291.995
291.996
291.966
291.929
291.913
291.909
291.912
291.915
291.946
292.017
290.349
290.971
291.571
291.935
292.041
292.029
291.999
291.972
291.962
291.95
291.931
291.909
291.905
291.97
290.326
290.982
291.617
291.958
292.065
292.056
292.033
292.017
292.02
292.007
291.977
291.933
291.924
291.992
290.34
290.996
291.621
291.917
292.006
292.005
292.011
292.027
292.05
292.036
292.012
291.978
291.989
292.069
290.339
290.971
291.531
291.734
291.789
291.781
291.808
291.866
291.936
291.973
291.994
291.992
292.059
292.191
290.409
290.932
291.36
291.414
291.378
291.322
291.349
291.441
291.586
291.723
291.853
291.944
292.108
292.264
290.473
290.888
291.195
291.111
290.902
290.731
290.723
290.792
290.981
291.205
291.457
291.678
292.011
292.208
290.765
291.027
291.165
290.957
290.58
290.263
290.169
290.171
290.307
290.508
290.828
291.129
291.718
292.022
291.031
291.034
291.123
290.933
290.505
290.089
289.92
289.891
289.977
290.124
290.403
290.723
291.339
291.919
291.588
291.518
291.067
290.863
290.615
290.393
290.205
290.145
290.223
290.512
290.894
291.271
291.655
292.156
291.012
291.101
291.005
291.05
290.997
290.905
290.765
290.69
290.695
290.805
291.025
291.325
291.666
291.913
290.597
290.752
290.905
291.109
291.172
291.173
291.097
291.017
290.962
290.977
291.049
291.183
291.297
291.277
290.087
290.436
290.834
291.137
291.238
291.252
291.215
291.155
291.114
291.095
291.105
291.112
291.057
290.868
289.618
290.261
290.85
291.199
291.291
291.282
291.242
291.172
291.128
291.097
291.083
291.006
290.808
290.471
289.277
290.138
290.864
291.241
291.329
291.307
291.257
291.196
291.152
291.117
291.07
290.918
290.623
290.256
289.084
290.101
290.919
291.306
291.387
291.344
291.287
291.228
291.183
291.13
291.052
290.849
290.524
290.19
289.001
290.089
290.94
291.304
291.394
291.36
291.307
291.249
291.215
291.155
291.067
290.841
290.553
290.306
288.97
290.083
290.923
291.253
291.333
291.312
291.284
291.251
291.223
291.164
291.057
290.88
290.699
290.563
288.929
290.028
290.803
291.089
291.148
291.122
291.113
291.112
291.123
291.098
291.028
290.929
290.879
290.828
288.964
289.928
290.555
290.702
290.72
290.693
290.7
290.727
290.792
290.845
290.874
290.876
290.936
290.924
288.978
289.795
290.228
290.223
290.103
289.954
289.898
289.917
290.033
290.184
290.356
290.508
290.771
290.855
289.298
289.866
290.033
289.854
289.524
289.193
288.997
288.932
289.007
289.155
289.417
289.692
290.273
290.493
289.511
289.73
289.86
289.656
289.21
288.711
288.38
288.244
288.251
288.327
288.53
288.805
289.46
290.065
291.014
290.937
290.329
290.095
289.735
289.341
289.05
288.908
289.019
289.405
289.97
290.583
291.048
291.447
290.626
290.745
290.605
290.63
290.544
290.351
290.165
290.057
290.081
290.254
290.448
290.795
291.087
291.205
290.168
290.476
290.658
290.856
290.902
290.842
290.72
290.656
290.596
290.614
290.611
290.636
290.663
290.361
289.571
290.233
290.72
290.982
291.052
291.029
290.949
290.867
290.827
290.78
290.715
290.629
290.405
289.882
289.015
290.109
290.779
291.061
291.117
291.082
290.995
290.922
290.851
290.78
290.703
290.527
290.103
289.315
288.543
290.002
290.836
291.144
291.179
291.117
291.024
290.938
290.856
290.775
290.645
290.354
289.755
288.82
288.279
289.916
290.864
291.175
291.23
291.152
291.057
290.953
290.847
290.761
290.585
290.209
289.528
288.564
288.151
289.854
290.845
291.176
291.206
291.143
291.053
290.95
290.86
290.728
290.532
290.133
289.451
288.524
288.116
289.789
290.758
291.1
291.164
291.107
291.044
290.954
290.859
290.739
290.499
290.136
289.568
288.764
288.09
289.677
290.555
290.846
290.89
290.887
290.855
290.812
290.742
290.639
290.455
290.181
289.819
289.206
288.104
289.46
290.158
290.339
290.37
290.34
290.343
290.35
290.355
290.356
290.287
290.118
289.925
289.521
288.026
289.155
289.613
289.625
289.535
289.424
289.386
289.408
289.499
289.622
289.712
289.705
289.795
289.562
288.355
289.082
289.18
288.926
288.494
288.106
287.922
287.885
287.992
288.201
288.486
288.727
289.223
289.147
288.536
288.809
288.792
288.308
287.535
286.842
286.43
286.281
286.358
286.528
286.889
287.232
288.015
288.488
294.024
294.663
295.247
295.979
296.444
296.874
293.345
293.894
294.574
295.379
296.016
296.53
292.998
293.519
294.155
294.908
295.565
296.156
292.663
293.117
293.672
294.43
295.069
295.665
292.444
292.931
293.472
294.29
294.903
295.54
292.312
292.839
293.383
294.271
294.879
295.589
292.272
292.862
293.499
294.446
295.108
295.778
292.292
292.938
293.673
294.714
295.414
296.154
292.372
293.058
293.856
294.908
295.7
296.468
292.551
293.184
294.005
295.028
295.907
296.608
292.688
293.235
294.002
294.972
295.902
296.539
292.697
293.124
293.771
294.704
295.691
296.455
292.549
292.864
293.341
294.141
295.069
295.77
292.356
292.566
292.907
293.605
294.451
295.107
292.947
293.626
294.124
294.857
295.44
295.904
291.859
292.197
292.647
293.192
293.872
294.428
291.214
291.286
291.58
292.031
292.645
293.176
290.598
290.547
290.711
291.258
291.849
292.569
290.194
290.275
290.523
291.296
291.904
292.87
290.007
290.251
290.696
291.718
292.362
293.954
290.073
290.478
291.161
292.486
293.436
294.949
290.272
290.728
291.605
293.153
294.339
295.984
290.665
291.172
292.151
293.801
295.159
296.716
291.025
291.574
292.551
294.122
295.57
296.941
291.227
291.709
292.586
293.985
295.432
296.733
291.227
291.549
292.212
293.315
294.611
295.78
290.935
291.085
291.41
292.143
293.179
294.1
290.342
290.316
290.403
290.865
291.591
292.281
292.374
292.813
293.008
293.076
293.173
292.904
290.871
290.979
291.031
290.839
290.824
289.983
289.981
289.692
289.453
289.069
288.949
287.762
289.121
288.433
287.932
287.533
287.596
286.614
288.322
287.533
287.15
287.053
287.299
286.655
287.783
287.094
286.935
287.332
287.69
288.331
287.6
287.064
287.184
288.318
289.475
291.324
287.667
287.283
287.685
289.486
291.449
294.317
288.12
287.971
288.537
290.533
292.955
296.125
288.86
288.822
289.484
291.326
293.652
296.434
289.524
289.512
290.08
291.519
293.493
295.637
289.692
289.665
290.086
291.027
292.282
293.689
289.427
289.307
289.412
289.747
290.263
290.923
288.471
288.167
287.911
287.798
287.816
287.997
292.009
292.46
292.735
293.391
293.993
294.479
291.041
291.544
292.031
292.925
293.712
294.296
290.577
291.085
291.709
292.771
293.67
294.449
290.198
290.75
291.536
292.808
293.837
294.846
290.015
290.655
291.622
293.022
294.206
295.305
289.897
290.489
291.567
293.135
294.457
295.91
289.911
290.573
291.766
293.433
294.876
296.301
290.027
290.691
291.936
293.703
295.187
296.577
290.298
290.998
292.209
293.909
295.369
296.638
290.76
291.437
292.469
293.992
295.416
296.586
291.197
291.7
292.507
293.84
295.217
296.31
291.354
291.695
292.263
293.316
294.575
295.523
291.243
291.47
291.804
292.693
293.864
294.845
291.002
291.207
291.444
292.283
293.341
294.113
289.704
289.829
289.705
290.117
290.602
291.144
288.612
288.72
288.851
289.545
290.245
291.093
288.252
288.433
288.775
289.772
290.61
291.744
288.013
288.26
288.873
290.182
291.384
292.936
287.969
288.361
289.216
290.82
292.45
294.181
287.93
288.34
289.37
291.317
293.168
295.412
288.013
288.537
289.673
291.815
293.795
296.676
288.195
288.705
289.857
292.099
294.155
297.491
288.613
289.14
290.267
292.526
294.615
297.221
289.208
289.674
290.619
292.607
294.56
296.9
289.724
290.039
290.723
292.3
293.946
295.948
289.93
290.127
290.481
291.415
292.599
293.899
289.85
289.858
289.825
290.27
291.055
292.012
289.334
289.207
288.933
289.232
289.82
290.531
287.946
287.588
286.975
286.512
286.189
286.216
286.359
285.829
285.422
285.375
285.332
285.558
285.743
285.087
284.806
285.079
285.323
285.721
285.311
284.651
284.547
285.307
286.337
287.606
285.12
284.693
284.907
286.448
288.495
290.749
285.056
284.644
285.117
287.391
290.477
294.14
285.103
284.774
285.565
288.366
292.022
296.331
285.363
285.111
286.061
289.005
292.818
297.338
285.961
285.878
286.846
289.606
293.088
297.431
286.901
286.97
287.777
289.954
292.836
296.549
287.986
288.081
288.553
289.907
291.897
294.922
288.674
288.643
288.815
289.518
290.261
291.729
288.748
288.536
288.262
288.136
287.965
288.511
288.097
287.653
286.796
286.17
285.662
285.811
297
296.26
295.303
294.325
293.555
292.99
296.735
295.962
294.914
293.809
292.979
292.495
296.774
295.715
294.429
293.108
292.245
291.743
296.536
295.263
293.818
292.349
291.523
291.102
296.281
294.807
293.228
291.65
290.869
290.56
295.927
294.19
292.648
291.122
290.43
290.204
295.879
293.446
292.037
290.712
290.14
290.014
295.222
293.222
291.815
290.537
290.039
289.945
294.733
292.982
291.501
290.299
289.959
289.909
294.313
292.881
291.561
290.357
290.044
289.901
294.229
292.798
291.534
290.336
290.074
289.934
294.06
292.884
291.684
290.542
290.296
290.099
293.741
292.933
291.864
290.832
290.552
290.297
293.74
293.116
292.317
291.55
291.374
291.018
296.512
295.602
294.255
293.052
292.226
291.736
297.044
295.802
294.41
293.063
292.02
291.497
297.61
295.775
294.046
292.314
291.236
290.774
297.466
295.257
293.441
291.473
290.418
290.035
297.18
294.464
292.555
290.478
289.538
289.298
296.768
293.533
291.676
289.658
288.883
288.765
295.766
292.747
290.927
289.022
288.426
288.415
294.562
291.931
290.306
288.619
288.173
288.221
293.281
291.064
289.592
288.181
287.906
288.07
292.237
290.347
289.131
287.97
287.76
287.966
291.336
289.717
288.694
287.701
287.586
287.888
290.86
289.411
288.532
287.66
287.681
287.963
290.379
289.16
288.346
287.592
287.868
288.15
290.105
289.341
288.825
288.484
288.928
289.071
294.798
294.196
293.16
292.082
291.279
290.944
296.859
295.401
293.774
292.251
291.363
291.101
298.239
295.326
292.996
291.263
290.434
290.293
298.203
294.672
291.861
289.731
288.986
289.148
298.267
293.834
290.539
288.17
287.574
288.005
297.882
292.975
289.389
286.882
286.426
287.141
297.049
292.051
288.375
285.882
285.623
286.554
295.611
290.927
287.484
285.193
285.154
286.21
293.311
289.187
286.275
284.454
284.761
286.034
290.004
287.13
285.252
283.981
284.548
285.958
286.842
285.085
284.158
283.537
284.399
285.939
284.565
283.812
283.829
283.73
284.751
286.122
283.831
283.422
283.842
284.187
285.42
286.559
284.349
284.239
284.889
285.776
287.193
287.997
297.073
296.497
295.72
294.858
294.075
293.57
296.775
296.147
295.267
294.376
293.599
293.127
296.439
295.8
294.79
293.79
293.035
292.576
296.101
295.356
294.347
293.32
292.604
292.198
295.822
294.962
294.019
292.945
292.274
291.929
295.659
294.716
293.829
292.77
292.178
291.819
295.556
294.609
293.751
292.664
292.171
291.829
295.485
294.599
293.798
292.751
292.255
291.888
295.387
294.604
293.832
292.86
292.404
292.038
295.321
294.661
293.897
293.01
292.569
292.194
295.308
294.664
293.97
293.165
292.777
292.407
295.649
295.068
294.394
293.66
293.205
292.712
296.221
295.513
294.887
294.115
293.509
292.936
296.624
296.177
295.573
294.795
294.223
293.592
297.268
296.412
295.095
293.892
292.958
292.5
297.372
296.436
295.225
293.978
292.903
292.303
297.397
296.245
294.855
293.426
292.333
291.719
297.25
295.722
294.188
292.611
291.602
291.114
296.737
294.942
293.307
291.626
290.79
290.513
295.959
293.925
292.372
290.765
290.163
290.01
295.029
292.902
291.615
290.178
289.836
289.786
294.263
292.044
290.957
289.843
289.697
289.748
293.22
291.528
290.628
289.731
289.648
289.802
292.48
291.235
290.422
289.741
289.761
290.027
291.988
291.082
290.474
290.006
290.102
290.444
292.203
291.651
291.187
290.883
290.848
290.903
293.263
292.705
292.337
291.988
291.674
291.401
294.938
294.472
294.012
293.43
292.967
292.376
295.192
294.622
293.57
292.561
291.807
291.528
296.47
295.46
294.088
292.785
291.924
291.678
297.647
295.496
293.482
292.003
291.139
290.893
297.754
294.921
292.23
290.462
289.733
289.83
297.166
293.589
290.722
288.713
288.21
288.655
295.769
291.829
289.097
287.21
287.092
287.877
293.286
289.813
287.681
286.209
286.35
287.467
290.072
287.712
286.565
285.689
286.146
287.497
287.052
285.99
285.622
285.36
286.165
287.748
285.481
285.376
285.377
285.693
286.744
288.34
285.225
285.796
285.914
286.705
287.832
289.061
286.44
287.328
287.768
288.511
289.189
289.803
288.721
289.438
289.957
290.434
290.533
290.535
291.986
292.311
292.538
292.596
292.453
291.915
291.957
291.815
291.279
290.952
290.5
289.91
289.444
289.228
289.223
289.593
290.161
290.943
291.655
292.468
291.348
291.533
291.545
291.535
291.467
291.183
290.864
290.703
290.745
290.82
291.07
291.433
291.835
292.245
290.763
291.314
291.6
291.749
291.803
291.697
291.542
291.452
291.414
291.443
291.511
291.584
291.688
291.492
290.117
291.123
291.638
291.824
291.871
291.814
291.712
291.676
291.69
291.701
291.697
291.686
291.524
290.959
289.57
290.951
291.625
291.848
291.872
291.818
291.743
291.713
291.714
291.72
291.724
291.643
291.239
290.228
289.183
290.842
291.609
291.852
291.873
291.8
291.754
291.706
291.687
291.693
291.668
291.437
290.735
289.361
288.948
290.723
291.611
291.867
291.893
291.828
291.758
291.697
291.663
291.596
291.536
291.15
290.23
288.703
288.818
290.679
291.583
291.851
291.886
291.826
291.765
291.69
291.648
291.572
291.378
290.887
289.907
288.422
288.828
290.672
291.55
291.817
291.86
291.828
291.779
291.699
291.628
291.517
291.27
290.742
289.805
288.492
288.873
290.596
291.385
291.665
291.727
291.727
291.699
291.623
291.557
291.428
291.177
290.693
289.956
288.911
288.932
290.347
290.989
291.244
291.348
291.378
291.361
291.334
291.318
291.224
291.037
290.674
290.149
289.408
288.836
289.91
290.363
290.48
290.488
290.515
290.509
290.566
290.648
290.689
290.625
290.433
290.213
289.717
289.193
289.565
289.597
289.419
289.153
288.956
288.894
288.973
289.189
289.439
289.623
289.722
289.992
289.758
289.297
289.206
288.909
288.26
287.511
286.929
286.67
286.669
286.922
287.318
287.819
288.248
289.125
289.53
292.555
292.691
292.424
292.238
291.868
291.245
290.603
290.201
290.08
290.197
290.587
291.291
292.087
293.055
292.003
292.441
292.617
292.645
292.567
292.274
291.923
291.71
291.675
291.72
291.865
292.17
292.566
293.121
291.521
292.348
292.682
292.781
292.761
292.612
292.439
292.353
292.357
292.373
292.466
292.571
292.716
292.741
291.045
292.23
292.677
292.802
292.772
292.682
292.586
292.557
292.571
292.624
292.706
292.743
292.719
292.412
290.655
292.09
292.65
292.784
292.743
292.645
292.593
292.566
292.579
292.62
292.681
292.699
292.541
291.818
290.485
291.992
292.597
292.742
292.697
292.627
292.567
292.537
292.542
292.566
292.605
292.514
292.063
290.891
290.36
291.941
292.565
292.714
292.685
292.613
292.554
292.519
292.511
292.504
292.439
292.205
291.454
289.935
290.406
291.934
292.549
292.702
292.688
292.62
292.556
292.504
292.477
292.432
292.284
291.858
290.879
289.247
290.571
291.971
292.534
292.687
292.702
292.645
292.578
292.507
292.442
292.347
292.124
291.586
290.547
288.965
290.696
291.915
292.424
292.59
292.639
292.62
292.563
292.483
292.391
292.259
291.988
291.449
290.481
289.075
290.718
291.663
292.081
292.277
292.365
292.407
292.383
292.345
292.276
292.157
291.887
291.375
290.625
289.574
290.532
291.143
291.446
291.599
291.688
291.761
291.802
291.876
291.932
291.886
291.697
291.287
290.819
290.129
290.634
290.522
290.491
290.383
290.301
290.351
290.484
290.724
291.017
291.209
291.219
291.05
290.909
290.545
290.421
289.914
289.389
288.742
288.276
288.12
288.223
288.566
289.114
289.671
290.091
290.333
290.854
290.889
293.528
293.784
293.775
293.707
293.509
293.116
292.667
292.343
292.189
292.118
292.274
292.683
293.341
294.206
293.06
293.623
293.823
293.834
293.758
293.557
293.349
293.238
293.228
293.271
293.39
293.611
293.94
294.448
292.652
293.51
293.801
293.85
293.798
293.674
293.586
293.572
293.612
293.689
293.811
293.985
294.174
294.373
292.354
293.402
293.749
293.818
293.757
293.681
293.645
293.665
293.715
293.818
293.965
294.126
294.222
294.229
292.202
293.305
293.68
293.75
293.696
293.649
293.631
293.651
293.704
293.793
293.91
294.037
294.088
293.909
292.154
293.249
293.612
293.669
293.631
293.607
293.596
293.618
293.671
293.746
293.83
293.893
293.803
293.321
292.16
293.204
293.562
293.621
293.599
293.578
293.565
293.585
293.628
293.671
293.687
293.672
293.393
292.587
292.25
293.205
293.536
293.608
293.601
293.581
293.559
293.561
293.577
293.588
293.568
293.407
292.919
291.841
292.424
293.215
293.51
293.612
293.622
293.604
293.573
293.55
293.532
293.505
293.421
293.148
292.509
291.302
292.544
293.18
293.445
293.553
293.613
293.604
293.578
293.538
293.488
293.417
293.274
292.932
292.262
291.086
292.435
292.928
293.205
293.375
293.487
293.528
293.536
293.505
293.426
293.334
293.159
292.792
292.17
291.115
292.144
292.457
292.711
292.913
293.063
293.175
293.248
293.297
293.3
293.232
293.045
292.677
292.226
291.462
291.932
291.76
291.83
291.922
292.079
292.289
292.471
292.715
292.918
292.972
292.87
292.628
292.34
291.86
291.388
290.877
290.511
290.267
290.259
290.474
290.856
291.38
291.915
292.303
292.45
292.432
292.616
292.433
294.381
294.673
294.71
294.688
294.616
294.449
294.263
294.142
294.097
294.108
294.124
294.315
294.679
295.241
294.077
294.596
294.707
294.693
294.62
294.509
294.444
294.452
294.521
294.636
294.813
295.012
295.237
295.512
293.837
294.51
294.654
294.65
294.585
294.506
294.486
294.535
294.637
294.784
294.956
295.116
295.328
295.502
293.707
294.434
294.571
294.575
294.52
294.47
294.479
294.539
294.64
294.786
294.961
295.15
295.331
295.454
293.651
294.35
294.474
294.475
294.435
294.426
294.449
294.514
294.607
294.734
294.886
295.056
295.219
295.321
293.657
294.266
294.38
294.384
294.366
294.382
294.415
294.479
294.565
294.677
294.81
294.958
295.05
295.041
293.661
294.197
294.309
294.328
294.329
294.352
294.388
294.445
294.519
294.614
294.709
294.808
294.84
294.678
293.723
294.163
294.276
294.313
294.327
294.348
294.372
294.417
294.48
294.56
294.63
294.661
294.589
294.216
293.803
294.143
294.258
294.33
294.349
294.363
294.37
294.396
294.441
294.495
294.532
294.498
294.32
293.758
293.838
294.131
294.243
294.317
294.371
294.383
294.378
294.383
294.398
294.418
294.419
294.315
294.074
293.381
293.675
293.949
294.14
294.276
294.366
294.389
294.384
294.373
294.36
294.342
294.303
294.136
293.857
293.14
293.367
293.596
293.84
294.04
294.203
294.286
294.339
294.342
294.309
294.285
294.197
293.994
293.74
293.101
293.011
293.006
293.221
293.453
293.691
293.874
294.038
294.169
294.244
294.229
294.124
293.949
293.727
293.24
292.398
292.086
292.036
292.143
292.435
292.837
293.192
293.593
293.898
294.028
294.018
293.957
293.881
293.596
295.371
295.618
295.635
295.61
295.602
295.527
295.51
295.517
295.564
295.651
295.767
295.913
296.17
296.502
295.177
295.578
295.622
295.583
295.53
295.478
295.488
295.541
295.659
295.83
296.051
296.299
296.522
296.695
295.083
295.537
295.534
295.511
295.452
295.438
295.454
295.535
295.658
295.841
296.056
296.269
296.48
296.68
294.98
295.448
295.435
295.42
295.384
295.38
295.429
295.524
295.65
295.818
296.009
296.215
296.419
296.611
294.907
295.309
295.316
295.319
295.315
295.35
295.408
295.505
295.621
295.763
295.921
296.107
296.311
296.536
294.878
295.178
295.213
295.232
295.262
295.322
295.391
295.479
295.582
295.704
295.846
296.016
296.213
296.403
294.855
295.083
295.133
295.175
295.226
295.299
295.372
295.455
295.545
295.653
295.779
295.927
296.092
296.206
294.88
295.035
295.096
295.156
295.214
295.283
295.35
295.424
295.509
295.612
295.735
295.865
295.966
295.979
294.923
295.016
295.092
295.169
295.225
295.278
295.323
295.385
295.465
295.566
295.677
295.77
295.813
295.705
294.882
295.024
295.094
295.189
295.25
295.284
295.306
295.347
295.416
295.51
295.6
295.65
295.653
295.441
294.732
294.941
295.105
295.219
295.285
295.302
295.307
295.328
295.376
295.446
295.507
295.517
295.522
295.194
294.494
294.743
294.977
295.135
295.253
295.306
295.322
295.337
295.356
295.387
295.422
295.38
295.37
294.999
294.179
294.363
294.625
294.837
295.044
295.185
295.282
295.332
295.347
295.369
295.37
295.352
295.3
294.967
293.623
293.613
293.739
294.003
294.361
294.678
294.962
295.174
295.306
295.351
295.335
295.348
295.294
295.066
296.342
296.491
296.497
296.446
296.431
296.401
296.432
296.486
296.6
296.749
296.938
297.129
297.367
297.651
296.241
296.506
296.449
296.401
296.356
296.348
296.383
296.462
296.593
296.777
297.023
297.306
297.587
297.767
296.13
296.447
296.359
296.325
296.289
296.306
296.352
296.455
296.594
296.779
297.005
297.251
297.494
297.7
296.004
296.281
296.236
296.233
296.229
296.267
296.336
296.451
296.589
296.761
296.957
297.172
297.393
297.596
295.905
296.095
296.111
296.139
296.179
296.251
296.331
296.441
296.568
296.717
296.88
297.062
297.264
297.484
295.813
295.95
296.004
296.063
296.139
296.234
296.326
296.43
296.541
296.669
296.813
296.977
297.172
297.391
295.742
295.857
295.931
296.015
296.11
296.216
296.314
296.414
296.513
296.626
296.754
296.903
297.092
297.296
295.71
295.808
295.901
295.995
296.093
296.193
296.287
296.382
296.478
296.589
296.717
296.867
297.041
297.195
295.708
295.8
295.917
296.009
296.092
296.17
296.247
296.334
296.432
296.55
296.682
296.83
296.969
297.044
295.685
295.825
295.928
296.033
296.099
296.152
296.205
296.28
296.382
296.507
296.647
296.781
296.878
296.887
295.596
295.814
295.971
296.07
296.123
296.151
296.181
296.238
296.332
296.456
296.593
296.71
296.801
296.729
295.5
295.766
295.944
296.06
296.138
296.165
296.187
296.225
296.297
296.402
296.536
296.639
296.751
296.589
295.325
295.588
295.816
295.973
296.101
296.179
296.205
296.238
296.284
296.369
296.472
296.575
296.665
296.524
294.994
295.098
295.301
295.524
295.793
296.006
296.16
296.254
296.303
296.37
296.426
296.524
296.552
296.508
297.312
297.414
297.404
297.376
297.354
297.362
297.398
297.478
297.596
297.753
297.953
298.182
298.457
298.745
297.205
297.388
297.312
297.298
297.278
297.304
297.354
297.441
297.567
297.732
297.956
298.228
298.545
298.797
297.062
297.246
297.192
297.203
297.213
297.26
297.328
297.436
297.568
297.734
297.941
298.185
298.453
298.696
296.909
297.052
297.063
297.106
297.158
297.233
297.317
297.431
297.564
297.725
297.91
298.12
298.35
298.574
296.775
296.887
296.949
297.027
297.115
297.216
297.313
297.426
297.551
297.696
297.856
298.032
298.229
298.441
296.66
296.764
296.859
296.966
297.082
297.201
297.308
297.419
297.533
297.659
297.799
297.954
298.132
298.342
296.578
296.689
296.807
296.931
297.06
297.184
297.295
297.403
297.508
297.622
297.745
297.88
298.054
298.266
296.538
296.655
296.791
296.92
297.044
297.161
297.267
297.371
297.473
297.583
297.702
297.843
298.019
298.219
296.513
296.653
296.811
296.931
297.037
297.132
297.225
297.324
297.429
297.545
297.675
297.825
298.005
298.175
296.546
296.699
296.838
296.952
297.034
297.101
297.173
297.266
297.379
297.511
297.659
297.822
297.986
298.103
296.523
296.746
296.901
296.989
297.045
297.082
297.13
297.21
297.327
297.475
297.643
297.813
297.961
298.028
296.546
296.786
296.934
297.019
297.062
297.081
297.108
297.171
297.281
297.433
297.622
297.798
297.95
297.965
296.52
296.774
296.944
297.04
297.085
297.096
297.112
297.162
297.253
297.397
297.586
297.772
297.935
297.932
296.375
296.505
296.668
296.836
296.993
297.078
297.125
297.184
297.256
297.382
297.538
297.72
297.849
297.918
298.405
298.52
298.672
298.867
299.095
299.374
299.664
298.391
298.508
298.657
298.855
299.107
299.417
299.699
298.394
298.516
298.664
298.849
299.075
299.342
299.601
298.394
298.518
298.664
298.836
299.035
299.262
299.489
298.39
298.511
298.649
298.804
298.975
299.166
299.365
298.381
298.496
298.622
298.761
298.911
299.079
299.263
298.362
298.471
298.586
298.71
298.842
298.994
299.177
298.33
298.436
298.546
298.663
298.792
298.951
299.133
297.383
297.57
297.743
297.878
297.985
298.086
298.183
298.286
298.394
298.508
298.63
298.771
298.944
299.138
297.44
297.618
297.772
297.891
297.974
298.051
298.134
298.236
298.352
298.48
298.62
298.778
298.961
299.14
297.482
297.698
297.836
297.917
297.971
298.017
298.082
298.182
298.311
298.46
298.624
298.798
298.979
299.125
297.569
297.783
297.893
297.947
297.973
297.993
298.04
298.133
298.271
298.44
298.632
298.818
298.998
299.103
297.59
297.823
297.95
297.979
297.988
297.992
298.021
298.101
298.236
298.414
298.627
298.83
299.021
299.111
297.553
297.685
297.812
297.932
297.98
297.996
298.024
298.092
298.213
298.388
298.595
298.815
298.993
299.108
292.984
293.875
294.603
295.302
295.701
295.554
291.42
291.515
291.527
291.625
291.663
291.176
290.579
289.764
288.776
288.101
287.656
286.926
289.563
287.842
286.086
284.833
283.914
282.982
288.507
286.1
284.095
282.779
281.905
280.89
287.547
284.957
283.083
282.018
281.415
280.606
287.05
284.579
282.939
282.335
282.572
282.769
286.895
284.595
283.396
283.454
284.886
286.208
287.236
285.295
284.53
285.142
287.665
290.091
288.215
286.743
286.499
287.566
290.706
293.621
289.58
288.715
289.043
290.502
293.676
296.516
291.072
290.758
291.58
293.275
296.119
298.589
292.247
292.511
293.646
295.201
297.652
299.42
292.604
293.215
294.432
295.837
297.77
299.176
293.578
294.389
294.937
295.313
295.574
295.565
292.414
292.491
292.445
292.365
292.12
291.483
291.933
291.238
290.138
288.906
287.812
286.56
291.165
289.524
287.373
285.17
283.4
281.881
290.147
287.606
284.665
282.163
280.425
279.265
288.969
285.808
282.785
280.683
279.471
278.934
288.071
284.788
282.169
280.684
280.277
280.554
287.68
284.589
282.409
281.563
281.868
283.053
287.742
285.006
283.348
282.944
283.996
286.126
288.293
286.192
285.186
285.194
286.859
289.578
289.4
288.049
287.659
288.073
290.084
292.881
290.857
290.204
290.285
291.1
293.088
295.564
292.303
292.212
292.778
293.743
295.537
297.346
292.803
293.165
294.051
295.043
296.444
297.71
294.342
295.07
295.649
296.203
296.573
296.875
293.705
294.054
294.383
294.645
294.745
294.44
293.684
293.619
293.241
292.534
291.539
290.313
293.351
292.654
291.335
289.482
287.334
285.241
292.73
291.2
288.848
285.92
283.196
280.985
291.837
289.543
286.38
283.154
280.627
279.013
290.946
288.147
284.717
281.815
279.945
279.21
290.39
287.348
284.057
281.643
280.545
280.614
290.255
287.168
284.23
282.397
281.915
282.713
290.441
287.663
285.355
284.12
284.238
285.504
290.986
288.927
287.397
286.639
287.206
288.817
291.9
290.612
289.866
289.574
290.392
292.091
293.069
292.607
292.561
292.775
293.84
295.32
293.8
293.926
294.374
295.046
296.101
297.243
294.852
295.205
295.555
296.027
296.547
297.118
294.608
294.912
295.32
295.856
296.303
296.513
294.741
295.005
295.252
295.345
295.127
294.537
294.682
294.729
294.48
293.706
292.462
290.633
294.497
294.124
293.064
291.224
288.691
285.683
294.111
293.152
291.158
288.176
284.586
281.487
293.593
291.99
289.239
285.487
281.974
279.681
293.171
291.012
287.762
283.928
281.143
279.86
292.966
290.521
287.104
283.623
281.485
280.894
292.956
290.51
287.228
284.388
283.008
282.988
293.183
290.891
288.285
286.289
285.544
285.887
293.573
291.788
289.998
288.818
288.628
289.164
294.202
293.151
292.305
291.892
292.133
292.939
294.788
294.488
294.367
294.558
295.116
296.042
295.564
295.529
295.613
295.875
296.37
297.006
295.522
295.671
295.959
296.448
297.062
297.63
295.684
295.934
296.29
296.746
297.119
297.194
295.7
295.939
296.173
296.295
296.055
295.134
295.713
295.827
295.724
295.141
293.717
291.344
295.563
295.446
294.767
293.091
290.316
286.588
295.383
294.841
293.387
290.663
286.718
282.947
295.201
294.198
292.047
288.596
284.488
281.566
295.089
293.723
291.16
287.433
283.871
281.89
295.106
293.555
290.879
287.255
284.429
283.254
295.215
293.655
291.038
288.133
286.197
285.566
295.463
294.006
291.895
289.832
288.707
288.495
295.78
294.705
293.33
292.195
291.764
291.924
296.129
295.529
294.928
294.553
294.646
295.203
296.373
296.175
296.05
295.979
296.252
296.814
296.421
296.44
296.538
296.838
297.408
298.033
296.561
296.695
296.955
297.404
297.96
298.28
296.532
296.732
297.042
297.464
297.728
297.625
296.555
296.765
297.018
297.155
296.813
295.593
296.509
296.628
296.669
296.236
294.833
292.03
296.496
296.451
296.064
294.752
292.079
288.06
296.484
296.199
295.273
293.119
289.498
285.428
296.522
295.997
294.581
291.92
288.015
284.547
296.611
295.951
294.242
291.362
287.707
285.068
296.763
296.018
294.251
291.448
288.512
286.894
296.99
296.211
294.556
292.218
290.214
289.392
297.24
296.54
295.234
293.621
292.505
292.18
297.489
296.988
296.163
295.327
294.974
295.04
297.348
297.131
296.843
296.545
296.52
296.806
297.403
297.366
297.334
297.413
297.782
298.369
297.511
297.57
297.724
298.043
298.552
299.019
297.482
297.626
297.878
298.263
298.72
298.927
297.479
297.657
297.934
298.255
298.456
298.139
297.479
297.634
297.824
297.915
297.574
296.217
297.495
297.595
297.651
297.32
296.078
293.34
297.528
297.53
297.318
296.404
294.277
290.568
297.634
297.552
297.016
295.527
292.815
288.934
297.796
297.622
296.86
295.014
292.051
288.59
297.999
297.758
296.88
294.914
292.021
289.357
298.226
297.959
297.045
295.15
292.82
291.152
298.493
298.203
297.363
295.849
294.311