/*--------------------------------*- C++ -*----------------------------------*\
| =========                 |                                                 |
| \\      /  F ield         | OpenFOAM: The Open Source CFD Toolbox           |
|  \\    /   O peration     | Version:  v2106                                 |
|   \\  /    A nd           | Website:  www.openfoam.com                      |
|    \\/     M anipulation  |                                                 |
\*---------------------------------------------------------------------------*/
FoamFile
{
    version     2.0;
    format      ascii;
    arch        "LSB;label=32;scalar=64";
    class       volScalarField;
    location    "0.000182";
    object      p;
}
// * * * * * * * * * * * * * * * * * * * * * * * * * * * * * * * * * * * * * //

dimensions      [1 -1 -2 0 0 0 0];

internalField   nonuniform List<scalar> 
17924
(
239728
239738
239772
239810
239023
239010
239022
239044
239076
239117
239165
239161
239138
239151
239170
239202
239242
239290
239287
239267
239281
239303
239335
239375
239422
239412
239401
239417
239440
239473
239514
239562
239535
239535
239554
239581
239617
239659
239708
239661
239672
239695
239727
239766
239810
239860
239787
239808
239837
239874
239917
239965
240016
239917
239946
239982
240024
240071
240122
240175
240046
240084
240126
240173
240225
240279
240335
240177
240224
240271
240324
240380
240438
240497
240303
240358
240412
240472
240533
240595
240657
240433
240497
240557
240622
240687
240753
240817
240553
240624
240692
240763
240834
240905
240974
240685
240765
240838
240914
240988
241061
241131
238690
238659
238654
238656
238664
238678
238697
238722
238751
238786
238824
238865
238910
238956
238808
238779
238777
238781
238790
238805
238825
238850
238879
238912
238948
238988
239027
239071
238920
238898
238900
238908
238920
238937
238957
238982
239009
239040
239074
239111
239145
239188
239035
239022
239029
239039
239053
239072
239094
239119
239147
239177
239209
239243
239275
239316
239148
239146
239158
239171
239189
239210
239233
239259
239287
239316
239347
239379
239410
239449
239265
239272
239289
239306
239327
239350
239375
239402
239431
239460
239490
239521
239552
239587
239382
239397
239419
239441
239465
239491
239518
239546
239576
239606
239635
239665
239696
239726
239502
239525
239550
239576
239604
239633
239662
239691
239722
239752
239782
239811
239843
239869
239622
239651
239681
239711
239743
239774
239805
239837
239869
239899
239928
239956
239989
240012
239745
239780
239812
239847
239881
239915
239949
239982
240015
240046
240076
240103
240137
240157
239866
239907
239943
239981
240018
240055
240092
240127
240160
240191
240222
240248
240284
240298
239992
240038
240077
240118
240158
240196
240234
240270
240304
240336
240369
240396
240433
240443
240113
240162
240206
240251
240294
240335
240375
240413
240448
240480
240513
240541
240577
240588
240251
240299
240346
240391
240436
240478
240518
240555
240590
240623
240655
240685
240720
240740
238616
238590
238574
238560
238549
238539
238533
238529
238530
238533
238538
238546
238559
238576
238711
238685
238673
238662
238653
238645
238639
238636
238635
238637
238642
238649
238657
238677
238799
238777
238770
238762
238756
238751
238746
238743
238742
238743
238745
238750
238754
238773
238890
238874
238870
238864
238861
238857
238854
238851
238850
238850
238852
238856
238858
238872
238978
238968
238968
238966
238965
238963
238962
238960
238959
238958
238958
238961
238962
238972
239069
239065
239068
239068
239069
239069
239069
239068
239068
239067
239067
239068
239069
239075
239159
239161
239166
239169
239172
239174
239175
239176
239176
239176
239176
239176
239177
239179
239251
239259
239266
239271
239276
239280
239283
239284
239286
239286
239286
239286
239288
239287
239345
239357
239366
239374
239381
239386
239390
239393
239395
239395
239396
239397
239400
239396
239443
239457
239468
239478
239486
239493
239499
239502
239505
239506
239508
239510
239515
239508
239543
239559
239571
239584
239594
239602
239608
239612
239615
239617
239620
239623
239628
239619
239648
239664
239677
239691
239701
239711
239718
239723
239727
239731
239735
239740
239745
239735
239752
239768
239783
239799
239812
239821
239829
239834
239839
239844
239848
239852
239858
239848
239871
239879
239897
239911
239923
239934
239942
239948
239953
239958
239963
239970
239978
239974
238645
238620
238601
238579
238558
238536
238516
238495
238476
238458
238442
238426
238413
238405
238712
238686
238668
238648
238628
238607
238587
238566
238547
238527
238510
238493
238476
238473
238768
238746
238731
238713
238695
238675
238656
238636
238616
238596
238577
238558
238539
238534
238827
238809
238796
238779
238762
238743
238724
238704
238684
238664
238644
238625
238605
238595
238886
238871
238860
238844
238828
238810
238792
238772
238752
238732
238711
238692
238671
238657
238947
238935
238925
238910
238895
238878
238860
238840
238820
238800
238779
238759
238737
238720
239008
238999
238989
238976
238961
238945
238927
238908
238888
238867
238846
238825
238803
238784
239072
239065
239055
239043
239028
239013
238995
238976
238956
238935
238913
238891
238870
238848
239137
239131
239121
239110
239096
239080
239063
239044
239024
239003
238981
238958
238938
238913
239205
239200
239190
239179
239165
239150
239132
239113
239093
239071
239050
239026
239006
238981
239275
239271
239261
239250
239236
239221
239203
239184
239163
239141
239120
239096
239078
239052
239349
239344
239333
239323
239309
239293
239275
239256
239236
239214
239193
239169
239152
239127
239425
239420
239409
239399
239384
239368
239349
239329
239309
239287
239266
239243
239226
239201
239512
239497
239485
239473
239459
239442
239425
239405
239386
239365
239344
239322
239308
239287
238687
238660
238637
238611
238584
238556
238527
238497
238467
238436
238407
238377
238349
238320
238719
238694
238673
238648
238622
238594
238564
238533
238502
238470
238440
238409
238380
238352
238747
238724
238704
238680
238654
238627
238598
238567
238537
238505
238474
238443
238412
238383
238778
238758
238738
238713
238688
238660
238631
238601
238570
238538
238506
238474
238443
238413
238810
238791
238771
238746
238721
238693
238664
238633
238602
238569
238537
238505
238472
238441
238843
238825
238804
238780
238755
238726
238697
238665
238633
238600
238567
238534
238501
238468
238877
238860
238838
238814
238788
238759
238729
238697
238665
238631
238597
238563
238529
238495
238913
238896
238874
238849
238822
238793
238761
238729
238695
238661
238626
238591
238556
238522
238950
238932
238909
238884
238855
238825
238793
238761
238727
238692
238657
238621
238585
238549
238988
238969
238945
238920
238890
238860
238827
238793
238758
238722
238686
238650
238614
238576
239027
239007
238982
238955
238925
238893
238859
238825
238790
238754
238718
238680
238643
238603
239067
239046
239019
238992
238961
238929
238894
238859
238822
238785
238747
238709
238672
238630
239111
239089
239061
239031
238998
238964
238929
238893
238856
238817
238778
238738
238700
238659
239160
239129
239099
239068
239035
239001
238966
238929
238892
238854
238816
238775
238738
238696
238700
238673
238648
238619
238588
238554
238519
238482
238444
238404
238366
238325
238288
238245
238703
238678
238655
238626
238595
238561
238525
238487
238448
238407
238368
238327
238291
238250
238704
238682
238658
238629
238599
238565
238530
238492
238454
238414
238375
238334
238296
238256
238709
238688
238664
238635
238603
238570
238534
238497
238459
238419
238379
238339
238300
238260
238715
238694
238668
238639
238608
238573
238538
238500
238461
238421
238381
238340
238300
238259
238722
238700
238673
238644
238611
238576
238540
238501
238462
238421
238381
238339
238299
238257
238729
238706
238678
238647
238614
238578
238541
238502
238461
238420
238379
238337
238295
238253
238737
238712
238683
238651
238616
238580
238541
238501
238460
238418
238375
238333
238290
238248
238746
238719
238687
238654
238618
238580
238540
238500
238457
238415
238371
238328
238284
238241
238753
238724
238692
238657
238620
238581
238540
238498
238454
238411
238367
238323
238277
238233
238763
238731
238697
238660
238621
238581
238538
238496
238451
238407
238361
238316
238269
238224
238772
238738
238702
238663
238622
238581
238537
238493
238447
238402
238355
238309
238260
238215
238781
238745
238707
238665
238623
238580
238536
238491
238444
238397
238349
238301
238252
238203
238790
238748
238710
238668
238625
238580
238534
238489
238443
238396
238349
238301
238251
238200
238640
238615
238589
238557
238524
238487
238447
238405
238362
238316
238271
238223
238178
238125
238619
238595
238569
238539
238505
238468
238428
238386
238343
238297
238251
238203
238158
238109
238596
238575
238547
238517
238483
238446
238407
238365
238322
238276
238231
238184
238139
238090
238574
238553
238525
238494
238460
238423
238384
238342
238299
238254
238209
238162
238118
238070
238554
238532
238503
238471
238436
238399
238360
238318
238275
238230
238185
238138
238093
238046
238533
238510
238479
238447
238412
238374
238334
238292
238248
238203
238158
238111
238066
238019
238514
238488
238457
238423
238387
238348
238307
238265
238221
238175
238130
238083
238037
237990
238494
238465
238432
238398
238360
238320
238279
238236
238191
238145
238099
238052
238005
237958
238475
238443
238409
238372
238333
238293
238250
238205
238160
238113
238066
238019
237970
237924
238454
238419
238383
238345
238304
238262
238219
238174
238127
238080
238032
237984
237934
237888
238434
238396
238358
238318
238276
238232
238187
238141
238093
238044
237995
237947
237895
237850
238411
238370
238331
238288
238245
238200
238154
238107
238058
238009
237959
237910
237856
237811
238389
238345
238304
238260
238215
238168
238120
238071
238021
237970
237918
237868
237813
237767
238363
238316
238274
238228
238181
238133
238084
238035
237985
237935
237883
237833
237779
237729
238443
238418
238391
238360
238327
238291
238251
238209
238165
238118
238070
238019
237971
237915
238397
238376
238348
238319
238285
238249
238209
238167
238122
238075
238027
237977
237929
237877
238353
238333
238304
238274
238240
238204
238165
238124
238080
238034
237987
237937
237890
237839
238309
238289
238259
238229
238195
238159
238119
238078
238034
237988
237942
237893
237847
237797
238267
238245
238214
238183
238149
238112
238073
238031
237988
237943
237897
237849
237803
237754
238223
238199
238168
238136
238101
238064
238024
237983
237939
237894
237848
237801
237755
237706
238181
238153
238122
238089
238053
238015
237975
237933
237889
237844
237799
237752
237705
237658
238136
238106
238073
238039
238002
237963
237923
237881
237837
237792
237746
237699
237652
237605
238092
238059
238025
237989
237951
237912
237870
237827
237783
237737
237690
237644
237596
237551
238045
238009
237974
237936
237898
237857
237815
237772
237727
237681
237633
237587
237538
237494
238000
237960
237924
237885
237845
237803
237759
237715
237668
237622
237573
237527
237476
237436
237949
237907
237870
237829
237787
237745
237701
237656
237610
237563
237514
237467
237415
237375
237903
237858
237818
237775
237732
237688
237642
237595
237547
237498
237448
237400
237349
237310
237846
237800
237758
237715
237671
237626
237580
237534
237486
237438
237389
237341
237291
237248
238046
238024
237998
237972
237943
237913
237879
237844
237806
237766
237724
237679
237634
237584
237985
237968
237942
237917
237887
237856
237822
237786
237747
237706
237663
237618
237574
237527
237927
237911
237883
237857
237827
237796
237763
237727
237689
237649
237608
237564
237521
237476
237870
237853
237825
237798
237768
237736
237702
237666
237628
237588
237547
237504
237462
237417
237814
237794
237765
237738
237707
237675
237641
237605
237567
237528
237488
237446
237405
237361
237756
237733
237704
237676
237645
237612
237578
237542
237504
237465
237425
237384
237343
237300
237698
237672
237643
237613
237582
237549
237514
237478
237440
237401
237362
237321
237281
237239
237637
237608
237579
237548
237517
237483
237448
237412
237374
237335
237295
237255
237215
237175
237576
237545
237515
237483
237451
237416
237381
237344
237306
237267
237228
237188
237148
237111
237511
237478
237448
237415
237382
237347
237312
237275
237237
237198
237158
237119
237079
237044
237448
237413
237382
237347
237313
237278
237241
237204
237165
237127
237087
237048
237008
236977
237381
237342
237311
237276
237241
237206
237169
237132
237094
237055
237015
236977
236936
236907
237318
237278
237243
237208
237171
237134
237097
237058
237019
236980
236939
236901
236862
236835
237241
237204
237168
237133
237096
237059
237022
236984
236946
236908
236868
236831
236792
236763
237449
237432
237411
237392
237371
237350
237328
237304
237278
237252
237223
237194
237163
237131
237385
237373
237351
237332
237311
237289
237265
237240
237213
237186
237156
237126
237095
237061
237325
237312
237290
237270
237247
237225
237201
237176
237150
237122
237094
237065
237035
237001
237263
237250
237227
237206
237184
237161
237137
237112
237085
237057
237029
237000
236970
236938
237203
237187
237164
237142
237119
237096
237071
237046
237020
236992
236965
236936
236907
236876
237141
237122
237099
237077
237053
237030
237005
236980
236953
236926
236898
236870
236842
236812
237077
237056
237033
237010
236986
236962
236938
236912
236886
236859
236832
236804
236777
236749
237011
236988
236965
236942
236918
236894
236869
236844
236818
236791
236764
236737
236710
236684
236944
236919
236896
236873
236849
236825
236800
236775
236749
236723
236696
236670
236644
236620
236874
236848
236826
236802
236778
236754
236729
236704
236679
236653
236627
236602
236576
236555
236807
236779
236756
236732
236708
236683
236658
236633
236608
236583
236558
236534
236509
236492
236736
236707
236684
236659
236635
236611
236587
236562
236537
236512
236488
236465
236441
236427
236668
236640
236615
236590
236565
236540
236516
236491
236466
236441
236417
236397
236374
236364
236590
236566
236540
236516
236492
236468
236444
236419
236396
236372
236349
236329
236308
236297
236703
236691
236677
236667
236656
236646
236636
236627
236617
236606
236596
236585
236574
236566
236644
236637
236622
236612
236601
236590
236580
236569
236558
236547
236535
236523
236511
236498
236589
236582
236567
236556
236544
236533
236522
236511
236499
236488
236476
236464
236453
236439
236533
236525
236510
236499
236487
236476
236465
236453
236441
236429
236417
236405
236394
236379
236478
236468
236454
236441
236429
236418
236406
236394
236382
236371
236359
236347
236336
236322
236420
236409
236395
236383
236371
236359
236347
236336
236324
236312
236301
236289
236278
236266
236363
236350
236336
236324
236312
236300
236288
236277
236266
236254
236243
236232
236222
236211
236304
236289
236276
236264
236252
236240
236229
236218
236207
236197
236186
236176
236166
236157
236245
236229
236216
236204
236192
236181
236170
236159
236149
236139
236129
236120
236111
236104
236185
236167
236155
236143
236132
236121
236111
236101
236091
236082
236073
236064
236055
236053
236126
236108
236096
236084
236073
236062
236052
236043
236034
236025
236017
236009
236002
236003
236066
236048
236036
236025
236014
236003
235994
235985
235977
235969
235962
235955
235949
235952
236008
235991
235979
235967
235956
235946
235937
235928
235921
235914
235908
235903
235898
235904
235946
235932
235920
235909
235899
235889
235881
235873
235866
235860
235855
235852
235848
235851
235864
235860
235856
235854
235854
235855
235857
235861
235865
235871
235877
235884
235894
235904
235816
235817
235814
235813
235812
235813
235815
235818
235822
235827
235833
235838
235846
235850
235775
235776
235773
235771
235770
235770
235772
235775
235778
235782
235787
235792
235800
235803
235732
235732
235730
235728
235727
235728
235729
235732
235735
235739
235744
235749
235755
235757
235690
235690
235687
235686
235685
235686
235687
235690
235692
235696
235701
235706
235712
235715
235649
235647
235644
235643
235643
235643
235645
235648
235651
235654
235659
235664
235670
235675
235607
235604
235602
235601
235600
235601
235603
235606
235610
235614
235619
235624
235630
235636
235565
235562
235560
235559
235559
235560
235562
235565
235569
235574
235579
235585
235592
235599
235524
235520
235518
235517
235518
235519
235522
235525
235530
235535
235542
235548
235555
235564
235482
235478
235477
235477
235477
235479
235482
235487
235492
235498
235505
235513
235520
235531
235442
235438
235437
235437
235438
235441
235445
235449
235455
235462
235470
235479
235487
235499
235404
235398
235398
235399
235400
235403
235408
235413
235419
235427
235436
235445
235455
235469
235367
235361
235361
235362
235364
235368
235373
235379
235386
235394
235403
235414
235425
235440
235329
235325
235325
235327
235330
235334
235339
235345
235352
235361
235371
235383
235395
235411
234976
234982
234987
234995
235005
235015
235027
235040
235055
235071
235088
235107
235128
235152
234951
234957
234963
234972
234981
234992
235004
235018
235032
235048
235065
235084
235103
235122
234928
234934
234940
234949
234958
234968
234980
234994
235009
235024
235041
235059
235078
235096
234904
234911
234917
234926
234935
234946
234958
234971
234985
235001
235018
235036
235054
235072
234881
234888
234894
234903
234912
234923
234935
234948
234963
234979
234996
235013
235032
235049
234859
234866
234873
234881
234890
234901
234913
234927
234941
234957
234974
234991
235010
235028
234839
234845
234851
234860
234869
234880
234893
234906
234921
234937
234954
234971
234989
235008
234818
234824
234831
234840
234850
234861
234873
234887
234902
234918
234935
234952
234971
234989
234799
234805
234812
234821
234831
234842
234855
234869
234884
234900
234918
234936
234954
234973
234780
234786
234794
234803
234813
234825
234838
234852
234868
234885
234902
234921
234939
234958
234763
234769
234777
234786
234797
234809
234823
234837
234853
234870
234888
234907
234926
234946
234746
234753
234762
234771
234782
234795
234808
234824
234840
234857
234875
234894
234914
234934
234730
234738
234747
234757
234769
234782
234796
234812
234829
234847
234865
234884
234903
234925
234716
234724
234734
234745
234757
234770
234784
234800
234817
234835
234854
234874
234894
234917
234072
234085
234099
234113
234128
234144
234161
234179
234198
234218
234240
234263
234285
234312
234067
234080
234093
234108
234123
234139
234157
234175
234195
234216
234238
234261
234285
234310
234063
234076
234089
234103
234118
234135
234153
234171
234191
234212
234234
234257
234281
234306
234059
234072
234085
234099
234115
234131
234149
234168
234188
234209
234231
234254
234277
234302
234057
234069
234082
234096
234111
234128
234146
234165
234185
234206
234228
234251
234274
234298
234055
234067
234080
234094
234109
234126
234144
234163
234183
234204
234226
234249
234272
234296
234054
234066
234079
234093
234108
234125
234143
234162
234182
234203
234225
234247
234270
234293
234053
234066
234079
234093
234109
234125
234143
234162
234182
234203
234225
234247
234270
234293
234054
234066
234080
234094
234110
234126
234144
234163
234183
234204
234226
234248
234270
234292
234056
234068
234082
234096
234112
234129
234147
234166
234186
234206
234228
234250
234272
234294
234058
234070
234084
234099
234115
234132
234150
234169
234189
234210
234231
234253
234275
234296
234060
234074
234087
234103
234119
234136
234155
234174
234194
234214
234235
234257
234279
234300
234063
234077
234091
234107
234123
234141
234160
234180
234200
234221
234242
234263
234284
234306
234068
234083
234097
234113
234130
234148
234166
234186
234205
234226
234246
234268
234290
234313
233174
233188
233204
233219
233236
233252
233269
233286
233304
233322
233341
233361
233380
233402
233182
233197
233212
233228
233245
233262
233279
233298
233316
233336
233355
233375
233395
233417
233194
233207
233223
233239
233256
233273
233291
233309
233328
233347
233366
233387
233407
233429
233204
233218
233234
233249
233266
233284
233302
233321
233340
233359
233379
233400
233421
233443
233216
233230
233246
233261
233278
233296
233314
233332
233352
233371
233391
233412
233433
233454
233228
233242
233258
233274
233291
233308
233326
233345
233364
233384
233404
233425
233446
233467
233241
233256
233271
233287
233304
233321
233339
233358
233377
233397
233417
233437
233458
233478
233254
233269
233284
233301
233317
233335
233353
233371
233390
233410
233430
233450
233470
233490
233268
233283
233298
233315
233331
233349
233367
233385
233404
233423
233443
233462
233483
233502
233282
233298
233313
233329
233346
233363
233381
233400
233418
233437
233457
233476
233495
233513
233296
233312
233327
233344
233361
233379
233396
233415
233433
233452
233471
233489
233508
233525
233312
233328
233343
233360
233376
233394
233412
233430
233448
233467
233485
233503
233522
233538
233326
233342
233357
233375
233392
233410
233428
233446
233464
233483
233500
233518
233535
233552
233343
233360
233375
233392
233409
233426
233444
233462
233480
233497
233515
233532
233550
233568
232297
232308
232322
232335
232348
232361
232375
232388
232401
232413
232425
232438
232449
232464
232314
232325
232338
232352
232366
232379
232393
232407
232421
232434
232447
232459
232471
232486
232332
232343
232357
232371
232385
232399
232412
232426
232440
232453
232466
232479
232491
232506
232350
232361
232376
232389
232403
232417
232432
232446
232459
232473
232486
232499
232512
232527
232368
232380
232394
232408
232423
232437
232451
232465
232479
232492
232505
232519
232532
232546
232386
232399
232413
232427
232442
232456
232470
232484
232498
232512
232525
232538
232552
232565
232404
232418
232432
232446
232461
232475
232489
232503
232517
232530
232544
232557
232570
232584
232422
232437
232451
232465
232479
232494
232508
232522
232536
232549
232562
232576
232589
232601
232440
232455
232469
232484
232498
232513
232527
232541
232554
232567
232581
232593
232606
232618
232459
232474
232488
232503
232517
232531
232545
232559
232572
232585
232598
232611
232624
232635
232478
232493
232507
232522
232536
232550
232564
232577
232590
232603
232616
232628
232640
232651
232497
232512
232526
232541
232555
232569
232582
232595
232608
232621
232633
232645
232657
232667
232515
232531
232544
232559
232573
232587
232600
232614
232626
232638
232650
232661
232672
232682
232536
232551
232565
232579
232592
232606
232619
232631
232643
232655
232666
232677
232688
232700
231465
231471
231480
231489
231497
231506
231514
231521
231528
231533
231539
231543
231547
231554
231483
231489
231498
231507
231516
231525
231533
231540
231547
231553
231559
231563
231568
231574
231501
231507
231517
231526
231535
231544
231552
231559
231566
231572
231578
231582
231587
231593
231518
231526
231536
231545
231554
231563
231571
231578
231585
231591
231597
231602
231607
231612
231535
231544
231554
231563
231573
231582
231590
231597
231604
231610
231616
231621
231625
231630
231552
231562
231572
231582
231591
231600
231608
231616
231622
231629
231634
231639
231644
231649
231569
231579
231589
231599
231609
231618
231626
231634
231640
231647
231652
231657
231662
231667
231585
231596
231607
231617
231626
231635
231643
231651
231658
231664
231670
231675
231680
231684
231602
231613
231623
231634
231643
231652
231660
231667
231674
231680
231686
231691
231696
231700
231618
231630
231640
231650
231659
231668
231676
231683
231690
231696
231702
231707
231712
231715
231634
231646
231656
231666
231675
231684
231692
231699
231705
231711
231717
231722
231726
231730
231651
231662
231672
231682
231691
231699
231707
231714
231720
231726
231731
231736
231740
231743
231666
231678
231687
231697
231706
231714
231721
231728
231734
231739
231745
231749
231753
231757
231684
231695
231704
231713
231721
231728
231735
231741
231747
231752
231757
231761
231766
231770
230690
230693
230697
230701
230705
230708
230711
230713
230714
230715
230715
230714
230713
230713
230704
230706
230711
230715
230719
230722
230725
230727
230728
230729
230729
230728
230727
230727
230717
230720
230725
230729
230733
230736
230739
230741
230742
230743
230742
230742
230740
230740
230729
230733
230738
230743
230747
230750
230753
230755
230756
230756
230756
230755
230753
230753
230742
230746
230752
230756
230760
230764
230766
230768
230769
230770
230769
230768
230767
230765
230754
230759
230764
230769
230773
230777
230779
230781
230782
230783
230782
230781
230780
230778
230766
230771
230777
230782
230786
230789
230792
230794
230795
230795
230795
230794
230792
230790
230777
230783
230788
230793
230797
230801
230803
230805
230806
230807
230806
230805
230804
230802
230788
230794
230799
230804
230808
230812
230814
230816
230817
230818
230817
230816
230815
230813
230798
230805
230810
230815
230819
230822
230825
230826
230827
230828
230828
230827
230826
230823
230808
230815
230820
230825
230829
230832
230834
230836
230837
230837
230837
230836
230835
230833
230818
230825
230829
230834
230838
230841
230843
230844
230845
230845
230845
230844
230844
230842
230827
230834
230838
230843
230846
230849
230851
230852
230853
230853
230853
230852
230852
230850
230837
230843
230847
230851
230854
230856
230858
230859
230860
230860
230860
230859
230859
230857
229968
229969
229970
229971
229971
229971
229970
229969
229968
229966
229963
229960
229977
229978
229979
229979
229980
229979
229979
229977
229976
229973
229970
229967
229984
229985
229986
229987
229988
229987
229987
229985
229983
229981
229978
229974
229992
229993
229994
229995
229995
229995
229994
229993
229991
229988
229985
229981
229998
230000
230001
230002
230002
230002
230001
230000
229998
229995
229991
229987
230004
230006
230008
230009
230009
230009
230008
230006
230004
230001
229998
229994
230010
230012
230014
230015
230015
230015
230014
230012
230010
230007
230004
230000
230016
230018
230019
230020
230021
230020
230019
230018
230016
230013
230009
230005
230021
230023
230024
230025
230025
230025
230024
230023
230020
230017
230014
230010
230025
230027
230029
230030
230030
230029
230028
230027
230024
230022
230018
230014
230029
230031
230033
230033
230033
230033
230032
230030
230028
230025
230022
230018
230032
230034
230036
230036
230036
230036
230034
230033
230030
230028
230024
230021
230035
230037
230038
230039
230038
230038
230036
230035
230032
230030
230027
230023
230038
230040
230040
230040
230040
230039
230038
230036
230034
230031
230028
230025
239603
239503
239406
239309
239211
239107
239626
239510
239394
239267
239139
239001
239649
239511
239381
239239
239095
238944
239687
239541
239400
239253
239103
238948
238899
238822
238741
238667
238596
238525
238901
238790
238684
238579
238475
238369
238894
238764
238637
238511
238386
238257
238908
238763
238624
238485
238346
238204
238937
238783
238636
238493
238351
238208
238978
238825
238680
238539
238402
238267
239029
238884
238750
238622
238502
238386
238585
238526
238460
238405
238352
238305
238560
238473
238387
238303
238223
238144
238537
238429
238320
238216
238114
238011
238529
238402
238278
238157
238039
237918
238529
238390
238255
238125
237998
237870
238538
238392
238254
238121
237992
237865
238556
238408
238270
238140
238017
237898
238583
238439
238308
238187
238076
237971
238619
238484
238364
238257
238164
238080
238660
238542
238439
238349
238277
238217
238709
238613
238531
238462
238411
238373
238761
238688
238627
238579
238548
238528
238823
238775
238733
238701
238682
238671
238875
238855
238827
238811
238801
238797
238538
238497
238449
238411
238374
238342
238508
238445
238378
238314
238255
238196
238478
238395
238308
238223
238141
238060
238455
238353
238250
238147
238047
237946
238435
238319
238203
238088
237976
237864
238421
238294
238171
238050
237932
237815
238413
238281
238154
238032
237915
237801
238410
238280
238154
238035
237923
237815
238414
238288
238169
238058
237956
237859
238423
238307
238200
238100
238011
237927
238438
238334
238241
238156
238082
238016
238455
238368
238292
238223
238169
238123
238484
238414
238359
238308
238271
238244
238494
238449
238415
238387
238372
238363
238596
238572
238545
238525
238508
238494
238566
238527
238487
238452
238422
238393
238536
238482
238426
238374
238328
238283
238507
238437
238367
238298
238235
238172
238480
238396
238313
238229
238149
238070
238453
238360
238266
238170
238078
237987
238430
238331
238229
238127
238027
237929
238408
238307
238204
238100
237998
237899
238390
238291
238191
238091
237993
237898
238375
238280
238188
238096
238006
237918
238367
238279
238195
238112
238033
237956
238361
238284
238211
238138
238073
238009
238362
238295
238236
238177
238126
238077
238343
238284
238245
238208
238179
238151
238668
238665
238658
238653
238651
238651
238638
238627
238617
238609
238605
238602
238611
238592
238575
238559
238549
238542
238581
238554
238529
238504
238485
238469
238550
238514
238480
238445
238415
238385
238517
238474
238431
238385
238341
238297
238484
238434
238382
238327
238270
238211
238450
238396
238337
238274
238207
238138
238418
238360
238297
238230
238156
238081
238386
238326
238262
238194
238120
238044
238360
238300
238239
238174
238103
238031
238332
238275
238219
238161
238101
238038
238317
238262
238214
238164
238112
238059
238285
238235
238198
238157
238120
238083
238709
238720
238728
238738
238748
238760
238681
238693
238703
238717
238731
238747
238656
238665
238675
238686
238700
238716
238625
238631
238638
238647
238658
238671
238592
238592
238595
238599
238604
238611
238554
238550
238547
238543
238541
238539
238514
238505
238494
238482
238470
238456
238472
238458
238439
238418
238395
238370
238430
238410
238384
238354
238321
238285
238386
238361
238329
238292
238252
238207
238346
238315
238279
238239
238193
238144
238303
238267
238231
238190
238143
238094
238271
238230
238194
238154
238110
238064
238226
238186
238155
238118
238081
238043
238663
238687
238706
238729
238748
238768
238640
238669
238696
238726
238752
238780
238616
238647
238678
238711
238744
238777
238585
238618
238651
238685
238720
238755
238550
238582
238613
238646
238679
238711
238511
238539
238567
238596
238623
238650
238469
238491
238513
238534
238554
238572
238423
238438
238452
238465
238476
238483
238376
238381
238386
238390
238390
238388
238326
238322
238318
238312
238303
238291
238276
238265
238252
238236
238218
238198
238223
238205