/*--------------------------------*- C++ -*----------------------------------*\
| =========                 |                                                 |
| \\      /  F ield         | OpenFOAM: The Open Source CFD Toolbox           |
|  \\    /   O peration     | Version:  v2106                                 |
|   \\  /    A nd           | Website:  www.openfoam.com                      |
|    \\/     M anipulation  |                                                 |
\*---------------------------------------------------------------------------*/
FoamFile
{
    version     2.0;
    format      ascii;
    arch        "LSB;label=32;scalar=64";
    class       surfaceScalarField;
    location    "0.000182";
    object      phi;
}
// * * * * * * * * * * * * * * * * * * * * * * * * * * * * * * * * * * * * * //

dimensions      [1 0 -1 0 0 0 0];

internalField   nonuniform List<scalar> 
52222
(
1.62377e-07
2.0812e-06
2.96674e-07
-1.83833e-07
1.44356e-07
2.08342e-06
2.8892e-07
1.26454e-07
2.08654e-06
2.93337e-07
2.08963e-06
3.01127e-07
1.83657e-07
-1.07409e-07
2.04515e-06
1.09572e-07
-1.92008e-07
1.80091e-07
-1.07286e-07
2.04636e-06
1.02668e-07
1.78404e-07
-1.21675e-07
2.04756e-06
1.14537e-07
1.75524e-07
-1.34517e-07
2.0488e-06
1.28203e-07
1.7193e-07
-1.42869e-07
2.05028e-06
1.36684e-07
1.66895e-07
-1.47214e-07
2.05219e-06
1.41371e-07
-1.49212e-07
2.05488e-06
1.43318e-07
1.79923e-07
-1.05455e-07
2.05547e-06
-1.89024e-07
1.78103e-07
-1.13259e-07
2.05641e-06
1.77608e-07
-1.28958e-07
2.05828e-06
1.74967e-07
-1.3952e-07
2.05898e-06
1.71451e-07
-1.47581e-07
2.06035e-06
1.67179e-07
-1.52063e-07
2.06211e-06
-1.54146e-07
2.06487e-06
1.62479e-07
-1.10047e-07
2.06543e-06
-1.65695e-07
1.64378e-07
-1.2237e-07
2.06619e-06
1.65821e-07
-1.37025e-07
2.06839e-06
1.65645e-07
-1.45619e-07
2.06897e-06
1.6446e-07
-1.52899e-07
2.07049e-06
1.6246e-07
-1.57324e-07
2.07228e-06
-1.59761e-07
2.07517e-06
1.51684e-07
-1.18122e-07
2.0759e-06
-1.511e-07
1.55296e-07
-1.32257e-07
2.07647e-06
1.57497e-07
-1.44578e-07
2.07885e-06
1.59347e-07
-1.52277e-07
2.07942e-06
1.60451e-07
-1.58889e-07
2.08113e-06
1.60367e-07
-1.62806e-07
2.08302e-06
-1.65452e-07
2.08605e-06
1.43087e-07
-1.27666e-07
2.08568e-06
-1.3988e-07
1.4736e-07
-1.41687e-07
2.08622e-06
1.50118e-07
-1.51302e-07
2.08887e-06
1.53274e-07
-1.58872e-07
2.08981e-06
1.5566e-07
-1.64804e-07
2.09197e-06
1.56845e-07
-1.68072e-07
2.09413e-06
-1.70717e-07
2.0973e-06
1.37171e-07
-1.39563e-07
2.09521e-06
-1.30337e-07
1.43397e-07
-1.52084e-07
2.09626e-06
1.47662e-07
-1.58361e-07
2.09902e-06
1.51145e-07
-1.64782e-07
2.10047e-06
1.53806e-07
-1.70007e-07
2.10301e-06
1.55502e-07
-1.72707e-07
2.10549e-06
-1.75163e-07
2.10877e-06
1.30924e-07
-1.52983e-07
2.10448e-06
-1.21827e-07
1.38077e-07
-1.62687e-07
2.1065e-06
1.43401e-07
-1.65833e-07
2.10938e-06
1.47616e-07
-1.70857e-07
2.11138e-06
1.50816e-07
-1.75215e-07
2.11424e-06
1.53256e-07
-1.77436e-07
2.11708e-06
-1.79492e-07
2.12044e-06
1.2598e-07
-1.67353e-07
2.11386e-06
-1.15489e-07
1.33947e-07
-1.73617e-07
2.11714e-06
1.40409e-07
-1.74265e-07
2.12003e-06
1.45436e-07
-1.7768e-07
2.12263e-06
1.49391e-07
-1.8107e-07
2.12563e-06
1.52632e-07
-1.82836e-07
2.12881e-06
-1.84369e-07
2.13222e-06
1.18227e-07
-1.81719e-07
2.12354e-06
-1.07348e-07
1.26895e-07
-1.84988e-07
2.12792e-06
1.34998e-07
-1.84432e-07
2.1309e-06
1.41565e-07
-1.86073e-07
2.13413e-06
1.47e-07
-1.88426e-07
2.13724e-06
1.51482e-07
-1.89647e-07
2.14073e-06
-1.9057e-07
2.14419e-06
1.13919e-07
-1.95444e-07
2.13377e-06
-1.03282e-07
1.22894e-07
-1.96595e-07
2.13887e-06
1.31827e-07
-1.9572e-07
2.14196e-06
1.39082e-07
-1.95491e-07
2.14575e-06
1.45472e-07
-1.97157e-07
2.14897e-06
1.50833e-07
-1.9791e-07
2.15269e-06
-1.98257e-07
2.15621e-06
1.10292e-07
-2.09256e-07
2.14482e-06
-9.90052e-08
1.1952e-07
-2.08031e-07
2.15024e-06
1.29401e-07
-2.07868e-07
2.15334e-06
1.37845e-07
-2.06136e-07
2.15745e-06
1.45606e-07
-2.07541e-07
2.16081e-06
1.52006e-07
-2.0771e-07
2.16471e-06
-2.07491e-07
2.16834e-06
1.13794e-07
-2.24663e-07
2.15627e-06
-1.00629e-07
1.24262e-07
-2.20296e-07
2.16176e-06
1.34193e-07
-2.20077e-07
2.16495e-06
1.41739e-07
-2.16316e-07
2.16926e-06
1.4844e-07
-2.17687e-07
2.17282e-06
1.53918e-07
-2.17589e-07
2.17683e-06
-2.17111e-07
2.18057e-06
1.14014e-07
-2.43275e-07
2.16745e-06
-9.78592e-08
1.24266e-07
-2.32373e-07
2.17303e-06
1.34416e-07
-2.32699e-07
2.17693e-06
1.42225e-07
-2.2693e-07
2.1812e-06
1.50048e-07
-2.29374e-07
2.18489e-06
1.56327e-07
-2.28947e-07
2.18887e-06
-2.27783e-07
2.19273e-06
1.14923e-07
2.17634e-06
-2.65272e-07
-9.43297e-08
1.26055e-07
2.18141e-06
-2.45264e-07
1.37614e-07
2.18747e-06
-2.47358e-07
1.46281e-07
2.19221e-06
-2.39438e-07
1.53108e-07
2.19663e-06
-2.41156e-07
1.57607e-07
2.20079e-06
-2.39679e-07
2.20484e-06
-2.37965e-07
1.85029e-07
7.55645e-08
2.03916e-06
-7.11533e-08
-1.82906e-07
1.96099e-07
7.38591e-08
2.03822e-06
-7.74566e-08
2.053e-07
6.18089e-08
2.03817e-06
-6.34128e-08
2.12162e-07
5.28754e-08
2.03801e-06
-5.2783e-08
2.16954e-07
4.72408e-08
2.0378e-06
-4.64842e-08
2.19599e-07
4.28238e-08
2.03771e-06
-4.13934e-08
2.20325e-07
4.02826e-08
2.03775e-06
-3.81917e-08
2.19236e-07
3.65587e-08
2.0379e-06
-3.40821e-08
2.16555e-07
3.47633e-08
2.03876e-06
-3.24111e-08
2.12022e-07
3.27291e-08
2.03904e-06
-2.98263e-08
2.05478e-07
3.53969e-08
2.0397e-06
-3.25861e-08
1.96092e-07
3.64981e-08
2.04062e-06
-3.19769e-08
1.87208e-07
3.84183e-08
2.04268e-06
-3.56705e-08
3.64794e-08
2.04366e-06
-3.09352e-08
1.71519e-07
1.8396e-07
7.56215e-08
2.04804e-06
-1.79392e-07
1.95903e-07
6.87981e-08
2.04732e-06
2.05263e-07
6.00363e-08
2.04739e-06
2.12148e-07
5.31301e-08
2.04662e-06
2.17474e-07
4.8187e-08
2.04597e-06
2.20947e-07
4.46675e-08
2.0455e-06
2.22454e-07
4.28992e-08
2.04586e-06
2.21515e-07
4.02461e-08
2.04613e-06
2.18182e-07
3.90367e-08
2.04724e-06
2.12821e-07
3.73775e-08
2.04787e-06
2.06304e-07
3.91219e-08
2.04909e-06
1.98321e-07
4.01267e-08
2.05042e-06
1.90004e-07
4.10212e-08
2.05208e-06
4.16086e-08
2.0529e-06
1.7495e-07
1.72397e-07
7.04119e-08
2.05577e-06
-1.62209e-07
1.86435e-07
6.17203e-08
2.05507e-06
1.97398e-07
5.69243e-08
2.0554e-06
2.05381e-07
5.2476e-08
2.05463e-06
2.11669e-07
4.85753e-08
2.05421e-06
2.1606e-07
4.59113e-08
2.05388e-06
2.18965e-07
4.44413e-08
2.05459e-06
2.19942e-07
4.24649e-08
2.05501e-06
2.18993e-07
4.14418e-08
2.05626e-06
2.15866e-07
4.00971e-08
2.05706e-06
2.11135e-07
4.15504e-08
2.05836e-06
2.04242e-07
4.31432e-08
2.05974e-06
1.96238e-07
4.38544e-08
2.06135e-06
4.51566e-08
2.06242e-06
1.83128e-07
1.67838e-07
6.41173e-08
2.0638e-06
-1.56259e-07
1.81275e-07
5.49756e-08
2.0632e-06
1.92706e-07
5.30807e-08
2.06381e-06
2.01958e-07
5.03657e-08
2.06309e-06
2.0961e-07
4.74734e-08
2.06294e-06
2.15186e-07
4.58601e-08
2.06274e-06
2.19113e-07
4.48386e-08
2.06365e-06
2.20956e-07
4.37694e-08
2.0642e-06
2.20644e-07
4.32636e-08
2.06553e-06
2.1791e-07
4.25239e-08
2.06637e-06
2.13497e-07
4.3877e-08
2.06773e-06
2.06698e-07
4.62129e-08
2.06918e-06
1.98344e-07
4.70856e-08
2.07089e-06
4.88565e-08
2.07224e-06
1.85182e-07
1.67243e-07
5.6587e-08
2.07104e-06
-1.54183e-07
1.79296e-07
4.91376e-08
2.07075e-06
1.89976e-07
4.93128e-08
2.07192e-06
1.99476e-07
4.73477e-08
2.07154e-06
2.07343e-07
4.55108e-08
2.07188e-06
2.13196e-07
4.49458e-08
2.07198e-06
2.17314e-07
4.44658e-08
2.07303e-06
2.1952e-07
4.41343e-08
2.07366e-06
2.19714e-07
4.40819e-08
2.07494e-06
2.17837e-07
4.37153e-08
2.07573e-06
2.14428e-07
4.48761e-08
2.07689e-06
2.09103e-07
4.72278e-08
2.07806e-06
2.02022e-07
4.82843e-08
2.07961e-06
5.19782e-08
2.0811e-06
1.89967e-07
1.69196e-07
4.66161e-08
2.07857e-06
-1.54216e-07
1.81083e-07
4.25359e-08
2.07888e-06
1.91515e-07
4.46767e-08
2.08028e-06
2.00551e-07
4.37191e-08
2.08026e-06
2.08112e-07
4.28886e-08
2.08094e-06
2.13906e-07
4.32336e-08
2.08137e-06
2.17903e-07
4.33468e-08
2.08251e-06
2.19804e-07
4.37287e-08
2.08335e-06
2.19411e-07
4.4241e-08
2.08467e-06
2.16862e-07
4.43536e-08
2.08556e-06
2.12895e-07
4.52919e-08
2.08664e-06
2.08019e-07
4.67398e-08
2.08769e-06
2.02542e-07
4.66695e-08
2.08914e-06
5.2235e-08
2.09078e-06
1.92376e-07
1.70947e-07
3.51382e-08
2.08634e-06
-1.55568e-07
1.82538e-07
3.49099e-08
2.0874e-06
1.92787e-07
3.85806e-08
2.08892e-06
2.01322e-07
3.90888e-08
2.08933e-06
2.08443e-07
3.93338e-08
2.09027e-06
2.14053e-07
4.04413e-08
2.09105e-06
2.17855e-07
4.11442e-08
2.09222e-06
2.19515e-07
4.20755e-08
2.09323e-06
2.18796e-07
4.30991e-08
2.09451e-06
2.1592e-07
4.371e-08
2.09545e-06
2.11644e-07
4.45583e-08
2.09643e-06
2.06856e-07
4.50234e-08
2.09744e-06
2.01538e-07
4.36115e-08
2.09881e-06
5.01511e-08
2.10045e-06
1.92317e-07
1.73209e-07
2.24936e-08
2.0945e-06
-1.58246e-07
1.84779e-07
2.59793e-08
2.09635e-06
1.95041e-07
3.08556e-08
2.09781e-06
2.03356e-07
3.3099e-08
2.09863e-06
2.10323e-07
3.43382e-08
2.09962e-06
2.15909e-07
3.60399e-08
2.10072e-06
2.19672e-07
3.72861e-08
2.1019e-06
2.21253e-07
3.86743e-08
2.10318e-06
2.20461e-07
4.0245e-08
2.10449e-06
2.17534e-07
4.14502e-08
2.10558e-06
2.13436e-07
4.20423e-08
2.10653e-06
2.09134e-07
4.13033e-08
2.10757e-06
2.02829e-07
3.96813e-08
2.10887e-06
4.62761e-08
2.11047e-06
1.93884e-07
1.73271e-07
9.02415e-09
2.10296e-06
-1.58825e-07
1.85003e-07
1.57481e-08
2.10549e-06
1.95625e-07
2.13485e-08
2.10697e-06
2.04371e-07
2.51526e-08
2.10823e-06
2.11678e-07
2.72414e-08
2.10925e-06
2.17401e-07
2.95332e-08
2.11061e-06
2.21162e-07
3.13699e-08
2.1118e-06
2.22681e-07
3.33305e-08
2.11329e-06
2.21997e-07
3.55713e-08
2.11454e-06
2.19494e-07
3.73649e-08
2.11565e-06
2.15963e-07
3.75543e-08
2.11649e-06
2.11711e-07
3.61689e-08
2.11752e-06
2.04451e-07
3.52256e-08
2.11893e-06
4.13763e-08
2.12065e-06
1.95482e-07
1.76794e-07
-4.491e-09
2.11158e-06
-1.63264e-07
1.87812e-07
5.03971e-09
2.11465e-06
1.979e-07
1.08907e-08
2.11625e-06
2.06271e-07
1.59737e-08
2.11792e-06
2.13423e-07
1.84656e-08
2.11898e-06
2.19113e-07
2.10657e-08
2.12049e-06
2.22911e-07
2.33988e-08
2.12172e-06
2.24477e-07
2.6003e-08
2.12336e-06
2.24046e-07
2.88862e-08
2.12456e-06
2.22036e-07
3.11997e-08
2.1256e-06
2.18986e-07
3.0944e-08
2.12633e-06
2.14434e-07
2.99744e-08
2.12736e-06
2.06606e-07
3.01634e-08
2.12895e-06
3.57984e-08
2.13099e-06
1.97059e-07
1.79654e-07
-1.80617e-08
2.12101e-06
-1.66606e-07
1.90499e-07
-6.25236e-09
2.12416e-06
2.01092e-07
-1.046e-09
2.1258e-06
2.09994e-07
5.02318e-09
2.12769e-06
2.17482e-07
7.81055e-09
2.12885e-06
2.23171e-07
1.08958e-08
2.13048e-06
2.26877e-07
1.37578e-08
2.13181e-06
2.2821e-07
1.71003e-08
2.13356e-06
2.27535e-07
2.05642e-08
2.13469e-06
2.25227e-07
2.34776e-08
2.13558e-06
2.21332e-07
2.33889e-08
2.13622e-06
2.15689e-07
2.37883e-08
2.13738e-06
2.07793e-07
2.43973e-08
2.13934e-06
2.8796e-08
2.14193e-06
1.98568e-07
1.89635e-07
-3.26332e-08
2.13119e-06
-1.7588e-07
2.01124e-07
-1.90718e-08
2.134e-06
2.10465e-07
-1.29797e-08
2.13576e-06
2.1722e-07
-5.40032e-09
2.13779e-06
2.22651e-07
-2.63591e-09
2.13909e-06
2.26815e-07
4.27763e-10
2.1407e-06
2.29465e-07
3.42649e-09
2.14209e-06
2.29781e-07
7.47643e-09
2.1438e-06
2.28104e-07
1.14272e-08
2.14486e-06
2.24869e-07
1.48084e-08
2.14558e-06
2.19526e-07
1.55543e-08
2.14616e-06
2.13473e-07
1.68198e-08
2.14751e-06
2.06125e-07
1.72943e-08
2.14993e-06
1.91389e-08
2.15338e-06
1.98649e-07
1.94801e-07
-4.89425e-08
2.14179e-06
-1.79857e-07
2.06112e-07
-3.21627e-08
2.14423e-06
2.15552e-07
-2.5554e-08
2.14629e-06
2.22603e-07
-1.68102e-08
2.14796e-06
2.28678e-07
-1.47431e-08
2.14929e-06
2.3284e-07
-1.13016e-08
2.15085e-06
2.34593e-07
-7.48321e-09
2.15233e-06
2.33582e-07
-2.4577e-09
2.154e-06
2.30713e-07
1.72509e-09
2.15514e-06
2.26618e-07
5.1045e-09
2.15585e-06
2.2005e-07
7.02064e-09
2.15658e-06
2.1365e-07
7.93775e-09
2.15842e-06
2.07621e-07
6.66847e-09
2.16128e-06
2.76759e-09
2.1655e-06
2.0528e-07
2.08532e-07
2.15018e-06
-6.68138e-08
-1.92471e-07
2.16044e-07
2.15291e-06
-4.37778e-08
2.23503e-07
2.15672e-06
-3.83302e-08
2.28954e-07
2.15855e-06
-2.89687e-08
2.32701e-07
2.16012e-06
-2.66081e-08
2.34352e-07
2.16159e-06
-2.26162e-08
2.3398e-07
2.16303e-06
-1.83341e-08
2.31867e-07
2.16445e-06
-1.31371e-08
2.28836e-07
2.16563e-06
-9.44948e-09
2.24637e-07
2.16639e-06
-6.0539e-09
2.16587e-07
2.16717e-06
-1.5048e-09
2.07105e-07
2.1691e-06
1.89956e-10
1.95318e-07
2.17205e-06
-3.56235e-10
2.17523e-06
1.89306e-07
-1.27951e-08
1.73697e-07
2.22016e-07
2.04494e-06
-2.19347e-07
-1.62532e-07
1.89158e-07
2.21372e-07
2.04396e-06
-2.21434e-07
2.01262e-07
2.16652e-07
2.04312e-06
-2.13147e-07
2.11555e-07
2.11877e-07
2.04209e-06
-2.06844e-07
2.20888e-07
2.09868e-07
2.04072e-06
-2.04387e-07
2.28642e-07
2.07853e-07
2.03921e-06
-2.01575e-07
2.34436e-07
2.06609e-07
2.03792e-06
-1.99486e-07
2.37992e-07
2.03508e-07
2.03644e-06
-1.95807e-07
2.40211e-07
2.01164e-07
2.03552e-06
-1.93287e-07
2.41037e-07
1.97312e-07
2.03373e-06
-1.89424e-07
2.40131e-07
1.97122e-07
2.03232e-06
-1.89079e-07
2.36468e-07
1.96403e-07
2.03053e-06
-1.86666e-07
2.31755e-07
1.95099e-07
2.03024e-06
-1.86037e-07
1.88751e-07
2.03054e-06
-1.7416e-07
2.19889e-07
1.75211e-07
2.22033e-07
2.05269e-06
-1.62791e-07
1.91177e-07
2.18508e-07
2.05171e-06
2.0374e-07
2.1775e-07
2.05077e-06
2.14336e-07
2.14882e-07
2.04904e-06
2.23912e-07
2.13722e-07
2.04709e-06
2.3185e-07
2.12853e-07
2.04504e-06
2.37986e-07
2.12616e-07
2.04373e-06
2.41517e-07
2.10658e-07
2.04211e-06
2.4272e-07
2.09212e-07
2.04137e-06
2.41347e-07
2.06552e-07
2.03989e-06
2.38207e-07
2.06653e-07
2.03905e-06
2.34237e-07
2.05738e-07
2.03802e-06
2.29308e-07
2.03508e-07
2.03755e-06
2.02368e-07
2.03742e-06
2.17187e-07
1.70399e-07
2.17406e-07
2.05839e-06
-1.54597e-07
1.86697e-07
2.14252e-07
2.05711e-06
1.99843e-07
2.17197e-07
2.05632e-06
2.10779e-07
2.16489e-07
2.05442e-06
2.20352e-07
2.16406e-07
2.0527e-06
2.28283e-07
2.16616e-07
2.05083e-06
2.34778e-07
2.1711e-07
2.04988e-06
2.39187e-07
2.16114e-07
2.04839e-06
2.41546e-07
2.15077e-07
2.04774e-06
2.41453e-07
2.13154e-07
2.0465e-06
2.39557e-07
2.1343e-07
2.04585e-06
2.35988e-07
2.13382e-07
2.0451e-06
2.30571e-07
2.11307e-07
2.04443e-06
2.11824e-07
2.04451e-06
2.20988e-07
1.71739e-07
2.11543e-07
2.06392e-06
-1.55703e-07
1.86549e-07
2.10372e-07
2.06263e-06
1.9958e-07
2.1552e-07
2.06212e-06
2.10883e-07
2.16327e-07
2.06018e-06
2.20768e-07
2.17176e-07
2.0587e-06
2.2884e-07
2.18508e-07
2.05691e-06
2.35505e-07
2.19681e-07
2.05614e-06
2.40263e-07
2.19767e-07
2.05474e-06
2.42624e-07
2.19536e-07
2.05411e-06
2.42235e-07
2.18478e-07
2.05281e-06
2.39686e-07
2.19177e-07
2.05206e-06
2.35333e-07
2.20243e-07
2.0513e-06
2.28487e-07
2.19307e-07
2.05066e-06
2.2038e-07
2.05078e-06
2.19138e-07
1.76252e-07
2.04921e-07
2.06853e-06
-1.60624e-07
1.89323e-07
2.06764e-07
2.06757e-06
2.01672e-07
2.12943e-07
2.06757e-06
2.12436e-07
2.14895e-07
2.06596e-06
2.21567e-07
2.1667e-07
2.0649e-06
2.28902e-07
2.18959e-07
2.06333e-06
2.34759e-07
2.20849e-07
2.0626e-06
2.39007e-07
2.21863e-07
2.06121e-06
2.41402e-07
2.22498e-07
2.06043e-06
2.41338e-07
2.21992e-07
2.05901e-06
2.39051e-07
2.22905e-07
2.058e-06
2.35488e-07
2.24324e-07
2.05698e-06
2.29604e-07
2.24418e-07
2.05616e-06
2.26891e-07
2.05623e-06
2.2067e-07
1.81831e-07
1.97216e-07
2.07373e-06
-1.66613e-07
1.94205e-07
2.02121e-07
2.07316e-06
2.06222e-07
2.08911e-07
2.07321e-06
2.16454e-07
2.12262e-07
2.07178e-06
2.24972e-07
2.15022e-07
2.07095e-06
2.31621e-07
2.18141e-07
2.06964e-06
2.3661e-07
2.2067e-07
2.06894e-06
2.39948e-07
2.2251e-07
2.06774e-06
2.41349e-07
2.24179e-07
2.06701e-06
2.40559e-07
2.24461e-07
2.06568e-06
2.37655e-07
2.25691e-07
2.06456e-06
2.33559e-07
2.26775e-07
2.06334e-06
2.28232e-07
2.26628e-07
2.06247e-06
2.29434e-07
2.06236e-06
2.21785e-07
1.88809e-07
1.89066e-07
2.07926e-06
-1.74243e-07
2.00405e-07
1.96641e-07
2.07924e-06
2.11393e-07
2.03791e-07
2.07926e-06
2.20507e-07
2.08624e-07
2.07813e-06
2.28061e-07
2.12243e-07
2.07738e-06
2.33925e-07
2.16048e-07
2.0763e-06
2.38105e-07
2.19198e-07
2.07551e-06
2.40587e-07
2.2173e-07
2.07442e-06
2.41109e-07
2.24363e-07
2.07356e-06
2.39642e-07
2.25584e-07
2.0723e-06
2.36454e-07
2.27197e-07
2.07106e-06
2.32203e-07
2.27636e-07
2.06976e-06
2.27215e-07
2.26438e-07
2.0689e-06
2.29239e-07
2.06863e-06
2.21454e-07
1.95905e-07
1.80339e-07
2.08512e-06
-1.8227e-07
2.07018e-07
1.90122e-07
2.08561e-06
2.17248e-07
1.97746e-07
2.08542e-06
2.25558e-07
2.03975e-07
2.08453e-06
2.32411e-07
2.08304e-07
2.08366e-06
2.37788e-07
2.12588e-07
2.08283e-06
2.41552e-07
2.16203e-07
2.08196e-06
2.43525e-07
2.19246e-07
2.08113e-06
2.43662e-07
2.22636e-07
2.08027e-06
2.41751e-07
2.24895e-07
2.07918e-06
2.38333e-07
2.26708e-07
2.07789e-06
2.34032e-07
2.26376e-07
2.07659e-06
2.28866e-07
2.24058e-07
2.07575e-06
2.27575e-07
2.07523e-06
2.22443e-07
2.00884e-07
1.70732e-07
2.09135e-06
-1.87585e-07
2.11764e-07
1.8231e-07
2.09226e-06
2.21619e-07
1.90461e-07
2.09198e-06
2.29722e-07
1.97654e-07
2.09137e-06
2.36282e-07
2.0259e-07
2.09039e-06
2.41321e-07
2.07375e-07
2.08972e-06
2.44728e-07
2.11493e-07
2.08872e-06
2.46345e-07
2.1512e-07
2.08799e-06
2.46342e-07
2.19179e-07
2.08698e-06
2.44325e-07
2.22341e-07
2.08585e-06
2.40855e-07
2.23871e-07
2.08445e-06
2.36176e-07
2.22773e-07
2.08315e-06
2.30097e-07
2.20595e-07
2.08249e-06
2.25022e-07
2.08176e-06
2.23458e-07
2.08655e-07
1.61114e-07
2.09737e-06
-1.96417e-07
2.18277e-07
1.74476e-07
2.09859e-06
2.27002e-07
1.82868e-07
2.09843e-06
2.34351e-07
1.9049e-07
2.0981e-06
2.40365e-07
1.9558e-07
2.09708e-06
2.45108e-07
2.00506e-07
2.09648e-06
2.48353e-07
2.04998e-07
2.09544e-06
2.49895e-07
2.09214e-07
2.09486e-06
2.49969e-07
2.13674e-07
2.09375e-06
2.48017e-07
2.17284e-07
2.09256e-06
2.44676e-07
2.182e-07
2.09106e-06
2.39362e-07
2.17003e-07
2.08969e-06
2.32064e-07
2.16538e-07
2.0891e-06
2.21356e-07
2.08837e-06
2.25487e-07
2.14902e-07
1.51378e-07
2.10415e-06
-2.03855e-07
2.24498e-07
1.65672e-07
2.10516e-06
2.3352e-07
1.73868e-07
2.10513e-06
2.40876e-07
1.81881e-07
2.10501e-06
2.46591e-07
1.87068e-07
2.10406e-06
2.50838e-07
1.9219e-07
2.10349e-06
2.53722e-07
1.96943e-07
2.10246e-06
2.5493e-07
2.01784e-07
2.10188e-06
2.54624e-07
2.06528e-07
2.1006e-06
2.52045e-07
2.10462e-07
2.09921e-06
2.47692e-07
2.11439e-07
2.09759e-06
2.40761e-07
2.11613e-07
2.09612e-06
2.32525e-07
2.12487e-07
2.0956e-06
2.17334e-07
2.09527e-06
2.25739e-07
2.28091e-07
1.39681e-07
2.11171e-06
-2.16473e-07
2.37725e-07
1.55945e-07
2.11227e-06
2.44625e-07
1.65545e-07
2.11237e-06
2.49622e-07
1.74028e-07
2.11228e-06
2.53324e-07
1.78928e-07
2.11135e-06
2.56177e-07
1.83621e-07
2.11066e-06
2.5808e-07
1.88127e-07
2.10965e-06
2.5815e-07
1.93536e-07
2.10904e-06
2.56664e-07
1.98389e-07
2.10769e-06
2.53105e-07
2.02366e-07
2.10616e-06
2.47741e-07
2.039e-07
2.10443e-06
2.40621e-07
2.05444e-07
2.10295e-06
2.32862e-07
2.0661e-07
2.10271e-06
2.10844e-07
2.1031e-06
2.27317e-07
2.36435e-07
1.26777e-07
2.12051e-06
-2.24712e-07
2.4565e-07
1.45492e-07
2.12049e-06
2.52493e-07
1.5625e-07
2.12025e-06
2.57692e-07
1.64829e-07
2.11976e-06
2.61522e-07
1.69351e-07
2.11879e-06
2.63829e-07
1.74025e-07
2.11805e-06
2.64325e-07
1.78891e-07
2.11711e-06
2.62713e-07
1.8489e-07
2.11639e-06
2.59614e-07
1.89645e-07
2.11514e-06
2.54808e-07
1.93532e-07
2.1136e-06
2.48392e-07
1.9566e-07
2.11198e-06
2.41382e-07
1.97865e-07
2.11079e-06
2.34319e-07
1.98281e-07
2.11106e-06
1.9833e-07
2.11229e-06
2.32527e-07
2.54807e-07
2.12704e-06
1.153e-07
-2.45023e-07
2.57759e-07
2.12821e-06
1.3805e-07
2.61111e-07
2.12882e-06
1.47428e-07
2.6405e-07
2.12813e-06
1.55462e-07
2.65698e-07
2.12704e-06
1.59949e-07
2.65719e-07
2.12603e-06
1.64915e-07
2.64024e-07
2.12491e-06
1.70238e-07
2.61226e-07
2.1238e-06
1.75988e-07
2.57972e-07
2.12256e-06
1.7972e-07
2.53506e-07
2.12101e-06
1.83244e-07
2.46619e-07
2.11954e-06
1.86545e-07
2.3836e-07
2.11874e-06
1.89976e-07
2.27279e-07
2.11931e-06
1.92232e-07
2.12055e-06
2.2561e-07
1.83141e-07
1.5181e-07
3.25649e-07
2.05542e-06
-3.25233e-07
-1.35926e-07
1.65415e-07
3.23292e-07
2.05467e-06
-3.21258e-07
1.76633e-07
3.24573e-07
2.05351e-06
-3.20065e-07
1.86738e-07
3.22875e-07
2.05177e-06
-3.17157e-07
1.9713e-07
3.23874e-07
2.04937e-06
-3.18194e-07
2.06637e-07
3.24428e-07
2.04679e-06
-3.17824e-07
2.1429e-07
3.2503e-07
2.04485e-06
-3.17177e-07
2.20238e-07
3.23056e-07
2.04255e-06
-3.14442e-07
2.2516e-07
3.20406e-07
2.04051e-06
-3.11481e-07
2.28598e-07
3.15713e-07
2.03756e-06
-3.06494e-07
2.30689e-07
3.13162e-07
2.03513e-06
-3.03916e-07
2.30967e-07
3.10027e-07
2.03197e-06
-3.00283e-07
2.30222e-07
3.10848e-07
2.03006e-06
-3.0149e-07
3.03722e-07
2.02903e-06
-2.90419e-07
2.23096e-07
1.55367e-07
3.22737e-07
2.06126e-06
-1.39019e-07
1.70099e-07
3.22016e-07
2.06001e-06
1.82096e-07
3.26384e-07
2.05856e-06
1.92585e-07
3.26337e-07
2.05615e-06
2.02525e-07
3.27795e-07
2.05347e-06
2.11272e-07
3.29179e-07
2.05061e-06
2.18569e-07
3.30582e-07
2.0485e-06
2.24092e-07
3.29505e-07
2.04595e-06
2.27923e-07
3.2762e-07
2.04414e-06
2.29533e-07
3.24166e-07
2.04142e-06
2.29074e-07
3.22819e-07
2.03931e-06
2.27333e-07
3.20331e-07
2.03655e-06
2.26472e-07
3.19119e-07
2.03479e-06
3.15774e-07
2.03328e-06
2.18696e-07
1.55498e-07
3.1627e-07
2.06502e-06
-1.37886e-07
1.69556e-07
3.19572e-07
2.06315e-06
1.81444e-07
3.26028e-07
2.06187e-06
1.91708e-07
3.27767e-07
2.0591e-06
2.01057e-07
3.29974e-07
2.05663e-06
2.09282e-07
3.3214e-07
2.05384e-06
2.16385e-07
3.3413e-07
2.0519e-06
2.21697e-07
3.34169e-07
2.04933e-06
2.25303e-07
3.33238e-07
2.04751e-06
2.27032e-07
3.30949e-07
2.04493e-06
2.27501e-07
3.30294e-07
2.04303e-06
2.26815e-07
3.28589e-07
2.04063e-06
2.25583e-07
3.26758e-07
2.03878e-06
3.24935e-07
2.0376e-06
2.1966e-07
1.5943e-07
3.1066e-07
2.06787e-06
-1.43675e-07
1.72017e-07
3.17421e-07
2.06601e-06
1.83584e-07
3.24682e-07
2.06487e-06
1.93728e-07
3.2789e-07
2.06194e-06
2.02901e-07
3.3075e-07
2.05965e-06
2.10759e-07
3.3385e-07
2.05688e-06
2.1752e-07
3.36393e-07
2.05508e-06
2.22539e-07
3.37442e-07
2.0526e-06
2.25588e-07
3.3766e-07
2.05081e-06
2.26735e-07
3.36499e-07
2.04818e-06
2.26396e-07
3.36766e-07
2.04612e-06
2.24713e-07
3.36172e-07
2.04363e-06
2.21546e-07
3.34988e-07
2.04172e-06
3.33577e-07
2.04045e-06
2.15312e-07
1.65907e-07
3.06248e-07
2.06994e-06
-1.5229e-07
1.77069e-07
3.15421e-07
2.06857e-06
1.87883e-07
3.2274e-07
2.06773e-06
1.97293e-07
3.27202e-07
2.06508e-06
2.05487e-07
3.30778e-07
2.0631e-06
2.12316e-07
3.34737e-07
2.06045e-06
2.18003e-07
3.37908e-07
2.05856e-06
2.22181e-07
3.39816e-07
2.05597e-06
2.24586e-07
3.41077e-07
2.0539e-06
2.25397e-07
3.40711e-07
2.05111e-06
2.24743e-07
3.41687e-07
2.04879e-06
2.22969e-07
3.41751e-07
2.04611e-06
2.19401e-07
3.41605e-07
2.04407e-06
3.39611e-07
2.04253e-06
2.14693e-07
1.7362e-07
3.01908e-07
2.07269e-06
-1.61119e-07
1.84309e-07
3.12719e-07
2.0715e-06
1.94512e-07
3.20204e-07
2.07053e-06
2.03002e-07
3.2606e-07
2.06802e-06
2.10152e-07
3.30309e-07
2.06613e-06
2.15904e-07
3.34976e-07
2.06367e-06
2.20477e-07
3.38651e-07
2.06178e-06
2.23655e-07
3.41244e-07
2.05934e-06
2.25061e-07
3.4354e-07
2.05732e-06
2.24834e-07
3.43991e-07
2.05463e-06
2.23059e-07
3.45669e-07
2.05217e-06
2.20561e-07
3.45779e-07
2.04935e-06
2.16895e-07
3.4608e-07
2.04714e-06
3.43584e-07
2.04518e-06
2.12896e-07
1.82848e-07
2.97873e-07
2.07592e-06
-1.71777e-07
1.92608e-07
3.09649e-07
2.07506e-06
2.01506e-07
3.17527e-07
2.07393e-06
2.08769e-07
3.24526e-07
2.07164e-06
2.14751e-07
3.29306e-07
2.06969e-06
2.19461e-07
3.34432e-07
2.06735e-06
2.22897e-07
3.38572e-07
2.06525e-06
2.24938e-07
3.41783e-07
2.06282e-06
2.25274e-07
3.45089e-07
2.06055e-06
2.23994e-07
3.46423e-07
2.0579e-06
2.21446e-07
3.48595e-07
2.05527e-06
2.18593e-07
3.48264e-07
2.05246e-06
2.15332e-07
3.48234e-07
2.05012e-06
3.46206e-07
2.04803e-06
2.11079e-07
1.91836e-07
2.9403e-07
2.07927e-06
-1.82153e-07
2.00801e-07
3.05988e-07
2.07879e-06
2.08645e-07
3.14523e-07
2.07721e-06
2.14954e-07
3.22424e-07
2.07508e-06
2.20022e-07
3.27687e-07
2.07286e-06
2.23986e-07
3.33038e-07
2.07072e-06
2.26723e-07
3.37467e-07
2.06846e-06
2.28116e-07
3.41087e-07
2.06625e-06
2.27969e-07
3.45127e-07
2.06393e-06
2.26153e-07
3.47374e-07
2.06144e-06
2.23395e-07
3.49782e-07
2.05868e-06
2.20186e-07
3.49196e-07
2.05588e-06
2.17063e-07
3.48525e-07
2.05327e-06
3.48054e-07
2.05135e-06
2.11636e-07
1.99037e-07
2.89412e-07
2.08314e-06
-1.89945e-07
2.07286e-07
3.01443e-07
2.08295e-06
2.14435e-07
3.10497e-07
2.08115e-06
2.20294e-07
3.18938e-07
2.07913e-06
2.24881e-07
3.24703e-07
2.07667e-06
2.2839e-07
3.30321e-07
2.07454e-06
2.30623e-07
3.35139e-07
2.07204e-06
2.31495e-07
3.39239e-07
2.06979e-06
2.30938e-07
3.43894e-07
2.06718e-06
2.2867e-07
3.47067e-07
2.06458e-06
2.25755e-07
3.49431e-07
2.06154e-06
2.22065e-07
3.48891e-07
2.05872e-06
2.18536e-07
3.47637e-07
2.05607e-06
3.4927e-07
2.05414e-06
2.12031e-07
2.08332e-07
2.84519e-07
2.08625e-06
-1.99903e-07
2.14932e-07
2.97355e-07
2.08635e-06
2.2075e-07
3.06521e-07
2.08459e-06
2.25764e-07
3.14891e-07
2.08276e-06
2.2971e-07
3.20838e-07
2.08016e-06
2.32792e-07
3.26415e-07
2.07806e-06
2.34674e-07
3.31512e-07
2.07546e-06
2.35225e-07
3.36008e-07
2.07333e-06
2.34525e-07
3.40969e-07
2.0706e-06
2.3218e-07
3.44816e-07
2.0679e-06
2.29434e-07
3.46802e-07
2.0646e-06
2.25454e-07
3.46821e-07
2.06161e-06
2.20989e-07
3.4576e-07
2.05886e-06
3.49481e-07
2.05655e-06
2.13835e-07
2.16867e-07
2.79132e-07
2.08986e-06
-2.08667e-07
2.22801e-07
2.92604e-07
2.09002e-06
2.28153e-07
3.0152e-07
2.0884e-06
2.32714e-07
3.09604e-07
2.08675e-06
2.36179e-07
3.15605e-07
2.08414e-06
2.38652e-07
3.21174e-07
2.08197e-06
2.40035e-07
3.26499e-07
2.07923e-06
2.40105e-07
3.31548e-07
2.07691e-06
2.39041e-07
3.36802e-07
2.07384e-06
2.364e-07
3.4131e-07
2.07076e-06
2.33118e-07
3.43252e-07
2.06715e-06
2.28012e-07
3.44535e-07
2.06388e-06
2.2108e-07
3.44825e-07
2.06127e-06
3.49422e-07
2.05897e-06
2.126e-07
2.29983e-07
2.72751e-07
2.09395e-06
-2.21403e-07
2.35191e-07
2.87488e-07
2.0939e-06
2.3876e-07
2.97129e-07
2.09236e-06
2.41469e-07
3.05032e-07
2.09064e-06
2.43313e-07
3.10804e-07
2.088e-06
2.44616e-07
3.15723e-07
2.08568e-06
2.45086e-07
3.20761e-07
2.08299e-06
2.43971e-07
3.26373e-07
2.08071e-06
2.4194e-07
3.31533e-07
2.07759e-06
2.38749e-07
3.3627e-07
2.07433e-06
2.35218e-07
3.38115e-07
2.07049e-06
2.30105e-07
3.40626e-07
2.06692e-06
2.233e-07
3.42061e-07
2.0644e-06
3.46311e-07
2.06257e-06
2.16058e-07
2.39506e-07
2.65497e-07
2.10001e-06
-2.30888e-07
2.44254e-07
2.81775e-07
2.09928e-06
2.47519e-07
2.91722e-07
2.09732e-06
2.49922e-07
2.991e-07
2.09523e-06
2.51274e-07
3.04691e-07
2.09248e-06
2.51611e-07
3.09347e-07
2.09001e-06
2.50661e-07
3.14551e-07
2.08727e-06
2.48208e-07
3.2071e-07
2.0847e-06
2.45047e-07
3.25692e-07
2.08153e-06
2.41338e-07
3.30287e-07
2.07809e-06
2.37321e-07
3.32157e-07
2.07439e-06
2.31801e-07
3.35515e-07
2.07094e-06
2.24035e-07
3.37836e-07
2.06917e-06
3.40724e-07
2.06785e-06
2.17753e-07
2.55682e-07
2.10486e-06
2.59423e-07
-2.51487e-07
2.55033e-07
2.1052e-06
2.78771e-07
2.55599e-07
2.10308e-06
2.86918e-07
2.56424e-07
2.10053e-06
2.9271e-07
2.56269e-07
2.09741e-06
2.98322e-07
2.54637e-07
2.09448e-06
3.03488e-07
2.51439e-07
2.09152e-06
3.09223e-07
2.47691e-07
2.0886e-06
3.14877e-07
2.44282e-07
2.08546e-06
3.18627e-07
2.40972e-07
2.08191e-06
3.22466e-07
2.37787e-07
2.07834e-06
3.23903e-07
2.33696e-07
2.07509e-06
3.27103e-07
2.25568e-07
2.07362e-06
3.31913e-07
2.07283e-06
2.21408e-07
3.29786e-07
1.24096e-07
3.79737e-07
2.06797e-06
-3.82436e-07
-1.09963e-07
1.32983e-07
3.78384e-07
2.0663e-06
-3.74753e-07
1.41323e-07
3.81741e-07
2.06522e-06
-3.77815e-07
1.49881e-07
3.81303e-07
2.06312e-06
-3.77611e-07
1.59329e-07
3.83652e-07
2.0603e-06
-3.80894e-07
1.68055e-07
3.85266e-07
2.05718e-06
-3.8193e-07
1.75268e-07
3.86735e-07
2.05416e-06
-3.81811e-07
1.81354e-07
3.85548e-07
2.05081e-06
-3.79376e-07
1.86625e-07
3.82996e-07
2.0477e-06
-3.76173e-07
1.90716e-07
3.78894e-07
2.04392e-06
-3.71494e-07
1.93509e-07
3.75645e-07
2.04085e-06
-3.67878e-07
1.94326e-07
3.71254e-07
2.03662e-06
-3.6225e-07
1.96807e-07
3.70464e-07
2.03387e-06
-3.63627e-07
3.64389e-07
2.03097e-06
-3.55839e-07
1.97531e-07
1.27618e-07
3.73405e-07
2.07093e-06
-1.10805e-07
1.3934e-07
3.78037e-07
2.0688e-06
1.4891e-07
3.83767e-07
2.06696e-06
1.57425e-07
3.84824e-07
2.06377e-06
1.65687e-07
3.87207e-07
2.06072e-06
1.73071e-07
3.89415e-07
2.05731e-06
1.79445e-07
3.91447e-07
2.05463e-06
1.84627e-07
3.9095e-07
2.05161e-06
1.88852e-07
3.88912e-07
2.04911e-06
1.91749e-07
3.85445e-07
2.04568e-06
1.92849e-07
3.83168e-07
2.04285e-06
1.9218e-07
3.7994e-07
2.03891e-06
1.92182e-07
3.77818e-07
2.0364e-06
3.72304e-07
2.03296e-06
1.91628e-07
1.28744e-07
3.6844e-07
2.07197e-06
-1.14331e-07
1.39753e-07
3.77317e-07
2.06921e-06
1.4947e-07
3.84005e-07
2.0678e-06
1.57679e-07
3.86705e-07
2.06442e-06
1.65231e-07
3.89515e-07
2.06155e-06
1.72019e-07
3.92211e-07
2.05815e-06
1.78159e-07
3.94567e-07
2.05547e-06
1.83097e-07
3.949e-07
2.05218e-06
1.86786e-07
3.93776e-07
2.04956e-06
1.89046e-07
3.913e-07
2.04618e-06
1.90015e-07
3.89772e-07
2.0435e-06
1.8978e-07
3.87349e-07
2.03994e-06
1.89173e-07
3.84891e-07
2.03755e-06
3.79376e-07
2.03453e-06
1.88526e-07
1.33204e-07
3.65752e-07
2.072e-06
-1.21863e-07
1.42826e-07
3.76952e-07
2.06944e-06
1.52099e-07
3.83688e-07
2.0679e-06
1.60015e-07
3.87767e-07
2.06433e-06
1.67285e-07
3.90869e-07
2.06157e-06
1.73538e-07
3.94198e-07
2.05822e-06
1.79089e-07
3.96787e-07
2.05574e-06
1.83387e-07
3.97837e-07
2.05262e-06
1.8625e-07
3.97726e-07
2.0501e-06
1.87795e-07
3.96141e-07
2.04673e-06
1.88049e-07
3.95503e-07
2.04393e-06
1.87218e-07
3.93975e-07
2.04034e-06
1.85049e-07
3.92469e-07
2.03779e-06
3.87193e-07
2.03474e-06
1.82729e-07
1.40514e-07
3.64465e-07
2.07176e-06
-1.31607e-07
1.48856e-07
3.7664e-07
2.06974e-06
1.57109e-07
3.83192e-07
2.06833e-06
1.64078e-07
3.88393e-07
2.06504e-06
1.70268e-07
3.91851e-07
2.06249e-06
1.75399e-07
3.95815e-07
2.05918e-06
1.79817e-07
3.98689e-07
2.05651e-06
1.83116e-07
4.00339e-07
2.05317e-06
1.85044e-07
4.01135e-07
2.0503e-06
1.85871e-07
4.00212e-07
2.04672e-06
1.85554e-07
4.00359e-07
2.04364e-06
1.84598e-07
3.99312e-07
2.03996e-06
1.8217e-07
3.99018e-07
2.03725e-06
3.93842e-07
2.03418e-06
1.7968e-07
1.48722e-07
3.63427e-07
2.07209e-06
-1.41032e-07
1.56332e-07
3.75993e-07
2.07012e-06
1.63561e-07
3.82641e-07
2.06848e-06
1.69496e-07
3.88883e-07
2.06531e-06
1.7451e-07
3.92792e-07
2.06276e-06
1.78499e-07
3.97305e-07
2.05961e-06
1.81772e-07
4.00428e-07
2.05693e-06
1.84079e-07
4.02517e-07
2.05376e-06
1.85046e-07
4.04168e-07
2.05089e-06
1.84808e-07
4.03948e-07
2.04742e-06
1.83282e-07
4.0498e-07
2.04417e-06
1.81503e-07