/*--------------------------------*- C++ -*----------------------------------*\
| =========                 |                                                 |
| \\      /  F ield         | OpenFOAM: The Open Source CFD Toolbox           |
|  \\    /   O peration     | Version:  v2106                                 |
|   \\  /    A nd           | Website:  www.openfoam.com                      |
|    \\/     M anipulation  |                                                 |
\*---------------------------------------------------------------------------*/
FoamFile
{
    version     2.0;
    format      ascii;
    arch        "LSB;label=32;scalar=64";
    class       volScalarField;
    location    "0.000182";
    object      rho;
}
// * * * * * * * * * * * * * * * * * * * * * * * * * * * * * * * * * * * * * //

dimensions      [1 -3 0 0 0 0 0];

internalField   nonuniform List<scalar> 
17924
(
2.71009
2.71018
2.71045
2.71075
2.7044
2.7043
2.70439
2.70457
2.70483
2.70516
2.70555
2.70551
2.70533
2.70543
2.70559
2.70585
2.70617
2.70656
2.70653
2.70637
2.70649
2.70666
2.70692
2.70725
2.70763
2.70754
2.70746
2.70758
2.70777
2.70804
2.70837
2.70875
2.70853
2.70854
2.70869
2.7089
2.70919
2.70954
2.70993
2.70955
2.70964
2.70983
2.71008
2.7104
2.71076
2.71116
2.71057
2.71074
2.71097
2.71127
2.71162
2.712
2.71241
2.71162
2.71186
2.71214
2.71248
2.71286
2.71327
2.7137
2.71266
2.71296
2.7133
2.71369
2.7141
2.71454
2.71499
2.71371
2.71409
2.71447
2.7149
2.71535
2.71582
2.71629
2.71473
2.71518
2.71561
2.71609
2.71658
2.71708
2.71758
2.71578
2.71629
2.71678
2.7173
2.71783
2.71836
2.71887
2.71675
2.71732
2.71786
2.71844
2.71901
2.71958
2.72014
2.71781
2.71846
2.71904
2.71966
2.72025
2.72084
2.7214
2.70171
2.70146
2.70142
2.70144
2.7015
2.70161
2.70177
2.70197
2.70221
2.70249
2.70279
2.70313
2.70349
2.70386
2.70266
2.70243
2.70242
2.70244
2.70252
2.70264
2.7028
2.70301
2.70324
2.7035
2.7038
2.70412
2.70444
2.70479
2.70357
2.70339
2.70341
2.70347
2.70357
2.7037
2.70387
2.70407
2.70429
2.70454
2.70481
2.70511
2.70539
2.70573
2.7045
2.7044
2.70445
2.70453
2.70465
2.7048
2.70497
2.70518
2.7054
2.70565
2.7059
2.70618
2.70644
2.70677
2.70541
2.70539
2.70549
2.7056
2.70574
2.70591
2.7061
2.70631
2.70653
2.70677
2.70702
2.70728
2.70752
2.70784
2.70636
2.70642
2.70655
2.70669
2.70686
2.70704
2.70724
2.70746
2.70769
2.70793
2.70817
2.70842
2.70867
2.70895
2.7073
2.70743
2.7076
2.70778
2.70797
2.70818
2.7084
2.70862
2.70886
2.7091
2.70935
2.70959
2.70983
2.71008
2.70827
2.70845
2.70866
2.70887
2.70909
2.70932
2.70956
2.7098
2.71004
2.71029
2.71053
2.71077
2.71102
2.71123
2.70924
2.70948
2.70971
2.70996
2.71021
2.71046
2.71072
2.71097
2.71123
2.71147
2.71171
2.71193
2.7122
2.71238
2.71023
2.71052
2.71077
2.71105
2.71133
2.7116
2.71188
2.71215
2.71241
2.71265
2.7129
2.71312
2.71339
2.71355
2.7112
2.71154
2.71183
2.71214
2.71244
2.71273
2.71303
2.71331
2.71358
2.71383
2.71408
2.71429
2.71457
2.71469
2.71222
2.7126
2.71291
2.71324
2.71356
2.71387
2.71417
2.71446
2.71474
2.715
2.71526
2.71548
2.71577
2.71586
2.7132
2.71359
2.71395
2.71431
2.71466
2.71499
2.71531
2.71561
2.7159
2.71616
2.71642
2.71665
2.71694
2.71703
2.71431
2.7147
2.71507
2.71544
2.7158
2.71614
2.71646
2.71676
2.71705
2.71731
2.71757
2.71781
2.71809
2.71826
2.70111
2.7009
2.70077
2.70066
2.70057
2.7005
2.70044
2.70041
2.70042
2.70044
2.70049
2.70055
2.70065
2.70079
2.70188
2.70168
2.70158
2.70148
2.70141
2.70135
2.7013
2.70127
2.70127
2.70129
2.70132
2.70138
2.70144
2.70161
2.70259
2.70242
2.70236
2.70229
2.70225
2.7022
2.70217
2.70214
2.70213
2.70214
2.70216
2.7022
2.70223
2.70238
2.70332
2.7032
2.70317
2.70312
2.70309
2.70306
2.70304
2.70302
2.703
2.703
2.70302
2.70305
2.70307
2.70318
2.70404
2.70396
2.70396
2.70394
2.70393
2.70392
2.70391
2.70389
2.70388
2.70388
2.70388
2.7039
2.70391
2.70399
2.70477
2.70474
2.70476
2.70476
2.70477
2.70477
2.70477
2.70477
2.70476
2.70476
2.70475
2.70477
2.70477
2.70482
2.7055
2.70552
2.70556
2.70558
2.70561
2.70562
2.70563
2.70564
2.70564
2.70564
2.70564
2.70564
2.70565
2.70566
2.70625
2.70631
2.70636
2.70641
2.70645
2.70648
2.7065
2.70651
2.70652
2.70652
2.70652
2.70652
2.70654
2.70653
2.707
2.7071
2.70717
2.70724
2.70729
2.70734
2.70737
2.70739
2.7074
2.70741
2.70741
2.70742
2.70745
2.70741
2.7078
2.70791
2.70799
2.70808
2.70814
2.7082
2.70824
2.70827
2.70829
2.7083
2.70832
2.70833
2.70837
2.70832
2.7086
2.70873
2.70882
2.70893
2.70901
2.70907
2.70912
2.70916
2.70918
2.7092
2.70923
2.70925
2.70928
2.70921
2.70944
2.70957
2.70968
2.70979
2.70988
2.70995
2.71001
2.71005
2.71008
2.71011
2.71015
2.71019
2.71023
2.71015
2.71029
2.71041
2.71054
2.71067
2.71077
2.71085
2.71091
2.71095
2.71099
2.71103
2.71106
2.71109
2.71114
2.71106
2.71124
2.71131
2.71146
2.71157
2.71167
2.71175
2.71182
2.71187
2.71191
2.71195
2.71199
2.71204
2.71211
2.71208
2.70135
2.70115
2.70099
2.70081
2.70065
2.70047
2.7003
2.70014
2.69999
2.69983
2.69971
2.69958
2.69948
2.69941
2.70189
2.70168
2.70154
2.70137
2.70121
2.70104
2.70088
2.70071
2.70056
2.7004
2.70026
2.70012
2.69999
2.69996
2.70234
2.70216
2.70205
2.70189
2.70175
2.70159
2.70144
2.70127
2.70112
2.70096
2.7008
2.70065
2.70049
2.70045
2.70282
2.70268
2.70257
2.70243
2.70229
2.70214
2.70199
2.70182
2.70167
2.7015
2.70134
2.70119
2.70102
2.70095
2.70329
2.70318
2.70309
2.70296
2.70283
2.70269
2.70254
2.70238
2.70222
2.70205
2.70189
2.70173
2.70156
2.70145
2.70379
2.70369
2.70361
2.70349
2.70337
2.70323
2.70308
2.70293
2.70276
2.7026
2.70243
2.70227
2.70209
2.70195
2.70428
2.70421
2.70413
2.70402
2.7039
2.70377
2.70363
2.70348
2.70331
2.70315
2.70298
2.7028
2.70263
2.70247
2.7048
2.70474
2.70466
2.70456
2.70444
2.70432
2.70418
2.70402
2.70386
2.70369
2.70352
2.70334
2.70317
2.70299
2.70532
2.70528
2.7052
2.7051
2.70499
2.70487
2.70472
2.70457
2.70441
2.70424
2.70407
2.70388
2.70371
2.70352
2.70587
2.70583
2.70575
2.70566
2.70555
2.70543
2.70528
2.70513
2.70497
2.70479
2.70462
2.70443
2.70427
2.70406
2.70643
2.7064
2.70632
2.70624
2.70612
2.706
2.70585
2.7057
2.70553
2.70536
2.70519
2.70499
2.70484
2.70463
2.70703
2.70699
2.70691
2.70682
2.70671
2.70658
2.70644
2.70628
2.70612
2.70594
2.70578
2.70558
2.70544
2.70524
2.70765
2.70761
2.70752
2.70744
2.70732
2.70719
2.70704
2.70687
2.70671
2.70653
2.70637
2.70617
2.70604
2.70584
2.70835
2.70823
2.70814
2.70804
2.70792
2.70779
2.70765
2.70749
2.70733
2.70716
2.70699
2.70682
2.7067
2.70653
2.70169
2.70147
2.70128
2.70107
2.70086
2.70063
2.7004
2.70016
2.69991
2.69966
2.69943
2.69918
2.69896
2.69873
2.70195
2.70174
2.70158
2.70137
2.70116
2.70093
2.7007
2.70044
2.7002
2.69994
2.69969
2.69944
2.69921
2.69898
2.70217
2.70199
2.70183
2.70163
2.70142
2.7012
2.70097
2.70072
2.70048
2.70022
2.69997
2.69972
2.69947
2.69923
2.70243
2.70226
2.7021
2.7019
2.7017
2.70147
2.70124
2.70099
2.70074
2.70048
2.70023
2.69997
2.69971
2.69947
2.70268
2.70253
2.70236
2.70217
2.70196
2.70174
2.7015
2.70125
2.701
2.70074
2.70048
2.70021
2.69995
2.6997
2.70295
2.7028
2.70264
2.70244
2.70223
2.70201
2.70177
2.70151
2.70125
2.70099
2.70072
2.70045
2.70018
2.69992
2.70323
2.70308
2.70291
2.70272
2.7025
2.70227
2.70203
2.70177
2.70151
2.70123
2.70096
2.70069
2.70041
2.70014
2.70352
2.70338
2.7032
2.703
2.70278
2.70254
2.70229
2.70203
2.70176
2.70148
2.7012
2.70091
2.70063
2.70035
2.70382
2.70367
2.70348
2.70328
2.70305
2.70281
2.70255
2.70228
2.70201
2.70173
2.70144
2.70115
2.70086
2.70057
2.70412
2.70397
2.70377
2.70357
2.70333
2.70308
2.70282
2.70254
2.70226
2.70197
2.70168
2.70139
2.7011
2.70079
2.70443
2.70427
2.70407
2.70385
2.70361
2.70335
2.70308
2.7028
2.70252
2.70223
2.70194
2.70163
2.70133
2.70101
2.70476
2.70459
2.70437
2.70415
2.7039
2.70364
2.70336
2.70307
2.70278
2.70248
2.70218
2.70186
2.70157
2.70122
2.70511
2.70494
2.70471
2.70447
2.7042
2.70393
2.70364
2.70335
2.70305
2.70274
2.70243
2.7021
2.7018
2.70146
2.70551
2.70526
2.70501
2.70476
2.7045
2.70423
2.70394
2.70364
2.70334
2.70303
2.70273
2.7024
2.7021
2.70176
2.70179
2.70158
2.70137
2.70114
2.70089
2.70062
2.70033
2.70003
2.69973
2.6994
2.6991
2.69876
2.69846
2.69812
2.70182
2.70162
2.70143
2.7012
2.70095
2.70067
2.70038
2.70007
2.69976
2.69943
2.69911
2.69878
2.69849
2.69816
2.70183
2.70165
2.70146
2.70122
2.70098
2.7007
2.70042
2.70012
2.6998
2.69948
2.69916
2.69884
2.69853
2.6982
2.70187
2.7017
2.7015
2.70127
2.70101
2.70074
2.70046
2.70015
2.69984
2.69952
2.6992
2.69887
2.69856
2.69824
2.70192
2.70175
2.70154
2.7013
2.70105
2.70077
2.70048
2.70018
2.69987
2.69954
2.69922
2.69888
2.69856
2.69823
2.70197
2.7018
2.70158
2.70134
2.70107
2.70079
2.7005
2.70019
2.69987
2.69954
2.69921
2.69888
2.69855
2.69822
2.70203
2.70184
2.70162
2.70137
2.7011
2.70081
2.70051
2.70019
2.69987
2.69953
2.6992
2.69886
2.69852
2.69818
2.70209
2.70189
2.70165
2.7014
2.70112
2.70082
2.70051
2.70018
2.69985
2.69951
2.69917
2.69883
2.69848
2.69814
2.70216
2.70195
2.70169
2.70143
2.70113
2.70083
2.7005
2.70017
2.69983
2.69949
2.69914
2.69879
2.69843
2.69808
2.70223
2.70199
2.70173
2.70145
2.70114
2.70083
2.7005
2.70016
2.69981
2.69946
2.6991
2.69874
2.69837
2.69802
2.7023
2.70205
2.70177
2.70147
2.70115
2.70083
2.70049
2.70014
2.69978
2.69942
2.69905
2.69869
2.69831
2.69795
2.70237
2.7021
2.70181
2.70149
2.70117
2.70083
2.70048
2.70012
2.69975
2.69938
2.699
2.69863
2.69824
2.69787
2.70245
2.70216
2.70185
2.70151
2.70117
2.70082
2.70047
2.7001
2.69973
2.69935
2.69896
2.69857
2.69817
2.69778
2.70252
2.70218
2.70187
2.70153
2.70119
2.70083
2.70046
2.70009
2.69971
2.69934
2.69895
2.69857
2.69816
2.69775
2.70131
2.70111
2.70089
2.70064
2.70037
2.70007
2.69975
2.69941
2.69906
2.69869
2.69833
2.69794
2.69757
2.69715
2.70114
2.70095
2.70074
2.70049
2.70022
2.69992
2.6996
2.69926
2.69891
2.69854
2.69817
2.69778
2.69742
2.69702
2.70095
2.70078
2.70056
2.70031
2.70004
2.69974
2.69942
2.69909
2.69874
2.69837
2.69801
2.69762
2.69726
2.69687
2.70078
2.70061
2.70038
2.70013
2.69985
2.69956
2.69924
2.6989
2.69855
2.69819
2.69782
2.69745
2.69709
2.69671
2.70062
2.70044
2.7002
2.69995
2.69966
2.69936
2.69904
2.69871
2.69836
2.69799
2.69763
2.69726
2.69689
2.69651
2.70045
2.70026
2.70001
2.69975
2.69946
2.69916
2.69884
2.6985
2.69814
2.69778
2.69741
2.69704
2.69667
2.69629
2.70029
2.70008
2.69983
2.69956
2.69926
2.69895
2.69862
2.69828
2.69792
2.69755
2.69718
2.69681
2.69643
2.69605
2.70013
2.6999
2.69963
2.69935
2.69905
2.69873
2.69839
2.69804
2.69768
2.69731
2.69693
2.69656
2.69617
2.69579
2.69997
2.69972
2.69944
2.69915
2.69883
2.6985
2.69815
2.6978
2.69743
2.69705
2.69667
2.69629
2.69589
2.69552
2.6998
2.69952
2.69923
2.69892
2.6986
2.69826
2.6979
2.69754
2.69716
2.69678
2.69639
2.69601
2.6956
2.69523
2.69964
2.69934
2.69903
2.69871
2.69837
2.69801
2.69765
2.69727
2.69688
2.6965
2.69609
2.6957
2.69528
2.69492
2.69946
2.69912
2.69881
2.69847
2.69812
2.69775
2.69738
2.697
2.6966
2.69621
2.6958
2.6954
2.69497
2.69461
2.69928
2.69892
2.69859
2.69824
2.69787
2.6975
2.69711
2.69671
2.6963
2.69589
2.69548
2.69507
2.69463
2.69425
2.69907
2.69869
2.69835
2.69798
2.6976
2.69721
2.69682
2.69642
2.69601
2.69561
2.69519
2.69478
2.69435
2.69394
2.69972
2.69952
2.6993
2.69905
2.69878
2.69848
2.69817
2.69783
2.69747
2.69709
2.69671
2.69629
2.6959
2.69545
2.69935
2.69917
2.69895
2.69872
2.69844
2.69815
2.69783
2.69749
2.69712
2.69674
2.69635
2.69595
2.69556
2.69514
2.69899
2.69883
2.69859
2.69835
2.69808
2.69779
2.69747
2.69714
2.69678
2.69641
2.69603
2.69563
2.69524
2.69483
2.69863
2.69847
2.69823
2.69799
2.69771
2.69742
2.6971
2.69677
2.69641
2.69604
2.69567
2.69527
2.6949
2.69449
2.69829
2.69811
2.69787
2.69762
2.69734
2.69704
2.69672
2.69639
2.69604
2.69568
2.6953
2.69492
2.69454
2.69414
2.69794
2.69774
2.69749
2.69724
2.69695
2.69665
2.69633
2.696
2.69564
2.69528
2.69491
2.69453
2.69415
2.69376
2.6976
2.69738
2.69712
2.69685
2.69656
2.69626
2.69593
2.69559
2.69524
2.69488
2.69451
2.69413
2.69375
2.69337
2.69723
2.69699
2.69673
2.69645
2.69615
2.69584
2.69551
2.69517
2.69482
2.69445
2.69408
2.6937
2.69332
2.69294
2.69688
2.69661
2.69634
2.69605
2.69574
2.69542
2.69509
2.69474
2.69438
2.69401
2.69363
2.69326
2.69287
2.69251
2.6965
2.69621
2.69593
2.69562
2.69531
2.69498
2.69464
2.69429
2.69393
2.69356
2.69317
2.6928
2.6924
2.69205
2.69613
2.69582
2.69552
2.6952
2.69488
2.69454
2.69419
2.69383
2.69345
2.69308
2.69268
2.69231
2.6919
2.69157
2.69573
2.69539
2.69508
2.69475
2.69442
2.69407
2.69372
2.69336
2.69298
2.6926
2.6922
2.69182
2.69141
2.69108
2.69535
2.69498
2.69466
2.69432
2.69397
2.69361
2.69324
2.69286
2.69247
2.69208
2.69167
2.69128
2.69087
2.69055
2.69489
2.69452
2.69418
2.69383
2.69347
2.69311
2.69274
2.69237
2.69198
2.69159
2.6912
2.69081
2.6904
2.69005
2.69651
2.69633
2.69612
2.69591
2.69568
2.69543
2.69516
2.69488
2.69457
2.69424
2.6939
2.69354
2.69318
2.69277
2.69601
2.69588
2.69566
2.69546
2.69522
2.69497
2.69469
2.6944
2.69409
2.69376
2.69341
2.69305
2.69269
2.69231
2.69555
2.69542
2.69519
2.69498
2.69474
2.69449
2.69422
2.69393
2.69362
2.6933
2.69296
2.69261
2.69226
2.6919
2.69509
2.69495
2.69472
2.6945
2.69426
2.69401
2.69373
2.69344
2.69313
2.69281
2.69248
2.69213
2.69179
2.69142
2.69463
2.69447
2.69424
2.69402
2.69377
2.69351
2.69323
2.69294
2.69264
2.69232
2.692
2.69165
2.69132
2.69097
2.69416
2.69398
2.69374
2.69352
2.69326
2.693
2.69272
2.69243
2.69213
2.69181
2.69149
2.69115
2.69082
2.69047
2.69369
2.69349
2.69325
2.69301
2.69275
2.69249
2.6922
2.69191
2.69161
2.69129
2.69097
2.69064
2.69032
2.68998
2.6932
2.69297
2.69273
2.69248
2.69223
2.69195
2.69167
2.69138
2.69107
2.69076
2.69044
2.69011
2.68978
2.68946
2.69271
2.69246
2.69222
2.69196
2.69169
2.69142
2.69113
2.69083
2.69052
2.69021
2.68989
2.68957
2.68925
2.68894
2.69218
2.69191
2.69167
2.6914
2.69114
2.69086
2.69057
2.69027
2.68996
2.68965
2.68933
2.68901
2.68868
2.6884
2.69168
2.69139
2.69113
2.69086
2.69058
2.69029
2.69
2.6897
2.68938
2.68907
2.68875
2.68844
2.68811
2.68786
2.69113
2.69082
2.69056
2.69028
2.69
2.68971
2.68941
2.68911
2.6888
2.68849
2.68817
2.68786
2.68753
2.68729
2.69062
2.69029
2.69002
2.68973
2.68943
2.68913
2.68883
2.68852
2.6882
2.68788
2.68755
2.68725
2.68693
2.68671
2.69
2.68969
2.68941
2.68912
2.68882
2.68852
2.68822
2.68792
2.68761
2.6873
2.68698
2.68667
2.68636
2.68613
2.69168
2.69154
2.69137
2.69122
2.69105
2.69088
2.6907
2.69051
2.6903
2.69008
2.68985
2.68961
2.68937
2.68911
2.69116
2.69106
2.69089
2.69073
2.69056
2.69038
2.69019
2.68999
2.68977
2.68955
2.68931
2.68907
2.68882
2.68854
2.69067
2.69057
2.69039
2.69023
2.69005
2.68987
2.68968
2.68947
2.68926
2.68904
2.68881
2.68857
2.68833
2.68806
2.69018
2.69007
2.68988
2.68972
2.68953
2.68935
2.68915
2.68895
2.68873
2.68851
2.68828
2.68804
2.68781
2.68754
2.68969
2.68956
2.68937
2.6892
2.68901
2.68882
2.68862
2.68842
2.6882
2.68798
2.68776
2.68752
2.6873
2.68704
2.68918
2.68903
2.68884
2.68867
2.68848
2.68829
2.68809
2.68788
2.68767
2.68745
2.68722
2.68699
2.68677
2.68652
2.68867
2.6885
2.68831
2.68813
2.68794
2.68774
2.68754
2.68734
2.68712
2.68691
2.68668
2.68646
2.68624
2.68601
2.68813
2.68795
2.68776
2.68757
2.68738
2.68719
2.68699
2.68678
2.68657
2.68636
2.68614
2.68592
2.6857
2.68549
2.68759
2.68739
2.68721
2.68701
2.68682
2.68663
2.68643
2.68622
2.68601
2.6858
2.68559
2.68537
2.68516
2.68497
2.68703
2.68682
2.68664
2.68644
2.68625
2.68605
2.68585
2.68565
2.68544
2.68524
2.68503
2.68482
2.68461
2.68445
2.68648
2.68625
2.68607
2.68587
2.68568
2.68548
2.68528
2.68508
2.68487
2.68467
2.68447
2.68427
2.68407
2.68394
2.68591
2.68567
2.68549
2.68529
2.68509
2.6849
2.6847
2.6845
2.6843
2.6841
2.6839
2.68372
2.68352
2.68341
2.68536
2.68513
2.68493
2.68473
2.68452
2.68432
2.68412
2.68392
2.68372
2.68352
2.68333
2.68316
2.68298
2.68289
2.68473
2.68453
2.68432
2.68413
2.68393
2.68373
2.68354
2.68334
2.68315
2.68296
2.68277
2.68261
2.68244
2.68235
2.68564
2.68554
2.68543
2.68535
2.68526
2.68518
2.6851
2.68502
2.68494
2.68486
2.68477
2.68469
2.68459
2.68453
2.68516
2.6851
2.68499
2.6849
2.68481
2.68473
2.68464
2.68456
2.68447
2.68438
2.68428
2.68418
2.68409
2.68398
2.68472
2.68466
2.68454
2.68445
2.68436
2.68427
2.68418
2.68409
2.68399
2.6839
2.6838
2.6837
2.68362
2.6835
2.68426
2.6842
2.68408
2.68399
2.68389
2.6838
2.68371
2.68362
2.68352
2.68342
2.68333
2.68323
2.68314
2.68301
2.68382
2.68374
2.68362
2.68352
2.68343
2.68333
2.68324
2.68314
2.68304
2.68295
2.68285
2.68275
2.68267
2.68256
2.68335
2.68326
2.68315
2.68305
2.68295
2.68286
2.68276
2.68267
2.68257
2.68248
2.68238
2.68229
2.6822
2.6821
2.68289
2.68278
2.68267
2.68257
2.68247
2.68238
2.68228
2.68219
2.6821
2.68201
2.68192
2.68183
2.68174
2.68166
2.68241
2.68229
2.68218
2.68208
2.68199
2.68189
2.6818
2.68171
2.68163
2.68154
2.68145
2.68137
2.68129
2.68122
2.68193
2.6818
2.6817
2.6816
2.6815
2.68141
2.68132
2.68124
2.68115
2.68107
2.68099
2.68092
2.68084
2.68079
2.68144
2.6813
2.6812
2.68111
2.68102
2.68093
2.68084
2.68076
2.68068
2.68061
2.68053
2.68046
2.68039
2.68037
2.68097
2.68082
2.68072
2.68063
2.68053
2.68045
2.68037
2.68029
2.68022
2.68015
2.68009
2.68002
2.67996
2.67997
2.68048
2.68033
2.68024
2.68015
2.68006
2.67997
2.6799
2.67982
2.67976
2.6797
2.67964
2.67958
2.67953
2.67956
2.68001
2.67987
2.67978
2.67968
2.67959
2.67951
2.67943
2.67936
2.6793
2.67925
2.6792
2.67916
2.67912
2.67917
2.67951
2.67939
2.6793
2.67921
2.67913
2.67905
2.67898
2.67891
2.67886
2.67881
2.67877
2.67874
2.67871
2.67873
2.67884
2.67881
2.67878
2.67876
2.67876
2.67877
2.67879
2.67882
2.67885
2.6789
2.67895
2.679
2.67908
2.67917
2.67845
2.67846
2.67844
2.67843
2.67842
2.67843
2.67844
2.67847
2.6785
2.67854
2.67859
2.67864
2.6787
2.67873
2.67812
2.67813
2.6781
2.67809
2.67808
2.67808
2.6781
2.67812
2.67815
2.67818
2.67822
2.67826
2.67833
2.67835
2.67777
2.67778
2.67776
2.67774
2.67774
2.67774
2.67775
2.67777
2.6778
2.67783
2.67787
2.67791
2.67796
2.67798
2.67744
2.67743
2.67741
2.6774
2.67739
2.6774
2.67741
2.67743
2.67745
2.67748
2.67752
2.67756
2.67761
2.67764
2.6771
2.67708
2.67706
2.67705
2.67705
2.67706
2.67707
2.67709
2.67711
2.67714
2.67718
2.67722
2.67727
2.67731
2.67676
2.67674
2.67672
2.67671
2.67671
2.67671
2.67673
2.67675
2.67678
2.67681
2.67685
2.6769
2.67695
2.677
2.67642
2.67639
2.67638
2.67637
2.67637
2.67638
2.6764
2.67642
2.67645
2.67649
2.67654
2.67658
2.67664
2.6767
2.67608
2.67605
2.67604
2.67603
2.67604
2.67605
2.67607
2.6761
2.67614
2.67618
2.67623
2.67628
2.67634
2.67641
2.67575
2.67572
2.67571
2.6757
2.67571
2.67572
2.67575
2.67578
2.67583
2.67588
2.67593
2.67599
2.67606
2.67614
2.67543
2.67539
2.67538
2.67538
2.67539
2.67541
2.67544
2.67548
2.67553
2.67558
2.67565
2.67572
2.67579
2.67588
2.67511
2.67506
2.67507
2.67507
2.67508
2.67511
2.67514
2.67519
2.67524
2.6753
2.67537
2.67545
2.67553
2.67564
2.67481
2.67476
2.67477
2.67477
2.67479
2.67482
2.67486
2.67491
2.67496
2.67503
2.67511
2.6752
2.67528
2.67541
2.6745
2.67447
2.67448
2.67449
2.67451
2.67454
2.67458
2.67463
2.67469
2.67477
2.67485
2.67494
2.67504
2.67517
2.67165
2.67169
2.67173
2.6718
2.67187
2.67196
2.67206
2.67216
2.67228
2.67241
2.67255
2.67271
2.67287
2.67307
2.67144
2.67148
2.67153
2.67161
2.67168
2.67177
2.67187
2.67198
2.6721
2.67223
2.67237
2.67252
2.67267
2.67283
2.67125
2.6713
2.67135
2.67142
2.67149
2.67158
2.67168
2.67179
2.67191
2.67203
2.67217
2.67232
2.67247
2.67262
2.67105
2.67111
2.67116
2.67123
2.67131
2.6714
2.67149
2.6716
2.67172
2.67185
2.67198
2.67213
2.67228
2.67242
2.67087
2.67093
2.67098
2.67105
2.67112
2.67121
2.67131
2.67142
2.67154
2.67166
2.6718
2.67194
2.67209
2.67223
2.6707
2.67075
2.6708
2.67087
2.67095
2.67104
2.67113
2.67124
2.67136
2.67149
2.67162
2.67177
2.67191
2.67206
2.67053
2.67058
2.67063
2.6707
2.67077
2.67086
2.67096
2.67107
2.67119
2.67132
2.67146
2.6716
2.67175
2.6719
2.67036
2.67041
2.67047
2.67054
2.67061
2.67071
2.67081
2.67092
2.67104
2.67117
2.67131
2.67145
2.6716
2.67175
2.6702
2.67025
2.67031
2.67038
2.67046
2.67056
2.67066
2.67077
2.6709
2.67103
2.67117
2.67131
2.67146
2.67161
2.67005
2.6701
2.67017
2.67024
2.67032
2.67042
2.67052
2.67064
2.67076
2.6709
2.67104
2.67119
2.67134
2.6715
2.66991
2.66996
2.67003
2.6701
2.67019
2.67029
2.6704
2.67052
2.67065
2.67078
2.67093
2.67108
2.67123
2.67139
2.66978
2.66983
2.6699
2.66998
2.67007
2.67017
2.67028
2.6704
2.67054
2.67067
2.67082
2.67098
2.67113
2.6713
2.66965
2.66971
2.66978
2.66986
2.66996
2.67007
2.67018
2.67031
2.67045
2.67059
2.67074
2.67089
2.67105
2.67123
2.66953
2.6696
2.66967
2.66977
2.66986
2.66997
2.67009
2.67021
2.67035
2.6705
2.67065
2.67081
2.67098
2.67116
2.6643
2.66441
2.66452
2.66464
2.66476
2.66489
2.66502
2.66517
2.66532
2.66549
2.66566
2.66585
2.66603
2.66625
2.66426
2.66437
2.66447
2.66459
2.66472
2.66485
2.66499
2.66514
2.6653
2.66547
2.66565
2.66584
2.66603
2.66623
2.66422
2.66433
2.66444
2.66455
2.66468
2.66481
2.66496
2.66511
2.66527
2.66544
2.66561
2.6658
2.666
2.6662
2.66419
2.6643
2.66441
2.66452
2.66465
2.66478
2.66493
2.66508
2.66524
2.66541
2.66559
2.66578
2.66597
2.66617
2.66418
2.66428
2.66438
2.6645
2.66462
2.66476
2.6649
2.66506
2.66522
2.66539
2.66557
2.66575
2.66594
2.66614
2.66416
2.66426
2.66437
2.66448
2.66461
2.66474
2.66488
2.66504
2.6652
2.66537
2.66555
2.66574
2.66593
2.66612
2.66415
2.66425
2.66436
2.66447
2.6646
2.66473
2.66488
2.66503
2.66519
2.66536
2.66554
2.66573
2.66591
2.6661
2.66415
2.66425
2.66436
2.66447
2.6646
2.66473
2.66488
2.66503
2.66519
2.66536
2.66554
2.66572
2.66591
2.66609
2.66415
2.66426
2.66436
2.66448
2.66461
2.66474
2.66489
2.66504
2.6652
2.66537
2.66555
2.66573
2.66591
2.66609
2.66417
2.66427
2.66438
2.6645
2.66462
2.66476
2.66491
2.66506
2.66522
2.66539
2.66557
2.66574
2.66593
2.6661
2.66418
2.66429
2.6644
2.66452
2.66465
2.66479
2.66494
2.66509
2.66525
2.66542
2.66559
2.66577
2.66595
2.66612
2.66421
2.66431
2.66443
2.66455
2.66468
2.66482
2.66497
2.66513
2.66529
2.66546
2.66563
2.6658
2.66598
2.66615
2.66423
2.66434
2.66446
2.66458
2.66472
2.66486
2.66502
2.66518
2.66534
2.66551
2.66568
2.66585
2.66602
2.6662
2.66427
2.66439
2.6645
2.66464
2.66477
2.66492
2.66507
2.66522
2.66538
2.66555
2.66572
2.66589
2.66607
2.66626
2.657
2.65711
2.65725
2.65737
2.6575
2.65763
2.65777
2.65791
2.65806
2.65821
2.65836
2.65852
2.65868
2.65886
2.65707
2.65718
2.65731
2.65744
2.65758
2.65771
2.65786
2.65801
2.65816
2.65832
2.65847
2.65864
2.6588
2.65898
2.65716
2.65727
2.6574
2.65753
2.65767
2.6578
2.65795
2.6581
2.65825
2.65841
2.65857
2.65873
2.6589
2.65908
2.65725
2.65736
2.65749
2.65762
2.65775
2.65789
2.65804
2.65819
2.65835
2.65851
2.65867
2.65884
2.65901
2.65919
2.65734
2.65746
2.65759
2.65771
2.65785
2.65799
2.65814
2.65829
2.65845
2.65861
2.65877
2.65894
2.6591
2.65928
2.65744
2.65756
2.65768
2.65781
2.65795
2.65809
2.65824
2.65839
2.65855
2.65871
2.65887
2.65904
2.65921
2.65938
2.65754
2.65766
2.65779
2.65792
2.65806
2.6582
2.65834
2.6585
2.65865
2.65881
2.65898
2.65914
2.65931
2.65948
2.65765
2.65777
2.6579
2.65803
2.65817
2.65831
2.65845
2.65861
2.65876
2.65892
2.65908
2.65924
2.65941
2.65957
2.65776
2.65789
2.65801
2.65815
2.65828
2.65842
2.65857
2.65872
2.65887
2.65903
2.65919
2.65935
2.65951
2.65967
2.65788
2.65801
2.65813
2.65826
2.6584
2.65854
2.65869
2.65884
2.65899
2.65914
2.6593
2.65945
2.65962
2.65976
2.658
2.65812
2.65825
2.65838
2.65852
2.65866
2.65881
2.65896
2.65911
2.65926
2.65941
2.65956
2.65972
2.65986
2.65812
2.65825
2.65837
2.65851
2.65865
2.65879
2.65894
2.65908
2.65923
2.65938
2.65953
2.65968
2.65983
2.65996
2.65824
2.65837
2.65849
2.65863
2.65877
2.65892
2.65907
2.65921
2.65936
2.65951
2.65966
2.6598
2.65994
2.66008
2.65837
2.65851
2.65864
2.65877
2.65891
2.65905
2.6592
2.65934
2.65949
2.65963
2.65977
2.65991
2.66006
2.6602
2.64987
2.64996
2.65007
2.65017
2.65028
2.65039
2.6505
2.6506
2.65071
2.65081
2.65091
2.65101
2.65111
2.65122
2.65
2.65009
2.6502
2.65031
2.65042
2.65054
2.65065
2.65076
2.65087
2.65098
2.65108
2.65119
2.65129
2.65141
2.65015
2.65024
2.65036
2.65047
2.65058
2.65069
2.65081
2.65092
2.65103
2.65113
2.65124
2.65134
2.65144
2.65156
2.6503
2.65039
2.6505
2.65062
2.65073
2.65085
2.65096
2.65107
2.65119
2.6513
2.65141
2.65151
2.65162
2.65173
2.65044
2.65054
2.65066
2.65077
2.65089
2.651
2.65112
2.65123
2.65134
2.65145
2.65156
2.65167
2.65178
2.65189
2.65059
2.65069
2.65081
2.65092
2.65104
2.65116
2.65127
2.65139
2.6515
2.65161
2.65172
2.65183
2.65194
2.65205
2.65073
2.65085
2.65096
2.65108
2.6512
2.65131
2.65143
2.65154
2.65166
2.65177
2.65187
2.65198
2.65209
2.6522
2.65088
2.651
2.65112
2.65123
2.65135
2.65147
2.65158
2.6517
2.65181
2.65192
2.65203
2.65213
2.65224
2.65234
2.65103
2.65115
2.65127
2.65139
2.6515
2.65162
2.65174
2.65185
2.65196
2.65207
2.65217
2.65228
2.65238
2.65248
2.65119
2.65131
2.65142
2.65154
2.65166
2.65177
2.65189
2.652
2.65211
2.65221
2.65232
2.65242
2.65252
2.65261
2.65134
2.65146
2.65157
2.65169
2.65181
2.65192
2.65204
2.65215
2.65225
2.65236
2.65246
2.65256
2.65266
2.65274
2.6515
2.65162
2.65173
2.65185
2.65196
2.65208
2.65219
2.65229
2.6524
2.6525
2.6526
2.6527
2.65279
2.65287
2.65164
2.65177
2.65188
2.652
2.65211
2.65222
2.65233
2.65244
2.65254
2.65264
2.65274
2.65283
2.65292
2.653
2.65181
2.65194
2.65204
2.65216
2.65227
2.65238
2.65248
2.65259
2.65268
2.65278
2.65287
2.65296
2.65305
2.65314
2.64309
2.64314
2.64321
2.64328
2.64335
2.64342
2.64348
2.64354
2.6436
2.64365
2.64369
2.64373
2.64376
2.64381
2.64323
2.64328
2.64336
2.64343
2.6435
2.64357
2.64364
2.6437
2.64376
2.64381
2.64385
2.64389
2.64392
2.64398
2.64338
2.64343
2.64351
2.64359
2.64366
2.64373
2.6438
2.64386
2.64391
2.64396
2.64401
2.64404
2.64408
2.64413
2.64352
2.64358
2.64366
2.64374
2.64381
2.64388
2.64395
2.64401
2.64407
2.64412
2.64416
2.6442
2.64424
2.64429
2.64366
2.64373
2.64381
2.64389
2.64397
2.64404
2.6441
2.64416
2.64422
2.64427
2.64432
2.64436
2.6444
2.64444
2.6438
2.64387
2.64396
2.64404
2.64412
2.64419
2.64425
2.64432
2.64437
2.64442
2.64447
2.64451
2.64455
2.64459
2.64393
2.64402
2.6441
2.64418
2.64426
2.64433
2.6444
2.64446
2.64452
2.64457
2.64461
2.64466
2.64469
2.64473
2.64407
2.64416
2.64424
2.64432
2.6444
2.64447
2.64454
2.6446
2.64466
2.64471
2.64475
2.6448
2.64484
2.64487
2.6442
2.6443
2.64438
2.64446
2.64454
2.64461
2.64468
2.64474
2.64479
2.64484
2.64489
2.64493
2.64497
2.645
2.64434
2.64443
2.64451
2.64459
2.64467
2.64474
2.64481
2.64487
2.64492
2.64497
2.64502
2.64506
2.6451
2.64513
2.64447
2.64456
2.64464
2.64472
2.6448
2.64487
2.64493
2.64499
2.64505
2.6451
2.64514
2.64518
2.64522
2.64524
2.6446
2.6447
2.64477
2.64485
2.64493
2.64499
2.64506
2.64511
2.64516
2.64521
2.64526
2.64529
2.64533
2.64536
2.64473
2.64482
2.6449
2.64498
2.64505
2.64511
2.64517
2.64523
2.64528
2.64532
2.64537
2.6454
2.64544
2.64546
2.64487
2.64496
2.64503
2.64511
2.64517
2.64523
2.64529
2.64534
2.64539
2.64543
2.64547
2.6455
2.64554
2.64557
2.63677
2.63679
2.63682
2.63686
2.63689
2.63691
2.63694
2.63695
2.63697
2.63697
2.63697
2.63697
2.63696
2.63696
2.63688
2.6369
2.63694
2.63697
2.637
2.63703
2.63705
2.63707
2.63708
2.63708
2.63708
2.63708
2.63707
2.63707
2.63699
2.63701
2.63705
2.63709
2.63712
2.63715
2.63717
2.63718
2.63719
2.6372
2.6372
2.63719
2.63718
2.63718
2.63709
2.63712
2.63716
2.6372
2.63723
2.63726
2.63728
2.6373
2.63731
2.63731
2.63731
2.6373
2.63729
2.63728
2.63719
2.63723
2.63727
2.63731
2.63734
2.63737
2.63739
2.63741
2.63742
2.63742
2.63742
2.63741
2.63739
2.63738
2.63729
2.63733
2.63738
2.63741
2.63745
2.63748
2.6375
2.63751
2.63752
2.63752
2.63752
2.63751
2.6375
2.63749
2.63738
2.63743
2.63748
2.63752
2.63755
2.63758
2.6376
2.63761
2.63762
2.63762
2.63762
2.63761
2.6376
2.63758
2.63748
2.63753
2.63757
2.63761
2.63764
2.63767
2.63769
2.63771
2.63772
2.63772
2.63772
2.63771
2.6377
2.63768
2.63757
2.63762
2.63766
2.6377
2.63773
2.63776
2.63778
2.6378
2.63781
2.63781
2.63781
2.6378
2.63779
2.63777
2.63765
2.6377
2.63775
2.63779
2.63782
2.63785
2.63787
2.63788
2.63789
2.63789
2.63789
2.63788
2.63787
2.63786
2.63773
2.63779
2.63783
2.63787
2.6379
2.63793
2.63794
2.63796
2.63796
2.63797
2.63797
2.63796
2.63795
2.63794
2.63781
2.63787
2.6379
2.63794
2.63797
2.638
2.63801
2.63803
2.63803
2.63804
2.63803
2.63803
2.63802
2.63801
2.63789
2.63794
2.63798
2.63801
2.63804
2.63806
2.63808
2.63809
2.6381
2.6381
2.6381
2.63809
2.63809
2.63807
2.63797
2.63802
2.63805
2.63808
2.63811
2.63813
2.63814
2.63815
2.63815
2.63815
2.63815
2.63815
2.63814
2.63813
2.63088
2.63089
2.63089
2.6309
2.6309
2.6309
2.6309
2.63089
2.63087
2.63086
2.63084
2.63081
2.63095
2.63096
2.63096
2.63097
2.63097
2.63097
2.63096
2.63095
2.63094
2.63092
2.63089
2.63087
2.63101
2.63102
2.63103
2.63103
2.63104
2.63103
2.63103
2.63102
2.631
2.63098
2.63095
2.63092
2.63107
2.63108
2.63109
2.6311
2.6311
2.6311
2.63109
2.63108
2.63106
2.63104
2.63101
2.63098
2.63112
2.63113
2.63115
2.63115
2.63116
2.63115
2.63115
2.63114
2.63112
2.6311
2.63107
2.63103
2.63117
2.63119
2.6312
2.63121
2.63121
2.63121
2.6312
2.63119
2.63117
2.63115
2.63112
2.63109
2.63122
2.63124
2.63125
2.63126
2.63126
2.63126
2.63125
2.63124
2.63122
2.6312
2.63117
2.63113
2.63127
2.63128
2.6313
2.6313
2.63131
2.6313
2.6313
2.63128
2.63126
2.63124
2.63121
2.63118
2.63131
2.63132
2.63134
2.63134
2.63135
2.63134
2.63133
2.63132
2.6313
2.63128
2.63125
2.63122
2.63134
2.63136
2.63137
2.63138
2.63138
2.63138
2.63137
2.63135
2.63134
2.63131
2.63129
2.63125
2.63137
2.63139
2.6314
2.63141
2.63141
2.63141
2.6314
2.63138
2.63136
2.63134
2.63131
2.63128
2.6314
2.63142
2.63143
2.63143
2.63143
2.63143
2.63142
2.6314
2.63139
2.63136
2.63134
2.63131
2.63142
2.63144
2.63145
2.63145
2.63145
2.63144
2.63143
2.63142
2.6314
2.63138
2.63136
2.63133
2.63144
2.63146
2.63146
2.63146
2.63146
2.63145
2.63144
2.63143
2.63141
2.63139
2.63137
2.63134
2.70909
2.70828
2.7075
2.70672
2.70592
2.70508
2.70927
2.70833
2.7074
2.70637
2.70534
2.70423
2.70945
2.70834
2.70729
2.70615
2.70498
2.70376
2.70976
2.70858
2.70744
2.70626
2.70505
2.7038
2.7034
2.70278
2.70213
2.70153
2.70095
2.70038
2.70342
2.70252
2.70167
2.70081
2.69998
2.69912
2.70336
2.70231
2.70128
2.70027
2.69926
2.69821
2.70347
2.7023
2.70118
2.70006
2.69894
2.69778
2.70371
2.70246
2.70128
2.70012
2.69898
2.69782
2.70404
2.7028
2.70163
2.70049
2.69939
2.6983
2.70445
2.70328
2.7022
2.70116
2.70019
2.69926
2.70086
2.70039
2.69986
2.69941
2.69898
2.6986
2.70066
2.69996
2.69926
2.69858
2.69794
2.6973
2.70047
2.6996
2.69872
2.69788
2.69706
2.69623
2.70041
2.69939
2.69838
2.6974