/*--------------------------------*- C++ -*----------------------------------*\
| =========                 |                                                 |
| \\      /  F ield         | OpenFOAM: The Open Source CFD Toolbox           |
|  \\    /   O peration     | Version:  v2106                                 |
|   \\  /    A nd           | Website:  www.openfoam.com                      |
|    \\/     M anipulation  |                                                 |
\*---------------------------------------------------------------------------*/
FoamFile
{
    version     2.0;
    format      ascii;
    arch        "LSB;label=32;scalar=64";
    class       volScalarField;
    location    "0.000182";
    object      T;
}
// * * * * * * * * * * * * * * * * * * * * * * * * * * * * * * * * * * * * * //

dimensions      [0 0 0 1 0 0 0];

internalField   nonuniform List<scalar> 
17924
(
307.467
307.47
307.483
307.497
307.207
307.203
307.207
307.215
307.227
307.242
307.26
307.258
307.25
307.254
307.262
307.273
307.288
307.306
307.304
307.297
307.302
307.31
307.322
307.337
307.354
307.35
307.347
307.352
307.361
307.373
307.388
307.406
307.396
307.396
307.403
307.412
307.426
307.441
307.459
307.442
307.446
307.454
307.466
307.48
307.497
307.515
307.488
307.496
307.507
307.52
307.536
307.553
307.572
307.536
307.547
307.56
307.575
307.592
307.611
307.631
307.583
307.597
307.612
307.63
307.649
307.669
307.689
307.631
307.648
307.666
307.685
307.706
307.727
307.748
307.677
307.698
307.717
307.739
307.762
307.784
307.807
307.725
307.748
307.77
307.794
307.818
307.842
307.866
307.769
307.795
307.82
307.846
307.872
307.898
307.923
307.817
307.847
307.873
307.901
307.928
307.955
307.981
307.085
307.073
307.072
307.072
307.075
307.08
307.087
307.097
307.107
307.12
307.134
307.149
307.166
307.183
307.128
307.117
307.117
307.118
307.122
307.127
307.134
307.144
307.154
307.166
307.18
307.195
307.209
307.225
307.17
307.161
307.162
307.165
307.169
307.176
307.183
307.192
307.202
307.214
307.226
307.24
307.252
307.268
307.212
307.207
307.21
307.213
307.219
307.225
307.233
307.243
307.253
307.264
307.276
307.288
307.3
307.315
307.253
307.253
307.257
307.262
307.268
307.276
307.285
307.294
307.304
307.315
307.326
307.338
307.35
307.364
307.296
307.299
307.305
307.312
307.319
307.328
307.337
307.347
307.357
307.368
307.379
307.391
307.402
307.415
307.339
307.345
307.353
307.361
307.37
307.379
307.389
307.4
307.411
307.422
307.432
307.443
307.455
307.466
307.384
307.392
307.401
307.411
307.421
307.431
307.442
307.453
307.464
307.475
307.486
307.497
307.509
307.518
307.427
307.438
307.449
307.46
307.472
307.483
307.495
307.507
307.518
307.529
307.54
307.55
307.562
307.571
307.473
307.486
307.498
307.51
307.523
307.535
307.548
307.56
307.572
307.583
307.594
307.604
307.617
307.624
307.517
307.532
307.545
307.559
307.573
307.587
307.6
307.613
307.625
307.636
307.648
307.657
307.67
307.676
307.563
307.58
307.595
307.61
307.624
307.638
307.652
307.665
307.678
307.69
307.701
307.712
307.725
307.729
307.608
307.626
307.642
307.658
307.674
307.689
307.704
307.718
307.731
307.743
307.754
307.765
307.778
307.782
307.658
307.676
307.693
307.71
307.726
307.741
307.756
307.77
307.783
307.795
307.806
307.818
307.83
307.838
307.057
307.048
307.042
307.037
307.033
307.029
307.027
307.026
307.026
307.027
307.029
307.032
307.036
307.043
307.092
307.083
307.079
307.074
307.071
307.068
307.066
307.065
307.065
307.065
307.067
307.07
307.072
307.08
307.125
307.117
307.114
307.111
307.109
307.107
307.105
307.104
307.104
307.104
307.105
307.107
307.109
307.115
307.158
307.152
307.151
307.149
307.148
307.146
307.145
307.144
307.144
307.144
307.144
307.146
307.147
307.152
307.191
307.187
307.187
307.186
307.186
307.185
307.185
307.184
307.184
307.183
307.184
307.185
307.185
307.189
307.224
307.223
307.224
307.224
307.224
307.224
307.224
307.224
307.224
307.224
307.223
307.224
307.224
307.226
307.257
307.258
307.26
307.261
307.262
307.263
307.263
307.264
307.264
307.264
307.264
307.264
307.264
307.265
307.291
307.294
307.297
307.299
307.301
307.302
307.303
307.304
307.304
307.304
307.304
307.304
307.305
307.304
307.326
307.33
307.334
307.337
307.339
307.341
307.342
307.343
307.344
307.344
307.345
307.345
307.346
307.345
307.362
307.367
307.371
307.375
307.378
307.38
307.382
307.384
307.385
307.385
307.386
307.386
307.388
307.386
307.399
307.404
307.409
307.414
307.417
307.42
307.422
307.424
307.425
307.426
307.427
307.428
307.43
307.427
307.437
307.443
307.448
307.453
307.457
307.46
307.463
307.465
307.466
307.468
307.469
307.471
307.473
307.469
307.475
307.481
307.487
307.493
307.497
307.501
307.504
307.506
307.507
307.509
307.511
307.512
307.514
307.511
307.519
307.522
307.529
307.534
307.538
307.542
307.545
307.547
307.549
307.551
307.553
307.555
307.558
307.557
307.068
307.059
307.052
307.044
307.036
307.028
307.021
307.013
307.006
306.999
306.993
306.988
306.983
306.98
307.093
307.083
307.077
307.069
307.062
307.054
307.047
307.039
307.032
307.025
307.018
307.012
307.006
307.005
307.113
307.105
307.1
307.093
307.086
307.079
307.072
307.065
307.058
307.05
307.043
307.036
307.029
307.027
307.135
307.129
307.124
307.118
307.111
307.104
307.097
307.09
307.083
307.075
307.068
307.061
307.053
307.05
307.157
307.152
307.147
307.142
307.136
307.129
307.122
307.115
307.108
307.1
307.093
307.086
307.078
307.073
307.179
307.175
307.171
307.166
307.16
307.154
307.147
307.14
307.133
307.125
307.117
307.11
307.102
307.096
307.202
307.199
307.195
307.19
307.185
307.179
307.172
307.165
307.158
307.15
307.142
307.135
307.127
307.119
307.225
307.223
307.219
307.215
307.209
307.204
307.197
307.19
307.183
307.175
307.167
307.159
307.151
307.143
307.249
307.247
307.244
307.239
307.234
307.228
307.222
307.215
307.208
307.2
307.192
307.184
307.176
307.167
307.274
307.272
307.269
307.265
307.26
307.254
307.248
307.241
307.233
307.225
307.217
307.208
307.201
307.192
307.3
307.299
307.295
307.291
307.286
307.28
307.274
307.266
307.259
307.251
307.243
307.234
307.228
307.218
307.327
307.325
307.321
307.318
307.312
307.307
307.3
307.293
307.286
307.278
307.27
307.261
307.255
307.246
307.355
307.353
307.35
307.346
307.34
307.334
307.327
307.32
307.313
307.305
307.297
307.288
307.282
307.273
307.387
307.382
307.377
307.373
307.368
307.362
307.355
307.348
307.341
307.333
307.325
307.318
307.312
307.304
307.084
307.074
307.065
307.056
307.046
307.035
307.025
307.014
307.003
306.991
306.981
306.969
306.959
306.949
307.096
307.086
307.079
307.069
307.06
307.049
307.038
307.027
307.016
307.004
306.993
306.981
306.971
306.96
307.106
307.097
307.09
307.081
307.072
307.061
307.051
307.04
307.028
307.017
307.005
306.994
306.982
306.972
307.117
307.11
307.102
307.093
307.084
307.074
307.063
307.052
307.041
307.029
307.017
307.005
306.994
306.983
307.129
307.122
307.114
307.106
307.096
307.086
307.075
307.064
307.052
307.04
307.029
307.016
307.004
306.993
307.141
307.134
307.127
307.118
307.109
307.098
307.087
307.076
307.064
307.052
307.039
307.027
307.015
307.003
307.154
307.147
307.139
307.131
307.121
307.11
307.099
307.087
307.075
307.063
307.051
307.038
307.025
307.013
307.167
307.161
307.152
307.143
307.133
307.123
307.111
307.099
307.087
307.074
307.061
307.048
307.036
307.023
307.181
307.174
307.165
307.156
307.146
307.135
307.123
307.111
307.098
307.086
307.072
307.059
307.046
307.033
307.195
307.188
307.179
307.169
307.159
307.147
307.135
307.123
307.11
307.097
307.083
307.07
307.057
307.043
307.209
307.201
307.192
307.182
307.171
307.16
307.147
307.135
307.122
307.108
307.095
307.081
307.068
307.053
307.224
307.216
307.206
307.196
307.185
307.173
307.16
307.147
307.133
307.12
307.106
307.092
307.078
307.063
307.24
307.232
307.221
307.21
307.198
307.186
307.173
307.16
307.146
307.132
307.117
307.102
307.089
307.073
307.258
307.246
307.235
307.224
307.212
307.199
307.186
307.173
307.159
307.145
307.131
307.116
307.102
307.087
307.088
307.079
307.069
307.059
307.047
307.035
307.022
307.008
306.994
306.98
306.966
306.95
306.937
306.921
307.09
307.08
307.072
307.061
307.05
307.037
307.024
307.01
306.996
306.981
306.966
306.951
306.938
306.923
307.09
307.082
307.073
307.062
307.051
307.039
307.026
307.012
306.998
306.983
306.969
306.954
306.94
306.925
307.092
307.084
307.075
307.064
307.053
307.041
307.027
307.014
307
306.985
306.97
306.955
306.941
306.926
307.094
307.086
307.077
307.066
307.054
307.042
307.029
307.015
307.001
306.986
306.971
306.956
306.941
306.926
307.096
307.089
307.079
307.068
307.056
307.043
307.029
307.015
307.001
306.986
306.971
306.956
306.941
306.925
307.099
307.091
307.08
307.069
307.057
307.044
307.03
307.015
307.001
306.985
306.97
306.955
306.939
306.924
307.102
307.093
307.082
307.07
307.058
307.044
307.03
307.015
307
306.984
306.969
306.953
306.937
306.922
307.105
307.095
307.084
307.072
307.058
307.044
307.03
307.015
306.999
306.983
306.967
306.951
306.935
306.919
307.108
307.097
307.085
307.073
307.059
307.045
307.029
307.014
306.998
306.982
306.966
306.949
306.933
306.917
307.112
307.1
307.087
307.074
307.059
307.045
307.029
307.013
306.997
306.98
306.964
306.947
306.93
306.913
307.115
307.103
307.089
307.075
307.06
307.045
307.029
307.012
306.995
306.979
306.961
306.944
306.926
306.91
307.118
307.105
307.091
307.076
307.06
307.044
307.028
307.011
306.994
306.977
306.959
306.942
306.923
306.905
307.122
307.106
307.092
307.077
307.061
307.044
307.027
307.011
306.994
306.977
306.959
306.941
306.923
306.904
307.067
307.057
307.047
307.036
307.024
307.01
306.995
306.98
306.964
306.947
306.93
306.912
306.896
306.877
307.059
307.05
307.04
307.029
307.017
307.003
306.988
306.973
306.957
306.94
306.923
306.905
306.889
306.871
307.05
307.042
307.032
307.021
307.008
306.995
306.98
306.965
306.949
306.932
306.916
306.898
306.882
306.864
307.042
307.034
307.024
307.013
307
306.986
306.972
306.957
306.941
306.924
306.907
306.89
306.874
306.856
307.035
307.027
307.016
307.004
306.991
306.978
306.963
306.948
306.932
306.915
306.899
306.881
306.865
306.847
307.027
307.018
307.007
306.995
306.982
306.968
306.954
306.938
306.922
306.905
306.889
306.872
306.855
306.837
307.02
307.01
306.999
306.987
306.973
306.959
306.944
306.928
306.912
306.895
306.878
306.861
306.844
306.827
307.012
307.002
306.99
306.977
306.963
306.949
306.933
306.917
306.901
306.884
306.867
306.85
306.832
306.815
307.005
306.994
306.981
306.968
306.953
306.938
306.923
306.906
306.889
306.872
306.855
306.837
306.819
306.802
306.998
306.985
306.972
306.958
306.943
306.927
306.911
306.895
306.877
306.86
306.842
306.825
306.806
306.789
306.99
306.976
306.963
306.948
306.932
306.916
306.899
306.882
306.865
306.847
306.828
306.811
306.792
306.775
306.982
306.967
306.952
306.937
306.921
306.904
306.887
306.87
306.852
306.834
306.815
306.797
306.777
306.761
306.974
306.958
306.943
306.926
306.91
306.893
306.875
306.857
306.838
306.819
306.8
306.782
306.761
306.744
306.964
306.947
306.931
306.915
306.897
306.88
306.861
306.843
306.825
306.806
306.787
306.769
306.749
306.73
306.994
306.985
306.975
306.963
306.951
306.938
306.923
306.908
306.891
306.874
306.856
306.838
306.82
306.799
306.977
306.969
306.959
306.948
306.936
306.922
306.908
306.892
306.875
306.858
306.84
306.822
306.804
306.785
306.961
306.953
306.942
306.932
306.919
306.906
306.891
306.876
306.86
306.843
306.825
306.807
306.79
306.771
306.944
306.937
306.926
306.915
306.902
306.889
306.874
306.859
306.843
306.826
306.809
306.791
306.774
306.755
306.929
306.921
306.909
306.898
306.885
306.872
306.857
306.842
306.826
306.809
306.792
306.775
306.758
306.739
306.913
306.904
306.892
306.881
306.868
306.854
306.839
306.824
306.808
306.791
306.774
306.757
306.74
306.722
306.897
306.887
306.875
306.863
306.85
306.836
306.821
306.806
306.79
306.773
306.756
306.739
306.722
306.704
306.88
306.869
306.857
306.845
306.831
306.817
306.802
306.786
306.77
306.754
306.737
306.719
306.702
306.685
306.864
306.852
306.84
306.826
306.812
306.798
306.783
306.767
306.75
306.733
306.716
306.699
306.681
306.665
306.847
306.834
306.821
306.807
306.793
306.778
306.762
306.746
306.73
306.713
306.695
306.678
306.66
306.644
306.83
306.816
306.802
306.788
306.773
306.758
306.742
306.725
306.708
306.691
306.673
306.656
306.637
306.622
306.812
306.796
306.782
306.767
306.752
306.736
306.72
306.703
306.686
306.669
306.651
306.633
306.614
306.6
306.795
306.778
306.763
306.747
306.732
306.715
306.698
306.681
306.663
306.645
306.627
306.609
306.59
306.575
306.774
306.757
306.741
306.725
306.709
306.692
306.675
306.658
306.641
306.623
306.605
306.587
306.568
306.552
306.847
306.839
306.83
306.82
306.809
306.798
306.786
306.773
306.759
306.744
306.728
306.712
306.695
306.677
306.825
306.819
306.809
306.8
306.789
306.777
306.765
306.751
306.737
306.722
306.706
306.69
306.673
306.656
306.804
306.798
306.787
306.778
306.767
306.755
306.743
306.73
306.716
306.701
306.686
306.669
306.654
306.637
306.782
306.776
306.766
306.756
306.745
306.733
306.72
306.707
306.693
306.678
306.663
306.647
306.632
306.615
306.762
306.754
306.744
306.734
306.722
306.71
306.698
306.685
306.671
306.656
306.641
306.626
306.61
306.594
306.74
306.732
306.721
306.711
306.699
306.687
306.675
306.661
306.647
306.633
306.618
306.603
306.588
306.572
306.719
306.709
306.699
306.688
306.676
306.664
306.651
306.637
306.624
306.609
306.595
306.58
306.565
306.549
306.696
306.686
306.675
306.664
306.652
306.639
306.627
306.613
306.599
306.585
306.57
306.555
306.54
306.525
306.674
306.662
306.651
306.64
306.628
306.615
306.602
306.588
306.574
306.56
306.545
306.531
306.516
306.502
306.65
306.638
306.626
306.614
306.602
306.589
306.576
306.562
306.548
306.534
306.519
306.505
306.49
306.477
306.627
306.613
306.602
306.589
306.577
306.564
306.55
306.536
306.522
306.508
306.493
306.479
306.464
306.452
306.602
306.587
306.576
306.563
306.55
306.537
306.523
306.51
306.495
306.481
306.466
306.452
306.437
306.426
306.578
306.563
306.551
306.538
306.524
306.511
306.497
306.482
306.468
306.453
306.438
306.424
306.41
306.4
306.55
306.536
306.523
306.51
306.496
306.483
306.469
306.455
306.441
306.427
306.412
306.398
306.384
306.373
306.627
306.621
306.613
306.606
306.598
306.59
306.582
306.573
306.564
306.554
306.543
306.533
306.521
306.509
306.603
306.599
306.591
306.584
306.576
306.568
306.559
306.55
306.54
306.529
306.519
306.508
306.496
306.483
306.581
306.576
306.568
306.561
306.552
306.544
306.535
306.526
306.516
306.506
306.496
306.485
306.474
306.461
306.558
306.553
306.545
306.537
306.529
306.52
306.511
306.502
306.492
306.482
306.472
306.461
306.45
306.438
306.536
306.53
306.521
306.513
306.505
306.496
306.487
306.478
306.468
306.458
306.448
306.437
306.426
306.415
306.513
306.506
306.497
306.489
306.481
306.472
306.463
306.453
306.444
306.433
306.423
306.413
306.402
306.391
306.489
306.481
306.473
306.464
306.456
306.447
306.438
306.428
306.419
306.409
306.399
306.388
306.378
306.368
306.465
306.456
306.448
306.439
306.43
306.422
306.412
306.403
306.393
306.384
306.373
306.363
306.353
306.344
306.44
306.431
306.422
306.414
306.405
306.396
306.387
306.377
306.368
306.358
306.348
306.339
306.329
306.32
306.414
306.405
306.396
306.387
306.379
306.37
306.361
306.351
306.342
306.332
306.323
306.313
306.304
306.296
306.389
306.379
306.371
306.361
306.353
306.343
306.334
306.325
306.316
306.306
306.297
306.288
306.279
306.273
306.363
306.352
306.344
306.335
306.326
306.317
306.308
306.299
306.289
306.28
306.271
306.263
306.254
306.249
306.338
306.327
306.318
306.309
306.3
306.291
306.281
306.272
306.263
306.254
306.245
306.237
306.229
306.225
306.309
306.3
306.29
306.282
306.273
306.264
306.255
306.246
306.237
306.228
306.22
306.212
306.204
306.2
306.351
306.346
306.341
306.337
306.333
306.33
306.326
306.322
306.319
306.315
306.311
306.307
306.303
306.3
306.329
306.326
306.321
306.317
306.313
306.309
306.305
306.301
306.297
306.293
306.289
306.284
306.28
306.275
306.309
306.306
306.301
306.296
306.292
306.288
306.284
306.28
306.275
306.271
306.267
306.262
306.258
306.253
306.288
306.285
306.279
306.275
306.271
306.267
306.262
306.258
306.254
306.249
306.245
306.24
306.236
306.231
306.267
306.264
306.258
306.254
306.249
306.245
306.241
306.236
306.232
306.228
306.223
306.219
306.215
306.21
306.246
306.242
306.237
306.232
306.228
306.223
306.219
306.215
306.21
306.206
306.202
306.197
306.193
306.189
306.225
306.22
306.215
306.21
306.206
306.201
306.197
306.193
306.189
306.185
306.18
306.176
306.172
306.168
306.203
306.197
306.193
306.188
306.184
306.179
306.175
306.171
306.167
306.163
306.159
306.155
306.152
306.148
306.181
306.175
306.17
306.166
306.161
306.157
306.153
306.149
306.145
306.142
306.138
306.135
306.131
306.129
306.159
306.152
306.148
306.143
306.139
306.135
306.131
306.127
306.124
306.12
306.117
306.114
306.111
306.11
306.137
306.13
306.126
306.121
306.117
306.113
306.109
306.106
306.103
306.1
306.096
306.094
306.091
306.091
306.114
306.108
306.104
306.099
306.095
306.091
306.088
306.084
306.081
306.079
306.076
306.074
306.071
306.072
306.093
306.087
306.082
306.078
306.074
306.07
306.067
306.063
306.061
306.058
306.056
306.054
306.052
306.054
306.07
306.065
306.06
306.056
306.053
306.049
306.046
306.043
306.04
306.038
306.036
306.035
306.034
306.035
306.04
306.038
306.036
306.036
306.036
306.036
306.037
306.038
306.04
306.042
306.044
306.047
306.051
306.054
306.022
306.022
306.021
306.02
306.02
306.021
306.021
306.022
306.024
306.026
306.028
306.03
306.033
306.035
306.006
306.007
306.006
306.005
306.005
306.005
306.005
306.006
306.008
306.009
306.011
306.013
306.016
306.017
305.99
305.991
305.99
305.989
305.989
305.989
305.99
305.991
305.992
305.993
305.995
305.997
305.999
306
305.975
305.975
305.974
305.973
305.973
305.973
305.974
305.975
305.976
305.977
305.979
305.981
305.983
305.984
305.96
305.959
305.958
305.958
305.957
305.958
305.958
305.959
305.96
305.962
305.963
305.965
305.968
305.969
305.944
305.943
305.942
305.942
305.942
305.942
305.943
305.944
305.945
305.947
305.948
305.95
305.953
305.955
305.929
305.927
305.926
305.926
305.926
305.927
305.927
305.929
305.93
305.932
305.934
305.936
305.938
305.941
305.913
305.912
305.911
305.911
305.911
305.911
305.912
305.914
305.915
305.917
305.92
305.922
305.925
305.928
305.898
305.896
305.896
305.896
305.896
305.897
305.898
305.899
305.901
305.904
305.906
305.909
305.912
305.916
305.883
305.881
305.881
305.881
305.881
305.882
305.884
305.885
305.888
305.89
305.893
305.896
305.9
305.904
305.868
305.866
305.866
305.867
305.867
305.868
305.87
305.872
305.874
305.877
305.88
305.884
305.887
305.893
305.855
305.852
305.853
305.853
305.854
305.855
305.857
305.859
305.862
305.865
305.868
305.872
305.876
305.882
305.841
305.839
305.839
305.84
305.841
305.842
305.844
305.847
305.849
305.853
305.856
305.861
305.865
305.871
305.709
305.711
305.713
305.717
305.72
305.724
305.728
305.733
305.739
305.745
305.751
305.758
305.766
305.775
305.7
305.702
305.704
305.708
305.711
305.715
305.72
305.725
305.73
305.736
305.743
305.75
305.757
305.764
305.691
305.694
305.696
305.699
305.702
305.706
305.711
305.716
305.721
305.727
305.734
305.74
305.747
305.754
305.682
305.685
305.687
305.691
305.694
305.698
305.702
305.707
305.713
305.719
305.725
305.732
305.738
305.745
305.674
305.677
305.679
305.682
305.685
305.689
305.694
305.699
305.704
305.71
305.717
305.723
305.73
305.737
305.666
305.668
305.671
305.674
305.677
305.681
305.686
305.691
305.696
305.702
305.708
305.715
305.722
305.729
305.658
305.66
305.663
305.666
305.67
305.674
305.678
305.683
305.689
305.695
305.701
305.707
305.714
305.721
305.65
305.653
305.655
305.659
305.662
305.666
305.671
305.676
305.682
305.688
305.694
305.7
305.707
305.714
305.643
305.645
305.648
305.651
305.655
305.659
305.664
305.669
305.675
305.681
305.688
305.694
305.701
305.708
305.636
305.639
305.642
305.645
305.649
305.653
305.658
305.663
305.669
305.675
305.682
305.689
305.696
305.703
305.63
305.632
305.635
305.639
305.643
305.647
305.652
305.658
305.664
305.67
305.677
305.684
305.691
305.698
305.624
305.626
305.629
305.633
305.637
305.642
305.647
305.653
305.659
305.665
305.672
305.679
305.686
305.694
305.618
305.62
305.624
305.628
305.632
305.637
305.642
305.648
305.654
305.661
305.668
305.675
305.682
305.69
305.613
305.615
305.619
305.623
305.628
305.633
305.638
305.644
305.65
305.657
305.664
305.671
305.679
305.687
305.372
305.377
305.382
305.388
305.393
305.399
305.405
305.412
305.419
305.427
305.435
305.443
305.452
305.462
305.37
305.375
305.38
305.386
305.391
305.397
305.404
305.411
305.418
305.426
305.434
305.443
305.452
305.461
305.369
305.374
305.378
305.384
305.389
305.396
305.402
305.409
305.417
305.424
305.432
305.441
305.45
305.459
305.367
305.372
305.377
305.382
305.388
305.394
305.401
305.408
305.415
305.423
305.431
305.44
305.449
305.458
305.366
305.371
305.376
305.381
305.387
305.393
305.4
305.407
305.414
305.422
305.43
305.439
305.448
305.456
305.366
305.37
305.375
305.38
305.386
305.392
305.399
305.406
305.414
305.422
305.43
305.438
305.447
305.456
305.365
305.37
305.375
305.38
305.386
305.392
305.399
305.406
305.413
305.421
305.429
305.438
305.446
305.455
305.365
305.37
305.375
305.38
305.386
305.392
305.399
305.406
305.413
305.421
305.429
305.438
305.446
305.455
305.365
305.37
305.375
305.38
305.386
305.392
305.399
305.406
305.414
305.421
305.43
305.438
305.446
305.454
305.366
305.371
305.376
305.381
305.387
305.393
305.4
305.407
305.415
305.422
305.43
305.438
305.447
305.455
305.367
305.372
305.377
305.382
305.388
305.395
305.401
305.409
305.416
305.424
305.432
305.44
305.448
305.456
305.368
305.373
305.378
305.384
305.39
305.396
305.403
305.41
305.418
305.425
305.433
305.441
305.449
305.457
305.369
305.374
305.379
305.385
305.391
305.398
305.405
305.412
305.42
305.428
305.436
305.443
305.451
305.46
305.371
305.376
305.381
305.388
305.394
305.4
305.407
305.415
305.422
305.43
305.437
305.445
305.453
305.462
305.036
305.042
305.048
305.053
305.059
305.065
305.072
305.078
305.085
305.092
305.099
305.106
305.114
305.122
305.039
305.045
305.051
305.057
305.063
305.069
305.076
305.083
305.09
305.097
305.104
305.112
305.119
305.127
305.044
305.049
305.055
305.061
305.067
305.073
305.08
305.087
305.094
305.101
305.108
305.116
305.124
305.132
305.048
305.053
305.059
305.065
305.071
305.077
305.084
305.091
305.098
305.106
305.113
305.121
305.129
305.137
305.052
305.057
305.063
305.069
305.075
305.082
305.089
305.096
305.103
305.11
305.118
305.125
305.133
305.141
305.057
305.062
305.068
305.074
305.08
305.086
305.093
305.1
305.108
305.115
305.123
305.13
305.138
305.146
305.061
305.067
305.073
305.079
305.085
305.091
305.098
305.105
305.112
305.12
305.127
305.135
305.143
305.15
305.066
305.072
305.078
305.084
305.09
305.096
305.103
305.11
305.117
305.125
305.132
305.14
305.147
305.155
305.071
305.077
305.083
305.089
305.095
305.102
305.108
305.115
305.122
305.13
305.137
305.144
305.152
305.159
305.077
305.083
305.088
305.094
305.101
305.107
305.114
305.121
305.128
305.135
305.142
305.149
305.157
305.163
305.082
305.088
305.094
305.1
305.106
305.113
305.12
305.126
305.133
305.14
305.147
305.154
305.161
305.168
305.088
305.094
305.1
305.106
305.112
305.119
305.125
305.132
305.139
305.146
305.153
305.159
305.167
305.173
305.093
305.099
305.105
305.111
305.118
305.125
305.131
305.138
305.145
305.152
305.159
305.165
305.172
305.178
305.099
305.106
305.112
305.118
305.124
305.131
305.137
305.144
305.151
305.157
305.164
305.17
305.177
305.184
304.708
304.712
304.717
304.722
304.727
304.732
304.737
304.742
304.746
304.751
304.756
304.76
304.765
304.77
304.714
304.718
304.723
304.728
304.733
304.738
304.744
304.749
304.754
304.759
304.764
304.768
304.773
304.778
304.721
304.725
304.73
304.735
304.74
304.746
304.751
304.756
304.761
304.766
304.771
304.776
304.78
304.786
304.727
304.732
304.737
304.742
304.747
304.753
304.758
304.763
304.768
304.773
304.778
304.783
304.788
304.794
304.734
304.739
304.744
304.749
304.755
304.76
304.765
304.77
304.776
304.781
304.786
304.791
304.796
304.801
304.741
304.746
304.751
304.756
304.762
304.767
304.772
304.778
304.783
304.788
304.793
304.798
304.803
304.808
304.747
304.753
304.758
304.763
304.769
304.774
304.78
304.785
304.79
304.795
304.8
304.805
304.81
304.815
304.754
304.76
304.765
304.771
304.776
304.781
304.787
304.792
304.797
304.802
304.807
304.812
304.817
304.822
304.761
304.767
304.772
304.778
304.783
304.788
304.794
304.799
304.804
304.809
304.814
304.819
304.824
304.828
304.768
304.774
304.779
304.785
304.79
304.795
304.801
304.806
304.811
304.816
304.821
304.825
304.83
304.834
304.775
304.781
304.786
304.792
304.797
304.802
304.808
304.813
304.818
304.822
304.827
304.832
304.836
304.84
304.783
304.788
304.793
304.799
304.804
304.809
304.815
304.82
304.824
304.829
304.834
304.838
304.842
304.846
304.789
304.795
304.8
304.806
304.811
304.816
304.821
304.826
304.831
304.836
304.84
304.844
304.848
304.852
304.797
304.803
304.808
304.813
304.818
304.823
304.828
304.833
304.837
304.842
304.846
304.85
304.854
304.859
304.395
304.397
304.4
304.404
304.407
304.41
304.413
304.416
304.418
304.42
304.422
304.424
304.426
304.428
304.401
304.404
304.407
304.41
304.414
304.417
304.42
304.423
304.425
304.428
304.43
304.432
304.433
304.436
304.408
304.411
304.414
304.418
304.421
304.424
304.427
304.43
304.433
304.435
304.437
304.439
304.44
304.443
304.415
304.417
304.421
304.425
304.428
304.431
304.434
304.437
304.44
304.442
304.444
304.446
304.448
304.45
304.421
304.424
304.428
304.432
304.435
304.439
304.442
304.444
304.447
304.449
304.451
304.453
304.455
304.457
304.427
304.431
304.435
304.439
304.442
304.445
304.449
304.451
304.454
304.456
304.458
304.46
304.462
304.464
304.434
304.438
304.441
304.445
304.449
304.452
304.455
304.458
304.461
304.463
304.465
304.467
304.469
304.471
304.44
304.444
304.448
304.452
304.455
304.459
304.462
304.465
304.467
304.469
304.472
304.474
304.475
304.477
304.446
304.45
304.454
304.458
304.462
304.465
304.468
304.471
304.473
304.476
304.478
304.48
304.482
304.483
304.452
304.457
304.46
304.464
304.468
304.471
304.474
304.477
304.479
304.482
304.484
304.486
304.487
304.489
304.458
304.463
304.466
304.47
304.474
304.477
304.48
304.483
304.485
304.487
304.489
304.491
304.493
304.494
304.464
304.469
304.472
304.476
304.48
304.483
304.486
304.488
304.491
304.493
304.495
304.497
304.498
304.499
304.47
304.475
304.478
304.482
304.485
304.488
304.491
304.494
304.496
304.498
304.5
304.502
304.503
304.504
304.477
304.481
304.484
304.488
304.491
304.494
304.496
304.499
304.501
304.503
304.505
304.506
304.508
304.509
304.102
304.103
304.105
304.107
304.108
304.109
304.11
304.111
304.112
304.112
304.112
304.112
304.111
304.111
304.108
304.109
304.11
304.112
304.113
304.115
304.116
304.116
304.117
304.117
304.117
304.117
304.116
304.116
304.113
304.114
304.116
304.117
304.119
304.12
304.121
304.122
304.122
304.122
304.122
304.122
304.121
304.121
304.117
304.119
304.121
304.122
304.124
304.125
304.126
304.127
304.127
304.128
304.127
304.127
304.126
304.126
304.122
304.124
304.126
304.128
304.129
304.13
304.131
304.132
304.132
304.133
304.132
304.132
304.131
304.131
304.127
304.129
304.131
304.132
304.134
304.135
304.136
304.137
304.137
304.137
304.137
304.137
304.136
304.136
304.131
304.133
304.135
304.137
304.139
304.14
304.141
304.142
304.142
304.142
304.142
304.142
304.141
304.14
304.135
304.138
304.14
304.141
304.143
304.144
304.145
304.146
304.146
304.147
304.146
304.146
304.146
304.145
304.139
304.142
304.144
304.146
304.147
304.149
304.149
304.15
304.151
304.151
304.151
304.15
304.15
304.149
304.143
304.146
304.148
304.15
304.151
304.152
304.153
304.154
304.154
304.154
304.154
304.154
304.154
304.153
304.147
304.15
304.152
304.153
304.155
304.156
304.157
304.158
304.158
304.158
304.158
304.158
304.157
304.157
304.151
304.153
304.155
304.157
304.158
304.159
304.16
304.161
304.161
304.161
304.161
304.161
304.161
304.16
304.154
304.157
304.159
304.16
304.161
304.162
304.163
304.164
304.164
304.164
304.164
304.164
304.164
304.163
304.158
304.16
304.162
304.163
304.164
304.165
304.166
304.166
304.167
304.167
304.167
304.166
304.166
304.166
303.83
303.83
303.831
303.831
303.831
303.831
303.831
303.83
303.83
303.829
303.828
303.827
303.833
303.833
303.834
303.834
303.834
303.834
303.834
303.833
303.833
303.832
303.831
303.829
303.836
303.836
303.837
303.837
303.837
303.837
303.837
303.836
303.836
303.835
303.833
303.832
303.839
303.839
303.84
303.84
303.84
303.84
303.84
303.839
303.838
303.837
303.836
303.835
303.841
303.842
303.842
303.843
303.843
303.843
303.842
303.842
303.841
303.84
303.839
303.837
303.844
303.844
303.845
303.845
303.845
303.845
303.845
303.844
303.843
303.842
303.841
303.84
303.846
303.847
303.847
303.847
303.848
303.847
303.847
303.847
303.846
303.845
303.843
303.842
303.848
303.849
303.849
303.85
303.85
303.85
303.849
303.849
303.848
303.847
303.845
303.844
303.85
303.851
303.851
303.851
303.852
303.851
303.851
303.85
303.85
303.848
303.847
303.846
303.851
303.852
303.853
303.853
303.853
303.853
303.853
303.852
303.851
303.85
303.849
303.847
303.853
303.854
303.854
303.854
303.854
303.854
303.854
303.853
303.852
303.851
303.85
303.849
303.854
303.855
303.855
303.856
303.856
303.855
303.855
303.854
303.853
303.852
303.851
303.85
303.855
303.856
303.856
303.856
303.856
303.856
303.856
303.855
303.854
303.853
303.852
303.851
303.856
303.857
303.857
303.857
303.857
303.857
303.856
303.855
303.855
303.854
303.852
303.851
307.421
307.384
307.348
307.313
307.277
307.238
307.429
307.387
307.344
307.297
307.25
307.2
307.438
307.387
307.339
307.287
307.234
307.178
307.452
307.398
307.346
307.292
307.237
307.18
307.162
307.133
307.104
307.076
307.05
307.024
307.163
307.122
307.083
307.044
307.006
306.966
307.16
307.112
307.065
307.019
306.973
306.925
307.165
307.112
307.06
307.009
306.958
306.906
307.176
307.119
307.065
307.012
306.96
306.907
307.191
307.134
307.081
307.029
306.979
306.929
307.21
307.156
307.107
307.06
307.015
306.973
307.046
307.025
307
306.98
306.96
306.943
307.037
307.005
306.973
306.942
306.913
306.884
307.028
306.988
306.948
306.91
306.872
306.835
307.025
306.979