/*--------------------------------*- C++ -*----------------------------------*\
| =========                 |                                                 |
| \\      /  F ield         | OpenFOAM: The Open Source CFD Toolbox           |
|  \\    /   O peration     | Version:  v2106                                 |
|   \\  /    A nd           | Website:  www.openfoam.com                      |
|    \\/     M anipulation  |                                                 |
\*---------------------------------------------------------------------------*/
FoamFile
{
    version     2.0;
    format      ascii;
    arch        "LSB;label=32;scalar=64";
    class       volScalarField;
    location    "0.000122";
    object      T;
}
// * * * * * * * * * * * * * * * * * * * * * * * * * * * * * * * * * * * * * //

dimensions      [0 0 0 1 0 0 0];

internalField   nonuniform List<scalar> 
144746
(
295.327
295.132
294.954
294.832
294.741
294.687
294.652
294.627
294.62
294.626
294.676
294.768
294.911
295.114
294.992
294.667
294.457
294.335
294.258
294.224
294.209
294.203
294.213
294.236
294.299
294.399
294.571
294.886
294.736
294.378
294.139
294.012
293.943
293.916
293.909
293.912
293.932
293.966
294.032
294.138
294.337
294.684
294.59
294.218
293.97
293.85
293.788
293.761
293.754
293.76
293.785
293.824
293.888
293.991
294.192
294.526
294.511
294.129
293.882
293.771
293.712
293.685
293.673
293.674
293.699
293.738
293.801
293.9
294.095
294.412
294.482
294.092
293.841
293.73
293.67
293.643
293.627
293.628
293.65
293.692
293.758
293.857
294.046
294.352
294.479
294.077
293.815
293.697
293.634
293.609
293.592
293.598
293.618
293.669
293.733
293.83
294.019
294.321
294.49
294.077
293.804
293.681
293.614
293.59
293.576
293.586
293.609
293.663
293.727
293.827
294.015
294.318
294.526
294.095
293.808
293.678
293.608
293.585
293.576
293.591
293.62
293.676
293.737
293.834
294.029
294.336
294.587
294.14
293.835
293.694
293.619
293.592
293.587
293.606
293.642
293.702
293.765
293.862
294.063
294.379
294.679
294.209
293.886
293.733
293.652
293.621
293.62
293.643
293.687
293.754
293.821
293.915
294.127
294.449
294.803
294.319
293.986
293.819
293.727
293.689
293.681
293.703
293.746
293.819
293.906
294.024
294.232
294.562
294.991
294.53
294.205
294.025
293.921
293.878
293.867
293.888
293.933
294.012
294.11
294.235
294.439
294.753
295.222
294.859
294.539
294.34
294.217
294.164
294.146
294.161
294.207
294.291
294.409
294.554
294.752
294.977
295.961
295.974
295.986
296.074
296.156
296.226
296.281
296.311
296.328
296.34
296.379
296.42
296.455
296.474
295.992
295.907
295.894
295.96
296.036
296.097
296.15
296.187
296.218
296.245
296.273
296.303
296.364
296.47
295.983
295.87
295.854
295.906
295.974
296.033
296.089
296.133
296.17
296.187
296.202
296.237
296.325
296.489
296.023
295.93
295.911
295.94
295.986
296.033
296.085
296.13
296.173
296.202
296.218
296.25
296.344
296.505
296.113
296.021
295.98
295.985
296.012
296.059
296.124
296.183
296.222
296.23
296.245
296.284
296.382
296.536
296.237
296.119
296.055
296.043
296.065
296.119
296.192
296.257
296.288
296.287
296.292
296.315
296.417
296.578
296.346
296.21
296.131
296.102
296.125
296.18
296.257
296.325
296.355
296.345
296.347
296.368
296.47
296.63
296.411
296.279
296.21
296.167
296.207
296.271
296.35
296.412
296.433
296.417
296.414
296.428
296.528
296.684
296.438
296.313
296.244
296.203
296.249
296.317
296.396
296.456
296.479
296.465
296.466
296.483
296.59
296.745
296.444
296.312
296.24
296.212
296.257
296.326
296.402
296.461
296.489
296.482
296.49
296.519
296.634
296.8
296.458
296.337
296.256
296.229
296.266
296.327
296.399
296.459
296.495
296.498
296.51
296.55
296.666
296.847
296.444
296.338
296.283
296.275
296.32
296.377
296.438
296.486
296.52
296.536
296.554
296.603
296.712
296.903
296.476
296.408
296.368
296.355
296.402
296.467
296.535
296.597
296.647
296.67
296.693
296.736
296.828
296.979
296.566
296.586
296.576
296.554
296.587
296.632
296.684
296.729
296.772
296.8
296.836
296.88
296.957
297.048
298.095
298.33
298.589
298.807
298.95
299.061
299.139
299.196
299.235
299.256
299.243
299.197
299.152
299.017
298.413
298.513
298.751
298.985
299.155
299.282
299.37
299.428
299.47
299.487
299.492
299.459
299.38
299.341
298.654
298.812
299.011
299.214
299.381
299.516
299.618
299.69
299.741
299.754
299.72
299.662
299.623
299.62
298.889
299.097
299.267
299.451
299.608
299.745
299.856
299.938
299.995
300.009
299.974
299.92
299.871
299.865
299.096
299.315
299.476
299.665
299.83
299.976
300.1
300.195
300.246
300.251
300.21
300.14
300.078
300.017
299.318
299.471
299.671
299.86
300.034
300.187
300.319
300.419
300.465
300.458
300.413
300.342
300.269
300.2
299.46
299.628
299.832
300.017
300.201
300.363
300.502
300.603
300.645
300.628
300.577
300.499
300.42
300.338
299.568
299.752
299.971
300.155
300.341
300.509
300.648
300.748
300.786
300.762
300.71
300.626
300.543
300.445
299.643
299.826
300.044
300.238
300.435
300.613
300.754
300.85
300.884
300.857
300.803
300.718
300.634
300.52
299.694
299.861
300.067
300.264
300.464
300.643
300.783
300.877
300.909
300.881
300.829
300.745
300.671
300.554
299.696
299.847
300.049
300.25
300.449
300.627
300.759
300.849
300.877
300.848
300.797
300.718
300.649
300.56
299.709
299.834
300.04
300.247
300.433
300.601
300.723
300.808
300.834
300.804
300.755
300.678
300.597
300.547
299.625
299.779
300.005
300.21
300.397
300.567
300.681
300.766
300.793
300.769
300.729
300.657
300.556
300.503
299.546
299.905
300.087
300.265
300.407
300.514
300.622
300.707
300.737
300.722
300.698
300.633
300.533
300.349
295.488
295.757
296.094
296.178
296.358
296.386
295.357
295.703
296.093
296.239
296.431
296.458
295.191
295.638
296.141
296.367
296.642
296.658
295.05
295.573
296.185
296.506
296.821
296.841
294.945
295.53
296.231
296.633
297.015
297.019
294.891
295.507
296.259
296.712
297.108
297.144
294.869
295.502
296.266
296.733
297.12
297.098
294.872
295.496
296.236
296.69
297.062
297.042
294.887
295.486
296.185
296.601
296.947
296.962
294.92
295.479
296.109
296.464
296.774
296.821
294.974
295.485
296.042
296.349
296.651
296.733
295.056
295.512
296.003
296.254
296.532
296.631
295.2
295.569
295.983
296.225
296.534
296.628
295.362
295.645
296.014
296.149
296.426
296.553
296.656
296.628
296.891
296.942
297.25
297.045
296.675
296.697
297.018
297.15
297.447
297.191
296.712
296.795
297.181
297.359
297.738
297.438
296.745
296.879
297.322
297.537
297.96
297.574
296.786
296.96
297.433
297.67
298.111
297.677
296.843
297.043
297.509
297.719
298.151
297.73
296.911
297.134
297.559
297.696
298.098
297.609
296.979
297.219
297.592
297.643
298.018
297.556
297.041
297.294
297.621
297.599
297.953
297.537
297.101
297.335
297.637
297.574
297.881
297.531
297.157
297.388
297.655
297.586
297.876
297.589
297.215
297.415
297.676
297.605
297.831
297.601
297.254
297.371
297.607
297.571
297.868
297.677
297.273
297.288
297.512
297.503
297.759
297.593
299.13
298.936
299.086
298.405
297.989
295.668
299.434
299.309
299.414
298.65
298.082
295.192
299.683
299.598
299.699
298.843
298.166
294.672
299.899
299.829
299.879
298.914
298.141
294.139
300.056
299.968
299.99
298.95
298.059
293.726
300.219
300.112
300.061
298.92
297.921
293.51
300.347
300.215
300.109
298.912
297.84
293.596
300.452
300.291
300.166
298.987
297.905
294.1
300.53
300.343
300.257
299.174
298.175
294.869
300.591
300.406
300.385
299.46
298.627
295.798
300.614
300.442
300.526
299.784
299.078
296.452
300.582
300.444
300.605
299.974
299.397
296.972
300.622
300.425
300.618
300
299.461
297.025
300.297
300.102
300.345
299.71
299.07
296.558
295.315
295.632
295.969
296.207
296.532
296.623
295.235
295.61
296.025
296.247
296.547
296.67
295.08
295.542
296.048
296.312
296.641
296.745
294.949
295.471
296.063
296.385
296.738
296.817
294.835
295.399
296.052
296.417
296.775
296.828
294.75
295.329
296.008
296.407
296.77
296.79
294.701
295.282
295.967
296.366
296.709
296.765
294.685
295.256
295.937
296.314
296.633
296.618
294.704
295.251
295.906
296.243
296.515
296.496
294.752
295.266
295.876
296.179
296.415
296.412
294.862
295.328
295.883
296.154
296.406
296.367
295.058
295.473
295.954
296.159
296.355
296.401
295.361
295.724
296.123
296.261
296.441
296.446
295.624
295.963
296.318
296.408
296.598
296.589
297.19
297.183
297.439
297.561
297.884
297.685
297.208
297.283
297.576
297.656
297.981
297.742
297.144
297.276
297.628
297.731
298.107
297.802
297.107
297.264
297.628
297.74
298.15
297.8
297.074
297.246
297.607
297.691
298.117
297.725
297.047
297.23
297.572
297.62
298.011
297.604
297.011
297.214
297.525
297.507
297.872
297.384
296.972
297.185
297.477
297.403
297.735
297.264
296.926
297.143
297.424
297.321
297.604
297.179
296.879
297.072
297.362
297.226
297.486
297.143
296.85
297.009
297.285
297.196
297.498
297.171
296.857
296.915
297.168
297.07
297.371
297.126
296.872
296.857
297.155
297.182
297.501
297.245
296.817
296.763
297.194
297.322
297.664
297.367
300.474
300.225
300.449
299.678
299.022
296.18
300.741
300.626
300.835
300.011
299.308
295.908
300.775
300.707
300.876
300.037
299.305
295.372
300.809
300.756
300.869
299.966
299.216
294.844
300.799
300.735
300.793
299.817
298.972
294.341
300.78
300.693
300.692
299.632
298.682
294.05
300.735
300.619
300.568
299.475
298.483
294.099
300.66
300.52
300.47
299.412
298.442
294.521
300.543
300.398
300.401
299.463
298.576
295.072
300.406
300.269
300.34
299.552
298.826
295.696
300.257
300.143
300.283
299.62
299.019
296.015
300.092
299.988
300.169
299.526
298.974
295.933
300.078
299.893
300.133
299.348
298.769
295.733
299.498
299.236
299.442
298.668
298.15
294.881
296.276
296.351
296.256
296.18
295.922
295.68
296.104
296.19
296.11
296.064
295.763
295.455
296.189
296.281
296.132
296.021
295.633
295.251
296.108
296.209
296.098
296.011
295.581
295.142
296.201
296.322
296.205
296.101
295.618
295.11
296.29
296.44
296.334
296.201
295.687
295.118
296.445
296.609
296.513
296.363
295.794
295.148
296.664
296.81
296.709
296.535
295.902
295.188
296.889
297.026
296.891
296.68
295.986
295.24
297.002
297.16
297.005
296.766
296.056
295.308
297.093
297.23
297.047
296.797
296.103
295.391
297.082
297.194
296.979
296.74
296.13
295.49
297.008
297.075
296.839
296.648
296.13
295.605
296.836
296.886
296.663
296.491
296.13
295.716
296.505
296.782
296.539
296.508
296.082
296.151
296.231
296.538
296.324
296.437
296.161
296.213
296.344
296.629
296.418
296.494
296.257
296.213
296.209
296.593
296.447
296.638
296.398
296.26
296.197
296.653
296.531
296.707
296.457
296.344
296.112
296.635
296.546
296.695
296.479
296.439
296.104
296.684
296.597
296.725
296.509
296.516
296.251
296.888
296.723
296.8
296.556
296.572
296.55
297.193
296.93
296.905
296.592
296.6
296.901
297.49
297.14
296.993
296.608
296.618
297.147
297.73
297.345
297.099
296.65
296.634
297.371
297.888
297.466
297.144
296.646
296.649
297.578
298.014
297.563
297.26
296.742
296.718
297.539
297.915
297.498
297.124
296.594
296.612
294.045
296.624
296.974
297.686
297.57
297.885
294.693
297.079
297.473
298.272
298.132
298.454
295.043
297.209
297.66
298.28
298.211
298.487
294.858
297.016
297.545
298.325
298.365
298.719
294.241
296.551
297.18
298.167
298.412
298.884
293.205
295.905
296.703
297.977
298.443
299.005
292.166
295.472
296.404
297.893
298.485
299.105
291.476
295.451
296.367
297.929
298.592
299.223
291.172
295.698
296.517
298.071
298.732
299.336
291.15
296.096
296.818
298.308
298.908
299.442
291.461
296.577
297.231
298.632
299.115
299.545
292.176
297.114
297.74
299.003
299.342
299.649
293.291
297.723
298.291
299.369
299.49
299.763
294.16
297.825
298.406
299.254
299.203
299.546
296.268
296.244
296.11
296.002
295.707
295.444
296.34
296.364
296.221
296.084
295.721
295.362
296.342
296.401
296.258
296.118
295.699
295.277
296.474
296.553
296.398
296.23
295.733
295.234
296.56
296.665
296.533
296.359
295.819
295.24
296.692
296.804
296.695
296.526
295.941
295.278
296.83
296.943
296.833
296.668
296.043
295.33
296.967
297.089
296.968
296.786
296.127
295.383
297.09
297.194
297.057
296.858
296.187
295.437
297.131
297.24
297.069
296.875
296.219
295.492
297.021
297.174
297.015
296.836
296.222
295.566
296.879
297.011
296.86
296.719
296.205
295.651
296.7
296.809
296.664
296.547
296.146
295.748
296.433
296.537
296.431
296.353
296.073
295.757
296.797
296.947
296.741
296.709
296.542
296.565
296.788
296.965
296.82
296.912
296.723
296.698
296.627
296.895
296.773
296.916
296.742
296.656
296.549
296.915
296.792
296.916
296.728
296.61
296.443
296.876
296.778
296.883
296.673
296.561
296.411
296.9
296.793
296.875
296.652
296.547
296.382
296.95
296.811
296.87
296.619
296.525
296.476
297.102
296.903
296.899
296.573
296.492
296.67
297.298
297.024
296.934
296.509
296.438
296.889
297.456
297.095
296.919
296.419
296.373
296.966
297.533
297.112
296.892
296.342
296.308
296.984
297.485
297.049
296.79
296.257
296.194
297.005
297.422
297.004
296.797
296.234
296.233
296.748
297.109
296.771
296.512
295.995
296.044
295.873
297.732
298.215
298.731
298.576
298.767
296.2
298
298.51
299.082
298.981
299.216
295.964
297.721
298.247
298.88
298.846
299.118
295.164
297.021
297.621
298.455
298.635
299.03
294.084
296.23
296.991
298.115
298.476
298.969
292.886
295.555
296.492
297.879
298.365
298.932
291.8
295.181
296.185
297.72
298.284
298.896
291.15
295.158
296.068
297.621
298.222
298.853
290.806
295.28
296.06
297.562
298.163
298.794
290.803
295.535
296.146
297.545
298.114
298.721
291.143
295.865
296.299
297.558
298.087
298.655
291.839
296.203
296.454
297.594
298.038
298.536
292.754
296.565
296.73
297.721
297.992
298.412
293.426
296.481
296.705
297.524
297.593
298.017
301.061
300.989
301.084
301.053
301.028
300.954
300.9
300.844
300.829
300.832
300.871
301.044
301.367
301.656
301.219
301.083
301.111
301.113
301.109
301.087
301.076
301.06
301.067
301.085
301.109
301.236
301.457
301.717
301.057
301.063
301.084
301.121
301.158
301.183
301.202
301.21
301.227
301.26
301.305
301.413
301.574
301.838
301.074
301.113
301.141
301.194
301.248
301.296
301.334
301.362
301.394
301.445
301.505
301.605
301.742
301.976
301.067
301.173
301.232
301.302
301.37
301.433
301.485
301.527
301.569
301.624
301.682
301.771
301.895
302.116
301.118
301.279
301.359
301.439
301.517
301.588
301.648
301.698
301.745
301.797
301.847
301.923
302.036
302.23
301.251
301.414
301.499
301.577
301.658
301.735
301.8
301.854
301.901
301.948
301.988
302.053
302.153
302.317
301.448
301.584
301.652
301.716
301.791
301.868
301.935
301.989
302.034
302.078
302.112
302.169
302.258
302.389
301.655
301.754
301.8
301.848
301.913
301.986
302.051
302.104
302.147
302.188
302.221
302.272
302.353
302.461
301.888
301.941
301.951
301.981
302.035
302.103
302.165
302.215
302.257
302.297
302.33
302.378
302.454
302.542
302.106
302.119
302.1
302.123
302.175
302.234
302.287
302.331
302.371
302.412
302.453
302.504
302.582
302.658
302.361
302.338
302.287
302.302
302.332
302.377
302.424
302.464
302.503
302.548
302.596
302.651
302.729
302.805
302.513
302.546
302.49
302.499
302.513
302.548
302.592
302.636
302.68
302.73
302.785
302.846
302.923
303.041
302.816
302.935
302.794
302.744
302.72
302.737
302.783
302.846
302.915
302.986
303.06
303.131
303.189
303.267
302.487
302.377
302.408
302.34
302.281
302.169
302.094
302.051
302.068
302.125
302.2
302.403
302.714
302.977
302.673
302.568
302.537
302.495
302.45
302.403
302.384
302.377
302.407
302.473
302.543
302.711
302.925
303.177
302.492
302.56
302.538
302.561
302.578
302.586
302.596
302.607
302.641
302.706
302.779
302.928
303.11
303.353
302.508
302.601
302.624
302.672
302.712
302.747
302.778
302.807
302.852
302.921
303.002
303.14
303.299
303.506
302.468
302.647
302.72
302.794
302.862
302.919
302.967
303.01
303.062
303.128
303.206
303.321
303.455
303.641
302.487
302.714
302.838
302.938
303.026
303.098
303.157
303.209
303.264
303.324
303.396
303.487
303.598
303.755
302.6
302.835
302.977
303.087
303.184
303.266
303.333
303.391
303.444
303.499
303.559
303.632
303.723
303.841
302.785
303.004
303.14
303.245
303.34
303.424
303.494
303.553
303.604
303.655
303.707
303.767
303.839
303.917
302.999
303.191
303.313
303.406
303.494
303.573
303.639
303.695
303.745
303.794
303.844
303.896
303.954
304.001
303.247
303.405
303.5
303.576
303.65
303.719
303.778
303.828
303.876
303.926
303.978
304.029
304.082
304.11
303.487
303.626
303.694
303.754
303.814
303.87
303.919
303.964
304.01
304.06
304.119
304.176
304.231
304.242
303.781
303.875
303.901
303.946
303.989
304.036
304.08
304.123
304.168
304.216
304.278
304.343
304.4
304.388
303.937
304.11
304.12
304.162
304.194
304.222
304.257
304.302
304.352
304.407
304.468
304.532
304.597
304.603
304.256
304.458
304.38
304.383
304.384
304.389
304.425
304.487
304.556
304.63
304.703
304.767
304.815
304.781
303.766
303.621
303.575
303.479
303.421
303.327
303.27
303.233
303.247
303.325
303.409
303.565
303.868
304.163
303.886
303.806
303.726
303.638
303.591
303.542
303.519
303.512
303.542
303.629
303.719
303.917
304.152
304.349
303.741
303.805
303.75
303.739
303.723
303.706
303.702
303.712
303.749
303.83
303.915
304.077
304.256
304.485
303.733
303.853
303.838
303.844
303.847
303.851
303.865
303.889
303.937
304.018
304.111
304.263
304.434
304.628
303.726
303.868
303.914
303.951
303.981
304.006
304.034
304.069
304.124
304.2
304.29
304.419
304.568
304.748
303.772
303.937
304.022
304.081
304.129
304.167
304.204
304.248
304.305
304.377
304.461
304.575
304.709
304.867
303.885
304.055
304.154
304.224
304.281
304.329
304.373
304.422
304.478
304.545
304.622
304.722
304.841
304.974
304.064
304.225
304.321
304.389
304.445
304.495
304.541
304.591
304.646
304.71
304.782
304.873
304.975
305.079
304.263
304.414
304.505
304.567
304.619
304.665
304.709
304.756
304.811
304.873
304.944
305.026
305.116
305.196
304.507
304.647
304.72
304.768
304.807
304.842
304.879
304.921
304.974
305.038
305.11
305.186
305.269
305.329
304.728
304.884
304.944
304.979
305.005
305.028
305.056
305.094
305.147
305.213
305.288
305.363
305.451
305.488
305.023
305.168
305.194
305.209
305.22
305.229
305.251
305.285
305.338
305.406
305.485
305.563
305.659
305.656
305.244
305.446
305.457
305.454
305.447
305.442
305.46
305.498
305.552
305.624
305.707
305.785
305.893
305.873
305.67
305.78
305.675
305.671
305.661
305.65
305.674
305.722
305.788
305.871
305.959
306.033
306.124
306.091
304.609
304.438
304.353
304.224
304.159
304.077
304.035
304.01
304.029
304.116
304.203
304.379
304.667
304.924
304.68
304.575
304.494
304.378
304.324
304.27
304.254
304.255
304.295
304.393
304.499
304.686
304.889
305.07
304.584
304.58
304.544
304.496
304.469
304.448
304.448
304.465
304.512
304.598
304.689
304.84
305.008
305.227
304.587
304.625
304.618
304.614
304.611
304.613
304.63
304.661
304.716
304.8
304.895
305.035
305.181
305.343
304.552
304.659
304.701
304.732
304.76
304.784
304.816
304.858
304.916
304.993
305.079
305.193
305.314
305.469
304.611
304.736
304.812
304.869
304.916
304.957
305.001
305.05
305.109
305.179
305.258
305.356
305.463
305.593
304.723
304.855
304.946
305.018
305.078
305.131
305.182
305.236
305.295
305.36
305.431
305.515
305.606
305.715
304.896
305.023
305.116
305.19
305.252
305.309
305.363
305.418
305.476
305.538
305.605
305.679
305.754
305.836
305.088
305.216
305.306
305.377
305.436
305.489
305.541
305.595
305.652
305.714
305.779
305.847
305.911
305.967
305.339
305.457
305.53
305.586
305.632
305.675
305.719
305.768
305.824
305.887
305.954
306.02
306.082
306.111
305.57
305.707
305.767
305.807
305.836
305.863
305.898
305.94
305.994
306.059
306.132
306.199
306.271
306.271
305.887
305.998
306.021
306.039
306.048
306.057
306.081
306.116
306.17
306.239
306.319
306.385
306.479
306.457
306.177
306.303
306.29
306.286
306.27
306.257
306.269
306.301
306.354
306.427
306.516
306.586
306.708
306.675
306.62
306.657
306.546
306.509
306.479
306.456
306.465
306.502
306.559
306.638
306.734
306.814
306.93
306.932
305.114
304.924
304.853
304.715
304.647
304.568
304.529
304.503
304.519
304.597
304.684
304.859
305.093
305.309
305.162
305.032
304.968
304.86
304.805
304.75
304.73
304.726
304.759
304.843
304.95
305.108
305.29
305.468
305.081
305.049
305.035
304.976
304.957
304.928
304.925
304.936
304.972
305.046
305.133
305.267
305.433
305.632
305.098
305.101
305.112
305.108
305.108
305.103
305.115
305.138
305.182
305.254
305.339
305.462
305.594
305.748
305.085
305.16
305.204
305.234
305.261
305.279
305.305
305.337
305.383
305.447
305.522
305.622
305.73
305.875
305.151
305.249
305.321
305.373
305.418
305.453
305.489
305.527
305.575
305.633
305.701
305.787
305.881
306.001
305.263
305.37
305.455
305.521
305.577
305.624
305.668
305.711
305.758
305.812
305.874
305.947
306.026
306.126
305.427
305.533
305.618
305.687
305.745
305.796
305.843
305.888
305.936
305.988
306.046
306.109
306.175
306.25
305.613
305.719
305.798
305.865
305.92
305.97
306.016
306.061
306.109
306.16
306.217
306.275
306.334
306.384
305.859
305.951
306.008
306.061
306.106
306.147
306.187
306.23
306.277
306.329
306.39
306.447
306.509
306.528
306.094
306.194
306.232
306.271
306.3
306.329
306.361
306.398
306.444
306.498
306.565
306.626
306.699
306.689
306.417
306.476
306.478
306.492
306.502
306.514
306.537
306.568
306.612
306.67
306.747
306.807
306.902
306.879
306.698
306.765
306.727
306.729
306.714
306.706
306.716
306.744
306.787
306.85
306.936
307.003
307.12
307.11
307.124
307.128
307.015
306.961
306.924
306.906
306.912
306.939
306.986
307.052
307.143
307.223
307.345
307.389
305.331
305.173
305.123
304.995
304.925
304.855
304.822
304.801
304.817
304.892
304.984
305.136
305.332
305.524
305.374
305.268
305.222
305.136
305.085
305.04
305.023
305.021
305.052
305.132
305.231
305.37
305.532
305.69
305.331
305.301
305.3
305.26
305.245
305.226
305.225
305.236
305.271
305.339
305.418
305.538
305.684
305.856
305.366
305.367
305.395
305.399
305.407
305.412
305.427
305.449
305.49
305.554
305.63
305.736
305.847
305.993
305.385
305.448
305.499
305.538
305.571
305.596
305.625
305.656
305.697
305.752
305.815
305.897
305.987
306.108
305.458
305.55
305.625
305.684
305.734
305.775
305.813
305.849
305.892
305.941
305.998
306.068
306.144
306.244
305.57
305.674
305.761
305.834
305.895
305.947
305.991
306.031
306.073
306.118
306.17
306.228
306.291
306.372
305.727
305.831
305.918
305.994
306.059
306.114
306.161
306.203
306.245
306.289
306.337
306.386
306.44
306.5
305.906
306.008
306.087
306.162
306.226
306.281
306.327
306.369
306.411
306.455
306.501
306.546
306.597
306.636
306.14
306.227
306.284
306.346
306.4
306.448
306.491
306.531
306.572
306.615
306.664
306.708
306.765
306.777
306.373
306.457
306.494
306.542
306.58
306.617
306.653
306.689
306.728
306.771
306.826
306.875
306.946
306.934
306.672
306.725
306.731
306.75
306.768
306.79
306.817
306.847
306.883
306.927
306.993
307.043
307.137
307.116
306.942
306.995
306.961
306.972
306.965
306.967
306.98
307.003
307.037
307.086
307.162
307.223
307.336
307.344
307.337
307.333
307.24
307.196
307.159
307.148
307.152
307.172
307.209
307.261
307.344
307.417
307.537
307.606
305.479
305.359
305.323
305.22
305.15
305.082
305.045
305.02
305.029
305.088
305.175
305.303
305.472
305.644
305.529
305.451
305.418
305.354
305.308
305.263
305.242
305.234
305.255
305.318
305.406
305.522
305.666
305.812
305.515
305.497
305.502
305.478
305.465
305.444
305.439
305.443
305.467
305.521
305.592
305.692
305.82
305.972
305.56
305.568
305.603
305.612
305.621
305.622
305.631
305.647
305.678
305.73
305.796
305.884
305.982
306.113
305.6
305.656
305.71
305.746
305.775
305.795
305.816
305.839
305.872
305.917
305.972
306.041
306.119
306.225
305.676
305.759
305.831
305.884
305.928
305.961
305.99
306.019
306.054
306.095
306.144
306.204
306.269
306.356
305.785
305.879
305.961
306.025
306.078
306.119
306.153
306.186
306.221
306.259
306.303
306.351
306.406
306.477
305.934
306.029
306.107
306.175
306.229
306.273
306.309
306.343
306.378
306.414
306.454
306.496
306.545
306.598
306.105
306.195
306.264
306.33
306.383
306.426
306.462
306.495
306.528
306.561
306.601
306.639
306.689
306.727
306.321
306.396
306.444
306.499
306.542
306.58
306.612
306.643
306.673
306.704
306.746
306.786
306.844
306.864
306.544
306.612
306.64
306.68
306.709
306.738
306.764
306.789
306.816
306.847
306.894
306.939
307.011
307.012
306.813
306.858
306.856
306.872
306.885
306.902
306.918
306.936
306.959
306.991
307.048
307.099
307.189
307.182
307.066
307.116
307.082
307.085
307.075
307.072
307.072
307.083
307.107
307.144
307.21
307.269
307.374
307.4
307.425
307.418
307.33
307.298
307.258
307.24
307.231
307.241
307.27
307.312
307.384
307.455
307.565
307.662
305.579
305.485
305.451
305.364
305.297
305.235
305.198
305.176
305.182
305.227
305.304
305.409
305.553
305.709
305.633
305.577
305.551
305.497
305.453
305.411
305.389
305.378
305.393
305.443
305.517
305.614
305.739
305.868
305.639
305.63
305.637
305.618
305.601
305.578
305.569
305.568
305.586
305.629
305.69
305.776
305.885
306.023
305.687
305.704
305.739
305.743
305.745
305.74
305.742
305.751
305.776
305.818
305.875
305.951
306.039
306.155
305.739
305.79
305.84
305.868
305.885
305.892
305.904
305.92
305.947
305.985
306.032
306.092
306.164
306.275
305.816
305.89
305.952
305.993
306.021
306.039
306.058
306.079
306.108
306.144
306.188
306.242
306.305
306.385
305.919
306.003
306.072
306.123
306.158
306.183
306.205
306.229
306.258
306.29
306.33
306.376
306.433
306.503
306.058
306.143
306.208
306.261
306.298
306.325
306.348
306.372
306.399
306.429
306.467
306.507
306.561
306.618
306.22
306.301
306.356
306.408
306.442
306.469
306.49
306.512
306.536
306.564
306.6
306.639
306.695
306.741
306.421
306.488
306.525
306.566
306.592
306.615
306.632
306.65
306.672
306.697
306.736
306.776
306.839
306.872
306.633
306.691
306.711
306.74
306.754
306.767
306.777
306.789
306.808
306.833
306.878
306.923
306.999
307.016
306.886
306.923
306.915
306.925
306.922
306.924
306.924
306.931
306.949
306.975
307.028
307.08
307.172
307.183
307.134
307.174
307.134
307.127
307.102
307.085
307.073
307.077
307.097
307.128
307.189
307.25
307.352
307.391
307.46
307.448
307.36
307.324
307.273
307.242
307.225
307.23
307.256
307.294
307.362
307.434
307.541
307.64
305.731
305.657
305.624
305.545
305.48
305.419
305.379
305.354
305.352
305.377
305.44
305.52
305.636
305.774
305.781
305.744
305.723
305.674
305.63
305.585
305.557
305.54
305.542
305.57
305.63
305.707
305.811
305.924
305.791
305.796
305.802
305.784
305.761
305.732
305.716
305.704
305.71
305.736
305.784
305.853
305.946
306.07
305.833
305.863
305.892
305.892
305.886
305.871
305.865
305.862
305.872
305.9
305.946
306.009
306.088
306.191
305.884
305.935
305.98
305.998
306.003
305.999
306
306.003
306.017
306.043
306.082
306.135
306.203
306.311
305.956
306.023
306.074
306.104
306.118
306.122
306.127
306.137
306.155
306.181
306.219
306.268
306.33
306.409
306.053
306.126
306.18
306.214
306.233
306.243
306.252
306.265
306.283
306.308
306.344
306.388
306.447
306.518
306.183
306.255
306.301
306.335
306.353
306.365
306.375
306.388
306.406
306.429
306.465
306.507
306.564
306.625
306.337
306.403
306.436
306.466
306.48
306.492
306.5
306.511
306.528
306.551
306.587
306.628
306.689
306.741
306.528
306.576
306.59
306.61
306.615
306.623
306.626
306.635
306.651
306.674
306.713
306.756
306.824
306.867
306.729
306.762
306.759
306.771
306.765
306.762
306.758
306.764
306.779
306.803
306.848
306.895
306.974
307.006
306.958
306.976
306.949
306.944
306.921
306.907
306.897
306.899
306.915
306.94
306.992
307.046
307.138
307.166
307.186
307.209
307.156
307.132
307.09
307.061
307.042
307.043
307.061
307.091
307.15
307.212
307.311
307.36
307.475
307.45
307.359
307.31
307.251
307.213
307.191
307.194
307.219
307.255
307.319
307.391
307.494
307.591
301.359
301.783
302.192
302.704
303.329
302.782
301.046
301.148
301.159
301.255
301.574
300.646
301.048
300.79
300.428
300.092
300.018
298.505
300.88
300.42
299.771
299.012
298.412
296.322
300.756
300.119
299.264
298.161
297.207
294.945
300.634
299.918
298.944
297.623
296.533
294.487
300.579
299.842
298.873
297.469
296.324
294.579
300.568
299.85
298.954
297.585
296.481
295.167
300.626
299.962
299.248
298.111
297.294
296.51
300.728
300.174
299.742
299.055
298.746
298.44
300.88
300.552
300.492
300.288
300.404
300.362
301.107
301.016
301.294
301.544
301.995
301.999
301.53
301.653
302.142
302.627
303.312
303.372
301.503
301.947
302.577
303.327
304.198
304.339
302.716
303.026
303.237
303.304
303.345
303.187
302.204
302.235
302.187
301.95
301.575
300.991
302.118
301.677
301.206
300.467
299.55
298.239
301.896
301.143
300.177
298.977
297.588
295.573
301.745
300.697
299.305
297.789
296.144
293.819
301.576
300.401
298.848
297.175
295.548
293.371
301.478
300.274
298.758
297.063
295.53
293.674
301.459
300.295
298.844
297.233
295.946
294.606
301.558
300.531
299.274
297.906
296.962
296.134
301.753
300.905
299.999
299.067
298.595
298.14
302.009
301.382
300.894
300.441
300.454
300.29
302.347
301.978
301.856
301.745
302.094
302.176
302.766
302.636
302.754
302.881
303.45
303.673
302.753
302.918
303.244
303.665
304.351
304.722
304.029
304.234
304.258
304.197
304.17
304.249
303.413
303.433
303.337
303.014
302.572
302.148
303.278
302.943
302.409
301.534
300.451
299.277
303.063
302.336
301.329
299.958
298.298
296.407
302.937
301.973
300.509
298.705
296.638
294.395
302.795
301.697
300.06
298.092
295.992
293.845
302.731
301.605
300.021
298.065
296.077
294.156
302.715
301.623
300.156
298.381
296.727
295.233
302.794
301.838
300.603
299.142
297.938
296.897
302.987
302.24
301.336
300.315
299.606
299.039
303.23
302.694
302.158
301.61
301.361
301.217
303.573
303.169
302.995
302.803
302.917
303.138
303.928
303.75
303.839
303.873
304.222
304.612
303.984
304.061
304.25
304.563
305.08
305.6
304.861
305.095
305.208
305.192
305.154
305.085
304.321
304.4
304.43
304.353
304.066
303.549
304.168
304.06
303.767
303.206
302.341
301.137
303.921
303.539
302.898
301.876
300.394
298.485
303.813
303.236
302.205
300.679
298.679
296.331
303.698
302.997
301.793
300.022
297.834
295.444
303.65
302.897
301.689
299.917
297.761
295.459
303.634
302.879
301.747
300.141
298.271
296.33
303.693
302.999
302.068
300.766
299.347
297.85
303.858
303.297
302.637
301.708
300.823
299.844
304.053
303.65
303.259
302.745
302.344
301.831
304.304
304.045
303.871
303.681
303.597
303.44
304.625
304.509
304.568
304.59
304.719
304.744
304.742