/*--------------------------------*- C++ -*----------------------------------*\
| =========                 |                                                 |
| \\      /  F ield         | OpenFOAM: The Open Source CFD Toolbox           |
|  \\    /   O peration     | Version:  v2106                                 |
|   \\  /    A nd           | Website:  www.openfoam.com                      |
|    \\/     M anipulation  |                                                 |
\*---------------------------------------------------------------------------*/
FoamFile
{
    version     2.0;
    format      ascii;
    arch        "LSB;label=32;scalar=64";
    class       surfaceScalarField;
    location    "0.000127";
    object      phi;
}
// * * * * * * * * * * * * * * * * * * * * * * * * * * * * * * * * * * * * * //

dimensions      [1 0 -1 0 0 0 0];

internalField   nonuniform List<scalar> 
53237
(
-2.73533e-11
-5.28859e-11
-1.0645e-08
6.16968e-11
-1.82168e-11
-5.41281e-11
-1.06433e-08
6.2435e-11
-8.77195e-12
-5.54887e-11
-1.06424e-08
6.36226e-11
6.68057e-13
-5.6288e-11
-1.06421e-08
6.45059e-11
9.92723e-12
-5.61549e-11
-1.06421e-08
6.44464e-11
1.90766e-11
-5.50667e-11
-1.06423e-08
6.32113e-11
2.78137e-11
-5.3558e-11
-1.06432e-08
6.18588e-11
3.60018e-11
-5.22243e-11
-1.06448e-08
6.10281e-11
4.3241e-11
-4.8914e-11
-1.06472e-08
5.80417e-11
4.908e-11
-5.27165e-11
-1.06498e-08
6.34052e-11
-4.86795e-11
-1.06507e-08
5.70339e-11
5.68355e-11
-4.56353e-11
-4.44023e-11
-1.06483e-08
-3.6147e-11
-4.1891e-11
-1.06453e-08
-2.66914e-11
-4.44242e-11
-1.06425e-08
-1.74544e-11
-4.53704e-11
-1.06403e-08
-8.26449e-12
-4.65142e-11
-1.06386e-08
8.19e-13
-4.71034e-11
-1.06379e-08
9.71619e-12
-4.6948e-11
-1.06378e-08
1.85074e-11
-4.6113e-11
-1.06385e-08
2.71953e-11
-4.48327e-11
-1.06402e-08
3.60504e-11
-4.38095e-11
-1.06424e-08
4.50132e-11
-4.13223e-11
-1.06451e-08
5.29854e-11
-4.39791e-11
-1.06481e-08
-4.2349e-11
-1.06497e-08
6.30196e-11
-5.02523e-11
-3.47391e-11
-1.06471e-08
5.86487e-11
-4.31424e-11
-3.47091e-11
-1.06452e-08
-3.48521e-11
-3.33635e-11
-1.06413e-08
-2.61515e-11
-3.53868e-11
-1.06385e-08
-1.72833e-11
-3.62852e-11
-1.06361e-08
-8.21317e-12
-3.73476e-11
-1.06344e-08
9.4116e-13
-3.78593e-11
-1.06337e-08
9.90737e-12
-3.77313e-11
-1.06336e-08
1.8516e-11
-3.70362e-11
-1.06344e-08
2.6741e-11
-3.5872e-11
-1.0636e-08
3.47306e-11
-3.49227e-11
-1.06384e-08
4.23874e-11
-3.29658e-11
-1.06412e-08
4.90577e-11
-3.44428e-11
-1.06451e-08
-3.47176e-11
-1.06471e-08
5.73215e-11
-5.34893e-11
-2.62726e-11
-1.06446e-08
6.15129e-11
-4.56337e-11
-2.54332e-11
-1.06423e-08
-3.68785e-11
-2.48429e-11
-1.06384e-08
-2.76254e-11
-2.62959e-11
-1.06356e-08
-1.81965e-11
-2.70165e-11
-1.0633e-08
-8.61176e-12
-2.78533e-11
-1.06312e-08
1.05435e-12
-2.82413e-11
-1.06303e-08
1.05058e-11
-2.81704e-11
-1.06303e-08
1.95456e-11
-2.76981e-11
-1.06311e-08
2.82263e-11
-2.68261e-11
-1.06329e-08
3.66739e-11
-2.6101e-11
-1.06354e-08
4.47228e-11
-2.47332e-11
-1.06383e-08
5.20998e-11
-2.54336e-11
-1.06423e-08
-2.64804e-11
-1.06446e-08
5.99574e-11
-5.46529e-11
-1.75931e-11
-1.06429e-08
6.21283e-11
-4.65401e-11
-1.67304e-11
-1.06401e-08
-3.7774e-11
-1.65433e-11
-1.0636e-08
-2.83608e-11
-1.74532e-11
-1.0633e-08
-1.87103e-11
-1.79494e-11
-1.06302e-08
-8.85719e-12
-1.85373e-11
-1.06283e-08
1.11721e-12
-1.88146e-11
-1.06273e-08
1.0853e-11
-1.88295e-11
-1.06272e-08
2.01051e-11
-1.86072e-11
-1.06281e-08
2.89362e-11
-1.80748e-11
-1.063e-08
3.74787e-11
-1.76305e-11
-1.06328e-08
4.5489e-11
-1.6817e-11
-1.06358e-08
5.3107e-11
-1.70858e-11
-1.06401e-08
-1.80601e-11
-1.0643e-08
6.04089e-11
-5.5989e-11
-8.77638e-12
-1.0642e-08
6.32566e-11
-4.77034e-11
-8.28904e-12
-1.06384e-08
-3.88868e-11
-8.28996e-12
-1.06344e-08
-2.92594e-11
-8.73686e-12
-1.06313e-08
-1.93419e-11
-8.99939e-12
-1.06284e-08
-9.19311e-12
-9.35016e-12
-1.06262e-08
1.09944e-12
-9.55245e-12
-1.06251e-08
1.11489e-11
-9.68536e-12
-1.0625e-08
2.06831e-11
-9.71705e-12
-1.06259e-08
2.97547e-11
-9.52443e-12
-1.06279e-08
3.84863e-11
-9.37173e-12
-1.06309e-08
4.65294e-11
-9.01367e-12
-1.06341e-08
5.43312e-11
-9.05784e-12
-1.06383e-08
-9.52369e-12
-1.06421e-08
6.14623e-11
-5.6795e-11
-1.29953e-13
-1.06419e-08
6.42227e-11
-4.82647e-11
-1.17383e-13
-1.06379e-08
-3.93668e-11
-1.00585e-13
-1.06339e-08
-2.96165e-11
-8.20918e-14
-1.06307e-08
-1.95761e-11
-7.01808e-14
-1.06276e-08
-9.34668e-12
-1.23133e-13
-1.06254e-08
9.89877e-13
-1.96384e-13
-1.06242e-08
1.11142e-11
-4.22e-13
-1.0624e-08
2.07662e-11
-6.98353e-13
-1.06249e-08
2.99842e-11
-8.64604e-13
-1.0627e-08
3.88843e-11
-1.03687e-12
-1.063e-08
4.70656e-11
-1.1332e-12
-1.06333e-08
5.51696e-11
-1.15741e-12
-1.06375e-08
-1.05513e-12
-1.06418e-08
6.25353e-11
-5.67636e-11
8.64085e-12
-1.0642e-08
6.41535e-11
-4.82415e-11
8.12507e-12
-1.06381e-08
-3.93631e-11
8.13707e-12
-1.06341e-08
-2.96503e-11
8.59948e-12
-1.0631e-08
-1.96559e-11
8.86252e-12
-1.06279e-08
-9.49744e-12
9.11616e-12
-1.06257e-08
7.58909e-13
9.1722e-12
-1.06245e-08
1.08457e-11
8.89888e-12
-1.06242e-08
2.05109e-11
8.44173e-12
-1.0625e-08
2.97886e-11
7.93284e-12
-1.0627e-08
3.87801e-11
7.47394e-12
-1.063e-08
4.7065e-11
6.95723e-12
-1.06333e-08
5.52402e-11
7.00611e-12
-1.06375e-08
7.69533e-12
-1.06418e-08
6.26216e-11
-5.59941e-11
1.76249e-11
-1.06424e-08
6.33175e-11
-4.7654e-11
1.66933e-11
-1.0639e-08
-3.88536e-11
1.64993e-11
-1.06351e-08
-2.93089e-11
1.73853e-11
-1.0632e-08
-1.95075e-11
1.78352e-11
-1.06291e-08
-9.53177e-12
1.83439e-11
-1.06269e-08
5.55826e-13
1.84832e-11
-1.06257e-08
1.05026e-11
1.8198e-11
-1.06254e-08
2.00668e-11
1.76448e-11
-1.06262e-08
2.92735e-11
1.68618e-11
-1.06281e-08
3.82185e-11
1.62167e-11
-1.06309e-08
4.6531e-11
1.53055e-11
-1.06341e-08
5.46004e-11
1.56267e-11
-1.06383e-08
1.67515e-11
-1.06421e-08
6.19899e-11
-5.47278e-11
2.6516e-11
-1.06434e-08
6.22856e-11
-4.65442e-11
2.55895e-11
-1.06408e-08
-3.77743e-11
2.49492e-11
-1.06369e-08
-2.84478e-11
2.63367e-11
-1.0634e-08
-1.89588e-11
2.69804e-11
-1.06312e-08
-9.33561e-12
2.77561e-11
-1.06292e-08
3.5375e-13
2.80364e-11
-1.0628e-08
9.93688e-12
2.77935e-11
-1.06277e-08
1.92404e-11
2.71765e-11
-1.06283e-08
2.82632e-11
2.61602e-11
-1.06301e-08
3.71066e-11
2.53672e-11
-1.06328e-08
4.54955e-11
2.39783e-11
-1.06358e-08
5.34914e-11
2.4776e-11
-1.064e-08
2.58674e-11
-1.0643e-08
6.11766e-11
-5.36308e-11
3.51536e-11
-1.06451e-08
6.17734e-11
-4.56979e-11
3.50576e-11
-1.06431e-08
-3.69392e-11
3.36304e-11
-1.06394e-08
-2.77848e-11
3.55582e-11
-1.06367e-08
-1.85445e-11
3.63714e-11
-1.06341e-08
-9.19343e-12
3.73719e-11
-1.06321e-08
1.70961e-13
3.78227e-11
-1.06311e-08
9.45317e-12
3.76567e-11
-1.06308e-08
1.85651e-11
3.69959e-11
-1.06313e-08
2.74749e-11
3.58065e-11
-1.0633e-08
3.62923e-11
3.49101e-11
-1.06354e-08
4.48022e-11
3.30084e-11
-1.06383e-08
5.26395e-11
3.4607e-11
-1.06423e-08
3.48473e-11
-1.06446e-08
6.09338e-11
-5.04797e-11
4.30643e-11
-1.06476e-08
5.89946e-11
-4.3291e-11
4.48803e-11
-1.06458e-08
-3.50018e-11
4.22957e-11
-1.06421e-08
-2.63923e-11
4.47296e-11
-1.06394e-08
-1.7701e-11
4.5604e-11
-1.0637e-08
-8.83772e-12
4.6687e-11
-1.06352e-08
3.35713e-14
4.72645e-11
-1.06343e-08
8.84453e-12
4.7179e-11
-1.0634e-08
1.75432e-11
4.65122e-11
-1.06345e-08
2.60107e-11
4.53086e-11
-1.0636e-08
3.43971e-11
4.44232e-11
-1.06383e-08
4.25426e-11
4.20518e-11
-1.0641e-08
4.97026e-11
4.48158e-11
-1.0645e-08
4.31455e-11
-1.06472e-08
5.83707e-11
-5.42533e-11
4.96397e-11
-1.06501e-08
6.4363e-11
-4.5858e-11
5.37383e-11
-1.06486e-08
-3.63744e-11
5.0043e-11
-1.06458e-08
-2.69887e-11
5.32906e-11
-1.06432e-08
-1.78959e-11
5.44936e-11
-1.06409e-08
-8.88456e-12
5.58165e-11
-1.06391e-08
-4.46463e-14
5.66384e-11
-1.06382e-08
8.75051e-12
5.66225e-11
-1.0638e-08
1.76727e-11
5.57761e-11
-1.06384e-08
2.66181e-11
5.44171e-11
-1.064e-08
3.58621e-11
5.32609e-11
-1.06422e-08
4.52753e-11
5.00977e-11
-1.06449e-08
5.37228e-11
5.39356e-11
-1.0648e-08
4.99363e-11
-1.06498e-08
6.40587e-11
-5.02092e-11
-1.0651e-08
5.79549e-11
5.80764e-11
-4.39523e-11
-1.06502e-08
6.43147e-11
-3.62987e-11
-1.06477e-08
5.91578e-11
-2.77276e-11
-1.06452e-08
6.21333e-11
-1.86845e-11
-1.06435e-08
6.28429e-11
-9.34139e-12
-1.06425e-08
6.40218e-11
-4.81737e-14
-1.06421e-08
6.49574e-11
9.15459e-12
-1.06419e-08
6.50453e-11
1.84108e-11
-1.0642e-08
6.4098e-11
2.73432e-11
-1.06428e-08
6.29439e-11
3.58559e-11
-1.06444e-08
6.22744e-11
4.35302e-11
-1.0647e-08
5.93716e-11
4.98154e-11
-1.06496e-08
6.46985e-11
-1.06507e-08
5.78524e-11
5.8443e-11
-5.63113e-11
-5.45841e-11
-1.22107e-08
6.51978e-11
6.60246e-11
-4.88946e-11
-5.82256e-11
-1.22091e-08
7.16972e-11
-3.92113e-11
-5.25814e-11
-1.22065e-08
6.48285e-11
-2.95646e-11
-5.47695e-11
-1.22033e-08
6.7026e-11
-1.93214e-11
-5.48455e-11
-1.22016e-08
6.69073e-11
-9.06863e-12
-5.52788e-11
-1.22006e-08
6.74119e-11
1.00326e-12
-5.55539e-11
-1.22003e-08
6.79748e-11
1.08052e-11
-5.54912e-11
-1.22003e-08
6.80669e-11
2.06558e-11
-5.49545e-11
-1.22006e-08
6.72117e-11
3.03859e-11
-5.44956e-11
-1.22016e-08
6.66728e-11
3.94435e-11
-5.44558e-11
-1.22033e-08
6.68448e-11
4.85616e-11
-5.24726e-11
-1.22064e-08
6.48298e-11
5.55808e-11
-5.83949e-11
-1.22089e-08
7.18917e-11
-5.49702e-11
-1.22104e-08
6.55245e-11
6.50767e-11
-5.98872e-11
-4.68685e-11
-1.2209e-08
7.2465e-11
-4.98303e-11
-4.76104e-11
-1.22067e-08
-3.79034e-11
-4.29749e-11
-1.22038e-08
-2.73482e-11
-4.4002e-11
-1.22003e-08
-1.72852e-11
-4.3394e-11
-1.21979e-08
-7.86363e-12
-4.33309e-11
-1.21959e-08
1.14906e-12
-4.32064e-11
-1.21951e-08
9.87745e-12
-4.30055e-11
-1.21951e-08
1.87357e-11
-4.28152e-11
-1.2196e-08
2.80542e-11
-4.27981e-11
-1.21981e-08
3.78405e-11
-4.34339e-11
-1.22004e-08
4.91291e-11
-4.26527e-11
-1.22039e-08
5.88217e-11
-4.76803e-11
-1.22067e-08
-4.72539e-11
-1.2209e-08
7.13283e-11
-5.4176e-11
-3.7209e-11
-1.22067e-08
6.52558e-11
-4.52249e-11
-3.566e-11
-1.22039e-08
-3.45457e-11
-3.22938e-11
-1.22e-08
-2.50188e-11
-3.26554e-11
-1.21964e-08
-1.57687e-11
-3.18671e-11
-1.21938e-08
-7.07438e-12
-3.16205e-11
-1.21919e-08
1.32102e-12
-3.1329e-11
-1.21911e-08
9.42016e-12
-3.10462e-11
-1.21911e-08
1.74047e-11
-3.0947e-11
-1.21921e-08
2.56968e-11
-3.10287e-11
-1.21941e-08
3.42412e-11
-3.18125e-11
-1.21968e-08
4.41206e-11
-3.17121e-11
-1.22002e-08
5.26138e-11
-3.55265e-11
-1.22042e-08
-3.75741e-11
-1.22068e-08
6.37165e-11
-5.6325e-11
-2.81576e-11
-1.22036e-08
6.73152e-11
-4.62644e-11
-2.57708e-11
-1.22007e-08
-3.49164e-11
-2.35189e-11
-1.21967e-08
-2.48481e-11
-2.33952e-11
-1.2193e-08
-1.52963e-11
-2.25309e-11
-1.21903e-08
-6.63812e-12
-2.21053e-11
-1.21882e-08
1.59287e-12
-2.16774e-11
-1.21872e-08
9.45291e-12
-2.13538e-11
-1.21873e-08
1.71786e-11
-2.13327e-11
-1.21884e-08
2.54961e-11
-2.15338e-11
-1.21907e-08
3.43273e-11
-2.2374e-11
-1.21935e-08
4.46949e-11
-2.27553e-11
-1.21971e-08
5.42018e-11
-2.54494e-11
-1.2201e-08
-2.84276e-11
-1.22039e-08
6.51986e-11
-5.64409e-11
-1.89451e-11
-1.22022e-08
6.71387e-11
-4.57378e-11
-1.695e-11
-1.21986e-08
-3.42187e-11
-1.56358e-11
-1.21944e-08
-2.40179e-11
-1.53188e-11
-1.21906e-08
-1.44883e-11
-1.45844e-11
-1.21876e-08
-6.05242e-12
-1.41452e-11
-1.21854e-08
1.88701e-12
-1.369e-11
-1.21843e-08
9.3699e-12
-1.33632e-11
-1.21844e-08
1.66547e-11
-1.33498e-11
-1.21857e-08
2.46766e-11
-1.35654e-11
-1.2188e-08
3.33634e-11
-1.42585e-11
-1.21911e-08
4.36839e-11
-1.48042e-11
-1.21948e-08
5.37233e-11
-1.65168e-11
-1.2199e-08
-1.90916e-11
-1.22025e-08
6.43904e-11
-5.70204e-11
-9.91033e-12
-1.22014e-08
6.77383e-11
-4.5878e-11
-8.99249e-12
-1.21969e-08
-3.41942e-11
-8.52913e-12
-1.21928e-08
-2.37599e-11
-8.36321e-12
-1.21889e-08
-1.40836e-11
-7.96875e-12
-1.21857e-08
-5.64597e-12
-7.69702e-12
-1.21834e-08
2.15101e-12
-7.33035e-12
-1.21822e-08
9.41604e-12
-7.06749e-12
-1.21822e-08
1.65106e-11
-7.05001e-12
-1.21835e-08
2.44381e-11
-7.15588e-12
-1.2186e-08
3.31002e-11
-7.47665e-12
-1.21892e-08
4.33786e-11
-7.79743e-12
-1.21931e-08
5.37711e-11
-8.60023e-12
-1.21972e-08
-9.99601e-12
-1.22016e-08
6.44691e-11
-5.762e-11
-1.15669e-12
-1.22012e-08
6.87188e-11
-4.59935e-11
-1.51492e-12
-1.21962e-08
-3.40532e-11
-1.7461e-12
-1.21922e-08
-2.3384e-11
-1.87263e-12
-1.21881e-08
-1.35991e-11
-1.87188e-12
-1.21849e-08
-5.15658e-12
-1.79779e-12
-1.21825e-08
2.41981e-12
-1.58608e-12
-1.21812e-08
9.41405e-12
-1.40821e-12
-1.21812e-08
1.63748e-11
-1.34439e-12
-1.21825e-08
2.41492e-11
-1.25283e-12
-1.2185e-08
3.27871e-11
-1.21532e-12
-1.21882e-08
4.31234e-11
-1.20695e-12
-1.21922e-08
5.38999e-11
-1.23354e-12
-1.21963e-08
-1.17874e-12
-1.22013e-08
6.49642e-11
-5.79145e-11
8.0288e-12
-1.22013e-08
6.89785e-11
-4.62528e-11
6.43584e-12
-1.21964e-08
-3.42112e-11
5.50654e-12
-1.21923e-08
-2.34179e-11
5.09646e-12
-1.21884e-08
-1.35292e-11
4.71477e-12
-1.21851e-08
-5.02267e-12
4.60604e-12
-1.21827e-08
2.53335e-12
4.60963e-12
-1.21814e-08
9.47485e-12
4.63723e-12
-1.21813e-08
1.63933e-11
4.71627e-12
-1.21826e-08
2.41158e-11
4.95886e-12
-1.21849e-08
3.27416e-11
5.32889e-12
-1.21881e-08
4.30858e-11
5.65496e-12
-1.21921e-08
5.38552e-11
6.45397e-12
-1.21962e-08
7.94874e-12
-1.22012e-08
6.49478e-11
-5.79963e-11
1.79505e-11
-1.22015e-08
6.88353e-11
-4.66185e-11
1.54806e-11
-1.21971e-08
-3.45997e-11
1.37945e-11
-1.21931e-08
-2.38142e-11
1.32999e-11
-1.21893e-08
-1.38347e-11
1.25878e-11
-1.21862e-08
-5.14701e-12
1.23041e-11
-1.21838e-08
2.59079e-12
1.2066e-11
-1.21826e-08
9.68581e-12
1.18929e-11
-1.21824e-08
1.66924e-11
1.19426e-11
-1.21835e-08
2.44528e-11
1.22036e-11
-1.21857e-08
3.30447e-11
1.288e-11
-1.21888e-08
4.33544e-11
1.3366e-11
-1.21926e-08
5.38286e-11
1.50804e-11
-1.21967e-08
1.76533e-11
-1.22012e-08
6.47058e-11
-5.78827e-11
2.82727e-11
-1.22023e-08
6.88085e-11
-4.68168e-11
2.57302e-11
-1.21989e-08
-3.48012e-11
2.32657e-11
-1.21949e-08
-2.40756e-11
2.30512e-11
-1.21912e-08
-1.40877e-11
2.21959e-11
-1.21883e-08
-5.31112e-12
2.18699e-11
-1.2186e-08
2.51731e-12
2.15015e-11
-1.21848e-08
9.72574e-12
2.1176e-11
-1.21846e-08
1.68601e-11
2.11489e-11
-1.21856e-08
2.46587e-11
2.12855e-11
-1.21876e-08
3.32257e-11
2.20358e-11
-1.21905e-08
4.3566e-11
2.2291e-11
-1.21941e-08
5.37392e-11
2.4943e-11
-1.21983e-08
2.77432e-11
-1.22019e-08
6.47322e-11
-5.80527e-11
3.83847e-11
-1.22038e-08
6.9285e-11
-4.75545e-11
3.69589e-11
-1.2201e-08
-3.56091e-11
3.35649e-11
-1.21972e-08
-2.49028e-11
3.39112e-11
-1.21937e-08
-1.4811e-11
3.31126e-11
-1.2191e-08
-5.79788e-12
3.28826e-11
-1.21888e-08
2.30319e-12
3.25305e-11
-1.21877e-08
9.8362e-12
3.21225e-11
-1.21875e-08
1.73417e-11
3.19404e-11
-1.21883e-08
2.54105e-11
3.18469e-11
-1.21902e-08
3.41148e-11
3.24741e-11
-1.21927e-08
4.45109e-11
3.21933e-11
-1.21963e-08
5.41972e-11
3.59069e-11
-1.22002e-08
3.76833e-11
-1.22032e-08
6.55488e-11
-5.59864e-11
4.8769e-11
-1.22068e-08
6.7268e-11
-4.65626e-11
4.97944e-11
-1.22042e-08
-3.52643e-11
4.53346e-11
-1.22003e-08
-2.50809e-11
4.64207e-11
-1.21969e-08
-1.5298e-11
4.57893e-11
-1.21944e-08
-6.28775e-12
4.56594e-11
-1.21924e-08
1.98253e-12
4.53848e-11
-1.21915e-08
9.74324e-12
4.49741e-11
-1.21912e-08
1.74493e-11
4.46363e-11
-1.21918e-08
2.54565e-11
4.43734e-11
-1.21935e-08
3.38567e-11
4.48112e-11
-1.2196e-08
4.37769e-11
4.38103e-11
-1.21994e-08
5.24951e-11
4.86819e-11
-1.22034e-08
4.80031e-11
-1.22062e-08
6.39753e-11
-6.14732e-11
5.68915e-11
-1.2209e-08
7.40254e-11
-5.10186e-11
6.07199e-11
-1.22068e-08
-3.85545e-11
5.54012e-11
-1.2204e-08
-2.74143e-11
5.77056e-11
-1.22005e-08
-1.68864e-11
5.77563e-11
-1.21982e-08
-7.21187e-12
5.80677e-11
-1.21962e-08
1.65545e-12
5.81322e-11
-1.21953e-08
1.00428e-11
5.77975e-11
-1.2195e-08
1.86105e-11
5.70672e-11
-1.21956e-08
2.76326e-11
5.63511e-11
-1.21974e-08
3.72843e-11
5.61067e-11
-1.21997e-08
4.86544e-11
5.38809e-11
-1.22031e-08
5.8616e-11
5.96397e-11
-1.22061e-08
5.60605e-11
-1.22086e-08
7.14997e-11
-5.76779e-11
-1.22106e-08
6.71764e-11
6.74188e-11
-4.98674e-11
-1.2209e-08
7.38134e-11
-3.97137e-11
-1.22065e-08
6.73841e-11
-2.96198e-11
-1.22033e-08
6.97859e-11
-1.90507e-11
-1.22016e-08
6.96476e-11
-8.641e-12
-1.22006e-08
7.00092e-11
1.28847e-12
-1.22002e-08
7.03261e-11
1.07627e-11
-1.22e-08
7.01575e-11
2.03112e-11
-1.22001e-08
6.91058e-11
2.97459e-11
-1.2201e-08
6.833e-11
3.87065e-11
-1.22026e-08
6.82897e-11
4.79884e-11
-1.22058e-08
6.60169e-11
5.51912e-11
-1.22084e-08
7.30811e-11
-1.22102e-08
6.51204e-11
6.66464e-11
-6.25784e-11
-6.10838e-11
-1.39239e-08
7.25583e-11
7.34388e-11
-5.33692e-11
-6.42862e-11
-1.39221e-08
7.93615e-11
-4.26579e-11
-5.63669e-11
-1.39186e-08
7.04614e-11
-3.13597e-11
-5.71655e-11
-1.39155e-08
7.1772e-11
-2.02385e-11
-5.56371e-11
-1.39133e-08
7.03876e-11
-9.40986e-12
-5.49844e-11
-1.39123e-08
7.01009e-11
9.2688e-13
-5.46228e-11
-1.39121e-08
7.02338e-11
1.10359e-11
-5.48096e-11
-1.39121e-08
7.05552e-11
2.1575e-11
-5.52601e-11
-1.39125e-08
7.05031e-11
3.23731e-11
-5.62308e-11
-1.39135e-08
7.10688e-11
4.33113e-11
-5.80484e-11
-1.39157e-08
7.27198e-11
5.36817e-11
-5.76338e-11
-1.39187e-08
7.17038e-11
6.26688e-11
-6.5861e-11
-1.39222e-08
8.07277e-11
-6.28563e-11
-1.39239e-08
7.40366e-11
7.32649e-11
-6.58773e-11
-5.20918e-11
-1.39225e-08
8.0505e-11
-5.31498e-11
-5.1732e-11
-1.39202e-08
-3.96175e-11
-4.45998e-11
-1.39164e-08
-2.72008e-11
-4.37804e-11
-1.39132e-08
-1.65346e-11
-4.11739e-11
-1.39105e-08
-7.30841e-12
-3.96531e-11
-1.39086e-08
8.64825e-13
-3.8639e-11
-1.39079e-08
8.79764e-12
-3.86418e-11
-1.39079e-08
1.76517e-11
-3.96503e-11
-1.39088e-08
2.7868e-11
-4.14043e-11
-1.39109e-08
3.98581e-11
-4.42746e-11
-1.39136e-08
5.306e-11
-4.55102e-11
-1.39167e-08
6.56371e-11
-5.30975e-11
-1.39203e-08
-5.36481e-11
-1.39225e-08
8.01443e-11
-5.78761e-11
-4.18775e-11
-1.39194e-08
7.13611e-11
-4.60051e-11
-3.87813e-11
-1.39168e-08
-3.36642e-11
-3.29766e-11
-1.39121e-08
-2.25668e-11
-3.12969e-11
-1.39092e-08
-1.33323e-11
-2.84048e-11
-1.39066e-08
-5.67519e-12
-2.66072e-11
-1.39049e-08
8.79404e-13
-2.5356e-11
-1.39044e-08
7.19597e-12
-2.51621e-11
-1.39045e-08
1.43749e-11
-2.62181e-11
-1.39053e-08
2.29696e-11
-2.80359e-11
-1.39071e-08
3.34692e-11
-3.10724e-11
-1.39098e-08
4.54146e-11
-3.31651e-11
-1.39126e-08
5.72151e-11
-3.95668e-11
-1.39171e-08
-4.30609e-11
-1.39194e-08
7.09277e-11
-5.88444e-11
-3.14266e-11
-1.39168e-08
7.27756e-11
-4.53386e-11
-2.74015e-11
-1.39142e-08
-3.20202e-11
-2.3117e-11
-1.39098e-08
-2.04163e-11
-2.10929e-11
-1.39072e-08
-1.12905e-11
-1.83344e-11
-1.39046e-08
-4.38731e-12
-1.64606e-11
-1.3903e-08
1.03212e-12
-1.5114e-11
-1.39025e-08
6.16355e-12
-1.4711e-11
-1.39027e-08
1.24262e-11
-1.56003e-11
-1.39035e-08
2.06698e-11
-1.72086e-11
-1.39053e-08
3.14053e-11
-1.993e-11
-1.39079e-08
4.41191e-11
-2.22991e-11
-1.39104e-08
5.74447e-11
-2.7238e-11
-1.39146e-08
-3.19223e-11
-1.39169e-08
7.16855e-11
-5.76655e-11
-2.13206e-11
-1.39151e-08
7.16859e-11
-4.30471e-11
-1.80218e-11
-1.39121e-08
-2.93423e-11
-1.53497e-11
-1.39077e-08
-1.77e-11
-1.35964e-11
-1.39052e-08
-9.01762e-12
-1.14691e-11
-1.39027e-08
-2.97301e-12
-9.89591e-12
-1.39012e-08
1.34157e-12
-8.69534e-12
-1.39007e-08
5.31216e-12
-8.10795e-12
-1.39009e-08
1.05191e-11
-8.53725e-12
-1.39018e-08
1.80047e-11
-9.54896e-12
-1.39035e-08
2.84202e-11
-1.14425e-11
-1.39061e-08
4.12345e-11
-1.34192e-11
-1.39084e-08
5.55093e-11
-1.67302e-11
-1.39125e-08
-2.09039e-11
-1.39151e-08
6.98178e-11
-5.74623e-11
-1.14585e-11
-1.39144e-08
7.18117e-11
-4.19929e-11
-1.0004e-11
-1.39104e-08
-2.79429e-11
-9.00813e-12
-1.39064e-08
-1.60772e-11
-8.16687e-12
-1.39039e-08
-7.52537e-12
-7.06832e-12
-1.39015e-08
-1.92113e-12
-6.11144e-12
-1.39e-08
1.76358e-12
-5.22455e-12
-1.38995e-08
5.07176e-12
-4.49022e-12
-1.38997e-08
9.58813e-12
-4.2168e-12
-1.39006e-08
1.65322e-11
-4.37564e-12
-1.39023e-08
2.67255e-11
-5.09163e-12
-1.39049e-08
3.95248e-11
-6.0664e-12
-1.39071e-08
5.44694e-11
-7.67911e-12
-1.39109e-08
-1.01159e-11
-1.39144e-08
6.90319e-11
-5.77999e-11
-1.65087e-12
-1.39141e-08
7.26896e-11
-4.15532e-11
-2.39274e-12
-1.39097e-08
-2.70486e-11
-2.91714e-12
-1.39057e-08
-1.48293e-11
-3.25389e-12
-1.39033e-08
-6.21383e-12
-3.32667e-12
-1.39009e-08
-8.3232e-13
-3.12407e-12
-1.38994e-08
2.60742e-12
-2.75906e-12
-1.3899e-08
5.44824e-12
-1.97722e-12
-1.38993e-08
9.23593e-12
-1.18583e-12
-1.39002e-08
1.56233e-11
-6.05104e-13
-1.39019e-08
2.56006e-11
-1.69321e-13
-1.39044e-08
3.83935e-11
5.30802e-14
-1.39066e-08
5.38368e-11
5.26932e-14
-1.39102e-08
-4.46176e-14
-1.39141e-08
6.8839e-11
-5.84389e-11
8.68835e-12
-1.3914e-08
7.33842e-11
-4.21251e-11
5.98025e-12
-1.39095e-08
-2.74219e-11
3.99818e-12
-1.39055e-08
-1.48932e-11
2.55669e-12
-1.3903e-08
-5.96274e-12
1.34891e-12
-1.39007e-08
-3.78286e-13
7.77333e-13
-1.38992e-08
3.29485e-12
5.80518e-13
-1.38988e-08
6.18856e-12
1.20912e-12
-1.38991e-08
9.75261e-12
2.26367e-12
-1.39e-08
1.59422e-11
3.42791e-12
-1.39017e-08
2.57368e-11
4.90147e-12
-1.39041e-08
3.83454e-11
6.24073e-12
-1.39063e-08
5.36363e-11
7.83557e-12
-1.39099e-08
1.00224e-11
-1.39138e-08
6.86144e-11
-5.93392e-11
1.98336e-11
-1.39138e-08
7.37602e-11
-4.3595e-11
1.57648e-11
-1.39098e-08
-2.89394e-11
1.23459e-11
-1.39056e-08
-1.62367e-11
1.01998e-11
-1.39031e-08
-6.84134e-12
8.05153e-12
-1.39007e-08
-6.56269e-13
6.80596e-12
-1.38993e-08
3.69271e-12
6.10898e-12
-1.38988e-08
7.20575e-12
6.41669e-12
-1.3899e-08
1.11661e-11
7.67349e-12
-1.39e-08
1.75576e-11
9.29698e-12
-1.39016e-08
2.72209e-11
1.16194e-11
-1.3904e-08
3.95132e-11
1.3714e-11
-1.39062e-08
5.40472e-11
1.691e-11
-1.391e-08
2.07611e-11
-1.39136e-08
6.84381e-11
-6.03407e-11
3.15035e-11
-1.39144e-08
7.45176e-11
-4.52797e-11
2.73535e-11
-1.39112e-08
-3.07382e-11
2.27464e-11
-1.39067e-08
-1.7951e-11
2.05824e-11
-1.39042e-08
-8.05585e-12
1.78839e-11
-1.39017e-08
-1.1119e-12
1.62262e-11
-1.39002e-08
4.06235e-12
1.51358e-11
-1.38997e-08
8.26245e-12
1.5056e-11
-1.38999e-08
1.2746e-11
1.61875e-11
-1.39009e-08
1.94024e-11
1.79151e-11
-1.39024e-08
2.89567e-11
2.06292e-11
-1.39049e-08
4.09837e-11
2.27806e-11
-1.39072e-08
5.46983e-11
2.73993e-11
-1.39113e-08
3.16277e-11
-1.3914e-08
6.88382e-11
-6.19205e-11
4.34929e-11
-1.39161e-08
7.59385e-11
-4.78618e-11
4.07597e-11
-1.39133e-08
-3.35664e-11
3.51088e-11
-1.39087e-08
-2.06541e-11
3.35378e-11
-1.3906e-08
-1.01357e-11
3.07857e-11
-1.39036e-08
-2.13925e-12
2.90855e-11
-1.3902e-08
4.08298e-12
2.78258e-11
-1.39015e-08
9.30651e-12
2.74128e-11
-1.39016e-08
1.48194e-11
2.81621e-11
-1.39025e-08
2.21052e-11
2.95922e-11
-1.39041e-08
3.18013e-11
3.21687e-11
-1.39066e-08
4.35848e-11
3.37348e-11
-1.39091e-08
5.62755e-11
3.96366e-11
-1.39133e-08
4.26477e-11
-1.39157e-08
7.02877e-11
-6.09108e-11
5.48182e-11
-1.39188e-08
7.43691e-11
-4.84476e-11
5.50205e-11
-1.3916e-08
-3.51005e-11
4.84519e-11
-1.39111e-08
-2.2712e-11
4.7927e-11
-1.39082e-08
-1.2156e-11
4.54961e-11
-1.39055e-08
-3.41856e-12
4.39662e-11
-1.3904e-08
3.76875e-12
4.26992e-11
-1.39034e-08
1.00144e-11
4.20769e-11
-1.39035e-08
1.64649e-11
4.23733e-11
-1.39043e-08
2.40157e-11
4.33476e-11
-1.3906e-08
3.33875e-11
4.54304e-11
-1.39086e-08
4.43669e-11
4.59363e-11
-1.39113e-08
5.55529e-11
5.29545e-11
-1.39159e-08
5.30546e-11
-1.39184e-08
6.915e-11
-6.82572e-11
6.42983e-11
-1.39221e-08
8.26805e-11
-5.50972e-11
6.80112e-11
-1.39196e-08
-4.07247e-11
6.08398e-11
-1.39156e-08
-2.72219e-11
6.20163e-11
-1.39123e-08
-1.54588e-11
6.06436e-11
-1.39097e-08
-5.34916e-12
5.98495e-11
-1.39078e-08
3.27189e-12
5.9054e-11
-1.39071e-08
1.09788e-11
5.84109e-11
-1.39071e-08
1.90464e-11
5.79241e-11
-1.3908e-08
2.81823e-11
5.79518e-11
-1.391e-08
3.90958e-11
5.88383e-11
-1.39126e-08
5.1498e-11
5.76145e-11
-1.39157e-08
6.36067e-11
6.54199e-11
-1.39195e-08
6.19148e-11
-1.39218e-08
7.83129e-11
-6.44722e-11
-1.39238e-08
7.51359e-11
7.52851e-11
-5.48439e-11
-1.39218e-08
8.24285e-11
-4.33057e-11
-1.39182e-08
7.42377e-11
-3.11294e-11
-1.3915e-08
7.60233e-11
-1.92636e-11
-1.39128e-08
7.48466e-11
-7.91852e-12
-1.39119e-08
7.43361e-11
2.55604e-12
-1.39116e-08
7.39503e-11
1.22565e-11
-1.39117e-08
7.34154e-11
2.20468e-11
-1.3912e-08
7.23075e-11
3.19269e-11
-1.3913e-08
7.1934e-11
4.2017e-11
-1.39152e-08
7.26585e-11
5.17909e-11
-1.39182e-08
7.09686e-11
6.01699e-11
-1.39218e-08
8.01282e-11
-1.39236e-08
7.10871e-11
7.28456e-11
-6.44148e-11
-6.51292e-11
-1.58036e-08
7.61917e-11
7.62773e-11
-5.60455e-11
-6.90463e-11
-1.58005e-08
8.44308e-11
-4.44664e-11
-6.00204e-11
-1.57967e-08
7.3812e-11
-3.33039e-11
-6.07071e-11
-1.57927e-08
7.50682e-11
-2.18053e-11
-5.8896e-11
-1.57906e-08
7.34498e-11
-1.04853e-11
-5.80143e-11
-1.57897e-08
7.28921e-11
3.51006e-13
-5.75955e-11
-1.57897e-08
7.30007e-11
1.11347e-11
-5.8071e-11
-1.57898e-08
7.34986e-11
2.24788e-11
-5.90395e-11
-1.57901e-08
7.39212e-11
3.41441e-11
-6.05803e-11
-1.57912e-08
7.50228e-11
4.55316e-11
-6.28927e-11
-1.57934e-08
7.70277e-11
5.73368e-11
-6.25444e-11
-1.57974e-08
7.59521e-11
6.5753e-11
-7.16084e-11
-1.58011e-08
8.6541e-11
-6.74966e-11
-1.58041e-08
7.79417e-11
7.73727e-11
-6.87413e-11
-5.79164e-11
-1.5801e-08
8.51831e-11
-5.57794e-11
-5.77201e-11
-1.57976e-08
-4.08765e-11
-4.96663e-11
-1.57938e-08
-2.83231e-11
-4.86354e-11
-1.57901e-08
-1.7302e-11
-4.56079e-11
-1.57878e-08
-7.99448e-12
-4.3747e-11
-1.57862e-08
9.08438e-15
-4.27302e-11
-1.57858e-08
7.98089e-12
-4.31687e-11
-1.57859e-08
1.74279e-11
-4.46358e-11
-1.57866e-08
2.876e-11
-4.70557e-11
-1.57884e-08
4.1719e-11
-5.04702e-11
-1.57907e-08
5.69837e-11
-5.18589e-11
-1.57944e-08
7.01677e-11
-6.00128e-11
-1.57979e-08
-5.99803e-11
-1.58012e-08
8.64602e-11
-5.9738e-11
-4.73618e-11
-1.57978e-08
7.48557e-11
-4.76282e-11
-4.41728e-11
-1.57944e-08
-3.39943e-11
-3.76424e-11
-1.579e-08
-2.29484e-11
-3.57284e-11
-1.57871e-08
-1.37427e-11
-3.24798e-11
-1.57854e-08
-6.40685e-12
-3.07942e-11
-1.57844e-08
-3.3505e-13
-2.95657e-11
-1.57843e-08
5.75631e-12
-2.97254e-11
-1.57844e-08
1.33986e-11
-3.12643e-11
-1.57848e-08
2.30136e-11
-3.34561e-11
-1.57859e-08
3.45303e-11
-3.65723e-11
-1.57877e-08
4.87016e-11
-3.88283e-11
-1.57904e-08
6.13242e-11
-4.5627e-11
-1.57945e-08
-4.86812e-11
-1.57976e-08
7.66502e-11
-6.09264e-11
-3.66972e-11
-1.57942e-08
7.66949e-11
-4.69272e-11
-3.24074e-11
-1.57911e-08
-3.21487e-11
-2.76112e-11
-1.57876e-08
-2.0589e-11
-2.53974e-11
-1.57855e-08
-1.16951e-11
-2.24807e-11
-1.57843e-08
-5.23127e-12
-2.09186e-11
-1.57838e-08
-4.61248e-13
-1.95913e-11
-1.57839e-08
4.24194e-12
-1.93723e-11
-1.57841e-08
1.10508e-11
-2.0686e-11
-1.57842e-08
2.05023e-11
-2.23685e-11
-1.57849e-08
3.25096e-11
-2.49537e-11
-1.5786e-08
4.77448e-11
-2.72593e-11
-1.57879e-08
6.2235e-11
-3.245e-11
-1.57911e-08
-3.69322e-11
-1.57938e-08
7.84346e-11
-5.98307e-11
-2.49499e-11
-1.57924e-08
7.58509e-11
-4.45012e-11
-2.1264e-11
-1.57892e-08
-2.91888e-11
-1.82955e-11
-1.57861e-08
-1.7715e-11
-1.64123e-11
-1.57845e-08
-9.44678e-12
-1.42503e-11
-1.57838e-08
-3.86171e-12
-1.29066e-11
-1.57837e-08
-3.18745e-13
-1.18001e-11
-1.57841e-08
3.0746e-12
-1.12015e-11
-1.57843e-08
8.82685e-12
-1.17409e-11
-1.57843e-08
1.76691e-11
-1.27218e-11
-1.57846e-08
2.95303e-11
-1.46378e-11
-1.57853e-08
4.50596e-11
-1.63696e-11
-1.57865e-08
6.07355e-11
-1.97779e-11
-1.57891e-08
-2.4053e-11
-1.57917e-08
7.72039e-11
-5.96735e-11
-1.26109e-11
-1.57916e-08
7.60062e-11
-4.32625e-11
-1.08117e-11
-1.57875e-08
-2.75988e-11
-9.59265e-12
-1.57851e-08
-1.63163e-11
-8.65508e-12
-1.57838e-08
-8.18605e-12
-7.53414e-12
-1.57835e-08
-2.80387e-12
-6.70903e-12
-1.57837e-08
-6.72185e-14
-5.85633e-12
-1.57842e-08
2.60535e-12
-5.12171e-12
-1.57845e-08
7.80224e-12
-5.00174e-12
-1.57844e-08
1.62095e-11
-5.07535e-12
-1.57845e-08
2.78972e-11
-5.56571e-12
-1.57848e-08
4.3486e-11
-6.43843e-12
-1.57857e-08
5.99968e-11
-8.08532e-12
-1.57875e-08
-1.07646e-11
-1.57908e-08
7.6642e-11
-5.98533e-11
-4.17387e-13
-1.57912e-08
7.67265e-11
-4.25336e-11
-1.0326e-12
-1.57867e-08
-2.64746e-11
-1.39562e-12
-1.57845e-08
-1.5051e-11
-1.68344e-12
-1.57833e-08
-6.89509e-12
-1.67255e-12
-1.57832e-08
-1.62985e-12
-1.42777e-12
-1.57835e-08
6.95072e-13
-1.02428e-12
-1.57843e-08
2.75995e-12
-1.99317e-13
-1.57846e-08
7.4182e-12
6.78882e-13
-1.57846e-08
1.5387e-11
1.55073e-12
-1.57845e-08
2.68013e-11
2.34096e-12
-1.57847e-08
4.22931e-11
2.54304e-12
-1.57853e-08
5.93505e-11
2.48605e-12
-1.57869e-08
2.10547e-12
-1.57906e-08
7.6313e-11
-6.03361e-11
1.18806e-11
-1.57909e-08
7.73799e-11
-4.29651e-11
9.21227e-12
-1.57862e-08
-2.67514e-11
7.19565e-12
-1.57839e-08
-1.51378e-11
5.85164e-12
-1.57826e-08
-6.75047e-12
4.73008e-12
-1.57825e-08
-1.13421e-12
4.1749e-12
-1.57828e-08
1.45681e-12
4.05981e-12
-1.57836e-08
3.67263e-12
4.9752e-12
-1.5784e-08
8.28902e-12
6.47021e-12
-1.57841e-08
1.60292e-11
8.02632e-12
-1.57841e-08
2.70717e-11
9.76414e-12
-1.57844e-08
4.21849e-11
1.09506e-11
-1.57851e-08
5.89401e-11
1.24431e-11
-1.57867e-08
1.44002e-11
-1.57904e-08
7.57951e-11
-6.09689e-11
2.46239e-11
-1.57905e-08
7.72941e-11
-4.44912e-11
2.0634e-11
-1.57861e-08
-2.83891e-11
1.71157e-11
-1.57834e-08
-1.65679e-11
1.51364e-11
-1.57818e-08
-7.693e-12
1.28174e-11
-1.57814e-08
-1.39141e-12
1.15419e-11
-1.57816e-08
2.08307e-12
1.0906e-11
-1.57823e-08
5.18937e-12
1.1607e-11
-1.57827e-08
1.03226e-11
1.33212e-11
-1.5783e-08
1.81323e-11
1.52261e-11
-1.57833e-08
2.87951e-11
1.79354e-11
-1.57839e-08
4.33375e-11
1.97909e-11
-1.57849e-08
5.88838e-11
2.2796e-11
-1.57868e-08
2.63905e-11
-1.57902e-08
7.48137e-11
-6.16326e-11
3.68565e-11
-1.5791e-08
7.74984e-11
-4.61446e-11
3.27215e-11
-1.57872e-08
-3.03123e-11
2.78519e-11
-1.57836e-08
-1.81841e-11
2.57763e-11
-1.57817e-08
-8.77195e-12
2.30227e-11
-1.57808e-08
-1.79399e-12
2.152e-11
-1.57808e-08
2.77378e-12
2.05204e-11
-1.57814e-08
6.76923e-12
2.09195e-11
-1.57819e-08
1.23496e-11
2.25625e-11
-1.57823e-08
2.02074e-11
2.44641e-11
-1.57829e-08
3.05788e-11
2.72525e-11
-1.57839e-08
4.45068e-11
2.91688e-11
-1.57853e-08
5.88455e-11
3.36105e-11
-1.57881e-08
3.73884e-11
-1.57909e-08
7.43507e-11
-6.27888e-11
4.81173e-11
-1.57929e-08
7.82042e-11
-4.86645e-11
4.52843e-11
-1.57891e-08
-3.3374e-11
3.90016e-11
-1.5785e-08
-2.0925e-11
3.73297e-11
-1.57824e-08
-1.08817e-11
3.45735e-11
-1.5781e-08
-2.91225e-12
3.30444e-11
-1.57804e-08
3.19904e-12
3.18414e-11
-1.57808e-08
8.45328e-12
3.18695e-11
-1.57813e-08
1.49153e-11
3.31839e-11
-1.5782e-08
2.31279e-11
3.48203e-11
-1.57831e-08
3.33462e-11
3.72717e-11
-1.57846e-08
4.66601e-11
3.86423e-11
-1.57867e-08
5.95585e-11
4.46216e-11
-1.57901e-08
4.71679e-11
-1.57929e-08
7.46763e-11
-6.13244e-11
5.91064e-11
-1.57968e-08
7.59551e-11
-4.91402e-11
5.9298e-11
-1.57928e-08
-3.50027e-11
5.18545e-11