/*--------------------------------*- C++ -*----------------------------------*\
| =========                 |                                                 |
| \\      /  F ield         | OpenFOAM: The Open Source CFD Toolbox           |
|  \\    /   O peration     | Version:  v2106                                 |
|   \\  /    A nd           | Website:  www.openfoam.com                      |
|    \\/     M anipulation  |                                                 |
\*---------------------------------------------------------------------------*/
FoamFile
{
    version     2.0;
    format      ascii;
    arch        "LSB;label=32;scalar=64";
    class       volScalarField;
    location    "0.000184";
    object      alphat;
}
// * * * * * * * * * * * * * * * * * * * * * * * * * * * * * * * * * * * * * //

dimensions      [1 -1 -1 0 0 0 0];

internalField   nonuniform List<scalar> 
17924
(
9.84343e-17
9.83515e-17
9.83557e-17
9.83786e-17
9.79445e-17
9.79466e-17
9.79635e-17
9.79822e-17
9.80049e-17
9.80302e-17
9.80582e-17
9.80148e-17
9.79982e-17
9.80097e-17
9.80253e-17
9.8046e-17
9.80695e-17
9.80965e-17
9.80948e-17
9.80543e-17
9.80587e-17
9.80717e-17
9.80907e-17
9.81127e-17
9.81383e-17
9.81809e-17
9.81121e-17
9.81075e-17
9.81179e-17
9.81357e-17
9.8157e-17
9.81821e-17
9.82609e-17
9.8168e-17
9.81565e-17
9.81652e-17
9.81822e-17
9.8203e-17
9.82276e-17
9.83298e-17
9.82208e-17
9.82051e-17
9.82134e-17
9.823e-17
9.82511e-17
9.82756e-17
9.83879e-17
9.82698e-17
9.82528e-17
9.82618e-17
9.8279e-17
9.83006e-17
9.83255e-17
9.84395e-17
9.83173e-17
9.83011e-17
9.83118e-17
9.83298e-17
9.83524e-17
9.83781e-17
9.84825e-17
9.83619e-17
9.83484e-17
9.83614e-17
9.83811e-17
9.84054e-17
9.84324e-17
9.852e-17
9.84064e-17
9.83968e-17
9.84126e-17
9.84345e-17
9.84606e-17
9.84891e-17
9.85473e-17
9.84477e-17
9.84435e-17
9.84628e-17
9.84877e-17
9.85163e-17
9.8547e-17
9.85687e-17
9.84887e-17
9.84919e-17
9.85156e-17
9.85443e-17
9.85759e-17
9.86087e-17
9.85851e-17
9.85272e-17
9.85396e-17
9.85708e-17
9.86073e-17
9.86453e-17
9.86822e-17
9.8621e-17
9.85766e-17
9.86035e-17
9.86556e-17
9.8715e-17
9.87707e-17
9.88145e-17
9.76268e-17
9.76255e-17
9.76338e-17
9.76453e-17
9.76605e-17
9.76793e-17
9.77014e-17
9.77262e-17
9.77534e-17
9.77822e-17
9.7812e-17
9.78423e-17
9.78703e-17
9.78999e-17
9.76855e-17
9.76778e-17
9.76849e-17
9.76942e-17
9.77087e-17
9.77268e-17
9.77483e-17
9.77726e-17
9.77993e-17
9.7828e-17
9.78577e-17
9.78884e-17
9.79166e-17
9.79483e-17
9.774e-17
9.773e-17
9.77363e-17
9.77456e-17
9.77599e-17
9.77775e-17
9.77983e-17
9.78217e-17
9.78471e-17
9.78747e-17
9.79036e-17
9.7934e-17
9.79622e-17
9.79938e-17
9.77945e-17
9.77841e-17
9.77895e-17
9.77988e-17
9.7813e-17
9.78305e-17
9.78512e-17
9.78744e-17
9.78996e-17
9.79268e-17
9.7955e-17
9.79847e-17
9.80128e-17
9.80439e-17
9.78465e-17
9.7838e-17
9.78431e-17
9.78534e-17
9.7868e-17
9.78859e-17
9.79066e-17
9.79297e-17
9.79545e-17
9.79811e-17
9.80088e-17
9.80377e-17
9.80656e-17
9.80963e-17
9.78993e-17
9.7893e-17
9.78986e-17
9.79103e-17
9.79256e-17
9.7944e-17
9.7965e-17
9.79881e-17
9.80131e-17
9.80396e-17
9.80672e-17
9.80956e-17
9.81234e-17
9.81531e-17
9.7951e-17
9.79472e-17
9.79546e-17
9.79681e-17
9.79847e-17
9.8004e-17
9.80255e-17
9.80488e-17
9.80738e-17
9.81002e-17
9.81277e-17
9.81556e-17
9.81835e-17
9.82115e-17
9.80037e-17
9.80025e-17
9.80122e-17
9.80276e-17
9.80455e-17
9.8066e-17
9.80881e-17
9.8112e-17
9.81373e-17
9.81637e-17
9.81914e-17
9.82189e-17
9.82471e-17
9.82735e-17
9.80548e-17
9.8057e-17
9.80695e-17
9.80872e-17
9.81069e-17
9.81288e-17
9.8152e-17
9.81766e-17
9.82024e-17
9.82287e-17
9.82563e-17
9.82832e-17
9.83117e-17
9.83364e-17
9.81068e-17
9.81129e-17
9.8128e-17
9.81479e-17
9.81694e-17
9.81928e-17
9.82172e-17
9.82426e-17
9.82689e-17
9.82954e-17
9.83232e-17
9.83499e-17
9.83788e-17
9.84016e-17
9.81565e-17
9.81669e-17
9.81849e-17
9.82074e-17
9.82313e-17
9.82565e-17
9.82826e-17
9.83091e-17
9.83362e-17
9.8363e-17
9.83911e-17
9.84176e-17
9.84467e-17
9.84671e-17
9.82065e-17
9.82219e-17
9.82432e-17
9.82683e-17
9.82944e-17
9.83212e-17
9.83486e-17
9.83759e-17
9.84036e-17
9.84308e-17
9.84592e-17
9.84859e-17
9.85148e-17
9.85338e-17
9.82506e-17
9.82716e-17
9.82974e-17
9.83258e-17
9.8355e-17
9.83846e-17
9.84143e-17
9.84432e-17
9.8472e-17
9.85e-17
9.85284e-17
9.85551e-17
9.85826e-17
9.85998e-17
9.82979e-17
9.83253e-17
9.83556e-17
9.83881e-17
9.8421e-17
9.8453e-17
9.84841e-17
9.85134e-17
9.85417e-17
9.85688e-17
9.85955e-17
9.86205e-17
9.86458e-17
9.86651e-17
9.74698e-17
9.74603e-17
9.74598e-17
9.74619e-17
9.7467e-17
9.74749e-17
9.7485e-17
9.74978e-17
9.75123e-17
9.75291e-17
9.75477e-17
9.75676e-17
9.75875e-17
9.76087e-17
9.75205e-17
9.75093e-17
9.75095e-17
9.75115e-17
9.75167e-17
9.75244e-17
9.75344e-17
9.7547e-17
9.75613e-17
9.75779e-17
9.75958e-17
9.76152e-17
9.76336e-17
9.76557e-17
9.75675e-17
9.75578e-17
9.75588e-17
9.7562e-17
9.75678e-17
9.7576e-17
9.75861e-17
9.75984e-17
9.76122e-17
9.76279e-17
9.76446e-17
9.76629e-17
9.76803e-17
9.77024e-17
9.76154e-17
9.76085e-17
9.76104e-17
9.76145e-17
9.7621e-17
9.76298e-17
9.76402e-17
9.76527e-17
9.76664e-17
9.76817e-17
9.76979e-17
9.77153e-17
9.77321e-17
9.77534e-17
9.76621e-17
9.7659e-17
9.76625e-17
9.76679e-17
9.76754e-17
9.7685e-17
9.7696e-17
9.77087e-17
9.77224e-17
9.77373e-17
9.7753e-17
9.77697e-17
9.77863e-17
9.78059e-17
9.77105e-17
9.77114e-17
9.77165e-17
9.77232e-17
9.77317e-17
9.77419e-17
9.77535e-17
9.77666e-17
9.77807e-17
9.77957e-17
9.78112e-17
9.78275e-17
9.78438e-17
9.78619e-17
9.77591e-17
9.77632e-17
9.77704e-17
9.77789e-17
9.77887e-17
9.77999e-17
9.78121e-17
9.78258e-17
9.78402e-17
9.78553e-17
9.78707e-17
9.78864e-17
9.79027e-17
9.79191e-17
9.78092e-17
9.78162e-17
9.78253e-17
9.78354e-17
9.78466e-17
9.78588e-17
9.78719e-17
9.78862e-17
9.79011e-17
9.79162e-17
9.79316e-17
9.79471e-17
9.79637e-17
9.79785e-17
9.78591e-17
9.78691e-17
9.788e-17
9.78921e-17
9.79047e-17
9.79182e-17
9.79324e-17
9.79473e-17
9.79625e-17
9.79774e-17
9.79928e-17
9.80079e-17
9.80248e-17
9.80383e-17
9.79105e-17
9.79231e-17
9.79353e-17
9.79491e-17
9.79632e-17
9.79779e-17
9.79933e-17
9.80089e-17
9.80244e-17
9.80396e-17
9.80551e-17
9.807e-17
9.80876e-17
9.80997e-17
9.7961e-17
9.79761e-17
9.799e-17
9.80058e-17
9.80215e-17
9.80376e-17
9.80541e-17
9.80704e-17
9.80865e-17
9.81018e-17
9.81175e-17
9.81321e-17
9.815e-17
9.81604e-17
9.80131e-17
9.80306e-17
9.80463e-17
9.80635e-17
9.80806e-17
9.80977e-17
9.81149e-17
9.81318e-17
9.81484e-17
9.81643e-17
9.81805e-17
9.81954e-17
9.82137e-17
9.82227e-17
9.80616e-17
9.8081e-17
9.80999e-17
9.81191e-17
9.81382e-17
9.81568e-17
9.81753e-17
9.81931e-17
9.82103e-17
9.82267e-17
9.8243e-17
9.82583e-17
9.82756e-17
9.82837e-17
9.8114e-17
9.81356e-17
9.81568e-17
9.81775e-17
9.8198e-17
9.82174e-17
9.82365e-17
9.82545e-17
9.82718e-17
9.82882e-17
9.83042e-17
9.83194e-17
9.83353e-17
9.83456e-17
9.7431e-17
9.74206e-17
9.74147e-17
9.74098e-17
9.74061e-17
9.74037e-17
9.74027e-17
9.74033e-17
9.74053e-17
9.74093e-17
9.74142e-17
9.74203e-17
9.7428e-17
9.74359e-17
9.74709e-17
9.74608e-17
9.74558e-17
9.74512e-17
9.74479e-17
9.74457e-17
9.7445e-17
9.74456e-17
9.74477e-17
9.74514e-17
9.74561e-17
9.7462e-17
9.74678e-17
9.74779e-17
9.75084e-17
9.74989e-17
9.74955e-17
9.74923e-17
9.74901e-17
9.74888e-17
9.74885e-17
9.74892e-17
9.74911e-17
9.74943e-17
9.74983e-17
9.75031e-17
9.75081e-17
9.7518e-17
9.75466e-17
9.75391e-17
9.75371e-17
9.75348e-17
9.75337e-17
9.75331e-17
9.75332e-17
9.7534e-17
9.75358e-17
9.75389e-17
9.75425e-17
9.75469e-17
9.75512e-17
9.75598e-17
9.75835e-17
9.75789e-17
9.75784e-17
9.75774e-17
9.75774e-17
9.75777e-17
9.75784e-17
9.75797e-17
9.75815e-17
9.75842e-17
9.75875e-17
9.75913e-17
9.75951e-17
9.76021e-17
9.76222e-17
9.76201e-17
9.76208e-17
9.76209e-17
9.76218e-17
9.76228e-17
9.76242e-17
9.76258e-17
9.76278e-17
9.76304e-17
9.76335e-17
9.7637e-17
9.76407e-17
9.76457e-17
9.76607e-17
9.7661e-17
9.76629e-17
9.76644e-17
9.76662e-17
9.76681e-17
9.76701e-17
9.76724e-17
9.76747e-17
9.76772e-17
9.76801e-17
9.76833e-17
9.76869e-17
9.76904e-17
9.77001e-17
9.77028e-17
9.77059e-17
9.77085e-17
9.77112e-17
9.77139e-17
9.77166e-17
9.77193e-17
9.7722e-17
9.77246e-17
9.77276e-17
9.77308e-17
9.77346e-17
9.77365e-17
9.77402e-17
9.77449e-17
9.7749e-17
9.77531e-17
9.77567e-17
9.77602e-17
9.77635e-17
9.77667e-17
9.77697e-17
9.77724e-17
9.77757e-17
9.77792e-17
9.77833e-17
9.77833e-17
9.77824e-17
9.77881e-17
9.77928e-17
9.77981e-17
9.78026e-17
9.78069e-17
9.78109e-17
9.78145e-17
9.78178e-17
9.7821e-17
9.78249e-17
9.78286e-17
9.7833e-17
9.7832e-17
9.78251e-17
9.78317e-17
9.78373e-17
9.78437e-17
9.78492e-17
9.78542e-17
9.78587e-17
9.78626e-17
9.78663e-17
9.787e-17
9.78743e-17
9.78782e-17
9.78824e-17
9.78807e-17
9.78696e-17
9.78767e-17
9.7883e-17
9.78901e-17
9.78962e-17
9.79018e-17
9.79068e-17
9.79111e-17
9.79155e-17
9.79199e-17
9.79246e-17
9.79288e-17
9.79336e-17
9.79311e-17
9.79127e-17
9.79204e-17
9.79283e-17
9.79365e-17
9.79435e-17
9.79498e-17
9.79553e-17
9.79601e-17
9.79648e-17
9.79695e-17
9.79739e-17
9.7978e-17
9.79826e-17
9.79799e-17
9.79597e-17
9.79667e-17
9.79767e-17
9.79846e-17
9.79921e-17
9.79986e-17
9.80045e-17
9.80096e-17
9.80145e-17
9.80193e-17
9.80236e-17
9.80281e-17
9.80328e-17
9.80325e-17
9.74411e-17
9.74311e-17
9.74231e-17
9.74146e-17
9.74065e-17
9.73983e-17
9.73908e-17
9.73838e-17
9.73778e-17
9.73723e-17
9.73677e-17
9.73636e-17
9.73602e-17
9.73589e-17
9.74708e-17
9.74601e-17
9.74527e-17
9.74441e-17
9.74362e-17
9.74282e-17
9.74209e-17
9.74139e-17
9.74077e-17
9.74018e-17
9.73964e-17
9.73917e-17
9.7387e-17
9.73885e-17
9.74958e-17
9.7486e-17
9.74797e-17
9.7472e-17
9.74649e-17
9.74576e-17
9.74508e-17
9.74439e-17
9.74377e-17
9.74314e-17
9.74252e-17
9.74196e-17
9.74141e-17
9.74152e-17
9.75216e-17
9.75132e-17
9.75078e-17
9.75007e-17
9.74942e-17
9.74872e-17
9.74805e-17
9.74737e-17
9.74673e-17
9.74609e-17
9.74544e-17
9.74486e-17
9.74425e-17
9.74421e-17
9.75462e-17
9.75397e-17
9.75351e-17
9.7529e-17
9.75231e-17
9.75167e-17
9.75104e-17
9.75038e-17
9.74974e-17
9.74909e-17
9.74844e-17
9.74783e-17
9.74716e-17
9.74689e-17
9.75724e-17
9.75674e-17
9.75634e-17
9.75579e-17
9.75526e-17
9.75466e-17
9.75405e-17
9.75341e-17
9.75276e-17
9.7521e-17
9.75145e-17
9.75081e-17
9.75012e-17
9.74964e-17
9.75989e-17
9.75953e-17
9.75917e-17
9.7587e-17
9.7582e-17
9.75766e-17
9.75708e-17
9.75646e-17
9.75582e-17
9.75515e-17
9.75448e-17
9.75379e-17
9.75309e-17
9.75247e-17
9.76265e-17
9.7624e-17
9.76207e-17
9.76167e-17
9.7612e-17
9.76069e-17
9.76013e-17
9.75953e-17
9.75888e-17
9.75819e-17
9.75751e-17
9.75678e-17
9.7561e-17
9.75537e-17
9.76548e-17
9.76532e-17
9.76502e-17
9.76468e-17
9.76424e-17
9.76376e-17
9.76321e-17
9.76262e-17
9.76198e-17
9.76128e-17
9.7606e-17
9.75983e-17
9.75917e-17
9.75834e-17
9.76844e-17
9.76835e-17
9.76806e-17
9.76777e-17
9.76735e-17
9.76689e-17
9.76634e-17
9.76575e-17
9.7651e-17
9.7644e-17
9.76372e-17
9.76293e-17
9.76231e-17
9.76143e-17
9.77149e-17
9.77147e-17
9.7712e-17
9.77095e-17
9.77054e-17
9.77008e-17
9.76953e-17
9.76893e-17
9.76829e-17
9.76758e-17
9.76692e-17
9.76611e-17
9.76554e-17
9.76468e-17
9.77469e-17
9.77469e-17
9.77442e-17
9.77416e-17
9.77377e-17
9.77332e-17
9.77278e-17
9.77219e-17
9.77157e-17
9.77088e-17
9.77022e-17
9.76942e-17
9.76889e-17
9.76807e-17
9.77792e-17
9.77795e-17
9.77773e-17
9.7775e-17
9.7771e-17
9.77664e-17
9.77609e-17
9.77548e-17
9.77485e-17
9.77415e-17
9.77347e-17
9.77272e-17
9.77221e-17
9.77133e-17
9.78158e-17
9.78126e-17
9.78105e-17
9.78081e-17
9.78043e-17
9.77997e-17
9.77946e-17
9.77887e-17
9.77826e-17
9.77757e-17
9.77689e-17
9.77622e-17
9.77574e-17
9.77502e-17
9.74615e-17
9.74506e-17
9.74414e-17
9.7431e-17
9.74206e-17
9.74094e-17
9.73985e-17
9.73872e-17
9.73763e-17
9.73649e-17
9.73546e-17
9.73438e-17
9.73335e-17
9.73225e-17
9.74774e-17
9.74668e-17
9.74584e-17
9.7448e-17
9.74376e-17
9.74264e-17
9.74152e-17
9.74035e-17
9.73922e-17
9.73805e-17
9.73697e-17
9.73586e-17
9.73479e-17
9.73377e-17
9.74909e-17
9.74811e-17
9.7473e-17
9.74629e-17
9.74528e-17
9.7442e-17
9.74312e-17
9.74198e-17
9.74086e-17
9.73969e-17
9.73857e-17
9.73742e-17
9.73627e-17
9.73525e-17
9.75055e-17
9.74965e-17
9.74885e-17
9.74786e-17
9.74686e-17
9.74579e-17
9.74471e-17
9.74357e-17
9.74243e-17
9.74125e-17
9.74008e-17
9.73889e-17
9.7377e-17
9.73664e-17
9.75193e-17
9.75112e-17
9.75034e-17
9.74939e-17
9.74842e-17
9.74736e-17
9.74628e-17
9.74513e-17
9.74398e-17
9.74277e-17
9.74157e-17
9.74035e-17
9.7391e-17
9.73797e-17
9.75341e-17
9.75267e-17
9.75189e-17
9.75097e-17
9.75e-17
9.74894e-17
9.74784e-17
9.74668e-17
9.74549e-17
9.74426e-17
9.74303e-17
9.74177e-17
9.7405e-17
9.73929e-17
9.75494e-17
9.75426e-17
9.75346e-17
9.75256e-17
9.75158e-17
9.75053e-17
9.74942e-17
9.74824e-17
9.74703e-17
9.74577e-17
9.7445e-17
9.74321e-17
9.7419e-17
9.74062e-17
9.75656e-17
9.75591e-17
9.7551e-17
9.75421e-17
9.75321e-17
9.75214e-17
9.751e-17
9.7498e-17
9.74855e-17
9.74726e-17
9.74596e-17
9.74462e-17
9.74329e-17
9.74196e-17
9.75822e-17
9.75757e-17
9.75674e-17
9.75586e-17
9.75483e-17
9.75375e-17
9.75258e-17
9.75137e-17
9.7501e-17
9.7488e-17
9.74747e-17
9.74609e-17
9.74473e-17
9.74331e-17
9.75994e-17
9.75929e-17
9.75844e-17
9.75755e-17
9.75651e-17
9.7554e-17
9.75419e-17
9.75294e-17
9.75164e-17
9.75031e-17
9.74895e-17
9.74755e-17
9.74618e-17
9.7447e-17
9.7617e-17
9.76104e-17
9.76016e-17
9.75924e-17
9.75816e-17
9.75703e-17
9.75579e-17
9.75453e-17
9.75321e-17
9.75186e-17
9.75049e-17
9.74903e-17
9.74764e-17
9.74607e-17
9.76354e-17
9.76285e-17
9.76193e-17
9.76098e-17
9.75988e-17
9.75872e-17
9.75746e-17
9.75614e-17
9.75477e-17
9.75336e-17
9.75195e-17
9.75047e-17
9.74909e-17
9.74745e-17
9.76545e-17
9.76477e-17
9.76383e-17
9.76282e-17
9.76165e-17
9.76042e-17
9.75912e-17
9.75778e-17
9.75638e-17
9.75492e-17
9.75346e-17
9.7519e-17
9.7505e-17
9.74888e-17
9.7676e-17
9.7666e-17
9.76558e-17
9.76454e-17
9.7634e-17
9.76216e-17
9.76086e-17
9.75949e-17
9.7581e-17
9.75664e-17
9.75519e-17
9.75365e-17
9.7522e-17
9.75059e-17
9.74721e-17
9.74613e-17
9.74515e-17
9.74401e-17
9.7428e-17
9.74148e-17
9.74012e-17
9.73869e-17
9.73727e-17
9.73574e-17
9.7343e-17
9.73272e-17
9.73128e-17
9.72958e-17
9.74761e-17
9.74656e-17
9.74565e-17
9.74449e-17
9.74328e-17
9.74196e-17
9.74057e-17
9.73911e-17
9.73765e-17
9.7361e-17
9.73463e-17
9.73306e-17
9.73162e-17
9.73004e-17
9.7479e-17
9.74695e-17
9.74601e-17
9.74486e-17
9.74365e-17
9.74234e-17
9.74099e-17
9.73954e-17
9.73808e-17
9.73654e-17
9.73506e-17
9.73351e-17
9.73203e-17
9.73046e-17
9.74833e-17
9.74742e-17
9.74645e-17
9.74529e-17
9.74407e-17
9.74275e-17
9.74139e-17
9.73995e-17
9.73848e-17
9.73694e-17
9.73544e-17
9.73387e-17
9.73236e-17
9.7308e-17
9.74872e-17
9.74785e-17
9.74686e-17
9.7457e-17
9.74447e-17
9.74314e-17
9.74177e-17
9.74031e-17
9.73883e-17
9.73727e-17
9.73572e-17
9.73412e-17
9.73254e-17
9.73095e-17
9.74916e-17
9.74829e-17
9.74726e-17
9.7461e-17
9.74483e-17
9.74349e-17
9.74208e-17
9.7406e-17
9.73908e-17
9.7375e-17
9.73592e-17
9.73429e-17
9.73268e-17
9.73105e-17
9.74962e-17
9.74872e-17
9.74765e-17
9.74647e-17
9.74518e-17
9.7438e-17
9.74235e-17
9.74084e-17
9.73929e-17
9.73768e-17
9.73606e-17
9.73441e-17
9.73275e-17
9.73108e-17
9.75009e-17
9.74916e-17
9.74804e-17
9.74683e-17
9.74549e-17
9.74408e-17
9.74258e-17
9.74103e-17
9.73943e-17
9.7378e-17
9.73614e-17
9.73446e-17
9.73277e-17
9.73107e-17
9.75059e-17
9.7496e-17
9.74842e-17
9.74717e-17
9.74578e-17
9.74433e-17
9.74279e-17
9.74121e-17
9.73956e-17
9.73789e-17
9.73618e-17
9.73447e-17
9.73273e-17
9.73101e-17
9.75109e-17
9.75003e-17
9.74879e-17
9.74749e-17
9.74605e-17
9.74456e-17
9.74298e-17
9.74135e-17
9.73966e-17
9.73795e-17
9.73621e-17
9.73447e-17
9.73267e-17
9.73094e-17
9.75163e-17
9.75049e-17
9.74919e-17
9.74781e-17
9.74631e-17
9.74477e-17
9.74313e-17
9.74147e-17
9.73973e-17
9.73798e-17
9.73619e-17
9.73441e-17
9.73257e-17
9.73079e-17
9.75215e-17
9.75096e-17
9.7496e-17
9.74815e-17
9.74659e-17
9.74498e-17
9.74331e-17
9.74158e-17
9.73978e-17
9.73799e-17
9.73616e-17
9.73433e-17
9.73245e-17
9.73062e-17
9.75264e-17
9.75136e-17
9.74997e-17
9.74843e-17
9.74682e-17
9.74515e-17
9.74344e-17
9.7417e-17
9.73987e-17
9.73802e-17
9.73615e-17
9.73425e-17
9.7323e-17
9.73031e-17
9.75311e-17
9.75165e-17
9.75024e-17
9.74869e-17
9.74707e-17
9.74537e-17
9.7436e-17
9.74183e-17
9.74002e-17
9.73818e-17
9.7363e-17
9.7344e-17
9.73242e-17
9.73043e-17
9.7455e-17
9.74452e-17
9.7435e-17
9.74229e-17
9.74098e-17
9.73954e-17
9.73801e-17
9.73638e-17
9.7347e-17
9.73292e-17
9.73121e-17
9.72933e-17
9.72757e-17
9.72546e-17
9.74504e-17
9.74404e-17
9.74304e-17
9.74181e-17
9.74048e-17
9.73903e-17
9.73748e-17
9.73584e-17
9.73417e-17
9.73239e-17
9.73064e-17
9.72875e-17
9.727e-17
9.72507e-17
9.74436e-17
9.74346e-17
9.74239e-17
9.74115e-17
9.73982e-17
9.73838e-17
9.73686e-17
9.73523e-17
9.73355e-17
9.73178e-17
9.73003e-17
9.72817e-17
9.72641e-17
9.7245e-17
9.74374e-17
9.74284e-17
9.74172e-17
9.74047e-17
9.73912e-17
9.73767e-17
9.73614e-17
9.73451e-17
9.73283e-17
9.73106e-17
9.72931e-17
9.72748e-17
9.72573e-17
9.72386e-17
9.74309e-17
9.74217e-17
9.74102e-17
9.73976e-17
9.73839e-17
9.73693e-17
9.73538e-17
9.73374e-17
9.73204e-17
9.73027e-17
9.7285e-17
9.72666e-17
9.72488e-17
9.72301e-17
9.74244e-17
9.74146e-17
9.74028e-17
9.739e-17
9.73759e-17
9.7361e-17
9.73452e-17
9.73286e-17
9.73115e-17
9.72937e-17
9.72758e-17
9.72574e-17
9.72393e-17
9.72206e-17
9.74182e-17
9.74078e-17
9.73955e-17
9.73823e-17
9.73678e-17
9.73525e-17
9.73363e-17
9.73194e-17
9.7302e-17
9.72841e-17
9.7266e-17
9.72475e-17
9.72291e-17
9.72103e-17
9.74114e-17
9.74003e-17
9.73875e-17
9.73737e-17
9.73587e-17
9.7343e-17
9.73265e-17
9.73094e-17
9.72917e-17
9.72736e-17
9.72552e-17
9.72367e-17
9.72179e-17
9.71991e-17
9.74053e-17
9.73932e-17
9.73797e-17
9.73653e-17
9.73497e-17
9.73335e-17
9.73164e-17
9.72989e-17
9.72807e-17
9.72623e-17
9.72435e-17
9.72249e-17
9.72057e-17
9.71873e-17
9.73983e-17
9.73851e-17
9.73709e-17
9.73558e-17
9.73398e-17
9.7323e-17
9.73056e-17
9.72878e-17
9.72693e-17
9.72507e-17
9.72316e-17
9.72127e-17
9.71929e-17
9.71747e-17
9.73917e-17
9.73772e-17
9.73625e-17
9.73467e-17
9.733e-17
9.73127e-17
9.72946e-17
9.72762e-17
9.72571e-17
9.72381e-17
9.72185e-17
9.71995e-17
9.71792e-17
9.71613e-17
9.73839e-17
9.73682e-17
9.7353e-17
9.73365e-17
9.73193e-17
9.73015e-17
9.7283e-17
9.72643e-17
9.72449e-17
9.72256e-17
9.72057e-17
9.71863e-17
9.71654e-17
9.71474e-17
9.73757e-17
9.73591e-17
9.73435e-17
9.73265e-17
9.73088e-17
9.72904e-17
9.72713e-17
9.72518e-17
9.72317e-17
9.72118e-17
9.71913e-17
9.71714e-17
9.71501e-17
9.71315e-17
9.73662e-17
9.7349e-17
9.7333e-17
9.73154e-17
9.72971e-17
9.72782e-17
9.72587e-17
9.72393e-17
9.72194e-17
9.71995e-17
9.71791e-17
9.7159e-17
9.71376e-17
9.71177e-17
9.73873e-17
9.73778e-17
9.73673e-17
9.73551e-17
9.73419e-17
9.73274e-17
9.73118e-17
9.72952e-17
9.72776e-17
9.7259e-17
9.72404e-17
9.72202e-17
9.72013e-17
9.71791e-17
9.73718e-17
9.7363e-17
9.73525e-17
9.73405e-17
9.7327e-17
9.73125e-17
9.72968e-17
9.728e-17
9.72623e-17
9.72437e-17
9.72249e-17
9.72051e-17
9.71862e-17
9.71657e-17
9.73559e-17
9.73476e-17
9.73364e-17
9.73242e-17
9.73107e-17
9.72964e-17
9.72809e-17
9.72645e-17
9.72471e-17
9.72287e-17
9.72101e-17
9.71907e-17
9.7172e-17
9.71518e-17
9.73401e-17
9.73316e-17
9.732e-17
9.73078e-17
9.72941e-17
9.72797e-17
9.72641e-17
9.72476e-17
9.72302e-17
9.7212e-17
9.71936e-17
9.71745e-17
9.7156e-17
9.71365e-17
9.73244e-17
9.73153e-17
9.73033e-17
9.72909e-17
9.7277e-17
9.72624e-17
9.72468e-17
9.72303e-17
9.72131e-17
9.71951e-17
9.71768e-17
9.71579e-17
9.71395e-17
9.71201e-17
9.73083e-17
9.72983e-17
9.72861e-17
9.72733e-17
9.72592e-17
9.72444e-17
9.72285e-17
9.7212e-17
9.71947e-17
9.71767e-17
9.71586e-17
9.71398e-17
9.71213e-17
9.71022e-17
9.72925e-17
9.72816e-17
9.72689e-17
9.72556e-17
9.72411e-17
9.72259e-17
9.72099e-17
9.71932e-17
9.71758e-17
9.71579e-17
9.71398e-17
9.71212e-17
9.71027e-17
9.70838e-17
9.72757e-17
9.72638e-17
9.72508e-17
9.72369e-17
9.72221e-17
9.72066e-17
9.71903e-17
9.71735e-17
9.7156e-17
9.71381e-17
9.71198e-17
9.71013e-17
9.70826e-17
9.7064e-17
9.72595e-17
9.72465e-17
9.72329e-17
9.72184e-17
9.72031e-17
9.71871e-17
9.71705e-17
9.71533e-17
9.71355e-17
9.71174e-17
9.70989e-17
9.70805e-17
9.70616e-17
9.70437e-17
9.7242e-17
9.72278e-17
9.72138e-17
9.71986e-17
9.71829e-17
9.71666e-17
9.71497e-17
9.71324e-17
9.71143e-17
9.70962e-17
9.70774e-17
9.7059e-17
9.70396e-17
9.70224e-17
9.72251e-17
9.72096e-17
9.7195e-17
9.71792e-17
9.7163e-17
9.71461e-17
9.71287e-17
9.71108e-17
9.70923e-17
9.70738e-17
9.70546e-17
9.70362e-17
9.70166e-17
9.70003e-17
9.72059e-17
9.71896e-17
9.71746e-17
9.71583e-17
9.71416e-17
9.71244e-17
9.71068e-17
9.70888e-17
9.70702e-17
9.70515e-17
9.70322e-17
9.70137e-17
9.69936e-17
9.69776e-17
9.7188e-17
9.71706e-17
9.71548e-17
9.71381e-17
9.71209e-17
9.71031e-17
9.70847e-17
9.70659e-17
9.70465e-17
9.70273e-17
9.70075e-17
9.69886e-17
9.69684e-17
9.69526e-17
9.71662e-17
9.71485e-17
9.71324e-17
9.71154e-17
9.70978e-17
9.708e-17
9.70616e-17
9.70431e-17
9.7024e-17
9.70049e-17
9.69853e-17
9.69663e-17
9.69462e-17
9.6929e-17
9.72391e-17
9.72303e-17
9.72202e-17
9.72098e-17
9.71982e-17
9.71858e-17
9.71723e-17
9.71579e-17
9.71424e-17
9.71262e-17
9.71091e-17
9.70911e-17
9.70731e-17
9.70526e-17
9.72163e-17
9.72092e-17
9.7199e-17
9.71886e-17
9.71767e-17
9.71641e-17
9.71503e-17
9.71356e-17
9.71199e-17
9.71034e-17
9.70863e-17
9.70685e-17
9.70508e-17
9.7032e-17
9.71941e-17
9.71872e-17
9.71763e-17
9.71658e-17
9.71538e-17
9.71413e-17
9.71277e-17
9.71133e-17
9.7098e-17
9.70819e-17
9.70653e-17
9.70479e-17
9.70308e-17
9.70125e-17
9.71719e-17
9.71647e-17
9.71537e-17
9.71429e-17
9.71308e-17
9.71181e-17
9.71043e-17
9.70899e-17
9.70746e-17
9.70585e-17
9.70421e-17
9.70249e-17
9.70082e-17
9.69904e-17
9.715e-17
9.71418e-17
9.71306e-17
9.71195e-17
9.71071e-17
9.70943e-17
9.70805e-17
9.70661e-17
9.70511e-17
9.70353e-17
9.70192e-17
9.70024e-17
9.69859e-17
9.69686e-17
9.71275e-17
9.71183e-17
9.71069e-17
9.70955e-17
9.7083e-17
9.707e-17
9.70561e-17
9.70417e-17
9.70266e-17
9.70109e-17
9.6995e-17
9.69784e-17
9.69621e-17
9.69452e-17
9.71051e-17
9.70949e-17
9.70833e-17
9.70714e-17
9.70586e-17
9.70453e-17
9.70313e-17
9.70168e-17
9.70017e-17
9.69862e-17
9.69704e-17
9.69542e-17
9.69381e-17
9.69216e-17
9.70816e-17
9.70704e-17
9.70587e-17
9.70463e-17
9.70334e-17
9.70199e-17
9.70058e-17
9.69912e-17
9.69761e-17
9.69606e-17
9.69448e-17
9.69289e-17
9.69128e-17
9.68968e-17
9.70583e-17
9.70461e-17
9.70341e-17
9.70212e-17
9.7008e-17
9.69941e-17
9.69799e-17
9.69651e-17
9.69499e-17
9.69344e-17
9.69186e-17
9.6903e-17
9.68869e-17
9.68719e-17
9.70336e-17
9.70204e-17
9.70082e-17
9.69949e-17
9.69816e-17
9.69675e-17
9.69532e-17
9.69384e-17
9.69231e-17
9.69077e-17
9.68917e-17
9.68762e-17
9.68599e-17
9.68459e-17
9.70095e-17
9.69954e-17
9.69828e-17
9.6969e-17
9.69553e-17
9.69409e-17
9.69262e-17
9.69111e-17
9.68956e-17
9.68801e-17
9.6864e-17
9.68486e-17
9.68324e-17
9.68198e-17
9.69833e-17
9.69683e-17
9.69554e-17
9.69415e-17
9.69276e-17
9.69132e-17
9.68985e-17
9.68834e-17
9.68679e-17
9.68523e-17
9.68362e-17
9.6821e-17
9.68046e-17
9.67927e-17
9.69587e-17
9.6943e-17
9.69295e-17
9.69152e-17
9.69007e-17
9.68858e-17
9.68706e-17
9.6855e-17
9.68391e-17
9.68231e-17
9.68067e-17
9.67915e-17
9.67756e-17
9.67643e-17
9.69289e-17
9.69142e-17
9.69002e-17
9.68861e-17
9.68715e-17
9.68568e-17
9.68418e-17
9.68267e-17
9.68111e-17
9.67954e-17
9.67794e-17
9.67642e-17
9.67484e-17
9.67363e-17
9.70052e-17
9.69985e-17
9.69903e-17
9.69828e-17
9.69744e-17
9.69658e-17
9.69565e-17
9.69466e-17
9.69359e-17
9.69248e-17
9.69127e-17
9.69004e-17
9.68876e-17
9.68734e-17
9.69803e-17
9.69754e-17
9.69671e-17
9.69592e-17
9.69505e-17
9.69416e-17
9.69319e-17
9.69216e-17
9.69106e-17
9.68991e-17
9.68871e-17
9.68745e-17
9.68618e-17
9.68475e-17
9.69563e-17
9.69515e-17
9.69425e-17
9.69345e-17
9.69256e-17
9.69166e-17
9.69069e-17
9.68967e-17
9.6886e-17
9.68748e-17
9.68632e-17
9.6851e-17
9.68387e-17
9.6825e-17
9.69322e-17
9.69268e-17
9.69179e-17
9.69096e-17
9.69006e-17
9.68914e-17
9.68817e-17
9.68714e-17
9.68606e-17
9.68494e-17
9.68379e-17
9.68257e-17
9.68137e-17
9.68005e-17
9.69084e-17
9.69021e-17
9.6893e-17
9.68844e-17
9.68752e-17
9.68658e-17
9.6856e-17
9.68457e-17
9.68351e-17
9.6824e-17
9.68127e-17
9.68009e-17
9.67893e-17
9.67766e-17
9.68838e-17
9.68765e-17
9.68675e-17
9.68587e-17
9.68494e-17
9.68399e-17
9.683e-17
9.68197e-17
9.68091e-17
9.67982e-17
9.6787e-17
9.67754e-17
9.6764e-17
9.67517e-17
9.6859e-17
9.68508e-17
9.68418e-17
9.68328e-17
9.68234e-17
9.68137e-17
9.68037e-17
9.67934e-17
9.67828e-17
9.6772e-17
9.67609e-17
9.67497e-17
9.67385e-17
9.6727e-17
9.68331e-17
9.68243e-17
9.68154e-17
9.68061e-17
9.67967e-17
9.6787e-17
9.6777e-17
9.67667e-17
9.67561e-17
9.67453e-17
9.67344e-17
9.67234e-17
9.67123e-17
9.67015e-17
9.68073e-17
9.67977e-17
9.67888e-17
9.67793e-17
9.67698e-17
9.676e-17
9.67499e-17
9.67396e-17
9.6729e-17
9.67184e-17
9.67075e-17
9.66968e-17
9.66861e-17
9.66764e-17
9.67803e-17
9.67701e-17
9.67613e-17
9.67517e-17
9.67423e-17
9.67325e-17
9.67224e-17
9.67121e-17
9.67016e-17
9.66911e-17
9.66803e-17
9.66697e-17
9.66591e-17
9.66506e-17
9.6754e-17
9.6743e-17
9.67341e-17
9.67243e-17
9.67148e-17
9.67048e-17
9.66947e-17
9.66844e-17
9.66739e-17
9.66635e-17
9.66529e-17
9.66427e-17
9.66323e-17
9.66253e-17
9.67261e-17
9.67148e-17
9.67058e-17
9.6696e-17
9.66864e-17
9.66766e-17
9.66666e-17
9.66563e-17
9.66459e-17
9.66357e-17
9.66254e-17
9.66157e-17
9.66052e-17
9.65991e-17
9.66995e-17
9.66883e-17
9.66787e-17
9.66688e-17
9.66588e-17
9.66487e-17
9.66386e-17
9.66281e-17
9.66176e-17
9.66074e-17
9.65973e-17
9.65884e-17
9.65785e-17
9.65732e-17
9.66686e-17
9.6659e-17
9.6649e-17
9.66395e-17
9.66297e-17
9.662e-17
9.66102e-17
9.66001e-17
9.65901e-17
9.65801e-17
9.65704e-17
9.65614e-17
9.6552e-17
9.65464e-17
9.67045e-17
9.67002e-17
9.66948e-17
9.6691e-17
9.66869e-17
9.6683e-17
9.66788e-17
9.66746e-17
9.66701e-17
9.66655e-17
9.66605e-17
9.66553e-17
9.66497e-17
9.66452e-17
9.66817e-17
9.6679e-17
9.66735e-17
9.66694e-17
9.66652e-17
9.66609e-17
9.66565e-17
9.6652e-17
9.66472e-17
9.66422e-17
9.66368e-17
9.66311e-17
9.66255e-17
9.66195e-17
9.66602e-17
9.66575e-17
9.66518e-17
9.66474e-17
9.66429e-17
9.66385e-17
9.6634e-17
9.66293e-17
9.66244e-17
9.66194e-17
9.66142e-17
9.66086e-17
9.66033e-17
9.65971e-17
9.66381e-17
9.66351e-17
9.66295e-17
9.6625e-17
9.66205e-17
9.6616e-17
9.66113e-17
9.66066e-17
9.66016e-17
9.65966e-17
9.65914e-17
9.65858e-17
9.65805e-17
9.65741e-17
9.66164e-17
9.66129e-17
9.66073e-17
9.66026e-17
9.65979e-17
9.65932e-17
9.65885e-17
9.65836e-17
9.65787e-17
9.65737e-17
9.65686e-17
9.65633e-17
9.65583e-17
9.65522e-17
9.65939e-17
9.65898e-17
9.65845e-17
9.65797e-17
9.6575e-17
9.65703e-17
9.65655e-17
9.65607e-17
9.65558e-17
9.65509e-17
9.65459e-17
9.65408e-17
9.65359e-17
9.65302e-17
9.65713e-17
9.65665e-17
9.65615e-17
9.65566e-17
9.65519e-17
9.65471e-17
9.65424e-17
9.65376e-17
9.65328e-17
9.65281e-17
9.65232e-17
9.65184e-17
9.65136e-17
9.65086e-17
9.6548e-17
9.65428e-17
9.6538e-17
9.65332e-17
9.65285e-17
9.65238e-17
9.65191e-17
9.65145e-17
9.65098e-17
9.65051e-17
9.65005e-17
9.64959e-17
9.64912e-17
9.6487e-17
9.65248e-17
9.6519e-17
9.65143e-17
9.65096e-17
9.6505e-17
9.65004e-17
9.64958e-17
9.64913e-17
9.64867e-17
9.64822e-17
9.64777e-17
9.64734e-17
9.6469e-17
9.64658e-17
9.65011e-17
9.64948e-17
9.64904e-17
9.64858e-17
9.64813e-17
9.64768e-17
9.64724e-17
9.6468e-17
9.64636e-17
9.64592e-17
9.64548e-17
9.64507e-17
9.64466e-17
9.64447e-17
9.64778e-17
9.64712e-17
9.64669e-17
9.64622e-17
9.64577e-17
9.64533e-17
9.6449e-17
9.64448e-17
9.64406e-17
9.64365e-17
9.64323e-17
9.64285e-17
9.64247e-17
9.64245e-17
9.64538e-17
9.64471e-17
9.64429e-17
9.64384e-17
9.6434e-17
9.64298e-17
9.64257e-17
9.64216e-17
9.64177e-17
9.64139e-17
9.64099e-17
9.64064e-17
9.64029e-17
9.64035e-17
9.64313e-17
9.64245e-17
9.642e-17
9.64154e-17
9.64109e-17
9.64066e-17
9.64026e-17
9.63987e-17
9.6395e-17
9.63915e-17
9.63881e-17
9.6385e-17
9.63823e-17
9.63838e-17
9.64062e-17
9.64006e-17
9.63958e-17
9.63916e-17
9.63875e-17
9.63834e-17
9.63797e-17
9.63761e-17
9.63728e-17
9.63698e-17
9.63667e-17
9.63639e-17
9.63616e-17
9.63622e-17
9.63627e-17
9.63613e-17
9.63599e-17
9.63595e-17
9.63596e-17
9.63601e-17
9.6361e-17
9.63622e-17
9.63636e-17
9.63653e-17
9.6367e-17
9.6369e-17
9.63719e-17
9.63743e-17
9.63444e-17
9.63449e-17
9.63441e-17
9.63435e-17
9.63434e-17
9.63438e-17
9.63444e-17
9.63455e-17
9.63468e-17
9.63483e-17
9.63498e-17
9.63512e-17
9.63533e-17
9.63538e-17
9.63284e-17
9.6329e-17
9.6328e-17
9.63275e-17
9.63271e-17
9.63273e-17
9.63278e-17
9.63287e-17
9.63298e-17
9.63311e-17
9.63325e-17
9.63337e-17
9.63358e-17
9.63359e-17
9.6312e-17
9.63123e-17
9.63115e-17
9.63111e-17
9.63107e-17
9.63109e-17
9.63114e-17
9.63122e-17
9.63132e-17
9.63143e-17
9.63157e-17
9.63168e-17
9.63186e-17
9.63184e-17
9.62959e-17
9.62959e-17
9.6295e-17
9.62946e-17
9.62942e-17
9.62945e-17
9.62949e-17
9.62957e-17
9.62966e-17
9.62977e-17
9.6299e-17
9.63003e-17
9.6302e-17
9.63023e-17
9.62795e-17
9.62791e-17
9.62783e-17
9.6278e-17
9.62778e-17
9.62781e-17
9.62786e-17
9.62794e-17
9.62803e-17
9.62813e-17
9.62826e-17
9.6284e-17
9.62856e-17
9.62866e-17
9.62631e-17
9.62622e-17
9.62616e-17
9.62613e-17
9.62613e-17
9.62617e-17
9.62623e-17
9.62631e-17
9.62641e-17
9.62653e-17
9.62666e-17
9.62681e-17
9.62698e-17
9.62714e-17
9.62463e-17
9.62453e-17
9.62449e-17
9.62447e-17
9.62449e-17
9.62454e-17
9.6246e-17
9.6247e-17
9.62481e-17
9.62494e-17
9.62509e-17
9.62526e-17
9.62543e-17
9.62564e-17
9.62296e-17
9.62286e-17
9.62283e-17
9.62282e-17
9.62285e-17
9.62291e-17
9.62299e-17
9.6231e-17
9.62323e-17
9.62338e-17
9.62355e-17
9.62375e-17
9.62393e-17
9.6242e-17
9.62129e-17
9.62117e-17
9.62118e-17
9.62118e-17
9.62123e-17
9.6213e-17
9.6214e-17
9.62153e-17
9.62167e-17
9.62185e-17
9.62204e-17
9.62227e-17
9.62248e-17
9.62281e-17
9.6197e-17
9.61953e-17
9.61955e-17
9.61957e-17
9.61963e-17
9.61973e-17
9.61985e-17
9.61999e-17
9.62016e-17
9.62036e-17
9.62059e-17
9.62085e-17
9.6211e-17
9.62149e-17
9.61814e-17
9.61792e-17
9.61796e-17
9.61799e-17
9.61807e-17
9.61818e-17
9.61832e-17
9.61849e-17
9.61868e-17
9.61891e-17
9.61916e-17
9.61946e-17
9.61974e-17
9.62019e-17
9.61665e-17
9.61641e-17
9.61645e-17
9.61648e-17
9.61657e-17
9.61669e-17
9.61684e-17
9.61704e-17
9.61726e-17
9.61752e-17
9.6178e-17
9.61815e-17
9.61849e-17
9.61898e-17
9.61509e-17
9.61492e-17
9.61496e-17
9.61501e-17
9.61511e-17
9.61524e-17