/*--------------------------------*- C++ -*----------------------------------*\
| =========                 |                                                 |
| \\      /  F ield         | OpenFOAM: The Open Source CFD Toolbox           |
|  \\    /   O peration     | Version:  v2106                                 |
|   \\  /    A nd           | Website:  www.openfoam.com                      |
|    \\/     M anipulation  |                                                 |
\*---------------------------------------------------------------------------*/
FoamFile
{
    version     2.0;
    format      ascii;
    arch        "LSB;label=32;scalar=64";
    class       volScalarField;
    location    "0.000139";
    object      k;
}
// * * * * * * * * * * * * * * * * * * * * * * * * * * * * * * * * * * * * * //

dimensions      [0 2 -2 0 0 0 0];

internalField   nonuniform List<scalar> 
18273
(
4.82123
4.25497
3.90904
3.44539
2.91179
2.29491
1.75614
1.32729
0.993225
0.72297
0.526387
0.491159
0.702427
1.19964
3.23216
2.90651
2.64951
2.2715
1.85215
1.41063
1.05908
0.779322
0.569399
0.413442
0.318578
0.36692
0.645109
1.1531
2.10434
1.85533
1.59888
1.27194
0.948513
0.653354
0.463534
0.325666
0.235163
0.178681
0.163576
0.278301
0.608952
1.14595
1.44331
1.16041
0.854881
0.557452
0.335275
0.206694
0.129456
0.0853421
0.0633346
0.0555214
0.0777014
0.215434
0.557531
1.10046
1.25838
0.92571
0.588299
0.320677
0.156519
0.0683472
0.0288044
0.0141932
0.0105062
0.0138102
0.0442955
0.175403
0.494952
1.00901
1.42548
1.05715
0.680066
0.363385
0.162897
0.0600104
0.0176717
0.00435035
0.00159139
0.00481476
0.0330172
0.148399
0.431
0.896435
1.73206
1.31189
0.857821
0.461912
0.201896
0.0701617
0.0194341
0.00487423
0.00176382
0.00402962
0.0280005
0.126294
0.370264
0.781344
2.16861
1.67159
1.12475
0.624796
0.276908
0.0979177
0.0304905
0.0120739
0.00761271
0.00830152
0.0266776
0.105452
0.306153
0.655814
2.72607
2.10705
1.44108
0.828785
0.382734
0.146745
0.0590184
0.0366638
0.0307331
0.0294348
0.0407345
0.0971813
0.247387
0.523613
3.43467
2.62362
1.7987
1.06051
0.516241
0.225396
0.122838
0.102711
0.0996001
0.0989006
0.102656
0.133388
0.223967
0.412065
4.12165
3.13261
2.14649
1.29407
0.674861
0.348679
0.248716
0.246092
0.258645
0.269011
0.270642
0.277744
0.305922
0.402252
4.7923
3.61167
2.46195
1.51899
0.862228
0.535645
0.464039
0.499129
0.548015
0.58841
0.599595
0.587128
0.552664
0.559792
5.2722
3.92594
2.65821
1.68839
1.06243
0.78876
0.773985
0.863337
0.968124
1.0595
1.09896
1.07946
0.997012
0.934473
5.82076
4.19311
2.82475
1.8446
1.28162
1.09325
1.15235
1.30728
1.48336
1.6471
1.74836
1.75032
1.65808
1.58379
7.71218
6.50055
5.6927
4.78622
3.91264
2.99335
2.22083
1.60067
1.14456
0.812591
0.68578
0.913892
1.55138
2.63822
5.85793
5.0467
4.37638
3.58284
2.80578
2.04472
1.44618
0.986121
0.668814
0.474812
0.460977
0.772284
1.45426
2.42636
4.10003
3.55201
2.97157
2.28958
1.62516
1.04573
0.669533
0.422029
0.277585
0.210479
0.277136
0.636921
1.34203
2.27349
2.74849
2.2596
1.67154
1.09872
0.627551
0.346161
0.1887
0.107937
0.0722089
0.0701638
0.161315
0.504609
1.17082
2.0482
1.99699
1.49887
0.949136
0.517377
0.24969
0.104161
0.0403886
0.0169918
0.0114767
0.0224747
0.104685
0.392773
0.975924
1.76716
1.89293
1.42572
0.933607
0.521499
0.240711
0.0895157
0.0258354
0.00584462
0.00207598
0.010854
0.0750399
0.301328
0.783058
1.46933
2.18155
1.72719
1.20488
0.685587
0.310739
0.110094
0.0307363
0.00817568
0.00362452
0.00926186
0.0568162
0.229876
0.613721
1.1914
2.71857
2.2537
1.6427
0.977021
0.456503
0.167182
0.0538673
0.0235593
0.0167256
0.0191616
0.0510916
0.175345
0.466283
0.93282
3.42014
2.90623
2.18165
1.36622
0.67399
0.268328
0.110141
0.0726577
0.0659649
0.068424
0.0882914
0.169855
0.368044
0.710197
4.39188
3.73341
2.84158
1.84064
0.964007
0.429338
0.228067
0.195472
0.203147
0.220142
0.238681
0.287268
0.395735
0.606159
5.40283
4.62296
3.549
2.36044
1.31985
0.669635
0.442591
0.440969
0.495168
0.559967
0.604365
0.642977
0.67515
0.765546
6.55683
5.62491
4.28959
2.89578
1.72385
1.00248
0.7803
0.837766
0.975062
1.12921
1.2343
1.28928
1.26481
1.25508
7.55388
6.46192
4.8734
3.33193
2.11832
1.40485
1.22647
1.35721
1.59197
1.85774
2.05766
2.17068
2.1531
2.11037
8.93192
7.33894
5.40156
3.69751
2.4695
1.82068
1.71074
1.92026
2.25768
2.65043
2.99256
3.23017
3.32773
3.40804
9.01445
7.47512
6.42133
5.3378
4.35239
3.35728
2.52425
1.78339
1.26063
0.964479
1.11256
1.87454
3.19344
4.97575
8.12585
6.89788
5.8492
4.72853
3.63818
2.60976
1.76192
1.11255
0.726694
0.578791
0.815859
1.62073
2.88741
4.36271
6.55967
5.61806
4.62637
3.51272
2.41019
1.48328
0.853571
0.476707
0.293491
0.26997
0.547323
1.33673
2.54613
3.82797
4.79923
3.92595
2.90983
1.9074
1.06938
0.514712
0.240044
0.117454
0.0746166
0.105495
0.347063
1.02352
2.0996
3.24792
3.31217
2.455
1.54261
0.825918
0.365118
0.136291
0.0476182
0.0170173
0.0125726
0.0453004
0.224852
0.746623
1.64762
2.66346
2.59215
1.87608
1.17086
0.643964
0.295683
0.108491
0.0298747
0.00589489
0.00309905
0.0253069
0.149167
0.525086
1.23153
2.10426
2.63435
2.07892
1.45886
0.846317
0.387225
0.136356
0.0369478
0.00985895
0.00557818
0.0193473
0.103603
0.369829
0.901337
1.62202
3.09379
2.69072
2.05662
1.26771
0.6063
0.222484
0.0710231
0.0330843
0.0261071
0.0345762
0.0880644
0.266002
0.643731
1.20618
3.69613
3.42298
2.79932
1.86937
0.959405
0.384489
0.155701
0.107708
0.105539
0.121472
0.161767
0.280667
0.529519
0.928102
4.55238
4.35126
3.7185
2.65023
1.47063
0.65771
0.334413
0.291865
0.324285
0.384818
0.450546
0.553991
0.709244
0.960559
5.44629
5.3451
4.73074
3.54105
2.12784
1.07281
0.653376
0.646488
0.771052
0.942922
1.09861
1.24669
1.35257
1.49401
6.61066
6.55502
5.84893
4.48592
2.88715
1.64103
1.14178
1.19025
1.45094
1.7921
2.08753
2.33215
2.44074
2.53262
7.7407
7.76262
6.86929
5.34655
3.65205
2.31494
1.76931
1.8618
2.2334
2.73607
3.19256
3.59225
3.82856
3.99691
9.38163
9.07411
7.76974
6.07448
4.30548
2.95698
2.40136
2.52185
2.97029
3.5936
4.20866
4.80084
5.3068
5.72097
2.02858
2.99536
4.33796
6.72186
16.4353
6.46509
1.87922
2.75663
4.02227
6.10302
13.0364
4.76549
1.86011
2.76943
4.12403
6.30786
12.7959
3.91636
1.81196
2.77935
4.21396
6.58332
13.6504
3.61302
1.68923
2.65907
4.13692
6.71015
15.2992
3.6548
1.52129
2.41731
3.82177
6.54035
17.2293
3.90032
1.33618
2.10599
3.34649
6.10415
18.5502
4.3383
1.13778
1.77539
2.83729
5.45215
19.1054
4.84038
0.926603
1.4519
2.3381
4.71738
19.0084
5.28628
0.723328
1.15445
1.89344
4.00297
18.1738
5.67234
0.608254
0.966872
1.60465
3.46215
16.9781
6.09417
0.668073
0.995941
1.61203
3.33343
16.1135
6.66215
0.980725
1.36815
2.10334
3.83301
15.7254
7.49504
1.6027
2.20572
3.23007
5.15356
16.2164
8.12079
4.18131
5.63443
6.95124
8.57374
12.2696
5.67582
3.62442
4.9587
6.40396
8.30786
11.3795
4.97801
3.3588
4.67178
6.29961
8.47192
11.856
4.93588
3.05997
4.36641
6.10763
8.57188
12.8015
5.18382
2.67618
3.89563
5.60995
8.3353
13.9868
5.44263
2.26615
3.31678
4.83947
7.63345
15.087
5.58977
1.86948
2.71613
3.94705
6.50914
15.6865
5.60681
1.49792
2.15873
3.15032
5.31721
15.2092
5.56208
1.16389
1.69437
2.48249
4.2786
13.8652
5.45861
0.936367
1.38762
2.05293
3.58133
12.1388
5.36925
0.960239
1.3903
2.03694
3.45193
10.8485
5.37765
1.34659
1.86467
2.63623
4.05623
10.5113
5.6099
2.16842
2.93294
3.95431
5.42792
10.8919
6.14463
3.43524
4.57706
5.8858
7.3933
11.9563
6.54806
6.69384
7.59445
7.84792
8.14315
8.47375
9.43003
5.66927
6.71184
7.3118
8.00631
8.4248
9.35883
4.97125
6.02365
6.92337
7.8116
8.45772
9.08544
4.28637
5.32342
6.31853
7.41471
8.46917
8.57416
3.57953
4.55164
5.55247
6.8077
8.37928
7.90045
2.90748
3.75517
4.68224
5.96361
8.22682
7.11648
2.32361
3.03602
3.82415
4.94483
7.67816
6.24273
1.80213
2.39159
3.08317
3.97597
6.71347
5.35503
1.41526
1.94052
2.55415
3.30867
5.66465
4.65548
1.30881
1.86389
2.49296
3.21595
5.077
4.41637
1.69988
2.37997
3.14732
3.90912
5.29316
4.87335
2.64028
3.55324
4.51517
5.2477
6.09136
5.98388
4.02601
5.16667
6.17402
6.82951
7.18335
7.52756
5.60442
6.69778
7.59169
8.08927
8.23995
9.08273
2.63434
3.64452
4.92479
7.0617
15.9023
6.64801
2.56548
3.53249
4.88202
6.96823
13.6558
4.88671
2.60546
3.63348
5.11745
7.42982
14.0145
4.04165
2.54289
3.60644
5.21592
7.88331
15.5123
3.76496
2.35317
3.3768
4.97671
7.99284
17.4596
3.80007
2.08332
2.98262
4.43456
7.60539
19.1753
3.95795
1.80835
2.5609
3.80563
6.92915
20.2806
4.14152
1.57737
2.21119
3.26794
6.17906
20.6463
4.3636
1.44774
1.99407
2.90613
5.57247
20.3774
4.67737
1.51824
2.02228
2.85421
5.331
19.9217
4.92495
1.93205
2.46067
3.26323
5.58271
19.318
5.33169
2.7491
3.43766
4.31257
6.49643
18.5674
6.0705
3.98221
4.97502
6.11361
8.18221
17.855
7.07328
5.57799
6.88508
8.34006
10.3269
17.8187
7.34266
5.19728
6.65333
7.69429
9.22891
12.2208
5.75109
4.70754
6.1438
7.53218
9.51455
12.3328
5.15926
4.43371
5.90959
7.66084
10.0799
13.5456
5.24327
4.03856
5.45792
7.38957
10.2901
14.9632
5.53141
3.51162
4.73578
6.55068
9.75554
16.0667
5.71053
2.94391
3.91467
5.40264
8.58201
16.585
5.68826
2.46716
3.22288
4.38156
7.23697
16.356
5.50306
2.16326
2.79705
3.73057
6.13388
15.5949
5.27946
2.1816
2.77132
3.58692
5.57889
14.6027
5.22273
2.69834
3.3193
4.12794
5.93598
13.8087
5.28938
3.80433
4.59009
5.43188
7.19478
13.5293
5.5526
5.3579
6.47092
7.39588
9.16113
13.6514
6.1112
7.17637
8.56166
9.65394
11.2976
14.066
6.82697
8.79298
10.1558
11.3374
12.6679
14.4671
7.00953
7.33004
8.15186
8.35733
8.82569
8.81695
9.80276
6.52625
7.49639
8.08205
8.86551
9.03485
9.82067
5.82394
6.81639
7.70622
8.70022
9.16735
9.48361
5.08479
5.96787
6.89771
8.06862
9.01133
8.78972
4.29472
5.03414
5.84858
7.04542
8.51822
7.89396
3.54929
4.15824
4.8182
5.91652
7.94074
6.95834
3.0392
3.58934
4.17089
5.13285
7.17967
6.18108
2.91056
3.52108
4.13052
4.93889
6.67302
5.81278
3.4327
4.16084
4.83158
5.51462
6.79112
6.09205
4.71026
5.54332
6.25964
6.81774
7.43271
7.06687
6.43429
7.3078
7.9305
8.43567
8.27057
8.56966
7.99588
8.7932
9.1925
9.90719
9.16568
10.3303
9.10568
9.65462
9.80254
10.6995
9.78104
11.7082
9.27664
9.57753
9.67732
10.3462
9.88922
12.1274
7.51386
18.1082
9.9567
7.68409
5.98275
4.73431
7.75319
19.0875
8.25668
5.71949
4.20874
3.27524
7.12969
19.9578
6.80876
4.22237
3.00421
2.27605
6.44655
20.5294
5.90704
3.34869
2.32901
1.71839
5.88324
21.212
5.62149
3.0328
2.10599
1.56548
5.36953
21.9244
5.87308
3.14412
2.22972
1.71932
4.82706
22.3233
6.55319
3.57906
2.60081
2.05685
4.31601
22.0851
7.56665
4.33847
3.2183
2.57662
3.99857
20.7809
8.78111
5.42826
4.0766
3.27087
3.80553
18.7713
9.78432
6.61697
5.06764
4.09788
3.74473
16.6835
10.3087
7.57973
5.96289
4.87587
3.91575
15.0442
10.5329
8.25183
6.81418
5.67243
4.50968
14.5591
10.8867
9.015
7.64854
6.50374
5.86913
16.2307
12.0686
10.1387
8.88581
7.67923
6.90813
13.3651
11.2791
10.0666
8.83407
7.54247
7.05902
14.0738
10.2889
8.56177
7.15522
5.85942
6.69208
14.5106
8.72197
6.78228
5.4254
4.29625
6.35623
14.7547
7.17528
5.25079
4.05349
3.117
6.06414
15.0292
6.00838
4.19658
3.18301
2.41773
5.78411
15.6159
5.54406
3.73098
2.85416
2.23601
5.50748
16.5378
5.80599
3.78345
2.9789
2.46546
5.49426
17.0292
6.83154
4.33338
3.48902
2.99945
5.61588
17.0947
8.32013
5.39979
4.34667
3.76863
5.7634
16.6261
9.89136
6.844
5.50693
4.77899
5.87078
15.771
11.1489
8.34106
6.76305
5.82346
5.92453
14.7816
11.8385
9.51659
7.98359
6.96699
6.00348
13.7981
12.034
10.2877
9.04765
8.08162
6.36696
13.3831
12.496
11.3753
10.6514
9.86823
11.5544
8.81663
8.93442
8.71021
8.93111
8.65196
11.2905
9.0152
9.29973
8.84845
8.74635
7.98185
10.2423
8.87192
8.88613
8.49573
7.92526
6.80312
8.85708
8.54562
8.04519
7.67655
6.73218
5.42005
7.55812
8.1397
6.94275
6.35646
5.31245
4.06622
6.54099
7.63562
5.80541
5.11132
4.2045
3.22079
5.9826
7.27517
5.06824
4.35716
3.67736
3.03572
5.92617
7.30014
4.82529
4.07495
3.63357
3.26753
6.29721
7.68039
5.11994
4.28904
3.95367
3.76283
6.98527
8.17655
5.85002
4.92848
4.58507
4.49094
7.88942
8.56905
6.78259
5.85346
5.4126
5.2754
8.94244
8.92246
7.82895
6.96746
6.47503
6.28432
10.1063
9.23787
8.64627
7.98717
7.58548
7.35069
11.3197
9.58877
9.30674
8.96334
8.92319
8.9257
8.59048
17.4398
5.20145
2.96019
1.84197
1.30423
8.57755
17.1979
4.04024
2.04263
1.21595
0.835124
7.94777
17.448
3.51923
1.68464
1.00779
0.663892
7.22489
18.3087
3.59815
1.75487
1.11353
0.752615
6.61591
19.2443
4.15064
2.11657
1.43107
1.02095
6.01128
19.939
4.98914
2.67655
1.89323
1.39928
5.35556
20.2193
6.04693
3.41601
2.48002
1.86199
4.5945
19.8969
7.23586
4.35232
3.21253
2.4407
3.99846
18.441
8.3482
5.42549
4.06788
3.14141
3.67323
16.2696
9.06915
6.40607
4.93765
3.88007
3.55467
14.312
9.3075
7.06055
5.627
4.48744
3.7089
13.0531
9.39127
7.52594
6.21876
5.03042
4.29456
13.059
9.72441
8.16472
6.83816
5.57257
5.61377
15.3011
11.1141
9.36788
8.11931
6.71756
6.86352
12.7101
7.01336
5.3049
3.79456
2.79587
6.83279
11.9603
5.28542
3.62465
2.43494
1.738
6.50471
11.5548
4.0433
2.53741
1.6569
1.13165
6.23012
11.6536
3.44192
2.09639
1.40673
0.950962
6.03267
12.5199
3.51664
2.2008
1.56472
1.12252
5.8967
13.7473
4.13672
2.655
2.00326
1.53968
5.80378
14.8838
5.11962
3.35113
2.62961
2.09736
5.66061
15.6564
6.41396
4.29637
3.44203
2.82003
5.608
15.3562
7.94697
5.50433
4.41828
3.6943
5.58891
14.3833
9.18676
6.75683
5.49778
4.67924
5.56942
13.1246
9.90723
7.79044
6.48468
5.56427
5.56707
11.8686
10.1896
8.57353
7.4074
6.44113
5.64534
11.1316
10.31
9.18091
8.27094
7.30251
6.07236
11.4464
10.98
10.2592
9.81225
8.99969
8.93263
8.40025
7.71568
7.46922
6.1972
4.98926
7.66677
7.63361
6.6931
6.05452
4.60959
3.37203
6.33944
6.7981
5.33271
4.47262
3.17738
2.17106
5.2591
6.0348
4.06508
3.23788
2.27022
1.48522
4.65728
5.59361
3.37796
2.70532
1.97768
1.35276
4.57633
5.69713
3.33718
2.76249
2.18076
1.67135
4.90894
6.29812
3.69357
3.14829
2.66737
2.208
5.49778
7.06488
4.32627
3.72708
3.31091
2.92423
6.22365
7.60442
5.14949
4.42869
4.02159
3.70671
7.00355
7.87103
5.96049
5.18496
4.81342
4.58873
7.83051
7.82164
6.58914
5.8818
5.56286
5.38059
8.72279
7.76609
7.09093
6.59749
6.37899
6.22415
9.70408
7.88899
7.49632
7.22057
7.18922
7.05888
10.7754
8.40506
8.09055
8.0506
8.49283
8.65728
9.10901
7.58718
6.49305
5.42475
4.44912
3.44513
2.5739
1.78567
1.27738
1.13613
1.64263
2.91675
4.71397
6.80828
8.49709
7.44479
6.32128
5.10669
3.85663
2.66172
1.7235
1.01843
0.655769
0.62589
1.15016
2.39857
4.09254
5.76322
7.59975
6.5213
5.28812
3.89774
2.55309
1.46569
0.777935
0.396816
0.237525
0.283412
0.746973
1.87794
3.45438
4.90741
6.15719
4.83424
3.4379
2.12693
1.11837
0.492404
0.202105
0.0868028
0.0550962
0.113158
0.451094
1.34152
2.69221
3.99493
4.43849
3.05435
1.80291
0.89976
0.372571
0.127088
0.0390264
0.011607
0.00964478
0.0503852
0.269019
0.904608
1.98887
3.15995
3.26738
2.13606
1.21833
0.621265
0.271964
0.096136
0.025265
0.00463407
0.00286107
0.0264821
0.158194
0.572075
1.37303
2.34808
2.97712
2.1512
1.41838
0.785633
0.348048
0.119358
0.0316785
0.00858236
0.00536418
0.0196125
0.103506
0.37284
0.931881
1.72624
3.30695
2.76218
2.01476
1.19852
0.555346
0.198274
0.0626206
0.0300882
0.0251687
0.0360858
0.09021
0.266658
0.6524
1.26263
3.81552
3.49032
2.79744
1.8245
0.911888
0.356088
0.142632
0.100635
0.102902
0.128854
0.180959
0.316735
0.589228
1.04495
4.57025
4.42616
3.81599
2.70721
1.48175
0.649852
0.320989
0.279141
0.322128
0.412599
0.520492
0.688751
0.92265
1.27916
5.36523
5.41634
4.92199
3.74196
2.25084
1.11885
0.650925
0.634935
0.786241
1.02519
1.27749
1.56846
1.83236
2.15269
6.49041
6.58617
6.11196
4.893
3.20898
1.8061
1.18385
1.20481
1.52212
1.9743
2.42392
2.88828
3.22097
3.5671
7.64415
7.78445
7.23895
5.9956
4.25566
2.68813
1.92181
1.94883
2.3844
3.0368
3.65824
4.29958
4.79169
5.29181
9.30188
8.98163
8.21132
6.9804
5.25301
3.6306
2.76728
2.74995
3.17565
3.91669
4.662
5.47969
6.24298
7.1516
7.76047
6.78886
5.90969
4.8719
3.90229
2.95002
2.1325
1.43126
0.991431
0.850109
1.20776
2.15846
3.49765
4.93542
7.2033
6.40861
5.41008
4.25143
3.08872
2.03029
1.25298
0.722499
0.454782
0.42728
0.788365
1.71986
3.07401
4.40341
6.34664
5.27776
4.10263
2.87435
1.78538
0.96825
0.492156
0.246441
0.149331
0.181975
0.487014
1.30507
2.58686
3.88668
5.00087
3.65092
2.40718
1.38701
0.685875
0.283307
0.111477
0.0474263
0.0321247
0.0689224
0.281647
0.898899
1.97101
3.15596
3.54402
2.22556
1.22176
0.580565
0.233797
0.0786219
0.0227971
0.00629299
0.0055904
0.0297994
0.164403
0.5895
1.4173
2.45959
2.67272
1.63381
0.898009
0.444376
0.187315
0.0632052
0.0157467
0.00267891
0.00171806
0.0156333
0.0955364
0.367806
0.961972
1.8095
2.54729
1.73085
1.06303
0.54656
0.22686
0.073721
0.0187135
0.00492629
0.00313334
0.0114651
0.0622176
0.235954
0.633957
1.28319
2.91029
2.25681
1.49461
0.80991
0.344733
0.115727
0.035989
0.0177349
0.0146008
0.0203977
0.0536552
0.168876
0.441949
0.923974
3.39615
2.8861
2.10822
1.2324
0.55709
0.204719
0.0841784
0.0615696
0.0605313
0.0727621
0.103328
0.192649
0.38793
0.74578
4.09325
3.72945
2.95509
1.87569
0.921751
0.382517
0.198204
0.177175
0.195402
0.242864
0.306783
0.421204
0.596939
0.892262
4.83045
4.65221
3.92246
2.69043
1.45134
0.683917
0.420222
0.420454
0.501302
0.643818
0.811835
1.02708
1.24669
1.5354
5.83249
5.67848
4.97247
3.66415
2.19016
1.17022
0.802097
0.840585
1.04091
1.3449
1.68098
2.04652
2.3232
2.6216
6.66117
6.57383
5.93948
4.67477
3.10063
1.86873
1.37618
1.44022
1.77305
2.25066
2.745
3.25429
3.58707
3.90484
7.61998
7.36818
6.79445
5.66547
4.10604
2.74871
2.12732
2.16937
2.52849
3.12737
3.7026
4.30844
4.69837
5.13124
6.04183
5.30377
4.53659
3.64115
2.80894
2.02391
1.39326
0.901328
0.585886
0.433977
0.520619
0.977848
1.83837
2.97503
5.05203
4.34248
3.53294
2.65433
1.83144
1.14309
0.675885
0.390669
0.237728
0.191676
0.299696
0.724994
1.56225
2.64541
3.93394
3.02749
2.18832
1.4384
0.846465
0.440671
0.217883
0.112465
0.0687216
0.0701266
0.167265
0.522283
1.26966
2.28936
2.75035
1.79265
1.07191
0.573562
0.27059
0.108915
0.0417339
0.0187276
0.0129919
0.0222855
0.0911248
0.348439
0.93798
1.81748
1.88446
1.08193
0.566642
0.267134
0.109576
0.0374687
0.0104906
0.00271024
0.00188285
0.00855489
0.0531217
0.228122
0.660629
1.37743
1.59945
0.951862
0.522667
0.253142
0.103065
0.0335788
0.00816371
0.00136457
0.000495077
0.00453295
0.0325705
0.145399
0.446906
0.998268
1.74737
1.14187
0.647354
0.309186
0.121017
0.0376094
0.00923771
0.00226573
0.00114151
0.00360297
0.0223962
0.097532
0.298107
0.688236
2.1585
1.50877
0.896529
0.438491
0.171995
0.0546633
0.0165665
0.00783837
0.00589871
0.00727451
0.0201473
0.0715579
0.208907
0.486253
2.5998
1.97695
1.26152
0.647011
0.263593
0.092317
0.0388659
0.0282036
0.0256193
0.0277106
0.0379716
0.0756898
0.170604
0.366793
3.16014
2.58113
1.76338
0.963286
0.420686
0.170163
0.0951156
0.08542
0.0870281
0.0985688
0.116768
0.15829
0.234359
0.384704
3.77753
3.24962
2.35247
1.37465
0.654521
0.308269
0.211681
0.214246
0.237678
0.283469
0.339409
0.420635
0.513703
0.661553
4.55608
3.98838
3.02249
1.89954
0.999911
0.539364
0.421187
0.45499
0.534499
0.656441
0.796891
0.960233
1.09527
1.25837
5.18587
4.64347
3.70021
2.51471
1.4793
0.896579
0.752422
0.832727
1.00198
1.23522
1.49233
1.76373
1.94716
2.12421
5.84095
5.21795
4.36941
3.23361
2.11097
1.41219
1.22324
1.33407
1.5808
1.92033
2.27451
2.64952
2.88994
3.12569
3.88149
3.26496
2.65906
2.02718
1.45914
0.976604
0.63589
0.402279
0.257638
0.173911
0.155083
0.267916
0.623549
1.32259
2.63132
2.06948
1.56827
1.09258
0.698932
0.407935
0.237369
0.140188
0.0893923
0.065887
0.0747976
0.179716
0.500127
1.13186
1.6495
1.10885
0.724776
0.435737
0.237886
0.115852
0.0579615
0.0321516
0.0218819
0.0195777
0.0352453
0.123225
0.390851
0.935136
1.01277
0.576269
0.310919
0.152338
0.0662784
0.0242102
0.00921736
0.00454918
0.0036258
0.00491371
0.0174153
0.0809452
0.282301
0.719326
0.768298
0.422917
0.217186
0.100738
0.0401336
0.0132136
0.00341098
0.000781812
0.000449404
0.00148345
0.0101075
0.0541046
0.198406
0.53069
0.797818
0.463186
0.242941
0.109754
0.0414422
0.0125443
0.0028458
0.000450279
0.000103012
0.000719067
0.00644738
0.0356536
0.13502
0.37652
0.979326
0.583214
0.297338
0.128236
0.0458809
0.0131456
0.00299886
0.000684493
0.000294642
0.000630553
0.00456693
0.0246098
0.0913737
0.254454
1.28322
0.776792
0.399021
0.170955
0.0601191
0.0175017
0.0050344
0.00233048
0.00164845
0.00163902
0.00426578
0.0179909
0.0631464
0.174165
1.63243
1.03844
0.552032
0.240957
0.0864725
0.0281958
0.0121037
0.00889633
0.00761953
0.00723237
0.0088092
0.0182381
0.0481741
0.123025
2.06118
1.38524
0.770567
0.350349
0.134089
0.0528932
0.0320616
0.0292303
0.0279308
0.0285243
0.0305845
0.039218
0.0601263
0.112376
2.50988
1.76833
1.02963
0.494039
0.208087
0.101572
0.0782778
0.0801402
0.0833675
0.0914348
0.101168
0.118667
0.140911
0.1882
3.02441
2.19636
1.3433
0.691425
0.326705
0.191476
0.17051
0.186765
0.207833
0.239955
0.275846
0.320705
0.357457
0.41331
3.49763
2.61277
1.69425
0.94963
0.506535
0.342412
0.331434
0.376738
0.438728
0.522018
0.61303
0.712466
0.782327
0.856628
4.01554
3.07022
2.13585
1.31352
0.782295
0.580991
0.582356
0.668693
0.790693
0.952095
1.12249
1.30394
1.43365
1.55618
2.01261
1.55133
1.1594
0.800052
0.520902
0.331973
0.216359
0.14365
0.0970303
0.0648721
0.0438821
0.0533164
0.141928
0.409762
1.02988
0.690127
0.465411
0.289685
0.168893
0.0974761
0.0603423
0.0398112
0.0282303
0.020685
0.0164975
0.0304689
0.107496
0.341208
0.511129
0.279384
0.156275
0.0822648
0.0406414
0.0196604
0.0110374
0.00740492
0.00586337
0.00498311
0.00573281
0.0194702
0.0831337
0.276906
0.322894
0.159447
0.0763711
0.0337379
0.0132257
0.0047108
0.00175762
0.00096494
0.000852287
0.000941794
0.00220578
0.0124453
0.0594117
0.208263
0.313776
0.16641
0.0823878
0.0365013
0.0136721
0.00415679
0.000984649
0.000202695
9.26289e-05
0.000176619
0.00117761
0.0083966
0.0416229
0.149544
0.3783
0.208106
0.100882
0.0418364
0.0145987
0.0041263
0.000887661
0.000135731
1.98616e-05
5.9469e-05
0.000746629
0.00569031
0.0283271
0.103298
0.486226
0.258671
0.11889
0.046673
0.0153722
0.00410507
0.000870893
0.000171835
5.72038e-05
6.37096e-05
0.000525556
0.00393155
0.0192512
0.0683828
0.637874
0.334707
0.150363
0.057164
0.0181851
0.00483185
0.00124994
0.000515737
0.000344759
0.000275594
0.00053588
0.00279735
0.0128581
0.0449053
0.832609
0.438962
0.195757
0.0733406
0.023228
0.00689889
0.00287157
0.00210511
0.00176721
0.00150602
0.00148558
0.00285395
0.00905589
0.0292323
1.09013
0.586033
0.264041
0.0999208
0.033392
0.0127364
0.00829311
0.00777164
0.00725355
0.00677703
0.0064261
0.00730075
0.0108233
0.023291
1.38067
0.758143
0.34712
0.135271
0.0507679
0.026446
0.0229372
0.0240997
0.024316
0.0246655
0.0249525
0.0268937
0.0294197
0.0392645
1.72661
0.97012
0.458514
0.190474
0.0838753
0.0563983
0.0567365
0.0634785
0.0683701
0.0742405
0.0800266
0.0878074
0.0921187
0.103732
2.07514
1.20278
0.602782
0.274963
0.143166
0.114603
0.124312
0.144531
0.164201
0.187867
0.212293
0.238175
0.25276
0.271855
2.47325
1.51976
0.833721
0.423225
0.250481
0.218971
0.244019
0.289146
0.340645
0.404988
0.471791
0.539612
0.587152
0.627569
0.772274
0.509829
0.341934
0.209234
0.125226
0.0772261
0.0519799
0.0373824
0.0277108
0.0194884
0.0118457
0.00929095
0.0228884
0.0876226
0.289213
0.153531
0.0879427
0.0467562
0.0242446
0.0143281
0.0101417
0.00807833
0.00669592
0.00522487
0.00350005
0.00420807
0.0167553
0.0737334
0.123678
0.053567
0.0240523
0.0101205
0.00413914
0.002059
0.00143709
0.00127465
0.00120305
0.00105832
0.000884445
0.00237027
0.0131846
0.060942
0.102666
0.0462945
0.020009
0.00802815
0.00283137
0.000869847
0.00028089
0.00016055
0.000157202
0.000163146
0.000241659
0.00144118
0.00937915
0.0452958
0.125917
0.0627242
0.0286084
0.0112862
0.00372977
0.00100562
0.00021344
3.96202e-05
1.61664e-05
2.05485e-05
9.96626e-05
0.000950124
0.0064439
0.0315911
0.159976
0.0788244
0.0339816
0.0126405
0.00397365
0.00102022
0.000202729
2.95602e-05
3.87508e-06
3.63261e-06
5.33521e-05
0.000613897
0.00428459
0.0208716
0.204095
0.0947615
0.038366
0.0133857
0.00394892
0.000955297
0.000185823
3.34429e-05
1.01106e-05
6.44464e-06
3.29565e-05
0.000387938
0.00277825
0.0134295
0.269334
0.119411
0.0457013
0.0150214
0.00418526
0.000987709
0.000232024
9.22529e-05
6.23008e-05
4.49999e-05
4.60768e-05
0.000249243
0.00169229
0.00820564
0.359528
0.153981
0.0561922
0.0174985
0.00469841
0.00124672
0.000528463
0.000410315
0.00034918
0.000281035
0.000220054
0.000297021
0.00106891
0.004742
0.487666
0.206054
0.0733371
0.0222628
0.00624047
0.00235342
0.00174206
0.00172208
0.00159943
0.0014083
0.00117911
0.00111459
0.00139496
0.00330201
0.640735
0.268515
0.0945235
0.0289786
0.00958518
0.00566947
0.00563421
0.00611716
0.00605261
0.00577294
0.00529754
0.00514509
0.00497273
0.00607402
0.828221
0.349603
0.125168
0.0412909
0.0175993
0.0143878
0.0161775
0.0184821
0.0193615
0.0198697
0.0198537
0.0203045
0.0197001
0.0206727
1.0208
0.443447
0.168434
0.0635754
0.0351368
0.0343875
0.0408149
0.0482435
0.0533071
0.0584977
0.0628005
0.0671894
0.0676431
0.0695883
1.27296
0.602788
0.255112
0.110916
0.0723927
0.0757721
0.0915053
0.11054
0.12809
0.149215
0.169526
0.188828
0.198783
0.205704
0.213665
0.116726
0.0699591
0.0381149
0.021453
0.0130147
0.0089763
0.0068239
0.00551843
0.0042825
0.00269444
0.00157628
0.00273517
0.0130942
0.0585848
0.025023
0.0122464
0.00544214
0.00257177
0.00154971
0.00122347
0.00111347
0.00106613
0.00095193
0.000652885
0.000520598
0.001921
0.0116026
0.0254774
0.009325
0.0034714
0.00118106
0.000418147
0.000184612
0.000134272
0.000140357
0.000159346
0.000163171
0.000127415
0.000217305
0.00148646
0.00972719
0.0301748
0.0125193
0.00495487
0.00179435
0.000549605
0.000139633
3.35434e-05
1.59218e-05
1.80524e-05
2.13247e-05
2.29468e-05
0.000109912
0.000993847
0.00690808
0.0415939
0.0184211
0.00732203
0.00249993
0.000715723
0.000166998
3.0427e-05
4.64086e-06
1.70735e-06
2.10245e-06
5.63666e-06
6.51417e-05
0.000634171
0.00444441
0.053215
0.0224912
0.00835618
0.0026873
0.000730712
0.000162375
2.80095e-05
3.54991e-06
3.97767e-07
2.20755e-07
2.27864e-06
3.93146e-05
0.000401766
0.00276206
0.0690595
0.0270462
0.00925953
0.0027413
0.000688002
0.000142034
2.36008e-05
3.57953e-06
9.19719e-07
4.87452e-07
1.43591e-06
2.47535e-05
0.000259583
0.00174479
0.0947378
0.0347085
0.01101
0.00301301
0.000699479
0.000137764
2.72624e-05
9.76848e-06
6.22433e-06
4.2497e-06
3.37453e-06
1.65122e-05
0.000160625
0.00107244
0.131112
0.0457289
0.0136452
0.00348031
0.000760664
0.000167093
6.56364e-05
5.00874e-05
4.06297e-05
3.13325e-05
2.31301e-05
2.55266e-05
0.00010139
0.000615211
0.182806
0.0621491
0.0179124
0.00439704
0.000995392
0.000335853
0.000255225
0.00024876
0.000220442
0.000187773
0.000152078
0.000135307
0.000152285
0.000400586
0.243093
0.0808752
0.0227928
0.00561719
0.0015614
0.000944822
0.000984021
0.00105107
0.000997646
0.000930302
0.000832543
0.000787919
0.000716749
0.000806689
0.317247
0.104857
0.0297589
0.00793035
0.0031412
0.0028613
0.00335847
0.003792
0.00384194
0.00389726
0.00383365
0.00386697
0.00359748
0.00352846
0.39626
0.133773
0.0399815
0.0126152
0.00728363
0.00814576
0.0100626
0.0118543
0.0127991
0.0140535
0.0150332
0.015964
0.0154611
0.015001
0.517066
0.191366
0.0633942
0.0242437
0.0177166
0.0212097
0.0267492
0.0325844
0.037411
0.0442254
0.0506908
0.0562379
0.0569812
0.0556864
0.00104627
0.000859315
0.000627692
0.00035635
0.000169112
0.000235858
0.00147609
0.000128752
0.000123667
0.000104064
6.47941e-05
4.08589e-05
0.000167008
0.00140719
1.21819e-05
1.38062e-05
1.3462e-05
9.47537e-06
1.36407e-05
0.000129668
0.00121205
1.10387e-06
1.19938e-06
1.34756e-06
1.21848e-06
5.84503e-06
8.00235e-05
0.000819352
3.53891e-07
9.80949e-08
1.03071e-07
1.7451e-07
2.74628e-06
4.40357e-05
0.000469352
3.00175e-07
3.02184e-08
9.92675e-09
3.50109e-08
1.15047e-06
2.18059e-05
0.000244943
3.15425e-07
8.11462e-08
4.43494e-08
3.48025e-08
4.59393e-07
1.00959e-05
0.000120852
9.20298e-07
6.27117e-07
4.5505e-07
3.05446e-07
3.59287e-07
4.21647e-06
5.44896e-05
0.0389072
0.0112025
0.00278512
0.000595104
0.000108884
1.98728e-05
7.00895e-06
5.54583e-06
4.80395e-06
3.87748e-06
2.84549e-06
2.16882e-06
3.28382e-06
2.60285e-05
0.0545753
0.0150962
0.00359276
0.000734705
0.000139282
4.19885e-05
3.24144e-05
3.31551e-05
3.10392e-05
2.72424e-05
2.18356e-05
1.79042e-05
1.47066e-05
2.25535e-05
0.0728664
0.0194698
0.00449187
0.000921968
0.000227699
0.000140667
0.000152307
0.000169798
0.000168697
0.000159644
0.000139416
0.000123955
0.000102528
9.33232e-05
0.0945967
0.0248462
0.00576187
0.00132043
0.000533246
0.000521717
0.000632268
0.000743478
0.000781806
0.000794168
0.00075403
0.000715593
0.000617902
0.000544858
0.118219
0.0313547
0.00769241
0.00227808
0.00151391
0.00180347
0.00229384
0.00281308
0.00312569
0.00340314
0.00349613
0.00349951
0.0031557
0.00279316
0.160539
0.0461274
0.0127524
0.00507502
0.00444401
0.00562319
0.0073341
0.00930329
0.010921
0.0127416
0.0140531
0.0147446
0.0139275
0.0124801
8.72549
8.53527
8.40078
8.60583
9.1333
9.08052
6.8903
6.85358
6.82595
7.04879
7.63363
7.95364
6.02271
5.92841
5.8688
6.03984
6.62218
7.05847
5.14798
5.08699
5.05454
5.22242
5.77951
6.20371
4.47698
4.49565
4.54583
4.71203
5.16392
5.40918
3.73588
3.94281
4.15855
4.37087
4.72982
4.65958
3.06759
3.44924
3.83976
4.10983
4.39478
4.03614
2.37294
2.96149
3.56417
3.91948
4.19947
3.71289
1.87494
2.68055
3.45012
3.97109
4.43393
3.93471
1.76758
2.82582
3.83193
4.6746
5.40709
4.78467
2.30705
3.65714
5.04078
6.25441
7.13205
6.31049
3.52536
5.22185
6.98332
8.47073
9.163
7.98612
5.17708
7.07785
9.0535
10.538
10.9865
9.4507
6.91063
8.68104
10.5985
11.8926
12.2298
10.8567
7.4442
7.11275
6.62945
6.25299
6.02132
5.7486
6.18171
6.06878
5.81243
5.53051
5.31655
5.04939
5.57477
5.51476
5.28678
5.00086
4.76417
4.47683
4.73074
4.80217
4.69801
4.50438
4.25112
3.95171
4.09712
4.30626
4.34049
4.22383
3.88139
3.50059
3.39843
3.7785
4.03299
4.01761
3.57805
3.07634
2.76057
3.28297
3.73024
3.76889
3.25337
2.66176
2.0953
2.76046
3.38419
3.42611
2.90176
2.32976
1.59468
2.41638
3.09971
3.11746
2.69193
2.24377
1.45194
2.39877
3.06815
3.11517
2.84876
2.54076
1.81221
2.84014
3.49438
3.57812
3.4312
3.24198
2.64851
3.71161
4.31649
4.38066
4.30466
4.22018
3.77612
4.77818
5.26965
5.30041
5.17629
5.16842
4.91817
5.73044
6.01086
5.90527
5.73806
5.69423
6.33189
6.16303
5.72837
5.38249
5.20681
5.06492
5.24997
5.3388
5.24939
5.09968
4.91199
4.66564
4.68139
4.92728
4.93439
4.83414
4.61666
4.27677
3.92709
4.25856
4.43569
4.47284
4.27057
3.86103
3.30435
3.74739
4.05722