/*--------------------------------*- C++ -*----------------------------------*\
| =========                 |                                                 |
| \\      /  F ield         | OpenFOAM: The Open Source CFD Toolbox           |
|  \\    /   O peration     | Version:  v2106                                 |
|   \\  /    A nd           | Website:  www.openfoam.com                      |
|    \\/     M anipulation  |                                                 |
\*---------------------------------------------------------------------------*/
FoamFile
{
    version     2.0;
    format      ascii;
    arch        "LSB;label=32;scalar=64";
    class       volScalarField;
    location    "0.000168";
    object      p;
}
// * * * * * * * * * * * * * * * * * * * * * * * * * * * * * * * * * * * * * //

dimensions      [1 -1 -2 0 0 0 0];

internalField   nonuniform List<scalar> 
18109
(
210743
210841
211018
211200
211443
211736
212072
210600
210781
211004
211239
211534
211874
212222
210423
210704
211003
211312
211650
212006
212342
210276
210627
210965
211339
211706
212081
212412
210086
210512
210888
211299
211688
212073
212405
209878
210345
210761
211189
211591
211979
212310
209654
210128
210569
211001
211408
211796
212129
209404
209862
210309
210728
211133
211518
211856
212482
212662
212911
213154
213463
213790
214131
214450
214756
215025
215267
215518
215792
216050
212358
212628
212907
213206
213549
213914
214269
214597
214891
215140
215356
215542
215662
215785
212227
212580
212922
213292
213659
214043
214391
214707
214966
215170
215315
215420
215491
215569
212110
212529
212909
213329
213725
214125
214473
214779
215013
215184
215283
215339
215347
215300
211941
212424
212843
213294
213720
214132
214485
214785
214998
215133
215185
215186
215146
215060
211764
212272
212729
213194
213637
214054
214411
214710
214919
215045
215089
215068
214993
214849
211555
212062
212544
213017
213472
213895
214259
214560
214772
214898
214945
214917
214827
214671
211313
211804
212293
212762
213220
213646
214019
214329
214557
214706
214777
214772
214704
214562
211038
211498
211979
212440
212894
213323
213703
214028
214281
214466
214580
214628
214616
214513
210743
211179
211629
212071
212516
212942
213330
213673
213958
214187
214357
214483
214551
214521
210453
210844
211273
211696
212131
212549
212940
213296
213609
213880
214119
214317
214500
214563
210321
210657
210992
211372
211767
212161
212543
212904
213238
213547
213843
214100
214391
214591
210217
210516
210775
211078
211424
211788
212147
212497
212833
213173
213510
213854
214218
214564
210238
210447
210633
210863
211126
211416
211723
212037
212363
212725
213098
213523
213890
214399
211019
211241
211443
211786
212152
212619
212697
212856
213019
213319
213643
214098
212644
212707
212819
213170
213468
213964
212851
212858
212918
213144
213266
213573
213016
212895
212850
212892
212839
212947
213269
213071
212938
212792
212424
212160
213556
213287
213023
212704
212219
211913
213901
213614
213278
212831
212359
211915
214247
213994
213712
213231
212723
212195
214611
214396
214141
213690
213257
212716
214950
214826
214605
214323
214054
213594
215310
215277
215185
215028
214903
214783
215615
215650
215737
215781
215931
216101
215866
216055
216280
216530
216853
217196
216126
216440
216700
217084
217511
217972
216344
216635
217020
217475
218017
218601
215948
216304
216693
217229
217849
218568
215716
216043
216378
216806
217346
217958
215351
215538
215764
216078
216464
216902
214994
215074
215132
215290
215478
215681
214692
214614
214546
214495
214421
214150
214478
214259
214033
213690
213371
212830
214365
214078
213750
213256
212771
212065
214349
214082
213695
213251
212755
211957
214467
214309
214050
213609
213191
212713
214637
214530
214418
214233
214162
213987
214712
214762
214846
214924
215100
215234
214810
214935
215160
215411
215711
215982
214495
214684
214920
215238
215584
216029
214589
214881
215038
215193
215326
215626
213676
213739
213739
213832
213947
214025
213214
213115
212936
212705
212444
212212
212659
212326
211971
211483
210946
210370
212195
211714
211163
210399
209505
208661
211800
211212
210429
209479
208310
207241
211471
210834
209936
208934
207494
206287
211210
210597
209756
208624
207375
206133
210975
210423
209659
208802
207955
206847
210799
210298
209791
209382
208847
208257
210647
210268
210078
209881
209815
209726
210514
210340
210391
210448
210720
210966
210551
210471
210676
210861
211264
211751
210055
210164
210347
210674
211066
211621
209938
209597
209294
209101
209034
209129
210170
210001
209958
210057
210319
210712
210506
210471
210624
210874
211223
211730
210560
210741
210920
211327
211759
212349
210431
210657
210739
210885
210984
211139
209961
209950
209839
209935
209906
209878
209993
209799
209489
209357
209007
208662
210013
209591
209097
208631
207871
206882
210181
209579
208936
208124
207169
205978
210447
209756
209031
207952
206851
205563
210721
210019
209216
208155
206881
205586
210982
210297
209481
208476
207197
206066
211235
210582
209830
208876
207979
207037
211472
210925
210289
209613
209051
208421
211711
211293
210852
210518
210294
210157
211932
211655
211464
211416
211490
211738
212185
212061
212113
212251
212486
212839
212244
212355
212473
212788
213107
213580
215337
217816
221669
227033
235391
215075
216694
220428
226765
237249
214127
215210
218943
226226
241207
212793
213347
215855
223500
238387
211473
211380
212805
219312
229922
210959
210306
211190
216568
224973
210859
209899
211125
217920
229045
211228
210508
212153
218464
228161
241638
212014
211589
213036
217869
223725
232376
213321
213392
215341
219933
224894
231489
214901
215569
218120
223176
229347
236699
240718
216539
217916
220973
226775
234248
244926
256851
265466
217953
220088
223611
230074
240181
258241
283126
318866
219309
221613
225307
230886
240256
254223
276169
294816
220053
222762
226932
231721
239693
249528
261389
267618
220143
222908
226865
232610
241010
253572
262414
270668
219373
221625
225709
232220
243946
261437
281838
288484
217672
219829
223060
229262
240795
257108
275783
300086
215619
216801
218732
224291
233039
243808
255423
261187
213812
213982
215474
221287
230023
240944
247659
252867
212349
212038
213910
220741
232022
248882
261626
264266
211599
211258
213840
220723
230910
245094
260131
284423
211507
211279
213945
219470
225914
233218
212448
212744
216027
221679
228268
235262
213988
214935
218764
225223
233279
242948
215580
217424
221612
229478
240305
254377
216822
219148
223848
232256
246796
268955
217147
219617
224279
232315
246272
216522
218781
223680
231458
242771
214669
216385
220788
228755
241606
212472
213419
216876
225921
242223
209676
209666
212388
220983
235201
207482
206892
209365
215772
224814
205444
204419
207235
213977
223612
204273
203134
206565
214539
228273
204241
203383
207317
214710
226279
205514
205125
208686
214126
220534
207616
208155
212018
217224
223443
209751
211395
215838
222067
230501
211768
214231
219358
226971
238875
213035
215652
220774
229573
246129
212947
215302
220007
228813
244929
211982
213620
217808
225806
238132
209841
210582
213689
222222
235769
207770
207474
210103
220546
238667
205913
204763
207403
217412
234671
204727
203376
206340
214530
226861
203857
202315
204987
211752
221334
203741
202302
205808
214078
227033
204541
203423
206812
214586
225687
206038
205163
208174
213779
219622
207971
207898
211301
216504
221762
210186
211017
214764
220095
226905
212216
213879
217846
223586
232637
213796
216117
219907
225497
237419
214826
216927
220362
225419
235735
215844
216100
216381
216695
217041
217402
217751
218077
218379
218645
218878
219086
219295
219516
215767
216092
216388
216750
217115
217509
217873
218212
218505
218762
218979
219182
219362
219504
215661
216072
216426
216837
217225
217633
217998
218329
218602
218831
219007
219153
219285
219390
215573
216035
216434
216881
217300
217720
218090
218418
218678
218878
219025
219132
219227
219302
215473
215959
216399
216875
217320
217750
218124
218446
218695
218872
218988
219057
219107
219139
215352
215847
216316
216806
217264
217703
218083
218401
218643
218809
218909
218954
218976
218969
215186
215685
216178
216679
217148
217590
217975
218294
218534
218693
218785
218818
218826
218790
214985
215480
215982
216484
216958
217403
217791
218113
218359
218527
218628
218669
218678
218630
214740
215227
215733
216236
216713
217160
217550
217877
218134
218322
218446
218512
218540
218499
214499
214966
215457
215949
216422
216865
217258
217594
217871
218088
218250
218355
218423
218414
214246
214707
215181
215664
216126
216561
216951
217293
217589
217840
218049
218205
218341
218375
214128
214526
214963
215404
215830
216244
216623
216973
217290
217580
217844
218061
218284
218380
214021
214389
214749
215146
215543
215932
216296
216644
216975
217304
217624
217915
218207
218451
213998
214326
214615
214948
215273
215598
215921
216257
216595
216964
217329
217714
218077
218439
221942
222219
222486
222828
223168
223557
223927
224286
224608
224889
225133
225325
225501
225585
221946
222265
222535
222893
223254
223657
224040
224406
224728
225002
225234
225422
225597
225746
221906
222268
222584
222971
223365
223780
224171
224531
224841
225093
225300
225463
225613
225749
221890
222265
222619
223032
223447
223871
224267
224625
224930
225169
225356
225501
225631
225756
221853
222239
222621
223054
223488
223921
224322
224674
224968
225193
225364
225491
225603
225708
221789
222180
222584
223027
223476
223914
224318
224666
224951
225165
225326
225443
225539
225625
221687
222078
222503
222957
223414
223855
224260
224604
224884
225092
225245
225350
225434
225503
221547
221936
222377
222842
223308
223751
224154
224494
224768
224973
225123
225223
225295
225350
221380
221770
222225
222699
223170
223613
224011
224347
224619
224825
224976
225076
225145
225197
221229
221611
222067
222540
223009
223446
223838
224172
224447
224661
224822
224930
225008
225061
221095
221476
221922
222392
222849
223273
223656
223987
224269
224499
224677
224806
224906
224965
221023
221389
221811
222255
222690
223097
223467
223798
224091
224346
224556
224719
224859
224929
220948
221308
221703
222123
222539
222924
223280
223610
223918
224206
224459
224673
224866
224975
220948
221305
221633
222010
222369
222717
223056
223394
223726
224054
224360
224634
224883
225010
227899
228085
228242
228484
228743
229056
229381
229719
230052
230354
230626
230857
231067
231206
227923
228101
228273
228518
228797
229124
229466
229811
230141
230432
230685
230900
231086
231277
227899
228095
228295
228563
228870
229214
229567
229912
230232
230507
230739
230932
231104
231284
227884
228082
228307
228599
228929
229287
229651
229996
230308
230569
230785
230961
231119
231294
227844
228050
228300
228615
228970
229344
229715
230059
230362
230611
230813
230977
231128
231293
227779
227991
228266
228603
228980
229369
229749
230092
230388
230628
230819
230976
231123
231283
227685
227908
228209
228570
228969
229373
229759
230102
230391
230621
230803
230954
231097
231251
227579
227814
228140
228524
228943
229357
229746
230085
230365
230586
230761
230908
231049
231199
227485
227737
228086
228488
228916
229334
229720
230052
230323
230537
230707
230851
230991
231139
227419
227688
228055
228470
228901
229315
229692
230014
230275
230483
230651
230796
230937
231086
227390
227677
228057
228478
228906
229309
229671
229979
230231
230436
230605
230754
230899
231048
227396
227705
228081
228503
228924
229314
229660
229956
230200
230407
230583
230743
230898
231049
227389
227750
228137
228559
228969
229338
229661
229942
230182
230398
230588
230767
230937
231104
227516
227890
228244
228632
229006
229350
229655
229931
230182
230411
230621
230813
231001
231144
233145
233305
233433
233611
233803
234015
234243
234482
234728
234967
235193
235410
235622
235829
233140
233291
233432
233615
233822
234051
234295
234546
234793
235026
235241
235448
235635
235868
233090
233250
233416
233621
233851
234101
234361
234617
234860
235082
235282
235470
235648
235866
233062
233220
233408
233633
233888
234159
234432
234693
234931
235141
235326
235499
235664
235875
233028
233189
233398
233648
233929
234220
234506
234770
235003
235203
235375
235536
235696
235900
232997
233167
233396
233670
233971
234280
234577
234844
235073
235265
235427
235582
235738
235939
232983
233162
233410
233703
234025
234348
234651
234919
235141
235326
235482
235633
235790
235989
232990
233180
233445
233756
234092
234424
234729
234992
235208
235385
235535
235685
235843
236042
233026
233229
233511
233836
234181
234514
234814
235069
235275
235444
235590
235739
235900
236100
233101
233323
233621
233954
234299
234626
234914
235156
235349
235509
235651
235798
235962
236164
233227
233469
233776
234109
234446
234757
235026
235250
235428
235580
235717
235865
236031
236236
233385
233651
233961
234291
234615
234906
235153
235357
235521
235664
235799
235948
236116
236320
233571
233868
234177
234496
234800
235066
235287
235471
235622
235759
235893
236046
236216
236433
233779
234121
234403
234704
234978
235218
235421
235593
235738
235873
236010
236158
236336
236528
236762
236961
237129
237308
237475
237626
237769
237903
238031
238162
238298
238457
238628
238849
236741
236943
237117
237301
237480
237645
237800
237947
238084
238221
238358
238520
238683
238916
236723
236921
237109
237304
237497
237678
237845
237998
238137
238272
238405
238559
238720
238943
236732
236926
237123
237329
237533
237727
237904
238063
238203
238337
238465
238612
238767
238984
236756
236948
237153
237370
237587
237792
237978
238141
238281
238411
238535
238676
238829
239039
236808
236998
237210
237436
237663
237876
238066
238232
238371
238499
238619
238757
238909
239114
236890
237079
237298
237530
237763
237982
238174
238339
238477
238603
238722
238859
239011
239212
237010
237200
237422
237658
237893
238111
238301
238463
238597
238722
238841
238979
239134
239332
237169
237358
237580
237815
238047
238260
238444
238600
238730
238853
238974
239113
239273
239468
237365
237558
237778
238006
238230
238432
238604
238751
238876
238997
239119
239261
239425
239617
237607
237805
238017
238231
238437
238620
238776
238911
239028
239147
239270
239416
239582
239775
237882
238089
238286
238480
238660
238818
238954
239075
239185
239301
239426
239574
239745
239934
238182
238392
238575
238747
238899
239029
239142
239246
239347
239459
239583
239737
239907
240112
238488
238707
238866
239009
239128
239229
239321
239412
239507
239616
239743
239891
240070
240262
238937
239189
239382
239563
239721
239849
239952
240041
240113
240191
240270
240380
240503
240684
239031
239252
239432
239606
239760
239889
239996
240090
240170
240257
240346
240468
240596
240788
239118
239319
239499
239668
239818
239945
240051
240145
240226
240313
240405
240527
240662
240854
239233
239414
239584
239747
239894
240019
240124
240218
240300
240390
240483
240609
240746
240939
239362
239529
239691
239847
239988
240110
240212
240304
240385
240474
240570
240694
240835
241025
239510
239665
239818
239966
240101
240218
240317
240404
240484
240573
240670
240794
240938
241124
239676
239820
239965
240104
240232
240342
240436
240520
240599
240687
240786
240909
241056
241237
239863
239997
240131
240260
240378
240481
240568
240649
240728
240816
240918
241041
241190
241365
240067
240190
240310
240427
240535
240629
240710
240789
240867
240958
241062
241188
241338
241506
240283
240396
240499
240602
240697
240782
240858
240935
241015
241109
241219
241346
241498
241657
240512
240613
240699
240785
240866
240940
241010
241085
241168
241268
241382
241514
241665
241821
240748
240837
240902
240970
241033
241094
241158
241232
241319
241425
241547
241683
241836
241985
240998
241068
241114
241162
241207
241254
241310
241382
241472
241586
241712
241857
242008
242170
241227
241296
241317
241340
241367
241403
241454
241527
241621
241736
241868
242011
242173
242326
240313
240532
240687
240835
240960
241067
241155
241232
241293
241360
241418
241498
241577
241691
240542
240702
240833
240963
241075
241170
241249
241319
241377
241444
241506
241593
241675
241793
240743
240873
240996
241111
241205
241284
241349
241407
241459
241520
241580
241665
241749
241868
240943
241049
241159
241256
241335
241400
241453
241503
241550
241607
241668
241753
241839
241959
241132
241224
241322
241404
241469
241522
241565
241607
241648
241701
241761
241844
241933
242052
241311
241394
241478
241546
241600
241643
241679
241715
241753
241802
241862
241943
242034
242152
241478
241554
241625
241683
241728
241765
241796
241828
241863
241910
241970
242049
242143
242258
241634
241704
241764
241814
241854
241885
241913
241942
241977
242023
242086
242163
242259
242370
241778
241843
241895
241939
241975
242003
242029
242059
242095
242143
242208
242285
242383
242489
241915
241975
242018
242058
242089
242115
242142
242173
242214
242266
242335
242413
242513
242614
242044
242097
242132
242168
242196
242222
242252
242288
242335
242394
242468
242550
242651
242750
242161
242210
242238
242269
242294
242322
242356
242399
242454
242519
242600
242685
242791
242884
242283
242318
242338
242363
242387
242417
242457
242509
242575
242651
242738
242832
242938
243040
242380
242417
242430
242450
242474
242510
242557
242619
242693
242774
242869
242963
243077
243172
240961
241056
241133
241212
241286
241358
241426
241493
241551
241618
241674
241745
241808
241886
241178
241236
241301
241360
241418
241477
241532
241586
241636
241696
241749
241821
241883
241965
241366
241405
241467
241513
241558
241601
241641
241682
241721
241771
241819
241886
241946
242028
241540
241569
241622
241656
241690
241720
241747
241776
241807
241850
241896
241959
242020
242104
241695
241722
241766
241793
241816
241835
241852
241872
241896
241933
241977
242037
242101
242186
241832
241861
241896
241917
241932
241943
241953
241967
241988
242021
242064
242121
242188
242274
241952
241982
242009
242026
242036
242043
242050
242062
242081
242111
242155
242211
242282
242368
242056
242087
242108
242124
242131
242136
242143
242154
242173
242203
242249
242305
242382
242467
242143
242174
242193
242208
242216
242222
242231
242244
242267
242299
242348
242405
242488
242573
242219
242251
242269
242286
242296
242304
242316
242332
242359
242394
242448
242508
242597
242681
242284
242316
242335
242355
242369
242382
242399
242422
242456
242496
242556
242620
242713
242798
242344
242380
242400
242424
242442
242462
242484
242512
242551
242596
242662
242731
242831
242915
242406
242440
242460
242488
242512
242539
242571
242608
242656
242710
242782
242861
242962
243055
242463
242502
242529
242561
242591
242625
242663
242707
242760
242819
242896
242979
243087
243180
240979
240992
241031
241071
241121
241170
241224
241284
241344
241412
241471
241542
241597
241664
241159
241146
241182
241210
241248
241285
241327
241375
241425
241485
241537
241602
241657
241726
241303
241290
241322
241344
241371
241398
241427
241464
241504
241553
241598
241656
241707
241775
241432
241425
241451
241466
241484
241501
241521
241549
241580
241622
241662
241715
241763
241830
241545
241546
241567
241577
241588
241597
241610
241630
241655
241689
241726
241776
241826
241894
241641
241651
241668
241675
241680
241685
241693
241707
241728
241758
241794
241843
241896
241967
241721
241739
241752
241759
241762
241765
241771
241782
241801
241829
241866
241915
241974
242048
241790
241812
241825
241833
241835
241838
241843
241854
241874
241901
241942
241993
242060
242138
241843
241869
241882
241893
241898
241904
241913
241926
241949
241979
242026
242081
242157
242237
241893
241923
241938
241953
241960
241970
241982
241997
242025
242058
242113
242173
242261
242345
241931
241965
241983
242004
242017
242033
242052
242074
242110
242151
242214
242280
242377
242463
241976
242018
242040
242065
242084
242105
242129
242156
242197
242243
242313
242387
242494
242584
242024
242070
242093
242124
242151
242179
242213
242250
242301
242358
242437
242522
242634
242729
242084
242137
242170
242204
242238
242272
242311
242353
242409
242471
242554
242644
242762
242865
240532
240485
240471
240453
240456
240475
240513
240565
240624
240695
240764
240849
240929
241035
240635
240587
240574
240556
240559
240578
240612
240658
240714
240780
240848
240929
241003
241096
240714
240675
240664
240651
240655
240676
240705
240746
240794
240853
240914
240989
241061
241152
240787
240757
240748
240742
240748
240766
240792
240829
240874
240929
240986
241057
241126
241213
240856
240837
240832
240829
240837
240853
240876
240910
240950
241000
241055
241123
241194
241281
240922
240914
240913
240914
240923
240937
240959
240990
241028
241076
241132
241200
241273
241361
240987
240989
240992
240998
241006
241020
241041
241070
241108
241156
241214
241283
241361
241450
241053
241064
241071
241081
241089
241104
241125
241155
241194
241243
241306
241378
241463
241553
241117
241136
241147
241162
241173
241190
241214
241245
241288
241340
241408
241483
241576
241667
241190
241217
241231
241249
241263
241283
241309
241341
241388
241444
241518
241598
241701
241794
241261
241295
241312
241335
241355
241379
241411
241448
241501
241563
241645
241730
241839
241931
241351
241392
241412
241439
241462
241489
241524
241565
241622
241688
241774
241864
241982
242077
241442
241488
241512
241541
241573
241606
241649
241698
241763
241837
241930
242027
242148
242244
241564
241608
241643
241672
241709
241745
241791
241843
241910
241985
242077
242176
242298
242407
240028
239984
239956
239932
239920
239915
239924
239950
239990
240045
240111
240194
240287
240402
240084
240046
240022
240004
239995
239996
240011
240040
240083
240139
240207
240290
240379
240482
240133
240105
240087
240076
240072
240078
240097
240127
240169
240224
240288
240368
240453
240554
240189
240169
240157
240149
240150
240161
240182
240214
240258
240314
240379
240458
240540
240638
240251
240237
240229
240225
240232
240246
240268
240302
240346
240402
240466
240544
240626
240721
240318
240309
240306
240307
240317
240333
240358
240393
240439
240496
240563
240641
240723
240816
240391
240388
240388
240395
240406
240425
240452
240489
240536
240595
240664
240741
240825
240915
240470
240475
240477
240490
240501
240522
240551
240591
240642
240703
240774
240853
240939
241025
240556
240568
240574
240590
240604
240629
240661
240703
240757
240819
240893
240971
241060
241142
240656
240674
240683
240701
240719
240746
240780
240825
240880
240944
241020
241099
241191
241270
240762
240786
240799
240820
240842
240873
240911
240957
241015
241080
241158
241238
241331
241404
240891
240919
240933
240957
240982
241013
241052
241099
241157
241223
241302
241382
241480
241551
241025
241051
241071
241097
241128
241161
241203
241253
241314
241383
241463
241544
241640
241710
241191
241210
241238
241261
241292
241326
241368
241417
241476
241543
241619
241699
241794
241877
239790
239765
239747
239725
239703
239688
239679
239681
239693
239717
239753
239803
239867
239948
239823
239806
239791
239774
239760
239752
239751
239760
239780
239810
239853
239909
239974
240054
239859
239847
239836
239826
239818
239818
239825
239841
239866
239901
239945
240001
240063
240141
239905
239897
239889
239884
239883
239889
239903
239926
239956
239996
240043
240101
240162
240238
239960
239954
239950
239950
239954
239966
239985
240013
240047
240090
240139
240196
240255
240327
240023
240019
240020
240023
240032
240049
240072
240103
240141
240186
240236
240293
240352
240419
240097
240096
240099
240106
240119
240139
240165
240198
240237
240283
240333
240389
240447
240510
240182
240184
240190
240199
240214
240236
240263
240297
240337
240384
240435
240489
240547
240604
240279
240285
240291
240302
240318
240340
240368
240403
240444
240490
240541
240593
240650
240700
240389
240398
240403
240414
240430
240452
240481
240517
240558
240603
240652
240702
240759
240803
240506
240519
240523
240536
240551
240574
240604
240639
240679
240722
240770
240817
240873
240909
240642
240654
240657
240669
240683
240706
240734
240768
240807
240848
240894
240939
240995
241026
240783
240792
240797
240809
240823
240846
240873
240905
240943
240982
241026
241068
241119
241148
240952
240947
240952
240960
240974
240994
241019
241047
241082
241119
241160
241201
241250
241286
239776
239767
239754
239735
239716
239696
239677
239660
239647
239640
239642
239648
239662
239685
239785
239781
239771
239761
239748
239734
239722
239713
239710
239711
239719
239733
239754
239792
239807
239805
239797
239791
239783
239776
239772
239771
239774
239782
239795
239813
239836
239876
239840
239838
239833
239830
239826
239825
239827
239832
239840
239853
239870
239893
239918
239959
239884
239881
239879
239877
239876
239880
239886
239897
239909
239927
239946
239970
239996
240033
239937
239934
239933
239932
239935
239942
239952
239966
239981
240001
240022
240047
240071
240105
240000
239996
239996
239998
240002
240011
240023
240039
240056
240077
240098
240121
240145
240173
240074
240070
240069
240072
240078
240088
240100
240115
240133
240152
240173
240194
240218
240239
240156
240155
240153
240155
240161
240170
240182
240196
240212
240230
240250
240268
240289
240304
240249
240250
240245
240246
240250
240257
240267
240280
240295
240311
240329
240343
240362
240369
240350
240352
240344
240345
240346
240351
240359
240370
240383
240397
240412
240422
240436
240436
240463
240463
240450
240448
240446
240449
240456
240465
240476
240486
240498
240505
240514
240509
240581
240577
240562
240558
240554
240555
240559
240565
240572
240579
240585
240588
240595
240583
240721
240696
240680
240671
240665
240663
240664
240667
240671
240674
240677
240676
240680
240667
239819
239814
239803
239789
239771
239749
239723
239695
239668
239639
239612
239584
239560
239543
239812
239812
239803
239793
239777
239759
239739
239718
239696
239674
239651
239630
239613
239603
239817
239818
239811
239803
239790
239776
239759
239744
239729
239713
239698
239683
239670
239664
239836
239836
239829
239823
239812
239801
239788
239775
239762
239750
239739
239730
239721
239718
239864
239862
239856
239849
239839
239830
239819
239810
239800
239792
239784
239779
239772
239770
239900
239895
239889
239882
239873
239865
239857
239850
239842
239835
239828
239823
239819
239817
239945
239938
239930
239922
239914
239907
239900
239894
239887
239881
239875
239869
239864
239860
239998
239989
239978
239970
239961
239954
239947
239941
239934
239927
239920
239912
239906
239899
240057
240046
240033
240024
240015
240007
239999
239992
239984
239975
239966
239955
239945
239934
240121
240109
240094
240083
240072
240063
240054
240044
240033
240022
240010
239996
239982
239966
240190
240177
240159
240147
240134
240123
240111
240098
240085
240071
240055
240037
240016
239993
240266
240251
240229
240213
240197
240183
240168
240153
240135
240117
240097
240074
240050
240019
240345
240328
240303
240284
240264
240245
240227
240208
240186
240163
240137
240108
240078
240040
240438
240405
240374
240350
240327
240306
240284
240261
240236
240210
240180
240146
240111
240066
239866
239860
239845
239828
239805
239779
239748
239712
239673
239629
239584
239536
239485
239424
239844
239842
239828
239814
239793
239769
239739
239705
239667
239625
239580
239533
239487
239439
239833
239832
239817
239802
239782
239759
239731
239701
239668
239631
239592
239551
239508
239465
239829
239826
239812
239798
239779
239757
239732
239704
239673
239639
239604
239565
239526
239487
239832
239826
239813
239799
239781
239760
239736
239709
239681
239650
239617
239582
239545
239509
239843
239835
239821
239807
239788
239768
239745
239719
239690
239660
239628
239595
239561
239526
239862
239851
239836
239820
239801
239780
239756
239730
239702
239671
239639
239606
239572
239538
239886
239873
239856
239838
239817
239794
239769
239742
239713
239681
239648
239614
239579
239544
239915
239899
239879
239859
239835
239811
239784
239755
239724
239691
239656
239619
239582
239546
239947
239928
239904
239881
239855
239828
239799
239768
239733
239698
239660
239622
239581
239543
239981
239959
239932
239905
239875
239846
239813
239779
239742
239703
239660
239619
239572
239531
240014
239989
239959
239930
239896
239862
239826
239788
239747
239705
239659
239613
239561
239515
240047
240018
239985
239952
239915
239876
239836
239795
239750
239702
239651
239599
239543
239489
240079
240039
240002
239965
239927
239886
239842
239798
239751
239701
239647
239591
239532
239468
239830
239821
239802
239782
239756
239726
239690
239649
239603
239550
239492
239426
239358
239276
239797
239790
239773
239753
239727
239697
239661
239619
239571
239517
239459
239394
239328
239255
239774
239767
239747
239726
239698
239668
239632
239590
239544
239491
239435
239373
239309
239237
239754
239744
239723
239701
239673
239642
239606
239564
239517
239466
239410
239350
239288
239220
239739
239725
239703
239679
239650
239618
239581
239539
239493
239442
239388
239329
239268
239203
239724
239708
239684
239659
239629
239596
239557
239515
239468
239417
239363
239306
239247
239184
239713
239693
239668
239641
239609
239574
239534
239490
239443
239392
239338
239281
239223
239162
239702
239679
239652
239622
239588
239551
239509
239464
239415
239363
239309
239252
239194
239135
239693
239667
239637
239604
239567
239527
239483
239436
239385
239332
239276
239219
239160
239103
239680
239651
239618
239582
239542
239500
239453
239404
239351
239296
239239
239181
239120
239065
239670
239637
239600
239561
239518
239471
239422
239369
239313
239255
239194
239136
239071
239018
239653
239615
239575
239532
239486
239437
239384
239329
239271
239211
239148
239087
239020
238967
239636
239595
239551
239504
239454
239401
239344
239284
239222
239158
239091
239027
238957
238902
239609
239562
239515
239465
239411
239356
239296
239235
239171
239107
239040
238973
238903
238836
239561
239528
239490
239447
239398
239344
239284
239217
239145
239064
239618
239599
239573
239546
239514
239478
239437
239391
239338
239281
239217
239148
239075
238996
239579
239560
239531
239500
239465
239427
239384
239336
239283
239224
239160
239091
239019
238942
239539
239518
239486
239454
239416
239376
239330
239280
239225
239165
239101
239031
238960
238883
239501
239475
239441
239407
239367
239324
239277
239225
239169
239108
239044
238975
238905
238829
239460
239430
239395
239358
239316
239271
239221
239168
239110
239048
238984
238915
238846