/*--------------------------------*- C++ -*----------------------------------*\
| =========                 |                                                 |
| \\      /  F ield         | OpenFOAM: The Open Source CFD Toolbox           |
|  \\    /   O peration     | Version:  v2106                                 |
|   \\  /    A nd           | Website:  www.openfoam.com                      |
|    \\/     M anipulation  |                                                 |
\*---------------------------------------------------------------------------*/
FoamFile
{
    version     2.0;
    format      ascii;
    arch        "LSB;label=32;scalar=64";
    class       surfaceScalarField;
    location    "0.000168";
    object      phi;
}
// * * * * * * * * * * * * * * * * * * * * * * * * * * * * * * * * * * * * * //

dimensions      [1 0 -1 0 0 0 0];

internalField   nonuniform List<scalar> 
52765
(
-1.69369e-06
7.97903e-07
-4.02317e-06
-1.13451e-06
1.86572e-06
-1.59679e-06
7.65681e-07
-4.01024e-06
-1.52726e-06
7.85489e-07
-3.99509e-06
-1.5054e-06
7.8107e-07
-3.97196e-06
-1.51179e-06
7.55165e-07
-3.94803e-06
-1.55893e-06
6.89085e-07
-3.9336e-06
6.08925e-07
-3.91544e-06
-1.71096e-06
5.17449e-07
-4.06274e-06
1.82266e-06
-1.65458e-06
5.42333e-07
-4.04285e-06
-1.62128e-06
5.79365e-07
-4.02481e-06
-1.61996e-06
5.94784e-07
-3.99941e-06
-1.64374e-06
5.74863e-07
-3.97451e-06
-1.698e-06
5.22467e-07
-3.95745e-06
4.59882e-07
-3.93409e-06
-1.67228e-06
2.67334e-07
-4.0918e-06
1.74038e-06
-1.64404e-06
3.36875e-07
-4.07264e-06
-1.64426e-06
3.95393e-07
-4.05195e-06
-1.6666e-06
4.22511e-07
-4.03211e-06
-1.71273e-06
4.08945e-07
-4.00564e-06
-1.78213e-06
3.6739e-07
-3.98716e-06
3.16744e-07
-3.96059e-06
-1.61481e-06
5.71165e-08
-4.11858e-06
1.6414e-06
-1.61693e-06
1.56255e-07
-4.10023e-06
-1.64451e-06
2.31311e-07
-4.07621e-06
-1.68841e-06
2.62404e-07
-4.05989e-06
-1.74922e-06
2.5244e-07
-4.03218e-06
-1.82935e-06
2.19256e-07
-4.01329e-06
1.80034e-07
-3.98663e-06
-1.54762e-06
-1.26057e-07
-4.13911e-06
-1.58192e-06
3.58211e-10
-4.1261e-06
-1.62995e-06
8.11417e-08
-4.10105e-06
-1.68927e-06
1.10932e-07
-4.08394e-06
-1.76156e-06
1.01489e-07
-4.05675e-06
-1.84994e-06
7.31683e-08
-4.03607e-06
4.53366e-08
-4.00981e-06
-1.48331e-06
-2.8055e-07
-4.16596e-06
-1.53959e-06
-1.38997e-07
-4.15126e-06
-1.60485e-06
-5.85661e-08
-4.12561e-06
-1.6795e-06
-3.15037e-08
-4.10431e-06
-1.76512e-06
-4.09305e-08
-4.07831e-06
-1.86297e-06
-6.72265e-08
-4.05472e-06
-8.7023e-08
-4.029e-06
-1.4085e-06
-4.00879e-07
-4.18651e-06
-1.48817e-06
-2.62955e-07
-4.16931e-06
-1.57144e-06
-1.88203e-07
-4.14572e-06
-1.66361e-06
-1.62685e-07
-4.12123e-06
-1.76575e-06
-1.71534e-07
-4.09851e-06
-1.87532e-06
-1.99032e-07
-4.07319e-06
-2.16855e-07
-4.04784e-06
-1.31997e-06
-4.20431e-06
-1.42667e-06
-4.18442e-06
-1.53353e-06
-4.1604e-06
-1.64672e-06
-4.13332e-06
-1.76616e-06
-4.11168e-06
-1.88763e-06
-4.08471e-06
-4.05873e-06
-1.44947e-06
6.41066e-07
-9.68146e-07
1.59883e-06
-3.80171e-06
-1.37108e-06
6.15862e-07
-8.76896e-07
-3.78479e-06
-1.32167e-06
6.37575e-07
-8.7855e-07
-3.76275e-06
-1.32018e-06
6.45133e-07
-8.47973e-07
-3.73369e-06
-1.35332e-06
6.32728e-07
-8.16636e-07
-3.70256e-06
-1.42288e-06
5.75659e-07
-7.39727e-07
-3.67848e-06
-1.5286e-06
5.16172e-07
-6.58706e-07
-3.65042e-06
-1.66017e-06
4.48597e-07
-5.70436e-07
-3.63176e-06
-1.80612e-06
3.72879e-07
-4.84445e-07
-3.60336e-06
-1.97037e-06
2.95125e-07
-3.89752e-07
-3.58043e-06
-2.16249e-06
2.058e-07
-2.68059e-07
-3.55294e-06
-2.38773e-06
1.33329e-07
-1.58888e-07
-3.52623e-06
-2.64591e-06
5.5115e-08
-3.91622e-08
-3.49489e-06
6.5247e-08
-4.035e-09
-2.94339e-06
-3.46085e-06
-1.46141e-06
3.67769e-07
1.55068e-06
-3.83008e-06
-1.41992e-06
3.89032e-07
-3.80849e-06
-1.40484e-06
4.28457e-07
-3.78318e-06
-1.42176e-06
4.5696e-07
-3.75229e-06
-1.46643e-06
4.52993e-07
-3.71716e-06
-1.54239e-06
4.12712e-07
-3.69292e-06
-1.64338e-06
3.66199e-07
-3.663e-06
-1.76763e-06
3.16417e-07
-3.64373e-06
-1.9088e-06
2.55336e-07
-3.61339e-06
-2.06829e-06
1.97887e-07
-3.58913e-06
-2.24269e-06
1.30257e-07
-3.56108e-06
-2.44453e-06
9.27705e-08
-3.53377e-06
-2.67982e-06
6.03356e-08
-3.50206e-06
8.49922e-08
-2.92271e-06
-3.46737e-06
-1.42966e-06
1.27482e-07
1.47812e-06
-3.84756e-06
-1.41428e-06
1.82029e-07
-3.82845e-06
-1.42954e-06
2.41511e-07
-3.79956e-06
-1.46817e-06
2.82398e-07
-3.77422e-06
-1.52867e-06
2.84006e-07
-3.73884e-06
-1.61604e-06
2.5806e-07
-3.71499e-06
-1.72595e-06
2.24045e-07
-3.68463e-06
-1.85874e-06
1.8974e-07
-3.66413e-06
-2.00726e-06
1.43369e-07
-3.63168e-06
-2.16782e-06
1.00976e-07
-3.60126e-06
-2.33687e-06
4.98636e-08
-3.56769e-06
-2.52083e-06
3.53491e-08
-3.53298e-06
-2.72902e-06
3.91893e-08
-3.49682e-06
9.00894e-08
-2.95548e-06
-3.46542e-06
-1.37636e-06
-8.17573e-08
1.38466e-06
-3.86474e-06
-1.39239e-06
-2.66801e-09
-3.84679e-06
-1.43425e-06
7.25755e-08
-3.81624e-06
-1.49226e-06
1.18632e-07
-3.79378e-06
-1.5665e-06
1.23923e-07
-3.75972e-06
-1.66276e-06
1.08293e-07
-3.73593e-06
-1.78012e-06
8.6686e-08
-3.70653e-06
-1.91557e-06
6.30722e-08
-3.68261e-06
-2.06499e-06
3.02884e-08
-3.64903e-06
-2.22674e-06
2.77926e-09
-3.61403e-06
-2.39741e-06
-3.20689e-08
-3.57873e-06
-2.57342e-06
-3.32977e-08
-3.54225e-06
-2.76203e-06
-3.53165e-09
-3.50416e-06
7.12423e-08
-2.96256e-06
-3.47553e-06
-1.33314e-06
-2.70574e-07
1.3143e-06
-3.8805e-06
-1.37582e-06
-1.68927e-07
-3.86651e-06
-1.43222e-06
-8.75382e-08
-3.837e-06
-1.50186e-06
-4.00388e-08
-3.8128e-06
-1.58606e-06
-3.20641e-08
-3.78025e-06
-1.68912e-06
-4.01152e-08
-3.75475e-06
-1.8133e-06
-4.89677e-08
-3.72558e-06
-1.95509e-06
-6.23143e-08
-3.69782e-06
-2.11063e-06
-8.18555e-08
-3.6648e-06
-2.27515e-06
-9.72517e-08
-3.62903e-06
-2.44519e-06
-1.19803e-07
-3.59578e-06
-2.61664e-06
-1.12258e-07
-3.56065e-06
-2.79012e-06
-6.54197e-08
-3.52108e-06
2.1662e-08
-2.96029e-06
-3.48618e-06
-1.28173e-06
-4.37527e-07
1.23494e-06
-3.90569e-06
-1.34692e-06
-3.2113e-07
-3.88747e-06
-1.41837e-06
-2.3989e-07
-3.85739e-06
-1.50091e-06
-1.9188e-07
-3.82924e-06
-1.59768e-06
-1.79946e-07
-3.79834e-06
-1.71025e-06
-1.82244e-07
-3.77032e-06
-1.84144e-06
-1.80775e-07
-3.74131e-06
-1.9862e-06
-1.86743e-07
-3.71028e-06
-2.14072e-06
-1.97478e-07
-3.67852e-06
-2.29942e-06
-2.06565e-07
-3.64312e-06
-2.46217e-06
-2.21196e-07
-3.61045e-06
-2.62278e-06
-2.07196e-07
-3.57477e-06
-2.77957e-06
-1.48496e-07
-3.53419e-06
-4.76189e-08
-2.93488e-06
-3.49666e-06
-1.22414e-06
-5.81933e-07
1.14859e-06
-3.92656e-06
-1.30918e-06
-4.61044e-07
-3.90352e-06
-1.39699e-06
-3.82996e-07
-3.87471e-06
-1.49439e-06
-3.33576e-07
-3.84432e-06
-1.60596e-06
-3.16857e-07
-3.81612e-06
-1.72947e-06
-3.15894e-07
-3.78663e-06
-1.86659e-06
-3.0822e-07
-3.75758e-06
-2.01194e-06
-3.11065e-07
-3.7244e-06
-2.16122e-06
-3.19395e-07
-3.69276e-06
-2.30896e-06
-3.2881e-07
-3.65693e-06
-2.45779e-06
-3.39739e-07
-3.62297e-06
-2.60529e-06
-3.19181e-07
-3.58626e-06
-2.75045e-06
-2.50504e-07
-3.54749e-06
-1.37716e-07
-2.89557e-06
-3.50892e-06
-1.14907e-06
-7.04394e-07
1.04527e-06
-3.94501e-06
-1.25968e-06
-5.83008e-07
-3.91705e-06
-1.37031e-06
-5.10496e-07
-3.88715e-06
-1.48681e-06
-4.60549e-07
-3.85533e-06
-1.61349e-06
-4.41303e-07
-3.82796e-06
-1.74744e-06
-4.39287e-07
-3.79716e-06
-1.8882e-06
-4.30478e-07
-3.76729e-06
-2.0313e-06
-4.34821e-07
-3.7332e-06
-2.17265e-06
-4.4737e-07
-3.7023e-06
-2.30804e-06
-4.62628e-07
-3.6673e-06
-2.44172e-06
-4.73328e-07
-3.63227e-06
-2.57656e-06
-4.45769e-07
-3.59441e-06
-2.71141e-06
-3.69062e-07
-3.55897e-06
-2.49954e-07
-2.84455e-06
-3.52309e-06
-1.08455e-06
-8.0237e-07
9.5103e-07
-3.96381e-06
-1.21872e-06
-6.87463e-07
-3.93518e-06
-1.34945e-06
-6.2381e-07
-3.90251e-06
-1.48225e-06
-5.74786e-07
-3.87164e-06
-1.622e-06
-5.53787e-07
-3.84333e-06
-1.76526e-06
-5.51953e-07
-3.81289e-06
-1.90875e-06
-5.46267e-07
-3.78163e-06
-2.04815e-06
-5.57142e-07
-3.74697e-06
-2.17995e-06
-5.79293e-07
-3.71462e-06
-2.30185e-06
-6.05114e-07
-3.67915e-06
-2.41954e-06
-6.18227e-07
-3.64104e-06
-2.54145e-06
-5.85081e-07
-3.60328e-06
-2.66721e-06
-5.02931e-07
-3.57345e-06
-3.87426e-07
-2.78423e-06
-3.54141e-06
-1.05086e-06
-8.57452e-07
8.72857e-07
-3.98704e-06
-1.21102e-06
-7.69507e-07
-3.95605e-06
-1.35903e-06
-7.22749e-07
-3.91585e-06
-1.50304e-06
-6.78503e-07
-3.87966e-06
-1.65063e-06
-6.56392e-07
-3.84787e-06
-1.79963e-06
-6.54774e-07
-3.81923e-06
-1.94274e-06
-6.56176e-07
-3.78869e-06
-2.07487e-06
-6.7897e-07
-3.75547e-06
-2.19354e-06
-7.15211e-07
-3.72244e-06
-2.2994e-06
-7.54009e-07
-3.68703e-06
-2.40135e-06
-7.71149e-07
-3.6477e-06
-2.50914e-06
-7.3551e-07
-3.61439e-06
-2.6197e-06
-6.53282e-07
-3.58949e-06
-5.55698e-07
-2.71138e-06
-3.56449e-06
-1.03417e-06
-8.61173e-07
8.06247e-07
-4.00482e-06
-1.23427e-06
-8.05222e-07
-3.97791e-06
-1.40388e-06
-7.95806e-07
-3.936e-06
-1.5587e-06
-7.65235e-07
-3.89706e-06
-1.70949e-06
-7.48065e-07
-3.86246e-06
-1.85834e-06
-7.48805e-07
-3.83536e-06
-1.99717e-06
-7.60466e-07
-3.80327e-06
-2.11998e-06
-7.99525e-07
-3.76895e-06
-2.22586e-06
-8.51949e-07
-3.73223e-06
-2.31818e-06
-9.04118e-07
-3.69528e-06
-2.40671e-06
-9.26277e-07
-3.6565e-06
-2.49228e-06
-8.99186e-07
-3.63227e-06
-2.57451e-06
-8.25484e-07
-3.61193e-06
-7.60115e-07
-2.6271e-06
-3.59526e-06
-1.03994e-06
-8.06873e-07
7.57445e-07
-4.0249e-06
-1.27755e-06
-7.94712e-07
-4.00318e-06
-1.47887e-06
-8.25848e-07
-3.95691e-06
-1.64641e-06
-8.3005e-07
-3.90882e-06
-1.79559e-06
-8.3034e-07
-3.86443e-06
-1.938e-06
-8.36783e-07
-3.83667e-06
-2.06959e-06
-8.58507e-07
-3.80528e-06
-2.18447e-06
-9.14754e-07
-3.77489e-06
-2.28073e-06
-9.84739e-07
-3.73896e-06
-2.36049e-06
-1.05388e-06
-3.70378e-06
-2.43086e-06
-1.08598e-06
-3.66918e-06
-2.48053e-06
-1.08187e-06
-3.65263e-06
-2.50639e-06
-1.03821e-06
-3.63436e-06
-1.00185e-06
-2.50937e-06
-3.61465e-06
-1.07024e-06
-7.07736e-07
7.48406e-07
-4.04473e-06
-1.3308e-06
-7.53773e-07
-4.02522e-06
-1.55449e-06
-8.22914e-07
-3.97282e-06
-1.74544e-06
-8.58894e-07
-3.92481e-06
-1.91097e-06
-8.83057e-07
-3.87665e-06
-2.05676e-06
-9.07121e-07
-3.84283e-06
-2.1805e-06
-9.48747e-07
-3.8088e-06
-2.28326e-06
-1.0261e-06
-3.77797e-06
-2.36242e-06
-1.11887e-06
-3.74295e-06
-2.41979e-06
-1.20996e-06
-3.71276e-06
-2.45804e-06
-1.26079e-06
-3.68615e-06
-2.46343e-06
-1.28812e-06
-3.67294e-06
-2.44673e-06
-1.27694e-06
-3.66282e-06
-1.29538e-06
-2.38388e-06
-3.65085e-06
-1.04185e-06
-5.20692e-07
6.33174e-07
-4.05618e-06
-1.35311e-06
-6.55268e-07
-4.05496e-06
-1.62124e-06
-7.65928e-07
-3.99118e-06
-1.8556e-06
-8.33024e-07
-3.94505e-06
-2.0529e-06
-8.92062e-07
-3.89283e-06
-2.20783e-06
-9.57014e-07
-3.85001e-06
-2.31757e-06
-1.03982e-06
-3.80934e-06
-2.40134e-06
-1.13965e-06
-3.7805e-06
-2.46085e-06
-1.25496e-06
-3.74877e-06
-2.49572e-06
-1.37026e-06
-3.71958e-06
-2.49542e-06
-1.45497e-06
-3.69186e-06
-2.45837e-06
-1.51884e-06
-3.67479e-06
-2.38862e-06
-1.53964e-06
-3.66088e-06
-2.25389e-06
-1.63655e-06
-3.65795e-06
-1.04165e-06
-2.56038e-06
1.47557e-06
-9.61466e-07
-2.95134e-06
1.57276e-06
-9.28189e-07
-3.34286e-06
1.69965e-06
-8.75983e-07
-3.7089e-06
1.89388e-06
-8.18013e-07
-4.10976e-06
2.19177e-06
-4.4028e-06
2.68859e-06
-9.06182e-07
-1.43252e-06
1.25576e-06
-2.4238e-06
-8.48135e-07
-1.5309e-06
1.34751e-06
-2.80474e-06
-8.32676e-07
-1.60176e-06
1.4569e-06
-3.18862e-06
-8.00161e-07
-1.79807e-06
1.63357e-06
-3.55133e-06
-7.48405e-07
-2.07435e-06
1.88279e-06
-3.9425e-06
-2.57999e-06
2.31814e-06
-6.25706e-07
-4.23916e-06
-9.44509e-07
-1.50471e-06
-3.03916e-06
-1.06641e-06
-1.55866e-06
-3.40482e-06
-1.24141e-06
-1.57803e-06
-3.78706e-06
-1.44007e-06
-1.74714e-06
-4.16278e-06
-1.69473e-06
-1.965e-06
-4.53628e-06
-2.52208e-06
-1.88545e-06
-4.85975e-06
-1.05024e-06
-1.50492e-06
-3.54775e-06
-1.29284e-06
-1.49512e-06
-3.9084e-06
-1.59657e-06
-1.4579e-06
-4.2957e-06
-1.96609e-06
-1.55372e-06
-4.66922e-06
-2.40927e-06
-1.66926e-06
-5.04073e-06
-2.2417e-06
-2.82603e-06
-5.3938e-06
-1.05156e-06
-1.50498e-06
-3.95188e-06
-1.33968e-06
-1.41435e-06
-4.32023e-06
-1.70082e-06
-1.30587e-06
-4.72255e-06
-2.17284e-06
-1.27798e-06
-5.08982e-06
-2.70618e-06
-1.29835e-06
-5.47701e-06
-1.90155e-06
-3.24302e-06
-5.84126e-06
-1.04408e-06
-1.50981e-06
-4.24214e-06
-1.35719e-06
-1.34102e-06
-4.61087e-06
-1.75589e-06
-1.1593e-06
-5.0274e-06
-2.25962e-06
-1.01949e-06
-5.40657e-06
-2.72549e-06
-1.02443e-06
-5.8183e-06
-1.62729e-06
-3.1879e-06
-6.1846e-06
-9.787e-07
-1.54195e-06
-4.42728e-06
-1.29583e-06
-1.3089e-06
-4.80762e-06
-1.68711e-06
-1.06711e-06
-5.23163e-06
-2.14455e-06
-8.66974e-07
-5.62188e-06
-2.57197e-06
-8.56356e-07
-6.02126e-06
-1.43385e-06
-2.98696e-06
-6.33813e-06
-8.93374e-07
-1.60814e-06
-4.50364e-06
-1.18741e-06
-1.3368e-06
-4.9001e-06
-1.5389e-06
-1.06337e-06
-5.32377e-06
-1.92347e-06
-8.53474e-07
-5.73005e-06
-2.28608e-06
-8.26748e-07
-6.10233e-06
-1.36242e-06
-2.64691e-06
-6.36318e-06
-8.01147e-07
-1.69207e-06
-4.47729e-06
-1.07594e-06
-1.407e-06
-4.88559e-06
-1.38378e-06
-1.13679e-06
-5.30295e-06
-1.66367e-06
-9.80091e-07
-5.7222e-06
-1.92517e-06
-9.611e-07
-6.07068e-06
-1.42687e-06
-2.21912e-06
-6.30481e-06
-7.18039e-07
-1.77263e-06
-4.34369e-06
-9.61397e-07
-1.51786e-06
-4.75591e-06
-1.19644e-06
-1.29435e-06
-5.16966e-06
-1.39088e-06
-1.20645e-06
-5.58784e-06
-1.58047e-06
-1.21508e-06
-5.9465e-06
-1.61964e-06
-1.79526e-06
-6.17746e-06
-6.20744e-07
-1.84554e-06
-4.11576e-06
-8.29328e-07
-1.6551e-06
-4.52147e-06
-9.91857e-07
-1.51314e-06
-4.92951e-06
-1.15864e-06
-1.46828e-06
-5.3255e-06
-1.33116e-06
-1.50878e-06
-5.69874e-06
-1.90692e-06
-1.47938e-06
-5.9429e-06
-4.90699e-07
-1.90072e-06
-3.78237e-06
-6.86735e-07
-1.77954e-06
-4.17296e-06
-8.56212e-07
-1.70487e-06
-4.56953e-06
-1.014e-06
-1.71053e-06
-4.95672e-06
-1.1423e-06
-1.81368e-06
-5.32954e-06
-2.19733e-06
-1.30401e-06
-5.59471e-06
-3.88848e-07
-1.9085e-06
-3.34765e-06
-5.93873e-07
-1.85446e-06
-3.72678e-06
-7.85598e-07
-1.8319e-06
-4.10113e-06
-9.58299e-07
-1.8913e-06
-4.46483e-06
-1.12539e-06
-2.04063e-06
-4.83412e-06
-2.41416e-06
-1.32923e-06
-5.1107e-06
-3.62085e-07
-1.78462e-06
-2.81717e-06
-6.58122e-07
-1.7888e-06
-3.18244e-06
-9.18191e-07
-1.83027e-06
-3.54019e-06
-1.15394e-06
-1.9405e-06
-3.87843e-06
-1.38676e-06
-2.12882e-06
-4.22909e-06
-2.49393e-06
-1.65412e-06
-4.49628e-06
-4.60853e-07
-1.47764e-06
-2.21355e-06
-8.89485e-07
-1.53358e-06
-2.55812e-06
-1.28416e-06
-1.63184e-06
-2.89994e-06
-1.67708e-06
-1.7601e-06
-3.22403e-06
-2.05857e-06
-1.98493e-06
-3.56621e-06
-2.32976e-06
-2.47573e-06
-3.81033e-06
-3.15529e-06
-1.40804e-06
-2.20138e-06
-3.32683e-06
-1.52789e-06
-2.53629e-06
-3.49401e-06
-1.64239e-06
-2.87359e-06
-3.59681e-06
-1.84186e-06
-3.17645e-06
-3.61604e-06
-2.16798e-06
-3.48321e-06
-2.67088e-06
-3.4745e-06
-3.68845e-06
-3.27743e-06
-1.22177e-06
-2.76061e-06
-3.63975e-06
-1.34981e-06
-3.08259e-06
-4.00418e-06
-1.46176e-06
-3.39559e-06
-4.33626e-06
-1.68796e-06
-3.69121e-06
-4.59047e-06
-2.09846e-06
-3.96963e-06
-2.77517e-06
-4.65006e-06
-4.16141e-06
-3.40484e-06
-9.65481e-07
-3.23616e-06
-3.89089e-06
-1.06176e-06
-3.55037e-06
-4.39572e-06
-1.1402e-06
-3.85963e-06
-4.88789e-06
-1.3562e-06
-4.13902e-06
-5.31316e-06
-1.81933e-06
-4.42327e-06
-2.60565e-06
-5.58825e-06
-4.57313e-06
-3.4417e-06
-6.97107e-07
-3.63122e-06
-4.00116e-06
-7.07881e-07
-3.94687e-06
-4.61584e-06
-7.08545e-07
-4.25457e-06
-5.24907e-06
-8.78478e-07
-4.52883e-06
-5.88658e-06
-1.29805e-06
-4.80939e-06
-2.13678e-06
-6.4315e-06
-4.96861e-06
-3.46672e-06
-4.20602e-07
-3.93913e-06
-4.0659e-06
-3.354e-07
-4.26347e-06
-4.72682e-06
-2.5366e-07
-4.57866e-06
-5.46897e-06
-3.10872e-07
-4.86799e-06
-6.26185e-06
-6.26777e-07
-5.12858e-06
-1.5644e-06
-6.85877e-06
-5.31216e-06
-3.44321e-06
-1.65225e-07
-4.15734e-06
-4.04888e-06
1.66597e-08
-4.49038e-06
-4.73744e-06
1.92711e-07
-4.81459e-06
-5.51121e-06
2.48985e-07
-5.11203e-06
-6.27989e-06
-1.72833e-08
-5.36613e-06
-1.01108e-06
-6.83359e-06
-5.54572e-06
-3.38822e-06
4.93988e-08
-4.28482e-06
-3.95858e-06
3.02988e-07
-4.62999e-06
-4.58454e-06
5.35606e-07
-4.96169e-06
-5.23109e-06
6.39313e-07
-5.29462e-06
-5.89427e-06
4.33026e-07
-5.53599e-06
-5.84562e-07
-6.37025e-06
-5.63032e-06
-3.29836e-06
2.09863e-07
-4.31739e-06
-3.79405e-06
4.86626e-07
-4.66791e-06
-4.29611e-06
7.11434e-07
-5.02381e-06
-4.76218e-06
7.95053e-07
-5.38963e-06
-5.25392e-06
6.33151e-07
-5.64054e-06
-3.61095e-07
-5.60989e-06
-5.7079e-06
-3.17879e-06
3.02654e-07
-4.25147e-06
-3.56532e-06
5.44008e-07
-4.61324e-06
-3.89567e-06
6.91103e-07
-4.99165e-06
-4.20433e-06
7.33631e-07
-5.36328e-06
-4.50208e-06
5.57423e-07
-5.67531e-06
-4.20049e-07
-4.69324e-06
-5.75458e-06
-3.02242e-06
3.13054e-07
-4.07358e-06
-3.28395e-06
4.70153e-07
-4.44652e-06
-3.5054e-06
5.44692e-07
-4.839e-06
-3.67552e-06
5.10079e-07
-5.23688e-06
-3.75307e-06
2.3028e-07
-5.58115e-06
-7.11749e-07
-3.82048e-06
-5.71785e-06
-2.85309e-06
2.66548e-07
-3.7962e-06
-3.00771e-06
3.18462e-07
-4.17423e-06
-3.12266e-06
3.12969e-07
-4.5722e-06
-3.18456e-06
1.89765e-07
-4.96802e-06
-3.175e-06
-1.8661e-07
-5.33858e-06
-1.12364e-06
-3.1677e-06
-5.54072e-06
-2.68296e-06
2.09973e-07
-3.41108e-06
-2.80914e-06
1.85365e-07
-3.78343e-06
-2.8732e-06
7.75299e-08
-4.1786e-06
-2.87495e-06
-1.43712e-07
-4.55074e-06
-2.84286e-06
-5.83899e-07
-4.93588e-06
-1.48375e-06
-2.86395e-06
-5.21144e-06
-2.57006e-06
2.08329e-07
-2.93614e-06
-2.71053e-06
1.11359e-07
-3.31051e-06
-2.81069e-06
-7.24292e-08
-3.69483e-06
-2.85957e-06
-3.68798e-07
-4.05558e-06
-2.88486e-06
-8.50032e-07
-4.44562e-06
-1.66612e-06
-2.98742e-06
-4.77312e-06
-2.50946e-06
3.33745e-07
-2.3354e-06
-2.736e-06
1.88609e-07
-2.71211e-06
-2.95737e-06
-2.32806e-08
-3.08699e-06
-3.16938e-06
-3.43387e-07
-3.43795e-06
-3.40564e-06
-8.13665e-07
-3.83367e-06
-1.53263e-06
-3.71669e-06
-4.18292e-06
-2.26455e-06
8.42469e-07
-2.34578e-06
-2.88609e-06
6.75137e-07
-2.71773e-06
-3.46969e-06
4.17258e-07
-3.08828e-06
-3.95016e-06
-1.30248e-09
-3.44079e-06
-4.29716e-06
-6.02637e-07
-3.84174e-06
-1.55561e-06
-4.36115e-06
-4.20209e-06
-2.20038e-06
1.37144e-06
-2.94816e-06
-2.8973e-06
1.23847e-06
-3.32659e-06
-3.58341e-06
9.75318e-07
-3.69899e-06
-4.22204e-06
5.24578e-07
-4.07028e-06
-4.77063e-06
-1.63999e-07
-4.46447e-06
-1.34673e-06
-5.02998e-06
-4.84697e-06
-2.20685e-06
1.90125e-06
-3.48507e-06
-2.93751e-06
1.82624e-06
-3.88364e-06
-3.67076e-06
1.56832e-06
-4.25961e-06
-4.41399e-06
1.14786e-06
-4.65815e-06
-5.06747e-06
3.93622e-07
-5.06478e-06
-1.01215e-06
-5.41626e-06
-5.4009e-06
-2.0834e-06
2.35068e-06
-3.92058e-06
-2.75737e-06
2.33694e-06
-4.33641e-06
-3.50061e-06
2.1315e-06
-4.71914e-06
-4.3558e-06
1.85925e-06
-5.15079e-06
-5.11457e-06
1.03838e-06
-5.55742e-06
-6.26458e-07
-5.44982e-06
-5.82598e-06
-1.90187e-06
2.67976e-06
-4.27754e-06
-2.50619e-06
2.7412e-06
-4.7183e-06
-3.24033e-06
2.65158e-06
-5.1393e-06
-4.01487e-06
2.47037e-06
-5.57586e-06
-4.71115e-06
1.63877e-06
-5.95545e-06
-2.56105e-07
-5.05329e-06
-6.01213e-06
-1.67712e-06
2.88487e-06
-4.52974e-06
-2.1888e-06
3.02409e-06
-4.98662e-06
-2.814e-06
3.04922e-06
-5.44701e-06
-3.39169e-06
2.8709e-06
-5.87893e-06
-3.87993e-06
2.04202e-06
-6.21671e-06
2.60418e-08
-4.12298e-06
-6.10135e-06
-1.44501e-06
2.96215e-06
-4.6872e-06
-1.79973e-06
3.13336e-06
-5.15977e-06
-2.16183e-06
3.17972e-06
-5.64582e-06
-2.51175e-06
3.00712e-06
-6.07228e-06
-2.74755e-06
2.17016e-06
-6.3975e-06
1.27611e-07
-2.8155e-06
-6.21672e-06
-1.20929e-06
2.89538e-06
-4.74331e-06
-1.35413e-06
3.03532e-06
-5.22849e-06
-1.45206e-06
3.03426e-06
-5.71199e-06
-1.49457e-06
2.82304e-06
-6.15721e-06
-1.48667e-06
1.98569e-06
-6.49514e-06
2.09285e-08
-1.41944e-06
-6.38441e-06
-9.51387e-07
2.65715e-06
-4.69037e-06
-8.95456e-07
2.7392e-06
-5.17197e-06
-7.75018e-07
2.66777e-06
-5.6638e-06
-5.63563e-07
2.35412e-06
-6.11439e-06
-3.55416e-07
1.50924e-06
-6.48008e-06
-3.09254e-07
-1.71101e-07
-6.50439e-06
-7.51416e-07
2.28753e-06
-4.51567e-06
-5.43088e-07
2.28846e-06
-4.99565e-06
-2.64801e-07
2.1331e-06
-5.4884e-06
7.46091e-08
1.72349e-06
-5.94081e-06
4.13972e-07
8.58334e-07
-6.32225e-06
-7.88985e-07
6.60432e-07
-6.47078e-06
-5.85703e-07
1.82534e-06
-4.22714e-06
-2.55738e-07
1.72703e-06
-4.68868e-06
1.23168e-07
1.49278e-06
-5.17926e-06
5.05252e-07
1.03865e-06
-5.61943e-06
8.24593e-07
2.27343e-07
-6.04113e-06
-1.22719e-06
9.65246e-07
-6.27694e-06
-4.52372e-07
1.32116e-06
-3.79658e-06
-1.05208e-07
1.16611e-06
-4.22784e-06
2.5449e-07
8.80107e-07
-4.70537e-06
6.0002e-07
4.29367e-07
-5.17071e-06
8.41348e-07
-2.97666e-07
-5.61623e-06
-1.5124e-06
8.71019e-07
-5.99453e-06
-3.87523e-07
8.84468e-07
-3.2819e-06
-1.09506e-07
6.9664e-07
-3.70777e-06
1.24189e-07
4.26407e-07
-4.18201e-06
3.22253e-07
1.06587e-08
-4.60711e-06
4.02048e-07
-6.00996e-07
-5.08484e-06
-1.5671e-06
2.51593e-07
-5.50668e-06
-3.6265e-07
5.92157e-07
-2.59512e-06
-2.3966e-07
4.19838e-07
-3.02312e-06
-1.83293e-07
1.98843e-07
-3.4777e-06
-1.99746e-07
-1.40761e-07
-3.90125e-06
-3.33902e-07
-6.28223e-07
-4.39695e-06
-1.38193e-06
-6.77432e-07
-4.83355e-06
1.88802e-06
-8.63115e-07
-4.40262e-06
2.18531e-06
-8.66051e-07
-4.90396e-06
2.52511e-06
-9.82139e-07
-5.39005e-06
2.86314e-06
-1.29795e-06
-5.85919e-06
3.11628e-06
-1.89322e-06
-6.31401e-06
-3.0088e-06
-6.58607e-06
1.94834e-06
-1.24407e-06
-3.88535e-06
2.19696e-06
-1.30697e-06
-4.35731e-06
2.44238e-06
-1.46075e-06
-4.8172e-06
2.62848e-06
-1.73909e-06
-5.2577e-06
2.68263e-06
-2.23001e-06
-5.69939e-06
-3.10146e-06
-5.99837e-06
1.91402e-06
-1.47143e-06
-3.26514e-06
2.0064e-06
-1.55635e-06
-3.69391e-06
2.07264e-06
-1.70623e-06
-4.13445e-06
2.09377e-06
-1.94824e-06
-4.53161e-06
1.97264e-06
-2.33013e-06
-4.94725e-06
-2.9986e-06
-5.29148e-06
1.76357e-06
-2.56293e-06
1.65533e-06
-2.98318e-06
1.51076e-06
-3.37216e-06
1.31007e-06
-3.76186e-06
9.97711e-07
-4.17053e-06
-4.50651e-06
2.86339e-07
7.97291e-07
-2.60146e-06
-1.00948e-07
6.47819e-07
-3.03243e-06
-5.3596e-07
4.66114e-07
-3.48093e-06
-9.2847e-07
9.39488e-08
-3.91639e-06
-1.26837e-06
-4.4545e-07
-4.4209e-06
-1.2745e-06
-1.52347e-06
-4.86387e-06
3.66146e-07
1.00166e-06
-3.2603e-06
-7.03506e-08
8.90625e-07
-3.7025e-06
-5.7792e-07
7.8113e-07
-4.15368e-06
-1.10576e-06
4.30707e-07
-4.61476e-06
-1.66864e-06
-7.34873e-08
-5.14024e-06
-1.03358e-06
-2.08795e-06
-5.62059e-06
3.66369e-07
1.1777e-06
-3.82162e-06
-1.16645e-07
1.14468e-06
-4.29277e-06
-6.5539e-07
1.09143e-06
-4.75607e-06
-1.26769e-06
7.94762e-07
-5.25888e-06
-1.92863e-06
3.41237e-07
-5.80165e-06
-8.00388e-07
-2.30931e-06
-6.32541e-06
4.73527e-07
1.26915e-06
-4.27798e-06
3.03263e-08
1.33846e-06
-4.76505e-06
-4.63707e-07
1.32275e-06
-5.24245e-06
-1.07148e-06
1.11926e-06
-5.7788e-06
-1.63695e-06
6.48786e-07
-6.34351e-06
-6.1671e-07
-1.94605e-06
-6.7816e-06
6.31682e-07
1.25259e-06
-4.60938e-06
3.04949e-07
1.40211e-06
-5.11167e-06
-1.07925e-07
1.42376e-06
-5.6141e-06
-6.23735e-07
1.34972e-06
-6.19812e-06
-1.07657e-06
8.61708e-07
-6.73232e-06
-5.15888e-07
-1.30666e-06
-6.98096e-06
8.14886e-07
1.12219e-06
-4.83083e-06
6.08004e-07
1.32075e-06
-5.33009e-06
2.95738e-07
1.40364e-06
-5.86784e-06
-1.68585e-08
1.39083e-06
-6.45166e-06
-3.37466e-07
9.41068e-07
-6.91976e-06
-5.07045e-07
-4.58585e-07
-7.05705e-06
9.98027e-07
8.99048e-07
-4.93184e-06
9.06778e-07
1.11015e-06
-5.43823e-06
7.68935e-07
1.22662e-06
-5.99881e-06
6.75245e-07
1.19465e-06
-6.53608e-06
5.72618e-07
8.08763e-07
-6.99172e-06
-6.1124e-07
5.69792e-07
-7.11173e-06
1.18613e-06
5.94155e-07
-4.90886e-06
1.21785e-06
7.87599e-07
-5.4252e-06
1.28369e-06
8.7417e-07
-5.9724e-06
1.36179e-06
8.23897e-07
-6.49721e-06
1.48832e-06
4.25598e-07
-6.94478e-06
-8.83559e-07
1.5991e-06
-7.09153e-06
1.36623e-06
2.06133e-07
-4.7723e-06
1.5357e-06
3.50575e-07
-5.28809e-06
1.732e-06
3.97817e-07
-5.81351e-06
1.96758e-06
3.02712e-07
-6.32464e-06
2.2194e-06
-1.26475e-07
-6.76725e-06
-1.30555e-06
2.41407e-06
-6.97677e-06
1.51485e-06
-2.2784e-07
-4.51258e-06
1.76007e-06
-1.47241e-07
-5.01182e-06
2.05131e-06
-1.58527e-07
-5.5277e-06
2.38211e-06
-3.12447e-07
-6.00623e-06
2.68541e-06
-7.58943e-07
-6.45316e-06
-1.77957e-06
2.89737e-06
-6.73616e-06
1.59762e-06
-6.47036e-07
-4.14197e-06
1.86274e-06
-6.45037e-07
-4.61981e-06
2.17694e-06
-7.15974e-07
-5.10424e-06
2.51105e-06
-9.29733e-07
-5.55243e-06
2.79544e-06
-1.35325e-06
-6.00105e-06
-2.18684e-06
2.93898e-06
-6.32683e-06
1.65296e-06
-1.00098e-06
-3.65983e-06
1.87401e-06
-1.06246e-06
-4.11632e-06
2.12014e-06
-1.17957e-06
-4.563e-06
2.33419e-06
-1.39728e-06
-4.98086e-06
2.48021e-06
-1.77134e-06
-5.41602e-06
-2.45127e-06
2.5006e-06
-5.75222e-06
1.64135e-06
-1.233e-06
-3.0871e-06
1.72739e-06
-1.30693e-06
-3.50037e-06
1.80104e-06
-1.43576e-06
-3.92145e-06
1.85929e-06
-1.63891e-06
-4.31983e-06
1.83716e-06
-1.95494e-06
-4.71401e-06
-2.50203e-06
1.69679e-06
-5.07912e-06
1.51157e-06
-2.42862e-06
1.42163e-06
-2.82874e-06
1.30524e-06
-3.21042e-06
1.15937e-06
-3.59567e-06
9.31768e-07
-3.98921e-06
6.01608e-07
-4.33558e-06
-1.08035e-06
-1.20575e-05
1.2257e-05
-1.34557e-05
-7.48726e-07
-2.21174e-05
2.22256e-05
-1.32368e-05
1.76121e-06
-3.56756e-05
3.50196e-05
-6.58487e-06
7.16224e-06
-5.48132e-05
5.05275e-05
8.32771e-06
-7.95883e-05
7.28559e-05
2.38229e-05
-2.66516e-06
-1.14489e-05
-1.32262e-05
-2.32243e-06
-2.13248e-05
-1.16851e-05
7.00238e-07
-3.59771e-05
-2.40315e-06
5.21432e-06
-5.74152e-05
1.27561e-05
-8.19837e-05
2.77958e-05
-3.69766e-06
-1.04979e-05
-1.27756e-05
-2.90897e-06
-2.04887e-05
-9.77352e-06
7.76069e-07
-3.65331e-05
6.48292e-07
5.37362e-06
-5.90997e-05
1.42611e-05
-8.27673e-05
2.83586e-05
-4.09304e-06
-9.46957e-06
-1.19696e-05
-2.63896e-06
-1.99398e-05
-7.83479e-06
1.61999e-06
-3.74367e-05
2.13558e-06
6.75441e-06
-6.09786e-05
1.52516e-05
-8.53901e-05
2.63102e-05
-3.8097e-06
-8.58498e-06
-1.12816e-05
-1.94578e-06
-1.97451e-05
-6.61259e-06
2.34653e-06
-3.83511e-05
2.61915e-06
7.15735e-06
-6.2462e-05
1.54089e-05
-8.70167e-05
2.71739e-05
-3.32387e-06
-7.90979e-06
-1.06771e-05
-1.48379e-06
-1.96758e-05
-6.03529e-06
1.97594e-06
-3.84767e-05
2.53991e-06
4.7742e-06
-6.21066e-05
1.61582e-05
-8.50757e-05
3.03172e-05
-2.6922e-06
-7.57676e-06
-1.03471e-05
-1.16982e-06
-1.96659e-05
-6.22176e-06
1.08008e-06
-3.80499e-05
1.6689e-06
2.24527e-06
-6.01292e-05
1.5694e-05
-8.11572e-05
3.33789e-05
-2.06721e-06
-7.61195e-06
-1.03227e-05
-8.30784e-07
-1.97738e-05
-6.87427e-06
1.12081e-06
-3.77608e-05
-1.30471e-07
2.64745e-06
-5.86951e-05
1.3132e-05
1.00793e-06
-7.83152e-05
3.10132e-05
-9.6737e-05
3.97618e-05
-1.53564e-06
-7.97665e-06
-1.0557e-05
-7.46533e-07
-1.98387e-05
-7.8705e-06
4.62108e-07
-3.70204e-05
-2.11654e-06
1.30837e-06
-5.6572e-05
1.0957e-05
-1.24588e-06
-7.49224e-05
3.05091e-05
-9.33854e-05
4.22237e-05
-1.33887e-06
-8.55229e-06
-1.1e-05
-1.31486e-06
-1.95878e-05
-9.31361e-06
-1.29671e-06
-3.52616e-05
-4.40892e-06
-1.79304e-06
-5.29267e-05
8.93453e-06
-5.69094e-06
-7.01518e-05
3.03265e-05
-8.77272e-05
4.65686e-05
-1.32578e-06
-9.22082e-06
-1.14791e-05
-1.73045e-06
-1.92088e-05
-1.06615e-05
-2.47365e-06
-3.30644e-05
-6.45265e-06
-3.87807e-06
-4.9057e-05
6.34239e-06
-8.50087e-06
-6.50878e-05
2.83816e-05
-1.7908e-05
-8.18709e-05
4.96005e-05
-9.23477e-05
5.99054e-05
-1.40427e-06
-9.92225e-06
-1.18936e-05
-1.86686e-06
-1.89639e-05
-1.17737e-05
-2.5953e-06
-3.12139e-05
-8.50227e-06
-3.84436e-06
-4.53831e-05
2.76739e-06
-7.44619e-06
-6.05705e-05
2.33353e-05
-1.53226e-05
-7.66686e-05
4.51387e-05
-2.8192e-05
-8.55101e-05
6.29482e-05
-2.16602e-05
7.38269e-05
-2.18713e-05
-2.09239e-05
-2.06647e-05
-1.56783e-06
-1.06829e-05
-1.20354e-05
-1.66863e-06
-1.92182e-05
-1.23228e-05
-1.69641e-06
-3.05096e-05
-9.65902e-06
-1.65775e-06
-4.32128e-05
9.41429e-07
-2.87685e-06
-5.87844e-05
2.03858e-05
-4.08328e-06
-7.71244e-05
3.86956e-05
-4.83653e-06
-2.21386e-05
5.93291e-05
7.76039e-07
-3.77962e-06
5.68274e-07
-2.16509e-05
-2.16854e-05
-2.15217e-05
-9.83238e-06
-1.90241e-05
1.96868e-05
-2.18645e-06
-1.15449e-05
-1.19152e-05
-1.58731e-06
-2.0101e-05
-1.24172e-05
-2.39471e-07
-3.1351e-05
-9.90421e-06
2.54259e-06
-4.44538e-05
8.3144e-08
6.12724e-06
-6.27201e-05
1.66461e-05
1.85365e-06
-8.49595e-05
3.06642e-05
4.15493e-06
2.37091e-06
4.11786e-06
3.6225e-06
-2.42614e-05
1.07118e-05
1.33155e-05
-2.95627e-05
1.66548e-05
2.17402e-05
-6.38891e-06
-3.29981e-06
-1.21377e-05
-1.16627e-05
-2.44674e-06
-2.09868e-05
-1.18973e-05
-1.1859e-08
-3.28025e-05
-8.15548e-06
4.26008e-06
-4.72351e-05
3.44513e-06
8.80576e-06
-6.77901e-05
1.83612e-05
2.59139e-06
-9.04286e-05
3.21409e-05
2.80132e-06
2.94943e-06
3.35503e-06
2.5869e-05
2.78184e-06
1.04636e-05
-2.67767e-05
2.44204e-05
1.12193e-05
-2.38936e-05
-2.27135e-06
-4.76408e-06
-1.22225e-05
-1.12408e-05
-3.8238e-06
-2.13513e-05
-1.05307e-05
-1.15605e-06
-3.36553e-05
-4.53492e-06
2.79766e-06
-4.97749e-05
8.45832e-06
5.80596e-06
-7.08312e-05
2.10566e-05
5.89464e-07
-9.07947e-05
3.36112e-05
7.94452e-07
1.19225e-06
1.52204e-06
2.7054e-05
-2.2118e-07
-2.68494e-05
1.06335e-05
2.3199e-05
-2.63774e-05
1.20673e-05
1.02526e-06
-5.97834e-06
-1.16636e-05
-1.06972e-05
-4.75468e-06
-2.12789e-05
-8.64552e-06
-1.44488e-06
-3.47236e-05
-7.59667e-07
3.00323e-06
-5.29351e-05
1.10048e-05
6.01402e-06
-7.3228e-05
2.2958e-05
-5.18725e-07
-9.11776e-05
3.45033e-05
2.26469e-06
3.74103e-07
2.8276e-06
2.62605e-05
-1.94768e-06
-2.53514e-05
1.1283e-05
2.98867e-05
-1.45691e-05
-2.41659e-05
1.79871e-05
5.26564e-06
-7.19795e-06
-1.03641e-05
-9.8631e-06
-5.76713e-06
-2.08267e-05
-6.34345e-06
-1.88966e-06
-3.60792e-05
2.88255e-06
3.63824e-06
-5.6572e-05
1.41746e-05
9.03124e-06
-7.80401e-05
2.55498e-05
2.48742e-06
-9.71145e-05
3.17185e-05
4.78124e-06
2.5915e-06
4.20443e-06
2.55039e-05
3.31676e-06
-2.64581e-05
8.28167e-06
2.43413e-05
2.86735e-06
-2.43739e-05
8.65855e-06
-3.30883e-06
-7.51571e-06
-8.86801e-06
-9.07152e-06
-5.81399e-06
-2.04664e-05
-4.32536e-06
-1.67014e-06
-3.77238e-05
4.89945e-06
3.42841e-06
-5.94379e-05
1.60129e-05
7.1708e-06
-8.14588e-05
2.68662e-05
2.4385e-06
-0.000101572
3.23752e-05
2.83249e-06
1.98029e-06
2.69894e-06
2.77229e-05
3.40579e-06
-2.91262e-05
7.81567e-06
3.1777e-05
-2.83862e-05
7.92469e-06
-4.318e-06
-7.12774e-06
-7.70613e-06
-8.38948e-06
-5.36388e-06
-2.04236e-05
-3.31768e-06
-1.8471e-06
-3.8717e-05
5.1202e-06
1.04095e-06
-6.01612e-05
1.72395e-05
1.18049e-06
-8.08593e-05
3.07746e-05
-7.437e-07
-9.99759e-05
3.90466e-05
-7.4141e-07
-4.67547e-07
-2.7684e-08
2.94117e-05
-1.3774e-06
-2.92991e-05
9.37657e-06
2.57316e-05
-2.88941e-05
8.75528e-06
2.08642e-06
-6.30872e-06
-7.11251e-06