/*--------------------------------*- C++ -*----------------------------------*\
| =========                 |                                                 |
| \\      /  F ield         | OpenFOAM: The Open Source CFD Toolbox           |
|  \\    /   O peration     | Version:  v2106                                 |
|   \\  /    A nd           | Website:  www.openfoam.com                      |
|    \\/     M anipulation  |                                                 |
\*---------------------------------------------------------------------------*/
FoamFile
{
    version     2.0;
    format      ascii;
    arch        "LSB;label=32;scalar=64";
    class       volScalarField;
    location    "0.000168";
    object      rho;
}
// * * * * * * * * * * * * * * * * * * * * * * * * * * * * * * * * * * * * * //

dimensions      [1 -3 0 0 0 0 0];

internalField   nonuniform List<scalar> 
18109
(
2.47056
2.47169
2.47348
2.47522
2.47734
2.47977
2.48248
2.46888
2.47086
2.47326
2.47561
2.47831
2.48127
2.48417
2.46713
2.47019
2.47332
2.47633
2.4794
2.48247
2.48529
2.46596
2.46981
2.47324
2.4767
2.47992
2.48309
2.48585
2.46465
2.46924
2.47291
2.47653
2.4798
2.48301
2.48576
2.46322
2.46814
2.47205
2.47572
2.47902
2.4822
2.48494
2.46162
2.46645
2.47047
2.47412
2.47747
2.48065
2.48341
2.4598
2.46426
2.46821
2.47174
2.47511
2.47832
2.48115
2.48498
2.48689
2.48935
2.49167
2.4944
2.49718
2.49998
2.50251
2.50487
2.50686
2.50859
2.51046
2.51265
2.51495
2.48363
2.48648
2.48934
2.49217
2.49523
2.49837
2.50136
2.50406
2.50637
2.50817
2.50959
2.51081
2.51166
2.51279
2.48246
2.48618
2.4896
2.49301
2.49621
2.49946
2.50239
2.50502
2.5071
2.5086
2.50948
2.5101
2.51061
2.51135
2.48168
2.4861
2.48974
2.49344
2.49679
2.50013
2.50303
2.50557
2.5075
2.50883
2.50952
2.50988
2.50989
2.50948
2.4806
2.48557
2.48943
2.49325
2.49676
2.50016
2.50309
2.50559
2.50737
2.50849
2.50895
2.50896
2.50857
2.50764
2.47943
2.4845
2.48859
2.49247
2.49608
2.4995
2.50245
2.50494
2.50671
2.50785
2.50829
2.50816
2.50743
2.5058
2.47795
2.48281
2.48702
2.49094
2.49467
2.49815
2.50116
2.50368
2.50551
2.50668
2.50716
2.50693
2.50597
2.50403
2.47616
2.48065
2.48482
2.48871
2.49252
2.49607
2.49918
2.50178
2.50376
2.50511
2.50573
2.50559
2.50467
2.50275
2.474
2.478
2.48202
2.4859
2.48976
2.4934
2.4966
2.49932
2.50148
2.50308
2.50398
2.50416
2.50363
2.50209
2.47154
2.47508
2.47883
2.48266
2.48656
2.49024
2.49354
2.4964
2.49878
2.50065
2.50194
2.50268
2.50282
2.50201
2.46893
2.47188
2.4755
2.47931
2.48324
2.48695
2.49031
2.49327
2.49581
2.49794
2.49971
2.50106
2.50222
2.50237
2.4676
2.46987
2.47274
2.47628
2.47998
2.48357
2.48691
2.48994
2.49262
2.495
2.49718
2.499
2.5012
2.50289
2.46669
2.46845
2.47053
2.47333
2.4766
2.47999
2.48324
2.48629
2.48907
2.49173
2.49426
2.49683
2.49974
2.50299
2.46706
2.46804
2.46913
2.47096
2.47332
2.47601
2.47889
2.48181
2.48473
2.48778
2.4908
2.49427
2.49738
2.50194
2.47354
2.47667
2.48014
2.48467
2.48833
2.49234
2.48729
2.48977
2.49297
2.4973
2.50107
2.50514
2.48713
2.48855
2.49053
2.49396
2.4962
2.50051
2.48899
2.48945
2.4903
2.49189
2.49202
2.49432
2.49038
2.48917
2.48835
2.48795
2.48693
2.48804
2.4924
2.49006
2.48789
2.48539
2.48221
2.48282
2.49465
2.49134
2.48773
2.48379
2.48059
2.4848
2.49735
2.49364
2.48918
2.48474
2.48353
2.49031
2.50002
2.49652
2.4926
2.48882
2.48971
2.49866
2.50282
2.49978
2.49664
2.49427
2.498
2.50805
2.50545
2.50346
2.50144
2.50191
2.50853
2.51839
2.50843
2.50773
2.50759
2.51031
2.51867
2.52877
2.51107
2.5115
2.51374
2.5189
2.52816
2.53659
2.51346
2.51563
2.51965
2.52625
2.53424
2.54049
2.51602
2.5195
2.52373
2.52995
2.53588
2.54097
2.51792
2.52119
2.52554
2.53051
2.53549
2.54011
2.51464
2.51813
2.52173
2.52599
2.53047
2.53624
2.51271
2.51539
2.51772
2.5203
2.5239
2.52944
2.50961
2.51051
2.51126
2.51255
2.51525
2.52015
2.50638
2.50584
2.50485
2.50507
2.50685
2.51265
2.50343
2.50122
2.49922
2.49823
2.49953
2.50599
2.5012
2.49784
2.49478
2.49243
2.49466
2.50301
2.50001
2.49643
2.49316
2.49108
2.49494
2.50399
2.49985
2.49679
2.49405
2.49421
2.49998
2.50767
2.50096
2.4994
2.49878
2.50065
2.50794
2.51616
2.5028
2.50244
2.50425
2.50928
2.51853
2.52522
2.50418
2.50586
2.5102
2.51726
2.52572
2.53067
2.50574
2.50848
2.51387
2.52074
2.52687
2.53067
2.50353
2.50695
2.51165
2.51671
2.52106
2.52555
2.50437
2.50843
2.51158
2.51399
2.51546
2.51819
2.49648
2.49824
2.49938
2.50061
2.50168
2.50282
2.49207
2.49172
2.49044
2.48857
2.48718
2.48888
2.48703
2.48392
2.48038
2.47648
2.47501
2.47948
2.48278
2.47774
2.47224
2.46739
2.4669
2.47441
2.47906
2.47264
2.46559
2.46169
2.4633
2.47154
2.47585
2.46895
2.46212
2.46039
2.46238
2.46917
2.47326
2.46699
2.46207
2.4609
2.46514
2.46999
2.47105
2.46609
2.46304
2.46509
2.47217
2.47594
2.4696
2.46612
2.46633
2.4725
2.48086
2.48518
2.4689
2.46728
2.47101
2.47885
2.48879
2.49348
2.46876
2.46966
2.47564
2.48414
2.49331
2.4983
2.4702
2.4723
2.47882
2.48596
2.49304
2.49833
2.46683
2.47052
2.47579
2.48152
2.48645
2.49187
2.46211
2.45971
2.46114
2.46879
2.48018
2.48806
2.46461
2.4642
2.46795
2.47701
2.48812
2.49613
2.4682
2.46927
2.47445
2.48267
2.49088
2.49762
2.46938
2.47257
2.477
2.48375
2.48986
2.49558
2.46999
2.47425
2.47772
2.48071
2.48211
2.48336
2.466
2.46791
2.46882
2.47037
2.47035
2.4702
2.46592
2.46545
2.46345
2.4622
2.45965
2.45991
2.46569
2.46232
2.45778
2.45342
2.44929
2.4495
2.46667
2.46104
2.45459
2.44823
2.44579
2.44978
2.4684
2.46143
2.45418
2.44727
2.44726
2.4537
2.47017
2.46274
2.4552
2.45015
2.45148
2.45903
2.47189
2.46455
2.45765
2.45443
2.45702
2.46499
2.47357
2.46672
2.46131
2.45957
2.46541
2.47279
2.47522
2.46966
2.46617
2.46749
2.47547
2.48287
2.47711
2.47334
2.47215
2.47654
2.48604
2.49435
2.47924
2.47731
2.47864
2.48512
2.49493
2.50298
2.48196
2.48181
2.48531
2.49217
2.50016
2.50653
2.48311
2.48544
2.4892
2.49541
2.50085
2.50618
2.51829
2.54824
2.61299
2.74485
2.96521
2.51433
2.54601
2.6325
2.79302
3.02744
2.50723
2.54787
2.64966
2.81442
3.06958
2.5009
2.5489
2.63993
2.78989
3.02761
2.49786
2.54402
2.61207
2.73386
2.92373
2.50265
2.53963
2.58691
2.68188
2.84892
2.50918
2.53518
2.56873
2.65986
2.84088
2.51614
2.53419
2.55932
2.6363
2.79939
3.04488
2.52283
2.5332
2.5501
2.60917
2.7341
2.94229
2.53001
2.53709
2.55431
2.60616
2.71417
2.90335
2.53748
2.54445
2.5654
2.62155
2.73674
2.91888
3.06442
2.54436
2.55451
2.58023
2.64623
2.77373
2.97786
3.19281
3.33439
2.54831
2.56441
2.5977
2.67566
2.83
3.09821
3.42524
3.79783
2.55228
2.57267
2.61322
2.69153
2.8519
3.1051
3.39686
3.64118
2.55375
2.5825
2.63472
2.72395
2.89307
3.11325
3.32258
3.42647
2.55317
2.58812
2.65402
2.77456
2.95504
3.18641
3.35481
3.46909
2.54799
2.5894
2.675
2.81097
3.00781
3.26659
3.5378
3.63839
2.53978
2.59449
2.68045
2.80372
2.98477
3.23198
3.49302
3.77131
2.53391
2.58752
2.65219
2.75086
2.89888
3.10433
3.3139
3.42837
2.53063
2.57144
2.61597
2.70102
2.84734
3.06284
3.24332
3.35089
2.52603
2.55197
2.58588
2.66955
2.83647
3.11586
3.35456
3.46081
2.52184
2.53592
2.56689
2.64842
2.80404
3.05686
3.33406
3.65757
2.519
2.52508
2.55288
2.62249
2.74989
2.94468
2.5223
2.5257
2.55707
2.6295
2.76186
2.9506
2.52884
2.53438
2.57145
2.65904
2.81132
3.01649
2.53451
2.5493
2.59521
2.70363
2.88867
3.12549
2.53854
2.56287
2.62057
2.74639
2.97054
3.27453
2.53833
2.57002
2.64203
2.78332
3.01092
2.53245
2.57333
2.66533
2.81293
3.00853
2.52095
2.57106
2.66531
2.80325
3.00214
2.51231
2.56266
2.63857
2.76982
2.99595
2.49984
2.53595
2.58971
2.7064
2.91501
2.48947
2.50788
2.54836
2.64553
2.81878
2.47592
2.47914
2.51627
2.61652
2.79973
2.46562
2.46171
2.50124
2.61091
2.83385
2.46324
2.4569
2.49884
2.60215
2.80476
2.46996
2.46395
2.50004
2.58731
2.75302
2.48217
2.48233
2.52052
2.61167
2.78245
2.49343
2.50368
2.55062
2.65964
2.85821
2.50401
2.52554
2.58531
2.71363
2.95067
2.5099
2.53882
2.61003
2.76232
3.04078
2.5068
2.54182
2.62893
2.80029
3.07978
2.49793
2.5407
2.64085
2.80872
3.04648
2.48346
2.53166
2.62352
2.78084
3.02283
2.47435
2.51742
2.59083
2.74893
3.03012
2.46845
2.49764
2.55555
2.69706
2.96443
2.46662
2.48244
2.53018
2.65224
2.88103
2.4638
2.46841
2.50612
2.61152
2.81538
2.46348
2.46155
2.50155
2.61402
2.84342
2.46724
2.46247
2.49876
2.60245
2.80794
2.47486
2.46841
2.49855
2.58028
2.74182
2.48566
2.48301
2.51454
2.59047
2.742
2.49848
2.50161
2.53495
2.6134
2.77996
2.5088
2.51911
2.55634
2.64126
2.82532
2.51513
2.53373
2.57387
2.66054
2.86956
2.51759
2.53939
2.58476
2.68249
2.89745
2.51304
2.5157
2.51843
2.52124
2.52426
2.52734
2.53025
2.53292
2.53531
2.53735
2.53905
2.54056
2.54214
2.54388
2.51238
2.51571
2.51859
2.52181
2.52495
2.52829
2.53135
2.53417
2.53657
2.53858
2.54013
2.5415
2.54278
2.5439
2.51162
2.51578
2.51908
2.52265
2.52591
2.5293
2.53235
2.53512
2.53738
2.53921
2.54051
2.54145
2.54235
2.54317
2.51114
2.51572
2.51932
2.5231
2.52655
2.53001
2.53307
2.5358
2.53797
2.5396
2.54073
2.54152
2.54222
2.54278
2.51057
2.51528
2.51915
2.52309
2.52672
2.53025
2.53334
2.53601
2.53808
2.53955
2.54051
2.54111
2.54152
2.54168
2.50981
2.51444
2.51848
2.52252
2.52625
2.52984
2.53298
2.53562
2.53764
2.53905
2.53996
2.54041
2.54059
2.54035
2.50863
2.51312
2.51728
2.52141
2.52526
2.5289
2.53208
2.53472
2.53674
2.53813
2.539
2.53936
2.53937
2.53879
2.50709
2.51138
2.51556
2.51971
2.52365
2.52735
2.53057
2.53324
2.53531
2.53679
2.53774
2.53811
2.53806
2.53725
2.50508
2.50916
2.51336
2.51757
2.5216
2.52535
2.52861
2.53132
2.53347
2.53509
2.53619
2.53669
2.5367
2.53589
2.50299
2.50677
2.51088
2.5151
2.51917
2.52294
2.52623
2.52901
2.53129
2.53311
2.53444
2.5352
2.53546
2.53493
2.50066
2.50432
2.50837
2.51263
2.51669
2.52044
2.52372
2.52653
2.52893
2.53096
2.5326
2.53373
2.53455
2.53446
2.49938
2.50248
2.50631
2.51031
2.51413
2.51775
2.52098
2.52386
2.52641
2.52869
2.53072
2.53231
2.53393
2.53453
2.49832
2.50107
2.50423
2.50783
2.51143
2.5149
2.51807
2.52101
2.5237
2.52629
2.52874
2.53091
2.53314
2.53519
2.49819
2.50043
2.50275
2.50564
2.50858
2.51154
2.51447
2.51743
2.52031
2.52332
2.52622
2.52929
2.53219
2.53525
2.56372
2.56652
2.56901
2.57196
2.57486
2.57815
2.58125
2.58423
2.58686
2.5891
2.59099
2.59237
2.59364
2.5942
2.56396
2.56713
2.56959
2.57264
2.57565
2.579
2.5822
2.58525
2.58792
2.59015
2.59194
2.5933
2.59454
2.5956
2.56388
2.56742
2.57019
2.57339
2.5766
2.58001
2.58323
2.58621
2.58879
2.59087
2.59252
2.59374
2.5948
2.59577
2.56397
2.56754
2.57056
2.57393
2.57729
2.58074
2.58399
2.58694
2.58947
2.59144
2.59296
2.59409
2.59508
2.59603
2.56387
2.56739
2.57059
2.57411
2.57763
2.58115
2.58443
2.58733
2.58976
2.59162
2.59302
2.59405
2.59497
2.59582
2.56348
2.56693
2.57027
2.57386
2.57751
2.58109
2.5844
2.58726
2.58961
2.59138
2.59273
2.59374
2.59459
2.5953
2.56274
2.56607
2.56954
2.57324
2.57698
2.5806
2.58392
2.58675
2.58905
2.59078
2.5921
2.59306
2.59382
2.59438
2.56164
2.56484
2.56843
2.57225
2.57609
2.57975
2.58306
2.58585
2.58811
2.58983
2.59114
2.59207
2.59273
2.59309
2.5602
2.56336
2.56709
2.57103
2.57496
2.57863
2.58191
2.58466
2.58689
2.58862
2.58996
2.59087
2.59146
2.5917
2.55879
2.56188
2.56568
2.56968
2.57365
2.5773
2.58053
2.58325
2.58549
2.58727
2.58865
2.58959
2.59017
2.59034
2.55745
2.56054
2.56436
2.56842
2.57234
2.57592
2.57906
2.58175
2.58402
2.5859
2.58737
2.58841
2.5891
2.58931
2.55655
2.55957
2.56331
2.56724
2.57102
2.57447
2.57753
2.58021
2.58255
2.58458
2.58626
2.58753
2.58852
2.58884
2.55569
2.55867
2.56224
2.566
2.56963
2.57296
2.57594
2.57864
2.5811
2.58338
2.58535
2.58699
2.58841
2.58907
2.55561
2.55848
2.56141
2.56473
2.56789
2.57095
2.57387
2.57671
2.57942
2.58204
2.58445
2.58658
2.58839
2.58918
2.613
2.61488
2.61637
2.61845
2.62062
2.62323
2.62594
2.62874
2.63147
2.63393
2.63613
2.63795
2.63955
2.64055
2.61345
2.61527
2.61682
2.61885
2.62113
2.62382
2.62664
2.62949
2.63221
2.63459
2.63663
2.63832
2.63974
2.64115
2.61349
2.61542
2.61713
2.61929
2.62176
2.62455
2.62744
2.63027
2.63291
2.63516
2.63705
2.63858
2.6399
2.64126
2.61354
2.61542
2.61727
2.6196
2.62224
2.62515
2.62811
2.63093
2.63348
2.63563
2.63739
2.63881
2.64006
2.64142
2.61334
2.61519
2.6172
2.61972
2.62257
2.6256
2.62862
2.63143
2.63391
2.63595
2.6376
2.63894
2.64016
2.6415
2.61289
2.61471
2.61689
2.61959
2.62265
2.6258
2.6289
2.63169
2.63411
2.63607
2.63765
2.63895
2.64018
2.64151
2.61216
2.61399
2.61638
2.61929
2.62254
2.62583
2.62899
2.63178
2.63413
2.63601
2.63752
2.63879
2.64003
2.64134
2.61127
2.61316
2.61576
2.61889
2.62232
2.62571
2.62888
2.63164
2.63392
2.63573
2.6372
2.63846
2.6397
2.64096
2.6104
2.61243
2.61526
2.61858
2.62212
2.62554
2.62869
2.63139
2.63359
2.63535
2.63678
2.63803
2.63924
2.64046
2.60971
2.61191
2.61495
2.61842
2.622
2.62542
2.62849
2.63109
2.63321
2.63491
2.63632
2.63757
2.63876
2.63993
2.60926
2.61167
2.6149
2.61847
2.62207
2.6254
2.62835
2.63083
2.63285
2.63451
2.63591
2.63717
2.63837
2.63949
2.60908
2.61173
2.61501
2.61864
2.62221
2.62546
2.62829
2.63066
2.63259
2.63425
2.63569
2.637
2.63823
2.63931
2.60881
2.61192
2.61534
2.619
2.62249
2.6256
2.62827
2.63054
2.63244
2.63415
2.63566
2.63707
2.63836
2.63954
2.60973
2.61286
2.61597
2.61936
2.62259
2.62555
2.62812
2.63039
2.63241
2.63421
2.63583
2.63728
2.63866
2.63962
2.65618
2.65766
2.65882
2.66034
2.66193
2.66368
2.66555
2.66752
2.66955
2.6715
2.67335
2.6751
2.67678
2.67838
2.65637
2.65779
2.65897
2.66046
2.66212
2.66399
2.66598
2.66803
2.67006
2.67196
2.67371
2.67539
2.67688
2.67869
2.65612
2.65758
2.65891
2.66054
2.66238
2.6644
2.6665
2.66858
2.67057
2.67238
2.67401
2.67554
2.67696
2.67867
2.65598
2.65736
2.65885
2.66064
2.66268
2.66487
2.66707
2.66919
2.67112
2.67284
2.67435
2.67575
2.67708
2.67875
2.65576
2.6571
2.65875
2.66075
2.66301
2.66536
2.66767
2.66981
2.6717
2.67333
2.67473
2.67604
2.67733
2.67897
2.65553
2.65691
2.65872
2.66091
2.66334
2.66584
2.66824
2.6704
2.67226
2.67381
2.67514
2.6764
2.67768
2.67933
2.65541
2.65684
2.6588
2.66116
2.66377
2.66639
2.66884
2.67101
2.67281
2.67431
2.67558
2.67682
2.67812
2.67978
2.65543
2.65694
2.65905
2.66157
2.66431
2.66701
2.66948
2.67161
2.67335
2.67479
2.67602
2.67726
2.67858
2.68024
2.65562
2.65727
2.65956
2.66221
2.66503
2.66774
2.67018
2.67224
2.6739
2.67527
2.67647
2.67771
2.67907
2.68073
2.65611
2.65796
2.66042
2.66317
2.66601
2.66867
2.671
2.67295
2.6745
2.6758
2.67697
2.6782
2.67958
2.68124
2.65701
2.65907
2.66166
2.66444
2.66722
2.66976
2.67193
2.67372
2.67515
2.67637
2.6775
2.67874
2.68012
2.68177
2.65818
2.66049
2.66313
2.6659
2.66859
2.67099
2.67299
2.67461
2.67591
2.67705
2.67815
2.67938
2.68075
2.68236
2.6596
2.66217
2.66482
2.66752
2.67008
2.67229
2.6741
2.67556
2.67673
2.6778
2.67886
2.6801
2.68146
2.68314
2.66116
2.66405
2.66649
2.66909
2.67144
2.67349
2.67518
2.67655
2.67767
2.6787
2.67975
2.68089
2.68228
2.68374
2.68593
2.68758
2.68896
2.69042
2.69179
2.69302
2.69418
2.69528
2.69632
2.69738
2.6985
2.69978
2.70116
2.70293
2.68586
2.68752
2.68892
2.6904
2.69184
2.69317
2.69443
2.69562
2.69673
2.69785
2.69897
2.70028
2.7016
2.70346
2.68576
2.68737
2.68888
2.69044
2.69199
2.69344
2.69479
2.69603
2.69715
2.69825
2.69933
2.70058
2.70188
2.70367
2.68585
2.68741
2.68899
2.69064
2.69228
2.69384
2.69526
2.69655
2.69768
2.69876
2.6998
2.70099
2.70225
2.70399
2.68607
2.68759
2.68923
2.69096
2.69271
2.69436
2.69585
2.69717
2.6983
2.69935
2.70035
2.7015
2.70274
2.70443
2.68648
2.68798
2.68967
2.69149
2.69331
2.69503
2.69657
2.6979
2.69902
2.70006
2.70103
2.70215
2.70338
2.70505
2.68712
2.68862
2.69036
2.69224
2.69412
2.69588
2.69743
2.69876
2.69987
2.70089
2.70185
2.70297
2.70421
2.70585
2.68805
2.68956
2.69135
2.69326
2.69516
2.69693
2.69846
2.69976
2.70085
2.70185
2.70282
2.70394
2.70521
2.70683
2.68929
2.69082
2.69263
2.69452
2.69641
2.69813
2.69961
2.70087
2.70192
2.70291
2.70389
2.70503
2.70634
2.70794
2.69082
2.69242
2.69422
2.69608
2.69789
2.69953
2.70092
2.7021
2.7031
2.70408
2.70506
2.70622
2.70757
2.70915
2.69272
2.69439
2.69615
2.6979
2.69958
2.70106
2.70231
2.70339
2.70433
2.70529
2.70628
2.70747
2.70884
2.71042
2.69491
2.69668
2.69832
2.69992
2.70139
2.70267
2.70377
2.70473
2.70561
2.70653
2.70754
2.70875
2.71014
2.71167
2.69731
2.69912
2.70065
2.70207
2.70333
2.7044
2.70531
2.70613
2.70691
2.7078
2.70879
2.71004
2.71142
2.71305
2.69973
2.70159
2.70294
2.70415
2.70516
2.70601
2.70676
2.70748
2.70821
2.70906
2.71006
2.71123
2.71267
2.7142
2.7037
2.70572
2.70727
2.70873
2.71
2.71103
2.71187
2.71258
2.71316
2.71379
2.71444
2.71532
2.71632
2.71778
2.70447
2.70624
2.70768
2.70908
2.71032
2.71136
2.71221
2.71297
2.71361
2.71432
2.71504
2.71602
2.71706
2.71861
2.70517
2.70678
2.70822
2.70957
2.71078
2.7118
2.71265
2.7134
2.71406
2.71477
2.7155
2.71649
2.71759
2.71914
2.70609
2.70754
2.7089
2.71021
2.71139
2.71239
2.71324
2.71399
2.71465
2.71538
2.71613
2.71715
2.71826
2.71982
2.70713
2.70845
2.70976
2.71101
2.71215
2.71312
2.71395
2.71468
2.71533
2.71605
2.71682
2.71783
2.71897
2.72051
2.70831
2.70954
2.71077
2.71197
2.71305
2.71399
2.71478
2.71549
2.71613
2.71685
2.71763
2.71863
2.7198
2.72131
2.70964
2.71079
2.71195
2.71308
2.7141
2.71499
2.71574
2.71642
2.71705
2.71776
2.71856
2.71956
2.72075
2.72222
2.71114
2.71221
2.71329
2.71433
2.71528
2.71611
2.71681
2.71746
2.71809
2.71881
2.71962
2.72062
2.72183
2.72325
2.71276
2.71376
2.71473
2.71567
2.71654
2.7173
2.71795
2.71858
2.71921
2.71994
2.72079
2.7218
2.72302
2.72438
2.7145
2.71542
2.71626
2.71708
2.71785
2.71853
2.71915
2.71976
2.72041
2.72117
2.72205
2.72307
2.7243
2.7256
2.71633
2.71717
2.71787
2.71856
2.71922
2.71981
2.72038
2.72098
2.72164
2.72244
2.72336
2.72443
2.72565
2.72692
2.71823
2.71897
2.71951
2.72006
2.72057
2.72106
2.72157
2.72216
2.72286
2.72371
2.72469
2.72579
2.72703
2.72824
2.72026
2.72084
2.72123
2.72162
2.72199
2.72236
2.72281
2.72338
2.7241
2.72501
2.72602
2.72719
2.72841
2.72972
2.7221
2.72267
2.72286
2.72306
2.72328
2.72357
2.72398
2.72456
2.7253
2.72622
2.72728
2.72843
2.72973
2.73096
2.71482
2.71658
2.71782
2.71901
2.72002
2.72088
2.72159
2.72221
2.72269
2.72324
2.7237
2.72435
2.72498
2.72591
2.71666
2.71794
2.71899
2.72004
2.72094
2.72171
2.72234
2.7229
2.72337
2.72391
2.7244
2.7251
2.72576
2.72672
2.71828
2.71931
2.7203
2.72123
2.72198
2.72262
2.72314
2.72361
2.72402
2.72451
2.725
2.72568
2.72636
2.72732
2.71988
2.72073
2.72161
2.72239
2.72303
2.72355
2.72398
2.72438
2.72475
2.72522
2.7257
2.72639
2.72709
2.72806
2.7214
2.72214
2.72292
2.72358
2.7241
2.72453
2.72487
2.72521
2.72555
2.72597
2.72646
2.72712
2.72784
2.7288
2.72284
2.7235
2.72418
2.72473
2.72516
2.7255
2.72579
2.72608
2.72639
2.72678
2.72727
2.72792
2.72866
2.72961
2.72419
2.72479
2.72537
2.72583
2.72619
2.72648
2.72673
2.72699
2.72727
2.72765
2.72814
2.72877
2.72953
2.73046
2.72544
2.726
2.72648
2.72688
2.7272
2.72745
2.72767
2.72791
2.72819
2.72856
2.72906
2.72968
2.73046
2.73135
2.7266
2.72712
2.72753
2.72789
2.72817
2.7284
2.72861
2.72884
2.72914
2.72952
2.73004
2.73066
2.73146
2.73231
2.72769
2.72818
2.72852
2.72884
2.72909
2.7293
2.72951
2.72976
2.73009
2.73051
2.73106
2.73169
2.7325
2.73331
2.72873
2.72916
2.72944
2.72973
2.72995
2.73016
2.7304
2.73069
2.73107
2.73154
2.73213
2.73279
2.73361
2.73441
2.72968
2.73007
2.7303
2.73054
2.73075
2.73097
2.73124
2.73158
2.73203
2.73255
2.7332
2.73388
2.73473
2.73549
2.73066
2.73095
2.7311
2.73131
2.7315
2.73174
2.73206
2.73248
2.73301
2.73362
2.73431
2.73507
2.73592
2.73675
2.73145
2.73175
2.73186
2.73202
2.73221
2.73249
2.73287
2.73337
2.73396
2.73461
2.73537
2.73613
2.73704
2.73781
2.72004
2.7208
2.72142
2.72206
2.72265
2.72323
2.72378
2.72432
2.72479
2.72532
2.72577
2.72634
2.72685
2.72748
2.72178
2.72225
2.72277
2.72325
2.72372
2.72418
2.72463
2.72507
2.72546
2.72595
2.72637
2.72695
2.72745
2.72812
2.72329
2.72361
2.7241
2.72447
2.72484
2.72519
2.72551
2.72583
2.72614
2.72654
2.72693
2.72747
2.72796
2.72862
2.72469
2.72492
2.72535
2.72562
2.7259
2.72614
2.72636
2.72659
2.72684
2.72718
2.72755
2.72806
2.72856
2.72923
2.72594
2.72616
2.72651
2.72672
2.72691
2.72707
2.7272
2.72736
2.72756
2.72786
2.72821
2.72869
2.72921
2.72989
2.72705
2.72727
2.72756
2.72772
2.72784
2.72793
2.72801
2.72813
2.72829
2.72856
2.7289
2.72937
2.72991
2.7306
2.72801
2.72825
2.72847
2.72861
2.72869
2.72874
2.7288
2.72889
2.72905
2.72929
2.72964
2.73009
2.73066
2.73136
2.72885
2.7291
2.72927
2.72939
2.72945
2.72949
2.72954
2.72963
2.72979
2.73003
2.73039
2.73084
2.73146
2.73215
2.72955
2.7298
2.72995
2.73007
2.73013
2.73018
2.73025
2.73036
2.73054
2.7308
2.73119
2.73165
2.73231
2.733
2.73017
2.73042
2.73056
2.7307
2.73077
2.73084
2.73093
2.73106
2.73128
2.73156
2.73199
2.73247
2.73318
2.73386
2.73069
2.73094
2.73109
2.73125
2.73136
2.73147
2.7316
2.73179
2.73206
2.73238
2.73286
2.73337
2.73412
2.73481
2.73116
2.73146
2.73161
2.7318
2.73195
2.7321
2.73229
2.73251
2.73282
2.73318
2.73371
2.73426
2.73506
2.73575
2.73167
2.73194
2.7321
2.73232
2.73252
2.73273
2.73299
2.73329
2.73367
2.73411
2.73468
2.73532
2.73612
2.73688
2.73213
2.73244
2.73266
2.73291
2.73316
2.73343
2.73374
2.73408
2.73452
2.73499
2.73561
2.73627
2.73714
2.73789
2.72018
2.72029
2.7206
2.72092
2.72132
2.72172
2.72216
2.72264
2.72312
2.72367
2.72413
2.72471
2.72516
2.7257
2.72162
2.72152
2.72181
2.72204
2.72235
2.72264
2.72298
2.72337
2.72377
2.72425
2.72467
2.72519
2.72563
2.72619
2.72278
2.72268
2.72294
2.72312
2.72334
2.72355
2.72379
2.72408
2.7244
2.7248
2.72516
2.72563
2.72604
2.72658
2.72383
2.72376
2.72398
2.7241
2.72425
2.72439
2.72455
2.72477
2.72502
2.72536
2.72568
2.7261
2.72649
2.72703
2.72474
2.72474
2.72491
2.72499
2.72508
2.72516
2.72526
2.72542
2.72562
2.7259
2.72619
2.72659
2.727
2.72755
2.72551
2.72559
2.72573
2.72578
2.72583
2.72587
2.72593
2.72605
2.72621
2.72646
2.72675
2.72713
2.72756
2.72813
2.72616
2.7263
2.72641
2.72646
2.72648
2.72651
2.72656
2.72665
2.7268
2.72702
2.72732
2.72771
2.72819
2.72878
2.72672
2.72689
2.72699
2.72706
2.72707
2.7271
2.72714
2.72723
2.72739
2.7276
2.72793
2.72834
2.72888
2.72951
2.72715
2.72735
2.72746
2.72755
2.72758
2.72763
2.7277
2.7278
2.72799
2.72823
2.72861
2.72905
2.72966
2.73031
2.72754
2.72778
2.7279
2.72802
2.72808
2.72816
2.72825
2.72838
2.7286
2.72887
2.72931
2.72979
2.73049
2.73117
2.72786
2.72813
2.72827
2.72843
2.72854
2.72867
2.72882
2.729
2.72928
2.72961
2.73012
2.73065
2.73143
2.73212
2.72822
2.72855
2.72872
2.72892
2.72907
2.72924
2.72943
2.72965
2.72998
2.73035
2.73092
2.73151
2.73237
2.73309
2.7286
2.72896
2.72915
2.72939
2.72961
2.72984
2.73011
2.73041
2.73083
2.73128
2.73192
2.7326
2.7335
2.73426
2.72908
2.7295
2.72976
2.73004
2.73031
2.73059
2.7309
2.73124
2.73169
2.73219
2.73286
2.73358
2.73453
2.73536
2.71657
2.7162
2.71608
2.71594
2.71596
2.71612
2.71643
2.71684
2.71732
2.71789
2.71845
2.71913
2.71978
2.72063
2.7174
2.71702
2.71691
2.71677
2.7168
2.71694
2.71722
2.7176
2.71804
2.71858
2.71912
2.71977
2.72037
2.72112
2.71804
2.71773
2.71764
2.71754
2.71757
2.71774
2.71797
2.7183
2.71869
2.71917
2.71966
2.72026
2.72084
2.72157
2.71863
2.71839
2.71832
2.71827
2.71832
2.71847
2.71868
2.71898
2.71934
2.71978
2.72024
2.72081
2.72136
2.72206
2.71918
2.71903
2.71899
2.71897
2.71904
2.71916
2.71936
2.71963
2.71995
2.72035
2.72079
2.72134
2.72191
2.72261
2.71972
2.71966
2.71965
2.71966
2.71973
2.71984
2.72002
2.72027
2.72058
2.72097
2.72141
2.72196
2.72255
2.72326
2.72025
2.72026
2.72029
2.72034
2.7204
2.72051
2.72069
2.72092
2.72123
2.72161
2.72207
2.72263
2.72326
2.72397
2.72078
2.72087
2.72093
2.72101
2.72107
2.72119
2.72136
2.7216
2.72192
2.72231
2.72282
2.72339
2.72408
2.72481
2.72129
2.72145
2.72154
2.72165
2.72174
2.72189
2.72207
2.72232
2.72267
2.72309
2.72364
2.72424
2.72499
2.72572
2.72189
2.7221
2.72221
2.72236
2.72247
2.72263
2.72284
2.7231
2.72348
2.72393
2.72453
2.72517
2.72599
2.72674
2.72245
2.72273
2.72287
2.72305
2.72321
2.72341
2.72366
2.72396
2.72439
2.72489
2.72554
2.72623
2.7271
2.72784
2.72318
2.72351
2.72367
2.72388
2.72407
2.72429
2.72457
2.7249
2.72536
2.72589
2.72659
2.72731
2.72826
2.72902
2.72391
2.72428
2.72447
2.72471
2.72496
2.72523
2.72557
2.72597
2.7265
2.72709
2.72784
2.72862
2.72959
2.73036
2.72489
2.72525
2.72552
2.72576
2.72605
2.72635
2.72672
2.72714
2.72768
2.72828
2.72903
2.72982
2.7308
2.73168
2.71251
2.71215
2.71193
2.71174
2.71164
2.7116
2.71168
2.71188
2.71221
2.71265
2.71318
2.71385
2.7146
2.71553
2.71296
2.71266
2.71246
2.71232
2.71225
2.71225
2.71238
2.71261
2.71295
2.71341
2.71396
2.71463
2.71534
2.71617
2.71336
2.71313
2.71299
2.7129
2.71286
2.71292
2.71307
2.71332
2.71365
2.71409
2.71461
2.71526
2.71594
2.71676
2.71381
2.71365
2.71355
2.71349
2.7135
2.71359
2.71376
2.71402
2.71437
2.71482
2.71534
2.71598
2.71665
2.71743
2.71431
2.71419
2.71413
2.7141
2.71416
2.71427
2.71445
2.71473
2.71508
2.71553
2.71605
2.71668
2.71733
2.7181
2.71485
2.71478
2.71475
2.71476
2.71484
2.71497
2.71518
2.71546
2.71583
2.71629
2.71683
2.71746
2.71812
2.71886
2.71544
2.71541
2.71541
2.71547
2.71556
2.71571
2.71593
2.71623
2.71662
2.71709
2.71764
2.71827
2.71894
2.71966
2.71608
2.71612
2.71614
2.71624
2.71633
2.7165
2.71674
2.71706
2.71747
2.71796
2.71853
2.71916
2.71986
2.72055
2.71677
2.71687
2.71692
2.71705
2.71716
2.71736
2.71762
2.71796
2.71839
2.7189
2.71949
2.72012
2.72083
2.72149
2.71758
2.71772
2.7178
2.71794
2.71808
2.7183
2.71858
2.71894
2.71939
2.7199
2.72052
2.72115
2.72189
2.72252
2.71843
2.71862
2.71873
2.7189
2.71908
2.71933
2.71963
2.72001
2.72047
2.721
2.72163
2.72227
2.72302
2.72361
2.71947
2.7197
2.71981
2.72
2.7202
2.72045
2.72077
2.72115
2.72161
2.72215
2.72279
2.72343
2.72421
2.72479
2.72055
2.72076
2.72092
2.72113
2.72137
2.72165
2.72198
2.72239
2.72288
2.72344
2.72408
2.72473
2.7255
2.72607
2.72188
2.72204
2.72226
2.72245
2.7227
2.72297
2.72331
2.72371
2.72419
2.72472
2.72534
2.72598
2.72675
2.72741
2.71059
2.71039
2.71025
2.71006
2.70989
2.70977
2.7097
2.70971
2.70981
2.71
2.71029
2.7107
2.71121
2.71186
2.71085
2.71072
2.7106
2.71046
2.71035
2.71028
2.71028
2.71035
2.71051
2.71076
2.7111
2.71156
2.71208
2.71272
2.71114
2.71106
2.71096
2.71088
2.71082
2.71082
2.71088
2.71101
2.71121
2.71149
2.71185
2.7123
2.71279
2.71343
2.71152
2.71146
2.71139
2.71135
2.71134
2.7114
2.71151
2.71169
2.71193
2.71225
2.71264
2.7131
2.7136
2.71421
2.71196
2.71191
2.71188
2.71188
2.71191
2.71201
2.71217
2.71239
2.71267
2.71302
2.71341
2.71387
2.71435
2.71492
2.71247
2.71244
2.71245
2.71247
2.71255
2.71268
2.71287
2.71312
2.71342
2.71379
2.71419
2.71465
2.71513
2.71567
2.71307
2.71306
2.71309
2.71314
2.71325
2.71341
2.71362
2.71388
2.7142
2.71457
2.71498
2.71543
2.7159
2.7164
2.71376
2.71377
2.71382
2.71389
2.71402
2.71419
2.71441
2.71468
2.71501
2.71538
2.71579
2.71623
2.7167
2.71716
2.71453
2.71458
2.71463
2.71472
2.71485
2.71503
2.71526
2.71554
2.71587
2.71624
2.71665
2.71707
2.71753
2.71793
2.71542
2.71549
2.71553
2.71563
2.71575
2.71593
2.71617
2.71646
2.71679
2.71715
2.71755
2.71795
2.71841
2.71876
2.71637
2.71647
2.71651
2.71661
2.71673
2.71692
2.71716
2.71744
2.71777
2.71811
2.7185
2.71888
2.71932
2.71962
2.71746
2.71756
2.71759
2.71768
2.7178
2.71798
2.71821
2.71848
2.71879
2.71912
2.7195
2.71986
2.72031
2.72056
2.7186
2.71867
2.71871
2.71881
2.71892
2.7191
2.71933
2.71958
2.71989
2.7202
2.72056
2.7209
2.72131
2.72154
2.71996
2.71992
2.71996
2.72003
2.72014
2.7203
2.7205
2.72073
2.72101
2.7213
2.72163
2.72197
2.72236
2.72265
2.71048
2.71041
2.7103
2.71015
2.70999
2.70983
2.70968
2.70954
2.70944
2.70938
2.7094
2.70945
2.70956
2.70975
2.71055
2.71052
2.71044
2.71036
2.71025
2.71014
2.71004
2.70997
2.70995
2.70995
2.71002
2.71013
2.7103
2.71061
2.71073
2.71071
2.71065
2.7106
2.71053
2.71048
2.71045
2.71044
2.71046
2.71053
2.71063
2.71078
2.71096
2.71129
2.711
2.71098
2.71094
2.71091
2.71088
2.71088
2.71089
2.71093
2.71099
2.7111
2.71124
2.71142
2.71163
2.71196
2.71135
2.71133
2.71131
2.71129
2.71129
2.71132
2.71137
2.71146
2.71156
2.71169
2.71185
2.71205
2.71225
2.71255
2.71178
2.71175
2.71174
2.71174
2.71176
2.71182
2.7119
2.71201
2.71214
2.71229
2.71246
2.71266
2.71286
2.71313
2.71228
2.71226
2.71226
2.71227
2.71231
2.71238
2.71247
2.7126
2.71274
2.71291
2.71308
2.71327
2.71346
2.71368
2.71288
2.71285
2.71284
2.71286
2.71291
2.71299
2.71309
2.71322
2.71336
2.71351
2.71368
2.71385
2.71404
2.71421
2.71355
2.71354
2.71352
2.71354
2.71359
2.71366
2.71375
2.71387
2.714
2.71415
2.7143
2.71445
2.71462
2.71474
2.7143
2.7143
2.71426
2.71427
2.7143
2.71436
2.71444
2.71455
2.71467
2.7148
2.71494
2.71506
2.7152
2.71526
2.71511
2.71513
2.71506
2.71507
2.71508
2.71512
2.71518
2.71527
2.71538
2.71549
2.71561
2.71569
2.7158
2.7158
2.71602
2.71602
2.71592
2.7159
2.71589
2.71591
2.71596
2.71603
2.71612
2.71621
2.7163
2.71636
2.71644
2.71639
2.71697
2.71694
2.71682
2.71678
2.71676
2.71676
2.71679
2.71684
2.7169
2.71695
2.71701
2.71703
2.71708
2.71698
2.7181
2.7179
2.71777
2.7177
2.71765
2.71763
2.71764
2.71766
2.71769
2.71772
2.71775
2.71774
2.71777
2.71766
2.71083
2.71079
2.7107
2.71058
2.71044
2.71026
2.71005
2.70983
2.70961
2.70938
2.70916
2.70893
2.70873
2.7086
2.71077
2.71077
2.7107
2.71062
2.71049
2.71035
2.71018
2.71001
2.70984
2.70965
2.70948
2.70931
2.70917
2.70909
2.71081
2.71082
2.71076
2.7107
2.71059
2.71048
2.71034
2.71022
2.7101
2.70997
2.70985
2.70973
2.70963
2.70957
2.71096
2.71096
2.71091
2.71086
2.71077
2.71068
2.71058
2.71047
2.71036
2.71027
2.71018
2.71011
2.71004
2.71002
2.71119
2.71117
2.71112
2.71107
2.71099
2.71092
2.71083
2.71075
2.71067
2.71061
2.71055
2.7105
2.71045
2.71043
2.71148
2.71144
2.71139
2.71133
2.71126
2.7112
2.71114
2.71108
2.71101
2.71095
2.7109
2.71086
2.71083
2.71081
2.71184
2.71179
2.71172
2.71166
2.71159
2.71153
2.71148
2.71143
2.71138
2.71133
2.71128
2.71123
2.71119
2.71116
2.71227
2.7122
2.71211
2.71204
2.71197
2.71192
2.71186
2.71181
2.71176
2.7117
2.71164
2.71158
2.71153
2.71147
2.71275
2.71266
2.71256
2.71248
2.7124
2.71234
2.71228
2.71222
2.71215
2.71209
2.71201
2.71193
2.71185
2.71176
2.71327
2.71316
2.71304
2.71296
2.71287
2.7128
2.71272
2.71264
2.71255
2.71247
2.71237
2.71226
2.71214
2.71201
2.71382
2.71372
2.71357
2.71347
2.71337
2.71328
2.71318
2.71308
2.71297
2.71286
2.71273
2.71258
2.71242
2.71223
2.71443
2.71431
2.71413
2.71401
2.71388
2.71376
2.71364
2.71352
2.71337
2.71323
2.71306
2.71289
2.71269
2.71244
2.71507
2.71494
2.71473
2.71458
2.71441
2.71426
2.71411
2.71396
2.71379
2.7136
2.71339
2.71315
2.71291
2.71261
2.71582
2.71556
2.71531
2.71511
2.71493
2.71475
2.71457
2.71439
2.71419
2.71398
2.71374
2.71347
2.71318
2.71282