/*--------------------------------*- C++ -*----------------------------------*\
| =========                 |                                                 |
| \\      /  F ield         | OpenFOAM: The Open Source CFD Toolbox           |
|  \\    /   O peration     | Version:  v2106                                 |
|   \\  /    A nd           | Website:  www.openfoam.com                      |
|    \\/     M anipulation  |                                                 |
\*---------------------------------------------------------------------------*/
FoamFile
{
    version     2.0;
    format      ascii;
    arch        "LSB;label=32;scalar=64";
    class       volScalarField;
    location    "0.000213";
    object      epsilon;
}
// * * * * * * * * * * * * * * * * * * * * * * * * * * * * * * * * * * * * * //

dimensions      [0 2 -3 0 0 0 0];

internalField   nonuniform List<scalar> 
18273
(
164807
113524
83400
69643.3
69344.7
74937.8
82772.1
88014
90697.6
95475.3
105553
131930
172493
207648
105260
64673.7
42902.6
31463.3
28021.3
29050.6
33221.6
38513.2
44043.3
49637.2
59855
76637.6
104616
147495
61814.1
36585.7
23768.3
16300.5
12995.8
12313.9
13831.3
17012.4
21393.6
26480.9
32399
43408.6
58459.5
94440.1
37800.2
22667.9
14417
9438.11
6870.73
5881.16
6235.95
7848.08
10637.3
14346.7
18608.4
22964
30054.3
55178.4
26251
15528.8
9347.58
5757.33
3853.74
3001.79
2960.95
3722.28
5377.7
7885.11
10972.4
14252.7
18796.2
33206.8
19785.5
10937.2
6074.17
3456.07
2126.72
1524.5
1411.4
1776.81
2748.21
4400.25
6624.46
9219.2
12627.9
23287.8
15096
7486.3
3745.34
1941.8
1099.38
735.128
655.297
851.481
1438.7
2537.38
4157.6
6263.91
9364.94
19244.4
11371
4961.55
2186.65
1013.4
524.441
331.671
299.176
427.975
813.242
1580.3
2810.3
4588.75
7653.9
18074.6
8778.75
3403.22
1311.28
529.494
244.329
148.389
148.488
253.694
542.336
1131.66
2142.62
3797.38
7240.66
18887.5
7876.86
2860.05
1002.11
357.567
146.974
88.9216
104.567
204.768
458.71
982.698
1948.32
3782.01
8243.45
21221.7
9062.36
3369.17
1204.36
434.686
183.577
116.889
135.035
242.67
509.469
1072.71
2201.76
4690.79
10829.4
24888.3
13666.4
5732.08
2392.02
995.792
455.989
281.524
275.002
401.656
731.601
1451.05
3014.02
6777.56
15310.8
31243.6
22990.2
11011.6
5449.88
2735.34
1398.22
822.371
672.547
801.018
1236.71
2212.39
4383.64
9661.66
20925.1
39456.3
37585.2
19782.2
11153.5
6669.78
4007.97
2489.69
1826.63
1786.64
2301.1
3590.09
6394.89
13311.5
27584.8
48304.3
161792
100584
67637.5
50620.3
44790.9
43948.8
45596.5
46972.8
47843.5
48664.2
57942
79849.3
126311
177276
89168.9
51322.9
33718.6
24083.1
19952.6
18990.1
20060.3
21925.8
24214.8
26620.2
30161.8
41596.1
66273.9
108676
43156.6
25797.3
17011.9
11931.5
9427.15
8598.44
9023.35
10306.1
12293.2
14755.1
17926.1
22899.2
34990.7
59229.7
24335
14406.4
9184.59
6261.26
4722.71
4091.26
4183.61
4903.12
6236.1
8124.45
10595.9
13831.9
18586
32410.4
16766.2
9234.41
5463.56
3488.1
2465.24
2005.56
1969.41
2331.12
3155.27
4480.35
6286.57
8665.17
11990.7
19887.8
12778.8
6388.23
3419.93
1988.3
1289.99
975.047
913.221
1091.64
1588.7
2480.16
3792.6
5577.25
8119.92
13575.9
9973.44
4504.33
2145.11
1110.28
650.167
453.895
408.26
502.844
805.204
1403.94
2360.62
3750.6
5842.04
10352.2
8115.62
3301.34
1371.03
610.954
313.06
199.493
176.631
236.837
433.234
850.4
1572.8
2703.85
4550.42
8820.35
7138.83
2654.94
963.566
360.014
153.276
86.6272
80.0088
128.415
274.291
593.777
1183.12
2183.49
3991.5
8415.45
7351.15
2604.91
867.952
281.805
98.8348
48.5245
49.4749
95.9882
225.11
509.72
1060.82
2073.49
4090.46
8952.33
8835.16
3119.38
1034.65
333.463
116.39
58.1081
59.6358
110.691
248.266
552.727
1165.65
2370.28
4843.82
10385.7
12831.2
4766.38
1721.69
626.672
251.478
136.414
125.033
187.165
360.625
745.34
1539.55
3168.71
6453.68
13496.8
20245.7
8076.56
3311.55
1448.55
684.267
389.101
318.966
391.275
628.353
1151.49
2244.2
4581.28
9720.24
19459.4
32716.1
13876
6341.23
3262.6
1806.83
1102.93
844.283
885.735
1203.17
1925.61
3438.89
6913.86
15130.7
29047.6
129275
78118.6
49945.6
34718.2
27646.2
24962.9
24847.3
25792.3
27721.9
29448.3
31128.6
34557.2
55578.1
108603
58362.6
35626.4
22701.3
15575.9
12125.4
10817.6
10875.5
11644
13059.6
14702.3
16641
19472.5
27464
55747.8
28140.2
16199.9
10088.2
6887.62
5319.03
4712.44
4764.95
5249.34
6157.28
7368.99
8979.75
11286.3
16236.2
27501.2
18313.3
8959.34
4963.88
3192.75
2394.42
2082.15
2090.92
2347.21
2884.02
3703.41
4879.2
6611.47
9794.07
16038.3
13531.4
5806.76
2790.48
1605.8
1122.12
933.57
915.098
1036
1337.06
1864.39
2687.8
3949.73
6105.69
10135.9
10249.4
4034.27
1714.66
861.907
539.487
417.443
393.682
448.07
614.052
946.589
1514.69
2435.58
3976.5
6872.43
7937.82
2944.07
1124.99
485.767
261.017
181.662
163.496
189.927
284.674
496.765
893.378
1580.02
2761.55
5008.78
6813.41
2414.97
836.765
304.053
131.656
77.3259
65.7331
81.7841
141.905
286.377
577.513
1114.68
2084.23
3961.82
6504.47
2230.74
718.452
225.474
76.5605
34.788
27.6418
40.6832
86.2951
198.361
435.147
893.724
1758.56
3464.97
7217.3
2441.58
759.604
220.684
63.5039
22.345
16.5123
29.6022
72.2433
176.061
398.697
839.694
1692.18
3381.64
8733.09
2932.25
907.022
264.959
77.6773
28.1046
20.8627
35.8596
83.649
198.208
442.683
925.289
1854.58
3680.25
12178.7
4145.25
1331.63
425.884
145.939
63.8821
47.959
66.5359
129.111
275.858
581.783
1172.67
2287.19
4463.65
17670.7
6125.35
2113.83
788.566
332.708
174.107
131.91
153.941
243.313
448.225
864.889
1672.23
3244.46
6275.5
27506.6
9627.99
3573.3
1547.43
786.234
474.486
367.659
387.895
523.473
831.836
1445.58
2708.46
5558.64
11138.3
247598
296919
318215
356743
608431
2.53663e+06
192550
258491
294140
314759
494561
2.04356e+06
151393
237419
285424
292781
413324
1.74388e+06
116078
220487
280698
278393
356970
1.56015e+06
87153.9
201413
268977
264839
315240
1.45667e+06
68566.8
178147
248763
251920
300164
1.4118e+06
61100.8
151138
219971
239500
303240
1.42013e+06
56349.2
125863
188984
227080
312411
1.46618e+06
51050.4
101697
159364
213829
324464
1.54316e+06
46447.7
82627.5
134358
200333
338490
1.64822e+06
44683.2
71865.2
117257
188281
353498
1.7862e+06
47164.9
69952.8
109745
180301
366584
1.94521e+06
52149.6
73010.2
110246
178674
385815
2.17834e+06
57366.4
78885.3
116670
185801
420723
2.54573e+06
239533
313095
352952
366738
507745
1.96468e+06
150837
220713
285032
321533
426409
1.56661e+06
97453.2
167490
246213
296138
376937
1.32069e+06
63021.9
131028
219665
279748
343295
1.16303e+06
42761
105380
197597
262254
321030
1.07071e+06
30839.4
86825.7
177326
244194
313994
1.03376e+06
25462
72443.1
155458
224773
313316
1.05121e+06
22916.1
62518.6
133168
206438
322811
1.10407e+06
21394.2
53039.7
111567
189483
337866
1.17504e+06
20496.1
44625.5
93049.4
173913
351917
1.24941e+06
20746.3
39674
80801.1
161367
362395
1.33039e+06
23490.9
40149.2
76778.5
154334
367214
1.43148e+06
29123.8
45692.2
80466.5
154305
374183
1.58059e+06
35764.3
53764.1
89588.4
161485
383025
1.79566e+06
177497
274549
357880
391504
473474
1.29847e+06
94668.1
156285
230382
297983
411213
1.01353e+06
50814.9
95387.8
159583
238700
372841
838141
27961.9
61834.7
117712
199101
329949
732504
18512
42506
92363.1
171578
299199
677629
13250.9
31518
76840.4
152811
279164
667626
10135.5
25010.8
66264.5
136944
269031
697053
8390.22
21487.3
58038.9
123775
271737
750287
7563.48
19301.3
50364.6
113371
280351
810582
7281.91
17297.6
43312.8
105312
286990
862250
7411.53
15830.4
38324.9
99085
288396
901770
8329.39
16039.2
36871.5
95844.3
284923
936830
10809
19121
40081.1
98183.1
281940
983738
14445
24316.7
47975.1
107531
278786
1.05485e+06
59996.8
85810.6
128352
209564
509587
2.5865e+06
35395.6
55670.5
92292.4
158186
361975
1.92093e+06
19096.7
35103.7
68529.1
129157
302631
1.5068e+06
10616.1
22842.3
53398.8
109536
257568
1.25514e+06
7078.36
17194.6
44414.7
93804.4
218248
1.11975e+06
5580.73
15553.6
40519
84397.7
196541
1.07302e+06
5282.26
15524
39003.2
78857.4
195438
1.10423e+06
5892.4
16236.3
37979.3
77195
213865
1.20868e+06
7249.51
17066.2
36854.8
79559.3
255510
1.37621e+06
9262.18
18129.7
37081.9
89081
318855
1.59724e+06
12070.4
20608.3
41913.7
110383
407470
1.86999e+06
16746.9
27262.5
56471.3
150264
535256
2.20228e+06
25978.7
43027
88897.1
220911
732079
2.61818e+06
43563.8
75196.9
150783
340445
1.01812e+06
3.16476e+06
40818.8
63112.1
101272
177544
410003
1.75841e+06
22010.9
37239.7
66087.5
125427
290723
1.26911e+06
10970.8
21209.7
43587.7
93355.5
225301
969206
6022.11
12521.6
29845.3
71717.5
180164
789450
3860.88
8842.77
22864.2
58208.6
152814
694995
2810.32
7229.5
19758.7
51141.3
142212
668132
2412.49
6707.79
18621.4
48671.7
148620
705725
2499.37
6860.21
18702.8
50971.7
173788
810442
3039.02
7518.55
20082.5
59854.4
225098
981176
4071.68
8904.28
24032.7
78864.2
303995
1.20809e+06
5844.2
11920.7
33312.2
111845
409225
1.48201e+06
9363.44
18826.5
51932
162831
544323
1.801e+06
17534.6
34916.3
87956.3
241365
723995
2.17418e+06
36179.4
71082.7
156469
364167
967143
2.62188e+06
18228.8
32056.4
60347.8
124641
286597
954225
9699.65
18500.1
37836.6
83972.5
201727
666870
4929.68
10464.2
23840.2
58432.3
148610
498896
2838.54
6233.95
15523.8
42385.4
118988
404795
1844.97
4367.4
11509.9
33915.9
104254
360809
1316.02
3388.56
9549.93
30332.1
102579
361680
1078.98
2988.8
9131.51
31637.2
116459
408545
1056.49
3059.96
10359.8
39443.7
152097
510089
1274.27
3812.98
14325.7
57556.9
216398
674395
1839.25
5803.56
23068.8
90142.2
310812
901248
3068
10078.6
38994
138793
428907
1.18156e+06
5717.46
18083.4
63491.8
201177
559563
1.49917e+06
11861.2
33392.5
99857.4
278026
685734
1.84017e+06
28123.8
68471.1
164333
381568
817856
2.18106e+06
2.90077e+06
794045
506330
374437
261525
186118
2.46272e+06
731827
436924
284632
181622
127313
2.16734e+06
696503
368401
214192
122943
81089.7
1.97652e+06
654739
323274
172800
89890.5
54433.6
1.80603e+06
592273
300020
153103
74636.9
40966.6
1.67081e+06
547701
282058
144059
69018.2
34795.3
1.5785e+06
530051
269370
138728
65239.1
30113.6
1.54432e+06
537016
262112
131285
59715.6
25508.1
1.56457e+06
581989
262217
123519
53718.1
21660.7
1.6478e+06
654256
272268
121089
51357.2
20370.7
1.81011e+06
751150
300675
131143
56297.2
23104.2
2.07809e+06
870493
346026
156082
71108
31917.7
2.4911e+06
1.03511e+06
411642
193971
95243.6
47930.2
3.14049e+06
1.25605e+06
502656
247577
131381
72731
2.50546e+06
952632
595000
418121
274085
180484
2.15403e+06
890409
517786
315642
180054
110356
1.8995e+06
843343
451056
239335
116376
63743.2
1.70835e+06
799202
404359
195544
85412.7
41314.5
1.56458e+06
753823
372752
168007
71323
32174.6
1.45613e+06
711749
339323
152601
63743.3
26866.2
1.38119e+06
675566
310853
137088
56239.6
22644.5
1.34406e+06
654322
287975
123643
50301.6
19695.6
1.34534e+06
659732
277622
116647
47315
18271.9
1.4008e+06
692616
284319
119617
49372.2
19299
1.52421e+06
754842
311450
134580
57394.6
23235.9
1.7367e+06
846911
359592
164265
74561.5
32415.3
2.06688e+06
988433
426115
204919
99965.8
47920
2.58355e+06
1.18515e+06
522811
264928
139254
73280.3
2.10721e+06
1.0213e+06
677626
439921
258240
140748
1.8507e+06
945023
588668
325711
162782
76430
1.66966e+06
880903
526231
254957
109748
50316.5
1.53585e+06
837958
476911
216570
92426
39989.9
1.43536e+06
807318
439909
194563
80369.1
32360.1
1.34915e+06
780495
401551
171940
68383.1
25960.3
1.2745e+06
740411
357322
148071
57147.9
20893.4
1.2174e+06
695880
319070
130537
50363.3
18310.4
1.18701e+06
659528
294922
122013
47985.5
17701.6
1.19886e+06
645293
291062
125170
51314.9
19632
1.26898e+06
661840
308490
139404
59636.5
23748.4
1.41328e+06
701977
348669
168364
76732.9
32652.7
1.6584e+06
791004
406862
207020
100920
46520.8
2.06382e+06
934291
503082
271297
142867
71943.8
2.38756e+06
499596
335547
310062
277279
229386
2.00611e+06
436717
323650
293515
248017
201800
1.7571e+06
397429
313030
276815
219299
168244
1.59475e+06
370772
304192
265052
199686
146171
1.497e+06
353220
298156
265023
200463
142938
1.45179e+06
340651
295442
277237
222059
153994
1.44959e+06
331554
295823
301120
257153
170487
1.4755e+06
336202
305584
333898
292868
179902
1.52321e+06
360279
329176
368645
312300
175814
1.6075e+06
394012
361186
388076
306101
164040
1.75358e+06
451669
394677
386284
284406
153695
1.9907e+06
541934
425708
379238
273414
159569
2.35972e+06
663794
478404
402410
293551
188712
2.94635e+06
868569
555917
456766
352153
250144
1.87508e+06
468887
388948
365440
290588
210737
1.59507e+06
452253
402318
345338
245139
170377
1.40897e+06
441523
406168
322927
201566
125296
1.28726e+06
434536
408502
311644
176641
99704.1
1.21496e+06
429459
414554
317887
175299
92663.4
1.18418e+06
426122
423424
335181
191068
91874.7
1.18834e+06
424059
431390
358798
204681
98070.2
1.22468e+06
425085
441997
377631
217917
101629
1.28198e+06
436089
456794
386958
221270
101248
1.35884e+06
471183
469594
379090
215765
101205
1.49311e+06
537725
477462
363477
212199
106971
1.69867e+06
648607
491964
366107
229429
128891
2.00642e+06
766051
548519
413476
278081
172875
2.4842e+06
971961
645912
506484
375806
257492
1.32772e+06
498804
451029
374270
235052
136723
1.20693e+06
525953
479889
331914
174248
94992.6
1.13164e+06
551683
497998
308749
139831
65502.8
1.09233e+06
579647
521569
309397
131463
57216
1.07954e+06
610689
552393
323079
131837
58889.3
1.08929e+06
644471
579556
323010
140694
59388.7
1.11578e+06
669360
577782
319967
140499
57757.6
1.1527e+06
676176
557013
311459
138410
57020.4
1.1915e+06
669894
531495
301097
136865
57637.1
1.25097e+06
681700
503580
290033
139213
62104.4
1.34157e+06
722928
497984
296728
154056
73834.4
1.48149e+06
793560
527614
333819
191064
101227
1.69506e+06
883117
602075
409882
257636
150907
2.04178e+06
1.04975e+06
731282
538502
373726
241896
66809.9
40797.8
25621
17422.7
13525.6
12019.1
12005.4
12826.2
14388.7
16180.9
17936
19375.3
21005.9
26635.1
30984
17388.2
10435.1
6922.66
5314.24
4738.89
4802.23
5253.12
6079.78
7147
8381.15
9641.85
11234.2
15113.2
19362.8
8745.11
4482.2
2740.52
2054.68
1842.85
1894.72
2118.11
2521.19
3088.67
3821.42
4693.7
5943.35
8617.52
14365.5
5453.13
2251.06
1160.18
805.949
713.891
739.411
840.197
1024.06
1305.55
1712.69
2278.48
3177.66
5035.96
10876
3714.58
1291.06
541.225
326.743
276.631
285.394
327.755
408.123
544.135
767.509
1130.59
1770.99
3090.62
8213.29
2624.46
813.765
281.887
139.432
107.265
108.408
125.429
160.564
227.966
355.532
596.207
1062.41
2034.51
6289.73
1934.59
561.056
167.418
64.9976
41.8607
40.2218
47.105
63.7102
100.577
180.694
350.855
704.392
1451.46
5187.13
1564.45
437.019
117.824
35.8289
17.1763
14.6948
17.8071
27.2776
51.3394
109.122
240.773
525.388
1129.5
4649.34
1389.12
380.676
97.1956
24.8754
8.35002
5.70182
7.60325
14.7576
34.355
83.3745
197.351
446.11
969.777
4803.38
1437.6
392.169
98.1824
23.2348
6.0553
3.15772
4.92172
12.0977
31.829
80.5832
191.925
431.388
925.694
5442.26
1610.22
433.032
107.882
25.8401
6.94353
3.76615
6.02349
14.7449
37.8797
92.9592
214.771
469.803
981.912
7468.44
2196.62
588.247
149.626
39.3099
13.4361
8.95193
12.2845
24.4786
55.0126
123.888
270.493
566.203
1141.35
10725.6
3132.56
856.073
237.185
76.3299
35.5302
27.4416
32.6746
51.7503
96.413
190.369
382.708
753.094
1454.99
17673.6
5329.9
1655.49
558.439
221.245
118.809
92.9138
100.089
134.642
211.186
358.141
647.596
1174.82
2132.97
31503.3
19339.9
12670.5
9107.33
7522.94
7137.86
7587.41
8544.38
9881.18
11349.5
12821.7
14241.6
15754
18723.7
16811.4
8698.83
5147.71
3521.54
2850.58
2703.35
2911.44
3377.57
4066.41
4916.75
5894.62
6965.68
8249.21
10505.3
11645.7
4855.38
2344.02
1415.83
1088.62
1020.91
1105.43
1309.53
1630.49
2068.06
2628.95
3317.28
4245.16
5853.7
8870.86
3194.79
1245.73
618.445
427.552
387.425
417.023
499.444
638.244
846.842
1145.26
1562.13
2193.26
3320.39
6857.68
2243.18
743.465
297.469
174.209
147.57
156.126
187.657
244.971
340.736
495.65
745.569
1171.89
1972.29
5298.55
1627.59
483.559
159.308
74.7991
56.2771
57.6553
69.3932
92.9723
137.507
220.352
375.284
670.909
1259.99
4098.97
1213.67
338.033
96.2071
35.1381
21.651
20.8475
25.2591
35.5922
58.1399
106.663
210.019
425.903
878.022
3264.6
946.598
255.053
66.4359
19.3303
8.81084
7.45162
9.26556
14.6355
28.2107
61.1418
137.782
307.34
672.817
2737
788.027
210.416
52.8306
13.2901
4.30992
2.85631
3.83741
7.57913
18.0143
44.8992
109.684
256.138
573.443
2533.52
735.227
198.339
49.8534
11.9259
3.12539
1.60058
2.46116
6.10215
16.4238
42.9124
106.028
247.352
549.242
2577.34
746.474
202.679
52.0168
12.938
3.63265
2.02806
3.18408
7.71735
20.0808
50.5937
120.924
274.067
592.455
3187.54
917.439
249.982
66.7321
18.8157
7.05823
5.08572
7.04592
13.8158
30.9809
70.7555
158.35
341.297
708.587
4224.56
1206.1
338.2
100.691
36.1969
18.9729
15.9432
19.6378
31.1863
57.9774
115.112
234.395
470.27
926.627
6713.13
2000.89
632.56
224.811
99.3182
60.7898
52.6467
60.0643
82.816
130.629
221.612
398.849
723.983
1321.15
13198.5
8186.67
5716.21
4468.31
4025.53
4164.04
4767.78
5700.29
6853.58
8100.15
9367.69
10674.7
12119.9
14444.4
7626.91
3919.4
2426.49
1780.27
1540.04
1559.29
1787.51
2196.02
2761.43
3454.47
4255.17
5171.83
6277.8
8010.21
5383.29
2265.1
1153
747.322
603.95
589.023
665.634
827.859
1078.03
1420.58
1863.37
2427.08
3182.25
4390.98
4134.28
1500.28
618.618
333.292
241.931
223.62
246.398
306.494
409.564
566.684
794.326
1120.66
1612.25
2435.63
3284.04
1073.89
369.634
159.444
98.6031
84.4899
90.2259
111.577
152.224
221.577
335.518
522.11
838.775
1408.58
2609.92
795.76
240.181
83.2372
41.3213
31.5336
32.3978
39.8934
55.8721
86.7884
145.194
255.298
465.007
873.851
2039.19
595.268
165.465
48.1983
18.4662
11.6912
11.3249
14.0289
20.6935
35.5623
68.0401
137.868
284.808
591.794
1590.36
453.475
121
31.6665
9.49727
4.50976
3.89726
4.97871
8.23635
16.6359
37.4209
86.7293
198.074
441.404
1264.35
359.084
95.199
23.9219
6.1133
2.06597
1.43625
2.00322
4.12092
10.1743
26.2552
66.274
159.741
367.61
1067.34
309.782
84.3884
21.5291
5.25593
1.43765
0.798176
1.28375
3.25933
9.02668
24.4024
62.5606
151.476
347.883
979.832
292.611
83.064
22.3185
5.8254
1.78144
1.12539
1.80237
4.30513
11.2782
29.1147
71.9213
168.975
377.845
1039.97
320.981
96.1151
28.3196
8.86571
3.81854
3.10874
4.40267
8.42552
18.6279
42.8787
98.0665
217.583
464.663
1208.93
385.041
125.202
43.5057
18.1188
10.8431
10.0307
12.891
20.4986
37.6892
74.7793
153.73
314.726
631.991
1636.85
543.993
201.716
86.99
46.6856
33.3788
32.1728
39.1286
55.458
87.9432
149.873
270.546
499.535
928.857
6576.71
4314.06
3167.01
2591.51
2413.74
2583.93
3070.17
3814.06
4757.43
5819.38
6940.68
8132.21
9480.72
11459.4
3795.98
2116.88
1415.95
1088.77
954.947
972.348
1131.64
1429.57
1864.82
2424.7
3099.23
3896.56
4869.2
6319.55
2610.6
1189.55
676.954
472.053
386.172
370.914
416.271
525.586
708.039
972.865
1331.21
1804.12
2445.07
3437.34
1972.01
752.953
348.764
209.491
156.791
141.53
152.259
190.053
261.923
379.128
557.357
822.328
1226.17
1889.81
1553.64
519.244
195.44
95.8033
63.1606
53.1433
54.8628
67.5591
95.0277
145.341
232.138
378.969
630.995
1082.21
1219.42
372.337
118.43
46.153
25.3548
19.4259
19.2718
23.5761
34.174
56.1202
99.4841
183.496
345.734
663.549
931.304
269.118
76.5359
24.2342
10.4758
6.93506
6.56197
8.11217
12.4866
22.8223
46.2475
97.8199
208.354
442.217
701.211
197.377
53.0545
14.5431
4.83228
2.51258
2.19081
2.83067
4.93066
10.5793
24.994
60.0572
141.247
322.459
533.273
150.754
40.3473
10.4247
2.83406
1.057
0.780423
1.12469
2.4311
6.29611
16.9164
44.2334
110.218
261.587
432.168
127.193
35.4901
9.3199
2.36708
0.700929
0.434238
0.727035
1.88806
5.39615
15.1418
40.3662
101.629
242.375
389.943
121.862
36.2971
10.1854
2.79706
0.952075
0.687329
1.1087
2.58853
6.81054
18.0479
46.203
112.872
262.518
407.493
136.454
43.9893
13.7866
4.65691
2.28493
2.07713
2.97593
5.53245
12.0136
27.861
65.2108
149.387
330.271
474.096
170.041
61.0634
22.9101
10.3411
6.8636
6.90423
9.1558
14.5065
26.327
52.2022
108.464
227.173
468.374
607.102
238.407
100.405
47.1552
27.2015
21.1284
21.9443
27.8703
40.2118
64.0713
110.01
200.455
377.659
717.505
4260.68
2977.88
2243.14
1833.88
1665.15
1730.87
2036.19
2574.76
3326.57
4214.65
5197.01
6272.03
7520.96
9291.84
2409.64
1483.93
1052.16
816.542
695.109
673.384
754.318
949.296
1272.74
1720.5
2285.25
2975.9
3844.3
5116.5
1563.14
794.717
501.605
364.213
292.168
265.179
281.026
346.412
474.467
677.923
968.515
1366.6
1922.74
2780.4
1108.96
461.862
244.818
160.492
120.662
103.248
103.885
124.845
173.324
260.577
401.833
620.639
963.693
1532.53
818.204
288.332
124.39
70.0459
48.3302
39.0347
37.5763
44.2361
62.4188
99.2634
167.072
286.85
498.285
883.188
600.815
187.717
66.6016
30.7766
18.7573
14.1723
13.151
15.3643
22.4055
38.464
72.1645
140.193
275.371
545.565
431.09
124.921
38.0759
14.1441
7.19211
4.93859
4.42962
5.25783
8.22922
15.8572
34.0398
75.5259
166.993
364.6
308.389
86.4322
24.069
7.35384
2.91466
1.69203
1.45002
1.82691
3.28677
7.46332
18.5539
46.3964
112.724
264.151
229.187
65.1271
17.8011
4.84526
1.47548
0.639105
0.498664
0.723144
1.62795
4.42348
12.3858
33.5548
86.3287
210.72
190.351
57.3776
16.34
4.37892
1.16162
0.385502
0.272889
0.472413
1.25233
3.69459
10.7515
29.7389
77.5878
191.149
184.314
59.9506
18.229
5.16557
1.46632
0.568202
0.477534
0.778425
1.77471
4.67942
12.7003
33.6022
85.0516
204.628
209.085
72.9961
23.9119
7.5802
2.71291
1.53487
1.55577
2.25398
4.07647
8.68568
20.2418
48.3709
114.062
259.859
260.702
97.3924
35.4653
13.5527
6.54541
4.86421
5.30127
7.20492
11.333
20.2607
40.0381
84.0003
179.634
379.167
349.087
144.092
61.5638
29.3665
17.8857
15.1525
16.8685
22.1546
32.2808
51.3588
88.2982
162.031
309.922
599.432
3319.02
2428.22
1848.13
1481.54
1283.57
1255.95
1410.8
1767.5
2333.05
3055.49
3903.21
4876.79
6058.65
7721.24
1795.47
1201.21
884.3
684.23
561.367
510.14
535.104
650.92
878.916
1227.4
1697.59
2300.77
3094.05
4260.11
1065.36
607.142
415.254
308.555
242.15
207.262
204.219
239.157
325.386
478.736
714.629
1054.41
1549.86
2325.42
680.328
319.131
192.525
134.386
100.877
82.1635
76.8774
86.99
118.871
183.479
296.494
481.123
782.638
1295.5
449.85
175.173
89.2716
56.5597
40.1873
31.2906
28.1073
31.079
43.0579
70.3725
124.573
225.619
411.334
759.793
297.33
99.5668
42.0269
23.1845
15.268
11.3456
9.87915
10.8681
15.6455
27.801
55.0847
112.989
232.506
478.693
194.869
58.8209
20.7396
9.51953
5.58454
3.91035
3.32665
3.74676
5.87005
11.838
26.8595
62.6028
144.1
324.958
131.848
37.8682
11.5935
4.25706
2.05687
1.29904
1.08379
1.31674
2.41839
5.78125
15.086
39.2496
98.5195
237.095
98.9147
28.7725
8.24281
2.4715
0.889682
0.451848
0.366533
0.528935
1.23117
3.4963
10.1676
28.4516
75.3005
188.286
90.0504
27.7127
7.98261
2.17979
0.618229
0.240705
0.196443
0.350917
0.950681
2.89201
8.69371
24.8132
66.6177
168.269
99.4196
32.4517
9.70785
2.71232
0.802361
0.369992
0.363575
0.60456
1.36651
3.63772
10.1157
27.5601
71.792
177.291
125.453
43.103
13.7035
4.30138
1.66508
1.11555
1.24897
1.83384
3.26892
6.91151
16.2662
39.6996
95.9853
224.178
167.836
61.3453
21.7769
8.4205
4.46291
3.74836
4.36498
6.03229
9.43562
16.7219
33.0872
70.2648
153.248
330.587
234.765
95.7163
40.4709
19.7773
13.0036
12.0207
14.1006
18.8808
27.5614
43.6788
75.0691
138.699
269.42
530.983
2829.93
2137.58
1640.73
1299.47
1086.66
1006.39
1068.06
1297.16
1715.18
2297.71
3029.95
3913.21
5034.46
6628.67
1452.13
1039.12
786.506
609.439
489.021
424.473
419.273
486.935
648.788
921.361
1316.51
1848.84
2581.39
3675.58
788.393
500.181
362.955
274.524
213.351
176.25
164.264
182.458
242.301
360.402
555.776
851.817
1301.87
2022.42
450.477
242.262
162.194
118.113
88.934
70.564
62.8665
67.4201
89.484
139.212
232.505
392.95
665.641
1143.04
263.732
118.776
70.6812
48.5296
35.1935
26.9327
23.187
24.3617
32.8146
54.1632
99.3397
187.81
356.906
684.334
154.858
59.1749
30.3409
19.0955
13.1906
9.74277
8.17955
8.59
12.1085
21.898
45.1266
96.6275
206.803
440.761
92.1677
30.7627
13.2314
7.30836
4.69971
3.33556
2.75707
2.98602
4.64297
9.63264
22.7625
55.1526
131.295
304.893
59.7493
18.2284
6.45788
2.89842
1.63261
1.08913
0.897266
1.0616
1.96934
4.87504
13.1913
35.4271
91.3894
225.312
46.9004
13.9734
4.2295
1.43277
0.617064
0.358178
0.30044
0.432166
1.02888
3.01724
9.03709
25.9606
70.3355
179.589
47.7644
14.5717
4.12992
1.14019
0.356338
0.168421
0.156556
0.287671
0.796136
2.4879
7.68531
22.5039
61.8367
159.432
58.7839
18.4767
5.25663
1.427
0.454381
0.26126
0.294706
0.500928
1.13816
3.08335
8.79369
24.5995
65.6771
165.732
79.6699
25.9856
7.82751
2.44268
1.07229
0.863366
1.04653
1.55509
2.7609
5.86085
14.0257
35.0305
86.7827
207.212
111.854
38.9687
13.3554
5.33952
3.21888
3.04886
3.73377
5.21844
8.14033
14.4042
28.7297
62.0537
138.34
304.867
162.876
64.6136
27.0593
13.8385
10.0177
10.0494
12.2538
16.6019
24.2318
38.3235
66.0693
123.458
244.276
491.119
1021.95
1331.58
1804.84
2444.07
3254.45
4333.06
5896.94
394.481
512.47
730.247
1068.12
1545.43
2232.67
3280.6
150.906
194.541
288.678
454.508
717.563
1133.87
1816.84
56.4629
72.8121
112.835
192.248
334.817
586.158
1039.38
20.5317
26.9927
44.5148
83.4386
162.704
319.573
633.186
7.2575
10.0645
18.3226
38.7303
85.5728
189.04
415.644
2.52729
3.9109
8.25001
20.0514
50.039
122.553
292.592
0.902526
1.68963
4.28477
11.9152
32.8411
86.8373
219.316
25.0657
7.56479
2.42038
0.929528
0.464561
0.29562
0.25551
0.370105
0.898684
2.703
8.29847
24.399
67.6003
176.343
28.1883
8.25154
2.25218
0.631525
0.22459
0.12792
0.130862
0.246252
0.696207
2.23058
7.06448
21.1821
59.5188
156.645
37.2695
10.9443
2.89512
0.764549
0.276365
0.2001
0.248535
0.428786
0.984504
2.72517
7.98029
22.9167
62.6789
161.566
52.7176
15.9718
4.50306
1.42799
0.745744
0.707296
0.902914
1.34997
2.39584
5.1373
12.5585
32.1841
81.7769
199.614
76.6055
25.142
8.34049
3.55496
2.47894
2.58944
3.27666
4.60423
7.16425
12.7033
25.654
56.574
129.201
291.066
116.044
44.6794
18.6834
10.201
8.14996
8.72926
10.921
14.8834
21.6804
34.2517
59.3687
112.501
227.179
466.435
154784
266081
418815
588530
746392
862612
88447.2
171551
301986
482570
706518
931855
58113.4
121371
238441
427771
706385
1.03902e+06
41471
93204.5
199668
395763
720969
1.15139e+06
33461.8
80403.6
184424
394213
764766
1.25518e+06
30083.2
75705.4
183991
419519
847088
1.32667e+06
29773.6
76891
194294
462058
946156
1.3408e+06
31025
80390.7
206947
500525
993098
1.27451e+06
33612.8
85266.3
217055
517273
963565
1.15917e+06
35828.2
86654.9
213330
505512
873328
1.02191e+06
37040.6
82561
197674
477021
774799
890288
36879
76459.8
186722
441361
682155
773406
37688.5
75008.4
182098
407039
598120
683345
45829.5
96863.8
212962
380752
498093
594473
71669.5
139039
241990
384125
568888
817231
45264.6
91808.5
175965
314650
527880
843946
30997.1
68418.4
143615
286423
536824
938198
23119.7
54994.5
125626
275949
571661
1.0885e+06
19635.8
49907.1
122801
290091
641282
1.26654e+06
18699.8
49470.7
127859
319170
735340
1.41769e+06
19537.3
52409.6
138955
357348
835759
1.49157e+06
21204.7
56048.6
148557
385898
893716
1.44785e+06
23393.8
59584.3
154443
394468
878952
1.31555e+06
25357.8
60779.2
150672
373390
798275
1.14128e+06
26702.2
58716.1
137239
337941
695119
968831
27490
55217.1
124669
301748
586255
802065
28402
53334.5
114258
268961
488345
651968
32739.6
59358.2
122266
243299
384578
509627
27046.8
55784.2
106995
190013
317756
519752
19266.2
40839.4
82439
159670
299263
546682
14309.7
32790.5
72315
154036
319817
632859
11643
28782.1
68977.7
160787
366554
786450
10814.1
28530.2
73307
183404
444446
1.00411e+06
11249.6
30801.5
82531.1
216167
542459
1.2274e+06
12611.7
34756.4
94460.5
252500
639242
1.38102e+06
14423.3
38730.4
103780
277169
696451
1.40481e+06
16404.6
41956.1
108785
284568
693954
1.30297e+06
18204.2
43482.4
107012
268893
631046
1.11848e+06
19615.4
42900.5
98801.9
238419
539934
916082
20767.8
41227.9
88696.8
204302
439710
713935
21941.3
40160.5
81194.5
176765
351994
539944
24866.4
42540.6
79941.9
153135
262973
386627
12827.1
25787.3
50438.3
95589.4
175858
323286
9663.97
20150
41573.8
84776.3
173240
354508
7525.26
16989.7
38159.5
85151.9
192239
430495
6502.4
16022
39252
95693.3
235703
562487
6385.26
16982.3
44658
116466
303277
748379
7040.46
19647.6
53964
146477
388877
953196
8307.15
23424.1
65118.1
178906
472276
1.12078e+06
9908.96
27195.2
74081.9
201200
524211
1.19061e+06
11661.3
30347.5
79327.1
209376
530007
1.13971e+06
13314.5
32158
79090.2
198893
485001
988382
14735
32433.9
74096.5
176786
413837
800743
15991.2
31828.6
66915.5
149692
329754
608425
17308.7
31269.1
61272.9
127859
256059
440526
19616.9
32642.1
58521.6
108280
187486
299635
8171.1
15379.5
28856.8
54420.6
104208
205770
6266.95
12314.4
24655.3
50464.4
107044
233760
4922.27
10521
23084
52098.7
123344
300445
4280.04
10144.9
24668.9
61578.5
160401
417561
4181.12
10940.6
29116.9
78812.3
218395
582508
4631.66
13057.1
36903.2
104602
293688
766498
5578.15
16174.4
46620.4
133336
367654
919088
6878.44
19523.7
54984.3
153579
411499
978214
8388.54
22509.2
60318.5
161676
417160
941416
9870.01
24418.9
60917.2
153749
378642
813685
11229.2
25141.9
57626.1
136233
319074
652530
12483.5
25093.6
52452.8
115023
251286
488014
13829.7
24959.9
47939.2
97188
192225
347902
15900
26086.8
45579
82147.6
141156
232231
6431.05
11385.2
20082.2
36013.4
67341.7
135032
4920.33
9093.66
17121.4
33485.9
69541.4
153687
3826.91
7660.25
15803.1
34346.9
80601.8
202143
3228.64
7175.76
16630.9
40817
107831
297265
3012.74
7516.77
19616.8
53598.1
154263
442141
3211.77
8902.87
25424.6
74100.1
217436
607141
3822.06
11210.5
33213.8
98309.4
282664
747255
4792.33
13961.1
40514.1
116504
322479
801159
6026.98
16618.4
45633.5
124773
329538
772341
7299.08
18467.9
46846.8
119417
297633
661459
8561.27
19488
44975
105921
247713
522960
9803.76
19886
41413.1
89305.7
192370
386005
11193.5
20252.1
38210.1
75565.3
146815
273331
13212.9
21499.6
36859.5
65154.5
111097
184556
5645.56
9676.01
16370.1
27920.4
49619.7
96120.4
4286.1
7672.9
13790.1
25499
50259.1
107829
3308.49
6354.88
12383.7
25317.1
56573.6
138865
2714.84
5716.31
12438.9
28934.6
74216.9
204894
2415.44
5686.64
14084.1
37386.7
106863
314152
2438.6
6460.63
17959.5
52084.4
154785
449609
2793.28
8023.68
23670.5
70708.6
208410
576440
3477.94
10133
29653.2
86466.7
245243
634532
4449.49
12381.5
34404.8
95382
257072
622543
5528.78
14129.5
36241.7
93421.8
236101
537083
6685.57
15340.6
35617.7
84040.3
196724
423110
7891.95
16067.3
33395
71372.6
152674
311591
9302.26
16831.9
31370.6
60909.9
117645
221829
11325.8
18344.3
30948.8
53944
91958
154056
3969.64
7065.59
12470.2
22291.2