/*--------------------------------*- C++ -*----------------------------------*\
| =========                 |                                                 |
| \\      /  F ield         | OpenFOAM: The Open Source CFD Toolbox           |
|  \\    /   O peration     | Version:  v2106                                 |
|   \\  /    A nd           | Website:  www.openfoam.com                      |
|    \\/     M anipulation  |                                                 |
\*---------------------------------------------------------------------------*/
FoamFile
{
    version     2.0;
    format      ascii;
    arch        "LSB;label=32;scalar=64";
    class       volScalarField;
    location    "0.000213";
    object      T;
}
// * * * * * * * * * * * * * * * * * * * * * * * * * * * * * * * * * * * * * //

dimensions      [0 0 0 1 0 0 0];

internalField   nonuniform List<scalar> 
18273
(
288.631
288.631
288.633
288.748
288.848
288.946
289
289.013
288.971
288.895
288.73
288.562
288.392
288.405
288.676
288.844
288.917
289.077
289.187
289.275
289.327
289.352
289.333
289.251
289.1
288.889
288.67
288.571
288.814
289.035
289.166
289.344
289.463
289.55
289.603
289.631
289.623
289.557
289.42
289.21
288.943
288.693
288.962
289.202
289.361
289.54
289.657
289.739
289.792
289.827
289.836
289.804
289.704
289.515
289.249
288.934
289.082
289.34
289.521
289.68
289.775
289.832
289.873
289.916
289.944
289.943
289.897
289.763
289.522
289.189
289.143
289.432
289.632
289.765
289.827
289.864
289.896
289.932
289.972
289.992
289.976
289.898
289.711
289.388
289.169
289.48
289.681
289.787
289.826
289.853
289.877
289.91
289.947
289.975
289.979
289.933
289.787
289.489
289.183
289.502
289.692
289.774
289.802
289.818
289.837
289.864
289.897
289.927
289.941
289.908
289.779
289.506
289.177
289.494
289.67
289.735
289.757
289.768
289.783
289.807
289.835
289.857
289.868
289.841
289.731
289.478
289.126
289.444
289.616
289.677
289.702
289.716
289.735
289.76
289.783
289.792
289.783
289.736
289.621
289.378
289.016
289.353
289.523
289.6
289.638
289.663
289.69
289.714
289.728
289.723
289.692
289.609
289.462
289.21
288.869
289.198
289.39
289.492
289.555
289.598
289.635
289.659
289.665
289.643
289.579
289.452
289.27
288.999
288.753
289.021
289.212
289.345
289.437
289.503
289.548
289.568
289.563
289.517
289.415
289.235
289.032
288.787
288.633
288.777
288.971
289.134
289.258
289.341
289.39
289.407
289.387
289.313
289.176
288.993
288.842
288.708
288.805
288.995
289.014
289.085
289.169
289.254
289.3
289.315
289.302
289.273
289.18
289.081
288.984
289.094
288.815
289.112
289.273
289.409
289.497
289.564
289.612
289.646
289.662
289.65
289.594
289.49
289.349
289.353
288.959
289.281
289.489
289.663
289.766
289.818
289.855
289.887
289.912
289.918
289.887
289.8
289.634
289.498
289.097
289.42
289.65
289.836
289.947
289.994
290.021
290.046
290.074
290.078
290.074
290.03
289.917
289.743
289.212
289.534
289.773
289.952
290.051
290.102
290.13
290.149
290.164
290.177
290.18
290.17
290.119
289.983
289.306
289.629
289.863
290.021
290.096
290.141
290.173
290.203
290.229
290.246
290.252
290.256
290.234
290.147
289.38
289.71
289.914
290.042
290.096
290.137
290.174
290.216
290.258
290.288
290.309
290.304
290.287
290.216
289.448
289.769
289.95
290.052
290.096
290.131
290.168
290.216
290.273
290.318
290.34
290.334
290.298
290.222
289.494
289.801
289.963
290.047
290.086
290.117
290.154
290.209
290.276
290.337
290.364
290.354
290.304
290.207
289.505
289.808
289.968
290.043
290.081
290.115
290.159
290.22
290.291
290.352
290.376
290.366
290.3
290.181
289.482
289.778
289.944
290.02
290.067
290.111
290.165
290.233
290.301
290.355
290.368
290.366
290.291
290.156
289.415
289.702
289.874
289.974
290.046
290.108
290.173
290.243
290.304
290.343
290.346
290.33
290.253
290.1
289.341
289.571
289.751
289.879
289.985
290.072
290.149
290.218
290.27
290.295
290.284
290.239
290.161
290.005
289.174
289.352
289.574
289.739
289.874
289.988
290.079
290.145
290.179
290.181
290.151
290.088
290.029
289.919
288.92
289.265
289.361
289.458
289.526
289.584
289.606
289.615
289.602
289.59
289.58
289.57
289.524
289.686
289.132
289.525
289.713
289.838
289.904
289.944
289.96
289.973
289.984
290.004
290.03
290.047
290.01
290.095
289.465
289.791
290.004
290.148
290.218
290.252
290.266
290.28
290.296
290.314
290.345
290.351
290.31
290.334
289.691
289.982
290.199
290.348
290.419
290.453
290.468
290.486
290.513
290.551
290.589
290.606
290.583
290.584
289.856
290.133
290.348
290.484
290.554
290.59
290.614
290.639
290.676
290.721
290.771
290.801
290.809
290.806
290.009
290.275
290.471
290.588
290.65
290.685
290.714
290.749
290.795
290.85
290.911
290.961
290.989
290.983
290.162
290.408
290.577
290.674
290.726
290.76
290.794
290.839
290.895
290.959
291.03
291.091
291.127
291.118
290.338
290.562
290.7
290.774
290.811
290.84
290.874
290.925
290.99
291.065
291.141
291.205
291.239
291.225
290.485
290.697
290.816
290.872
290.897
290.923
290.958
291.014
291.088
291.175
291.256
291.32
291.347
291.328
290.629
290.825
290.928
290.974
290.994
291.021
291.06
291.121
291.2
291.294
291.379
291.442
291.466
291.439
290.727
290.917
291.018
291.063
291.088
291.121
291.171
291.242
291.327
291.423
291.507
291.571
291.599
291.563
290.787
290.951
291.061
291.129
291.181
291.234
291.297
291.377
291.466
291.559
291.635
291.689
291.715
291.667
290.83
290.954
291.053
291.141
291.228
291.311
291.394
291.487
291.579
291.666
291.73
291.771
291.799
291.765
290.73
290.909
291.022
291.146
291.251
291.361
291.466
291.564
291.648
291.719
291.763
291.772
291.82
291.776
288.459
288.272
287.642
287.192
286.773
287.189
287.987
287.739
287.21
287.024
286.76
287.02
288.224
287.904
287.382
287.218
286.905
287.286
288.482
288.072
287.538
287.368
287.085
287.409
288.745
288.273
287.738
287.56
287.234
287.701
288.931
288.426
287.863
287.657
287.319
287.904
289.026
288.514
287.94
287.697
287.353
287.905
289.05
288.525
287.93
287.641
287.28
287.782
289.041
288.539
287.901
287.517
287.089
287.657
288.959
288.456
287.794
287.386
286.924
287.218
288.806
288.317
287.66
287.22
286.807
286.899
288.596
288.083
287.429
286.962
286.603
286.701
288.45
288.017
287.426
286.926
286.568
286.692
288.155
287.772
287.168
286.74
286.437
286.444
289.241
288.989
288.357
287.856
287.379
287.692
288.833
288.532
287.916
287.671
287.351
287.648
289.083
288.747
288.179
288.024
287.704
287.978
289.372
289
288.485
288.337
288.083
288.11
289.66
289.293
288.818
288.65
288.401
288.389
289.872
289.514
289.052
288.815
288.57
288.575
289.984
289.642
289.177
288.886
288.633
288.622
290.012
289.683
289.213
288.84
288.572
288.561
289.997
289.665
289.188
288.745
288.425
288.387
289.955
289.613
289.108
288.593
288.212
288.151
289.916
289.558
289.047
288.496
288.086
288.003
289.88
289.503
288.982
288.403
287.991
287.881
289.829
289.465
288.95
288.387
287.983
287.878
289.598
289.25
288.711
288.143
287.803
287.678
289.957
289.673
289.133
288.591
288.146
288.118
289.719
289.425
288.826
288.543
288.254
288.36
290.001
289.672
289.122
288.896
288.639
288.782
290.315
290.003
289.523
289.284
289.047
289.181
290.606
290.335
289.924
289.656
289.4
289.403
290.845
290.604
290.233
289.912
289.591
289.463
291.029
290.813
290.475
290.102
289.722
289.461
291.168
290.971
290.665
290.246
289.819
289.458
291.282
291.102
290.822
290.375
289.896
289.405
291.397
291.223
290.957
290.508
289.976
289.386
291.528
291.362
291.111
290.684
290.115
289.471
291.64
291.491
291.26
290.848
290.25
289.604
291.736
291.594
291.375
290.963
290.383
289.729
291.677
291.513
291.247
290.81
290.226
289.678
288.585
288.335
287.662
287.145
286.728
286.858
288.331
288.004
287.309
286.89
286.498
286.455
288.505
288.056
287.33
286.903
286.51
286.564
288.718
288.175
287.41
286.866
286.468
286.458
288.918
288.36
287.612
287.004
286.619
286.611
289.035
288.5
287.81
287.215
286.843
286.806
289.08
288.587
287.987
287.488
287.21
287.269
289.087
288.633
288.134
287.747
287.569
287.661
289.053
288.639
288.224
287.926
287.821
287.968
288.988
288.608
288.249
287.975
287.885
288.018
288.899
288.531
288.177
287.906
287.799
287.925
288.774
288.398
288.003
287.71
287.532
287.613
288.586
288.201
287.741
287.426
287.216
287.362
288.144
287.709
287.242
286.986
286.825
286.992
289.897
289.655
289.074
288.489
288.067
288.015
289.717
289.451
288.871
288.328
287.902
287.771
289.799
289.484
288.901
288.345
287.944
287.844
289.887
289.548
288.974
288.375
287.969
287.79
289.956
289.607
289.064
288.469
288.132
287.986
289.977
289.628
289.122
288.586
288.339
288.237
289.953
289.611
289.164
288.756
288.648
288.617
289.894
289.565
289.197
288.939
288.927
288.915
289.804
289.49
289.207
289.045
289.094
289.077
289.697
289.388
289.168
289.036
289.071
289.001
289.585
289.268
289.069
288.873
288.799
288.683
289.444
289.097
288.849
288.529
288.286
288.093
289.237
288.855
288.509
288.108
287.801
287.689
288.775
288.36
287.952
287.578
287.31
287.166
291.896
291.846
291.692
291.233
290.613
289.967
291.775
291.727
291.611
291.185
290.613
289.943
291.781
291.724
291.601
291.212
290.719
289.982
291.753
291.71
291.609
291.247
290.812
290.029
291.724
291.683
291.57
291.217
290.831
289.964
291.657
291.613
291.494
291.163
290.779
289.83
291.565
291.505
291.395
291.083
290.692
289.592
291.446
291.384
291.29
290.974
290.508
289.205
291.323
291.269
291.165
290.792
290.193
288.686
291.207
291.149
291.023
290.497
289.697
288.008
291.106
290.99
290.831
290.046
288.987
287.167
291.034
290.769
290.501
289.408
288.134
286.256
290.977
290.483
290.007
288.72
287.4
285.749
290.526
289.824
289.163
287.904
286.74
285.261
287.944
287.437
287.622
287.593
287.798
288.125
287.974
287.759
287.99
288.142
288.4
288.675
287.817
287.646
287.893
288.121
288.456
288.744
288.381
287.731
288.021
288.239
288.546
288.814
288.755
287.907
288.159
288.299
288.538
288.837
288.589
288.224
288.339
288.364
288.526
288.834
288.405
288.088
288.206
288.246
288.454
288.808
288.117
287.799
287.903
288.004
288.333
288.764
287.554
287.263
287.381
287.611
288.137
288.684
287.056
286.787
286.934
287.261
287.938
288.578
286.641
286.41
286.619
287.016
287.77
288.437
286.743
286.47
286.689
287.029
287.752
288.304
286.79
286.6
286.828
287.119
287.782
288.212
287.209
287.048
287.296
287.628
288.094
288.437
287.168
286.814
287.076
287.321
287.737
288.24
287.238
287.049
287.441
287.921
288.429
288.854
287.245
287.084
287.536
288.061
288.536
288.924
287.723
287.447
287.915
288.318
288.641
288.975
288.074
287.861
288.221
288.479
288.683
288.987
288.341
288.124
288.359
288.545
288.704
289.007
288.328
288.094
288.271
288.442
288.649
289.012
288.144
287.931
288.058
288.255
288.568
289.03
287.724
287.543
287.671
287.976
288.456
289.036
287.323
287.203
287.371
287.77
288.376
289.027
286.996
286.94
287.178
287.667
288.338
288.991
287.059
287.008
287.27
287.711
288.356
288.925
287.081
287.116
287.437
287.873
288.468
288.889
287.437
287.596
287.971
288.425
288.809
289.092
284.665
285.317
285.847
286.6
287.357
288.226
284.638
285.567
286.347
287.417
288.239
289.091
284.413
285.667
286.634
287.817
288.504
289.29
284.791
286.231
287.211
288.283
288.773
289.426
285.307
286.858
287.773
288.67
289.019
289.528
285.986
287.425
288.193
288.926
289.251
289.669
286.436
287.716
288.362
289.035
289.416
289.83
286.69
287.856
288.47
289.137
289.583
290.007
286.689
287.754
288.438
289.172
289.705
290.149
286.574
287.63
288.424
289.251
289.857
290.305
286.343
287.442
288.379
289.333
289.978
290.422
286.058
287.26
288.368
289.43
290.088
290.511
285.746
287.053
288.25
289.495
290.206
290.602
285.611
287.104
288.417
289.733
290.404
290.749
287.067
286.703
287.03
287.191
287.558
287.812
286.986
286.75
287.153
287.491
287.929
288.238
287.065
286.733
287.124
287.425
287.898
288.278
287.269
286.861
287.269
287.53
287.998
288.383
287.604
287.103
287.473
287.637
288.095
288.509
287.98
287.457
287.773
287.835
288.219
288.564
288.242
287.711
287.967
287.962
288.289
288.618
288.293
287.831
288.042
288.036
288.337
288.64
288.217
287.829
287.995
288.017
288.297
288.59
288.141
287.743
287.94
287.955
288.218
288.497
287.954
287.6
287.807
287.809
288.098
288.386
288.061
287.614
287.794
287.762
288.081
288.29
287.939
287.514
287.712
287.664
288
288.15
288.275
287.812
288.06
288.244
288.587
288.683
287.222
287.042
287.26
287.517
287.905
288.315
287.121
286.903
287.326
287.799
288.304
288.767
287.06
286.741
287.196
287.657
288.216
288.727
287.201
286.79
287.267
287.679
288.238
288.752
287.446
286.932
287.389
287.723
288.293
288.818
287.783
287.225
287.631
287.864
288.377
288.867
288.047
287.5
287.844
288.02
288.467
288.906
288.122
287.705
287.982
288.137
288.518
288.905
288.056
287.713
287.966
288.12
288.485
288.86
287.929
287.648
287.915
288.041
288.403
288.768
287.674
287.489
287.741
287.849
288.269
288.661
287.724
287.328
287.582
287.713
288.218
288.587
287.47
287.039
287.366
287.588
288.14
288.501
287.607
287.278
287.688
288.135
288.673
288.918
287.321
287.228
287.408
287.85
288.387
288.905
286.999
286.826
287.355
288.046
288.642
289.243
286.513
286.557
287.15
287.866
288.512
289.125
286.651
286.609
287.219
287.871
288.503
289.091
286.945
286.791
287.371
287.918
288.52
289.099
287.352
287.101
287.594
288.034
288.569
289.109
287.627
287.399
287.806
288.167
288.633
289.131
287.775
287.616
287.94
288.238
288.658
289.139
287.691
287.577
287.905
288.209
288.638
289.12
287.564
287.438
287.757
288.061
288.534
289.041
287.091
286.972
287.322
287.755
288.339
288.92
286.667
286.546
286.937
287.497
288.185
288.795
285.876
286.129
286.671
287.391
288.124
288.685
285.625
286.04
286.871
287.86
288.511
289.018
289.411
289.673
289.788
289.889
289.937
289.957
289.961
289.95
289.931
289.923
289.934
289.978
289.982
290.099
289.608
289.896
290.053
290.181
290.241
290.269
290.277
290.278
290.287
290.313
290.357
290.424
290.473
290.587
289.875
290.121
290.274
290.394
290.453
290.482
290.495
290.506
290.533
290.579
290.648
290.727
290.796
290.887
290.094
290.304
290.437
290.54
290.595
290.625
290.647
290.673
290.72
290.789
290.874
290.968
291.048
291.141
290.284
290.453
290.569
290.651
290.699
290.73
290.759
290.797
290.86
290.942
291.041
291.148
291.248
291.356
290.474
290.601
290.694
290.757
290.795
290.823
290.856
290.905
290.978
291.071
291.181
291.303
291.424
291.546
290.672
290.768
290.838
290.881
290.904
290.925
290.957
291.011
291.089
291.189
291.308
291.444
291.581
291.719
290.899
290.968
291.01
291.027
291.03
291.041
291.071
291.126
291.205
291.31
291.438
291.588
291.735
291.886
291.116
291.167
291.187
291.183
291.171
291.174
291.2
291.254
291.335
291.447
291.583
291.744
291.895
292.056
291.345
291.376
291.374
291.354
291.331
291.33
291.354
291.407
291.491
291.61
291.752
291.922
292.076
292.237
291.532
291.558
291.549
291.524
291.505
291.508
291.534
291.59
291.679
291.804
291.952
292.126
292.28
292.431
291.773
291.756
291.731
291.706
291.697
291.708
291.745
291.81
291.908
292.038
292.186
292.362
292.51
292.647
291.954
291.923
291.878
291.862
291.874
291.906
291.966
292.051
292.163
292.299
292.441
292.611
292.748
292.891
292.175
292.151
292.113
292.104
292.12
292.157
292.225
292.319
292.435
292.574
292.709
292.881
292.991
293.173
289.812
289.996
290.12
290.205
290.238
290.238
290.22
290.178
290.132
290.101
290.089
290.109
290.129
290.195
289.971
290.147
290.288
290.401
290.453
290.469
290.463
290.446
290.437
290.447
290.483
290.547
290.596
290.687
290.18
290.339
290.464
290.565
290.617
290.638
290.642
290.642
290.654
290.687
290.744
290.826
290.912
291.025
290.415
290.53
290.624
290.704
290.748
290.77
290.783
290.799
290.832
290.89
290.971
291.077
291.188
291.313
290.635
290.719
290.785
290.839
290.871
290.892
290.91
290.938
290.988
291.059
291.155
291.271
291.403
291.554
290.853
290.913
290.953
290.985
291.003
291.019
291.041
291.078
291.138
291.219
291.324
291.454
291.601
291.762
291.08
291.122
291.138
291.149
291.151
291.16
291.182
291.225
291.29
291.377
291.489
291.628
291.786
291.954
291.322
291.342
291.337
291.326
291.313
291.315
291.336
291.382
291.449
291.542
291.661
291.808
291.975
292.145
291.568
291.567
291.545
291.515
291.489
291.486
291.506
291.552
291.621
291.719
291.846
292.001
292.171
292.341
291.807
291.789
291.751
291.71
291.68
291.674
291.694
291.74
291.813
291.918
292.052
292.213
292.385
292.55
292.019
291.993
291.952
291.908
291.882
291.879
291.902
291.952
292.031
292.143
292.284
292.447
292.616
292.772
292.229
292.193
292.154
292.118
292.105
292.11
292.141
292.198
292.285
292.403
292.546
292.708
292.871
293.018
292.37
292.354
292.333
292.319
292.328
292.35
292.399
292.472
292.571
292.696
292.837
292.995
293.144
293.295
292.6
292.593
292.588
292.587
292.605
292.636
292.693
292.774
292.879
293.009
293.145
293.298
293.425
293.593
290.144
290.222
290.317
290.389
290.417
290.402
290.36
290.301
290.245
290.197
290.168
290.175
290.173
290.204
290.34
290.415
290.494
290.557
290.585
290.583
290.561
290.526
290.498
290.493
290.522
290.575
290.614
290.671
290.566
290.614
290.672
290.717
290.738
290.739
290.728
290.711
290.703
290.72
290.766
290.837
290.911
291.017
290.821
290.834
290.859
290.881
290.89
290.89
290.884
290.881
290.891
290.925
290.989
291.085
291.19
291.313
291.071
291.067
291.06
291.058
291.053
291.049
291.046
291.052
291.074
291.119
291.192
291.301
291.426
291.578
291.324
291.305
291.273
291.249
291.231
291.221
291.22
291.232
291.263
291.316
291.396
291.512
291.658
291.825
291.579
291.546
291.493
291.452
291.423
291.408
291.408
291.425
291.462
291.521
291.607
291.729
291.883
292.06
291.836
291.79
291.723
291.668
291.628
291.608
291.608
291.628
291.669
291.733
291.827
291.954
292.118
292.293
292.091
292.032
291.953
291.887
291.84
291.817
291.817
291.84
291.887
291.957
292.059
292.192
292.361
292.529
292.344
292.275
292.187
292.114
292.064
292.04
292.042
292.068
292.12
292.198
292.308
292.445
292.616
292.776
292.585
292.51
292.419
292.344
292.295
292.273
292.28
292.312
292.372
292.46
292.577
292.715
292.884
293.031
292.822
292.746
292.661
292.592
292.549
292.534
292.547
292.585
292.654
292.748
292.87
293.004
293.171
293.302
293.042
292.972
292.902
292.843
292.813
292.807
292.832
292.884
292.964
293.067
293.19
293.323
293.48
293.603
293.302
293.236
293.179
293.128
293.106
293.11
293.143
293.204
293.292
293.397
293.52
293.648
293.796
293.905
290.435
290.418
290.48
290.512
290.515
290.484
290.427
290.356
290.291
290.22
290.173
290.145
290.14
290.155
290.681
290.669
290.684
290.695
290.69
290.665
290.62
290.563
290.515
290.486
290.487
290.516
290.551
290.596
290.937
290.914
290.903
290.891
290.873
290.844
290.804
290.759
290.726
290.715
290.731
290.781
290.845
290.929
291.206
291.158
291.121
291.089
291.058
291.025
290.988
290.954
290.935
290.933
290.964
291.037
291.129
291.242
291.467
291.403
291.343
291.293
291.25
291.214
291.179
291.154
291.146
291.154
291.193
291.277
291.385
291.522
291.724
291.647
291.568
291.503
291.451
291.413
291.382
291.364
291.363
291.379
291.426
291.519
291.644
291.799
291.981
291.891
291.796
291.721
291.663
291.622
291.595
291.584
291.588
291.611
291.665
291.764
291.902
292.064
292.242
292.139
292.032
291.949
291.884
291.842
291.816
291.811
291.82
291.849
291.913
292.018
292.166
292.323
292.506
292.392
292.273
292.182
292.112
292.069
292.047
292.046
292.061
292.098
292.169
292.278
292.427
292.575
292.772
292.649
292.521
292.425
292.351
292.308
292.289
292.292
292.315
292.361
292.439
292.548
292.698
292.835
293.029
292.904
292.772
292.673
292.6
292.559
292.546
292.556
292.588
292.642
292.726
292.832
292.976
293.097
293.282
293.165
293.035
292.938
292.869
292.832
292.824
292.841
292.882
292.944
293.034
293.132
293.269
293.372
293.526
293.42
293.302
293.212
293.153
293.126
293.13
293.156
293.205
293.274
293.366
293.457
293.581
293.667
293.768
293.687
293.582
293.5
293.454
293.438
293.451
293.488
293.545
293.613
293.704
293.784
293.895
293.97
290.708
290.632
290.633
290.614
290.595
290.551
290.485
290.398
290.311
290.218
290.136
290.083
290.063
290.073
291.006
290.928
290.885
290.84
290.799
290.745
290.681
290.601
290.525
290.462
290.421
290.43
290.454
290.495
291.267
291.187
291.124
291.062
291.008
290.948
290.881
290.808
290.738
290.695
290.672
290.698
290.753
290.827
291.528
291.434
291.355
291.281
291.216
291.154
291.087
291.019
290.958
290.922
290.925
290.966
291.045
291.146
291.768
291.665
291.575
291.494
291.424
291.36
291.296
291.235
291.187
291.167
291.175
291.227
291.317
291.44
292.009
291.899
291.798
291.71
291.635
291.571
291.511
291.458
291.423
291.416
291.432
291.492
291.595
291.733
292.266
292.144
292.028
291.933
291.853
291.789
291.733
291.689
291.666
291.665
291.691
291.76
291.871
292.015
292.533
292.399
292.269
292.166
292.08
292.016
291.962
291.926
291.912
291.917
291.951
292.028
292.147
292.285
292.804
292.662
292.517
292.407
292.316
292.251
292.2
292.171
292.163
292.173
292.212
292.294
292.415
292.543
293.073
292.926
292.771
292.656
292.56
292.496
292.448
292.426
292.424
292.44
292.486
292.566
292.686
292.804
293.329
293.184
293.026
292.911
292.816
292.756
292.715
292.698
292.7
292.72
292.77
292.843
292.961
293.065
293.573
293.439
293.286
293.174
293.086
293.032
292.999
292.99
292.997
293.022
293.076
293.139
293.253
293.338
293.809
293.687
293.55
293.449
293.374
293.332
293.31
293.308
293.318
293.347
293.401
293.458
293.562
293.624
294.031
293.932
293.817
293.73
293.673
293.644
293.635
293.64
293.655
293.684
293.736
293.789
293.877
293.923
290.996
290.894
290.837
290.774
290.726
290.662
290.583
290.477
290.365
290.247
290.135
290.047
289.996
289.984
291.299
291.193
291.11
291.023
290.949
290.868
290.783
290.678
290.569
290.468
290.39
290.368
290.374
290.401
291.542
291.435
291.342
291.248
291.166
291.08
290.989
290.886
290.781
290.695
290.641
290.638
290.671
290.726
291.779
291.662
291.56
291.462
291.374
291.286
291.195
291.097
291
290.929
290.896
290.909
290.967
291.053
292.003
291.875
291.766
291.666
291.576
291.489
291.401
291.31
291.227
291.171
291.154
291.181
291.252
291.355
292.237
292.101
291.981
291.874
291.779
291.691
291.606
291.523
291.456
291.421
291.42
291.455
291.536
291.652
292.494
292.347
292.212
292.095
291.991
291.9
291.817
291.743
291.691
291.674
291.683
291.726
291.815
291.935
292.765
292.609
292.456
292.327
292.212
292.119
292.036
291.971
291.932
291.927
291.944
291.996
292.091
292.207
293.037
292.875
292.707
292.57
292.447
292.351
292.269
292.211
292.181
292.182
292.203
292.259
292.355
292.462
293.299
293.137
292.961
292.819
292.692
292.597
292.518
292.466
292.442
292.446
292.471
292.529
292.623
292.72
293.546
293.39
293.215
293.076
292.952
292.863
292.787
292.74
292.719
292.723
292.75
292.804
292.894
292.975
293.781
293.636
293.469
293.339
293.225
293.144
293.076
293.035
293.017
293.021
293.05
293.105
293.19
293.242
294.007
293.876
293.731
293.618
293.522
293.452
293.392
293.354
293.336
293.338
293.368
293.42
293.498
293.515
294.221
294.113
293.998
293.903
293.826
293.768
293.72
293.687
293.67
293.67
293.7
293.748
293.813
293.818
291.228
291.124
291.041
290.946
290.864
290.777
290.69
290.579
290.462
290.332
290.204
290.091
290.025
289.984
291.517
291.407
291.307
291.194
291.093
290.989
290.886
290.772
290.652
290.533
290.432
290.374
290.352
290.363
291.749
291.629
291.523
291.407
291.303
291.196
291.088
290.97
290.851
290.742
290.66
290.626
290.634
290.667
291.981
291.845
291.729
291.609
291.501
291.392
291.282
291.167
291.055
290.959
290.9
290.883
290.917
290.973
292.206
292.055
291.927
291.805
291.692
291.582
291.473
291.364
291.263
291.184
291.144
291.146
291.19
291.267
292.441
292.282
292.14
292.007
291.884
291.77
291.662
291.561
291.474
291.415
291.395
291.412
291.464
291.551
292.693
292.529
292.371
292.223
292.088
291.967
291.859
291.765
291.691
291.652
291.648
291.675
291.735
291.824
292.957
292.789
292.613
292.452
292.302
292.175
292.066
291.98
291.919
291.897
291.903
291.939
292.005
292.091
293.217
293.048
292.86
292.69
292.531
292.401
292.293
292.212
292.161
292.147
292.159
292.2
292.269
292.347
293.465
293.299
293.107
292.934
292.772
292.644
292.538
292.465
292.42
292.41
292.426
292.469
292.539
292.603
293.701
293.541
293.354
293.188
293.032
292.91
292.809
292.739
292.695
292.685
292.702
292.745
292.811
292.853
293.927
293.778
293.601
293.449
293.307
293.195
293.1
293.034
292.992
292.983
293.001
293.044
293.105
293.122
294.15
294.023
293.867
293.736
293.61
293.506
293.415
293.349
293.306
293.294
293.312
293.351
293.406
293.397
294.379
294.268
294.141
294.026
293.917
293.823
293.739
293.676
293.635
293.621
293.639
293.676
293.723
293.713
290.68
290.569
290.446
290.325
290.204
290.123
290.067
290.859
290.739
290.62
290.517
290.441
290.395
290.388
291.04
290.918
290.804
290.713
290.658
290.644
290.66
291.22
291.101
290.998
290.924
290.889
290.901
290.929
291.398
291.287
291.199
291.147
291.126
291.15
291.195
291.576
291.479
291.409
291.378
291.372
291.404
291.459
291.764
291.68
291.627
291.61
291.621
291.659
291.719
291.968
291.897
291.86
291.853
291.874
291.919
291.98
293.329
293.15
292.946
292.75
292.567
292.413
292.288
292.195
292.132
292.105
292.103
292.129
292.181
292.235
293.556
293.38
293.174
292.98
292.798
292.649
292.53
292.446
292.389
292.367
292.367
292.396
292.45
292.492
293.777
293.61
293.41
293.226
293.053
292.912
292.8
292.721
292.666
292.643
292.64
292.67
292.723
292.741
293.996
293.84
293.651
293.482
293.323
293.195
293.091
293.017
292.963
292.939
292.936
292.966
293.016
293.012
294.228
294.096
293.925
293.773
293.627
293.504
293.403
293.328
293.272
293.245
293.242
293.265
293.311
293.292
294.486
294.36
294.211
294.068
293.933
293.816
293.717
293.644
293.593
293.569
293.569
293.59
293.628
293.617
289.511
289.194
288.677
287.935
287.269
286.546
289.227
288.777
288.2
287.589
287.138
286.653
289.325
288.795
288.205
287.651
287.293
286.865
289.426
288.865
288.276
287.753
287.391
286.933
289.498
288.949
288.401
287.943
287.632
287.038
289.543
289.018
288.53
288.109
287.79
287.015
289.565
289.056
288.601
288.172
287.766
286.783
289.558
289.032
288.562
288.038
287.472
286.381
289.531
288.969
288.455
287.82
287.164
286.019
289.507
288.922
288.341
287.595
286.903
285.692
289.496
288.913
288.292
287.446
286.703
285.467
289.518
288.91
288.269
287.339
286.677
285.58
289.637
289.036
288.517
287.697
287.166
286.278
289.526
289.002
288.453
287.935
287.781
287.327
289.879
289.752
289.449
288.983
288.33
287.683
289.723
289.498
289.135
288.726
288.229
287.842
289.819
289.512
289.115
288.74
288.317
288.006
289.874
289.499
289.048
288.628
288.22
287.916
289.892
289.473
288.975
288.528
288.168
287.872
289.879
289.432
288.916
288.447
288.066
287.688
289.858
289.393
288.887
288.402
287.95
287.377
289.823
289.334
288.818
288.244
287.616
286.806
289.779
289.253
288.707
288.02
287.231
286.254
289.737
289.177
288.6
287.844
286.96
285.911
289.716
289.162
288.579
287.811
286.887
285.816
289.696
289.147
288.544
287.775
286.972
286.041
289.78
289.267
288.779
288.121
287.425
286.677
289.705
289.288
288.792
288.323
287.927
287.511
290.149
290.082
289.949
289.678
289.203
288.585
290.041
289.879
289.64
289.366
289.062
288.581
290.123
289.93
289.71
289.458
289.117
288.673
290.165
289.936
289.657
289.349
288.959
288.495
290.174
289.902
289.548
289.16
288.733
288.245
290.13
289.803
289.378
288.935
288.495
287.974
290.064
289.698
289.246
288.772
288.302
287.634
289.996
289.593
289.12
288.571
287.964
287.063
289.946
289.5
289
288.353
287.594
286.547
289.896
289.405
288.881
288.162
287.337
286.274
289.861
289.35
288.837
288.12
287.273
286.248
289.822
289.314
288.802
288.113
287.371
286.503
289.882
289.416
288.975
288.393
287.73
287.009
289.788
289.417
289.004
288.557
288.161
287.734
290.353
290.291
290.232
290.065
289.724
289.214
290.24
290.108
289.933
289.749
289.512
289.067
290.314
290.175
289.987
289.749
289.424
288.974
290.33
290.163
289.933
289.656
289.29
288.758
290.313
290.119
289.839
289.493
289.041
288.376
290.251
290.015
289.668
289.257
288.727
287.954
290.166
289.89
289.489
289.028
288.462
287.627
290.079
289.761
289.32
288.812
288.173
287.227
290
289.633
289.175
288.607
287.882
286.843
289.938
289.519
289.037
288.405
287.658
286.637
289.886
289.429
288.952
288.322
287.565
286.583
289.847
289.385
288.914
288.301
287.609
286.758
289.892
289.461
289.043
288.497
287.834
287.082
289.789
289.429
289.025
288.554
288.102
287.616
290.596
290.532
290.489
290.443
290.2
289.832
290.445
290.327
290.197
290.097
289.898
289.564
290.462
290.328
290.182
290.006
289.731
289.311
290.44
290.286
290.105
289.876
289.556
289.053
290.41
290.235
290.013
289.717
289.301
288.649
290.346
290.141
289.863
289.5
288.97
288.14
290.256
290.021
289.686
289.265
288.651
287.702
290.146
289.876
289.486
289.014
288.329
287.302
290.049
289.729
289.305
288.784
288.054
287.02
289.94
289.573
289.118
288.548
287.846
286.898
289.87
289.453
289
288.429
287.741
286.852
289.817
289.379
288.949
288.391
287.767
287.004
289.841
289.425
289.043
288.54
287.937
287.251
289.729
289.386
289.016
288.555
288.126
287.65
290.874
290.806
290.768
290.737
290.628
290.423
290.695
290.568
290.452
290.387
290.249
290.011
290.644
290.495
290.358
290.247
290.014
289.633
290.578
290.411
290.25
290.101
289.809
289.341
290.529
290.353
290.162
289.936
289.588
289.024
290.456
290.263
290.031
289.727
289.297
288.572
290.365
290.151
289.875
289.51
288.971
288.096
290.245
289.999
289.665
289.238
288.59
287.613
290.126
289.849
289.469
288.985
288.275
287.291
289.99
289.663
289.237
288.711
288.022
287.144
289.894
289.523
289.081
288.539
287.871
287.061
289.804
289.385
288.956
288.431
287.85
287.181
289.762
289.359
289.006
288.546
288.003
287.403
289.641
289.315
288.986
288.581
288.194
287.77
291.116
291.043
291.012
290.998
290.939
290.834
290.938
290.819
290.712
290.668
290.554
290.365
290.852
290.704
290.566
290.47
290.262
289.919
290.745
290.573
290.408
290.281
290.007
289.572
290.662
290.478
290.296
290.125
289.797
289.28
290.568
290.374
290.169
289.931
289.554
288.927
290.475
290.27
290.03
289.733
289.281
288.533
290.36
290.134
289.844
289.473
288.903
288.05
290.242
289.997
289.655
289.217
288.566
287.682
290.103
289.807
289.419
288.931
288.279
287.482
289.991
289.66
289.257
288.734
288.083
287.312
289.876
289.485
289.062
288.525
287.949
287.311
289.799
289.39
289.01
288.558
288.031
287.466