/*--------------------------------*- C++ -*----------------------------------*\
| =========                 |                                                 |
| \\      /  F ield         | OpenFOAM: The Open Source CFD Toolbox           |
|  \\    /   O peration     | Version:  v2106                                 |
|   \\  /    A nd           | Website:  www.openfoam.com                      |
|    \\/     M anipulation  |                                                 |
\*---------------------------------------------------------------------------*/
FoamFile
{
    version     2.0;
    format      ascii;
    arch        "LSB;label=32;scalar=64";
    class       volScalarField;
    location    "0.000208";
    object      epsilon;
}
// * * * * * * * * * * * * * * * * * * * * * * * * * * * * * * * * * * * * * //

dimensions      [0 2 -3 0 0 0 0];

internalField   nonuniform List<scalar> 
144746
(
132929
91547.7
69661
60227.2
63913.8
77083.3
96471.4
115810
130155
139402
144994
162142
191534
218869
93124.5
58830.7
40176.5
29912.4
27481.4
30811.4
39486.8
51824.9
65253.7
76464.8
89075.3
103446
123982
161134
65149
40340.9
25805.2
17190.7
13722.5
13528.9
16676
22939.3
31524.6
40953.5
50347
64030.5
77114.6
114126
48145.7
28573.6
17560.3
10937.9
7725.28
6655.29
7554.32
10551.5
15576.8
21961.2
28578.9
34329.7
43893.5
75249.5
35849.4
20755.1
11951.2
6966.86
4473.62
3455.67
3590.96
5003.14
7886.89
12053.6
16800.2
21346.1
27540.1
49897.4
26460.8
14330.9
7630.69
4138.85
2459.34
1756.39
1717.29
2414.31
4093.42
6812.56
10243.3
13987.3
19028.1
36430.6
18616.9
9082.08
4403.16
2211.66
1231.96
837.638
808.834
1198.22
2223.8
4048.37
6590.88
9756.15
14674.2
33000.7
12392.8
5323.82
2309.97
1064.1
559.293
375.116
388.337
651.643
1340.39
2640.54
4620.74
7420.95
12785.6
34366.7
8302.51
3146.35
1204.47
499.438
248.041
174.925
219.006
434.581
963.376
1986.04
3671.82
6469.32
13223.5
39025.5
6660.22
2368.94
832.15
318.148
156.208
124.841
184.808
388.668
862.156
1794.74
3486.09
6901.88
16501
45418.4
7594.25
2936.62
1098.62
442.34
235.146
195.096
261.417
481.32
986.965
2023.89
4131.91
9222.08
22670
52212.3
12435.5
6017.94
2816.15
1266.75
651.996
476.459
525.177
794.713
1432.96
2804.78
5895.6
13917
31778.8
62091
22546
13252.9
7688.27
4122.49
2170.18
1363.49
1221.91
1535.78
2397.72
4294.2
8629.99
19372.7
40663.9
73151.3
38041.8
24999.2
16916.5
11039.5
6801.28
4276.99
3234.84
3290.48
4338.24
6859.34
12292.5
25299.7
49562.3
82062.2
135614
85349.2
60144
47203.4
44335.5
47115.3
53882.7
61068.4
66932.4
71811.3
84799.4
114029
167995
223628
80368.3
48450.2
32463.7
23965.5
20882.9
21237.2
24505.4
29425.2
35080.7
40643.3
47672.2
63437
93919.9
140093
44886.1
27659.4
18557.7
13115.9
10589.2
10059.6
11368.9
14218.3
18312.6
23122.8
28858
37271.3
53038.6
83946.8
27591.9
17317.5
11271.3
7611.37
5700.85
5004.88
5410.98
6914.43
9538.04
13103.5
17434.6
22706.3
29849.1
50003.5
19111.2
11536.5
7096.7
4500.41
3124.87
2539.18
2602.65
3360.28
4962.86
7426.76
10605.6
14456.8
19411.2
32082.1
13999.8
7752.85
4393.17
2578.46
1657.84
1255.82
1230.83
1619.4
2587.12
4246.39
6557.14
9500
13472.1
22342.6
10249.5
5048.36
2568.12
1375.56
819.23
585.492
562.953
780.291
1380.21
2505.04
4203.02
6540.87
9979.48
17936.9
7498.13
3217.21
1425.55
679.591
371.84
254.96
254.64
398.135
798.541
1598.17
2903.1
4856.42
8071.35
16322.6
5827.19
2181.8
822.544
334.542
162.918
110.198
127.765
243.265
547.766
1173.74
2266.36
4066.36
7437.61
16707.1
5454.29
1885.29
629.158
218.6
93.2667
65.1794
92.5973
202.284
475.208
1043.05
2097.1
4024.48
8083.16
18753.5
6443.53
2290.86
782.059
276.002
122.319
89.4721
121.245
241.535
534.323
1152.89
2368.03
4808.37
10048.6
22147.6
9951.92
4050.46
1636.14
666.472
317.626
221.498
247.531
398.512
769.053
1560.9
3185.62
6621.96
13582.5
28428.9
17096.8
8099.88
3980.4
1945.24
990.272
633.553
596.054
790.887
1297.83
2374.06
4617.69
9474.52
19976.7
39758.1
28983.1
15178.4
8626.6
5030.2
2919.16
1850.12
1513.14
1689.08
2369.96
3826.96
6816.84
13645.7
30039.9
56307.9
120732
73976.6
49531.4
36244.7
30636.6
29045.8
30455.2
33158.5
37128.5
40828
44667.4
52796.8
91587.9
168885
57202.5
36326.2
24116.8
17341.2
14293.8
13399.7
14140.8
15845.9
18474.9
21422.8
25063.2
31057.6
48083.3
90890.8
27771.8
17594.2
11733.2
8394.31
6775.27
6235.63
6564.23
7551.11
9226.38
11431.7
14412
18945
28666.5
49426.1
16549.1
9449.7
6025.56
4201.55
3289.21
2938.73
3047.39
3572.7
4606.51
6160.34
8391.81
11705.9
17591.5
28752.3
11158.7
5666.44
3314.58
2177.99
1619.98
1385.72
1400.26
1664.9
2284.63
3344.94
4952.43
7357.17
11271.2
18508.6
8009.04
3644.12
1900.95
1138.21
786.971
637.739
626.279
759.569
1126.51
1832.08
2981.13
4754.52
7573.18
12847.6
6023.04
2462.13
1114.82
584.742
365.977
278.684
268.809
342.158
565.38
1036.74
1866.5
3218.84
5432.99
9616.03
5014.33
1837.98
701.457
304.171
163.518
114.891
112.327
160.667
309.015
641.646
1269.3
2355.87
4228.25
7851.81
4652.74
1561.83
509.976
176.657
75.4124
47.1566
50.512
90.1856
205.151
468.522
989.79
1941.09
3667.63
7097.26
5024.88
1616.74
484.841
142.922
48.0474
26.0762
32.6763
71.8067
178.73
422.889
917.557
1850.91
3604.55
7121.28
5969.55
1930.14
588.035
177.12
60.9089
33.888
41.5936
86.1118
204.155
470.978
1014.34
2047.65
3991.07
7867.74
8428.16
2890.11
980.481
345.404
141.717
85.2791
89.3968
147.041
298.824
634.615
1308.37
2572.66
4893.78
9563.83
12691.8
4755.31
1894.23
813.595
392.438
245.895
229.247
308.153
520.389
975.583
1874.63
3574.48
6792.09
12987.7
20180.1
8109.51
3683.44
1868.79
1034.87
677.947
592.061
695.225
1005.84
1654.95
2922.16
5497.1
11426.9
23319.9
257382
309671
334792
372909
631351
2.60384e+06
210950
284464
322853
336664
511056
2.0845e+06
178316
278275
328752
321418
433048
1.76754e+06
150124
279148
340819
311976
383016
1.57519e+06
128195
278388
344160
302952
344100
1.46807e+06
112674
271845
332654
292449
321925
1.42196e+06
109238
249039
305588
281971
319990
1.42516e+06
108622
218077
271266
274560
333029
1.4694e+06
102271
181561
237714
267651
348936
1.55612e+06
92824
149008
207385
259907
365586
1.67551e+06
85886.8
127593
184548
251278
385200
1.8415e+06
86069.9
119829
171522
242917
406009
2.0668e+06
90404
120344
167656
237940
423845
2.31022e+06
95005.8
125377
171146
241482
459657
2.70154e+06
285886
364363
400689
408626
546132
2.07656e+06
189189
273033
345846
371583
457989
1.65848e+06
131951
222701
322509
359925
405375
1.39583e+06
92333.7
187371
309909
357179
374681
1.22913e+06
68404.5
163222
298802
353189
356867
1.1277e+06
52963.1
147102
285403
342479
352541
1.07526e+06
46419.1
133022
264262
323438
352824
1.07947e+06
44787.1
121737
235493
304440
363503
1.13506e+06
43833.6
106945
203994
288450
382220
1.22875e+06
42789.2
91253.9
175167
274345
405027
1.34817e+06
42810.5
80469.9
154130
260847
428389
1.48704e+06
47156.7
79781.5
145526
250741
445833
1.64165e+06
57374.2
88842.1
148621
245463
456913
1.82269e+06
69132.5
102699
158811
243836
464413
2.08834e+06
269744
392936
477081
478159
535625
1.45382e+06
149670
237550
331411
391076
465547
1.16159e+06
85937.5
154459
248889
337745
427975
974099
50620.1
105531
196276
305392
413711
851013
33982.7
77242.2
163280
280680
395217
779106
24565.1
60220.4
144898
264701
380088
749555
19282.5
49607.1
133790
250521
367438
768896
16565
44716.4
123317
233742
372467
833291
15533.5
41994.5
110810
218609
392782
925040
15385.8
38480.4
96913.3
206631
417449
1.02395e+06
15715.4
34985.9
86011.4
197303
434299
1.11726e+06
17281
34650.3
82257.4
191920
440066
1.20469e+06
22664
41270.8
88177.9
192950
443859
1.29934e+06
30835.4
53378.1
102740
200003
441003
1.4087e+06
94731.4
129076
179004
261121
537238
2.82811e+06
57782
86176.2
134588
207520
405935
2.13024e+06
33092.8
57176
105696
176110
333947
1.68365e+06
18923.9
39044
87362.5
157507
297167
1.39196e+06
12966.8
30880.3
76761.9
143242
260923
1.21522e+06
10223.8
28905.7
73485.8
133159
235031
1.12823e+06
9748.17
29711.3
72588
126312
226889
1.11449e+06
11012.6
31798.4
71233.3
120568
233551
1.18722e+06
13642.7
33462.3
67582.2
115664
255884
1.33138e+06
17170
34245.9
62987
114433
297347
1.53674e+06
21121.1
35173.3
60914.3
121216
355822
1.79986e+06
25879.7
38827.4
66611.2
142451
433586
2.12602e+06
33002
48924.4
86569.6
186916
555612
2.54196e+06
44584.2
70132.6
128514
268135
755574
3.11157e+06
76400.4
113246
165250
247437
473035
2.10523e+06
40386.3
65441.3
109095
183369
352025
1.54807e+06
20036.5
36988.1
73331.2
142796
292192
1.1887e+06
11113.4
21730.1
51588.3
115591
250263
953133
7228.98
15845.5
40692.9
96563.9
216292
806755
5245.81
13265.7
36348.5
86019.6
196302
733319
4463.69
12581.4
34895
80108.9
187580
726853
4606.57
13113.4
34691.3
77138.2
192164
786990
5586.71
14216.4
34429
77197.5
217812
914977
7340.91
15570.2
34416.9
83054.8
266909
1.10657e+06
9818.67
17636.3
37288.2
99690.9
338543
1.35584e+06
13506.6
22327.1
47715.7
133214
433387
1.6641e+06
20208.1
33903.5
73411
191670
561474
2.04368e+06
33450.5
59776.5
125089
287093
742996
2.5319e+06
38165
66663.8
115781
209100
439306
1.30094e+06
19419.4
36031.4
69420.4
139718
308856
917927
9212.91
19098.1
41978.9
96511.3
228640
676328
5287.99
10732.2
26054.4
68362.8
176144
525346
3372.08
7398.67
18686.9
51813.6
142687
434111
2336.9
5603.11
14950.8
42914.2
123352
391581
1824.16
4712.32
13204.9
38770
117003
394605
1675.18
4436.23
12753.9
38383.7
126848
449419
1863.77
4685.73
13439
43343.8
159094
567748
2427.58
5482.09
15843.2
57315.4
218612
758235
3460.48
7231.37
22073.5
85446.8
306576
1.01735e+06
5349.69
11214.7
35533.9
131678
417706
1.33304e+06
9642.12
21113.4
63271.8
201341
543594
1.69148e+06
21086.7
46710.3
117240
297633
682944
2.09325e+06
2.93298e+06
804160
434033
299423
205667
148365
2.4683e+06
703600
354793
228232
150303
109598
2.15337e+06
618973
302072
180421
111982
79662.4
1.93198e+06
552866
269818
155892
92416.3
62484.4
1.73871e+06
490194
253549
148282
84773.3
52154.9
1.58735e+06
451330
247181
147089
80302.2
44370.1
1.49488e+06
447987
245120
144729
74438.8
36271.1
1.47464e+06
471411
244610
135362
64169.8
27785.5
1.5255e+06
516604
244428
121803
52959.9
20934.5
1.64123e+06
579630
246912
111673
46022.7
17657.8
1.83088e+06
655724
261577
113389
47040.3
18917
2.11589e+06
738765
286731
128348
57727.2
26256.7
2.53767e+06
831994
325756
154921
77277.8
40425.9
3.19178e+06
980018
386050
195454
107453
62621
2.47065e+06
929902
520626
351880
227727
150691
2.08391e+06
827151
439618
265142
152726
96084.4
1.80242e+06
740098
381695
203197
103170
59691.4
1.59593e+06
676560
339822
168002
78235.5
40787.4
1.44142e+06
623067
306110
144817
64957.8
31797.2
1.32954e+06
581423
275185
130402
57336.1
26102
1.25919e+06
554886
252853
117053
50184.2
21390.3
1.24281e+06
549299
239083
105686
43839
17517.1
1.27838e+06
569112
235774
99356.3
39723.8
15034.8
1.37264e+06
611550
244680
100509
39799.9
14822.3
1.53e+06
671310
267333
110939
44811.2
17233.1
1.76349e+06
741778
302798
132874
57692.4
24301
2.09695e+06
832718
348235
163061
77573.2
36983
2.59836e+06
967355
417484
208251
108459
57696.2
2.02648e+06
931819
611064
395124
232530
128486
1.7505e+06
847415
529718
293710
146142
70759.4
1.53702e+06
779591
471181
225450
98195.3
45095.8
1.37795e+06
733035
415615
185831
77831.5
33147.2
1.2561e+06
689723
362490
156069
62746.5
24992.8
1.15719e+06
643181
312166
130001
50691.5
19206.7
1.08466e+06
593543
268868
108994
41654.9
15271.3
1.04887e+06
557438
242028
97273.4
37128.9
13397.2
1.0587e+06
545615
233255
94541.9
36332.7
13012.5
1.12187e+06
561928
242913
101112
39715.4
14397.4
1.24049e+06
602228
267421
114769
46165.5
17218.4
1.42098e+06
647064
305426
138480
58882.4
23473.7
1.68314e+06
723354
352417
167621
76282.5
33367.9
2.07443e+06
838655
422978
212066
104455
50489.5
2.47244e+06
516632
341966
313862
281291
237222
2.08257e+06
446430
320666
291005
251270
212917
1.82334e+06
400990
302977
271381
225976
186703
1.65447e+06
370132
289969
260253
213464
175097
1.55281e+06
351190
281545
262109
223585
181500
1.50272e+06
338418
278702
278963
255528
200267
1.48993e+06
331510
285110
313404
298313
213476
1.50191e+06
341870
309090
357701
327280
205276
1.53544e+06
369682
347859
392087
323359
178542
1.61467e+06
409781
384759
391178
286491
147917
1.76578e+06
482376
411128
362648
243474
127334
2.01431e+06
599374
426691
334493
221284
126939
2.39734e+06
714296
462745
342723
231634
146794
3.00427e+06
889985
522133
384092
276282
192723
1.98197e+06
496011
416986
404485
336936
255974
1.67108e+06
466286
418645
376842
283916
209652
1.46437e+06
443422
411432
346899
234170
157346
1.33109e+06
426044
404197
329874
207048
131170
1.25311e+06
411662
400198
331099
209474
121854
1.21855e+06
400945
400502
349932
224327
121620
1.21463e+06
396015
408945
375017
236362
121771
1.23414e+06
403903
428448
389843
236595
115323
1.26588e+06
436467
450247
384015
221693
104296
1.33756e+06
496717
454564
354347
200031
96005.5
1.48236e+06
580259
455775
325861
186037
95239.8
1.6959e+06
694566
467042
322346
195769
110537
2.00628e+06
811072
511884
356329
232016
144045
2.48324e+06
1.00169e+06
597739
435489
311297
210879
1.46436e+06
548805
539040
492380
334393
203456
1.2935e+06
563603
555520
423762
241996
137550
1.17719e+06
567993
557542
379911
188872
91075.5
1.10475e+06
574090
563202
364655
166369
79670.7
1.06819e+06
583994
570197
354917
166090
78711.9
1.05691e+06
594959
564279
345708
166522
75446.2
1.05645e+06
598558
540839
329856
157832
69742.4
1.06208e+06
598093
512610
309057
147596
65335.4
1.08935e+06
610529
481782
286768
138991
62708.3
1.15384e+06
639161
458002
273064
138574
65340.3
1.25558e+06
692187
461904
278697
149614
74679.6
1.40798e+06
763015
496743
313285
181825
98022.9
1.62759e+06
846656
563149
377033
236998
139990
1.97533e+06
1.00788e+06
678003
488213
337023
217155
73705.4
45886.4
29597.5
21056.7
17324.5
15897.5
16001.3
16998.3
19198.7
22211.6
25608
28657.5
32255.7
46673.7
32387.4
19344.7
12284.5
8668.76
7140.45
6648.96
6813.14
7373.92
8473.62
10062.4
12086.8
14320.9
17423.9
26829.8
17265
8600.12
5044.13
3491.33
2894.52
2740.81
2857.79
3152.7
3697.37
4523.21
5680.7
7172.22
9556.62
15572
10875.6
4382.05
2193.02
1424.08
1170.15
1120.81
1184.11
1327.24
1588.81
2013.5
2678.37
3675.35
5433.42
9456.87
7236.11
2504.43
1042.55
600.605
474.4
454.089
483.102
548.486
672.908
896.684
1293.81
1983.17
3283.15
6102.18
5037.47
1582.65
553.813
266.683
192.38
180.415
192.291
221.836
283.48
409.757
664.43
1162.51
2152.07
4224.33
3750.65
1113.06
337.575
129.199
78.3343
69.4686
74.0326
88.4318
122.817
202.993
382.307
762.181
1541.36
3143.09
3153.91
904.058
246.714
74.0577
33.4615
25.9884
27.8061
36.3749
59.7658
119.353
260.324
570.423
1215.07
2523.33
2938
823.897
211.521
53.2813
16.883
10.0439
11.0158
17.8272
37.8377
90.2973
215.564
491.417
1062.28
2202.9
3137.15
870.186
217.685
50.5456
12.4438
5.25191
6.13006
13.1979
34.0423
87.739
212.906
481.782
1027.71
2096.01
3533.25
964.013
239.626
56.3005
14.1911
6.03724
7.20185
15.8576
40.4892
101.547
238.765
523.887
1087.5
2162.05
4738.06
1287.99
326.501
83.7093
26.4628
14.5576
15.9451
27.8271
59.9199
135.254
297.067
620.913
1239.4
2384.73
6579.2
1805.95
489.502
150.034
64.1509
43.6181
44.6821
62.5436
108.154
208.207
412.147
804.678
1525.51
2821.49
10507.8
3009.92
921.751
344.252
178.253
131.814
130.221
160.688
234.93
385.836
674.22
1207.5
2156.5
3788.21
36996.2
23065.4
15541.6
11594.7
10054.1
9721.72
10271.1
11359.5
13085.6
15305.8
17885.5
20611.6
23609.7
30308
17235.6
9642.91
6166.61
4527.57
3934.95
3867.06
4168.17
4732.47
5603.95
6781.3
8277.62
10042.5
12298.4
16809.9
9867.46
4446.09
2509.62
1766.71
1529.8
1523.24
1668.33
1936.39
2354.74
2953.87
3780.47
4865.93
6443.64
9525.6
6398.06
2352.18
1101.69
707.996
598.504
598.409
661.427
779.685
970.842
1266.4
1715.71
2384.87
3477.64
5636.01
4344.03
1386
532.103
294.971
235.691
233.78
259.366
309.231
394.601
540.446
790.52
1218.28
1994.44
3557.45
3081.13
897.964
288.339
130.083
93.0965
89.9195
99.8022
120.641
159.711
235.507
384.48
675.087
1249.3
2428.96
2303.91
637.834
178.757
63.2606
37.1642
33.6931
37.3618
46.5642
66.3595
110.706
209.489
422.365
867.738
1794.59
1853.94
500.231
128.856
36.4113
15.7427
12.3546
13.7092
18.5338
30.8176
61.8744
136.887
307.495
674.37
1438.76
1610.53
431.054
106.983
26.1664
8.01815
4.73864
5.32791
8.77768
18.765
45.4884
111.609
263.362
589.681
1261.48
1560.07
419.567
103.643
24.029
5.91524
2.50759
2.96434
6.43473
16.829
44.4531
111.42
261.538
577.785
1214.21
1594.31
429.163
107.858
25.9502
6.76403
3.01821
3.66768
8.0537
20.748
53.1712
128.716
292.036
625.864
1278.29
1917.75
516.273
134.388
36.4765
12.5812
7.57866
8.63524
15.0943
32.5353
74.3733
166.898
358.568
736.026
1449.82
2414.74
658.369
188.75
65.0154
31.6619
23.4865
25.1225
35.756
62.218
120.744
242.124
482.026
934.656
1761.8
3609.49
1044.89
349.545
151.155
90.068
72.4733
74.7415
94.5245
139.916
230.978
404.508
728.155
1306.64
2316.17
14266.5
9215.56
6707.31
5487.82
5218.62
5529.94
6334.06
7481.35
8927.4
10598.8
12487.6
14690.3
17351
22053.9
7020.32
3957.82
2700.52
2145.97
2011.38
2135.76
2482.29
3019.43
3742.66
4645.34
5752.17
7131.45
8949.84
12046.9
4132.87
1897.01
1137.81
855.027
780.788
822.863
960.577
1191.35
1525.83
1979.66
2586.69
3408.63
4602.28
6662.43
2743.61
1031.4
512.022
348.019
304.677
316.332
368.054
461.19
606.803
823.914
1145.64
1630.17
2410.93
3812.05
1956.07
628.664
250.575
144.925
118.46
120.432
139.288
175.556
236.919
339.14
510.645
803.573
1327.46
2320.57
1453.65
419.248
135.824
62.7244
45.6181
44.897
51.6614
65.7317
91.9452
141.818
238.232
425.756
794.573
1533.84
1104.85
298.503
82.6394
29.4165
17.5461
16.2321
18.6363
24.3751
36.5898
63.6147
123.591
253.856
529.61
1105.46
864.26
226.519
57.2029
16.0937
7.08282
5.72604
6.59868
9.33804
16.2486
33.7985
76.8754
177.228
399.025
871.505
704.992
184.551
45.155
10.9856
3.41962
2.11326
2.4935
4.29072
9.52831
23.8801
60.5691
147.942
343.089
758.04
621.041
167.044
41.5534
9.72787
2.45396
1.11962
1.41632
3.17107
8.51318
23.174
60.139
146.623
336.609
733.057
581.461
162.954
42.6917
10.6922
2.98635
1.52213
1.96502
4.27194
10.9931
28.6566
71.3911
167.724
372.795
787.984
612.21
181.497
52.3297
15.7707
6.18993
4.25287
5.1109
8.8401
18.7214
42.8102
97.7338
215.769
456.929
927.13
691.639
223.531
76.644
30.9353
17.0427
13.7943
15.5574
22.5059
38.9468
75.2485
151.963
307.926
611.803
1180.82
900.742
333.547
143.538
74.9947
49.9258
43.0469
46.88
61.3912
92.113
152.517
268.219
487.352
890.336
1612.53
6259.33
4283.01
3272.09
2826.39
2831.3
3206.76
3926.49
4910.15
6111
7467.7
8986.81
10794.8
13052.1
16628.2
3122.7
1907.24
1375.2
1132.79
1086.61
1202.4
1477.23
1902.67
2478.54
3199.05
4083.88
5206.41
6697.94
9075.26
1837.56
923.84
597.016
462.212
422.453
452.323
549.883
719.781
973.7
1325.46
1800.89
2457.18
3408.42
4969.77
1230.66
496.081
268.793
189.444
164.156
169.769
202.768
266.919
372.367
534.832
779.746
1154.63
1754.92
2791.32
892.152
295.876
127.447
77.4625
62.6979
62.7514
73.7284
97.3043
139.816
213.331
339.083
556.304
942.153
1658.25
664.814
191.575
65.2397
32.0035
23.3354
22.5405
26.2163
34.9283
52.3091
86.568
153.995
286.363
546.727
1066.14
495.395
131.309
37.0514
13.9542
8.53642
7.80822
9.07226
12.4801
20.1884
37.7529
77.4333
164.804
352.021
747.156
371.249
95.2364
24.0591
7.01403
3.22814
2.63388
3.09968
4.65366
8.7475
19.4293
46.301
110.445
255.944
573.608
287.137
74.6392
18.2978
4.5223
1.46193
0.937342
1.15257
2.11748
5.01882
13.2388
35.0191
88.8325
213.687
489.097
242.927
66.6767
16.8861
4.014
1.04888
0.520818
0.700012
1.61669
4.47684
12.6278
34.0777
86.5645
207.267
470.552
229.783
67.864
18.4701
4.78927
1.4534
0.860555
1.15278
2.41433
6.10662
16.1068
41.3025
100.743
233.421
514.588
249.565
80.4968
24.6799
7.92489
3.46926
2.69031
3.35805
5.64053
11.5224
26.0437
60.2078
136.622
299.783
631.229
299.43
108.469
40.2801
17.3623
10.3156
9.03533
10.6992
15.5868
26.5352
50.5397
102.187
210.279
428.75
851.083
401.848
172.739
80.9375
44.4312
31.0552
28.4507
32.695
44.1321
66.7907
110.479
194.642
356.699
663.761
1227.19
3740.24
2674.34
2054.78
1757.38
1724.37
1950.55
2441.21
3176.52
4145.7
5292.98
6597.33
8135.99
10043.3
12894.5
1895.14
1248.2
917.876
742.907
683.283
733.551
899.556
1191.5
1626.67
2208.02
2942.64
3878.54
5126.83
7041.1
1087.14
603.825
409.964
313.872
272.414
277.163
329.516
438.261
619.728
891.044
1273.09
1807.88
2589.35
3841.73
691.494
308.081
182.332
129.832
106.842
103.691
119.419
158.367
230.496
350.981
541.695
840.3
1322.17
2146.69
469.903
168.146
81.6418
52.0996
40.4709
37.7757
42.4555
56.2723
84.5169
137.398
232.482
401.236
704.11
1266.9
327.4
98.2711
37.8049
20.4434
14.6856
13.2324
14.6792
19.6999
31.0741
55.171
104.774
204.867
404.754
807.058
229.092
61.384
18.9477
8.12288
5.13091
4.42767
4.9208
6.88673
11.8875
23.9812
52.3373
116.484
256.789
557.686
163.962
41.9629
11.077
3.59804
1.79911
1.42909
1.6286
2.53133
5.1342
12.2462
30.7499
76.2638
182.39
419.752
126.037
32.9496
8.19676
2.11835
0.739845
0.485258
0.594957
1.14985
2.91738
8.13582
22.503
59.3612
148.022
350.177
111.876
31.3643
7.98226
1.90761
0.522385
0.283862
0.391646
0.913415
2.59537
7.58879
21.3242
56.4752
140.866
332.452
116.503
35.327
9.62647
2.51486
0.832102
0.570312
0.775117
1.53459
3.75528
9.949
26.2035
66.2934
159.791
366.343
139.515
45.9099
14.1049
4.6524
2.25386
1.9504
2.49756
4.04468
7.88553
17.4401
40.5707
94.2489
213.435
464.85
181.712
66.7848
24.9149
11.0649
7.08382
6.71441
8.26758
12.0158
19.9651
37.2077
74.8323
155.6
324.066
659.516
257.57
112.616
52.9487
29.6134
21.7912
21.291
25.6061
35.1902
53.1663
87.221
153.02
281.541
531.069
999.127
2849.37
2086.24
1582.61
1291.45
1175.75
1240.36
1505.73
1990.41
2713.62
3643.64
4754.08
6089.03
7768.11
10207.1
1422.39
991.371
732.791
571.964
488.719
481
556.013
731.371
1033.98
1480.55
2081.09
2869.31
3945.57
5575.05
761.76
467.986
329.561
247.053
200.568
186.067
204.898
265.69
385.377
584.728
886.687
1326.16
1985.8
3044.89
436.876
222.789
143.467
102.37
79.5048
70.3432
74.4122
95.1876
141.275
227.152
373.996
615.096
1015.74
1711.99
263.661
108.774
60.8489
40.4211
30.0088
25.5628
26.304
33.5498
51.457
88.7173
160.909
295.792
546.091
1021.63
163.722
55.4173
25.6133
15.2556
10.7172
8.83842
8.97527
11.6599
18.9901
36.0886
73.6962
153.365
318.074
657.649
104.743
30.4765
11.2441
5.63501
3.63256
2.89545
2.95604
4.06678
7.39677
16.1169
37.6902
88.5775
203.607
456.31
72.3159
19.4506
5.77924
2.2176
1.20444
0.907649
0.962141
1.5098
3.29125
8.45374
22.4649
58.2099
144.238
341.528
58.3511
15.7293
4.09158
1.15497
0.44983
0.297589
0.351696
0.704607
1.91197
5.63981
16.3078
44.696
115.307
280.918
58.4309
16.5238
4.18837
1.01305
0.300712
0.182614
0.254989
0.592961
1.72021
5.2
15.1675
41.708
107.807
262.739
69.2339
20.6281
5.47307
1.43695
0.535123
0.426634
0.588178
1.10915
2.62435
6.95915
18.7522
48.9664
122.042
288.874
90.8223
28.9491
8.66566
2.94775
1.61538
1.55168
2.03151
3.20213
6.00221
12.9953
30.3332
71.8217
166.961
373.835
125.778
44.8378
16.4823
7.61421
5.33594
5.44905
6.91326
10.0103
16.2849
29.7482
59.4532
124.624
264.267
549.5
186.106
79.9269
37.2689
21.4387
16.8078
17.4499
21.7105
30.1082
45.2092
73.3938
127.964
236.09
450.85
862.337
2403.26
1791.55
1349
1061.82
901.826
873.388
990.655
1283.58
1790.18
2514.27
3445.56
4610.35
6120.74
8295.75
1166.36
850.447
632.827
483.341
390.536
353.343
375.692
473.301
674.057
1006.04
1490.87
2159.47
3105.32
4542.12
583.607
391.759
283.749
210.734
163.665
140.414
141.533
173.277
250.153
393.956
631.271
997.069
1567.4
2498.51
302.287
177.002
121.464
87.1186
65.3017
53.7449
52.0703
62.5283
91.8933
153.2
267.195
466.32
811.389
1427.5
160.836
79.2075
49.7479
34.0131
24.5923
19.5669
18.4797
22.152
33.7753
60.6978
117.078
229.047
446.093
871.667
87.7652
35.775
19.6759
12.5425
8.70439
6.72975
6.28954
7.74029
12.713
25.4626
55.4532
122.511
266.891
573.746
50.7907
17.2273
7.80552
4.42811
2.90048
2.183
2.06085
2.73149
5.12761
11.8893
29.5309
73.0074
174.776
404.422
34.1888
10.0409
3.50313
1.59001
0.92742
0.674035
0.668719
1.03997
2.38952
6.51253
18.1626
48.9476
125.289
304.537
29.6822
8.18758
2.24411
0.712198
0.316969
0.215423
0.246673
0.503883
1.43812
4.43502
13.3066
37.6656
99.96
249.325
33.451
9.23643
2.28699
0.565041
0.191323
0.134143
0.191283
0.443819
1.31045
4.07447
12.2594
34.7491
92.3461
230.449
43.6604
12.3635
3.13816
0.840741
0.370265
0.343356
0.483054
0.886974
2.05948
5.4913
15.1116
40.5149
103.676
251.267
61.0906
18.4023
5.34255
1.93417
1.23442
1.30292
1.73973
2.70385
4.95187
10.6032
24.9194
60.0779
142.812
326.855
88.8228
30.3106
11.0751
5.49297
4.27891
4.66325
6.04571
8.73285
14.0076
25.2718
50.4534
106.882
230.716
489.065
137.822
57.9042
27.0695
16.395
13.834
15.134
19.2633
26.8112
39.9914
64.3852
111.928
207.713
402.258
782.559
2133.24
1614.69
1216.88
940.888
764.441
688.357
719.613
885.926
1229.77
1781.65
2555.5
3575.89
4960.34
6972.9
1002.86
756.332
567.34
429.67
336.493
286.83
282.109
333.742
465.933
711.498
1102.72
1675.19
2522.74
3830.58
473.148
339.771
250.933
186.058
141.319
115.452
108.502
124.43
174.654
279.713
468.135
777.515
1282.32
2127.26
224.902
147.493
105.373
76.0219
56.0633
44.2498
40.2875
45.4635
64.9584
110.066
200.59
368.94
674.703
1239.11
107.251
62.1401
42.0092
29.2382
20.9144
16.0316
14.3147
16.2296
24.2523
44.5977
90.178
186.059
380.685
776.108
52.0114
25.7896
15.9666
10.5762
7.31914
5.47097
4.85611
5.70813
9.34143
19.3807
44.367
103.018
234.534
523.293
27.4258
11.1564
5.93421
3.62493
2.40472
1.75881
1.58498
2.03883
3.90259
9.46828
24.647
63.5257
157.626
375.931
18.1273
5.88038
2.38473
1.22458
0.750418
0.537373
0.514138
0.795567
1.90103
5.41677
15.694
43.6913
115.053
286.557
16.8079
4.6306
1.33384
0.478972
0.24058
0.168994
0.191736
0.399302
1.18575
3.78628
11.7053
34.024
92.4853
235.515
20.5345
5.33768
1.26874
0.32668
0.131643
0.106224
0.155552
0.363358
1.09407
3.4891
10.7781
31.3229
85.1625
216.745
28.3633
7.38587
1.76617
0.499711
0.273229
0.288688
0.413717
0.75193
1.73918
4.69444
13.2014
36.248
94.8824
234.546
41.4197
11.5062
3.24601
1.3104
0.991095
1.12956
1.53076
2.36394
4.28337
9.16617
21.8135
53.6367
130.251
303.992
63.0794
20.3711
7.50837
4.12632
3.58173
4.11337
5.41215
7.80595
12.4162
22.2875
44.7235
96.12
211.492
456.793
103.585
42.4819
20.133
13.0679
11.8673
13.5466
17.507
24.3957
36.1864
57.9487
100.807
188.805
371.581
735.92
1937.8
1482.66
1122.05
861.541
684.748
590.498
581.221
677.477
918.669
1346.89
1995.03
2895.28
4175.13
6071.52
883.472
680.766
514.153
388.831
300.586
248.474
233.02
261.651
354.248
542.807
865.156
1362.44
2131.19
3343.4
397.425
297.985
222.622
165.42
124.777
99.7334
90.3138
98.9255
134.587
215.507
370.014
637.193
1091.22
1872.38
176.816
125.067
91.2739
66.2464
48.7299
37.8472
33.4574
36.3128
50.535
85.8246
160.626
306.571
582.523
1109.14
77.5245
50.4157
35.4097
24.9355
17.8617
13.5265
11.7916
12.9477
19.0242
35.3629
73.7574
158.033
335.824
709.838
34.2063
19.7272
13.0219
8.81591
6.13922
4.54833
3.95752
4.54185
7.41557
15.7454
37.3452
89.9222
211.939
488.608
16.6076
7.87264
4.61572
2.93969
1.97978
1.44088
1.2786
1.62548
3.16352
7.93544
21.4058
56.9787
145.667
357.249
10.6684
3.75927
1.70427
0.94849
0.603483
0.433999
0.412358
0.642773
1.58695
4.68336
14.002
40.0622
108.223
276.029
10.2693
2.76543
0.831356
0.333809
0.184867
0.134726
0.15482
0.330612
1.01603
3.34377
10.6205
31.6318
87.9816
228.822
13.1826
3.15313
0.713262
0.196309
0.0957899
0.0869301
0.130516
0.307995
0.946574
3.09569
9.81115
29.2133
81.241
210.977
18.9358
4.45363
1.00207
0.314495
0.215618
0.249835
0.361443
0.652379
1.51193
4.14998
11.9535
33.6532
90.1635
227.466
28.6392
7.25904
2.02577
0.948499
0.833565
1.00097
1.36676
2.09807
3.77842
8.12904
19.6845
49.525
123.084
293.215
45.7318
13.9758
5.30298
3.26995
3.10418
3.69844
4.9067
7.05644
11.1535
20.0048
40.5326
88.714
199.459
439.528
79.9471
32.1024
15.5653
10.8753
10.4951
12.3547
16.1115
22.4286
33.0943
52.8312
92.2291
174.845
350.452
707.521
166720
279551
432801
598562
730060
778835
98559.2
184878
318940
492505
675888
803496
65874
136195
257276
436349
660630
857988
48595
106466
217348
399606
656119
914558
40749.1
92994
198928
386422
669338
971923
37140
86846.2
193003
395383
711617
1.01936e+06
36916.2
88013.2
202261
432917
790520
1.05124e+06
38667.7
93440.7
222412
490585
874086
1.03574e+06
43195.1
105007
252130
550402
909102
957805
48754.4
115814
273137
578927
876040
857726
53845.6
121063
278243
581464
817625
772981
56739.2
118989
274095
578753
760333
715924
59413.6
120349
287621
572095
703876
682985
80033.8
174064
358689
560600
616484
650094
89741
164943
279160
435094
619253
827502
53524.9
108459
205523
356279
562678
821381
37437.3
81847.7
168110
316834
544864
851910
28612.9
66406.6
145511
296201
549516
910841
25062.3
60648.2
139158
298060
581939
996970
23928.4
59129.2
140110
313862
637441
1.08746e+06
24794.1
61858.1
150026
346431
718417
1.16301e+06
26736.4
66504
163699
388087
805873
1.19088e+06
30067.8
73992.6
182811
432298
861567
1.14101e+06
34059.3
81072.2
196260
453685
845909
1.03074e+06
38063.1
85456.3
199266
447373
789647
923534
41549.4
86427.1
193494
427787
726546
836634
44895
85779.1
184289
410230
658982
756860
56031.2
103211
214351
406063
560009
651395
34267.6
68463.4
128651
225756
369344
564563
22484.4
48197.4
98738.1
191062
342424
567641
16930.3
39109.2
86199.7
178907
344997
608513
14153.2
34673.1
81300.4
180060
370273
686747
13579.9
34646.8
84736.4
195497
418330
801299
14216.7
36923
92356.8
219382
483609
938508
15876.6
41200.1
103751
250098
559925
1.06838e+06
18059.5
45880.8
114575
278453
629497
1.14814e+06
20713.4
51000.9
125494
304116
678249
1.14972e+06
23556.9
55340.8
132410
315009
675101
1.05741e+06
26447
58355.3
133892
309284
631680
934219
29543.3
60556.2
132030
293287
569623
808965
33063.6
62458.7
128357
272853
504408
692532
40507.8
70908.1
133644
255678
419479
558820
14501.9
28973.9
57017.2
109231
202207
359162
10165.3
21958.2
47013.8
98560.5
198854
378363
8086.33
18920.2
43563.6
97741.1
211535
428357
7294.27
18322.5
45037.9
107471
245683
516784
7536.46
19913.1
51060
126181
296459
633222
8561.88
23149.7
60431.1
151682
359982
765980
10247.4
27583.3
71795.6
180141
425317
889389
12270.9
32016.2
81437.5
201965
474294
968900
14518.1
36192.2
89164.7
217505
504824
994120
16801.8
39414.8
93103.7
221192
501163
935410
19104.1
41692.3
93659.9
215363
471642
830593
21683.5
43791.9
92994.1
204144
422249
702498
24791.8
46066.7
91718.3
190290
367415
579835
30134
51170.3
92593.4