/*--------------------------------*- C++ -*----------------------------------*\
| =========                 |                                                 |
| \\      /  F ield         | OpenFOAM: The Open Source CFD Toolbox           |
|  \\    /   O peration     | Version:  v2106                                 |
|   \\  /    A nd           | Website:  www.openfoam.com                      |
|    \\/     M anipulation  |                                                 |
\*---------------------------------------------------------------------------*/
FoamFile
{
    version     2.0;
    format      ascii;
    arch        "LSB;label=32;scalar=64";
    class       volScalarField;
    location    "0.000202";
    object      epsilon;
}
// * * * * * * * * * * * * * * * * * * * * * * * * * * * * * * * * * * * * * //

dimensions      [0 2 -3 0 0 0 0];

internalField   nonuniform List<scalar> 
17924
(
1.5914e-08
1.27207e-08
1.20959e-08
1.1983e-08
1.24173e-08
1.20046e-08
1.19243e-08
1.19106e-08
1.19106e-08
1.19142e-08
1.19192e-08
1.2484e-08
1.20222e-08
1.19204e-08
1.19011e-08
1.18986e-08
1.18993e-08
1.19006e-08
1.28935e-08
1.21223e-08
1.19399e-08
1.19026e-08
1.18965e-08
1.18963e-08
1.18971e-08
1.34971e-08
1.22628e-08
1.19668e-08
1.19053e-08
1.18948e-08
1.1894e-08
1.18946e-08
1.41957e-08
1.24121e-08
1.19925e-08
1.19072e-08
1.18928e-08
1.18915e-08
1.1892e-08
1.4942e-08
1.25523e-08
1.20121e-08
1.19072e-08
1.18903e-08
1.18888e-08
1.18893e-08
1.57798e-08
1.26944e-08
1.20286e-08
1.19062e-08
1.18876e-08
1.1886e-08
1.18865e-08
1.67252e-08
1.28449e-08
1.20444e-08
1.19051e-08
1.18853e-08
1.18839e-08
1.18847e-08
1.7737e-08
1.30013e-08
1.20618e-08
1.19062e-08
1.18865e-08
1.18868e-08
1.18891e-08
1.88356e-08
1.31816e-08
1.2092e-08
1.19203e-08
1.19063e-08
1.19159e-08
1.19264e-08
2.00983e-08
1.34625e-08
1.21843e-08
1.19976e-08
1.20149e-08
1.20682e-08
1.21178e-08
2.2507e-08
1.42789e-08
1.25662e-08
1.23523e-08
1.2502e-08
1.27414e-08
1.29582e-08
2.98611e-08
1.72182e-08
1.41049e-08
1.38086e-08
1.44523e-08
1.54002e-08
1.62622e-08
5.40512e-08
2.73544e-08
1.98121e-08
1.92493e-08
2.15271e-08
2.4895e-08
2.79981e-08
1.19545e-08
1.19067e-08
1.18982e-08
1.18972e-08
1.18978e-08
1.1899e-08
1.19004e-08
1.19018e-08
1.19028e-08
1.19033e-08
1.19031e-08
1.19029e-08
1.19051e-08
1.19203e-08
1.19643e-08
1.1908e-08
1.1896e-08
1.18942e-08
1.18944e-08
1.18952e-08
1.18961e-08
1.1897e-08
1.18979e-08
1.18988e-08
1.18995e-08
1.19001e-08
1.19027e-08
1.19171e-08
1.20163e-08
1.19193e-08
1.18966e-08
1.18924e-08
1.18923e-08
1.18931e-08
1.1894e-08
1.1895e-08
1.18959e-08
1.18968e-08
1.18976e-08
1.18983e-08
1.19009e-08
1.19147e-08
1.20931e-08
1.19355e-08
1.18981e-08
1.18909e-08
1.18903e-08
1.18911e-08
1.18921e-08
1.18931e-08
1.1894e-08
1.18948e-08
1.18954e-08
1.1896e-08
1.18983e-08
1.19113e-08
1.21813e-08
1.19528e-08
1.18993e-08
1.18892e-08
1.18882e-08
1.1889e-08
1.189e-08
1.18911e-08
1.1892e-08
1.18928e-08
1.18934e-08
1.18939e-08
1.18958e-08
1.19079e-08
1.22734e-08
1.19684e-08
1.18998e-08
1.18872e-08
1.1886e-08
1.18868e-08
1.18879e-08
1.18889e-08
1.18899e-08
1.18907e-08
1.18912e-08
1.18917e-08
1.18933e-08
1.19044e-08
1.23744e-08
1.19837e-08
1.18998e-08
1.18852e-08
1.18837e-08
1.18846e-08
1.18856e-08
1.18867e-08
1.18876e-08
1.18884e-08
1.1889e-08
1.18895e-08
1.1891e-08
1.19012e-08
1.24862e-08
1.19994e-08
1.18995e-08
1.18829e-08
1.18814e-08
1.18822e-08
1.18833e-08
1.18844e-08
1.18853e-08
1.18861e-08
1.18867e-08
1.18873e-08
1.18888e-08
1.18983e-08
1.26036e-08
1.20153e-08
1.18993e-08
1.18809e-08
1.18792e-08
1.18803e-08
1.18815e-08
1.18826e-08
1.18836e-08
1.18845e-08
1.18851e-08
1.18859e-08
1.18876e-08
1.1898e-08
1.27281e-08
1.20329e-08
1.19001e-08
1.18798e-08
1.18788e-08
1.18806e-08
1.18826e-08
1.18843e-08
1.18856e-08
1.18866e-08
1.18874e-08
1.18885e-08
1.18912e-08
1.19069e-08
1.28632e-08
1.20591e-08
1.19065e-08
1.18847e-08
1.18868e-08
1.1893e-08
1.18988e-08
1.1903e-08
1.19057e-08
1.19074e-08
1.19086e-08
1.19107e-08
1.1917e-08
1.19502e-08
1.31044e-08
1.21361e-08
1.19405e-08
1.19165e-08
1.19325e-08
1.19575e-08
1.19798e-08
1.19955e-08
1.2005e-08
1.20105e-08
1.20136e-08
1.20193e-08
1.20351e-08
1.21151e-08
1.38406e-08
1.24223e-08
1.20868e-08
1.20573e-08
1.21264e-08
1.22255e-08
1.23129e-08
1.23756e-08
1.24147e-08
1.24377e-08
1.24509e-08
1.24703e-08
1.25091e-08
1.26956e-08
1.63273e-08
1.34308e-08
1.26428e-08
1.25976e-08
1.28493e-08
1.32094e-08
1.35288e-08
1.37664e-08
1.39229e-08
1.40198e-08
1.40789e-08
1.41516e-08
1.4248e-08
1.46551e-08
1.18976e-08
1.18929e-08
1.18923e-08
1.18923e-08
1.18925e-08
1.18928e-08
1.18933e-08
1.18939e-08
1.18945e-08
1.18952e-08
1.18958e-08
1.1896e-08
1.18962e-08
1.18967e-08
1.18975e-08
1.18915e-08
1.18901e-08
1.18898e-08
1.18898e-08
1.18901e-08
1.18905e-08
1.18911e-08
1.18917e-08
1.18925e-08
1.18933e-08
1.18937e-08
1.18941e-08
1.1895e-08
1.1902e-08
1.18908e-08
1.18878e-08
1.18873e-08
1.18873e-08
1.18877e-08
1.18882e-08
1.18889e-08
1.18897e-08
1.18905e-08
1.18913e-08
1.18917e-08
1.18923e-08
1.18934e-08
1.19091e-08
1.18905e-08
1.18857e-08
1.18849e-08
1.1885e-08
1.18855e-08
1.18861e-08
1.18869e-08
1.18877e-08
1.18884e-08
1.18891e-08
1.18895e-08
1.189e-08
1.18912e-08
1.19172e-08
1.18902e-08
1.18837e-08
1.18826e-08
1.18828e-08
1.18834e-08
1.18841e-08
1.1885e-08
1.18858e-08
1.18866e-08
1.18872e-08
1.18876e-08
1.18879e-08
1.1889e-08
1.19257e-08
1.18898e-08
1.18817e-08
1.18804e-08
1.18806e-08
1.18813e-08
1.18821e-08
1.1883e-08
1.18839e-08
1.18847e-08
1.18853e-08
1.18857e-08
1.18859e-08
1.18868e-08
1.1935e-08
1.18896e-08
1.18797e-08
1.18783e-08
1.18785e-08
1.18793e-08
1.18801e-08
1.18811e-08
1.1882e-08
1.18828e-08
1.18835e-08
1.1884e-08
1.18841e-08
1.18851e-08
1.19453e-08
1.18892e-08
1.18777e-08
1.18762e-08
1.18765e-08
1.18773e-08
1.18782e-08
1.18791e-08
1.18801e-08
1.1881e-08
1.18816e-08
1.18822e-08
1.18824e-08
1.18833e-08
1.19559e-08
1.18888e-08
1.18757e-08
1.18742e-08
1.18745e-08
1.18753e-08
1.18762e-08
1.18773e-08
1.18782e-08
1.18792e-08
1.18799e-08
1.18806e-08
1.18808e-08
1.18818e-08
1.19669e-08
1.18885e-08
1.18738e-08
1.18721e-08
1.18725e-08
1.18735e-08
1.18745e-08
1.18756e-08
1.18766e-08
1.18777e-08
1.18785e-08
1.18793e-08
1.18797e-08
1.1881e-08
1.19783e-08
1.18887e-08
1.18723e-08
1.18705e-08
1.18713e-08
1.18727e-08
1.18741e-08
1.18755e-08
1.18767e-08
1.18778e-08
1.18788e-08
1.18798e-08
1.18803e-08
1.18828e-08
1.19981e-08
1.18931e-08
1.18731e-08
1.18712e-08
1.18735e-08
1.18766e-08
1.18797e-08
1.18821e-08
1.18838e-08
1.18852e-08
1.18862e-08
1.18873e-08
1.18882e-08
1.18937e-08
1.20627e-08
1.19161e-08
1.18838e-08
1.18817e-08
1.18894e-08
1.18998e-08
1.19089e-08
1.19155e-08
1.19195e-08
1.19219e-08
1.19231e-08
1.19243e-08
1.19258e-08
1.19379e-08
1.2294e-08
1.20056e-08
1.19314e-08
1.19293e-08
1.1956e-08
1.19923e-08
1.20236e-08
1.20457e-08
1.20589e-08
1.20654e-08
1.20676e-08
1.20697e-08
1.20722e-08
1.2098e-08
1.18903e-08
1.18898e-08
1.18896e-08
1.18893e-08
1.1889e-08
1.18889e-08
1.1889e-08
1.18892e-08
1.18896e-08
1.18902e-08
1.18908e-08
1.18913e-08
1.18917e-08
1.18914e-08
1.18886e-08
1.18879e-08
1.18871e-08
1.18866e-08
1.18862e-08
1.1886e-08
1.18859e-08
1.18861e-08
1.18865e-08
1.18871e-08
1.18878e-08
1.18883e-08
1.18888e-08
1.18888e-08
1.18872e-08
1.18855e-08
1.18843e-08
1.18837e-08
1.18833e-08
1.18832e-08
1.18832e-08
1.18834e-08
1.18839e-08
1.18845e-08
1.18851e-08
1.18856e-08
1.18862e-08
1.18865e-08
1.18856e-08
1.1883e-08
1.18816e-08
1.1881e-08
1.18806e-08
1.18806e-08
1.18806e-08
1.18809e-08
1.18813e-08
1.18818e-08
1.18823e-08
1.18827e-08
1.18833e-08
1.18836e-08
1.18841e-08
1.18805e-08
1.1879e-08
1.18784e-08
1.18781e-08
1.18781e-08
1.18782e-08
1.18785e-08
1.18789e-08
1.18794e-08
1.18799e-08
1.18803e-08
1.18807e-08
1.1881e-08
1.18826e-08
1.18781e-08
1.18766e-08
1.1876e-08
1.18758e-08
1.18758e-08
1.18759e-08
1.18762e-08
1.18767e-08
1.18772e-08
1.18777e-08
1.1878e-08
1.18783e-08
1.18786e-08
1.18814e-08
1.1876e-08
1.18743e-08
1.18738e-08
1.18736e-08
1.18737e-08
1.18738e-08
1.18742e-08
1.18746e-08
1.18752e-08
1.18757e-08
1.18761e-08
1.18763e-08
1.18767e-08
1.18803e-08
1.18739e-08
1.18721e-08
1.18717e-08
1.18715e-08
1.18717e-08
1.18719e-08
1.18723e-08
1.18727e-08
1.18733e-08
1.18738e-08
1.18743e-08
1.18745e-08
1.18748e-08
1.18794e-08
1.18719e-08
1.18701e-08
1.18698e-08
1.18697e-08
1.18698e-08
1.18701e-08
1.18706e-08
1.18711e-08
1.18717e-08
1.18722e-08
1.18728e-08
1.1873e-08
1.18733e-08
1.18785e-08
1.18698e-08
1.18681e-08
1.18678e-08
1.18678e-08
1.18681e-08
1.18684e-08
1.1869e-08
1.18695e-08
1.18702e-08
1.18708e-08
1.18715e-08
1.18717e-08
1.18721e-08
1.18777e-08
1.1868e-08
1.18662e-08
1.1866e-08
1.18662e-08
1.18666e-08
1.18671e-08
1.18677e-08
1.18683e-08
1.18691e-08
1.18698e-08
1.18707e-08
1.18709e-08
1.18714e-08
1.18772e-08
1.18662e-08
1.18645e-08
1.18645e-08
1.1865e-08
1.18656e-08
1.18663e-08
1.18671e-08
1.18679e-08
1.18687e-08
1.18695e-08
1.18704e-08
1.18705e-08
1.18709e-08
1.18803e-08
1.18659e-08
1.18636e-08
1.18637e-08
1.18649e-08
1.18663e-08
1.18677e-08
1.18689e-08
1.18699e-08
1.18708e-08
1.18716e-08
1.18722e-08
1.1872e-08
1.18723e-08
1.18976e-08
1.1871e-08
1.18657e-08
1.18662e-08
1.18694e-08
1.18734e-08
1.1877e-08
1.18795e-08
1.18812e-08
1.18822e-08
1.18826e-08
1.18825e-08
1.1882e-08
1.18827e-08
1.18883e-08
1.18878e-08
1.18874e-08
1.1887e-08
1.18865e-08
1.18862e-08
1.18861e-08
1.18863e-08
1.18865e-08
1.1887e-08
1.18877e-08
1.18883e-08
1.18889e-08
1.18887e-08
1.18864e-08
1.18859e-08
1.1885e-08
1.18843e-08
1.18837e-08
1.18833e-08
1.18831e-08
1.18831e-08
1.18833e-08
1.18838e-08
1.18844e-08
1.18849e-08
1.18856e-08
1.18857e-08
1.18842e-08
1.18833e-08
1.18822e-08
1.18814e-08
1.18807e-08
1.18804e-08
1.18802e-08
1.18802e-08
1.18804e-08
1.18808e-08
1.18814e-08
1.18819e-08
1.18827e-08
1.18829e-08
1.18816e-08
1.18806e-08
1.18794e-08
1.18787e-08
1.1878e-08
1.18776e-08
1.18774e-08
1.18774e-08
1.18775e-08
1.18778e-08
1.18783e-08
1.18787e-08
1.18794e-08
1.18797e-08
1.1879e-08
1.18778e-08
1.18767e-08
1.1876e-08
1.18754e-08
1.1875e-08
1.18748e-08
1.18747e-08
1.18748e-08
1.18751e-08
1.18755e-08
1.18758e-08
1.18764e-08
1.18768e-08
1.18764e-08
1.18753e-08
1.18742e-08
1.18736e-08
1.1873e-08
1.18726e-08
1.18724e-08
1.18723e-08
1.18723e-08
1.18726e-08
1.18729e-08
1.18732e-08
1.18736e-08
1.1874e-08
1.18741e-08
1.18729e-08
1.18719e-08
1.18713e-08
1.18707e-08
1.18704e-08
1.18701e-08
1.187e-08
1.18701e-08
1.18703e-08
1.18706e-08
1.1871e-08
1.18713e-08
1.18717e-08
1.18719e-08
1.18707e-08
1.18697e-08
1.18692e-08
1.18687e-08
1.18683e-08
1.18681e-08
1.1868e-08
1.1868e-08
1.18682e-08
1.18685e-08
1.18689e-08
1.18691e-08
1.18696e-08
1.18698e-08
1.18685e-08
1.18678e-08
1.18673e-08
1.18668e-08
1.18665e-08
1.18663e-08
1.18663e-08
1.18663e-08
1.18665e-08
1.18667e-08
1.18671e-08
1.18673e-08
1.18678e-08
1.18679e-08
1.18665e-08
1.18659e-08
1.18655e-08
1.18651e-08
1.18649e-08
1.18647e-08
1.18647e-08
1.18648e-08
1.18649e-08
1.18652e-08
1.18657e-08
1.18658e-08
1.18663e-08
1.18662e-08
1.18647e-08
1.18643e-08
1.1864e-08
1.18637e-08
1.18635e-08
1.18634e-08
1.18634e-08
1.18635e-08
1.18638e-08
1.18641e-08
1.18647e-08
1.18647e-08
1.18652e-08
1.18645e-08
1.18629e-08
1.18628e-08
1.18625e-08
1.18624e-08
1.18623e-08
1.18623e-08
1.18624e-08
1.18626e-08
1.18628e-08
1.18632e-08
1.18638e-08
1.18637e-08
1.18639e-08
1.18629e-08
1.18612e-08
1.18614e-08
1.18613e-08
1.18614e-08
1.18615e-08
1.18617e-08
1.18618e-08
1.18621e-08
1.18624e-08
1.18627e-08
1.1863e-08
1.18626e-08
1.18622e-08
1.18623e-08
1.18598e-08
1.18602e-08
1.18604e-08
1.1861e-08
1.18614e-08
1.18619e-08
1.18622e-08
1.18625e-08
1.18627e-08
1.18628e-08
1.18625e-08
1.18618e-08
1.1861e-08
1.18856e-08
1.18852e-08
1.18848e-08
1.18845e-08
1.18842e-08
1.18839e-08
1.18839e-08
1.1884e-08
1.18843e-08
1.18848e-08
1.18854e-08
1.18861e-08
1.18868e-08
1.18867e-08
1.18837e-08
1.18834e-08
1.18827e-08
1.18822e-08
1.18817e-08
1.18813e-08
1.18811e-08
1.18812e-08
1.18814e-08
1.18819e-08
1.18825e-08
1.1883e-08
1.18836e-08
1.18838e-08
1.18816e-08
1.1881e-08
1.18802e-08
1.18796e-08
1.18791e-08
1.18787e-08
1.18785e-08
1.18786e-08
1.18788e-08
1.18791e-08
1.18797e-08
1.18802e-08
1.1881e-08
1.18813e-08
1.18791e-08
1.18785e-08
1.18777e-08
1.18772e-08
1.18766e-08
1.18762e-08
1.1876e-08
1.1876e-08
1.18761e-08
1.18764e-08
1.18768e-08
1.18772e-08
1.1878e-08
1.18783e-08
1.18765e-08
1.1876e-08
1.18752e-08
1.18747e-08
1.18742e-08
1.18738e-08
1.18736e-08
1.18735e-08
1.18736e-08
1.18739e-08
1.18742e-08
1.18746e-08
1.18752e-08
1.18756e-08
1.18741e-08
1.18736e-08
1.18729e-08
1.18724e-08
1.18719e-08
1.18716e-08
1.18714e-08
1.18713e-08
1.18713e-08
1.18715e-08
1.18718e-08
1.18721e-08
1.18726e-08
1.18731e-08
1.18718e-08
1.18714e-08
1.18708e-08
1.18703e-08
1.18698e-08
1.18695e-08
1.18693e-08
1.18692e-08
1.18691e-08
1.18693e-08
1.18696e-08
1.18699e-08
1.18703e-08
1.18709e-08
1.18697e-08
1.18693e-08
1.18688e-08
1.18684e-08
1.1868e-08
1.18677e-08
1.18674e-08
1.18672e-08
1.18672e-08
1.18673e-08
1.18675e-08
1.18678e-08
1.18682e-08
1.18689e-08
1.18678e-08
1.18674e-08
1.1867e-08
1.18667e-08
1.18663e-08
1.1866e-08
1.18657e-08
1.18655e-08
1.18654e-08
1.18655e-08
1.18657e-08
1.1866e-08
1.18664e-08
1.1867e-08
1.18661e-08
1.18657e-08
1.18654e-08
1.18651e-08
1.18648e-08
1.18645e-08
1.18642e-08
1.1864e-08
1.18639e-08
1.18639e-08
1.18641e-08
1.18645e-08
1.18648e-08
1.18654e-08
1.18647e-08
1.18642e-08
1.18641e-08
1.18638e-08
1.18635e-08
1.18632e-08
1.18629e-08
1.18627e-08
1.18626e-08
1.18626e-08
1.18628e-08
1.18633e-08
1.18634e-08
1.18641e-08
1.18633e-08
1.18628e-08
1.18629e-08
1.18627e-08
1.18624e-08
1.18621e-08
1.18619e-08
1.18616e-08
1.18615e-08
1.18615e-08
1.18617e-08
1.18621e-08
1.18621e-08
1.18625e-08
1.18619e-08
1.18615e-08
1.18619e-08
1.18617e-08
1.18616e-08
1.18613e-08
1.18611e-08
1.18609e-08
1.18607e-08
1.18607e-08
1.18608e-08
1.18609e-08
1.18605e-08
1.18603e-08
1.18605e-08
1.18602e-08
1.1861e-08
1.18609e-08
1.18609e-08
1.18608e-08
1.18606e-08
1.18604e-08
1.18602e-08
1.186e-08
1.18598e-08
1.18593e-08
1.18586e-08
1.18579e-08
1.18798e-08
1.18802e-08
1.18804e-08
1.18805e-08
1.18805e-08
1.18806e-08
1.18807e-08
1.1881e-08
1.18814e-08
1.18819e-08
1.18826e-08
1.18833e-08
1.1884e-08
1.1884e-08
1.18785e-08
1.18789e-08
1.18788e-08
1.18788e-08
1.18787e-08
1.18787e-08
1.18788e-08
1.1879e-08
1.18794e-08
1.18799e-08
1.18806e-08
1.18811e-08
1.18817e-08
1.18819e-08
1.1877e-08
1.18771e-08
1.18769e-08
1.18768e-08
1.18767e-08
1.18767e-08
1.18768e-08
1.18771e-08
1.18774e-08
1.18779e-08
1.18786e-08
1.18791e-08
1.18798e-08
1.18802e-08
1.1875e-08
1.18751e-08
1.18749e-08
1.1875e-08
1.18749e-08
1.18749e-08
1.1875e-08
1.18752e-08
1.18754e-08
1.18758e-08
1.18763e-08
1.18768e-08
1.18775e-08
1.1878e-08
1.18728e-08
1.1873e-08
1.1873e-08
1.1873e-08
1.1873e-08
1.1873e-08
1.18731e-08
1.18733e-08
1.18735e-08
1.18739e-08
1.18744e-08
1.18748e-08
1.18754e-08
1.18759e-08
1.18708e-08
1.18711e-08
1.18712e-08
1.18713e-08
1.18712e-08
1.18712e-08
1.18713e-08
1.18714e-08
1.18716e-08
1.1872e-08
1.18724e-08
1.18728e-08
1.18733e-08
1.18739e-08
1.18691e-08
1.18694e-08
1.18695e-08
1.18696e-08
1.18695e-08
1.18696e-08
1.18696e-08
1.18697e-08
1.18699e-08
1.18702e-08
1.18705e-08
1.1871e-08
1.18715e-08
1.18722e-08
1.18674e-08
1.18678e-08
1.18679e-08
1.1868e-08
1.1868e-08
1.1868e-08
1.1868e-08
1.18681e-08
1.18682e-08
1.18685e-08
1.18688e-08
1.18692e-08
1.18697e-08
1.18705e-08
1.1866e-08
1.18663e-08
1.18665e-08
1.18666e-08
1.18666e-08
1.18666e-08
1.18666e-08
1.18666e-08
1.18667e-08
1.18669e-08
1.18672e-08
1.18677e-08
1.18681e-08
1.18689e-08
1.18648e-08
1.1865e-08
1.18652e-08
1.18654e-08
1.18654e-08
1.18654e-08
1.18653e-08
1.18653e-08
1.18653e-08
1.18655e-08
1.18657e-08
1.18663e-08
1.18667e-08
1.18675e-08
1.18639e-08
1.1864e-08
1.18643e-08
1.18644e-08
1.18644e-08
1.18643e-08
1.18642e-08
1.18641e-08
1.18641e-08
1.18642e-08
1.18645e-08
1.18651e-08
1.18654e-08
1.18663e-08
1.1863e-08
1.1863e-08
1.18634e-08
1.18635e-08
1.18635e-08
1.18634e-08
1.18632e-08
1.18631e-08
1.1863e-08
1.18631e-08
1.18634e-08
1.18639e-08
1.18641e-08
1.18646e-08
1.18621e-08
1.18622e-08
1.18628e-08
1.18628e-08
1.18628e-08
1.18626e-08
1.18624e-08
1.18622e-08
1.18621e-08
1.18621e-08
1.18623e-08
1.18626e-08
1.18624e-08
1.18625e-08
1.18613e-08
1.18613e-08
1.18622e-08
1.18623e-08
1.18623e-08
1.18621e-08
1.18619e-08
1.18616e-08
1.18613e-08
1.18611e-08
1.1861e-08
1.18607e-08
1.18603e-08
1.18597e-08
1.18689e-08
1.18703e-08
1.18714e-08
1.18724e-08
1.1873e-08
1.18736e-08
1.18742e-08
1.18748e-08
1.18755e-08
1.18763e-08
1.18771e-08
1.18778e-08
1.18785e-08
1.18784e-08
1.18685e-08
1.187e-08
1.18709e-08
1.18717e-08
1.18722e-08
1.18728e-08
1.18735e-08
1.18741e-08
1.18748e-08
1.18756e-08
1.18764e-08
1.18771e-08
1.18778e-08
1.18781e-08
1.18679e-08
1.18692e-08
1.18699e-08
1.18707e-08
1.18713e-08
1.18719e-08
1.18725e-08
1.18732e-08
1.18739e-08
1.18747e-08
1.18756e-08
1.18763e-08
1.18771e-08
1.18776e-08
1.18668e-08
1.18681e-08
1.18689e-08
1.18697e-08
1.18704e-08
1.1871e-08
1.18716e-08
1.18723e-08
1.18729e-08
1.18736e-08
1.18744e-08
1.18751e-08
1.18759e-08
1.18766e-08
1.18656e-08
1.18669e-08
1.18678e-08
1.18686e-08
1.18693e-08
1.18699e-08
1.18706e-08
1.18712e-08
1.18719e-08
1.18726e-08
1.18733e-08
1.1874e-08
1.18747e-08
1.18754e-08
1.18645e-08
1.18657e-08
1.18667e-08
1.18675e-08
1.18683e-08
1.18689e-08
1.18696e-08
1.18702e-08
1.18708e-08
1.18714e-08
1.18721e-08
1.18728e-08
1.18734e-08
1.18742e-08
1.18635e-08
1.18648e-08
1.18657e-08
1.18666e-08
1.18673e-08
1.18679e-08
1.18685e-08
1.18691e-08
1.18697e-08
1.18703e-08
1.18709e-08
1.18716e-08
1.18722e-08
1.18731e-08
1.18625e-08
1.18638e-08
1.18648e-08
1.18657e-08
1.18663e-08
1.1867e-08
1.18675e-08
1.18681e-08
1.18686e-08
1.18691e-08
1.18697e-08
1.18704e-08
1.1871e-08
1.18719e-08
1.18618e-08
1.18631e-08
1.1864e-08
1.18649e-08
1.18655e-08
1.18661e-08
1.18665e-08
1.1867e-08
1.18675e-08
1.1868e-08
1.18686e-08
1.18693e-08
1.18699e-08
1.18708e-08
1.18614e-08
1.18624e-08
1.18633e-08
1.18641e-08
1.18647e-08
1.18652e-08
1.18656e-08
1.1866e-08
1.18664e-08
1.18669e-08
1.18675e-08
1.18682e-08
1.18688e-08
1.18698e-08
1.18611e-08
1.18619e-08
1.18628e-08
1.18636e-08
1.18641e-08
1.18645e-08
1.18648e-08
1.18651e-08
1.18654e-08
1.18659e-08
1.18664e-08
1.18672e-08
1.18678e-08
1.18688e-08
1.18608e-08
1.18614e-08
1.18624e-08
1.1863e-08
1.18635e-08
1.18638e-08
1.1864e-08
1.18642e-08
1.18645e-08
1.18649e-08
1.18654e-08
1.18662e-08
1.18666e-08
1.18674e-08
1.18604e-08
1.1861e-08
1.18621e-08
1.18626e-08
1.18629e-08
1.18631e-08
1.18632e-08
1.18633e-08
1.18635e-08
1.18638e-08
1.18643e-08
1.18649e-08
1.18651e-08
1.18654e-08
1.186e-08
1.18606e-08
1.18618e-08
1.18622e-08
1.18625e-08
1.18626e-08
1.18626e-08
1.18627e-08
1.18627e-08
1.18628e-08
1.1863e-08
1.18631e-08
1.18629e-08
1.18627e-08
1.18508e-08
1.18532e-08
1.18554e-08
1.18573e-08
1.18588e-08
1.18601e-08
1.18613e-08
1.18624e-08
1.18636e-08
1.18647e-08
1.18658e-08
1.18668e-08
1.18677e-08
1.18679e-08
1.18517e-08
1.1854e-08
1.1856e-08
1.18577e-08
1.18592e-08
1.18606e-08
1.18619e-08
1.18632e-08
1.18644e-08
1.18656e-08
1.18668e-08
1.18678e-08
1.18687e-08
1.18694e-08
1.18523e-08
1.18545e-08
1.18564e-08
1.18581e-08
1.18597e-08
1.18611e-08
1.18625e-08
1.18637e-08
1.1865e-08
1.18662e-08
1.18675e-08
1.18685e-08
1.18695e-08
1.18704e-08
1.18525e-08
1.18546e-08
1.18566e-08
1.18583e-08
1.18599e-08
1.18614e-08
1.18628e-08
1.18641e-08
1.18654e-08
1.18666e-08
1.18678e-08
1.18688e-08
1.18699e-08
1.18708e-08
1.18525e-08
1.18547e-08
1.18567e-08
1.18585e-08
1.18601e-08
1.18616e-08
1.1863e-08
1.18643e-08
1.18655e-08
1.18667e-08
1.18679e-08
1.18689e-08
1.18699e-08
1.18709e-08
1.18525e-08
1.18547e-08
1.18567e-08
1.18585e-08
1.18601e-08
1.18616e-08
1.1863e-08
1.18643e-08
1.18655e-08
1.18667e-08
1.18678e-08
1.18688e-08
1.18698e-08
1.18708e-08
1.18527e-08
1.18549e-08
1.18568e-08
1.18586e-08
1.18602e-08
1.18616e-08
1.1863e-08
1.18642e-08
1.18654e-08
1.18665e-08
1.18676e-08
1.18686e-08
1.18696e-08
1.18706e-08
1.18528e-08
1.1855e-08
1.18569e-08
1.18586e-08
1.18601e-08
1.18615e-08
1.18628e-08
1.1864e-08
1.18651e-08
1.18662e-08
1.18673e-08
1.18683e-08
1.18692e-08
1.18703e-08
1.18531e-08
1.18552e-08
1.1857e-08
1.18587e-08
1.18601e-08
1.18614e-08
1.18626e-08
1.18637e-08
1.18647e-08
1.18658e-08
1.18668e-08
1.18679e-08
1.18688e-08
1.187e-08
1.18535e-08
1.18554e-08
1.18571e-08
1.18586e-08
1.18599e-08
1.18612e-08
1.18623e-08
1.18634e-08
1.18643e-08
1.18654e-08
1.18663e-08
1.18674e-08
1.18683e-08
1.18696e-08
1.18541e-08
1.18557e-08
1.18572e-08
1.18587e-08
1.18599e-08
1.1861e-08
1.18619e-08
1.18629e-08
1.18638e-08
1.18648e-08
1.18657e-08
1.18669e-08
1.18679e-08
1.18692e-08
1.18544e-08
1.18558e-08
1.18573e-08
1.18586e-08
1.18597e-08
1.18607e-08
1.18615e-08
1.18624e-08
1.18632e-08
1.18642e-08
1.18651e-08
1.18663e-08
1.18671e-08
1.18683e-08
1.18546e-08
1.18558e-08
1.18574e-08
1.18585e-08
1.18595e-08
1.18603e-08
1.1861e-08
1.18617e-08
1.18625e-08
1.18633e-08
1.18643e-08
1.18654e-08
1.1866e-08
1.18667e-08
1.18546e-08
1.18558e-08
1.18573e-08
1.18583e-08
1.18591e-08
1.18598e-08
1.18605e-08
1.18612e-08
1.18618e-08
1.18625e-08
1.18633e-08
1.18639e-08
1.18642e-08
1.18646e-08
1.18261e-08
1.18292e-08
1.1832e-08
1.18345e-08
1.18367e-08
1.18387e-08
1.18406e-08
1.18423e-08
1.18439e-08
1.18454e-08
1.18469e-08
1.18482e-08
1.18494e-08
1.18501e-08
1.18282e-08
1.1831e-08
1.18338e-08
1.18362e-08
1.18385e-08
1.18406e-08
1.18426e-08
1.18445e-08
1.18463e-08
1.18479e-08
1.18495e-08
1.18509e-08
1.18522e-08
1.18534e-08
1.18303e-08
1.18329e-08
1.18357e-08
1.18381e-08
1.18404e-08
1.18426e-08
1.18447e-08
1.18466e-08
1.18484e-08
1.18501e-08
1.18517e-08
1.18532e-08
1.18545e-08
1.18559e-08
1.18318e-08
1.18344e-08
1.18372e-08
1.18397e-08
1.18421e-08
1.18443e-08
1.18464e-08
1.18484e-08
1.18502e-08
1.18519e-08
1.18536e-08
1.18551e-08
1.18565e-08
1.1858e-08
1.18332e-08
1.1836e-08
1.18388e-08
1.18413e-08
1.18437e-08
1.18459e-08
1.1848e-08
1.185e-08
1.18518e-08
1.18535e-08
1.18552e-08
1.18567e-08
1.18581e-08
1.18595e-08
1.18347e-08
1.18375e-08
1.18402e-08
1.18427e-08
1.1845e-08
1.18473e-08
1.18494e-08
1.18514e-08
1.18532e-08
1.18549e-08
1.18566e-08
1.18581e-08
1.18595e-08
1.18609e-08
1.18362e-08
1.1839e-08
1.18416e-08
1.18441e-08
1.18464e-08
1.18485e-08
1.18506e-08
1.18525e-08
1.18543e-08
1.18561e-08
1.18577e-08
1.18592e-08
1.18606e-08
1.18621e-08
1.18377e-08
1.18404e-08
1.18429e-08
1.18453e-08
1.18475e-08
1.18496e-08
1.18516e-08
1.18535e-08
1.18553e-08
1.1857e-08
1.18586e-08
1.18602e-08
1.18616e-08
1.18631e-08
1.18391e-08
1.18418e-08
1.18441e-08
1.18465e-08
1.18486e-08
1.18506e-08
1.18525e-08
1.18543e-08
1.1856e-08
1.18577e-08
1.18593e-08
1.18609e-08
1.18623e-08
1.18639e-08
1.18406e-08
1.18431e-08
1.18452e-08
1.18474e-08
1.18494e-08
1.18514e-08
1.18532e-08
1.1855e-08
1.18566e-08
1.18583e-08
1.18598e-08
1.18615e-08
1.1863e-08
1.18646e-08
1.18421e-08
1.18443e-08
1.18463e-08
1.18484e-08
1.18503e-08
1.18521e-08
1.18538e-08
1.18554e-08
1.1857e-08
1.18586e-08
1.18602e-08
1.1862e-08
1.18635e-08
1.18653e-08
1.18433e-08
1.18452e-08
1.18472e-08
1.18491e-08
1.18509e-08
1.18525e-08
1.18542e-08
1.18558e-08
1.18573e-08
1.1859e-08
1.18606e-08
1.18624e-08
1.18638e-08
1.18655e-08
1.18442e-08
1.1846e-08
1.18479e-08
1.18497e-08
1.18514e-08
1.18529e-08
1.18544e-08
1.18559e-08
1.18574e-08
1.1859e-08
1.18606e-08
1.18624e-08
1.18636e-08
1.18649e-08
1.18448e-08
1.18466e-08
1.18485e-08
1.185e-08
1.18516e-08
1.18531e-08
1.18546e-08
1.1856e-08
1.18575e-08
1.1859e-08
1.18605e-08
1.18618e-08
1.18628e-08
1.1864e-08
1.18001e-08
1.18028e-08
1.18057e-08
1.18082e-08
1.18106e-08
1.18129e-08
1.1815e-08
1.1817e-08
1.18188e-08
1.18206e-08
1.18223e-08
1.18239e-08
1.18254e-08
1.18264e-08
1.18032e-08
1.18056e-08
1.18084e-08
1.18109e-08
1.18135e-08
1.18158e-08
1.18181e-08
1.18202e-08
1.18222e-08
1.18241e-08
1.1826e-08
1.18278e-08
1.18294e-08
1.1831e-08
1.18063e-08
1.18087e-08
1.18115e-08
1.1814e-08
1.18165e-08
1.18189e-08
1.18212e-08
1.18234e-08
1.18254e-08
1.18274e-08
1.18294e-08
1.18312e-08
1.18329e-08
1.18347e-08
1.18091e-08
1.18115e-08
1.18143e-08
1.18168e-08
1.18194e-08
1.18218e-08
1.18242e-08
1.18264e-08
1.18286e-08
1.18306e-08
1.18326e-08
1.18345e-08
1.18363e-08
1.18381e-08
1.18118e-08
1.18143e-08
1.18171e-08
1.18197e-08
1.18222e-08
1.18247e-08
1.1827e-08
1.18293e-08
1.18315e-08
1.18336e-08
1.18356e-08
1.18375e-08
1.18393e-08
1.18411e-08
1.18146e-08
1.18172e-08
1.18199e-08
1.18224e-08
1.18249e-08
1.18274e-08
1.18298e-08
1.18321e-08
1.18343e-08
1.18364e-08
1.18385e-08
1.18404e-08
1.18422e-08
1.1844e-08
1.18174e-08
1.182e-08
1.18225e-08
1.18251e-08
1.18275e-08
1.183e-08
1.18323e-08
1.18346e-08
1.18368e-08
1.1839e-08
1.18411e-08
1.18431e-08
1.18449e-08
1.18467e-08
1.18201e-08
1.18226e-08
1.18251e-08
1.18276e-08
1.183e-08
1.18324e-08
1.18347e-08
1.1837e-08
1.18393e-08
1.18414e-08
1.18435e-08
1.18456e-08
1.18474e-08
1.18493e-08
1.18227e-08
1.18252e-08
1.18275e-08
1.183e-08
1.18323e-08
1.18347e-08
1.1837e-08
1.18393e-08
1.18415e-08
1.18436e-08
1.18457e-08
1.18478e-08
1.18497e-08
1.18517e-08
1.18252e-08
1.18276e-08
1.18298e-08
1.18322e-08
1.18345e-08
1.18368e-08
1.18391e-08
1.18413e-08
1.18435e-08
1.18457e-08
1.18478e-08
1.18499e-08
1.18519e-08
1.18539e-08
1.18277e-08
1.18299e-08
1.1832e-08
1.18343e-08
1.18365e-08
1.18388e-08
1.1841e-08
1.18432e-08
1.18454e-08
1.18476e-08
1.18497e-08
1.18519e-08
1.1854e-08
1.18562e-08
1.18299e-08
1.1832e-08
1.1834e-08
1.18362e-08
1.18384e-08
1.18406e-08
1.18428e-08
1.18449e-08
1.18471e-08
1.18493e-08
1.18515e-08
1.18538e-08
1.18559e-08
1.1858e-08
1.18317e-08
1.18337e-08
1.18358e-08
1.18379e-08
1.184e-08
1.18422e-08
1.18443e-08
1.18464e-08
1.18486e-08
1.18508e-08
1.18531e-08
1.18554e-08
1.18573e-08
1.18594e-08
1.18332e-08
1.18352e-08
1.18373e-08
1.18394e-08
1.18415e-08
1.18436e-08
1.18457e-08
1.18478e-08
1.185e-08
1.18522e-08
1.18544e-08
1.18565e-08
1.18582e-08
1.186e-08
1.17803e-08
1.17818e-08
1.17838e-08
1.17856e-08
1.17874e-08
1.17893e-08
1.17911e-08
1.17929e-08
1.17946e-08
1.17963e-08
1.17979e-08
1.17995e-08
1.1801e-08
1.18022e-08
1.17839e-08
1.17853e-08
1.17872e-08
1.17889e-08
1.17908e-08
1.17926e-08
1.17945e-08
1.17964e-08
1.17983e-08
1.18001e-08
1.18019e-08
1.18037e-08
1.18053e-08
1.1807e-08
1.17875e-08
1.17888e-08
1.17907e-08
1.17925e-08
1.17943e-08
1.17962e-08
1.17982e-08
1.18001e-08
1.1802e-08
1.18039e-08
1.18057e-08
1.18075e-08
1.18092e-08
1.18111e-08
1.17909e-08
1.17923e-08
1.17942e-08
1.1796e-08
1.17979e-08
1.17998e-08
1.18018e-08
1.18038e-08
1.18058e-08
1.18077e-08
1.18096e-08
1.18115e-08
1.18133e-08
1.18152e-08
1.17942e-08
1.17957e-08
1.17977e-08
1.17995e-08
1.18015e-08
1.18034e-08
1.18055e-08
1.18075e-08
1.18095e-08
1.18115e-08
1.18135e-08
1.18154e-08
1.18172e-08
1.18191e-08
1.17977e-08
1.17993e-08
1.18012e-08
1.18031e-08
1.1805e-08
1.18071e-08
1.18091e-08
1.18112e-08
1.18133e-08
1.18153e-08
1.18174e-08
1.18193e-08
1.18212e-08
1.18231e-08
1.18012e-08
1.18029e-08
1.18047e-08
1.18066e-08
1.18086e-08
1.18106e-08
1.18127e-08
1.18149e-08
1.1817e-08
1.18191e-08
1.18211e-08
1.18231e-08
1.18251e-08
1.18269e-08
1.18046e-08
1.18064e-08
1.18082e-08
1.18101e-08
1.18121e-08
1.18142e-08
1.18163e-08
1.18184e-08
1.18206e-08
1.18227e-08
1.18249e-08
1.18269e-08
1.18289e-08
1.18308e-08
1.18079e-08
1.18097e-08
1.18115e-08
1.18135e-08
1.18155e-08
1.18176e-08
1.18197e-08
1.18219e-08
1.18241e-08
1.18263e-08
1.18284e-08
1.18305e-08
1.18326e-08
1.18345e-08
1.18112e-08
1.1813e-08
1.18148e-08
1.18168e-08
1.18188e-08
1.18209e-08
1.18231e-08
1.18253e-08
1.18275e-08
1.18297e-08
1.18319e-08
1.18341e-08
1.18362e-08
1.18382e-08
1.18144e-08
1.18161e-08
1.18179e-08
1.18199e-08
1.18219e-08
1.18241e-08
1.18263e-08
1.18285e-08
1.18308e-08
1.1833e-08
1.18353e-08
1.18376e-08
1.18398e-08
1.18419e-08
1.18175e-08
1.18192e-08
1.1821e-08
1.1823e-08
1.1825e-08
1.18271e-08
1.18294e-08
1.18316e-08
1.18339e-08
1.18362e-08
1.18385e-08
1.18409e-08
1.18432e-08
1.18453e-08
1.18201e-08
1.18218e-08
1.18237e-08
1.18257e-08
1.18278e-08
1.183e-08
1.18323e-08
1.18346e-08
1.18369e-08
1.18393e-08
1.18417e-08
1.18441e-08
1.18463e-08
1.18483e-08
1.18225e-08
1.18243e-08
1.18263e-08
1.18284e-08
1.18306e-08
1.18327e-08
1.1835e-08
1.18373e-08
1.18397e-08
1.18421e-08
1.18444e-08
1.18467e-08
1.18488e-08
1.18508e-08
1.17701e-08
1.17702e-08
1.1771e-08
1.17718e-08
1.17728e-08
1.17738e-08
1.17749e-08
1.17761e-08
1.17773e-08
1.17785e-08
1.17798e-08
1.1781e-08
1.17821e-08
1.17832e-08
1.17737e-08
1.17736e-08
1.17744e-08
1.17751e-08
1.1776e-08
1.1777e-08
1.17781e-08
1.17793e-08
1.17806e-08
1.17819e-08
1.17832e-08
1.17846e-08
1.17858e-08
1.17871e-08
1.1777e-08
1.17769e-08
1.17776e-08
1.17784e-08
1.17794e-08
1.17804e-08
1.17816e-08
1.17828e-08
1.1784e-08
1.17854e-08
1.17867e-08
1.1788e-08
1.17893e-08
1.17908e-08
1.17803e-08
1.17803e-08
1.1781e-08
1.17819e-08
1.17829e-08
1.17839e-08
1.17851e-08
1.17864e-08
1.17877e-08
1.1789e-08
1.17904e-08
1.17918e-08
1.17931e-08
1.17947e-08
1.17834e-08
1.17837e-08
1.17845e-08
1.17854e-08
1.17864e-08
1.17876e-08
1.17888e-08
1.17901e-08
1.17914e-08
1.17928e-08
1.17942e-08
1.17956e-08
1.1797e-08
1.17985e-08
1.17867e-08
1.17873e-08
1.17881e-08
1.1789e-08
1.17901e-08
1.17913e-08
1.17925e-08
1.17939e-08
1.17953e-08
1.17967e-08
1.17982e-08
1.17997e-08
1.18011e-08
1.18026e-08
1.17901e-08
1.17908e-08
1.17917e-08
1.17927e-08
1.17938e-08
1.1795e-08
1.17964e-08
1.17978e-08
1.17992e-08
1.18007e-08
1.18022e-08
1.18038e-08
1.18053e-08
1.18067e-08
1.17936e-08
1.17944e-08
1.17953e-08
1.17964e-08
1.17975e-08
1.17988e-08
1.18002e-08
1.18017e-08
1.18032e-08
1.18048e-08
1.18064e-08
1.18079e-08
1.18095e-08
1.18109e-08
1.1797e-08
1.17979e-08
1.17988e-08
1.18e-08
1.18013e-08
1.18026e-08
1.18041e-08
1.18056e-08
1.18072e-08
1.18088e-08
1.18104e-08
1.1812e-08
1.18137e-08
1.18151e-08
1.18005e-08
1.18014e-08
1.18024e-08
1.18036e-08
1.1805e-08
1.18064e-08
1.1808e-08
1.18096e-08
1.18112e-08
1.18129e-08
1.18146e-08
1.18162e-08
1.1818e-08
1.18194e-08
1.18038e-08
1.18048e-08
1.18058e-08
1.18072e-08
1.18086e-08
1.18102e-08
1.18118e-08
1.18135e-08
1.18152e-08
1.18169e-08
1.18186e-08
1.18204e-08
1.18222e-08
1.18237e-08
1.18072e-08
1.18082e-08
1.18093e-08
1.18107e-08
1.18122e-08
1.18139e-08
1.18155e-08
1.18173e-08
1.1819e-08
1.18208e-08
1.18227e-08
1.18245e-08
1.18264e-08
1.1828e-08
1.18102e-08
1.18112e-08
1.18126e-08
1.18141e-08
1.18157e-08
1.18174e-08
1.18192e-08
1.1821e-08
1.18229e-08
1.18247e-08
1.18267e-08
1.18286e-08
1.18305e-08
1.18321e-08
1.18131e-08
1.18143e-08
1.18159e-08
1.18175e-08
1.18192e-08