/*--------------------------------*- C++ -*----------------------------------*\
| =========                 |                                                 |
| \\      /  F ield         | OpenFOAM: The Open Source CFD Toolbox           |
|  \\    /   O peration     | Version:  v2106                                 |
|   \\  /    A nd           | Website:  www.openfoam.com                      |
|    \\/     M anipulation  |                                                 |
\*---------------------------------------------------------------------------*/
FoamFile
{
    version     2.0;
    format      ascii;
    arch        "LSB;label=32;scalar=64";
    class       volScalarField;
    location    "0.000192";
    object      k;
}
// * * * * * * * * * * * * * * * * * * * * * * * * * * * * * * * * * * * * * //

dimensions      [0 2 -2 0 0 0 0];

internalField   nonuniform List<scalar> 
17920
(
2.27156e-12
2.27164e-12
2.27154e-12
2.27162e-12
2.27153e-12
2.27161e-12
2.27152e-12
2.27159e-12
2.27151e-12
2.27158e-12
2.2715e-12
2.27157e-12
2.27149e-12
2.27157e-12
2.27149e-12
2.27156e-12
2.27148e-12
2.27156e-12
2.27148e-12
2.27156e-12
2.27148e-12
2.27156e-12
2.27149e-12
2.27157e-12
2.2715e-12
2.27158e-12
2.2715e-12
2.27158e-12
2.26663e-12
2.26668e-12
2.26674e-12
2.2668e-12
2.26686e-12
2.26693e-12
2.26699e-12
2.26706e-12
2.26714e-12
2.26721e-12
2.2673e-12
2.26738e-12
2.26747e-12
2.26756e-12
2.26666e-12
2.26672e-12
2.26677e-12
2.26684e-12
2.2669e-12
2.26697e-12
2.26704e-12
2.26711e-12
2.26719e-12
2.26727e-12
2.26735e-12
2.26743e-12
2.26751e-12
2.2676e-12
2.26671e-12
2.26676e-12
2.26682e-12
2.26688e-12
2.26695e-12
2.26702e-12
2.26709e-12
2.26716e-12
2.26723e-12
2.26731e-12
2.26739e-12
2.26747e-12
2.26756e-12
2.26765e-12
2.26675e-12
2.2668e-12
2.26687e-12
2.26693e-12
2.26699e-12
2.26706e-12
2.26713e-12
2.26721e-12
2.26728e-12
2.26736e-12
2.26744e-12
2.26752e-12
2.26761e-12
2.26769e-12
2.2668e-12
2.26685e-12
2.26691e-12
2.26698e-12
2.26704e-12
2.26711e-12
2.26718e-12
2.26726e-12
2.26733e-12
2.26741e-12
2.26749e-12
2.26757e-12
2.26765e-12
2.26774e-12
2.26684e-12
2.2669e-12
2.26696e-12
2.26703e-12
2.26709e-12
2.26716e-12
2.26723e-12
2.26731e-12
2.26738e-12
2.26746e-12
2.26754e-12
2.26762e-12
2.2677e-12
2.26778e-12
2.26689e-12
2.26695e-12
2.26701e-12
2.26708e-12
2.26714e-12
2.26721e-12
2.26728e-12
2.26736e-12
2.26743e-12
2.26751e-12
2.26759e-12
2.26767e-12
2.26775e-12
2.26783e-12
2.26694e-12
2.267e-12
2.26707e-12
2.26713e-12
2.2672e-12
2.26727e-12
2.26734e-12
2.26741e-12
2.26749e-12
2.26756e-12
2.26764e-12
2.26772e-12
2.2678e-12
2.26788e-12
2.267e-12
2.26706e-12
2.26712e-12
2.26718e-12
2.26725e-12
2.26732e-12
2.26739e-12
2.26746e-12
2.26754e-12
2.26762e-12
2.2677e-12
2.26777e-12
2.26785e-12
2.26793e-12
2.26705e-12
2.26711e-12
2.26717e-12
2.26724e-12
2.26731e-12
2.26738e-12
2.26745e-12
2.26752e-12
2.2676e-12
2.26767e-12
2.26775e-12
2.26783e-12
2.26791e-12
2.26799e-12
2.2671e-12
2.26716e-12
2.26723e-12
2.26729e-12
2.26736e-12
2.26743e-12
2.26751e-12
2.26758e-12
2.26766e-12
2.26773e-12
2.26781e-12
2.26789e-12
2.26797e-12
2.26804e-12
2.26716e-12
2.26722e-12
2.26728e-12
2.26735e-12
2.26742e-12
2.26749e-12
2.26757e-12
2.26764e-12
2.26772e-12
2.26779e-12
2.26787e-12
2.26795e-12
2.26803e-12
2.2681e-12
2.26722e-12
2.26728e-12
2.26734e-12
2.26741e-12
2.26748e-12
2.26755e-12
2.26763e-12
2.2677e-12
2.26778e-12
2.26785e-12
2.26793e-12
2.26801e-12
2.26809e-12
2.26817e-12
2.26727e-12
2.26734e-12
2.2674e-12
2.26747e-12
2.26754e-12
2.26762e-12
2.26769e-12
2.26776e-12
2.26784e-12
2.26791e-12
2.26799e-12
2.26807e-12
2.26815e-12
2.26823e-12
2.26272e-12
2.26275e-12
2.2628e-12
2.26284e-12
2.26289e-12
2.26294e-12
2.26299e-12
2.26304e-12
2.26309e-12
2.26315e-12
2.2632e-12
2.26327e-12
2.26333e-12
2.2634e-12
2.26277e-12
2.26281e-12
2.26285e-12
2.2629e-12
2.26294e-12
2.26299e-12
2.26305e-12
2.2631e-12
2.26316e-12
2.26322e-12
2.26328e-12
2.26334e-12
2.2634e-12
2.26348e-12
2.26283e-12
2.26287e-12
2.26291e-12
2.26296e-12
2.26301e-12
2.26306e-12
2.26311e-12
2.26317e-12
2.26322e-12
2.26328e-12
2.26334e-12
2.2634e-12
2.26347e-12
2.26354e-12
2.2629e-12
2.26293e-12
2.26298e-12
2.26302e-12
2.26307e-12
2.26312e-12
2.26318e-12
2.26323e-12
2.26329e-12
2.26335e-12
2.26341e-12
2.26348e-12
2.26354e-12
2.26361e-12
2.26297e-12
2.263e-12
2.26305e-12
2.26309e-12
2.26314e-12
2.26319e-12
2.26325e-12
2.2633e-12
2.26336e-12
2.26342e-12
2.26348e-12
2.26355e-12
2.26361e-12
2.26368e-12
2.26304e-12
2.26308e-12
2.26312e-12
2.26316e-12
2.26321e-12
2.26326e-12
2.26332e-12
2.26337e-12
2.26343e-12
2.26349e-12
2.26355e-12
2.26362e-12
2.26368e-12
2.26375e-12
2.26311e-12
2.26315e-12
2.26319e-12
2.26324e-12
2.26329e-12
2.26334e-12
2.26339e-12
2.26345e-12
2.2635e-12
2.26356e-12
2.26363e-12
2.26369e-12
2.26376e-12
2.26382e-12
2.26319e-12
2.26323e-12
2.26327e-12
2.26332e-12
2.26336e-12
2.26341e-12
2.26347e-12
2.26352e-12
2.26358e-12
2.26364e-12
2.2637e-12
2.26377e-12
2.26383e-12
2.2639e-12
2.26326e-12
2.26331e-12
2.26335e-12
2.26339e-12
2.26344e-12
2.26349e-12
2.26354e-12
2.2636e-12
2.26366e-12
2.26372e-12
2.26378e-12
2.26384e-12
2.26391e-12
2.26397e-12
2.26334e-12
2.26339e-12
2.26343e-12
2.26348e-12
2.26352e-12
2.26357e-12
2.26363e-12
2.26368e-12
2.26374e-12
2.2638e-12
2.26386e-12
2.26392e-12
2.26398e-12
2.26404e-12
2.26342e-12
2.26347e-12
2.26351e-12
2.26356e-12
2.2636e-12
2.26366e-12
2.26371e-12
2.26376e-12
2.26382e-12
2.26388e-12
2.26394e-12
2.264e-12
2.26406e-12
2.26412e-12
2.2635e-12
2.26355e-12
2.26359e-12
2.26364e-12
2.26369e-12
2.26374e-12
2.26379e-12
2.26385e-12
2.26391e-12
2.26396e-12
2.26402e-12
2.26408e-12
2.26414e-12
2.2642e-12
2.26358e-12
2.26363e-12
2.26367e-12
2.26372e-12
2.26377e-12
2.26383e-12
2.26388e-12
2.26394e-12
2.26399e-12
2.26405e-12
2.26411e-12
2.26416e-12
2.26422e-12
2.26428e-12
2.26367e-12
2.26372e-12
2.26376e-12
2.26381e-12
2.26386e-12
2.26391e-12
2.26397e-12
2.26402e-12
2.26408e-12
2.26413e-12
2.26419e-12
2.26425e-12
2.26431e-12
2.26437e-12
2.25906e-12
2.25907e-12
2.25909e-12
2.25912e-12
2.25914e-12
2.25917e-12
2.25919e-12
2.25922e-12
2.25925e-12
2.25928e-12
2.25931e-12
2.25934e-12
2.25937e-12
2.25941e-12
2.25911e-12
2.25912e-12
2.25914e-12
2.25917e-12
2.25919e-12
2.25922e-12
2.25925e-12
2.25928e-12
2.25931e-12
2.25934e-12
2.25937e-12
2.2594e-12
2.25944e-12
2.25948e-12
2.25916e-12
2.25917e-12
2.2592e-12
2.25922e-12
2.25925e-12
2.25928e-12
2.2593e-12
2.25933e-12
2.25936e-12
2.25939e-12
2.25943e-12
2.25946e-12
2.2595e-12
2.25954e-12
2.25922e-12
2.25923e-12
2.25926e-12
2.25928e-12
2.25931e-12
2.25933e-12
2.25936e-12
2.25939e-12
2.25942e-12
2.25946e-12
2.25949e-12
2.25953e-12
2.25956e-12
2.25961e-12
2.25928e-12
2.2593e-12
2.25932e-12
2.25934e-12
2.25937e-12
2.25939e-12
2.25942e-12
2.25945e-12
2.25948e-12
2.25952e-12
2.25955e-12
2.25959e-12
2.25963e-12
2.25967e-12
2.25934e-12
2.25936e-12
2.25938e-12
2.25941e-12
2.25943e-12
2.25946e-12
2.25949e-12
2.25952e-12
2.25955e-12
2.25958e-12
2.25962e-12
2.25965e-12
2.25969e-12
2.25973e-12
2.25941e-12
2.25943e-12
2.25945e-12
2.25947e-12
2.2595e-12
2.25952e-12
2.25955e-12
2.25958e-12
2.25962e-12
2.25965e-12
2.25968e-12
2.25972e-12
2.25976e-12
2.2598e-12
2.25948e-12
2.2595e-12
2.25952e-12
2.25954e-12
2.25957e-12
2.25959e-12
2.25962e-12
2.25965e-12
2.25968e-12
2.25972e-12
2.25975e-12
2.25979e-12
2.25983e-12
2.25986e-12
2.25955e-12
2.25957e-12
2.25959e-12
2.25961e-12
2.25964e-12
2.25967e-12
2.25969e-12
2.25972e-12
2.25975e-12
2.25979e-12
2.25982e-12
2.25986e-12
2.25989e-12
2.25993e-12
2.25962e-12
2.25964e-12
2.25966e-12
2.25969e-12
2.25971e-12
2.25974e-12
2.25977e-12
2.2598e-12
2.25983e-12
2.25986e-12
2.25989e-12
2.25993e-12
2.25996e-12
2.26e-12
2.25969e-12
2.25972e-12
2.25974e-12
2.25976e-12
2.25979e-12
2.25981e-12
2.25984e-12
2.25987e-12
2.2599e-12
2.25993e-12
2.25996e-12
2.26e-12
2.26003e-12
2.26006e-12
2.25977e-12
2.25979e-12
2.25981e-12
2.25984e-12
2.25986e-12
2.25989e-12
2.25992e-12
2.25995e-12
2.25998e-12
2.26001e-12
2.26004e-12
2.26007e-12
2.2601e-12
2.26013e-12
2.25984e-12
2.25987e-12
2.25989e-12
2.25991e-12
2.25994e-12
2.25997e-12
2.25999e-12
2.26002e-12
2.26005e-12
2.26008e-12
2.26011e-12
2.26014e-12
2.26017e-12
2.2602e-12
2.25993e-12
2.25995e-12
2.25997e-12
2.25999e-12
2.26002e-12
2.26004e-12
2.26007e-12
2.2601e-12
2.26013e-12
2.26016e-12
2.26018e-12
2.26021e-12
2.26024e-12
2.26028e-12
2.25568e-12
2.25568e-12
2.25568e-12
2.25569e-12
2.2557e-12
2.2557e-12
2.25571e-12
2.25572e-12
2.25573e-12
2.25573e-12
2.25574e-12
2.25574e-12
2.25575e-12
2.25576e-12
2.25572e-12
2.25572e-12
2.25572e-12
2.25573e-12
2.25574e-12
2.25574e-12
2.25575e-12
2.25576e-12
2.25576e-12
2.25577e-12
2.25578e-12
2.25579e-12
2.25579e-12
2.2558e-12
2.25575e-12
2.25575e-12
2.25576e-12
2.25577e-12
2.25577e-12
2.25578e-12
2.25579e-12
2.2558e-12
2.2558e-12
2.25581e-12
2.25582e-12
2.25583e-12
2.25583e-12
2.25584e-12
2.25579e-12
2.25579e-12
2.2558e-12
2.25581e-12
2.25581e-12
2.25582e-12
2.25583e-12
2.25584e-12
2.25584e-12
2.25585e-12
2.25586e-12
2.25587e-12
2.25588e-12
2.25589e-12
2.25583e-12
2.25584e-12
2.25584e-12
2.25585e-12
2.25586e-12
2.25586e-12
2.25587e-12
2.25588e-12
2.25589e-12
2.25589e-12
2.2559e-12
2.25591e-12
2.25592e-12
2.25593e-12
2.25587e-12
2.25588e-12
2.25588e-12
2.25589e-12
2.2559e-12
2.25591e-12
2.25591e-12
2.25592e-12
2.25593e-12
2.25594e-12
2.25594e-12
2.25595e-12
2.25596e-12
2.25597e-12
2.25592e-12
2.25592e-12
2.25593e-12
2.25594e-12
2.25594e-12
2.25595e-12
2.25596e-12
2.25596e-12
2.25597e-12
2.25598e-12
2.25599e-12
2.256e-12
2.25601e-12
2.25602e-12
2.25596e-12
2.25597e-12
2.25597e-12
2.25598e-12
2.25599e-12
2.25599e-12
2.256e-12
2.25601e-12
2.25602e-12
2.25602e-12
2.25603e-12
2.25604e-12
2.25605e-12
2.25606e-12
2.25601e-12
2.25601e-12
2.25602e-12
2.25603e-12
2.25603e-12
2.25604e-12
2.25605e-12
2.25605e-12
2.25606e-12
2.25607e-12
2.25608e-12
2.25609e-12
2.25609e-12
2.2561e-12
2.25605e-12
2.25606e-12
2.25607e-12
2.25607e-12
2.25608e-12
2.25609e-12
2.25609e-12
2.2561e-12
2.25611e-12
2.25611e-12
2.25612e-12
2.25613e-12
2.25614e-12
2.25614e-12
2.2561e-12
2.25611e-12
2.25611e-12
2.25612e-12
2.25613e-12
2.25613e-12
2.25614e-12
2.25614e-12
2.25615e-12
2.25616e-12
2.25617e-12
2.25617e-12
2.25618e-12
2.25619e-12
2.25615e-12
2.25616e-12
2.25616e-12
2.25617e-12
2.25617e-12
2.25618e-12
2.25618e-12
2.25619e-12
2.2562e-12
2.2562e-12
2.25621e-12
2.25622e-12
2.25623e-12
2.25623e-12
2.25619e-12
2.2562e-12
2.25621e-12
2.25621e-12
2.25622e-12
2.25622e-12
2.25623e-12
2.25624e-12
2.25624e-12
2.25625e-12
2.25625e-12
2.25626e-12
2.25627e-12
2.25627e-12
2.25625e-12
2.25625e-12
2.25626e-12
2.25626e-12
2.25627e-12
2.25627e-12
2.25628e-12
2.25628e-12
2.25629e-12
2.25629e-12
2.2563e-12
2.2563e-12
2.25631e-12
2.25631e-12
2.25258e-12
2.25257e-12
2.25257e-12
2.25257e-12
2.25256e-12
2.25256e-12
2.25256e-12
2.25255e-12
2.25255e-12
2.25254e-12
2.25253e-12
2.25252e-12
2.25251e-12
2.2525e-12
2.2526e-12
2.2526e-12
2.25259e-12
2.25259e-12
2.25259e-12
2.25258e-12
2.25258e-12
2.25257e-12
2.25257e-12
2.25256e-12
2.25255e-12
2.25254e-12
2.25253e-12
2.25252e-12
2.25262e-12
2.25262e-12
2.25262e-12
2.25261e-12
2.25261e-12
2.25261e-12
2.2526e-12
2.2526e-12
2.25259e-12
2.25258e-12
2.25257e-12
2.25256e-12
2.25255e-12
2.25254e-12
2.25264e-12
2.25264e-12
2.25264e-12
2.25264e-12
2.25263e-12
2.25263e-12
2.25262e-12
2.25262e-12
2.25261e-12
2.2526e-12
2.25259e-12
2.25258e-12
2.25257e-12
2.25256e-12
2.25266e-12
2.25266e-12
2.25266e-12
2.25266e-12
2.25265e-12
2.25265e-12
2.25265e-12
2.25264e-12
2.25263e-12
2.25262e-12
2.25262e-12
2.2526e-12
2.25259e-12
2.25258e-12
2.25268e-12
2.25268e-12
2.25268e-12
2.25268e-12
2.25268e-12
2.25267e-12
2.25267e-12
2.25266e-12
2.25265e-12
2.25265e-12
2.25264e-12
2.25262e-12
2.25261e-12
2.2526e-12
2.2527e-12
2.2527e-12
2.2527e-12
2.2527e-12
2.2527e-12
2.25269e-12
2.25269e-12
2.25268e-12
2.25267e-12
2.25267e-12
2.25266e-12
2.25264e-12
2.25263e-12
2.25262e-12
2.25272e-12
2.25272e-12
2.25272e-12
2.25272e-12
2.25272e-12
2.25271e-12
2.25271e-12
2.2527e-12
2.25269e-12
2.25268e-12
2.25267e-12
2.25266e-12
2.25265e-12
2.25264e-12
2.25274e-12
2.25274e-12
2.25274e-12
2.25274e-12
2.25273e-12
2.25273e-12
2.25272e-12
2.25272e-12
2.25271e-12
2.2527e-12
2.25269e-12
2.25268e-12
2.25267e-12
2.25266e-12
2.25275e-12
2.25275e-12
2.25275e-12
2.25275e-12
2.25275e-12
2.25275e-12
2.25274e-12
2.25273e-12
2.25273e-12
2.25272e-12
2.25271e-12
2.2527e-12
2.25269e-12
2.25267e-12
2.25277e-12
2.25277e-12
2.25277e-12
2.25277e-12
2.25277e-12
2.25276e-12
2.25276e-12
2.25275e-12
2.25274e-12
2.25273e-12
2.25272e-12
2.25271e-12
2.2527e-12
2.25269e-12
2.25279e-12
2.25279e-12
2.25279e-12
2.25278e-12
2.25278e-12
2.25278e-12
2.25277e-12
2.25276e-12
2.25276e-12
2.25275e-12
2.25274e-12
2.25273e-12
2.25272e-12
2.2527e-12
2.2528e-12
2.2528e-12
2.2528e-12
2.2528e-12
2.2528e-12
2.25279e-12
2.25278e-12
2.25278e-12
2.25277e-12
2.25276e-12
2.25275e-12
2.25274e-12
2.25273e-12
2.25272e-12
2.25282e-12
2.25282e-12
2.25282e-12
2.25281e-12
2.25281e-12
2.2528e-12
2.2528e-12
2.25279e-12
2.25278e-12
2.25277e-12
2.25276e-12
2.25275e-12
2.25274e-12
2.25273e-12
2.24971e-12
2.24971e-12
2.2497e-12
2.2497e-12
2.2497e-12
2.24969e-12
2.24969e-12
2.24968e-12
2.24967e-12
2.24965e-12
2.24964e-12
2.24962e-12
2.2496e-12
2.24958e-12
2.24972e-12
2.24972e-12
2.24972e-12
2.24972e-12
2.24971e-12
2.24971e-12
2.2497e-12
2.24969e-12
2.24968e-12
2.24966e-12
2.24965e-12
2.24963e-12
2.24961e-12
2.24959e-12
2.24973e-12
2.24973e-12
2.24973e-12
2.24973e-12
2.24972e-12
2.24972e-12
2.24971e-12
2.2497e-12
2.24969e-12
2.24967e-12
2.24966e-12
2.24964e-12
2.24962e-12
2.2496e-12
2.24974e-12
2.24974e-12
2.24974e-12
2.24974e-12
2.24974e-12
2.24973e-12
2.24972e-12
2.24971e-12
2.2497e-12
2.24968e-12
2.24967e-12
2.24965e-12
2.24963e-12
2.2496e-12
2.24975e-12
2.24975e-12
2.24975e-12
2.24975e-12
2.24974e-12
2.24974e-12
2.24973e-12
2.24972e-12
2.24971e-12
2.24969e-12
2.24967e-12
2.24966e-12
2.24963e-12
2.24961e-12
2.24976e-12
2.24976e-12
2.24976e-12
2.24975e-12
2.24975e-12
2.24974e-12
2.24974e-12
2.24973e-12
2.24971e-12
2.2497e-12
2.24968e-12
2.24966e-12
2.24964e-12
2.24962e-12
2.24976e-12
2.24976e-12
2.24976e-12
2.24976e-12
2.24975e-12
2.24975e-12
2.24974e-12
2.24973e-12
2.24972e-12
2.2497e-12
2.24968e-12
2.24967e-12
2.24964e-12
2.24962e-12
2.24976e-12
2.24976e-12
2.24976e-12
2.24976e-12
2.24976e-12
2.24975e-12
2.24974e-12
2.24973e-12
2.24972e-12
2.2497e-12
2.24969e-12
2.24967e-12
2.24965e-12
2.24962e-12
2.24976e-12
2.24976e-12
2.24976e-12
2.24976e-12
2.24976e-12
2.24975e-12
2.24974e-12
2.24973e-12
2.24972e-12
2.2497e-12
2.24968e-12
2.24967e-12
2.24965e-12
2.24962e-12
2.24976e-12
2.24976e-12
2.24976e-12
2.24976e-12
2.24975e-12
2.24975e-12
2.24974e-12
2.24973e-12
2.24971e-12
2.2497e-12
2.24968e-12
2.24966e-12
2.24964e-12
2.24962e-12
2.24975e-12
2.24975e-12
2.24975e-12
2.24975e-12
2.24975e-12
2.24974e-12
2.24973e-12
2.24972e-12
2.24971e-12
2.24969e-12
2.24968e-12
2.24966e-12
2.24964e-12
2.24962e-12
2.24975e-12
2.24975e-12
2.24975e-12
2.24974e-12
2.24974e-12
2.24973e-12
2.24972e-12
2.24971e-12
2.2497e-12
2.24969e-12
2.24967e-12
2.24965e-12
2.24963e-12
2.24961e-12
2.24974e-12
2.24974e-12
2.24974e-12
2.24974e-12
2.24973e-12
2.24972e-12
2.24971e-12
2.2497e-12
2.24969e-12
2.24967e-12
2.24966e-12
2.24964e-12
2.24962e-12
2.24961e-12
2.24973e-12
2.24973e-12
2.24973e-12
2.24973e-12
2.24972e-12
2.24971e-12
2.2497e-12
2.24969e-12
2.24968e-12
2.24966e-12
2.24965e-12
2.24963e-12
2.24961e-12
2.2496e-12
2.24704e-12
2.24704e-12
2.24705e-12
2.24705e-12
2.24705e-12
2.24704e-12
2.24704e-12
2.24703e-12
2.24702e-12
2.24701e-12
2.247e-12
2.24698e-12
2.24696e-12
2.24694e-12
2.24705e-12
2.24706e-12
2.24706e-12
2.24706e-12
2.24706e-12
2.24705e-12
2.24705e-12
2.24704e-12
2.24703e-12
2.24702e-12
2.247e-12
2.24698e-12
2.24697e-12
2.24694e-12
2.24706e-12
2.24706e-12
2.24707e-12
2.24707e-12
2.24707e-12
2.24706e-12
2.24706e-12
2.24705e-12
2.24704e-12
2.24703e-12
2.24701e-12
2.24699e-12
2.24697e-12
2.24695e-12
2.24706e-12
2.24707e-12
2.24707e-12
2.24707e-12
2.24707e-12
2.24707e-12
2.24706e-12
2.24705e-12
2.24704e-12
2.24703e-12
2.24701e-12
2.24699e-12
2.24697e-12
2.24695e-12
2.24707e-12
2.24707e-12
2.24708e-12
2.24708e-12
2.24708e-12
2.24707e-12
2.24707e-12
2.24706e-12
2.24705e-12
2.24703e-12
2.24702e-12
2.247e-12
2.24697e-12
2.24695e-12
2.24706e-12
2.24707e-12
2.24708e-12
2.24708e-12
2.24708e-12
2.24707e-12
2.24707e-12
2.24706e-12
2.24705e-12
2.24703e-12
2.24702e-12
2.247e-12
2.24697e-12
2.24695e-12
2.24706e-12
2.24707e-12
2.24707e-12
2.24707e-12
2.24707e-12
2.24707e-12
2.24706e-12
2.24705e-12
2.24704e-12
2.24703e-12
2.24701e-12
2.24699e-12
2.24697e-12
2.24695e-12
2.24706e-12
2.24706e-12
2.24707e-12
2.24707e-12
2.24707e-12
2.24706e-12
2.24706e-12
2.24705e-12
2.24704e-12
2.24702e-12
2.24701e-12
2.24699e-12
2.24697e-12
2.24694e-12
2.24705e-12
2.24705e-12
2.24706e-12
2.24706e-12
2.24706e-12
2.24706e-12
2.24705e-12
2.24704e-12
2.24703e-12
2.24701e-12
2.247e-12
2.24698e-12
2.24696e-12
2.24694e-12
2.24704e-12
2.24704e-12
2.24705e-12
2.24705e-12
2.24705e-12
2.24704e-12
2.24704e-12
2.24703e-12
2.24702e-12
2.247e-12
2.24699e-12
2.24697e-12
2.24695e-12
2.24693e-12
2.24702e-12
2.24703e-12
2.24703e-12
2.24703e-12
2.24703e-12
2.24703e-12
2.24702e-12
2.24701e-12
2.247e-12
2.24699e-12
2.24697e-12
2.24695e-12
2.24693e-12
2.24691e-12
2.24701e-12
2.24701e-12
2.24702e-12
2.24702e-12
2.24702e-12
2.24701e-12
2.24701e-12
2.247e-12
2.24699e-12
2.24697e-12
2.24696e-12
2.24694e-12
2.24692e-12
2.2469e-12
2.24699e-12
2.247e-12
2.247e-12
2.247e-12
2.247e-12
2.24699e-12
2.24699e-12
2.24698e-12
2.24697e-12
2.24695e-12
2.24694e-12
2.24692e-12
2.2469e-12
2.24688e-12
2.24697e-12
2.24698e-12
2.24698e-12
2.24698e-12
2.24698e-12
2.24697e-12
2.24697e-12
2.24696e-12
2.24695e-12
2.24693e-12
2.24692e-12
2.2469e-12
2.24688e-12
2.24687e-12
2.24456e-12
2.24457e-12
2.24457e-12
2.24458e-12
2.24458e-12
2.24458e-12
2.24458e-12
2.24458e-12
2.24457e-12
2.24456e-12
2.24455e-12
2.24454e-12
2.24452e-12
2.2445e-12
2.24457e-12
2.24458e-12
2.24458e-12
2.24459e-12
2.24459e-12
2.24459e-12
2.24459e-12
2.24459e-12
2.24458e-12
2.24457e-12
2.24456e-12
2.24455e-12
2.24453e-12
2.24451e-12
2.24457e-12
2.24458e-12
2.24459e-12
2.2446e-12
2.2446e-12
2.2446e-12
2.2446e-12
2.2446e-12
2.24459e-12
2.24458e-12
2.24457e-12
2.24455e-12
2.24453e-12
2.24451e-12
2.24458e-12
2.24459e-12
2.2446e-12
2.2446e-12
2.24461e-12
2.24461e-12
2.24461e-12
2.2446e-12
2.24459e-12
2.24458e-12
2.24457e-12
2.24456e-12
2.24454e-12
2.24452e-12
2.24458e-12
2.24459e-12
2.2446e-12
2.24461e-12
2.24461e-12
2.24461e-12
2.24461e-12
2.2446e-12
2.2446e-12
2.24459e-12
2.24457e-12
2.24456e-12
2.24454e-12
2.24452e-12
2.24458e-12
2.24459e-12
2.2446e-12
2.24461e-12
2.24461e-12
2.24461e-12
2.24461e-12
2.2446e-12
2.2446e-12
2.24459e-12
2.24457e-12
2.24456e-12
2.24454e-12
2.24452e-12
2.24458e-12
2.24459e-12
2.2446e-12
2.2446e-12
2.24461e-12
2.24461e-12
2.24461e-12
2.2446e-12
2.24459e-12
2.24458e-12
2.24457e-12
2.24456e-12
2.24454e-12
2.24452e-12
2.24457e-12
2.24458e-12
2.24459e-12
2.2446e-12
2.2446e-12
2.2446e-12
2.2446e-12
2.2446e-12
2.24459e-12
2.24458e-12
2.24457e-12
2.24455e-12
2.24453e-12
2.24451e-12
2.24456e-12
2.24457e-12
2.24458e-12
2.24459e-12
2.24459e-12
2.24459e-12
2.24459e-12
2.24459e-12
2.24458e-12
2.24457e-12
2.24456e-12
2.24454e-12
2.24452e-12
2.2445e-12
2.24455e-12
2.24456e-12
2.24457e-12
2.24458e-12
2.24458e-12
2.24458e-12
2.24458e-12
2.24458e-12
2.24457e-12
2.24456e-12
2.24455e-12
2.24453e-12
2.24451e-12
2.24449e-12
2.24454e-12
2.24455e-12
2.24456e-12
2.24456e-12
2.24457e-12
2.24457e-12
2.24457e-12
2.24456e-12
2.24456e-12
2.24455e-12
2.24453e-12
2.24452e-12
2.2445e-12
2.24448e-12
2.24452e-12
2.24453e-12
2.24454e-12
2.24455e-12
2.24455e-12
2.24455e-12
2.24455e-12
2.24455e-12
2.24454e-12
2.24453e-12
2.24452e-12
2.2445e-12
2.24448e-12
2.24447e-12
2.24451e-12
2.24452e-12
2.24452e-12
2.24453e-12
2.24453e-12
2.24453e-12
2.24453e-12
2.24453e-12
2.24452e-12
2.24451e-12
2.2445e-12
2.24448e-12
2.24447e-12
2.24445e-12
2.24449e-12
2.24449e-12
2.2445e-12
2.24451e-12
2.24451e-12
2.24451e-12
2.24451e-12
2.2445e-12
2.2445e-12
2.24449e-12
2.24448e-12
2.24446e-12
2.24445e-12
2.24443e-12
2.24225e-12
2.24226e-12
2.24227e-12
2.24228e-12
2.24229e-12
2.24229e-12
2.24229e-12
2.24229e-12
2.24229e-12
2.24228e-12
2.24227e-12
2.24226e-12
2.24225e-12
2.24224e-12
2.24226e-12
2.24227e-12
2.24228e-12
2.24229e-12
2.2423e-12
2.2423e-12
2.2423e-12
2.2423e-12
2.2423e-12
2.24229e-12
2.24229e-12
2.24228e-12
2.24226e-12
2.24225e-12
2.24227e-12
2.24228e-12
2.24229e-12
2.2423e-12
2.24231e-12
2.24231e-12
2.24231e-12
2.24231e-12
2.24231e-12
2.2423e-12
2.2423e-12
2.24228e-12
2.24227e-12
2.24226e-12
2.24228e-12
2.24229e-12
2.2423e-12
2.24231e-12
2.24232e-12
2.24232e-12
2.24232e-12
2.24232e-12
2.24232e-12
2.24231e-12
2.2423e-12
2.24229e-12
2.24228e-12
2.24226e-12
2.24228e-12
2.24229e-12
2.24231e-12
2.24231e-12
2.24232e-12
2.24233e-12
2.24233e-12
2.24233e-12
2.24232e-12
2.24232e-12
2.24231e-12
2.2423e-12
2.24228e-12
2.24227e-12
2.24228e-12
2.2423e-12
2.24231e-12
2.24232e-12
2.24232e-12
2.24233e-12
2.24233e-12
2.24233e-12
2.24232e-12
2.24232e-12
2.24231e-12
2.2423e-12
2.24228e-12
2.24227e-12
2.24228e-12
2.2423e-12
2.24231e-12
2.24232e-12
2.24232e-12
2.24233e-12
2.24233e-12
2.24233e-12
2.24232e-12
2.24232e-12
2.24231e-12
2.2423e-12
2.24228e-12
2.24227e-12
2.24228e-12
2.24229e-12
2.24231e-12
2.24231e-12
2.24232e-12
2.24233e-12
2.24233e-12
2.24233e-12
2.24232e-12
2.24232e-12
2.24231e-12
2.2423e-12
2.24228e-12
2.24227e-12
2.24227e-12
2.24229e-12
2.2423e-12
2.24231e-12
2.24232e-12
2.24232e-12
2.24232e-12
2.24232e-12
2.24232e-12
2.24231e-12
2.2423e-12
2.24229e-12
2.24228e-12
2.24226e-12
2.24227e-12
2.24228e-12
2.24229e-12
2.2423e-12
2.24231e-12
2.24231e-12
2.24231e-12
2.24231e-12
2.24231e-12
2.2423e-12
2.24229e-12
2.24228e-12
2.24227e-12
2.24225e-12
2.24226e-12
2.24227e-12
2.24228e-12
2.24229e-12
2.2423e-12
2.2423e-12
2.2423e-12
2.2423e-12
2.2423e-12
2.24229e-12
2.24228e-12
2.24227e-12
2.24226e-12
2.24224e-12
2.24224e-12
2.24226e-12
2.24227e-12
2.24228e-12
2.24228e-12
2.24229e-12
2.24229e-12
2.24229e-12
2.24229e-12
2.24228e-12
2.24227e-12
2.24226e-12
2.24225e-12
2.24223e-12
2.24223e-12
2.24224e-12
2.24225e-12
2.24226e-12
2.24227e-12
2.24227e-12
2.24227e-12
2.24227e-12
2.24227e-12
2.24227e-12
2.24226e-12
2.24225e-12
2.24223e-12
2.24222e-12
2.24221e-12
2.24222e-12
2.24223e-12
2.24224e-12
2.24225e-12
2.24225e-12
2.24226e-12
2.24226e-12
2.24225e-12
2.24225e-12
2.24224e-12
2.24223e-12
2.24222e-12
2.2422e-12
2.24012e-12
2.24013e-12
2.24014e-12
2.24015e-12
2.24015e-12
2.24016e-12
2.24016e-12
2.24016e-12
2.24016e-12
2.24015e-12
2.24015e-12
2.24014e-12
2.24013e-12
2.24012e-12
2.24012e-12
2.24014e-12
2.24015e-12
2.24016e-12
2.24016e-12
2.24017e-12
2.24017e-12
2.24017e-12
2.24017e-12
2.24017e-12
2.24016e-12
2.24015e-12
2.24014e-12
2.24014e-12
2.24013e-12
2.24015e-12
2.24016e-12
2.24017e-12
2.24017e-12
2.24018e-12
2.24018e-12
2.24018e-12
2.24018e-12
2.24018e-12
2.24017e-12
2.24016e-12
2.24015e-12
2.24014e-12
2.24014e-12
2.24015e-12
2.24017e-12
2.24017e-12
2.24018e-12
2.24019e-12
2.24019e-12
2.24019e-12
2.24019e-12
2.24019e-12
2.24018e-12
2.24017e-12
2.24016e-12
2.24015e-12
2.24015e-12
2.24016e-12
2.24017e-12
2.24018e-12
2.24019e-12
2.24019e-12
2.2402e-12
2.2402e-12
2.2402e-12
2.24019e-12
2.24019e-12
2.24018e-12
2.24017e-12
2.24016e-12
2.24015e-12
2.24016e-12
2.24018e-12
2.24018e-12
2.24019e-12
2.2402e-12
2.2402e-12
2.2402e-12
2.2402e-12
2.2402e-12
2.24019e-12
2.24018e-12
2.24017e-12
2.24016e-12
2.24015e-12
2.24017e-12
2.24018e-12
2.24019e-12
2.24019e-12
2.2402e-12
2.2402e-12
2.2402e-12
2.2402e-12
2.2402e-12
2.24019e-12
2.24018e-12
2.24017e-12
2.24016e-12
2.24015e-12
2.24017e-12
2.24018e-12
2.24019e-12
2.24019e-12
2.2402e-12
2.2402e-12
2.2402e-12
2.2402e-12
2.2402e-12
2.24019e-12
2.24018e-12
2.24017e-12
2.24016e-12
2.24015e-12
2.24016e-12
2.24017e-12
2.24018e-12
2.24019e-12
2.2402e-12
2.2402e-12
2.2402e-12
2.2402e-12
2.2402e-12
2.24019e-12
2.24018e-12
2.24017e-12
2.24016e-12
2.24015e-12
2.24016e-12
2.24017e-12
2.24018e-12
2.24019e-12
2.24019e-12
2.24019e-12
2.2402e-12
2.24019e-12
2.24019e-12
2.24019e-12
2.24018e-12
2.24017e-12
2.24016e-12
2.24014e-12
2.24015e-12
2.24016e-12
2.24017e-12
2.24018e-12
2.24019e-12
2.24019e-12
2.24019e-12
2.24019e-12
2.24018e-12
2.24018e-12
2.24017e-12
2.24016e-12
2.24015e-12
2.24013e-12
2.24014e-12
2.24015e-12
2.24016e-12
2.24017e-12
2.24018e-12
2.24018e-12
2.24018e-12
2.24018e-12
2.24018e-12
2.24017e-12
2.24016e-12
2.24015e-12
2.24014e-12
2.24012e-12
2.24013e-12
2.24014e-12
2.24015e-12
2.24016e-12
2.24017e-12
2.24017e-12
2.24017e-12
2.24017e-12
2.24017e-12
2.24016e-12
2.24015e-12
2.24014e-12
2.24013e-12
2.24011e-12
2.24012e-12
2.24013e-12
2.24014e-12
2.24015e-12
2.24015e-12
2.24016e-12
2.24016e-12
2.24016e-12
2.24015e-12
2.24015e-12
2.24014e-12
2.24013e-12
2.24012e-12
2.23814e-12
2.23815e-12
2.23816e-12
2.23816e-12
2.23817e-12
2.23817e-12
2.23817e-12
2.23817e-12
2.23817e-12
2.23817e-12
2.23816e-12
2.23816e-12
2.23815e-12
2.23815e-12
2.23814e-12
2.23815e-12
2.23816e-12
2.23817e-12
2.23817e-12
2.23818e-12
2.23818e-12
2.23818e-12
2.23818e-12
2.23817e-12
2.23817e-12
2.23817e-12
2.23816e-12
2.23816e-12
2.23815e-12
2.23816e-12
2.23817e-12
2.23817e-12
2.23818e-12
2.23818e-12
2.23819e-12
2.23819e-12
2.23819e-12
2.23818e-12
2.23818e-12
2.23818e-12
2.23817e-12
2.23817e-12
2.23816e-12
2.23817e-12
2.23817e-12
2.23818e-12
2.23819e-12
2.23819e-12
2.23819e-12
2.23819e-12
2.23819e-12
2.23819e-12
2.23819e-12
2.23818e-12
2.23818e-12
2.23817e-12
2.23816e-12
2.23817e-12
2.23818e-12
2.23818e-12
2.23819e-12
2.23819e-12
2.2382e-12
2.2382e-12
2.2382e-12
2.23819e-12
2.23819e-12
2.23819e-12
2.23818e-12
2.23818e-12
2.23816e-12
2.23817e-12
2.23818e-12
2.23819e-12
2.23819e-12
2.2382e-12
2.2382e-12
2.2382e-12
2.2382e-12
2.2382e-12
2.23819e-12
2.23819e-12
2.23819e-12
2.23818e-12
2.23817e-12
2.23818e-12
2.23818e-12
2.23819e-12
2.2382e-12
2.2382e-12
2.2382e-12
2.2382e-12
2.2382e-12
2.2382e-12
2.2382e-12
2.23819e-12
2.23819e-12
2.23818e-12
2.23817e-12
2.23818e-12
2.23818e-12
2.23819e-12
2.2382e-12
2.2382e-12
2.2382e-12
2.2382e-12
2.2382e-12
2.2382e-12
2.2382e-12
2.23819e-12
2.23819e-12
2.23818e-12
2.23817e-12
2.23818e-12
2.23818e-12
2.23819e-12
2.23819e-12
2.2382e-12
2.2382e-12
2.2382e-12
2.2382e-12
2.2382e-12
2.2382e-12
2.23819e-12
2.23819e-12
2.23818e-12
2.23816e-12
2.23817e-12
2.23818e-12
2.23819e-12
2.23819e-12
2.2382e-12
2.2382e-12
2.2382e-12
2.2382e-12
2.2382e-12
2.23819e-12
2.23819e-12
2.23818e-12
2.23818e-12
2.23816e-12
2.23817e-12
2.23818e-12
2.23818e-12
2.23819e-12
2.23819e-12
2.2382e-12
2.2382e-12
2.2382e-12
2.23819e-12
2.23819e-12
2.23819e-12
2.23818e-12
2.23817e-12
2.23816e-12
2.23816e-12
2.23817e-12
2.23818e-12
2.23818e-12
2.23819e-12
2.23819e-12
2.23819e-12
2.23819e-12
2.23819e-12
2.23819e-12
2.23818e-12
2.23818e-12
2.23817e-12
2.23815e-12
2.23816e-12
2.23816e-12
2.23817e-12
2.23818e-12
2.23818e-12
2.23818e-12
2.23819e-12
2.23819e-12
2.23818e-12
2.23818e-12
2.23818e-12
2.23817e-12
2.23816e-12
2.23814e-12
2.23815e-12
2.23816e-12
2.23816e-12
2.23817e-12
2.23817e-12
2.23818e-12
2.23818e-12
2.23818e-12
2.23818e-12
2.23818e-12
2.23817e-12
2.23817e-12
2.23816e-12
2.2363e-12
2.23631e-12
2.23631e-12
2.23631e-12
2.23631e-12
2.23632e-12
2.23632e-12
2.23631e-12
2.23631e-12
2.23631e-12
2.23631e-12
2.23631e-12
2.23631e-12
2.23631e-12
2.23631e-12
2.23631e-12
2.23631e-12
2.23631e-12
2.23632e-12
2.23632e-12
2.23632e-12
2.23632e-12
2.23632e-12
2.23631e-12
2.23631e-12
2.23631e-12
2.23631e-12
2.23631e-12
2.23631e-12
2.23631e-12
2.23631e-12
2.23631e-12
2.23632e-12
2.23632e-12
2.23632e-12
2.23632e-12
2.23632e-12
2.23632e-12
2.23632e-12
2.23632e-12
2.23631e-12
2.23631e-12
2.23631e-12
2.23631e-12
2.23631e-12
2.23632e-12
2.23632e-12
2.23632e-12
2.23632e-12
2.23632e-12
2.23632e-12
2.23632e-12
2.23632e-12
2.23632e-12
2.23632e-12
2.23632e-12
2.23631e-12
2.23631e-12
2.23632e-12
2.23632e-12
2.23632e-12
2.23632e-12
2.23632e-12
2.23632e-12
2.23632e-12
2.23632e-12
2.23632e-12
2.23632e-12
2.23632e-12
2.23632e-12
2.23631e-12
2.23631e-12
2.23632e-12
2.23632e-12
2.23632e-12
2.23632e-12
2.23632e-12
2.23632e-12
2.23632e-12
2.23632e-12
2.23632e-12
2.23632e-12
2.23632e-12
2.23632e-12
2.23631e-12
2.23631e-12
2.23632e-12
2.23632e-12
2.23632e-12
2.23632e-12
2.23632e-12
2.23632e-12
2.23632e-12
2.23632e-12
2.23632e-12
2.23632e-12
2.23632e-12
2.23632e-12
2.23631e-12
2.23631e-12
2.23632e-12
2.23632e-12
2.23632e-12
2.23632e-12
2.23632e-12
2.23632e-12
2.23632e-12
2.23632e-12
2.23632e-12
2.23632e-12
2.23632e-12
2.23632e-12
2.23631e-12
2.23631e-12
2.23632e-12
2.23632e-12
2.23632e-12
2.23632e-12
2.23632e-12
2.23632e-12
2.23632e-12
2.23632e-12
2.23632e-12
2.23632e-12
2.23632e-12
2.23632e-12
2.23631e-12
2.23631e-12
2.23631e-12
2.23632e-12
2.23632e-12
2.23632e-12
2.23632e-12
2.23632e-12
2.23632e-12
2.23632e-12
2.23632e-12
2.23632e-12
2.23632e-12
2.23632e-12
2.23631e-12
2.23631e-12
2.23631e-12
2.23631e-12
2.23632e-12
2.23632e-12
2.23632e-12
2.23632e-12
2.23632e-12
2.23632e-12
2.23632e-12
2.23632e-12
2.23632e-12
2.23631e-12
2.23631e-12
2.23631e-12
2.23631e-12
2.23631e-12
2.23632e-12
2.23632e-12
2.23632e-12
2.23632e-12
2.23632e-12
2.23632e-12
2.23632e-12
2.23632e-12
2.23631e-12
2.23631e-12
2.23631e-12
2.23631e-12
2.23631e-12
2.23631e-12
2.23631e-12
2.23632e-12
2.23632e-12
2.23632e-12
2.23632e-12
2.23632e-12
2.23632e-12
2.23632e-12
2.23631e-12
2.23631e-12
2.2363e-12
2.23631e-12
2.23631e-12
2.23631e-12
2.23631e-12
2.23631e-12
2.23632e-12
2.23632e-12
2.23632e-12
2.23632e-12
2.23632e-12
2.23632e-12
2.23631e-12
2.23631e-12
2.23461e-12
2.2346e-12
2.2346e-12
2.2346e-12
2.2346e-12
2.23459e-12
2.23459e-12
2.23459e-12
2.23459e-12
2.23459e-12
2.23459e-12
2.2346e-12
2.2346e-12
2.2346e-12
2.2346e-12
2.2346e-12
2.23459e-12
2.23459e-12
2.23459e-12
2.23459e-12
2.23459e-12
2.23459e-12
2.23459e-12
2.23459e-12
2.23459e-12
2.23459e-12
2.23459e-12
2.2346e-12
2.2346e-12
2.23459e-12
2.23459e-12
2.23459e-12
2.23459e-12
2.23458e-12
2.23458e-12
2.23458e-12
2.23458e-12
2.23458e-12
2.23459e-12
2.23459e-12
2.23459e-12
2.23459e-12
2.23459e-12
2.23459e-12
2.23459e-12
2.23458e-12
2.23458e-12
2.23458e-12
2.23458e-12
2.23458e-12
2.23458e-12
2.23458e-12
2.23458e-12
2.23458e-12
2.23459e-12
2.23459e-12
2.23459e-12
2.23459e-12
2.23458e-12
2.23458e-12
2.23458e-12
2.23458e-12
2.23458e-12
2.23458e-12
2.23458e-12
2.23458e-12
2.23458e-12
2.23458e-12