/*--------------------------------*- C++ -*----------------------------------*\
| =========                 |                                                 |
| \\      /  F ield         | OpenFOAM: The Open Source CFD Toolbox           |
|  \\    /   O peration     | Version:  v2106                                 |
|   \\  /    A nd           | Website:  www.openfoam.com                      |
|    \\/     M anipulation  |                                                 |
\*---------------------------------------------------------------------------*/
FoamFile
{
    version     2.0;
    format      ascii;
    arch        "LSB;label=32;scalar=64";
    class       volScalarField;
    location    "0.000124";
    object      epsilon;
}
// * * * * * * * * * * * * * * * * * * * * * * * * * * * * * * * * * * * * * //

dimensions      [0 2 -3 0 0 0 0];

internalField   nonuniform List<scalar> 
18109
(
1.24786
0.892814
2.31559
5.32758
9.88163
14.5991
17.6127
2.43189
0.592291
0.294751
0.497193
0.990733
1.63563
2.22035
6.84478
1.57362
0.332476
0.0896016
0.0816567
0.138161
0.213047
17.2154
3.95792
0.812559
0.149919
0.0274531
0.0112674
0.0149099
32.25
7.64614
1.57784
0.284957
0.0447436
0.00626215
0.00130986
44.8575
10.4216
2.10193
0.3671
0.0550125
0.0069824
0.000751541
51.2976
11.1851
2.11481
0.345311
0.0482572
0.00568374
0.00055233
50.7375
10.2158
1.7777
0.265728
0.0338475
0.00362322
0.000319404
0.236047
0.112441
0.285342
0.737414
1.50979
2.389
3.00899
3.11679
2.70655
1.99494
1.21222
0.590818
0.212827
0.0577541
0.553527
0.118328
0.0405201
0.0585072
0.123787
0.216448
0.305399
0.35203
0.337669
0.273944
0.17619
0.0866798
0.0290571
0.00727769
1.6458
0.345486
0.0656674
0.0137389
0.00882906
0.0146211
0.023127
0.0299689
0.0325844
0.0292268
0.0199436
0.00998674
0.00320498
0.000840524
4.25383
0.886447
0.164135
0.0270292
0.00413612
0.00112432
0.00127903
0.00191035
0.00239243
0.00242301
0.00179739
0.000928634
0.000294978
0.000487563
7.98068
1.68713
0.308935
0.0490799
0.00671665
0.000799456
0.000120888
9.26878e-05
0.000129676
0.000151451
0.000124482
6.7676e-05
5.196e-05
0.00176933
11.0121
2.24672
0.395622
0.059919
0.00773454
0.000841464
7.70633e-05
8.48999e-06
5.60215e-06
7.30787e-06
6.75983e-06
4.30117e-06
9.8887e-05
0.00522999
12.3335
2.34453
0.384974
0.0542621
0.00650314
0.000654971
5.45551e-05
3.7979e-06
3.96891e-07
3.071e-07
3.11916e-07
1.02405e-06
0.000205831
0.0104202
11.7591
2.06001
0.311489
0.0402997
0.00442185
0.000407371
3.10614e-05
1.96503e-06
1.37157e-07
4.84626e-08
5.127e-08
1.44019e-06
0.000285637
0.0135251
9.66532
1.56144
0.21762
0.0259304
0.00261463
0.00022132
1.57278e-05
1.05641e-06
1.36834e-07
5.74224e-08
6.33794e-08
2.92496e-06
0.000303291
0.0124079
6.73723
1.01552
0.131197
0.0144235
0.00133927
0.000111066
1.32541e-05
4.26681e-06
1.78829e-06
6.05018e-07
2.28908e-07
4.81599e-06
0.000267534
0.00834233
3.86759
0.551144
0.0666915
0.00689486
0.000715303
0.000199742
0.000135033
8.18724e-05
3.87786e-05
1.36705e-05
3.76361e-06
5.13239e-06
0.000180674
0.00420111
1.89545
0.261298
0.0306026
0.0039272
0.00207936
0.00232691
0.00203894
0.00133488
0.000673507
0.000256326
7.50657e-05
1.90806e-05
8.02013e-05
0.00152523
0.78475
0.107965
0.016451
0.0126276
0.0212169
0.0271499
0.0249803
0.0173127
0.00929076
0.00382107
0.00121455
0.000307801
8.48775e-05
0.000463826
0.357167
0.0631875
0.0477814
0.108024
0.198621
0.25986
0.248315
0.181622
0.103653
0.0458646
0.0157916
0.00438018
0.00101058
0.000672046
3.77688
13.6541
48.8809
160.623
470.915
1216.49
0.578555
2.07401
7.88055
29.0843
99.3276
305.214
0.846647
5.18978
26.4923
112.623
406.967
1245.27
2.96829
19.1706
97.292
395.305
1324.57
3714.64
7.45542
50.2721
257.151
1020.27
3237.95
8332.71
14.2146
96.127
484.784
1857.62
5581.42
13448.1
20.5823
135.663
665.219
2457.77
7059.05
16284.2
23.3408
147.133
698.033
2504.13
6980.9
15718.6
21.5299
127.646
586.097
2063.2
5664.9
12638.5
16.567
90.8442
402.982
1408.28
3872.56
8658.13
11.2142
56.8973
244.959
852.187
2346.01
5244.53
6.52001
30.5019
127.374
439.794
1213.01
2719.61
3.10134
13.232
53.4617
181.619
502.17
1123.32
1.09254
4.13898
15.8465
50.686
140.991
314.152
0.287
0.991882
3.38816
9.69921
26.7761
59.1168
0.057792
0.172299
0.519737
1.38837
3.90648
10.0991
0.00671543
0.0256267
0.126521
0.810903
5.44572
32.5485
0.00280732
0.0434013
0.533896
4.95217
34.7428
191.486
0.0127027
0.226796
2.72054
23.4723
149.586
730.387
0.0485024
0.829587
9.34177
74.3407
430.094
1871.63
0.132464
2.14561
22.623
166.811
884.99
3431.54
0.251219
3.91335
39.2867
269.403
1292.04
4475.69
0.31045
4.58032
43.607
281.813
1274.13
4183.27
0.268568
3.71275
33.7506
210.169
923.794
2974.15
0.163719
2.06636
17.9352
110.472
485.987
1579.41
0.0703391
0.80067
6.47226
39
182.686
624.465
0.0230396
0.232577
1.77001
10.7561
51.6722
183.849
0.00587549
0.0528654
0.371637
2.05494
9.76375
35.9591
0.00166686
0.012286
0.074814
0.363758
1.49891
5.13122
0.00463363
0.0226298
0.110056
0.515284
2.26045
9.20175
0.0124014
0.0875114
0.547903
3.00869
14.4266
60.8709
0.0499059
0.386024
2.5642
14.5126
69.6713
286.001
0.165871
1.34206
9.08541
51.2774
239.64
931.476
0.445602
3.62577
24.2367
132.841
591.615
2144.15
0.94258
7.54487
49.0442
257.529
1078.67
3587.41
1.55957
12.044
75.0174
373.119
1457.91
4447.01
2.03334
14.8809
87.4728
407.466
1479.13
4206.74
2.05833
14.0277
76.6088
332.552
1139.57
3112.78
1.54952
9.68341
48.2174
192.768
622.686
1652.27
0.845651
4.80121
21.7
80.1131
246.273
634.521
0.353117
1.81861
7.47819
25.4809
73.5397
179.873
0.171795
0.755964
2.74688
8.41029
22.0212
49.801
0.355475
1.33351
4.5449
13.9379
38.4501
97.303
66.6459
204.148
554.994
1310.65
2755.37
4932.29
27.3203
80.0842
212.589
484.795
1028.47
1848.03
10.2079
27.6241
68.5723
151.448
307.643
550.628
3.78123
10.3418
26.7504
65.0941
150.951
333.744
2.2065
7.60837
24.5424
72.464
195.377
481.191
5.00293
20.1101
72.8205
233.123
664.726
1682.9
11.8985
52.4999
199.999
649.952
1828.11
4465.92
23.3494
109.042
428.183
1401.44
3866.36
9011.3
38.3871
182.067
713.852
2291.09
6086.12
13539.1
51.4941
240.935
924.484
2877.23
7359.99
15790
57.7604
259.099
960.227
2896.23
7187
15079.7
55.7965
235.128
833.191
2435.8
5912.73
12263.9
46.3858
181.302
610.141
1730.05
4135.39
8487.22
32.3513
117.079
373.277
1026.42
2461.85
5095.85
18.0178
61.5753
188.609
508.031
1236.69
2552.93
7.2779
23.4814
69.612
178.544
437.203
888.793
2.5539
7.57898
20.7221
50.2656
113.492
231.011
0.881393
2.54661
6.84331
17.0201
40.1313
89.867
845.048
3271.01
8925.14
18725.4
32543
3278.32
10803.4
26196.2
51489.5
87048.2
8875.65
25333.9
56090
104661
171164
17916.2
44616.3
92222
164754
255619
27079.1
62019.6
124860
223386
328286
31953.5
72626.8
149557
271783
370117
30799.1
72150.4
159718
295244
375754
24844.5
60780.6
148838
281155
352850
276189
16712.1
39874.6
105120
219122
303741
258812
10058.2
21544.3
47863.9
129290
238069
234462
5179.58
9891.74
17226.2
45942.9
149793
198653
157092
2037.91
3568.57
5573.76
9624.68
46462.7
128548
157102
105939
572.131
953.233
1428.64
1953.56
2902.39
21038
98716.5
242316
108.995
205.061
395.658
743.353
1279.99
1937.83
711.785
1778.79
32.3738
186.725
826.493
2532.79
5493.75
8920.53
3549.81
3827.44
164.951
1026.13
4027.2
10954.3
22035.1
35323.9
29159.9
24606.8
836.389
4179.42
13750
33136.6
62529.4
101375
156858
287938
2755.29
11285.1
31803
68844.7
120439
183077
306201
689831
6179.12
21225.8
52294.1
102786
166018
226583
298644
235673
9880.12
29194.9
66111.2
125856
199905
253055
268426
218757
11639.2
31956.8
71618.6
142142
233868
284742
271966
365002
10520.1
29257.6
70246.1
152318
262464
314564
291314
226056
7463.08
21754.7
58106.4
142214
261447
313999
3995
11717.4
32989.2
100026
216964
278701
1631.44
4673.58
11573.5
41405.3
134662
220212
499.346
1447.17
3148.29
6835.74
41369.2
128640
101.741
310.079
694.443
1218.77
2189.27
16928
14.4252
62.9872
202.16
495.936
966.845
34.103
194.58
782.639
2285.5
4873.25
224.724
1125.04
3977.91
10344.7
20539.3
998.611
4326.07
13428.8
31717
59795.2
2994.35
11177
30548
65550.1
115025
6268.94
20199.5
48943.4
95876.2
156075
9432.19
26823.9
60121.2
114994
184150
10754.6
28471.3
63532.2
126979
209770
9687.21
25596.8
60481.6
131309
227113
6960.6
18682.4
47825.7
116241
217208
3595.93
9775.64
26557.3
77127
173688
1319.78
3597.1
9293.56
32308
103927
349.596
1013.53
2330.41
5969.8
33561.7
97.4727
316.834
810.118
1630.69
3500.95
228.044
812.733
2191.1
4628.09
8120.27
1090.78
3577.32
8992.23
18231.9
31341.4
3825.53
11299.8
26198.1
50665.8
85549.3
9596.24
25496.1
55100.6
102147
167816
18118.8
43375.6
88298.8
157708
246661
26043.6
58236.7
116733
210372
311732
29732.5
66287.7
137074
251463
345331
28291.9
64984.3
142761
266615
344154
22767.8
54000.8
127884
249522
320847
15208.5
34822.6
87387.1
191815
277952
8879.74
17611.4
39603.8
110586
213250
4127.06
7417.54
13599.3
39197.1
127925
1405.69
2500.35
4086.1
8174.96
42170.4
372.711
752.06
1387.73
2372.16
4997.97
206.551
797.001
2318.22
5078.96
9011.09
0.0207118
0.00613479
0.0124963
0.0366359
0.0861936
0.154247
0.216241
0.244484
0.226677
0.174988
0.107842
0.0529291
0.0196051
0.00550895
0.0587075
0.0110887
0.0025755
0.00263842
0.00610012
0.0120964
0.0191379
0.0242362
0.0251115
0.0214487
0.0141108
0.00705135
0.00250224
0.000656368
0.182247
0.034441
0.00588176
0.0010013
0.000432056
0.000723272
0.00128226
0.00184682
0.00217763
0.00205959
0.00144369
0.00073806
0.000256465
6.56624e-05
0.470577
0.0887413
0.0148397
0.00220543
0.000297025
6.13474e-05
6.59309e-05
0.000108048
0.000146298
0.000155594
0.00011829
6.26436e-05
2.14409e-05
1.23013e-05
0.871109
0.164656
0.0270528
0.00386774
0.000478151
5.15073e-05
6.80403e-06
5.07507e-06
7.54412e-06
9.14274e-06
7.60846e-06
4.22524e-06
1.81476e-06
3.50544e-05
1.16593
0.21091
0.0330895
0.00448854
0.000522439
5.18239e-05
4.41325e-06
4.92298e-07
3.48783e-07
4.5058e-07
4.16243e-07
2.6027e-07
1.28744e-06
0.000118618
1.23707
0.207573
0.0302901
0.0038211
0.000413362
3.80689e-05
2.97495e-06
2.27683e-07
5.38327e-08
4.96805e-08
4.95959e-08
5.3204e-08
2.88162e-06
0.000262899
1.09286
0.168545
0.022629
0.00262501
0.000261107
2.21396e-05
1.60892e-06
1.28389e-07
3.97795e-08
3.55701e-08
3.55902e-08
6.77277e-08
4.95288e-06
0.000376274
0.82019
0.116798
0.0144891
0.00155403
0.0001428
1.12045e-05
7.7575e-07
7.88637e-08
3.83374e-08
3.5553e-08
3.5826e-08
1.28968e-07
7.70766e-06
0.000390446
0.516337
0.0689369
0.00796984
0.000793367
6.74513e-05
5.13242e-06
5.36488e-07
1.64785e-07
8.38601e-08
4.98609e-08
4.02929e-08
2.17156e-07
1.02819e-05
0.000324867
0.265823
0.0338295
0.00369321
0.000348011
3.27576e-05
8.10215e-06
5.03703e-06
2.84607e-06
1.27072e-06
4.38935e-07
1.38641e-07
2.41363e-07
8.64644e-06
0.000213525
0.117056
0.0145303
0.00154246
0.000185461
0.000100643
0.000108266
8.85813e-05
5.35936e-05
2.49178e-05
8.72884e-06
2.37481e-06
6.2e-07
4.25486e-06
9.02735e-05
0.0439489
0.00546821
0.000808303
0.000721921
0.00122476
0.00149364
0.00128018
0.000815497
0.000399422
0.00014905
4.29353e-05
9.86298e-06
3.04346e-06
2.6774e-05
0.018328
0.00324081
0.00314865
0.00749908
0.0135803
0.0169518
0.0150586
0.0100728
0.00519997
0.00206409
0.000634521
0.000156961
3.25496e-05
2.76699e-05
0.00200248
0.000412781
0.000510631
0.00163627
0.00447181
0.00931556
0.0151128
0.0195114
0.0202194
0.0168806
0.0108115
0.0054097
0.00203976
0.000604238
0.00653459
0.00110963
0.000197003
0.000122073
0.000298012
0.000687395
0.00125897
0.00181821
0.00210825
0.00194601
0.0013319
0.000679761
0.000249071
6.98144e-05
0.0204562
0.0035306
0.000549164
8.08897e-05
2.40529e-05
3.96017e-05
8.10418e-05
0.000133725
0.00017524
0.000178156
0.000129541
6.75459e-05
2.44472e-05
6.65113e-06
0.051288
0.00888746
0.00136288
0.000185588
2.27266e-05
3.96913e-06
4.2601e-06
7.78544e-06
1.15166e-05
1.29974e-05
1.01555e-05
5.47609e-06
1.98263e-06
6.45635e-07
0.0913397
0.0157499
0.00236753
0.000310846
3.551e-05
3.58343e-06
4.79681e-07
4.00142e-07
6.21639e-07
7.76971e-07
6.59974e-07
3.82747e-07
1.64057e-07
6.13893e-07
0.115283
0.0190018
0.00272755
0.000340287
3.6714e-05
3.4371e-06
3.06868e-07
6.35475e-08
5.79463e-08
6.68997e-08
6.40978e-08
5.14327e-08
5.794e-08
2.2389e-06
0.112316
0.0172323
0.00230939
0.000269339
2.71626e-05
2.38369e-06
2.06924e-07
4.46971e-08
3.48429e-08
3.47105e-08
3.46803e-08
3.45659e-08
9.62547e-08
5.98304e-06
0.0890837
0.0126222
0.0015649
0.000169032
1.58146e-05
1.30217e-06
1.20556e-07
3.86616e-08
3.38539e-08
3.36095e-08
3.35928e-08
3.51055e-08
2.1003e-07
1.16828e-05
0.0595324
0.00783201
0.000902771
9.07943e-05
7.92035e-06
6.2373e-07
7.14545e-08
3.57628e-08
3.37412e-08
3.36028e-08
3.36059e-08
3.85318e-08
4.30433e-07
1.79085e-05
0.0333443
0.00413317
0.000446359
4.19002e-05
3.41475e-06
2.75785e-07
5.39584e-08
3.77136e-08
3.49784e-08
3.39876e-08
3.37646e-08
4.39196e-08
6.57109e-07
2.06352e-05
0.0153713
0.00182504
0.000186916
1.66767e-05
1.50161e-06
3.52628e-07
2.12765e-07
1.26713e-07
7.14405e-08
4.50947e-08
3.64063e-08
4.54679e-08
6.02728e-07
1.55285e-05
0.00612863
0.000711246
7.08927e-05
8.34335e-06
4.69692e-06
4.79713e-06
3.64521e-06
2.04002e-06
8.86898e-07
3.07139e-07
1.01256e-07
5.29487e-08
3.24378e-07
6.94714e-06
0.00210731
0.000245247
3.75705e-05
3.99864e-05
6.67431e-05
7.60917e-05
5.99088e-05
3.4704e-05
1.54174e-05
5.23471e-06
1.3933e-06
3.16821e-07
1.65156e-07
2.02843e-06
0.000815852
0.000155556
0.000203555
0.000498566
0.00086554
0.00100098
0.000808291
0.000486208
0.000224887
7.99787e-05
2.2114e-05
4.9335e-06
9.64223e-07
1.3405e-06
0.000173045
2.894e-05
1.94693e-05
6.37458e-05
0.000199848
0.000482495
0.000903319
0.00133316
0.00155689
0.00140833
0.0009448
0.000484508
0.000186265
5.74906e-05
0.000604716
9.42148e-05
1.42701e-05
5.4537e-06
1.30581e-05
3.4581e-05
7.29784e-05
0.000120742
0.00015639
0.000155727
0.00011136
5.82906e-05
2.19595e-05
6.47414e-06
0.00188903
0.000300984
4.3103e-05
5.72632e-06
1.30153e-06
2.05579e-06
4.76404e-06
8.84664e-06
1.27461e-05
1.38681e-05
1.04925e-05
5.61178e-06
2.10933e-06
6.25151e-07
0.00454868
0.000728239
0.000103202
1.30049e-05
1.49443e-06
2.60414e-07
2.87534e-07
5.48404e-07
8.58364e-07
1.01834e-06
8.25573e-07
4.6692e-07
1.93217e-07
7.92271e-08
0.00773322
0.00122677
0.00017011
2.06902e-05
2.22496e-06
2.38221e-07
5.85398e-08
5.74452e-08
7.52153e-08
8.86534e-08
8.07472e-08
5.98033e-08
4.28791e-08
4.59032e-08
0.0091303
0.00138584
0.000183731
2.12864e-05
2.17215e-06
2.19745e-07
4.71092e-08
3.44869e-08
3.4481e-08
3.52087e-08
3.50114e-08
3.40582e-08
3.36916e-08
8.63757e-08
0.00812698
0.0011542
0.000143623
1.5657e-05
1.51165e-06
1.5424e-07
4.13481e-08
3.32866e-08
3.28122e-08
3.28088e-08
3.28004e-08
3.27808e-08
3.50796e-08
2.26631e-07
0.00579061
0.000764188
8.86039e-05
9.03232e-06
8.29147e-07
9.40201e-08
3.68294e-08
3.2989e-08
3.27581e-08
3.27378e-08
3.27303e-08
3.28081e-08
4.15064e-08
5.54289e-07
0.00346346
0.000427288
4.63908e-05
4.44906e-06
3.99094e-07
5.92039e-08
3.44321e-08
3.28633e-08
3.27657e-08
3.27505e-08
3.27445e-08
3.30224e-08
5.58399e-08
1.06459e-06
0.00174135
0.000203422
2.08087e-05
1.88812e-06
1.76515e-07
4.26725e-08
3.35273e-08
3.28988e-08
3.28084e-08
3.27753e-08
3.27673e-08
3.33841e-08
7.26652e-08
1.43143e-06
0.000729061
8.18498e-05
7.97856e-06
7.07623e-07
8.89132e-08
4.3307e-08
3.80626e-08
3.53271e-08
3.37475e-08
3.30566e-08
3.2847e-08
3.35229e-08
7.16693e-08
1.17311e-06
0.000266808
2.92796e-05
2.79437e-06
3.48203e-07
2.10256e-07
2.03322e-07
1.5272e-07
9.42194e-08
5.68801e-08
3.99492e-08
3.44382e-08
3.35258e-08
5.34799e-08
5.66684e-07
8.51302e-05
9.37641e-06
1.52761e-06
1.85015e-06
2.98352e-06
3.16561e-06
2.30111e-06
1.2324e-06
5.18844e-07
1.83412e-07
6.89353e-08
3.97987e-08
3.99602e-08
1.8523e-07
3.11771e-05
6.54169e-06
1.08577e-05
2.68572e-05
4.44475e-05
4.74453e-05
3.48994e-05
1.90051e-05
7.96565e-06
2.58983e-06
6.74828e-07
1.6231e-07
5.63687e-08
9.90974e-08
1.28036e-05
1.91642e-06
7.62682e-07
2.30569e-06
8.13975e-06
2.25156e-05
4.82738e-05
8.0527e-05
0.000103782
0.000100504
7.01678e-05
3.66647e-05
1.43075e-05
4.55302e-06
4.62775e-05
6.71463e-06
9.39032e-07
2.69015e-07
5.66098e-07
1.64514e-06
3.88467e-06
7.13756e-06
1.0107e-05
1.0719e-05
7.96616e-06
4.26877e-06
1.65632e-06
5.23347e-07
0.000142734
2.11575e-05
2.83717e-06
3.72655e-07
9.48283e-08
1.28891e-07
2.82524e-07
5.45172e-07
8.32817e-07
9.5534e-07
7.54373e-07
4.24896e-07
1.8134e-07
7.62396e-08
0.000330893
4.92485e-05
6.5194e-06
7.91679e-07
1.12066e-07
4.3928e-08
4.60789e-08
6.24323e-08
8.37159e-08
9.67114e-08
8.55822e-08
6.20059e-08
4.35767e-08
3.56721e-08
0.000535827
7.8834e-05
1.01957e-05
1.18459e-06
1.47045e-07
4.25583e-08
3.37072e-08
3.38499e-08
3.50384e-08
3.60029e-08
3.55574e-08
3.42048e-08
3.30906e-08
3.28505e-08
0.000590845
8.33405e-05
1.03297e-05
1.14842e-06
1.38259e-07
4.11986e-08
3.30673e-08
3.25031e-08
3.25178e-08
3.25666e-08
3.2556e-08
3.24967e-08
3.24624e-08
3.40398e-08
0.000481323
6.3915e-05
7.4882e-06
7.96912e-07
1.01045e-07
3.78166e-08
3.27965e-08
3.24462e-08
3.24234e-08
3.24217e-08
3.2421e-08
3.24211e-08
3.25229e-08
3.98864e-08
0.000309936
3.85474e-05
4.25235e-06
4.39677e-07
6.68971e-08
3.50017e-08
3.26086e-08
3.24461e-08
3.24325e-08
3.24287e-08
3.24277e-08
3.24332e-08
3.28677e-08
5.71861e-08
0.000167222
1.96023e-05
2.05331e-06
2.16484e-07
4.71607e-08
3.3497e-08
3.25241e-08
3.24563e-08
3.24476e-08
3.24438e-08
3.24428e-08
3.24596e-08
3.37131e-08
8.96568e-08
7.61092e-05
8.50306e-06
8.59638e-07
1.03411e-07
3.78081e-08
3.28437e-08
3.25039e-08
3.24743e-08
3.24667e-08
3.24629e-08
3.2462e-08
3.24997e-08
3.4842e-08
1.19227e-07
2.91959e-05
3.15864e-06
3.23363e-07
5.62724e-08
3.43895e-08
3.28048e-08
3.26288e-08
3.25496e-08
3.25073e-08
3.24892e-08
3.24841e-08
3.25285e-08
3.49597e-08
1.0879e-07
9.89372e-06
1.06266e-06
1.25697e-07
4.29055e-08
3.82338e-08
3.76428e-08
3.58559e-08
3.40928e-08
3.30809e-08
3.26628e-08
3.25377e-08
3.25382e-08
3.38826e-08
7.02276e-08
2.96687e-06
3.39176e-07
8.47247e-08
1.03006e-07
1.42742e-07
1.41325e-07
1.05113e-07
6.7744e-08
4.56251e-08
3.62645e-08
3.33545e-08
3.26801e-08
3.29569e-08
4.33419e-08
1.07122e-06
2.74917e-07
5.23303e-07
1.24803e-06
1.94752e-06
1.92121e-06
1.30267e-06
6.61621e-07
2.71991e-07
1.02991e-07
4.87395e-08
3.55358e-08
3.31147e-08
3.60476e-08
8.36806e-07
1.40837e-07
5.97749e-08
1.08262e-07
3.35781e-07
9.82617e-07
2.31334e-06
4.23864e-06
5.9212e-06
6.08079e-06
4.40298e-06
2.34921e-06
9.4447e-07
3.25972e-07
2.98585e-06
4.30306e-07
8.18787e-08
4.21612e-08
5.26519e-08
1.00485e-07
2.12179e-07
3.94912e-07
5.86917e-07
6.53624e-07
5.09021e-07
2.91139e-07
1.32822e-07
6.32265e-08
9.00492e-06
1.27207e-06
1.85773e-07
4.95523e-08
3.50356e-08
3.6427e-08
4.39338e-08
5.80642e-08
7.52854e-08
8.44161e-08
7.43453e-08
5.55318e-08
4.12281e-08
3.49672e-08
2.01051e-05
2.8211e-06
3.75849e-07
6.98949e-08
3.59931e-08
3.28042e-08
3.29346e-08
3.3792e-08
3.50005e-08
3.58371e-08
3.53034e-08
3.39939e-08
3.29442e-08
3.24874e-08
3.0948e-05
4.27669e-06
5.44501e-07
8.67629e-08
3.7409e-08
3.27358e-08
3.23609e-08
3.23729e-08
3.24365e-08
3.24925e-08
3.24721e-08
3.2399e-08
3.2338e-08
3.2319e-08
3.18462e-05
4.23292e-06
5.19796e-07
8.20844e-08
3.67857e-08
3.26706e-08
3.23394e-08
3.23144e-08
3.23131e-08
3.23143e-08
3.23135e-08
3.23108e-08
3.23098e-08
3.23617e-08
2.38337e-05
3.00916e-06
3.60531e-07
6.42226e-08
3.50583e-08
3.25347e-08
3.23387e-08
3.23217e-08
3.23179e-08
3.23159e-08
3.23152e-08
3.23154e-08
3.23208e-08
3.26048e-08
1.39933e-05
1.68009e-06
2.04217e-07
4.81818e-08
3.36323e-08
3.2435e-08
3.23435e-08
3.23334e-08
3.23296e-08
3.23273e-08
3.23262e-08
3.23264e-08
3.23471e-08
3.34209e-08
6.89156e-06
8.00075e-07
1.08317e-07
3.90073e-08
3.28748e-08
3.23922e-08
3.23535e-08
3.23465e-08
3.23428e-08
3.23402e-08
3.23389e-08
3.23393e-08
3.24016e-08
3.51665e-08
2.88386e-06
3.37124e-07
6.10103e-08
3.47512e-08
3.25515e-08
3.23837e-08
3.23668e-08
3.23609e-08
3.23571e-08
3.23546e-08
3.2353e-08
3.23544e-08
3.24791e-08
3.70676e-08
1.03988e-06
1.36182e-07
4.17158e-08
3.31381e-08
3.24513e-08
3.2396e-08
3.23846e-08
3.23776e-08
3.23729e-08
3.237e-08
3.23681e-08
3.237e-08
3.25078e-08
3.6831e-08
3.48353e-07
6.40642e-08
3.51876e-08
3.27225e-08
3.25743e-08
3.25399e-08
3.24796e-08
3.24283e-08
3.24007e-08
3.23892e-08
3.23849e-08
3.23851e-08
3.24648e-08
3.47187e-08
1.20385e-07
4.1264e-08
3.40976e-08
3.489e-08
3.60907e-08
3.57769e-08
3.44799e-08
3.33311e-08
3.27214e-08
3.24866e-08
3.24183e-08
3.24029e-08
3.24232e-08
3.30738e-08
6.35221e-08
4.07786e-08
5.23883e-08
8.11728e-08
1.05236e-07
9.88917e-08
7.3461e-08
5.1008e-08
3.8888e-08
3.41623e-08
3.27858e-08
3.24783e-08
3.24281e-08
3.25918e-08
7.51021e-08
3.76211e-08
3.32541e-08
3.45899e-08
4.25027e-08
6.76807e-08
1.2546e-07
2.19102e-07
3.13301e-07
3.37083e-07
2.60017e-07
1.54853e-07
8.1e-08
4.81201e-08
1.90029e-07
5.22029e-08
3.45659e-08
3.26319e-08
3.29508e-08
3.47845e-08
3.9497e-08
4.79949e-08
5.79768e-08
6.25812e-08
5.62875e-08
4.55168e-08
3.74518e-08
3.38575e-08
5.03185e-07
9.32643e-08
3.93293e-08
3.30029e-08
3.23645e-08
3.24104e-08
3.27179e-08
3.33491e-08
3.41929e-08
3.47184e-08
3.43018e-08
3.33979e-08
3.26884e-08
3.23731e-08
1.04812e-06
1.64616e-07
4.75537e-08
3.38366e-08
3.24109e-08
3.22811e-08
3.22837e-08
3.23178e-08
3.23717e-08
3.24131e-08
3.23903e-08
3.23276e-08
3.22755e-08
3.22521e-08
1.51628e-06
2.23331e-07
5.39252e-08
3.44403e-08
3.24646e-08
3.22844e-08
3.22671e-08
3.22641e-08
3.22637e-08
3.22638e-08
3.22607e-08
3.22556e-08
3.22511e-08
3.22489e-08
1.45628e-06
2.09208e-07
5.16375e-08
3.41507e-08
3.24402e-08
3.22889e-08
3.22734e-08
3.22685e-08
3.2265e-08
3.22621e-08
3.22597e-08
3.22577e-08
3.2256e-08
3.22563e-08
1.01394e-06
1.48527e-07
4.44437e-08
3.34153e-08
3.23815e-08
3.22919e-08
3.22811e-08
3.22764e-08
3.22727e-08
3.22695e-08
3.22669e-08
3.22648e-08
3.22633e-08
3.22718e-08
5.60833e-07
9.18005e-08
3.82302e-08
3.28257e-08
3.23401e-08
3.22972e-08
3.22898e-08
3.22852e-08
3.22813e-08
3.2278e-08
3.22753e-08
3.22729e-08
3.22718e-08
3.23123e-08
2.70975e-07
5.7941e-08
3.47504e-08
3.25186e-08
3.23244e-08
3.23049e-08
3.22991e-08
3.22945e-08
3.22906e-08
3.22872e-08
3.22842e-08
3.22816e-08
3.22821e-08
3.23997e-08
1.23762e-07
4.17302e-08
3.31792e-08
3.23926e-08
3.23242e-08
3.23143e-08
3.2309e-08
3.23044e-08
3.23004e-08
3.22969e-08
3.22938e-08
3.2291e-08
3.22942e-08
3.25085e-08
6.22757e-08
3.53111e-08
3.25972e-08
3.23551e-08
3.23315e-08
3.23248e-08
3.23196e-08
3.23149e-08
3.23107e-08
3.23069e-08
3.23035e-08
3.23005e-08
3.23044e-08
3.25207e-08
4.10858e-08
3.3195e-08
3.2422e-08
3.23539e-08
3.23448e-08
3.23385e-08
3.23318e-08
3.2326e-08
3.23213e-08
3.23173e-08
3.23135e-08
3.23101e-08
3.23108e-08
3.24282e-08
3.46442e-08
3.25858e-08
3.241e-08
3.24361e-08
3.24634e-08
3.2441e-08
3.23948e-08
3.23582e-08
3.23386e-08
3.23292e-08
3.23237e-08
3.23195e-08
3.23168e-08
3.2348e-08
3.32168e-08
3.26487e-08
3.31306e-08
3.4161e-08
3.48725e-08
3.44704e-08
3.35494e-08
3.28431e-08
3.25001e-08
3.23769e-08
3.23412e-08
3.23303e-08
3.23246e-08
3.23274e-08
3.41414e-08
3.24505e-08
3.22565e-08
3.22831e-08
3.25174e-08
3.33447e-08
3.5432e-08
3.91604e-08
4.33809e-08
4.49944e-08
4.21033e-08
3.76238e-08
3.43734e-08
3.29016e-08
3.92615e-08
3.30673e-08
3.23174e-08
3.22354e-08
3.22396e-08
3.22952e-08
3.24574e-08
3.27796e-08
3.31981e-08
3.3434e-08
3.32095e-08
3.27635e-08
3.24164e-08
3.22582e-08
5.27539e-08
3.47365e-08
3.25034e-08
3.22541e-08
3.22267e-08
3.22239e-08
3.22305e-08
3.22501e-08
3.22805e-08
3.23014e-08
3.22844e-08
3.22454e-08
3.22127e-08
3.21969e-08
7.4855e-08
3.74632e-08
3.28028e-08
3.22866e-08
3.22326e-08
3.2224e-08
3.222e-08
3.22172e-08
3.22155e-08
3.22138e-08
3.22098e-08
3.22044e-08
3.21993e-08
3.21959e-08
9.11822e-08
3.93818e-08
3.30018e-08
3.23084e-08
3.22384e-08
3.22285e-08
3.22237e-08
3.22196e-08
3.22157e-08
3.22121e-08
3.22086e-08
3.22054e-08
3.22022e-08
3.21996e-08
8.50093e-08
3.84355e-08
3.28848e-08
3.22999e-08
3.2242e-08
3.22331e-08
3.22284e-08
3.22241e-08
3.222e-08
3.22163e-08
3.22127e-08
3.22096e-08
3.22066e-08
3.22039e-08
6.59071e-08
3.60353e-08
3.26259e-08
3.22795e-08
3.22448e-08
3.22379e-08
3.22334e-08
3.2229e-08
3.2225e-08
3.22211e-08
3.22175e-08
3.22142e-08
3.22111e-08
3.22086e-08
4.90148e-08
3.40607e-08
3.24271e-08
3.22661e-08
3.22485e-08
3.2243e-08
3.22386e-08
3.22343e-08
3.22301e-08
3.22262e-08
3.22225e-08
3.22191e-08
3.22159e-08
3.22143e-08
3.92761e-08
3.29868e-08
3.23269e-08
3.22623e-08
3.22531e-08
3.22483e-08
3.22439e-08
3.22396e-08
3.22355e-08
3.22315e-08
3.22277e-08
3.22241e-08
3.22207e-08
3.2222e-08
3.47651e-08
3.25167e-08
3.2288e-08
3.22641e-08
3.22583e-08
3.22538e-08
3.22494e-08
3.22451e-08
3.22409e-08
3.22369e-08
3.22329e-08
3.22291e-08
3.22256e-08
3.22308e-08
3.30375e-08
3.2348e-08
3.2278e-08
3.22684e-08
3.22638e-08
3.22594e-08
3.2255e-08
3.22506e-08
3.22464e-08
3.22422e-08
3.22381e-08
3.2234e-08
3.22304e-08
3.22359e-08
3.24898e-08
3.22997e-08
3.22788e-08
3.22736e-08
3.22694e-08
3.22649e-08
3.22604e-08
3.2256e-08
3.22517e-08
3.22474e-08
3.22431e-08
3.22388e-08
3.22346e-08
3.22357e-08
3.23382e-08
3.22901e-08
3.22835e-08
3.2281e-08
3.22777e-08
3.22727e-08
3.2267e-08
3.22617e-08
3.22568e-08
3.22522e-08
3.22476e-08
3.2243e-08
3.22384e-08
3.22353e-08
3.23134e-08
3.2299e-08
3.23147e-08
3.23453e-08
3.23591e-08
3.23363e-08
3.23021e-08
3.22778e-08
3.22647e-08
3.22575e-08
3.2252e-08
3.22469e-08
3.22417e-08
3.22366e-08
3.22511e-08
3.21846e-08
3.21747e-08
3.21718e-08
3.21742e-08
3.21932e-08
3.22518e-08
3.23697e-08
3.25196e-08
3.25937e-08
3.25032e-08
3.2341e-08
3.22172e-08
3.21587e-08
3.24426e-08
3.22083e-08
3.21788e-08
3.21727e-08
3.21692e-08
3.2167e-08
3.21679e-08
3.21742e-08
3.21849e-08
3.21909e-08
3.21809e-08
3.2162e-08
3.21457e-08
3.21368e-08
3.29265e-08
3.22666e-08
3.21867e-08
3.21754e-08
3.2171e-08
3.21672e-08
3.21636e-08
3.21604e-08
3.21576e-08
3.21546e-08
3.21505e-08
3.21456e-08
3.21408e-08
3.2137e-08
3.36681e-08
3.23547e-08
3.21976e-08
3.21782e-08
3.21731e-08
3.21691e-08
3.21652e-08
3.21612e-08
3.21574e-08
3.21536e-08
3.21499e-08
3.21462e-08
3.21425e-08
3.21392e-08
3.41258e-08
3.24065e-08
3.22042e-08
3.21805e-08
3.21751e-08
3.21711e-08
3.21671e-08
3.21632e-08
3.21593e-08
3.21554e-08
3.21517e-08
3.21482e-08
3.21447e-08
3.21414e-08
3.38083e-08
3.23664e-08
3.22013e-08
3.21819e-08
3.21769e-08
3.21729e-08
3.2169e-08
3.21651e-08
3.21612e-08
3.21574e-08
3.21537e-08
3.21502e-08
3.21468e-08
3.21435e-08
3.31499e-08
3.22909e-08
3.21952e-08
3.2183e-08
3.21786e-08
3.21748e-08
3.21709e-08
3.2167e-08
3.21632e-08
3.21594e-08
3.21557e-08
3.21522e-08
3.21488e-08
3.21455e-08
3.26368e-08
3.22359e-08
3.21914e-08
3.21843e-08
3.21804e-08
3.21767e-08
3.21728e-08
3.2169e-08
3.21651e-08
3.21613e-08
3.21577e-08
3.21542e-08
3.21507e-08
3.21475e-08
3.23678e-08
3.22092e-08
3.21906e-08
3.21859e-08
3.21822e-08
3.21785e-08
3.21747e-08
3.21709e-08
3.21671e-08
3.21633e-08
3.21596e-08
3.2156e-08
3.21526e-08
3.21493e-08
3.22539e-08
3.21994e-08
3.21914e-08
3.21877e-08
3.21841e-08
3.21804e-08
3.21766e-08
3.21728e-08
3.21689e-08
3.21652e-08
3.21615e-08
3.21578e-08
3.21543e-08
3.21511e-08
3.22145e-08
3.21971e-08
3.21928e-08
3.21894e-08
3.21859e-08
3.21822e-08
3.21784e-08
3.21746e-08
3.21707e-08
3.21669e-08
3.21631e-08
3.21593e-08
3.21557e-08
3.21525e-08
3.22039e-08
3.21977e-08
3.21945e-08
3.21913e-08
3.21877e-08
3.21839e-08
3.21801e-08
3.21761e-08
3.21722e-08
3.21683e-08
3.21645e-08
3.21606e-08
3.21569e-08
3.21534e-08
3.22021e-08
3.21989e-08
3.21961e-08
3.21929e-08
3.21894e-08
3.21855e-08
3.21815e-08
3.21775e-08
3.21736e-08
3.21696e-08
3.21656e-08
3.21616e-08
3.21577e-08
3.2154e-08
3.22037e-08
3.22007e-08
3.21985e-08
3.21963e-08
3.2193e-08
3.21884e-08
3.21834e-08
3.21787e-08
3.21744e-08
3.21703e-08
3.21664e-08
3.21624e-08
3.21584e-08
3.21543e-08
3.2113e-08
3.21091e-08
3.21068e-08
3.21044e-08
3.21018e-08
3.20993e-08
3.20977e-08
3.20977e-08
3.2099e-08
3.20984e-08
3.2093e-08
3.20848e-08
3.20777e-08
3.2073e-08
3.21194e-08
3.21104e-08
3.21075e-08
3.2105e-08
3.21023e-08
3.20994e-08
3.20964e-08
3.20934e-08
3.20905e-08
3.20875e-08
3.20839e-08
3.20801e-08
3.20764e-08
3.20731e-08
3.21342e-08
3.21124e-08
3.21081e-08
3.21055e-08
3.21028e-08
3.20999e-08
3.20968e-08
3.20936e-08
3.20904e-08
3.20871e-08
3.20838e-08
3.20805e-08
3.20773e-08
3.20742e-08
3.21551e-08
3.2115e-08
3.21086e-08
3.21058e-08
3.21031e-08
3.21002e-08
3.20971e-08
3.20939e-08
3.20907e-08
3.20875e-08
3.20843e-08
3.20811e-08
3.2078e-08
3.20749e-08
3.21654e-08
3.21163e-08
3.21089e-08
3.2106e-08
3.21032e-08
3.21004e-08
3.20973e-08
3.20942e-08
3.2091e-08
3.20879e-08
3.20847e-08
3.20817e-08
3.20786e-08
3.20756e-08
3.21539e-08
3.2115e-08
3.21089e-08
3.2106e-08
3.21033e-08
3.21004e-08
3.20974e-08
3.20943e-08
3.20912e-08
3.20881e-08
3.20851e-08
3.20821e-08
3.20791e-08
3.20762e-08
3.21355e-08
3.21131e-08
3.21087e-08
3.2106e-08
3.21033e-08
3.21005e-08
3.20975e-08
3.20944e-08
3.20913e-08
3.20883e-08
3.20853e-08
3.20824e-08
3.20795e-08
3.20766e-08
3.21227e-08
3.21118e-08
3.21086e-08
3.2106e-08
3.21033e-08
3.21004e-08
3.20975e-08
3.20944e-08
3.20914e-08
3.20884e-08
3.20854e-08
3.20826e-08
3.20798e-08
3.20769e-08
3.21166e-08
3.21112e-08
3.21086e-08
3.2106e-08
3.21033e-08
3.21004e-08
3.20974e-08
3.20944e-08
3.20914e-08
3.20884e-08
3.20855e-08
3.20827e-08
3.208e-08
3.20772e-08
3.21143e-08
3.21111e-08
3.21086e-08
3.2106e-08
3.21032e-08
3.21003e-08
3.20973e-08
3.20943e-08
3.20914e-08
3.20885e-08
3.20856e-08
3.20828e-08
3.20801e-08
3.20774e-08
3.21135e-08
3.2111e-08
3.21086e-08
3.21059e-08
3.21031e-08
3.21002e-08
3.20972e-08
3.20942e-08
3.20913e-08
3.20884e-08
3.20855e-08
3.20828e-08
3.20801e-08
3.20774e-08
3.21134e-08
3.21112e-08
3.21086e-08
3.21059e-08
3.2103e-08
3.21e-08
3.20971e-08
3.20941e-08
3.20911e-08
3.20882e-08
3.20854e-08
3.20827e-08
3.208e-08
3.20774e-08
3.21134e-08
3.21112e-08
3.21087e-08
3.21059e-08
3.21029e-08
3.20999e-08
3.20968e-08
3.20938e-08
3.20909e-08
3.2088e-08
3.20851e-08
3.20824e-08
3.20796e-08
3.20771e-08
3.21139e-08
3.21112e-08
3.21086e-08
3.21058e-08
3.21028e-08
3.20997e-08
3.20965e-08
3.20934e-08
3.20905e-08
3.20877e-08
3.20849e-08
3.20822e-08
3.20796e-08
3.2077e-08
3.20355e-08
3.20343e-08
3.2033e-08
3.20315e-08
3.20298e-08
3.20278e-08
3.20258e-08
3.20237e-08
3.20216e-08
3.20193e-08
3.20169e-08
3.20144e-08
3.2012e-08
3.20098e-08
3.20358e-08
3.20345e-08
3.20331e-08
3.20315e-08
3.20297e-08
3.20278e-08
3.20258e-08
3.20236e-08
3.20213e-08
3.2019e-08
3.20166e-08
3.20142e-08
3.20119e-08
3.20096e-08
3.20361e-08
3.20345e-08
3.2033e-08
3.20313e-08
3.20295e-08
3.20276e-08
3.20256e-08