/*--------------------------------*- C++ -*----------------------------------*\
| =========                 |                                                 |
| \\      /  F ield         | OpenFOAM: The Open Source CFD Toolbox           |
|  \\    /   O peration     | Version:  v2106                                 |
|   \\  /    A nd           | Website:  www.openfoam.com                      |
|    \\/     M anipulation  |                                                 |
\*---------------------------------------------------------------------------*/
FoamFile
{
    version     2.0;
    format      ascii;
    arch        "LSB;label=32;scalar=64";
    class       volScalarField;
    location    "0.000134";
    object      alphat;
}
// * * * * * * * * * * * * * * * * * * * * * * * * * * * * * * * * * * * * * //

dimensions      [1 -1 -1 0 0 0 0];

internalField   nonuniform List<scalar> 
144746
(
2.1833e-05
2.22878e-05
2.33438e-05
2.35791e-05
2.26816e-05
2.06235e-05
1.79398e-05
1.53824e-05
1.28636e-05
1.03636e-05
7.55654e-06
4.9322e-06
3.71848e-06
4.50426e-06
1.24131e-05
1.21781e-05
1.23854e-05
1.2307e-05
1.17573e-05
1.07234e-05
9.4375e-06
8.17872e-06
6.92918e-06
5.70531e-06
4.17892e-06
2.7541e-06
2.52186e-06
4.2285e-06
8.41409e-06
6.89158e-06
5.99359e-06
5.35064e-06
4.79289e-06
4.2052e-06
3.76203e-06
3.28722e-06
2.85037e-06
2.46098e-06
1.85311e-06
1.43771e-06
2.08616e-06
4.65979e-06
8.68753e-06
5.92312e-06
3.87825e-06
2.46779e-06
1.67725e-06
1.27137e-06
1.05125e-06
9.07188e-07
8.29405e-07
7.81059e-07
6.54253e-07
8.13131e-07
2.01293e-06
5.17763e-06
1.19965e-05
8.05276e-06
4.75246e-06
2.42077e-06
1.10803e-06
4.83834e-07
2.37161e-07
1.6277e-07
1.56346e-07
1.7417e-07
2.22221e-07
6.32123e-07
2.13413e-06
5.63269e-06
1.58282e-05
1.06287e-05
6.10228e-06
2.98026e-06
1.21945e-06
4.11612e-07
1.14603e-07
3.21073e-08
1.94003e-08
3.23267e-08
1.3142e-07
6.50768e-07
2.33765e-06
6.05412e-06
1.92287e-05
1.25816e-05
7.10787e-06
3.35617e-06
1.29618e-06
4.0145e-07
9.68141e-08
1.84996e-08
4.30653e-09
1.48484e-08
1.34272e-07
7.16014e-07
2.48443e-06
6.24588e-06
2.29117e-05
1.48158e-05
8.25639e-06
3.81117e-06
1.42497e-06
4.27075e-07
1.07856e-07
3.00893e-08
1.321e-08
2.12519e-08
1.4871e-07
7.48909e-07
2.50274e-06
6.1096e-06
2.67118e-05
1.69035e-05
9.27591e-06
4.23287e-06
1.58499e-06
5.12568e-07
1.83299e-07
9.87757e-08
6.67249e-08
5.8945e-08
1.71871e-07
7.26557e-07
2.32575e-06
5.57432e-06
2.99975e-05
1.84837e-05
9.95085e-06
4.53073e-06
1.7873e-06
7.40783e-07
4.4218e-07
3.51233e-07
2.79277e-07
2.20569e-07
2.6798e-07
6.71298e-07
1.913e-06
4.54834e-06
3.19151e-05
1.91176e-05
1.01083e-05
4.68831e-06
2.13703e-06
1.30866e-06
1.14144e-06
1.06928e-06
9.29521e-07
7.60645e-07
6.63762e-07
8.148e-07
1.53737e-06
3.37194e-06
3.18486e-05
1.86889e-05
9.84109e-06
4.8857e-06
2.88944e-06
2.55289e-06
2.68335e-06
2.70857e-06
2.51183e-06
2.17243e-06
1.81558e-06
1.59427e-06
1.67625e-06
2.60593e-06
3.01726e-05
1.74222e-05
9.42375e-06
5.44093e-06
4.39882e-06
4.8569e-06
5.48434e-06
5.75589e-06
5.62854e-06
5.13648e-06
4.41414e-06
3.65752e-06
2.98152e-06
2.96691e-06
2.82656e-05
1.62879e-05
9.50252e-06
6.84019e-06
7.06187e-06
8.49615e-06
9.78581e-06
1.05294e-05
1.07441e-05
1.02775e-05
9.18565e-06
7.70682e-06
6.13564e-06
5.14508e-06
4.69788e-05
4.54365e-05
4.40337e-05
4.12247e-05
3.68681e-05
3.14389e-05
2.58278e-05
2.08266e-05
1.62903e-05
1.21013e-05
8.08492e-06
5.33119e-06
5.38143e-06
9.28063e-06
2.66616e-05
2.61644e-05
2.52363e-05
2.34557e-05
2.08852e-05
1.77749e-05
1.4597e-05
1.17006e-05
9.18394e-06
6.92869e-06
4.67554e-06
3.35607e-06
4.7051e-06
9.84229e-06
1.54093e-05
1.38972e-05
1.24024e-05
1.08259e-05
9.12574e-06
7.42545e-06
6.08478e-06
4.81548e-06
3.816e-06
3.01438e-06
2.1658e-06
2.17408e-06
4.62259e-06
1.07963e-05
1.17012e-05
8.89279e-06
6.39787e-06
4.43489e-06
3.08253e-06
2.24661e-06
1.69216e-06
1.29702e-06
1.07709e-06
9.40232e-07
8.41315e-07
1.60872e-06
4.72174e-06
1.15183e-05
1.43735e-05
1.0322e-05
6.53114e-06
3.61845e-06
1.7521e-06
7.78569e-07
3.59268e-07
2.16611e-07
1.88497e-07
2.0875e-07
3.79514e-07
1.45863e-06
4.85187e-06
1.17995e-05
1.97995e-05
1.43614e-05
8.86168e-06
4.57025e-06
1.94811e-06
6.7633e-07
1.87497e-07
4.66086e-08
2.23523e-08
4.94245e-08
2.93549e-07
1.46733e-06
4.90132e-06
1.16428e-05
2.53686e-05
1.81305e-05
1.09443e-05
5.45057e-06
2.19282e-06
6.99931e-07
1.72464e-07
3.39184e-08
8.34665e-09
3.31721e-08
2.95144e-07
1.47373e-06
4.73227e-06
1.09628e-05
3.20027e-05
2.25539e-05
1.3537e-05
6.65106e-06
2.61174e-06
8.16655e-07
2.17901e-07
6.90515e-08
3.50624e-08
4.9888e-08
2.95717e-07
1.38246e-06
4.31162e-06
9.79429e-06
3.93414e-05
2.72311e-05
1.61822e-05
7.91111e-06
3.12697e-06
1.05693e-06
4.0037e-07
2.36462e-07
1.73333e-07
1.50521e-07
3.3084e-07
1.21016e-06
3.60431e-06
8.12705e-06
4.70883e-05
3.17453e-05
1.8534e-05
9.0302e-06
3.71234e-06
1.5501e-06
9.41419e-07
7.96399e-07
6.82428e-07
5.69881e-07
5.9804e-07
1.12082e-06
2.72958e-06
6.00704e-06
5.38607e-05
3.52019e-05
2.01269e-05
9.87041e-06
4.46779e-06
2.57365e-06
2.25246e-06
2.25176e-06
2.11807e-06
1.87318e-06
1.64422e-06
1.69143e-06
2.37155e-06
4.28882e-06
5.84528e-05
3.71153e-05
2.08758e-05
1.05438e-05
5.66563e-06
4.54423e-06
4.87688e-06
5.28397e-06
5.31433e-06
4.99824e-06
4.43128e-06
3.85601e-06
3.48018e-06
4.03007e-06
6.01346e-05
3.71145e-05
2.08199e-05
1.13153e-05
7.63797e-06
7.81623e-06
9.20291e-06
1.03864e-05
1.1011e-05
1.09511e-05
1.01418e-05
8.81369e-06
7.24489e-06
6.3816e-06
6.02064e-05
3.63532e-05
2.07531e-05
1.26283e-05
1.06318e-05
1.24214e-05
1.51607e-05
1.75493e-05
1.93614e-05
2.01587e-05
1.95782e-05
1.75985e-05
1.4863e-05
1.25925e-05
8.43394e-05
7.65954e-05
6.89616e-05
6.02039e-05
5.10117e-05
4.17758e-05
3.33344e-05
2.55868e-05
1.88584e-05
1.30582e-05
8.3202e-06
6.68244e-06
1.03883e-05
2.14628e-05
5.2826e-05
4.94297e-05
4.49937e-05
3.94502e-05
3.31012e-05
2.66125e-05
2.06585e-05
1.5315e-05
1.11464e-05
7.60792e-06
5.03909e-06
5.11061e-06
1.03345e-05
2.23697e-05
3.02442e-05
2.76709e-05
2.43352e-05
2.04711e-05
1.62747e-05
1.2422e-05
9.17056e-06
6.46625e-06
4.67942e-06
3.34041e-06
2.55778e-06
4.1332e-06
1.05062e-05
2.31988e-05
1.81981e-05
1.48625e-05
1.13774e-05
8.23104e-06
5.67462e-06
3.84897e-06
2.54571e-06
1.69477e-06
1.27547e-06
1.04528e-06
1.24214e-06
3.58134e-06
1.0423e-05
2.30914e-05
1.69289e-05
1.25994e-05
8.32705e-06
4.84102e-06
2.44668e-06
1.09107e-06
4.76691e-07
2.56763e-07
2.06238e-07
2.53614e-07
7.85497e-07
3.32771e-06
1.00452e-05
2.19684e-05
2.25011e-05
1.72931e-05
1.13158e-05
6.04309e-06
2.63302e-06
9.18839e-07
2.48035e-07
5.49902e-08
2.28306e-08
9.10474e-08
6.79428e-07
3.13976e-06
9.34676e-06
2.00618e-05
2.98912e-05
2.31101e-05
1.46336e-05
7.54059e-06
3.10183e-06
9.96477e-07
2.42151e-07
4.66967e-08
1.23877e-08
7.26131e-08
6.25401e-07
2.85572e-06
8.3316e-06
1.75513e-05
3.86456e-05
2.98983e-05
1.91404e-05
9.84914e-06
3.98416e-06
1.26003e-06
3.3907e-07
1.15553e-07
6.54237e-08
9.89496e-08
5.53095e-07
2.38527e-06
6.86275e-06
1.4417e-05
4.86469e-05
3.74882e-05
2.42327e-05
1.25573e-05
5.13143e-06
1.75003e-06
6.72002e-07
4.246e-07
3.34515e-07
3.05235e-07
5.92789e-07
1.90409e-06
5.20988e-06
1.09581e-05
6.03458e-05
4.58784e-05
2.95408e-05
1.53956e-05
6.51021e-06
2.66588e-06
1.59921e-06
1.42437e-06
1.30645e-06
1.18034e-06
1.20418e-06
1.85411e-06
3.76431e-06
7.46243e-06
7.26296e-05
5.39292e-05
3.42248e-05
1.79549e-05
8.12482e-06
4.32629e-06
3.69482e-06
3.89179e-06
3.93057e-06
3.79586e-06
3.52163e-06
3.46391e-06
3.96073e-06
5.69872e-06
8.4662e-05
6.0997e-05
3.78751e-05
2.01021e-05
1.0156e-05
7.15617e-06
7.58528e-06
8.68245e-06
9.39302e-06
9.65509e-06
9.25096e-06
8.46217e-06
7.49871e-06
7.47178e-06
9.43791e-05
6.58e-05
4.01629e-05
2.19223e-05
1.27943e-05
1.13507e-05
1.34804e-05
1.61149e-05
1.83033e-05
1.97635e-05
1.98378e-05
1.85869e-05
1.62611e-05
1.45442e-05
0.000100601
6.83991e-05
4.1539e-05
2.37311e-05
1.60909e-05
1.65938e-05
2.07421e-05
2.54336e-05
2.99185e-05
3.3624e-05
3.54391e-05
3.47279e-05
3.18249e-05
2.88423e-05
7.85724e-06
1.29924e-05
2.1287e-05
3.3842e-05
8.0472e-05
8.21885e-05
8.24846e-06
1.3866e-05
2.27509e-05
3.55305e-05
7.34993e-05
7.92592e-05
9.59332e-06
1.67148e-05
2.78952e-05
4.39042e-05
8.23156e-05
7.72067e-05
1.09151e-05
1.97578e-05
3.36846e-05
5.38791e-05
9.6571e-05
7.71215e-05
1.19269e-05
2.2114e-05
3.84226e-05
6.32494e-05
0.000114874
7.96445e-05
1.25409e-05
2.33101e-05
4.09598e-05
7.01146e-05
0.000134358
8.39913e-05
1.26305e-05
2.30922e-05
4.05447e-05
7.25905e-05
0.000151156
8.9054e-05
1.21094e-05
2.15637e-05
3.77542e-05
7.04939e-05
0.000160836
9.4555e-05
1.09728e-05
1.91344e-05
3.34121e-05
6.49374e-05
0.000163122
9.85513e-05
9.12493e-06
1.58316e-05
2.78797e-05
5.64972e-05
0.000155524
9.98753e-05
6.91786e-06
1.21417e-05
2.18635e-05
4.61229e-05
0.000139603
9.88216e-05
4.96188e-06
8.8886e-06
1.65182e-05
3.61248e-05
0.000115414
9.63523e-05
4.21224e-06
7.41974e-06
1.38927e-05
2.94116e-05
9.11082e-05
9.34581e-05
5.61181e-06
9.08288e-06
1.57611e-05
2.77517e-05
7.68058e-05
8.84671e-05
1.82432e-05
2.86017e-05
4.20718e-05
5.39757e-05
7.05884e-05
7.06838e-05
1.94329e-05
3.14362e-05
4.764e-05
6.44274e-05
8.02304e-05
7.20911e-05
2.1243e-05
3.53555e-05
5.50335e-05
7.72058e-05
9.90998e-05
7.64136e-05
2.26067e-05
3.86681e-05
6.15765e-05
8.90557e-05
0.000119137
8.36084e-05
2.28809e-05
3.96575e-05
6.42505e-05
9.63048e-05
0.000137101
9.20331e-05
2.21e-05
3.81889e-05
6.2334e-05
9.78495e-05
0.000150853
9.95664e-05
2.03427e-05
3.44349e-05
5.59157e-05
9.23626e-05
0.000159151
0.000104574
1.79306e-05
2.94739e-05
4.75731e-05
8.14437e-05
0.000158231
0.000106766
1.49469e-05
2.4053e-05
3.85166e-05
6.79255e-05
0.000147549
0.000105304
1.14058e-05
1.83156e-05
2.95005e-05
5.37429e-05
0.000127816
0.000100079
8.10368e-06
1.32401e-05
2.18257e-05
4.10558e-05
0.000103508
9.30239e-05
6.20016e-06
1.02593e-05
1.73604e-05
3.26934e-05
8.02845e-05
8.60894e-05
7.25642e-06
1.16268e-05
1.90646e-05
3.18861e-05
6.41324e-05
8.04181e-05
1.28025e-05
1.93e-05
2.89655e-05
4.00203e-05
5.92633e-05
7.46152e-05
4.14456e-05
5.94895e-05
7.96137e-05
9.729e-05
0.000105996
7.21108e-05
4.18355e-05
6.27044e-05
8.66859e-05
0.000109889
0.000121947
8.59876e-05
4.22042e-05
6.47327e-05
9.141e-05
0.000118378
0.000133892
0.000100791
4.1231e-05
6.42169e-05
9.17203e-05
0.000120532
0.00014066
0.000112965
3.83914e-05
5.98469e-05
8.56821e-05
0.000114929
0.000141051
0.000120849
3.423e-05
5.27576e-05
7.53477e-05
0.000103815
0.000136442
0.000123928
2.93316e-05
4.43188e-05
6.27989e-05
8.91244e-05
0.000127365
0.00012226
2.40086e-05
3.5406e-05
4.99914e-05
7.20925e-05
0.000114222
0.000115931
1.86094e-05
2.70012e-05
3.79806e-05
5.50081e-05
9.56731e-05
0.000104816
1.32834e-05
1.94277e-05
2.77374e-05
4.07526e-05
7.48793e-05
9.09273e-05
9.47721e-06
1.43081e-05
2.12273e-05
3.18524e-05
5.77005e-05
7.81597e-05
9.19722e-06
1.43022e-05
2.19924e-05
3.25187e-05
5.24969e-05
7.08515e-05
1.47319e-05
2.2823e-05
3.43418e-05
4.72113e-05
6.38141e-05
6.85329e-05
2.77482e-05
4.08558e-05
5.7703e-05
7.307e-05
8.51497e-05
6.65442e-05
1.00283e-05
1.53652e-05
2.30415e-05
3.21413e-05
7.3555e-05
8.34599e-05
1.17064e-05
1.81643e-05
2.76336e-05
3.90907e-05
7.51667e-05
8.02391e-05
1.42733e-05
2.26328e-05
3.49621e-05
5.04389e-05
8.88641e-05
7.83025e-05
1.66032e-05
2.68561e-05
4.2176e-05
6.27589e-05
0.000107763
7.88028e-05
1.80061e-05
2.94484e-05
4.69064e-05
7.27558e-05
0.000129081
8.17974e-05
1.81564e-05
2.96705e-05
4.77671e-05
7.80428e-05
0.000148472
8.59835e-05
1.72782e-05
2.79196e-05
4.52867e-05
7.80038e-05
0.0001626
8.99591e-05
1.58232e-05
2.51706e-05
4.08848e-05
7.37413e-05
0.000169582
9.29769e-05
1.38597e-05
2.17853e-05
3.55101e-05
6.68668e-05
0.000168514
9.54075e-05
1.14883e-05
1.80298e-05
2.98382e-05
5.83241e-05
0.000159168
9.55942e-05
9.76448e-06
1.52207e-05
2.5217e-05
5.03429e-05
0.000141969
9.37039e-05
1.07265e-05
1.58091e-05
2.47142e-05
4.54498e-05
0.000120872
9.17738e-05
1.60446e-05
2.24866e-05
3.16303e-05
4.76073e-05
0.000100638
9.04766e-05
2.67666e-05
3.63665e-05
4.68309e-05
5.68069e-05
9.38388e-05
8.53538e-05
2.42848e-05
3.53394e-05
4.74842e-05
5.53499e-05
6.69488e-05
7.09062e-05
2.7218e-05
4.07027e-05
5.68031e-05
7.13191e-05
8.41429e-05
7.25817e-05
3.07976e-05
4.69796e-05
6.73006e-05
8.80259e-05
0.000108251
7.785e-05
3.29782e-05
5.08713e-05
7.46374e-05
0.000101942
0.000132061
8.62183e-05
3.26666e-05
5.04268e-05
7.53644e-05
0.000107971
0.000150507
9.5101e-05
3.0221e-05
4.61544e-05
6.96231e-05
0.000105171
0.000160977
0.000101844
2.6591e-05
3.98163e-05
5.99898e-05
9.51092e-05
0.00016277
0.000104947
2.26062e-05
3.30238e-05
4.92207e-05
8.14451e-05
0.000156898
0.000104166
1.84632e-05
2.65754e-05
3.94316e-05
6.7374e-05
0.000142304
0.000100431
1.50609e-05
2.16489e-05
3.2462e-05
5.60509e-05
0.00012194
9.53753e-05
1.49604e-05
2.12779e-05
3.12428e-05
5.14456e-05
0.000103786
8.95417e-05
2.13001e-05
2.93723e-05
4.02415e-05
5.73747e-05
9.10328e-05
8.51398e-05
3.57802e-05
4.83e-05
6.09698e-05
7.40591e-05
8.58657e-05
8.2348e-05
5.81264e-05
7.50912e-05
8.8502e-05
9.45062e-05
9.06877e-05
7.61948e-05
5.15986e-05
6.88526e-05
8.62822e-05
0.000101325
0.000103764
7.16814e-05
5.44236e-05
7.55411e-05
9.71977e-05
0.000117932
0.000122587
8.66376e-05
5.63071e-05
7.92689e-05
0.00010406
0.000128318
0.000136676
0.000102225
5.48843e-05
7.73636e-05
0.000102536
0.000128374
0.000142655
0.000114042
4.99201e-05
6.96072e-05
9.22541e-05
0.000118353
0.000139781
0.000120596
4.28811e-05
5.87465e-05
7.7387e-05
0.000101873
0.000129252
0.000121588
3.54615e-05
4.74646e-05
6.16741e-05
8.28359e-05
0.000114955
0.000117594
2.84425e-05
3.71794e-05
4.79148e-05
6.55574e-05
9.77137e-05
0.000108964
2.2477e-05
2.93192e-05
3.80964e-05
5.26407e-05
8.11003e-05
9.8053e-05
2.0001e-05
2.66689e-05
3.56299e-05
4.88508e-05
7.26686e-05
8.91593e-05
2.56582e-05
3.43711e-05
4.57899e-05
5.97184e-05
7.94581e-05
8.65937e-05
4.25522e-05
5.59576e-05
7.14771e-05
8.6987e-05
9.94974e-05
8.86344e-05
6.91304e-05
8.84185e-05
0.000106536
0.000122626
0.000120765
9.0825e-05
9.80438e-05
0.000119082
0.000135816
0.000149301
0.000133053
8.82117e-05
8.63089e-05
0.000102856
5.9773e-05
4.4698e-05
3.15439e-05
2.22176e-05
9.5409e-05
0.000115936
5.46838e-05
3.31811e-05
2.1237e-05
1.41443e-05
9.94549e-05
0.000136888
5.40623e-05
2.83803e-05
1.73308e-05
1.13175e-05
0.000101547
0.000157976
5.8553e-05
2.97977e-05
1.86094e-05
1.26323e-05
0.00010199
0.000176141
6.77669e-05
3.54116e-05
2.3269e-05
1.664e-05
0.000100156
0.000187989
7.87895e-05
4.33711e-05
2.92862e-05
2.12784e-05
9.59689e-05
0.000192543
9.05515e-05
5.29423e-05
3.61742e-05
2.61228e-05
9.00807e-05
0.000188773
0.000101193
6.38283e-05
4.43332e-05
3.17354e-05
8.53423e-05
0.000175511
0.000107668
7.40614e-05
5.29044e-05
3.79513e-05
8.09099e-05
0.00015789
0.000108516
8.096e-05
5.99083e-05
4.34887e-05
7.73963e-05
0.000139357
0.000103833
8.31416e-05
6.36999e-05
4.71496e-05
7.58875e-05
0.000121609
9.42358e-05
8.04035e-05
6.38142e-05
4.81427e-05
7.66021e-05
0.00010665
8.14936e-05
7.39931e-05
6.09997e-05
4.71195e-05
7.90801e-05
9.85394e-05
6.93212e-05
6.63217e-05
5.80421e-05
4.59273e-05
7.73952e-05
9.43021e-05
8.97331e-05
8.00733e-05
6.32045e-05
4.69181e-05
8.6576e-05
9.61072e-05
7.4201e-05
5.69483e-05
4.08453e-05
2.84479e-05
9.24667e-05
0.000104351
6.10178e-05
4.01237e-05
2.67277e-05
1.8167e-05
9.79592e-05
0.000116488
5.48476e-05
3.27317e-05
2.18086e-05
1.54332e-05
0.000102516
0.000132429
5.77554e-05
3.40971e-05
2.42499e-05
1.85471e-05
0.00010559
0.000149781
6.81875e-05
4.14594e-05
3.08058e-05
2.44455e-05
0.000106624
0.000164771
8.39416e-05
5.28471e-05
3.9742e-05
3.14191e-05
0.000106736
0.000171223
0.000102475
6.81826e-05
5.15391e-05
4.03287e-05
0.000104778
0.000170346
0.000119214
8.54338e-05
6.52968e-05
5.08108e-05
0.000100098
0.000165025
0.000131058
0.000101247
7.93746e-05
6.20111e-05
9.30515e-05
0.000156521
0.000136729
0.000113014
9.16492e-05
7.23334e-05
8.48068e-05
0.000143063
0.000134637
0.000118713
0.000100383
8.04506e-05
7.73284e-05
0.000124515
0.000124407
0.000117324
0.000104494
8.55354e-05
7.26119e-05
0.000104408
0.000108581
0.000111368
0.000106144
8.99442e-05
8.90618e-05
0.00013446
0.000140265
0.000125536
0.000105064
8.25047e-05
9.35615e-05
0.000125602
0.000117886
9.86952e-05
7.59619e-05
5.48753e-05
9.35489e-05
0.000107496
8.75183e-05
6.8352e-05
4.8619e-05
3.33418e-05
9.26099e-05
8.83974e-05
6.16236e-05
4.53476e-05
3.15462e-05
2.20444e-05
9.41578e-05
7.89522e-05
4.83638e-05
3.55876e-05
2.68164e-05
2.09452e-05
9.97719e-05
8.10624e-05
4.75835e-05
3.65629e-05
3.04031e-05
2.61965e-05
0.000107489
9.03958e-05
5.57987e-05
4.36483e-05
3.80768e-05
3.37303e-05
0.000115044
0.00010217
6.94305e-05
5.51816e-05
4.86042e-05
4.3384e-05
0.00012023
0.000113822
8.6012e-05
7.0134e-05
6.17643e-05
5.5257e-05
0.000122079
0.000124049
0.00010402
8.77539e-05
7.78185e-05
6.95136e-05
0.000120669
0.000134835
0.000123041
0.000107566
9.6122e-05
8.5349e-05
0.000115676
0.000141362
0.000140568
0.000127728
0.000115653
0.000101995
0.000106314
0.000140935
0.000151865
0.000143844
0.000133329
0.000117594
9.27553e-05
0.000133598
0.000155592
0.000152846
0.000146448
0.000131883
9.04915e-05
8.98954e-05
3.29096e-05
1.69427e-05
9.10871e-06
5.48308e-06
9.96121e-05
0.000107007
3.57422e-05
1.69098e-05
9.18644e-06
5.49189e-06
0.000104016
0.000131073
4.21506e-05
2.03496e-05
1.20609e-05
7.68738e-06
0.000106054
0.000153151
5.2014e-05
2.64295e-05
1.67947e-05
1.13589e-05
0.000106206
0.000169375
6.40635e-05
3.42659e-05
2.25392e-05
1.5552e-05
0.000103657
0.00017915
7.70957e-05
4.33876e-05
2.88702e-05
1.97887e-05
9.79364e-05
0.000182063
8.98253e-05
5.34841e-05
3.5695e-05
2.41056e-05
9.00122e-05
0.000176853
9.98428e-05
6.3673e-05
4.29186e-05
2.86311e-05
8.38188e-05
0.000162197
0.00010417
7.20926e-05
4.99169e-05
3.34588e-05
7.87619e-05
0.000144275
0.000102455
7.61175e-05
5.44708e-05
3.70142e-05
7.5315e-05
0.00012662
9.56498e-05
7.51515e-05
5.54978e-05
3.84321e-05
7.41509e-05
0.000111319
8.54414e-05
7.07176e-05
5.38772e-05
3.81982e-05
7.50854e-05
0.00010015
7.41539e-05
6.47698e-05
5.07741e-05
3.70066e-05
7.74509e-05
9.88214e-05
6.75442e-05
6.06926e-05
4.9778e-05
3.71446e-05
7.6944e-05
6.81657e-05
4.05737e-05
2.65242e-05
1.6059e-05
1.03357e-05
8.61205e-05
7.48964e-05
3.38771e-05
1.91239e-05
1.1226e-05
7.0325e-06
9.36739e-05
8.99914e-05
3.45469e-05
1.8931e-05
1.20398e-05
7.91522e-06
0.000100602
0.000110048
4.17389e-05
2.40169e-05
1.65727e-05
1.17472e-05
0.000106154
0.000130495
5.35502e-05
3.23866e-05
2.3287e-05
1.71681e-05
0.000109373
0.000148423
6.88806e-05
4.30638e-05
3.14666e-05
2.32821e-05
0.000109446
0.000161323
8.65853e-05
5.60593e-05
4.09956e-05
3.002e-05
0.000106801
0.000166456
0.000104639
7.11338e-05
5.22177e-05
3.78451e-05
0.000102807
0.000162645
0.00011875
8.63602e-05
6.41778e-05
4.66026e-05
9.6944e-05
0.000154095
0.000126664
9.8471e-05
7.4946e-05
5.49099e-05
8.95252e-05
0.000142882
0.000128034
0.00010557
8.26415e-05
6.13381e-05
8.18097e-05
0.000128925
0.00012281
0.000107231
8.70528e-05
6.58825e-05
7.54765e-05
0.000113094
0.000112558
0.000104621
8.90803e-05
6.91073e-05
7.1785e-05
9.91881e-05
0.000100935
0.000101159
9.20593e-05
7.4541e-05
6.83352e-05
8.83533e-05
7.03762e-05
5.18885e-05
3.34215e-05
2.18558e-05
7.2014e-05
6.72213e-05
4.58539e-05
3.11432e-05
1.89974e-05
1.18753e-05
7.53271e-05
5.61642e-05
3.19559e-05
2.16384e-05
1.41949e-05
9.32097e-06
8.14671e-05
5.81668e-05
3.04086e-05
2.21164e-05
1.64662e-05
1.19727e-05
9.11282e-05
6.93473e-05
3.6724e-05
2.84033e-05
2.26797e-05
1.78208e-05
0.000102097
8.447e-05
4.75912e-05
3.73444e-05
3.10734e-05
2.50469e-05
0.000112226
9.91303e-05
6.13658e-05
4.84151e-05
4.07615e-05
3.32557e-05
0.000119505
0.00011095
7.72801e-05
6.16189e-05
5.22155e-05
4.30608e-05
0.000123311
0.000120044
9.3144e-05
7.61906e-05
6.50307e-05
5.41099e-05
0.000123785
0.000127444
0.000108231
9.16785e-05
7.90731e-05
6.61009e-05
0.000121055
0.000133968
0.000122493
0.000107215
9.32923e-05
7.8197e-05
0.000115035
0.000137444
0.000134806
0.000121642
0.000107185
9.01647e-05
0.000105352
0.000136396
0.000142905
0.000133416
0.000120292
0.00010212
9.23038e-05
0.000130439
0.00014652
0.0001418
0.000132979
0.000116643
0.000103104
8.99243e-05
7.78837e-05
6.57342e-05
5.45341e-05
4.39515e-05
3.47788e-05
2.64851e-05
1.91213e-05
1.28997e-05
8.6195e-06
9.12563e-06
1.77145e-05
3.71972e-05
7.13226e-05
6.37885e-05
5.56835e-05
4.66817e-05
3.76288e-05
2.90016e-05
2.1724e-05
1.55058e-05
1.08416e-05
7.14149e-06
5.16254e-06
7.37916e-06
1.70664e-05
3.58725e-05
4.39302e-05
3.83367e-05
3.21505e-05
2.55154e-05
1.91156e-05
1.36591e-05
9.53135e-06
6.32906e-06
4.31064e-06
2.97437e-06
2.75169e-06
6.1821e-06
1.6457e-05
3.46517e-05
2.55402e-05
2.01926e-05
1.49166e-05
1.03029e-05
6.69664e-06
4.19644e-06
2.60668e-06
1.55269e-06
1.0774e-06
8.93567e-07
1.49552e-06
5.25937e-06
1.51827e-05
3.20426e-05
1.97797e-05
1.41952e-05
9.08285e-06
5.16863e-06
2.59497e-06
1.14121e-06
4.52904e-07
2.11656e-07
1.57541e-07
2.36053e-07
1.0299e-06
4.57729e-06
1.35579e-05
2.8558e-05
2.37984e-05
1.76612e-05
1.12917e-05
5.98996e-06
2.59341e-06
8.99605e-07
2.39124e-07
4.92993e-08
1.75697e-08
1.05343e-07
8.5219e-07
3.94585e-06
1.16613e-05
2.44454e-05
3.09376e-05
2.36243e-05
1.47838e-05
7.52928e-06
3.06829e-06
9.79649e-07
2.38729e-07
4.71954e-08
1.34585e-08
8.5144e-08
7.29477e-07
3.34655e-06
9.76486e-06
2.03137e-05
3.9622e-05
3.08748e-05
1.98537e-05
1.018e-05
4.07815e-06
1.27746e-06
3.46163e-07
1.23763e-07
7.48424e-08
1.16378e-07
6.15758e-07
2.64816e-06
7.65852e-06
1.60604e-05
4.8927e-05
3.92417e-05
2.59573e-05
1.35777e-05
5.51067e-06
1.85272e-06
7.11089e-07
4.64957e-07
3.84419e-07
3.77098e-07
6.97197e-07
2.10114e-06
5.64984e-06
1.19061e-05
6.0533e-05
4.90426e-05
3.30366e-05
1.76682e-05
7.46488e-06
2.95797e-06
1.72518e-06
1.57181e-06
1.50518e-06
1.47806e-06
1.57476e-06
2.29191e-06
4.25693e-06
8.16529e-06
7.34048e-05
5.89286e-05
3.98888e-05
2.17803e-05
9.82524e-06
4.88639e-06
3.99852e-06
4.31738e-06
4.55645e-06
4.77165e-06
4.76833e-06
4.92288e-06
5.46194e-06
7.29368e-06
8.79123e-05
6.87564e-05
4.62071e-05
2.57655e-05
1.27386e-05
8.07053e-06
8.21484e-06
9.65893e-06
1.09266e-05
1.20388e-05
1.24108e-05
1.22999e-05
1.16055e-05
1.18147e-05
0.000101711
7.70901e-05
5.12393e-05
2.93376e-05
1.62229e-05
1.26881e-05
1.46149e-05
1.78907e-05
2.11364e-05
2.40966e-05
2.57524e-05
2.61143e-05
2.4685e-05
2.38542e-05
0.000115145
8.4338e-05
5.54294e-05
3.25972e-05
2.02241e-05
1.84722e-05
2.25231e-05
2.80178e-05
3.38177e-05
3.96248e-05
4.39381e-05
4.6433e-05
4.59866e-05
4.56401e-05
7.25682e-05
6.69295e-05
6.07906e-05
5.2639e-05
4.4458e-05
3.60506e-05
2.84612e-05
2.16488e-05
1.56719e-05
1.0553e-05
6.91822e-06
6.77923e-06
1.20155e-05
2.25992e-05
5.24878e-05
4.81433e-05
4.2723e-05
3.57971e-05
2.86614e-05
2.18379e-05
1.61731e-05
1.14896e-05
8.01133e-06
5.37527e-06
3.83908e-06
5.2053e-06
1.16041e-05
2.30495e-05
3.32373e-05
2.86449e-05
2.35993e-05
1.82327e-05
1.33277e-05
9.30897e-06
6.40697e-06
4.22618e-06
2.8977e-06
2.07633e-06
1.92302e-06
4.22452e-06
1.12266e-05
2.32918e-05
2.00904e-05
1.51214e-05
1.06617e-05
7.00303e-06
4.34358e-06
2.60334e-06
1.55771e-06
9.25314e-07
6.63711e-07
5.87526e-07
1.00202e-06
3.53732e-06
1.04027e-05
2.21941e-05
1.69292e-05
1.15987e-05
7.12158e-06
3.88307e-06
1.8423e-06
7.4471e-07
2.72433e-07
1.21241e-07
9.36262e-08
1.53548e-07
6.83385e-07
3.07241e-06
9.36878e-06
2.03397e-05
2.12444e-05
1.49109e-05
8.97695e-06
4.53603e-06
1.88722e-06
6.30127e-07
1.59919e-07
3.06827e-08
1.0985e-08
7.15335e-08
5.6522e-07
2.65324e-06
8.13951e-06
1.7816e-05
2.72696e-05
1.92429e-05
1.12741e-05
5.44302e-06
2.1275e-06
6.56591e-07
1.55512e-07
3.06948e-08
9.72239e-09
5.85187e-08
4.8242e-07
2.25483e-06
6.88265e-06
1.5139e-05
3.38637e-05
2.46175e-05
1.47549e-05
7.11055e-06
2.70941e-06
8.21707e-07
2.23714e-07
8.48493e-08
5.2439e-08
7.98567e-08
4.10285e-07
1.79982e-06
5.44535e-06
1.20893e-05
4.09675e-05
3.08551e-05
1.90102e-05
9.30251e-06
3.58177e-06
1.18466e-06
4.77899e-07
3.2484e-07
2.62716e-07
2.50009e-07
4.59726e-07
1.43215e-06
4.04906e-06
9.0424e-06
4.92684e-05
3.79953e-05
2.40432e-05
1.2066e-05
4.87009e-06
1.95187e-06
1.20697e-06
1.10081e-06
1.01453e-06
9.63833e-07
1.01516e-06
1.51987e-06
2.99649e-06
6.11157e-06
5.7417e-05
4.48137e-05
2.88596e-05
1.49253e-05
6.52614e-06
3.38098e-06
2.88544e-06
3.04994e-06
3.07712e-06
3.11884e-06
3.06404e-06
3.18462e-06
3.66728e-06
5.15142e-06
6.56244e-05
5.11596e-05
3.3419e-05
1.79155e-05
8.75797e-06
5.86482e-06
6.09926e-06
6.96401e-06
7.51881e-06
8.00916e-06
8.07887e-06
7.97299e-06
7.6027e-06
7.82724e-06
7.14224e-05
5.56413e-05
3.68901e-05
2.07947e-05
1.16398e-05
9.65353e-06
1.12078e-05
1.33056e-05
1.50194e-05
1.64598e-05
1.70464e-05
1.69534e-05
1.58119e-05
1.49725e-05
7.65856e-05
5.90704e-05
3.98527e-05
2.3716e-05
1.52275e-05
1.46698e-05
1.79149e-05
2.15933e-05
2.48959e-05
2.77101e-05
2.92222e-05
2.95391e-05
2.78854e-05
2.6295e-05
4.95431e-05
4.6473e-05
4.23393e-05
3.67172e-05
3.06107e-05
2.45036e-05
1.89647e-05
1.42274e-05
1.03536e-05
7.02737e-06
4.46224e-06
3.53678e-06
5.85792e-06
1.21485e-05
3.19063e-05
2.90654e-05
2.53642e-05
2.09218e-05
1.64775e-05
1.24387e-05
9.09378e-06
6.47955e-06
4.59437e-06
3.19516e-06
2.14728e-06
2.30263e-06
5.35738e-06
1.2372e-05
1.81596e-05
1.48795e-05
1.1693e-05
8.711e-06
6.24765e-06
4.35726e-06
2.9959e-06
2.03296e-06
1.45196e-06
1.0994e-06
8.91656e-07
1.6668e-06
5.05747e-06
1.24795e-05
1.14271e-05
7.83511e-06
5.08508e-06
3.10948e-06
1.82472e-06
1.05341e-06
6.09193e-07
3.82048e-07
2.97598e-07
2.73473e-07
3.76609e-07
1.34628e-06
4.69574e-06
1.19879e-05
1.2099e-05
7.76455e-06
4.49133e-06
2.29637e-06
1.00668e-06
3.68291e-07
1.21162e-07
4.99683e-08
3.95908e-08
5.81674e-08
2.32015e-07
1.19195e-06
4.29854e-06
1.10424e-05
1.6411e-05
1.05455e-05
5.82177e-06
2.73338e-06
1.07417e-06
3.40646e-07
8.24323e-08
1.49334e-08
4.32491e-09
2.19381e-08
1.95966e-07
1.07137e-06
3.8232e-06
9.79514e-06
2.07092e-05
1.31266e-05
7.0213e-06
3.13345e-06
1.14795e-06
3.35927e-07
7.60852e-08
1.42003e-08
3.7009e-09
1.80283e-08
1.74743e-07
9.43735e-07
3.31891e-06
8.43209e-06
2.54105e-05
1.65396e-05
8.88391e-06
3.88001e-06
1.3632e-06
3.89096e-07
1.01807e-07
3.69901e-08
2.13602e-08
2.75853e-08
1.56003e-07
7.84305e-07
2.69975e-06
6.81818e-06
3.06746e-05
2.04827e-05
1.11544e-05
4.85967e-06
1.70914e-06
5.4123e-07
2.20822e-07
1.47456e-07
1.12629e-07
9.68595e-08
1.79926e-07
6.42693e-07
2.06244e-06
5.16721e-06
3.64749e-05
2.487e-05
1.37873e-05
6.10823e-06
2.26884e-06
9.20763e-07
5.9911e-07
5.30958e-07
4.59438e-07
4.01925e-07
4.04666e-07
6.53152e-07
1.49821e-06
3.46548e-06
4.19311e-05
2.89467e-05
1.63166e-05
7.44895e-06
3.08765e-06
1.73259e-06
1.5483e-06
1.56907e-06
1.48167e-06
1.40092e-06
1.30436e-06
1.33545e-06
1.65383e-06
2.63896e-06
4.68913e-05
3.25487e-05
1.86898e-05
8.93782e-06
4.33801e-06
3.29028e-06
3.51746e-06
3.83833e-06
3.89296e-06
3.92478e-06
3.78764e-06
3.63812e-06
3.48195e-06
3.70667e-06
5.00717e-05
3.4989e-05
2.06409e-05
1.05824e-05
6.19354e-06
5.90528e-06
6.94197e-06
7.90767e-06
8.47207e-06
8.90412e-06
8.92482e-06
8.67547e-06
8.04163e-06
7.58041e-06
5.22863e-05
3.66742e-05
2.24435e-05
1.25746e-05
8.84395e-06
9.74099e-06
1.19604e-05
1.39157e-05
1.54233e-05
1.66206e-05
1.70883e-05
1.6889e-05
1.57803e-05
1.46518e-05
2.6678e-05
2.48092e-05
2.24335e-05
1.92896e-05
1.59281e-05
1.25368e-05
9.49983e-06
6.98927e-06
5.1011e-06
3.53489e-06
2.24105e-06
1.45236e-06
1.9213e-06
4.5001e-06
1.38822e-05
1.21408e-05
1.03433e-05
8.41644e-06
6.59601e-06
4.95737e-06
3.61068e-06
2.58025e-06
1.90035e-06
1.39843e-06
9.23346e-07
7.26074e-07
1.55988e-06
4.50321e-06
7.02708e-06
5.2051e-06
3.83624e-06
2.75339e-06
1.94704e-06
1.35011e-06
9.22803e-07
6.43452e-07
5.03631e-07
4.15564e-07
3.09586e-07
4.2772e-07
1.45731e-06
4.61764e-06
5.59588e-06
3.39579e-06
1.95625e-06
1.05876e-06
5.46756e-07
2.72971e-07
1.45144e-07
1.01244e-07
9.12776e-08
9.04992e-08
9.91037e-08
3.22734e-07
1.38346e-06
4.51568e-06
7.4492e-06
4.39689e-06
2.33383e-06
1.0843e-06
4.26839e-07
1.3905e-07
3.93029e-08
1.3965e-08
1.13018e-08
1.54395e-08
4.84149e-08
2.90652e-07
1.30746e-06
4.22911e-06
1.01142e-05
5.85024e-06
2.92984e-06
1.25982e-06
4.56505e-07
1.338e-07
3.00382e-08
5.02341e-09
1.21799e-09
3.80698e-09
3.89846e-08
2.69576e-07
1.19885e-06
3.81631e-06
1.26559e-05
7.10908e-06
3.40452e-06
1.37512e-06
4.61042e-07
1.24259e-07
2.61096e-08
4.54401e-09
1.04893e-09
2.81858e-09
3.53193e-08
2.43039e-07
1.06219e-06
3.3142e-06
1.56361e-05
8.80088e-06
4.13548e-06
1.60462e-06
5.08337e-07
1.32669e-07
3.23475e-08
1.11834e-08
6.10886e-09
5.60249e-09
3.25643e-08
2.06054e-07
8.74912e-07
2.67682e-06
1.89249e-05
1.0739e-05
5.01463e-06
1.90426e-06
5.9807e-07
1.76423e-07
7.12551e-08
4.66006e-08
3.37957e-08
2.50423e-08
4.07432e-08
1.71528e-07
6.72691e-07
2.01212e-06
2.24015e-05
1.28524e-05
6.01671e-06
2.29668e-06
7.70655e-07
3.12543e-07
2.11066e-07
1.81228e-07
1.47948e-07
1.16889e-07
1.05649e-07
1.72979e-07
4.75491e-07
1.32335e-06
2.55363e-05
1.47386e-05
6.95765e-06
2.74012e-06
1.07878e-06
6.56362e-07
6.04606e-07
5.86638e-07
5.20985e-07
4.51605e-07
3.89402e-07
3.76328e-07
4.91867e-07
9.28482e-07
2.82862e-05
1.63469e-05
7.84687e-06
3.29789e-06
1.65162e-06
1.41302e-06
1.52324e-06
1.58803e-06
1.51505e-06
1.42436e-06
1.29156e-06
1.17768e-06
1.10005e-06
1.20763e-06
2.99108e-05
1.74358e-05
8.64392e-06
4.04509e-06
2.66574e-06
2.85795e-06
3.33453e-06
3.64861e-06
3.70568e-06
3.69968e-06
3.53259e-06
3.30563e-06
2.98527e-06
2.76443e-06
3.09172e-05
1.83467e-05
9.60249e-06
5.19077e-06
4.36269e-06
5.28757e-06
6.3945e-06
7.21988e-06
7.71122e-06
8.03017e-06
7.98656e-06
7.66934e-06
7.03152e-06
6.38938e-06
1.06603e-05
9.68522e-06
8.69312e-06
7.43817e-06
6.10851e-06
4.76221e-06
3.61757e-06
2.73282e-06
2.07413e-06
1.51535e-06
9.59294e-07
5.3191e-07
4.78465e-07
1.14105e-06
4.27648e-06
3.45837e-06
2.87843e-06
2.33551e-06
1.85437e-06
1.41738e-06
1.06675e-06
8.16816e-07
6.48042e-07
5.10553e-07
3.35969e-07
1.98983e-07
3.06265e-07
1.10434e-06
2.27005e-06
1.39605e-06
9.08837e-07
6.06939e-07
4.18648e-07
2.90607e-07
2.09831e-07
1.67883e-07
1.46347e-07
1.29005e-07
9.13166e-08
8.11611e-08
2.80043e-07
1.20255e-06
2.68515e-06
1.42049e-06
7.04983e-07
3.22874e-07
1.37618e-07
5.6762e-08
3.00412e-08
2.35216e-08
2.33494e-08
2.40449e-08
2.09493e-08
5.02413e-08
2.77099e-07
1.23143e-06
4.04018e-06
2.18039e-06
1.04675e-06
4.36771e-07
1.53864e-07
4.47747e-08
1.10592e-08
3.35728e-09
2.60159e-09
3.24461e-09