/*--------------------------------*- C++ -*----------------------------------*\
| =========                 |                                                 |
| \\      /  F ield         | OpenFOAM: The Open Source CFD Toolbox           |
|  \\    /   O peration     | Version:  v2106                                 |
|   \\  /    A nd           | Website:  www.openfoam.com                      |
|    \\/     M anipulation  |                                                 |
\*---------------------------------------------------------------------------*/
FoamFile
{
    version     2.0;
    format      ascii;
    arch        "LSB;label=32;scalar=64";
    class       volScalarField;
    location    "0.00016";
    object      p;
}
// * * * * * * * * * * * * * * * * * * * * * * * * * * * * * * * * * * * * * //

dimensions      [1 -1 -2 0 0 0 0];

internalField   nonuniform List<scalar> 
17924
(
237941
237940
237931
237926
237234
237262
237285
237308
237330
237350
237369
237184
237213
237236
237261
237284
237306
237327
237139
237169
237192
237217
237239
237261
237282
237093
237123
237146
237171
237193
237215
237237
237046
237075
237098
237122
237145
237167
237190
236999
237026
237050
237074
237097
237120
237143
236953
236978
237002
237026
237050
237073
237096
236908
236932
236957
236981
237004
237027
237050
236865
236888
236913
236936
236959
236982
237005
236824
236846
236871
236894
236917
236940
236962
236784
236805
236830
236853
236876
236899
236922
236747
236766
236791
236814
236837
236860
236883
236709
236729
236753
236777
236800
236824
236847
236679
236698
236722
236745
236767
236790
236811
236457
236503
236545
236583
236619
236653
236684
236713
236741
236767
236791
236814
236836
236860
236451
236496
236537
236576
236614
236650
236684
236715
236744
236771
236797
236821
236844
236868
236448
236492
236534
236574
236612
236647
236681
236711
236741
236768
236794
236819
236843
236869
236441
236485
236527
236566
236605
236640
236674
236705
236735
236764
236791
236817
236842
236868
236435
236477
236519
236558
236596
236631
236665
236696
236726
236754
236782
236809
236835
236861
236424
236467
236508
236546
236584
236619
236653
236684
236715
236744
236772
236799
236826
236853
236414
236456
236496
236534
236571
236606
236639
236670
236701
236730
236758
236786
236813
236840
236401
236443
236482
236520
236557
236591
236624
236656
236686
236716
236745
236772
236800
236827
236389
236430
236469
236506
236542
236576
236609
236640
236671
236700
236729
236757
236785
236812
236377
236416
236455
236492
236527
236561
236594
236625
236655
236684
236713
236741
236769
236797
236364
236402
236440
236477
236512
236546
236577
236608
236638
236667
236695
236723
236751
236779
236351
236390
236427
236463
236497
236530
236561
236592
236621
236650
236678
236705
236731
236760
236339
236378
236414
236450
236482
236515
236545
236576
236605
236633
236660
236687
236713
236740
236336
236371
236405
236439
236470
236501
236530
236558
236586
236613
236639
236665
236691
236717
235581
235625
235670
235711
235751
235789
235825
235858
235890
235918
235945
235970
235992
236019
235605
235648
235694
235737
235779
235818
235856
235891
235924
235954
235981
236007
236030
236057
235634
235677
235724
235767
235809
235848
235886
235920
235952
235982
236010
236036
236060
236086
235657
235701
235748
235791
235834
235873
235911
235947
235980
236010
236039
236066
236090
236116
235680
235725
235772
235815
235858
235897
235935
235970
236003
236034
236062
236089
236115
236139
235700
235746
235792
235836
235878
235918
235956
235991
236025
236056
236085
236112
236138
236163
235719
235766
235812
235855
235897
235937
235975
236010
236043
236074
236104
236131
236157
236181
235737
235784
235829
235873
235914
235954
235991
236027
236060
236092
236121
236149
236175
236200
235753
235800
235845
235889
235930
235969
236006
236042
236075
236106
236136
236163
236190
236214
235769
235816
235859
235902
235943
235982
236019
236054
236087
236118
236148
236175
236202
236226
235783
235829
235872
235914
235954
235993
236029
236064
236097
236127
236157
236184
236211
236235
235796
235841
235883
235925
235964
236002
236038
236072
236104
236134
236163
236190
236216
236240
235808
235852
235893
235934
235972
236009
236044
236077
236109
236139
236167
236193
236218
236243
235823
235867
235905
235944
235980
236016
236049
236081
236111
236139
236166
236192
236218
236242
234645
234677
234712
234745
234779
234811
234842
234871
234900
234926
234951
234974
234996
235019
234682
234713
234750
234784
234820
234853
234886
234917
234946
234974
234999
235023
235045
235071
234722
234755
234793
234828
234864
234897
234930
234960
234989
235017
235043
235067
235089
235114
234760
234795
234833
234869
234905
234939
234972
235004
235033
235061
235088
235112
235135
235158
234799
234835
234874
234911
234947
234981
235014
235046
235076
235104
235130
235155
235177
235200
234837
234875
234914
234951
234988
235022
235056
235087
235118
235146
235173
235197
235220
235242
234875
234914
234954
234991
235028
235063
235096
235128
235158
235186
235213
235238
235261
235281
234912
234953
234992
235030
235066
235101
235135
235167
235197
235226
235252
235277
235300
235320
234948
234989
235028
235066
235103
235138
235172
235204
235234
235262
235289
235313
235336
235356
234984
235025
235063
235101
235137
235173
235206
235238
235268
235296
235322
235346
235369
235389
235016
235057
235095
235133
235169
235204
235237
235269
235298
235326
235352
235376
235399
235418
235049
235089
235126
235164
235199
235233
235266
235296
235325
235352
235378
235402
235425
235444
235079
235118
235154
235191
235226
235259
235291
235321
235350
235376
235402
235425
235447
235468
235112
235150
235185
235220
235253
235284
235314
235343
235370
235396
235421
235444
235466
235488
233725
233742
233763
233784
233805
233827
233848
233868
233888
233908
233927
233944
233961
233979
233761
233778
233800
233822
233844
233866
233888
233909
233930
233950
233969
233988
234004
234024
233799
233817
233841
233862
233885
233907
233929
233950
233971
233991
234009
234028
234044
234064
233838
233857
233881
233903
233926
233949
233971
233993
234014
234034
234053
234072
234088
234107
233877
233899
233923
233946
233969
233992
234014
234036
234057
234077
234097
234115
234132
234149
233918
233941
233966
233989
234013
234036
234058
234080
234102
234122
234141
234159
234177
234193
233959
233984
234008
234033
234056
234080
234102
234125
234146
234166
234186
234204
234221
234236
234001
234027
234051
234076
234099
234123
234146
234168
234190
234210
234229
234247
234265
234279
234042
234068
234093
234118
234142
234165
234188
234211
234232
234252
234271
234289
234306
234320
234083
234110
234134
234159
234183
234206
234229
234251
234272
234292
234312
234329
234347
234360
234122
234149
234173
234198
234222
234245
234268
234290
234311
234331
234350
234367
234384
234397
234162
234188
234212
234237
234260
234283
234305
234326
234347
234367
234385
234402
234420
234433
234198
234224
234248
234272
234295
234318
234340
234361
234382
234401
234419
234436
234453
234467
234238
234263
234286
234309
234331
234352
234373
234393
234413
234432
234449
234467
234484
234502
232875
232881
232890
232900
232910
232920
232931
232942
232952
232962
232972
232982
232992
233003
232904
232909
232919
232929
232938
232949
232959
232970
232981
232991
233001
233011
233020
233033
232933
232939
232949
232959
232969
232979
232989
233000
233011
233021
233031
233040
233049
233060
232964
232970
232980
232990
233000
233010
233021
233032
233042
233052
233062
233071
233080
233091
232995
233002
233013
233023
233033
233043
233054
233064
233075
233085
233094
233104
233112
233122
233027
233036
233046
233056
233066
233077
233087
233098
233108
233118
233128
233137
233146
233155
233060
233069
233079
233090
233100
233110
233121
233132
233142
233152
233162
233171
233180
233188
233093
233103
233113
233123
233134
233144
233155
233166
233176
233186
233196
233205
233214
233221
233126
233137
233147
233157
233168
233178
233189
233199
233210
233220
233229
233238
233247
233254
233159
233171
233180
233190
233201
233212
233222
233233
233243
233253
233263
233271
233280
233286
233191
233204
233213
233223
233234
233245
233255
233266
233276
233286
233295
233304
233312
233318
233225
233236
233245
233256
233267
233277
233288
233298
233308
233318
233327
233336
233345
233350
233256
233267
233277
233288
233298
233309
233319
233330
233340
233349
233358
233367
233375
233381
233290
233299
233309
233319
233329
233340
233350
233360
233370
233379
233388
233397
233406
233416
232095
232095
232097
232100
232102
232105
232107
232110
232112
232114
232115
232117
232119
232123
232115
232114
232116
232118
232120
232122
232125
232127
232129
232131
232133
232134
232136
232139
232135
232133
232135
232137
232139
232141
232143
232145
232147
232148
232150
232151
232153
232156
232155
232153
232155
232157
232158
232160
232162
232164
232165
232167
232168
232169
232171
232173
232174
232173
232175
232176
232178
232179
232181
232183
232184
232186
232187
232188
232189
232191
232194
232194
232195
232196
232198
232199
232201
232202
232204
232205
232206
232207
232208
232209
232214
232214
232215
232216
232218
232219
232220
232222
232223
232224
232225
232226
232227
232228
232233
232234
232235
232236
232237
232239
232240
232241
232243
232244
232245
232245
232246
232246
232253
232254
232255
232256
232257
232259
232260
232261
232262
232263
232264
232265
232266
232265
232272
232274
232275
232276
232277
232279
232280
232281
232282
232283
232284
232284
232285
232284
232291
232294
232295
232296
232297
232298
232300
232301
232302
232303
232304
232304
232305
232304
232311
232313
232314
232315
232317
232318
232320
232321
232322
232323
232323
232324
232325
232324
232329
232332
232333
232335
232336
232338
232339
232341
232342
232343
232343
232344
232345
232344
232348
232350
232351
232353
232355
232357
232359
232360
232362
232363
232364
232365
232366
232365
231351
231350
231348
231347
231345
231343
231341
231338
231335
231332
231328
231325
231321
231317
231363
231361
231359
231358
231356
231354
231351
231348
231345
231341
231337
231333
231329
231325
231374
231371
231370
231368
231366
231363
231361
231357
231354
231350
231346
231342
231338
231334
231384
231382
231380
231378
231376
231373
231370
231367
231363
231359
231355
231351
231346
231342
231394
231392
231390
231387
231385
231382
231379
231376
231372
231368
231363
231359
231354
231349
231403
231401
231399
231396
231394
231391
231388
231384
231380
231376
231371
231367
231362
231357
231412
231410
231407
231405
231402
231399
231396
231392
231388
231384
231379
231374
231369
231364
231420
231418
231415
231413
231410
231407
231404
231400
231396
231391
231387
231382
231377
231371
231428
231426
231423
231421
231418
231415
231411
231407
231403
231399
231394
231389
231384
231378
231435
231433
231431
231428
231425
231422
231419
231415
231411
231406
231401
231396
231391
231385
231442
231440
231438
231435
231432
231429
231426
231422
231418
231413
231409
231403
231398
231392
231448
231446
231444
231442
231439
231436
231433
231429
231425
231421
231416
231411
231406
231399
231454
231452
231450
231448
231445
231443
231440
231436
231432
231428
231423
231418
231413
231406
231458
231457
231455
231453
231451
231449
231446
231443
231440
231435
231431
231426
231421
231414
230611
230610
230608
230605
230602
230599
230595
230590
230585
230579
230573
230566
230560
230552
230617
230615
230613
230611
230608
230604
230600
230595
230589
230583
230577
230570
230563
230556
230622
230620
230618
230615
230612
230609
230604
230599
230594
230587
230581
230574
230567
230559
230625
230624
230622
230619
230616
230612
230608
230603
230597
230591
230584
230577
230570
230562
230628
230627
230625
230622
230619
230615
230611
230605
230600
230594
230587
230580
230572
230564
230631
230629
230627
230624
230621
230617
230613
230608
230602
230596
230589
230582
230574
230566
230632
230630
230628
230626
230622
230619
230614
230609
230603
230597
230590
230583
230575
230567
230633
230631
230629
230626
230623
230619
230615
230609
230604
230597
230590
230583
230575
230567
230633
230631
230629
230626
230623
230619
230615
230609
230604
230597
230590
230583
230575
230567
230632
230631
230628
230626
230623
230619
230614
230609
230603
230597
230590
230582
230574
230566
230631
230629
230627
230625
230621
230618
230613
230608
230602
230596
230589
230581
230573
230565
230629
230627
230625
230623
230619
230616
230611
230606
230601
230594
230588
230580
230572
230564
230626
230625
230623
230620
230617
230614
230609
230604
230599
230593
230586
230578
230571
230562
230622
230621
230619
230617
230614
230611
230607
230602
230597
230591
230585
230578
230570
230562
229867
229867
229865
229863
229860
229857
229853
229848
229843
229838
229832
229826
229819
229811
229869
229868
229867
229865
229862
229859
229855
229851
229845
229839
229833
229826
229819
229812
229870
229869
229868
229866
229864
229861
229857
229852
229847
229841
229834
229828
229820
229813
229870
229869
229868
229867
229864
229861
229857
229853
229847
229841
229835
229828
229821
229814
229870
229869
229868
229866
229864
229861
229857
229852
229847
229841
229835
229828
229821
229813
229869
229868
229867
229865
229863
229860
229856
229852
229846
229841
229834
229827
229820
229812
229867
229866
229865
229864
229861
229858
229855
229850
229845
229839
229833
229826
229819
229811
229864
229864
229863
229861
229859
229856
229852
229848
229843
229837
229831
229824
229816
229809
229861
229861
229860
229858
229856
229853
229849
229845
229840
229834
229828
229821
229813
229806
229857
229857
229856
229854
229852
229849
229845
229841
229836
229830
229824
229817
229810
229802
229853
229852
229851
229850
229847
229844
229841
229837
229832
229826
229820
229813
229805
229798
229848
229847
229846
229844
229842
229839
229836
229832
229827
229821
229815
229808
229801
229794
229843
229841
229840
229839
229837
229834
229830
229826
229821
229816
229809
229803
229796
229789
229836
229835
229834
229833
229831
229828
229824
229820
229816
229810
229805
229798
229791
229784
229141
229140
229138
229137
229135
229132
229129
229126
229123
229119
229115
229111
229107
229102
229140
229139
229138
229136
229134
229132
229129
229126
229122
229118
229114
229110
229105
229101
229139
229138
229137
229135
229133
229131
229128
229125
229122
229118
229114
229109
229105
229101
229137
229136
229135
229134
229132
229130
229127
229124
229121
229117
229113
229108
229104
229100
229135
229135
229134
229132
229131
229129
229126
229123
229120
229116
229112
229107
229103
229098
229133
229133
229132
229131
229129
229127
229125
229122
229118
229114
229110
229106
229101
229097
229130
229130
229129
229128
229127
229125
229122
229119
229116
229112
229108
229104
229099
229095
229128
229127
229126
229125
229124
229122
229120
229117
229113
229110
229106
229101
229097
229093
229124
229124
229123
229122
229121
229119
229116
229114
229110
229107
229103
229098
229094
229090
229121
229120
229120
229118
229117
229115
229113
229110
229107
229103
229099
229095
229091
229087
229117
229116
229116
229114
229113
229111
229109
229106
229103
229099
229095
229091
229087
229083
229113
229112
229111
229110
229109
229107
229104
229102
229099
229095
229091
229088
229083
229080
229109
229108
229107
229106
229104
229103
229100
229098
229094
229091
229087
229083
229079
229076
229105
229104
229103
229102
229100
229098
229096
229093
229090
229087
229083
229079
229075
229071
228464
228461
228459
228457
228455
228453
228451
228450
228448
228447
228446
228445
228445
228445
228461
228458
228456
228454
228452
228451
228449
228447
228446
228444
228443
228443
228442
228442
228458
228456
228454
228452
228450
228448
228446
228445
228443
228442
228441
228440
228440
228439
228455
228453
228451
228449
228447
228446
228444
228442
228441
228440
228439
228438
228438
228437
228453
228451
228449
228447
228445
228444
228442
228440
228439
228438
228437
228436
228436
228435
228451
228449
228447
228445
228443
228442
228440
228438
228437
228436
228435
228434
228434
228433
228449
228447
228445
228443
228441
228440
228438
228437
228435
228434
228433
228433
228432
228432
228447
228445
228443
228441
228439
228438
228436
228435
228434
228433
228432
228431
228431
228430
228445
228443
228441
228439
228438
228436
228435
228433
228432
228431
228430
228429
228429
228429
228443
228441
228439
228438
228436
228434
228433
228432
228430
228429
228429
228428
228428
228428
228442
228440
228438
228436
228435
228433
228432
228430
228429
228428
228427
228427
228427
228427
228441
228439
228437
228435
228434
228432
228431
228429
228428
228427
228426
228426
228426
228426
228441
228438
228437
228435
228433
228431
228430
228429
228427
228426
228426
228425
228425
228425
228441
228438
228436
228434
228432
228431
228429
228428
228427
228425
228425
228424
228424
228424
227859
227854
227851
227848
227845
227844
227843
227842
227842
227843
227845
227846
227849
227852
227854
227850
227847
227844
227841
227839
227838
227838
227838
227839
227840
227842
227845
227847
227851
227847
227843
227840
227837
227835
227834
227834
227834
227835
227836
227838
227841
227844
227847
227843
227839
227836
227834
227832
227831
227830
227830
227831
227833
227835
227838
227841
227845
227841
227837
227833
227831
227829
227828
227827
227828
227829
227830
227833
227835
227838
227843
227838
227834
227831
227829
227827
227825
227825
227825
227826
227828
227830
227833
227837
227841
227837
227833
227830
227827
227825
227824
227824
227824
227825
227827
227829
227832
227835
227840
227836
227832
227829
227826
227824
227823
227823
227823
227824
227826
227828
227831
227835
227840
227836
227832
227829
227826
227825
227823
227823
227823
227824
227826
227828
227831
227835
227840
227836
227833
227830
227827
227825
227824
227824
227824
227825
227827
227829
227832
227835
227841
227838
227834
227831
227829
227827
227826
227825
227825
227826
227828
227830
227833
227836
227843
227840
227836
227833
227831
227829
227828
227827
227827
227828
227830
227832
227835
227838
227846
227842
227839
227836
227834
227832
227831
227830
227830
227831
227832
227834
227837
227840
227849
227845
227842
227839
227837
227835
227834
227833
227833
227833
227835
227837
227839
227843
227328
227323
227318
227315
227313
227311
227310
227310
227311
227313
227315
227318
227321
227325
227323
227318
227314
227311
227308
227306
227305
227305
227306
227308
227310
227313
227317
227320
227319
227315
227310
227306
227304
227302
227301
227301
227302
227303
227306
227309
227313
227316
227316
227311
227307
227303
227300
227298
227297
227297
227298
227300
227302
227305
227309
227313
227313
227309
227304
227300
227297
227295
227294
227294
227295
227297
227299
227303
227307
227311
227311
227307
227302
227298
227295
227293
227292
227292
227293
227295
227297
227301
227305
227309
227310
227305
227301
227297
227294
227292
227291
227291
227292
227294
227296
227300
227304
227308
227310
227305
227300
227297
227294
227292
227291
227291
227292
227293
227296
227300
227304
227308
227310
227306
227301
227298
227295
227293
227292
227292
227293
227294
227297
227300
227305
227309
227312
227307
227303
227299
227297
227295
227293
227293
227294
227296
227299
227302
227306
227311
227314
227310
227305
227302
227299
227297
227296
227296
227297
227299
227301
227304
227309
227313
227317
227313
227309
227305
227303
227301
227300
227299
227300
227302
227304
227307
227311
227316
227321
227317
227313
227310
227307
227305
227304
227304
227304
227306
227308
227311
227315
227319
227326
227321
227317
227314
227312
227310
227309
227308
227309
227310
227312
227314
227318
227323
226859
226855
226852
226849
226848
226846
226846
226846
226846
226847
226849
226851
226853
226856
226856
226852
226849
226846
226844
226843
226842
226842
226843
226844
226846
226848
226850
226852
226853
226849
226846
226843
226841
226840
226839
226839
226839
226841
226842
226844
226847
226849
226850
226847
226844
226841
226839
226837
226836
226836
226837
226838
226840
226842
226844
226847
226849
226845
226842
226839
226837
226835
226834
226834
226835
226836
226838
226840
226843
226845
226847
226844
226840
226837
226835
226834
226833
226833
226833
226834
226836
226839
226841
226844
226847
226843
226840
226837
226835
226833
226832
226832
226833
226834
226836
226838
226841
226844
226846
226843
226839
226837
226835
226833
226832
226832
226833
226834
226836
226838
226841
226844
226847
226844
226840
226838
226835
226834
226833
226833
226833
226835
226836
226839
226842
226845
226848
226845
226842
226839
226837
226835
226834
226834
226835
226836
226838
226840
226843
226846
226850
226847
226844
226841
226839
226837
226836
226836
226837
226838
226840
226842
226845
226848
226852
226849
226846
226843
226841
226840
226839
226839
226839
226840
226842
226844
226847
226850
226855
226852
226849
226847
226845
226843
226842
226842
226842
226843
226845
226847
226850
226852
226859
226855
226852
226850
226848
226846
226845
226845
226845
226846
226847
226849
226852
226855
226437
226436
226435
226434
226434
226433
226433
226432
226432
226432
226432
226432
226433
226433
226437
226436
226434
226433
226433
226432
226431
226431
226431
226431
226431
226431
226432
226432
226435
226435
226433
226432
226432
226431
226431
226430
226430
226430
226430
226430
226431
226431
226435
226434
226433
226432
226431
226430
226430
226429
226429
226429
226429
226430
226430
226430
226434
226433
226432
226431
226430
226430
226429
226429
226429
226429
226429
226429
226429
226430
226434
226433
226432
226431
226430
226429
226429
226428
226428
226428
226428
226429
226429
226429
226433
226432
226431
226430
226430
226429
226428
226428
226428
226428
226428
226428
226429
226429
226433
226432
226431
226430
226430
226429
226428
226428
226428
226428
226428
226428
226429
226429
226433
226432
226431
226430
226430
226429
226428
226428
226428
226428
226428
226428
226429
226429
226434
226433
226432
226431
226430
226429
226429
226428
226428
226428
226428
226429
226429
226429
226434
226433
226432
226431
226430
226430
226429
226429
226428
226428
226429
226429
226429
226430
226435
226434
226432
226432
226431
226430
226429
226429
226429
226429
226429
226429
226430
226430
226435
226435
226433
226432
226431
226431
226430
226430
226429
226429
226430
226430
226431
226431
226436
226435
226434
226433
226432
226431
226431
226430
226430
226430
226430
226430
226431
226431
226049
226050
226051
226052
226053
226053
226053
226052
226051
226050
226049
226048
226046
226045
226050
226052
226053
226054
226054
226054
226054
226054
226053
226052
226051
226049
226048
226046
226051
226053
226054
226055
226055
226056
226055
226055
226054
226053
226052
226050
226049
226047
226052
226053
226055
226056
226056
226057
226056
226056
226055
226054
226053
226051
226049
226047
226053
226054
226055
226056
226057
226057
226057
226057
226056
226055
226053
226052
226050
226048
226053
226054
226056
226057
226057
226058
226058
226057
226056
226055
226054
226052
226050
226048
226053
226055
226056
226057
226058
226058
226058
226057
226057
226055
226054
226052
226050
226048
226053
226054
226056
226057
226057
226058
226058
226057
226056
226055
226054
226052
226050
226048
226053
226054
226055
226056
226057
226057
226057
226056
226056
226055
226053
226051
226049
226047
226052
226053
226054
226055
226056
226056
226056
226055
226055
226054
226052
226050
226048
226046
226051
226052
226053
226054
226054
226055
226055
226054
226053
226052
226051
226049
226047
226045
226050
226051
226052
226052
226053
226053
226053
226053
226052
226051
226049
226048
226046
226044
226048
226049
226050
226051
226051
226051
226051
226051
226050
226049
226048
226046
226045
226043
226046
226047
226048
226048
226049
226049
226049
226048
226048
226047
226046
226045
226043
226041
225682
225685
225687
225689
225691
225691
225692
225691
225690
225688
225686
225684
225681
225678
225684
225687
225690
225692
225693
225694
225695
225694
225693
225691
225689
225687
225684
225681
225686
225690
225692
225694
225696
225697
225697
225697
225696
225694
225692
225689
225686
225683
225688
225692
225694
225697
225698
225699
225700
225699
225698
225696
225694
225691
225688
225685
225690
225693
225696
225698
225700
225701
225701
225701
225700
225698
225696
225693
225690
225686
225691
225694
225697
225699
225701
225702
225702
225702
225701
225699
225697
225694
225690
225687
225691
225694
225697
225699
225701
225702
225702
225702
225701
225699
225697
225694
225690
225687
225691
225694
225697
225699
225701
225702
225702
225702
225701
225699
225696
225693
225690
225686
225690
225693
225696
225698
225700
225701
225701
225701
225699
225698
225695
225692
225689
225685
225689
225692
225694
225696
225698
225699
225699
225699
225698
225696
225694
225691
225687
225683
225687
225689
225692
225694
225696
225696
225697
225696
225695
225694
225691
225689
225685
225681
225684
225687
225689
225691
225693
225694
225694
225694
225693
225691
225689
225686
225682
225679
225681
225684
225686
225688
225689
225690
225690
225690
225689
225688
225685
225683
225680
225676
225677
225680
225682
225684
225685
225686
225686
225686
225685
225684
225682
225680
225677
225673
225326
225330
225333
225336
225338
225339
225339
225339
225338
225336
225334
225331
225329
225333
225336
225339
225341
225342
225343
225342
225341
225340
225337
225334
225332
225336
225339
225342
225344
225345
225346
225346
225345
225343
225340
225337
225335
225338
225342
225345
225347
225348
225348
225348
225347
225345
225343
225340
225336
225340
225344
225346
225348
225350
225350
225350
225349
225347
225345
225342
225338
225341
225345
225348
225350
225351
225351
225351
225350
225348
225346
225343
225338
225342
225345
225348
225350
225351
225352
225352
225350
225349
225346
225343
225338
225342
225345
225347
225350
225351
225351
225351
225350
225348
225346
225342
225337
225340
225344
225346
225348
225350
225350
225350
225349
225347
225344
225341
225335
225339
225342
225344
225346
225348
225348
225348
225347
225345
225343
225339
225333
225336
225339
225342
225344
225345
225345
225345
225344
225342
225340
225337
225330
225333
225336
225338
225340
225341
225342
225342
225341
225339
225337
225334
225326
225329
225332
225334
225336
225337
225338
225338
225337
225335
225333
225330
225321
225324
225327
225330
225332
225333
225334
225334
225333
225331
225329
225326
238027
238089
238146
238200
238255
238311
238013
238087
238163
238237
238309
238380
238017
238103
238191
238275
238355
238432
238017
238112
238207
238297
238381
238461
237265
237276
237290
237303
237317
237329
237295
237315
237335
237358
237380
237400
237323
237351
237379
237408
237437
237463
237348
237384
237418
237452
237484
237513
237371
237413
237451
237488
237521
237551
237393
237438
237478
237516
237549
237577
237414
237460
237500
237537
237567
237593
236441
236413
236392
236366
236343
236320
236489
236461
236440
236416
236395
236373
236529
236505
236487
236465
236446
236427
236570
236550
236533
236514
236496
236477
236608
236591
236576
236558
236542
236524
236645
236631
236617
236600
236584
236566
236678
236667
236654
236638
236622
236604
236709
236700
236687
236673
236655
236637
236738
236730
236718
236704
236686
236668
236764
236758
236747
236733
236716
236697
236789
236784
236774
236762
236746
236727
236813
236809
236801
236791
236777
236760
236836
236834
236828
236821
236811
236798
236860
236860
236857
236852
236846
236839
235541
235490
235448
235403
235363
235321
235587
235532
235487
235438
235395
235351
235626
235571
235524
235475
235430
235386
235668
235613
235565
235515
235469
235424
235708
235654
235605
235555
235510
235465
235747
235695
235646
235597
235551
235508
235784
235734
235686
235638
235594
235552
235819
235772
235725
235680
235637
235597
235851
235809
235764
235721
235680
235641
235881
235844
235802
235762
235722
235684
235910
235878
235839
235803
235766
235730
235936
235910
235876
235844
235810
235777
235963
235942
235914
235887
235859
235829
235987
235972
235949
235929
235907
235885
234600
234547
234503
234456
234413
234371
234632
234574
234526
234474
234428
234382
234661
234601
234548
234495
234446
234398
234694
234631
234576
234520
234469
234421
234725
234662
234605
234549
234498
234449
234757
234695
234637
234581
234529
234482
234788
234728
234670
234615
234565
234519
234819
234761
234705
234652
234604
234560
234849
234796
234742
234692
234646
234604
234877
234830
234779
234733
234690
234650
234906
234864
234818
234776
234736
234698
234931
234896
234856
234819
234783
234748
234958
234930
234896
234865
234833
234803
234979
234960
234932
234908
234883
234860
233687
233644
233608
233570
233536
233502
233705
233659
233619
233577
233539
233502
233721
233672
233628
233584
233543
233504
233740
233689
233643
233597
233554
233513
233760
233708
233659
233612
233569
233527
233781
233728
233679
233632
233588
233547
233801
233750
233701
233655
233611
233571
233823
233774
233726
233681
233639
233601
233844
233799
233754
233711
233672
233635
233866
233825
233783
233743
233707
233672
233887
233851
233814
233778
233745
233713
233907
233877
233844
233813
233784
233755
233929
233905
233877
233851
233826
233802
233945
233929
233907
233887
233868
233849
232848
232820
232794
232770
232746
232723
232856
232826
232798
232769
232742
232714
232861
232829
232798
232767
232737
232709
232869
232835
232802
232769
232738
232708
232878
232843
232808
232775
232743
232712
232888
232852
232818
232784
232751
232720
232899
232864
232830
232796
232763
232732
232910
232876
232843
232811
232779
232748
232922
232890
232859
232827
232797
232768
232933
232904
232875
232847
232819
232791
232945
232919
232894
232868
232843
232818
232957
232935
232913
232891
232869
232848
232970
232952
232934
232915
232898
232880
232981
232968
232952
232939
232925
232912
232078
232061
232046
232032
232017
232003
232079
232061
232044
232026
232009
231991
232078
232059
232040
232020
232001
231982
232080
232059
232038
232017
231996
231976
232082
232060
232038
232016
231995
231974
232084
232062
232040
232018
231995
231974
232087
232065
232043
232021
231998
231976
232090
232068
232047
232025
232003
231980
232093
232072
232052
232031
232009
231986
232096
232077
232058
232037
232017
231996
232099
232081
232064
232046
232028
232008
232102
232087