/*--------------------------------*- C++ -*----------------------------------*\
| =========                 |                                                 |
| \\      /  F ield         | OpenFOAM: The Open Source CFD Toolbox           |
|  \\    /   O peration     | Version:  v2106                                 |
|   \\  /    A nd           | Website:  www.openfoam.com                      |
|    \\/     M anipulation  |                                                 |
\*---------------------------------------------------------------------------*/
FoamFile
{
    version     2.0;
    format      ascii;
    arch        "LSB;label=32;scalar=64";
    class       volScalarField;
    location    "0.00016";
    object      rho;
}
// * * * * * * * * * * * * * * * * * * * * * * * * * * * * * * * * * * * * * //

dimensions      [1 -3 0 0 0 0 0];

internalField   nonuniform List<scalar> 
17924
(
2.69566
2.69565
2.69558
2.69554
2.68994
2.69016
2.69035
2.69054
2.69071
2.69088
2.69103
2.68953
2.68977
2.68996
2.69016
2.69035
2.69053
2.6907
2.68917
2.68941
2.6896
2.6898
2.68998
2.69016
2.69033
2.6888
2.68904
2.68922
2.68943
2.68961
2.68979
2.68997
2.68842
2.68865
2.68884
2.68903
2.68922
2.6894
2.68959
2.68803
2.68826
2.68845
2.68865
2.68883
2.68902
2.68921
2.68766
2.68787
2.68806
2.68826
2.68845
2.68864
2.68882
2.6873
2.6875
2.6877
2.68789
2.68808
2.68826
2.68845
2.68695
2.68714
2.68734
2.68753
2.68772
2.6879
2.68809
2.68662
2.6868
2.687
2.68719
2.68737
2.68756
2.68774
2.6863
2.68646
2.68667
2.68685
2.68704
2.68723
2.68741
2.68599
2.68615
2.68635
2.68654
2.68673
2.68691
2.6871
2.68569
2.68585
2.68605
2.68624
2.68643
2.68662
2.6868
2.68544
2.6856
2.68579
2.68598
2.68616
2.68634
2.68652
2.68365
2.68402
2.68436
2.68467
2.68496
2.68523
2.68549
2.68572
2.68595
2.68616
2.68635
2.68654
2.68671
2.68691
2.6836
2.68396
2.68429
2.68462
2.68492
2.68521
2.68548
2.68574
2.68597
2.68619
2.6864
2.68659
2.68678
2.68698
2.68357
2.68393
2.68427
2.68459
2.6849
2.68519
2.68546
2.68571
2.68595
2.68617
2.68638
2.68658
2.68678
2.68698
2.68352
2.68387
2.68421
2.68453
2.68484
2.68513
2.68541
2.68566
2.6859
2.68613
2.68635
2.68656
2.68677
2.68698
2.68347
2.68381
2.68415
2.68447
2.68477
2.68506
2.68533
2.68558
2.68583
2.68606
2.68628
2.6865
2.68671
2.68692
2.68338
2.68373
2.68406
2.68437
2.68468
2.68496
2.68523
2.68549
2.68574
2.68597
2.6862
2.68642
2.68664
2.68685
2.6833
2.68364
2.68396
2.68427
2.68457
2.68485
2.68512
2.68538
2.68562
2.68586
2.68609
2.68631
2.68653
2.68675
2.6832
2.68353
2.68385
2.68416
2.68446
2.68474
2.685
2.68526
2.68551
2.68574
2.68598
2.6862
2.68643
2.68665
2.6831
2.68343
2.68374
2.68405
2.68434
2.68461
2.68488
2.68513
2.68538
2.68562
2.68585
2.68608
2.6863
2.68653
2.683
2.68332
2.68363
2.68393
2.68421
2.68449
2.68475
2.68501
2.68525
2.68549
2.68572
2.68595
2.68617
2.6864
2.68289
2.68321
2.68351
2.68381
2.68409
2.68437
2.68462
2.68487
2.68512
2.68535
2.68558
2.68581
2.68603
2.68626
2.68279
2.6831
2.68341
2.6837
2.68397
2.68424
2.68449
2.68474
2.68498
2.68521
2.68544
2.68566
2.68587
2.6861
2.68269
2.68301
2.6833
2.68359
2.68385
2.68412
2.68437
2.68461
2.68484
2.68507
2.68529
2.68551
2.68572
2.68594
2.68267
2.68295
2.68323
2.6835
2.68375
2.684
2.68424
2.68447
2.68469
2.68491
2.68513
2.68533
2.68554
2.68575
2.67655
2.67691
2.67727
2.6776
2.67793
2.67824
2.67853
2.6788
2.67905
2.67928
2.6795
2.6797
2.67988
2.6801
2.67675
2.67709
2.67747
2.67781
2.67815
2.67847
2.67878
2.67906
2.67933
2.67957
2.67979
2.68
2.68019
2.68041
2.67698
2.67733
2.67771
2.67805
2.6784
2.67871
2.67902
2.6793
2.67956
2.6798
2.68003
2.68024
2.68043
2.68064
2.67716
2.67752
2.6779
2.67825
2.6786
2.67892
2.67923
2.67951
2.67978
2.68003
2.68026
2.68048
2.68068
2.68089
2.67735
2.67772
2.6781
2.67845
2.67879
2.67911
2.67942
2.6797
2.67997
2.68022
2.68045
2.68067
2.68087
2.68108
2.67751
2.67789
2.67826
2.67861
2.67896
2.67928
2.67959
2.67987
2.68014
2.6804
2.68063
2.68086
2.68107
2.68126
2.67767
2.67805
2.67842
2.67877
2.67911
2.67943
2.67974
2.68003
2.6803
2.68055
2.68079
2.68101
2.68122
2.68142
2.67781
2.6782
2.67856
2.67892
2.67925
2.67957
2.67988
2.68016
2.68043
2.68069
2.68093
2.68115
2.68137
2.68156
2.67795
2.67833
2.67869
2.67904
2.67937
2.6797
2.68
2.68028
2.68055
2.6808
2.68104
2.68127
2.68148
2.68168
2.67807
2.67845
2.6788
2.67915
2.67948
2.6798
2.6801
2.68038
2.68065
2.6809
2.68114
2.68137
2.68158
2.68178
2.67818
2.67856
2.6789
2.67925
2.67957
2.67989
2.68018
2.68047
2.68073
2.68098
2.68122
2.68144
2.68165
2.68185
2.67829
2.67866
2.679
2.67934
2.67965
2.67996
2.68025
2.68053
2.68079
2.68103
2.68127
2.68149
2.6817
2.68189
2.67839
2.67875
2.67908
2.67941
2.67972
2.68002
2.6803
2.68057
2.68083
2.68107
2.6813
2.68151
2.68171
2.68191
2.67851
2.67887
2.67918
2.6795
2.67978
2.68007
2.68034
2.6806
2.68084
2.68107
2.68129
2.6815
2.68171
2.68191
2.66896
2.66921
2.6695
2.66977
2.67004
2.6703
2.67055
2.67079
2.67102
2.67124
2.67144
2.67163
2.6718
2.67199
2.66925
2.66951
2.66981
2.67009
2.67037
2.67064
2.67091
2.67116
2.6714
2.67162
2.67183
2.67203
2.6722
2.67241
2.66958
2.66985
2.67016
2.67044
2.67073
2.671
2.67126
2.67151
2.67175
2.67197
2.67218
2.67238
2.67255
2.67276
2.66989
2.67017
2.67048
2.67077
2.67106
2.67134
2.67161
2.67186
2.67211
2.67233
2.67255
2.67275
2.67293
2.67312
2.6702
2.6705
2.67082
2.67111
2.67141
2.67168
2.67195
2.67221
2.67245
2.67268
2.67289
2.67309
2.67327
2.67345
2.67051
2.67082
2.67114
2.67144
2.67174
2.67202
2.67229
2.67255
2.67279
2.67302
2.67324
2.67344
2.67362
2.6738
2.67082
2.67114
2.67146
2.67176
2.67206
2.67234
2.67262
2.67287
2.67312
2.67335
2.67356
2.67376
2.67395
2.67412
2.67113
2.67145
2.67177
2.67208
2.67237
2.67266
2.67293
2.67319
2.67344
2.67367
2.67388
2.67408
2.67427
2.67443
2.67142
2.67175
2.67206
2.67237
2.67267
2.67296
2.67323
2.67349
2.67373
2.67396
2.67418
2.67437
2.67456
2.67472
2.6717
2.67204
2.67235
2.67266
2.67295
2.67324
2.67351
2.67376
2.67401
2.67423
2.67445
2.67464
2.67483
2.67499
2.67197
2.6723
2.67261
2.67292
2.67321
2.67349
2.67376
2.67401
2.67426
2.67448
2.67469
2.67488
2.67507
2.67522
2.67224
2.67256
2.67286
2.67317
2.67345
2.67373
2.67399
2.67424
2.67448
2.6747
2.6749
2.67509
2.67528
2.67544
2.67247
2.67279
2.67309
2.67339
2.67367
2.67394
2.6742
2.67444
2.67467
2.67489
2.67509
2.67528
2.67546
2.67563
2.67274
2.67306
2.67334
2.67362
2.67389
2.67414
2.67439
2.67462
2.67484
2.67505
2.67525
2.67544
2.67562
2.67579
2.66148
2.66162
2.66179
2.66196
2.66213
2.66231
2.66248
2.66265
2.66281
2.66297
2.66312
2.66327
2.6634
2.66355
2.66177
2.66191
2.66209
2.66227
2.66245
2.66262
2.6628
2.66298
2.66315
2.66331
2.66346
2.66361
2.66375
2.66391
2.66208
2.66223
2.66242
2.6626
2.66278
2.66296
2.66314
2.66331
2.66348
2.66364
2.66379
2.66394
2.66408
2.66424
2.6624
2.66256
2.66275
2.66293
2.66312
2.6633
2.66348
2.66366
2.66383
2.66399
2.66415
2.6643
2.66443
2.66458
2.66272
2.66289
2.66309
2.66328
2.66347
2.66365
2.66383
2.66401
2.66418
2.66434
2.6645
2.66465
2.66479
2.66492
2.66305
2.66324
2.66344
2.66363
2.66382
2.66401
2.66419
2.66437
2.66454
2.66471
2.66486
2.66501
2.66515
2.66528
2.66339
2.66359
2.66378
2.66398
2.66417
2.66436
2.66455
2.66473
2.6649
2.66507
2.66522
2.66537
2.66551
2.66563
2.66373
2.66393
2.66413
2.66433
2.66452
2.66472
2.6649
2.66508
2.66526
2.66542
2.66558
2.66572
2.66586
2.66598
2.66406
2.66427
2.66447
2.66467
2.66487
2.66506
2.66525
2.66543
2.6656
2.66576
2.66592
2.66606
2.6662
2.66632
2.66439
2.66461
2.6648
2.66501
2.6652
2.66539
2.66558
2.66576
2.66593
2.66609
2.66625
2.66639
2.66653
2.66664
2.66471
2.66493
2.66512
2.66533
2.66552
2.66571
2.66589
2.66607
2.66624
2.6664
2.66656
2.6667
2.66684
2.66694
2.66503
2.66525
2.66544
2.66564
2.66583
2.66602
2.66619
2.66637
2.66654
2.6667
2.66685
2.66698
2.66713
2.66724
2.66532
2.66554
2.66573
2.66593
2.66612
2.6663
2.66648
2.66665
2.66681
2.66697
2.66712
2.66726
2.6674
2.66751
2.66565
2.66585
2.66604
2.66622
2.6664
2.66658
2.66675
2.66691
2.66707
2.66722
2.66737
2.66751
2.66765
2.66779
2.65457
2.65462
2.65469
2.65477
2.65485
2.65494
2.65503
2.65511
2.6552
2.65528
2.65536
2.65544
2.65552
2.65561
2.6548
2.65485
2.65493
2.65501
2.65509
2.65517
2.65526
2.65535
2.65543
2.65552
2.6556
2.65568
2.65575
2.65585
2.65504
2.65509
2.65517
2.65525
2.65533
2.65541
2.6555
2.65559
2.65567
2.65576
2.65583
2.65591
2.65598
2.65608
2.65529
2.65534
2.65543
2.65551
2.65559
2.65567
2.65576
2.65584
2.65593
2.65601
2.65609
2.65617
2.65624
2.65633
2.65554
2.65561
2.65569
2.65577
2.65585
2.65594
2.65602
2.65611
2.65619
2.65628
2.65635
2.65643
2.6565
2.65658
2.65581
2.65588
2.65596
2.65604
2.65612
2.65621
2.65629
2.65638
2.65647
2.65655
2.65663
2.6567
2.65677
2.65685
2.65607
2.65615
2.65623
2.65632
2.6564
2.65649
2.65657
2.65666
2.65674
2.65682
2.6569
2.65698
2.65705
2.65712
2.65634
2.65643
2.65651
2.65659
2.65668
2.65676
2.65685
2.65693
2.65702
2.6571
2.65718
2.65725
2.65733
2.65738
2.65661
2.6567
2.65678
2.65686
2.65695
2.65704
2.65712
2.65721
2.65729
2.65737
2.65745
2.65753
2.6576
2.65765
2.65688
2.65698
2.65705
2.65714
2.65722
2.65731
2.65739
2.65748
2.65756
2.65764
2.65772
2.65779
2.65787
2.65792
2.65714
2.65724
2.65732
2.6574
2.65749
2.65758
2.65766
2.65775
2.65783
2.65791
2.65799
2.65806
2.65813
2.65817
2.65741
2.65751
2.65758
2.65767
2.65776
2.65784
2.65793
2.65801
2.65809
2.65817
2.65825
2.65832
2.65839
2.65844
2.65767
2.65775
2.65784
2.65793
2.65801
2.6581
2.65818
2.65827
2.65835
2.65843
2.6585
2.65857
2.65864
2.65869
2.65795
2.65802
2.6581
2.65818
2.65827
2.65835
2.65843
2.65851
2.65859
2.65867
2.65874
2.65881
2.65889
2.65897
2.64822
2.64822
2.64824
2.64826
2.64828
2.6483
2.64832
2.64834
2.64836
2.64837
2.64839
2.6484
2.64842
2.64845
2.64839
2.64838
2.64839
2.64841
2.64843
2.64844
2.64846
2.64848
2.6485
2.64851
2.64853
2.64854
2.64855
2.64858
2.64854
2.64853
2.64855
2.64856
2.64858
2.64859
2.64861
2.64863
2.64864
2.64866
2.64867
2.64868
2.64869
2.64872
2.64871
2.6487
2.64871
2.64872
2.64874
2.64875
2.64877
2.64878
2.64879
2.6488
2.64882
2.64883
2.64884
2.64886
2.64887
2.64886
2.64887
2.64888
2.6489
2.64891
2.64892
2.64894
2.64895
2.64896
2.64897
2.64898
2.64899
2.649
2.64903
2.64903
2.64904
2.64905
2.64906
2.64907
2.64908
2.64909
2.64911
2.64912
2.64912
2.64913
2.64914
2.64915
2.64919
2.64919
2.6492
2.64921
2.64922
2.64923
2.64924
2.64925
2.64926
2.64927
2.64928
2.64929
2.6493
2.6493
2.64935
2.64936
2.64936
2.64937
2.64938
2.64939
2.6494
2.64941
2.64942
2.64943
2.64944
2.64945
2.64945
2.64945
2.64951
2.64952
2.64953
2.64953
2.64954
2.64955
2.64956
2.64957
2.64958
2.64959
2.6496
2.6496
2.64961
2.64961
2.64966
2.64968
2.64969
2.6497
2.64971
2.64972
2.64973
2.64973
2.64974
2.64975
2.64976
2.64976
2.64977
2.64976
2.64982
2.64984
2.64985
2.64986
2.64987
2.64988
2.64989
2.6499
2.64991
2.64991
2.64992
2.64992
2.64993
2.64992
2.64998
2.65
2.65
2.65002
2.65003
2.65004
2.65005
2.65006
2.65007
2.65007
2.65008
2.65008
2.6501
2.65008
2.65013
2.65015
2.65016
2.65017
2.65019
2.6502
2.65021
2.65022
2.65023
2.65024
2.65024
2.65025
2.65026
2.65024
2.65028
2.6503
2.65031
2.65032
2.65034
2.65035
2.65037
2.65038
2.65039
2.6504
2.65041
2.65042
2.65042
2.65042
2.64216
2.64215
2.64214
2.64213
2.64211
2.6421
2.64208
2.64206
2.64203
2.642
2.64197
2.64194
2.64191
2.64188
2.64226
2.64224
2.64223
2.64221
2.6422
2.64218
2.64216
2.64213
2.64211
2.64208
2.64205
2.64201
2.64198
2.64195
2.64235
2.64232
2.64231
2.6423
2.64228
2.64226
2.64224
2.64221
2.64218
2.64215
2.64212
2.64209
2.64205
2.64202
2.64243
2.64241
2.6424
2.64238
2.64236
2.64234
2.64231
2.64229
2.64226
2.64222
2.64219
2.64216
2.64212
2.64208
2.64251
2.64249
2.64247
2.64246
2.64243
2.64241
2.64239
2.64236
2.64233
2.6423
2.64226
2.64222
2.64218
2.64215
2.64258
2.64256
2.64255
2.64253
2.64251
2.64248
2.64246
2.64243
2.6424
2.64236
2.64233
2.64229
2.64225
2.64221
2.64266
2.64264
2.64262
2.6426
2.64257
2.64255
2.64252
2.64249
2.64246
2.64243
2.64239
2.64235
2.64231
2.64226
2.64272
2.6427
2.64268
2.64266
2.64264
2.64261
2.64259
2.64256
2.64252
2.64249
2.64245
2.64241
2.64237
2.64232
2.64279
2.64277
2.64275
2.64273
2.6427
2.64268
2.64265
2.64262
2.64258
2.64255
2.64251
2.64247
2.64243
2.64238
2.64284
2.64283
2.64281
2.64279
2.64276
2.64274
2.64271
2.64268
2.64264
2.64261
2.64257
2.64253
2.64248
2.64243
2.6429
2.64288
2.64286
2.64284
2.64282
2.6428
2.64277
2.64274
2.6427
2.64267
2.64263
2.64259
2.64254
2.64249
2.64295
2.64294
2.64292
2.6429
2.64288
2.64285
2.64283
2.64279
2.64276
2.64273
2.64269
2.64264
2.6426
2.64255
2.643
2.64298
2.64297
2.64295
2.64293
2.64291
2.64288
2.64285
2.64282
2.64279
2.64275
2.6427
2.64266
2.64261
2.64303
2.64302
2.64301
2.64299
2.64297
2.64296
2.64293
2.64291
2.64288
2.64285
2.64281
2.64277
2.64273
2.64267
2.63612
2.63611
2.6361
2.63608
2.63605
2.63602
2.63599
2.63595
2.63591
2.63586
2.63581
2.63576
2.63571
2.63565
2.63617
2.63616
2.63614
2.63612
2.6361
2.63607
2.63603
2.63599
2.63595
2.6359
2.63584
2.63579
2.63573
2.63567
2.63621
2.63619
2.63618
2.63616
2.63614
2.6361
2.63607
2.63603
2.63598
2.63593
2.63588
2.63582
2.63576
2.6357
2.63624
2.63623
2.63621
2.63619
2.63616
2.63613
2.6361
2.63606
2.63601
2.63596
2.63591
2.63585
2.63579
2.63573
2.63627
2.63625
2.63624
2.63621
2.63619
2.63616
2.63612
2.63608
2.63603
2.63598
2.63593
2.63587
2.63581
2.63574
2.63628
2.63627
2.63625
2.63623
2.63621
2.63617
2.63614
2.6361
2.63605
2.636
2.63594
2.63588
2.63582
2.63576
2.6363
2.63628
2.63626
2.63624
2.63622
2.63619
2.63615
2.63611
2.63606
2.63601
2.63595
2.63589
2.63583
2.63576
2.6363
2.63629
2.63627
2.63625
2.63622
2.63619
2.63615
2.63611
2.63606
2.63601
2.63595
2.63589
2.63583
2.63576
2.6363
2.63629
2.63627
2.63625
2.63622
2.63619
2.63615
2.63611
2.63606
2.63601
2.63595
2.63589
2.63583
2.63576
2.6363
2.63628
2.63627
2.63624
2.63622
2.63619
2.63615
2.63611
2.63606
2.63601
2.63595
2.63589
2.63582
2.63576
2.63629
2.63627
2.63626
2.63623
2.63621
2.63618
2.63614
2.6361
2.63605
2.636
2.63594
2.63588
2.63582
2.63575
2.63627
2.63625
2.63624
2.63622
2.63619
2.63616
2.63613
2.63609
2.63604
2.63599
2.63593
2.63587
2.63581
2.63574
2.63625
2.63623
2.63622
2.6362
2.63617
2.63614
2.63611
2.63607
2.63602
2.63597
2.63592
2.63586
2.6358
2.63572
2.63621
2.6362
2.63619
2.63617
2.63615
2.63612
2.63609
2.63605
2.63601
2.63596
2.63591
2.63585
2.63579
2.63572
2.63005
2.63005
2.63004
2.63002
2.63
2.62997
2.62994
2.6299
2.62986
2.62981
2.62977
2.62971
2.62966
2.62959
2.63007
2.63006
2.63005
2.63003
2.63001
2.62999
2.62995
2.62992
2.62987
2.62983
2.62977
2.62972
2.62966
2.6296
2.63008
2.63007
2.63006
2.63004
2.63002
2.63
2.62997
2.62993
2.62988
2.62984
2.62979
2.62973
2.62967
2.62961
2.63008
2.63007
2.63006
2.63005
2.63003
2.63
2.62997
2.62993
2.62989
2.62984
2.62979
2.62973
2.62968
2.62961
2.63007
2.63007
2.63006
2.63005
2.63003
2.63
2.62997
2.62993
2.62989
2.62984
2.62979
2.62973
2.62967
2.62961
2.63006
2.63006
2.63005
2.63004
2.63002
2.62999
2.62996
2.62993
2.62988
2.62984
2.62978
2.62973
2.62967
2.62961
2.63005
2.63005
2.63004
2.63002
2.63001
2.62998
2.62995
2.62991
2.62987
2.62982
2.62977
2.62972
2.62966
2.62959
2.63003
2.63003
2.63002
2.63
2.62999
2.62996
2.62993
2.62989
2.62985
2.62981
2.62975
2.6297
2.62964
2.62958
2.63
2.63
2.62999
2.62998
2.62996
2.62994
2.62991
2.62987
2.62983
2.62978
2.62973
2.62967
2.62961
2.62955
2.62997
2.62997
2.62996
2.62995
2.62993
2.6299
2.62987
2.62984
2.6298
2.62975
2.6297
2.62964
2.62958
2.62952
2.62994
2.62993
2.62992
2.62991
2.62989
2.62987
2.62984
2.6298
2.62976
2.62972
2.62966
2.62961
2.62955
2.62949
2.6299
2.62989
2.62988
2.62987
2.62985
2.62983
2.6298
2.62976
2.62972
2.62968
2.62962
2.62957
2.62951
2.62945
2.62985
2.62984
2.62983
2.62982
2.6298
2.62978
2.62975
2.62972
2.62968
2.62963
2.62958
2.62953
2.62947
2.62941
2.62979
2.62979
2.62978
2.62977
2.62975
2.62973
2.6297
2.62967
2.62963
2.62959
2.62954
2.62949
2.62943
2.62938
2.62412
2.62411
2.6241
2.62408
2.62407
2.62405
2.62402
2.624
2.62397
2.62394
2.62391
2.62387
2.62384
2.6238
2.62411
2.6241
2.62409
2.62408
2.62406
2.62405
2.62402
2.624
2.62397
2.62393
2.6239
2.62387
2.62383
2.6238
2.6241
2.62409
2.62408
2.62407
2.62406
2.62404
2.62402
2.62399
2.62396
2.62393
2.6239
2.62386
2.62383
2.62379
2.62409
2.62408
2.62407
2.62406
2.62405
2.62403
2.62401
2.62398
2.62396
2.62392
2.62389
2.62385
2.62382
2.62378
2.62407
2.62407
2.62406
2.62405
2.62404
2.62402
2.624
2.62397
2.62395
2.62391
2.62388
2.62384
2.62381
2.62377
2.62405
2.62405
2.62404
2.62403
2.62402
2.62401
2.62398
2.62396
2.62393
2.6239
2.62387
2.62383
2.6238
2.62376
2.62403
2.62403
2.62402
2.62401
2.624
2.62399
2.62397
2.62394
2.62392
2.62388
2.62385
2.62381
2.62378
2.62374
2.62401
2.62401
2.624
2.62399
2.62398
2.62396
2.62394
2.62392
2.62389
2.62386
2.62383
2.6238
2.62376
2.62372
2.62398
2.62398
2.62397
2.62397
2.62395
2.62394
2.62392
2.6239
2.62387
2.62384
2.62381
2.62377
2.62374
2.6237
2.62395
2.62395
2.62394
2.62393
2.62392
2.62391
2.62389
2.62387
2.62384
2.62381
2.62378
2.62375
2.62371
2.62368
2.62392
2.62392
2.62391
2.6239
2.62389
2.62388
2.62386
2.62383
2.62381
2.62378
2.62375
2.62371
2.62368
2.62365
2.62389
2.62388
2.62388
2.62387
2.62386
2.62384
2.62382
2.6238
2.62377
2.62375
2.62371
2.62368
2.62365
2.62362
2.62386
2.62385
2.62384
2.62383
2.62382
2.62381
2.62379
2.62376
2.62374
2.62371
2.62368
2.62365
2.62361
2.62359
2.62382
2.62382
2.62381
2.6238
2.62378
2.62377
2.62375
2.62373
2.6237
2.62368
2.62365
2.62362
2.62358
2.62355
2.61858
2.61856
2.61854
2.61852
2.61851
2.61849
2.61848
2.61847
2.61845
2.61844
2.61844
2.61843
2.61843
2.61843
2.61856
2.61854
2.61852
2.6185
2.61849
2.61847
2.61846
2.61845
2.61843
2.61842
2.61842
2.61841
2.6184
2.6184
2.61853
2.61852
2.6185
2.61848
2.61847
2.61845
2.61844
2.61843
2.61841
2.6184
2.6184
2.61839
2.61839
2.61838
2.61851
2.6185
2.61848
2.61846
2.61845
2.61843
2.61842
2.61841
2.6184
2.61839
2.61838
2.61837
2.61837
2.61836
2.61849
2.61848
2.61846
2.61844
2.61843
2.61842
2.6184
2.61839
2.61838
2.61837
2.61836
2.61836
2.61835
2.61835
2.61848
2.61846
2.61844
2.61843
2.61841
2.6184
2.61839
2.61837
2.61836
2.61835
2.61835
2.61834
2.61834
2.61833
2.61846
2.61844
2.61843
2.61841
2.6184
2.61838
2.61837
2.61836
2.61835
2.61834
2.61833
2.61833
2.61832
2.61832
2.61844
2.61843
2.61841
2.6184
2.61838
2.61837
2.61836
2.61835
2.61833
2.61833
2.61832
2.61831
2.61831
2.61831
2.61843
2.61841
2.6184
2.61838
2.61837
2.61836
2.61834
2.61833
2.61832
2.61831
2.61831
2.6183
2.6183
2.6183
2.61841
2.6184
2.61838
2.61837
2.61835
2.61834
2.61833
2.61832
2.61831
2.6183
2.61829
2.61829
2.61829
2.61829
2.6184
2.61839
2.61837
2.61836
2.61834
2.61833
2.61832
2.61831
2.6183
2.61829
2.61828
2.61828
2.61828
2.61828
2.6184
2.61838
2.61837
2.61835
2.61834
2.61832
2.61831
2.6183
2.61829
2.61828
2.61828
2.61827
2.61827
2.61827
2.6184
2.61837
2.61836
2.61834
2.61833
2.61832
2.61831
2.61829
2.61828
2.61828
2.61827
2.61826
2.61826
2.61826
2.61839
2.61837
2.61836
2.61834
2.61832
2.61831
2.6183
2.61829
2.61828
2.61827
2.61826
2.61826
2.61826
2.61826
2.61363
2.61359
2.61356
2.61354
2.61352
2.61351
2.6135
2.61349
2.6135
2.6135
2.61351
2.61353
2.61355
2.61358
2.61359
2.61356
2.61353
2.61351
2.61349
2.61347
2.61346
2.61346
2.61346
2.61347
2.61348
2.6135
2.61351
2.61354
2.61356
2.61353
2.6135
2.61347
2.61345
2.61344
2.61343
2.61342
2.61343
2.61343
2.61345
2.61346
2.61349
2.61351
2.61354
2.6135
2.61347
2.61345
2.61343
2.61341
2.6134
2.6134
2.6134
2.61341
2.61342
2.61344
2.61346
2.61348
2.61352
2.61348
2.61345
2.61342
2.6134
2.61339
2.61338
2.61337
2.61338
2.61338
2.6134
2.61342
2.61344
2.61346
2.6135
2.61346
2.61343
2.61341
2.61338
2.61337
2.61336
2.61335
2.61336
2.61337
2.61338
2.6134
2.61342
2.61345
2.61348
2.61345
2.61342
2.61339
2.61337
2.61336
2.61335
2.61334
2.61335
2.61335
2.61337
2.61339
2.61341
2.61344
2.61348
2.61344
2.61341
2.61339
2.61337
2.61335
2.61334
2.61334
2.61334
2.61335
2.61336
2.61338
2.61341
2.61343
2.61347
2.61344
2.61341
2.61339
2.61337
2.61335
2.61334
2.61334
2.61334
2.61335
2.61336
2.61338
2.61341
2.61343
2.61348
2.61345
2.61342
2.61339
2.61337
2.61336
2.61335
2.61334
2.61335
2.61335
2.61337
2.61339
2.61341
2.61344
2.61349
2.61346
2.61343
2.6134
2.61338
2.61337
2.61336
2.61336
2.61336
2.61337
2.61338
2.6134
2.61342
2.61345
2.6135
2.61347
2.61344
2.61342
2.6134
2.61339
2.61338
2.61337
2.61337
2.61338
2.61339
2.61341
2.61343
2.61346
2.61352
2.61349
2.61347
2.61344
2.61342
2.61341
2.6134
2.61339
2.6134
2.6134
2.61341
2.61343
2.61345
2.61348
2.61355
2.61352
2.61349
2.61347
2.61345
2.61343
2.61342
2.61342
2.61342
2.61342
2.61343
2.61345
2.61347
2.6135
2.60928
2.60924
2.6092
2.60918
2.60916
2.60914
2.60914
2.60914
2.60915
2.60916
2.60918
2.6092
2.60923
2.60926
2.60924
2.60921
2.60917
2.60914
2.60912
2.60911
2.6091
2.6091
2.60911
2.60912
2.60914
2.60916
2.60919
2.60922
2.60921
2.60917
2.60914
2.60911
2.60908
2.60907
2.60906
2.60906
2.60907
2.60908
2.6091
2.60913
2.60916
2.60919
2.60919
2.60915
2.60911
2.60908
2.60905
2.60904
2.60903
2.60903
2.60904
2.60905
2.60907
2.6091
2.60913
2.60916
2.60916
2.60912
2.60909
2.60906
2.60903
2.60902
2.60901
2.60901
2.60901
2.60903
2.60905
2.60908
2.60911
2.60914
2.60915
2.60911
2.60907
2.60904
2.60902
2.609
2.60899
2.60899
2.609
2.60901
2.60903
2.60906
2.60909
2.60913
2.60914
2.6091
2.60906
2.60903
2.60901
2.60899
2.60898
2.60898
2.60899
2.609
2.60902
2.60905
2.60909
2.60912
2.60914
2.6091
2.60906
2.60903
2.609
2.60899
2.60898
2.60898
2.60899
2.609
2.60902
2.60905
2.60909
2.60912
2.60914
2.6091
2.60907
2.60904
2.60901
2.609
2.60899
2.60899
2.60899
2.60901
2.60903
2.60906
2.60909
2.60913
2.60915
2.60911
2.60908
2.60905
2.60903
2.60901
2.609
2.609
2.60901
2.60902
2.60904
2.60907
2.60911
2.60914
2.60917
2.60913
2.6091
2.60907
2.60905
2.60903
2.60902
2.60902
2.60903
2.60904
2.60906
2.60909
2.60912
2.60916
2.60919
2.60916
2.60913
2.6091
2.60908
2.60906
2.60905
2.60905
2.60906
2.60907
2.60909
2.60911
2.60915
2.60918
2.60922
2.60919
2.60916
2.60913
2.60911
2.6091
2.60909
2.60908
2.60909
2.6091
2.60912
2.60914
2.60917
2.60921
2.60927
2.60923
2.6092
2.60917
2.60915
2.60913
2.60912
2.60912
2.60912
2.60913
2.60915
2.60917
2.6092
2.60924
2.60544
2.60541
2.60538
2.60536
2.60535
2.60534
2.60533
2.60533
2.60534
2.60535
2.60536
2.60537
2.60539
2.60542
2.60541
2.60539
2.60536
2.60534
2.60532
2.60531
2.6053
2.6053
2.60531
2.60532
2.60533
2.60535
2.60537
2.60539
2.60539
2.60536
2.60533
2.60531
2.60529
2.60528
2.60528
2.60528
2.60528
2.60529
2.6053
2.60532
2.60534
2.60536
2.60537
2.60534
2.60531
2.60529
2.60527
2.60526
2.60525
2.60525
2.60526
2.60527
2.60528
2.6053
2.60532
2.60534
2.60536
2.60533
2.6053
2.60528
2.60526
2.60524
2.60524
2.60524
2.60524
2.60525
2.60526
2.60528
2.60531
2.60533
2.60535
2.60532
2.60529
2.60526
2.60525
2.60523
2.60523
2.60523
2.60523
2.60524
2.60525
2.60527
2.6053
2.60532
2.60534
2.60531
2.60528
2.60526
2.60524
2.60523
2.60522
2.60522
2.60522
2.60523
2.60525
2.60527
2.60529
2.60532
2.60534
2.60531
2.60528
2.60526
2.60524
2.60523
2.60522
2.60522
2.60522
2.60523
2.60525
2.60527
2.60529
2.60532
2.60534
2.60531
2.60529
2.60526
2.60525
2.60523
2.60523
2.60523
2.60523
2.60524
2.60526
2.60527
2.6053
2.60533
2.60535
2.60532
2.6053
2.60528
2.60526
2.60525
2.60524
2.60524
2.60524
2.60525
2.60527
2.60529
2.60531
2.60534
2.60537
2.60534
2.60531
2.60529
2.60527
2.60526
2.60526
2.60525
2.60526
2.60527
2.60528
2.6053
2.60532
2.60535
2.60539
2.60536
2.60533
2.60531
2.6053
2.60528
2.60528
2.60527
2.60528
2.60529
2.6053
2.60532
2.60534
2.60537
2.60541
2.60538
2.60536
2.60534
2.60532
2.60531
2.6053
2.6053
2.6053
2.60531
2.60532
2.60534
2.60536
2.60539
2.60544
2.60541
2.60539
2.60537
2.60535
2.60534
2.60533
2.60533
2.60533
2.60533
2.60535
2.60536
2.60538
2.60541
2.60198
2.60197
2.60197
2.60196
2.60195
2.60195
2.60194
2.60194
2.60194
2.60194
2.60194
2.60194
2.60195
2.60195
2.60198
2.60197
2.60196
2.60195
2.60194
2.60194
2.60193
2.60193
2.60193
2.60193
2.60193
2.60194
2.60194
2.60194
2.60197
2.60196
2.60195
2.60194
2.60194
2.60193
2.60193
2.60192
2.60192
2.60192
2.60192
2.60193
2.60193
2.60193
2.60196
2.60195
2.60194
2.60194
2.60193
2.60193
2.60192
2.60192
2.60192
2.60192
2.60192
2.60192
2.60192
2.60192
2.60196
2.60195
2.60194
2.60193
2.60193
2.60192
2.60192
2.60191
2.60191
2.60191
2.60191
2.60191
2.60192
2.60192
2.60195
2.60194
2.60194
2.60193
2.60192
2.60192
2.60191
2.60191
2.60191
2.60191
2.60191
2.60191
2.60191
2.60192
2.60195
2.60194
2.60193
2.60193
2.60192
2.60191
2.60191
2.60191
2.60191
2.60191
2.60191
2.60191
2.60191
2.60192
2.60195
2.60194
2.60193
2.60193
2.60192
2.60191
2.60191
2.60191
2.60191
2.60191
2.60191
2.60191
2.60191
2.60192
2.60195
2.60194
2.60193
2.60193
2.60192
2.60191
2.60191
2.60191
2.60191
2.60191
2.60191
2.60191
2.60191
2.60192
2.60195
2.60194
2.60194
2.60193
2.60192
2.60192
2.60191
2.60191
2.60191
2.60191
2.60191
2.60191
2.60192
2.60192
2.60196
2.60195
2.60194
2.60193
2.60193
2.60192
2.60191
2.60191
2.60191
2.60191
2.60191
2.60191
2.60192
2.60192
2.60196
2.60195
2.60194
2.60194
2.60193
2.60192
2.60192
2.60192
2.60191
2.60191
2.60192
2.60192
2.60192
2.60193
2.60197
2.60196
2.60195
2.60194
2.60193
2.60193
2.60192
2.60192
2.60192
2.60192
2.60192
2.60192
2.60193
2.60193
2.60197
2.60196
2.60195
2.60195
2.60194
2.60193
2.60193
2.60192
2.60192
2.60192
2.60192
2.60193
2.60193
2.60193
2.5988
2.59881
2.59882
2.59882
2.59883
2.59883
2.59883
2.59882
2.59882
2.59881
2.5988
2.59879
2.59878
2.59876
2.59881
2.59882
2.59883
2.59883
2.59884
2.59884
2.59884
2.59884
2.59883
2.59882
2.59881
2.5988
2.59879
2.59877
2.59881
2.59883
2.59884
2.59884
2.59885
2.59885
2.59885
2.59885
2.59884
2.59883
2.59882
2.59881
2.59879
2.59878
2.59882
2.59883
2.59884
2.59885
2.59886
2.59886
2.59886
2.59885
2.59885
2.59884
2.59883
2.59882
2.5988
2.59878
2.59883
2.59884
2.59885
2.59886
2.59886
2.59887
2.59886
2.59886
2.59885
2.59885
2.59883
2.59882
2.5988
2.59879
2.59883
2.59884
2.59885
2.59886
2.59887
2.59887
2.59887
2.59886
2.59886
2.59885
2.59884
2.59882
2.59881
2.59879
2.59883
2.59884
2.59885
2.59886
2.59887
2.59887
2.59887
2.59887
2.59886
2.59885
2.59884
2.59882
2.59881
2.59879
2.59883
2.59884
2.59885
2.59886
2.59887
2.59887
2.59887
2.59886
2.59886
2.59885
2.59884
2.59882
2.5988
2.59879
2.59883
2.59884
2.59885
2.59886
2.59886
2.59886
2.59886
2.59886
2.59885
2.59884
2.59883
2.59882
2.5988
2.59878
2.59882
2.59883
2.59884
2.59885
2.59885
2.59885
2.59885
2.59885
2.59884
2.59883
2.59882
2.59881
2.59879
2.59877
2.59881
2.59882
2.59883
2.59884
2.59884
2.59884
2.59884
2.59884
2.59883
2.59882
2.59881
2.5988
2.59878
2.59877
2.5988
2.59881
2.59882
2.59882
2.59883
2.59883
2.59883
2.59883
2.59882
2.59881
2.5988
2.59879
2.59877
2.59876
2.59879
2.5988
2.5988
2.59881
2.59881
2.59881
2.59881
2.59881
2.5988
2.5988
2.59879
2.59878
2.59876
2.59874
2.59877
2.59878
2.59879
2.59879
2.5988
2.5988
2.5988
2.59879
2.59879
2.59878
2.59877
2.59876
2.59875
2.59873
2.59578
2.59581
2.59583
2.59584
2.59586
2.59586
2.59586
2.59586
2.59585
2.59584
2.59582
2.5958
2.59578
2.59575
2.5958
2.59583
2.59585
2.59587
2.59588
2.59589
2.59589
2.59588
2.59588
2.59586
2.59585
2.59582
2.5958
2.59577
2.59582
2.59585
2.59587
2.59589
2.5959
2.59591
2.59591
2.59591
2.5959
2.59589
2.59587
2.59585
2.59582
2.59579
2.59584
2.59586
2.59589
2.5959
2.59592
2.59593
2.59593
2.59593
2.59592
2.5959
2.59589
2.59586
2.59584
2.59581
2.59585
2.59588
2.5959
2.59592
2.59593
2.59594
2.59594
2.59594
2.59593
2.59592
2.5959
2.59587
2.59585
2.59582
2.59586
2.59588
2.59591
2.59593
2.59594
2.59595
2.59595
2.59595
2.59594
2.59592
2.59591
2.59588
2.59585
2.59582
2.59586
2.59589
2.59591
2.59593
2.59594
2.59595
2.59595
2.59595
2.59594
2.59593
2.59591
2.59588
2.59585
2.59582
2.59586
2.59588
2.59591
2.59593
2.59594
2.59595
2.59595
2.59595
2.59594
2.59592
2.5959
2.59588
2.59585
2.59582
2.59585
2.59588
2.5959
2.59592
2.59593
2.59594
2.59594
2.59594
2.59593
2.59591
2.59589
2.59587
2.59584
2.59581
2.59584
2.59586
2.59589
2.5959
2.59592
2.59592
2.59593
2.59592
2.59591
2.5959
2.59588
2.59586
2.59583
2.5958
2.59583
2.59585
2.59587
2.59588
2.5959
2.5959
2.59591
2.5959
2.5959
2.59588
2.59586
2.59584
2.59581
2.59578
2.5958
2.59582
2.59584
2.59586
2.59587
2.59588
2.59588
2.59588
2.59587
2.59586
2.59584
2.59582
2.59579
2.59576
2.59578
2.5958
2.59582
2.59583
2.59584
2.59585
2.59585
2.59585
2.59584
2.59583
2.59581
2.59579
2.59577
2.59574
2.59575
2.59577
2.59578
2.5958
2.59581
2.59582
2.59582
2.59582
2.59581
2.5958
2.59579
2.59577
2.59574
2.59571
2.59287
2.5929
2.59292
2.59294
2.59296
2.59297
2.59297
2.59297
2.59296
2.59294
2.59293
2.5929
2.59289
2.59292
2.59295
2.59297
2.59299
2.593
2.593
2.593
2.59299
2.59297
2.59295
2.59293
2.59291
2.59294
2.59297
2.59299
2.59301
2.59302
2.59303
2.59302
2.59301
2.593
2.59298
2.59296
2.59293
2.59296
2.59299
2.59301
2.59303
2.59304
2.59305
2.59304
2.59304
2.59302
2.593
2.59298
2.59295
2.59298
2.59301
2.59303
2.59305
2.59306
2.59306
2.59306
2.59305
2.59304
2.59302
2.59299
2.59296
2.59299
2.59302
2.59304
2.59306
2.59307
2.59307
2.59307
2.59306
2.59305
2.59303
2.593
2.59296
2.59299
2.59302
2.59304
2.59306
2.59307
2.59307
2.59307
2.59306
2.59305
2.59303
2.593
2.59296
2.59299
2.59302
2.59304
2.59306
2.59307
2.59307
2.59307
2.59306
2.59304
2.59302
2.593
2.59295
2.59298
2.59301
2.59303
2.59305
2.59306
2.59306
2.59306
2.59305
2.59303
2.59301
2.59299
2.59294
2.59297
2.59299
2.59301
2.59303
2.59304
2.59304
2.59304
2.59303
2.59302
2.593
2.59297
2.59292
2.59294
2.59297
2.59299
2.59301
2.59302
2.59302
2.59302
2.59301
2.593
2.59298
2.59295
2.59289
2.59292
2.59294
2.59296
2.59298
2.59299
2.59299
2.59299
2.59298
2.59297
2.59295
2.59292
2.59286
2.59289
2.59291
2.59293
2.59294
2.59296
2.59296
2.59296
2.59295
2.59294
2.59292
2.59289
2.59282
2.59285
2.59287
2.59289
2.59291
2.59292
2.59292
2.59292
2.59292
2.59291
2.59289
2.59286
2.69636
2.69686
2.69731
2.69776
2.6982
2.69865
2.69624
2.69684
2.69745
2.69805
2.69864
2.69921
2.69627
2.69697
2.69768
2.69836
2.69901
2.69963
2.69627
2.69704
2.69781
2.69853
2.69922
2.69986
2.69019
2.69028
2.6904
2.6905
2.69061
2.69071
2.69043
2.69059
2.69076
2.69094
2.69112
2.69129
2.69066
2.69089
2.69111
2.69135
2.69158
2.6918
2.69086
2.69115
2.69143
2.6917
2.69197
2.6922
2.69105
2.69139
2.69169
2.69199
2.69226
2.6925
2.69123
2.69159
2.69191
2.69222
2.69249
2.69271
2.6914
2.69177
2.69209
2.69239
2.69264
2.69284
2.68352
2.68329
2.68312
2.68291
2.68273
2.68254
2.68391
2.68368
2.68351
2.68331
2.68315
2.68297
2.68423
2.68404
2.68389
2.68371
2.68356
2.6834
2.68457