/*--------------------------------*- C++ -*----------------------------------*\
| =========                 |                                                 |
| \\      /  F ield         | OpenFOAM: The Open Source CFD Toolbox           |
|  \\    /   O peration     | Version:  v2106                                 |
|   \\  /    A nd           | Website:  www.openfoam.com                      |
|    \\/     M anipulation  |                                                 |
\*---------------------------------------------------------------------------*/
FoamFile
{
    version     2.0;
    format      ascii;
    arch        "LSB;label=32;scalar=64";
    class       volScalarField;
    location    "0.00016";
    object      T;
}
// * * * * * * * * * * * * * * * * * * * * * * * * * * * * * * * * * * * * * //

dimensions      [0 0 0 1 0 0 0];

internalField   nonuniform List<scalar> 
17924
(
306.809
306.808
306.805
306.803
306.547
306.558
306.566
306.575
306.583
306.59
306.597
306.529
306.54
306.548
306.558
306.566
306.574
306.582
306.512
306.523
306.532
306.541
306.549
306.557
306.565
306.495
306.506
306.515
306.524
306.532
306.541
306.549
306.478
306.489
306.497
306.506
306.514
306.523
306.531
306.46
306.47
306.479
306.488
306.497
306.505
306.514
306.443
306.453
306.462
306.471
306.479
306.488
306.496
306.427
306.436
306.445
306.454
306.462
306.471
306.479
306.411
306.42
306.429
306.437
306.446
306.454
306.463
306.396
306.404
306.413
306.421
306.43
306.438
306.447
306.381
306.388
306.398
306.406
306.415
306.423
306.432
306.367
306.374
306.383
306.392
306.4
306.409
306.417
306.353
306.361
306.369
306.378
306.387
306.396
306.404
306.342
306.349
306.358
306.366
306.375
306.383
306.391
306.26
306.277
306.292
306.307
306.32
306.332
306.344
306.355
306.365
306.374
306.383
306.392
306.4
306.409
306.257
306.274
306.289
306.304
306.318
306.331
306.344
306.355
306.366
306.376
306.386
306.394
306.403
306.412
306.256
306.273
306.288
306.303
306.317
306.33
306.343
306.354
306.365
306.375
306.385
306.394
306.403
306.412
306.254
306.27
306.286
306.3
306.314
306.327
306.34
306.352
306.363
306.373
306.383
306.393
306.402
306.412
306.251
306.267
306.283
306.297
306.311
306.324
306.337
306.348
306.359
306.37
306.38
306.39
306.4
306.409
306.248
306.263
306.278
306.293
306.307
306.32
306.332
306.344
306.355
306.366
306.376
306.386
306.396
306.406
306.244
306.259
306.274
306.288
306.302
306.315
306.327
306.339
306.35
306.361
306.371
306.382
306.392
306.402
306.239
306.254
306.269
306.283
306.297
306.309
306.322
306.333
306.345
306.356
306.366
306.377
306.387
306.397
306.235
306.25
306.264
306.278
306.291
306.304
306.316
306.328
306.339
306.35
306.36
306.371
306.381
306.391
306.23
306.245
306.259
306.272
306.286
306.298
306.31
306.322
306.333
306.344
306.355
306.365
306.375
306.386
306.225
306.239
306.253
306.267
306.28
306.292
306.304
306.316
306.327
306.337
306.348
306.358
306.369
306.379
306.22
306.235
306.249
306.262
306.274
306.287
306.298
306.31
306.321
306.331
306.341
306.352
306.361
306.372
306.216
306.23
306.244
306.257
306.269
306.281
306.292
306.304
306.314
306.325
306.335
306.345
306.354
306.365
306.215
306.228
306.24
306.253
306.265
306.276
306.287
306.297
306.307
306.318
306.327
306.337
306.346
306.356
305.934
305.951
305.967
305.983
305.998
306.012
306.025
306.038
306.049
306.06
306.07
306.079
306.087
306.097
305.943
305.959
305.976
305.992
306.008
306.023
306.037
306.05
306.062
306.073
306.083
306.093
306.101
306.111
305.954
305.97
305.988
306.003
306.019
306.034
306.048
306.06
306.072
306.084
306.094
306.104
306.112
306.122
305.963
305.979
305.996
306.012
306.028
306.043
306.057
306.07
306.083
306.094
306.105
306.114
306.124
306.133
305.971
305.988
306.005
306.021
306.037
306.052
306.066
306.079
306.091
306.103
306.113
306.123
306.133
306.142
305.979
305.996
306.013
306.029
306.045
306.06
306.074
306.087
306.099
306.111
306.122
306.132
306.141
306.151
305.986
306.003
306.02
306.036
306.052
306.067
306.081
306.094
306.106
306.118
306.129
306.139
306.149
306.157
305.992
306.01
306.027
306.043
306.058
306.073
306.087
306.1
306.113
306.124
306.135
306.145
306.155
306.164
305.998
306.016
306.033
306.049
306.064
306.079
306.092
306.106
306.118
306.129
306.14
306.151
306.161
306.17
306.004
306.022
306.038
306.054
306.069
306.084
306.097
306.11
306.123
306.134
306.145
306.155
306.165
306.174
306.009
306.026
306.042
306.058
306.073
306.088
306.101
306.114
306.126
306.137
306.148
306.158
306.168
306.177
306.014
306.031
306.047
306.062
306.077
306.091
306.104
306.117
306.129
306.14
306.151
306.161
306.17
306.179
306.019
306.035
306.05
306.066
306.08
306.094
306.107
306.119
306.131
306.142
306.152
306.162
306.171
306.18
306.024
306.041
306.055
306.069
306.083
306.096
306.108
306.12
306.131
306.142
306.152
306.161
306.171
306.18
305.586
305.598
305.611
305.623
305.636
305.648
305.659
305.67
305.681
305.691
305.7
305.709
305.717
305.725
305.6
305.611
305.625
305.638
305.651
305.664
305.676
305.687
305.698
305.708
305.718
305.727
305.735
305.745
305.615
305.627
305.641
305.654
305.667
305.68
305.692
305.703
305.714
305.725
305.734
305.743
305.751
305.761
305.629
305.642
305.656
305.669
305.683
305.696
305.708
305.72
305.731
305.741
305.751
305.76
305.768
305.777
305.643
305.657
305.671
305.685
305.699
305.711
305.724
305.735
305.746
305.757
305.767
305.776
305.784
305.793
305.658
305.672
305.686
305.7
305.714
305.727
305.739
305.751
305.762
305.773
305.783
305.792
305.8
305.808
305.672
305.686
305.701
305.715
305.729
305.742
305.754
305.766
305.777
305.788
305.798
305.807
305.815
305.823
305.686
305.701
305.715
305.729
305.743
305.756
305.769
305.78
305.792
305.802
305.812
305.821
305.83
305.837
305.699
305.714
305.729
305.743
305.757
305.77
305.782
305.794
305.805
305.816
305.826
305.835
305.843
305.851
305.712
305.727
305.742
305.756
305.769
305.783
305.795
305.807
305.818
305.828
305.838
305.847
305.856
305.863
305.724
305.74
305.754
305.768
305.781
305.794
305.807
305.818
305.829
305.84
305.849
305.858
305.867
305.874
305.737
305.751
305.765
305.779
305.792
305.805
305.817
305.829
305.839
305.849
305.859
305.868
305.876
305.884
305.748
305.762
305.776
305.79
305.802
305.815
305.827
305.838
305.848
305.858
305.868
305.876
305.885
305.892
305.76
305.774
305.787
305.8
305.812
305.824
305.835
305.846
305.856
305.866
305.875
305.883
305.892
305.9
305.243
305.249
305.257
305.265
305.272
305.28
305.288
305.296
305.304
305.311
305.318
305.325
305.331
305.338
305.256
305.262
305.271
305.279
305.287
305.295
305.303
305.311
305.319
305.326
305.334
305.341
305.347
305.354
305.27
305.277
305.286
305.294
305.302
305.31
305.319
305.327
305.334
305.342
305.349
305.356
305.362
305.369
305.285
305.292
305.301
305.309
305.318
305.326
305.334
305.343
305.35
305.358
305.365
305.372
305.378
305.385
305.299
305.307
305.317
305.325
305.334
305.342
305.351
305.359
305.367
305.374
305.381
305.388
305.394
305.401
305.315
305.323
305.332
305.341
305.35
305.359
305.367
305.375
305.383
305.391
305.398
305.405
305.411
305.417
305.33
305.339
305.348
305.357
305.366
305.375
305.384
305.392
305.4
305.407
305.415
305.421
305.428
305.433
305.346
305.355
305.364
305.374
305.382
305.391
305.4
305.408
305.416
305.424
305.431
305.438
305.444
305.449
305.361
305.371
305.38
305.389
305.398
305.407
305.416
305.424
305.432
305.439
305.447
305.453
305.46
305.465
305.376
305.386
305.395
305.405
305.413
305.422
305.431
305.439
305.447
305.454
305.462
305.468
305.475
305.48
305.391
305.401
305.41
305.419
305.428
305.437
305.445
305.453
305.461
305.469
305.476
305.482
305.489
305.493
305.406
305.416
305.424
305.434
305.442
305.451
305.459
305.467
305.475
305.482
305.489
305.496
305.502
305.507
305.419
305.429
305.438
305.447
305.456
305.464
305.472
305.48
305.488
305.495
305.502
305.508
305.514
305.52
305.434
305.443
305.452
305.461
305.469
305.477
305.485
305.492
305.499
305.506
305.513
305.519
305.526
305.533
304.924
304.926
304.93
304.934
304.937
304.941
304.945
304.949
304.953
304.957
304.961
304.964
304.968
304.972
304.935
304.937
304.941
304.944
304.948
304.952
304.956
304.96
304.964
304.968
304.972
304.975
304.979
304.983
304.946
304.948
304.952
304.956
304.959
304.963
304.967
304.971
304.975
304.979
304.983
304.986
304.989
304.994
304.957
304.96
304.964
304.967
304.971
304.975
304.979
304.983
304.987
304.991
304.994
304.998
305.001
305.005
304.969
304.972
304.976
304.98
304.983
304.987
304.991
304.995
304.999
305.003
305.006
305.01
305.013
305.017
304.981
304.985
304.988
304.992
304.996
305
305.004
305.008
305.012
305.015
305.019
305.022
305.026
305.029
304.994
304.997
305.001
305.005
305.009
305.013
305.016
305.02
305.024
305.028
305.032
305.035
305.039
305.042
305.006
305.01
305.014
305.017
305.021
305.025
305.029
305.033
305.037
305.041
305.044
305.048
305.051
305.054
305.018
305.022
305.026
305.03
305.034
305.038
305.042
305.046
305.05
305.053
305.057
305.06
305.064
305.066
305.031
305.035
305.039
305.042
305.046
305.05
305.054
305.058
305.062
305.066
305.069
305.073
305.076
305.078
305.043
305.047
305.051
305.055
305.059
305.063
305.067
305.071
305.074
305.078
305.082
305.085
305.088
305.09
305.055
305.06
305.063
305.067
305.071
305.075
305.079
305.083
305.087
305.09
305.094
305.097
305.1
305.102
305.067
305.071
305.075
305.079
305.083
305.087
305.091
305.095
305.098
305.102
305.105
305.109
305.112
305.114
305.08
305.083
305.087
305.091
305.095
305.098
305.102
305.106
305.11
305.113
305.116
305.12
305.123
305.127
304.632
304.632
304.632
304.633
304.634
304.635
304.636
304.637
304.638
304.639
304.639
304.64
304.641
304.642
304.639
304.639
304.639
304.64
304.641
304.642
304.643
304.644
304.644
304.645
304.646
304.646
304.647
304.648
304.646
304.646
304.647
304.647
304.648
304.649
304.65
304.65
304.651
304.652
304.652
304.653
304.653
304.654
304.654
304.654
304.654
304.655
304.655
304.656
304.657
304.657
304.658
304.659
304.659
304.66
304.66
304.661
304.661
304.661
304.662
304.662
304.663
304.663
304.664
304.665
304.665
304.666
304.666
304.667
304.667
304.668
304.669
304.669
304.669
304.67
304.67
304.671
304.671
304.672
304.672
304.673
304.673
304.674
304.674
304.674
304.676
304.676
304.677
304.677
304.678
304.678
304.679
304.679
304.68
304.68
304.681
304.681
304.681
304.681
304.684
304.684
304.684
304.685
304.685
304.686
304.686
304.687
304.687
304.687
304.688
304.688
304.688
304.688
304.691
304.691
304.692
304.692
304.693
304.693
304.694
304.694
304.694
304.695
304.695
304.695
304.696
304.695
304.698
304.699
304.699
304.7
304.7
304.701
304.701
304.701
304.702
304.702
304.702
304.703
304.703
304.703
304.705
304.706
304.707
304.707
304.708
304.708
304.708
304.709
304.709
304.71
304.71
304.71
304.71
304.71
304.713
304.714
304.714
304.714
304.715
304.715
304.716
304.716
304.717
304.717
304.717
304.718
304.718
304.718
304.719
304.72
304.721
304.722
304.722
304.723
304.723
304.724
304.724
304.725
304.725
304.725
304.725
304.725
304.727
304.727
304.728
304.728
304.729
304.73
304.731
304.731
304.732
304.732
304.732
304.733
304.733
304.733
304.352
304.351
304.351
304.35
304.35
304.349
304.348
304.347
304.346
304.345
304.343
304.342
304.34
304.339
304.356
304.355
304.355
304.354
304.354
304.353
304.352
304.351
304.349
304.348
304.346
304.345
304.343
304.342
304.36
304.359
304.359
304.358
304.357
304.356
304.355
304.354
304.353
304.351
304.35
304.348
304.347
304.345
304.364
304.363
304.363
304.362
304.361
304.36
304.359
304.358
304.356
304.355
304.353
304.352
304.35
304.348
304.368
304.367
304.366
304.365
304.364
304.363
304.362
304.361
304.36
304.358
304.356
304.355
304.353
304.351
304.371
304.37
304.37
304.369
304.368
304.367
304.365
304.364
304.363
304.361
304.359
304.358
304.356
304.354
304.375
304.374
304.373
304.372
304.371
304.37
304.369
304.367
304.366
304.364
304.362
304.361
304.359
304.357
304.378
304.377
304.376
304.375
304.374
304.373
304.371
304.37
304.369
304.367
304.365
304.363
304.361
304.359
304.381
304.38
304.379
304.378
304.377
304.376
304.374
304.373
304.371
304.37
304.368
304.366
304.364
304.362
304.383
304.383
304.382
304.381
304.38
304.378
304.377
304.376
304.374
304.372
304.371
304.369
304.367
304.364
304.386
304.385
304.384
304.383
304.382
304.381
304.38
304.378
304.377
304.375
304.373
304.371
304.369
304.367
304.388
304.388
304.387
304.386
304.385
304.384
304.383
304.381
304.38
304.378
304.376
304.374
304.372
304.37
304.39
304.39
304.389
304.388
304.387
304.386
304.385
304.384
304.382
304.381
304.379
304.377
304.375
304.372
304.392
304.392
304.391
304.39
304.389
304.389
304.388
304.386
304.385
304.384
304.382
304.38
304.378
304.376
304.073
304.072
304.072
304.071
304.07
304.068
304.067
304.065
304.063
304.061
304.058
304.056
304.053
304.051
304.075
304.074
304.074
304.073
304.072
304.07
304.069
304.067
304.065
304.062
304.06
304.057
304.055
304.052
304.077
304.076
304.075
304.074
304.073
304.072
304.07
304.068
304.066
304.064
304.061
304.059
304.056
304.053
304.078
304.077
304.077
304.076
304.075
304.073
304.072
304.07
304.067
304.065
304.063
304.06
304.057
304.054
304.079
304.079
304.078
304.077
304.076
304.074
304.073
304.071
304.068
304.066
304.064
304.061
304.058
304.055
304.08
304.079
304.079
304.078
304.077
304.075
304.073
304.071
304.069
304.067
304.064
304.062
304.059
304.056
304.081
304.08
304.079
304.078
304.077
304.076
304.074
304.072
304.07
304.067
304.065
304.062
304.059
304.056
304.081
304.08
304.079
304.078
304.077
304.076
304.074
304.072
304.07
304.067
304.065
304.062
304.059
304.056
304.081
304.08
304.08
304.079
304.077
304.076
304.074
304.072
304.07
304.068
304.065
304.062
304.059
304.056
304.081
304.08
304.079
304.078
304.077
304.076
304.074
304.072
304.07
304.067
304.065
304.062
304.059
304.056
304.08
304.08
304.079
304.078
304.077
304.075
304.074
304.072
304.069
304.067
304.064
304.062
304.059
304.055
304.079
304.079
304.078
304.077
304.076
304.075
304.073
304.071
304.069
304.066
304.064
304.061
304.058
304.055
304.079
304.078
304.077
304.076
304.075
304.074
304.072
304.07
304.068
304.066
304.063
304.06
304.058
304.054
304.077
304.076
304.076
304.075
304.074
304.073
304.071
304.069
304.067
304.065
304.063
304.06
304.057
304.054
303.792
303.791
303.791
303.79
303.789
303.788
303.786
303.785
303.783
303.781
303.778
303.776
303.773
303.77
303.792
303.792
303.792
303.791
303.79
303.789
303.787
303.785
303.783
303.781
303.779
303.776
303.774
303.771
303.793
303.792
303.792
303.791
303.79
303.789
303.788
303.786
303.784
303.782
303.779
303.777
303.774
303.771
303.793
303.792
303.792
303.791
303.791
303.789
303.788
303.786
303.784
303.782
303.779
303.777
303.774
303.771
303.793
303.792
303.792
303.791
303.79
303.789
303.788
303.786
303.784
303.782
303.779
303.777
303.774
303.771
303.792
303.792
303.792
303.791
303.79
303.789
303.787
303.786
303.784
303.782
303.779
303.777
303.774
303.771
303.791
303.791
303.791
303.79
303.789
303.788
303.787
303.785
303.783
303.781
303.779
303.776
303.773
303.77
303.791
303.79
303.79
303.789
303.789
303.787
303.786
303.784
303.782
303.78
303.778
303.775
303.772
303.77
303.789
303.789
303.789
303.788
303.787
303.786
303.785
303.783
303.781
303.779
303.777
303.774
303.771
303.768
303.788
303.788
303.787
303.787
303.786
303.785
303.783
303.782
303.78
303.778
303.775
303.773
303.77
303.767
303.786
303.786
303.786
303.785
303.784
303.783
303.782
303.78
303.778
303.776
303.774
303.771
303.768
303.766
303.784
303.784
303.784
303.783
303.782
303.781
303.78
303.778
303.776
303.774
303.772
303.769
303.767
303.764
303.782
303.782
303.781
303.781
303.78
303.779
303.778
303.776
303.774
303.772
303.77
303.767
303.765
303.762
303.78
303.779
303.779
303.779
303.778
303.777
303.775
303.774
303.772
303.77
303.768
303.766
303.763
303.76
303.517
303.516
303.516
303.515
303.514
303.513
303.512
303.511
303.51
303.508
303.507
303.505
303.504
303.502
303.516
303.516
303.515
303.515
303.514
303.513
303.512
303.511
303.51
303.508
303.506
303.505
303.503
303.502
303.516
303.515
303.515
303.514
303.514
303.513
303.512
303.511
303.509
303.508
303.506
303.505
303.503
303.501
303.515
303.515
303.514
303.514
303.513
303.512
303.511
303.51
303.509
303.508
303.506
303.504
303.503
303.501
303.514
303.514
303.514
303.513
303.513
303.512
303.511
303.51
303.509
303.507
303.505
303.504
303.502
303.5
303.514
303.513
303.513
303.513
303.512
303.511
303.51
303.509
303.508
303.506
303.505
303.503
303.502
303.5
303.513
303.512
303.512
303.512
303.511
303.51
303.51
303.508
303.507
303.506
303.504
303.502
303.501
303.499
303.511
303.511
303.511
303.511
303.51
303.509
303.509
303.507
303.506
303.505
303.503
303.502
303.5
303.498
303.51
303.51
303.51
303.509
303.509
303.508
303.507
303.506
303.505
303.504
303.502
303.5
303.499
303.497
303.509
303.509
303.508
303.508
303.507
303.507
303.506
303.505
303.504
303.502
303.501
303.499
303.498
303.496
303.508
303.507
303.507
303.507
303.506
303.505
303.504
303.503
303.502
303.501
303.499
303.498
303.496
303.495
303.506
303.506
303.505
303.505
303.504
303.504
303.503
303.502
303.501
303.499
303.498
303.496
303.495
303.493
303.505
303.504
303.504
303.503
303.503
303.502
303.501
303.5
303.499
303.498
303.496
303.495
303.493
303.492
303.503
303.502
303.502
303.502
303.501
303.5
303.499
303.498
303.497
303.496
303.495
303.493
303.492
303.49
303.26
303.259
303.258
303.257
303.256
303.255
303.255
303.254
303.254
303.253
303.253
303.253
303.252
303.252
303.258
303.257
303.257
303.256
303.255
303.254
303.254
303.253
303.253
303.252
303.252
303.251
303.251
303.251
303.257
303.256
303.256
303.255
303.254
303.253
303.253
303.252
303.252
303.251
303.251
303.251
303.25
303.25
303.256
303.256
303.255
303.254
303.253
303.253
303.252
303.251
303.251
303.25
303.25
303.25
303.25
303.249
303.255
303.255
303.254
303.253
303.252
303.252
303.251
303.251
303.25
303.25
303.249
303.249
303.249
303.249
303.255
303.254
303.253
303.252
303.252
303.251
303.25
303.25
303.249
303.249
303.249
303.248
303.248
303.248
303.254
303.253
303.252
303.252
303.251
303.25
303.25
303.249
303.249
303.248
303.248
303.248
303.248
303.247
303.253
303.252
303.252
303.251
303.25
303.25
303.249
303.249
303.248
303.248
303.247
303.247
303.247
303.247
303.252
303.252
303.251
303.25
303.25
303.249
303.248
303.248
303.247
303.247
303.247
303.246
303.246
303.246
303.252
303.251
303.25
303.25
303.249
303.248
303.248
303.247
303.247
303.246
303.246
303.246
303.246
303.246
303.251
303.251
303.25
303.249
303.249
303.248
303.247
303.247
303.246
303.246
303.246
303.246
303.245
303.245
303.251
303.25
303.249
303.249
303.248
303.248
303.247
303.246
303.246
303.246
303.245
303.245
303.245
303.245
303.251
303.25
303.249
303.249
303.248
303.247
303.247
303.246
303.246
303.245
303.245
303.245
303.245
303.245
303.251
303.25
303.249
303.248
303.248
303.247
303.246
303.246
303.245
303.245
303.245
303.245
303.245
303.245
303.029
303.028
303.026
303.025
303.024
303.024
303.023
303.023
303.023
303.024
303.024
303.025
303.026
303.027
303.028
303.026
303.025
303.024
303.023
303.022
303.022
303.021
303.022
303.022
303.022
303.023
303.024
303.025
303.026
303.025
303.023
303.022
303.021
303.02
303.02
303.02
303.02
303.02
303.021
303.022
303.023
303.024
303.025
303.024
303.022
303.021
303.02
303.019
303.019
303.019
303.019
303.019
303.02
303.02
303.022
303.023
303.024
303.023
303.021
303.02
303.019
303.018
303.018
303.017
303.018
303.018
303.019
303.019
303.021
303.022
303.023
303.022
303.02
303.019
303.018
303.017
303.017
303.017
303.017
303.017
303.018
303.019
303.02
303.021
303.023
303.021
303.02
303.018
303.017
303.017
303.016
303.016
303.016
303.017
303.017
303.018
303.019
303.02
303.022
303.021
303.019
303.018
303.017
303.016
303.016
303.016
303.016
303.016
303.017
303.018
303.019
303.02
303.022
303.021
303.019
303.018
303.017
303.016
303.016
303.016
303.016
303.016
303.017
303.018
303.019
303.02
303.022
303.021
303.019
303.018
303.017
303.017
303.016
303.016
303.016
303.017
303.017
303.018
303.019
303.02
303.023
303.021
303.02
303.019
303.018
303.017
303.017
303.017
303.017
303.017
303.018
303.019
303.02
303.021
303.023
303.022
303.021
303.02
303.019
303.018
303.018
303.017
303.017
303.018
303.018
303.019
303.02
303.022
303.024
303.023
303.022
303.021
303.02
303.019
303.019
303.018
303.019
303.019
303.019
303.02
303.021
303.022
303.026
303.024
303.023
303.022
303.021
303.02
303.02
303.02
303.02
303.02
303.02
303.021
303.022
303.023
302.827
302.825
302.824
302.822
302.821
302.821
302.82
302.82
302.821
302.821
302.822
302.823
302.825
302.826
302.825
302.824
302.822
302.821
302.82
302.819
302.819
302.819
302.819
302.82
302.82
302.822
302.823
302.824
302.824
302.822
302.82
302.819
302.818
302.817
302.817
302.817
302.817
302.818
302.819
302.82
302.821
302.823
302.823
302.821
302.819
302.818
302.817
302.816
302.815
302.815
302.816
302.816
302.817
302.819
302.82
302.821
302.822
302.82
302.818
302.817
302.815
302.815
302.814
302.814
302.815
302.815
302.816
302.817
302.819
302.821
302.821
302.819
302.817
302.816
302.815
302.814
302.813
302.813
302.814
302.814
302.816
302.817
302.818
302.82
302.82
302.819
302.817
302.815
302.814
302.813
302.813
302.813
302.813
302.814
302.815
302.816
302.818
302.82
302.82
302.818
302.817
302.815
302.814
302.813
302.813
302.813
302.813
302.814
302.815
302.816
302.818
302.82
302.82
302.819
302.817
302.816
302.815
302.814
302.813
302.813
302.814
302.814
302.815
302.817
302.818
302.82
302.821
302.819
302.818
302.816
302.815
302.814
302.814
302.814
302.814
302.815
302.816
302.817
302.819
302.821
302.822
302.82
302.819
302.817
302.816
302.816
302.815
302.815
302.815
302.816
302.817
302.818
302.82
302.821
302.823
302.821
302.82
302.819
302.818
302.817
302.816
302.816
302.817
302.817
302.818
302.819
302.821
302.822
302.824
302.823
302.821
302.82
302.819
302.818
302.818
302.818
302.818
302.819
302.82
302.821
302.822
302.824
302.826
302.825
302.823
302.822
302.821
302.82
302.82
302.82
302.82
302.82
302.821
302.822
302.823
302.825
302.648
302.647
302.646
302.645
302.644
302.643
302.643
302.643
302.643
302.644
302.644
302.645
302.646
302.647
302.647
302.646
302.644
302.643
302.643
302.642
302.642
302.642
302.642
302.642
302.643
302.644
302.645
302.646
302.646
302.645
302.643
302.642
302.641
302.641
302.641
302.641
302.641
302.641
302.642
302.643
302.644
302.645
302.645
302.644
302.642
302.641
302.64
302.64
302.64
302.639
302.64
302.64
302.641
302.642
302.643
302.644
302.644
302.643
302.642
302.641
302.64
302.639
302.639
302.639
302.639
302.639
302.64
302.641
302.642
302.643
302.644
302.642
302.641
302.64
302.639
302.639
302.638
302.638
302.638
302.639
302.64
302.64
302.641
302.643
302.643
302.642
302.641
302.64
302.639
302.638
302.638
302.638
302.638
302.639
302.639
302.64
302.641
302.643
302.643
302.642
302.641
302.64
302.639
302.638
302.638
302.638
302.638
302.639
302.639
302.64
302.641
302.643
302.644
302.642
302.641
302.64
302.639
302.639
302.638
302.638
302.638
302.639
302.64
302.64
302.642
302.643
302.644
302.643
302.642
302.641
302.64
302.639
302.639
302.639
302.639
302.639
302.64
302.641
302.642
302.643
302.645
302.644
302.642
302.641
302.64
302.64
302.64
302.639
302.64
302.64
302.641
302.642
302.643
302.644
302.646
302.644
302.643
302.642
302.641
302.641
302.641
302.64
302.641
302.641
302.642
302.643
302.644
302.645
302.647
302.646
302.644
302.644
302.643
302.642
302.642
302.642
302.642
302.642
302.643
302.644
302.645
302.646
302.648
302.647
302.646
302.645
302.644
302.643
302.643
302.643
302.643
302.643
302.644
302.645
302.646
302.647
302.487
302.487
302.486
302.486
302.486
302.485
302.485
302.485
302.485
302.485
302.485
302.485
302.485
302.485
302.487
302.486
302.486
302.486
302.485
302.485
302.485
302.485
302.485
302.485
302.485
302.485
302.485
302.485
302.486
302.486
302.486
302.485
302.485
302.485
302.484
302.484
302.484
302.484
302.484
302.484
302.485
302.485
302.486
302.486
302.485
302.485
302.485
302.484
302.484
302.484
302.484
302.484
302.484
302.484
302.484
302.484
302.486
302.485
302.485
302.485
302.484
302.484
302.484
302.484
302.484
302.484
302.484
302.484
302.484
302.484
302.486
302.485
302.485
302.485
302.484
302.484
302.484
302.484
302.484
302.484
302.484
302.484
302.484
302.484
302.486
302.485
302.485
302.484
302.484
302.484
302.484
302.484
302.483
302.483
302.484
302.484
302.484
302.484
302.486
302.485
302.485
302.484
302.484
302.484
302.484
302.484
302.483
302.483
302.483
302.484
302.484
302.484
302.486
302.485
302.485
302.484
302.484
302.484
302.484
302.484
302.483
302.483
302.484
302.484
302.484
302.484
302.486
302.485
302.485
302.485
302.484
302.484
302.484
302.484
302.484
302.484
302.484
302.484
302.484
302.484
302.486
302.485
302.485
302.485
302.484
302.484
302.484
302.484
302.484
302.484
302.484
302.484
302.484
302.484
302.486
302.486
302.485
302.485
302.485
302.484
302.484
302.484
302.484
302.484
302.484
302.484
302.484
302.484
302.486
302.486
302.486
302.485
302.485
302.484
302.484
302.484
302.484
302.484
302.484
302.484
302.485
302.485
302.487
302.486
302.486
302.485
302.485
302.485
302.485
302.484
302.484
302.484
302.484
302.484
302.485
302.485
302.338
302.339
302.339
302.34
302.34
302.34
302.34
302.34
302.339
302.339
302.339
302.338
302.337
302.337
302.339
302.34
302.34
302.34
302.34
302.34
302.34
302.34
302.34
302.34
302.339
302.339
302.338
302.337
302.339
302.34
302.34
302.341
302.341
302.341
302.341
302.341
302.34
302.34
302.34
302.339
302.338
302.338
302.34
302.34
302.341
302.341
302.341
302.341
302.341
302.341
302.341
302.34
302.34
302.339
302.339
302.338
302.34
302.34
302.341
302.341
302.342
302.342
302.342
302.341
302.341
302.341
302.34
302.34
302.339
302.338
302.34
302.341
302.341
302.341
302.342
302.342
302.342
302.342
302.341
302.341
302.34
302.34
302.339
302.338
302.34
302.341
302.341
302.341
302.342
302.342
302.342
302.342
302.341
302.341
302.34
302.34
302.339
302.338
302.34
302.341
302.341
302.341
302.342
302.342
302.342
302.342
302.341
302.341
302.34
302.34
302.339
302.338
302.34
302.34
302.341
302.341
302.341
302.342
302.342
302.341
302.341
302.341
302.34
302.339
302.339
302.338
302.34
302.34
302.34
302.341
302.341
302.341
302.341
302.341
302.341
302.34
302.34
302.339
302.338
302.337
302.339
302.34
302.34
302.34
302.341
302.341
302.341
302.34
302.34
302.34
302.339
302.339
302.338
302.337
302.339
302.339
302.339
302.34
302.34
302.34
302.34
302.34
302.34
302.339
302.339
302.338
302.337
302.337
302.338
302.339
302.339
302.339
302.339
302.339
302.339
302.339
302.339
302.338
302.338
302.337
302.337
302.336
302.337
302.338
302.338
302.338
302.338
302.338
302.338
302.338
302.338
302.338
302.337
302.337
302.336
302.335
302.198
302.199
302.2
302.201
302.201
302.201
302.202
302.201
302.201
302.2
302.2
302.199
302.198
302.196
302.199
302.2
302.201
302.202
302.202
302.203
302.203
302.203
302.202
302.202
302.201
302.2
302.199
302.197
302.2
302.201
302.202
302.203
302.203
302.204
302.204
302.204
302.203
302.203
302.202
302.201
302.2
302.198
302.2
302.202
302.203
302.203
302.204
302.204
302.205
302.204
302.204
302.203
302.203
302.201
302.2
302.199
302.201
302.202
302.203
302.204
302.205
302.205
302.205
302.205
302.205
302.204
302.203
302.202
302.201
302.199
302.201
302.202
302.204
302.204
302.205
302.205
302.206
302.205
302.205
302.204
302.203
302.202
302.201
302.2
302.201
302.203
302.204
302.205
302.205
302.206
302.206
302.206
302.205
302.205
302.204
302.202
302.201
302.2
302.201
302.203
302.204
302.204
302.205
302.205
302.206
302.205
302.205
302.204
302.203
302.202
302.201
302.199
302.201
302.202
302.203
302.204
302.205
302.205
302.205
302.205
302.205
302.204
302.203
302.202
302.201
302.199
302.201
302.202
302.203
302.203
302.204
302.204
302.205
302.204
302.204
302.203
302.202
302.201
302.2
302.198
302.2
302.201
302.202
302.203
302.203
302.203
302.204
302.203
302.203
302.202
302.201
302.2
302.199
302.198
302.199
302.2
302.201
302.201
302.202
302.202
302.202
302.202
302.202
302.201
302.2
302.199
302.198
302.197
302.198
302.198
302.199
302.2
302.201
302.201
302.201
302.201
302.201
302.2
302.199
302.198
302.197
302.196
302.196
302.197
302.198
302.199
302.199
302.199
302.2
302.199
302.199
302.199
302.198
302.197
302.196
302.194
302.061
302.063
302.064
302.065
302.066
302.066
302.066
302.066
302.066
302.065
302.064
302.063
302.063
302.064
302.065
302.066
302.067
302.068
302.068
302.068
302.067
302.067
302.066
302.065
302.064
302.065
302.066
302.068
302.068
302.069
302.069
302.069
302.068
302.068
302.067
302.066
302.065
302.066
302.067
302.068
302.069
302.07
302.07
302.07
302.069
302.069
302.068
302.067
302.065
302.067
302.068
302.069
302.07
302.07
302.071
302.071
302.07
302.07
302.069
302.067
302.066
302.067
302.069
302.07
302.07
302.071
302.071
302.071
302.071
302.07
302.069
302.068
302.066
302.067
302.069
302.07
302.071
302.071
302.071
302.071
302.071
302.07
302.069
302.068
302.066
302.067
302.069
302.07
302.07
302.071
302.071
302.071
302.071
302.07
302.069
302.068
302.066
302.067
302.068
302.069
302.07
302.07
302.071
302.071
302.07
302.069
302.068
302.067
302.065
302.066
302.067
302.068
302.069
302.07
302.07
302.07
302.069
302.069
302.068
302.066
302.064
302.065
302.066
302.067
302.068
302.069
302.069
302.069
302.068
302.068
302.067
302.065
302.063
302.064
302.065
302.066
302.067
302.067
302.068
302.067
302.067
302.066
302.065
302.064
302.061
302.062
302.064
302.064
302.065
302.066
302.066
302.066
302.066
302.065
302.064
302.063
302.06
302.061
302.062
302.063
302.063
302.064
302.064
302.064
302.064
302.063
302.063
302.061
306.84
306.863
306.884
306.904
306.924
306.945
306.835
306.862
306.89
306.918
306.944
306.97
306.837
306.868
306.901
306.932
306.961
306.99
306.837
306.872
306.907
306.94
306.971
307
306.559
306.563
306.568
306.573
306.578
306.582
306.57
306.577
306.585
306.593
306.601
306.609
306.58
306.591
306.601
306.612
306.623
306.632
306.589
306.603
306.615
306.628
306.64
306.651
306.598
306.613
306.628
306.641
306.654
306.665
306.606
306.623
306.638
306.652
306.664
306.674
306.614
306.631
306.646
306.659
306.671
306.68
306.254
306.243
306.236
306.226
306.218
306.209
306.271
306.261
306.253
306.244
306.237
306.229
306.286
306.278
306.271
306.263
306.256
306.248
306.302
306.294
306.288
306.281
306.274
306.267
306.316
306.309