/*--------------------------------*- C++ -*----------------------------------*\
| =========                 |                                                 |
| \\      /  F ield         | OpenFOAM: The Open Source CFD Toolbox           |
|  \\    /   O peration     | Version:  v2106                                 |
|   \\  /    A nd           | Website:  www.openfoam.com                      |
|    \\/     M anipulation  |                                                 |
\*---------------------------------------------------------------------------*/
FoamFile
{
    version     2.0;
    format      ascii;
    arch        "LSB;label=32;scalar=64";
    class       volScalarField;
    location    "0.00016";
    object      nut;
}
// * * * * * * * * * * * * * * * * * * * * * * * * * * * * * * * * * * * * * //

dimensions      [0 2 -1 0 0 0 0];

internalField   nonuniform List<scalar> 
18109
(
7.87725e-07
2.17037e-07
4.96825e-08
1.68962e-08
1.28136e-08
1.4479e-08
1.9121e-08
5.77089e-07
1.28887e-07
1.81723e-08
2.7155e-09
1.31427e-09
1.63172e-09
2.47046e-09
4.35711e-07
8.80647e-08
1.19161e-08
1.57763e-09
2.81947e-10
1.32393e-10
1.95013e-10
3.44983e-07
7.2693e-08
1.28439e-08
2.1955e-09
3.64288e-10
5.34467e-11
1.32816e-11
2.78898e-07
6.50232e-08
1.37985e-08
2.55711e-09
4.16226e-10
5.7124e-11
6.76358e-12
2.44461e-07
6.23767e-08
1.40636e-08
2.56325e-09
3.9329e-10
5.48904e-11
9.18492e-12
2.37467e-07
6.48833e-08
1.45114e-08
2.50616e-09
3.83479e-10
7.45772e-11
3.61884e-11
2.60427e-07
7.23036e-08
1.54206e-08
2.61379e-09
5.14167e-10
2.28293e-10
2.08904e-10
3.49484e-07
8.55985e-08
1.55465e-08
3.79888e-09
2.62602e-09
3.10995e-09
4.28524e-09
5.92069e-09
8.03135e-09
1.09739e-08
1.60859e-08
2.63304e-08
4.80243e-08
9.72343e-08
2.29367e-07
4.65922e-08
5.90676e-09
6.588e-10
2.18306e-10
2.69989e-10
4.39838e-10
6.8689e-10
9.86913e-10
1.3681e-09
2.12193e-09
4.37043e-09
1.26255e-08
4.40547e-08
1.63467e-07
3.19603e-08
4.53044e-09
5.87769e-10
8.54941e-11
2.18869e-11
2.71638e-11
4.79312e-11
7.58368e-11
1.23355e-10
3.18569e-10
1.33629e-09
6.08842e-09
2.48292e-08
1.29856e-07
2.80622e-08
5.18246e-09
8.4556e-10
1.22568e-10
1.50954e-11
2.19418e-12
1.85541e-12
4.28951e-12
1.83565e-11
1.12947e-10
6.64389e-10
3.35361e-09
1.41434e-08
1.10336e-07
2.63818e-08
5.53087e-09
9.7439e-10
1.38707e-10
1.64132e-11
1.63013e-12
2.52251e-13
9.11957e-13
7.72813e-12
5.83103e-11
3.68484e-10
1.94586e-09
8.62534e-09
1.02214e-07
2.60695e-08
5.64963e-09
9.81473e-10
1.3043e-10
1.52316e-11
2.06924e-12
8.44462e-13
1.20623e-12
5.83804e-12
4.2218e-11
2.7696e-10
1.53836e-09
7.20531e-09
1.04986e-07
2.79683e-08
5.92888e-09
9.71728e-10
1.24953e-10
1.93807e-11
8.15522e-12
7.13953e-12
7.36554e-12
1.21313e-11
5.13469e-11
3.1115e-10
1.74633e-09
8.31566e-09
1.19875e-07
3.19003e-08
6.37111e-09
9.93719e-10
1.53682e-10
5.87346e-11
5.21368e-11
5.21696e-11
5.25977e-11
6.10291e-11
1.22721e-10
5.07461e-10
2.58481e-09
1.18543e-08
1.4306e-07
3.64669e-08
6.9762e-09
1.20407e-09
3.59292e-10
2.86479e-10
2.98434e-10
3.06654e-10
3.13295e-10
3.43412e-10
4.81698e-10
1.18742e-09
4.73347e-09
1.97485e-08
1.70758e-07
4.20194e-08
8.98313e-09
2.40361e-09
1.3906e-09
1.36757e-09
1.44059e-09
1.4941e-09
1.55399e-09
1.70583e-09
2.11638e-09
3.65359e-09
1.06915e-08
3.86066e-08
2.06747e-07
5.84016e-08
1.86534e-08
8.13446e-09
5.86115e-09
5.76249e-09
5.94703e-09
6.17524e-09
6.52402e-09
7.2567e-09
8.66647e-09
1.2347e-08
2.73561e-08
8.32946e-08
3.08898e-07
1.3281e-07
6.0921e-08
3.24799e-08
2.31437e-08
2.1319e-08
2.13454e-08
2.20141e-08
2.34668e-08
2.64464e-08
3.14286e-08
4.066e-08
7.18394e-08
1.81062e-07
6.44747e-07
3.60793e-07
2.02302e-07
1.19805e-07
8.20452e-08
6.94886e-08
6.70117e-08
6.83133e-08
7.29497e-08
8.28837e-08
9.95942e-08
1.23882e-07
1.82995e-07
3.71847e-07
1.35521e-06
8.86608e-07
5.7582e-07
3.76816e-07
2.5845e-07
2.02943e-07
1.85133e-07
1.85297e-07
1.9655e-07
2.22534e-07
2.71016e-07
3.36434e-07
4.43156e-07
7.13049e-07
1.09786e-06
1.87404e-06
3.50853e-06
6.13466e-06
9.54797e-06
1.32476e-05
4.79905e-07
9.21032e-07
1.96733e-06
3.87802e-06
6.67166e-06
9.95274e-06
1.55482e-07
4.40329e-07
1.24111e-06
2.82931e-06
5.17743e-06
7.99657e-06
5.36584e-08
2.3836e-07
7.99831e-07
1.97929e-06
3.83148e-06
6.26875e-06
2.81141e-08
1.4853e-07
5.38108e-07
1.41447e-06
2.91514e-06
5.09993e-06
2.11461e-08
1.1395e-07
4.25646e-07
1.16191e-06
2.49861e-06
4.56675e-06
2.19211e-08
1.1176e-07
4.03115e-07
1.08915e-06
2.36847e-06
4.5642e-06
2.69382e-08
1.27021e-07
4.30832e-07
1.13459e-06
2.5539e-06
5.4908e-06
3.41235e-08
1.49858e-07
4.90211e-07
1.31628e-06
3.18529e-06
7.28211e-06
4.40141e-08
1.84324e-07
6.05858e-07
1.6978e-06
4.23387e-06
9.42866e-06
5.93018e-08
2.42495e-07
8.00884e-07
2.23323e-06
5.32744e-06
1.0903e-05
8.55362e-08
3.34767e-07
1.0661e-06
2.78141e-06
6.02819e-06
1.1176e-05
1.3258e-07
4.69583e-07
1.34479e-06
3.12853e-06
6.13783e-06
1.04195e-05
2.12099e-07
6.37694e-07
1.57499e-06
3.26242e-06
5.85283e-06
9.21848e-06
3.4e-07
8.39464e-07
1.77796e-06
3.29603e-06
5.45406e-06
8.09881e-06
2.10623e-07
5.62213e-07
1.3111e-06
2.63049e-06
4.54951e-06
6.86988e-06
1.46996e-07
3.98829e-07
9.51662e-07
1.96999e-06
3.54605e-06
5.60024e-06
8.51141e-08
2.45216e-07
6.22395e-07
1.37238e-06
2.63967e-06
4.47471e-06
4.98091e-08
1.54573e-07
4.21183e-07
9.97793e-07
2.05876e-06
3.70075e-06
3.24877e-08
1.11488e-07
3.30312e-07
8.35749e-07
1.80669e-06
3.36765e-06
2.87221e-08
1.04721e-07
3.2046e-07
8.23267e-07
1.80748e-06
3.5522e-06
3.32773e-08
1.21277e-07
3.67229e-07
9.47801e-07
2.18421e-06
4.72745e-06
4.57282e-08
1.62444e-07
4.90552e-07
1.30586e-06
3.16333e-06
7.00439e-06
7.19889e-08
2.49313e-07
7.52188e-07
2.00138e-06
4.70941e-06
9.73015e-06
1.30076e-07
4.26374e-07
1.2115e-06
2.98328e-06
6.36987e-06
1.1804e-05
2.52759e-07
7.33988e-07
1.84081e-06
3.99116e-06
7.55476e-06
1.25621e-05
4.80631e-07
1.18223e-06
2.544e-06
4.82181e-06
8.14038e-06
1.22909e-05
8.49191e-07
1.7507e-06
3.24568e-06
5.4512e-06
8.34078e-06
1.1656e-05
1.43426e-06
2.48379e-06
4.00721e-06
6.02727e-06
8.47495e-06
1.11603e-05
1.19234e-06
2.22523e-06
3.74802e-06
5.72465e-06
8.00392e-06
1.03668e-05
9.89601e-07
1.89067e-06
3.23129e-06
4.9854e-06
7.06886e-06
9.33553e-06
7.92013e-07
1.54674e-06
2.69887e-06
4.26783e-06
6.22002e-06
8.48525e-06
6.29598e-07
1.26998e-06
2.28664e-06
3.73962e-06
5.64451e-06
8.26774e-06
5.18049e-07
1.09343e-06
2.04736e-06
3.4867e-06
5.71566e-06
9.83204e-06
4.66486e-07
1.02066e-06
1.98624e-06
3.68999e-06
7.04317e-06
1.38937e-05
4.4524e-07
1.01496e-06
2.17753e-06
4.68287e-06
9.92742e-06
1.95138e-05
4.60397e-07
1.1457e-06
2.76834e-06
6.37237e-06
1.33416e-05
2.43612e-05
5.41777e-07
1.45171e-06
3.62542e-06
8.09668e-06
1.59169e-05
2.70271e-05
7.15056e-07
1.88692e-06
4.4699e-06
9.25982e-06
1.68625e-05
2.678e-05
9.87231e-07
2.36503e-06
5.08393e-06
9.68748e-06
1.63841e-05
2.45489e-05
1.3461e-06
2.8325e-06
5.47633e-06
9.58234e-06
1.51406e-05
2.15786e-05
1.80598e-06
3.30945e-06
5.74604e-06
9.30912e-06
1.38328e-05
1.88289e-05
2.42812e-06
3.95788e-06
6.25744e-06
9.26318e-06
1.28082e-05
1.66264e-05
1.17355e-06
3.18825e-06
7.23873e-06
1.37623e-05
2.23145e-05
3.2287e-05
1.36004e-06
3.27487e-06
6.85321e-06
1.22868e-05
1.90525e-05
2.65113e-05
1.582e-06
3.32586e-06
6.2943e-06
1.0595e-05
1.57683e-05
2.13045e-05
1.78162e-06
3.30385e-06
5.7043e-06
8.97059e-06
1.29079e-05
1.71162e-05
1.61225e-06
2.74773e-06
4.8925e-06
7.80304e-06
1.11088e-05
1.44543e-05
9.60319e-07
2.11929e-06
4.13035e-06
6.72188e-06
9.63098e-06
1.26911e-05
7.49554e-07
1.78583e-06
3.41151e-06
5.52467e-06
8.06945e-06
1.10327e-05
6.20727e-07
1.44936e-06
2.77551e-06
4.64761e-06
7.08978e-06
1.05516e-05
5.09726e-07
1.20045e-06
2.37989e-06
4.16875e-06
6.95187e-06
1.23925e-05
4.1612e-07
1.02055e-06
2.13618e-06
4.1284e-06
8.17866e-06
1.68347e-05
3.54251e-07
9.29167e-07
2.14931e-06
4.84473e-06
1.077e-05
2.21479e-05
3.27323e-07
9.40091e-07
2.47078e-06
6.11427e-06
1.3627e-05
2.62253e-05
3.41347e-07
1.06154e-06
2.98298e-06
7.35422e-06
1.55977e-05
2.81513e-05
3.87312e-07
1.22679e-06
3.40438e-06
7.95806e-06
1.58996e-05
2.72448e-05
4.61431e-07
1.38266e-06
3.58147e-06
7.83066e-06
1.47498e-05
2.4068e-05
5.57305e-07
1.49812e-06
3.55034e-06
7.25141e-06
1.28987e-05
1.99495e-05
7.00099e-07
1.63216e-06
3.4632e-06
6.52419e-06
1.09155e-05
1.60339e-05
8.92896e-07
1.78738e-06
3.36902e-06
5.80415e-06
9.10197e-06
1.28942e-05
1.37378e-05
1.81478e-05
2.29895e-05
3.22182e-05
3.90356e-05
1.13558e-05
1.53547e-05
2.11803e-05
3.43309e-05
4.21832e-05
9.39909e-06
1.35217e-05
2.2362e-05
3.97199e-05
4.5981e-05
8.0309e-06
1.32215e-05
2.76963e-05
4.74691e-05
5.01088e-05
7.60215e-06
1.59366e-05
3.62453e-05
5.27968e-05
5.17059e-05
8.72506e-06
2.18608e-05
4.42196e-05
5.30664e-05
5.0199e-05
1.17331e-05
2.90222e-05
4.78972e-05
5.04328e-05
4.7763e-05
1.53384e-05
3.39022e-05
4.76348e-05
4.73975e-05
4.61194e-05
4.85455e-05
1.82496e-05
3.56234e-05
4.54697e-05
4.43726e-05
4.35064e-05
4.76359e-05
1.91121e-05
3.39454e-05
4.20301e-05
4.1774e-05
4.08532e-05
4.59024e-05
1.79653e-05
3.03643e-05
3.85256e-05
4.01401e-05
3.85866e-05
4.35374e-05
5.34723e-05
1.55357e-05
2.57264e-05
3.42148e-05
3.85323e-05
3.67027e-05
3.96721e-05
5.84234e-05
6.19738e-05
1.28288e-05
2.10897e-05
2.95134e-05
3.61336e-05
3.57242e-05
3.44823e-05
5.60999e-05
0.000132008
1.06309e-05
1.74563e-05
2.54404e-05
3.30438e-05
3.57411e-05
3.39675e-05
3.51896e-05
0.000137294
9.02567e-06
1.5089e-05
2.23775e-05
3.03061e-05
3.59361e-05
3.66949e-05
3.687e-05
0.000127203
7.73462e-06
1.30594e-05
1.96594e-05
2.8673e-05
3.67062e-05
3.94943e-05
4.01443e-05
0.000120632
6.57858e-06
1.12847e-05
1.80277e-05
2.97615e-05
3.9448e-05
4.31554e-05
4.28617e-05
6.90906e-05
5.74309e-06
1.03369e-05
1.90262e-05
3.44513e-05
4.44096e-05
4.77061e-05
4.52652e-05
9.67561e-05
5.58218e-06
1.15581e-05
2.40299e-05
4.0334e-05
4.83155e-05
5.07651e-05
4.72472e-05
0.000108615
6.6759e-06
1.59181e-05
3.20188e-05
4.42836e-05
4.88362e-05
5.15556e-05
4.85285e-05
9.11663e-05
9.7089e-06
2.28129e-05
3.861e-05
4.51359e-05
4.7196e-05
5.17563e-05
5.00418e-05
3.90677e-05
1.38474e-05
2.8854e-05
4.10551e-05
4.31351e-05
4.51445e-05
5.24049e-05
5.24126e-05
4.00874e-05
1.74186e-05
3.17079e-05
4.00669e-05
4.0136e-05
4.23895e-05
5.16496e-05
1.89543e-05
3.11246e-05
3.73191e-05
3.74986e-05
3.96984e-05
5.02922e-05
1.84382e-05
2.85944e-05
3.47044e-05
3.64468e-05
3.79628e-05
4.89387e-05
1.67479e-05
2.53078e-05
3.21033e-05
3.65886e-05
3.77401e-05
4.63053e-05
1.49341e-05
2.21632e-05
2.92575e-05
3.64574e-05
3.94128e-05
4.40885e-05
1.35557e-05
1.98924e-05
2.72804e-05
3.70162e-05
4.32718e-05
1.24507e-05
1.842e-05
2.69133e-05
4.03874e-05
4.84908e-05
1.14647e-05
1.74871e-05
2.96777e-05
4.62362e-05
5.30101e-05
1.1053e-05
1.92376e-05
3.76284e-05
5.32373e-05
5.67736e-05
1.25726e-05
2.6509e-05
4.89623e-05
5.88507e-05
5.95211e-05
1.771e-05
3.82582e-05
5.697e-05
5.87123e-05
5.88897e-05
2.5749e-05
4.89304e-05
5.80699e-05
5.43833e-05
5.60325e-05
3.33756e-05
5.32673e-05
5.40992e-05
4.87452e-05
5.30007e-05
3.76996e-05
5.22878e-05
4.91859e-05
4.40808e-05
5.04441e-05
3.84242e-05
4.87787e-05
4.50222e-05
4.10137e-05
4.7493e-05
3.56759e-05
4.36019e-05
4.18989e-05
3.97979e-05
4.50001e-05
3.11794e-05
3.78468e-05
3.92012e-05
3.98009e-05
4.29439e-05
2.63061e-05
3.19639e-05
3.54167e-05
4.03694e-05
4.28748e-05
2.23305e-05
2.69152e-05
3.1215e-05
4.09226e-05
4.48756e-05
1.94459e-05
2.31936e-05
2.92889e-05
4.32587e-05
4.8426e-05
1.7259e-05
2.08998e-05
3.17748e-05
4.89766e-05
5.32268e-05
1.5416e-05
2.11357e-05
4.02361e-05
5.63748e-05
5.63791e-05
1.45398e-05
2.64037e-05
5.3687e-05
6.23434e-05
5.77773e-05
1.68887e-05
3.80381e-05
6.48694e-05
6.40866e-05
5.78767e-05
2.36742e-05
5.22928e-05
6.77888e-05
6.07004e-05
5.57306e-05
3.25006e-05
6.09509e-05
6.36229e-05
5.47659e-05
5.25001e-05
3.91538e-05
6.13695e-05
5.71856e-05
4.91637e-05
4.98143e-05
4.24248e-05
5.87208e-05
5.23125e-05
4.53005e-05
4.79836e-05
4.2278e-05
5.46518e-05
4.87115e-05
4.2531e-05
4.49482e-05
3.86865e-05
4.86747e-05
4.57053e-05
4.07339e-05
4.16228e-05
3.30239e-05
4.13506e-05
4.25153e-05
3.95527e-05
3.824e-05
2.65927e-05
3.36498e-05
3.77723e-05
3.82949e-05
3.59536e-05
2.09328e-05
2.68623e-05
3.194e-05
3.61278e-05
3.54174e-05
1.67602e-05
2.17868e-05
2.66548e-05
3.33161e-05
3.64512e-05
1.53857e-07
3.45721e-08
5.43946e-09
9.05959e-10
4.57563e-10
5.24029e-10
7.28292e-10
9.97558e-10
1.27729e-09
1.52495e-09
1.93479e-09
3.32476e-09
8.24536e-09
2.55883e-08
8.45003e-08
1.61124e-08
2.07494e-09
2.16955e-10
3.82943e-11
3.35146e-11
5.5919e-11
8.94069e-11
1.25987e-10
1.56805e-10
2.26295e-10
6.37182e-10
2.93098e-09
1.40843e-08
5.59009e-08
1.1411e-08
1.87641e-09
2.75013e-10
3.62308e-11
5.04568e-12
2.71243e-12
4.5918e-12
7.49264e-12
1.28253e-11
4.74944e-11
2.92672e-10
1.70852e-09
8.3901e-09
4.69257e-08
1.13163e-08
2.28437e-09
3.9203e-10
5.46472e-11
6.13609e-12
5.82558e-13
1.50252e-13
3.56968e-13
2.43425e-12
2.08483e-11
1.54829e-10
9.44456e-10
4.7194e-09
4.39997e-08
1.14813e-08
2.49431e-09
4.52506e-10
6.33292e-11
6.79207e-12
5.93987e-13
6.06357e-14
1.13375e-13
1.15862e-12
1.09016e-11
8.38311e-11
5.26135e-10
2.7166e-09
4.40126e-08
1.18497e-08
2.61327e-09
4.6105e-10
6.0566e-11
6.19625e-12
6.8915e-13
2.27961e-13
2.34984e-13
8.71584e-13
7.15504e-12
5.54015e-11
3.55986e-10
1.89548e-09
4.89383e-08
1.33314e-08
2.83373e-09
4.67119e-10
5.80321e-11
7.12658e-12
2.44096e-12
2.03427e-12
1.93924e-12
2.32166e-12
7.52952e-12
4.89949e-11
3.14788e-10
1.71728e-09
5.90126e-08
1.56047e-08
3.08972e-09
4.74603e-10
6.34266e-11
1.86739e-11
1.60799e-11
1.59138e-11
1.55086e-11
1.54494e-11
2.14402e-11
6.95647e-11
3.81415e-10
2.02772e-09
7.22467e-08
1.80658e-08
3.38162e-09
5.35832e-10
1.23268e-10
9.15754e-11
9.77239e-11
1.00423e-10
1.00722e-10
1.01291e-10
1.13905e-10
1.88373e-10
6.43201e-10
2.94151e-09
8.80271e-08
2.10436e-08
4.0212e-09
8.6142e-10
4.46232e-10
4.56898e-10
4.99593e-10
5.23164e-10
5.39963e-10
5.60735e-10
6.14968e-10
7.71399e-10
1.61588e-09
5.67755e-09
1.08271e-07
2.70791e-08
6.5878e-09
2.40436e-09
1.87954e-09
2.00713e-09
2.17003e-09
2.2989e-09
2.43592e-09
2.61623e-09
2.9141e-09
3.37846e-09
5.35681e-09
1.45408e-08
1.61631e-07
5.35402e-08
1.90334e-08
9.1086e-09
7.36859e-09
7.65401e-09
8.12841e-09
8.65604e-09
9.37132e-09
1.03717e-08
1.1873e-08
1.36475e-08
1.87295e-08
4.06448e-08
3.30443e-07
1.49696e-07
6.64618e-08
3.42276e-08
2.55506e-08
2.52529e-08
2.64645e-08
2.82517e-08
3.10855e-08
3.52319e-08
4.16069e-08
4.88368e-08
6.24512e-08
1.11717e-07
7.4303e-07
4.04326e-07
2.104e-07
1.14955e-07
7.87532e-08
7.2256e-08
7.49698e-08
8.03502e-08
8.9336e-08
1.0271e-07
1.24734e-07
1.51292e-07
1.88583e-07
2.83919e-07
2.4503e-08
4.9501e-09
8.20163e-10
1.87762e-10
9.44759e-11
9.25481e-11
1.19857e-10
1.47131e-10
1.73964e-10
1.84954e-10
1.73822e-10
2.00208e-10
5.46487e-10
2.63255e-09
1.17193e-08
2.26404e-09
3.42623e-10
4.51844e-11
7.88648e-12
5.23908e-12
8.1372e-12
1.17991e-11
1.54813e-11
1.71849e-11
1.75915e-11
4.59027e-11
2.95733e-10
1.92613e-09
9.47739e-09
2.26057e-09
4.43236e-10
7.17559e-11
9.73454e-12
1.1609e-12
3.8316e-13
5.49147e-13
8.30563e-13
1.15544e-12
3.49493e-12
2.7878e-11
2.15474e-10
1.36239e-09
1.07713e-08
2.81345e-09
6.02855e-10
1.06283e-10
1.50819e-11
1.62349e-12
1.36457e-13
2.18893e-14
2.89706e-14
1.63611e-13
1.82931e-12
1.81323e-11
1.42886e-10
8.97421e-10
1.19095e-08
3.16416e-09
7.09274e-10
1.2982e-10
1.82499e-11
1.89513e-12
1.45709e-13
1.06063e-14
7.32558e-15
8.75784e-14
1.12016e-12
1.13236e-11
9.02502e-11
5.74607e-10
1.3002e-08
3.46691e-09
7.7062e-10
1.36106e-10
1.79091e-11
1.75138e-12
1.46447e-13
2.85192e-14
2.20292e-14
7.06539e-14
7.55462e-13
7.64266e-12
6.17577e-11
4.01009e-10
1.52104e-08
4.01066e-09
8.58051e-10
1.42581e-10
1.74779e-11
1.77902e-12
3.63091e-13
2.54793e-13
2.25878e-13
2.27846e-13
7.07297e-13
5.84595e-12
4.68853e-11
3.09177e-10
1.87098e-08
4.74997e-09
9.55158e-10
1.47231e-10
1.76652e-11
3.28601e-12
2.35052e-12
2.22683e-12
2.06013e-12
1.84215e-12
2.05549e-12
6.32105e-12
4.22543e-11
2.76571e-10
2.29767e-08
5.57293e-09
1.05999e-09
1.5815e-10
2.57872e-11
1.47116e-11
1.58622e-11
1.58612e-11
1.51756e-11
1.40086e-11
1.34148e-11
1.71722e-11
5.50146e-11
3.08219e-10
2.8387e-08
6.58134e-09
1.21287e-09
2.04028e-10
7.68276e-11
7.90993e-11
9.08348e-11
9.32822e-11
9.22108e-11
8.89464e-11
8.65731e-11
8.82867e-11
1.33389e-10
4.54786e-10
3.41839e-08
7.73533e-09
1.51193e-09
4.06524e-10
3.26617e-10
3.82784e-10
4.40198e-10
4.61668e-10
4.7094e-10
4.74589e-10
4.79581e-10
4.77786e-10
5.47976e-10
1.1569e-09
4.45575e-08
1.12123e-08
2.82682e-09
1.31137e-09
1.36431e-09
1.60966e-09
1.82986e-09
1.95121e-09
2.04799e-09
2.14877e-09
2.26045e-09
2.30535e-09
2.46782e-09
4.01244e-09
7.44971e-08
2.44641e-08
8.30889e-09
4.74958e-09
5.00937e-09
5.85872e-09
6.58986e-09
7.12588e-09
7.66809e-09
8.32611e-09
9.10738e-09
9.66913e-09
1.03458e-08
1.42239e-08
1.69824e-07
6.93603e-08
2.84941e-08
1.62122e-08
1.57932e-08
1.83563e-08
2.06357e-08
2.26243e-08
2.4859e-08
2.77182e-08
3.14171e-08
3.49636e-08
3.87365e-08
4.77532e-08
2.67054e-09
5.37889e-10
1.21252e-10
4.44005e-11
2.54274e-11
2.01794e-11
2.30044e-11
2.56887e-11
2.75718e-11
2.63363e-11
2.08085e-11
1.62141e-11
3.1924e-11
1.94555e-10
1.3864e-09
2.8583e-10
5.11483e-11
8.47953e-12
1.77812e-12
1.03991e-12
1.44807e-12
1.97115e-12
2.42382e-12
2.52381e-12
2.02281e-12
3.04723e-12
2.10568e-11
1.69682e-10
1.64837e-09
4.09061e-10
8.51443e-11
1.50557e-11
2.21209e-12
2.7135e-13
6.91679e-14
8.80848e-14
1.28809e-13
1.59647e-13
2.39429e-13
1.78389e-12
1.73918e-11
1.37769e-10
2.21299e-09
5.68603e-10
1.25063e-10
2.34358e-11
3.56497e-12
4.0671e-13
3.54342e-14
4.99239e-15
5.06746e-15
1.07019e-14
9.91641e-14
1.28258e-12
1.31649e-11
1.04964e-10
2.65106e-09
6.94012e-10
1.56697e-10
2.964e-11
4.45029e-12
4.8981e-13
3.92947e-14
2.47385e-15
5.81243e-16
3.95042e-15
6.65954e-14
9.09165e-13
9.47243e-12
7.64501e-11
3.07662e-09
7.98741e-10
1.76152e-10
3.19041e-11
4.51976e-12
4.67457e-13
3.71671e-14
3.89828e-15
1.86313e-15
3.71397e-15
4.76298e-14
6.54391e-13
6.93364e-12
5.69706e-11
3.76668e-09
9.58338e-10
2.02503e-10
3.44924e-11
4.54811e-12
4.51798e-13
5.60446e-14
2.65483e-14
2.16133e-14
1.86224e-14
4.77483e-14
5.0478e-13
5.29907e-12
4.40465e-11
4.71001e-09
1.15109e-09
2.29499e-10
3.6475e-11
4.56292e-12
5.97392e-13
2.75486e-13
2.44579e-13
2.16371e-13
1.79422e-13
1.68699e-13
4.92454e-13
4.17184e-12
3.45014e-11
5.7994e-09
1.36037e-09
2.57434e-10
3.90313e-11
5.50002e-12
1.98213e-12
1.94683e-12
1.91501e-12
1.7638e-12
1.52472e-12
1.3105e-12
1.42691e-12
4.5041e-12
3.18636e-11
7.15829e-09
1.60813e-09
2.91797e-10
4.57909e-11
1.20535e-11
1.07393e-11
1.23115e-11
1.2517e-11
1.19466e-11
1.08005e-11
9.61228e-12
8.79434e-12
1.0796e-11
3.70618e-11
8.42028e-09
1.81724e-09
3.31228e-10
7.12315e-11
4.72686e-11
5.65839e-11
6.64979e-11
6.92888e-11
6.83984e-11
6.45679e-11
5.99927e-11
5.49879e-11
5.33503e-11
8.91604e-11
1.01707e-08
2.2338e-09
4.73903e-10
1.91838e-10
2.09092e-10
2.62501e-10
3.08842e-10
3.28683e-10
3.34644e-10
3.28994e-10
3.18507e-10
3.00361e-10
2.84109e-10
3.62198e-10
1.39219e-08
3.68351e-09
1.06752e-09
6.79581e-10
8.44377e-10
1.0619e-09
1.2446e-09
1.34983e-09
1.4132e-09
1.44209e-09
1.45142e-09
1.42089e-09
1.37009e-09
1.55912e-09
2.79025e-08
9.35172e-09
3.34495e-09
2.35778e-09
2.96112e-09
3.73532e-09
4.37384e-09
4.82811e-09
5.17732e-09
5.45676e-09
5.69602e-09
5.82094e-09
5.84119e-09
6.28762e-09
3.28351e-10
7.05708e-11
1.83274e-11
7.36706e-12
4.37683e-12
3.7922e-12
4.28782e-12
4.83371e-12
5.12912e-12
4.74541e-12
3.47819e-12
2.21954e-12
2.61098e-12
1.63879e-11
2.09461e-10
4.60649e-11
8.99262e-12
1.63055e-12
3.52144e-13
1.97583e-13
2.59725e-13
3.59058e-13
4.49642e-13
4.73704e-13
3.6578e-13
3.13806e-13
1.64116e-12
1.52799e-11
3.11438e-10
7.68423e-11
1.64209e-11
3.05849e-12
4.86715e-13
6.61967e-14
1.47477e-14
1.65723e-14
2.45986e-14
3.0618e-14
3.0468e-14
1.28066e-13
1.44188e-12
1.36777e-11
4.42804e-10
1.12363e-10
2.50922e-11
4.84504e-12
7.7867e-13
9.8769e-14
9.44179e-15
1.38701e-15
1.35388e-15
1.87627e-15
6.39806e-15
9.01233e-14
1.15201e-12
1.11878e-11
5.56232e-10
1.43011e-10
3.22448e-11
6.18424e-12
9.70654e-13
1.18519e-13
1.0443e-14
7.2854e-16
1.40786e-16
2.71999e-16
3.81039e-15
6.66893e-14
8.78489e-13
8.73133e-12
6.66306e-10
1.67724e-10
3.6423e-11
6.6345e-12
9.80784e-13
1.12614e-13
9.55016e-15
8.15508e-16
2.45757e-16
2.68372e-16
2.75644e-15
4.90619e-14
6.65449e-13
6.80928e-12
8.24362e-10
2.00548e-10
4.12822e-11
7.03256e-12
9.65248e-13
1.04417e-13
1.08831e-14
3.43487e-15
2.52707e-15
1.98024e-15
3.35299e-15
3.86137e-14
5.18426e-13
5.38745e-12
1.02638e-09
2.3868e-10
4.62277e-11
7.34051e-12
9.47777e-13
1.17308e-13
3.79456e-14
3.08204e-14
2.63252e-14
2.10625e-14
1.73454e-14
4.07001e-14
4.04259e-13
4.17088e-12
1.24489e-09
2.77396e-10
5.08883e-11
7.65848e-12
1.04957e-12
3.00305e-13
2.63913e-13
2.55497e-13
2.2861e-13
1.91626e-13
1.54631e-13
1.49668e-13
4.20566e-13
3.55799e-12
1.51581e-09
3.23966e-10
5.68723e-11
8.64436e-12
1.97831e-12
1.57931e-12
1.77935e-12
1.79383e-12
1.66533e-12
1.45906e-12
1.2324e-12
1.07478e-12
1.13621e-12
3.79406e-12
1.74761e-09
3.60148e-10
6.28142e-11
1.23011e-11
7.35555e-12
8.81176e-12
1.03704e-11
1.07325e-11
1.03167e-11
9.41895e-12
8.32943e-12
7.36285e-12
6.49124e-12
9.42228e-12
2.01032e-09
4.12803e-10
8.10941e-11
3.06721e-11
3.39908e-11
4.40161e-11
5.22643e-11
5.53349e-11
5.49133e-11
5.20479e-11
4.79575e-11
4.353e-11
3.81384e-11
4.32073e-11
2.50199e-09
5.87767e-10
1.59017e-10
1.10605e-10
1.47157e-10
1.92667e-10
2.29177e-10
2.47831e-10
2.53413e-10
2.48772e-10
2.37952e-10
2.22833e-10
2.00142e-10
2.08451e-10
4.36972e-09
1.29698e-09
4.61013e-10
4.05032e-10
5.6289e-10
7.39649e-10
8.80565e-10
9.70584e-10
1.01857e-09
1.03099e-09
1.01977e-09
9.88726e-10
9.24204e-10
9.31196e-10
4.69284e-11
1.01106e-11
2.60771e-12
1.05533e-12
7.06627e-13
6.99417e-13
8.46373e-13
9.97397e-13
1.08811e-12
1.0182e-12
7.36964e-13
4.3127e-13
2.91895e-13
1.40381e-12
3.81558e-11
8.72003e-12
1.7671e-12
3.29159e-13
6.9929e-14
3.87208e-14
5.25126e-14
7.54545e-14
9.78518e-14
1.05763e-13
8.32227e-14
5.38879e-14
1.38546e-13
1.3481e-12
6.3262e-11
1.56246e-11
3.3932e-12
6.49055e-13
1.07243e-13
1.56473e-14
3.77717e-15
4.02852e-15
5.99086e-15
7.51582e-15
6.78183e-15
1.16349e-14
1.20845e-13
1.29447e-12
9.33477e-11
2.37468e-11
5.35287e-12
1.04923e-12
1.73398e-13
2.33608e-14
2.54727e-15
4.24484e-16
4.07355e-16
5.32235e-16
7.42481e-16
6.73364e-15
9.87496e-14
1.10723e-12
1.2238e-10
3.13047e-11
7.04496e-12
1.36044e-12
2.1887e-13
2.83744e-14
2.84883e-15
2.43657e-16
6.56752e-17
7.12271e-17
2.78961e-16
4.98487e-15
7.79318e-14
9.05153e-13
1.50168e-10
3.72443e-11
8.02664e-12
1.47142e-12
2.23854e-13
2.74552e-14
2.63867e-15
2.37023e-16
6.73584e-17
5.70693e-17
1.99161e-16
3.65538e-15
5.97084e-14
7.2421e-13
1.86245e-10
4.42714e-11
9.0112e-12
1.54497e-12
2.18818e-13
2.5206e-14
2.61033e-15
5.58556e-16
3.54067e-16
2.64719e-16
3.01115e-16
2.90958e-15
4.68549e-14
5.82731e-13
2.30194e-10
5.21028e-11
9.98014e-12
1.59872e-12
2.12943e-13
2.60251e-14
6.1746e-15
4.23349e-15
3.44752e-15
2.63925e-15
1.97207e-15
3.45965e-15
3.63184e-14
4.5062e-13
2.75122e-10
5.9547e-11
1.08117e-11
1.64123e-12
2.23854e-13
5.19209e-14
3.8339e-14
3.55708e-14
3.06705e-14
2.45865e-14
1.86778e-14
1.62561e-14
3.83505e-14
3.69793e-13
3.28146e-10
6.81147e-11
1.18364e-11
1.79073e-12
3.64705e-13
2.47297e-13
2.64676e-13
2.59648e-13
2.32388e-13
1.94575e-13
1.55343e-13
1.28064e-13
1.19519e-13
3.7273e-13
3.7265e-10
7.4751e-11
1.28204e-11
2.36491e-12
1.22641e-12
1.4064e-12
1.61273e-12
1.62692e-12
1.50747e-12
1.31437e-12
1.09925e-12
9.24217e-13
7.53948e-13
9.51663e-13
4.13553e-10
8.21406e-11
1.54809e-11
5.35891e-12
5.70781e-12
7.34253e-12
8.55732e-12
8.83261e-12
8.44487e-12
7.6358e-12
6.6483e-12
5.73409e-12
4.69411e-12
4.74421e-12
4.83895e-10
1.06417e-10
2.73785e-11
1.915e-11
2.57645e-11
3.38436e-11
3.96916e-11
4.18424e-11
4.12058e-11
3.85486e-11
3.48101e-11
3.08806e-11
2.59537e-11
2.46822e-11
7.50981e-10
2.05723e-10
7.4155e-11
7.30696e-11
1.04331e-10
1.37916e-10
1.62267e-10
1.74192e-10
1.75931e-10
1.69579e-10
1.58128e-10
1.4453e-10
1.26215e-10
1.17822e-10
5.99488e-12
1.28134e-12
3.21745e-13
1.30972e-13
1.03498e-13
1.19549e-13
1.57448e-13
1.95007e-13
2.21503e-13
2.13162e-13
1.57455e-13
9.02495e-14
4.35956e-14
1.10472e-13
6.33859e-12
1.46592e-12
3.01901e-13
5.73023e-14
1.25014e-14
7.37522e-15
1.05189e-14
1.55892e-14
2.08111e-14
2.30552e-14
1.87724e-14
1.13849e-14
1.221e-14
1.0462e-13
1.1265e-11
2.76732e-12
6.02672e-13
1.16214e-13
1.95161e-14
3.01861e-15
8.84895e-16
1.01115e-15
1.49517e-15
1.87622e-15
1.69141e-15
1.45534e-15
9.04171e-15
1.06231e-13
1.72212e-11
4.36143e-12
9.79857e-13
1.91998e-13
3.20029e-14
4.46054e-15
5.48447e-16
1.30064e-16
1.297e-16
1.61513e-16
1.65795e-16
4.98275e-16
7.35544e-15
9.4261e-14
2.31611e-11
5.85574e-12
1.30308e-12
2.50347e-13
4.05554e-14
5.4357e-15
6.08555e-16
8.46925e-17
4.4077e-17
4.4359e-17
5.32754e-17
3.45111e-16
5.90131e-15
7.94897e-14
2.85634e-11
6.9558e-12
1.4782e-12
2.69853e-13
4.14818e-14
5.28083e-15
5.67003e-16
7.98159e-17
4.13252e-17
3.87216e-17
4.4407e-17
2.55996e-16
4.52356e-15
6.46089e-14
3.49339e-11
8.09925e-12
1.62198e-12
2.77138e-13
3.97737e-14
4.75629e-15
5.21754e-16
1.10123e-16
7.05455e-17
5.8529e-17
5.49756e-17
2.11902e-16
3.55892e-15
5.27317e-14
4.2308e-11
9.30133e-12
1.75176e-12
2.79914e-13
3.77696e-14
4.6017e-15
9.01754e-16
5.24038e-16
4.10088e-16
3.06722e-16
2.19506e-16
2.83725e-16
2.7636e-15
4.10743e-14
4.9508e-11
1.03803e-11
1.85117e-12
2.79715e-13
3.77648e-14
7.55507e-15
4.74877e-15
4.2031e-15
3.504e-15
2.68726e-15
1.9235e-15
1.52757e-15
3.01675e-15
3.30216e-14
5.71762e-11
1.14836e-11
1.95783e-12
2.91973e-13
5.46487e-14
3.237e-14
3.31177e-14
3.15849e-14
2.73277e-14
2.18455e-14
1.64266e-14
1.27482e-14
1.07206e-14
3.18248e-14
6.28674e-11
1.21836e-11
2.03756e-12
3.58687e-13
1.68875e-13
1.87227e-13
2.102e-13
2.06535e-13
1.84798e-13
1.53738e-13
1.21213e-13
9.63382e-14
7.32625e-14
8.24161e-14
6.67366e-11
1.27441e-11
2.3081e-12
7.59002e-13
7.97345e-13
1.02119e-12
1.17124e-12
1.17726e-12
1.08534e-12
9.35691e-13
7.67993e-13
6.25721e-13
4.79919e-13
4.39446e-13
7.29033e-11
1.51208e-11
3.77238e-12
2.74329e-12
3.76711e-12
4.95765e-12
5.73451e-12
5.88249e-12
5.57705e-12
4.96957e-12
4.22712e-12
3.53451e-12
2.78264e-12
2.43663e-12
1.01901e-10
2.62368e-11
9.96675e-12
1.10317e-11
1.61398e-11
2.14154e-11
2.48752e-11
2.5948e-11
2.51851e-11
2.31005e-11
2.02697e-11
1.74062e-11
1.42054e-11
1.2321e-11
7.14478e-13
1.54604e-13
3.92563e-14
1.71086e-14
1.59242e-14
2.06274e-14
2.86906e-14
3.67807e-14
4.27093e-14
4.1887e-14
3.1571e-14
1.81873e-14
7.97523e-15
9.133e-15
9.56911e-13
2.20522e-13
4.54778e-14
8.7385e-15
2.07071e-15
1.44141e-15
2.1381e-15
3.19494e-15
4.26383e-15
4.74859e-15
3.94211e-15
2.40151e-15
1.42673e-15
7.68703e-15
1.77323e-12
4.30293e-13
9.28083e-14
1.78009e-14
3.01673e-15
5.12556e-16
2.03728e-16
2.51035e-16
3.58979e-16
4.4159e-16
4.02933e-16
2.84334e-16
6.99561e-16
8.07759e-15
2.78999e-12
6.96862e-13
1.54141e-13
2.98397e-14
4.97048e-15
7.25681e-16
1.20092e-16
5.51624e-17
5.72022e-17
6.46858e-17
6.44027e-17
7.40781e-17
5.42777e-16
7.41633e-15
3.80945e-12
9.4437e-13
2.05866e-13
3.89623e-14
6.29428e-15
8.77014e-16
1.28218e-16
4.4954e-17
3.81996e-17
3.8309e-17
3.87565e-17
5.40204e-17
4.46702e-16
6.48852e-15
4.67816e-12
1.11207e-12
2.31188e-13
4.16064e-14
6.38829e-15
8.4725e-16
1.20538e-16
4.3695e-17
3.73276e-17
3.68957e-17
3.71204e-17
4.85137e-17
3.50986e-16
5.39768e-15
5.58726e-12
1.25786e-12
2.46144e-13
4.1507e-14
5.96661e-15
7.47224e-16
1.09129e-16
4.57241e-17
3.98326e-17
3.85007e-17
3.79238e-17
4.63853e-17
2.84102e-16
4.49343e-15
6.55791e-12
1.3944e-12
2.56498e-13
4.04934e-14
5.47857e-15
6.86512e-16
1.42232e-16
8.56745e-17
7.1451e-17
6.00667e-17
5.09802e-17
5.25439e-17
2.28171e-16
3.54168e-15
7.44041e-12
1.50485e-12
2.61922e-13
3.90597e-14
5.22361e-15
9.70307e-16
5.46246e-16
4.64424e-16
3.79548e-16
2.85958e-16
2.03048e-16
1.56822e-16
2.51616e-16
2.81403e-15
8.28115e-12
1.6031e-12
2.66652e-13
3.90281e-14
6.92838e-15
3.7383e-15
3.66991e-15
3.39639e-15
2.84482e-15
2.1797e-15
1.56029e-15
1.14935e-15
8.96585e-16
2.57803e-15
8.77953e-12
1.63876e-12
2.66653e-13
4.53746e-14
2.02469e-14
2.18938e-14
2.40275e-14
2.29371e-14
1.98173e-14
1.57543e-14
1.17809e-14
8.86806e-15
6.35604e-15
6.54121e-15
8.91399e-12
1.63545e-12
2.86436e-13
9.24902e-14
9.76926e-14
1.24299e-13
1.3984e-13
1.3655e-13
1.2138e-13
9.99352e-14
7.77807e-14
5.99867e-14
4.34283e-14
3.65643e-14
9.14112e-12
1.80063e-12
4.44285e-13
3.43941e-13
4.82572e-13
6.32844e-13
7.18987e-13
7.16155e-13
6.53678e-13
5.55746e-13
4.47807e-13
3.53733e-13
2.62407e-13
2.12994e-13
1.16149e-11
2.87271e-12
1.18491e-12
1.45913e-12
2.17606e-12
2.88028e-12
3.288e-12
3.32721e-12
3.10442e-12
2.71464e-12
2.25407e-12
1.82458e-12
1.39822e-12
1.12806e-12
8.02874e-14
1.76335e-14
4.64541e-15
2.29507e-15
2.45976e-15
3.41156e-15
4.87115e-15
6.38472e-15
7.50696e-15
7.45526e-15
5.69732e-15
3.32062e-15
1.45506e-15
9.37372e-16
1.30549e-13
2.97373e-14
6.09588e-15
1.19655e-15
3.31017e-16
2.77313e-16
4.14405e-16
6.1112e-16
8.06468e-16
8.96345e-16
7.54342e-16
4.74042e-16
2.43029e-16
6.12351e-16
2.49816e-13
5.96123e-14
1.26453e-14
2.40856e-15
4.29863e-16
1.01986e-16
6.54497e-17
7.75063e-17
9.8491e-17
1.14088e-16
1.06679e-16
8.1819e-17
9.10998e-17
6.46158e-16
4.02942e-13
9.85963e-14
2.13065e-14
4.05657e-15
6.89949e-16
1.27088e-16
4.79413e-17
3.9821e-17
4.06391e-17
4.21464e-17
4.20378e-17
4.12476e-17
7.16943e-17
6.17698e-16
5.54174e-13
1.33905e-13
2.84096e-14
5.27001e-15
8.61761e-16
1.46207e-16
4.85977e-17
3.77715e-17
3.68995e-17
3.69467e-17
3.69833e-17
3.78328e-17
6.5447e-17
5.65648e-16
6.72395e-13
1.55327e-13
3.14171e-14
5.54717e-15
8.63411e-16
1.40811e-16
4.73738e-17
3.75519e-17
3.67142e-17
3.6659e-17
3.6671e-17
3.74042e-17
5.93362e-17
4.89701e-16
7.79594e-13
1.70023e-13
3.23795e-14
5.3673e-15
7.86624e-16
1.25167e-16
4.54738e-17
3.76485e-17
3.69261e-17
3.67899e-17
3.67316e-17
3.7286e-17
5.49743e-17
4.22081e-16
8.81621e-13
1.81067e-13
3.24243e-14
5.04005e-15
6.99047e-16
1.13393e-16
4.78012e-17
4.10951e-17
3.95665e-17
3.84852e-17
3.76965e-17
3.77093e-17
5.10456e-17
3.43642e-16
9.63525e-13
1.87772e-13
3.1803e-14
4.67061e-15
6.38875e-16
1.37232e-16
8.61739e-17
7.6032e-17
6.66574e-17
5.70023e-17
4.90701e-17
4.47138e-17
5.21176e-17
2.77357e-16
1.0278e-12
1.91514e-13
3.09995e-14
4.45936e-15
7.88475e-16
4.18562e-16
3.9911e-16
3.61695e-16
2.98522e-16