/*--------------------------------*- C++ -*----------------------------------*\
| =========                 |                                                 |
| \\      /  F ield         | OpenFOAM: The Open Source CFD Toolbox           |
|  \\    /   O peration     | Version:  v2106                                 |
|   \\  /    A nd           | Website:  www.openfoam.com                      |
|    \\/     M anipulation  |                                                 |
\*---------------------------------------------------------------------------*/
FoamFile
{
    version     2.0;
    format      ascii;
    arch        "LSB;label=32;scalar=64";
    class       volVectorField;
    location    "0.00016";
    object      U;
}
// * * * * * * * * * * * * * * * * * * * * * * * * * * * * * * * * * * * * * //

dimensions      [0 1 -1 0 0 0 0];

internalField   nonuniform List<vector> 
18109
(
(-11.4688 -1.96037 -54.7424)
(-12.4712 -0.0298879 -53.7918)
(-12.1196 2.54377 -52.4148)
(-12.431 4.82838 -51.2713)
(-12.0446 6.35524 -50.2046)
(-11.5765 7.35487 -49.5761)
(-10.9297 7.81957 -49.1768)
(-8.5019 -3.65941 -55.1622)
(-10.319 -1.55915 -54.3288)
(-10.7059 0.974732 -52.9437)
(-11.4206 3.10062 -51.984)
(-11.4237 4.46774 -50.9886)
(-11.3608 5.31047 -50.3436)
(-11.0661 5.67733 -49.8346)
(-6.03243 -4.69445 -55.1834)
(-8.1649 -2.42613 -54.4444)
(-9.22696 -0.0513438 -53.3442)
(-10.1874 1.7389 -52.5598)
(-10.6213 2.86244 -51.7119)
(-10.8828 3.51675 -51.0882)
(-10.9137 3.82918 -50.5747)
(-4.14032 -5.0674 -55.2755)
(-6.40187 -2.90988 -54.5926)
(-7.92957 -0.932659 -53.7565)
(-9.0999 0.497889 -53.0493)
(-9.83576 1.41685 -52.3162)
(-10.3849 1.88463 -51.6965)
(-10.6997 2.15112 -51.1415)
(-2.70676 -5.06274 -55.2923)
(-5.00285 -3.22028 -54.747)
(-6.74078 -1.62436 -54.114)
(-8.10837 -0.543872 -53.4726)
(-9.10739 0.157528 -52.8229)
(-9.89876 0.459206 -52.1931)
(-10.4938 0.666268 -51.6205)
(-1.54127 -4.92475 -55.3745)
(-3.87104 -3.42673 -54.9324)
(-5.75656 -2.20846 -54.4061)
(-7.30693 -1.45018 -53.8114)
(-8.52645 -0.956686 -53.2147)
(-9.51482 -0.786848 -52.58)
(-10.3416 -0.644225 -52.0059)
(-0.552044 -4.63797 -55.4282)
(-2.97475 -3.5633 -55.0369)
(-5.01193 -2.68106 -54.6146)
(-6.70146 -2.19136 -54.0472)
(-8.11341 -1.9115 -53.5289)
(-9.26646 -1.87009 -52.9043)
(-10.279 -1.79924 -52.3589)
(0.193428 -4.26425 -55.3603)
(-2.33434 -3.5441 -55.1177)
(-4.51566 -3.0108 -54.7548)
(-6.33276 -2.81641 -54.2087)
(-7.88792 -2.74848 -53.7307)
(-9.16306 -2.84433 -53.1081)
(-10.2947 -2.86859 -52.5675)
(-7.87819 -2.10545 -48.9421)
(-9.08381 -0.388554 -48.2397)
(-9.05929 1.8816 -46.9765)
(-9.62098 3.82292 -45.9258)
(-9.59848 5.10059 -44.8692)
(-9.48526 5.97452 -44.1925)
(-9.194 6.46791 -43.6587)
(-8.96293 6.65156 -43.0954)
(-8.6404 6.53794 -42.6031)
(-8.30915 6.05962 -42.2548)
(-8.07793 5.23035 -42.0836)
(-8.13555 4.10063 -42.0572)
(-8.22374 2.76178 -42)
(-9.13419 1.61962 -41.8557)
(-5.52809 -3.51113 -49.1867)
(-7.29869 -1.64995 -48.5175)
(-7.93306 0.531338 -47.2995)
(-8.74613 2.33966 -46.4123)
(-9.04878 3.46527 -45.4236)
(-9.28582 4.17801 -44.7356)
(-9.2812 4.5836 -44.148)
(-9.28314 4.70864 -43.6107)
(-9.20602 4.56547 -43.1109)
(-9.21076 4.06888 -42.6726)
(-9.21439 3.25221 -42.3418)
(-9.53633 2.22218 -42.0899)
(-9.83378 1.02274 -41.9087)
(-10.8488 0.0524128 -41.7013)
(-3.5856 -4.29832 -49.0982)
(-5.56323 -2.41252 -48.4783)
(-6.72448 -0.425325 -47.5321)
(-7.74075 1.09384 -46.7943)
(-8.34877 2.0452 -45.9471)
(-8.84587 2.59588 -45.2961)
(-9.13094 2.93149 -44.7122)
(-9.43733 3.0057 -44.1747)
(-9.66791 2.80628 -43.6045)
(-10.0173 2.3701 -43.0688)
(-10.3764 1.6216 -42.5571)
(-10.9553 0.710664 -42.0641)
(-11.5688 -0.267215 -41.5533)
(-12.7125 -0.929836 -41.179)
(-2.09208 -4.68591 -49.0828)
(-4.17409 -2.95465 -48.5141)
(-5.66321 -1.28211 -47.7818)
(-6.86022 -0.0587834 -47.126)
(-7.70346 0.733225 -46.3918)
(-8.4167 1.13935 -45.7515)
(-8.9421 1.41949 -45.1485)
(-9.4603 1.47327 -44.5801)
(-9.94561 1.29447 -43.9675)
(-10.512 0.873828 -43.3493)
(-11.1773 0.18135 -42.7685)
(-12.0369 -0.587227 -42.2078)
(-12.9408 -1.39514 -41.5801)
(-14.1878 -1.946 -41.0922)
(-0.935535 -4.84707 -49.0969)
(-3.05709 -3.35607 -48.6139)
(-4.70635 -1.98344 -48.0299)
(-6.07573 -1.07053 -47.4156)
(-7.1279 -0.449096 -46.7659)
(-8.02563 -0.166051 -46.1258)
(-8.77149 0.0626393 -45.5225)
(-9.46615 0.104517 -44.9123)
(-10.1506 -0.0406644 -44.2861)
(-10.8893 -0.366241 -43.6026)
(-11.7716 -0.923147 -42.9706)
(-12.8039 -1.59792 -42.3729)
(-13.908 -2.26596 -41.6694)
(-15.2836 -2.73233 -41.1147)
(0.0031441 -4.85106 -49.1477)
(-2.15612 -3.67909 -48.7316)
(-3.93535 -2.61763 -48.2341)
(-5.44143 -1.96739 -47.6535)
(-6.67443 -1.51566 -47.0578)
(-7.731 -1.33679 -46.411)
(-8.66612 -1.16028 -45.8113)
(-9.51187 -1.12735 -45.1557)
(-10.3698 -1.23417 -44.5418)
(-11.2505 -1.45564 -43.8428)
(-12.2685 -1.87507 -43.198)
(-13.4336 -2.40596 -42.5766)
(-14.6944 -2.89982 -41.8294)
(-16.2058 -3.28112 -41.2384)
(0.751366 -4.82804 -49.1679)
(-1.45885 -3.94331 -48.7852)
(-3.35323 -3.15045 -48.3658)
(-4.97187 -2.74857 -47.8075)
(-6.35857 -2.46193 -47.2861)
(-7.54617 -2.38132 -46.6543)
(-8.62809 -2.25903 -46.0841)
(-9.59338 -2.23266 -45.4031)
(-10.5815 -2.30632 -44.789)
(-11.5671 -2.43991 -44.0718)
(-12.6667 -2.73661 -43.4073)
(-13.8762 -3.13408 -42.7225)
(-15.2355 -3.44396 -41.9505)
(-16.8468 -3.75372 -41.2744)
(1.31876 -4.77174 -49.1096)
(-0.98895 -4.08371 -48.8115)
(-2.9983 -3.62751 -48.4212)
(-4.70476 -3.45143 -47.9075)
(-6.19942 -3.32599 -47.4304)
(-7.47459 -3.35106 -46.8065)
(-8.64389 -3.29772 -46.2443)
(-9.67469 -3.28361 -45.546)
(-10.727 -3.33321 -44.9392)
(-11.7566 -3.40908 -44.2404)
(-12.8689 -3.61414 -43.5888)
(-14.0809 -3.85085 -42.8574)
(-15.5327 -3.92049 -42.1125)
(-17.2409 -3.99404 -41.3296)
(1.59629 -4.48334 -49.1127)
(-0.80283 -4.16777 -48.8707)
(-2.87548 -4.08204 -48.513)
(-4.6406 -4.09945 -48.0884)
(-6.18246 -4.13157 -47.6186)
(-7.50585 -4.27224 -47.0277)
(-8.71385 -4.30229 -46.4764)
(-9.77394 -4.31797 -45.7832)
(-10.8293 -4.36418 -45.159)
(-11.8496 -4.41438 -44.4699)
(-12.9224 -4.54151 -43.7928)
(-14.0995 -4.58305 -42.9999)
(-15.6058 -4.37813 -42.3445)
(-17.3989 -4.1551 -41.5538)
(1.41952 -4.18985 -49.3171)
(-1.05323 -4.22768 -49.0835)
(-3.10493 -4.56764 -48.6288)
(-4.85131 -4.80546 -48.1881)
(-6.35692 -4.98627 -47.6431)
(-7.6538 -5.24782 -47.0995)
(-8.83145 -5.3645 -46.5658)
(-9.86227 -5.43064 -45.9052)
(-10.8615 -5.48893 -45.29)
(-11.8219 -5.53386 -44.6361)
(-12.8181 -5.57273 -43.9501)
(-13.95 -5.38833 -43.1804)
(-15.4323 -4.86616 -42.6481)
(-17.263 -4.31811 -41.9641)
(0.590491 -3.91315 -49.762)
(-1.95859 -4.31832 -49.5413)
(-3.88862 -5.06436 -48.9687)
(-5.55024 -5.55718 -48.4824)
(-6.90002 -5.93803 -47.8413)
(-8.068 -6.32535 -47.335)
(-9.11608 -6.53341 -46.7578)
(-10.0398 -6.66979 -46.1028)
(-10.9075 -6.75711 -45.4466)
(-11.7625 -6.80589 -44.805)
(-12.65 -6.7489 -44.1135)
(-13.7343 -6.34489 -43.4753)
(-15.0749 -5.45814 -43.0921)
(-16.8439 -4.54304 -42.6191)
(-0.97994 -3.77563 -50.3273)
(-3.56295 -4.71547 -50.1021)
(-5.34048 -5.82028 -49.3865)
(-6.78566 -6.60602 -48.6963)
(-7.81103 -7.21718 -47.9149)
(-8.74259 -7.69207 -47.3869)
(-9.53751 -7.9587 -46.7777)
(-10.2643 -8.15101 -46.2028)
(-10.9382 -8.23915 -45.5845)
(-11.6344 -8.26676 -44.9693)
(-12.3945 -8.10237 -44.304)
(-13.3747 -7.51 -43.8031)
(-14.4953 -6.38682 -43.5247)
(-16.0936 -5.24019 -43.3464)
(-2.86849 -3.36901 -50.9579)
(-5.58927 -4.96574 -50.8025)
(-7.24769 -6.77508 -49.9558)
(-8.47093 -8.014 -49.0819)
(-9.19553 -8.82777 -48.1977)
(-9.83956 -9.34729 -47.5084)
(-10.302 -9.67028 -46.8102)
(-10.7324 -9.91461 -46.2014)
(-11.1186 -10.0029 -45.5652)
(-11.556 -9.99042 -44.9488)
(-12.0857 -9.72919 -44.3464)
(-12.8318 -8.95279 -44.0916)
(-13.4926 -7.52285 -43.989)
(-14.7947 -6.09491 -43.9799)
(-4.46405 -3.23267 -51.5809)
(-7.35643 -5.98294 -51.2991)
(-9.11772 -8.18684 -50.3198)
(-10.2831 -9.82195 -49.3822)
(-10.7784 -10.8698 -48.3215)
(-11.0348 -11.4908 -47.4388)
(-11.0819 -11.843 -46.7265)
(-11.184 -12.0651 -46.1726)
(-11.3042 -12.095 -45.6346)
(-11.5746 -12.0334 -45.0846)
(-11.8678 -11.707 -44.453)
(-12.5382 -10.9531 -44.1257)
(-12.8491 -9.532 -44.059)
(-13.8656 -8.21356 -44.0697)
(-13.8327 -0.20325 -54.6827)
(-14.9333 -0.968879 -54.4082)
(-16.5284 0.0756847 -54.5168)
(-19.4082 0.579416 -54.5653)
(-22.7303 2.73584 -55.4812)
(-27.7255 6.35091 -55.4674)
(-9.72577 -0.739115 -48.9058)
(-10.5249 -1.45735 -48.8287)
(-11.8131 -0.718013 -49.1055)
(-14.0933 -0.632971 -49.4566)
(-16.7816 0.901493 -50.2934)
(-21.2205 3.17467 -50.0972)
(-10.0634 1.31801 -48.0383)
(-11.4112 1.15864 -47.8597)
(-12.6861 2.51873 -47.8193)
(-15.1255 2.96918 -47.6991)
(-17.9379 4.95429 -47.99)
(-23.0822 7.04901 -47.6962)
(-9.7396 3.51672 -46.6713)
(-11.2663 3.83044 -46.2579)
(-12.5943 5.47357 -45.9158)
(-15.2423 6.43959 -45.5402)
(-18.4721 8.8056 -45.4329)
(-24.1301 11.2013 -44.8373)
(-9.83543 5.56328 -45.4947)
(-11.2533 6.3634 -44.8271)
(-12.5394 8.20585 -44.2535)
(-15.0907 9.60103 -43.4858)
(-18.2565 12.3127 -42.8656)
(-23.8 15.3228 -41.9423)
(-9.74452 7.01235 -44.4099)
(-10.9098 8.39772 -43.4816)
(-11.7862 10.5946 -42.8631)
(-13.9569 12.5412 -41.919)
(-16.5811 15.4907 -40.7767)
(-21.9542 18.9388 -39.4566)
(-9.49506 8.00303 -43.5729)
(-10.1207 9.94153 -42.4606)
(-10.7768 12.4291 -41.6272)
(-12.4011 14.7937 -40.4013)
(-14.4256 17.8989 -38.6157)
(-19.5255 21.6649 -37.2081)
(-9.04768 8.55274 -42.7672)
(-9.1862 10.9336 -41.7594)
(-9.36547 13.6203 -40.8202)
(-10.3735 16.3467 -39.4477)
(-11.4409 19.7885 -37.4449)
(-15.955 23.9911 -36.3041)
(-8.58524 8.77689 -42.1432)
(-8.01948 11.3231 -41.3955)
(-7.86414 14.2031 -40.3847)
(-8.0723 17.2808 -38.9769)
(-8.36183 21.1455 -37.382)
(-12.1025 25.2175 -35.8167)
(-8.07114 8.73069 -41.8303)
(-6.9134 11.1904 -41.4015)
(-6.26931 14.0932 -40.4859)
(-5.63792 17.3526 -39.3896)
(-5.35932 21.1758 -38.3878)
(-8.07179 24.6406 -35.9853)
(-7.59054 8.31116 -41.8317)
(-6.00825 10.4867 -41.6056)
(-4.94406 13.2295 -40.8897)
(-3.5452 16.2086 -40.2529)
(-2.82091 19.6273 -39.7433)
(-4.33521 22.1725 -36.8077)
(-7.39399 7.39802 -42.0254)
(-5.56917 9.10353 -41.9102)
(-4.01965 11.5616 -41.4401)
(-2.19346 13.9751 -41.2368)
(-1.32583 16.24 -40.8593)
(-2.5422 17.7295 -38.8196)
(-7.30907 6.05376 -42.2885)
(-5.40395 7.17058 -42.2321)
(-3.68993 9.02892 -41.9896)
(-2.20659 10.5852 -41.9367)
(-1.58803 11.3565 -41.8142)
(-2.2744 11.8532 -41.0012)
(-7.37209 4.28075 -42.3314)
(-5.70236 4.71845 -42.4424)
(-4.09704 5.71975 -42.444)
(-2.88947 6.12662 -42.4239)
(-2.47297 6.02249 -42.5319)
(-2.7971 5.4953 -42.3572)
(-7.80122 2.28474 -42.5753)
(-6.64398 2.02666 -42.5557)
(-5.45718 2.06014 -42.6816)
(-4.48919 1.49771 -42.5586)
(-4.13362 0.854987 -42.9337)
(-4.84986 -0.565396 -42.9219)
(-9.54684 0.499382 -41.7802)
(-8.86842 0.00720154 -41.7649)
(-8.72799 -0.690652 -42.1572)
(-8.0124 -1.63041 -42.116)
(-8.02544 -3.18145 -42.4402)
(-8.51086 -5.94741 -42.1185)
(-11.5404 -0.708902 -41.5654)
(-11.2373 -1.66696 -41.4342)
(-11.8314 -2.71631 -41.4298)
(-11.5157 -4.21529 -41.061)
(-11.9777 -6.42223 -40.9079)
(-12.7533 -10.1519 -40.597)
(-13.598 -1.48193 -40.7332)
(-13.6067 -2.7241 -40.3733)
(-14.5059 -4.17656 -40.0183)
(-14.8251 -6.27562 -39.4968)
(-15.7535 -9.14259 -39.2384)
(-16.7055 -13.8286 -38.5224)
(-15.3129 -2.42525 -40.3737)
(-15.7947 -3.79914 -39.6841)
(-16.9854 -5.37106 -38.9141)
(-17.8933 -7.78348 -37.9763)
(-19.3588 -11.1379 -37.3395)
(-20.8233 -16.4295 -36.0933)
(-16.5582 -3.19684 -40.1368)
(-17.7162 -4.53884 -39.2303)
(-19.5069 -5.87328 -38.1916)
(-21.1512 -8.10919 -36.9111)
(-23.2253 -11.3739 -35.6469)
(-25.45 -16.9436 -34.0023)
(-17.6592 -3.61707 -40.0338)
(-19.4772 -4.41451 -38.822)
(-21.7459 -5.33162 -37.5472)
(-24.0495 -7.27819 -36.0511)
(-26.5868 -10.4051 -34.1202)
(-29.2903 -16.2127 -32.053)
(-18.5848 -3.81801 -39.9677)
(-20.9336 -4.01459 -38.7041)
(-23.5415 -4.57672 -37.2333)
(-26.3638 -5.97317 -35.6244)
(-29.3875 -8.60356 -33.4796)
(-33.0467 -14.1156 -31.4139)
(-19.3059 -3.76222 -40.1995)
(-21.8665 -3.44037 -39.0583)
(-24.7134 -3.59547 -37.6628)
(-27.9806 -4.31489 -36.1958)
(-31.5405 -6.24386 -34.1944)
(-35.5696 -11.2634 -31.6257)
(-19.6808 -3.68426 -40.7157)
(-22.1778 -2.89417 -39.6851)
(-25.055 -2.53436 -38.466)
(-28.5057 -2.52355 -37.4081)
(-32.1947 -3.49887 -35.7224)
(-35.6606 -7.74351 -32.8437)
(-19.5323 -3.70093 -41.4387)
(-21.7717 -2.56291 -40.4922)
(-24.5326 -1.77883 -39.617)
(-27.5068 -1.06186 -38.9761)
(-30.5316 -1.28056 -37.712)
(-32.9152 -4.81669 -34.9944)
(-18.9712 -3.94783 -42.2912)
(-20.6216 -2.68094 -41.4144)
(-22.824 -1.72478 -40.9094)
(-24.908 -0.699041 -40.6658)
(-26.5505 -0.366063 -39.6824)
(-27.6119 -3.31452 -38.1034)
(-17.8672 -4.58343 -43.0792)
(-18.6502 -3.26834 -42.4157)
(-20.0206 -2.22667 -42.2868)
(-20.7093 -1.42829 -42.1511)
(-21.069 -1.52422 -41.8493)
(-20.4999 -3.3362 -41.3882)
(-15.993 -5.16573 -43.7619)
(-15.9107 -4.22125 -43.4759)
(-16.1706 -3.57922 -43.492)
(-15.775 -3.17219 -43.5756)
(-14.8516 -3.3837 -43.612)
(-12.6417 -5.26971 -43.4704)
(-13.8455 -7.0064 -44.1147)
(-12.9859 -6.45529 -44.0322)
(-12.2514 -6.27115 -44.4284)
(-10.9855 -6.22374 -44.4334)
(-9.14794 -7.3309 -44.8544)
(-5.53362 -9.68461 -45.0255)
(-12.5513 -9.60554 -44.3435)
(-11.1836 -9.41152 -44.3481)
(-9.79005 -10.2559 -44.7062)
(-7.42451 -10.3343 -44.7264)
(-4.10446 -11.6534 -45.1867)
(1.24788 -14.0179 -45.2394)
(-12.0866 -11.1838 -44.2419)
(-10.3532 -11.8937 -44.2422)
(-8.54278 -13.5074 -44.2604)
(-5.35019 -14.4508 -44.0951)
(-0.937919 -16.5553 -44.2889)
(6.23351 -18.9534 -44.2217)
(-11.7297 -12.742 -44.2236)
(-9.87937 -14.23 -44.1301)
(-7.66385 -16.4982 -43.9404)
(-3.86364 -18.3576 -43.6416)
(1.29131 -21.3982 -43.3539)
(9.62925 -24.5057 -42.877)
(-11.4301 -13.8475 -44.379)
(-9.74436 -16.075 -44.1521)
(-7.50639 -18.9972 -43.6985)
(-3.60654 -21.9217 -43.1171)
(2.13386 -25.7371 -42.4428)
(11.5029 -29.9398 -41.3098)
(-11.2553 -14.3988 -44.6666)
(-10.2468 -17.4575 -44.3431)
(-8.2238 -20.9781 -43.8507)
(-4.72395 -24.9375 -43.0579)
(1.07216 -29.5099 -42.1111)
(10.3812 -35.0255 -39.9313)
(-11.503 -14.6772 -45.1188)
(-11.2649 -18.2504 -44.8496)
(-9.63712 -22.2653 -44.4485)
(-7.01842 -27.1521 -43.3788)
(-1.47324 -32.2493 -42.1669)
(8.43614 -37.7195 -38.9839)
(-12.0005 -14.7708 -45.6301)
(-12.4614 -18.5458 -45.6224)
(-11.4838 -22.947 -45.4377)
(-9.95767 -28.3353 -44.2742)
(-4.65169 -33.4134 -42.7697)
(6.28076 -37.7161 -39.2634)
(-12.3601 -14.5962 -46.456)
(-13.55 -18.2144 -46.7408)
(-13.4738 -22.5605 -46.786)
(-12.9258 -27.5599 -45.7961)
(-7.86207 -31.6233 -44.5673)
(3.73409 -34.1926 -40.6973)
(-12.6078 -14.2048 -47.5045)
(-14.3791 -17.279 -47.9602)
(-14.9372 -20.9157 -48.3471)
(-14.707 -24.6574 -47.784)
(-9.93497 -27.2438 -47.1039)
(1.79658 -27.6766 -43.026)
(-12.4334 -13.3156 -48.6651)
(-14.2858 -15.4288 -49.2364)
(-15.145 -17.8092 -49.9753)
(-14.8724 -19.8244 -49.9804)
(-10.8684 -20.4029 -49.6492)
(0.305552 -19.4328 -45.9778)
(-11.6853 -11.831 -49.9673)
(-13.5294 -12.5286 -50.5688)
(-14.0943 -13.4019 -51.2212)
(-13.4295 -13.5857 -51.8545)
(-10.2441 -12.4271 -51.7287)
(-0.672434 -10.469 -49.3147)
(-10.3247 -9.24201 -50.9311)
(-11.2442 -8.85056 -51.5266)
(-11.5581 -8.29019 -52.3896)
(-10.9997 -6.92876 -52.8562)
(-7.63785 -4.62473 -53.2622)
(0.910805 -1.39548 -51.8717)
(-8.68229 -5.66841 -51.9386)
(-9.27806 -4.21058 -52.2281)
(-9.16072 -2.87423 -53.2681)
(-7.48941 -0.95391 -53.9619)
(-4.47957 2.5897 -54.4324)
(2.98943 6.72093 -53.9499)
(-5.67439 -2.08413 -51.9762)
(-5.71081 -0.407279 -52.1132)
(-4.3606 1.13268 -53.0356)
(-2.18883 3.87457 -53.6447)
(1.10572 8.02098 -54.4259)
(7.39552 13.3772 -55.1971)
(-2.0992 -7.31901 -56.473)
(-0.948494 -9.54788 -57.6679)
(-0.0507766 -10.1716 -58.4719)
(-0.103286 -9.46519 -58.9731)
(-1.68771 -4.71758 -58.615)
(-4.31802 7.91764 -54.4425)
(-5.0565 -6.59622 -56.7621)
(-5.07857 -8.27002 -57.7449)
(-5.66689 -8.8542 -58.6229)
(-6.78128 -7.98834 -59.2838)
(-9.0032 -3.92528 -59.5459)
(-11.983 6.25301 -57.6112)
(-8.79754 -5.43964 -56.6315)
(-9.80243 -6.96273 -57.4151)
(-11.1864 -7.54347 -58.1876)
(-12.7127 -6.28621 -58.7703)
(-15.2095 -3.04086 -59.1593)
(-18.3995 4.61287 -58.3097)
(-12.3512 -3.30619 -56.0018)
(-13.5914 -4.25437 -56.2552)
(-15.1161 -4.0684 -56.7077)
(-17.036 -2.82334 -57.2736)
(-19.6638 0.0117339 -57.9592)
(-23.3971 5.6265 -57.9493)
(-1.49559 -1.53289 -52.1056)
(-1.48939 0.597051 -51.7579)
(0.311338 3.03731 -52.3383)
(2.07324 7.19007 -52.7135)
(5.05177 12.5131 -53.8376)
(10.1343 19.4942 -54.6593)
(-0.0970152 -2.49607 -50.9032)
(1.3106 -0.115637 -50.991)
(3.8423 2.38087 -51.349)
(6.19965 6.85876 -51.5616)
(10.0099 12.674 -52.5572)
(14.9235 21.2925 -52.6651)
(1.87871 -3.03334 -50.3098)
(3.83257 -0.636227 -50.2764)
(7.12606 1.7629 -50.5471)
(9.94487 6.58925 -50.4967)
(14.7285 12.4538 -51.1246)
(19.788 21.9106 -50.7838)
(3.35776 -3.72152 -49.7135)
(5.95534 -1.72114 -49.7525)
(9.66098 0.524965 -49.8943)
(13.155 5.02518 -49.6705)
(18.4994 10.7985 -49.8591)
(24.1639 20.6717 -48.8896)
(4.27192 -4.20669 -49.4012)
(7.45797 -2.92819 -49.4058)
(11.421 -1.08974 -49.4013)
(15.6228 2.61994 -49.2543)
(21.3586 7.73686 -48.856)
(27.4144 17.5052 -47.4175)
(4.47248 -4.82189 -49.247)
(8.02735 -4.34669 -49.2879)
(12.2211 -3.12481 -49.3165)
(17.0643 -0.531379 -49.086)
(23.2903 3.83954 -48.1381)
(28.8982 14.1708 -45.9034)
(4.17298 -5.47442 -49.2392)
(7.82826 -5.84247 -49.3608)
(12.2341 -5.40051 -49.6329)
(17.5612 -4.17556 -49.4806)
(23.6521 -0.282594 -48.1532)
(27.5712 10.711 -45.3152)
(3.4876 -5.99047 -49.2077)
(6.97762 -7.25012 -49.699)
(11.2746 -7.74795 -50.23)
(16.2907 -7.74011 -50.232)
(21.2283 -3.8372 -48.9498)
(23.2102 7.77192 -45.2052)
(2.59907 -6.40192 -49.3415)
(5.61207 -8.2502 -50.1981)
(9.31196 -9.54371 -51.0352)
(13.385 -10.2404 -51.2296)
(16.5673 -6.53756 -50.4368)
(17.0295 4.6772 -46.434)
(1.47885 -6.59767 -49.6376)
(3.85059 -8.94492 -50.7684)
(6.51056 -10.7215 -51.7784)
(9.02771 -10.9871 -52.2124)
(10.2594 -7.76331 -52.0443)
(9.80807 1.8898 -48.2224)
(-0.0523362 -6.47651 -50.08)
(1.39697 -8.70245 -51.3143)
(2.78767 -10.1212 -52.3088)
(3.58761 -10.0568 -52.9539)
(3.45003 -7.96118 -53.0505)
(2.47247 -0.00591624 -50.5512)
(-2.25808 -5.82556 -50.4574)
(-1.9638 -7.6708 -51.5571)
(-1.62811 -8.71128 -52.461)
(-2.18094 -8.79021 -53.2245)
(-3.01367 -6.89919 -53.5638)
(-4.81642 -0.519229 -52.492)
(-5.33203 -5.03699 -50.591)
(-5.87393 -6.53606 -51.3959)
(-6.43109 -7.38356 -52.3464)
(-7.63919 -7.45947 -52.7733)
(-8.94469 -5.85522 -53.3531)
(-11.6413 -1.17958 -52.9317)
(-8.38651 -3.23217 -50.1736)
(-9.16593 -4.14257 -50.7091)
(-10.3073 -4.44237 -51.2707)
(-11.8176 -4.26954 -51.5952)
(-13.649 -2.7308 -52.1613)
(-17.2908 0.46541 -52.163)
(-33.9017 15.1404 -50.414)
(-58.9748 35.2431 -47.5305)
(-88.1208 62.5721 -38.3525)
(-122.155 86.2539 -5.69575)
(-162.426 110.476 36.5734)
(-36.9658 17.3192 -47.5785)
(-64.2416 32.3733 -44.6411)
(-96.5676 53.6409 -31.7523)
(-133.572 71.5435 5.54548)
(-179.41 95.215 41.5083)
(-38.6853 20.77 -44.5594)
(-67.7352 32.4407 -39.0556)
(-102.433 49.3426 -18.6309)
(-145.418 57.8862 16.5141)
(-191.812 75.713 40.3577)
(-39.1588 23.7158 -40.379)
(-69.367 33.9996 -30.4144)
(-109.57 44.6921 -4.07509)
(-161.823 49.5011 26.5814)
(-209.734 57.5198 45.4447)
(-38.1192 26.8632 -35.7276)
(-69.5944 34.5501 -19.7412)
(-116.276 39.5047 10.143)
(-175.55 44.1609 39.3189)
(-228.576 48.2894 53.6808)
(-35.6464 28.7762 -30.6095)
(-68.8121 32.6782 -9.99672)
(-120.465 34.0759 20.4199)
(-184.947 36.4332 47.7419)
(-239.742 38.8103 63.0691)
(-31.6493 30.0452 -26.5802)
(-66.2937 31.3148 -3.60838)
(-121.02 28.4788 26.4419)
(-186.799 26.3027 54.6078)
(-239.404 23.395 72.3453)
(-27.1943 28.3416 -24.2313)
(-61.8665 26.0756 -1.69164)
(-118.043 17.5879 25.7799)
(-186.522 7.08972 53.8006)
(-244.307 -1.41461 71.6527)
(-272.989 -0.418228 69.7962)
(-22.8541 25.7832 -24.4438)
(-57.749 18.7067 -2.51804)
(-115.307 4.52673 24.0333)
(-185.342 -14.6873 55.2665)
(-246.529 -26.601 81.1934)
(-282.993 -27.5866 85.8618)
(-18.9645 21.0512 -27.1764)
(-52.3119 10.303 -7.66239)
(-108.54 -8.05285 14.9665)
(-176.543 -32.4305 44.6474)
(-235.148 -47.3461 80.2847)
(-272.86 -50.5694 100.01)
(-15.7862 14.0053 -31.8319)
(-47.2616 0.607205 -16.473)
(-99.6111 -20.8559 0.689803)
(-161.76 -46.2392 28.2628)
(-212.828 -63.6701 73.1146)
(-248.869 -69.6962 108.268)
(-271.549 -59.0486 109.914)
(-13.2594 5.73661 -36.7559)
(-41.2081 -7.59909 -27.0719)
(-83.9338 -30.3726 -13.9763)
(-137.937 -54.9092 9.61897)
(-180.997 -76.5617 57.3009)
(-212.827 -87.8311 101.205)
(-234.212 -85.9635 116.857)
(-240.701 -54.8683 105.511)
(-11.8456 -2.22564 -40.5031)
(-35.4071 -16.9661 -35.8355)
(-68.2067 -41.4963 -25.5156)
(-112.765 -68.743 -7.11328)
(-149.728 -94.486 35.0545)
(-172.194 -107.777 77.1639)
(-173.767 -106.353 103.512)
(-180.334 -57.4111 114.346)
(-12.2539 -9.70577 -42.3263)
(-30.4859 -27.0531 -40.7982)
(-55.8894 -52.5421 -33.1822)
(-89.0162 -85.092 -16.9519)
(-119.122 -117.207 21.5427)
(-147.546 -149.558 56.942)
(-163.95 -159.75 73.3608)
(-148.714 -168.071 84.6968)
(-14.9547 -16.2144 -42.4641)
(-28.4619 -36.8307 -42.4996)
(-49.4554 -64.7961 -36.7876)
(-74.9545 -102.218 -19.2085)
(-100.599 -140.824 20.5443)
(-131.122 -181.243 55.4523)
(-155.241 -199.423 67.1726)
(-154.808 -191.823 69.7596)
(-18.1739 -22.1234 -40.9109)
(-28.7379 -45.2022 -40.7684)
(-45.1319 -76.0287 -33.4316)
(-65.0553 -114.508 -9.97285)
(-86.1051 -153.831 30.2748)
(-111.93 -194.398 57.1679)
(-142.119 -212.333 66.9045)
(-149.711 -203.43 71.5426)
(-21.9338 -27.058 -38.3118)
(-29.6404 -52.2198 -36.4949)
(-41.8985 -84.2577 -25.1104)
(-53.577 -122.406 2.38128)
(-69.0804 -165.472 31.646)
(-88.5745 -201.363 49.2197)
(-115.17 -208.24 66.0153)
(-138.832 -191.98 76.5438)
(-25.6856 -30.6883 -34.8698)
(-31.4463 -57.3226 -29.8133)
(-40.5794 -91.8393 -13.9043)
(-44.9499 -134.6 13.5256)
(-54.6704 -182.286 35.2113)
(-63.931 -222.302 46.33)
(-76.8167 -238.431 49.8857)
(-67.6367 -221.362 50.0275)
(-30.0111 -32.2446 -30.834)
(-35.1076 -59.5393 -20.9543)
(-38.5539 -97.1424 -0.118499)
(-41.1981 -145.514 27.62)
(-45.6171 -199.32 44.4543)
(-53.2233 -242.837 51.8836)
(-60.663 -265.53 48.8863)
(-58.6775 -258.889 45.1631)
(-33.913 -31.5743 -25.7995)
(-36.3088 -60.1221 -10.8204)
(-35.3004 -101.326 13.0369)
(-35.1191 -155.216 38.151)
(-36.5499 -210.621 53.8337)
(-40.8755 -250.792 61.7083)
(-51.8107 -272.39 55.5087)
(-59.168 -268.624 52.4241)
(-37.2736 -29.4534 -21.8793)
(-37.9813 -60.6156 -3.92976)
(-33.7619 -106.276 22.1231)
(-29.8062 -163.925 46.8212)
(-25.1908 -215.741 65.3936)
(-24.9639 -248.993 70.5869)
(-39.3617 -265.314 63.6325)
(-53.0023 -265.157 60.8335)
(-38.0995 -26.998 -20.3119)
(-35.4358 -60.1644 -0.832843)
(-26.6306 -110.37 24.217)
(-13.9026 -171.056 48.5743)
(-2.44329 -224.662 66.6239)
(1.83407 -259.049 69.7466)
(0.334744 -271.294 56.2849)
(-0.565571 -264.71 46.3184)
(-36.4845 -23.7207 -21.8614)
(-29.2821 -58.8676 -2.51112)
(-15.4132 -113.875 21.6347)
(5.92976 -177.742 50.5501)
(19.9087 -234.756 75.6027)
(25.1913 -273.652 82.082)
(-30.6655 -21.3695 -25.6028)
(-18.8698 -56.7565 -7.68682)
(0.680807 -111.929 14.5304)
(26.5113 -175.98 43.5534)
(41.3651 -230.678 76.9578)
(44.0338 -269.584 96.8177)
(-21.6333 -19.4865 -31.2827)
(-6.27791 -53.634 -17.4155)
(17.9964 -105.542 -0.0304714)
(44.3049 -164.815 26.9777)
(60.214 -210.695 68.9132)
(63.6601 -245.598 98.8289)
(-11.2347 -17.2586 -37.0018)
(7.11297 -49.0631 -28.7344)
(35.2923 -92.3485 -14.2442)
(62.3038 -144.419 12.1519)
(80.2087 -183.609 60.2419)
(90.6137 -214.774 92.8335)
(-0.733901 -17.7702 -41.012)
(21.1161 -44.1759 -37.6337)
(50.3681 -77.9005 -25.5937)
(79.3084 -119.077 -1.41668)
(100.88 -150.645 43.7892)
(113.218 -175.315 76.3697)
(8.8642 -20.576 -43.5396)
(34.9068 -41.4581 -43.1081)
(67.1847 -67.5892 -32.2556)
(101.597 -98.8962 -9.02961)
(134.283 -123.904 32.2935)
(17.7817 -24.0909 -44.1917)
(47.6003 -42.0597 -44.1354)
(84.5329 -63.5263 -32.241)
(125.014 -87.7207 -2.88233)
(164.156 -109.252 36.7728)
(24.9235 -28.9513 -43.3888)
(58.7307 -42.9935 -40.1444)
(98.4402 -62.061 -22.8773)
(140.891 -77.6707 13.3236)
(182.983 -102.911 44.9236)
(30.7065 -33.916 -40.7318)
(67.3898 -45.5142 -31.8144)
(109.16 -58.1212 -7.78726)
(153.639 -67.6792 25.6314)
(194.189 -85.1253 47.8797)
(34.0149 -39.4282 -36.7406)
(72.2719 -47.9134 -19.9299)
(117.815 -56.94 9.04097)
(169.203 -65.8798 36.099)
(213.175 -73.7127 56.1611)
(34.3667 -43.0901 -31.2881)
(75.0422 -48.4288 -8.41928)
(126.966 -54.3996 21.4242)
(184.568 -58.9139 47.0865)
(232.155 -64.3611 64.3347)
(34.5871 -43.5111 -26.5456)
(80.1914 -46.5125 -1.49027)
(139.397 -47.5307 26.4024)
(199.717 -45.9409 54.0895)
(245.235 -49.6977 73.1606)
(34.8674 -40.3709 -24.8582)
(85.0919 -39.0193 0.0757359)
(148.147 -31.4794 29.02)
(206.739 -24.6691 61.7951)
(246.922 -27.3621 84.7044)
(35.0606 -34.5021 -25.6269)
(89.5265 -26.1035 0.261131)
(153.579 -10.1486 32.7406)
(211.982 2.92772 64.0513)
(253.335 6.31109 85.7292)
(34.8708 -24.9563 -28.1597)
(91.6732 -8.9783 -2.21093)
(157.122 11.7411 32.342)
(216.148 28.5677 66.5386)
(258.388 35.897 93.4802)
(32.9821 -11.8818 -33.8758)
(87.9061 8.22912 -11.1251)
(149.711 30.9931 21.6866)
(206.119 47.8262 60.676)
(246.983 55.5357 99.8828)
(29.2078 1.53336 -41.1349)
(80.2378 22.9835 -25.2561)
(135.824 46.491 3.92619)
(184.152 64.5715 49.7899)
(222.936 74.3256 92.8452)
(26.0282 14.2194 -47.3883)
(70.4796 36.6907 -37.8833)
(118.117 61.9916 -14.8809)
(161.325 83.1169 29.7909)
(197.474 97.9176 77.9179)
(23.3107 24.6877 -51.919)
(61.6658 49.6854 -46.4336)
(100.765 78.7167 -29.4119)
(134.716 100.633 11.8909)
(162.115 120.455 58.4997)
(23.0318 32.8748 -54.6029)
(54.2065 60.9381 -50.1805)
(84.8878 93.9692 -35.2055)
(111.597 122.652 4.182)
(135.356 157.401 43.9478)
(25.0045 38.9118 -54.1875)
(49.8088 71.4424 -49.4771)
(75.9784 108.918 -30.7721)
(96.7209 147.078 10.2874)
(120.814 188.038 44.5777)
(29.192 41.9833 -52.1612)
(47.7367 79.4157 -43.5585)
(70.8201 119.205 -15.013)
(86.1535 165.247 24.8203)
(113.552 207.02 52.6518)
(33.8525 44.2687 -48.1289)
(48.1043 84.0617 -31.3636)
(63.2564 128.994 3.2326)
(76.6319 179.461 36.1282)
(91.1058 215.75 61.5457)
(37.845 44.2571 -42.3277)
(47.4384 86.9552 -16.3609)
(60.5597 140.67 18.8075)
(70.028 196.745 48.6758)
(75.6124 235.72 65.5412)
(38.6113 43.2952 -35.1288)
(45.2384 90.8453 -4.69574)
(53.9504 153.395 29.3339)
(59.3795 214.763 59.7431)
(64.3279 256.577 71.3837)
(36.3025 42.258 -29.4457)
(40.7592 94.8185 1.91543)
(42.2555 163.407 36.7759)
(44.8384 228.62 70.1187)
(50.0162 271.92 82.6969)
(30.6639 40.8557 -27.2877)
(29.791 96.3135 3.64758)
(22.7146 164.653 40.3465)
(22.0165 227.335 76.3792)
(25.6739 266.226 95.1616)
(23.8283 39.8465 -26.5496)
(15.3812 97.5389 4.08789)
(-0.613568 165.287 40.2184)
(-9.40233 227.88 74.2314)
(-10.8634 269.237 93.5853)
(14.591 37.3918 -28.452)
(0.404368 95.7656 1.39144)
(-22.1165 162.764 36.7686)
(-35.5816 225.138 72.8445)
(-41.9656 268.219 99.9048)
(3.21023 33.1853 -33.5057)
(-12.0606 89.7586 -8.29086)
(-37.3304 151.693 25.334)
(-51.4913 210.841 65.0434)
(-61.6205 251.325 104.884)
(-7.53157 27.6367 -40.0697)
(-22.7904 79.0105 -22.3537)
(-48.0443 133.781 7.63407)
(-64.3758 186.753 52.3749)
(-78.4587 225.707 99.4635)
(-16.4132 22.5954 -46.1035)
(-34.0989 65.9468 -35.4855)
(-57.2107 114.7 -13.6931)
(-78.3633 161.044 28.6693)
(-95.1317 196.733 79.685)
(-23.134 18.1099 -49.9619)
(-44.8658 52.1397 -43.461)
(-67.6723 94.3567 -29.2766)
(-93.0115 131.787 7.94617)
(-112.055 162.125 57.0324)
(-28.9309 15.879 -51.8584)
(-52.9775 41.5309 -47.0223)
(-77.8174 75.9732 -37.0344)
(-107.329 104.93 -3.91793)
(-136.692 129.725 41.6226)
(-2.721 -2.12933 -39.0352)
(-4.28118 -0.67546 -38.4338)
(-4.9873 1.12789 -37.1246)
(-6.04187 2.55218 -36.1048)
(-6.67829 3.47736 -35.0831)
(-7.20453 4.15424 -34.4117)
(-7.51547 4.6695 -33.8388)
(-7.78418 4.95957 -33.3139)
(-7.86699 5.05747 -32.8283)
(-7.97493 4.85729 -32.4391)
(-8.09864 4.43797 -32.1883)
(-8.31205 3.85767 -32.0862)
(-8.597 3.20418 -32.0551)
(-9.33402 2.83171 -32.0258)
(-1.38256 -3.19555 -38.9224)
(-3.20056 -1.70498 -38.3043)
(-4.3696 0.00190703 -37.1871)
(-5.48685 1.36118 -36.3155)
(-6.29106 2.15435 -35.3902)
(-6.97902 2.68269 -34.7405)
(-7.44209 3.0908 -34.1633)
(-7.86918 3.26999 -33.6481)
(-8.19206 3.31448 -33.1448)
(-8.54616 3.08969 -32.7257)
(-8.87267 2.63534 -32.3796)
(-9.30012 2.09781 -32.0996)
(-9.80608 1.54651 -31.9347)
(-10.6387 1.20777 -31.82)
(-0.165104 -3.6872 -38.6413)
(-2.09817 -2.27211 -38.0591)
(-3.56135 -0.816145 -37.2207)
(-4.82606 0.249579 -36.5072)
(-5.74318 0.924892 -35.7113)
(-6.5555 1.32774 -35.1035)
(-7.18706 1.65455 -34.5496)
(-7.79213 1.77697 -34.0408)
(-8.35781 1.73693 -33.5202)
(-8.94463 1.51213 -33.0119)
(-9.57161 1.08954 -32.5391)
(-10.244 0.586872 -32.0651)
(-10.9722 0.142115 -31.6365)
(-11.8713 -0.146682 -31.3707)
(0.765257 -4.05869 -38.4473)
(-1.22837 -2.8032 -37.9301)
(-2.8286 -1.59397 -37.28)
(-4.18582 -0.794288 -36.6713)
(-5.2406 -0.266178 -35.9927)
(-6.16898 0.02702 -35.4043)
(-6.94957 0.287416 -34.8534)
(-7.68183 0.374879 -34.3187)
(-8.38915 0.322155 -33.7858)
(-9.12336 0.0963865 -33.2257)
(-9.93224 -0.335012 -32.7108)
(-10.8247 -0.800537 -32.1984)
(-11.7317 -1.21647 -31.6848)
(-12.7233 -1.52289 -31.3114)
(1.493 -4.26495 -38.3592)
(-0.51292 -3.24345 -37.9274)
(-2.17959 -2.30324 -37.3863)
(-3.61643 -1.7648 -36.8167)
(-4.79933 -1.37622 -36.229)
(-5.84883 -1.18473 -35.654)
(-6.77638 -0.98758 -35.1141)
(-7.63135 -0.936133 -34.5537)
(-8.46463 -0.999715 -34.0146)
(-9.30299 -1.18188 -33.4162)
(-10.2408 -1.53909 -32.8637)
(-11.2634 -1.98634 -32.341)
(-12.299 -2.39238 -31.7711)
(-13.4213 -2.73356 -31.3484)
(2.03991 -4.51691 -38.3305)
(0.0375981 -3.69101 -37.9556)
(-1.67289 -2.99428 -37.4853)
(-3.17238 -2.66661 -36.9444)
(-4.47385 -2.41066 -36.4085)
(-5.63481 -2.31184 -35.8316)
(-6.69367 -2.17913 -35.3009)
(-7.65796 -2.16008 -34.7155)
(-8.61224 -2.23344 -34.1875)
(-9.55856 -2.36643 -33.5867)
(-10.5892 -2.65012 -33.0261)
(-11.6989 -3.04461 -32.4943)
(-12.8331 -3.39977 -31.8902)
(-14.0689 -3.72971 -31.4283)
(2.46136 -4.72418 -38.2969)
(0.451078 -4.11133 -37.9363)
(-1.32516 -3.66279 -37.5219)
(-2.88402 -3.51111 -37.0174)
(-4.28175 -3.37394 -36.5468)
(-5.52846 -3.36205 -35.9891)
(-6.68437 -3.29523 -35.4841)
(-7.733 -3.30483 -34.8874)
(-8.77983 -3.3837 -34.3578)
(-9.80759 -3.47739 -33.742)
(-10.8996 -3.69931 -33.1663)
(-12.043 -4.03545 -32.594)