/*--------------------------------*- C++ -*----------------------------------*\
| =========                 |                                                 |
| \\      /  F ield         | OpenFOAM: The Open Source CFD Toolbox           |
|  \\    /   O peration     | Version:  v2106                                 |
|   \\  /    A nd           | Website:  www.openfoam.com                      |
|    \\/     M anipulation  |                                                 |
\*---------------------------------------------------------------------------*/
FoamFile
{
    version     2.0;
    format      ascii;
    arch        "LSB;label=32;scalar=64";
    class       volScalarField;
    location    "0.000212";
    object      Ttot;
}
// * * * * * * * * * * * * * * * * * * * * * * * * * * * * * * * * * * * * * //

dimensions      [0 0 0 1 0 0 0];

internalField   nonuniform List<scalar> 
17920
(
306.648
306.656
306.68
306.69
306.711
306.721
306.745
306.755
306.779
306.789
306.814
306.823
306.849
306.858
306.885
306.894
306.92
306.93
306.956
306.965
306.991
307
307.027
307.036
307.062
307.071
307.094
307.107
306.498
306.494
306.491
306.489
306.488
306.488
306.488
306.488
306.489
306.491
306.492
306.494
306.496
306.501
306.52
306.514
306.511
306.508
306.507
306.507
306.507
306.507
306.508
306.51
306.511
306.513
306.515
306.521
306.539
306.534
306.531
306.528
306.527
306.527
306.527
306.527
306.529
306.53
306.532
306.534
306.536
306.542
306.561
306.555
306.552
306.55
306.549
306.548
306.548
306.549
306.55
306.552
306.554
306.557
306.559
306.564
306.583
306.577
306.575
306.572
306.571
306.571
306.571
306.572
306.574
306.576
306.578
306.581
306.584
306.588
306.605
306.601
306.598
306.596
306.595
306.595
306.595
306.596
306.598
306.601
306.603
306.606
306.609
306.613
306.628
306.625
306.622
306.62
306.62
306.619
306.62
306.622
306.624
306.626
306.629
306.633
306.636
306.64
306.652
306.649
306.647
306.646
306.645
306.645
306.646
306.648
306.651
306.653
306.657
306.661
306.665
306.668
306.675
306.674
306.672
306.672
306.671
306.672
306.673
306.675
306.678
306.682
306.686
306.689
306.694
306.696
306.699
306.7
306.698
306.698
306.698
306.699
306.701
306.704
306.707
306.711
306.715
306.719
306.725
306.726
306.724
306.725
306.724
306.725
306.726
306.727
306.729
306.732
306.736
306.74
306.745
306.75
306.755
306.756
306.749
306.751
306.75
306.752
306.753
306.755
306.758
306.762
306.766
306.771
306.776
306.781
306.787
306.788
306.774
306.777
306.777
306.779
306.781
306.784
306.787
306.791
306.796
306.802
306.807
306.812
306.818
306.82
306.802
306.803
306.804
306.806
306.809
306.812
306.817
306.821
306.827
306.832
306.838
306.844
306.851
306.855
306.451
306.441
306.434
306.427
306.422
306.417
306.412
306.408
306.405
306.402
306.4
306.398
306.396
306.396
306.463
306.454
306.446
306.439
306.433
306.428
306.423
306.419
306.415
306.412
306.409
306.407
306.404
306.404
306.476
306.466
306.458
306.451
306.445
306.439
306.434
306.43
306.426
306.423
306.42
306.417
306.415
306.414
306.489
306.48
306.472
306.464
306.458
306.452
306.447
306.442
306.438
306.435
306.432
306.429
306.426
306.425
306.503
306.494
306.486
306.478
306.472
306.466
306.46
306.456
306.452
306.448
306.445
306.442
306.439
306.437
306.518
306.509
306.501
306.493
306.486
306.48
306.475
306.47
306.466
306.462
306.459
306.456
306.453
306.451
306.533
306.524
306.516
306.509
306.502
306.496
306.491
306.486
306.482
306.478
306.475
306.472
306.469
306.467
306.548
306.54
306.532
306.525
306.518
306.512
306.507
306.503
306.498
306.495
306.492
306.489
306.486
306.484
306.564
306.557
306.549
306.542
306.536
306.53
306.525
306.52
306.516
306.513
306.51
306.507
306.504
306.501
306.58
306.574
306.566
306.56
306.554
306.548
306.543
306.539
306.535
306.532
306.529
306.525
306.523
306.52
306.596
306.591
306.584
306.578
306.573
306.567
306.563
306.559
306.555
306.551
306.549
306.545
306.544
306.54
306.614
306.609
306.603
306.597
306.592
306.587
306.583
306.579
306.576
306.572
306.57
306.566
306.565
306.562
306.633
306.628
306.622
306.617
306.612
306.608
306.604
306.6
306.597
306.594
306.591
306.588
306.587
306.584
306.653
306.647
306.641
306.636
306.632
306.628
306.625
306.622
306.619
306.616
306.614
306.612
306.611
306.609
306.412
306.4
306.391
306.382
306.373
306.365
306.358
306.351
306.345
306.339
306.334
306.329
306.325
306.32
306.417
306.406
306.396
306.387
306.378
306.37
306.362
306.355
306.348
306.342
306.336
306.33
306.325
306.32
306.422
306.411
306.401
306.392
306.383
306.374
306.367
306.359
306.352
306.345
306.339
306.333
306.327
306.322
306.428
306.417
306.407
306.397
306.388
306.379
306.371
306.363
306.356
306.349
306.342
306.336
306.33
306.324
306.434
306.423
306.413
306.403
306.394
306.385
306.377
306.369
306.361
306.353
306.346
306.339
306.333
306.327
306.441
306.43
306.419
306.409
306.4
306.391
306.382
306.374
306.366
306.358
306.351
306.344
306.337
306.331
306.447
306.437
306.426
306.416
306.407
306.398
306.389
306.38
306.372
306.364
306.357
306.349
306.342
306.335
306.454
306.444
306.434
306.423
306.414
306.405
306.396
306.387
306.379
306.371
306.363
306.355
306.348
306.341
306.462
306.452
306.441
306.431
306.421
306.412
306.403
306.395
306.386
306.378
306.37
306.362
306.354
306.347
306.469
306.46
306.449
306.439
306.43
306.42
306.411
306.403
306.394
306.386
306.377
306.369
306.362
306.354
306.477
306.468
306.458
306.448
306.438
306.429
306.42
306.411
306.403
306.394
306.386
306.378
306.37
306.361
306.485
306.476
306.467
306.457
306.448
306.438
306.429
306.42
306.412
306.403
306.395
306.386
306.379
306.37
306.494
306.485
306.476
306.467
306.457
306.448
306.439
306.43
306.422
306.413
306.404
306.395
306.387
306.379
306.503
306.494
306.485
306.476
306.467
306.458
306.449
306.441
306.432
306.424
306.415
306.406
306.398
306.389
306.36
306.349
306.338
306.328
306.319
306.31
306.301
306.292
306.284
306.275
306.268
306.26
306.254
306.246
306.359
306.348
306.338
306.328
306.318
306.309
306.299
306.29
306.281
306.273
306.265
306.257
306.249
306.241
306.357
306.347
306.336
306.326
306.317
306.307
306.298
306.288
306.279
306.27
306.262
306.253
306.245
306.237
306.356
306.346
306.335
306.325
306.315
306.305
306.296
306.286
306.277
306.267
306.259
306.25
306.241
306.233
306.355
306.344
306.334
306.324
306.314
306.304
306.294
306.284
306.275
306.265
306.256
306.246
306.237
306.228
306.353
306.343
306.333
306.322
306.312
306.302
306.292
306.282
306.272
306.262
306.253
306.243
306.234
306.224
306.352
306.342
306.331
306.321
306.311
306.301
306.291
306.28
306.27
306.26
306.25
306.24
306.23
306.22
306.351
306.341
306.33
306.32
306.309
306.299
306.289
306.278
306.268
306.257
306.247
306.237
306.226
306.217
306.35
306.34
306.329
306.318
306.308
306.297
306.287
306.276
306.266
306.255
306.244
306.234
306.223
306.213
306.349
306.339
306.328
306.317
306.306
306.296
306.285
306.275
306.264
306.253
306.242
306.231
306.22
306.21
306.348
306.338
306.327
306.316
306.305
306.294
306.284
306.273
306.262
306.251
306.239
306.228
306.217
306.207
306.347
306.336
306.326
306.315
306.304
306.293
306.282
306.271
306.26
306.249
306.237
306.226
306.214
306.204
306.346
306.335
306.325
306.314
306.303
306.292
306.281
306.27
306.258
306.247
306.235
306.223
306.212
306.2
306.345
306.334
306.324
306.313
306.302
306.29
306.279
306.268
306.257
306.246
306.234
306.223
306.211
306.2
306.27
306.26
306.25
306.241
306.231
306.222
306.212
306.203
306.193
306.184
306.175
306.165
306.157
306.147
306.263
306.253
306.244
306.235
306.225
306.216
306.206
306.196
306.186
306.176
306.167
306.157
306.148
306.138
306.255
306.246
306.237
306.228
306.218
306.209
306.199
306.189
306.179
306.169
306.159
306.149
306.14
306.13
306.247
306.239
306.229
306.22
306.211
306.201
306.191
306.181
306.171
306.161
306.151
306.141
306.131
306.12
306.239
306.231
306.222
306.213
306.203
306.193
306.183
306.173
306.163
306.153
306.142
306.132
306.122
306.111
306.231
306.223
306.213
306.204
306.195
306.185
306.175
306.165
306.154
306.144
306.133
306.122
306.112
306.101
306.223
306.214
306.205
306.196
306.186
306.177
306.167
306.156
306.146
306.135
306.124
306.113
306.102
306.091
306.214
306.206
306.196
306.187
306.177
306.168
306.157
306.147
306.136
306.125
306.114
306.103
306.092
306.081
306.206
306.197
306.188
306.178
306.168
306.158
306.148
306.137
306.126
306.115
306.104
306.093
306.081
306.07
306.197
306.188
306.178
306.168
306.159
306.149
306.138
306.127
306.116
306.105
306.093
306.082
306.07
306.06
306.188
306.179
306.169
306.159
306.149
306.139
306.128
306.117
306.106
306.094
306.082
306.071
306.059
306.049
306.179
306.169
306.159
306.149
306.139
306.128
306.118
306.107
306.095
306.084
306.072
306.06
306.048
306.038
306.17
306.159
306.15
306.139
306.129
306.118
306.107
306.096
306.084
306.072
306.06
306.048
306.036
306.026
306.16
306.149
306.139
306.129
306.118
306.107
306.096
306.085
306.074
306.062
306.05
306.038
306.026
306.016
306.112
306.105
306.097
306.089
306.082
306.073
306.065
306.056
306.047
306.037
306.028
306.018
306.009
305.999
306.1
306.093
306.086
306.079
306.071
306.063
306.054
306.045
306.036
306.026
306.017
306.007
305.998
305.987
306.087
306.082
306.074
306.067
306.059
306.051
306.043
306.034
306.025
306.015
306.006
305.996
305.987
305.976
306.075
306.069
306.062
306.055
306.048
306.039
306.031
306.022
306.013
306.003
305.994
305.984
305.974
305.964
306.062
306.057
306.05
306.043
306.035
306.027
306.018
306.01
306
305.991
305.981
305.971
305.962
305.951
306.049
306.044
306.037
306.03
306.022
306.014
306.005
305.997
305.987
305.978
305.968
305.958
305.949
305.938
306.036
306.03
306.023
306.016
306.009
306
305.992
305.983
305.974
305.964
305.954
305.944
305.935
305.925
306.022
306.016
306.009
306.002
305.994
305.986
305.978
305.969
305.959
305.95
305.94
305.93
305.92
305.91
306.009
306.002
305.995
305.988
305.98
305.972
305.963
305.954
305.945
305.935
305.925
305.915
305.905
305.896
305.994
305.987
305.98
305.973
305.965
305.957
305.948
305.939
305.93
305.92
305.91
305.9
305.89
305.881
305.98
305.973
305.966
305.958
305.95
305.942
305.933
305.924
305.914
305.904
305.894
305.884
305.874
305.866
305.966
305.957
305.95
305.942
305.934
305.926
305.917
305.908
305.898
305.889
305.878
305.869
305.858
305.85
305.952
305.942
305.935
305.927
305.919
305.91
305.901
305.892
305.882
305.872
305.862
305.852
305.842
305.834
305.936
305.927
305.919
305.911
305.902
305.894
305.885
305.876
305.866
305.856
305.846
305.837
305.827
305.819
305.867
305.863
305.859
305.855
305.85
305.845
305.839
305.833
305.826
305.819
305.811
305.803
305.796
305.787
305.852
305.85
305.847
305.843
305.838
305.832
305.827
305.82
305.813
305.806
305.799
305.791
305.784
305.775
305.839
305.837
305.833
305.829
305.825
305.819
305.813
305.807
305.801
305.794
305.787
305.779
305.772
305.763
305.825
305.823
305.819
305.816
305.811
305.806
305.8
305.794
305.787
305.78
305.773
305.766
305.759
305.751
305.811
305.809
305.805
305.801
305.797
305.791
305.786
305.78
305.773
305.766
305.76
305.752
305.745
305.738
305.797
305.794
305.791
305.786
305.782
305.777
305.771
305.765
305.759
305.752
305.745
305.738
305.731
305.724
305.782
305.779
305.775
305.771
305.767
305.761
305.756
305.75
305.744
305.737
305.73
305.724
305.717
305.71
305.767
305.764
305.76
305.756
305.751
305.746
305.74
305.734
305.728
305.722
305.715
305.708
305.702
305.695
305.752
305.748
305.744
305.74
305.735
305.73
305.725
305.719
305.712
305.706
305.699
305.693
305.686
305.68
305.736
305.732
305.728
305.724
305.719
305.714
305.708
305.703
305.696
305.69
305.683
305.677
305.67
305.665
305.721
305.716
305.712
305.708
305.703
305.698
305.692
305.686
305.68
305.674
305.667
305.661
305.654
305.649
305.705
305.699
305.695
305.691
305.686
305.681
305.675
305.67
305.663
305.657
305.651
305.645
305.638
305.634
305.69
305.684
305.679
305.675
305.67
305.664
305.659
305.653
305.647
305.64
305.634
305.628
305.622
305.618
305.673
305.667
305.662
305.658
305.653
305.647
305.642
305.636
305.63
305.624
305.618
305.612
305.606
305.602
305.542
305.543
305.542
305.542
305.541
305.539
305.537
305.535
305.532
305.529
305.525
305.521
305.517
305.513
305.53
305.532
305.531
305.531
305.53
305.528
305.527
305.524
305.521
305.518
305.515
305.511
305.507
305.502
305.519
305.521
305.52
305.52
305.519
305.517
305.515
305.513
305.51
305.507
305.504
305.5
305.497
305.492
305.508
305.509
305.508
305.508
305.507
305.506
305.504
305.502
305.499
305.496
305.493
305.489
305.486
305.482
305.496
305.497
305.496
305.496
305.495
305.494
305.492
305.49
305.487
305.485
305.482
305.478
305.475
305.471
305.484
305.485
305.484
305.484
305.483
305.481
305.48
305.478
305.475
305.473
305.47
305.467
305.464
305.46
305.472
305.472
305.472
305.471
305.47
305.469
305.467
305.465
305.463
305.46
305.458
305.455
305.452
305.449
305.46
305.46
305.459
305.458
305.457
305.456
305.454
305.452
305.45
305.448
305.445
305.443
305.44
305.437
305.448
305.447
305.446
305.445
305.444
305.443
305.441
305.439
305.437
305.435
305.433
305.43
305.428
305.425
305.435
305.434
305.433
305.432
305.431
305.43
305.428
305.426
305.424
305.422
305.42
305.418
305.415
305.413
305.422
305.421
305.42
305.419
305.418
305.417
305.415
305.413
305.411
305.409
305.407
305.405
305.402
305.402
305.41
305.407
305.407
305.406
305.405
305.403
305.402
305.4
305.398
305.396
305.394
305.392
305.389
305.389
305.397
305.394
305.394
305.393
305.391
305.39
305.388
305.387
305.385
305.383
305.381
305.379
305.377
305.377
305.384
305.381
305.38
305.379
305.378
305.377
305.375
305.374
305.372
305.37
305.368
305.366
305.364
305.364
305.169
305.172
305.175
305.178
305.18
305.182
305.184
305.186
305.187
305.187
305.188
305.188
305.188
305.188
305.163
305.166
305.169
305.172
305.174
305.176
305.178
305.18
305.181
305.182
305.182
305.182
305.183
305.182
305.157
305.16
305.163
305.166
305.168
305.17
305.172
305.174
305.175
305.176
305.176
305.177
305.177
305.176
305.151
305.154
305.157
305.159
305.162
305.164
305.166
305.167
305.168
305.169
305.17
305.171
305.171
305.17
305.144
305.148
305.15
305.153
305.155
305.157
305.159
305.16
305.162
305.163
305.164
305.164
305.165
305.165
305.138
305.141
305.143
305.146
305.148
305.15
305.152
305.154
305.155
305.156
305.157
305.158
305.159
305.159
305.131
305.134
305.136
305.139
305.141
305.143
305.145
305.147
305.148
305.149
305.15
305.151
305.152
305.152
305.124
305.127
305.129
305.132
305.134
305.136
305.138
305.139
305.141
305.142
305.143
305.144
305.145
305.146
305.117
305.119
305.122
305.124
305.126
305.128
305.13
305.132
305.134
305.135
305.136
305.137
305.138
305.139
305.11
305.112
305.115
305.117
305.119
305.121
305.123
305.125
305.126
305.128
305.129
305.13
305.131
305.133
305.102
305.104
305.107
305.109
305.111
305.113
305.115
305.117
305.119
305.12
305.122
305.123
305.124
305.126
305.095
305.097
305.099
305.102
305.104
305.106
305.108
305.109
305.111
305.113
305.114
305.116
305.117
305.119
305.088
305.089
305.092
305.094
305.096
305.098
305.1
305.102
305.104
305.105
305.107
305.108
305.11
305.112
305.08
305.082
305.085
305.087
305.089
305.091
305.092
305.094
305.096
305.098
305.099
305.101
305.102
305.104
304.786
304.79
304.795
304.799
304.803
304.807
304.811
304.815
304.819
304.822
304.825
304.828
304.831
304.833
304.785
304.79
304.794
304.799
304.803
304.807
304.811
304.815
304.819
304.822
304.825
304.828
304.831
304.833
304.785
304.789
304.794
304.798
304.803
304.807
304.811
304.815
304.818
304.821
304.825
304.828
304.83
304.832
304.784
304.789
304.793
304.798
304.802
304.806
304.81
304.814
304.818
304.821
304.824
304.827
304.83
304.832
304.784
304.788
304.793
304.797
304.801
304.805
304.81
304.813
304.817
304.82
304.823
304.826
304.829
304.831
304.783
304.787
304.792
304.796
304.8
304.805
304.809
304.812
304.816
304.819
304.823
304.825
304.828
304.83
304.782
304.786
304.791
304.795
304.799
304.804
304.808
304.811
304.815
304.818
304.822
304.824
304.827
304.829
304.781
304.785
304.79
304.794
304.798
304.802
304.806
304.81
304.814
304.817
304.82
304.823
304.826
304.828
304.779
304.784
304.788
304.792
304.797
304.801
304.805
304.809
304.812
304.816
304.819
304.822
304.825
304.827
304.777
304.782
304.786
304.791
304.795
304.799
304.803
304.807
304.811
304.814
304.817
304.82
304.823
304.826
304.776
304.78
304.785
304.789
304.793
304.797
304.801
304.805
304.809
304.812
304.816
304.819
304.822
304.825
304.774
304.778
304.783
304.787
304.791
304.795
304.799
304.803
304.807
304.81
304.814
304.817
304.82
304.823
304.772
304.776
304.781
304.785
304.789
304.793
304.797
304.801
304.805
304.808
304.812
304.815
304.818
304.821
304.77
304.775
304.779
304.783
304.787
304.791
304.795
304.799
304.802
304.806
304.809
304.813
304.816
304.819
304.419
304.422
304.427
304.431
304.435
304.44
304.444
304.448
304.452
304.456
304.46
304.463
304.467
304.47
304.422
304.426
304.43
304.434
304.439
304.443
304.448
304.452
304.456
304.46
304.464
304.467
304.47
304.474
304.426
304.429
304.434
304.438
304.443
304.447
304.452
304.456
304.46
304.464
304.467
304.471
304.474
304.477
304.429
304.433
304.438
304.442
304.447
304.451
304.455
304.46
304.464
304.467
304.471
304.474
304.477
304.48
304.432
304.436
304.441
304.446
304.45
304.455
304.459
304.463
304.467
304.471
304.474
304.477
304.48
304.483
304.435
304.44
304.444
304.449
304.454
304.458
304.462
304.466
304.47
304.474
304.478
304.481
304.484
304.486
304.438
304.443
304.447
304.452
304.457
304.461
304.465
304.47
304.474
304.477
304.481
304.484
304.487
304.489
304.441
304.446
304.45
304.455
304.46
304.464
304.468
304.473
304.476
304.48
304.484
304.487
304.49
304.492
304.443
304.448
304.453
304.458
304.462
304.467
304.471
304.475
304.479
304.483
304.486
304.489
304.492
304.495
304.445
304.45
304.455
304.46
304.465
304.469
304.474
304.478
304.482
304.485
304.489
304.492
304.495
304.497
304.447
304.453
304.457
304.462
304.467
304.471
304.476
304.48
304.484
304.487
304.491
304.494
304.497
304.5
304.449
304.455
304.459
304.464
304.469
304.473
304.478
304.482
304.486
304.489
304.493
304.496
304.499
304.502
304.451
304.456
304.461
304.466
304.471
304.475
304.479
304.484
304.488
304.491
304.495
304.498
304.501
304.504
304.453
304.459
304.463
304.468
304.472
304.477
304.481
304.485
304.489
304.493
304.496
304.5
304.503
304.506
304.079
304.081
304.084
304.087
304.09
304.093
304.096
304.099
304.102
304.105
304.108
304.111
304.113
304.116
304.083
304.086
304.089
304.092
304.095
304.098
304.102
304.105
304.108
304.111
304.113
304.116
304.118
304.121
304.088
304.09
304.094
304.097
304.1
304.104
304.107
304.11
304.113
304.115
304.118
304.121
304.123
304.126
304.092
304.095
304.099
304.102
304.105
304.109
304.112
304.115
304.118
304.121
304.123
304.126
304.128
304.13
304.097
304.1
304.104
304.107
304.11
304.114
304.117
304.12
304.123
304.125
304.128
304.13
304.133
304.135
304.101
304.105
304.108
304.112
304.115
304.118
304.122
304.125
304.128
304.13
304.133
304.135
304.137
304.139
304.105
304.109
304.113
304.116
304.12
304.123
304.126
304.129
304.132
304.135
304.138
304.14
304.142
304.144
304.11
304.114
304.117
304.121
304.124
304.128
304.131
304.134
304.137
304.14
304.142
304.144
304.147
304.148
304.114
304.118
304.121
304.125
304.129
304.132
304.135
304.138
304.141
304.144
304.146
304.149
304.151
304.152
304.118
304.122
304.125
304.129
304.133
304.136
304.139
304.142
304.145
304.148
304.151
304.153
304.155
304.157
304.121
304.125
304.129
304.133
304.137
304.14
304.143
304.146
304.149
304.152
304.155
304.157
304.159
304.161
304.125
304.129
304.133
304.137
304.14
304.144
304.147
304.15
304.153
304.156
304.158
304.161
304.163
304.164
304.128
304.133
304.136
304.14
304.144
304.147
304.151
304.154
304.157
304.159
304.162
304.164
304.166
304.168
304.132
304.136
304.14
304.144
304.147
304.151
304.154
304.157
304.16
304.163
304.165
304.168
304.17
304.172
303.768
303.769
303.77
303.772
303.773
303.774
303.776
303.777
303.779
303.78
303.781
303.783
303.784
303.786
303.772
303.773
303.774
303.775
303.777
303.778
303.78
303.781
303.783
303.784
303.786
303.787
303.788
303.79
303.775
303.776
303.778
303.779
303.781
303.782
303.784
303.785
303.787
303.788
303.789
303.791
303.792
303.794
303.779
303.78
303.782
303.783
303.785
303.786
303.788
303.789
303.791
303.792
303.793
303.795
303.796
303.798
303.783
303.784
303.786
303.787
303.789
303.79
303.792
303.793
303.795
303.796
303.797
303.799
303.8
303.801
303.786
303.788
303.789
303.791
303.793
303.794
303.796
303.797
303.799
303.8
303.801
303.803
303.804
303.805
303.79
303.792
303.793
303.795
303.797
303.798
303.8
303.801
303.803
303.804
303.805
303.807
303.808
303.809
303.794
303.795
303.797
303.799
303.8
303.802
303.804
303.805
303.807
303.808
303.809
303.811
303.812
303.813
303.797
303.799
303.801
303.803
303.804
303.806
303.808
303.809
303.811
303.812
303.813
303.814
303.816
303.816
303.801
303.803
303.805
303.806
303.808
303.81
303.811
303.813
303.814
303.816
303.817
303.818
303.819
303.82
303.805
303.807
303.808
303.81
303.812
303.814
303.815
303.817
303.818
303.82
303.821
303.822
303.823
303.824
303.808
303.81
303.812
303.814
303.816
303.817
303.819
303.82
303.822
303.823
303.825
303.826
303.827
303.827
303.812
303.814
303.815
303.817
303.819
303.821
303.822
303.824
303.826
303.827
303.828
303.829
303.83
303.831
303.815
303.817
303.819
303.821
303.823
303.824
303.826
303.827
303.829
303.83
303.832
303.833
303.834
303.835
303.486
303.486
303.486
303.486
303.486
303.486
303.486
303.486
303.486
303.486
303.486
303.487
303.487
303.488
303.488
303.488
303.488
303.488
303.487
303.487
303.487
303.487
303.488
303.488
303.488
303.489
303.489
303.49
303.49
303.489
303.489
303.489
303.489
303.489
303.489
303.489
303.489
303.49
303.49
303.491
303.491
303.492
303.491
303.491
303.491
303.491
303.491
303.491
303.491
303.491
303.491
303.492
303.492
303.493
303.493
303.494
303.493
303.493
303.493
303.493
303.493
303.493
303.493
303.493
303.493
303.494
303.494
303.495
303.495
303.496
303.495
303.495
303.495
303.495
303.495
303.495
303.495
303.495
303.495
303.496
303.496
303.497
303.498
303.498
303.498
303.497
303.497
303.497
303.497
303.497
303.497
303.497
303.498
303.498
303.499
303.499
303.5
303.5
303.5
303.5
303.499
303.499
303.499
303.499
303.499
303.5
303.5
303.5
303.501
303.501
303.502
303.502
303.502
303.502
303.502
303.502
303.502
303.502
303.502
303.502
303.502
303.503
303.503
303.504
303.504
303.505
303.505
303.505
303.504
303.504
303.504
303.504
303.504
303.505
303.505
303.505
303.506
303.506
303.507
303.507
303.507
303.507
303.507
303.507
303.507
303.507
303.507
303.507
303.507
303.508
303.508
303.509
303.509
303.509
303.509
303.51
303.509
303.509
303.509
303.509
303.51
303.51
303.51
303.51
303.511
303.511
303.512
303.511
303.512
303.512
303.512
303.512
303.512
303.512
303.512
303.513
303.513
303.513
303.513
303.514
303.514
303.514
303.515
303.515
303.515
303.515
303.515
303.515
303.515
303.515
303.516
303.516
303.516
303.516
303.517
303.517
303.232
303.231
303.23
303.229
303.228
303.227
303.227
303.226
303.226
303.225
303.225
303.225
303.225
303.225
303.232
303.231
303.23
303.229
303.228
303.227
303.227
303.226
303.225
303.225
303.225
303.225
303.225
303.226
303.232
303.231
303.23
303.229
303.228
303.227
303.226
303.226
303.226
303.225
303.225
303.225
303.226
303.226
303.232
303.231
303.23
303.229
303.228
303.227
303.227
303.226
303.226
303.226
303.225
303.226
303.226
303.226
303.232
303.231
303.23
303.229
303.228
303.227
303.227
303.226
303.226
303.226
303.226
303.226
303.226
303.227
303.233
303.232
303.23
303.229
303.229
303.228
303.227
303.227
303.226
303.226
303.226
303.226
303.227
303.227
303.233
303.232
303.231
303.23
303.229
303.228
303.228
303.227
303.227
303.227
303.227
303.227
303.227
303.228
303.234
303.233
303.232
303.231
303.23
303.229
303.228
303.228
303.228
303.227
303.227
303.228
303.228
303.228
303.235
303.234
303.233
303.232
303.231
303.23
303.229
303.229
303.229
303.228
303.228
303.228
303.229
303.229
303.236
303.235
303.234
303.233
303.232
303.231
303.23
303.23
303.23
303.229
303.229
303.229
303.229
303.23
303.237
303.236
303.235
303.234
303.233
303.232
303.232
303.231
303.231
303.231
303.23
303.23
303.231
303.231
303.239
303.237
303.236
303.235
303.234
303.234
303.233
303.232
303.232
303.232
303.232
303.232
303.232
303.232
303.24
303.239
303.238
303.237
303.236
303.235
303.234
303.234
303.234
303.233
303.233
303.233
303.233
303.233
303.241
303.24
303.239
303.238
303.237
303.237
303.236
303.235
303.235
303.235
303.235
303.234
303.234
303.234
303.002
303.001
303.001
303
302.999
302.998
302.997
302.997
302.996
302.996
302.995
302.995
302.995
302.995
303.002
303.001
303
302.999
302.998
302.997
302.997
302.996
302.995
302.995
302.995
302.994
302.994
302.994
303.001
303
302.999
302.998
302.997
302.996
302.996
302.995
302.995
302.994
302.994
302.994
302.994
302.994
303
302.999
302.998
302.998
302.997
302.996
302.995
302.995
302.994
302.994
302.993
302.993
302.993
302.993
303
302.999
302.998
302.997
302.996
302.995
302.995
302.994
302.994
302.993
302.993
302.993
302.993
302.993
303
302.999
302.998
302.997
302.996
302.995
302.994
302.994
302.993
302.993
302.992
302.992
302.992
302.992
303
302.998
302.997
302.996
302.995
302.995
302.994
302.993
302.993
302.992
302.992
302.992
302.992
302.992
303
302.998
302.997
302.996
302.995
302.994
302.994
302.993
302.992
302.992
302.992
302.992
302.992
302.992
303
302.998
302.997
302.996
302.995
302.994
302.994
302.993
302.992
302.992
302.992
302.992
302.992
302.992
303
302.998
302.997
302.996
302.995
302.994
302.994
302.993
302.992
302.992
302.992
302.992
302.992
302.992
303
302.999
302.997
302.996
302.995
302.994
302.994
302.993
302.993
302.992
302.992
302.992
302.992
302.992
303
302.999
302.998
302.997
302.996
302.995
302.994
302.993
302.993
302.992
302.992
302.992
302.992
302.992
303
302.999
302.998
302.997
302.996
302.995
302.994
302.994
302.993
302.993
302.992
302.992
302.992
302.992
303
302.999
302.998
302.997
302.996
302.995
302.995
302.994
302.994
302.993
302.993
302.992
302.992
302.992
302.796
302.796
302.796
302.795
302.795
302.795
302.794
302.794
302.794
302.793
302.793
302.792
302.792
302.791
302.796
302.796
302.795
302.795
302.795
302.794
302.794
302.793
302.793
302.793
302.792
302.792
302.791
302.791
302.796
302.795
302.795
302.794
302.794
302.794
302.793
302.793
302.792
302.792
302.792
302.791
302.791
302.79
302.795
302.795
302.794
302.794
302.794
302.793
302.793
302.792
302.792
302.792
302.791
302.791
302.79
302.79
302.795
302.794
302.794
302.793
302.793
302.793
302.792
302.792
302.791
302.791
302.791
302.79
302.79
302.789
302.794
302.794
302.793
302.793
302.793
302.792
302.792
302.791
302.791
302.79
302.79
302.79
302.789
302.789
302.794
302.793
302.793
302.793
302.792
302.792
302.791
302.791
302.79
302.79
302.79
302.789
302.789
302.789
302.793
302.793
302.793
302.792
302.792
302.791
302.791
302.79
302.79
302.789
302.789
302.789
302.788
302.788
302.793
302.793
302.792
302.792
302.791
302.791
302.79
302.79
302.789
302.789
302.789
302.788
302.788
302.788
302.793
302.792
302.792
302.791
302.791
302.79
302.79
302.789
302.789
302.789
302.788
302.788
302.788
302.787
302.792
302.792
302.791
302.791
302.79
302.79
302.789
302.789
302.788
302.788
302.788
302.787
302.787
302.787
302.792
302.791
302.791
302.79
302.79
302.789
302.789
302.788
302.788
302.788
302.787
302.787
302.787
302.786
302.791
302.791
302.79
302.79
302.789
302.789
302.788
302.788
302.788
302.787
302.787
302.786
302.786
302.786
302.791
302.79
302.79
302.789
302.789
302.789
302.788
302.788
302.787
302.787
302.786
302.786
302.786
302.785
302.611
302.612
302.612
302.612
302.612
302.612
302.612
302.612
302.612
302.612
302.611
302.611
302.61
302.609
302.611
302.612
302.612
302.612
302.613
302.613
302.613
302.612
302.612
302.612
302.611
302.611
302.61
302.609
302.612
302.612
302.612
302.613
302.613
302.613
302.613
302.613
302.612
302.612
302.611
302.611
302.61
302.609
302.612
302.612
302.612
302.613
302.613
302.613
302.613
302.613
302.612
302.612
302.612
302.611
302.61
302.609
302.612
302.612
302.612
302.613
302.613
302.613
302.613
302.613
302.612
302.612
302.611
302.611
302.61
302.609
302.612
302.612
302.612
302.613
302.613
302.613
302.613
302.613
302.612
302.612
302.611
302.611
302.61
302.609
302.611
302.612
302.612
302.612
302.612
302.612
302.612
302.612
302.612
302.612
302.611
302.611
302.61
302.609
302.611
302.611
302.612
302.612
302.612
302.612
302.612
302.612
302.612
302.611
302.611
302.61
302.61
302.609
302.61
302.611
302.611
302.611
302.612
302.612
302.612
302.611
302.611
302.611
302.61
302.61
302.609
302.608
302.61
302.61
302.611
302.611
302.611
302.611
302.611
302.611
302.611
302.61
302.61
302.609
302.609
302.608
302.609
302.61
302.61
302.61
302.61
302.61
302.61
302.61
302.61
302.61
302.609
302.609
302.608
302.607
302.609
302.609
302.609
302.609
302.61
302.61
302.61
302.609
302.609
302.609
302.608
302.608
302.607
302.607
302.608
302.608
302.608
302.609
302.609
302.609
302.609
302.609
302.608
302.608
302.608
302.607
302.607
302.606
302.607
302.607
302.608
302.608
302.608
302.608
302.608
302.608
302.607
302.607
302.607
302.606
302.606
302.605
306.623
306.602
306.58
306.559
306.54
306.522
306.63
306.615
306.597
306.581
306.565
306.551
306.484
306.472
306.461
306.452
306.444
306.435
306.479
306.464
306.45
306.437
306.425
306.414
306.473
306.457
306.44
306.425
306.411
306.397
306.47
306.451
306.433
306.416
306.4
306.385
306.468
306.447
306.428
306.41
306.394
306.379
306.467
306.445
306.425
306.408
306.391
306.377
306.467
306.445
306.425
306.407
306.392
306.378
306.468
306.446
306.426
306.41
306.395
306.383
306.469
306.448
306.429
306.414
306.401
306.39
306.471
306.451
306.434
306.42
306.407
306.397
306.473
306.455
306.44
306.426
306.415
306.406
306.476
306.461
306.447
306.435
306.424
306.415
306.481
306.467
306.455
306.444
306.435
306.426
306.485
306.474
306.463
306.454
306.446
306.439
306.443
306.44
306.436
306.434
306.432
306.429
306.433
306.428
306.422
306.417
306.412
306.407
306.425
306.417
306.41
306.403
306.396
306.389
306.417
306.408
306.399
306.39
306.382
306.374
306.411
306.4
306.39
306.381
306.372
306.363
306.406
306.394
306.384
306.374
306.365
306.357
306.401
306.389
306.379
306.37
306.362
306.354