/*--------------------------------*- C++ -*----------------------------------*\
| =========                 |                                                 |
| \\      /  F ield         | OpenFOAM: The Open Source CFD Toolbox           |
|  \\    /   O peration     | Version:  v2106                                 |
|   \\  /    A nd           | Website:  www.openfoam.com                      |
|    \\/     M anipulation  |                                                 |
\*---------------------------------------------------------------------------*/
FoamFile
{
    version     2.0;
    format      ascii;
    arch        "LSB;label=32;scalar=64";
    class       volScalarField;
    location    "0.000158";
    object      k;
}
// * * * * * * * * * * * * * * * * * * * * * * * * * * * * * * * * * * * * * //

dimensions      [0 2 -2 0 0 0 0];

internalField   nonuniform List<scalar> 
18109
(
0.197192
0.0533729
0.0108316
0.00257152
0.00143527
0.0014316
0.00185621
0.146618
0.0319659
0.00410652
0.000452575
0.00012787
0.000132054
0.000202895
0.108623
0.0204896
0.00235234
0.0002477
3.6092e-05
1.06841e-05
1.34549e-05
0.0810296
0.0150109
0.00214052
0.000313111
5.02139e-05
7.02991e-06
1.1828e-06
0.0583249
0.0117454
0.00212294
0.000365943
5.87285e-05
7.9927e-06
9.21519e-07
0.0446023
0.0102607
0.00213593
0.00037711
5.74208e-05
7.89762e-06
1.22628e-06
0.0385399
0.0102378
0.00224076
0.000380175
5.72689e-05
1.01424e-05
4.27884e-06
0.040403
0.011493
0.00245814
0.000407633
7.46629e-05
2.73592e-05
2.38233e-05
0.0825416
0.0197061
0.00320761
0.000529543
0.000254118
0.000271196
0.000368297
0.000524986
0.000767119
0.00118546
0.00201527
0.00375718
0.00752586
0.0161714
0.0547984
0.0106714
0.00121674
0.000102088
1.9434e-05
1.92864e-05
3.19473e-05
5.28179e-05
8.21649e-05
0.000128773
0.000233095
0.00054141
0.00164572
0.00596699
0.0373277
0.00665679
0.000779684
7.92736e-05
1.01518e-05
1.85391e-06
1.6928e-06
3.15065e-06
5.55867e-06
1.03155e-05
3.01455e-05
0.000137387
0.000675463
0.00298173
0.0263667
0.00499446
0.000755331
0.000107381
1.49754e-05
1.80115e-06
2.10661e-07
1.08315e-07
2.69514e-07
1.31588e-06
9.04351e-06
5.87847e-05
0.000325659
0.00150022
0.0191714
0.00406234
0.000759104
0.000125669
1.74333e-05
2.04349e-06
2.00303e-07
2.41411e-08
5.24181e-08
4.77174e-07
4.01836e-06
2.81256e-05
0.000162879
0.000784044
0.0154681
0.00371052
0.000775822
0.000130832
1.70186e-05
1.95968e-06
2.47948e-07
8.83478e-08
9.67783e-08
3.41407e-07
2.51273e-06
1.80547e-05
0.000109956
0.000563168
0.0146594
0.00389275
0.000833574
0.000134081
1.67487e-05
2.37555e-06
8.54099e-07
7.40338e-07
7.52001e-07
9.88431e-07
3.10209e-06
1.86176e-05
0.000114628
0.000610699
0.0165864
0.00451327
0.000928701
0.000141532
2.00759e-05
6.22489e-06
5.25818e-06
5.42305e-06
5.59069e-06
6.21882e-06
9.94768e-06
3.39369e-05
0.000179384
0.000926816
0.0204328
0.0053595
0.0010577
0.000172339
4.21956e-05
2.88304e-05
3.02341e-05
3.21425e-05
3.37903e-05
3.73947e-05
4.8896e-05
0.000101565
0.000389447
0.00178833
0.0257061
0.00659997
0.00141624
0.000338034
0.000157108
0.000139435
0.000147954
0.000158227
0.00016955
0.000191028
0.000237034
0.000380134
0.00105963
0.00410601
0.0337587
0.0100278
0.00307352
0.00117562
0.000695815
0.000611642
0.000622747
0.000661727
0.000720387
0.000828832
0.00101773
0.00143491
0.00311388
0.0100493
0.0564094
0.0245731
0.0107001
0.00504862
0.00301527
0.00241823
0.00230489
0.00239608
0.00262705
0.00307634
0.00380455
0.00503042
0.00897432
0.024086
0.12688
0.0711109
0.0379569
0.0203294
0.0119506
0.00867402
0.00762511
0.00762151
0.0083117
0.00983602
0.0123824
0.0160147
0.0244943
0.0534264
0.279101
0.183871
0.115256
0.0698452
0.0422706
0.0285246
0.0228976
0.0215635
0.0229404
0.0270129
0.0346823
0.0451878
0.0623704
0.107273
0.278415
0.464677
0.863415
1.49401
2.30525
3.18962
0.114772
0.219392
0.467523
0.915974
1.57113
2.32369
0.0358518
0.0980059
0.274359
0.626249
1.15171
1.78622
0.0105138
0.0473751
0.161643
0.40397
0.788077
1.3093
0.00419538
0.0243865
0.093588
0.255168
0.539132
0.978275
0.00252582
0.0154333
0.0628859
0.182578
0.414392
0.818981
0.00228384
0.0132464
0.0531153
0.157102
0.377008
0.817541
0.00268968
0.0144375
0.0553026
0.164815
0.422575
1.02918
0.00348745
0.0176246
0.0664343
0.205413
0.570199
1.49251
0.00488458
0.0238108
0.0906717
0.292678
0.837486
2.1272
0.00741536
0.0351834
0.133675
0.424246
1.14405
2.61554
0.0121629
0.0540538
0.194204
0.567065
1.35555
2.70983
0.0210412
0.0829138
0.260917
0.657815
1.37422
2.43478
0.0365713
0.119558
0.316264
0.689376
1.28019
2.06323
0.0653495
0.165802
0.36227
0.688129
1.15926
1.74226
0.0315382
0.0939504
0.239907
0.510407
0.915881
1.41232
0.0210876
0.0626098
0.162137
0.357004
0.670573
1.08962
0.0110471
0.0346716
0.0952332
0.224176
0.454325
0.807771
0.00573681
0.0193084
0.0566902
0.143927
0.318123
0.613493
0.00318232
0.0118393
0.0382103
0.105819
0.251925
0.519896
0.00245627
0.00991924
0.0339571
0.0982785
0.244217
0.540133
0.00275379
0.0114331
0.0396878
0.117503
0.30773
0.747238
0.00409405
0.0168106
0.0585066
0.177968
0.488697
1.22897
0.00740926
0.0294217
0.101119
0.305661
0.817921
1.9217
0.0153918
0.0567144
0.182362
0.508445
1.22286
2.52697
0.0334549
0.109557
0.308419
0.742851
1.54081
2.75957
0.0707172
0.193259
0.455478
0.932102
1.6727
2.64392
0.135175
0.30177
0.597012
1.05348
1.67483
2.4072
0.237688
0.434176
0.732746
1.14005
1.64654
2.21927
0.182068
0.359821
0.63949
1.02377
1.49217
2.00219
0.145798
0.292726
0.526278
0.851968
1.26076
1.74042
0.110597
0.226077
0.413383
0.686024
1.05534
1.53352
0.083046
0.174549
0.329228
0.570836
0.928904
1.47622
0.064417
0.142152
0.284016
0.528574
0.956347
1.78666
0.0564568
0.132372
0.284356
0.590148
1.25467
2.7399
0.0556008
0.141217
0.341824
0.825072
1.96329
4.3929
0.0637534
0.180656
0.494424
1.28339
3.0076
6.11997
0.0865059
0.263004
0.737706
1.8297
3.92527
7.17403
0.13093
0.383435
0.995446
2.22153
4.28723
7.13923
0.199664
0.516196
1.18146
2.3512
4.10066
6.29622
0.287925
0.636493
1.27612
2.28552
3.6484
5.22184
0.395781
0.747014
1.32115
2.1409
3.18782
4.37752
0.525556
0.862431
1.37085
2.05144
2.8631
3.76724
0.291326
0.831489
1.95238
3.76594
6.13241
8.92257
0.346642
0.853581
1.8142
3.25916
5.00154
6.9302
0.404782
0.859361
1.63943
2.75088
4.02886
5.33833
0.468578
0.861538
1.49109
2.31063
3.24385
4.21657
0.328469
0.562922
1.02404
1.65724
2.38693
3.18953
0.185191
0.405664
0.809375
1.36181
2.01277
2.73669
0.129759
0.315853
0.622306
1.04532
1.59729
2.31752
0.0998651
0.238816
0.472075
0.828276
1.35519
2.19337
0.0769539
0.185645
0.384956
0.730398
1.35204
2.64618
0.0596649
0.15231
0.34759
0.761075
1.7006
3.93034
0.0501902
0.143622
0.379276
0.980759
2.49756
5.84219
0.0493931
0.162737
0.495525
1.40268
3.52027
7.51204
0.0587143
0.212494
0.682401
1.88347
4.34728
8.35442
0.0767454
0.275955
0.849908
2.1514
4.51634
8.015
0.103233
0.337177
0.933579
2.1291
4.09424
6.76953
0.13392
0.377773
0.925102
1.92203
3.43411
5.29957
0.170301
0.405679
0.87775
1.66833
2.78855
4.05317
0.218456
0.438762
0.839702
1.4503
2.26358
3.14847
3.17539
4.31363
5.96444
9.57106
11.7078
2.5538
3.59358
5.37754
9.9084
12.6775
2.0413
3.08893
5.50466
11.3281
14.127
1.66059
2.92941
6.70311
14.2599
16.484
1.51603
3.43685
9.18759
17.4688
18.3828
1.74467
4.9398
12.5446
19.002
18.8392
2.48632
7.27376
15.1837
18.9309
18.5438
3.59931
9.43449
16.1267
18.1373
18.5579
19.7864
4.657
10.4671
15.5044
16.6246
17.5938
20.0712
5.02154
9.89551
13.5472
14.4999
15.8495
19.3005
4.62546
8.41438
11.4563
12.7185
13.9798
17.8842
23.4288
3.76945
6.60868
9.35663
11.2741
12.2679
15.2741
25.42
27.3447
2.92978
5.02136
7.47603
10.0227
11.1303
11.2283
23.0499
62.5576
2.32122
3.92119
6.12707
9.04458
11.1731
9.58952
9.875
41.6436
1.87642
3.26484
5.35038
8.39157
11.1923
10.367
10.0178
41.1288
1.54746
2.73864
4.6044
7.77789
10.9551
11.0321
11.011
35.7375
1.25505
2.29277
4.0601
7.76314
11.3183
12.1982
12.0565
30.259
1.02448
2.00725
4.11837
8.92624
13.0497
14.3338
13.342
23.0043
0.94755
2.14057
5.07605
10.9248
15.1198
16.3968
15.1734
21.2343
1.11464
2.98778
7.30147
12.9649
16.3212
17.7227
16.9448
19.7891
1.72286
4.77495
10.1042
14.5476
16.659
18.7637
18.8293
17.3566
2.77276
6.86634
12.042
14.8303
16.6387
20.1007
21.334
14.5526
3.88209
8.22906
12.2842
13.7236
15.6892
20.4556
4.46658
8.20792
10.9394
11.7931
13.82
19.8147
4.31378
7.23374
9.34271
10.3182
11.9629
18.6303
3.74419
6.00701
8.04947
9.68416
10.6697
16.0625
3.1633
4.98815
7.01997
9.52938
10.4749
12.6726
2.77723
4.33657
6.4612
9.7609
11.6315
2.49015
3.96229
6.32224
10.6006
13.3902
2.23513
3.72401
6.73243
12.1543
14.9722
2.11829
3.9514
8.50905
14.5979
16.8381
2.37869
5.39438
12.124
17.9109
19.2196
3.47905
8.66852
16.3797
19.9993
20.627
5.70681
12.9377
19.059
19.9535
20.6517
8.50009
15.9689
18.9301
18.2761
20.1093
10.4372
16.1986
16.8954
16.2116
19.6933
10.9213
14.8917
14.5522
14.0792
18.3442
9.94381
12.6781
12.3144
12.3134
16.4303
8.22018
10.352
10.8328
11.4122
14.159
6.48229
8.2078
9.56655
11.2542
12.3616
5.21184
6.57015
8.15767
11.3853
12.0661
4.42462
5.54271
7.47379
12.0302
13.3293
3.90976
4.93819
7.87693
13.7169
15.4804
3.51236
4.87601
9.84281
16.4198
17.3691
3.29296
6.01061
13.9803
19.8514
19.1114
3.74831
9.05639
19.7415
23.0413
20.871
5.52355
14.2416
23.8569
23.8338
21.5002
8.57922
19.2239
24.5332
22.3216
21.0124
11.5676
20.8831
22.1851
19.94
20.4212
13.12
19.9169
19.4642
18.0282
20.3346
13.2425
18.0614
16.9565
16.099
19.1276
11.7935
15.4102
14.662
14.2789
17.1256
9.52144
12.4351
12.9006
12.9376
14.6088
7.09594
9.30217
10.9443
11.8576
12.1432
5.18058
6.81977
8.70435
10.8498
10.7648
3.96606
5.25162
6.98109
9.97028
10.8801
0.0308105
0.00672923
0.000978244
0.000115106
3.74142e-05
3.87031e-05
5.26195e-05
7.19172e-05
9.34855e-05
0.000119102
0.000170658
0.000333249
0.000905739
0.00304317
0.0160888
0.00296389
0.00034609
2.90846e-05
3.43996e-06
2.16644e-06
3.53402e-06
5.7978e-06
8.44514e-06
1.1107e-05
1.77888e-05
5.54718e-05
0.000279274
0.00148824
0.00928627
0.00173983
0.000246974
3.05805e-05
3.71804e-06
4.68566e-07
1.71004e-07
2.72177e-07
4.67003e-07
8.5276e-07
3.3448e-06
2.29241e-05
0.000150024
0.000823575
0.0065009
0.00141158
0.000263062
4.23334e-05
5.71977e-06
6.31431e-07
5.76634e-08
1.08035e-08
1.98344e-08
1.3305e-07
1.28299e-06
1.08527e-05
7.48696e-05
0.000420006
0.00529789
0.00130604
0.000281778
5.03206e-05
6.91772e-06
7.30318e-07
6.26629e-08
5.62306e-09
5.32931e-09
5.5104e-08
5.95363e-07
5.22246e-06
3.69761e-05
0.000213085
0.00498409
0.00132865
0.000301121
5.34266e-05
6.91589e-06
6.90629e-07
6.9819e-08
1.8945e-08
1.64046e-08
4.21227e-08
3.48044e-07
3.03926e-06
2.19437e-05
0.000129873
0.00556377
0.0015297
0.000337767
5.65233e-05
6.86983e-06
7.59674e-07
2.04708e-07
1.63793e-07
1.57332e-07
1.66359e-07
3.88294e-07
2.42289e-06
1.71278e-05
0.000104283
0.006973
0.00186052
0.000383919
5.95825e-05
7.3432e-06
1.63171e-06
1.28367e-06
1.30164e-06
1.30254e-06
1.29088e-06
1.54777e-06
3.79564e-06
2.01405e-05
0.000119316
0.00895737
0.00225512
0.000439969
6.77346e-05
1.22177e-05
7.33257e-06
7.91632e-06
8.40841e-06
8.68687e-06
8.88165e-06
9.75601e-06
1.37873e-05
3.98134e-05
0.000192445
0.0115446
0.00278644
0.000545471
0.000101873
3.9027e-05
3.68088e-05
4.14579e-05
4.49153e-05
4.78258e-05
5.08697e-05
5.65414e-05
6.80457e-05
0.000125631
0.000444005
0.0151932
0.00385462
0.000889697
0.000263794
0.000164685
0.000166658
0.000184829
0.000202466
0.000221803
0.00024531
0.000280827
0.000326624
0.000488009
0.00132863
0.0247259
0.00801746
0.00258037
0.00103469
0.000691204
0.000664741
0.000712833
0.000782648
0.000878267
0.0010061
0.00119257
0.00140043
0.00188908
0.00415767
0.054561
0.0237558
0.00960643
0.00425949
0.00265772
0.00234359
0.00240925
0.00262912
0.00300353
0.00354168
0.00435659
0.00527636
0.00681002
0.0124264
0.131289
0.0690735
0.0331333
0.0159306
0.00926012
0.0073689
0.007197
0.00773948
0.00891947
0.0107184
0.0136604
0.0172405
0.0221434
0.0344508
0.00376646
0.000728698
0.000111382
1.86572e-05
7.08174e-06
6.56696e-06
8.47754e-06
1.01952e-05
1.1722e-05
1.21972e-05
1.16986e-05
1.48362e-05
4.38092e-05
0.00023203
0.00160093
0.000286903
4.04525e-05
4.84907e-06
6.61703e-07
3.4398e-07
5.25878e-07
7.69256e-07
1.00692e-06
1.10981e-06
1.14931e-06
3.1241e-06
2.21288e-05
0.000162766
0.00105817
0.000226788
4.166e-05
6.70818e-06
9.07098e-07
1.03379e-07
2.65431e-08
3.50462e-08
5.32224e-08
7.44289e-08
2.05944e-07
1.75904e-06
1.53981e-05
0.000110505
0.00103878
0.000255934
5.43495e-05
9.89375e-06
1.44273e-06
1.53514e-07
1.27065e-08
1.89161e-09
2.04392e-09
7.94883e-09
9.19159e-08
1.05203e-06
9.55029e-06
6.84471e-05
0.00110599
0.000289356
6.57104e-05
1.24543e-05
1.82686e-06
1.88707e-07
1.42687e-08
9.74471e-10
3.5043e-10
3.43937e-09
5.13294e-08
6.05967e-07
5.56107e-06
4.0209e-05
0.00123126
0.0003285
7.41456e-05
1.35487e-05
1.8776e-06
1.8251e-07
1.42412e-08
2.14147e-09
1.37246e-09
2.91135e-09
3.1508e-08
3.70851e-07
3.44683e-06
2.53196e-05
0.00150213
0.000396208
8.57952e-05
1.47596e-05
1.91517e-06
1.84972e-07
2.80897e-08
1.7356e-08
1.54453e-08
1.42481e-08
3.14871e-08
2.60622e-07
2.37023e-06
1.76579e-05
0.00194009
0.000489997
9.94551e-05
1.58904e-05
1.9641e-06
2.79139e-07
1.61057e-07
1.54038e-07
1.45789e-07
1.30709e-07
1.30275e-07
2.99884e-07
1.96737e-06
1.44432e-05
0.00250067
0.000600567
0.000115079
1.76121e-05
2.54743e-06
1.03606e-06
1.09764e-06
1.13111e-06
1.11081e-06
1.04048e-06
9.83333e-07
1.11261e-06
2.79917e-06
1.60188e-05
0.00325844
0.00074533
0.0001376
2.22972e-05
6.06977e-06
5.45034e-06
6.47606e-06
6.87856e-06
6.99216e-06
6.87243e-06
6.74493e-06
6.76866e-06
8.85256e-06
2.73466e-05
0.00414132
0.000920637
0.000175858
3.94496e-05
2.3562e-05
2.69882e-05
3.24203e-05
3.52403e-05
3.70484e-05
3.81999e-05
3.92716e-05
3.95438e-05
4.32027e-05
8.42264e-05
0.0057034
0.00138962
0.000324673
0.000117378
0.000100133
0.000117461
0.000139327
0.000154211
0.000167294
0.000180541
0.000194532
0.000202241
0.000213698
0.000332781
0.0100528
0.00313531
0.000950479
0.00043861
0.00039127
0.000447006
0.000520034
0.000583551
0.000651181
0.000732049
0.00082551
0.000897664
0.000964285
0.00129723
0.0244779
0.00938768
0.00341766
0.00163881
0.00135456
0.00148663
0.00169788
0.00192475
0.00219824
0.0025543
0.00300538
0.00344293
0.00388005
0.00474928
0.000326937
6.13962e-05
1.2228e-05
3.75459e-06
1.9282e-06
1.48857e-06
1.68482e-06
1.85124e-06
1.92593e-06
1.77192e-06
1.33342e-06
1.06677e-06
2.21279e-06
1.47017e-05
0.000144174
2.71071e-05
4.47839e-06
6.94184e-07
1.34616e-07
7.22973e-08
1.00598e-07
1.37665e-07
1.67575e-07
1.72292e-07
1.34896e-07
1.95312e-07
1.4025e-06
1.26974e-05
0.000140363
3.24657e-05
6.56768e-06
1.16775e-06
1.77447e-07
2.28125e-08
5.30346e-09
6.37981e-09
9.18106e-09
1.12506e-08
1.49484e-08
1.02038e-07
1.12129e-06
1.00568e-05
0.000178194
4.4672e-05
9.83555e-06
1.87059e-06
2.93338e-07
3.5459e-08
3.10617e-09
4.3421e-10
4.21764e-10
6.82903e-10
4.56049e-09
6.6526e-08
7.91595e-07
7.21296e-06
0.000219083
5.69411e-05
1.29199e-05
2.47555e-06
3.82425e-07
4.48222e-08
3.62773e-09
2.20884e-10
4.02503e-11
1.49929e-10
2.69911e-09
4.36643e-08
5.30219e-07
4.90266e-06
0.000265969
6.86507e-05
1.51687e-05
2.77877e-06
4.05836e-07
4.49161e-08
3.53673e-09
3.01826e-10
1.1333e-10
1.49507e-10
1.75911e-09
2.87226e-08
3.56714e-07
3.36921e-06
0.000341817
8.6035e-05
1.8127e-05
3.11974e-06
4.24851e-07
4.46304e-08
4.5835e-09
1.67153e-09
1.33959e-09
1.10024e-09
1.96386e-09
2.06213e-08
2.51351e-07
2.40021e-06
0.000448249
0.000107826
2.13675e-05
3.42911e-06
4.39726e-07
5.32023e-08
1.78132e-08
1.53405e-08
1.3835e-08
1.15745e-08
1.00272e-08
2.17716e-08
1.8453e-07
1.73738e-06
0.000578343
0.000132925
2.49326e-05
3.79481e-06
5.11514e-07
1.37078e-07
1.22772e-07
1.23859e-07
1.16921e-07
1.02742e-07
8.77304e-08
8.73885e-08
2.11796e-07
1.5302e-06
0.000749646
0.000164389
2.94429e-05
4.49145e-06
9.37556e-07
6.84884e-07
7.98269e-07
8.39092e-07
8.23125e-07
7.59097e-07
6.80987e-07
6.22644e-07
6.74153e-07
1.9648e-06
0.000924367
0.000194206
3.44812e-05
6.46001e-06
3.17614e-06
3.65086e-06
4.46545e-06
4.82353e-06
4.90796e-06
4.74219e-06
4.47431e-06
4.16188e-06
3.91453e-06
5.89523e-06
0.001165
0.000246434
4.87983e-05
1.53234e-05
1.37746e-05
1.74802e-05
2.15153e-05
2.37892e-05
2.50439e-05
2.52951e-05
2.50139e-05
2.40409e-05
2.26124e-05
2.74467e-05
0.0016448
0.000409548
0.000106258
5.29251e-05
5.7464e-05
7.35119e-05
9.01095e-05
0.000101686
0.000110454
0.000116331
0.000120248
0.000120318
0.000116593
0.00012891
0.00337459
0.00105672
0.000337475
0.000194481
0.000213826
0.000271126
0.000330378
0.000379458
0.000423405
0.000462798
0.000498613
0.000522211
0.000530563
0.000563083
3.68717e-05
7.36317e-06
1.72238e-06
6.14295e-07
3.45124e-07
2.9866e-07
3.36944e-07
3.74694e-07
3.87471e-07
3.46234e-07
2.4201e-07
1.52144e-07
1.87792e-07
1.22885e-06
1.92654e-05
3.88123e-06
7.05956e-07
1.22783e-07
2.6509e-08
1.52517e-08
2.02127e-08
2.778e-08
3.41895e-08
3.51667e-08
2.64533e-08
2.24914e-08
1.11503e-07
1.13531e-06
2.42193e-05
5.71859e-06
1.19995e-06
2.23381e-07
3.60096e-08
5.10328e-09
1.24736e-09
1.38908e-09
1.99701e-09
2.39953e-09
2.295e-09
7.88161e-09
9.45529e-08
9.94446e-07
3.43242e-05
8.57619e-06
1.90743e-06
3.69006e-07
5.98854e-08
7.79693e-09
7.92946e-10
1.19359e-10
1.14252e-10
1.47927e-10
3.55383e-10
4.87834e-09
7.0663e-08
7.69321e-07
4.51328e-05
1.1505e-05
2.58442e-06
4.95686e-07
7.8481e-08
9.84189e-09
9.2171e-10
6.37907e-11
1.1312e-11
1.59452e-11
1.67137e-10
3.33612e-09
5.03012e-08
5.62489e-07
5.6818e-05
1.41565e-05
3.05503e-06
5.56376e-07
8.31297e-08
9.83971e-09
8.82373e-10
6.81964e-11
1.63785e-11
1.42792e-11
1.09037e-10
2.23921e-09
3.50694e-08
4.06389e-07
7.37313e-05
1.76739e-05
3.60359e-06
6.13438e-07
8.52069e-08
9.46699e-09
9.43701e-10
2.25015e-10
1.57534e-10
1.21397e-10
1.54611e-10
1.64494e-09
2.5295e-08
2.98502e-07
9.62269e-05
2.19465e-05
4.19863e-06
6.65528e-07
8.65582e-08
1.02455e-08
2.56284e-09
1.93313e-09
1.67532e-09
1.35068e-09
1.0612e-09
1.90764e-09
1.84398e-08
2.1481e-07
0.000122051
2.65685e-05
4.80373e-06
7.18621e-07
9.48768e-08
2.13439e-08
1.66677e-08
1.641e-08
1.50167e-08
1.27507e-08
1.02308e-08
9.3315e-09
2.03743e-08
1.73207e-07
0.000155479
3.23349e-05
5.57283e-06
8.22752e-07
1.555e-07
1.01261e-07
1.14683e-07
1.19081e-07
1.13332e-07
1.00923e-07
8.55251e-08
7.44462e-08
7.14484e-08
1.97897e-07
0.00018751
3.74839e-05
6.3466e-06
1.10232e-06
4.95051e-07
5.66651e-07
6.89982e-07
7.37816e-07
7.28779e-07
6.78554e-07
6.05537e-07
5.39332e-07
4.64107e-07
6.07568e-07
0.000223953
4.42988e-05
8.14722e-06
2.39564e-06
2.21459e-06
2.91107e-06
3.60024e-06
3.94605e-06
4.03315e-06
3.91123e-06
3.65478e-06
3.35395e-06
2.91361e-06
3.15041e-06
0.000286236
6.36621e-05
1.53184e-05
8.14544e-06
9.79381e-06
1.31814e-05
1.63655e-05
1.83518e-05
1.93736e-05
1.95234e-05
1.90287e-05
1.80639e-05
1.61979e-05
1.63923e-05
0.000501679
0.000140452
4.40761e-05
3.07257e-05
3.90756e-05
5.26503e-05
6.53418e-05
7.47373e-05
8.11614e-05
8.46581e-05
8.57157e-05
8.44537e-05
7.91958e-05
7.83884e-05
4.61975e-06
9.28159e-07
2.23227e-07
8.46253e-08
5.62081e-08
5.62437e-08
6.74857e-08
7.77924e-08
8.24663e-08
7.41963e-08
5.1348e-08
2.89607e-08
2.06477e-08
9.87479e-08
3.0175e-06
6.37293e-07
1.22152e-07
2.22693e-08
5.03523e-09
3.12424e-09
4.28266e-09
5.99329e-09
7.53433e-09
7.82893e-09
5.94542e-09
3.84009e-09
9.13471e-09
9.38953e-08
4.46684e-06
1.06801e-06
2.28106e-07
4.33099e-08
7.16517e-09
1.08147e-09
3.04407e-10
3.374e-10
4.82897e-10
5.78396e-10
5.02752e-10
7.48443e-10
7.56457e-09
8.87344e-08
6.76084e-06
1.69364e-06
3.77828e-07
7.34572e-08
1.20885e-08
1.63661e-09
1.84041e-10
3.38551e-11
3.25028e-11
4.05179e-11
4.91139e-11
3.56268e-10
5.80206e-09
7.23806e-08
9.3418e-06
2.35756e-06
5.24003e-07
1.00142e-07
1.60186e-08
2.08508e-09
2.14179e-10
1.9306e-11
5.13947e-12
5.25814e-12
1.38573e-11
2.4158e-10
4.30059e-09
5.58869e-08
1.20357e-05
2.93769e-06
6.23865e-07
1.13117e-07
1.71215e-08
2.11122e-09
2.07263e-10
1.88496e-11
4.90645e-12
4.00861e-12
9.11409e-12
1.61969e-10
3.04252e-09
4.16559e-08
1.55838e-05
3.62869e-06
7.25557e-07
1.22896e-07
1.73194e-08
2.00091e-09
2.02581e-10
3.64906e-11
2.14016e-11
1.60433e-11
1.53311e-11
1.21078e-10
2.21695e-09
3.12722e-08
2.0049e-05
4.42477e-06
8.30064e-07
1.31108e-07
1.73092e-08
2.03844e-09
3.99844e-10
2.49174e-10
2.04414e-10
1.57282e-10
1.14245e-10
1.60839e-10
1.60534e-09
2.25171e-08
2.48917e-05
5.23239e-06
9.27743e-07
1.38236e-07
1.81464e-08
3.49369e-09
2.27041e-09
2.12588e-09
1.87009e-09
1.5118e-09
1.13913e-09
9.50814e-10
1.79527e-09
1.73392e-08
3.07732e-05
6.17879e-06
1.04463e-06
1.52471e-07
2.66337e-08
1.48901e-08
1.59175e-08
1.60292e-08
1.46747e-08
1.24321e-08
9.90946e-09
8.13082e-09
7.04061e-09
1.82444e-08
3.61988e-05
6.992e-06
1.15514e-06
1.91781e-07
7.72259e-08
8.46082e-08
1.00155e-07
1.04091e-07
9.88425e-08
8.74912e-08
7.34488e-08
6.18793e-08
4.94022e-08
5.66617e-08
4.13452e-05
7.8511e-06
1.38185e-06
3.81513e-07
3.45736e-07
4.54191e-07
5.50701e-07
5.86776e-07
5.76035e-07
5.30484e-07
4.65777e-07
4.03624e-07
3.26675e-07
3.16066e-07
4.91258e-05
1.01753e-05
2.3224e-06
1.26601e-06
1.58916e-06
2.16595e-06
2.65057e-06
2.88975e-06
2.92787e-06
2.79844e-06
2.55834e-06
2.2843e-06
1.90611e-06
1.76238e-06
7.56071e-05
1.94923e-05
6.15944e-06
4.89685e-06
6.67535e-06
9.16998e-06
1.12653e-05
1.25241e-05
1.30405e-05
1.28848e-05
1.22095e-05
1.12553e-05
9.78921e-06
8.95721e-06
5.2217e-07
1.05987e-07
2.59478e-08
1.0465e-08
8.42187e-09
9.74149e-09
1.25573e-08
1.50926e-08
1.6529e-08
1.52036e-08
1.07075e-08
5.8718e-09
2.96603e-09
7.61456e-09
4.3959e-07
9.54118e-08
1.88597e-08
3.55682e-09
8.66354e-10
6.0237e-10
8.62974e-10
1.2344e-09
1.57693e-09
1.6611e-09
1.29164e-09
7.65712e-10
8.27642e-10
7.07296e-09
7.35216e-07
1.75955e-07
3.76426e-08
7.161e-09
1.19409e-09
1.91022e-10
6.67676e-11
8.01875e-11
1.14321e-10
1.36135e-10
1.17455e-10
9.97185e-11
5.66839e-10
7.09778e-09
1.17056e-06
2.91276e-07
6.43588e-08
1.2407e-08
2.0385e-09
2.81969e-10
3.55454e-11
9.59993e-12
9.82501e-12
1.17274e-11
1.1583e-11
2.88388e-11
4.33039e-10
6.05502e-09
1.66086e-06
4.12337e-07
9.00024e-08
1.69731e-08
2.70545e-09
3.59042e-10
4.0526e-11
6.08443e-12
3.37956e-12
3.37735e-12
3.79816e-12
1.8234e-11
3.28548e-10
4.86777e-09
2.14659e-06
5.11976e-07
1.06524e-07
1.90749e-08
2.88462e-09
3.63558e-10
3.92554e-11
5.83402e-12
3.15754e-12
2.9756e-12
3.19764e-12
1.28042e-11
2.34269e-10
3.71593e-09
2.72753e-06
6.16623e-07
1.20575e-07
2.01808e-08
2.84785e-09
3.36575e-10
3.6423e-11
7.45191e-12
4.83444e-12
4.15114e-12
3.83096e-12
1.02817e-11
1.71749e-10
2.84221e-09
3.41703e-06
7.29181e-07
1.33703e-07
2.08827e-08
2.76214e-09
3.25121e-10
5.63515e-11
3.04192e-11
2.40948e-11
1.83324e-11
1.32044e-11
1.46046e-11
1.24759e-10
2.06582e-09
4.12513e-06
8.35892e-07
1.44657e-07
2.12748e-08
2.76121e-09
4.81211e-10
2.70364e-10
2.41024e-10
2.04659e-10
1.58247e-10
1.12638e-10
8.67404e-11
1.42335e-10
1.55099e-09
4.90012e-06
9.47072e-07
1.56115e-07
2.23668e-08
3.70342e-09
1.86396e-09
1.90504e-09
1.86169e-09
1.64347e-09
1.32653e-09
9.94172e-10
7.64129e-10
6.05757e-10
1.52006e-09
5.5302e-06
1.02641e-06
1.64601e-07
2.64099e-08
1.00687e-08
1.07619e-08
1.24621e-08
1.25894e-08
1.15106e-08
9.69427e-09
7.64959e-09
6.05549e-09
4.50859e-09
4.65385e-09
5.98985e-06
1.08824e-06
1.84264e-07
4.97847e-08
4.58531e-08
6.02991e-08
7.18423e-08
7.43754e-08
7.01657e-08
6.13983e-08
5.06362e-08
4.1208e-08
3.11681e-08
2.7382e-08
6.61057e-06
1.28756e-06
2.85781e-07
1.66837e-07
2.20388e-07
3.02425e-07
3.6442e-07
3.85683e-07
3.74789e-07
3.39789e-07
2.91305e-07
2.43649e-07
1.89657e-07
1.61309e-07
9.13649e-06
2.21387e-06
7.33028e-07
6.74218e-07
9.75573e-07
1.35388e-06
1.6401e-06
1.7675e-06
1.76117e-06
1.64765e-06
1.46156e-06
1.25787e-06
1.0172e-06
8.62098e-07
5.49594e-08
1.1458e-08
2.97854e-09
1.37313e-09
1.30787e-09
1.6608e-09
2.22853e-09
2.75478e-09
3.06349e-09
2.85568e-09
2.0426e-09
1.12128e-09
4.9449e-10
6.28621e-10
5.93252e-08
1.30113e-08
2.59954e-09
5.01544e-10
1.37048e-10
1.12743e-10
1.67576e-10
2.40974e-10
3.0661e-10
3.22899e-10
2.54174e-10
1.49152e-10
9.65335e-11
5.18439e-10
1.07798e-07
2.55234e-08
5.39065e-09
1.01501e-09
1.7032e-10
3.06406e-11
1.47964e-11
1.89071e-11
2.60648e-11
3.03665e-11
2.64062e-11
1.87904e-11
4.61377e-11
5.41016e-10
1.77778e-07
4.34706e-08
9.40195e-09
1.77958e-09
2.90487e-10
4.22564e-11
7.64536e-12
4.08312e-12
4.28623e-12
4.71219e-12
4.60777e-12
5.28651e-12
3.41309e-11
4.8274e-10
2.55796e-07
6.19569e-08
1.31666e-08
2.42948e-09
3.83429e-10
5.28501e-11
8.2074e-12
3.33028e-12
2.94153e-12
2.94764e-12
2.97092e-12
3.90304e-12
2.70189e-11
4.07216e-10
3.28262e-07
7.60309e-08
1.53817e-08
2.69598e-09
4.0399e-10
5.29124e-11
7.95376e-12
3.26921e-12
2.882e-12
2.85578e-12
2.86665e-12
3.50195e-12
2.02613e-11
3.2189e-10
4.05313e-07
8.85335e-08
1.68174e-08
2.75717e-09
3.86418e-10
4.77661e-11
7.34932e-12
3.39235e-12
3.0366e-12
2.9598e-12
2.92086e-12
3.33683e-12
1.56333e-11
2.53006e-10
4.89048e-07
1.00433e-07
1.78859e-08
2.73908e-09
3.60399e-10
4.40948e-11
9.07914e-12
5.63403e-12
4.87648e-12
4.25398e-12
3.7331e-12
3.71595e-12
1.20554e-11
1.87085e-10
5.68586e-07
1.10554e-07
1.85668e-08
2.67568e-09
3.43711e-10
5.86383e-11
3.11699e-11
2.69369e-11
2.2527e-11
1.72891e-11
1.24999e-11
9.69153e-12
1.33845e-11
1.38709e-10
6.4597e-07
1.19682e-07
1.91405e-08
2.68187e-09
4.33434e-10
2.09394e-10
2.069e-10
1.96071e-10
1.67263e-10
1.29186e-10
9.23427e-11
6.73817e-11
5.04588e-11
1.25735e-10
6.97218e-07
1.23987e-07
1.92724e-08
3.02544e-09
1.15391e-09
1.22526e-09
1.38558e-09
1.35725e-09
1.19491e-09
9.5812e-10
7.15405e-10
5.33842e-10
3.74176e-10
3.57298e-10
7.1697e-07
1.24644e-07
2.0466e-08
5.6345e-09
5.42502e-09
7.12191e-09
8.30052e-09
8.32727e-09
7.54987e-09
6.28091e-09
4.89312e-09
3.74954e-09
2.66672e-09
2.15617e-09
7.39875e-07
1.36775e-07
3.03161e-08
1.9643e-08
2.72285e-08
3.7303e-08
4.40147e-08
4.5103e-08
4.20418e-08
3.61831e-08
2.92442e-08
2.29771e-08
1.67763e-08
1.32092e-08
9.37242e-07
2.17629e-07
7.83303e-08
8.34596e-08
1.26239e-07
1.7512e-07
2.07878e-07
2.16628e-07
2.06634e-07
1.83243e-07
1.52922e-07
1.23306e-07
9.32064e-08
7.33069e-08
5.41067e-09
1.15351e-09
3.20041e-10
1.73888e-10
1.92543e-10
2.59578e-10
3.56151e-10
4.48692e-10
5.04601e-10
4.75755e-10
3.44818e-10
1.91533e-10
8.23361e-11
6.13524e-11
7.32293e-09
1.60299e-09
3.20567e-10
6.43468e-11
2.13655e-11
2.0593e-11
3.03097e-11
4.2852e-11
5.38973e-11
5.66917e-11
4.53166e-11
2.75166e-11
1.52296e-11
4.0737e-11
1.41345e-08
3.2871e-09
6.80358e-10
1.27249e-10
2.3108e-11
6.41075e-12
4.80796e-12
5.68874e-12
6.93788e-12
7.65166e-12
6.9367e-12
5.41443e-12
6.48389e-12
4.28571e-11
2.3941e-08
5.70885e-09
1.19952e-09
2.22613e-10
3.75607e-11
7.53116e-12
3.43376e-12
3.04148e-12
3.10095e-12
3.17796e-12
3.15264e-12
3.12448e-12
5.18064e-12
4.02836e-11
3.45938e-08
8.12361e-09
1.67087e-09
3.0099e-10
4.843e-11
8.73145e-12
3.46838e-12
2.89858e-12
2.85449e-12
2.85689e-12
2.85783e-12
2.91825e-12
4.68635e-12
3.60417e-11
4.37161e-08
9.78882e-09
1.91668e-09
3.28195e-10
5.01594e-11
8.65386e-12
3.42912e-12
2.88796e-12
2.84264e-12
2.83932e-12
2.83952e-12
2.88415e-12
4.21251e-12
3.02158e-11
5.21574e-08
1.0986e-08
2.02126e-09
3.24422e-10
4.6681e-11
7.90486e-12
3.34183e-12
2.89624e-12
2.85607e-12
2.84795e-12
2.84373e-12
2.87279e-12
3.87096e-12
2.50689e-11
6.02874e-08
1.191e-08
2.05617e-09
3.0891e-10
4.20653e-11
7.28832e-12
3.47734e-12
3.1004e-12
3.02024e-12
2.95877e-12
2.91013e-12
2.90273e-12
3.59092e-12
1.95922e-11
6.71281e-08
1.25282e-08
2.03967e-09
2.88708e-10
3.8577e-11
8.51531e-12
5.57947e-12
5.08828e-12
4.61283e-12
4.08308e-12
3.62838e-12
3.36151e-12
3.6612e-12
1.51413e-11
7.26428e-08
1.29102e-08
2.00275e-09
2.75985e-10
4.61595e-11
2.35244e-11
2.28115e-11
2.12065e-11
1.79159e-11
1.38954e-11
1.02643e-11
7.86202e-12
6.35991e-12
1.30701e-11
7.46261e-08
1.27301e-08
1.92166e-09
3.00099e-10
1.20357e-10
1.28519e-10
1.41766e-10
1.34872e-10
1.1474e-10
8.82896e-11
6.31866e-11
4.51152e-11
3.06929e-11
2.82562e-11
7.2758e-08
1.21396e-08
1.95092e-09
5.67832e-10
5.80704e-10
7.58989e-10
8.63205e-10
8.39095e-10
7.31628e-10
5.79738e-10
4.27806e-10
3.09065e-10
2.07871e-10
1.56709e-10
7.03984e-08
1.24805e-08
2.84028e-09
2.09478e-09
3.024e-09
4.11222e-09
4.73497e-09
4.69312e-09
4.19651e-09
3.43159e-09
2.61934e-09
1.9341e-09
1.3281e-09
9.73786e-10
8.33914e-08
1.88517e-08
7.65043e-09
9.35214e-09
1.45791e-08
2.00709e-08
2.32511e-08
2.33953e-08
2.13617e-08
1.79652e-08
1.41286e-08
1.06848e-08
7.56969e-09
5.54731e-09
5.03629e-10
1.10761e-10
3.41522e-11
2.24482e-11
2.72201e-11
3.76625e-11
5.2079e-11
6.63073e-11
7.51462e-11
7.16248e-11
5.29981e-11
3.06996e-11
1.44495e-11
8.85251e-12
8.2192e-10
1.79792e-10
3.74612e-11
9.56297e-12
5.10836e-12
5.32156e-12
6.80059e-12
8.68268e-12
1.03261e-11
1.07501e-11
9.0879e-12
6.46827e-12
4.47728e-12
5.62172e-12
1.65326e-09
3.77135e-10
7.78976e-11
1.62595e-11
4.98926e-12
3.24797e-12
3.12212e-12
3.27058e-12
3.45902e-12
3.56288e-12
3.4513e-12
3.21167e-12
3.16288e-12
5.65889e-12
2.84975e-09
6.6098e-10
1.36252e-10
2.65803e-11
6.48982e-12
3.32399e-12
2.90367e-12
2.86776e-12
2.87879e-12
2.89003e-12
2.88492e-12
2.87192e-12
3.00609e-12
5.60352e-12
4.10452e-09
9.33439e-10
1.87312e-10
3.47589e-11
7.58757e-12
3.44002e-12
2.90217e-12
2.84457e-12
2.84003e-12
2.84011e-12
2.83959e-12
2.8425e-12
2.97108e-12
5.42484e-12
5.0855e-09
1.10152e-09
2.10441e-10
3.7058e-11
7.68826e-12
3.42306e-12
2.89713e-12
2.84296e-12
2.83801e-12
2.83721e-12
2.83669e-12
2.83924e-12
2.94058e-12
5.08765e-12
5.84955e-09
1.19082e-09
2.14074e-10
3.55349e-11
7.19134e-12
3.33285e-12
2.88691e-12
2.8434e-12
2.83907e-12
2.83784e-12
2.83695e-12
2.83847e-12
2.91737e-12
4.75133e-12
6.46009e-09
1.23211e-09
2.08188e-10
3.26234e-11
6.57251e-12
3.25488e-12
2.89653e-12
2.86067e-12
2.85266e-12
2.84665e-12
2.84198e-12
2.84064e-12
2.897e-12
4.33816e-12
6.8649e-09
1.23483e-09
1.9692e-10
2.93619e-11
6.08834e-12
3.34965e-12
3.08084e-12
3.03156e-12
2.98516e-12
2.93639e-12
2.89661e-12
2.87339e-12
2.8999e-12
3.9631e-12
7.05479e-09
1.20781e-09
1.83809e-10
2.69583e-11
6.66844e-12
4.71855e-12
4.62619e-12
4.43797e-12
4.10602e-12
3.72792e-12
3.40564e-12
3.19779e-12
3.08125e-12
3.7221e-12
6.86954e-09
1.12914e-09
1.6779e-10
2.8342e-11
1.36639e-11
1.4596e-11
1.55436e-11
1.45631e-11
1.24144e-11
9.82686e-12
7.5227e-12
5.92431e-12
4.759e-12
4.59377e-12
6.33434e-09
1.02033e-09
1.63866e-10
5.37533e-11
5.87228e-11
7.5583e-11
8.35482e-11
7.88749e-11
6.65857e-11
5.09781e-11
3.64497e-11
2.56327e-11
1.72337e-11
1.29539e-11