/*--------------------------------*- C++ -*----------------------------------*\
| =========                 |                                                 |
| \\      /  F ield         | OpenFOAM: The Open Source CFD Toolbox           |
|  \\    /   O peration     | Version:  v2106                                 |
|   \\  /    A nd           | Website:  www.openfoam.com                      |
|    \\/     M anipulation  |                                                 |
\*---------------------------------------------------------------------------*/
FoamFile
{
    version     2.0;
    format      ascii;
    arch        "LSB;label=32;scalar=64";
    class       volScalarField;
    location    "0.000158";
    object      p;
}
// * * * * * * * * * * * * * * * * * * * * * * * * * * * * * * * * * * * * * //

dimensions      [1 -1 -2 0 0 0 0];

internalField   nonuniform List<scalar> 
18109
(
217974
219274
219986
220761
221321
221766
222073
217482
218729
219571
220366
220989
221504
221892
217211
218314
219205
220012
220674
221237
221682
217022
218039
218929
219727
220401
220989
221470
216937
217879
218729
219500
220163
220759
221263
216973
217814
218591
219320
219959
220546
221055
217025
217771
218483
219155
219763
220331
220834
217121
217756
218332
218965
219540
220087
220578
220178
221374
222108
222870
223436
223902
224234
224471
224597
224665
224671
224712
224792
224865
219939
221031
221844
222597
223206
223719
224103
224402
224606
224756
224863
224965
225146
225256
219760
220766
221604
222363
222991
223530
223952
224299
224568
224780
224966
225118
225318
225471
219667
220603
221429
222174
222803
223352
223797
224172
224483
224735
224966
225180
225424
225650
219649
220517
221296
222014
222629
223175
223633
224024
224359
224638
224896
225133
225391
225640
219696
220475
221199
221872
222463
222995
223453
223849
224196
224490
224760
225006
225265
225507
219751
220438
221091
221718
222279
222794
223246
223642
223990
224288
224556
224795
225033
225257
219846
220384
220958
221531
222057
222553
222996
223389
223733
224028
224286
224508
224716
224905
219860
220308
220806
221303
221788
222263
222694
223084
223420
223708
223952
224151
224326
224481
219802
220160
220563
220994
221451
221906
222332
222721
223056
223343
223575
223754
223902
224020
219660
219925
220245
220623
221047
221483
221907
222300
222641
222935
223163
223330
223459
223545
219356
219564
219824
220165
220558
220991
221422
221837
222203
222519
222753
222919
223020
223083
219013
219111
219305
219614
220005
220449
220901
221348
221754
222111
222379
222578
222696
222734
218225
218347
218606
218959
219374
219848
220350
220857
221329
221737
222049
222240
222359
222317
218574
218149
218203
217951
218092
218028
220622
220104
219987
219691
219634
219468
221717
221465
221567
221543
221782
221939
222503
222532
222869
223139
223606
224059
223204
223416
223825
224253
224863
225498
223728
223996
224421
224909
225556
226180
224147
224367
224710
225096
225600
226086
224414
224513
224675
224819
225006
225254
224548
224481
224435
224277
224040
223842
224596
224362
224077
223592
222983
222250
224560
224198
223715
222936
221945
220722
224468
224012
223426
222547
221364
219881
224491
224022
223431
222544
221474
220142
224539
224150
223721
222998
222218
221180
224825
224481
224228
223743
223302
222693
225210
224966
225031
224901
224817
224693
225794
225715
225941
226075
226301
226578
225982
226163
226564
227019
227543
228152
226070
226460
226970
227581
228312
229130
226034
226493
227093
227806
228675
229649
225885
226318
226892
227581
228405
229326
225586
225935
226399
226933
227559
228280
225168
225376
225666
225926
226221
226566
224664
224717
224767
224724
224654
224508
224093
223947
223770
223407
222866
222194
223525
223231
222880
222272
221456
220560
223010
222652
222244
221564
220658
219821
222647
222256
221851
221282
220663
219790
222404
221997
221779
221392
221099
220772
222561
222362
222409
222275
222361
222255
222459
222445
222615
222767
223141
223454
222249
222365
222643
223029
223632
224310
221932
222035
222317
222807
223531
224395
221495
221467
221635
222010
222654
223448
220965
220704
220656
220730
221082
221523
220363
219847
219518
219168
219035
219105
219739
218970
218316
217449
216689
215879
219154
218154
217164
215794
214468
212911
218612
217454
216251
214577
212928
210907
218182
217028
215736
214069
212329
210340
217893
216801
215629
214179
212666
211060
217879
216836
215916
214871
214034
213021
217701
216850
216413
215787
215433
215025
215924
214514
212837
210879
208501
206167
216277
214996
213556
211837
210092
208461
216842
215711
214692
213508
212498
211489
217395
216502
215972
215337
214936
214560
218525
218072
218146
217779
217865
217752
218989
218794
218988
219000
219394
219820
219357
219320
219624
219910
220535
221286
219534
219532
219774
220170
220868
221618
219561
219403
219463
219677
220142
220587
219475
219021
218771
218594
218580
218505
219208
218487
217877
217197
216571
215989
218977
217969
216973
215713
214343
212758
218788
217578
216230
214446
212562
210337
218641
217306
215792
213721
211664
209012
218646
217318
215837
213879
211903
209464
218829
217665
216355
214704
213012
211192
219224
218210
217189
215994
214877
213668
219628
218738
218126
217432
216845
216271
219504
220005
223130
228672
237708
222620
223746
226912
232089
240225
225307
226831
229956
234730
243886
226925
228856
231804
235908
243795
227679
229515
232197
235833
241540
227285
228415
230673
233962
238993
225797
226265
228039
231172
237928
223334
222372
222680
225392
232595
239916
220799
218107
217064
218473
223692
228844
218596
215134
213461
214417
219108
223770
217505
214054
212357
213915
220272
226948
232027
217886
214798
213568
216658
225030
234765
247460
256345
219542
217403
216957
220952
231406
248205
272857
306428
221867
220824
221078
224912
234165
248047
269061
286637
224536
224357
225284
228646
235144
243925
258779
267097
227042
227619
229110
232389
238405
247182
255835
264052
229193
230427
232340
235311
241561
252746
268661
274626
230568
232418
234780
237501
243060
251617
263948
284898
231363
233629
236125
239027
243716
249641
256527
259717
231043
233108
235516
238903
243769
250527
256582
261356
229614
231437
233917
237640
243965
254005
263404
266359
227142
227871
229371
232747
239353
248627
259196
278477
224255
223432
224221
226466
231584
237605
220772
218690
218413
220918
227369
234093
218678
216335
216091
220141
228905
238668
217756
215539
215471
221095
231657
246421
218494
217130
217936
224338
237009
257835
220329
219851
221299
226771
237163
222444
222975
225019
229521
237142
224402
225881
228630
233347
240184
225870
228152
231403
235772
244337
226304
229111
232847
238110
246111
225312
228047
232255
237648
245342
222809
225134
229047
234838
243012
219416
220572
223732
230224
241102
214762
214191
216823
223829
235334
211005
209530
212064
217976
225659
208493
206120
208702
215479
223490
207547
205203
208663
217612
227083
208755
207298
210977
220440
232626
211624
211120
215112
224613
239005
214504
215194
219435
227108
239177
217935
219608
223773
230378
239603
221086
223318
228063
234521
243288
223050
225864
230165
236564
249124
223458
225807
230517
237490
248825
221915
223486
227782
233734
242566
218727
219492
222737
228362
235804
214657
213624
216058
222761
234750
210090
207761
209425
215836
227639
207224
204082
204988
209294
216212
205829
202169
203125
207724
213716
206290
202925
204589
211027
217855
208524
206263
208285
215651
225531
212011
210861
213299
221171
234331
215781
215524
218339
225320
237633
223904
224898
225593
226270
226774
227194
227510
227749
227898
228003
228079
228132
228185
228252
223868
224766
225468
226107
226620
227057
227401
227684
227893
228058
228192
228293
228436
228551
223794
224616
225325
225963
226477
226922
227283
227587
227838
228044
228221
228366
228539
228689
223776
224539
225222
225835
226348
226794
227164
227478
227751
227977
228187
228377
228596
228801
223777
224477
225118
225711
226212
226654
227028
227348
227634
227878
228108
228325
228561
228797
223791
224426
225019
225577
226063
226497
226871
227197
227491
227750
227994
228226
228474
228722
223816
224366
224907
225424
225889
226312
226684
227015
227313
227582
227834
228073
228323
228572
223856
224310
224785
225249
225683
226092
226461
226796
227098
227373
227629
227872
228117
228357
223863
224230
224629
225039
225443
225839
226205
226544
226848
227125
227382
227623
227861
228094
223812
224092
224418
224781
225162
225548
225915
226262
226571
226853
227112
227348
227577
227785
223677
223887
224163
224485
224845
225221
225592
225948
226268
226560
226823
227056
227279
227479
223398
223579
223819
224121
224469
224853
225241
225619
225963
226274
226545
226778
226987
227155
223077
223201
223406
223705
224063
224472
224882
225294
225670
226013
226306
226542
226756
226900
222440
222659
222896
223240
223618
224063
224515
224975
225392
225762
226080
226317
226481
226547
229187
229861
230350
230809
231146
231446
231695
231916
232109
232279
232427
232563
232683
232903
229218
229794
230258
230671
231004
231301
231562
231805
232036
232247
232445
232630
232807
233061
229196
229712
230160
230555
230886
231182
231450
231700
231943
232172
232400
232615
232822
233082
229201
229658
230077
230451
230777
231073
231346
231604
231857
232102
232343
232580
232817
233093
229189
229600
229986
230345
230669
230967
231245
231508
231766
232022
232273
232527
232791
233086
229205
229552
229903
230239
230558
230855
231137
231408
231675
231943
232208
232481
232763
233072
229210
229498
229811
230127
230438
230735
231023
231303
231578
231857
232134
232419
232715
233029
229222
229451
229725
230014
230313
230608
230901
231189
231473
231762
232051
232346
232653
232969
229231
229406
229637
229898
230182
230474
230770
231067
231359
231654
231952
232254
232568
232882
229194
229339
229535
229775
230048
230339
230640
230946
231244
231545
231848
232156
232473
232785
229129
229257
229425
229648
229908
230198
230503
230818
231125
231434
231746
232060
232377
232676
228995
229124
229280
229500
229759
230059
230376
230705
231024
231339
231654
231968
232281
232560
228822
228959
229112
229343
229612
229931
230264
230609
230945
231273
231593
231901
232204
232458
228499
228725
228909
229175
229467
229820
230178
230551
230905
231235
231548
231828
232117
232300
233513
233884
234108
234323
234518
234702
234889
235075
235271
235466
235670
235881
236082
236393
233482
233785
234004
234204
234395
234583
234778
234983
235202
235429
235665
235917
236153
236468
233474
233725
233934
234124
234312
234502
234702
234916
235140
235379
235628
235898
236153
236477
233477
233681
233873
234054
234242
234435
234641
234864
235098
235354
235615
235898
236173
236505
233482
233645
233818
233997
234189
234387
234597
234828
235071
235339
235609
235902
236193
236528
233500
233630
233781
233953
234144
234346
234565
234806
235059
235337
235617
235922
236227
236566
233520
233623
233756
233923
234115
234323
234550
234799
235059
235345
235637
235951
236268
236608
233550
233626
233747
233906
234098
234309
234543
234798
235068
235362
235665
235984
236308
236644
233576
233634
233747
233899
234089
234302
234541
234804
235082
235384
235696
236017
236349
236679
233587
233645
233754
233904
234093
234310
234556
234826
235112
235418
235735
236057
236391
236709
233580
233653
233763
233913
234104
234324
234577
234854
235146
235455
235776
236100
236435
236746
233556
233657
233776
233936
234132
234362
234623
234907
235203
235514
235834
236155
236485
236780
233534
233650
233780
233961
234171
234417
234690
234983
235283
235593
235909
236223
236541
236823
233416
233598
233769
233995
234236
234506
234793
235092
235389
235689
235986
236281
236574
236844
236669
236774
236830
236905
236984
237079
237191
237324
237472
237644
237835
238067
238288
238636
236593
236683
236738
236815
236901
237005
237129
237278
237447
237647
237865
238124
238372
238705
236569
236639
236695
236769
236858
236969
237103
237265
237445
237657
237879
238148
238411
238747
236575
236620
236670
236743
236837
236955
237099
237274
237466
237693
237930
238206
238481
238814
236588
236620
236668
236744
236846
236973
237126
237310
237511
237747
237994
238276
238560
238889
236620
236645
236691
236768
236873
237005
237166
237360
237573
237820
238077
238365
238656
238979
236667
236684
236733
236813
236924
237062
237232
237434
237656
237911
238176
238466
238762
239078
236728
236745
236798
236880
236997
237142
237319
237529
237759
238021
238294
238585
238881
239187
236792
236814
236872
236961
237085
237237
237422
237638
237875
238142
238419
238710
239007
239303
236863
236900
236968
237065
237197
237357
237550
237772
238014
238284
238564
238854
239149
239434
236927
236987
237068
237178
237321
237491
237692
237920
238167
238437
238719
239007
239297
239573
237009
237090
237187
237314
237468
237649
237857
238091
238341
238612
238893
239181
239469
239735
237099
237201
237320
237467
237635
237829
238047
238286
238540
238810
239087
239368
239644
239903
237181
237316
237471
237647
237838
238041
238264
238503
238750
239011
239276
239548
239820
240094
238480
238491
238488
238511
238537
238581
238643
238726
238823
238952
239091
239279
239457
239726
238390
238414
238421
238453
238489
238546
238620
238719
238835
238986
239153
239359
239561
239824
238362
238382
238399
238436
238484
238555
238643
238755
238880
239040
239211
239423
239637
239907
238364
238383
238408
238450
238507
238582
238679
238801
238941
239115
239300
239519
239741
240010
238403
238420
238450
238497
238562
238647
238753
238886
239035
239216
239408
239630
239858
240123
238469
238485
238520
238569
238638
238728
238843
238985
239144
239333
239531
239754
239984
240243
238558
238576
238614
238667
238743
238838
238960
239108
239274
239467
239669
239889
240120
240368
238673
238696
238736
238793
238874
238975
239102
239255
239425
239620
239823
240039
240266
240501
238796
238831
238873
238938
239025
239133
239265
239420
239592
239786
239987
240197
240419
240639
238937
238986
239034
239107
239201
239314
239451
239609
239781
239972
240169
240372
240588
240794
239092
239162
239216
239297
239397
239517
239657
239816
239987
240174
240366
240562
240769
240959
239265
239352
239417
239506
239612
239737
239880
240039
240207
240390
240576
240769
240969
241142
239469
239568
239643
239734
239844
239973
240118
240278
240446
240627
240809
240993
241175
241337
239720
239810
239897
239993
240104
240230
240370
240524
240685
240859
241029
241204
241377
241541
239378
239435
239463
239500
239522
239547
239573
239609
239658
239726
239801
239898
239993
240122
239304
239369
239413
239460
239496
239532
239572
239624
239686
239769
239868
239989
240106
240260
239294
239359
239412
239466
239514
239564
239619
239684
239760
239855
239958
240083
240209
240372
239326
239391
239449
239504
239557
239614
239678
239755
239843
239951
240066
240200
240333
240501
239387
239451
239514
239574
239637
239703
239778
239866
239962
240075
240194
240330
240468
240635
239482
239543
239607
239668
239736
239809
239894
239990
240093
240212
240334
240470
240610
240771
239602
239661
239724
239788
239862
239941
240033
240133
240241
240361
240483
240617
240754
240905
239746
239805
239865
239932
240010
240093
240189
240291
240399
240517
240637
240765
240896
241036
239912
239973
240031
240099
240178
240264
240360
240461
240566
240681
240794
240912
241036
241162
240094
240161
240215
240284
240362
240447
240542
240640
240741
240848
240953
241061
241178
241288
240301
240377
240424
240491
240564
240644
240734
240827
240921
241019
241114
241211
241317
241411
240521
240605
240647
240706
240773
240846
240929
241014
241098
241188
241275
241365
241461
241546
240759
240848
240884
240933
240989
241052
241124
241198
241276
241358
241436
241518
241606
241681
241030
241097
241127
241160
241202
241253
241313
241377
241442
241514
241583
241663
241746
241837
239937
240069
240148
240222
240278
240318
240346
240357
240356
240351
240343
240331
240317
240302
239961
240073
240160
240234
240294
240339
240374
240392
240399
240403
240409
240422
240433
240453
240012
240111
240199
240273
240337
240387
240429
240460
240482
240498
240514
240532
240541
240571
240086
240177
240264
240338
240402
240453
240495
240529
240556
240584
240610
240639
240658
240694
240186
240274
240359
240430
240491
240541
240585
240620
240652
240684
240714
240746
240770
240811
240312
240393
240472
240536
240593
240639
240680
240714
240747
240780
240812
240847
240876
240920
240459
240532
240601
240657
240707
240749
240786
240818
240850
240882
240912
240945
240978
241024
240621
240682
240736
240783
240825
240861
240894
240923
240953
240982
241007
241038
241073
241120
240789
240838
240878
240915
240949
240977
241006
241031
241056
241080
241101
241131
241167
241212
240949
240989
241016
241044
241069
241091
241115
241135
241155
241175
241193
241222
241256
241297
241111
241142
241157
241176
241192
241206
241222
241235
241250
241268
241284
241308
241339
241375
241257
241285
241288
241298
241306
241312
241323
241331
241344
241362
241372
241393
241419
241451
241404
241427
241421
241422
241421
241419
241423
241427
241436
241449
241456
241474
241496
241515
241552
241563
241545
241537
241529
241522
241522
241521
241525
241535
241538
241553
241569
241605
240513
240648
240740
240813
240863
240895
240901
240886
240853
240805
240745
240664
240569
240449
240613
240712
240799
240862
240908
240934
240933
240915
240879
240827
240765
240694
240623
240544
240704
240792
240869
240923
240961
240976
240970
240950
240917
240872
240818
240757
240685
240620
240804
240873
240937
240980
241009
241013
241003
240980
240945
240902
240853
240802
240741
240690
240897
240954
241007
241040
241057
241054
241041
241016
240983
240943
240898
240851
240799
240755
240991
241035
241074
241097
241104
241095
241078
241050
241016
240979
240938
240896
240853
240816
241081
241115
241142
241152
241152
241140
241118
241089
241056
241020
240981
240945
240909
240879
241166
241190
241203
241205
241199
241183
241158
241127
241093
241058
241020
240991
240960
240937
241245
241260
241264
241260
241248
241227
241200
241167
241132
241097
241062
241037
241009
240993
241318
241323
241320
241310
241294
241269
241240
241205
241170
241137
241103
241079
241052
241038
241388
241387
241377
241362
241340
241311
241280
241242
241208
241174
241139
241114
241086
241072
241444
241440
241425
241405
241381
241349
241317
241280
241244
241208
241171
241142
241109
241090
241507
241499
241478
241454
241425
241389
241354
241311
241271
241230
241189
241154
241120
241092
241555
241538
241517
241490
241459
241420
241382
241336
241294
241249
241205
241165
241124
241089
240922
241003
241058
241092
241105
241098
241074
241034
240979
240909
240823
240719
240607
240466
241021
241071
241112
241135
241141
241128
241101
241055
240990
240908
240812
240704
240593
240469
241090
241129
241161
241174
241174
241157
241125
241073
241004
240920
240827
240723
240613
240493
241154
241179
241202
241207
241201
241178
241139
241082
241011
240928
240837
240735
240629
240514
241201
241218
241231
241228
241216
241187
241145
241089
241020
240940
240852
240751
240646
240531
241229
241239
241244
241236
241220
241188
241144
241087
241018
240940
240852
240753
240649
240536
241240
241247
241248
241239
241218
241184
241138
241080
241012
240933
240845
240749
240645
240538
241244
241249
241246
241234
241209
241172
241123
241062
240991
240911
240824
240730
240629
240530
241246
241246
241238
241220
241191
241150
241097
241033
240960
240880
240793
240703
240606
240517
241238
241231
241217
241194
241160
241116
241061
240995
240922
240841
240755
240668
240577
240498
241222
241209
241189
241160
241122
241074
241017
240950
240875
240794
240711
240629
240544
240476
241195
241175
241151
241118
241077
241027
240968
240899
240825
240746
240665
240586
240507
240444
241168
241142
241114
241077
241032
240976
240914
240843
240768
240689
240612
240538
240467
240405
241124
241096
241067
241027
240980
240923
240861
240790
240717
240641
240567
240493
240423
240356
240935
240945
240954
240955
240950
240933
240905
240863
240806
240737
240653
240552
240438
240304
240978
240973
240975
240968
240954
240928
240892
240841
240774
240694
240599
240487
240365
240228
241006
240996
240989
240973
240951
240918
240874
240815
240742
240656
240557
240442
240320
240184
241020
241005
240991
240969
240940
240900
240848
240782
240703
240612
240508
240389
240268
240134
241020
241004
240984
240956
240919
240872
240813
240743
240661
240567
240461
240344
240225
240096
241012
240992
240965
240930
240886
240833
240770
240697
240613
240517
240412
240298
240181
240056
240991
240966
240932
240892
240843
240787
240721
240646
240560
240466
240364
240254
240140
240021
240954
240924
240887
240844
240793
240733
240665
240589
240504
240411
240312
240206
240095
239982
240904
240870
240832
240787
240735
240674
240605
240528
240443
240352
240255
240153
240045
239939
240840
240805
240767
240721
240669
240607
240538
240461
240377
240287
240192
240093
239989
239890
240769
240732
240695
240647
240594
240532
240463
240386
240302
240214
240121
240026
239927
239837
240684
240646
240609
240562
240510
240448
240380
240303
240221
240134
240043
239952
239857
239774
240592
240553
240516
240469
240416
240354
240286
240209
240127
240042
239956
239872
239785
239707
240473
240442
240405
240360
240310
240251
240186
240112
240036
239955
239875
239793
239712
239633
240719
240681
240655
240628
240604
240574
240540
240500
240451
240396
240332
240262
240182
240090
240712
240673
240639
240607
240574
240538
240496
240446
240387
240322
240248
240165
240076
239967
240705
240662
240619
240580
240538
240494
240443
240386
240321
240247
240166
240074
239980
239869
240679
240634
240584
240539
240490
240440
240382
240319
240247
240167
240079
239980
239881
239766
240640
240592
240539
240490
240434
240376
240312
240243
240167
240082
239991
239889
239786
239671
240590
240537
240481
240426
240365
240303
240234
240161
240081
239993
239899
239796
239691
239577
240524
240467
240408
240348
240285
240219
240147
240072
239990
239901
239807
239705
239600
239490
240442
240382
240322
240260
240195
240127
240054
239977
239894
239806
239712
239612
239508
239402
240346
240283
240224
240160
240096
240026
239954
239877
239795
239709
239616
239520
239418
239319
240235
240172
240114
240051
239988
239919
239848
239772
239691
239607
239517
239425
239328
239236
240116
240053
239997
239935
239873
239805
239736
239661
239583
239502
239416
239329
239237
239154
239983
239922
239869
239809
239750
239685
239619
239547
239473
239395
239314
239232
239146
239071
239852
239791
239740
239682
239625
239562
239497
239429
239357
239283
239207
239133
239055
238990
239693
239645
239596
239544
239491
239434
239375
239312
239246
239178
239109
239040
238969
238905
240383
240310
240245
240187
240138
240096
240058
240022
239988
239954
239919
239883
239843
239807
240312
240248
240176
240118
240063
240015
239968
239925
239882
239840
239796
239749
239703
239647
240243
240176
240100
240040
239979
239926
239874
239824
239775
239726
239676
239623
239571
239507
240169
240099
240020
239956
239891
239833
239775
239720
239665
239610
239554
239495
239437
239367
240083
240009
239930
239862
239794
239732
239671
239612
239553
239493
239433
239370
239307
239237
239987
239910
239830
239760
239690
239626
239562
239500
239438
239375
239312
239246
239179
239107
239879
239799
239721
239648
239579
239513
239448
239385
239321
239257
239192
239124
239055
238983
239759
239678
239603
239530
239461
239395
239330
239266
239202
239138
239071
239004
238933
238862
239632
239550
239477
239405
239338
239272
239208
239145
239082
239019
238953
238887
238816
238749
239495
239414
239345
239274
239210
239145
239083
239021
238960
238899
238835
238771
238702
238640
239355
239276
239210
239142
239079
239017
238957
238897
238838
238780
238719
238658
238594
238538
239207
239131
239070
239005
238946
238886
238829
238773
238718
238663
238606
238549
238490
238441
239069
238994
238934
238872
238815
238758
238704
238651
238599
238547
238495
238444
238391
238351
238910
238846
238790
238734
238681
238629
238580
238531
238485
238439
238394
238348
238301
238261
239923
239841
239762
239695
239638
239591
239552
239522
239500
239482
239469
239460
239456
239450
239805
239737
239654
239587
239525
239474
239430
239396
239370
239347
239329
239312
239305
239285
239685
239615
239532
239466
239402
239350
239304
239268
239238
239212
239190
239170
239157
239135
239564
239493
239411
239344
239279
239225
239178
239138
239105
239076
239050
239026
239007
238984
239438
239364
239284
239216
239152
239097
239049
239008
238973
238942
238913
238886
238864
238841
239306
239231
239153
239086
239023
238968
238920
238878
238842
238808
238777
238748
238723
238700
239172
239095
239021
238954
238893
238839
238791
238749
238712
238677
238645
238615
238588
238563
239034
238957
238887
238821
238763
238710
238663
238621
238583
238548
238515
238484
238456
238431
238897
238820
238754
238690
238633
238582
238536
238495
238457
238423
238389
238360
238332
238307
238758
238682
238620
238558
238505
238455
238411
238371
238334
238301
238268
238240
238211
238187
238622
238548
238489
238430
238379
238331
238289
238251
238216
238184
238153
238127
238099
238078
238486
238413
238359
238302
238254
238208
238169
238134
238102
238072
238044
238019
237993
237975
238360
238288
238235
238181
238134
238091
238055
238022
237993
237965
237940
237919
237896
237884
238221
238159
238108
238058
238015
237976
237943
237914
237889
237865
237844
237824
237804
237793
239360
239295
239228
239174
239125
239087
239055
239032
239016
239009
239010
239019
239034
239044
239216
239165
239098
239043
238994
238955
238923
238900
238883
238875
238877
238883
238896
238892
239075
239024
238959
238906
238858
238820
238790
238767
238750
238741
238742
238745
238758
238752
238933
238883
238821
238770
238724
238687
238657
238634
238617
238609
238608
238609
238619
238615
238795
238743
238684
238635
238591
238556
238526
238503
238487
238478
238476
238475
238483
238484
238657
238604
238549
238502
238461
238426
238398
238376
238359
238350
238347
238346
238352
238355
238523
238469
238418
238373
238333
238300
238273
238251
238236
238226
238223
238222
238227
238230
238392
238338
238290
238247
238209
238178
238152
238131
238116
238107
238103
238102
238105
238110
238266
238212
238167
238125
238090
238060
238036
238017
238003
237993
237990
237989
237989
237995
238144
238089
238048
238008
237975
237947
237925
237907
237893
237885
237880
237879
237877
237885
238028
237973
237934
237897
237866
237840
237819
237803
237791
237783
237779
237778
237775
237784
237915
237860
237824
237789
237761
237737
237718
237703
237693
237686
237682
237681
237679
237688
237809
237757
237722
237688
237662
237639
237622
237609
237601
237596
237594
237593
237594
237606
237697
237653
237619
237589
237564
237544
237530
237520
237514
237511
237510
237510
237511
237520
238726
238698
238663
238637
238612
238590
238574
238564
238559
238561
238569
238583
238608
238629
238587
238572
238540
238516
238492
238472
238457
238449
238447
238450
238458
238472
238497
238508
238462
238446
238416
238393
238371
238353
238340
238333
238332
238336
238345
238358
238385
238395
238336
238319
238293
238271
238251
238235
238225
238220
238220
238224
238234
238248
238273
238285
238217
238197
238173
238152
238134
238120
238111
238108
238108
238114
238125
238139
238164
238178
238100
238079
238057
238037
238021
238009
238002
237999
238001
238007
238019
238034
238056
238073
237989
237966
237945
237927
237912
237902
237896
237895
237898
237905
237917
237932
237953
237972
237881
237858
237839
237823
237810
237800
237796
237795
237798
237806
237818
237834
237853
237874
237779
237756
237738
237723
237712
237703
237700
237700
237704
237712
237724
237740
237757
237780
237682
237658
237642
237629
237618
237611
237609
237609
237614
237622
237634
237649
237666
237690
237590
237566
237551
237539
237530
237525
237523
237525
237530
237539
237550
237565
237581
237606
237504
237477
237465
237454
237447
237443
237442
237444
237450
237459
237470
237485
237500
237525
237423
237396
237385
237376
237370
237367
237368
237371
237378
237387
237399
237414
237430
237456
237340
237316
237306
237299
237296
237294
237296
237300
237308
237318
237331
237345
237362
237383
238069
238075
238074
238078
238083
238087
238092
238098
238107
238117
238130
238148
238170
238194
237972
237982
237984
237990
237996
238003
238010
238019
238029
238042
238058
238076
238097
238116
237885
237894
237897
237905
237911
237918
237926
237936
237948
237962
237978
237998
238022
238040
237796
237804
237809
237818
237825
237834
237843
237854
237867
237883
237901
237922
237946
237965
237710
237719
237725
237734
237742
237751
237761
237773
237787
237804
237823
237845
237871
237892
237627
237637
237644
237653
237661
237670
237681
237693
237708
237726
237746
237769
237794
237819
237548
237556
237564
237572
237581
237591
237603
237616
237631
237649
237670
237694
237719
237746
237471
237478
237487
237495
237505
237515
237527
237541
237557
237575
237596
237620
237645
237674
237398
237403
237412
237421
237431
237442
237455
237469
237486
237505
237525
237549
237574
237604
237330
237332
237342
237351
237362
237373
237387
237401
237418
237437
237457
237481
237505
237536
237265
237265
237275
237284
237296
237308
237322
237337
237354
237373
237393
237417
237440
237472
237205
237202
237212
237222
237234
237246
237260
237276
237293
237311
237331
237354
237377
237409
237144
237143
237153
237163
237176
237190
237204
237220
237238
237256
237277
237299
237323
237355
237087
237086
237098
237109
237122
237136
237150
237166
237183
237201
237222
237244
237268
237296
237490
237517
237540
237561
237582
237602
237622
237642
237661
237684
237319
237357
237389
237421
237451
237478
237504
237527
237550
237572
237594
237615
237637
237658
237280
237319
237350
237382
237410
237437
237462
237487
237510
237533
237556
237579
237603
237626
237239
237277
237307
237339
237367
237395
237421
237445
237470
237493
237517
237541
237567
237591
237197
237233
237263
237294
237322
237350
237376
237401
237426
237451
237475
237500
237527
237552
237152
237186
237218
237248
237277
237305
237332
237357
237382
237408
237433
237459
237486