/*--------------------------------*- C++ -*----------------------------------*\
| =========                 |                                                 |
| \\      /  F ield         | OpenFOAM: The Open Source CFD Toolbox           |
|  \\    /   O peration     | Version:  v2106                                 |
|   \\  /    A nd           | Website:  www.openfoam.com                      |
|    \\/     M anipulation  |                                                 |
\*---------------------------------------------------------------------------*/
FoamFile
{
    version     2.0;
    format      ascii;
    arch        "LSB;label=32;scalar=64";
    class       volScalarField;
    location    "0.000158";
    object      rho;
}
// * * * * * * * * * * * * * * * * * * * * * * * * * * * * * * * * * * * * * //

dimensions      [1 -3 0 0 0 0 0];

internalField   nonuniform List<scalar> 
18109
(
2.52967
2.54079
2.54703
2.55394
2.55911
2.56315
2.56583
2.52513
2.53601
2.54372
2.55089
2.55649
2.56105
2.56442
2.52306
2.53301
2.54116
2.54833
2.55409
2.55892
2.56271
2.52185
2.53127
2.53935
2.54631
2.55203
2.55696
2.56098
2.52151
2.53036
2.53801
2.54463
2.55018
2.55512
2.55928
2.52223
2.53011
2.537
2.54319
2.54852
2.55338
2.55757
2.52314
2.52992
2.5361
2.54178
2.54686
2.55159
2.55575
2.52432
2.52983
2.53473
2.54008
2.54494
2.54955
2.55365
2.54737
2.5581
2.56467
2.57146
2.57657
2.58075
2.58368
2.58565
2.5866
2.58703
2.58695
2.58704
2.58727
2.58721
2.54575
2.55567
2.56297
2.56956
2.57486
2.5793
2.58261
2.58515
2.58681
2.58801
2.58882
2.58949
2.59063
2.59088
2.54475
2.55402
2.5615
2.56802
2.57331
2.57782
2.58138
2.58429
2.58652
2.58824
2.5897
2.59081
2.59222
2.59309
2.54441
2.55309
2.56041
2.56672
2.57191
2.57643
2.58011
2.58323
2.58581
2.58786
2.58971
2.59135
2.59316
2.59475
2.54464
2.55265
2.55947
2.5655
2.57055
2.57502
2.57877
2.582
2.58477
2.58706
2.58916
2.59103
2.59299
2.59486
2.54542
2.55246
2.55868
2.56431
2.56918
2.57355
2.57731
2.58056
2.58342
2.58584
2.58807
2.59008
2.59215
2.59406
2.54622
2.55219
2.55771
2.56295
2.56762
2.57189
2.57561
2.57887
2.58172
2.58419
2.58641
2.58841
2.5904
2.59223
2.54715
2.55168
2.55648
2.56129
2.56574
2.56989
2.57357
2.5768
2.57962
2.58205
2.58422
2.58611
2.58788
2.58941
2.54723
2.55087
2.55503
2.55929
2.56346
2.5675
2.57111
2.57431
2.57705
2.57942
2.58147
2.58317
2.58464
2.58579
2.54661
2.54936
2.55277
2.55658
2.56063
2.56458
2.56816
2.57135
2.57405
2.5764
2.57832
2.57981
2.58095
2.58161
2.54519
2.54699
2.54977
2.55329
2.55722
2.56109
2.56468
2.56789
2.5706
2.57295
2.57478
2.57609
2.57696
2.57728
2.54225
2.54345
2.5458
2.54916
2.55297
2.55693
2.56065
2.56403
2.5669
2.56934
2.57112
2.57233
2.57293
2.57316
2.53893
2.53917
2.54097
2.5441
2.54795
2.5521
2.55609
2.55984
2.56305
2.56576
2.56772
2.56915
2.56993
2.57009
2.53267
2.53302
2.53495
2.53807
2.54194
2.54637
2.55095
2.55538
2.55929
2.5625
2.56485
2.56621
2.56704
2.56655
2.53573
2.53456
2.54127
2.54825
2.55788
2.56171
2.55142
2.54864
2.55212
2.55701
2.56511
2.56976
2.56119
2.56012
2.56417
2.56927
2.57691
2.58174
2.56803
2.56912
2.57399
2.57932
2.58583
2.5908
2.5741
2.57654
2.58092
2.58562
2.59094
2.59528
2.5789
2.58135
2.58493
2.58843
2.5925
2.5964
2.58269
2.5843
2.58648
2.58831
2.5908
2.5942
2.585
2.58528
2.58552
2.58492
2.58459
2.58608
2.58599
2.58466
2.5827
2.57929
2.57598
2.57506
2.58617
2.58322
2.57907
2.57316
2.56778
2.56584
2.58562
2.58153
2.57587
2.56826
2.56188
2.56016
2.58459
2.57977
2.57377
2.56666
2.56123
2.56027
2.58451
2.57973
2.57414
2.56834
2.56572
2.56692
2.58444
2.58065
2.577
2.57352
2.57424
2.57723
2.58648
2.58351
2.5821
2.58111
2.58446
2.5888
2.58986
2.58812
2.58959
2.59134
2.59611
2.60144
2.59512
2.59459
2.59717
2.60046
2.60607
2.61197
2.597
2.59844
2.60225
2.60729
2.6133
2.6196
2.59798
2.60113
2.60544
2.61069
2.61665
2.62283
2.59793
2.60158
2.60629
2.61145
2.61733
2.62408
2.59702
2.60029
2.60433
2.60869
2.6136
2.61998
2.59472
2.597
2.59957
2.60196
2.60514
2.61096
2.5912
2.59194
2.59266
2.59277
2.59419
2.59842
2.58672
2.58594
2.58476
2.58325
2.58286
2.58602
2.58158
2.57935
2.57678
2.57357
2.57164
2.57456
2.57657
2.57354
2.57026
2.56669
2.56543
2.56932
2.57215
2.56908
2.56651
2.56423
2.56413
2.56879
2.56911
2.56637
2.56502
2.56469
2.56738
2.57055
2.56719
2.56466
2.56535
2.56701
2.57235
2.57756
2.56857
2.56763
2.57037
2.5737
2.58017
2.58386
2.56793
2.56844
2.57149
2.57554
2.58158
2.58605
2.5664
2.56783
2.5711
2.57549
2.5811
2.58664
2.56396
2.565
2.56771
2.57187
2.57727
2.58404
2.56036
2.55999
2.56096
2.56314
2.56764
2.57509
2.55583
2.55307
2.55168
2.55094
2.55381
2.56133
2.55056
2.54522
2.54132
2.53809
2.5396
2.55008
2.54487
2.53728
2.53116
2.5261
2.52757
2.53763
2.53945
2.53025
2.52285
2.51724
2.51962
2.52703
2.53465
2.52512
2.51835
2.51377
2.51653
2.51869
2.53129
2.52327
2.51804
2.51549
2.51744
2.51698
2.52961
2.52342
2.52054
2.52011
2.52247
2.52293
2.53041
2.52557
2.52533
2.5277
2.53369
2.53505
2.52963
2.52671
2.5308
2.53549
2.54188
2.5436
2.51193
2.50205
2.49595
2.49539
2.49696
2.49641
2.5149
2.50705
2.50383
2.50513
2.50952
2.51064
2.51975
2.51376
2.51414
2.51824
2.52559
2.52792
2.52481
2.52051
2.524
2.53058
2.53965
2.54366
2.53682
2.5363
2.54353
2.5482
2.55462
2.55587
2.54058
2.54177
2.54789
2.55245
2.55824
2.5619
2.54357
2.54497
2.54978
2.55413
2.55976
2.56504
2.54492
2.54564
2.54855
2.55247
2.55788
2.5638
2.54497
2.54392
2.54451
2.54598
2.54928
2.55366
2.54411
2.54
2.53724
2.53514
2.53497
2.53829
2.54155
2.53464
2.52832
2.5224
2.52
2.52611
2.53903
2.52935
2.51985
2.51081
2.5073
2.51235
2.53677
2.52538
2.5139
2.50374
2.50148
2.50476
2.53503
2.5231
2.51191
2.50255
2.50196
2.50079
2.53476
2.52351
2.51423
2.50764
2.50826
2.50723
2.53595
2.52675
2.52007
2.51676
2.51918
2.5209
2.53885
2.53162
2.52838
2.5286
2.53379
2.53716
2.54196
2.53631
2.53667
2.53995
2.54708
2.55182
2.57243
2.57283
2.5946
2.65004
2.77582
2.58739
2.59223
2.61908
2.68131
2.81728
2.60004
2.61121
2.64498
2.71581
2.88154
2.60693
2.62693
2.66814
2.75889
2.94677
2.61077
2.63505
2.69239
2.81555
3.00775
2.60775
2.63586
2.71579
2.86268
3.04578
2.59892
2.63778
2.73274
2.88018
3.06176
2.58784
2.62918
2.71262
2.8323
2.99682
3.13908
2.57932
2.61008
2.66471
2.74294
2.86813
2.99748
2.57173
2.58968
2.61729
2.66029
2.7572
2.89097
2.56849
2.5766
2.58472
2.61248
2.70316
2.83851
2.97067
2.57244
2.57322
2.57133
2.60002
2.69358
2.84346
3.05344
3.21203
2.58225
2.58083
2.57911
2.61087
2.71985
2.9303
3.23961
3.61759
2.59392
2.59421
2.5953
2.62706
2.72619
2.91346
3.1829
3.44623
2.60678
2.60929
2.61494
2.64578
2.72744
2.8872
3.13549
3.31891
2.61847
2.62384
2.6359
2.67181
2.76204
2.93944
3.14421
3.32026
2.62858
2.63855
2.6577
2.69956
2.80538
3.00961
3.27043
3.4472
2.63439
2.65192
2.67994
2.73062
2.85226
3.05298
3.28088
3.57297
2.63897
2.66255
2.69979
2.77198
2.91096
3.09815
3.278
3.37432
2.63671
2.66436
2.71653
2.81734
2.96924
3.15114
3.311
3.40454
2.6282
2.66567
2.73784
2.85477
3.01148
3.2013
3.37769
3.46035
2.61685
2.65979
2.73376
2.84065
2.98344
3.15765
3.33593
3.58155
2.60614
2.6439
2.70444
2.77872
2.89177
3.03449
2.58883
2.61128
2.64511
2.70138
2.81008
2.96104
2.57773
2.5868
2.60326
2.65559
2.7698
2.93543
2.57099
2.57168
2.57615
2.63078
2.75193
2.95487
2.57401
2.57282
2.57728
2.63511
2.77626
3.03568
2.58105
2.58023
2.5882
2.64038
2.76726
2.58795
2.59168
2.60837
2.66009
2.77347
2.59433
2.60695
2.6373
2.70235
2.8361
2.60107
2.62553
2.66956
2.75446
2.9255
2.60374
2.64061
2.70775
2.82819
3.00787
2.59972
2.65114
2.74492
2.87984
3.05039
2.59197
2.65688
2.75574
2.88355
3.04232
2.58378
2.64418
2.72316
2.83562
3.01161
2.56188
2.59516
2.64761
2.74925
2.92636
2.53794
2.54537
2.58116
2.6657
2.81145
2.5159
2.50377
2.53155
2.61683
2.75658
2.50457
2.48615
2.51332
2.60801
2.75164
2.50974
2.49376
2.51718
2.60997
2.77593
2.52581
2.5148
2.53963
2.63139
2.81726
2.53932
2.53674
2.56658
2.64646
2.81234
2.55541
2.56207
2.59931
2.68125
2.84065
2.57051
2.58867
2.64122
2.74156
2.92859
2.58123
2.61297
2.67936
2.81133
3.05204
2.58413
2.62571
2.72418
2.89155
3.12807
2.5777
2.63382
2.75283
2.91866
3.12367
2.56642
2.63365
2.74584
2.89346
3.07362
2.55198
2.60375
2.68808
2.82614
3.04752
2.52798
2.5524
2.60512
2.72281
2.93544
2.50974
2.50877
2.53646
2.62072
2.78341
2.49748
2.48054
2.49654
2.56676
2.70192
2.49784
2.47494
2.48847
2.56043
2.68058
2.51004
2.49225
2.5033
2.57564
2.71027
2.53079
2.52056
2.53358
2.6057
2.76147
2.55215
2.54808
2.565
2.62881
2.77662
2.5788
2.58762
2.59384
2.59979
2.60418
2.60782
2.61059
2.61265
2.61386
2.61466
2.61518
2.61546
2.61566
2.61576
2.5791
2.58721
2.59336
2.59879
2.6031
2.60677
2.60969
2.61208
2.61381
2.61516
2.61622
2.61695
2.61793
2.61842
2.57894
2.58641
2.59256
2.59787
2.60209
2.60574
2.60872
2.61125
2.61333
2.61503
2.61645
2.61758
2.61885
2.61984
2.57911
2.586
2.59188
2.59695
2.60112
2.60473
2.60776
2.61034
2.6126
2.61446
2.61617
2.61768
2.61936
2.62085
2.5794
2.58561
2.59106
2.59595
2.60002
2.60361
2.60665
2.60928
2.61162
2.61364
2.61552
2.61727
2.61912
2.62092
2.57972
2.58522
2.5902
2.5948
2.59879
2.60233
2.60538
2.60804
2.61045
2.61258
2.61459
2.6165
2.6185
2.62047
2.58003
2.58469
2.58919
2.59348
2.59732
2.60081
2.60386
2.60656
2.609
2.61121
2.61329
2.61528
2.61735
2.6194
2.58035
2.58412
2.58808
2.59197
2.59561
2.599
2.60205
2.60478
2.60724
2.6095
2.61163
2.61366
2.61574
2.61774
2.58031
2.58332
2.58667
2.59018
2.59362
2.59695
2.59997
2.60274
2.60521
2.60747
2.60961
2.61164
2.61367
2.6156
2.57973
2.58198
2.58479
2.58799
2.59131
2.59459
2.59762
2.60044
2.60294
2.60525
2.60739
2.60938
2.61128
2.61293
2.57841
2.58002
2.5825
2.58548
2.58871
2.59194
2.595
2.59787
2.60043
2.60279
2.60494
2.60686
2.60866
2.61014
2.57577
2.57713
2.57942
2.58235
2.58556
2.5889
2.59212
2.59516
2.59788
2.60034
2.60248
2.60434
2.60597
2.60714
2.57275
2.57369
2.57572
2.57867
2.58202
2.58562
2.58907
2.59241
2.59538
2.59804
2.60028
2.60209
2.60374
2.60476
2.56737
2.56911
2.57124
2.57441
2.57789
2.58185
2.58576
2.58958
2.59293
2.59582
2.59827
2.60006
2.60132
2.60176
2.62332
2.62919
2.63344
2.63733
2.64014
2.64265
2.64476
2.64663
2.64827
2.6497
2.65087
2.65193
2.6528
2.65438
2.62392
2.62908
2.63302
2.63642
2.63911
2.64153
2.64369
2.64571
2.64762
2.64936
2.65099
2.65247
2.65383
2.65571
2.62402
2.62863
2.63239
2.63558
2.63822
2.64061
2.64279
2.64483
2.64683
2.64871
2.65059
2.65233
2.65396
2.65597
2.62425
2.62826
2.63174
2.63476
2.63735
2.63973
2.64194
2.64404
2.64611
2.64812
2.6501
2.65203
2.65393
2.65609
2.62427
2.62778
2.63096
2.63386
2.63647
2.63887
2.64112
2.64326
2.64537
2.64746
2.64952
2.6516
2.65372
2.65606
2.62443
2.62734
2.63022
2.63296
2.63554
2.63795
2.64024
2.64245
2.64462
2.64681
2.64898
2.65122
2.65351
2.656
2.62441
2.62682
2.62941
2.632
2.63455
2.63698
2.63932
2.64159
2.64383
2.64611
2.64838
2.65072
2.65315
2.65572
2.62439
2.62634
2.62864
2.63105
2.63353
2.63595
2.63833
2.64067
2.64298
2.64533
2.6477
2.65013
2.65268
2.6553
2.62437
2.62588
2.62786
2.63009
2.63247
2.63488
2.63729
2.63969
2.64206
2.64447
2.6469
2.6494
2.65202
2.65464
2.62399
2.62523
2.62697
2.62908
2.6314
2.63381
2.63625
2.63872
2.64113
2.64358
2.64607
2.64861
2.65125
2.65383
2.62333
2.62444
2.62601
2.62804
2.6303
2.63269
2.63515
2.63768
2.64016
2.64267
2.64522
2.64781
2.65042
2.65285
2.62205
2.62322
2.62477
2.62685
2.62911
2.63158
2.63412
2.63674
2.6393
2.64185
2.6444
2.64697
2.64952
2.65175
2.62039
2.62169
2.62331
2.62552
2.62788
2.63051
2.63318
2.63593
2.6386
2.64121
2.64377
2.64626
2.64873
2.65075
2.61746
2.61953
2.62143
2.62393
2.6265
2.62948
2.63241
2.63542
2.63823
2.64083
2.6433
2.64554
2.6479
2.64938
2.65927
2.66248
2.6644
2.66616
2.66774
2.66925
2.67078
2.67233
2.67394
2.67555
2.67722
2.67894
2.68058
2.68305
2.65923
2.66191
2.6637
2.6653
2.66681
2.66831
2.6699
2.67157
2.67336
2.67521
2.67714
2.67921
2.68112
2.68363
2.65926
2.66148
2.66318
2.66467
2.66615
2.66766
2.66928
2.67102
2.67284
2.67479
2.67682
2.67903
2.68109
2.68368
2.65933
2.66112
2.66267
2.66409
2.66558
2.66712
2.66878
2.67059
2.67249
2.67457
2.6767
2.67901
2.68124
2.68389
2.6594
2.6608
2.6622
2.66361
2.66513
2.66672
2.66842
2.67029
2.67226
2.67444
2.67664
2.67903
2.6814
2.68409
2.65953
2.66062
2.66184
2.66322
2.66476
2.66639
2.66816
2.67011
2.67216
2.67442
2.67671
2.67919
2.68167
2.68441
2.65963
2.6605
2.6616
2.66296
2.66452
2.6662
2.66804
2.67005
2.67216
2.67448
2.67687
2.67942
2.68201
2.68478
2.6598
2.66046
2.66149
2.66282
2.66439
2.6661
2.66799
2.67005
2.67224
2.67463
2.6771
2.67969
2.68234
2.6851
2.65995
2.66048
2.66147
2.66276
2.66433
2.66605
2.66798
2.6701
2.67236
2.67481
2.67734
2.67997
2.68268
2.6854
2.65999
2.66052
2.66151
2.66281
2.66438
2.66613
2.66812
2.6703
2.67261
2.67509
2.67766
2.68029
2.68303
2.68566
2.65986
2.66053
2.66156
2.6629
2.66449
2.66628
2.6683
2.67053
2.67289
2.67539
2.678
2.68064
2.68339
2.68595
2.65955
2.66049
2.66165
2.6631
2.66475
2.66661
2.66869
2.67096
2.67335
2.67586
2.67846
2.68108
2.68378
2.68618
2.65922
2.66031
2.66163
2.6633
2.66509
2.66707
2.66925
2.67158
2.67398
2.67647
2.67904
2.6816
2.68419
2.68647
2.65815
2.6598
2.66145
2.66352
2.6656
2.6678
2.67009
2.67246
2.67482
2.67719
2.67958
2.68197
2.68436
2.68654
2.68527
2.68614
2.68661
2.68722
2.68785
2.6886
2.68952
2.6906
2.6918
2.6932
2.69475
2.69664
2.69844
2.70125
2.68471
2.68547
2.6859
2.68651
2.68719
2.68802
2.68902
2.69022
2.69159
2.69322
2.69498
2.69709
2.6991
2.7018
2.68452
2.68512
2.68556
2.68613
2.68683
2.68772
2.6888
2.69011
2.69157
2.69328
2.69508
2.69726
2.6994
2.70212
2.68457
2.68495
2.68535
2.68592
2.68665
2.6876
2.68876
2.69018
2.69173
2.69356
2.69548
2.69772
2.69996
2.70265
2.68467
2.68494
2.68532
2.68592
2.68672
2.68774
2.68898
2.69046
2.69208
2.694
2.69599
2.69828
2.70059
2.70325
2.68491
2.68511
2.68549
2.6861
2.68694
2.68799
2.68929
2.69086
2.69258
2.69458
2.69667
2.699
2.70136
2.70398
2.68526
2.68541
2.68581
2.68645
2.68734
2.68846
2.68982
2.69146
2.69325
2.69532
2.69747
2.69982
2.70222
2.70478
2.68572
2.68587
2.68632
2.687
2.68794
2.6891
2.69053
2.69222
2.69409
2.69621
2.69841
2.70077
2.70318
2.70567
2.68621
2.68641
2.68693
2.68766
2.68866
2.68988
2.69137
2.69311
2.69503
2.69719
2.69943
2.70178
2.70419
2.70661
2.68676
2.6871
2.6877
2.68851
2.68958
2.69086
2.69241
2.6942
2.69616
2.69834
2.7006
2.70295
2.70534
2.70767
2.68726
2.68779
2.6885
2.68943
2.69059
2.69196
2.69357
2.6954
2.6974
2.69958
2.70185
2.70418
2.70654
2.7088
2.68789
2.6886
2.68947
2.69054
2.6918
2.69325
2.69492
2.69679
2.69881
2.70099
2.70326
2.70559
2.70793
2.71009
2.68858
2.68948
2.69055
2.69179
2.69317
2.69473
2.69647
2.69838
2.70042
2.70259
2.70483
2.7071
2.70934
2.71143
2.68922
2.6904
2.69176
2.69325
2.69482
2.69646
2.69824
2.70014
2.70211
2.7042
2.70633
2.70853
2.71073
2.71294
2.70002
2.70011
2.70007
2.70025
2.70045
2.70081
2.7013
2.70198
2.70276
2.7038
2.70493
2.70644
2.70789
2.71006
2.6993
2.69949
2.69953
2.69977
2.70006
2.70052
2.70112
2.70192
2.70285
2.70407
2.70542
2.70708
2.70871
2.71085
2.69907
2.69923
2.69934
2.69963
2.70002
2.70059
2.7013
2.7022
2.70321
2.7045
2.70588
2.70759
2.70932
2.71151
2.69909
2.69923
2.69942
2.69974
2.7002
2.7008
2.70158
2.70257
2.70369
2.70509
2.70659
2.70836
2.71016
2.71234
2.6994
2.69952
2.69975
2.70012
2.70064
2.70132
2.70217
2.70324
2.70444
2.70591
2.70746
2.70926
2.7111
2.71325
2.69991
2.70004
2.7003
2.70069
2.70125
2.70197
2.7029
2.70404
2.70532
2.70685
2.70845
2.71026
2.71213
2.71422
2.70062
2.70077
2.70106
2.70149
2.70209
2.70286
2.70384
2.70503
2.70637
2.70793
2.70956
2.71135
2.71321
2.71522
2.70153
2.70173
2.70205
2.70251
2.70315
2.70396
2.70499
2.70622
2.70759
2.70916
2.7108
2.71255
2.71439
2.7163
2.70252
2.70281
2.70316
2.70367
2.70437
2.70523
2.7063
2.70755
2.70894
2.71051
2.71213
2.71382
2.71562
2.71741
2.70365
2.70406
2.70446
2.70504
2.70579
2.7067
2.70781
2.70908
2.71046
2.712
2.71359
2.71523
2.71698
2.71866
2.70489
2.70548
2.70593
2.70658
2.70738
2.70834
2.70948
2.71076
2.71213
2.71364
2.71518
2.71676
2.71844
2.71998
2.7063
2.70701
2.70755
2.70827
2.70913
2.71013
2.71128
2.71256
2.71391
2.71538
2.71689
2.71844
2.72006
2.72147
2.70795
2.70877
2.70938
2.71013
2.71102
2.71205
2.71321
2.7145
2.71585
2.7173
2.71877
2.72025
2.72173
2.72304
2.70998
2.71072
2.71144
2.71223
2.71312
2.71413
2.71526
2.71649
2.71778
2.71918
2.72055
2.72196
2.72335
2.72468
2.70729
2.70774
2.70796
2.70825
2.70843
2.70863
2.70884
2.70913
2.70953
2.71007
2.71067
2.71145
2.71222
2.71327
2.70668
2.70719
2.70755
2.70792
2.70821
2.70851
2.70883
2.70925
2.70974
2.71041
2.71121
2.71217
2.71312
2.71437
2.7066
2.70711
2.70754
2.70797
2.70836
2.70876
2.7092
2.70972
2.71033
2.7111
2.71193
2.71294
2.71395
2.71528
2.70685
2.70737
2.70783
2.70827
2.7087
2.70915
2.70967
2.71029
2.711
2.71187
2.7128
2.71388
2.71496
2.71632
2.70734
2.70785
2.70835
2.70883
2.70934
2.70987
2.71048
2.71118
2.71196
2.71287
2.71383
2.71493
2.71605
2.7174
2.70812
2.7086
2.7091
2.70959
2.71014
2.71072
2.71141
2.71218
2.71302
2.71397
2.71495
2.71606
2.71719
2.7185
2.70908
2.70955
2.71005
2.71056
2.71115
2.71179
2.71253
2.71334
2.7142
2.71517
2.71615
2.71724
2.71835
2.71958
2.71024
2.71071
2.71119
2.71172
2.71234
2.71301
2.71378
2.7146
2.71547
2.71643
2.7174
2.71843
2.71949
2.72063
2.71158
2.71207
2.71252
2.71306
2.7137
2.71439
2.71517
2.71598
2.71683
2.71775
2.71866
2.71961
2.72062
2.72164
2.71304
2.71358
2.71401
2.71455
2.71518
2.71586
2.71663
2.71742
2.71824
2.7191
2.71994
2.72081
2.72175
2.72266
2.71471
2.71532
2.7157
2.71622
2.71681
2.71746
2.71818
2.71893
2.71969
2.72048
2.72124
2.72202
2.72288
2.72365
2.71648
2.71716
2.71749
2.71797
2.7185
2.71909
2.71976
2.72044
2.72112
2.72184
2.72254
2.72326
2.72404
2.72473
2.71841
2.71912
2.71941
2.7198
2.72025
2.72076
2.72134
2.72194
2.72256
2.72322
2.72385
2.72451
2.72521
2.72582
2.7206
2.72114
2.72138
2.72164
2.72198
2.72239
2.72287
2.72338
2.72391
2.72449
2.72504
2.72568
2.72635
2.72708
2.71179
2.71284
2.71349
2.71408
2.71453
2.71486
2.71508
2.71516
2.71515
2.71511
2.71505
2.71495
2.71483
2.71472
2.71197
2.71287
2.71357
2.71417
2.71465
2.71502
2.7153
2.71545
2.7155
2.71553
2.71558
2.71568
2.71577
2.71593
2.71238
2.71318
2.71388
2.71448
2.715
2.7154
2.71574
2.71599
2.71616
2.7163
2.71642
2.71657
2.71664
2.71689
2.71298
2.71371
2.71441
2.71501
2.71552
2.71593
2.71627
2.71654
2.71677
2.71699
2.7172
2.71743
2.71758
2.71788
2.71379
2.7145
2.71518
2.71575
2.71624
2.71665
2.71699
2.71728
2.71753
2.71779
2.71803
2.7183
2.71849
2.71882
2.71481
2.71546
2.71609
2.71661
2.71706
2.71743
2.71776
2.71804
2.7183
2.71857
2.71883
2.71911
2.71934
2.71971
2.716
2.71658
2.71713
2.71758
2.71798
2.71832
2.71862
2.71888
2.71913
2.71939
2.71963
2.7199
2.72016
2.72054
2.7173
2.71779
2.71822
2.71859
2.71894
2.71922
2.71949
2.71972
2.71996
2.7202
2.72039
2.72064
2.72093
2.72131
2.71866
2.71905
2.71937
2.71966
2.71993
2.72016
2.72039
2.72059
2.72079
2.72098
2.72115
2.72139
2.72168
2.72205
2.71995
2.72027
2.72047
2.72069
2.7209
2.72107
2.72126
2.72143
2.72158
2.72174
2.72189
2.72212
2.72239
2.72273
2.72125
2.7215
2.72161
2.72175
2.72188
2.72199
2.72213
2.72223
2.72235
2.72249
2.72262
2.72282
2.72307
2.72336
2.72243
2.72265
2.72267
2.72274
2.72281
2.72285
2.72294
2.72301
2.72311
2.72325
2.72333
2.7235
2.72371
2.72397
2.72361
2.72379
2.72374
2.72374
2.72373
2.72372
2.72376
2.72379
2.72386
2.72396
2.72401
2.72415
2.72433
2.72449
2.7248
2.72489
2.72475
2.72468
2.72462
2.72456
2.72456
2.72455
2.72458
2.72466
2.72468
2.7248
2.72493
2.72522
2.71642
2.71751
2.71825
2.71884
2.71925
2.71951
2.71955
2.71943
2.71917
2.71878
2.71829
2.71764
2.71687
2.71591
2.71722
2.71802
2.71873
2.71924
2.71961
2.71981
2.71981
2.71966
2.71937
2.71895
2.71845
2.71788
2.7173
2.71667
2.71796
2.71867
2.71929
2.71972
2.72003
2.72015
2.72011
2.71995
2.71968
2.71931
2.71888
2.71839
2.71781
2.71728
2.71877
2.71933
2.71984
2.72019
2.72042
2.72046
2.72037
2.72018
2.71991
2.71956
2.71916
2.71875
2.71826
2.71785
2.71952
2.71998
2.7204
2.72067
2.72081
2.72078
2.72068
2.72048
2.72021
2.71989
2.71953
2.71915
2.71872
2.71837
2.72028
2.72063
2.72095
2.72113
2.72118
2.72112
2.72098
2.72076
2.72048
2.72018
2.71985
2.71951
2.71917
2.71887
2.72101
2.72128
2.72149
2.72158
2.72157
2.72147
2.7213
2.72107
2.7208
2.72051
2.72019
2.7199
2.71961
2.71938
2.72169
2.72188
2.72199
2.722
2.72195
2.72182
2.72163
2.72138
2.7211
2.72082
2.72051
2.72027
2.72002
2.71984
2.72234
2.72245
2.72248
2.72244
2.72235
2.72218
2.72196
2.7217
2.72142
2.72113
2.72085
2.72064
2.72042
2.72029
2.72292
2.72296
2.72293
2.72285
2.72271
2.72251
2.72228
2.722
2.72172
2.72145
2.72117
2.72098
2.72076
2.72065
2.72348
2.72347
2.72339
2.72326
2.72309
2.72285
2.7226
2.7223
2.72202
2.72175
2.72146
2.72126
2.72103
2.72092
2.72394
2.7239
2.72377
2.72361
2.72341
2.72316
2.7229
2.7226
2.72232
2.72202
2.72172
2.72149
2.72122
2.72107
2.72444
2.72437
2.7242
2.724
2.72377
2.72348
2.7232
2.72286
2.72254
2.7222
2.72187
2.72159
2.72131
2.72109
2.72483
2.72468
2.72451
2.72429
2.72405
2.72374
2.72343
2.72306
2.72272
2.72236
2.72201
2.72168
2.72135
2.72106
2.71972
2.72037
2.72082
2.72109
2.7212
2.72114
2.72094
2.72062
2.72017
2.71961
2.71892
2.71808
2.71718
2.71604
2.72051
2.72092
2.72125
2.72143
2.72148
2.72138
2.72116
2.72079
2.72027
2.71961
2.71883
2.71796
2.71707
2.71607
2.72107
2.72139
2.72165
2.72175
2.72175
2.72161
2.72136
2.72094
2.72038
2.71971
2.71896
2.71812
2.71723
2.71626
2.72159
2.72179
2.72198
2.72201
2.72197
2.72179
2.72147
2.72102
2.72044
2.71977
2.71904
2.71822
2.71736
2.71644
2.72197
2.72211
2.72221
2.72219
2.72209
2.72186
2.72152
2.72107
2.72052
2.71987
2.71916
2.71835
2.7175
2.71657
2.72219
2.72228
2.72231
2.72226
2.72212
2.72187
2.72151
2.72105
2.7205
2.71987
2.71916
2.71837
2.71752
2.71661
2.72229
2.72234
2.72235
2.72228
2.72211
2.72184
2.72147
2.721
2.72045
2.71981
2.71911
2.71833
2.71749
2.71662
2.72232
2.72236
2.72233
2.72223
2.72204
2.72174
2.72134
2.72086
2.72028
2.71964
2.71894
2.71818
2.71736
2.71656
2.72234
2.72234
2.72227
2.72212
2.72189
2.72156
2.72114
2.72062
2.72004
2.71939
2.71869
2.71796
2.71718
2.71646
2.72227
2.72222
2.7221
2.72191
2.72164
2.72128
2.72084
2.72031
2.71972
2.71907
2.71838
2.71768
2.71694
2.7163
2.72215
2.72203
2.72187
2.72164
2.72134
2.72095
2.72049
2.71995
2.71935
2.7187
2.71802
2.71736
2.71667
2.71612
2.72193
2.72176
2.72157
2.7213
2.72097
2.72056
2.72009
2.71954
2.71894
2.7183
2.71765
2.71702
2.71637
2.71587
2.7217
2.72149
2.72127
2.72096
2.7206
2.72016
2.71966
2.71908
2.71848
2.71785
2.71723
2.71663
2.71605
2.71555
2.72135
2.72112
2.72089
2.72056
2.72019
2.71973
2.71923
2.71866
2.71808
2.71746
2.71686
2.71626
2.7157
2.71516
2.71982
2.7199
2.71998
2.71999
2.71995
2.71981
2.71958
2.71924
2.71879
2.71822
2.71755
2.71674
2.71582
2.71474
2.72017
2.72013
2.72015
2.72009
2.71998
2.71977
2.71948
2.71907
2.71853
2.71789
2.71712
2.71622
2.71524
2.71413
2.7204
2.72032
2.72026
2.72013
2.71996
2.71969
2.71933
2.71886
2.71827
2.71758
2.71678
2.71585
2.71487
2.71377
2.72051
2.72039
2.72028
2.7201
2.71987
2.71954
2.71913
2.7186
2.71796
2.71722
2.71639
2.71543
2.71445
2.71337
2.72051
2.72038
2.72022
2.72
2.7197
2.71932
2.71885
2.71828
2.71763
2.71686
2.71601
2.71507
2.7141
2.71306
2.72045
2.72028
2.72007
2.71979
2.71943
2.71901
2.7185
2.71791
2.71724
2.71646
2.71562
2.71469
2.71375
2.71274
2.72028
2.72007
2.7198
2.71949
2.71909
2.71863
2.7181
2.7175
2.71681
2.71605
2.71523
2.71434
2.71342
2.71246
2.71998
2.71974
2.71944
2.7191
2.71869
2.71821
2.71766
2.71704
2.71636
2.71561
2.7148
2.71395
2.71305
2.71214
2.71957
2.7193
2.719
2.71864
2.71822
2.71773
2.71717
2.71655
2.71587
2.71514
2.71435
2.71353
2.71266
2.71179
2.71906
2.71878
2.71848
2.71811
2.71768
2.71719
2.71663
2.71601
2.71533
2.71461
2.71384
2.71304
2.7122
2.7114
2.71849
2.71819
2.71789
2.71751
2.71708
2.71658
2.71603
2.7154
2.71473
2.71401
2.71326
2.7125
2.7117
2.71097
2.71781
2.71749
2.7172
2.71682
2.7164
2.7159
2.71535
2.71473
2.71407
2.71337
2.71264
2.7119
2.71114
2.71046
2.71706
2.71675
2.71645
2.71607
2.71564
2.71514
2.71459
2.71397
2.71331
2.71262
2.71193
2.71125
2.71056
2.70992
2.7161
2.71585
2.71555
2.71519
2.71479
2.71431
2.71378
2.71319
2.71257
2.71192
2.71128
2.71062
2.70996
2.70933
2.71808
2.71778
2.71757
2.71735
2.71716
2.71692
2.71664
2.71632
2.71593
2.71548
2.71497
2.7144
2.71376
2.71301
2.71803
2.71771
2.71744
2.71718
2.71692
2.71663
2.71628
2.71588
2.71541
2.71488
2.71429
2.71362
2.7129
2.71202
2.71797
2.71762
2.71728
2.71696
2.71663
2.71627
2.71586
2.7154
2.71487
2.71429
2.71363
2.71289
2.71213
2.71123
2.71776
2.7174
2.717
2.71664
2.71624
2.71583
2.71537
2.71486
2.71428
2.71364
2.71293
2.71213
2.71133
2.7104
2.71745
2.71706
2.71664
2.71624
2.71579
2.71533
2.71481
2.71425
2.71364
2.71296
2.71221
2.7114
2.71056
2.70963
2.71704
2.71662
2.71616
2.71572
2.71523
2.71473
2.71418
2.71359
2.71294
2.71223
2.71147
2.71064
2.70979
2.70888
2.71651
2.71605
2.71557
2.7151
2.71458
2.71405
2.71348
2.71287
2.7122
2.71149
2.71073
2.70991
2.70906
2.70817
2.71585
2.71536
2.71488
2.71438
2.71386
2.71331
2.71272
2.7121
2.71143
2.71073
2.70996
2.70916
2.70832
2.70746
2.71508
2.71457
2.71409
2.71358
2.71306
2.7125
2.71192
2.71129
2.71063
2.70994
2.70919
2.70841
2.70759
2.70679
2.71418
2.71367
2.71321
2.7127
2.71219
2.71164
2.71106
2.71045
2.7098
2.70912
2.70839
2.70765
2.70686
2.70612
2.71322
2.71272
2.71227
2.71176
2.71126
2.71072
2.71016
2.70956
2.70893
2.70827
2.70757
2.70687
2.70613
2.70546
2.71215
2.71166
2.71123
2.71075
2.71027
2.70975
2.70921
2.70864
2.70803
2.70741
2.70675
2.70609
2.7054
2.70479
2.71109
2.7106
2.71019
2.70972
2.70926
2.70875
2.70823
2.70768
2.7071
2.7065
2.70589
2.70529
2.70466
2.70414
2.70981
2.70942
2.70903
2.70861
2.70818
2.70772
2.70724
2.70673
2.7062
2.70566
2.7051
2.70454
2.70396
2.70345
2.71538
2.71479
2.71426
2.71379
2.7134
2.71306
2.71275
2.71246
2.71219
2.71192
2.71164
2.71135
2.71102
2.71073
2.71481
2.71428
2.7137
2.71324
2.7128
2.71241
2.71203
2.71168
2.71134
2.711
2.71064
2.71026
2.70989
2.70944
2.71425
2.71371
2.7131
2.71261
2.71212
2.71169
2.71127
2.71087
2.71048
2.71008
2.70967
2.70924
2.70883
2.70831
2.71365
2.71308
2.71245
2.71193
2.71141
2.71094
2.71047
2.71003
2.70959
2.70914
2.70869
2.70822
2.70775
2.70718
2.71295
2.71236
2.71172
2.71117
2.71062
2.71012
2.70963
2.70915
2.70868
2.7082
2.70771
2.70721
2.7067
2.70613
2.71218
2.71156
2.71092
2.71035
2.70979
2.70927
2.70875
2.70825
2.70775
2.70725
2.70673
2.7062
2.70566
2.70508
2.71131
2.71066
2.71003
2.70945
2.70889
2.70836
2.70783
2.70732
2.70681
2.70629
2.70576
2.70522
2.70466
2.70408
2.71034
2.70969
2.70908
2.70849
2.70794
2.7074
2.70688
2.70637
2.70585
2.70533
2.70479
2.70425
2.70367
2.70311
2.70932
2.70866
2.70807
2.70749
2.70694
2.70641
2.7059
2.70539
2.70488
2.70437
2.70384
2.7033
2.70273
2.70219
2.70821
2.70756
2.707
2.70643
2.70591
2.70539
2.70489
2.70439
2.70389
2.7034
2.70288
2.70237
2.70181
2.70131
2.70708
2.70644
2.70591
2.70536
2.70486
2.70435
2.70387
2.70339
2.70291
2.70244
2.70195
2.70146
2.70094
2.70048
2.70589
2.70528
2.70478
2.70426
2.70378
2.7033
2.70284
2.70238
2.70194
2.70149
2.70103
2.70058
2.7001
2.6997
2.70478
2.70416
2.70369
2.70318
2.70272
2.70226
2.70183
2.70139
2.70097
2.70056
2.70014
2.69972
2.69929
2.69897
2.70349
2.70297
2.70252
2.70206
2.70164
2.70122
2.70082
2.70043
2.70005
2.69969
2.69932
2.69895
2.69857
2.69825
2.71167
2.711
2.71037
2.70983
2.70937
2.70899
2.70867
2.70843
2.70825
2.70811
2.708
2.70793
2.7079
2.70785
2.71071
2.71016
2.7095
2.70896
2.70845
2.70804
2.70769
2.70741
2.7072
2.70702
2.70687
2.70674
2.70668
2.70652
2.70975
2.70918
2.70852
2.70798
2.70746
2.70704
2.70667
2.70638
2.70614
2.70593
2.70575
2.70559
2.70549
2.70531
2.70877
2.7082
2.70754
2.70699
2.70647
2.70603
2.70565
2.70533
2.70507
2.70483
2.70462
2.70443
2.70428
2.70409
2.70776
2.70716
2.70651
2.70596
2.70544
2.705
2.70461
2.70428
2.704
2.70374
2.70351
2.7033
2.70312
2.70293
2.70669
2.70608
2.70545
2.70491
2.7044
2.70396
2.70357
2.70323
2.70294
2.70267
2.70242
2.70218
2.70198
2.70179
2.70561
2.70499
2.70439
2.70385
2.70335
2.70292
2.70253
2.70219
2.70189
2.70161
2.70135
2.70111
2.70089
2.70069
2.70449
2.70387
2.7033
2.70277
2.7023
2.70187
2.70149
2.70115
2.70085
2.70056
2.7003
2.70005
2.69982
2.69962
2.70339
2.70276
2.70223
2.70171
2.70125
2.70084
2.70047
2.70013
2.69983
2.69955
2.69928
2.69905
2.69882
2.69861
2.70226
2.70164
2.70115
2.70065
2.70021
2.69981
2.69945
2.69913
2.69884
2.69857
2.6983
2.69808
2.69784
2.69765
2.70116
2.70056
2.70009
2.69961
2.6992
2.69881
2.69847
2.69816
2.69788
2.69762
2.69738
2.69717
2.69694
2.69677
2.70006
2.69948
2.69903
2.69858
2.69819
2.69782
2.6975
2.69722
2.69696
2.69671
2.69649
2.69629
2.69608
2.69593
2.69904
2.69847
2.69804
2.6976
2.69722
2.69688
2.69658
2.69631
2.69607
2.69585
2.69565
2.69548
2.69529
2.6952
2.69793
2.69742
2.69701
2.69661
2.69625
2.69594
2.69567
2.69544
2.69524
2.69504
2.69487
2.69471
2.69455
2.69446
2.70713
2.7066
2.70606
2.70562
2.70523
2.70492
2.70466
2.70447
2.70435
2.70429
2.7043
2.70437
2.70449
2.70457
2.70596
2.70555
2.70501
2.70457
2.70417
2.70385
2.7036
2.70341
2.70328
2.70321
2.70322
2.70327
2.70338
2.70335
2.70482
2.70441
2.70388
2.70345
2.70307
2.70277
2.70252
2.70233
2.70219
2.70212
2.70213
2.70216
2.70226
2.70222
2.70367
2.70327
2.70277
2.70236
2.70199
2.70169
2.70145
2.70126
2.70112
2.70105
2.70105
2.70106
2.70114
2.70111
2.70256
2.70214
2.70166
2.70127
2.70091
2.70063
2.70039
2.7002
2.70007
2.7
2.69998
2.69998
2.70004
2.70005
2.70144
2.70102
2.70057
2.70019
2.69986
2.69958
2.69935
2.69917
2.69904
2.69897
2.69894
2.69893
2.69898
2.699
2.70036
2.69993
2.69951
2.69915
2.69883
2.69856
2.69834
2.69817
2.69804
2.69797
2.69794
2.69793
2.69797
2.698
2.6993
2.69887
2.69848
2.69813
2.69783
2.69757
2.69736
2.6972
2.69708
2.697
2.69697
2.69696
2.69698
2.69702
2.69829
2.69785
2.69748
2.69715
2.69687
2.69662
2.69643
2.69627
2.69616
2.69608
2.69605
2.69604
2.69605
2.69609
2.6973
2.69686
2.69652
2.6962
2.69594
2.69571
2.69553
2.69538
2.69527
2.6952
2.69517
2.69516
2.69515
2.6952
2.69636
2.69592
2.6956
2.6953
2.69505
2.69484
2.69468
2.69454
2.69444
2.69438
2.69435
2.69434
2.69432
2.69439
2.69545
2.69501
2.69471
2.69443
2.6942
2.69401
2.69386
2.69373
2.69365
2.6936
2.69357
2.69356
2.69354
2.69361
2.69459
2.69417
2.69388
2.69362
2.6934
2.69322
2.69308
2.69297
2.69291
2.69287
2.69285
2.69285
2.69285
2.69295
2.69369
2.69333
2.69305
2.69281
2.69261
2.69245
2.69234
2.69225
2.6922
2.69218
2.69218
2.69217
2.69218
2.69225
2.702
2.70178
2.7015
2.70128