/*--------------------------------*- C++ -*----------------------------------*\
| =========                 |                                                 |
| \\      /  F ield         | OpenFOAM: The Open Source CFD Toolbox           |
|  \\    /   O peration     | Version:  v2106                                 |
|   \\  /    A nd           | Website:  www.openfoam.com                      |
|    \\/     M anipulation  |                                                 |
\*---------------------------------------------------------------------------*/
FoamFile
{
    version     2.0;
    format      ascii;
    arch        "LSB;label=32;scalar=64";
    class       volScalarField;
    location    "0.000213";
    object      Ttot;
}
// * * * * * * * * * * * * * * * * * * * * * * * * * * * * * * * * * * * * * //

dimensions      [0 0 0 1 0 0 0];

internalField   nonuniform List<scalar> 
17924
(
308.205
308.163
308.128
308.092
308.425
308.388
308.355
308.321
308.287
308.253
308.219
308.431
308.397
308.366
308.335
308.303
308.269
308.236
308.436
308.407
308.378
308.347
308.317
308.285
308.252
308.444
308.419
308.391
308.363
308.333
308.301
308.268
308.453
308.43
308.404
308.376
308.347
308.316
308.283
308.462
308.44
308.416
308.389
308.36
308.328
308.295
308.47
308.45
308.425
308.399
308.37
308.338
308.304
308.475
308.455
308.431
308.406
308.377
308.345
308.31
308.477
308.457
308.434
308.408
308.379
308.348
308.313
308.477
308.457
308.434
308.408
308.379
308.347
308.313
308.473
308.453
308.43
308.405
308.376
308.345
308.31
308.467
308.447
308.424
308.399
308.37
308.339
308.305
308.461
308.44
308.418
308.392
308.364
308.333
308.299
308.452
308.43
308.409
308.384
308.356
308.326
308.292
308.629
308.598
308.57
308.54
308.51
308.478
308.446
308.412
308.378
308.344
308.313
308.283
308.259
308.234
308.617
308.589
308.562
308.534
308.505
308.474
308.442
308.409
308.376
308.342
308.312
308.282
308.258
308.233
308.604
308.581
308.555
308.528
308.5
308.47
308.439
308.407
308.374
308.341
308.311
308.282
308.257
308.231
308.594
308.573
308.548
308.523
308.496
308.466
308.436
308.404
308.371
308.339
308.308
308.279
308.253
308.228
308.585
308.566
308.542
308.518
308.491
308.462
308.432
308.4
308.368
308.335
308.305
308.275
308.249
308.223
308.576
308.558
308.535
308.512
308.485
308.457
308.426
308.394
308.362
308.33
308.299
308.269
308.242
308.216
308.567
308.549
308.527
308.504
308.478
308.449
308.419
308.387
308.355
308.323
308.292
308.261
308.233
308.207
308.556
308.538
308.516
308.494
308.468
308.44
308.409
308.378
308.345
308.312
308.281
308.251
308.222
308.195
308.544
308.526
308.505
308.482
308.456
308.428
308.398
308.366
308.333
308.3
308.268
308.238
308.207
308.18
308.53
308.512
308.491
308.468
308.442
308.414
308.384
308.352
308.319
308.285
308.253
308.221
308.19
308.163
308.517
308.497
308.476
308.453
308.427
308.399
308.368
308.335
308.302
308.268
308.234
308.202
308.169
308.142
308.502
308.482
308.461
308.437
308.41
308.381
308.35
308.317
308.283
308.249
308.215
308.181
308.148
308.12
308.489
308.467
308.446
308.421
308.394
308.364
308.332
308.298
308.263
308.228
308.193
308.158
308.124
308.096
308.474
308.451
308.43
308.404
308.376
308.346
308.314
308.28
308.245
308.209
308.174
308.141
308.107
308.074
308.81
308.786
308.762
308.736
308.71
308.683
308.655
308.625
308.597
308.568
308.541
308.515
308.494
308.47
308.783
308.762
308.738
308.713
308.688
308.661
308.634
308.606
308.578
308.551
308.526
308.502
308.482
308.46
308.756
308.737
308.714
308.69
308.666
308.64
308.613
308.586
308.56
308.534
308.511
308.488
308.47
308.45
308.73
308.713
308.691
308.668
308.644
308.619
308.593
308.567
308.541
308.517
308.494
308.473
308.456
308.437
308.706
308.69
308.668
308.646
308.622
308.598
308.573
308.547
308.523
308.499
308.477
308.456
308.439
308.422
308.683
308.666
308.644
308.624
308.6
308.576
308.552
308.527
308.503
308.479
308.458
308.438
308.421
308.404
308.66
308.643
308.622
308.602
308.579
308.555
308.53
308.506
308.482
308.459
308.438
308.417
308.4
308.384
308.636
308.619
308.599
308.579
308.556
308.532
308.508
308.483
308.459
308.436
308.415
308.394
308.377
308.36
308.615
308.597
308.577
308.556
308.533
308.509
308.485
308.46
308.435
308.412
308.39
308.369
308.351
308.335
308.593
308.574
308.554
308.533
308.51
308.485
308.46
308.434
308.409
308.385
308.363
308.341
308.321
308.305
308.572
308.552
308.533
308.51
308.487
308.461
308.435
308.408
308.382
308.357
308.333
308.311
308.288
308.274
308.551
308.531
308.51
308.487
308.462
308.436
308.408
308.381
308.353
308.327
308.301
308.278
308.254
308.239
308.533
308.511
308.489
308.465
308.439
308.411
308.382
308.352
308.323
308.295
308.267
308.242
308.217
308.202
308.513
308.49
308.467
308.441
308.414
308.385
308.354
308.324
308.293
308.264
308.235
308.209
308.184
308.164
308.94
308.922
308.902
308.881
308.859
308.836
308.813
308.789
308.766
308.743
308.721
308.699
308.68
308.658
308.904
308.889
308.869
308.849
308.827
308.805
308.782
308.76
308.738
308.716
308.696
308.677
308.661
308.642
308.869
308.855
308.835
308.815
308.794
308.773
308.751
308.73
308.71
308.69
308.672
308.655
308.64
308.624
308.835
308.821
308.801
308.782
308.761
308.74
308.72
308.7
308.681
308.663
308.646
308.631
308.619
308.605
308.802
308.787
308.767
308.749
308.729
308.709
308.689
308.67
308.652
308.635
308.62
308.606
308.595
308.584
308.769
308.754
308.734
308.717
308.697
308.677
308.658
308.64
308.622
308.606
308.592
308.58
308.57
308.56
308.738
308.723
308.703
308.685
308.666
308.646
308.627
308.609
308.593
308.577
308.564
308.552
308.543
308.534
308.708
308.692
308.673
308.654
308.635
308.615
308.596
308.578
308.561
308.546
308.533
308.521
308.513
308.505
308.68
308.663
308.644
308.625
308.605
308.585
308.566
308.547
308.53
308.514
308.501
308.489
308.481
308.474
308.653
308.634
308.616
308.595
308.575
308.554
308.534
308.515
308.497
308.481
308.466
308.455
308.445
308.44
308.627
308.608
308.589
308.568
308.546
308.524
308.503
308.482
308.463
308.445
308.43
308.418
308.407
308.403
308.601
308.581
308.561
308.539
308.516
308.493
308.47
308.448
308.427
308.408
308.391
308.378
308.365
308.363
308.577
308.556
308.535
308.512
308.488
308.463
308.438
308.414
308.391
308.37
308.351
308.337
308.323
308.319
308.553
308.53
308.508
308.483
308.458
308.432
308.405
308.379
308.355
308.332
308.312
308.295
308.28
308.271
309.006
308.993
308.977
308.961
308.944
308.926
308.908
308.889
308.869
308.849
308.828
308.808
308.79
308.766
308.966
308.956
308.94
308.924
308.907
308.89
308.872
308.853
308.835
308.816
308.798
308.78
308.764
308.745
308.927
308.918
308.901
308.885
308.868
308.852
308.835
308.818
308.801
308.784
308.768
308.752
308.738
308.721
308.889
308.879
308.862
308.847
308.83
308.814
308.798
308.782
308.766
308.751
308.737
308.723
308.711
308.697
308.851
308.84
308.823
308.809
308.792
308.777
308.761
308.746
308.732
308.718
308.705
308.693
308.683
308.672
308.814
308.802
308.785
308.771
308.755
308.739
308.725
308.71
308.697
308.684
308.673
308.663
308.654
308.645
308.779
308.766
308.749
308.734
308.718
308.703
308.689
308.675
308.662
308.651
308.641
308.632
308.624
308.618
308.745
308.73
308.714
308.698
308.682
308.667
308.652
308.639
308.627
308.616
308.607
308.599
308.593
308.588
308.713
308.696
308.68
308.664
308.647
308.632
308.617
308.603
308.591
308.581
308.572
308.565
308.56
308.558
308.681
308.663
308.646
308.629
308.612
308.596
308.581
308.567
308.555
308.545
308.536
308.53
308.526
308.525
308.651
308.632
308.615
308.597
308.579
308.562
308.546
308.531
308.519
308.508
308.499
308.493
308.489
308.491
308.62
308.601
308.582
308.563
308.544
308.527
308.51
308.495
308.481
308.47
308.461
308.454
308.449
308.454
308.593
308.573
308.553
308.532
308.512
308.493
308.475
308.458
308.444
308.431
308.421
308.414
308.409
308.415
308.565
308.543
308.522
308.5
308.478
308.458
308.439
308.421
308.405
308.391
308.38
308.371
308.366
308.37
309.024
309.014
309.002
308.99
308.977
308.963
308.949
308.933
308.916
308.898
308.88
308.861
308.843
308.82
308.982
308.976
308.962
308.951
308.938
308.924
308.91
308.894
308.878
308.861
308.845
308.827
308.811
308.791
308.942
308.936
308.922
308.91
308.897
308.884
308.87
308.855
308.84
308.825
308.81
308.794
308.779
308.762
308.902
308.895
308.881
308.869
308.856
308.843
308.829
308.816
308.802
308.788
308.773
308.76
308.747
308.732
308.863
308.854
308.84
308.828
308.815
308.802
308.789
308.776
308.763
308.751
308.738
308.726
308.715
308.702
308.824
308.814
308.799
308.788
308.774
308.762
308.749
308.737
308.725
308.713
308.702
308.692
308.682
308.672
308.786
308.775
308.76
308.748
308.735
308.722
308.71
308.698
308.687
308.676
308.667
308.658
308.65
308.642
308.749
308.735
308.722
308.708
308.695
308.682
308.67
308.659
308.648
308.639
308.631
308.624
308.617
308.612
308.713
308.698
308.684
308.67
308.657
308.644
308.632
308.621
308.611
308.602
308.596
308.589
308.585
308.582
308.677
308.661
308.646
308.632
308.618
308.605
308.593
308.582
308.573
308.566
308.56
308.555
308.551
308.551
308.643
308.626
308.611
308.595
308.581
308.567
308.555
308.545
308.536
308.529
308.524
308.52
308.518
308.52
308.609
308.59
308.574
308.558
308.543
308.53
308.518
308.507
308.499
308.492
308.488
308.484
308.482
308.487
308.577
308.558
308.541
308.523
308.508
308.494
308.481
308.47
308.461
308.455
308.451
308.448
308.447
308.455
308.544
308.524
308.505
308.487
308.47
308.456
308.443
308.432
308.423
308.417
308.412
308.409
308.409
308.418
308.998
308.994
308.985
308.976
308.967
308.956
308.945
308.932
308.918
308.904
308.888
308.87
308.854
308.832
308.958
308.956
308.946
308.938
308.928
308.917
308.905
308.892
308.879
308.864
308.849
308.832
308.816
308.796
308.92
308.918
308.907
308.897
308.887
308.876
308.865
308.852
308.839
308.825
308.811
308.795
308.78
308.762
308.881
308.877
308.866
308.856
308.846
308.835
308.823
308.811
308.798
308.785
308.771
308.757
308.743
308.726
308.842
308.836
308.825
308.815
308.804
308.793
308.782
308.77
308.757
308.745
308.732
308.719
308.707
308.692
308.803
308.795
308.784
308.773
308.762
308.751
308.74
308.728
308.717
308.705
308.693
308.682
308.67
308.658
308.764
308.755
308.743
308.732
308.721
308.709
308.698
308.687
308.676
308.666
308.656
308.646
308.635
308.625
308.725
308.714
308.702
308.691
308.679
308.668
308.657
308.646
308.636
308.627
308.618
308.609
308.601
308.593
308.687
308.674
308.662
308.65
308.638
308.627
308.616
308.606
308.597
308.589
308.581
308.574
308.567
308.562
308.648
308.634
308.621
308.609
308.597
308.586
308.576
308.566
308.558
308.551
308.545
308.539
308.534
308.532
308.61
308.595
308.582
308.569
308.557
308.546
308.536
308.527
308.52
308.514
308.509
308.505
308.502
308.502
308.57
308.555
308.542
308.529
308.517
308.506
308.497
308.489
308.482
308.477
308.474
308.471
308.469
308.472
308.533
308.517
308.504
308.49
308.478
308.468
308.458
308.451
308.445
308.441
308.439
308.437
308.437
308.443
308.494
308.478
308.463
308.45
308.438
308.428
308.419
308.412
308.408
308.405
308.404
308.403
308.403
308.412
308.92
308.92
308.916
308.912
308.906
308.899
308.892
308.883
308.872
308.861
308.848
308.833
308.818
308.8
308.884
308.886
308.881
308.875
308.869
308.862
308.854
308.844
308.833
308.821
308.808
308.794
308.779
308.76
308.849
308.85
308.844
308.838
308.831
308.824
308.815
308.805
308.794
308.783
308.77
308.755
308.741
308.723
308.813
308.812
308.805
308.799
308.792
308.784
308.775
308.765
308.754
308.742
308.729
308.715
308.701
308.684
308.777
308.774
308.766
308.76
308.752
308.743
308.734
308.724
308.713
308.702
308.689
308.676
308.662
308.646
308.739
308.734
308.727
308.719
308.711
308.702
308.692
308.682
308.672
308.661
308.649
308.637
308.624
308.609
308.701
308.695
308.686
308.678
308.669
308.66
308.651
308.641
308.631
308.621
308.61
308.599
308.587
308.574
308.662
308.654
308.645
308.636
308.628
308.618
308.609
308.6
308.59
308.581
308.571
308.561
308.55
308.54
308.622
308.613
308.604
308.595
308.586
308.577
308.568
308.559
308.551
308.542
308.534
308.525
308.516
308.508
308.581
308.57
308.562
308.552
308.544
308.535
308.527
308.519
308.511
308.504
308.497
308.49
308.482
308.477
308.54
308.529
308.52
308.511
308.502
308.494
308.486
308.479
308.473
308.467
308.462
308.457
308.451
308.448
308.497
308.486
308.478
308.468
308.46
308.453
308.446
308.44
308.435
308.431
308.427
308.424
308.42
308.419
308.456
308.445
308.436
308.427
308.419
308.413
308.407
308.402
308.399
308.396
308.394
308.392
308.391
308.393
308.412
308.402
308.392
308.384
308.377
308.372
308.368
308.365
308.363
308.362
308.362
308.362
308.362
308.366
308.796
308.796
308.793
308.791
308.788
308.784
308.779
308.774
308.767
308.76
308.751
308.741
308.729
308.718
308.762
308.764
308.76
308.757
308.753
308.749
308.744
308.738
308.73
308.722
308.712
308.701
308.689
308.675
308.729
308.73
308.726
308.723
308.718
308.713
308.708
308.701
308.693
308.684
308.675
308.663
308.651
308.636
308.695
308.695
308.691
308.687
308.682
308.677
308.67
308.663
308.655
308.646
308.635
308.623
308.611
308.595
308.661
308.66
308.654
308.65
308.645
308.639
308.632
308.625
308.616
308.607
308.597
308.585
308.572
308.556
308.626
308.623
308.617
308.612
308.606
308.6
308.593
308.586
308.577
308.568
308.557
308.546
308.533
308.518
308.59
308.585
308.579
308.573
308.567
308.561
308.554
308.546
308.538
308.529
308.519
308.508
308.496
308.482
308.552
308.545
308.539
308.533
308.527
308.521
308.514
308.507
308.499
308.491
308.481
308.471
308.459
308.446
308.513
308.505
308.499
308.493
308.487
308.481
308.475
308.468
308.46
308.453
308.444
308.435
308.424
308.414
308.473
308.464
308.458
308.452
308.446
308.441
308.435
308.429
308.422
308.415
308.408
308.4
308.39
308.381
308.432
308.422
308.417
308.411
308.405
308.4
308.395
308.39
308.385
308.379
308.373
308.368
308.359
308.352
308.389
308.379
308.374
308.369
308.364
308.36
308.356
308.352
308.349
308.345
308.34
308.336
308.329
308.324
308.347
308.337
308.332
308.328
308.324
308.321
308.318
308.316
308.313
308.311
308.309
308.306
308.301
308.3
308.302
308.294
308.288
308.285
308.283
308.281
308.28
308.28
308.28
308.279
308.279
308.278
308.275
308.275
308.642
308.64
308.635
308.633
308.63
308.628
308.626
308.623
308.619
308.616
308.611
308.606
308.6
308.596
308.608
308.608
308.603
308.6
308.597
308.594
308.591
308.588
308.583
308.579
308.573
308.567
308.56
308.553
308.575
308.575
308.569
308.567
308.563
308.56
308.556
308.552
308.548
308.543
308.537
308.53
308.522
308.513
308.542
308.541
308.536
308.533
308.529
308.525
308.521
308.517
308.512
308.506
308.499
308.491
308.483
308.472
308.509
308.507
308.501
308.498
308.494
308.49
308.486
308.481
308.476
308.469
308.462
308.454
308.445
308.433
308.475
308.472
308.466
308.462
308.458
308.454
308.45
308.445
308.439
308.433
308.426
308.417
308.407
308.395
308.441
308.436
308.431
308.426
308.422
308.418
308.414
308.409
308.403
308.397
308.389
308.381
308.37
308.359
308.405
308.399
308.394
308.389
308.386
308.382
308.377
308.373
308.367
308.361
308.353
308.345
308.334
308.323
308.369
308.361
308.356
308.352
308.348
308.345
308.341
308.337
308.331
308.325
308.318
308.311
308.3
308.29
308.331
308.322
308.318
308.314
308.311
308.308
308.304
308.301
308.296
308.291
308.284
308.277
308.266
308.257
308.293
308.283
308.279
308.276
308.273
308.271
308.268
308.265
308.261
308.257
308.251
308.245
308.236
308.228
308.253
308.243
308.24
308.237
308.236
308.234
308.232
308.23
308.228
308.224
308.22
308.215
308.206
308.2
308.214
308.204
308.201
308.199
308.199
308.198
308.198
308.197
308.195
308.193
308.19
308.187
308.18
308.176
308.171
308.165
308.162
308.162
308.162
308.163
308.164
308.164
308.165
308.164
308.163
308.16
308.155
308.151
308.469
308.465
308.459
308.457
308.454
308.453
308.453
308.452
308.452
308.453
308.453
308.453
308.453
308.456
308.435
308.433
308.427
308.424
308.421
308.42
308.419
308.418
308.418
308.417
308.416
308.415
308.415
308.412
308.403
308.4
308.394
308.391
308.388
308.386
308.385
308.384
308.383
308.382
308.38
308.378
308.377
308.373
308.37
308.367
308.362
308.358
308.356
308.353
308.352
308.35
308.349
308.347
308.345
308.342
308.339
308.333
308.338
308.335
308.329
308.326
308.323
308.321
308.319
308.317
308.315
308.313
308.31
308.307
308.303
308.297
308.306
308.302
308.297
308.293
308.29
308.288
308.286
308.284
308.282
308.279
308.276
308.272
308.268
308.261
308.274
308.268
308.264
308.26
308.258
308.255
308.253
308.251
308.249
308.246
308.242
308.238
308.233
308.226
308.24
308.235
308.23
308.227
308.225
308.223
308.221
308.219
308.216
308.213
308.209
308.205
308.198
308.192
308.207
308.201
308.197
308.194
308.192
308.191
308.189
308.187
308.184
308.181
308.177
308.173
308.165
308.159
308.173
308.167
308.164
308.161
308.16
308.159
308.157
308.155
308.153
308.15
308.146
308.141
308.133
308.127
308.139
308.133
308.13
308.129
308.128
308.127
308.126
308.125
308.123
308.12
308.116
308.112
308.104
308.098
308.106
308.099
308.097
308.097
308.097
308.097
308.096
308.095
308.094
308.091
308.088
308.083
308.076
308.07
308.073
308.066
308.065
308.065
308.066
308.067
308.067
308.067
308.066
308.064
308.061
308.058
308.051
308.045
308.039
308.033
308.033
308.035
308.037
308.038
308.04
308.04
308.04
308.039
308.036
308.032
308.026
308.021
308.28
308.276
308.271
308.269
308.269
308.27
308.272
308.274
308.278
308.282
308.287
308.292
308.298
308.304
308.246
308.245
308.24
308.239
308.238
308.239
308.241
308.243
308.246
308.25
308.254
308.257
308.263
308.264
308.217
308.216
308.211
308.209
308.209
308.209
308.21
308.212
308.214
308.217
308.22
308.223
308.228
308.228
308.187
308.185
308.181
308.18
308.179
308.179
308.18
308.181
308.183
308.186
308.189
308.191
308.194
308.193
308.159
308.156
308.152
308.151
308.15
308.15
308.151
308.152
308.153
308.155
308.158
308.159
308.162
308.16
308.13
308.127
308.124
308.122
308.122
308.122
308.122
308.123
308.124
308.126
308.127
308.129
308.13
308.129
308.102
308.098
308.096
308.094
308.094
308.094
308.094
308.095
308.096
308.097
308.098
308.099
308.099
308.098
308.073
308.07
308.068
308.067
308.067
308.067
308.067
308.068
308.069
308.069
308.069
308.069
308.068
308.068
308.045
308.042
308.041
308.04
308.04
308.041
308.041
308.042
308.042
308.042
308.042
308.041
308.039
308.039
308.018
308.015
308.015
308.014
308.015
308.016
308.016
308.017
308.017
308.016
308.015
308.014
308.011
308.011
307.991
307.989
307.989
307.989
307.99
307.991
307.992
307.992
307.992
307.991
307.99
307.989
307.985
307.984
307.967
307.964
307.965
307.966
307.967
307.968
307.969
307.969
307.969
307.968
307.966
307.964
307.959
307.958
307.942
307.94
307.941
307.943
307.945
307.946
307.947
307.948
307.947
307.946
307.944
307.942
307.937
307.934
307.919
307.916
307.919
307.921
307.924
307.926
307.927
307.927
307.927
307.925
307.923
307.919
307.914
307.909
308.069
308.069
308.068
308.07
308.073
308.077
308.082
308.088
308.095
308.102
308.11
308.119
308.129
308.139
308.042
308.044
308.044
308.046
308.048
308.052
308.057
308.063
308.07
308.077
308.085
308.092
308.101
308.107
308.019
308.021
308.02
308.022
308.025
308.029
308.033
308.038
308.044
308.051
308.058
308.065
308.073
308.078
307.995
307.997
307.997
307.999
308.002
308.006
308.01
308.015
308.02
308.026
308.033
308.04
308.047
308.051
307.973
307.974
307.975
307.977
307.98
307.983
307.987
307.992
307.997
308.003
308.009
308.015
308.022
308.026
307.951
307.952
307.953
307.956
307.959
307.962
307.966
307.97
307.975
307.98
307.986
307.991
307.997
308.002
307.93
307.931
307.933
307.935
307.938
307.941
307.945
307.949
307.953
307.958
307.963
307.968
307.973
307.978
307.909
307.911
307.913
307.916
307.919
307.922
307.925
307.929
307.933
307.937
307.941
307.945
307.95
307.954
307.89
307.891
307.894
307.897
307.9
307.903
307.906
307.909
307.913
307.916
307.92
307.924
307.927
307.931
307.871
307.873
307.876
307.879
307.882
307.885
307.888
307.891
307.894
307.897
307.9
307.903
307.905
307.909
307.853
307.856
307.859
307.863
307.866
307.869
307.871
307.874
307.876
307.878
307.88
307.883
307.884
307.887
307.838
307.84
307.844
307.847
307.851
307.854
307.856
307.858
307.859
307.861
307.862
307.863
307.863
307.866
307.822
307.825
307.83
307.833
307.837
307.84
307.842
307.843
307.844
307.845
307.845
307.846
307.845
307.847
307.81
307.812
307.817
307.821
307.824
307.827
307.828
307.829
307.83
307.829
307.829
307.827
307.825
307.825
307.832
307.839
307.846
307.853
307.861
307.869
307.878
307.887
307.897
307.907
307.918
307.93
307.942
307.954
307.817
307.824
307.831
307.839
307.847
307.856
307.865
307.874
307.883
307.893
307.904
307.915
307.926
307.936
307.804
307.812
307.819
307.827
307.834
307.842
307.851
307.859
307.869
307.879
307.889
307.899
307.91
307.92
307.791
307.799
307.806
307.814
307.822
307.83
307.838
307.846
307.855
307.865
307.875
307.885
307.896
307.905
307.779
307.787
307.794
307.802
307.809
307.817
307.825
307.833
307.842
307.851
307.861
307.871
307.881
307.89
307.766
307.775
307.782
307.79
307.797
307.805
307.812
307.82
307.829
307.837
307.847
307.856
307.866
307.875
307.755
307.763
307.771
307.778
307.786
307.793
307.8
307.808
307.816
307.824
307.833
307.842
307.851
307.86
307.744
307.752
307.76
307.768
307.775
307.782
307.789
307.796
307.804
307.811
307.819
307.828
307.836
307.846
307.734
307.742
307.75
307.757
307.765
307.772
307.778
307.785
307.792
307.799
307.806
307.814
307.822
307.831
307.725
307.733
307.741
307.748
307.755
307.762
307.768
307.774
307.781
307.787
307.794
307.801
307.808
307.817
307.716
307.724
307.733
307.74
307.747
307.753
307.759
307.764
307.77
307.776
307.782
307.788
307.794
307.802
307.709
307.718
307.726
307.733
307.739
307.745
307.75
307.755
307.76
307.765
307.77
307.775
307.781
307.788
307.703
307.712
307.72
307.727
307.733
307.738
307.743
307.747
307.751
307.754
307.759
307.763
307.768
307.774
307.702
307.709
307.716
307.722
307.728
307.732
307.736
307.739
307.741
307.744
307.747
307.75
307.753
307.756
307.57
307.585
307.599
307.613
307.627
307.639
307.652
307.664
307.677
307.69
307.704
307.718
307.731
307.745
307.568
307.583
307.597
307.612
307.626
307.639
307.653
307.666
307.679
307.692
307.705
307.719
307.733
307.746
307.568
307.583
307.599
307.613
307.627
307.64
307.653
307.665
307.678
307.691
307.704
307.718
307.732
307.745
307.568
307.583
307.598
307.613
307.627
307.64
307.653
307.665
307.678
307.691
307.704
307.717
307.731
307.744
307.568
307.584
307.599
307.613
307.627
307.639
307.652
307.664
307.677
307.689
307.702
307.715
307.729
307.742
307.568
307.583
307.598
307.612
307.626
307.639
307.651
307.663
307.676
307.688
307.701
307.714
307.727
307.74
307.568
307.584
307.598
307.612
307.625
307.638
307.65
307.662
307.674
307.686
307.698
307.71
307.723
307.736
307.568
307.583
307.598
307.612
307.625
307.637
307.649
307.66
307.672
307.683
307.695
307.707
307.719
307.732
307.568
307.584
307.598
307.611
307.624
307.636
307.647
307.658
307.669
307.68
307.692
307.703
307.715
307.727
307.569
307.584
307.598
307.611
307.623
307.635
307.646
307.656
307.667
307.677
307.688
307.699
307.71
307.722
307.571
307.586
307.599
307.612
307.623
307.634
307.644
307.654
307.664
307.674
307.684
307.694
307.705
307.717
307.573
307.587
307.6
307.612
307.623
307.633
307.643
307.652
307.661
307.67
307.679
307.689
307.699
307.71
307.576
307.59
307.602
307.613
307.623
307.633
307.641
307.649
307.657
307.666
307.674
307.683
307.692
307.702
307.581
307.594
307.605
307.615
307.624
307.632
307.639
307.647
307.654
307.661
307.668
307.676
307.684
307.693
307.287
307.308
307.329
307.348
307.367
307.384
307.401
307.417
307.433
307.448
307.464
307.479
307.495
307.512
307.3
307.32
307.342
307.361
307.381
307.399
307.417
307.434
307.45
307.466
307.482
307.498
307.513
307.53
307.315
307.335
307.358
307.378
307.397
307.415
307.433
307.449
307.465
307.481
307.497
307.513
307.528
307.544
307.328
307.349
307.371
307.391
307.411
307.429
307.447
307.463
307.48
307.496
307.512
307.528
307.543
307.559
307.342
307.363
307.385
307.405
307.424
307.442
307.46
307.476
307.492
307.508
307.524
307.54
307.555
307.571
307.354
307.376
307.397
307.417
307.436
307.454
307.472
307.488
307.505
307.52
307.536
307.551
307.567
307.582
307.366
307.388
307.409
307.429
307.448
307.465
307.483
307.499
307.515
307.53
307.545
307.561
307.576
307.591
307.378
307.4
307.42
307.44
307.458
307.476
307.493
307.509
307.524
307.54
307.555
307.57
307.585
307.6
307.39
307.411
307.431
307.45
307.468
307.485
307.502
307.517
307.532
307.547
307.562
307.577
307.592
307.606
307.402
307.423
307.442
307.46
307.477
307.494
307.51
307.525
307.54
307.554
307.569
307.583
307.598
307.612
307.413
307.434
307.452
307.47
307.486
307.502
307.517
307.532
307.546
307.56
307.574
307.588
307.603
307.617
307.425
307.444
307.461
307.479
307.494
307.509
307.524
307.538
307.552
307.565
307.579
307.593
307.606
307.621
307.437
307.455
307.471
307.487
307.502
307.516
307.53
307.543
307.556
307.569
307.582
307.595
307.608
307.622
307.45
307.467
307.481
307.496
307.509
307.522
307.535
307.547
307.559
307.571
307.584
307.597
307.609
307.624
307.014
307.035
307.057
307.078
307.098
307.118
307.137
307.154
307.171
307.187
307.203
307.219
307.235
307.251
307.038
307.057
307.081
307.103
307.125
307.145
307.165
307.184
307.202
307.219
307.235
307.252
307.268
307.286
307.064
307.085
307.109
307.131
307.153
307.173
307.193
307.212
307.23
307.247
307.263
307.28
307.296
307.314
307.089
307.11
307.135
307.157
307.179
307.2
307.22
307.239
307.257
307.275
307.292
307.309
307.325
307.343
307.113
307.136
307.16
307.182
307.205
307.225
307.246
307.264
307.283
307.3
307.317
307.334
307.35
307.368
307.137
307.16
307.184
307.207
307.229
307.25
307.27
307.289
307.307
307.325
307.342
307.359
307.376
307.392
307.161
307.184
307.208
307.23
307.252
307.273
307.293
307.312
307.33
307.347
307.364
307.381
307.398
307.414
307.184
307.208
307.23
307.252
307.274
307.294
307.314
307.333
307.351
307.369
307.386
307.403
307.419
307.435
307.206
307.23
307.252
307.273
307.294
307.315
307.334
307.353
307.371
307.388
307.405
307.422
307.439
307.454
307.228
307.251
307.272
307.294
307.314
307.334
307.353
307.371
307.389
307.406
307.423
307.44
307.457
307.472
307.249
307.272
307.292
307.313
307.332
307.352
307.37
307.388
307.406
307.423
307.439
307.456
307.473
307.489
307.271
307.292
307.311
307.331
307.35
307.368
307.386
307.404
307.421
307.438
307.454
307.471
307.488
307.505
307.291
307.311
307.328
307.348
307.366
307.384
307.401
307.418
307.435
307.451
307.468
307.485
307.502
307.519
307.311
307.329
307.346
307.364
307.381
307.398
307.414
307.431
307.447
307.463
307.48
307.497
307.514
307.532
306.785
306.799
306.818
306.835
306.852
306.869
306.885
306.901
306.916
306.93
306.945
306.958
306.972
306.985
306.814
306.829
306.848
306.866
306.885
306.902
306.919
306.936
306.952
306.968
306.983
306.997
307.011
307.027
306.846
306.861
306.881
306.9
306.919
306.936
306.954
306.97
306.987
307.003
307.018
307.033
307.047
307.064
306.877
306.893
306.914
306.932
306.951
306.97
306.988
307.005
307.022
307.038
307.054
307.07
307.084
307.101
306.908
306.925
306.946
306.965
306.984
307.003
307.021
307.038
307.056
307.072
307.088
307.104
307.119
307.135
306.939
306.957
306.978
306.997
307.016
307.035
307.053
307.071
307.089
307.106
307.122
307.138
307.154
307.17
306.969
306.989
307.008
307.028
307.047
307.066
307.085
307.103
307.12
307.138
307.154
307.17
307.186
307.202
307
307.019
307.039
307.058
307.077
307.096
307.115
307.133
307.151
307.168
307.185
307.202
307.218
307.233
307.029
307.049
307.068
307.087
307.106
307.125
307.144
307.162
307.18
307.198
307.215
307.231
307.248
307.263
307.058
307.078
307.096
307.116
307.134
307.153
307.172
307.19
307.208
307.226
307.243
307.26
307.277
307.292
307.086
307.105
307.123
307.142
307.161
307.18
307.198
307.217
307.235
307.252
307.27
307.287
307.304
307.319
307.114
307.133
307.15
307.169
307.187
307.205
307.224
307.242
307.26
307.277
307.295
307.312
307.33
307.345
307.139
307.158
307.174
307.193
307.211
307.229
307.247
307.265
307.283
307.301
307.319
307.336
307.355
307.371
307.166
307.183
307.199
307.217
307.234
307.252
307.27
307.287
307.305
307.322
307.34
307.358
307.377
307.396
306.621
306.627
306.637
306.646
306.656
306.667
306.677
306.688
306.698
306.708
306.717
306.727
306.651
306.657
306.667
306.676
306.687
306.698
306.709
306.72
306.731
306.742
306.752
306.763
306.68
306.687
306.698
306.708
306.719
306.73
306.741
306.753
306.764
306.775
306.786
306.798
306.711
306.719
306.73
306.74
306.751
306.763
306.774
306.786
306.798
306.81
306.822
306.834
306.742
306.75
306.761
306.772
306.784
306.796
306.808
306.82
306.833
306.845
306.857
306.869
306.773
306.782
306.793
306.805
306.817
306.829
306.842
306.855
306.867
306.88
306.893
306.905
306.804
306.814
306.825
306.837
306.85
306.863
306.876
306.889
306.902
306.915
306.928
306.941
306.835
306.846
306.858
306.87
306.883
306.896
306.909
306.922
306.936
306.949
306.963
306.976
306.866
306.878
306.889
306.902
306.915
306.928
306.942
306.956
306.969
306.983
306.997
307.01
306.898
306.909
306.92
306.933
306.947
306.96
306.974
306.988
307.002
307.016
307.031
307.045
306.927
306.94
306.951
306.964
306.977
306.992
307.006
307.02
307.035
307.049
307.064
307.078
306.958
306.97
306.981
306.994
307.008
307.022
307.037
307.051
307.066
307.081
307.096
307.11
306.986
306.997
307.009
307.023
307.037
307.052
307.067
307.082
307.097
307.112
307.127
307.142
307.016
307.026
307.039
307.052
307.066
307.081
307.096
307.111
307.126
307.141
307.156
307.172
308.194
308.206
308.215
308.235
308.257
308.286
308.147
308.15
308.155
308.17
308.19
308.219
308.107
308.1
308.098
308.104
308.118
308.142
308.067
308.05
308.04
308.038
308.045
308.063
308.428
308.448
308.465
308.492
308.518
308.55
308.39
308.404
308.422
308.449
308.479
308.515
308.354
308.363
308.377
308.401
308.428
308.465
308.315
308.318
308.327
308.345
308.369
308.402
308.277
308.273
308.274
308.284
308.302
308.33
308.238
308.228
308.221
308.223
308.233
308.255
308.201
308.184
308.17
308.165
308.169
308.183
308.646
308.674
308.698
308.727
308.755
308.784
308.615
308.644
308.671
308.706
308.74
308.776
308.587
308.614
308.644
308.68
308.717
308.757
308.555