/*--------------------------------*- C++ -*----------------------------------*\
| =========                 |                                                 |
| \\      /  F ield         | OpenFOAM: The Open Source CFD Toolbox           |
|  \\    /   O peration     | Version:  v2106                                 |
|   \\  /    A nd           | Website:  www.openfoam.com                      |
|    \\/     M anipulation  |                                                 |
\*---------------------------------------------------------------------------*/
FoamFile
{
    version     2.0;
    format      ascii;
    arch        "LSB;label=32;scalar=64";
    class       volScalarField;
    location    "0.000158";
    object      k;
}
// * * * * * * * * * * * * * * * * * * * * * * * * * * * * * * * * * * * * * //

dimensions      [0 2 -2 0 0 0 0];

internalField   nonuniform List<scalar> 
18273
(
6.02322
4.82269
3.81903
2.82849
2.16425
1.90853
2.066
2.52131
3.19366
4.00858
4.8135
5.35387
5.58538
5.84298
6.23889
4.9381
3.61111
2.25185
1.34233
0.922846
0.900883
1.18196
1.69807
2.36171
3.07531
3.67688
4.05436
4.41985
6.75886
5.08158
3.2853
1.67722
0.766771
0.382006
0.305518
0.445928
0.787918
1.29922
1.88652
2.44003
2.92237
3.44983
7.05732
4.67103
2.50255
0.993657
0.344851
0.125221
0.0802266
0.139976
0.318001
0.63938
1.07797
1.56416
2.10728
2.8117
6.83127
3.8
1.60534
0.497803
0.164279
0.0551209
0.0284407
0.0509453
0.133227
0.312135
0.620674
1.08385
1.76026
2.7034
6.1932
2.92442
1.04078
0.388825
0.175768
0.0707372
0.0359364
0.0450007
0.0961782
0.22299
0.491192
0.998697
1.84084
3.0127
5.48978
2.39199
0.975671
0.527637
0.288707
0.14209
0.0872276
0.0995133
0.170414
0.337469
0.68073
1.31444
2.30951
3.64925
5.01539
2.32782
1.30166
0.852593
0.540365
0.315932
0.217117
0.23976
0.367693
0.633882
1.10879
1.88186
2.98563
4.43975
4.96848
2.64036
1.88057
1.41229
1.01865
0.684072
0.490874
0.501655
0.695751
1.06756
1.65055
2.51131
3.6832
5.19498
5.13569
3.37194
2.72028
2.29825
1.86966
1.42231
1.04803
0.943707
1.13866
1.56253
2.18695
3.08209
4.30168
5.75743
5.36193
4.10901
3.74142
3.60009
3.29706
2.80632
2.2005
1.80188
1.81408
2.17565
2.75455
3.62141
4.71819
5.97861
5.71144
4.91947
4.86667
5.15489
5.27891
4.95888
4.31406
3.60941
3.17239
3.18104
3.49035
4.1394
4.97446
6.09667
6.1558
5.56634
5.75533
6.41321
7.15074
7.39328
7.03631
6.30076
5.45787
4.88129
4.66597
4.90751
5.40907
6.38668
6.9402
6.42483
6.63935
7.25249
8.18855
9.05947
9.25048
8.8388
8.01228
7.05846
6.31616
6.07358
6.28588
7.13769
5.37822
4.36733
3.63363
2.9869
2.72377
2.80584
3.17409
3.65484
4.12627
4.58643
4.97818
5.18342
5.224
5.37817
5.35532
4.0788
3.0018
2.00397
1.38817
1.19227
1.34988
1.73695
2.23795
2.76663
3.26622
3.64205
3.88814
4.28563
5.61706
4.01862
2.58482
1.37939
0.686305
0.41377
0.423905
0.642973
1.03403
1.53874
2.06898
2.55277
3.04017
3.73877
5.79096
3.70254
1.9847
0.80078
0.283795
0.113426
0.0999206
0.194774
0.413293
0.767443
1.22738
1.75194
2.44799
3.48957
5.79616
3.16926
1.33166
0.411431
0.126884
0.0412072
0.0285331
0.0647268
0.168724
0.381778
0.74712
1.33935
2.30877
3.7303
5.67876
2.65586
0.911284
0.319366
0.130186
0.0493971
0.0285485
0.0461202
0.111991
0.275473
0.636391
1.35573
2.58862
4.30311
5.57279
2.3526
0.870678
0.426526
0.216755
0.104329
0.0706651
0.0945467
0.184594
0.403396
0.872963
1.75778
3.14947
4.97855
5.62466
2.38966
1.15481
0.693596
0.421595
0.247659
0.186208
0.23062
0.386527
0.716604
1.32344
2.31398
3.70877
5.49605
5.85704
2.7422
1.66111
1.16701
0.822281
0.56256
0.43813
0.491342
0.720979
1.15176
1.83312
2.82504
4.13229
5.78032
6.20617
3.48802
2.3984
1.91836
1.53954
1.20538
0.959165
0.938123
1.17459
1.64184
2.31385
3.2572
4.47991
5.92109
6.45139
4.24877
3.32504
2.97672
2.71768
2.40562
2.04456
1.82518
1.90342
2.30648
2.88699
3.73518
4.73044
5.91685
6.72964
5.11191
4.43946
4.36409
4.39796
4.27078
4.02212
3.67489
3.43531
3.52219
3.80401
4.37963
5.03594
6.017
6.98751
5.75931
5.35305
5.57316
6.07233
6.43657
6.56645
6.43419
6.02556
5.62696
5.37145
5.47295
5.70463
6.40411
7.48052
6.575
6.31995
6.58049
7.33077
8.29134
8.93106
9.15607
8.93861
8.34682
7.56083
7.06407
6.88058
7.25098
5.18249
4.23963
3.82241
3.59132
3.79538
4.23904
4.6261
4.74508
4.59342
4.40553
4.34923
4.46367
4.66306
5.01169
4.61384
3.34083
2.5525
1.94127
1.68935
1.78264
2.08209
2.39389
2.614
2.7937
3.00059
3.2437
3.58789
4.25352
4.29083
2.88497
1.85283
1.08557
0.66214
0.542599
0.646016
0.8833
1.18994
1.5499
1.96218
2.42801
3.07684
4.13061
4.08852
2.52775
1.33214
0.571073
0.225978
0.119764
0.138084
0.248539
0.453559
0.766003
1.19981
1.78989
2.74143
4.27331
4.1315
2.26742
0.937405
0.294124
0.087058
0.0291574
0.0276391
0.0679973
0.169471
0.375778
0.764094
1.49669
2.82944
4.82481
4.4325
2.12531
0.712012
0.235105
0.0831119
0.0279521
0.0175979
0.0361366
0.100297
0.272759
0.696249
1.61993
3.26907
5.48834
4.98078
2.13908
0.719148
0.30924
0.137967
0.0610502
0.0435518
0.0684701
0.156034
0.388927
0.935029
2.02246
3.74318
5.85007
5.76739
2.36582
0.950862
0.502344
0.278855
0.156981
0.125109
0.173083
0.321066
0.656396
1.3163
2.43051
3.9737
5.7638
6.60708
2.84046
1.36652
0.85235
0.567427
0.382154
0.316278
0.387879
0.60603
1.02509
1.71478
2.71902
3.98232
5.43065
7.14353
3.65807
1.9759
1.42216
1.08865
0.852704
0.725097
0.773814
1.01369
1.45708
2.10268
2.98283
4.01522
5.24928
7.3541
4.34332
2.77485
2.21291
1.94413
1.73425
1.5819
1.55596
1.72038
2.11464
2.65971
3.46958
4.29093
5.33214
7.58169
5.24101
3.90262
3.34696
3.17199
3.1043
3.12926
3.15616
3.21669
3.45954
3.77134
4.34368
4.84394
5.71618
7.76053
5.9813
4.90488
4.45139
4.46884
4.70687
5.14894
5.58739
5.78557
5.80658
5.64171
5.72813
5.80552
6.43418
8.23149
7.06674
6.1816
5.67692
5.74541
6.29489
7.08966
7.94352
8.4938
8.58369
8.0894
7.59574
7.21453
7.37987
6.47895
8.3199
12.2247
22.1889
49.702
11.8829
5.01692
6.41548
9.47661
18.3944
45.0885
11.0935
4.09026
5.23615
7.64345
15.3277
42.0513
10.6052
3.65461
4.84237
6.91891
13.428
38.3019
10.306
3.77296
5.12788
7.17446
12.9051
35.3523
10.172
4.30881
5.90543
8.17398
13.6822
32.8837
10.2006
5.09942
6.88486
9.38041
14.8225
31.3567
10.486
5.88948
7.75964
10.3974
15.86
30.5784
11.1936
6.4403
8.25117
10.943
16.5599
30.7354
12.5915
6.74042
8.41694
11.1824
17.171
32.3504
14.535
6.87156
8.36856
11.1517
17.4923
36.0067
16.582
6.94811
8.27239
11.035
17.799
40.8
18.4338
7.14893
8.44875
11.385
18.8718
45.9208
19.4414
7.71747
9.30542
12.9402
21.7929
50.6803
18.3916
5.89638
7.32419
10.1277
17.1456
35.9887
14.7593
5.01469
6.25717
8.54667
14.411
30.1277
13.5014
4.66775
5.92241
7.91631
12.8134
26.9026
12.8186
4.78251
6.30532
8.3609
12.7094
24.3175
12.5433
5.37023
7.27116
9.59387
13.7375
23.182
12.5047
6.22411
8.44493
11.1069
15.4068
23.1946
12.6163
6.97135
9.29208
12.1776
16.9689
24.4006
13.1496
7.28776
9.53087
12.5192
18.0358
26.827
14.4411
7.17975
9.17169
12.043
18.2032
30.3096
16.4908
6.92226
8.53678
11.1552
17.4115
33.5782
19.1132
6.71175
7.93976
10.2063
16.0726
35.9866
21.512
6.66805
7.63529
9.62135
15.1478
37.3283
22.9577
6.92625
7.85112
9.8611
15.3997
38.2783
22.9259
7.64185
8.79595
11.2746
17.3692
39.1274
20.9311
5.5974
6.62495
7.94438
10.5108
15.8712
15.3123
5.25875
6.43453
7.78786
10.015
14.4325
14.8062
5.5077
6.92637
8.377
10.3852
13.9897
15.2996
6.13857
7.9515
9.65075
11.6014
14.6401
16.6008
7.05362
9.26929
11.2202
13.2211
15.8135
18.338
7.80298
10.1879
12.3203
14.5781
17.3097
20.0867
7.97718
10.2558
12.4597
15.1872
18.4143
21.6472
7.5103
9.47461
11.6259
14.9398
19.0575
22.8295
6.71925
8.27935
10.1743
13.8858
20.0371
23.4078
6.10572
7.18223
8.69768
12.2532
20.8916
23.3453
5.90143
6.56
7.76593
10.7486
20.6109
22.7608
6.11744
6.61824
7.60402
10.1247
19.7375
21.7728
6.71964
7.23023
8.16031
10.4684
19.0931
20.6533
7.58329
8.28104
9.33052
11.5817
18.7061
19.5494
8.68643
11.2708
16.3969
27.4435
51.6166
11.5738
7.73763
9.87822
14.0918
23.444
44.0148
10.7466
7.58115
9.48607
13.0509
21.0194
38.4847
10.2253
8.07485
9.82569
12.923
19.8155
34.4239
9.81876
8.90754
10.4173
13.053
19.1969
32.0132
9.64994
9.63139
10.7254
12.8812
18.5041
30.6119
9.96822
9.81485
10.4253
12.2173
17.4963
30.4552
10.9549
9.41178
9.77856
11.4567
16.4935
31.3346
12.6844
8.72175
9.18951
10.9904
15.8979
32.7489
15.2314
8.15802
8.77703
10.6568
15.6597
34.8214
18.2209
7.62909
8.3499
10.2504
15.6696
38.2516
21.0363
7.15984
8.00956
10.0855
16.3352
43.2561
23.4001
7.02489
8.10912
10.6931
18.3722
50.5461
24.6839
7.4885
9.00537
12.6661
22.8112
59.1725
22.994
8.75746
10.6596
14.1099
21.3405
37.4789
15.5218
8.49578
10.2003
13.0095
18.4853
29.8325
14.6465
8.89931
10.6308
13.0767
17.5629
26.22
14.1378
9.81238
11.5258
13.7079
17.6058
24.314
13.9966
10.6467
12.1221
13.9846
17.7416
23.8732
14.4892
10.9255
11.9957
13.5521
17.484
24.6052
15.7317
10.5004
11.0773
12.3976
16.7225
26.6687
17.6092
9.54571
9.86935
11.1242
15.6252
28.9225
19.9599
8.46754
8.89127
10.2621
14.6136
30.1539
22.5178
7.63117
8.19433
9.62095
13.8247
30.7816
24.8147
7.04813
7.68315
9.1532
13.4551
31.8336
26.4029
6.83437
7.5476
9.14462
13.853
34.1794
27.1756
7.09176
7.97026
9.9206
15.4357
38.4939
26.8098
7.91552
9.1411
11.843
18.8215
43.7819
24.29
8.61902
9.72947
11.0607
13.4423
18.1446
18.7007
8.7431
9.94195
11.2245
13.0835
16.8883
18.762
9.37044
10.7472
11.9933
13.5046
16.6124
19.5269
10.2606
11.7407
12.8905
14.1186
16.7576
20.8045
10.7136
12.0773
12.9086
13.9928
16.5302
22.3047
10.4105
11.4149
11.9788
13.1132
16.3573
23.6928
9.52634
10.0978
10.5299
11.9534
16.5281
24.7105
8.25713
8.6522
9.17207
10.9591
16.9231
25.1607
7.08557
7.56091
8.37754
10.4958
17.2929
24.9502
6.41834
7.02384
8.05777
10.4198
17.633
24.4564
6.38586
7.018
8.12018
10.6546
18.3393
23.9463
6.85544
7.52134
8.65515
11.2712
19.5766
23.5376
7.5939
8.37862
9.64256
12.4101
21.1412
22.9848
8.56648
9.55786
11.0757
14.0991
22.8006
22.1515
19.5111
43.979
16.1299
9.46652
7.27155
6.37214
20.5469
35.8994
14.2416
9.3019
7.53952
6.70219
19.9675
30.8477
13.7214
9.69327
8.099
7.33557
18.747
27.6781
13.7521
10.2244
8.76558
7.98204
17.2562
25.7257
13.9073
10.7627
9.50532
8.50593
15.5377
25.3525
14.1893
11.3125
10.1999
8.7736
13.8501
26.2805
14.94
11.9313
10.734
8.74432
12.4618
28.1599
16.2326
12.5003
10.9054
8.53085
11.4739
30.8156
17.7182
12.9008
10.722
8.15498
10.9451
34.5376
18.8523
12.8538
10.1098
7.61718
10.9098
38.787
20.003
12.7393
9.51811
7.25586
11.2734
44.6207
21.6903
12.91
9.22452
7.13075
11.9381
51.7931
24.8324
14.0802
9.64456
7.47406
13.0861
63.3507
30.3192
16.7174
11.0573
8.40154
20.42
32.4664
13.1476
8.27
6.52275
5.68878
22.0758
27.5601
11.9449
8.09971
6.61763
5.82593
22.5157
24.9573
11.9547
8.61976
7.16819
6.3112
22.2625
23.6406
12.4976
9.47402
8.00948
6.94832
21.4843
22.8125
13.1527
10.4751
9.12619
7.70978
20.2551
22.2815
13.7895
11.5548
10.3544
8.45605
18.7668
21.8443
14.5716
12.7362
11.5378
9.08744
17.2895
21.6835
15.6954
13.841
12.4139
9.55989
16.0849
22.0283
17.0018
14.692
12.849
9.79968
15.2328
23.7023
18.0187
14.8721
12.5772
9.57156
14.8554
26.4369
18.6196
14.548
11.8803
9.18388
15.0573
30.4095
19.1142
13.9572
11.0556
8.75429
15.7574
35.2632
20.5382
14.0143
10.7468
8.69807
16.9181
45.0485
24.1136
15.2646
11.2403
9.05213
18.3175
18.1053
10.588
7.81184
6.47395
5.54451
19.1908
16.932
9.96033
7.36543
6.08636
5.25256
19.7372
15.8826
10.0619
7.4897
6.06882
5.14691
20.2834
14.9891
10.3874
8.05247
6.44878
5.27377
21.0369
14.2674
10.6806
8.98861
7.36887
5.81095
21.9179
13.6608
10.8976
10.0533
8.67257
6.7097
22.7353
13.1976
11.2533
11.1504
10.0959
7.85504
23.1487
13.1627
11.9441
12.1988
11.3238
9.08228
22.9159
13.757
12.8809
13.1722
12.297
10.036
22.2948
14.9483
13.9188
13.8928
12.8048
10.4602
21.5218
16.795
14.6945
13.9584
12.5462
10.3337
20.8366
18.5547
14.7712
13.2261
11.6963
9.7977
20.5617
20.0604
14.9931
12.7465
11.1435
9.5436
20.794
23.0418
16.2323
12.9839
11.1531
9.6429
17.217
44.9906
18.5151
10.8123
7.7623
6.41997
18.4449
39.552
17.1522
10.6131
7.78609
6.41566
18.0853
35.2886
16.8599
10.9055
8.00007
6.43373
17.0645
32.0366
16.8943
11.2373
8.14524
6.24615
15.7601
30.0996
16.8711
11.3798
8.05143
5.7716
14.3937
29.6164
16.5994
11.1221
7.59417
5.09921
13.2269
30.3421
15.9086
10.3406
6.856
4.40598
12.4972
31.7713
14.4952
9.14896
6.0415
3.80381
12.0037
33.6699
13.0511
7.95983
5.34547
3.40472
11.6891
36.5064
11.8145
6.94722
4.87091
3.32728
11.5877
39.3294
11.9963
6.54639
4.75296
3.58595
11.7739
43.0735
13.5038
6.90379
5.07256
4.16715
12.2956
45.8989
16.5813
8.38189
5.99776
4.96862
13.2825
52.2859
20.4833
10.7906
7.54485
6.17711
19.4426
35.2831
14.632
8.97621
6.82033
5.80823
21.2978
33.8601
14.1454
9.01795
6.95085
5.87342
21.4116
33.1376
14.9423
9.81533
7.46633
6.11356
20.3432
31.8965
16.477
11.0387
8.19029
6.33019
18.6262
30.0068
17.9439
12.3595
8.95675
6.44534
16.8405
27.5705
18.8433
13.3321
9.41154
6.40147
15.4018
25.3046
18.8494
13.549
9.3632
6.17902
14.3799
24.7358
17.6896
12.8051
8.93045
5.75328
13.8621
25.2028
15.9639
11.4887
8.08723
5.15133
13.6896
26.4504
14.0708
9.84158
7.04722
4.64969
13.6635
28.1912
12.9002
8.5484
6.3064
4.43332
13.8948
30.5496
12.6757
7.94158
6.00241
4.57092
14.518
32.7616
13.9855
8.30422
6.24938
5.00966
15.7591
38.0085
16.3454
9.5256
7.04466
5.73121
16.9533
16.4507
9.36545
7.04698
5.97744
5.27461
18.6664
17.2892
9.25742
6.88229
5.77555
5.10674
20.2964
18.2831
10.0295
7.36617
5.98696
5.12618
21.6024
18.6517
11.5752
8.51613
6.68854
5.36883
22.5396
18.4389
13.2943
10.1471
7.85272
5.91157
23.0611
17.7849
14.64
11.8149
9.15704
6.66261
22.9835
17.5065
15.446
13.0741
10.2777
7.36908
22.3339
17.9319
15.7971
13.6513
10.8224
7.62702
21.272
18.0584
15.4534
13.3312
10.5897
7.34419
19.9627
17.4916
14.3809
12.1702
9.63292
6.63795
18.5119
17.0354
13.0224
10.6627
8.44125
5.93831
17.3318
16.8902
11.9805
9.4608
7.53989
5.53165
16.7787
17.8271
11.7344
8.89717
7.13653
5.5082
17.0553
19.8031
12.2995
9.06189
7.37325
5.97183
5.2735
4.08769
3.68127
3.54199
3.82859
4.28603
4.58955
4.56086
4.21503
3.76498
3.53658
3.76432
4.38181
5.07954
4.15818
2.75223
2.07258
1.65877
1.59917
1.80266
2.10424
2.32009
2.37421
2.33262
2.38585
2.67684
3.21714
4.11307
3.26033
1.98556
1.19645
0.722875
0.520925
0.521051
0.65164
0.830216
1.00174
1.17704
1.44936
1.9297
2.70225
3.92807
2.9025
1.63773
0.760978
0.314235
0.142313
0.102514
0.132375
0.210299
0.333737
0.522103
0.827427
1.36874
2.34277
3.96664
3.06731
1.59265
0.573006
0.167269
0.0485926
0.0183603
0.0199563
0.0446437
0.104421
0.231008
0.505809
1.12621
2.38325
4.40202
3.55477
1.66907
0.507713
0.144805
0.0426921
0.0120162
0.00683434
0.016006
0.0507802
0.157924
0.463099
1.22275
2.7313
4.91989
4.22126
1.81707
0.531712
0.182343
0.0675752
0.0257392
0.0169234
0.0282468
0.074763
0.219713
0.614061
1.50957
3.07946
5.11829
4.93071
2.11346
0.658019
0.288881
0.139526
0.0723223
0.0558537
0.0779672
0.156583
0.364565
0.845433
1.78382
3.21149
4.89718
5.55266
2.52519
0.904239
0.497182
0.302637
0.195485
0.161059
0.197575
0.320078
0.590778
1.10972
1.97081
3.13695
4.45422
6.13099
3.03742
1.30656
0.848476
0.626462
0.479691
0.412196
0.446852
0.596971
0.898306
1.39725
2.13474
3.06508
4.12218
6.46932
3.56902
1.92035
1.39236
1.19348
1.054
0.969339
0.977734
1.10929
1.39903
1.85457
2.5131
3.27703
4.29107
6.95304
4.5292
2.91959
2.20362
2.0465
2.03145
2.04626
2.08745
2.18585
2.41222
2.76512
3.40446
4.03643
5.12664
7.4301
5.48621
4.01213
3.18545
3.07643
3.2896
3.6183
3.94004
4.16573
4.3492
4.46984
4.84694
5.18907
6.35177
8.44344
7.23606
5.67597
4.50399
4.17673
4.48313
5.19541
5.97746
6.55797
6.86289
6.79686
6.73293
6.6633
7.36079
4.51955
3.19348
2.66748
2.41891
2.5543
2.88784
3.23485
3.39968
3.32061
3.07316
2.85104
2.95936
3.64403
4.52169
3.36881
2.04975
1.41138
1.06059
0.983836
1.10615
1.34838
1.57795
1.71627
1.75402
1.79492
2.01533
2.52636
3.33783
2.51853
1.41013
0.753966
0.421737
0.291882
0.289131
0.375764
0.505125
0.644209
0.790382
0.992803
1.34646
1.96602
2.94584
2.36651
1.20484
0.479743
0.175044
0.0741692
0.0513466
0.0674251
0.111587
0.186801
0.311061
0.520243
0.879702
1.55385
2.75356
2.59506
1.21953
0.388891
0.104316
0.0285428
0.00951763
0.00908198
0.0210894
0.0535101
0.127918
0.291656
0.665396
1.48514
2.96589
2.97978
1.29264
0.363009
0.0963318
0.0265928
0.00701304
0.00345155
0.00769824
0.0254023
0.0821027
0.249544
0.696472
1.6884
3.34508
3.39151
1.39776
0.382301
0.118043
0.0398828
0.0143689
0.00914117
0.0142682
0.0367615
0.111255
0.332165
0.888295
1.99197
3.63099
3.74489
1.54324
0.464041
0.181806
0.0805531
0.0401384
0.0309761
0.0413118
0.0802292
0.191734
0.479949
1.11403
2.21326
3.67217
4.0721
1.76351
0.620286
0.315226
0.179313
0.11241
0.0931257
0.111916
0.178205
0.336545
0.677927
1.32148
2.30633
3.49929
4.46958
2.09397
0.881873
0.557294
0.393357
0.292971
0.251283
0.271377
0.362996
0.558173
0.914633
1.49973
2.31438
3.24906
4.82981
2.51069
1.31329
0.961447
0.804809
0.692295
0.62439
0.622647
0.709641
0.912852
1.25521
1.77195
2.45198
3.25408
5.46498
3.34016
2.03822
1.58437
1.49175
1.43991
1.39957
1.37986
1.42149
1.58583
1.89283
2.39266
3.01336
3.97664
6.15909
4.33306
2.99762
2.41525
2.41588
2.53844
2.67777
2.77861
2.82957
2.92362
3.11528
3.5843
4.1037
5.49252
7.67636
6.31514
4.47297
3.48135
3.38625
3.71855
4.1632
4.58582
4.86836
5.01596
5.04358
5.26993
5.5123
6.74598
3.04883
1.91576
1.43707
1.18239
1.17334
1.33661
1.61682
1.88282
2.04382
2.0634
2.01038
2.01056
2.35807
3.09574
2.19338
1.18707
0.704189
0.478362
0.410604
0.449469
0.579486
0.749131
0.913457
1.03224
1.12166
1.24662
1.56848
2.13417
1.75669
0.853833
0.371676
0.179854
0.114767
0.108378
0.145074
0.212013
0.300938
0.405984
0.542982
0.752874
1.12059
1.72068
1.81612
0.784255
0.257106
0.0798374
0.0300176
0.0188008
0.0244293
0.0430893
0.0790189
0.143404
0.257115
0.450554
0.788355
1.41562
1.95693
0.786175
0.223844
0.0565121
0.0148128
0.00428912
0.00332685
0.0079305
0.0218887
0.0560896
0.131975
0.297185
0.668183
1.40963
2.12785
0.798348
0.214334
0.0545412
0.0143765
0.00355509
0.00147379
0.00302097
0.0101727
0.0332404
0.100972
0.285571
0.729826
1.60671
2.22155
0.810301
0.2217
0.0636791
0.0198544
0.00678756
0.00413317
0.0059315
0.0144319
0.0433043
0.13221
0.373012
0.914737
1.8907
2.26801
0.847431
0.259388
0.0932465
0.0380534
0.0187999
0.0147721
0.0186798
0.0337742
0.0789731
0.204494
0.510226
1.12551
2.12333
2.34017
0.94208
0.338149
0.160945
0.0859339
0.0543483
0.0463191
0.0542673
0.0822818
0.152712
0.319469
0.676424
1.31825
2.25059
2.56401
1.11498
0.488863
0.298873
0.201115
0.148548
0.128751
0.138231
0.181868
0.279995
0.478423
0.853174
1.45949
2.26393
2.85654
1.37359
0.76117
0.563321
0.451677
0.37403
0.329218
0.324755
0.372594
0.490193
0.702655
1.06107
1.59555
2.27523
3.43791
1.92801
1.22856
1.02982
0.930663
0.847717
0.77709
0.736472
0.755468
0.867209
1.08166
1.42552
1.91394
2.55032
4.12465
2.76828
1.94818
1.73528
1.69452
1.67403
1.6303
1.56994
1.53495
1.5955
1.78259
2.14
2.60011
3.53127
5.76369
4.36569
2.93971
2.61438
2.66393
2.78651
2.89366
2.94307
2.90904
2.89023
2.96444
3.28839
3.65231
4.88741
1.71428
0.976681
0.652469
0.482781
0.426219
0.457558
0.576866
0.747314
0.926991
1.06861
1.16216
1.22089
1.35942
1.68385
1.34229
0.616684
0.296311
0.175922
0.135685
0.135421
0.172327
0.239199
0.327065
0.420495
0.516404
0.621508
0.80111
1.13291
1.23984
0.486027
0.159179
0.0609081
0.0340062
0.0290317
0.0368707
0.0554644
0.0856924
0.129446
0.196652
0.309816
0.508123
0.837358
1.25603
0.445135
0.117351
0.0303633
0.00960079
0.00479925
0.00540862
0.00951502
0.0188379
0.0388622
0.081289
0.164997
0.322655
0.598244
1.2496
0.412075
0.104482
0.0260245
0.00663517
0.00161657
0.000770326
0.00165337
0.00509613
0.0150958
0.0408824
0.102368
0.23844
0.513326
1.22733
0.385429
0.100617
0.0260499
0.00660298
0.00150627
0.000467818
0.000743348
0.0026191
0.00930587
0.0301903
0.0888387
0.237557
0.567703
1.14852
0.373092
0.104441
0.028686
0.00805717
0.0024803
0.00136239
0.00168664
0.00374967
0.0114326
0.0369638
0.112698
0.307309
0.726888
1.09988
0.394275
0.121067
0.038688
0.0138521
0.00656808
0.00522232
0.00608214
0.00968952
0.0216794
0.0593045
0.165764
0.421635
0.928647
1.12627
0.44854
0.155292
0.0646603
0.0310904
0.019835
0.0176431
0.0198439
0.0273088
0.047938
0.104245
0.248036
0.56324
1.13211
1.27737
0.533612
0.233054
0.127164
0.0789997
0.0583652
0.0522468
0.055684
0.0697326
0.103732
0.182508
0.361566
0.71854
1.30598
1.47321
0.678769
0.397434
0.27248
0.201234
0.160543
0.141027
0.140141
0.160401
0.211285
0.312924
0.515939
0.886426
1.44957
1.83665
1.00202
0.718029
0.578332
0.47863
0.404355
0.353739
0.33094
0.344945
0.408769
0.531456
0.744354
1.0965
1.61393
2.30744
1.58171
1.27149
1.12782
1.01345
0.905134
0.809782
0.738198
0.712951
0.765843
0.898509
1.12479
1.45533
1.98021
3.43929
2.54988
2.03689
1.93634
1.86022
1.76819
1.64348
1.50678
1.4003
1.39131
1.49675
1.73886
2.02362
2.67304
1.04457
0.497917
0.271056
0.174503
0.135834
0.131604
0.163174
0.227578
0.320608
0.429646
0.542082
0.628629
0.731889
0.86713
0.908717
0.343125
0.117176
0.0528364
0.0354362
0.0322898
0.0396283
0.0568514
0.0856212
0.126852
0.180818
0.247213
0.351124
0.532082
0.841343
0.278727
0.066366
0.0173788
0.0074379
0.00558062
0.00680064
0.0102438
0.0168039
0.0289868
0.0521479
0.097866
0.188978
0.352208
0.803385
0.245064
0.052658
0.0112615
0.00284461
0.00095211
0.000786013
0.00132281
0.00287557
0.0072233
0.0190013
0.0477221
0.109424
0.226136
0.736987
0.208811
0.0479222
0.0113474
0.00274929
0.000579556
0.000142383
0.000201488
0.000764515
0.00288814
0.00966997
0.02827
0.0724567
0.165778
0.642765
0.178833
0.045452
0.0113882
0.00274499
0.00058807
0.000145595
0.000143337
0.000486405
0.00194544
0.0070444
0.0224413
0.0640089
0.166134
0.545031
0.164626
0.0464415
0.0119002
0.00305982
0.000869278
0.000444318
0.000459031
0.000809102
0.00232537
0.00794565
0.0264074
0.0802738
0.219287
0.503034
0.174017
0.0525357
0.0149555
0.00479708
0.00221985
0.00179365
0.0019188
0.00252006
0.00482144
0.0131521
0.0407272
0.120412
0.317277
0.527034
0.202111
0.0660065
0.0243605
0.0107589
0.0070227
0.0064452
0.0068882
0.00833602
0.0127882
0.0269178
0.0703412
0.187225
0.452176
0.61734
0.243638
0.10331
0.051131
0.0296248
0.0220483
0.0201395
0.0209596
0.0244286
0.0334214
0.057146
0.122246
0.282224
0.611411
0.724929
0.337395
0.196982
0.124162
0.0845572
0.0650279
0.0567543
0.0561095
0.0628758
0.0801309
0.117618
0.206934
0.407847
0.7845
0.935055
0.564805
0.405791
0.304091
0.228696
0.178739
0.149078
0.13748
0.145026
0.174272
0.230147
0.340663
0.563993
0.957384
1.3036
0.975985
0.803748
0.677782
0.553879
0.448931
0.368059
0.318756
0.309473
0.347253
0.425959
0.556862
0.781975
1.17423
2.0226
1.65704
1.43609
1.31252
1.1617
1.00128
0.839209
0.707864
0.631942
0.646016
0.741428
0.906139
1.11388
1.47996
0.664087
0.263145
0.105059
0.0536924
0.0374214
0.0339465
0.0407785
0.05827
0.0899557
0.139164
0.202826
0.270435
0.344123
0.425886
0.574597
0.183629
0.0440646
0.0129904
0.00712106
0.00636768
0.00802149
0.0118785
0.0190233
0.0315422
0.0511186
0.0795755
0.125581
0.214119
0.503923
0.139912
0.0247215
0.00431361
0.00124217
0.000817033
0.00106754
0.00171694
0.00294619
0.00549456
0.0111753
0.0245177
0.0561662
0.125634
0.453773
0.11464
0.0202176
0.00372237
0.000800486
0.000186486
0.000102923
0.000171715
0.000401575
0.00114684
0.00359519
0.0109054
0.0302328
0.0743898
0.377955
0.0906973
0.0185847
0.00406998
0.000901536
0.000170069
3.01727e-05
2.42299e-05
0.000100679
0.000449774
0.00178397
0.00616341
0.018448
0.0484659
0.297963
0.0738659
0.017545
0.00402598
0.000877594
0.000170335
3.65921e-05
2.45958e-05
7.06782e-05
0.00030863
0.00128055
0.00466893
0.0150952
0.043984
0.239914
0.0676991
0.0176856
0.00401706
0.000902683
0.000228677
0.000111879
0.000105175
0.000148341
0.000380186
0.0013815
0.0051894
0.0180898
0.0569757
0.222388
0.0725859
0.0195529
0.00472069
0.00129777
0.000578063
0.000486811
0.000506125
0.00058612
0.000950414
0.00246997
0.00838697
0.0288894
0.0904516
0.243514
0.08511
0.0239838
0.00744087
0.00293666
0.00198259
0.00191556
0.00202303
0.00227693
0.00313135
0.00611994
0.0168876
0.0521602
0.151195
0.294341
0.104725
0.0388516
0.0168302
0.00905833
0.00690843
0.00654823
0.00680273
0.00761309
0.00983727
0.016052
0.0356711
0.0943539
0.244339
0.354853
0.160374
0.0842333
0.0480454
0.0302909
0.0228486
0.0201121
0.0199728
0.0220494
0.0275339
0.0398698
0.0729058
0.162642
0.370588
0.502519
0.308664
0.206458
0.141138
0.0968729
0.0712179
0.0576404
0.0531267
0.0564479
0.0684111
0.0913442
0.141314
0.26136
0.51608
0.806766
0.60515
0.474335
0.368526
0.274452
0.204168
0.156739
0.132435
0.130894
0.152231
0.192964
0.263545
0.405087
0.689844
1.33471
1.11667
0.949756
0.81345
0.664521
0.521362
0.399801
0.316824
0.282993
0.304808
0.372082
0.475901
0.624969
0.898055
0.396377
0.131279
0.0375384
0.0137362
0.00849564
0.00758588
0.00913906
0.0131271
0.020912
0.0348299
0.0562871
0.0866194
0.126603
0.180295
0.325781
0.0877066
0.0154357
0.00277969
0.00112631
0.00100722
0.00135201
0.00209118
0.0034402
0.00595855
0.0105313
0.0188578
0.0351213
0.0731548
0.2678
0.0615927
0.00856997
0.00108798
0.000208916
9.68874e-05
0.000127844
0.000223059
0.000400619
0.000776958
0.00176769
0.00472057
0.0135935
0.0383287
0.219439
0.0468461
0.00723755
0.00117255
0.00022328
3.92737e-05
1.11469e-05
1.53148e-05
3.88741e-05
0.000130138
0.0005113
0.00198108
0.00696597
0.0212516
0.16471
0.0353516
0.00675369
0.00131595
0.000254683
4.16014e-05
5.77108e-06
2.01497e-06
8.4734e-06
4.80558e-05
0.000242692
0.00105509
0.00392929
0.0125978
0.123175
0.0290343
0.00646415
0.00129726
0.000240462
3.9891e-05
7.15503e-06
3.40996e-06
7.31706e-06
3.45248e-05
0.000174192
0.00078155
0.00306981
0.0106402
0.0997195
0.0274746
0.00660455
0.00128266
0.00023839
5.07689e-05
2.24126e-05
1.96793e-05
2.36346e-05
5.19244e-05
0.000199378
0.000876534
0.00362145
0.0133962
0.097582
0.0302697
0.00731121
0.00144471
0.000329232
0.000132099
0.000109575
0.000110989
0.000121135
0.000174848
0.000419563
0.00152249
0.00605283
0.0222431
0.111869
0.0355836
0.00875892
0.00220189
0.000759611
0.000504756
0.000491812
0.00051233
0.000559168
0.000723681
0.00128804
0.0035299
0.0122158
0.0415304
0.137076
0.0442077
0.014002
0.00519183
0.00257334
0.00197351
0.00190861
0.00198412
0.00218612
0.0027423
0.00418352
0.00899222
0.0259662
0.0786345
0.172121
0.0716581
0.033498
0.0166757
0.00973202
0.00724986
0.00655939
0.0066409
0.00732738
0.0090634
0.0126475
0.0224532
0.0537424
0.142499
0.271366
0.158037
0.0944915
0.0570111
0.0355526
0.0250321
0.020625
0.0197246
0.0213705
0.0260909
0.0344717
0.0526919
0.103851
0.236453
0.491992
0.354086
0.25132
0.174072
0.116217
0.0802453
0.0605829
0.0532555
0.0550218
0.0658128
0.0845729
0.116102
0.188353
0.362148
0.889563
0.717416
0.572341
0.446834
0.327415
0.233288
0.168108
0.134328
0.127145
0.144953
0.184048
0.240247
0.329922
0.519323
0.0026532
0.00407181
0.00670392
0.0114951
0.0199364
0.0342416
0.0592618
0.000323486
0.000514615
0.00086029
0.00159463
0.00329544
0.00772856
0.0211401
2.42526e-05
4.25217e-05
8.21048e-05
0.000218087
0.000767683
0.00291789
0.010449
1.07704e-06
2.81191e-06
1.18677e-05
6.31689e-05
0.000322658
0.00144602
0.00546367
1.73975e-07
5.9505e-07
4.33574e-06
2.85251e-05
0.000158829
0.000746008
0.00296614
5.31959e-07
7.40457e-07
2.96832e-06
1.81778e-05
0.000105276
0.0005285
0.00228709
3.92975e-06
4.27142e-06
6.62164e-06
2.18861e-05
0.000113321
0.000590347
0.00271246
2.54149e-05
2.73927e-05
3.36325e-05
6.18657e-05
0.000215175
0.00100418
0.00448648
0.0478791
0.0134347
0.00281944
0.000558738
0.000168776
0.000116728
0.000121878
0.000133203
0.000145311
0.000172353
0.000252088
0.000596969
0.00222102
0.00894419
0.0589605
0.016527
0.00417621
0.0012757
0.000611486
0.000511334
0.000534168
0.000582484
0.00064314
0.000761913
0.0010184
0.00188208
0.00552133
0.0193216
0.0764031
0.0266808
0.010359
0.00447505
0.00255707
0.0020659
0.00203804
0.00217891
0.00242128
0.00288476
0.00370224
0.00583412
0.0137998
0.0416589
0.128937
0.0663724
0.0339805
0.0178678
0.0104934
0.00770813
0.00695222
0.00712446
0.0078677
0.00941849
0.0118969
0.016875
0.0328613
0.0844041
0.268008
0.173727
0.107451
0.064746
0.0391475
0.0266412
0.0216456
0.0207368
0.0223332
0.0267005
0.0337915
0.0449508
0.072742
0.15462
0.53656
0.400222
0.285987
0.196319
0.127699
0.0850082
0.0627991
0.0548404
0.0558914
0.0654257
0.0836121
0.109065
0.152288
0.258268
6.43869
8.03388
9.66293
11.9336
14.3841
14.0752
5.70024
7.55906
9.38163
11.6907
14.4707
15.1399
5.70802
7.87655
9.89129
12.3249
15.4264
16.8473
6.11146
8.66609
10.989
13.7113
17.0931
19.0535
6.76299
9.64095
12.3011
15.263
18.6997
21.1777
7.30006
10.229
13.0555
16.1667
19.5254
22.2537
7.34608
10.0659
12.8663
15.9173
19.0719
22.1243
6.87746
9.2276
11.7167
14.5404
17.6901
20.6721
6.02723
7.9291
9.96608
12.4841
15.7359
18.2921
5.12894
6.55319
8.11303
10.3295
13.6496
16.018
4.53402
5.50606
6.73675
8.75361
11.8794
13.9188
4.44806
5.12476
6.19633
8.07117
10.9488
12.0479
4.8571
5.4302
6.43063
8.20659
10.8568
10.9814
5.324
6.05759
7.10981
8.83203
11.2383
10.6695
5.54463
6.96418
8.03202
8.65244
8.55803
8.05569
4.48729
6.05929
7.28262
8.02345
8.19642
8.18041
4.27239
6.0631
7.38203
8.15973
8.56047
8.84349
4.41827
6.5143
7.98103
8.85579
9.44107
9.89055
4.86383
7.16576
8.71212
9.67874
10.371
10.9456
5.31567
7.60391
9.16562
10.2137
10.9398
11.6014
5.52728
7.60664
9.12414
10.1347
10.7749
11.3694
5.39576
7.18521
8.54239
9.47208
10.093
10.5502
4.95948
6.43005
7.64396
8.60569
9.28665
9.55983
4.39384
5.57887
6.68875
7.75991
8.45726
8.49873
3.91803
4.81457
5.83705
7.09079
7.76241
7.54632
3.82403
4.49007
5.44267
6.7589
7.32117
6.85389
4.27391
4.84692
5.74808
6.81658
7.13723
6.56661
4.8014
5.49678
6.31721
6.91601
6.95633
6.48941
3.9324
5.27956
6.52091
7.24407
7.22454
6.80785
2.84378
4.15183
5.43593
6.40884
6.62242
6.59573
2.49089
3.90481
5.297
6.30217
6.6317
6.82803
2.38973
4.05481
5.6391
6.70364
7.1463
7.46173
2.58005
4.49681
6.20137
7.27587
7.8169
8.20509
2.92575
4.97282
6.66143
7.72063
8.29493
8.64758
3.28476
5.24844
6.8098
7.80501
8.26215
8.41296
3.48613
5.21166
6.58932
7.42614
7.69968
7.6598
3.46402
4.90306
6.07933
6.80036
7.05688
6.89931
3.28156
4.47048
5.48266
6.22176
6.64044
6.37888
3.05729
4.01076
4.92018
5.83361
6.46975
6.07994
2.93
3.67403
4.5413
5.66475
6.39956
5.88059
3.11756
3.73607
4.6249
5.72816
6.29798
5.76132
3.43797
4.14086
5.07521
5.82421
6.03594
5.56271
2.27358
3.17538
4.36317
5.44299
6.05226
6.2022
1.53975
2.39467
3.4516
4.56034
5.29634
5.69678
1.24145
2.08238
3.14457
4.27257
5.0929