/*--------------------------------*- C++ -*----------------------------------*\
| =========                 |                                                 |
| \\      /  F ield         | OpenFOAM: The Open Source CFD Toolbox           |
|  \\    /   O peration     | Version:  v2106                                 |
|   \\  /    A nd           | Website:  www.openfoam.com                      |
|    \\/     M anipulation  |                                                 |
\*---------------------------------------------------------------------------*/
FoamFile
{
    version     2.0;
    format      ascii;
    arch        "LSB;label=32;scalar=64";
    class       volScalarField;
    location    "0.000127";
    object      rho;
}
// * * * * * * * * * * * * * * * * * * * * * * * * * * * * * * * * * * * * * //

dimensions      [1 -3 0 0 0 0 0];

internalField   nonuniform List<scalar> 
144746
(
2.41386
2.41807
2.42136
2.42478
2.42766
2.43041
2.43276
2.43479
2.43618
2.43703
2.43718
2.43661
2.43487
2.43161
2.41765
2.42331
2.42734
2.43108
2.434
2.43674
2.43888
2.44071
2.44169
2.44217
2.4419
2.4407
2.43865
2.43434
2.4204
2.42667
2.43096
2.43488
2.43783
2.44058
2.44264
2.44432
2.44515
2.44542
2.44496
2.44349
2.44108
2.43601
2.42215
2.42871
2.4332
2.43732
2.44043
2.4433
2.44541
2.44703
2.44775
2.44783
2.44717
2.44547
2.44289
2.43768
2.42276
2.42913
2.43373
2.4379
2.44104
2.44394
2.44606
2.4477
2.4485
2.44854
2.44782
2.44614
2.44363
2.43839
2.42215
2.42848
2.4332
2.43751
2.4409
2.44396
2.44619
2.44785
2.44874
2.44873
2.44799
2.44634
2.44401
2.43872
2.42072
2.42719
2.43205
2.43657
2.44013
2.44322
2.44542
2.44708
2.44797
2.4479
2.44713
2.44561
2.44331
2.43826
2.41902
2.42546
2.43038
2.43502
2.4386
2.44159
2.44375
2.44539
2.44627
2.44633
2.44558
2.44404
2.44175
2.43703
2.41696
2.42351
2.4285
2.43316
2.43666
2.4395
2.44162
2.4431
2.44391
2.44402
2.44332
2.4418
2.43949
2.43494
2.41464
2.42101
2.42572
2.43019
2.43358
2.43635
2.43856
2.44005
2.4409
2.441
2.44028
2.43873
2.43643
2.43209
2.4122
2.41847
2.42292
2.42701
2.43014
2.43264
2.43477
2.43614
2.437
2.43713
2.43656
2.43522
2.43305
2.42892
2.40938
2.41548
2.41974
2.4235
2.42634
2.42864
2.43065
2.432
2.43292
2.43314
2.43272
2.43152
2.42955
2.4256
2.40681
2.41224
2.41619
2.41975
2.42246
2.42466
2.42653
2.42784
2.42879
2.42902
2.42877
2.4277
2.42605
2.42237
2.4031
2.40703
2.41049
2.41404
2.41676
2.41914
2.42108
2.42243
2.42353
2.42376
2.42361
2.42249
2.42122
2.41849
2.39772
2.40383
2.40857
2.41426
2.41888
2.42313
2.42719
2.43039
2.43292
2.43456
2.43488
2.43301
2.42842
2.42131
2.4079
2.41526
2.42056
2.42575
2.42956
2.43277
2.43578
2.43804
2.43971
2.44035
2.44022
2.43796
2.43315
2.42501
2.41565
2.42271
2.42802
2.43314
2.43696
2.43989
2.44236
2.444
2.445
2.44493
2.44417
2.44152
2.43662
2.42845
2.42099
2.42798
2.43343
2.43875
2.44288
2.4457
2.44771
2.44878
2.44932
2.4491
2.4477
2.44464
2.43965
2.43146
2.42284
2.43044
2.43634
2.442
2.44647
2.44964
2.45166
2.4526
2.45292
2.45211
2.45035
2.44694
2.44172
2.43366
2.42235
2.43094
2.43778
2.44394
2.44868
2.4522
2.45425
2.45507
2.45525
2.45422
2.45201
2.44837
2.44341
2.43552
2.42045
2.42986
2.43758
2.44424
2.44916
2.45299
2.45513
2.45603
2.45629
2.45507
2.45289
2.44912
2.44417
2.4366
2.4183
2.42833
2.43703
2.44341
2.44877
2.45278
2.45514
2.45611
2.45645
2.45523
2.45305
2.44933
2.44458
2.4372
2.4149
2.42547
2.43517
2.44154
2.44734
2.45143
2.45388
2.45486
2.45522
2.4541
2.45207
2.44857
2.44399
2.43704
2.41123
2.42212
2.43227
2.43898
2.44488
2.44906
2.45155
2.45264
2.45305
2.45204
2.45012
2.44687
2.44233
2.43585
2.40603
2.41737
2.42805
2.43523
2.44128
2.44543
2.44783
2.44893
2.44923
2.44839
2.44673
2.44368
2.43943
2.43333
2.40016
2.41181
2.42241
2.4299
2.43605
2.44036
2.44297
2.44442
2.44488
2.4439
2.44222
2.43893
2.43476
2.42886
2.39439
2.40557
2.41559
2.42322
2.42932
2.43345
2.43588
2.43716
2.43749
2.4367
2.43496
2.43143
2.42719
2.42166
2.38716
2.39725
2.40689
2.4148
2.42058
2.42419
2.42639
2.42756
2.42781
2.42695
2.42478
2.42107
2.4172
2.41235
2.42394
2.43408
2.44468
2.45361
2.46206
2.46914
2.47595
2.48153
2.48637
2.48921
2.49021
2.4871
2.48028
2.46595
2.44576
2.45491
2.46492
2.47292
2.48031
2.4866
2.49225
2.49689
2.50095
2.50299
2.50258
2.49857
2.48975
2.47426
2.46141
2.47241
2.48193
2.48998
2.49659
2.50207
2.50659
2.50995
2.51227
2.51259
2.51142
2.50618
2.49715
2.48162
2.4706
2.48341
2.49329
2.50185
2.50838
2.51341
2.51721
2.5198
2.5213
2.52122
2.51854
2.51308
2.50366
2.48818
2.47553
2.4891
2.5
2.50901
2.51591
2.52109
2.52475
2.52696
2.52794
2.52723
2.52387
2.51769
2.50802
2.49295
2.47499
2.49035
2.50266
2.5128
2.52046
2.52605
2.52967
2.53164
2.53232
2.53131
2.52776
2.52146
2.51177
2.49693
2.47219
2.4889
2.5021
2.51351
2.52191
2.52794
2.53178
2.53382
2.53453
2.53349
2.52999
2.52366
2.51424
2.49979
2.46815
2.48599
2.50094
2.51333
2.52242
2.52885
2.53278
2.53475
2.53545
2.53431
2.53095
2.52478
2.51576
2.50181
2.46247
2.48122
2.4979
2.51128
2.52094
2.52762
2.53167
2.53373
2.53447
2.53336
2.53017
2.52435
2.51584
2.50267
2.45627
2.47604
2.49387
2.50798
2.51808
2.52486
2.52891
2.53095
2.53154
2.53037
2.52716
2.52164
2.51339
2.50204
2.44772
2.46918
2.48815
2.50294
2.51335
2.52009
2.52416
2.52622
2.52653
2.52526
2.52192
2.51674
2.50836
2.49875
2.43893
2.46192
2.48127
2.49637
2.50694
2.51335
2.51714
2.5187
2.51852
2.51699
2.5134
2.50838
2.50026
2.49042
2.42671
2.45208
2.47165
2.48705
2.49737
2.50314
2.50656
2.5077
2.50712
2.50501
2.5007
2.49526
2.48683
2.4776
2.41378
2.44119
2.46081
2.47622
2.48608
2.49139
2.49363
2.49276
2.49116
2.48811
2.48299
2.47752
2.46789
2.45712
2.42818
2.42394
2.42213
2.41926
2.41963
2.41865
2.43055
2.42461
2.42242
2.41856
2.41853
2.41679
2.43084
2.4242
2.42139
2.41699
2.41662
2.41449
2.43242
2.42458
2.4209
2.41584
2.41584
2.41351
2.43294
2.42458
2.42048
2.41517
2.41517
2.41345
2.43321
2.42462
2.42022
2.4149
2.41487
2.4123
2.43288
2.42436
2.4201
2.41487
2.41517
2.4125
2.43192
2.42361
2.41969
2.41455
2.41502
2.41226
2.43026
2.42238
2.41898
2.41392
2.41444
2.41197
2.42793
2.42075
2.41781
2.41305
2.41361
2.41156
2.42499
2.41832
2.41598
2.41118
2.4118
2.40978
2.42206
2.41602
2.41406
2.4105
2.41167
2.4099
2.41914
2.41358
2.41177
2.40809
2.40842
2.40658
2.41631
2.41189
2.41107
2.40846
2.40891
2.40741
2.41339
2.40338
2.39959
2.38998
2.39021
2.38281
2.41722
2.40638
2.40117
2.38921
2.38812
2.37798
2.41828
2.40594
2.39935
2.38727
2.38698
2.37495
2.42088
2.4072
2.39982
2.38832
2.38846
2.37594
2.42291
2.40877
2.40115
2.39016
2.39066
2.37785
2.42512
2.4111
2.40361
2.39313
2.394
2.38062
2.42692
2.41379
2.40672
2.39699
2.39803
2.38584
2.42815
2.41617
2.4096
2.40029
2.4007
2.38934
2.4288
2.41806
2.41183
2.40275
2.40223
2.39113
2.42839
2.41856
2.41247
2.40312
2.40169
2.3908
2.42654
2.41664
2.41062
2.40052
2.39888
2.38851
2.42256
2.41229
2.40667
2.39746
2.39625
2.38739
2.41607
2.40505
2.39988
2.38924
2.38768
2.37889
2.40819
2.39733
2.39283
2.38282
2.38199
2.37456
2.44833
2.4216
2.395
2.3581
2.3358
2.27509
2.45603
2.42864
2.40123
2.35951
2.33207
2.25349
2.46185
2.4327
2.40264
2.35784
2.32907
2.23986
2.46837
2.43847
2.4074
2.36209
2.33331
2.2397
2.4737
2.4434
2.41251
2.36758
2.34109
2.24994
2.47841
2.44859
2.4189
2.37603
2.35257
2.26951
2.48241
2.45319
2.4249
2.38471
2.36384
2.29293
2.48548
2.45723
2.43064
2.39332
2.37346
2.31382
2.48751
2.46045
2.43507
2.40042
2.38132
2.33011
2.48684
2.46162
2.43759
2.4048
2.38608
2.33933
2.48419
2.45932
2.43563
2.40353
2.38527
2.34012
2.47522
2.45089
2.42708
2.39484
2.37607
2.32927
2.46264
2.43643
2.41267
2.37692
2.35784
2.30596
2.4384
2.41076
2.38577
2.34944
2.32883
2.27169
2.41529
2.41153
2.41023
2.40723
2.40763
2.40558
2.41706
2.41199
2.41063
2.40737
2.40777
2.40579
2.41783
2.41196
2.40988
2.40623
2.40656
2.40414
2.41866
2.41205
2.40936
2.40536
2.40567
2.40259
2.41866
2.41166
2.40862
2.4043
2.40447
2.40244
2.41827
2.41082
2.40739
2.40281
2.40332
2.40007
2.41709
2.40939
2.40593
2.40126
2.40172
2.39906
2.41567
2.40789
2.40452
2.39957
2.40017
2.39792
2.41356
2.40565
2.40257
2.39814
2.39829
2.39629
2.41121
2.40339
2.40056
2.3959
2.39819
2.39553
2.4089
2.40156
2.3989
2.3949
2.39574
2.39423
2.40589
2.39974
2.39813
2.39562
2.3971
2.39549
2.40302
2.39809
2.39729
2.39538
2.39673
2.3948
2.39988
2.39648
2.39616
2.39403
2.39525
2.39385
2.40225
2.39084
2.38667
2.37642
2.37677
2.36786
2.40839
2.39622
2.39029
2.37827
2.37759
2.36627
2.41025
2.39698
2.39007
2.37819
2.37742
2.36423
2.41295
2.39902
2.39173
2.38014
2.38016
2.36626
2.41485
2.40086
2.3935
2.38201
2.38265
2.36799
2.41603
2.40246
2.39525
2.38438
2.38477
2.36975
2.41643
2.40347
2.39642
2.38617
2.3866
2.37165
2.41614
2.404
2.39719
2.38721
2.38669
2.37152
2.41474
2.40295
2.39614
2.38556
2.38417
2.36925
2.41196
2.40015
2.39356
2.38236
2.38034
2.36655
2.4066
2.39424
2.38724
2.3746
2.37259
2.35789
2.39907
2.38566
2.37899
2.36611
2.36337
2.35084
2.39093
2.37721
2.37167
2.35855
2.35632
2.34435
2.38099
2.36779
2.36312
2.35082
2.35073
2.34034
2.43648
2.40231
2.37328
2.33325
2.31044
2.24178
2.44803
2.41587
2.38494
2.34062
2.31301
2.22531
2.45577
2.42369
2.39091
2.3441
2.31426
2.215
2.46222
2.43053
2.39836
2.35117
2.32211
2.21851
2.46755
2.43668
2.40513
2.3594
2.33245
2.23253
2.47121
2.44129
2.41085
2.36768
2.34304
2.25298
2.47368
2.44534
2.41569
2.37507
2.35178
2.27357
2.47428
2.4478
2.41925
2.38037
2.35753
2.28748
2.47343
2.44702
2.41976
2.38266
2.36023
2.29682
2.4698
2.44262
2.41545
2.3778
2.35438
2.29177
2.45961
2.4317
2.40417
2.3664
2.34285
2.27753
2.44317
2.4148
2.3867
2.34653
2.32143
2.25479
2.42461
2.39192
2.36303
2.32298
2.29925
2.22571
2.39079
2.35845
2.33303
2.29598
2.27315
2.19468
2.40287
2.40428
2.40333
2.40586
2.40687
2.41059
2.40281
2.40415
2.40361
2.40596
2.40763
2.41287
2.4035
2.40525
2.40308
2.40628
2.40857
2.41505
2.40247
2.40354
2.4034
2.40671
2.40908
2.41638
2.40102
2.40258
2.40199
2.40617
2.4093
2.41672
2.40074
2.40227
2.40188
2.40558
2.40848
2.41633
2.40051
2.4017
2.40122
2.40454
2.40752
2.41513
2.39983
2.40121
2.40087
2.4035
2.40594
2.41333
2.3979
2.39984
2.39959
2.40193
2.40407
2.41119
2.39607
2.39826
2.39805
2.40053
2.40229
2.40904
2.3961
2.3984
2.39701
2.39928
2.40058
2.40677
2.39512
2.39731
2.39613
2.398
2.39879
2.40428
2.39432
2.39626
2.39506
2.39683
2.39725
2.40192
2.39443
2.39629
2.39528
2.3972
2.39779
2.40048
2.35616
2.36483
2.36519
2.37668
2.38081
2.39241
2.36228
2.37129
2.37329
2.38511
2.39008
2.40209
2.36925
2.37906
2.38106
2.39207
2.39777
2.40913
2.38054
2.39027
2.39121
2.39969
2.40506
2.41469
2.38728
2.39618
2.39597
2.40361
2.40795
2.41672
2.3915
2.39904
2.39788
2.40499
2.40828
2.41588
2.39057
2.39795
2.39619
2.40282
2.40439
2.41293
2.38684
2.39486
2.3924
2.39851
2.39992
2.40969
2.37926
2.38897
2.38627
2.39261
2.39444
2.40549
2.37095
2.38178
2.37913
2.38625
2.38882
2.40088
2.36268
2.37424
2.3716
2.37957
2.38295
2.39544
2.35415
2.36555
2.36368
2.37223
2.37657
2.39003
2.34657
2.35891
2.35836
2.36843
2.37314
2.38572
2.34093
2.35231
2.35223
2.36238
2.36625
2.37831
2.23106
2.29774
2.32083
2.35495
2.377
2.40257
2.26198
2.32226
2.34689
2.38172
2.40489
2.4305
2.29266
2.34621
2.36827
2.40233
2.42457
2.44635
2.32192
2.36775
2.38874
2.41718
2.43531
2.45722
2.3361
2.3786
2.39482
2.42159
2.43957
2.46159
2.34247
2.38235
2.39569
2.41954
2.43633
2.45917
2.33547
2.37821
2.38902
2.41337
2.43071
2.45396
2.32092
2.37061
2.37845
2.40407
2.42261
2.44697
2.29808
2.35884
2.36572
2.39341
2.41387
2.43965
2.27006
2.34344
2.35201
2.3824
2.405
2.43222
2.2402
2.32594
2.33821
2.37138
2.39575
2.42371
2.2132
2.30811
2.32365
2.35878
2.38426
2.41412
2.194
2.29165
2.31171
2.34833
2.37376
2.4038
2.18354
2.27337
2.29799
2.33519
2.36003
2.39133
2.41939
2.42128
2.42104
2.42424
2.42516
2.42981
2.42239
2.42353
2.42235
2.42458
2.42621
2.43056
2.42129
2.42249
2.42207
2.42536
2.42754
2.43245
2.4219
2.42287
2.422
2.42521
2.42705
2.43267
2.4206
2.42128
2.42067
2.42419
2.4266
2.43252
2.41949
2.41965
2.41915
2.42238
2.42466
2.43114
2.41699
2.41738
2.41711
2.42018
2.42249
2.42935
2.41388
2.41486
2.41474
2.41769
2.4199
2.42695
2.40979
2.41188
2.412
2.41501
2.41724
2.4245
2.40715
2.40937
2.40971
2.41289
2.41506
2.42197
2.40719
2.40853
2.40782
2.41096
2.41284
2.4193
2.4052
2.40687
2.40623
2.40927
2.41073
2.41635
2.40373
2.40561
2.40505
2.40787
2.409
2.41361
2.40384
2.40554
2.40516
2.40753
2.40842
2.41114
2.38912
2.39536
2.39617
2.40521
2.40877
2.41747
2.39691
2.40344
2.4046
2.41179
2.41556
2.42397
2.40303
2.41126
2.41116
2.41714
2.42063
2.42787
2.40938
2.41582
2.41467
2.42039
2.42338
2.43063
2.41045
2.4158
2.4149
2.42096
2.4238
2.43016
2.40903
2.41418
2.41296
2.41873
2.42087
2.42763
2.40434
2.41
2.40796
2.41357
2.41561
2.42374
2.39722
2.40402
2.40141
2.40704
2.40953
2.41911
2.38827
2.39636
2.39367
2.40004
2.40289
2.41393
2.37937
2.38869
2.3859
2.39311
2.39643
2.40845
2.37045
2.38134
2.3787
2.38674
2.39057
2.40359
2.36282
2.37346
2.37186
2.38033
2.38488
2.3983
2.35729
2.36847
2.36809
2.37809
2.38299
2.39551
2.3546
2.36433
2.36465
2.37432
2.37781
2.3887
2.30641
2.35477
2.37529
2.40734
2.42876
2.44958
2.34141
2.38386
2.40187
2.42997
2.44737
2.4677
2.3662
2.40245
2.41797
2.44179
2.4578
2.47578
2.37978
2.41103
2.42345
2.44551
2.4609
2.47914
2.38173
2.41037
2.42019
2.44029
2.45519
2.47507
2.37676
2.40717
2.41426
2.43397
2.44922
2.46978
2.36262
2.39791
2.40202
2.42301
2.43927
2.46206
2.34097
2.38505
2.3881
2.41176
2.42958
2.45466
2.3146
2.36969
2.37335
2.39985
2.41988
2.44654
2.28759
2.35311
2.35887
2.38825
2.41055
2.43878
2.26054
2.33637
2.34581
2.37766
2.4015
2.42979
2.23768
2.31997
2.33338
2.36702
2.39189
2.42058
2.22197
2.3056
2.32475
2.36002
2.38407
2.41261
2.21492
2.29098
2.31626
2.3512
2.37417
2.4006
2.50378
2.50397
2.5119
2.51457
2.51943
2.52229
2.52673
2.53066
2.53611
2.54118
2.54454
2.54508
2.54687
2.53937
2.52174
2.52298
2.52846
2.5315
2.5354
2.53829
2.54205
2.54521
2.5493
2.55287
2.55512
2.55458
2.55205
2.5412
2.53085
2.53638
2.54171
2.54565
2.54902
2.55177
2.55473
2.55725
2.56008
2.56198
2.56248
2.5611
2.55644
2.54655
2.53507
2.54369
2.55015
2.55534
2.55902
2.56192
2.56457
2.56663
2.5685
2.56933
2.56877
2.56603
2.56014
2.54988
2.53533
2.54609
2.5543
2.56064
2.56518
2.56867
2.57141
2.57327
2.5745
2.57462
2.57309
2.56961
2.56301
2.55331
2.5336
2.54558
2.55532
2.56322
2.56901
2.57314
2.57608
2.57784
2.57872
2.57848
2.5765
2.57256
2.56541
2.55555
2.53059
2.54337
2.55485
2.56384
2.57064
2.57545
2.57869
2.58048
2.58124
2.58094
2.57883
2.57484
2.56781
2.558
2.52757
2.54156
2.55435
2.56443
2.5719
2.57699
2.58025
2.58198
2.58265
2.58227
2.58012
2.57614
2.56939
2.55993
2.52407
2.53894
2.55269
2.56372
2.57174
2.5771
2.58047
2.58224
2.58296
2.58262
2.58063
2.5769
2.57069
2.56204
2.52245
2.53815
2.55221
2.56335
2.57132
2.57647
2.57965
2.58134
2.582
2.58165
2.57977
2.57632
2.57051
2.56278
2.51802
2.5349
2.54977
2.56136
2.56943
2.57433
2.57725
2.57882
2.57933
2.57904
2.57736
2.57449
2.56907
2.5627
2.51726
2.53417
2.5488
2.5598
2.56728
2.57149
2.57375
2.57484
2.57491
2.57445
2.57267
2.57014
2.56433
2.55867
2.50893
2.52964
2.54466
2.55558
2.56259
2.56627
2.56795
2.56851
2.56798
2.5671
2.56519
2.56326
2.55842
2.55471
2.50801
2.52972
2.5437
2.55226
2.558
2.56039
2.56073
2.56019
2.55892
2.55733
2.55428
2.55168
2.5449
2.54306
2.56617
2.56273
2.56653
2.56546
2.56644
2.56657
2.56883
2.57196
2.57714
2.58367
2.58992
2.59317
2.59902
2.59613
2.57821
2.57557
2.5773
2.57751
2.57878
2.57981
2.58243
2.58535
2.58978
2.59464
2.59878
2.60175
2.60281
2.5974
2.58116
2.58395
2.58629
2.58831
2.58997
2.59154
2.59396
2.5964
2.59964
2.60289
2.60511
2.60616
2.60531
2.60075
2.58161
2.58815
2.59255
2.59585
2.59837
2.60053
2.60303
2.60524
2.60759
2.60964
2.61064
2.61018
2.60771
2.60245
2.58024
2.58892
2.59497
2.59994
2.60376
2.6069
2.60963
2.61175
2.6135
2.61462
2.61452
2.61314
2.60953
2.60391
2.57791
2.58735
2.59556
2.60218
2.60727
2.61119
2.61423
2.61637
2.61781
2.61838
2.6177
2.61568
2.61102
2.60453
2.57394
2.58505
2.59501
2.60299
2.60918
2.6138
2.61713
2.61932
2.62057
2.62094
2.62001
2.61769
2.61282
2.60581
2.57146
2.58369
2.59482
2.60389
2.61075
2.61569
2.61908
2.62123
2.62234
2.62266
2.62161
2.61911
2.61432
2.60724
2.57053
2.58291
2.59448
2.6041
2.61134
2.61644
2.61986
2.62204
2.62315
2.62355
2.62261
2.62027
2.61603
2.60956
2.57251
2.58434
2.59564
2.60507
2.61205
2.61682
2.62
2.62207
2.62314
2.6236
2.62279
2.62067
2.61691
2.61123
2.57337
2.58474
2.59575
2.60497
2.61183
2.61616
2.61904
2.62097
2.622
2.62255
2.62205
2.62049
2.6174
2.61295
2.57753
2.58777
2.59766
2.60577
2.6116
2.61507
2.61733
2.61884
2.61963
2.6201
2.61978
2.61879
2.61574
2.61244
2.57376
2.58753
2.5973
2.60483
2.61015
2.61276
2.61431
2.61526
2.61566
2.61598
2.61574
2.61581
2.61409
2.61304
2.57847
2.59257
2.60043
2.60594
2.60924
2.61002
2.61012
2.61029
2.61035
2.61065
2.61022
2.61061
2.60791
2.60787
2.61374
2.60966
2.60986
2.60742
2.60642
2.60551
2.60637
2.60888
2.61289
2.61816
2.62402
2.62981
2.63665
2.63752
2.62137
2.61829
2.61678
2.61554
2.61494
2.61485
2.6163
2.61861
2.62221
2.62706
2.63175
2.63619
2.63935
2.63873
2.62083
2.62233
2.62221
2.62252
2.62284
2.62353
2.62515
2.62714
2.62979
2.63309
2.63589
2.63768
2.64012
2.63976
2.62017
2.62426
2.62628
2.62752
2.62895
2.63038
2.63219
2.63397
2.636
2.63829
2.64013
2.64117
2.64156
2.64055
2.61851
2.62412
2.62736
2.63071
2.63337
2.63551
2.63743
2.63914
2.64081
2.64229
2.64318
2.64364
2.64269
2.64089
2.6153
2.62259
2.62818
2.63273
2.63629
2.63908
2.64128
2.64302
2.64444
2.64543
2.64577
2.64572
2.6439
2.64108
2.61266
2.62121
2.6283
2.63399
2.63838
2.64163
2.64403
2.64576
2.64701
2.64774
2.64786
2.64748
2.64541
2.64205
2.61231
2.62116
2.62913
2.63554
2.64036
2.6438
2.64626
2.64795
2.64908
2.64969
2.64969
2.64898
2.64675
2.64313
2.61298
2.62157
2.62989
2.63669
2.64173
2.64529
2.64781
2.64953
2.65065
2.65132
2.65137
2.65066
2.64868
2.64521
2.61666
2.62428
2.6321
2.63865
2.64339
2.64668
2.64904
2.65071
2.65179
2.65255
2.65266
2.6521
2.6505
2.6471
2.61973
2.62669
2.63382
2.64007
2.64459
2.64756
2.6497
2.65135
2.65243
2.65338
2.65368
2.65356
2.65277
2.64991
2.6256
2.63153
2.63737
2.64238
2.6461
2.64838
2.65011
2.6516
2.65254
2.65365
2.65409
2.6545
2.65416
2.65138
2.62567
2.63421
2.63972
2.64387
2.64714
2.64862
2.64988
2.65113
2.6519
2.65317
2.65366
2.65482
2.6554
2.65501
2.63184
2.64153
2.64436
2.64695
2.64829
2.64858
2.64904
2.64987
2.6505
2.65195
2.65222
2.65417
2.65394
2.65426
2.63911
2.63438
2.63282
2.63069
2.62935
2.62895
2.63023
2.63282
2.63654
2.64148
2.64721
2.65217
2.65934
2.66195
2.64406
2.64136
2.63903
2.63784
2.63715
2.63733
2.63896
2.6414
2.6448
2.64953
2.6536
2.65779
2.66154
2.66211
2.64325
2.64386
2.64351
2.64369
2.64417
2.64503
2.64683
2.64889
2.65143
2.65451
2.65707
2.65959
2.66208
2.66246
2.64343
2.64603
2.64733
2.64833
2.64972
2.65115
2.65301
2.65485
2.6569
2.65916
2.66098
2.6622
2.66288
2.66292
2.64141
2.64672
2.64855
2.65162
2.65393
2.65587
2.65777
2.65951
2.66122
2.66276
2.6638
2.66444
2.66399
2.66319
2.63986
2.64569
2.65011
2.65392
2.65694
2.65934
2.66138
2.66308
2.66453
2.66564
2.66623
2.66637
2.665
2.66337
2.63806
2.64488
2.65083
2.65549
2.65913
2.66191
2.66409
2.66577
2.66708
2.66795
2.66835
2.66821
2.66665
2.66453
2.63797
2.64527
2.65197
2.65722
2.66117
2.66411
2.66635
2.66801
2.66923
2.67
2.67028
2.66989
2.66821
2.66563
2.63854
2.646
2.65301
2.65859
2.66273
2.66579
2.66809
2.66979
2.671
2.67181
2.67214
2.6718
2.67041
2.66778
2.6417
2.6486
2.65524
2.66065
2.66461
2.66748
2.66967
2.67131
2.67246
2.67331
2.67372
2.67348
2.67249
2.66983
2.64478
2.65136
2.65745
2.66252
2.6663
2.66887
2.67085
2.67243
2.67352
2.67453
2.67506
2.67523
2.67506
2.6728
2.65041
2.65616
2.66109
2.66525
2.66839
2.67039
2.67195
2.6733
2.67421
2.67537
2.67608
2.67668
2.67698
2.67551
2.65305
2.66034
2.66435
2.66736
2.66992
2.67104
2.67221
2.67342
2.67424
2.67563
2.67658
2.67785
2.67938
2.67914
2.66011
2.66732
2.66874
2.6714
2.67177
2.67205
2.6727
2.67355
2.67413
2.67568
2.67645
2.67873
2.67973
2.68035
2.653
2.64847
2.64669
2.64508
2.64415
2.64417
2.64575
2.64848
2.65201
2.65701
2.66213
2.66625
2.67248
2.67524
2.6576
2.65513
2.65308
2.65209
2.65174
2.65223
2.65401
2.65654
2.65973
2.66371
2.66747
2.67087
2.67433
2.67532
2.65753
2.65757
2.65732
2.65765
2.65837
2.65943
2.66128
2.66332
2.66567
2.66833
2.67076
2.67321
2.67531
2.67575
2.65871
2.66039
2.66147
2.6624
2.66371
2.66507
2.66689
2.66868
2.67061
2.67263
2.67424
2.67528
2.67589
2.67601
2.65743
2.66132
2.66333
2.66567
2.66768
2.66945
2.67128
2.67295
2.67457
2.67602
2.67693
2.67751
2.67709
2.67626
2.6563
2.66127
2.66499
2.66815
2.67073
2.67284
2.67474
2.67635
2.67775
2.67883
2.67937
2.67938
2.67803
2.67648
2.65485
2.6611
2.66608
2.66998
2.67302
2.67544
2.67744
2.67904
2.68033
2.68122
2.68157
2.68122
2.67963
2.6776
2.65482
2.66157
2.66737
2.6718
2.67513
2.67772
2.67978
2.68137
2.6826
2.68339
2.68361
2.68307
2.68143
2.67894
2.65533
2.66233
2.66849
2.67328
2.67682
2.67955
2.68168
2.68332
2.68453
2.68531
2.68554
2.68504
2.68365
2.68108
2.65795
2.66468
2.67061
2.67539
2.67883
2.68144
2.68348
2.68506
2.68619
2.68697
2.68728
2.68689
2.68588
2.68329
2.66057
2.6673
2.67276
2.67729
2.68056
2.68295
2.68483
2.68635
2.68743
2.6883
2.68881
2.68871
2.68839
2.6863
2.66544
2.67159
2.67608
2.68006
2.6828
2.68473
2.68623
2.6875
2.6884
2.6894
2.69005
2.69029
2.69031
2.689
2.66859
2.67549
2.67899
2.68209
2.68412
2.68535
2.6864
2.68752
2.68838
2.68967
2.6908
2.69177
2.69305
2.69258
2.6751
2.68139
2.68287
2.68549
2.68639
2.68655
2.68721
2.68807
2.68871
2.69026
2.69132
2.69301
2.694
2.69427
2.66196
2.65792
2.65645
2.65528
2.65469
2.65499
2.65667
2.65931
2.6626
2.66702
2.67153
2.67522
2.68042
2.68304
2.66583
2.66388
2.66236
2.66172
2.66164
2.66234
2.66417
2.66656
2.66951
2.67296
2.67623
2.67906
2.68199
2.68311
2.66609
2.66607
2.66616
2.66667
2.66757
2.66877
2.67067
2.67262
2.67482
2.67721
2.67941
2.6818
2.68339
2.68381
2.66751
2.66878
2.66999
2.67103
2.67242
2.67382
2.67569
2.67745
2.67938
2.68125
2.6827
2.68355
2.68404
2.684
2.66697
2.66989
2.67205
2.67409
2.67602
2.67781
2.67972
2.68144
2.68313
2.68454
2.68537
2.68588
2.68529
2.68431
2.66621
2.67044
2.67377
2.67661
2.67899
2.68108
2.68305
2.68475
2.68627
2.68741
2.68792
2.68782
2.68638
2.68466
2.6656
2.67091
2.67512
2.67857
2.68132
2.68369
2.68576
2.68748
2.68891
2.68988
2.6902
2.68971
2.68796
2.68579
2.6659
2.67185
2.67668
2.68055
2.68354
2.68607
2.68819
2.6899
2.69126
2.69213
2.69231
2.69163
2.68989
2.6873
2.66662
2.67291
2.67808
2.68224
2.68538
2.68802
2.69019
2.69193
2.69326
2.69408
2.6942
2.69351
2.69202
2.68936
2.66909
2.67523
2.68025
2.68441
2.68747
2.69
2.69208
2.69375
2.695
2.69575
2.69589
2.69526
2.69413
2.6915
2.67156
2.67772
2.68232
2.68628
2.68911
2.69141
2.69334
2.69498
2.69621
2.69702
2.69735
2.69697
2.69635
2.69428
2.67579
2.68142
2.68519
2.68875
2.6912
2.69311
2.6947
2.69613
2.69722
2.69808
2.69862
2.69854
2.69815
2.69658
2.67869
2.68475
2.68763
2.69063
2.69227
2.69356
2.69472
2.69598
2.69704
2.69824
2.69929
2.70002
2.70046
2.69957
2.68426
2.68939
2.69064
2.69308
2.69397
2.69446
2.69521
2.69632
2.69727
2.69882
2.70004
2.70125
2.70174
2.70148
2.66857
2.66509
2.66407
2.66333
2.66301
2.66336
2.66496
2.66717
2.67013
2.67384
2.67778
2.68107
2.68552
2.68809
2.67166
2.67015
2.66914
2.66875
2.66888
2.66965
2.67134
2.67344
2.67611
2.67905
2.68193
2.68448
2.68708
2.68852
2.67191
2.67205
2.67239
2.67304
2.67401
2.67523
2.67699
2.67877
2.68082
2.68294
2.68494
2.68712
2.68859
2.68928
2.67334
2.6745
2.67571
2.6769
2.67828
2.67968
2.68144
2.68313
2.685
2.68676
2.68814
2.68892
2.68939
2.68948
2.67311
2.67565
2.67764
2.67964
2.68154
2.68333
2.68521
2.68692
2.6886
2.69
2.69081
2.69126
2.69075
2.68985
2.67288
2.67653
2.67943
2.68213
2.6844
2.68647
2.68845
2.69017
2.69172
2.69287
2.69338
2.69331
2.69203
2.69034
2.67301
2.67741
2.68101
2.68415
2.68674
2.68909
2.69118
2.69296
2.69441
2.69539
2.69571
2.69524
2.69353
2.69135
2.67388
2.67884
2.68286
2.68628
2.68903
2.69152
2.69366
2.69544
2.69681
2.69766
2.69781
2.69708
2.69534
2.69284
2.67514
2.68033
2.68454
2.68814
2.69097
2.69352
2.6957
2.69749
2.69883
2.6996
2.69964
2.69885
2.69731
2.69472
2.67773
2.68278
2.68682
2.69038
2.69309
2.69553
2.69759
2.69932
2.70059
2.70129
2.70129
2.70053
2.6993
2.69673
2.68008
2.68514
2.68883
2.69223
2.69471
2.69691
2.69884
2.70055
2.70182
2.70256
2.70272
2.70215
2.70134
2.69919
2.68373
2.68837
2.69138
2.6945
2.69669
2.69859
2.70024
2.70178
2.70297
2.70373
2.7041
2.70372
2.70318
2.70136
2.6861
2.69115
2.69345
2.69621
2.69781
2.6992
2.70049
2.70185
2.70302
2.70407
2.70496
2.70525
2.70532
2.70418
2.69095
2.69493
2.69597
2.69826
2.69919
2.70001
2.70098
2.70228
2.70345
2.7049
2.70605
2.70684
2.70699
2.70616
2.67323
2.67036
2.66957
2.669
2.66875
2.66905
2.6705
2.67236
2.67501
2.67817
2.68158
2.68472
2.68876
2.69156
2.67541
2.67431
2.67373
2.67343
2.67365
2.67443
2.6759
2.67775
2.68019
2.68276
2.68536
2.68781
2.69036
2.69214
2.67568
2.67592
2.67641
2.6771
2.67803
2.67919
2.68073
2.68235
2.68426
2.6862
2.68822
2.69047
2.69193
2.69305
2.67692
2.67807
2.67936
2.68053
2.68185
2.68315
2.68473
2.68628
2.68805
2.68973
2.69118
2.69215
2.6929
2.69329
2.67701
2.67921
2.68128
2.68308
2.68489
2.68654
2.68823
2.68979
2.69137
2.69273
2.69369
2.69426
2.69411
2.69374
2.67735
2.68049
2.68314
2.68559
2.68769
2.68958
2.69134
2.6929
2.69434
2.69547
2.69609
2.6963
2.69554
2.69435
2.67803
2.68175
2.68488
2.6877
2.69005
2.69219
2.69405
2.69564
2.69697
2.6979
2.69829
2.69817
2.69695
2.69518
2.67942
2.68353
2.68691
2.68994
2.69238
2.69463
2.69653
2.69812
2.69936
2.70016
2.70041
2.69998
2.69858
2.69648
2.68105
2.68533
2.68878
2.69192
2.69439
2.6967
2.69864
2.70026
2.70148
2.70221
2.70236
2.70175
2.70043
2.69817
2.68373
2.68784
2.69112
2.69418
2.69654
2.69875
2.70063
2.70223
2.70344
2.70411
2.70422
2.70356
2.70245
2.70011
2.68612
2.6902
2.69316
2.69608
2.69823
2.70028
2.70209
2.70372
2.70499
2.70571
2.70592
2.70537
2.70453
2.70246
2.68948
2.69314
2.69555
2.69826
2.7002
2.70206
2.70371
2.70528
2.70653
2.70724
2.70761
2.70719
2.70661
2.70468
2.6917
2.69566
2.69747
2.69995
2.70153
2.70305
2.70447
2.70591
2.70714
2.70805
2.70883
2.70893
2.70876
2.7076
2.69588
2.69878
2.69962
2.70175
2.70276
2.7039
2.70509
2.70652
2.70785
2.7092
2.71023
2.71077
2.71082
2.70989
2.67656
2.67437
2.67385
2.67342
2.67336
2.67375
2.67502
2.67669
2.67915
2.68204
2.68522
2.6882
2.69183
2.69451
2.67822
2.67748
2.67715
2.67704
2.67736
2.67811
2.67949
2.68123
2.68354
2.686
2.68857
2.69104
2.69349
2.69543
2.6785
2.67887
2.67939
2.68007
2.681
2.68207
2.68351
2.68507
2.68699
2.68899
2.69111
2.69338
2.69503
2.6964
2.67974
2.68087
2.682
2.68308
2.68429
2.68548
2.68696
2.68849
2.69029
2.69207
2.69377
2.69511
2.69613
2.69684
2.68023
2.68212
2.68388
2.68549
2.68705
2.68851
2.69007
2.69158
2.69319
2.69469
2.69598
2.69695
2.69725
2.69736
2.68111
2.68368
2.68587
2.68794
2.68971
2.69136
2.69295
2.69443
2.6959
2.69722
2.6982
2.69884
2.69865
2.69805
2.68221
2.68522
2.68777
2.69014
2.69209
2.69393
2.69556
2.69705
2.69841
2.69955
2.70029
2.7007
2.70014
2.69884
2.68397
2.68726
2.68995
2.69248
2.69449
2.69643
2.69807
2.69956
2.70085
2.70187
2.70245
2.70262
2.7018
2.70001
2.68587
2.68929
2.69201
2.69464
2.6967
2.6987
2.7004
2.70192
2.7032
2.70413
2.70462
2.70455
2.70365
2.70166
2.68859
2.69186
2.69447
2.69707
2.69907
2.70104
2.70273
2.70425
2.70553
2.70637
2.70684
2.7066
2.70574
2.70364
2.69102
2.69427
2.69668
2.69922
2.70112
2.70303
2.70473
2.70629
2.70762
2.70845
2.70898
2.70869
2.70795
2.70592
2.69417
2.69712
2.69914
2.70157
2.70337
2.7052
2.70683
2.70838
2.70972
2.71051
2.7111
2.71085
2.71024
2.70826
2.69631
2.69954
2.70108
2.70342
2.70505
2.70673
2.70828
2.7098
2.71113
2.712
2.71283
2.71294
2.71252
2.71119
2.6999
2.70229
2.70305
2.70516
2.7064
2.70788
2.70937
2.71094
2.7124
2.71363
2.71463
2.71505
2.71486
2.71376
2.49269
2.48845
2.48484
2.49156
2.51941
2.56138
2.48582
2.47553
2.47109
2.479
2.50922
2.55915
2.49359
2.48087
2.47313
2.47375
2.49839
2.54789
2.49565
2.47931
2.46823
2.46448
2.4834
2.52685
2.50082
2.48144
2.46744
2.45988
2.47377
2.50953
2.50459
2.48388
2.46918
2.46094
2.4702
2.49756
2.51043
2.48956
2.47616
2.46727
2.47377
2.49371
2.51566
2.49643
2.48556
2.47816
2.4834
2.50009
2.52231
2.50632
2.49814
2.49177
2.49635
2.51176
2.52887
2.51675
2.51001
2.50438
2.5103
2.52483
2.53461
2.52655
2.52203
2.5174
2.52508
2.53969
2.53632
2.5312
2.52688
2.52226
2.53219
2.55
2.53876
2.53258
2.52633
2.52193
2.53605
2.55842
2.52616
2.52237
2.51599
2.51495
2.53376
2.56202
2.56411
2.5718
2.57982
2.59496
2.618
2.64205
2.55097
2.55391
2.56347
2.58195
2.61065
2.64259
2.55554
2.5549
2.55819
2.57036
2.59503
2.62741
2.55232
2.54723
2.5455
2.55059
2.56887
2.59401
2.55231
2.54241
2.5353
2.53394
2.54572
2.56287
2.55226
2.5393
2.52886
2.52385
2.52971
2.53926
2.5549
2.53977
2.52814
2.52079
2.52337
2.5283
2.5593
2.54372
2.53278
2.525
2.52687
2.52907
2.56616
2.5516
2.54355
2.53651
2.53906
2.53827
2.5738
2.56197
2.55658
2.55158
2.55597
2.55398
2.58159
2.57449
2.57119
2.56905
2.57564
2.57409
2.58651
2.58391
2.58401
2.58427
2.59247
2.59386
2.59427
2.59278
2.59342
2.59521
2.6062
2.61331
2.58643
2.58892
2.59132
2.5984
2.61354
2.6255
2.6157
2.62586
2.63345
2.64311
2.65669
2.67265
2.60095
2.60703
2.61725
2.63273
2.65076
2.6716
2.6022
2.60484
2.61067
2.62207
2.63872
2.65786
2.59791
2.59761
2.59957
2.60475
2.61383
2.62513
2.59589
2.59052
2.58744
2.58672
2.58901
2.59388
2.59438
2.58574
2.5787
2.5731
2.57054
2.56959
2.59548
2.58513
2.57549
2.56652
2.56088
2.55665
2.59847
2.58757
2.57667
2.5672
2.56136
2.55644
2.60457
2.59404
2.58483
2.57645
2.57129
2.56716
2.61209
2.60213
2.59658
2.59042
2.58795
2.58673
2.62017
2.61349
2.61116
2.60835
2.60899
2.61096
2.62696
2.62447
2.62546
2.626
2.62986
2.6337
2.63672
2.63559
2.63888
2.6411
2.64785
2.65518
2.63196
2.63595
2.64034
2.64793
2.65681
2.6666
2.64274
2.65279
2.65822
2.66418
2.67117
2.68259
2.62623
2.63075
2.63799
2.65116
2.66746
2.68194
2.62553
2.62713
2.63175
2.64141
2.6554
2.67144
2.62122
2.61947
2.62139
2.62715
2.63551
2.64236
2.61883
2.61292
2.61072
2.61084
2.61182
2.61127
2.61787
2.60843
2.60232
2.59683
2.5921
2.58512
2.61949
2.60818
2.60018
2.59049
2.58209
2.57151
2.62292
2.6115
2.60144
2.59052
2.58205
2.57099
2.62861
2.61857
2.60876
2.5993
2.59185
2.58189
2.63609
2.62652
2.62036
2.61293
2.608
2.60138
2.64363
2.63744
2.63474
2.63032
2.62857
2.62608
2.65031
2.64785
2.64876
2.64824
2.6498
2.64971
2.6597
2.65885
2.66233
2.66369
2.66802