/*--------------------------------*- C++ -*----------------------------------*\
| =========                 |                                                 |
| \\      /  F ield         | OpenFOAM: The Open Source CFD Toolbox           |
|  \\    /   O peration     | Version:  v2106                                 |
|   \\  /    A nd           | Website:  www.openfoam.com                      |
|    \\/     M anipulation  |                                                 |
\*---------------------------------------------------------------------------*/
FoamFile
{
    version     2.0;
    format      ascii;
    arch        "LSB;label=32;scalar=64";
    class       volScalarField;
    location    "0.000144";
    object      T;
}
// * * * * * * * * * * * * * * * * * * * * * * * * * * * * * * * * * * * * * //

dimensions      [0 0 0 1 0 0 0];

internalField   nonuniform List<scalar> 
18273
(
294.154
293.977
293.818
293.731
293.744
293.782
293.854
293.91
293.997
294.148
294.431
294.835
295.299
295.608
294.221
294.096
293.908
293.824
293.737
293.727
293.758
293.771
293.834
293.965
294.204
294.57
295.02
295.412
294.249
294.168
294.004
293.886
293.753
293.681
293.671
293.65
293.695
293.789
293.992
294.317
294.746
295.163
294.298
294.204
294.039
293.879
293.729
293.634
293.603
293.567
293.594
293.669
293.845
294.131
294.516
294.901
294.384
294.211
294.009
293.827
293.683
293.584
293.541
293.512
293.53
293.599
293.747
293.983
294.308
294.651
294.363
294.17
293.945
293.754
293.629
293.552
293.517
293.497
293.498
293.559
293.687
293.89
294.147
294.473
294.391
294.151
293.901
293.71
293.598
293.537
293.514
293.51
293.521
293.581
293.696
293.838
294.096
294.382
294.253
294.047
293.852
293.693
293.599
293.557
293.54
293.541
293.563
293.622
293.723
293.847
294.112
294.37
294.131
293.962
293.847
293.733
293.652
293.616
293.602
293.605
293.636
293.708
293.814
293.935
294.201
294.429
294.038
293.909
293.872
293.829
293.774
293.732
293.715
293.724
293.767
293.857
293.991
294.145
294.437
294.682
294.054
293.994
294.019
294.035
294.009
293.956
293.92
293.918
293.969
294.112
294.302
294.52
294.875
295.183
294.195
294.155
294.202
294.257
294.26
294.23
294.184
294.19
294.25
294.415
294.659
294.946
295.357
295.689
294.454
294.563
294.578
294.637
294.633
294.62
294.575
294.569
294.632
294.818
295.118
295.449
295.834
296.165
294.626
294.819
294.798
294.872
294.869
294.915
294.907
294.948
295.019
295.187
295.434
295.765
296.085
296.285
292.045
292.265
292.374
292.573
292.931
293.22
293.512
293.7
293.883
294.035
294.31
294.455
294.526
294.569
291.638
291.932
292.117
292.539
292.967
293.291
293.551
293.651
293.8
293.938
294.137
294.412
294.535
294.632
291.746
292.092
292.42
292.847
293.187
293.356
293.512
293.571
293.724
293.871
294.029
294.314
294.456
294.62
292.065
292.487
292.869
293.171
293.377
293.425
293.533
293.577
293.714
293.837
293.937
294.138
294.295
294.505
292.707
292.999
293.225
293.355
293.421
293.401
293.475
293.531
293.663
293.792
293.912
294.055
294.216
294.452
293.091
293.235
293.322
293.357
293.364
293.352
293.424
293.494
293.617
293.756
293.858
293.956
294.082
294.334
293.26
293.279
293.256
293.263
293.258
293.28
293.359
293.454
293.581
293.728
293.858
293.958
294.088
294.3
293.084
293.049
293.043
293.089
293.147
293.239
293.335
293.435
293.549
293.687
293.833
293.96
294.093
294.302
292.833
292.673
292.727
292.845
293.063
293.2
293.331
293.447
293.566
293.714
293.865
293.99
294.144
294.327
292.647
292.314
292.34
292.541
292.953
293.191
293.363
293.48
293.588
293.768
293.93
294.105
294.341
294.555
292.501
292.065
292.05
292.265
292.79
293.187
293.434
293.547
293.674
293.882
294.085
294.324
294.617
294.78
292.585
291.938
291.828
292.044
292.641
293.191
293.541
293.671
293.813
293.991
294.193
294.434
294.723
294.775
292.741
292.088
291.925
292.037
292.574
293.216
293.663
293.859
294.038
294.193
294.377
294.56
294.826
294.863
292.672
292.007
291.829
291.917
292.444
293.184
293.766
294.034
294.261
294.432
294.622
294.854
295.025
294.973
288.154
289.182
290.083
291.147
292.262
293.152
293.937
294.451
294.642
294.645
294.498
294.167
293.606
293.228
287.851
289.069
290.231
291.419
292.485
293.274
294.039
294.565
294.823
294.851
294.685
294.485
294.02
293.79
288.599
289.913
291.084
292.137
292.98
293.584
294.187
294.62
294.912
295.005
294.933
294.796
294.382
294.053
289.842
291.068
292.091
292.887
293.507
293.942
294.348
294.669
294.949
295.067
295.029
294.918
294.564
294.214
291.156
292.094
292.838
293.361
293.785
294.076
294.405
294.675
294.935
295.106
295.132
295.063
294.802
294.597
292.062
292.665
293.121
293.497
293.845
294.124
294.41
294.637
294.869
295.067
295.122
295.063
294.894
294.809
292.422
292.772
293.096
293.436
293.785
294.063
294.354
294.583
294.815
295.03
295.16
295.172
295.091
295.056
292.502
292.582
292.781
293.105
293.545
293.924
294.263
294.502
294.708
294.931
295.102
295.14
295.119
295.082
292.125
292.091
292.238
292.61
293.219
293.711
294.146
294.423
294.627
294.878
295.041
295.084
295.07
295.042
291.53
291.295
291.465
291.952
292.782
293.467
294.007
294.326
294.496
294.757
294.867
294.901
294.853
294.843
290.671
290.342
290.618
291.225
292.24
293.115
293.785
294.141
294.33
294.534
294.58
294.594
294.546
294.543
289.722
289.261
289.64
290.41
291.675
292.747
293.533
293.901
294.085
294.201
294.191
294.202
294.188
294.034
289.027
288.492
288.86
289.681
291.055
292.315
293.26
293.682
293.94
294.001
293.919
293.885
293.907
293.704
288.5
287.789
288.056
288.891
290.412
291.892
293.006
293.557
293.904
293.99
293.932
293.957
293.861
293.397
295.905
296.085
296.159
296.091
296.104
296.125
295.659
295.707
295.784
295.727
295.688
295.734
295.429
295.464
295.505
295.45
295.45
295.539
295.178
295.274
295.357
295.359
295.419
295.556
295.013
295.221
295.402
295.455
295.573
295.699
294.89
295.201
295.514
295.659
295.86
295.957
294.837
295.223
295.692
295.968
296.22
296.257
294.857
295.288
295.872
296.233
296.516
296.571
294.934
295.443
296.115
296.49
296.783
296.819
295.232
295.763
296.438
296.828
297.065
297.075
295.731
296.223
296.792
297.097
297.29
297.267
296.213
296.582
296.995
297.183
297.345
297.314
296.568
296.811
297.111
297.21
297.339
297.324
296.524
296.656
296.88
296.928
297.053
297.117
294.89
294.993
295.159
294.963
295.025
294.983
294.66
294.746
294.976
295.014
295.179
295.368
294.746
294.853
295.162
295.373
295.695
295.957
294.679
294.882
295.362
295.765
296.246
296.509
294.715
294.961
295.524
296.029
296.628
296.872
294.69
295.032
295.653
296.181
296.874
297.121
294.688
295.052
295.736
296.293
297.025
297.236
294.729
295.079
295.852
296.453
297.227
297.252
294.791
295.076
295.886
296.485
297.296
297.26
295.021
295.147
295.924
296.446
297.216
297.028
295.166
295.159
295.814
296.187
296.843
296.656
295.133
295.123
295.7
296.012
296.551
296.413
295.265
295.401
295.916
296.074
296.425
296.277
295.15
295.325
295.812
296.024
296.316
296.227
293.238
292.797
292.186
291.037
290.336
288.769
293.173
292.611
292.483
292.125
292.107
291.557
293.644
293.281
293.459
293.561
293.907
293.979
294.015
293.885
294.359
294.78
295.353
295.524
294.501
294.466
295.004
295.558
296.19
296.114
294.795
294.904
295.414
295.863
296.492
296.052
295.028
295.081
295.503
295.815
296.408
295.593
295.079
295.021
295.421
295.554
296.142
294.523
295.044
295.017
295.282
295.107
295.505
293.278
294.87
294.703
294.902
294.466
294.746
291.744
294.597
294.203
294.19
293.406
293.511
290.154
294.115
293.539
293.44
292.538
292.352
289.122
293.903
293.264
293.242
292.389
291.756
288.943
293.202
292.666
292.857
292.306
291.646
289.637
296.585
296.712
296.777
296.749
296.748
296.729
296.288
296.368
296.477
296.451
296.491
296.548
296.017
296.104
296.268
296.344
296.427
296.56
295.762
295.973
296.224
296.386
296.539
296.65
295.643
295.957
296.307
296.537
296.749
296.824
295.547
295.946
296.405
296.667
296.887
296.957
295.497
295.919
296.433
296.697
296.928
297.035
295.45
295.863
296.413
296.717
296.949
297.002
295.45
295.86
296.395
296.663
296.877
296.929
295.341
295.671
296.143
296.387
296.604
296.676
295.328
295.568
295.954
296.131
296.31
296.374
295.222
295.35
295.603
295.681
295.813
295.901
295.201
295.195
295.357
295.327
295.369
295.433
294.862
294.808
294.987
294.969
294.978
295.075
295.627
295.918
296.209
296.204
296.426
296.499
295.362
295.771
296.294
296.546
296.856
297.041
295.286
295.681
296.363
296.825
297.288
297.519
295.019
295.528
296.365
296.977
297.582
297.776
294.871
295.425
296.317
296.993
297.693
297.89
294.729
295.246
296.143
296.866
297.624
297.742
294.455
294.866
295.671
296.254
297.069
297.187
294.044
294.133
294.803
295.299
296.069
296.076
293.351
293.281
293.837
294.203
294.945
295.031
292.65
292.599
293.11
293.419
294.044
294.263
292.255
292.368
292.883
293.15
293.622
293.864
292.217
292.435
292.916
293.136
293.547
293.76
292.601
292.973
293.44
293.651
293.947
294.211
293.192
293.654
294.235
294.569
294.835
295.063
293.714
293.755
293.695
293.303
293.038
292.04
293.645
293.798
294.188
294.312
294.63
294.449
293.956
294.217
294.907
295.433
295.98
296.1
294.095
294.558
295.43
295.985
296.582
296.551
294.228
294.68
295.54
296.069
296.689
296.331
294.114
294.447
295.18
295.601
296.231
295.337
293.61
293.753
294.178
294.152
294.575
293.145
292.765
292.398
292.322
291.881
292.059
290.016
291.378
290.556
290.062
289.288
289.36
287.044
289.772
288.747
288.234
287.381
287.389
285.353
288.475
287.718
287.513
286.826
286.814
285.262
287.965
287.514
287.586
287.27
287.351
286.583
288.312
288.331
288.779
289.008
289.303
289.249
288.796
289.315
290.348
291.255
291.876
292.361
294.34
294.255
294.266
294.292
294.205
294.215
294.788
294.7
294.66
294.683
294.551
294.454
295.274
295.123
295.018
294.941
294.696
294.465
295.824
295.68
295.503
295.277
294.897
294.557
296.27
296.106
295.856
295.503
295.051
294.685
296.582
296.427
296.092
295.617
295.082
294.713
296.6
296.422
296.073
295.645
295.12
294.758
296.613
296.426
296.07
295.616
295.057
294.629
296.618
296.427
296.036
295.473
294.876
294.448
296.463
296.28
295.885
295.3
294.697
294.278
296.118
295.908
295.573
295.076
294.574
294.218
295.697
295.447
295.223
294.889
294.561
294.325
295.262
295.055
294.918
294.744
294.589
294.404
294.981
294.834
294.846
294.81
294.887
294.87
293.548
293.256
293.013
292.728
292.274
291.921
293.058
292.75
292.512
292.439
292.156
291.965
292.743
292.491
292.179
292.108
291.851
291.816
292.967
292.721
292.356
292.191
291.895
291.987
293.493
293.294
292.759
292.533
292.235
292.483
294.566
294.432
293.674
293.301
292.874
293.007
295.769
295.613
294.675
294.037
293.469
293.367
297.08
296.753
295.732
294.85
293.944
293.384
297.92
297.577
296.541
295.396
294.153
293.318
298.291
297.899
296.951
295.739
294.356
293.311
298.245
297.801
296.89
295.72
294.349
293.231
297.895
297.438
296.661
295.656
294.444
293.357
297.226
296.764
296.131
295.326
294.396
293.348
296.307
295.868
295.572
295.007
294.5
293.837
289.51
289.232
288.723
288.146
287.555
287.422
286.843
287.191
287.018
287.201
287.291
287.75
284.486
285.538
285.535
286.214
286.754
287.798
283.348
285.109
285.371
286.352
287.151
288.625
283.388
285.531
285.875
287.105
288.199
289.894
284.986
287.279
287.579
288.791
289.914
291.212
288.085
290.017
290.003
290.733
291.303
292.004
291.618
292.875
292.454
292.519
292.42
292.518
294.438
295.086
294.291
293.604
292.708
292.308
296.326
296.299
295.255
294.087
292.783
292.014
297.267
296.68
295.345
293.893
292.325
291.23
297.469
296.623
295.212
293.492
291.709
290.332
296.951
295.905
294.535
292.743
290.974
289.503
295.513
294.478
293.618
292.393
291.301
290.097
296.428
296.368
296.228
296.189
296.014
295.835
296.535
296.557
296.407
296.275
295.979
295.687
296.552
296.583
296.399
296.159
295.713
295.275
296.555
296.568
296.358
295.988
295.379
294.886
296.548
296.492
296.173
295.685
295.03
294.53
296.434
296.339
295.97
295.427
294.798
294.338
296.165
296.014
295.617
295.089
294.545
294.176
295.752
295.616
295.24
294.748
294.308
294.035
295.366
295.155
294.792
294.346
294.018
293.862
294.99
294.692
294.366
293.982
293.757
293.714
294.635
294.285
294.037
293.734
293.6
293.598
294.312
293.998
293.866
293.692
293.667
293.677
294.096
293.862
293.82
293.744
293.79
293.8
294.08
293.913
294.03
294.147
294.318
294.247
294.843
295
294.769
294.82
294.596
294.617
295.156
295.349
295.068
295.065
294.74
294.789
295.574
295.761
295.246
294.995
294.551
294.663
296.136
296.307
295.561
295.121
294.56
294.6
296.714
296.75
295.818
295.112
294.43
294.314
297.067
296.88
295.893
295.102
294.438
294.166
297.069
296.808
295.839
295.006
294.309
293.939
297.075
296.74
295.832
294.925
294.127
293.679
297.113
296.625
295.708
294.734
293.854
293.35
296.982
296.444
295.56
294.537
293.617
293.061
296.74
296.093
295.234
294.179
293.274
292.649
296.279
295.612
294.861
293.85
293.083
292.494
295.557
294.916
294.355
293.48
292.844
292.255
294.645
294.089
293.882
293.48
293.227
292.711
286.624
289.174
290.322
291.388
291.7
292.678
286.364
289.595
290.649
292.009
292.611
293.641
286.788
290.374
291.02
292.365
292.962
293.875
288.23
291.782
291.979
293.027
293.53
294.201
290.12
293.142
293.052
293.706
293.98
294.356
291.934
294.193
293.91
294.15
294.124
294.405
293.384
294.965
294.547
294.522
294.324
294.36
294.68
295.545
294.906
294.453
294.003
293.966
295.644
295.8
294.954
294.148
293.327
293.123
296.235
295.819
294.707
293.565
292.555
292.156
296.347
295.443
294.071
292.646
291.545
290.973
296.024
294.714
293.26
291.655
290.464
289.782
294.749
293.412
292.144
290.571
289.371
288.636
292.85
291.792
291.095
290.326
289.716
288.918
286.542
288.005
289.717
291.603
293.411
294.745
296.035
296.827
297.199
297.183
296.778
295.916
294.914
293.901
286.632
288.36
290.267
292.086
293.654
294.867
295.989
296.7
297.109
297.145
296.904
296.28
295.383
294.38
287.911
289.829
291.677
293.21
294.366
295.234
296.037
296.611
296.989
297.134
297.054
296.6
295.867
294.997
289.892
291.666
293.069
294.166
294.944
295.527
296.058
296.488
296.794
296.982
296.993
296.723
296.227
295.493
291.833
293.18
294.157
294.785
295.274
295.647
296.053
296.393
296.686
296.926
297.015
296.938
296.656
296.251
293.328
294.079
294.552
294.933
295.304
295.606
295.944
296.218
296.482
296.761
296.899
296.965
296.885
296.762
293.913
294.257
294.524
294.843
295.199
295.516
295.839
296.112
296.38
296.706
296.918
297.097
297.212
297.28
293.91
293.97
294.103
294.406
294.89
295.325
295.704
296
296.252
296.611
296.847
297.096
297.278
297.433
293.268
293.097
293.271
293.764
294.481
295.091
295.566
295.898
296.147
296.527
296.75
297.038
297.184
297.343
292.309
291.98
292.2
292.951
293.989
294.855
295.455
295.836
296.052
296.403
296.57
296.833
296.897
296.994
290.761
290.434
290.885
291.984
293.363
294.493
295.238
295.67
295.853
296.108
296.154
296.267
296.225
296.247
289.003
288.722
289.431
290.842
292.6
294.091
295.006
295.455
295.539
295.678
295.602
295.581
295.487
295.361
287.579
287.279
288.076
289.613
291.692
293.519
294.734
295.267
295.287
295.278
295.005
294.846
294.614
294.449
286.711
286.236
286.92
288.446
290.685
292.819
294.383
295.148
295.216
295.193
294.812
294.599
294.2
293.907
285.377
287.208
289.34
291.69
294.083
295.902
297.325
298.132
298.564
298.616
298.249
297.118
295.579
293.898
285.996
288.229
290.586
292.783
294.694
296.098
297.22
297.906
298.275
298.387
298.172
297.504
296.249
294.649
287.916
290.401
292.591
294.318
295.602
296.452
297.18
297.714
298.045
298.222
298.167
297.802
296.88
295.584
290.501
292.554
294.143
295.321
296.098
296.608
297.098
297.506
297.793
297.979
298.02
297.857
297.318
296.387
292.939
294.323
295.212
295.821
296.286
296.623
296.999
297.344
297.652
297.91
298.04
298.005
297.807
297.361
294.635
295.238
295.597
295.94
296.271
296.53
296.849
297.151
297.449
297.739
297.928
298.049
298.045
298.006
295.253
295.447
295.595
295.842
296.148
296.409
296.723
297.019
297.323
297.658
297.892
298.17
298.341
298.5
295.148
295.122
295.205
295.478
295.895
296.256
296.598
296.901
297.201
297.563
297.824
298.165
298.415
298.688
294.12
294.063
294.324
294.91
295.586
296.105
296.489
296.803
297.099
297.474
297.739
298.116
298.343
298.655
292.554
292.516
293.068
294.13
295.194
295.963
296.433
296.777
297.05
297.39
297.609
297.939
298.073
298.317
290.339
290.476
291.475
293.069
294.566
295.653
296.255
296.625
296.851
297.12
297.263
297.444
297.412
297.471
288.274
288.44
289.701
291.768
293.769
295.299
296.12
296.513
296.623
296.745
296.663
296.624
296.416
296.118
286.547
286.672
287.955
290.246
292.696
294.782
295.956
296.414
296.377
296.252
295.847
295.531
295.105
294.649
285.322
285.397
286.36
288.57
291.352
294.009
295.697
296.344
296.274
295.98
295.188
294.571
293.899
293.524
287.35
289.506
291.658
293.796
296.008
297.676
298.947
299.703
300.123
300.31
300.129
299.469
298.122
296.53
288.971
291.34
293.428
295.222
296.8
297.93
298.84
299.453
299.808
299.994
299.927
299.531
298.577
297.237
291.336
293.572
295.226
296.481
297.489
298.155
298.744
299.216
299.567
299.772
299.803
299.64
299.04
298.026
293.653
295.281
296.381
297.156
297.75
298.156
298.592
298.971
299.294
299.516
299.607
299.595
299.268
298.725
295.712
296.496
296.999
297.392
297.785
298.084
298.437
298.785
299.122
299.408
299.591
299.675
299.624
299.406
296.832
297.088
297.239
297.426
297.718
297.946
298.267
298.59
298.923
299.237
299.481
299.654
299.79
299.82
297.13
297.173
297.194
297.326
297.606
297.824
298.138
298.45
298.78
299.12
299.402
299.69
299.934
300.136
296.847
296.794
296.836
297.056
297.418
297.696
298.018
298.329
298.66
299.019
299.308
299.67
299.938
300.245
295.749
295.866
296.182
296.696
297.22
297.589
297.918
298.233
298.565
298.936
299.225
299.618
299.873
300.227
294.062
294.453
295.237
296.191
296.975
297.494
297.862
298.192
298.52
298.87
299.135
299.503
299.692
299.99
291.883
292.691
294.005
295.417
296.527
297.275
297.756
298.105
298.405
298.724
298.955
299.224
299.268
299.409
289.793
290.889
292.629
294.493
296.021
297.083
297.73
298.086
298.305
298.495
298.539
298.626
298.503
298.344
287.856
289.005
291.018
293.254
295.277
296.79
297.694
298.079
298.167
298.149
297.905
297.715
297.402
297.015
286.251
287.198
289.159
291.698
294.27
296.375
297.639
298.075
298.069
297.813
297.156
296.658
296.098
295.64
291.003
293.15
294.995
296.564
298.113
299.253
300.183
300.813
301.215
301.452
301.488
301.223
300.53
299.477
293.141
295.122
296.636
297.71
298.673
299.392
300.05
300.557
300.913
301.111
301.195
301.084
300.599
299.869
295.224
296.635
297.642
298.311
298.938
299.418
299.888
300.303
300.667
300.92
301.027
301.038
300.777
300.374
296.974
297.673
298.186
298.541
298.954
299.296
299.682
300.046
300.383
300.659
300.825
300.941
300.881
300.741
298.052
298.234
298.422
298.588
298.892
299.153
299.493
299.846
300.192
300.515
300.76
300.949
301.051
301.059
298.532
298.494
298.498
298.553
298.797
299.004
299.319
299.653
299.994
300.331
300.614
300.866
301.067
301.192
298.581
298.506
298.441
298.469
298.7
298.886
299.19
299.511
299.852
300.208
300.516
300.829
301.099
301.325
298.2
298.168
298.179
298.3
298.578
298.78
299.078
299.394
299.739
300.112
300.423
300.786
301.061
301.36
297.362
297.56
297.808
298.116
298.459
298.693
298.984
299.304
299.655
300.042
300.355
300.737
300.99
301.339
296.022
296.631
297.294
297.872
298.32
298.636
298.947
299.283
299.634
300.008
300.308
300.671
300.871
301.22
294.24
295.399
296.561
297.464
298.072
298.52
298.9
299.254
299.592
299.938
300.23
300.539
300.665
300.908
292.497
294.104
295.693
296.948
297.834
298.463
298.957
299.313
299.606
299.874
300.053
300.254
300.264
300.354
290.694
292.554
294.552
296.236
297.523
298.383
299.005
299.366
299.594
299.728
299.713
299.725
299.593
299.527
288.737
290.609
292.994
295.263
297.148
298.378
299.111
299.455
299.562
299.5
299.23
299.017
298.681
298.424
295.284
296.877
298.15
299.115
300.033
300.708
301.31
301.793
302.144
302.398
302.567
302.51
302.176
301.677
297.007
298.234
299.127
299.657
300.209
300.679
301.145
301.554
301.884
302.09
302.231
302.308
302.154
301.901
298.421
299.044
299.554
299.829
300.205
300.559
300.944
301.313
301.653
301.938
302.12
302.242
302.205
302.097
299.333
299.438
299.659
299.81
300.103
300.383
300.722
301.068
301.393
301.697
301.913
302.107
302.201
302.25
299.79
299.663
299.711
299.753
299.987
300.219
300.532
300.873
301.205
301.539
301.802
302.042
302.238
302.369
299.934
299.741
299.69
299.683
299.874
300.073
300.365
300.689
301.018
301.356
301.65
301.911
302.192
302.352
299.876
299.719
299.611
299.603
299.783
299.959
300.239
300.551
300.88
301.226
301.533
301.841
302.13
302.36
299.532
299.476
299.454
299.505
299.7
299.864
300.131
300.435
300.767
301.124
301.431
301.771
302.045
302.325
299.009
299.157
299.274
299.41
299.616
299.782
300.04
300.346
300.687
301.055
301.365
301.717
301.958
302.281
298.175
298.662
299.039
299.316
299.545
299.743
300.009
300.328
300.669
301.028
301.332
301.666
301.854
302.201
297.084
297.992
298.665
299.112
299.405
299.672
299.978
300.316
300.654
300.998
301.298
301.592
301.741
302.049
295.936
297.288
298.262
298.91
299.332
299.707
300.063
300.401
300.717
301.008
301.249
301.506
301.594
301.768
294.513
296.217
297.554
298.521
299.21
299.725
300.147
300.496
300.789
301.024
301.137
301.248
301.272
301.323
292.794
294.689
296.576
298.122
299.243
299.876
300.335
300.641
300.861
300.997
300.966
300.921
300.778
300.691
298.74
299.712
300.364
300.893
301.399
301.798
302.206
302.567
302.854
303.103
303.293
303.357
303.216
303.043
299.744
300.329
300.786
301.047
301.363
301.699
302.029
302.361
302.64
302.863
303.019
303.175
303.188
303.123
300.455
300.665
300.915
301.017
301.248
301.503
301.825
302.145
302.44
302.719
302.922
303.101
303.178
303.201
300.851
300.729
300.845
300.91
301.103
301.324
301.613
301.923
302.214
302.504
302.735
302.966
303.141
303.233
301.018
300.796
300.817
300.813
300.981
301.168
301.436
301.739
302.037
302.348
302.611
302.867
303.099
303.237
301.044
300.813
300.748
300.719
300.86
301.025
301.278
301.565
301.861
302.175
302.457
302.725
302.997
303.183
300.948
300.768
300.659
300.638
300.767
300.912
301.155
301.43
301.726
302.042
302.327
302.621
302.884
303.119
300.733
300.638
300.572
300.576
300.693
300.824
301.055
301.322
301.618
301.937
302.22
302.527
302.778
303.035
300.442
300.454
300.463
300.502
300.617
300.746
300.97
301.237
301.539
301.867
302.146
302.459
302.683
302.969
300.019
300.226
300.366
300.459
300.58
300.722
300.947
301.221
301.523
301.846
302.113
302.411
302.593
302.909
299.409
299.901
300.2
300.359
300.506
300.676
300.924
301.213
301.513
301.827
302.095
302.357
302.51
302.827
298.736
299.564
300.054
300.292
300.513
300.736
301.009
301.297
301.586
301.863
302.097
302.329
302.468
302.684
297.854
298.931
299.652
300.097
300.462
300.78
301.099
301.408
301.694
301.944
302.126
302.272
302.367
302.426
296.606
297.973
299.17
300.057
300.602
300.983
301.291
301.568
301.828
302.049
302.15
302.19
302.163
302.144
301.096
301.587
301.887
302.157
302.452
302.735
303.016
303.29
303.519
303.737
303.918
304.029
303.997
303.909
301.519
301.749
301.942
302.113
302.346
302.588
302.844
303.116
303.346
303.552
303.707
303.876
303.953
303.957
301.851
301.851
301.953
302.026
302.194
302.392
302.662
302.931
303.18
303.429
303.62
303.808
303.932
303.992
302.002
301.837
301.901
301.914
302.058
302.235
302.476
302.743
302.99
303.246
303.457
303.68
303.873
303.992
302.066
301.848
301.849
301.821
301.949
302.094
302.319
302.576
302.831
303.103
303.34
303.577
303.798
303.954
302.051
301.848
301.773
301.733
301.837
301.962
302.172
302.416
302.67
302.945
303.196
303.447
303.678
303.878
301.965
301.793
301.69
301.658
301.746
301.856
302.057
302.289
302.543
302.819
303.072
303.334
303.562
303.787
301.849
301.719
301.622
301.597
301.671
301.772
301.963
302.189
302.441
302.716
302.964
303.234
303.455
303.687
301.679
301.595
301.534
301.526
301.589
301.695
301.882
302.108
302.363
302.641
302.883
303.158
303.36
303.612
301.473
301.471
301.477
301.483
301.554
301.672
301.86
302.09
302.341
302.611
302.84
303.103
303.273
303.548
301.139
301.293
301.382
301.417
301.498
301.631
301.835
302.074
302.324
302.591
302.819
303.055
303.2
303.482
300.774
301.123
301.333
301.404
301.525
301.686
301.904
302.142
302.382
302.624
302.836
303.027
303.158
303.398
300.334
300.809
301.121
301.294
301.499
301.729
301.987
302.244
302.484
302.7
302.884
303.022
303.134
303.243
299.559
300.289
300.883
301.352
301.665
301.918
302.154
302.393
302.626
302.843
302.965
303.026
303.049
303.055
303.903
304.085
304.267
304.415
304.532
304.539
304.488
303.765
303.952
304.133
304.264
304.407
304.497
304.523
303.618
303.822
304.035
304.197
304.361
304.479
304.553
303.465
303.671
303.887
304.066
304.256
304.426
304.546
303.319
303.533
303.763
303.964
304.166
304.35
304.502
303.175
303.387
303.621
303.835
304.051
304.238
304.429
303.057
303.269
303.504
303.719
303.941
304.132
304.335
302.961
303.169
303.4
303.611
303.839
304.027
304.231
302.659
302.521
302.437
302.415
302.46
302.546
302.699
302.884
303.091
303.319
303.522
303.755
303.929
304.148
302.524
302.44
302.38
302.363
302.416
302.518
302.675
302.859
303.059
303.274
303.463
303.688
303.84
304.077
302.323
302.306
302.297
302.296
302.361
302.476
302.642
302.833
303.03
303.244
303.429
303.634
303.763
304.008
302.11
302.183
302.24
302.292
302.387
302.518
302.691
302.877
303.065
303.261
303.433
303.598
303.713
303.94
301.897
302.013
302.128
302.224
302.366
302.549
302.757
302.959
303.142
303.308
303.462
303.593
303.698
303.831
301.439
301.75
302.044
302.297
302.502
302.697
302.891
303.086
303.264
303.431
303.536
303.606
303.658
303.715
287.405
288.372
289.361
290.628
291.936
292.658
287.197
288.059
289.693
291.875
294.069
295.576
289.167
289.824
291.369
293.623
296.062
298.046
291.387
291.915
293.282
295.359
297.699
299.711
293.415
293.931
295.142
296.818
298.97
300.752
294.97
295.516
296.541
297.861
299.728
301.261
296.199
296.623
297.483
298.515
300.181
301.48
296.993
297.18
297.559
298.164
299.436
300.518
297.196
297.21
297.213
297.328
297.979
298.326
296.953
296.582
295.93
295.472
295.455
294.851
296.267
295.396
294.219
293.279
292.631
291.136
295.268
293.976
292.725
291.578
290.565
288.63
294.354
292.97
291.977
290.871
289.737
287.761
293.054
292.007
291.574
290.803
289.837
288.176
285.811
286.157
286.519
287.474
288.854
290.04
286.206
286.545
287.411
289.085
291.182
293.027
288.494
288.739
289.734
291.514
293.866
295.973
291.17
291.346
292.355
294.064
296.443
298.465
293.902
294.013
294.912
296.427
298.581
300.292
295.921
296.242
297.149
298.308
300.048
301.361
297.548
297.917
298.55
299.273
300.603
301.592
298.405
298.663
298.996
299.393
300.274
300.772
298.753
298.798
298.668
298.467
298.57
298.393
298.521
298.099
297.128
296.007
295.238
294.621
297.674
296.475
294.755
293.062
291.704
290.495
296.054
294.356
292.352
290.53
288.922
287.349
294.416
292.594
290.925
289.241
287.721
286.111
292.704
291.172
290.193
288.964
287.878
286.659
286.477
285.601
285.195
285.313
286.101
287.128
287.822
286.778
286.656
287.173
288.435
290.116
290.296
289.254
289.345
290.077
291.538
293.55
292.885
292.101
292.382
293.3
294.859
296.91
295.509
295.098
295.441
296.425
297.882
299.692
297.536
297.502
297.97
298.84
300.096
301.561
299.118
299.34
299.782
300.401
301.195
302.261
299.984
300.256
300.482
300.797
301.299
302.023
300.385
300.564
300.476
300.3
300.137
300.226
300.34
300.168
299.412
298.286
297.226
296.682
299.803
298.921
297.198
295.254
293.539
292.316
298.549
296.912
294.56
292.192
290.153
288.579
296.803
294.845
292.466
290.191
288.277
286.781
295.069
293.037
291.177
289.437
288.043
286.953
288.814
286.632
284.855
284.11
284.38
284.802
290.539
288.208
286.736
286.246
286.751
287.61
292.863
290.743
289.581
289.38
289.993
291.129
295.104
293.576
292.852
292.897
293.615
294.869
297.36
296.486
296.157
296.335
297.138
298.346
299.034
298.758
298.771
299.108
299.928
301.031
300.312
300.408
300.671
301.067
301.767
302.58
301.078
301.349
301.619
301.931
302.389
302.969
301.503
301.778
301.926
302.073
302.206
302.364
301.653
301.767
301.578
301.205
300.571
299.927
301.475
301.265
300.382
299.107
297.549
296.09
300.824
300.087
298.496
296.385
294.073
292.045
299.813
298.347
296.174
293.686
291.261
289.23
298.314
296.527
294.299
292.146
290.175
288.522
292.913
290.294
287.224
285.143
284.293
284.366
294.454
291.749
289.08
287.358
286.7
287.135
296.274
293.853
291.696
290.377
289.965
290.573
297.872
296.088
294.611
293.759
293.593
294.244
299.432
298.377
297.542
297.091
297.148
297.83
300.551
300.156
299.891
299.779
300.08
300.808
301.43
301.448
301.549
301.742
302.2
302.89
302.023
302.257
302.507
302.827
303.284
303.845
302.407
302.729
302.976
303.278
303.605
303.98
302.642
302.885
303.008
303.09
302.989
302.791
302.689
302.777
302.564
302.046
301.136
299.985
302.389
302.177
301.488
300.21
298.375
296.379
301.927
301.28
299.904
297.91
295.445
293.007
300.919
299.762
298.049
295.948
293.591
291.455
297.005
294.764
291.58
288.441
286.14
285.007
298.112
295.843
293.037
290.272
288.336
287.674
299.205
297.331
295.033
292.85
291.38
291.027
300.165
298.831
297.2
295.666
294.731
294.59
301.106
300.329
299.33
298.46
298.016
298.051
301.777
301.488
301.093
300.772
300.702
301.043
302.333
302.362
302.376
302.426
302.699
303.23
302.766
302.971
303.185
303.469
303.923
304.517
303.072
303.36
303.656
304.043
304.485
305
303.305
303.577
303.818
304.147
304.439
304.65
303.42
303.62
303.727
303.76
303.543
303.07
303.314
303.362
303.244
302.784
301.819
300.406
303.173
303.063
302.466
301.303
299.523
297.328
302.748
302.162
301.143
299.617
297.563
295.285
300.08
298.607
296.172
293.249
290.284
288.051
300.794
299.334
297.159
294.478
291.857
289.95
301.386
300.224
298.464
296.356
294.281
292.881
301.893
301.114
299.897
298.374
296.957
296.129
302.398
301.989
301.282
300.338
299.571
299.2
302.793
302.668
302.391
301.995
301.756
301.75
303.156
303.219
303.242
303.238
303.365
303.722
303.468
303.65
303.835
304.077
304.454
304.996
303.701
303.938
304.199
304.577
305.054
305.62
303.886
304.14
304.392
304.756
305.179
305.668
304.001
304.208
304.414
304.658
304.838
304.943
303.994
304.108
304.17
304.163
303.919
303.329
303.987
304.067
303.861
303.412
302.541
301.159
303.837