/*--------------------------------*- C++ -*----------------------------------*\
| =========                 |                                                 |
| \\      /  F ield         | OpenFOAM: The Open Source CFD Toolbox           |
|  \\    /   O peration     | Version:  v2106                                 |
|   \\  /    A nd           | Website:  www.openfoam.com                      |
|    \\/     M anipulation  |                                                 |
\*---------------------------------------------------------------------------*/
FoamFile
{
    version     2.0;
    format      ascii;
    arch        "LSB;label=32;scalar=64";
    class       volScalarField;
    location    "0.000144";
    object      Ttot;
}
// * * * * * * * * * * * * * * * * * * * * * * * * * * * * * * * * * * * * * //

dimensions      [0 0 0 1 0 0 0];

internalField   nonuniform List<scalar> 
18273
(
298.694
298.504
298.893
299.431
300.29
300.988
301.738
302.268
302.708
303.058
303.38
303.578
303.446
302.874
299.523
299.929
300.136
300.618
301.108
301.537
302.01
302.307
302.665
303.041
303.397
303.653
303.55
302.806
300.675
301.285
301.399
301.683
301.885
302.008
302.238
302.334
302.584
302.877
303.203
303.456
303.43
302.903
301.702
302.205
302.22
302.332
302.354
302.303
302.393
302.406
302.582
302.817
303.1
303.337
303.375
303.03
302.382
302.606
302.502
302.518
302.478
302.399
302.429
302.44
302.57
302.777
303.016
303.227
303.338
303.177
302.479
302.581
302.411
302.44
302.431
302.411
302.445
302.494
302.599
302.773
302.957
303.156
303.312
303.335
302.401
302.379
302.223
302.315
302.387
302.434
302.488
302.577
302.695
302.872
303.07
303.235
303.47
303.55
301.889
301.883
301.993
302.262
302.431
302.53
302.592
302.693
302.822
303.001
303.205
303.367
303.672
303.757
301.102
301.232
301.681
302.195
302.513
302.687
302.769
302.871
303.002
303.192
303.415
303.59
303.921
303.966
300.26
300.565
301.344
302.166
302.693
302.936
303.012
303.111
303.222
303.414
303.665
303.873
304.22
304.236
299.368
299.941
301.03
302.153
302.918
303.243
303.311
303.377
303.454
303.667
303.921
304.146
304.497
304.482
298.859
299.487
300.701
302.016
302.995
303.468
303.537
303.592
303.62
303.776
303.955
304.143
304.471
304.376
298.576
299.521
300.771
302.137
303.203
303.8
303.91
303.876
303.769
303.761
303.794
303.849
304.015
303.877
298.673
299.361
300.369
301.676
302.811
303.588
303.833
303.872
303.701
303.502
303.239
303.086
302.966
303.004
296.822
296.811
297.593
298.483
299.85
300.859
301.886
302.594
303.17
303.529
303.753
303.427
302.535
301.566
296.647
297.487
298.177
299.257
300.356
301.152
301.909
302.323
302.83
303.242
303.506
303.526
302.907
301.637
297.764
298.875
299.578
300.386
301.071
301.358
301.773
301.981
302.443
302.868
303.178
303.35
302.962
302.123
299.359
300.35
300.889
301.154
301.451
301.467
301.733
301.862
302.243
302.601
302.842
303.014
302.914
302.52
301.028
301.503
301.674
301.585
301.596
301.485
301.634
301.749
302.065
302.421
302.715
302.958
303.083
303.007
301.785
301.909
301.809
301.594
301.529
301.464
301.589
301.714
301.983
302.327
302.601
302.843
303.04
303.261
301.952
301.82
301.62
301.473
301.462
301.461
301.58
301.738
301.99
302.347
302.719
303.054
303.362
303.662
301.536
301.228
301.22
301.31
301.443
301.557
301.68
301.841
302.059
302.395
302.811
303.229
303.593
303.953
300.669
300.271
300.581
300.956
301.439
301.683
301.851
302.06
302.269
302.621
303.053
303.475
303.875
304.167
299.732
299.228
299.767
300.559
301.47
301.942
302.145
302.362
302.523
302.899
303.293
303.731
304.17
304.358
298.532
298.122
298.884
299.99
301.268
302.133
302.471
302.675
302.816
303.158
303.435
303.83
304.196
304.115
297.949
297.303
298.018
299.366
301.022
302.267
302.801
302.964
303.019
303.189
303.27
303.445
303.654
303.259
297.434
297.027
297.686
298.948
300.676
302.237
303.058
303.263
303.227
303.14
302.945
302.741
302.702
302.161
297.453
296.554
296.947
298.076
299.935
301.845
303.033
303.378
303.336
303.05
302.558
302.109
301.627
301.455
293.456
294.001
295.548
297.148
299.038
300.314
301.605
302.562
303.199
303.557
303.436
302.605
301.073
300.028
292.993
294.468
295.928
297.536
299.085
300.064
301.2
302.021
302.714
303.146
303.155
302.724
301.622
300.275
294.25
295.93
297.385
298.6
299.62
300.222
301.033
301.631
302.28
302.774
303.022
302.919
302.141
300.996
296.448
297.782
298.889
299.517
300.111
300.472
300.993
301.413
301.963
302.411
302.65
302.652
302.173
301.425
298.621
299.309
299.886
300.087
300.384
300.54
300.924
301.257
301.708
302.174
302.471
302.63
302.457
302.243
300.067
300.14
300.209
300.217
300.41
300.564
300.882
301.15
301.513
301.933
302.202
302.389
302.413
302.588
300.557
300.271
300.151
300.162
300.366
300.528
300.837
301.112
301.449
301.862
302.243
302.589
302.838
303.303
300.543
299.923
299.734
299.828
300.18
300.483
300.816
301.105
301.392
301.802
302.253
302.664
303.1
303.692
299.912
299.16
299.025
299.314
299.928
300.387
300.816
301.184
301.483
301.982
302.478
302.954
303.474
304.082
298.857
298.008
298.056
298.686
299.659
300.402
300.916
301.345
301.606
302.19
302.64
303.142
303.537
304.052
297.161
296.39
296.77
297.804
299.174
300.261
300.942
301.43
301.71
302.23
302.521
302.959
303.096
303.388
295.714
294.782
295.35
296.847
298.774
300.221
301.028
301.454
301.635
301.968
302.029
302.29
302.246
302.013
294.365
293.653
294.299
295.881
298.104
300.025
301.214
301.614
301.716
301.744
301.414
301.346
301.162
300.692
294.231
292.809
293.208
294.789
297.463
299.899
301.527
302.082
302.195
302.022
301.389
301.001
300.343
300.114
301.876
300.871
299.723
298.509
297.653
296.799
301.705
300.495
299.362
298.23
297.425
296.516
301.923
300.717
299.587
298.414
297.543
296.444
302.265
301.24
300.248
299.048
297.986
296.576
302.753
301.994
301.181
299.939
298.609
296.82
303.235
302.711
302.085
300.823
299.281
297.139
303.672
303.273
302.778
301.556
299.852
297.455
303.978
303.622
303.18
301.971
300.191
297.729
304.154
303.828
303.366
302.077
300.291
297.905
304.367
303.955
303.349
302.043
300.268
298.046
304.459
303.913
303.117
301.737
300.083
298.092
304.198
303.45
302.481
301.059
299.625
298.012
303.479
302.625
301.601
300.266
299.136
297.916
302.491
301.605
300.595
299.422
298.542
297.632
300.423
299.431
298.635
297.609
297.218
296.506
300.334
299.393
298.77
298.101
297.904
297.223
301.117
300.305
299.838
299.263
299.044
297.955
301.84
301.326
301.225
300.694
300.303
298.588
302.744
302.48
302.538
301.941
301.23
298.986
303.469
303.482
303.624
302.862
301.849
299.209
304.105
304.138
304.252
303.38
302.104
299.187
304.519
304.448
304.504
303.498
302.08
299.002
304.701
304.398
304.225
302.988
301.526
298.697
304.709
304.009
303.48
302.002
300.635
298.179
304.066
302.978
302.124
300.538
299.396
297.564
302.958
301.696
300.729
299.372
298.558
297.31
301.737
300.695
299.884
298.78
298.253
297.294
300.807
300.007
299.393
298.68
298.369
297.427
298.97
298.228
297.226
295.874
294.983
293.094
298.926
298.098
297.734
297.382
297.311
296.314
300.106
299.58
299.605
299.722
300.004
299.003
301.051
300.845
301.513
302.016
302.451
300.787
302.304
302.423
303.366
303.83
304.002
301.522
303.081
303.72
304.686
304.795
304.642
301.517
303.903
304.511
305.239
304.955
304.573
300.971
304.397
304.714
305.204
304.466
304.024
299.736
304.625
304.643
304.602
303.319
302.713
298.123
304.261
303.656
303.273
301.695
301.209
296.295
303.292
302.097
301.376
299.549
299.096
294.293
301.87
300.487
299.836
298.042
297.381
293.126
300.596
299.414
298.911
297.41
296.402
292.943
299.681
298.782
298.467
297.446
296.452
293.781
302.066
301.13
300.062
298.996
298.161
297.263
301.883
300.877
299.906
298.835
298.091
297.161
302.21
301.206
300.303
299.239
298.351
297.263
302.704
301.917
301.097
299.945
298.827
297.423
303.341
302.678
301.908
300.657
299.305
297.629
303.785
303.192
302.45
301.098
299.572
297.761
304.004
303.376
302.612
301.175
299.575
297.804
303.924
303.213
302.421
300.999
299.427
297.729
303.594
302.821
301.989
300.58
299.13
297.623
302.683
301.838
301.02
299.745
298.549
297.353
301.528
300.713
299.973
298.884
297.99
297.056
300.278
299.575
298.89
297.978
297.356
296.603
299.276
298.685
298.094
297.324
296.853
296.154
298.464
298.01
297.532
296.928
296.515
295.802
300.94
300.368
299.748
299.004
298.786
297.933
300.951
300.712
300.506
299.966
299.779
298.705
301.839
301.679
301.701
301.154
300.764
299.259
302.574
302.664
302.845
302.2
301.542
299.522
303.366
303.477
303.619
302.839
301.921
299.579
303.811
303.8
303.823
302.946
301.892
299.325
303.757
303.47
303.256
302.117
301.057
298.619
303.149
302.275
301.789
300.545
299.541
297.333
301.653
300.426
299.797
298.519
297.773
296.17
299.688
298.513
297.994
296.935
296.427
295.526
298.017
297.252
296.951
296.187
295.96
295.367
297.071
296.752
296.62
296.163
296.248
295.527
296.965
297.095
297.096
296.908
297.006
296.206
297.625
297.99
298.164
298.258
298.231
297.187
299.709
299.701
299.204
298.679
298.115
296.527
299.87
300.137
300.465
300.392
300.45
299.301
301.117
301.629
302.413
302.674
302.689
301.094
301.956
302.77
303.961
304.128
304.036
301.677
302.864
303.713
304.853
304.744
304.485
301.485
303.112
303.82
304.709
304.328
304.088
300.447
302.694
303.008
303.36
302.42
302.107
298.14
301.608
300.999
300.581
299.22
298.944
294.815
299.338
297.973
297.2
295.762
295.704
291.747
296.708
295.094
294.615
293.329
293.351
290.294
294.418
293.354
293.404
292.5
292.622
290.52
293.491
293.031
293.363
293.102
293.392
292.187
293.634
293.91
294.68
295.336
295.783
295.178
294.59
295.615
296.942
298.442
298.89
298.585
295.3
295.947
296.313
296.945
297.548
298.131
295.725
296.332
296.75
297.553
298.259
298.988
296.168
296.811
297.439
298.431
299.256
300.089
296.676
297.448
298.347
299.466
300.359
301.205
297.094
298.109
299.278
300.472
301.366
302.146
297.412
298.73
300.055
301.204
301.919
302.509
297.444
298.985
300.444
301.649
302.239
302.636
297.506
299.213
300.673
301.737
302.111
302.263
297.561
299.298
300.596
301.391
301.521
301.472
297.427
299.08
300.145
300.726
300.647
300.493
297.083
298.504
299.267
299.703
299.564
299.391
296.637
297.712
298.225
298.637
298.631
298.662
296.15
296.968
297.234
297.677
297.907
297.979
295.756
296.47
296.82
297.302
297.963
298.358
295.961
296.591
296.41
296.35
296.29
296.209
295.256
295.74
295.571
295.877
296.088
296.413
294.693
295.232
295.207
295.873
296.348
297.194
294.652
295.151
295.505
296.472
297.209
298.528
294.944
295.827
296.512
297.793
298.764
300.303
295.93
297.498
298.356
299.7
300.513
301.603
297.23
299.353
300.304
301.401
301.857
302.297
298.737
301.151
302.107
302.814
302.618
302.244
299.747
302.383
303.232
303.467
302.613
301.703
300.256
302.881
303.618
303.577
302.337
301.01
300.357
302.729
303.1
302.817
301.381
299.823
300.099
302.081
302.243
301.925
300.624
299.184
299.486
300.899
300.785
300.456
299.53
298.169
298.502
299.547
299.645
299.354
299.151
298.61
295.805
295.842
295.145
294
293.118
292.763
292.837
293.419
292.891
292.643
292.429
292.909
290.233
291.625
291.284
291.842
292.139
293.491
288.837
291.101
291.163
292.251
292.92
295.014
288.711
291.767
292.004
293.6
294.875
297.29
290.246
293.97
294.41
296.317
297.854
299.538
293.49
297.387
297.879
299.498
300.25
300.764
297.274
301.079
301.451
302.373
302.027
301.444
300.273
303.919
304.05
303.997
302.463
301.151
302.335
305.545
305.429
304.677
302.463
300.524
303.477
306.083
305.418
304.012
301.301
298.858
303.771
305.823
305.008
303.056
300.152
297.491
303.365
304.309
303.263
300.931
298.195
295.598
301.901
302.095
301.695
299.913
298.466
296.605
297.087
298.037
298.98
300.293
301.432
302.322
297.264
298.517
299.714
301.134
302.231
303.039
297.38
299.019
300.494
301.914
302.852
303.433
297.508
299.522
301.211
302.497
303.119
303.482
297.65
299.911
301.653
302.754
303.094
303.244
297.645
300.127
301.886
302.811
302.938
302.978
297.48
299.993
301.613
302.397
302.424
302.475
297.137
299.591
301.031
301.698
301.621
301.699
296.775
298.945
300.075
300.594
300.461
300.621
296.384
298.123
298.896
299.345
299.288
299.631
295.989
297.256
297.694
298.04
298.12
298.525
295.593
296.44
296.702
297.123
297.44
297.924
295.308
295.876
296.026
296.449
296.938
297.406
295.14
295.659
296.015
296.638
297.39
297.808
296.102
297.005
297.423
298.548
299.563
300.745
296.246
297.228
297.936
299.385
300.548
301.905
296.581
297.948
298.945
300.532
301.707
303.08
297.214
299.155
300.377
301.97
302.864
303.881
298.065
300.539
301.883
303.104
303.48
303.91
298.74
301.609
302.989
303.843
303.834
303.737
299.082
302.245
303.496
304.013
303.614
303.225
299.354
302.565
303.598
303.783
302.983
302.34
299.628
302.545
303.13
302.939
301.797
301.059
299.664
302.174
302.379
301.918
300.619
299.875
299.514
301.405
301.181
300.372
299.09
298.268
299.071
300.314
299.963
299.146
298.191
297.46
298.403
298.899
298.519
297.736
297.117
296.378
297.336
297.655
297.568
297.257
297.3
296.87
290.629
293.792
295.221
296.788
297.668
299.201
290.324
294.151
295.578
297.606
298.779
300.565
290.917
295.432
296.556
298.827
300.136
301.967
292.666
297.521
298.344
300.499
301.827
303.144
295.049
299.836
300.631
302.458
303.296
303.715
297.254
301.873
302.664
303.856
303.834
303.727
299.167
303.591
304.276
304.844
304.096
303.394
300.886
304.869
305.142
304.884
303.551
302.511
302.176
305.509
305.217
304.219
302.195
300.985
303.028
305.615
304.775
303.06
300.665
299.357
303.254
304.938
303.398
300.967
298.484
297.104
302.951
303.554
301.914
299.297
296.939
295.486
301.637
301.066
299.537
297.004
294.932
293.452
299.495
298.746
298.032
296.551
295.568
294.062
291.767
292.669
294.859
296.961
299.155
300.561
302.063
303.076
303.869
304.347
304.269
303.414
302.069
300.493
291.773
293.437
295.513
297.395
299.094
300.226
301.45
302.29
303.011
303.438
303.539
303.039
301.993
300.348
293.51
295.287
297.184
298.569
299.665
300.366
301.181
301.805
302.372
302.849
303.125
302.902
302.192
301.048
296.095
297.503
298.694
299.487
300.085
300.471
300.982
301.42
301.839
302.238
302.515
302.473
302.09
301.371
298.439
299.211
299.8
300.038
300.297
300.472
300.846
301.172
301.554
301.964
302.267
302.414
302.361
302.173
300.1
300.136
300.115
300.113
300.249
300.372
300.672
300.932
301.241
301.631
301.897
302.174
302.352
302.571
300.676
300.234
299.998
299.992
300.121
300.292
300.569
300.838
301.139
301.568
301.909
302.323
302.771
303.332
300.581
299.824
299.505
299.558
299.859
300.165
300.473
300.765
301.04
301.517
301.896
302.436
303.031
303.816
299.811
298.879
298.689
299
299.545
300.026
300.413
300.745
301.035
301.597
302.024
302.711
303.365
304.251
298.721
297.739
297.739
298.396
299.291
300.026
300.491
300.853
301.111
301.719
302.161
302.933
303.547
304.412
296.712
295.906
296.357
297.548
298.886
299.924
300.503
300.907
301.125
301.67
302.034
302.71
303.192
303.962
294.702
294.015
294.846
296.573
298.471
299.934
300.638
300.993
301.052
301.472
301.684
302.159
302.447
302.951
292.7
292.268
293.28
295.356
297.845
299.792
300.836
301.226
301.097
301.252
301.08
301.281
301.137
301.428
292.343
291.281
292.138
294.389
297.281
299.691
301.189
301.817
301.594
301.543
300.938
300.811
300.192
300.493
289.282
290.731
293.183
295.667
298.297
300.1
301.567
302.391
303.004
303.38
303.325
302.33
300.684
298.632
289.949
292.093
294.62
296.784
298.736
300.034
301.141
301.824
302.292
302.577
302.586
302.091
300.863
298.931
292.221
294.516
296.736
298.299
299.517
300.233
300.924
301.427
301.806
302.107
302.249
302.072
301.233
299.82
295.122
296.815
298.28
299.231
299.896
300.269
300.722
301.097
301.402
301.633
301.793
301.779
301.338
300.454
297.7
298.624
299.275
299.639
300.001
300.215
300.559
300.87
301.197
301.496
301.71
301.78
301.717
301.404
299.4
299.514
299.598
299.725
299.945
300.089
300.386
300.66
300.958
301.263
301.486
301.691
301.814
301.96
299.964
299.685
299.56
299.625
299.811
299.979
300.261
300.537
300.839
301.188
301.447
301.816
302.135
302.53
299.877
299.378
299.192
299.302
299.589
299.866
300.152
300.436
300.731
301.12
301.408
301.871
302.301
302.889
298.786
298.342
298.379
298.818
299.355
299.774
300.08
300.368
300.666
301.101
301.428
301.998
302.458
303.207
297.171
296.829
297.252
298.198
299.119
299.757
300.115
300.411
300.688
301.127
301.462
302.067
302.498
303.287
294.651
294.607
295.666
297.248
298.642
299.584
300.042
300.354
300.588
300.997
301.315
301.833
302.147
302.819
292.439
292.512
293.921
296.102
298.085
299.471
300.109
300.407
300.499
300.766
300.878
301.189
301.283
301.572
290.271
290.477
291.995
294.625
297.208
299.2
300.177
300.521
300.417
300.406
300.122
300.108
299.844
299.833
289.506
289.297
290.531
293.203
296.24
298.855
300.337
300.82
300.578
300.276
299.415
298.937
298.228
298.377
290.255
292.311
294.66
296.795
299
300.544
301.75
302.429
302.862
303.154
303.141
302.611
301.289
299.557
292.058
294.345
296.458
298.116
299.64
300.652
301.498
302.049
302.394
302.585
302.599
302.303
301.432
300.068
294.557
296.603
298.211
299.293
300.222
300.788
301.322
301.731
302.067
302.27
302.357
302.276
301.755
300.779
296.898
298.263
299.258
299.867
300.401
300.723
301.12
301.45
301.747
301.94
302.039
302.088
301.826
301.332
298.878
299.386
299.779
300.037
300.392
300.62
300.946
301.252
301.569
301.831
302.015
302.129
302.126
301.961
299.916
299.942
299.982
300.062
300.314
300.475
300.777
301.064
301.371
301.656
301.89
302.073
302.242
302.329
300.184
300.032
299.94
299.987
300.213
300.371
300.658
300.938
301.245
301.56
301.826
302.121
302.404
302.677
300.015
299.743
299.649
299.775
300.055
300.272
300.552
300.831
301.137
301.48
301.753
302.144
302.451
302.867
299.032
298.925
299.092
299.496
299.917
300.207
300.473
300.753
301.061
301.427
301.712
302.168
302.483
303.026
297.438
297.633
298.28
299.102
299.76
300.172
300.456
300.738
301.039
301.399
301.686
302.159
302.455
303.022
295.154
295.897
297.148
298.429
299.402
300.015
300.39
300.683
300.963
301.317
301.607
302.023
302.226
302.691
292.972
294.133
295.907
297.671
299.068
299.963
300.469
300.739
300.928
301.161
301.3
301.572
301.614
301.783
290.713
292.082
294.273
296.514
298.451
299.781
300.528
300.826
300.879
300.912
300.753
300.75
300.568
300.442
289.29
290.263
292.505
295.16
297.676
299.582
300.647
300.97
300.902
300.671
300.052
299.655
299.118
298.916
293.018
295.134
297.001
298.53
300.04
301.089
301.956
302.518
302.891
303.138
303.213
303.023
302.375
301.26
295.267
297.163
298.633
299.618
300.529
301.17
301.776
302.227
302.544
302.702
302.774
302.688
302.254
301.57
297.382
298.651
299.597
300.167
300.739
301.158
301.583
301.949
302.278
302.497
302.587
302.596
302.373
301.991
299.091
299.613
300.059
300.333
300.714
301.007
301.364
301.685
301.987
302.217
302.347
302.458
302.417
302.283
300.071
300.099
300.245
300.347
300.632
300.854
301.171
301.491
301.806
302.087
302.298
302.471
302.567
302.573
300.465
300.323
300.298
300.312
300.538
300.707
301.005
301.309
301.619
301.914
302.162
302.396
302.585
302.705
300.485
300.346
300.245
300.239
300.445
300.598
300.884
301.178
301.493
301.813
302.09
302.385
302.644
302.875
300.171
300.063
300.03
300.105
300.343
300.508
300.779
301.068
301.387
301.73
302.015
302.372
302.636
302.962
299.411
299.526
299.717
299.97
300.258
300.444
300.697
300.987
301.311
301.674
301.968
302.36
302.611
303.031
298.144
298.682
299.285
299.791
300.161
300.414
300.672
300.971
301.291
301.649
301.943
302.332
302.557
303.027
296.366
297.509
298.635
299.453
299.966
300.33
300.64
300.948
301.256
301.597
301.904
302.259
302.447
302.846
294.632
296.291
297.879
299.049
299.821
300.341
300.739
301.029
301.285
301.555
301.771
302.044
302.137
302.395
292.721
294.71
296.769
298.403
299.59
300.314
300.809
301.096
301.288
301.434
301.459
301.562
301.528
301.611
290.785
292.827
295.332
297.582
299.363
300.425
300.991
301.234
301.29
301.229
300.987
300.848
300.585
300.465
296.74
298.32
299.518
300.422
301.283
301.889
302.438
302.872
303.189
303.435
303.578
303.545
303.239
302.711
298.491
299.655
300.466
300.933
301.425
301.835
302.257
302.624
302.914
303.086
303.188
303.254
303.125
302.915
299.883
300.409
300.844
301.061
301.388
301.696
302.044
302.377
302.682
302.935
303.083
303.17
303.141
303.043
300.728
300.726
300.891
301.002
301.264
301.51
301.822
302.133
302.427
302.691
302.868
303.031
303.117
303.157
301.101
300.893
300.915
300.926
301.138
301.342
301.635
301.947
302.25
302.547
302.773
302.98
303.147
303.262
301.185
300.946
300.886
300.859
301.028
301.201
301.476
301.774
302.076
302.375
302.633
302.867
303.122
303.264
301.108
300.932
300.805
300.78
300.939
301.094
301.358
301.645
301.95
302.261
302.538
302.822
303.089
303.306
300.8
300.714
300.673
300.698
300.87
301.008
301.255
301.534
301.842
302.168
302.449
302.774
303.03
303.309
300.313
300.427
300.522
300.629
300.806
300.941
301.172
301.451
301.766
302.108
302.396
302.742
302.969
303.318
299.533
299.991
300.337
300.574
300.756
300.913
301.144
301.432
301.745
302.082
302.372
302.705
302.897
303.298
298.492
299.387
300.027
300.421
300.652
300.864
301.121
301.422
301.729
302.054
302.352
302.655
302.829
303.211
297.392
298.755
299.704
300.29
300.631
300.932
301.224
301.512
301.791
302.067
302.318
302.598
302.731
302.989
296.014
297.749
299.071
299.976
300.573
300.986
301.316
301.603
301.859
302.085
302.212
302.366
302.456
302.577
294.302
296.276
298.181
299.675
300.699
301.205
301.54
301.761
301.935
302.054
302.037
302.041
301.965
301.931
299.777
300.724
301.282
301.746
302.196
302.547
302.916
303.243
303.506
303.748
303.913
303.971
303.839
303.662
300.777
301.304
301.667
301.876
302.141
302.435
302.734
303.036
303.287
303.486
303.614
303.752
303.774
303.729
301.429
301.564
301.744
301.814
302.004
302.231
302.526
302.82
303.09
303.344
303.522
303.669
303.737
303.76
301.74
301.563
301.637
301.683
301.851
302.05
302.317
302.603
302.87
303.132
303.334
303.538
303.695
303.773
301.847
301.59
301.594
301.575
301.725
301.892
302.144
302.425
302.701
302.985
303.222
303.45
303.656
303.773
301.839
301.592
301.52
301.481
301.606
301.754
301.992
302.259
302.535
302.822
303.078
303.322
303.573
303.741
301.727
301.545
301.429
301.402
301.516
301.647
301.877
302.133
302.41
302.701
302.963
303.236
303.483
303.703
301.529
301.428
301.356
301.348
301.451
301.566
301.781
302.029
302.307
302.603
302.865
303.159
303.398
303.648
301.261
301.264
301.267
301.289
301.39
301.499
301.704
301.951
302.234
302.539
302.8
303.107
303.321
303.619
300.883
301.081
301.204
301.271
301.367
301.481
301.684
301.934
302.216
302.519
302.774
303.07
303.252
303.597
300.328
300.816
301.087
301.212
301.319
301.452
301.669
301.929
302.206
302.502
302.764
303.027
303.195
303.55
299.715
300.541
300.999
301.19
301.356
301.53
301.763
302.016
302.276
302.536
302.772
303.011
303.182
303.439
298.917
300.003
300.688
301.071
301.359
301.602
301.86
302.123
302.377
302.614
302.802
302.972
303.113
303.21
297.699
299.097
300.28
301.103
301.556
301.843
302.067
302.284
302.506
302.709
302.817
302.894
302.925
302.936
301.819
302.279
302.491
302.7
302.945
303.198
303.455
303.706
303.922
304.133
304.303
304.4
304.371
304.277
302.215
302.388
302.501
302.633
302.828
303.045
303.28
303.533
303.746
303.935
304.075
304.23
304.305
304.317
302.472
302.421
302.469
302.524
302.664
302.846
303.097
303.349
303.582
303.814
303.989
304.155
304.267
304.322
302.551
302.361
302.395
302.399
302.525
302.688
302.915
303.164
303.396
303.633
303.826
304.029
304.207
304.314
302.577
302.346
302.336
302.302
302.416
302.548
302.761
303.002
303.243
303.497
303.717
303.935
304.137
304.278
302.541
302.335
302.255
302.212
302.304
302.419
302.619
302.848
303.089
303.347
303.581
303.815
304.034
304.219
302.446
302.277
302.173
302.139
302.218
302.32
302.51
302.729
302.97
303.23
303.468
303.717
303.935
304.149
302.337
302.21
302.112
302.082
302.149
302.241
302.42
302.633
302.873
303.133
303.368
303.63
303.845
304.073
302.188
302.104
302.04
302.024
302.08
302.174
302.348
302.559
302.8
303.064
303.295
303.567
303.764
304.025
302.019
302.014
302.006
301.996
302.055
302.156
302.33
302.543
302.78
303.037
303.258
303.521
303.693
303.987
301.739
301.889
301.951
301.963
302.019
302.131
302.313
302.533
302.765
303.018
303.242
303.481
303.636
303.945
301.441
301.778
301.946
301.983
302.068
302.199
302.39
302.602
302.822
303.049
303.262
303.459
303.613
303.881
301.091
301.56
301.824
301.941
302.086
302.263
302.48
302.704
302.919
303.122
303.311
303.464
303.609
303.745
300.374
301.113
301.662
302.055
302.29
302.476
302.657
302.851
303.055
303.257
303.385
303.474
303.545
303.566
304.149
304.325
304.502
304.649
304.757
304.763
304.705
304.012
304.19
304.36
304.484
304.62
304.707
304.733
303.867
304.062
304.264
304.418
304.569
304.678
304.744
303.717
303.914
304.118
304.286
304.464
304.625
304.735
303.575
303.781
304
304.191
304.381
304.554
304.695
303.436
303.641
303.864
304.068
304.274
304.453
304.635
303.324
303.529
303.754
303.961
304.175
304.36
304.555
303.233
303.434
303.656
303.859
304.083
304.268
304.47
302.961
302.827
302.743
302.72
302.762
302.842
302.987
303.162
303.361
303.581
303.778
304.01
304.183
304.408
302.852
302.768
302.702
302.678
302.725
302.819
302.967
303.141
303.333
303.54
303.725
303.952
304.106
304.357
302.697
302.674
302.65
302.635
302.688
302.79
302.943
303.121
303.308
303.513
303.696
303.904
304.041
304.307
302.544
302.599
302.625
302.655
302.729
302.841
302.997
303.168
303.343
303.53
303.703
303.873
304.006
304.252
302.413
302.51
302.582
302.637
302.739
302.888
303.071
303.251
303.418
303.575
303.734
303.874
304.002
304.157
302.013
302.321
302.562
302.751
302.902
303.053
303.211
303.377
303.535
303.691
303.802
303.892
303.979
304.046
292.546
294.404
295.996
298.394
300.149
300.964
291.908
293.611
296.363
299.967
302.999
304.617
294.676
296.277
299.31
303.047
306.153
307.853
297.138
298.754
301.813
305.477
308.414
309.91
299.843
301.64
304.579
307.535
309.848
310.96
301.699
303.599
306.37
308.735
310.494
311.318
303.239
305.089
307.461
309.329
310.633
311.278
304.332
305.963
307.672
308.783
309.371
310.03
304.973
306.335
307.302
307.597
307.541
307.864
305.068
305.806
305.599
305.141
304.694
304.489
304.426
304.248
303.106
302.096
301.408
300.603
303.137
301.988
300.661
299.435
298.502
297.365
301.498
299.81
298.708
297.507
296.337
294.989
299.771
298.456
297.703
296.682
295.384
293.924
289.459
290.501
291.61
293.932
296.147
297.908
289.596
290.454
292.284
295.561
299.102
301.739
292.457
293.314
295.59
299.141
302.86
305.573
295.346
296.253
298.745
302.322
306.085
308.572
298.5
299.501
301.99
305.207
308.468
310.432
300.628
301.944
304.39
307.068
309.739
311.245
302.413
303.833
305.895
307.899
309.898
310.977
303.33
304.712
306.38
307.899
309.12
309.737
303.929
305.125
306.204
306.895
307.141
307.201
304.04
304.75
304.677
304.21
303.564
303.402
303.407
303.183
302.066
300.869
299.716
299.067
301.786
300.696
299.076
297.601
296.286
295.293
299.794
298.06
296.61
295.115
293.832
292.629
297.782
296.176
295.186
293.92
292.77
291.708
289.037
288.19
288.166
289.229
291.066
293.092
290.417
289.258
289.457
290.97
293.646
296.749
293.23
292.194
292.771
294.64
297.55
301.065
295.954
295.376
296.262
298.377
301.483
305.053
298.722
298.734
299.815
302.031
304.967
308.103
300.686
301.162
302.455
304.593
307.209
309.835
302.235
303.001
304.306
306.124
308.085
310.12
303
303.826
304.912
306.401
307.968
309.546
303.424
304.215
305.021
305.967
306.7
307.556
303.532
304.059
304.125
303.97
303.681
303.909
303.182
303.016
301.975
300.853
299.788
299.325
302.022
300.971
299.094
297.298
295.818
294.962
300.238
298.495
296.324
294.351
292.822
291.851
298.411
296.367
294.463
292.795
291.512
290.697
290.699
288.218
286.228
285.798
286.732
288.104
292.415
289.828
288.115
287.87
289.16
291.191
294.817
292.581
291.332
291.5
292.981
295.355
297.076
295.605
295.014
295.512
297.186
299.699
299.353
298.659
298.642
299.403
301.219
303.608
300.975
300.936
301.373
302.393
304.237
306.417
302.209
302.556
303.278
304.405
306.093
307.876
302.89
303.409
304.133
305.2
306.615
308.128
303.276
303.816
304.453
305.406
306.485
307.53
303.451
303.908
304.25
304.671
304.86
305.041
303.373
303.579
303.192
302.633
301.763
301.088
302.82
302.475
301.287
299.703
297.883
296.528
301.868
300.639
298.658
296.429
294.261
292.669
300.332
298.65
296.384
294.264
292.336
290.89
294.378
291.65
288.287
286.081
285.3
285.908
295.886
293.08
290.221
288.324
287.741
288.782
297.646
295.217
292.997
291.625
291.4
292.737
299.2
297.489
296.085
295.346
295.491
296.923
300.713
299.774
299.105
298.912
299.425
300.904
301.776
301.51
301.457
301.703
302.554
304.092
302.61
302.752
303.074
303.66
304.712
306.188
303.143
303.488
303.957
304.69
305.75
307.073
303.485
303.916
304.386
305.126
306.084
307.239
303.697
304.08
304.478
305.047
305.577
306.122
303.767
304.065
304.138
304.086
303.746
303.307
303.533
303.553
303.113
302.23
300.827
299.433
303.135
302.653
301.433
299.711
297.471
295.403
302.113
301.041
299.37
297.398
295.076
293.075
298.09
295.854
292.57
289.295
286.866
285.756
299.142
296.881
294.036
291.151
289.106
288.475
300.16
298.306
296.022
293.818
292.359
292.181
301.063
299.786
298.207
296.75
295.959
296.14
301.936
301.232
300.324
299.605
299.401
299.882
302.554
302.335
302.052
301.919
302.162
302.996
303.071
303.162
303.289
303.541
304.15
305.197
303.461
303.718
304.041
304.544
305.344
306.459
303.739
304.08
304.483
305.098
305.899
306.95
303.949
304.283
304.659
305.261
305.962
306.721
304.061
304.37
304.638
304.957
305.14
305.193
303.991
304.182
304.222
304.029
303.394
302.445
303.901
303.92
303.429
302.475
300.908
299.036
303.488
302.98
302.02
300.643
298.669
296.535
300.892
299.491
297.089
294.148
291.075
288.745
301.534
300.131
297.987
295.305
292.621
290.596
302.043
300.932
299.222
297.146
295.068
293.664
302.49
301.767
300.61
299.152
297.808
297.107
302.931
302.573
301.937
301.077
300.448
300.307
303.281
303.198
302.991
302.692
302.619
302.906
303.613
303.709
303.794
303.893
304.194
304.86
303.896
304.105
304.343
304.695
305.253
306.11
304.114
304.378
304.692
305.188
305.855
306.748
304.285
304.571
304.887
305.394
306.05
306.895
304.392
304.661
304.956
305.367
305.799
306.261
304.404
304.603
304.759
304.926
304.918
304.644
304.432
304.601
304.471
304.178
303.482
302.345