/*--------------------------------*- C++ -*----------------------------------*\
| =========                 |                                                 |
| \\      /  F ield         | OpenFOAM: The Open Source CFD Toolbox           |
|  \\    /   O peration     | Version:  v2106                                 |
|   \\  /    A nd           | Website:  www.openfoam.com                      |
|    \\/     M anipulation  |                                                 |
\*---------------------------------------------------------------------------*/
FoamFile
{
    version     2.0;
    format      ascii;
    arch        "LSB;label=32;scalar=64";
    class       volScalarField;
    location    "0.000212";
    object      nut;
}
// * * * * * * * * * * * * * * * * * * * * * * * * * * * * * * * * * * * * * //

dimensions      [0 2 -1 0 0 0 0];

internalField   nonuniform List<scalar> 
18109
(
1.29754e-06
1.02987e-06
8.04567e-07
6.33388e-07
5.13286e-07
4.44589e-07
4.27776e-07
6.90349e-07
5.39755e-07
4.18655e-07
3.23157e-07
2.53439e-07
2.10026e-07
1.93185e-07
3.66599e-07
2.71282e-07
2.06274e-07
1.55937e-07
1.18777e-07
9.46941e-08
8.3781e-08
1.9401e-07
1.31662e-07
9.64675e-08
7.10067e-08
5.25423e-08
4.046e-08
3.46567e-08
1.02096e-07
6.20602e-08
4.29102e-08
3.04626e-08
2.18562e-08
1.63068e-08
1.36241e-08
5.47322e-08
2.90131e-08
1.83222e-08
1.2331e-08
8.53683e-09
6.18522e-09
5.08476e-09
3.2263e-08
1.43945e-08
7.79001e-09
4.7724e-09
3.13936e-09
2.20785e-09
1.81022e-09
2.38138e-08
8.83198e-09
3.71548e-09
1.87282e-09
1.10957e-09
7.47805e-10
6.2645e-10
1.18301e-06
9.4405e-07
7.40461e-07
5.83577e-07
4.71858e-07
4.05489e-07
3.847e-07
4.15319e-07
5.10788e-07
6.85242e-07
9.53245e-07
1.32388e-06
1.83317e-06
2.54216e-06
6.08275e-07
4.83305e-07
3.76998e-07
2.91914e-07
2.29165e-07
1.89276e-07
1.72588e-07
1.82115e-07
2.26377e-07
3.19113e-07
4.77037e-07
7.14873e-07
1.0642e-06
1.5737e-06
3.09346e-07
2.36378e-07
1.81572e-07
1.37889e-07
1.05367e-07
8.40219e-08
7.40331e-08
7.65838e-08
9.63985e-08
1.43116e-07
2.3129e-07
3.78008e-07
6.11727e-07
9.77508e-07
1.55209e-07
1.11011e-07
8.28986e-08
6.14536e-08
4.57131e-08
3.53072e-08
3.02286e-08
3.08726e-08
3.97775e-08
6.29854e-08
1.11514e-07
2.01592e-07
3.59032e-07
6.27443e-07
7.6607e-08
5.02e-08
3.58901e-08
2.57969e-08
1.86572e-08
1.39962e-08
1.17228e-08
1.19814e-08
1.61713e-08
2.80344e-08
5.54203e-08
1.11976e-07
2.2056e-07
4.21645e-07
3.82151e-08
2.22137e-08
1.48114e-08
1.02013e-08
7.15403e-09
5.2264e-09
4.31867e-09
4.52243e-09
6.66739e-09
1.31363e-08
2.94179e-08
6.62407e-08
1.43018e-07
2.95462e-07
2.11385e-08
1.02373e-08
5.98125e-09
3.82967e-09
2.58016e-09
1.83875e-09
1.52039e-09
1.70314e-09
2.91953e-09
6.74373e-09
1.70275e-08
4.19621e-08
9.75563e-08
2.14476e-07
1.52088e-08
5.78169e-09
2.60946e-09
1.42042e-09
8.86179e-10
6.13386e-10
5.21808e-10
6.75539e-10
1.43639e-09
3.88353e-09
1.07822e-08
2.8416e-08
6.99323e-08
1.61613e-07
1.52577e-08
4.79655e-09
1.54535e-09
6.01813e-10
3.10005e-10
2.04477e-10
1.91059e-10
3.17246e-10
8.42728e-10
2.55353e-09
7.54865e-09
2.08575e-08
5.36063e-08
1.28908e-07
1.90319e-08
5.50709e-09
1.44056e-09
4.00164e-10
1.59587e-10
1.10551e-10
1.28302e-10
2.46242e-10
6.74414e-10
2.06229e-09
6.18776e-09
1.74625e-08
4.60125e-08
1.1345e-07
2.57335e-08
7.25053e-09
1.81078e-09
5.02865e-10
2.55188e-10
2.49861e-10
3.18918e-10
4.93034e-10
9.88781e-10
2.47667e-09
6.77543e-09
1.84142e-08
4.7851e-08
1.17335e-07
3.58815e-08
1.03086e-08
2.80555e-09
1.05099e-09
8.0144e-10
9.27188e-10
1.19381e-09
1.64889e-09
2.58622e-09
4.90233e-09
1.0932e-08
2.62821e-08
6.35142e-08
1.4808e-07
5.13769e-08
1.62227e-08
5.45361e-09
2.85891e-09
2.64866e-09
3.19661e-09
4.14294e-09
5.58754e-09
8.01629e-09
1.28573e-08
2.36214e-08
4.83099e-08
1.03946e-07
2.21971e-07
7.80136e-08
2.99187e-08
1.29349e-08
8.27272e-09
8.06171e-09
9.74795e-09
1.26858e-08
1.70781e-08
2.37752e-08
3.51581e-08
5.65071e-08
9.93856e-08
1.87376e-07
3.60303e-07
2.42515e-06
3.73148e-06
5.60076e-06
8.25345e-06
1.21168e-05
1.80343e-05
2.28408e-06
3.55669e-06
5.40963e-06
8.07498e-06
1.19689e-05
1.78353e-05
1.74985e-06
2.89015e-06
4.65534e-06
7.33881e-06
1.14407e-05
1.78726e-05
1.37599e-06
2.4115e-06
4.09885e-06
6.80619e-06
1.11816e-05
1.85127e-05
1.10796e-06
2.06366e-06
3.71991e-06
6.5486e-06
1.1455e-05
2.04763e-05
9.28054e-07
1.8406e-06
3.53199e-06
6.63023e-06
1.2509e-05
2.43533e-05
8.34403e-07
1.75892e-06
3.59104e-06
7.2091e-06
1.46379e-05
3.02468e-05
8.26304e-07
1.82769e-06
3.91998e-06
8.29341e-06
1.76276e-05
3.72403e-05
9.10506e-07
2.05928e-06
4.51475e-06
9.73734e-06
2.08245e-05
4.30621e-05
1.10155e-06
2.45023e-06
5.29606e-06
1.12684e-05
2.35842e-05
4.66627e-05
1.40131e-06
2.9539e-06
6.10653e-06
1.25012e-05
2.51354e-05
4.71013e-05
1.81877e-06
3.55186e-06
6.86771e-06
1.3237e-05
2.51406e-05
4.45613e-05
2.34618e-06
4.19226e-06
7.47806e-06
1.34069e-05
2.39112e-05
4.04581e-05
3.02665e-06
4.94857e-06
8.13863e-06
1.35495e-05
2.25452e-05
3.61151e-05
3.95494e-06
5.94062e-06
8.99893e-06
1.38009e-05
2.12805e-05
3.17597e-05
2.97448e-06
4.29891e-06
6.90883e-06
1.12932e-05
1.79934e-05
2.7118e-05
2.08043e-06
3.23971e-06
5.56668e-06
9.40144e-06
1.51658e-05
2.35893e-05
1.47668e-06
2.54027e-06
4.56768e-06
7.87532e-06
1.3022e-05
2.14057e-05
1.08805e-06
2.02031e-06
3.73137e-06
6.57326e-06
1.12246e-05
1.95053e-05
8.20376e-07
1.60146e-06
3.03286e-06
5.50714e-06
9.80563e-06
1.80459e-05
6.23745e-07
1.26229e-06
2.45951e-06
4.61809e-06
8.52828e-06
1.63563e-05
4.77752e-07
9.97492e-07
2.00484e-06
3.89597e-06
7.47167e-06
1.5008e-05
3.72831e-07
8.0075e-07
1.65837e-06
3.32654e-06
6.58217e-06
1.36775e-05
3.03958e-07
6.6808e-07
1.41771e-06
2.91534e-06
5.91585e-06
1.27253e-05
2.69371e-07
5.97793e-07
1.2812e-06
2.65985e-06
5.44802e-06
1.18871e-05
2.73404e-07
5.96574e-07
1.25823e-06
2.57146e-06
5.19343e-06
1.11938e-05
3.26239e-07
6.73058e-07
1.34685e-06
2.62364e-06
5.0761e-06
1.04058e-05
4.45263e-07
8.40069e-07
1.5477e-06
2.80103e-06
5.07527e-06
9.6721e-06
6.41383e-07
1.09226e-06
1.83162e-06
3.04364e-06
5.08704e-06
8.81103e-06
5.91445e-07
9.34794e-07
1.50011e-06
2.47528e-06
4.17817e-06
7.28288e-06
3.85642e-07
7.02363e-07
1.23196e-06
2.16197e-06
3.80268e-06
6.79761e-06
2.47241e-07
5.19929e-07
1.00826e-06
1.88033e-06
3.43188e-06
6.30425e-06
1.6612e-07
3.89343e-07
8.06902e-07
1.57006e-06
2.97509e-06
5.68797e-06
1.15681e-07
2.8861e-07
6.2583e-07
1.27288e-06
2.5338e-06
5.09728e-06
8.1439e-08
2.09326e-07
4.71898e-07
1.00833e-06
2.11918e-06
4.49351e-06
5.75322e-08
1.49989e-07
3.51746e-07
7.9385e-07
1.76935e-06
3.96414e-06
4.07611e-08
1.0734e-07
2.62223e-07
6.26066e-07
1.47937e-06
3.50939e-06
3.01433e-08
8.07127e-08
2.05339e-07
5.16255e-07
1.28654e-06
3.23227e-06
2.56526e-08
7.0509e-08
1.8393e-07
4.74899e-07
1.21677e-06
3.16665e-06
2.87059e-08
8.02692e-08
2.07571e-07
5.24681e-07
1.31265e-06
3.35127e-06
4.18956e-08
1.13818e-07
2.84593e-07
6.77869e-07
1.56826e-06
3.701e-06
6.83453e-08
1.69355e-07
4.05457e-07
9.04527e-07
1.91275e-06
4.10528e-06
1.14478e-07
2.51879e-07
5.60962e-07
1.16201e-06
2.27571e-06
4.51994e-06
3.6231e-07
8.89944e-07
2.08819e-06
4.6096e-06
9.54763e-06
1.84317e-05
5.94759e-07
1.30983e-06
2.76495e-06
5.52763e-06
1.04448e-05
1.84885e-05
9.70432e-07
1.89172e-06
3.55609e-06
6.43143e-06
1.1179e-05
1.84325e-05
1.5954e-06
2.73778e-06
4.57166e-06
7.47939e-06
1.19437e-05
1.84906e-05
1.9497e-07
4.17686e-07
8.35196e-07
1.55439e-06
2.81076e-06
5.21216e-06
1.4325e-07
3.3831e-07
7.15874e-07
1.40044e-06
2.68627e-06
5.37613e-06
1.04313e-07
2.62681e-07
5.83045e-07
1.20435e-06
2.48289e-06
5.4269e-06
7.55938e-08
1.99164e-07
4.64611e-07
1.0276e-06
2.30682e-06
5.49509e-06
5.5894e-08
1.53142e-07
3.79515e-07
9.16099e-07
2.25727e-06
5.79155e-06
4.45032e-08
1.27542e-07
3.41666e-07
9.08833e-07
2.44125e-06
6.58256e-06
4.24342e-08
1.27438e-07
3.70082e-07
1.06153e-06
2.99412e-06
8.1625e-06
5.336e-08
1.63532e-07
4.91204e-07
1.42627e-06
3.96114e-06
1.03659e-05
8.52922e-08
2.53408e-07
7.34586e-07
2.02739e-06
5.27114e-06
1.27696e-05
1.5172e-07
4.19408e-07
1.12161e-06
2.83312e-06
6.70863e-06
1.47506e-05
2.72264e-07
6.84792e-07
1.65805e-06
3.78295e-06
8.09983e-06
1.61177e-05
4.75296e-07
1.07246e-06
2.33188e-06
4.80758e-06
9.36085e-06
1.70188e-05
8.15727e-07
1.63365e-06
3.16124e-06
5.8807e-06
1.04878e-05
1.76803e-05
1.3963e-06
2.46438e-06
4.22995e-06
7.0894e-06
1.15722e-05
1.81886e-05
2.62902e-05
7.85056e-05
0.000183065
0.000178231
0.000139701
2.8206e-05
8.82105e-05
0.000193462
0.000178383
0.000136946
3.20408e-05
0.000103193
0.000200978
0.000178148
0.000135472
3.90265e-05
0.000122474
0.000206487
0.000179618
0.000134612
4.94079e-05
0.000141817
0.000208974
0.000179661
0.000131443
6.1693e-05
0.000154743
0.000207777
0.000177914
0.000128106
7.32295e-05
0.000159664
0.000205779
0.000176479
0.000127542
7.96399e-05
0.000156668
0.00020264
0.000178176
0.000131971
0.000106753
8.10661e-05
0.000149419
0.000199392
0.000183216
0.000137984
0.00011123
7.71336e-05
0.000136858
0.000193521
0.00018787
0.000145174
0.000117083
6.89622e-05
0.000121254
0.000187204
0.000194091
0.000155945
0.000124896
0.00012121
5.95346e-05
0.000105016
0.000181318
0.000202267
0.000170324
0.000132769
0.0001373
0.000151581
5.02491e-05
9.05903e-05
0.000179607
0.000212202
0.000185055
0.000140339
0.000140276
0.000248311
4.32728e-05
8.29562e-05
0.000185479
0.000225628
0.000198926
0.000144783
0.000128074
0.000229762
4.01215e-05
8.1213e-05
0.000198584
0.000239079
0.000208009
0.000144942
0.00011901
0.000200434
3.84306e-05
8.34128e-05
0.000216018
0.000246859
0.000206997
0.000142221
0.000114657
0.000184693
3.76848e-05
9.04926e-05
0.000233981
0.000249869
0.000205134
0.00014223
0.000116382
0.000108849
3.69821e-05
0.000102359
0.000250317
0.00025647
0.000206848
0.000142051
0.000114035
0.000156763
3.62981e-05
0.000116047
0.000257461
0.000258292
0.000200929
0.000131844
0.000100253
0.000159835
3.57243e-05
0.000126241
0.000251864
0.000252532
0.000188458
0.000120673
9.06533e-05
0.000132543
3.60053e-05
0.000131135
0.000240226
0.000243711
0.000178715
0.000117411
9.33931e-05
6.47473e-05
3.6352e-05
0.00012881
0.000225417
0.000239117
0.000179018
0.000122476
0.000102426
8.47057e-05
3.64388e-05
0.000120017
0.000206486
0.000235743
0.000180772
0.00012603
3.53103e-05
0.000106022
0.000182322
0.000227472
0.000185726
0.000131147
3.29215e-05
8.96087e-05
0.000155204
0.000215816
0.000194574
0.000140539
2.98466e-05
7.40865e-05
0.000128378
0.000204031
0.000206844
0.000152636
2.69497e-05
6.16653e-05
0.000109172
0.000194777
0.000220135
0.000166747
2.42592e-05
5.27713e-05
9.96932e-05
0.00019894
0.000235422
2.17404e-05
4.66206e-05
9.89085e-05
0.00021682
0.000250805
1.98674e-05
4.23545e-05
0.000105667
0.000237462
0.000252979
1.81731e-05
3.94691e-05
0.000120376
0.000254828
0.000248018
1.65114e-05
3.82471e-05
0.000143232
0.000272647
0.000248683
1.50114e-05
3.92035e-05
0.000168113
0.000280282
0.000241567
1.3644e-05
4.21012e-05
0.00018375
0.000270288
0.000225267
1.26555e-05
4.59431e-05
0.000184112
0.000250123
0.000207966
1.21428e-05
4.94104e-05
0.000172936
0.000231864
0.000197112
1.22357e-05
5.11385e-05
0.000153702
0.000215926
0.000189079
1.28692e-05
5.05273e-05
0.000131432
0.000198798
0.000179111
1.38885e-05
4.84478e-05
0.000111766
0.000182384
0.000172109
1.49625e-05
4.56608e-05
9.72633e-05
0.000169618
0.000168627
1.58005e-05
4.30268e-05
9.02895e-05
0.000166206
0.000166716
1.6204e-05
4.10735e-05
9.27913e-05
0.000175151
0.000167698
1.61162e-05
4.01004e-05
0.000106044
0.000191041
0.000168173
1.55799e-05
4.04154e-05
0.000129949
0.000202626
0.000162224
1.50376e-05
4.25884e-05
0.000163411
0.000208075
0.000157125
1.48517e-05
4.72609e-05
0.000200845
0.000212168
0.000154992
1.55087e-05
5.44392e-05
0.000229253
0.000210814
0.000149656
1.73951e-05
6.3027e-05
0.00023335
0.000203364
0.000141963
2.08515e-05
7.16388e-05
0.000223474
0.000194346
0.00013596
2.4662e-05
7.73157e-05
0.000208833
0.000188785
0.000134157
2.76239e-05
7.86078e-05
0.000194592
0.000185065
0.000133763
2.86578e-05
7.58514e-05
0.000178682
0.000179432
0.000133436
2.81788e-05
7.15298e-05
0.000165382
0.000174658
0.000135308
2.70138e-05
6.87346e-05
0.000157586
0.000171579
0.000137611
2.60001e-05
6.91581e-05
0.000159176
0.000171151
0.000139073
2.57073e-05
7.2471e-05
0.000169415
0.000174389
0.000140172
1.09873e-06
8.75466e-07
6.87683e-07
5.4254e-07
4.38845e-07
3.75844e-07
3.5383e-07
3.75922e-07
4.55558e-07
6.08838e-07
8.53866e-07
1.20068e-06
1.6926e-06
2.38939e-06
5.47794e-07
4.37557e-07
3.41807e-07
2.6525e-07
2.08893e-07
1.72754e-07
1.57141e-07
1.63886e-07
2.01114e-07
2.81969e-07
4.24141e-07
6.43036e-07
9.73324e-07
1.46276e-06
2.6861e-07
2.08623e-07
1.60735e-07
1.22348e-07
9.39345e-08
7.52626e-08
6.64854e-08
6.82868e-08
8.50732e-08
1.25624e-07
2.04159e-07
3.37514e-07
5.54926e-07
9.01947e-07
1.29167e-07
9.52989e-08
7.16606e-08
5.32565e-08
3.98474e-08
3.10083e-08
2.67312e-08
2.7228e-08
3.48223e-08
5.49288e-08
9.78676e-08
1.79026e-07
3.24017e-07
5.77425e-07
6.06493e-08
4.17328e-08
3.02704e-08
2.18483e-08
1.59163e-08
1.20583e-08
1.02044e-08
1.04427e-08
1.40373e-08
2.43147e-08
4.84854e-08
9.92627e-08
1.98909e-07
3.88665e-07
2.853e-08
1.77201e-08
1.21468e-08
8.44509e-09
5.98135e-09
4.42355e-09
3.70382e-09
3.89553e-09
5.74331e-09
1.13641e-08
2.57622e-08
5.8874e-08
1.29454e-07
2.73764e-07
1.48442e-08
7.69353e-09
4.71751e-09
3.09075e-09
2.11659e-09
1.53196e-09
1.28697e-09
1.45227e-09
2.50407e-09
5.8472e-09
1.49949e-08
3.75537e-08
8.90022e-08
2.00487e-07
1.0266e-08
4.00122e-09
1.91763e-09
1.10063e-09
7.10991e-10
5.03755e-10
4.37082e-10
5.72428e-10
1.23344e-09
3.38929e-09
9.57724e-09
2.56858e-08
6.45289e-08
1.52884e-07
1.03087e-08
3.1067e-09
1.01164e-09
4.25592e-10
2.38319e-10
1.65285e-10
1.5899e-10
2.68512e-10
7.26745e-10
2.24465e-09
6.76674e-09
1.90729e-08
5.01429e-08
1.23653e-07
1.31027e-08
3.50361e-09
8.63838e-10
2.47978e-10
1.14929e-10
8.97147e-11
1.08173e-10
2.09409e-10
5.82125e-10
1.81779e-09
5.58102e-09
1.61257e-08
4.35559e-08
1.10104e-07
1.80829e-08
4.65996e-09
1.08029e-09
3.15716e-10
1.97486e-10
2.14773e-10
2.78154e-10
4.27167e-10
8.56022e-10
2.17911e-09
6.11461e-09
1.70786e-08
4.557e-08
1.14499e-07
2.57813e-08
6.80456e-09
1.77559e-09
7.50025e-10
6.7112e-10
8.18196e-10
1.06042e-09
1.45672e-09
2.26926e-09
4.32411e-09
9.83708e-09
2.43024e-08
6.03505e-08
1.44096e-07
3.80007e-08
1.12993e-08
3.81857e-09
2.25141e-09
2.29087e-09
2.85409e-09
3.72116e-09
5.0058e-09
7.14006e-09
1.14483e-08
2.12653e-08
4.44346e-08
9.80642e-08
2.14289e-07
6.01889e-08
2.25293e-08
9.93805e-09
6.87927e-09
7.09895e-09
8.78751e-09
1.15058e-08
1.54806e-08
2.14692e-08
3.17003e-08
5.11803e-08
9.12143e-08
1.7544e-07
3.44558e-07
9.99127e-07
7.83288e-07
6.12502e-07
4.81299e-07
3.88243e-07
3.28176e-07
3.02452e-07
3.0761e-07
3.56942e-07
4.68137e-07
6.66896e-07
9.69192e-07
1.43112e-06
2.11555e-06
4.65588e-07
3.65093e-07
2.83641e-07
2.19745e-07
1.73504e-07
1.42926e-07
1.28678e-07
1.29383e-07
1.52295e-07
2.0856e-07
3.17334e-07
4.96365e-07
7.85887e-07
1.23504e-06
2.12744e-07
1.62335e-07
1.24163e-07
9.43211e-08
7.2819e-08
5.85133e-08
5.16296e-08
5.15117e-08
6.17892e-08
8.90052e-08
1.46144e-07
2.4943e-07
4.30002e-07
7.36795e-07
9.48128e-08
6.90602e-08
5.14712e-08
3.81081e-08
2.87207e-08
2.25318e-08
1.95474e-08
1.94672e-08
2.40743e-08
3.71473e-08
6.7162e-08
1.27441e-07
2.43567e-07
4.63956e-07
4.07862e-08
2.80272e-08
2.01757e-08
1.44866e-08
1.06452e-08
8.16285e-09
6.98947e-09
7.02268e-09
9.17311e-09
1.56966e-08
3.21712e-08
6.90215e-08
1.47448e-07
3.11853e-07
1.72772e-08
1.09031e-08
7.47851e-09
5.18103e-09
3.70897e-09
2.78395e-09
2.36589e-09
2.4479e-09
3.5404e-09
7.07405e-09
1.68201e-08
4.07675e-08
9.6331e-08
2.22109e-07
8.02141e-09
4.24463e-09
2.65068e-09
1.74739e-09
1.2155e-09
8.94897e-10
7.63789e-10
8.50562e-10
1.47306e-09
3.59253e-09
9.84988e-09
2.6408e-08
6.76517e-08
1.66611e-07
5.21865e-09
1.94842e-09
9.53114e-10
5.64291e-10
3.76092e-10
2.72433e-10
2.40424e-10
3.1535e-10
7.12035e-10
2.10686e-09
6.43832e-09
1.86138e-08
5.07843e-08
1.31525e-07
5.41253e-09
1.41449e-09
4.28822e-10
1.88789e-10
1.14464e-10
8.33018e-11
8.25125e-11
1.44427e-10
4.24765e-10
1.43453e-09
4.71286e-09
1.44276e-08
4.13423e-08
1.11143e-07
7.36589e-09
1.64076e-09
3.37753e-10
9.6068e-11
5.5516e-11
5.12863e-11
6.44237e-11
1.2341e-10
3.56961e-10
1.2087e-09
4.06211e-09
1.28285e-08
3.77649e-08
1.03358e-07
1.09874e-08
2.35858e-09
4.57831e-10
1.47653e-10
1.28348e-10
1.58377e-10
2.06253e-10
3.03293e-10
5.86636e-10
1.54527e-09
4.69027e-09
1.42953e-08
4.1335e-08
1.11316e-07
1.69871e-08
3.814e-09
9.02479e-10
4.5848e-10
4.99139e-10
6.48665e-10
8.47483e-10
1.1442e-09
1.72988e-09
3.29854e-09
7.88328e-09
2.0991e-08
5.60903e-08
1.42388e-07
2.7137e-08
7.18192e-09
2.37531e-09
1.60671e-09
1.80528e-09
2.34327e-09
3.08598e-09
4.12885e-09
5.79466e-09
9.24034e-09
1.7583e-08
3.88223e-08
9.1406e-08
2.11312e-07
4.60649e-08
1.64275e-08
7.27994e-09
5.43147e-09
5.86854e-09
7.452e-09
9.83761e-09
1.32245e-08
1.81945e-08
2.67617e-08
4.35883e-08
8.01713e-08
1.61906e-07
3.34484e-07
9.35865e-07
7.1801e-07
5.53709e-07
4.2984e-07
3.45049e-07
2.87968e-07
2.61995e-07
2.58875e-07
2.91757e-07
3.75109e-07
5.3872e-07
8.0428e-07
1.24288e-06
1.92057e-06
4.09462e-07
3.10514e-07
2.37999e-07
1.82503e-07
1.4387e-07
1.17722e-07
1.05559e-07
1.0361e-07
1.18519e-07
1.58288e-07
2.41776e-07
3.87257e-07
6.41059e-07
1.05562e-06
1.75868e-07
1.2787e-07
9.62199e-08
7.23965e-08
5.59365e-08
4.4807e-08
3.96423e-08
3.87946e-08
4.53193e-08
6.35017e-08
1.04576e-07
1.82997e-07
3.31896e-07
6.06644e-07
7.32281e-08
5.01505e-08
3.66768e-08
2.69066e-08
2.0331e-08
1.59164e-08
1.38984e-08
1.36166e-08
1.64326e-08
2.46831e-08
4.50004e-08
8.84106e-08
1.8047e-07
3.7567e-07
2.92622e-08
1.86716e-08
1.31737e-08
9.37654e-09
6.91618e-09
5.28437e-09
4.556e-09
4.50096e-09
5.74726e-09
9.66315e-09
2.03329e-08
4.60976e-08
1.07284e-07
2.52898e-07
1.15576e-08
6.65576e-09
4.46413e-09
3.06531e-09
2.20349e-09
1.64186e-09
1.40047e-09
1.41928e-09
2.01989e-09
4.07684e-09
1.02679e-08
2.69442e-08
7.05256e-08
1.83018e-07
5.18204e-09
2.41e-09
1.44673e-09
9.42375e-10
6.57872e-10
4.77986e-10
4.06712e-10
4.42612e-10
7.75615e-10
2.00747e-09
6.01829e-09
1.7811e-08
5.10852e-08
1.41839e-07
3.56502e-09
1.11098e-09
4.83611e-10
2.76722e-10
1.84624e-10
1.31019e-10
1.14291e-10
1.48908e-10
3.61434e-10
1.18888e-09
4.05599e-09
1.31161e-08
4.02464e-08
1.16925e-07
4.04229e-09
9.02958e-10
2.19841e-10
8.54178e-11
5.14777e-11
3.70433e-11
3.6627e-11
6.67984e-11
2.21199e-10
8.49082e-10
3.15608e-09
1.08935e-08
3.50042e-08
1.04322e-07
5.9045e-09
1.1794e-09
1.98932e-10
4.75745e-11
3.00472e-11
3.11506e-11
3.96513e-11
7.15106e-11
2.09332e-10
7.8308e-10
2.96622e-09
1.05106e-08
3.42388e-08
1.01992e-07
9.41283e-09
1.87462e-09
3.16578e-10
9.81624e-11
9.64081e-11
1.25955e-10
1.64382e-10
2.31349e-10
4.23518e-10
1.14544e-09
3.79552e-09
1.27434e-08
3.9997e-08
1.14939e-07
1.55755e-08
3.31273e-09
7.12501e-10
3.58308e-10
4.08187e-10
5.46503e-10
7.205e-10
9.64333e-10
1.42276e-09
2.71504e-09
6.8287e-09
1.96327e-08
5.62863e-08
1.50913e-07
2.61415e-08
6.60263e-09
2.06636e-09
1.3815e-09
1.55645e-09
2.04785e-09
2.71619e-09
3.63668e-09
5.06292e-09
8.07231e-09
1.5767e-08
3.68504e-08
9.24745e-08
2.25266e-07
4.47199e-08
1.58925e-08
6.96928e-09
5.11319e-09
5.37408e-09
6.79629e-09
8.96465e-09
1.20616e-08
1.65703e-08
2.44412e-08
4.02318e-08
7.6351e-08
1.6167e-07
3.51141e-07
8.03456e-07
6.00897e-07
4.53502e-07
3.46104e-07
2.79044e-07
2.33391e-07
2.14025e-07
2.08945e-07
2.31872e-07
2.91079e-07
4.18485e-07
6.3857e-07
1.03936e-06
1.68008e-06
3.29196e-07
2.37798e-07
1.77951e-07
1.34444e-07
1.06891e-07
8.81829e-08
8.01181e-08
7.82828e-08
8.84934e-08
1.15434e-07
1.76446e-07
2.88465e-07
5.03461e-07
8.79566e-07
1.32836e-07
8.90736e-08
6.5134e-08
4.83669e-08
3.78169e-08
3.06847e-08
2.76423e-08
2.7126e-08
3.14132e-08
4.30574e-08
7.12769e-08
1.28241e-07
2.48868e-07
4.9889e-07
5.19048e-08
3.15382e-08
2.22483e-08
1.61328e-08
1.23773e-08
9.85425e-09
8.79885e-09
8.69129e-09
1.04037e-08
1.53388e-08
2.84873e-08
5.883e-08
1.32038e-07
3.10927e-07
1.95764e-08
1.05392e-08
7.08059e-09
4.9843e-09
3.74433e-09
2.91901e-09
2.58322e-09
2.58054e-09
3.26666e-09
5.46724e-09
1.21e-08
2.99332e-08
7.88369e-08
2.13712e-07
7.60771e-09
3.41434e-09
2.1071e-09
1.4251e-09
1.04563e-09
7.97125e-10
7.00154e-10
7.17676e-10
1.01907e-09
2.13641e-09
5.95443e-09
1.77013e-08
5.33583e-08
1.59268e-07
3.79499e-09
1.23766e-09
6.08502e-10
3.7824e-10
2.68905e-10
2.00372e-10
1.76043e-10
1.94514e-10
3.55178e-10
1.03329e-09
3.58545e-09
1.22901e-08
4.07352e-08
1.28826e-07
3.28797e-09
7.55394e-10
2.11198e-10
9.723e-11
6.39723e-11
4.66367e-11
4.22616e-11
5.80548e-11
1.62786e-10
6.41386e-10
2.57972e-09
9.7041e-09
3.40936e-08
1.10929e-07
4.26528e-09
8.6033e-10
1.43202e-10
3.18481e-11
1.62607e-11
1.2445e-11
1.33074e-11
2.72547e-11
1.09246e-10
5.0691e-10
2.21777e-09
8.82025e-09
3.18552e-08
1.04059e-07
6.59609e-09
1.32376e-09
1.93554e-10
3.07213e-11
1.74636e-11
2.04209e-11
2.59342e-11
4.2638e-11
1.24994e-10
5.30583e-10
2.30791e-09
9.21419e-09
3.29513e-08
1.05288e-07
1.08849e-08
2.26351e-09
3.56178e-10
8.46232e-11
7.7487e-11
1.02438e-10
1.31303e-10
1.7646e-10
3.09605e-10
8.78588e-10
3.22781e-09
1.19472e-08
4.03995e-08
1.22519e-07
1.83557e-08
4.07363e-09
8.02454e-10
3.23977e-10
3.47524e-10
4.64706e-10
6.05763e-10
7.95613e-10
1.14912e-09
2.22341e-09
5.99159e-09
1.87723e-08
5.77907e-08
1.62926e-07
3.06824e-08
7.87521e-09
2.27072e-09
1.32008e-09
1.39856e-09
1.81493e-09
2.37732e-09
3.15057e-09
4.33876e-09
6.94311e-09
1.40711e-08
3.52341e-08
9.48528e-08
2.43492e-07
5.0108e-08
1.81591e-08
7.85952e-09
5.31185e-09
5.1842e-09
6.35637e-09
8.21226e-09
1.09472e-08
1.49492e-08
2.21364e-08
3.69733e-08
7.2884e-08
1.6273e-07
3.73308e-07
4.93202e-07
3.55172e-07
2.60455e-07
1.95601e-07
1.60079e-07
1.35779e-07
1.27852e-07
1.26312e-07
1.41392e-07
1.74874e-07
2.55781e-07
4.05043e-07
7.07413e-07
1.21082e-06
1.8639e-07
1.25085e-07
8.96478e-08
6.6173e-08
5.35451e-08
4.51899e-08
4.26501e-08
4.26986e-08
4.9096e-08
6.3726e-08
9.96588e-08
1.70977e-07
3.25529e-07
6.39068e-07
6.98893e-08
4.13785e-08
2.85607e-08
2.05902e-08
1.63981e-08
1.36996e-08
1.29367e-08
1.31447e-08
1.56344e-08
2.164e-08
3.72554e-08
7.24267e-08
1.59966e-07
3.82255e-07
2.58579e-08
1.2928e-08
8.43108e-09
5.89598e-09
4.60178e-09
3.78546e-09
3.56656e-09
3.67981e-09
4.58068e-09
7.0055e-09
1.40728e-08
3.30504e-08
8.80687e-08
2.50484e-07
9.66637e-09
3.87046e-09
2.30801e-09
1.55189e-09
1.18249e-09
9.52562e-10
8.92968e-10
9.40406e-10
1.27045e-09
2.34759e-09
6.02824e-09
1.78455e-08
5.66217e-08
1.81757e-07
4.2881e-09
1.24349e-09
6.01077e-10
3.75565e-10
2.77449e-10
2.17952e-10
2.03267e-10
2.23717e-10
3.63874e-10
9.42688e-10
3.23265e-09
1.16407e-08
4.15508e-08
1.42197e-07
2.87588e-09
6.08978e-10
1.7591e-10
8.55094e-11
5.92079e-11
4.51919e-11
4.2429e-11
5.37281e-11
1.32179e-10
5.17761e-10
2.21286e-09
9.03123e-09
3.45165e-08
1.21569e-07
3.22007e-09
6.19378e-10
1.01377e-10
2.26794e-11
1.18047e-11
8.67317e-12
8.71446e-12
1.66116e-11
7.15603e-11
3.70792e-10
1.79153e-09
7.83122e-09
3.08904e-08
1.09099e-07
4.56854e-09
9.03916e-10
1.26772e-10
1.45728e-11
3.9208e-12
3.32477e-12
4.20181e-12
1.10321e-11
5.84832e-11
3.3684e-10
1.7295e-09
7.79686e-09
3.08249e-08
1.06912e-07
7.32055e-09
1.51619e-09
2.17877e-10
2.64235e-11
1.13995e-11
1.39664e-11
1.75149e-11
2.66079e-11
7.91104e-11
3.87768e-10
1.93439e-09
8.5653e-09
3.29325e-08
1.10103e-07
1.23394e-08
2.69086e-09
4.24726e-10
7.72004e-11
5.84335e-11
7.76481e-11
9.86808e-11
1.28782e-10
2.22146e-10
6.85934e-10
2.84731e-09
1.15649e-08
4.16448e-08
1.31073e-07
2.12486e-08
4.94565e-09
9.43309e-10
2.90415e-10
2.74498e-10
3.65855e-10
4.74393e-10
6.15162e-10
8.76555e-10
1.75264e-09
5.18952e-09
1.79186e-08
5.92462e-08
1.74132e-07
3.59657e-08
9.4387e-09
2.54869e-09
1.22949e-09
1.18242e-09
1.50223e-09
1.94553e-09
2.56075e-09
3.50266e-09
5.67373e-09
1.21255e-08
3.29916e-08
9.6009e-08
2.59176e-07
5.74831e-08
2.07569e-08
8.8875e-09
5.41333e-09
4.80419e-09
5.63275e-09
7.08328e-09
9.35942e-09
1.27471e-08
1.90796e-08
3.26647e-08
6.75111e-08
1.5992e-07
3.88977e-07
1.74223e-07
1.17399e-07
8.41664e-08
6.31172e-08
5.32625e-08
4.66677e-08
4.58652e-08
4.68067e-08
5.37621e-08
6.6671e-08
9.92906e-08
1.64745e-07
3.15131e-07
5.99519e-07
5.96298e-08
3.60273e-08
2.4913e-08
1.81718e-08
1.50327e-08
1.30597e-08
1.28858e-08
1.34096e-08
1.59118e-08
2.09932e-08
3.41218e-08
6.38385e-08
1.38924e-07
3.2088e-07
2.08632e-08
1.0416e-08
6.78988e-09
4.78993e-09
3.86054e-09
3.30037e-09
3.25329e-09
3.44827e-09
4.25808e-09
6.13749e-09
1.15038e-08
2.61214e-08
6.97187e-08
2.01243e-07
7.80461e-09
2.92135e-09
1.70415e-09
1.15191e-09
9.0047e-10
7.52762e-10
7.37339e-10
7.95699e-10
1.04335e-09
1.76078e-09
4.21615e-09
1.24494e-08
4.09631e-08
1.38114e-07
3.43671e-09
8.8085e-10
4.02254e-10
2.51695e-10
1.89771e-10
1.54409e-10
1.49708e-10
1.66388e-10
2.50875e-10
5.88264e-10
1.99707e-09
7.56914e-09
2.8968e-08
1.06962e-07
2.21761e-09
4.07749e-10
1.07296e-10
5.10667e-11
3.58535e-11
2.82965e-11
2.72591e-11
3.33687e-11
7.33158e-11
2.8147e-10
1.27285e-09
5.60483e-09
2.32161e-08
8.90522e-08
2.11075e-09
3.67791e-10
5.75192e-11
1.21172e-11
6.13427e-12
4.60112e-12
4.58768e-12
8.1804e-12
3.52654e-11
1.95565e-10
1.02445e-09
4.86971e-09
2.09501e-08
8.11081e-08
2.75152e-09
5.10308e-10
7.10138e-11
7.46922e-12
1.27685e-12
7.98253e-13
1.00075e-12
3.82666e-12
2.61793e-11
1.68722e-10
9.46598e-10
4.6588e-09
2.01845e-08
7.69682e-08
4.01157e-09
7.92918e-10
1.12672e-10
1.09017e-11
1.58234e-12
1.38838e-12
1.7981e-12
4.57259e-12
2.72829e-11
1.79128e-10
1.02839e-09
5.07879e-09
2.16311e-08
7.99406e-08
6.4078e-09
1.32704e-09
1.98282e-10
2.25681e-11
7.60253e-12
9.19222e-12
1.13389e-11
1.59806e-11
4.54453e-11
2.37084e-10
1.27728e-09
6.04703e-09
2.46197e-08
8.66955e-08
1.06822e-08
2.3093e-09
3.75065e-10
6.18401e-11
4.03562e-11
5.34215e-11
6.74136e-11
8.60355e-11
1.45351e-10
4.62725e-10
2.03391e-09
8.7283e-09
3.30595e-08
1.09278e-07
1.87852e-08
4.28656e-09
8.3086e-10
2.30486e-10
1.9815e-10
2.61899e-10
3.37339e-10
4.33245e-10
6.11678e-10
1.24159e-09
3.85281e-09
1.39795e-08
4.83557e-08
1.48845e-07
3.33251e-08
8.51236e-09
2.31527e-09
1.03924e-09
9.28125e-10
1.14941e-09
1.46341e-09
1.91611e-09
2.61582e-09
4.28775e-09
9.50373e-09
2.70602e-08
8.17924e-08
2.31351e-07
5.63942e-08
1.97944e-08
8.6398e-09
5.07599e-09
4.21639e-09
4.73088e-09
5.73426e-09
7.50718e-09
1.02059e-08
1.54076e-08
2.68414e-08
5.69106e-08
1.38827e-07
3.54507e-07
2.31913e-08
1.46662e-08
1.0317e-08
7.60478e-09
6.42223e-09
5.7084e-09
5.79675e-09
6.21836e-09
7.54881e-09
9.8993e-09
1.56062e-08
2.79792e-08
5.88284e-08
1.31196e-07
7.10474e-09
3.89605e-09
2.6307e-09
1.88222e-09
1.53405e-09
1.33074e-09
1.33665e-09
1.45356e-09
1.82446e-09
2.58718e-09
4.62715e-09
9.95407e-09
2.54577e-08
7.10905e-08
2.37386e-09
9.8921e-10
6.14857e-10
4.25991e-10
3.35054e-10
2.81758e-10
2.77789e-10
3.04566e-10
3.99581e-10
6.47742e-10
1.46397e-09
4.19384e-09
1.37884e-08
4.74729e-08
1.00419e-09
2.68871e-10
1.32952e-10
8.6769e-11
6.59585e-11
5.37017e-11
5.17578e-11
5.73775e-11
8.3369e-11
1.82123e-10
6.01256e-10
2.30968e-09
9.09704e-09
3.51041e-08
6.33266e-10
1.13101e-10
3.13863e-11
1.60238e-11
1.14797e-11
9.06327e-12
8.582e-12
1.01638e-11
2.08288e-11
7.85567e-11
3.66033e-10
1.67235e-09
7.25918e-09
2.98636e-08
6.29958e-10
1.02394e-10
1.55954e-11
3.37541e-12
1.76315e-12
1.32815e-12
1.28676e-12
2.16096e-12
9.19877e-12
5.28714e-11
2.86909e-10
1.41874e-09
6.48104e-09
2.74336e-08
7.87554e-10
1.35795e-10
1.80953e-11
1.8411e-12
2.98234e-13
1.76215e-13
2.20017e-13
9.28956e-13
6.77091e-12
4.51665e-11
2.62646e-10
1.36502e-09
6.42428e-09
2.73759e-08
1.14636e-09
2.08066e-10
2.77171e-11
2.44342e-12
2.0646e-13
1.14251e-13
1.74377e-13
8.06327e-13
6.23683e-12
4.4048e-11
2.68766e-10
1.4385e-09
6.80427e-09
2.84938e-08
1.7377e-09
3.28218e-10
4.46534e-11
4.14425e-12
7.54911e-13
7.94525e-13
9.73184e-13
1.69694e-12
7.83779e-12
5.219e-11
3.20844e-10
1.7142e-09
7.94892e-09
3.2176e-08
2.80648e-09
5.44714e-10
7.75739e-11
9.19399e-12
4.2398e-12
5.45008e-12
6.65935e-12
8.42115e-12
1.75657e-11
7.96244e-11
4.40001e-10
2.22414e-09
9.79717e-09
3.76408e-08
4.67234e-09
9.40199e-10
1.49181e-10
2.89528e-11
2.34533e-11
3.16929e-11
3.97805e-11
4.88562e-11
7.12079e-11
1.84193e-10
7.7046e-10
3.44808e-09
1.4046e-08
5.06215e-08
8.4664e-09
1.83732e-09
3.77459e-10
1.29075e-10
1.21337e-10
1.60133e-10
2.05071e-10
2.5701e-10
3.4099e-10
6.00141e-10
1.66608e-09
5.99579e-09
2.17455e-08
7.23684e-08
1.64668e-08
4.34322e-09
1.41384e-09
7.37546e-10
6.48788e-10
7.75473e-10
9.6258e-10
1.22887e-09
1.62193e-09
2.46657e-09
4.91727e-09
1.32285e-08
4.04262e-08
1.21868e-07
3.44514e-08
1.39931e-08
7.12872e-09
4.56887e-09
3.70845e-09
3.94974e-09
4.43487e-09
5.55491e-09
7.18444e-09
1.04168e-08
1.68545e-08
3.30705e-08
7.68548e-08
2.01455e-07
1.60855e-09
1.00497e-09
7.1285e-10
5.25987e-10
4.27723e-10
3.70634e-10
3.67446e-10
3.98947e-10
4.96265e-10
6.89727e-10
1.17227e-09
2.35277e-09
5.5744e-09
1.41319e-08
4.51523e-10
2.38399e-10
1.63637e-10
1.18828e-10
9.38279e-11
7.85985e-11
7.56776e-11
8.12143e-11
1.02579e-10
1.5612e-10
3.18923e-10
8.27725e-10
2.51426e-09
8.05215e-09
1.55843e-10
5.55248e-11
3.33971e-11
2.35857e-11
1.82458e-11
1.48978e-11
1.39802e-11
1.48429e-11
1.97283e-11
3.76643e-11
1.11317e-10
4.06055e-10
1.54829e-09
5.78768e-09
9.35307e-11
1.93398e-11
6.86069e-12
4.08825e-12
3.05558e-12
2.45371e-12
2.26858e-12
2.47346e-12
4.18482e-12
1.35789e-11
6.08312e-11
2.72837e-10
1.14836e-09
4.56757e-09
9.67523e-11
1.67576e-11
2.83019e-12
7.50946e-13
4.37819e-13
3.41302e-13
3.21087e-13
4.49376e-13
1.56737e-12
8.67646e-12
4.65612e-11
2.23528e-10
9.83427e-10
4.08913e-09
1.30886e-10
2.3046e-11
3.14997e-12
3.50299e-13
6.6058e-14
4.01652e-14
4.54376e-14
1.54767e-13
1.07659e-12
7.10179e-12
4.01221e-11
2.00209e-10
9.17795e-10
3.96143e-09
1.8992e-10
3.42218e-11
4.50162e-12
4.05875e-13
3.0059e-14
9.19331e-15
1.6869e-14
1.12588e-13
9.2445e-13
6.39679e-12
3.77162e-11
1.97453e-10
9.45298e-10
4.191e-09
2.91083e-10
5.29542e-11
6.84843e-12
5.94712e-13
6.14603e-14
4.47965e-14
5.69068e-14
1.43879e-13
9.02299e-13
6.30185e-12
3.90333e-11
2.14092e-10
1.05415e-09
4.69217e-09
4.48068e-10
8.21877e-11
1.06393e-11
1.01641e-12
2.89284e-13
3.40696e-13
4.03923e-13
5.24597e-13
1.39147e-12
7.79824e-12
4.79163e-11
2.65981e-10
1.30671e-09
5.70347e-09
7.06785e-10
1.31153e-10
1.77721e-11
2.46768e-12
1.69206e-12
2.24446e-12
2.70125e-12