/*--------------------------------*- C++ -*----------------------------------*\
| =========                 |                                                 |
| \\      /  F ield         | OpenFOAM: The Open Source CFD Toolbox           |
|  \\    /   O peration     | Version:  v2106                                 |
|   \\  /    A nd           | Website:  www.openfoam.com                      |
|    \\/     M anipulation  |                                                 |
\*---------------------------------------------------------------------------*/
FoamFile
{
    version     2.0;
    format      ascii;
    arch        "LSB;label=32;scalar=64";
    class       volScalarField;
    location    "0.000212";
    object      p;
}
// * * * * * * * * * * * * * * * * * * * * * * * * * * * * * * * * * * * * * //

dimensions      [1 -1 -2 0 0 0 0];

internalField   nonuniform List<scalar> 
18109
(
198750
198428
198156
197855
197562
197241
196931
199277
198918
198623
198304
197995
197664
197343
199751
199388
199088
198759
198442
198114
197797
200278
199920
199602
199258
198929
198599
198289
200822
200479
200152
199807
199468
199137
198829
201402
201070
200726
200377
200033
199708
199409
201984
201649
201296
200953
200619
200306
200017
202547
202210
201857
201527
201206
200909
200633
199152
198840
198569
198269
197971
197631
197286
196909
196556
196215
195922
195621
195376
195157
199682
199333
199030
198704
198384
198034
197681
197325
196988
196678
196415
196170
195935
195743
200132
199782
199472
199137
198809
198464
198120
197778
197461
197175
196928
196710
196498
196331
200612
200264
199940
199598
199268
198930
198602
198279
197980
197711
197476
197280
197094
196954
201093
200760
200435
200101
199775
199450
199137
198832
198547
198288
198060
197872
197702
197575
201599
201274
200947
200627
200314
200009
199716
199431
199158
198903
198675
198484
198328
198203
202114
201789
201469
201166
200875
200593
200321
200051
199788
199532
199301
199102
198943
198811
202631
202308
201995
201711
201439
201181
200928
200672
200414
200159
199924
199715
199545
199402
203134
202821
202517
202253
202001
201762
201522
201274
201019
200762
200522
200306
200120
199968
203640
203346
203044
202795
202554
202327
202093
201849
201595
201339
201099
200882
200689
200538
204177
203908
203603
203359
203115
202887
202649
202400
202142
201887
201650
201439
201250
201079
204769
204510
204183
203924
203664
203426
203178
202928
202674
202431
202203
202003
201827
201647
205436
205172
204823
204534
204240
203974
203708
203451
203200
202964
202742
202547
202379
202203
206115
205790
205413
205084
204773
204496
204231
203984
203748
203536
203332
203162
203005
202866
198659
198582
198515
198464
198340
198269
199018
198909
198825
198778
198632
198492
198573
198395
198154
198016
197845
197743
198282
198065
197780
197569
197316
197144
197949
197687
197366
197119
196808
196535
197631
197335
196974
196671
196287
195899
197251
196906
196499
196135
195662
195201
196868
196461
196013
195594
195105
194634
196450
195992
195492
195018
194483
194012
196084
195607
195068
194552
193961
193493
195720
195166
194585
194042
193487
193083
195455
194870
194339
193769
193194
192665
195210
194574
194032
193388
192794
192279
195030
194402
193915
193337
192767
192162
194564
193927
193438
192888
192445
192049
194890
194425
194039
193489
193039
192536
195477
194990
194598
194080
193610
193145
196074
195632
195244
194778
194381
193991
196724
196340
196029
195681
195416
195116
197381
197069
196838
196577
196388
196114
198043
197809
197639
197437
197264
197014
198683
198532
198416
198282
198138
197925
199301
199236
199175
199111
199014
198862
199896
199911
199914
199923
199901
199882
200493
200573
200637
200733
200803
200891
201073
201228
201348
201519
201687
201871
201699
201904
202083
202314
202544
202776
202278
202531
202769
203038
203319
203599
202956
203253
203517
203803
204093
204379
203390
203676
204055
204404
204727
205047
203497
203898
204350
204769
205180
205589
203724
204223
204776
205290
205765
206172
203919
204504
205139
205733
206263
206685
204138
204777
205464
206104
206668
207086
204347
205008
205700
206342
206917
207334
204579
205233
205900
206516
207090
207532
204821
205466
206098
206683
207247
207730
205089
205733
206338
206909
207470
207999
205381
206041
206643
207224
207795
208373
205709
206391
207010
207624
208213
208831
206053
206742
207370
208016
208621
209251
206380
207044
207645
208283
208880
209496
206721
207331
207863
208449
208973
209496
200568
200700
200991
201310
201757
202180
200043
200095
200343
200558
200884
201153
199546
199472
199666
199748
199935
200081
198977
198791
198838
198787
198841
198905
206653
207268
207766
208298
208778
209320
205935
206604
207159
207752
208278
208780
205304
205984
206580
207202
207775
208311
204685
205353
205977
206611
207205
207744
204127
204757
205377
205986
206548
207054
203585
204159
204733
205276
205773
206213
203046
203517
204004
204452
204848
205180
202484
202840
203201
203542
203853
204160
201914
202169
202434
202710
203008
203375
201381
201556
201777
202007
202323
202721
200896
200985
201192
201397
201739
202125
200412
200426
200624
200802
201116
201401
199932
199850
200042
200160
200388
200566
199367
199184
199248
199237
199318
199395
198624
199509
202651
208112
217160
197786
198691
202047
207846
217784
197167
197970
201123
207285
220673
196432
196748
199707
205777
217596
195805
195960
199155
204588
213667
195179
195514
198877
204306
212946
194735
195248
198694
205054
216132
194231
194890
198208
204121
214408
224704
193556
194059
197022
201222
207996
214400
193091
193513
196412
200509
207669
215157
192398
192665
195833
200539
209602
220635
230936
191982
192340
195769
201280
212400
226658
244479
262467
191619
191899
195046
200759
213719
234423
267421
302307
191416
191714
194512
199680
210396
229073
254113
275737
191777
191816
193827
197412
203927
215474
230647
240206
192526
192582
194055
198084
205871
219501
227133
236365
193571
193774
195196
199803
211191
232871
257932
267203
194570
194535
195831
200163
210907
229078
251011
283991
195582
195405
196695
200613
208406
218183
229943
236965
196554
196416
198065
201786
208069
215878
219381
223476
197691
197858
200085
204812
214937
227357
237956
239891
198840
199335
201609
206227
215046
227255
243634
264128
199963
200747
202863
206893
212825
220842
201108
202098
204079
207593
212642
219800
202238
203421
205600
209393
215383
223850
203327
204672
207052
211429
218790
231228
204282
205679
207950
212155
220584
237118
205021
206362
208569
212231
219589
205708
206837
208797
211479
217088
206267
207132
208775
211819
218195
206814
207497
208970
212163
220581
207238
207664
208956
211684
220078
207576
207804
208949
211276
217490
207820
208078
209242
211510
215859
208092
208551
209896
212979
220077
208411
209228
210717
213861
219857
208807
209969
211595
214460
218081
209316
210836
212744
215859
219914
209889
211653
213848
217216
222809
210387
212316
214749
218299
225238
210687
212673
215198
218853
226602
210695
212632
214986
218689
226347
210378
212274
214696
218750
225431
209834
211699
214216
218872
226607
209346
211017
213613
218544
228823
208618
209919
212453
217587
227921
207801
208842
211182
215995
224954
206678
207554
209870
214306
221574
205619
206636
208911
213690
222310
204601
205857
208210
212986
220874
203995
205261
207389
211173
216836
203392
204628
207083
211189
217854
202798
203919
206564
210913
219757
201955
203045
206094
211050
221848
200980
201913
204846
210297
222882
199727
200589
203367
208903
220885
199711
199423
199161
198860
198565
198236
197892
197508
197116
196720
196367
196006
195708
195451
200206
199880
199581
199260
198946
198613
198265
197898
197523
197156
196819
196510
196225
196007
200615
200278
199973
199648
199330
199002
198667
198319
197968
197631
197315
197035
196766
196552
201042
200700
200384
200061
199749
199430
199111
198784
198458
198141
197839
197578
197326
197124
201461
201129
200814
200505
200205
199903
199603
199298
198992
198691
198399
198143
197899
197697
201896
201576
201273
200985
200702
200421
200141
199855
199562
199268
198977
198715
198473
198268
202351
202043
201757
201489
201226
200966
200703
200430
200145
199849
199554
199278
199029
198815
202847
202551
202269
202015
201764
201519
201267
201000
200717
200414
200113
199823
199566
199338
203362
203075
202789
202540
202295
202058
201810
201544
201258
200948
200642
200340
200075
199831
203895
203615
203314
203063
202810
202571
202319
202050
201761
201447
201141
200836
200567
200313
204433
204160
203841
203581
203313
203060
202798
202519
202227
201917
201616
201317
201050
200783
204987
204700
204344
204063
203774
203507
203235
202956
202671
202374
202088
201801
201551
201284
205550
205249
204874
204565
204246
203952
203666
203381
203101
202820
202550
202274
202039
201778
206074
205701
205305
204974
204654
204362
204083
203814
203554
203302
203056
202817
202603
202380
200221
199994
199767
199496
199238
198961
198676
198354
197997
197605
197206
196768
196370
196002
200669
200382
200127
199842
199574
199301
199021
198707
198359
197979
197583
197193
196796
196490
200999
200705
200447
200167
199899
199635
199364
199068
198740
198389
198013
197652
197266
196968
201413
201113
200836
200548
200275
200008
199740
199454
199141
198806
198446
198103
197736
197449
201816
201512
201223
200942
200669
200407
200144
199871
199574
199255
198908
198573
198222
197930
202262
201958
201668
201390
201116
200855
200592
200323
200031
199716
199376
199040
198700
198402
202728
202427
202137
201860
201584
201322
201059
200790
200499
200181
199842
199498
199166
198859
203230
202932
202632
202353
202071
201804
201535
201259
200962
200636
200296
199943
199612
199296
203754
203460
203143
202851
202557
202278
201997
201711
201408
201071
200729
200368
200037
199709
204265
203974
203640
203334
203020
202727
202433
202136
201830
201488
201149
200780
200446
200102
204738
204450
204102
203789
203458
203145
202837
202530
202222
201880
201543
201174
200847
200488
205144
204840
204472
204157
203824
203507
203197
202893
202590
202258
201935
201571
201263
200883
205512
205207
204832
204505
204167
203843
203534
203229
202933
202615
202305
201954
201664
201284
205796
205424
205060
204742
204430
204124
203834
203552
203277
202987
202696
202387
202116
201778
201412
201239
201110
200931
200748
200533
200292
200019
199685
199305
198874
198390
197897
197394
201888
201670
201513
201303
201110
200893
200646
200365
200023
199637
199196
198733
198227
197806
202237
202021
201849
201643
201445
201228
200983
200707
200373
199998
199566
199121
198625
198205
202643
202420
202226
202012
201803
201575
201322
201039
200701
200325
199897
199461
198980
198567
203013
202796
202586
202369
202149
201915
201656
201370
201032
200659
200237
199807
199343
198927
203383
203173
202959
202738
202508
202267
201998
201705
201360
200983
200563
200138
199689
199271
203756
203548
203330
203104
202866
202618
202342
202038
201687
201305
200884
200459
200023
199606
204112
203914
203695
203467
203223
202969
202685
202370
202009
201618
201200
200774
200349
199924
204444
204252
204033
203811
203564
203306
203014
202688
202322
201922
201503
201070
200655
200226
204746
204554
204327
204112
203868
203605
203309
202980
202616
202216
201804
201362
200952
200505
205005
204808
204567
204344
204098
203842
203557
203236
202882
202482
202074
201627
201223
200765
205173
204977
204732
204516
204280
204035
203761
203453
203117
202730
202337
201891
201491
201018
205311
205113
204868
204647
204417
204180
203925
203635
203325
202954
202573
202133
201751
201273
205367
205135
204918
204718
204514
204294
204066
203802
203512
203168
202815
202419
202067
201592
203779
203753
203675
203575
203458
203277
203103
202852
202563
202212
201790
201298
200747
200131
204232
204118
204020
203872
203740
203543
203359
203103
202803
202449
202022
201548
201011
200474
204574
204437
204321
204144
204003
203802
203611
203362
203066
202723
202301
201849
201315
200799
204926
204753
204622
204426
204266
204050
203840
203581
203275
202933
202514
202077
201559
201066
205258
205058
204914
204704
204532
204305
204078
203811
203497
203152
202735
202306
201803
201325
205564
205348
205193
204972
204784
204542
204295
204013
203687
203336
202922
202500
202017
201551
205842
205626
205453
205217
205021
204770
204512
204222
203890
203533
203122
202703
202236
201774
206065
205877
205693
205453
205252
204997
204726
204425
204083
203718
203309
202892
202437
201980
206255
206078
205891
205659
205459
205199
204923
204620
204276
203906
203497
203074
202629
202167
206386
206222
206041
205838
205640
205391
205118
204816
204473
204100
203692
203260
202815
202334
206456
206321
206160
205979
205795
205557
205289
204989
204646
204268
203857
203416
202973
202485
206444
206360
206217
206072
205902
205682
205432
205143
204807
204432
204025
203569
203120
202599
206393
206352
206247
206131
205974
205779
205543
205262
204930
204551
204145
203685
203238
202694
206254
206243
206187
206095
205975
205807
205602
205349
205038
204671
204266
203797
203363
202771
208200
208289
208324
208277
208194
208057
207914
207672
207427
207089
206711
206267
205738
205081
208584
208592
208554
208472
208379
208226
208063
207809
207554
207215
206831
206393
205910
205334
208866
208829
208791
208690
208586
208421
208244
207990
207723
207387
207002
206577
206068
205543
209092
209012
208970
208855
208744
208567
208372
208109
207829
207490
207105
206690
206195
205696
209244
209142
209102
208984
208872
208694
208491
208224
207934
207592
207204
206790
206302
205822
209371
209254
209215
209094
208983
208800
208588
208314
208011
207663
207271
206855
206374
205894
209420
209326
209283
209161
209052
208866
208649
208372
208061
207708
207314
206898
206430
205956
209422
209352
209308
209189
209085
208899
208681
208403
208084
207727
207328
206911
206448
205977
209375
209324
209284
209173
209082
208901
208688
208414
208093
207735
207332
206913
206452
205981
209308
209266
209233
209133
209054
208881
208673
208404
208083
207724
207320
206898
206434
205955
209199
209165
209143
209054
208989
208828
208627
208365
208045
207687
207280
206855
206390
205910
209027
209020
209018
208944
208893
208748
208556
208302
207987
207635
207232
206803
206330
205825
208837
208854
208862
208810
208766
208639
208458
208215
207900
207546
207141
206706
206235
205710
208535
208614
208668
208653
208594
208501
208332
208113
207812
207471
207070
206616
206142
205520
214378
214386
214406
214356
214272
214149
214015
213824
213641
213382
213128
212803
212399
211911
214552
214539
214501
214424
214328
214192
214041
213842
213643
213375
213101
212769
212410
211937
214639
214612
214589
214507
214406
214261
214099
213896
213689
213429
213156
212823
212449
212003
214712
214656
214645
214560
214454
214299
214123
213909
213688
213425
213149
212824
212457
212038
214722
214656
214654
214571
214468
214313
214134
213918
213690
213425
213144
212823
212460
212068
214700
214640
214646
214567
214467
214310
214124
213903
213665
213396
213108
212788
212426
212046
214621
214579
214595
214526
214435
214282
214096
213874
213629
213357
213065
212750
212396
212032
214542
214516
214534
214469
214385
214235
214045
213820
213565
213287
212984
212667
212309
211947
214406
214407
214433
214375
214303
214161
213973
213749
213488
213207
212899
212582
212228
211875
214271
214284
214323
214270
214205
214069
213880
213657
213390
213104
212786
212464
212099
211738
214105
214138
214192
214143
214083
213951
213762
213541
213270
212981
212659
212327
211962
211591
213892
213942
214031
213993
213940
213815
213629
213415
213143
212855
212532
212198
211810
211414
213640
213745
213840
213819
213775
213659
213473
213262
212982
212690
212360
212011
211628
211182
213287
213462
213601
213617
213583
213486
213313
213118
212840
212554
212218
211844
211426
210896
220859
220793
220767
220701
220622
220516
220420
220305
220214
220090
219985
219834
219651
219449
220829
220777
220720
220629
220536
220426
220322
220204
220104
219977
219856
219703
219535
219300
220787
220713
220674
220592
220501
220391
220282
220164
220056
219935
219814
219665
219497
219272
220731
220645
220618
220539
220448
220334
220215
220090
219972
219845
219719
219570
219402
219196
220639
220558
220546
220477
220392
220279
220158
220028
219903
219771
219640
219490
219322
219131
220549
220478
220472
220409
220326
220212
220086
219949
219814
219674
219535
219383
219214
219032
220420
220368
220373
220322
220245
220135
220005
219863
219719
219571
219424
219271
219104
218935
220310
220268
220276
220229
220156
220046
219909
219760
219605
219449
219292
219134
218964
218797
220165
220137
220154
220115
220047
219941
219801
219648
219484
219323
219160
219001
218833
218672
220038
220012
220034
219997
219929
219825
219681
219525
219353
219186
219016
218851
218676
218506
219886
219867
219901
219865
219798
219698
219553
219400
219223
219055
218883
218715
218542
218360
219715
219696
219752
219723
219659
219567
219426
219278
219098
218931
218756
218586
218397
218195
219507
219540
219594
219571
219513
219432
219293
219153
218970
218804
218624
218440
218252
217996
219226
219308
219401
219411
219369
219306
219177
219051
218867
218703
218511
218306
218076
217779
226543
226421
226362
226281
226195
226099
226019
225945
225903
225864
225861
225848
225837
225837
226399
226301
226228
226130
226037
225940
225859
225788
225744
225705
225690
225671
225660
225599
226298
226180
226114
226020
225932
225840
225762
225694
225650
225616
225604
225593
225586
225547
226186
226064
225999
225907
225821
225731
225651
225582
225533
225499
225483
225471
225464
225440
226073
225960
225901
225817
225736
225649
225570
225501
225450
225413
225394
225384
225378
225369
225978
225870
225813
225733
225654
225569
225488
225416
225359
225317
225292
225281
225278
225281
225873
225776
225727
225656
225582
225500
225418
225344
225281
225235
225206
225196
225197
225212
225796
225701
225655
225587
225516
225434
225349
225272
225202
225151
225118
225109
225115
225135
225709
225622
225584
225521
225453
225374
225288
225210
225137
225085
225054
225048
225059
225084
225650
225561
225527
225466
225399
225322
225235
225157
225084
225033
225003
224995
225005
225026
225585
225500
225477
225418
225352
225279
225193
225121
225051
225007
224979
224972
224981
224996
225543
225454
225437
225380
225316
225247
225163
225098
225030
224992
224965
224958
224962
224963
225478
225419
225405
225347
225284
225220
225139
225083
225019
224985
224956
224941
224933
224889
225455
225381
225371
225326
225268
225213
225132
225084
225019
224985
224948
224919
224891
224871
230776
230628
230534
230446
230379
230322
230284
230259
230260
230270
230316
230371
230457
230550
230639
230503
230399
230295
230223
230164
230128
230109
230113
230129
230174
230230
230311
230373
230524
230381
230277
230178
230110
230058
230027
230014
230021
230045
230093
230156
230239
230314
230415
230267
230165
230069
230006
229957
229930
229919
229927
229953
230001
230064
230146
230233
230314
230172
230078
229993
229937
229894
229870
229861
229871
229901
229949
230017
230102
230200
230236
230092
230005
229925
229875
229836
229813
229807
229817
229847
229895
229965
230054
230165
230166
230026
229948
229877
229834
229800
229781
229777
229788
229818
229867
229941
230037
230160
230128
229986
229911
229845
229806
229776
229760
229759
229768
229798
229848
229929
230038
230180
230106
229965
229895
229833
229798
229773
229760
229761
229772
229807
229866
229960
230085
230243
230120
229974
229902
229840
229806
229787
229779
229789
229810
229859
229931
230037
230168
230330
230173
230021
229945
229881
229845
229832
229831
229855
229891
229957
230043
230160
230296
230457
230261
230106
230025
229953
229913
229902
229907
229943
229991
230074
230174
230302
230437
230585
230355
230200
230119
230040
229992
229980
229988
230037
230097
230194
230302
230431
230549
230666
230540
230318
230235
230152
230094
230077
230082
230137
230200
230304
230414
230541
230654
230819
233785
233668
233587
233530
233496
233472
233458
233449
233451
233453
233479
233502
233559
233614
233701
233583
233489
233415
233374
233347
233336
233333
233338
233348
233376
233409
233466
233521
233610
233487
233389
233314
233274
233250
233244
233247
233261
233281
233315
233355
233416
233476
233528
233395
233297
233221
233183
233161
233157
233166
233184
233212
233250
233297
233361
233438
233434
233306
233214
233146
233112
233095
233096
233112
233137
233175
233220
233276
233349
233435
233360
233227
233142
233077
233048
233034
233041
233061
233093
233138
233190
233255
233335
233433
233292
233161
233083
233025
233000
232993
233006
233034
233072
233124
233183
233257
233347
233463
233257
233121
233047
232991
232970
232968
232987
233019
233060
233118
233187
233279
233388
233523
233244
233106
233035
232981
232963
232966
232990
233029
233079
233150
233235
233347
233477
233631
233284
233138
233060
233002
232985
232994
233026
233078
233143
233231
233333
233462
233609
233777
233373
233220
233135
233071
233052
233066
233107
233174
233254
233361
233482
233631
233795
233973
233508
233346
233253
233182
233160
233176
233221
233301
233398
233527
233669
233841
234016
234200
233674
233501
233403
233322
233291
233307
233357
233451
233567
233720
233882
234071
234243
234425
233927
233678
233583
233492
233454
233469
233518
233621
233747
233916
234092
234297
234468
234729
235953
235915
235886
235871
235864
235859
235852
235837
235818
235790
235771
235746
235747
235743
235937
235888
235845
235812
235795
235784
235776
235763
235747
235725
235710
235696
235702
235703
235889
235829
235781
235743
235722
235710
235703
235697
235690
235681
235677
235671
235680
235686
235844
235767
235712
235667
235645
235631
235626
235626
235627
235629
235634
235639
235653
235676
235773
235692
235633
235588
235566
235556
235556
235564
235577
235593
235610
235626
235650
235682
235713
235621
235561
235513
235493
235483
235488
235506
235528
235557
235584
235611
235645
235690
235650
235555
235494
235447
235429
235424
235436
235463
235497
235538
235576
235614
235660
235720
235610
235508
235445
235396
235380
235378
235397
235434
235475
235525
235574
235631
235694
235770
235590
235483
235418
235369
235354
235357
235382
235425
235476
235539
235603
235679
235762
235852
235607
235491
235420
235367
235352
235359
235392
235446
235507
235586
235666
235758
235858
235960
235662
235540
235463
235407
235390
235402
235442
235507
235579
235671
235768
235879
235996
236107
235758
235631
235550
235488
235470
235483
235527
235599
235683
235792
235905
236038
236169
236294
235889
235757
235672
235605
235582
235597
235644
235727
235824
235951
236082
236230
236368
236495
236067
235901
235817
235745
235723
235741
235791
235882
235990
236131
236273
236442
236588
236784
237477
237479
237487
237492
237497
237499
237494
237478
237455
237417
237377
237327
237288
237252
237517
237507
237506
237499
237496
237492
237484
237466
237441
237403
237364
237318
237284
237250
237525
237503
237501
237488
237480
237471
237460
237443
237420
237388
237354
237316
237285
237256
237529
237492
237482
237460
237449
237437
237424
237409
237389
237364
237336
237307
237282
237266
237511
237467
237446
237420
237406
237393
237383
237372
237360
237345
237326
237305
237289
237283
237488
237437
237408
237377
237362
237348
237340
237336
237331
237324
237314
237303
237298
237302
237461
237406
237369
237336
237319
237308
237306
237309
237313
237317
237317
237318
237325
237337
237443
237381
237338
237301
237285
237277
237278
237289
237303
237318
237330
237344
237359
237377
237436
237369
237320
237281
237266
237261
237268
237289
237312
237340
237365
237390
237416
237436
237446
237374
237322
237281
237267
237265
237278
237307
237339
237377
237415
237452
237489
237511
237478
237404
237350
237308
237296
237298
237315
237351
237391
237441
237492
237538
237586
237609
237529
237455
237399
237357
237346
237352
237376
237419
237468
237529
237590
237649
237706
237739
237612
237537
237482
237440
237430
237439
237466
237517
237573
237644
237716
237782
237845
237880
237711
237633
237580
237541
237535
237551
237584
237642
237707
237787
237864
237948
238022
238098
238506
238482
238489
238488
238489
238485
238479
238466
238450
238425
238398
238360
238321
238278
238596
238565
238566
238557
238554
238545
238533
238514
238491
238460
238425
238384
238343
238298
238660
238623
238625
238612
238605
238591
238574
238551
238524
238491
238454
238412
238368
238324
238717
238678
238674
238655
238644
238626
238605
238579
238550
238515
238476
238434
238388
238347
238760
238721
238710
238687
238672
238651
238628
238601
238571
238537
238498
238457
238413
238373
238796
238756
238738
238712
238693
238670
238646
238620
238590
238558
238520
238480
238438
238400
238827
238788
238762
238733
238712
238689
238667
238644
238618
238588
238553
238515
238477
238439
238855
238815
238784
238754
238732
238710
238690
238671
238649
238623
238593
238559
238524
238487
238888
238848
238813
238782
238761
238742
238725
238711
238694
238673
238649
238618
238588
238550
238922
238882
238846
238816
238798
238782
238770
238762
238751
238737
238719
238693
238668
238630
238969
238932
238896
238868
238853
238841
238833
238830
238825
238815
238804
238781
238762
238722
239022
238988
238954
238928
238918
238913
238911
238915
238916
238912
238906
238889
238875
238836
239093
239063
239033
239011
239005
239004
239007
239015
239020
239021
239019
239005
238996
238950
239175
239146
239121
239105
239103
239109
239119
239136
239148
239156
239158
239151
239142
239117
239261
239194
239171
239135
239111
239087
239068
239050
239035
239018
239000
238975
238946
238900
239380
239310
239288
239249
239223
239194
239169
239142
239118
239090
239061
239028
238990
238946
239484
239416
239393
239352
239323
239291
239260
239228
239196
239162
239125
239085
239038
238990
239582
239519
239493
239450
239418
239382
239346
239309
239271
239230
239184
239136
239080
239027
239675
239616
239585
239541
239505
239467
239428
239387
239343
239297
239245
239189
239127
239066
239760
239704
239668
239624
239586
239546
239504
239460
239412
239360
239301
239240
239171
239104
239840
239790
239749
239706
239667
239625
239581
239534
239483
239426
239363
239296
239223
239149
239914
239869
239825
239783
239744
239701
239656
239608
239555
239495
239430
239358
239282
239202
239991
239951
239907
239865
239826
239782
239737
239687
239632
239570
239503
239428
239351
239266
240063
240028
239985
239945
239908
239865
239820
239772
239717
239655
239587
239511
239433
239343
240142
240112
240070
240032
239996
239954
239912
239864
239810
239748
239681
239604
239527
239431
240217
240191
240153
240117
240085
240048
240009
239965
239915
239855
239789
239713
239636
239535
240298
240277
240243
240210
240182
240149
240113
240073
240024
239965
239900
239823
239748
239645
240381
240359
240330
240302
240280
240254
240224
240191
240147
240093
240031
239956
239878
239779
239933
239831
239762
239692
239636
239583
239539
239499
239465
239432
239401
239368
239334
239288
240053
239957
239888
239819
239761
239705
239655
239607
239564
239522
239481
239439
239392
239344
240161
240071
240005
239938
239878
239821
239767
239714
239664
239613
239562
239509
239451
239395
240266
240185
240120
240053
239994
239935
239877
239819
239761
239700
239638
239575
239507
239441
240368
240293
240232
240166
240106
240044
239982
239919
239853
239786
239715
239642
239564
239486
240466
240397
240337
240273
240212
240148
240083
240015
239942
239867
239786
239703
239615
239529
240565
240502
240442
240379
240316
240248
240180
240106
240026
239944
239856
239765
239669
239574
240662
240603
240542
240480
240415
240344
240272
240193
240108
240019
239924
239825
239724
239621
240755
240701
240640
240578
240512
240437
240362
240278
240188
240093
239993
239889
239782
239671
240839
240789
240728
240667
240600
240525
240449
240363
240271
240171
240067
239956
239845
239727
240920
240873
240813
240753
240687
240610
240535
240447
240353
240251
240144
240029
239914
239789
240990
240946
240889
240831
240766
240692
240618
240532
240440
240338
240229
240111
239993
239860
241059
241018
240964
240908
240846
240774
240702
240617
240525
240424
240315
240196
240078
239942
241121
241076
241027
240975
240920
240852
240785
240705
240617
240518
240413
240296
240180
240033
240584
240463
240370
240276
240192
240113
240040
239970
239905
239842
239785
239727
239674
239622
240658
240559
240470
240380
240298
240217
240140
240063
239992
239922
239855
239790
239729
239675
240737
240644
240563
240479
240399
240318
240240
240161
240084
240007
239932
239857
239786
239721
240819
240734
240659
240580
240501
240419
240338
240254
240170
240086
240002
239919
239839
239764
240903
240827
240754
240676
240598
240516
240432
240344
240254
240164
240072
239980
239890
239804
240987
240916
240845
240769
240690
240607
240519
240427
240330
240233
240133
240034
239935
239841
241065
241000
240931
240857
240776
240691
240599
240501
240400
240297
240190
240083
239977
239874
241138
241076
241008
240934
240852
240765
240670
240568
240462
240353
240239
240127
240014
239905
241202
241143
241076
241002
240919
240829
240732
240626
240518
240404
240286
240169
240051
239935
241256
241200
241133
241059
240975
240884
240785
240678
240567
240451
240330
240209
240086
239965
241302
241248
241182
241109
241025
240932
240833
240724
240612
240493
240371
240246
240120
239994
241336
241282
241218
241145
241064
240972
240874
240765
240652
240533
240410
240284
240156
240023
241363
241309
241247
241176
241097
241007
240910
240801
240688
240568
240445
240318
240192
240056
241381
241321
241264
241196
241121
241035
240942
240837
240726
240607
240484
240354
240227
240079
240791
240693
240598
240503
240413
240324
240243
240165
240101
240033
241213
241117
241030
240940
240848
240754
240659
240562
240468
240374
240290
240206
240135
240069
241243
241160
241076
240990
240902
240811
240718
240621
240525
240429
240340
240252
240174
240099
241283
241209
241131
241050
240963
240872
240777
240678
240578
240477
240383
240291
240207
240128
241325
241257
241183
241105
241020
240929
240833
240732
240629
240524
240425
240327
240238
240153
241365
241302
241232
241155
241070
240980
240882
240778
240672
240564
240460
240358
240264