/*--------------------------------*- C++ -*----------------------------------*\
| =========                 |                                                 |
| \\      /  F ield         | OpenFOAM: The Open Source CFD Toolbox           |
|  \\    /   O peration     | Version:  v2106                                 |
|   \\  /    A nd           | Website:  www.openfoam.com                      |
|    \\/     M anipulation  |                                                 |
\*---------------------------------------------------------------------------*/
FoamFile
{
    version     2.0;
    format      ascii;
    arch        "LSB;label=32;scalar=64";
    class       volScalarField;
    location    "0.000174";
    object      epsilon;
}
// * * * * * * * * * * * * * * * * * * * * * * * * * * * * * * * * * * * * * //

dimensions      [0 2 -3 0 0 0 0];

internalField   nonuniform List<scalar> 
18109
(
348.154
138.269
72.9781
50.7777
45.7226
48.3606
56.9856
180.516
45.2158
14.9611
9.04662
8.14232
8.63326
10.1569
105.449
19.0288
3.31881
1.27454
1.06003
1.1196
1.33988
71.4089
11.9176
1.66868
0.286464
0.115093
0.105716
0.15184
54.2861
9.766
1.59961
0.242455
0.0361293
0.0131437
0.0350032
48.839
9.7318
1.74445
0.263312
0.0332928
0.00844391
0.0277958
54.324
11.4571
2.02895
0.293882
0.0431809
0.0208208
0.0496449
70.3317
14.7271
2.53121
0.408784
0.125752
0.115172
0.180748
198.144
68.9326
31.1519
18.5582
14.3528
13.4458
14.7414
17.4867
22.6142
32.5787
58.2438
134.861
348.273
861.924
98.1202
21.3299
5.50791
2.62991
2.0275
1.92734
2.14634
2.61784
3.84979
7.9003
22.6127
71.9648
214.057
562.317
53.8529
9.06275
1.32344
0.32513
0.203722
0.192698
0.227766
0.351452
0.889938
3.20103
12.1514
42.5627
132.601
367.009
36.2028
6.22308
0.921767
0.133991
0.026401
0.014837
0.0246863
0.0850859
0.392445
1.77446
7.24061
26.3913
86.4148
257.804
29.5981
5.71815
0.997015
0.152196
0.0191457
0.00325999
0.00785337
0.0454935
0.246382
1.18484
5.05869
19.3787
67.5578
218.039
30.0489
6.27834
1.13911
0.169929
0.0199847
0.00323254
0.0068142
0.0385102
0.211545
1.0422
4.58826
18.2383
66.4221
224.696
37.2579
7.88736
1.3693
0.193142
0.0263768
0.010312
0.0158979
0.0552636
0.265611
1.27285
5.5879
22.2564
81.041
272.06
51.0029
10.4375
1.73121
0.266778
0.0766347
0.0656788
0.083049
0.157533
0.505753
2.0758
8.5274
32.4172
112.52
357.277
71.5231
14.5543
2.69853
0.666399
0.384594
0.391579
0.470137
0.684498
1.42586
4.29101
15.0283
51.865
165.822
484.679
104.553
24.6646
6.75021
2.77894
1.95781
1.96678
2.31083
3.10006
5.05119
10.8861
29.6143
87.3501
249.463
660.848
173.44
57.3903
23.6259
12.455
8.92051
8.51131
9.73719
12.66
18.5
31.7575
66.0798
158.165
390.715
926.865
344.636
159.095
83.433
49.7905
35.8004
32.5087
35.8216
45.3183
62.8006
95.2085
161.668
312.23
650.376
1361.53
740.735
425.902
258.673
170.022
125.879
111.426
118.149
144.104
191.747
271.425
407.259
662.658
1162.88
2135.05
1537.56
1010.73
681.709
492.735
387.22
346.574
359.09
419.713
532.914
716.588
997.631
1438.5
2161.29
3440.98
759.002
1742.3
3876.61
8070.12
16581.8
35740.7
443.914
1103.25
2635.74
5714.53
11751.4
24734.9
240.045
764.736
2126.41
5167.09
11784.1
27600.9
146.611
551.191
1713.82
4634.57
11908.8
31644.5
96.4172
404.121
1398.6
4264.5
12366.2
35863.5
75.1923
336.435
1260.81
4198.08
13132.3
39614.2
70.1723
321.935
1252.68
4350.55
13981.5
42123.1
76.5454
349.725
1357.34
4686.51
14684.5
42668.7
90.7148
403.41
1517.46
5031.03
14989
41193.9
115.923
489.232
1737.91
5387.76
14912.1
37945.7
155.455
608.358
1985.83
5611.64
14119.4
32698.7
221.009
780.143
2289.36
5799.52
13097.7
27268.9
345.118
1066.07
2757.9
6199.5
12530.5
23492.3
589.498
1549.48
3517.98
7072.71
13016.9
22529.8
1054.12
2292.33
4564.93
8385.85
14637.6
24938.9
1958.56
3446.39
5907.26
9991.16
17186.9
30809
1311.31
2613.44
5063.37
9809.49
19596.4
40404.7
921.495
2115.07
4741.49
10703.3
24503.5
55526.3
716.656
1915.83
4988.94
12740.6
31497.6
73523.1
664.147
1995.09
5682.46
15263
38258
88531.7
713.476
2246.03
6532.25
17510
43133.2
96993.4
845.328
2606.17
7334
18845.8
44496.2
96070.5
1040.66
3008.4
7940.66
19196
42885.3
88666.1
1300.39
3454.63
8411.52
18864.4
39341.1
77252.9
1614.83
3881.37
8622.57
17821.7
34731.6
65093.1
2060.57
4443.91
8957.46
17034.7
31152.4
55646.6
2748.99
5334.5
9810.32
17317.2
30197.8
52826.7
3937.11
6921.89
11794.6
19875.1
34122.6
60307.2
5860.46
9460.98
15229.4
25065.6
43134.2
78214.1
5460.32
9704.3
16706.2
29196.3
53116.7
100285
4201.22
7947.03
14932.8
29318.7
59978.5
123392
3161.22
6520.91
13694.4
30330.3
68621.9
151466
2377.07
5424.75
12774.3
31115.8
74881
170851
1814.92
4586.23
11880.9
30670.1
76527.3
179670
1424.79
3922.54
10778.3
28499.2
71455.3
168854
1172.51
3397.99
9520.86
25033.1
62000.1
146051
1022.41
3003.4
8395.13
21727.4
52256.3
121576
969.078
2782.07
7554.97
18993.9
44002.5
100126
1027.45
2759.06
7075.57
16932.2
37500.8
81363
1206.16
2914.8
6923.69
15497.5
32090.5
66272.6
1530.02
3305.9
7074.37
14650.6
28352.6
57134
2090.97
4067.79
7847.91
14748.5
27730.8
57399.5
2951.49
5281.48
9372.29
16492.2
30700.3
64493.9
340.329
1167.66
3446.77
8842.86
20072
45024.8
404.032
1208.73
3203.8
7571.28
16242.8
34876
460.652
1194.68
2948.9
6623.16
13753.1
29819.4
527.53
1187.16
2840.95
6274.98
13555.4
30887.7
1973.05
3961.75
8716.99
17304.7
33671.8
71811
1200.22
3007.36
7301.91
15564.5
33468.2
78472.3
795.999
2376.79
5964.06
13255.7
31601.1
83086
566.597
1794.35
4631.04
11189.1
29398
84366
413.618
1322.62
3573.8
9567.99
27667
85080.8
298.54
972.256
2815.95
8445.06
26208.3
82390
214.179
736.258
2358.34
7737.57
24641.7
75275.4
159.94
598.368
2123.76
7268.49
22626.1
65269.5
137.12
552.497
2055.1
6934.11
20321.9
54250.3
144.831
581.138
2080.65
6537.87
17599.9
43120.8
178.935
657.194
2126.97
6010.88
14735
33480.6
232.231
746.986
2136.68
5417.62
12238.4
26431.9
288.392
806.013
2099.03
4922.27
10497.4
22413
326.117
803.036
2032.7
4653.73
10076.8
22444.1
54613.1
213099
836283
783705
507826
68522.6
273099
923193
727661
475863
86485
323734
941989
698846
483697
102371
364010
948789
714614
512666
114363
396547
921251
723773
531723
117449
393600
847905
706670
530044
112241
348380
724927
667715
536349
100845
285623
604162
654616
565519
707497
84825.1
222433
486566
645392
592854
769970
66356.8
165103
370088
600762
585011
790263
49948.2
118466
281222
534184
523512
761401
1.20509e+06
39222.2
90768.4
234295
485471
438708
646518
1.38175e+06
1.70258e+06
35763.2
88509.3
244766
478999
390113
475103
1.29292e+06
4.22493e+06
41304.4
117296
324953
507593
400053
422162
630966
2.47805e+06
56814.3
176732
451606
519882
408488
440730
622593
2.8295e+06
82383.3
249310
544745
485809
391406
473573
688182
2.33687e+06
118361
325866
595801
463783
403236
527594
728466
2.91908e+06
155260
389376
625422
478343
440775
593034
692369
1.10601e+06
181236
417187
621551
503262
475371
648843
725730
676357
190695
405257
596106
527786
500580
704871
795405
561112
181360
357846
555306
558738
539095
782073
921518
881116
162033
307499
531873
614992
587433
873874
1.10734e+06
633429
134860
259613
510697
665074
631021
970619
109140
223231
505918
676783
627434
1.02769e+06
92127.2
206948
529414
643236
562856
1.00374e+06
89745.9
226631
594408
588747
471132
842856
105709
291737
689687
518282
404174
642629
140911
400851
773720
466415
382392
188540
524974
782347
433077
384682
243648
636678
731729
418360
391516
304658
735912
697776
431828
423238
344925
768685
683551
480532
474837
362787
726575
671933
538860
518517
346231
612234
644955
594521
544265
298625
489296
618683
656006
579153
239673
389088
618517
745319
614505
187272
312670
639282
828953
634092
147303
258048
694986
860278
601464
120862
235624
793437
814168
536100
107072
265538
931833
739058
474744
110372
350364
1.09028e+06
673848
451149
131490
487661
1.16776e+06
650979
463413
161468
626853
1.12215e+06
653402
470785
193748
745813
1.04419e+06
638068
470202
227777
848135
1.00842e+06
631763
486619
255373
866971
990014
661330
522969
273183
804328
946763
688194
549592
266804
672139
861291
699663
561062
234037
515381
731905
700689
583030
188023
380745
604607
726569
611545
142688
275151
486661
755930
632977
104383
193182
382493
747443
609659
75688.6
136202
319610
710323
552344
56444.8
105835
327480
694430
505112
46409.8
106063
434071
724221
504705
46124.3
144544
633709
777732
523816
129.432
41.7481
17.5362
9.64829
6.66517
5.48183
5.28927
5.64526
7.17475
11.7665
26.04
71.6287
204.956
543.541
62.3231
12.4483
2.78728
1.12606
0.747329
0.620676
0.610137
0.683239
1.10168
3.00644
10.8128
38.8492
124.688
347.649
33.467
5.48062
0.752789
0.135949
0.057141
0.0439244
0.0478471
0.0876315
0.31888
1.43958
6.10672
22.9273
75.3732
217.73
23.4476
4.17683
0.652224
0.0937432
0.0128201
0.0030331
0.00560439
0.0293401
0.162991
0.809808
3.52796
13.5404
46.1316
141.36
20.9938
4.21573
0.754117
0.116532
0.0142909
0.00170176
0.00259286
0.0164754
0.0965525
0.496392
2.24229
8.98001
32.298
106.271
23.1889
4.90693
0.887109
0.131724
0.0153541
0.00214428
0.0025512
0.0126548
0.071909
0.375568
1.7481
7.27705
27.4579
95.6987
30.3317
6.37199
1.08787
0.151802
0.0208376
0.00831179
0.00978397
0.020964
0.0818626
0.392396
1.81495
7.66575
29.5274
104.871
42.6739
8.57978
1.38392
0.207605
0.0596972
0.0535505
0.0643426
0.0906119
0.190812
0.64571
2.63941
10.6134
39.5776
135.586
60.9419
12.0447
2.10016
0.487495
0.286632
0.309045
0.374425
0.487525
0.760322
1.69109
5.25581
18.3798
62.6265
197.796
89.8702
19.9304
4.90477
1.9099
1.39911
1.49859
1.81247
2.34615
3.33698
5.75976
13.1704
37.0342
109.204
306.996
146.997
44.3004
16.4962
8.33327
6.16001
6.26484
7.45259
9.65611
13.3684
20.518
37.4228
83.2049
205.304
505.08
284.221
120.138
58.1364
33.1394
24.1123
23.1529
26.7074
34.3193
46.917
68.1692
108.277
197.336
402.974
856.9
601.068
322.223
182.155
113.795
83.7311
77.2859
85.8766
107.879
144.915
203.851
299.458
474.153
816.441
1501.17
1253.55
776.483
489.321
335.161
257.435
235.905
254.343
309.045
402.805
548.921
766.62
1101.75
1641.56
2600.23
36.0858
13.8708
7.70186
4.65902
2.98512
2.15846
1.80247
1.61924
1.66813
2.28934
5.04965
15.9538
54.5411
171.734
14.8282
3.00667
0.941072
0.476886
0.290499
0.209924
0.179737
0.16646
0.204022
0.503888
2.09107
9.05325
34.7458
114.51
8.64691
1.44442
0.226579
0.0481389
0.0184513
0.0121123
0.0110147
0.0145317
0.0478488
0.256188
1.32612
5.96123
23.0224
76.6662
8.33919
1.56996
0.256489
0.0378619
0.00495579
0.000749127
0.000670517
0.00367352
0.0256774
0.158735
0.838475
3.80207
14.9299
51.3046
9.75341
1.9619
0.339045
0.0506959
0.00611493
0.000587102
0.000293208
0.00215133
0.0159104
0.100401
0.541556
2.52136
10.2611
37.1054
12.5479
2.54231
0.426573
0.0596301
0.00673563
0.000778991
0.000452693
0.00175335
0.0114096
0.071427
0.391164
1.86918
7.90105
30.1685
17.7456
3.50314
0.548418
0.0706127
0.00877374
0.00293507
0.00301066
0.00437703
0.0124527
0.0614167
0.326497
1.59337
7.01705
28.2411
26.0255
4.90342
0.709991
0.0919322
0.0221213
0.0194404
0.0232209
0.02829
0.0411552
0.0985278
0.391665
1.79404
7.88923
32.0339
38.2517
6.92561
0.996473
0.180288
0.102218
0.117594
0.145528
0.179177
0.232027
0.360373
0.852376
2.9841
11.7776
44.7841
56.6899
10.3809
1.86019
0.618779
0.507803
0.599063
0.749688
0.946641
1.22773
1.70169
2.88802
6.9697
21.8275
71.8025
86.9012
18.7987
5.30933
2.64908
2.29776
2.62684
3.27511
4.207
5.53552
7.50195
11.0739
20.2471
48.2704
130.775
149.033
44.8566
18.5456
10.9113
9.30644
10.1764
12.4715
16.073
21.2999
28.7582
40.1299
62.5581
118.035
260.351
288.725
121.13
62.0695
40.0052
33.842
35.6338
42.5411
54.1511
71.2957
95.7186
130.38
187.07
298.243
544.285
602.574
316.823
184.187
128.854
110.93
114.857
133.742
166.204
214.038
282.186
376.849
514.936
730.695
1124.35
8.71344
3.39929
1.92798
1.16741
0.714949
0.455768
0.344632
0.280077
0.25192
0.280371
0.580732
2.13763
8.96546
34.6477
3.30307
0.628114
0.191543
0.0980835
0.0577073
0.036885
0.0290076
0.024213
0.024373
0.0503141
0.239024
1.2737
5.95433
23.6153
2.46437
0.413024
0.0618859
0.0107223
0.00307201
0.00156543
0.00127122
0.00135791
0.0039319
0.0250662
0.161936
0.894475
4.16967
16.4638
3.04302
0.56825
0.092177
0.0129604
0.00161841
0.000173214
4.30464e-05
0.00023478
0.00216735
0.017127
0.112629
0.620545
2.88965
11.4851
4.06683
0.782982
0.131614
0.0183221
0.00216515
0.000205007
3.02817e-05
0.000157442
0.00148688
0.0118149
0.0781455
0.433876
2.04273
8.25685
5.69897
1.07668
0.174777
0.022573
0.00245064
0.000255594
8.18943e-05
0.000173462
0.00111892
0.00847954
0.0561066
0.314798
1.50912
6.27374
8.53984
1.55666
0.23637
0.0278625
0.00302994
0.00075165
0.000696657
0.000843586
0.00161034
0.00718167
0.0433182
0.242945
1.19404
5.18373
13.0457
2.26406
0.314402
0.0352458
0.00613255
0.00474369
0.00575848
0.00677326
0.00823419
0.0136808
0.0454491
0.222249
1.09842
4.99269
19.5506
3.2762
0.425035
0.056556
0.0253751
0.0302188
0.0385736
0.0467053
0.0557176
0.0698868
0.117443
0.349166
1.47921
6.52042
28.6289
4.78473
0.659698
0.155415
0.129252
0.16503
0.213618
0.265912
0.325597
0.400332
0.540648
1.01471
3.0303
11.2897
41.3109
7.62412
1.49468
0.6405
0.619912
0.776691
1.0047
1.27468
1.59867
1.99832
2.5779
3.91408
8.4276
24.5466
64.2499
15.9615
4.9796
2.82374
2.68913
3.22017
4.10587
5.24598
6.67637
8.4887
10.8929
15.1182
26.0135
59.557
115.167
42.5646
18.1903
11.5808
10.6307
12.0647
14.9398
18.9263
24.1238
30.9662
39.9399
53.4214
79.785
147.699
244.048
120.698
62.2702
42.8735
38.7218
41.9361
49.8781
61.5433
77.1524
98.5207
127.286
167.863
231.07
358.063
1.97088
0.553989
0.255216
0.150744
0.0912219
0.0602578
0.0463852
0.0376869
0.0315666
0.0277264
0.0418196
0.157423
0.794153
3.74186
0.950922
0.145957
0.0260105
0.00975963
0.00532831
0.00360053
0.00297348
0.00254529
0.00229805
0.00332137
0.015382
0.0991504
0.564536
2.69948
0.84621
0.141931
0.0190183
0.00255357
0.000373048
0.000101135
7.15533e-05
7.47535e-05
0.000188598
0.00137926
0.0111041
0.0755339
0.427225
2.02228
1.10308
0.209286
0.0310278
0.00427924
0.000502704
5.11082e-05
4.88601e-06
8.62476e-06
0.00010049
0.00102078
0.00844436
0.0573321
0.322676
1.52164
1.51236
0.29792
0.0447531
0.00602197
0.000670474
6.44791e-05
5.90457e-06
6.85207e-06
7.46109e-05
0.000757876
0.00629121
0.0428853
0.242586
1.15181
2.11026
0.415336
0.0601459
0.00741685
0.000748663
7.45983e-05
1.73029e-05
1.83587e-05
6.89635e-05
0.000577337
0.00471231
0.032226
0.183761
0.882932
3.06435
0.595215
0.0819775
0.00903321
0.000868026
0.000172826
0.000145859
0.00016489
0.000213332
0.000600548
0.00372473
0.0246509
0.141594
0.694504
4.43769
0.840344
0.109513
0.0109854
0.00147131
0.00100338
0.00123278
0.0014468
0.00163083
0.00203759
0.00459153
0.0214527
0.117688
0.591538
6.26337
1.15723
0.145358
0.0154682
0.00539069
0.00658152
0.00859303
0.0103821
0.0119291
0.0135105
0.0172694
0.0366152
0.144476
0.687736
8.66993
1.58213
0.206338
0.0349293
0.0276474
0.037715
0.049876
0.0617229
0.0729522
0.0839368
0.0983916
0.139887
0.331992
1.23635
11.8385
2.27553
0.382001
0.132699
0.137887
0.186255
0.246113
0.30999
0.37526
0.442727
0.520654
0.666228
1.16304
3.20284
17.3535
4.21249
1.12705
0.601933
0.625397
0.805922
1.05102
1.33556
1.64471
1.98465
2.37534
2.95787
4.38963
9.41555
30.3378
10.7999
4.21235
2.66379
2.60183
3.1306
3.96147
5.01246
6.22244
7.64046
9.32969
11.6112
15.7447
27.6577
68.0634
32.3819
15.9002
10.9515
10.1169
11.2477
13.5176
16.6961
20.604
25.5187
31.6957
39.8713
51.7328
78.0264
0.368076
0.0776225
0.0238592
0.0120601
0.0072016
0.00494639
0.00421034
0.00369976
0.00316089
0.00252274
0.00263801
0.00876588
0.0523417
0.297193
0.187515
0.0308943
0.00428974
0.000681388
0.000238476
0.00016473
0.000168232
0.000172658
0.000169198
0.000197144
0.000758653
0.00573041
0.0394153
0.225918
0.191088
0.0371401
0.00595331
0.000763978
9.432e-05
1.0903e-05
3.02208e-06
3.61979e-06
8.31966e-06
5.76358e-05
0.000557146
0.00463768
0.0317332
0.179592
0.262664
0.0555343
0.00965876
0.00131064
0.000162478
1.63201e-05
1.47096e-06
4.44415e-07
3.39351e-06
4.1936e-05
0.000435303
0.00365502
0.0250716
0.142133
0.370312
0.0797708
0.0140124
0.00186892
0.000220762
2.07697e-05
1.79065e-06
4.03635e-07
2.55725e-06
3.20906e-05
0.000337039
0.00285752
0.0197766
0.113102
0.52183
0.111057
0.018876
0.00235233
0.000253827
2.30148e-05
3.57561e-06
2.35085e-06
3.92853e-06
2.61655e-05
0.000259384
0.00221096
0.0154793
0.0896402
0.749918
0.156047
0.0252951
0.0028998
0.000289246
3.80735e-05
2.30642e-05
2.41814e-05
2.60445e-05
4.26964e-05
0.00022041
0.00172612
0.0121007
0.0710514
1.06459
0.214714
0.0330103
0.0035185
0.000398078
0.000167079
0.000189172
0.000214282
0.000228914
0.000247572
0.000386678
0.00156238
0.00976697
0.0573786
1.46501
0.286173
0.0421458
0.00452437
0.00103118
0.00105804
0.00134306
0.00156826
0.00172409
0.00184
0.00204146
0.00325211
0.0113775
0.0589518
1.98102
0.378903
0.0561211
0.00800534
0.00466361
0.0062148
0.00806227
0.009636
0.0108969
0.011925
0.0129357
0.0154871
0.0286227
0.101047
2.63484
0.518384
0.0898071
0.0240629
0.0230436
0.0317944
0.0414563
0.0505123
0.058539
0.065748
0.0726203
0.0832239
0.118779
0.291568
3.76929
0.888403
0.223425
0.100675
0.105831
0.142348
0.184982
0.228642
0.270319
0.310812
0.351363
0.403328
0.518749
0.997795
6.53868
2.16504
0.779808
0.44183
0.444735
0.566701
0.725739
0.903473
1.08412
1.27251
1.47359
1.71812
2.10447
3.38018
15.1327
6.57617
2.96112
1.85736
1.73889
2.0506
2.54131
3.14826
3.80687
4.54441
5.38518
6.42157
7.74613
10.959
0.0661939
0.0121677
0.00256636
0.000954279
0.000560107
0.000436257
0.000438084
0.000437736
0.000407031
0.00032994
0.000277625
0.000734445
0.00482667
0.0310154
0.0361333
0.00641984
0.000964056
0.000128894
2.45425e-05
1.42916e-05
1.76693e-05
2.22123e-05
2.50057e-05
2.65829e-05
6.57497e-05
0.00049603
0.00382739
0.0246128
0.040569
0.00849095
0.00151174
0.000221948
2.80542e-05
3.34703e-06
8.66653e-07
9.73662e-07
1.48867e-06
4.79329e-06
4.29721e-05
0.000406098
0.00316449
0.0202433
0.0584021
0.0130266
0.0024619
0.000379203
4.80088e-05
5.09424e-06
4.82825e-07
1.02796e-07
2.5796e-07
2.76452e-06
3.28409e-05
0.000320256
0.00252382
0.016316
0.0834391
0.0187265
0.00353465
0.000535949
6.50568e-05
6.51217e-06
5.71594e-07
8.26656e-08
1.68687e-07
2.04827e-06
2.51441e-05
0.000249646
0.00200115
0.0131515
0.117077
0.0257162
0.00466743
0.000666298
7.46523e-05
7.05381e-06
8.34384e-07
3.72884e-07
4.20969e-07
1.79427e-06
1.92491e-05
0.00019239
0.001571
0.0105226
0.166032
0.035388
0.00609635
0.000806151
8.31239e-05
9.20325e-06
3.67534e-06
3.55657e-06
3.6266e-06
4.54421e-06
1.76878e-05
0.000151381
0.00123502
0.00839819
0.232638
0.0478428
0.0077995
0.000960866
0.000102121
2.82515e-05
2.83658e-05
3.15008e-05
3.28624e-05
3.36037e-05
4.30926e-05
0.000146426
0.000997798
0.00670909
0.315203
0.0625283
0.00972039
0.00116913
0.000200147
0.000164259
0.000204737
0.000235463
0.000253022
0.000261908
0.000273162
0.000372574
0.0011708
0.00652077
0.418472
0.0806306
0.0123492
0.00175056
0.000770518
0.000984356
0.00127264
0.00149629
0.00165182
0.00175735
0.00183251
0.00203621
0.00322991
0.0107598
0.541328
0.105095
0.0177603
0.00425316
0.00374773
0.00524326
0.00683245
0.00818154
0.00924884
0.0100973
0.0107583
0.0117405
0.0149913
0.0331853
0.743468
0.165212
0.0381792
0.0161507
0.017578
0.0245373
0.0319746
0.0388526
0.0447994
0.0500389
0.0546015
0.0602638
0.0716452
0.125851
1.24492
0.375302
0.124337
0.0692725
0.0752969
0.101625
0.131584
0.161636
0.189487
0.216092
0.241572
0.271925
0.31414
0.469997
2.8803
1.13075
0.470746
0.291675
0.296707
0.377741
0.480523
0.59255
0.703049
0.816713
0.935223
1.07862
1.24392
1.67028
0.0119395
0.00221404
0.00044979
0.000148704
8.51641e-05
7.23749e-05
7.8824e-05
8.4152e-05
8.25469e-05
6.86505e-05
4.95355e-05
7.3859e-05
0.000434962
0.00302123
0.00691336
0.00129256
0.000209552
3.06502e-05
5.62624e-06
3.08101e-06
3.98234e-06
5.29395e-06
6.22194e-06
6.17166e-06
7.95252e-06
4.29202e-05
0.000352946
0.00248877
0.0084991
0.00184717
0.000347176
5.53243e-05
7.56423e-06
9.67149e-07
2.64089e-07
2.95489e-07
4.06196e-07
6.62754e-07
3.56752e-06
3.49401e-05
0.000300014
0.00211238
0.0126678
0.00289514
0.000570273
9.39898e-05
1.28628e-05
1.46373e-06
1.54273e-07
4.07982e-08
4.93366e-08
2.2672e-07
2.57332e-06
2.76966e-05
0.000242325
0.00173366
0.0182423
0.00416922
0.000815277
0.000131663
1.73659e-05
1.87089e-06
1.78498e-07
3.21847e-08
2.93247e-08
1.5997e-07
1.96989e-06
2.17191e-05
0.000194079
0.00141874
0.0253952
0.00564678
0.00105707
0.000160797
1.97636e-05
1.99922e-06
2.17668e-07
7.52361e-08
6.87327e-08
1.60659e-07
1.52478e-06
1.67899e-05
0.0001534
0.00114871
0.0353988
0.00759255
0.00134299
0.00018941
2.15172e-05
2.29869e-06
6.40271e-07
5.47415e-07
5.3608e-07
5.73078e-07
1.57676e-06
1.33771e-05
0.000121335
0.000924216
0.0486571
0.010028
0.0016738
0.000219917
2.47886e-05
5.19631e-06
4.40574e-06
4.72582e-06
4.80075e-06
4.68837e-06
5.22785e-06
1.41588e-05
9.85871e-05
0.000735498
0.0647311
0.0128427
0.00204069
0.000259015
4.05553e-05
2.65334e-05
3.18532e-05
3.57618e-05
3.74092e-05
3.73764e-05
3.70349e-05
4.42764e-05
0.000119535
0.000690403
0.0844832
0.0162289
0.00251924
0.000357726
0.00013302
0.000158775
0.000202423
0.000232519
0.000249612
0.000256647
0.000257157
0.000267176
0.000366097
0.00110676
0.107137
0.0205132
0.00340191
0.000760467
0.000625127
0.000866999
0.00111897
0.00130937
0.00143853
0.00151846
0.00155657
0.00161314
0.00185852
0.00360942
0.142045
0.0301721
0.00653461
0.00266193
0.00296217
0.00418628
0.0054162
0.00643512
0.00721034
0.00778694
0.00817157
0.00861026
0.00948332
0.0149127
0.228433
0.0637444
0.0197116
0.011128
0.0128768
0.0178976
0.0231127
0.0278144
0.0317101
0.0349683
0.0375608
0.0404413
0.0439749
0.0603355
0.522093
0.187617
0.0733305
0.0463629
0.0511067
0.068342
0.0874995
0.106157
0.122722
0.137899
0.151628
0.167275
0.183194
0.230213
0.0018799
0.000354184
7.37679e-05
2.44686e-05
1.48292e-05
1.38458e-05
1.60524e-05
1.79454e-05
1.82949e-05
1.56487e-05
1.07324e-05
9.25868e-06
3.67448e-05
0.000266122
0.00117847
0.000229473
3.95073e-05
6.24486e-06
1.22851e-06
7.0779e-07
9.43836e-07
1.28928e-06
1.55364e-06
1.53729e-06
1.36874e-06
3.7132e-06
2.97052e-05
0.000227468
0.00158931
0.000354616
6.91993e-05
1.16388e-05
1.70631e-06
2.42976e-07
8.10445e-08
9.18448e-08
1.20565e-07
1.45847e-07
3.35842e-07
2.78518e-06
2.58499e-05
0.000199112
0.00245236
0.000570171
0.000115542
1.99011e-05
2.8991e-06
3.58876e-07
5.05821e-08
2.27673e-08
2.32148e-08
3.54648e-08
2.01867e-07
2.19434e-06
2.10999e-05
0.000166261
0.00356361
0.000825141
0.000165362
2.7857e-05
3.91509e-06
4.57687e-07
5.63578e-08
1.98967e-08
1.76655e-08
2.59092e-08
1.54693e-07
1.72619e-06
1.7013e-05
0.000137757
0.00492213
0.00110383
0.000211309
3.36289e-05
4.42985e-06
4.85947e-07
6.1081e-08
2.49313e-08
2.22763e-08
2.755e-08
1.23699e-07
1.3347e-06
1.34686e-05
0.000112335
0.00674321
0.00145211
0.000262178
3.88384e-05
4.74086e-06
5.16154e-07
1.11179e-07
8.18918e-08
7.76541e-08
7.59477e-08
1.42963e-07
1.07467e-06
1.06675e-05
9.07455e-05
0.00909198
0.00187593
0.000319303
4.41652e-05
5.21039e-06
8.72506e-07
5.81991e-07
5.95977e-07
5.89403e-07
5.53011e-07
5.59694e-07
1.23652e-06
8.66309e-06
7.17e-05
0.0118721
0.00235556
0.000381411
5.06008e-05
7.30761e-06
3.63454e-06
4.11675e-06
4.51039e-06
4.59176e-06
4.42023e-06
4.18451e-06
4.55082e-06
1.08e-05
6.51187e-05
0.015206
0.00291568
0.000458195
6.50013e-05
1.97985e-05
2.13621e-05
2.67962e-05
3.00967e-05
3.14067e-05
3.11304e-05
2.99976e-05
2.95815e-05
3.62287e-05
0.000100571
0.0188482
0.00356614
0.000581483
0.00011984
8.80542e-05
0.000119786
0.000153149
0.000175206
0.000186966
0.000190415
0.000187952
0.000186513
0.000198259
0.000342014
0.023962
0.00487079
0.000986713
0.000378918
0.000422608
0.000599693
0.000769886
0.000894094
0.000972687
0.00101425
0.00102473
0.00103626
0.00107083
0.00152193
0.0361413
0.00930945
0.00268368
0.00153972
0.00188243
0.00266452
0.00342166
0.00402718
0.00445922
0.00475014
0.00490764
0.00506991
0.00522217
0.00661197
0.0792296
0.0260909
0.00965598
0.00637426
0.00762552
0.0105608
0.0135109
0.0160603
0.0180462
0.0195838
0.0206831
0.021857
0.0227938
0.0268771
0.000261922
5.03079e-05
1.09247e-05
3.82458e-06
2.57362e-06
2.65046e-06
3.23063e-06
3.73946e-06
3.92072e-06
3.4366e-06
2.35219e-06
1.50187e-06
3.07823e-06
2.15035e-05
0.000180627
3.64534e-05
6.59597e-06
1.1205e-06
2.50285e-07
1.64476e-07
2.22223e-07
3.04093e-07
3.692e-07
3.69192e-07
2.93436e-07
3.76507e-07
2.32036e-06
1.89464e-05
0.000266001
6.05733e-05
1.21526e-05
2.13436e-06
3.37419e-07
6.21341e-08
3.12419e-08
3.46518e-08
4.17516e-08
4.561e-08
5.39291e-08
2.23299e-07
2.04393e-06
1.7078e-05
0.000424265
0.000100003
2.06851e-05
3.68714e-06
5.6848e-07
8.47681e-08
2.34741e-08
1.77534e-08
1.78508e-08
1.88232e-08
2.94454e-08
1.7283e-07
1.68393e-06
1.44893e-05
0.00062292
0.000145644
2.96995e-05
5.16778e-06
7.66114e-07
1.0518e-07
2.46624e-08
1.69758e-08
1.6428e-08
1.68994e-08
2.52246e-08
1.38574e-07
1.36515e-06
1.21239e-05
0.000853981
0.000192618
3.74857e-05
6.17871e-06
8.61361e-07
1.10781e-07
2.51668e-08
1.74578e-08
1.68539e-08
1.70898e-08
2.32127e-08
1.09906e-07
1.08036e-06
9.92117e-06
0.00114909
0.000247854
4.54585e-05
7.00052e-06
9.06775e-07
1.1235e-07
3.0013e-08
2.33079e-08
2.24562e-08
2.18886e-08
2.57515e-08
9.18466e-08
8.57002e-07
8.03377e-06
0.00151845
0.000312989
5.40889e-05
7.79426e-06
9.61556e-07
1.48823e-07
8.04766e-08
7.77913e-08
7.53994e-08
6.96537e-08
6.6502e-08
1.11742e-07
6.9767e-07
6.3112e-06
0.00194332
0.000384755
6.3212e-05
8.69055e-06
1.19912e-06
4.57668e-07
4.74332e-07
5.05485e-07
5.01559e-07
4.67735e-07
4.26552e-07
4.30802e-07
8.93239e-07
5.57578e-06
0.0024386
0.000465962
7.39584e-05
1.05125e-05
2.66689e-06
2.52451e-06
3.09364e-06
3.39927e-06
3.4551e-06
3.31251e-06
3.0788e-06
2.90294e-06
3.23294e-06
8.28343e-06
0.00295024
0.000552276
8.90286e-05
1.70407e-05
1.09431e-05
1.44434e-05
1.82552e-05
2.0447e-05
2.12476e-05
2.0936e-05
1.99406e-05
1.8996e-05
1.88324e-05
2.91087e-05
0.00359921
0.000705089
0.000134918
4.82467e-05
5.29775e-05
7.49716e-05
9.53926e-05
0.00010847
0.000114874
0.000115896
0.000112932
0.000109677
0.000106926
0.00013834
0.00505546
0.00120984
0.000326721
0.000190191
0.000242737
0.000346814
0.00044206
0.000509412
0.00054894
0.000565691
0.000563021
0.000558039
0.000545778
0.000640452
0.0103979
0.00315972
0.00112111
0.000785941
0.00101169
0.00143269
0.00182395
0.00212358
0.0023214
0.0024346
0.00247184
0.00250093
0.0024854
0.002752
3.2402e-05
6.37812e-06
1.47292e-06
5.7435e-07
4.4346e-07
4.96864e-07
6.24112e-07
7.37422e-07
7.86071e-07
7.02032e-07
4.88525e-07
2.8376e-07
2.9325e-07
1.62013e-06
2.48863e-05
5.18256e-06
9.82663e-07
1.86757e-07
5.65254e-08
4.55651e-08
5.82854e-08
7.55166e-08
8.93853e-08
8.99775e-08
7.25339e-08
6.09211e-08
1.85468e-07
1.45635e-06
3.97436e-05
9.17831e-06
1.88255e-06
3.5004e-07
6.84027e-08
2.41863e-08
1.92953e-08
2.02114e-08
2.17753e-08
2.25149e-08
2.21639e-08
3.18083e-08
1.6209e-07
1.35022e-06
6.54343e-05
1.55424e-05
3.26094e-06
6.04049e-07
1.06935e-07
2.78746e-08
1.7513e-08
1.65229e-08
1.6565e-08
1.66814e-08
1.7273e-08
2.6599e-08
1.36458e-07
1.16439e-06
9.71063e-05
2.2802e-05
4.70192e-06
8.45361e-07
1.40209e-07
3.14904e-08
1.7725e-08
1.6347e-08
1.62478e-08
1.62769e-08
1.67686e-08
2.41964e-08
1.13631e-07
9.85102e-07
0.000132215
2.98678e-05
5.87726e-06
1.00159e-06
1.55613e-07
3.24837e-08
1.77857e-08
1.63905e-08
1.6283e-08
1.62911e-08
1.66477e-08
2.22801e-08
9.27342e-08
8.10867e-07
0.000174768
3.76394e-05
6.98158e-06
1.11356e-06
1.61074e-07
3.2317e-08
1.81632e-08
1.69208e-08
1.6787e-08
1.67135e-08
1.69021e-08
2.11478e-08
7.64914e-08
6.60424e-07
0.000226295
4.64612e-05
8.11968e-06
1.21284e-06
1.65825e-07
3.5355e-08
2.2895e-08
2.20179e-08
2.16246e-08
2.09395e-08
2.03982e-08
2.30599e-08
6.49501e-08
5.19104e-07
0.000283732
5.58726e-05
9.27735e-06
1.3168e-06
1.88419e-07
6.56543e-08
6.1629e-08
6.33545e-08
6.17735e-08
5.72166e-08
5.19905e-08
5.01689e-08
8.0826e-08
4.48724e-07
0.00034859
6.61738e-05
1.05826e-05
1.51554e-06
3.40032e-07
2.78735e-07
3.29024e-07
3.53045e-07
3.49819e-07
3.25473e-07
2.92866e-07
2.66214e-07
2.73144e-07
6.33443e-07
0.000411337
7.61455e-05
1.21864e-05
2.19858e-06
1.22823e-06
1.55589e-06
1.93735e-06
2.12557e-06
2.15158e-06
2.05104e-06
1.88396e-06
1.72616e-06
1.61005e-06
2.24721e-06
0.000482696
9.16681e-05
1.67593e-05
5.5477e-06
5.91293e-06
8.3066e-06
1.04603e-05
1.16548e-05
1.20197e-05
1.17281e-05
1.10155e-05
1.02808e-05
9.49796e-06
1.12724e-05
0.000630738
0.00014145
3.60534e-05
2.11597e-05
2.78592e-05
3.99405e-05
5.04488e-05
5.69365e-05
5.97183e-05
5.951e-05
5.70512e-05
5.42752e-05
5.04985e-05
5.51991e-05
0.00119552
0.0003391
0.000116921
8.77845e-05
0.000119991
0.000172034
0.000217271
0.000247628
0.000263275
0.000266735
0.000260383
0.000252246
0.000238893
0.000249089
3.61038e-06
7.42688e-07
1.95066e-07
9.42639e-08
8.4528e-08
9.84739e-08
1.2257e-07
1.44234e-07
1.54085e-07
1.40181e-07
1.02213e-07
6.31971e-08
4.58078e-08
1.28182e-07
3.12555e-06
6.75236e-07
1.42512e-07
3.94936e-08
2.24956e-08
2.15261e-08
2.40215e-08
2.72493e-08
2.98276e-08
2.99737e-08
2.66677e-08
2.28624e-08
2.85763e-08
1.16527e-07
5.35549e-06
1.25284e-06
2.69993e-07
6.22283e-08
2.35505e-08
1.74025e-08
1.67623e-08
1.69731e-08
1.72785e-08
1.74172e-08
1.72389e-08
1.75331e-08
2.59106e-08
1.11649e-07
9.06808e-06
2.16491e-06
4.6677e-07
9.86499e-08
2.91296e-08
1.79024e-08
1.63985e-08
1.62565e-08
1.62715e-08
1.62927e-08
1.63199e-08
1.68582e-08
2.41401e-08
9.95302e-08
1.35842e-05
3.19527e-06
6.7144e-07
1.33311e-07
3.4025e-08
1.84595e-08
1.64352e-08
1.62265e-08
1.62141e-08
1.62193e-08
1.62486e-08
1.66906e-08
2.263e-08
8.70354e-08
1.83641e-05
4.14723e-06
8.29913e-07
1.54708e-07
3.62252e-08
1.86191e-08
1.64496e-08
1.62365e-08
1.62227e-08
1.62256e-08
1.62472e-08
1.65796e-08
2.12257e-08
7.4352e-08
2.38384e-05
5.12058e-06
9.65355e-07
1.67991e-07
3.6759e-08
1.85594e-08
1.64763e-08
1.62856e-08
1.62699e-08
1.62653e-08
1.62749e-08
1.65221e-08
2.01478e-08
6.3337e-08
3.02069e-05
6.17158e-06
1.09583e-06
1.7833e-07
3.69538e-08
1.87452e-08
1.68698e-08
1.67136e-08
1.6667e-08
1.66013e-08
1.6544e-08
1.66802e-08
1.93854e-08
5.27515e-08
3.70349e-05
7.2441e-06
1.22092e-06
1.87984e-07
3.86408e-08
2.1355e-08
2.02498e-08
2.02609e-08
2.00213e-08
1.95295e-08
1.89927e-08
1.87122e-08
2.05227e-08
4.68216e-08
4.44609e-05
8.37541e-06
1.35574e-06
2.06149e-07
5.23747e-08
4.08658e-08
4.44752e-08
4.59899e-08
4.49221e-08
4.19308e-08
3.83288e-08
3.54031e-08
3.45874e-08
5.79051e-08
5.11332e-05