/*--------------------------------*- C++ -*----------------------------------*\
| =========                 |                                                 |
| \\      /  F ield         | OpenFOAM: The Open Source CFD Toolbox           |
|  \\    /   O peration     | Version:  v2106                                 |
|   \\  /    A nd           | Website:  www.openfoam.com                      |
|    \\/     M anipulation  |                                                 |
\*---------------------------------------------------------------------------*/
FoamFile
{
    version     2.0;
    format      ascii;
    arch        "LSB;label=32;scalar=64";
    class       volScalarField;
    location    "0.000123";
    object      p;
}
// * * * * * * * * * * * * * * * * * * * * * * * * * * * * * * * * * * * * * //

dimensions      [1 -1 -2 0 0 0 0];

internalField   nonuniform List<scalar> 
144746
(
205575
205779
205931
206148
206336
206528
206691
206821
206934
207011
207080
207122
207150
207098
205659
205885
206080
206314
206518
206729
206907
207046
207169
207255
207322
207341
207333
207278
205751
206012
206208
206445
206672
206895
207074
207220
207349
207437
207498
207511
207508
207446
205896
206153
206340
206589
206832
207069
207261
207426
207562
207653
207710
207714
207705
207623
205993
206241
206432
206704
206959
207210
207414
207586
207733
207830
207886
207878
207867
207774
206056
206323
206527
206815
207080
207345
207559
207739
207888
207990
208051
208039
208023
207925
206097
206375
206585
206881
207152
207434
207646
207838
207983
208106
208167
208150
208136
208038
206126
206409
206615
206911
207184
207469
207681
207880
208029
208170
208234
208226
208210
208126
206149
206428
206620
206910
207190
207465
207688
207886
208045
208192
208270
208272
208269
208193
206151
206426
206626
206906
207191
207443
207669
207862
208025
208167
208254
208256
208261
208197
206161
206414
206605
206869
207148
207403
207636
207842
208001
208130
208178
208186
208207
208153
206162
206395
206574
206820
207066
207294
207507
207701
207853
207971
208042
208059
208086
208062
206210
206405
206564
206803
207026
207237
207432
207611
207735
207829
207893
207911
207960
207951
206208
206387
206488
206699
206893
207086
207251
207399
207505
207586
207663
207700
207791
207772
204751
205263
205677
206169
206571
206927
207238
207471
207648
207761
207831
207787
207585
207156
205580
206103
206536
207018
207408
207719
207980
208167
208301
208362
208371
208278
208050
207601
206153
206659
207133
207620
208022
208322
208563
208718
208808
208818
208771
208652
208421
208023
206584
207161
207685
208171
208570
208854
209073
209201
209264
209268
209193
209035
208792
208379
206850
207531
208096
208598
209002
209306
209531
209661
209707
209644
209542
209372
209118
208699
207045
207801
208421
208950
209368
209691
209916
210034
210061
209982
209839
209616
209364
208955
207159
207980
208652
209173
209601
209936
210173
210303
210338
210227
210072
209830
209565
209147
207177
208057
208796
209326
209806
210149
210393
210512
210527
210402
210224
209964
209697
209275
207091
208041
208829
209347
209843
210200
210453
210580
210595
210466
210286
210024
209768
209352
206899
207888
208724
209262
209763
210128
210380
210510
210525
210405
210237
209990
209745
209351
206668
207727
208568
209122
209609
209968
210215
210349
210363
210251
210089
209862
209618
209256
206295
207386
208282
208883
209395
209755
209983
210084
210074
209969
209817
209611
209367
209045
205978
207027
207894
208494
209008
209370
209612
209738
209752
209658
209493
209260
209006
208672
205635
206642
207484
208077
208554
208861
209050
209127
209108
208994
208833
208589
208342
208022
208624
209606
210541
211347
212001
212588
213108
213575
213982
214269
214343
214179
213776
212768
210624
211543
212466
213266
213901
214450
214908
215285
215596
215774
215863
215653
215073
214062
212010
213110
214056
214868
215500
216033
216465
216794
217020
217097
216960
216652
216028
215053
212979
214243
215219
216076
216730
217261
217668
217956
218129
218156
217973
217573
216895
215904
213501
214945
216003
216950
217666
218227
218637
218910
219042
219018
218769
218292
217541
216397
213901
215336
216602
217609
218389
218967
219377
219636
219747
219684
219414
218914
218142
216979
214033
215555
216966
218036
218886
219502
219927
220187
220282
220194
219906
219372
218583
217396
213988
215647
217202
218342
219228
219856
220283
220548
220640
220534
220238
219686
218892
217695
213784
215598
217245
218471
219412
220081
220520
220789
220865
220733
220420
219851
219063
217865
213508
215445
217159
218444
219408
220097
220535
220802
220863
220713
220391
219822
219061
217878
213043
215101
216879
218211
219195
219901
220327
220578
220610
220436
220105
219544
218804
217731
212539
214668
216470
217825
218793
219464
219861
220078
220079
219886
219543
219000
218244
217327
211733
214015
215825
217115
218055
218725
219097
219267
219244
219039
218680
218144
217377
216509
210879
213461
215183
216440
217257
217677
217950
218058
218002
217771
217406
216865
216141
215032
207176
207021
207130
206902
207045
206883
207313
207121
207220
206975
207068
206979
207469
207285
207409
207155
207343
207225
207640
207445
207581
207334
207486
207353
207799
207608
207758
207505
207696
207584
207941
207753
207904
207666
207874
207754
208058
207883
208045
207831
208028
207819
208154
207991
208160
207965
208156
207958
208224
208060
208249
208084
208286
208112
208246
208100
208279
208101
208280
208096
208203
208080
208247
208073
208283
208146
208113
207996
208194
208003
208109
207976
207976
207862
208008
207873
208125
207972
207865
207716
207852
207613
207794
207682
206871
206211
206182
205582
205863
205061
207163
206347
206233
205627
205755
204912
207483
206605
206411
205743
205985
204949
207816
206877
206627
205909
206152
204911
208127
207171
206864
206135
206417
205128
208389
207429
207086
206361
206659
205324
208608
207687
207341
206634
206969
205557
208780
207931
207613
206955
207332
206007
208899
208151
207884
207287
207709
206463
208967
208328
208098
207525
207900
206761
208933
208359
208172
207612
207958
206991
208776
208224
208115
207556
207793
206970
208429
207803
207702
207242
207658
206893
207885
207272
207221
206692
206906
206225
211989
210087
208389
205107
203572
197790
212909
210838
208804
205267
202938
195521
213721
211545
209295
205262
202561
193535
214488
212198
209663
205255
202358
192166
214965
212643
210042
205515
202461
191662
215485
213132
210465
205892
202885
192154
215912
213557
210951
206505
203644
193601
216281
213958
211471
207264
204628
195801
216557
214276
211996
208121
205690
198105
216700
214517
212423
208893
206738
200227
216644
214540
212724
209514
207550
201470
216197
214212
212570
209530
207754
202145
215542
213436
211846
208802
207153
201415
213744
211654
210106
207034
205245
199425
207716
207663
207691
207514
207619
207537
207774
207593
207648
207397
207460
207298
207661
207459
207537
207252
207393
207205
207617
207377
207451
207164
207253
207019
207540
207284
207353
207017
207141
206862
207466
207180
207230
206924
207049
206785
207373
207082
207148
206841
206936
206671
207248
206966
207063
206773
206905
206552
207100
206835
206976
206715
206885
206560
206920
206677
206834
206624
206799
206507
206747
206529
206698
206497
206776
206426
206575
206388
206547
206356
206445
206250
206475
206313
206467
206276
206363
206152
206285
206199
206360
206085
206219
206068
207468
206751
206746
206281
206614
205898
207830
207018
206814
206158
206390
205442
207948
206985
206710
206011
206189
205010
208134
207038
206627
205822
206009
204626
208267
207110
206609
205757
205974
204546
208378
207193
206644
205772
205972
204491
208419
207272
206716
205851
206040
204424
208388
207341
206825
205970
206180
204649
208272
207350
206917
206089
206262
204872
208025
207160
206812
205922
206066
204853
207626
206822
206546
205758
205953
204791
207058
206147
205869
204979
205192
204213
206307
205361
205189
204383
204638
203698
205391
204446
204423
203610
203859
202927
213942
211326
209470
205892
203939
197153
214963
212538
210393
206418
203839
195306
215503
213045
210585
206205
203271
193212
215977
213462
210787
206165
203069
191908
216290
213747
210959
206200
203034
191450
216506
213973
211154
206422
203248
191959
216607
214093
211350
206793
203760
193339
216609
214146
211538
207227
204403
195260
216353
214021
211652
207687
205090
196914
215860
213611
211451
207868
205585
198188
215033
212828
210836
207414
205310
198157
213734
211510
209617
206236
204209
197047
212276
209754
207779
204129
202103
194728
209151
206429
204456
200966
199042
191139
205231
205412
205299
205432
205351
205541
205039
205228
205135
205332
205297
205574
205231
205442
205224
205405
205331
205652
205013
205221
205109
205436
205394
205767
205070
205299
205188
205527
205507
205881
204958
205263
205181
205520
205579
205969
204973
205320
205281
205619
205668
206015
204947
205373
205363
205709
205738
206046
205202
205543
205491
205804
205780
206061
205332
205664
205572
205876
205800
206071
205391
205750
205651
205977
205885
206101
205551
205848
205743
206072
205968
206127
205712
205960
205856
206197
206061
206163
205927
206150
206049
206283
206223
206223
201999
202820
202649
203466
203506
204504
202131
203066
203044
204028
204239
205212
202906
203985
203872
204658
204898
205749
203295
204343
204272
205162
205423
206132
203390
204525
204426
205252
205492
206297
203043
204299
204238
205095
205385
206350
202640
204005
203933
204822
205184
206313
202077
203624
203507
204470
204918
206209
201711
203335
203141
204168
204657
206039
201548
203129
202866
203921
204412
205837
201379
202943
202732
203777
204238
205602
201362
202894
202740
203692
204039
205313
201801
203154
202999
203933
204194
205245
202315
203413
203163
203766
203800
204717
191349
197836
199547
202657
204415
206811
194450
200404
202039
205343
207065
209396
197248
202463
204024
206807
208419
210549
197945
203112
204648
207557
209300
211559
197742
202986
204546
207551
209448
211915
196107
202022
203716
207095
209302
211898
193822
200867
202678
206436
208910
211725
191108
199653
201603
205749
208509
211512
188544
198573
200685
205115
208096
211245
186452
197699
199998
204584
207693
210922
185204
197169
199609
204235
207340
210539
185053
196947
199420
203909
206985
210097
186269
197277
199691
203929
206696
209731
188110
197283
199536
203337
205712
208730
206729
206840
206743
206910
206872
207042
206711
206923
206803
206991
206921
207069
206618
206786
206645
206888
206813
207032
206643
206823
206670
206889
206756
206990
206457
206681
206559
206793
206701
206939
206367
206590
206492
206714
206644
206867
206173
206471
206374
206603
206532
206769
206069
206387
206281
206507
206408
206646
205987
206254
206149
206393
206273
206501
205898
206123
205964
206244
206105
206318
205635
205944
205799
206085
205915
206142
205456
205720
205583
205889
205731
205937
205391
205620
205470
205746
205572
205791
205191
205423
205341
205544
205453
205549
205111
205615
205439
205967
206173
206854
205375
206022
205938
206540
206712
207360
205180
205952
205881
206585
206832
207472
205019
205912
205838
206541
206848
207472
204705
205681
205582
206253
206515
207274
204242
205342
205162
205836
206165
207050
203617
204864
204606
205346
205721
206744
202885
204334
204066
204876
205265
206413
202276
203814
203561
204471
204841
206056
201909
203432
203137
204078
204415
205686
201547
203083
202806
203789
204074
205344
201282
202726
202508
203457
203763
204886
201479
202742
202534
203513
203706
204732
201483
202522
202279
203023
203090
204072
199875
204355
205835
208440
209709
211353
201706
205854
207219
209613
210974
212823
202124
206068
207335
209737
211112
212958
201061
205161
206506
209088
210728
212831
199390
203961
205356
208241
210080
212426
196853
202359
203870
207187
209289
211910
193876
200771
202396
206106
208477
211359
190958
199341
201097
205111
207735
210811
188351
198066
200020
204265
207071
210254
186399
197050
199183
203554
206447
209666
185268
196325
198642
203041
205897
209061
185218
195912
198301
202593
205341
208385
186489
196174
198410
202413
204885
207774
188230
196039
198094
201669
203829
206665
217365
217349
217904
218081
218322
218427
218626
218823
219130
219484
219884
220286
220830
220858
218876
219017
219368
219598
219801
219952
220171
220388
220682
220975
221217
221430
221631
221486
219159
219814
220302
220662
220937
221165
221400
221607
221836
222041
222168
222273
222251
222072
219612
220436
221022
221503
221852
222137
222379
222578
222765
222920
222989
223011
222839
222517
219790
220774
221518
222110
222548
222886
223149
223347
223505
223616
223629
223570
223307
222920
219840
221054
221925
222608
223122
223507
223786
223980
224114
224189
224160
224036
223714
223241
219917
221251
222240
223005
223584
224008
224302
224493
224608
224652
224582
224413
224058
223538
220046
221456
222530
223355
223978
224430
224735
224925
225026
225042
224936
224730
224351
223788
220178
221626
222758
223626
224276
224744
225057
225246
225340
225336
225207
224975
224596
224020
220380
221844
222972
223846
224498
224975
225297
225484
225571
225551
225410
225164
224801
224231
220457
221985
223104
223982
224627
225087
225400
225578
225661
225638
225504
225267
224948
224437
220667
222220
223260
224079
224668
225085
225370
225527
225605
225591
225479
225270
224984
224556
220479
222287
223260
224052
224595
224953
225194
225323
225391
225392
225319
225177
224948
224712
220897
222634
223407
224046
224428
224659
224834
224939
225008
225034
224993
224888
224644
224461
223661
223364
223541
223407
223362
223218
223223
223330
223639
224064
224575
225210
226017
226417
224642
224538
224571
224564
224541
224512
224605
224765
225072
225463
225882
226404
226806
227101
224481
224982
225232
225363
225481
225594
225752
225928
226185
226492
226780
227147
227381
227554
224762
225327
225728
226051
226280
226475
226661
226850
227081
227334
227552
227809
227908
227929
224733
225578
226138
226575
226909
227182
227413
227619
227830
228032
228185
228324
228320
228240
224703
225747
226474
227035
227470
227807
228067
228280
228466
228624
228727
228777
228684
228491
224810
225955
226808
227458
227965
228348
228631
228845
229008
229127
229180
229161
229008
228735
225052
226243
227173
227878
228423
228834
229131
229344
229489
229579
229592
229517
229314
228969
225383
226569
227535
228270
228834
229258
229562
229773
229907
229976
229961
229852
229627
229240
225877
227008
227934
228650
229202
229622
229922
230127
230253
230312
230285
230163
229946
229547
226262
227414
228307
228997
229521
229916
230202
230398
230520
230580
230558
230445
230264
229890
226878
227960
228714
229329
229797
230143
230397
230575
230698
230770
230773
230694
230560
230230
226990
228394
229031
229598
229997
230257
230465
230618
230745
230842
230891
230884
230828
230665
227880
229016
229399
229816
230095
230226
230381
230522
230670
230819
230919
230971
230931
230782
228589
228224
228086
227840
227656
227433
227359
227392
227647
228057
228564
229181
230133
230764
229085
228959
228763
228578
228440
228337
228343
228451
228702
229099
229550
230246
230830
231332
228832
229140
229091
229062
229084
229107
229179
229306
229529
229860
230200
230710
231117
231560
228895
229312
229470
229580
229654
229732
229843
229995
230216
230513
230814
231232
231577
231869
228942
229472
229749
229966
230139
230283
230433
230603
230819
231077
231330
231639
231887
232111
228978
229637
230067
230382
230622
230810
230981
231156
231358
231582
231797
232032
232212
232349
229152
229885
230414
230797
231088
231311
231499
231677
231862
232052
232229
232404
232525
232598
229478
230245
230829
231251
231569
231813
232011
232188
232358
232520
232665
232793
232867
232873
229892
230655
231264
231711
232049
232309
232516
232690
232848
232991
233110
233207
233247
233201
230502
231221
231792
232220
232552
232810
233014
233181
233329
233459
233564
233640
233665
233576
231053
231786
232326
232737
233057
233301
233496
233654
233797
233927
234034
234104
234148
234020
231855
232530
232943
233291
233573
233774
233948
234096
234241
234382
234500
234580
234671
234505
232297
233182
233538
233837
234054
234193
234339
234478
234631
234799
234946
235064
235225
235069
233451
234066
234077
234292
234447
234517
234644
234786
234960
235174
235361
235523
235666
235585
231387
230941
230733
230415
230196
229988
229921
229965
230208
230593
231055
231753
232658
233274
231725
231455
231246
230984
230838
230726
230731
230843
231101
231496
231954
232579
233177
233687
231542
231574
231529
231413
231393
231382
231445
231582
231814
232146
232499
232988
233468
234038
231679
231789
231830
231864
231894
231944
232047
232204
232438
232745
233070
233489
233858
234215
231587
231960
232127
232254
232361
232467
232606
232781
233009
233279
233555
233880
234159
234471
231678
232159
232460
232671
232837
232984
233144
233326
233542
233781
234023
234284
234503
234711
231890
232434
232820
233100
233315
233496
233673
233859
234061
234272
234480
234687
234849
234996
232251
232823
233258
233579
233824
234026
234211
234394
234582
234771
234950
235111
235223
235301
232680
233267
233731
234082
234349
234564
234751
234928
235103
235274
235433
235564
235651
235673
233320
233870
234305
234645
234908
235115
235294
235458
235621
235780
235928
236039
236121
236081
233929
234499
234907
235236
235480
235666
235827
235975
236128
236283
236431
236535
236645
236547
234785
235277
235578
235860
236065
236208
236341
236472
236622
236783
236944
237052
237213
237060
235442
236063
236268
236493
236624
236705
236807
236925
237079
237261
237449
237575
237802
237668
236585
236985
236965
237042
237119
237140
237219
237337
237505
237723
237940
238121
238327
238330
232949
232470
232290
231956
231754
231567
231515
231565
231789
232132
232551
233201
233914
234519
233264
232914
232722
232461
232322
232218
232224
232329
232564
232912
233327
233850
234403
234894
233129
233041
233003
232857
232824
232795
232853
232979
233187
233484
233814
234252
234736
235266
233277
233282
233303
233284
233290
233317
233410
233548
233756
234035
234341
234721
235085
235472
233235
233468
233587
233664
233738
233813
233935
234087
234289
234536
234796
235098
235383
235715
233345
233702
233926
234073
234198
234311
234451
234610
234805
235026
235256
235510
235742
235985
233575
233997
234294
234504
234670
234815
234969
235134
235319
235518
235718
235925
236105
236282
233948
234403
234740
234989
235178
235342
235501
235664
235840
236020
236198
236365
236500
236602
234389
234865
235224
235503
235710
235883
236041
236199
236365
236532
236697
236836
236949
236984
235017
235471
235800
236071
236270
236435
236584
236732
236890
237051
237210
237326
237436
237406
235628
236100
236395
236662
236845
236991
237123
237261
237414
237569
237727
237828
237964
237881
236438
236860
237073
237286
237433
237543
237652
237778
237929
238085
238251
238342
238526
238399
237120
237605
237709
237899
237988
238055
238146
238262
238416
238585
238769
238864
239096
239031
238215
238502
238466
238499
238528
238550
238619
238727
238886
239080
239288
239446
239655
239749
233662
233228
233077
232770
232602
232464
232441
232516
232732
233051
233440
233979
234568
235107
233914
233613
233460
233234
233125
233056
233081
233203
233425
233751
234115
234569
235045
235485
233858
233761
233732
233617
233598
233595
233668
233801
234003
234276
234574
234967
235395
235865
234031
234009
234054
234028
234060
234106
234213
234358
234560
234814
235091
235428
235750
236144
234074
234238
234355
234432
234520
234613
234746
234900
235093
235313
235544
235808
236073
236376
234236
234516
234711
234856
234993
235124
235275
235437
235621
235820
236025
236252
236463
236693
234497
234844
235100
235305
235479
235642
235806
235972
236148
236325
236504
236687
236851
237013
234880
235268
235555
235794
235990
236170
236340
236506
236673
236837
236997
237146
237273
237361
235322
235737
236040
236304
236513
236701
236872
237033
237195
237350
237500
237622
237729
237753
235920
236320
236601
236855
237051
237230
237391
237546
237706
237859
238008
238104
238208
238171
236509
236920
237165
237412
237590
237748
237895
238043
238204
238358
238508
238583
238713
238627
237261
237631
237809
238005
238144
238268
238390
238527
238689
238842
238998
239058
239232
239121
237927
238320
238395
238571
238663
238749
238851
238979
239140
239300
239471
239537
239742
239707
238938
239151
239104
239158
239177
239222
239306
239422
239573
239741
239931
240058
240249
240377
234099
233738
233612
233364
233222
233106
233085
233143
233316
233596
233937
234386
234886
235371
234319
234080
233954
233780
233693
233641
233662
233759
233942
234219
234532
234919
235341
235749
234317
234243
234222
234147
234141
234145
234211
234321
234488
234717
234978
235315
235694
236121
234505
234497
234546
234539
234586
234640
234740
234865
235032
235244
235481
235767
236059
236425
234608
234743
234860
234942
235039
235138
235263
235398
235556
235737
235930
236155
236397
236680
234810
235039
235218
235361
235504
235639
235784
235926
236078
236240
236411
236603
236794
237010
235092
235378
235604
235798
235974
236142
236300
236448
236592
236735
236884
237038
237187
237340
235481
235800
236043
236266
236460
236642
236807
236955
237095
237227
237362
237487
237605
237689
235914
236255
236505
236747
236947
237134
237298
237445
237583
237713
237842
237944
238044
238064
236474
236799
237024
237256
237440
237616
237770
237914
238055
238185
238313
238392
238493
238466
237022
237361
237556
237777
237938
238091
238230
238368
238508
238637
238766
238830
238955
238896
237710
238012
238146
238322
238445
238568
238686
238813
238949
239076
239213
239264
239430
239355
238340
238657
238711
238853
238944
239036
239131
239243
239372
239504
239653
239720
239899
239885
239254
239409
239338
239412
239451
239508
239580
239673
239789
239923
240087
240218
240380
240535
234353
234052
233940
233737
233611
233512
233489
233528
233667
233901
234196
234576
235012
235463
234556
234363
234262
234129
234056
234011
234022
234092
234243
234472
234742
235081
235457
235832
234603
234546
234532
234488
234482
234488
234533
234618
234756
234946
235176
235474
235811
236213
234806
234810
234859
234868
234913
234964
235043
235142
235279
235455
235664
235913
236193
236519
234956
235071
235181
235257
235348
235439
235543
235650
235778
235927
236097
236296
236514
236818
235187
235375
235531
235662
235792
235913
236035
236150
236273
236409
236563
236736
236917
237117
235473
235712
235904
236078
236237
236386
236521
236643
236761
236882
237015
237155
237300
237451
235845
236111
236316
236516
236691
236857
236998
237118
237232
237343
237463
237576
237692
237783
236250
236538
236746
236966
237150
237320
237458
237575
237685
237788
237900
237992
238098
238140
236759
237033
237221
237439
237610
237769
237897
238007
238115
238217
238328
238402
238510
238513
237267
237555
237724
237930
238078
238213
238321
238424
238531
238636
238749
238810
238939
238912
237894
238149
238269
238437
238548
238653
238743
238838
238942
239046
239167
239220
239385
239350
238502
238763
238815
238950
239026
239102
239168
239248
239344
239452
239583
239655
239828
239861
239337
239465
239405
239482
239516
239558
239598
239660
239745
239856
240004
240136
240299
240471
234668
234408
234306
234135
234023
233935
233913
233928
234029
234219
234467
234781
235154
235562
234881
234723
234643
234537
234468
234423
234424
234462
234574
234754
234980
235265
235591
235927
234965
234931
234936
234911
234900
234894
234916
234970
235072
235218
235409
235653
235940
236298
235167
235200
235270
235300
235332
235363
235412
235478
235577
235710
235878
236081
236321
236597
235340
235465
235593
235674
235750
235815
235884
235955
236044
236153
236287
236444
236633
236912
235565
235757
235924
236053
236161
236252
236335
236412
236494
236590
236707
236846
236999
237192
235832
236072
236267
236432
236562
236671
236757
236836
236915
237002
237107
237220
237352
237502
236171
236436
236637
236821
236957
237075
237165
237244
237321
237401
237496
237590
237704
237806
236548
236830
237027
237219
237356
237476
237564
237639
237713
237788
237879
237961
238068
238131
237018
237287
237455
237636
237760
237871
237950
238020
238092
238167
238260
238332
238443
238474
237506
237774
237911
238076
238176
238267
238332
238395
238466
238544
238642
238705
238837
238847
238096
238310
238397
238524
238594
238665
238715
238771
238839
238918
239026
239089
239251
239255
238671
238874
238896
238996
239040
239086
239109
239151
239214
239298
239416
239497
239671
239739
239417
239502
239433
239488
239491
239508
239506
239533
239594
239683
239822
239953
240126
240307
216585
216170
215885
216292
218620
220658
215778
214661
213851
213828
215927
218239
216193
214484
213290
212727
214253
216552
216168
214139
212467
211330
212268
214328
216338
213948
211895
210261
210597
212245
216450
213933
211660
209696
209588
210860
216702
214104
211799
209755
209413
210418
217081
214563
212483
210535
210136
210874
217638
215297
213612
211979
211811
212608
218257
216246
215091
213921
214155
215207
218914
217479
216864
216120
216760
217992
219434
218612
218464
218170
219295
220739
220365
219898
219947
219901
221476
223069
219839
219901
219991
220457
222608
224656
223623
223937
224073
224652
226011
227178
222127
222009
222087
222555
223875
225162
222256
221310
220879
221040
222093
223174
221834
220479
219520
219099
219748
220528
221639
219765
218235
217172
217283
217484
221410
219276
217389
215836
215492
215185
221365
219052
216965
215172
214545
213996
221541
219216
217156
215346
214659
214029
222082
219925
218063
216429
215921
215388
222828
220914
219544
218341
218243
217773
223708
222189
221444
220694
221020
220693
224620
223664
223392
223091
223823
223700
225734
225270
225389
225436
226467
226582
225492
225713
226093
226703
228122
228934
229115
229618
229596
229678
230238
231086
227408
227568
227738
227949
228422
229120
227269
226835
226454
226145
226290
226703
226731
225730
224862
224154
223880
223862
226411
225042
223643
222276
221279
220582
226069
224362
222640
220891
219445
218252
225952
224043
222129
220076
218383
216957
226028
224105
222221
220104
218448
216983
226439
224662
222920
220980
219661
218435
227108
225640
224246
222781
221910
221052
227997
226779
225930
225020
224656
224330
228977
228065
227827
227434
227515
227644
230147
229692
229872
229878
230352
230746
230198
230431
230745
231316
232204
233132
232012
232704
232925
232992
233129
233413
230462
230741
231056
231425
231733
231887
230210
230132
229945
229770
229730
229495
229568
228985
228396
227807
227243
226856
229212
228232
227118
225914
224708
223537
228890
227568
226093
224420
222723
220988
228775
227221
225507
223482
221385
219211
228847
227204
225484
223373
221227
219015
229215
227623
226053
224059
222261
220305
229807
228464
227222
225604
224332
222780
230566
229551
228682
227651
226902
225898
231411
230748
230343
229846
229552
229117
232503
232184
232256
232183
232297
232233
232853
233072
233263
233663
234181
234640
233361
233870
234096
234216
234361
234620
232079
232305
232488
232783
233048
233221
231846
231845
231613
231395
231170
231006
231223
230799
230242
229638
229057
228447
230905
230095
229087
227888
226612
225335
230619
229504
228151
226524
224731
222947
230520
229209
227619
225710
223458
221194
230576
229203
227551
225621
223272
220932
230883
229579
228044
226279
224182
222122
231409
230282
229077
227540
226066
224458
232034
231139
230324
229309
228418
227313
232776
232183
231758
231228
230835
230314
233709
233452
233439
233346
233342
233265
234174
234365
234475
234757
235109
235503
233959
234380
234590
234786
234997
235290
232907
233091
233212
233462
233758
233938
232724
232727
232547
232369
232177
231957
232153
231807
231339
230852
230317
229835
231884
231228
230401
229391
228217
226979
231652
230732
229613
228196
226547
224786
231584
230493
229182
227487
225543
223217
231654
230491
229119
227365
225382
222903
231937
230824
229488
227940
226040
223932
232417
231450
230333
228970
227564
226073
232932
232140
231392
230444
229582
228564
233563
233048
232642
232113
231722
231259
234346
234090
234066
233938
233933
233888
234798
234943
235033
235253
235550
235896
234339
234666
234842
235035
235257
235575
233459
233591
233683
233884
234147
234406
233303
233294
233151
233021
232874
232713
232828
232526
232126
231732
231277
230778
232596
232040
231353
230543
229533
228441
232400
231624
230689
229549
228110
226576
232345
231433
230333
228984
227276
225402
232395
231433
230271
228874
227131
225116
232617
231692
230584
229237
227700
225786
233025
232238
231299
230134
228890
227539
233450
232809
232150
231353
230566
229666
233995
233573
233202
232745
232386
231958
234664
234441
234406
234274
234279
234238
235083
235199
235281
235456
235719
236016
234542
234800
234952
235124
235325
235608
233807
233901
233978
234146
234369
234596
233666
233643
233537
233449
233365
233246
233269
233004
232684
232373
232045
231613
233064
232594
232050
231421
230673
229721
232896
232238
231482
230579
229487
228115
232846
232074
231185
230096
228806
227197
232877
232063
231130
229972
228624
227023
233053
232262
231373
230254
229044
227427
233390
232728
231980
231022
229976
228751
233743
233209
232661
231998
231319
230516
234216
233857
233536
233153
232836
232448
234803
234596
234556
234439
234442
234398
235194
235286
235361
235505
235731
235981
234786
234979
235089
235222
235376
235615
234158
234200
234238
234349
234517
234699
234026
233954
233837
233741
233673
233586
233698
233425
233130
232850
232594
232264
233518
233072
232594
232066
231490
230749
233374
232777
232124
231362
230495
229380
233326
232633
231871
230946
229921
228574
233333
232612
231824
230856
229796
228370
233459
232761
232009
231087
230064
228829
233733
233144
232516
231730
230861
229843
234032
233554
233078
232516
231947
231267
234439
234111
233821
233488
233207
232860
234948
234749
234696
234580
234566
234507
235300
235359
235417
235526
235713
235903
221142
221260
221674
222129
224348
226080
221084
220811
220713
221095
223343
225518
221619
221075
220860
220887
222869
225154
221923
221102
220531
220099
221769
224091
222225
221173
220399
219634
220912
223144
222443
221249
220335
219283
220163
222091
222701
221419
220427
219177