/*--------------------------------*- C++ -*----------------------------------*\
| =========                 |                                                 |
| \\      /  F ield         | OpenFOAM: The Open Source CFD Toolbox           |
|  \\    /   O peration     | Version:  v2106                                 |
|   \\  /    A nd           | Website:  www.openfoam.com                      |
|    \\/     M anipulation  |                                                 |
\*---------------------------------------------------------------------------*/
FoamFile
{
    version     2.0;
    format      ascii;
    arch        "LSB;label=32;scalar=64";
    class       volScalarField;
    location    "0.000123";
    object      T;
}
// * * * * * * * * * * * * * * * * * * * * * * * * * * * * * * * * * * * * * //

dimensions      [0 0 0 1 0 0 0];

internalField   nonuniform List<scalar> 
144746
(
295.481
295.276
295.096
294.976
294.885
294.826
294.774
294.728
294.698
294.685
294.715
294.789
294.916
295.102
295.106
294.776
294.558
294.437
294.361
294.322
294.293
294.273
294.271
294.285
294.333
294.415
294.575
294.871
294.824
294.46
294.21
294.083
294.016
293.985
293.963
293.952
293.966
293.998
294.057
294.15
294.34
294.67
294.666
294.282
294.018
293.896
293.834
293.803
293.781
293.774
293.792
293.836
293.9
293.997
294.193
294.514
294.584
294.181
293.919
293.802
293.738
293.706
293.683
293.673
293.689
293.733
293.801
293.897
294.093
294.403
294.555
294.143
293.878
293.759
293.691
293.66
293.639
293.63
293.64
293.679
293.75
293.846
294.039
294.342
294.551
294.129
293.855
293.728
293.659
293.633
293.613
293.61
293.613
293.654
293.724
293.818
294.012
294.312
294.565
294.129
293.842
293.708
293.64
293.62
293.602
293.602
293.602
293.646
293.716
293.812
294.003
294.307
294.597
294.139
293.835
293.694
293.629
293.609
293.598
293.598
293.603
293.649
293.724
293.825
294.022
294.33
294.646
294.166
293.843
293.692
293.629
293.603
293.595
293.594
293.607
293.657
293.738
293.841
294.045
294.362
294.726
294.222
293.874
293.708
293.641
293.618
293.614
293.619
293.638
293.694
293.765
293.872
294.084
294.41
294.835
294.325
293.965
293.783
293.698
293.663
293.652
293.657
293.684
293.748
293.835
293.949
294.163
294.498
295.002
294.525
294.179
293.981
293.873
293.828
293.815
293.826
293.857
293.923
294.015
294.133
294.341
294.65
295.22
294.857
294.52
294.303
294.169
294.112
294.093
294.104
294.137
294.205
294.313
294.447
294.642
294.849
295.967
296.006
296.034
296.143
296.239
296.317
296.374
296.396
296.401
296.399
296.415
296.427
296.431
296.413
295.998
295.945
295.942
296.026
296.121
296.194
296.25
296.282
296.305
296.317
296.323
296.319
296.345
296.421
295.999
295.907
295.897
295.964
296.055
296.129
296.192
296.233
296.262
296.266
296.26
296.266
296.317
296.448
296.051
295.972
295.956
295.996
296.064
296.129
296.195
296.245
296.281
296.294
296.289
296.295
296.355
296.485
296.157
296.076
296.034
296.048
296.092
296.157
296.238
296.313
296.352
296.346
296.344
296.355
296.416
296.539
296.302
296.197
296.13
296.126
296.157
296.228
296.32
296.403
296.439
296.429
296.419
296.413
296.474
296.598
296.424
296.314
296.23
296.199
296.226
296.299
296.4
296.49
296.53
296.512
296.5
296.486
296.54
296.656
296.497
296.397
296.326
296.285
296.326
296.401
296.503
296.585
296.617
296.597
296.578
296.555
296.604
296.711
296.522
296.431
296.372
296.323
296.369
296.449
296.551
296.633
296.664
296.644
296.626
296.604
296.658
296.765
296.51
296.415
296.369
296.324
296.37
296.451
296.551
296.633
296.664
296.644
296.63
296.616
296.676
296.796
296.493
296.416
296.378
296.341
296.379
296.456
296.552
296.636
296.665
296.643
296.624
296.615
296.675
296.809
296.431
296.375
296.378
296.37
296.421
296.499
296.586
296.65
296.666
296.644
296.627
296.625
296.681
296.829
296.419
296.387
296.406
296.419
296.484
296.568
296.656
296.723
296.743
296.726
296.711
296.701
296.741
296.856
296.448
296.51
296.557
296.566
296.623
296.693
296.763
296.807
296.815
296.8
296.798
296.788
296.808
296.834
298
298.23
298.498
298.724
298.883
299.013
299.116
299.197
299.252
299.277
299.258
299.204
299.151
298.997
298.309
298.408
298.667
298.923
299.115
299.266
299.378
299.459
299.519
299.54
299.552
299.488
299.389
299.324
298.559
298.718
298.932
299.164
299.355
299.518
299.646
299.741
299.804
299.82
299.773
299.707
299.636
299.608
298.804
299.023
299.206
299.409
299.588
299.752
299.89
299.995
300.065
300.084
300.038
299.968
299.9
299.869
299.01
299.265
299.434
299.634
299.814
299.987
300.138
300.256
300.323
300.333
300.28
300.195
300.102
300.008
299.262
299.456
299.656
299.848
300.034
300.21
300.368
300.491
300.553
300.551
300.499
300.41
300.306
300.198
299.438
299.624
299.836
300.021
300.217
300.403
300.567
300.693
300.751
300.741
300.683
300.58
300.464
300.333
299.544
299.752
299.993
300.179
300.372
300.554
300.716
300.845
300.902
300.887
300.826
300.713
300.584
300.431
299.599
299.818
300.067
300.273
300.481
300.677
300.842
300.969
301.019
300.991
300.922
300.801
300.666
300.496
299.629
299.845
300.087
300.302
300.517
300.719
300.882
301.008
301.051
301.015
300.941
300.817
300.684
300.507
299.591
299.802
300.052
300.281
300.502
300.71
300.868
300.987
301.019
300.973
300.893
300.767
300.634
300.489
299.555
299.739
300
300.254
300.478
300.681
300.83
300.933
300.953
300.9
300.815
300.69
300.544
300.452
299.413
299.635
299.928
300.179
300.406
300.612
300.756
300.845
300.859
300.813
300.733
300.613
300.45
300.362
299.305
299.732
299.98
300.211
300.404
300.52
300.642
300.724
300.74
300.705
300.647
300.541
300.385
300.149
295.475
295.751
296.085
296.161
296.316
296.298
295.347
295.696
296.081
296.209
296.38
296.408
295.182
295.634
296.141
296.355
296.6
296.605
295.049
295.58
296.199
296.512
296.806
296.791
294.954
295.547
296.252
296.632
296.969
296.957
294.896
295.521
296.267
296.683
297.029
297.014
294.867
295.501
296.254
296.68
297.017
296.966
294.858
295.479
296.205
296.618
296.941
296.896
294.872
295.449
296.13
296.517
296.823
296.808
294.893
295.43
296.039
296.366
296.645
296.668
294.92
295.413
295.955
296.233
296.515
296.585
294.984
295.41
295.893
296.133
296.383
296.467
295.084
295.426
295.833
296.061
296.353
296.418
295.202
295.458
295.821
295.954
296.213
296.297
296.541
296.503
296.761
296.798
297.104
296.869
296.603
296.575
296.885
297.009
297.309
297.076
296.641
296.685
297.067
297.24
297.619
297.298
296.693
296.789
297.224
297.427
297.843
297.418
296.755
296.892
297.341
297.545
297.957
297.511
296.824
296.98
297.402
297.557
297.944
297.472
296.893
297.069
297.445
297.519
297.882
297.371
296.958
297.148
297.473
297.464
297.803
297.326
297.012
297.202
297.487
297.433
297.766
297.329
297.055
297.249
297.501
297.414
297.707
297.328
297.077
297.258
297.499
297.402
297.659
297.376
297.091
297.231
297.469
297.364
297.574
297.36
297.093
297.115
297.316
297.269
297.572
297.372
297.021
296.982
297.19
297.17
297.401
297.215
299.079
298.872
298.97
298.269
297.931
295.528
299.399
299.251
299.326
298.571
297.973
294.941
299.645
299.532
299.604
298.697
297.981
294.3
299.877
299.749
299.749
298.692
297.87
293.706
300.016
299.87
299.81
298.66
297.704
293.235
300.175
299.992
299.838
298.583
297.54
293.067
300.293
300.074
299.882
298.589
297.475
293.248
300.391
300.144
299.944
298.69
297.59
293.867
300.465
300.196
300.045
298.921
297.931
294.73
300.504
300.259
300.189
299.25
298.463
295.698
300.496
300.273
300.333
299.603
298.937
296.363
300.438
300.254
300.399
299.757
299.176
296.752
300.456
300.211
300.383
299.741
299.208
296.705
300.067
299.842
300.061
299.407
298.768
296.165
295.167
295.477
295.798
295.976
296.233
296.319
295.096
295.446
295.838
296.018
296.262
296.319
294.947
295.381
295.858
296.071
296.355
296.398
294.834
295.33
295.883
296.15
296.426
296.438
294.739
295.283
295.898
296.189
296.476
296.449
294.681
295.245
295.886
296.212
296.495
296.458
294.657
295.225
295.874
296.201
296.462
296.418
294.648
295.21
295.859
296.172
296.413
296.336
294.665
295.208
295.84
296.131
296.355
296.291
294.711
295.22
295.812
296.093
296.302
296.253
294.829
295.285
295.824
296.069
296.311
296.239
295.036
295.438
295.896
296.08
296.231
296.224
295.352
295.7
296.073
296.19
296.34
296.309
295.616
295.942
296.272
296.346
296.514
296.482
296.901
296.827
297.069
297.19
297.516
297.301
296.996
296.971
297.236
297.298
297.622
297.345
296.973
296.996
297.299
297.372
297.72
297.377
296.987
297.031
297.339
297.371
297.726
297.315
296.991
297.065
297.36
297.344
297.697
297.255
297.008
297.086
297.354
297.287
297.608
297.12
297.007
297.09
297.329
297.217
297.5
296.948
296.976
297.086
297.31
297.161
297.431
296.906
296.917
297.059
297.297
297.139
297.369
296.921
296.85
296.979
297.237
297.058
297.268
296.915
296.798
296.891
297.138
297.013
297.277
296.955
296.774
296.755
296.977
296.843
297.125
296.869
296.753
296.688
296.978
296.955
297.26
296.985
296.635
296.559
297.004
297.089
297.422
297.101
300.243
299.928
300.107
299.286
298.583
295.626
300.548
300.381
300.536
299.621
298.874
295.268
300.621
300.472
300.553
299.585
298.772
294.591
300.69
300.526
300.543
299.487
298.632
293.993
300.716
300.528
300.475
299.317
298.351
293.502
300.731
300.517
300.378
299.141
298.088
293.337
300.711
300.466
300.281
299.041
297.972
293.555
300.643
300.386
300.222
299.054
298.047
294.155
300.488
300.26
300.194
299.204
298.319
294.854
300.305
300.097
300.145
299.341
298.648
295.548
300.113
299.934
300.054
299.387
298.84
295.827
299.907
299.752
299.927
299.27
298.737
295.702
299.851
299.608
299.802
298.988
298.421
295.249
299.16
298.835
298.996
298.191
297.681
294.32
296.399
296.483
296.386
296.319
296.085
295.84
296.192
296.281
296.206
296.172
295.885
295.576
296.252
296.342
296.208
296.11
295.725
295.343
296.15
296.241
296.14
296.077
295.657
295.224
296.197
296.314
296.211
296.138
295.691
295.193
296.219
296.375
296.301
296.22
295.757
295.209
296.342
296.505
296.455
296.373
295.867
295.244
296.476
296.663
296.62
296.536
295.981
295.291
296.728
296.875
296.8
296.675
296.065
295.34
296.867
297.019
296.91
296.753
296.111
295.392
296.899
297.07
296.943
296.772
296.148
295.459
296.912
297.053
296.904
296.718
296.149
295.532
296.844
296.946
296.764
296.603
296.121
295.618
296.698
296.777
296.595
296.44
296.102
295.704
296.599
296.87
296.588
296.522
296.068
296.144
296.273
296.554
296.326
296.415
296.137
296.208
296.337
296.67
296.425
296.484
296.227
296.207
296.36
296.687
296.501
296.657
296.405
296.27
296.302
296.707
296.544
296.703
296.469
296.373
296.117
296.608
296.52
296.685
296.483
296.481
296.021
296.575
296.521
296.691
296.511
296.559
296.023
296.652
296.568
296.726
296.542
296.616
296.223
296.877
296.702
296.797
296.566
296.638
296.53
297.146
296.87
296.859
296.562
296.638
296.762
297.357
297.043
296.928
296.559
296.622
296.978
297.533
297.19
296.961
296.51
296.574
297.213
297.686
297.302
297.054
296.571
296.609
297.238
297.638
297.256
296.919
296.382
296.44
293.935
296.546
296.762
297.439
297.379
297.731
294.562
296.977
297.295
298.082
297.981
298.318
295.19
297.27
297.607
298.183
298.091
298.367
294.972
297.061
297.5
298.229
298.25
298.607
294.522
296.661
297.173
298.061
298.288
298.793
293.428
295.955
296.631
297.821
298.305
298.903
292.267
295.358
296.235
297.666
298.295
298.983
291.35
295.124
296.064
297.641
298.352
299.072
290.826
295.214
296.076
297.69
298.438
299.157
290.608
295.474
296.25
297.826
298.553
299.234
290.737
295.873
296.582
298.077
298.718
299.304
291.316
296.375
297.009
298.384
298.905
299.376
292.385
296.989
297.569
298.777
299.085
299.487
293.39
297.224
297.788
298.705
298.762
299.187
296.226
296.225
296.111
295.998
295.698
295.436
296.266
296.312
296.189
296.062
295.709
295.36
296.31
296.348
296.217
296.09
295.688
295.29
296.439
296.503
296.368
296.217
295.744
295.269
296.53
296.621
296.507
296.362
295.854
295.298
296.69
296.774
296.681
296.546
296.006
295.366
296.826
296.937
296.845
296.718
296.148
295.451
296.995
297.117
297.015
296.871
296.267
295.535
297.135
297.241
297.13
296.97
296.353
295.609
297.216
297.308
297.162
297.003
296.401
295.673
297.145
297.289
297.146
296.994
296.418
295.751
297.014
297.149
297.012
296.897
296.402
295.832
296.862
296.973
296.836
296.741
296.34
295.925
296.595
296.701
296.608
296.521
296.235
295.926
296.679
296.803
296.595
296.607
296.45
296.515
296.694
296.878
296.743
296.846
296.663
296.667
296.573
296.824
296.727
296.89
296.716
296.652
296.511
296.847
296.749
296.905
296.738
296.634
296.414
296.815
296.745
296.877
296.68
296.597
296.329
296.805
296.745
296.866
296.678
296.606
296.307
296.843
296.748
296.86
296.653
296.596
296.36
296.967
296.819
296.892
296.621
296.572
296.526
297.145
296.928
296.946
296.576
296.521
296.762
297.35
297.037
296.945
296.481
296.447
296.904
297.469
297.093
296.935
296.393
296.371
296.957
297.459
297.046
296.83
296.296
296.243
297.04
297.451
297.023
296.831
296.264
296.271
296.813
297.17
296.801
296.54
296.005
296.048
295.883
297.806
298.236
298.79
298.594
298.762
296.307
298.088
298.531
299.056
298.975
299.212
296.125
297.833
298.307
298.888
298.855
299.128
295.413
297.182
297.71
298.472
298.636
299.045
294.379
296.372
297.052
298.083
298.431
298.95
293.087
295.56
296.444
297.781
298.278
298.887
291.91
295.045
296.046
297.571
298.158
298.824
291.093
294.876
295.846
297.425
298.06
298.754
290.615
294.934
295.786
297.333
297.977
298.672
290.501
295.146
295.834
297.286
297.903
298.579
290.779
295.486
295.984
297.29
297.854
298.487
291.502
295.906
296.164
297.292
297.8
298.366
292.487
296.343
296.423
297.398
297.79
298.282
293.185
296.278
296.378
297.181
297.388
297.86
300.929
300.846
300.971
300.916
300.884
300.815
300.79
300.769
300.789
300.828
300.922
301.114
301.467
301.728
301.128
300.99
301.024
301.027
301.03
301.019
301.035
301.046
301.085
301.124
301.169
301.296
301.542
301.792
300.973
300.969
301.004
301.054
301.102
301.142
301.187
301.221
301.266
301.315
301.367
301.475
301.645
301.914
300.977
301.03
301.067
301.137
301.208
301.275
301.336
301.385
301.439
301.505
301.572
301.672
301.8
302.023
300.983
301.097
301.173
301.26
301.345
301.428
301.501
301.561
301.62
301.686
301.748
301.835
301.943
302.14
301.033
301.222
301.322
301.419
301.515
301.607
301.686
301.749
301.807
301.863
301.912
301.983
302.072
302.225
301.155
301.37
301.482
301.581
301.683
301.781
301.863
301.927
301.981
302.025
302.054
302.108
302.18
302.295
301.33
301.543
301.652
301.744
301.843
301.942
302.026
302.089
302.14
302.173
302.185
302.22
302.272
302.349
301.513
301.703
301.8
301.883
301.978
302.077
302.161
302.225
302.274
302.299
302.302
302.322
302.359
302.408
301.723
301.873
301.94
302.013
302.105
302.209
302.3
302.366
302.413
302.431
302.427
302.433
302.456
302.476
301.895
302.011
302.055
302.132
302.229
302.331
302.421
302.484
302.528
302.545
302.543
302.546
302.57
302.59
302.129
302.2
302.205
302.268
302.359
302.456
302.542
302.6
302.643
302.662
302.666
302.672
302.693
302.735
302.226
302.358
302.353
302.419
302.507
302.595
302.679
302.742
302.79
302.819
302.836
302.854
302.871
302.963
302.556
302.736
302.654
302.664
302.691
302.739
302.818
302.898
302.973
303.035
303.083
303.119
303.112
303.169
302.399
302.27
302.307
302.211
302.132
302.021
301.978
301.974
302.036
302.134
302.273
302.505
302.886
303.153
302.617
302.505
302.462
302.417
302.37
302.331
302.338
302.359
302.43
302.525
302.632
302.825
303.071
303.351
302.43
302.475
302.487
302.492
302.51
302.533
302.572
302.613
302.682
302.772
302.864
303.034
303.233
303.48
302.443
302.504
302.545
302.606
302.662
302.716
302.769
302.824
302.899
302.992
303.087
303.244
303.401
303.596
302.393
302.57
302.655
302.741
302.823
302.901
302.972
303.04
303.115
303.202
303.293
303.415
303.539
303.705
302.395
302.652
302.787
302.901
303.009
303.105
303.187
303.258
303.328
303.403
303.482
303.573
303.666
303.777
302.492
302.778
302.942
303.072
303.194
303.302
303.391
303.463
303.525
303.588
303.646
303.708
303.776
303.836
302.66
302.949
303.119
303.25
303.374
303.487
303.578
303.65
303.707
303.759
303.799
303.837
303.875
303.891
302.852
303.126
303.292
303.418
303.54
303.653
303.746
303.816
303.872
303.916
303.943
303.965
303.982
303.967
303.084
303.327
303.469
303.583
303.698
303.809
303.9
303.97
304.023
304.063
304.085
304.098
304.105
304.071
303.26
303.502
303.628
303.74
303.853
303.961
304.053
304.122
304.172
304.209
304.229
304.238
304.244
304.202
303.53
303.726
303.806
303.908
304.021
304.13
304.217
304.281
304.328
304.367
304.39
304.397
304.4
304.347
303.618
303.922
303.98
304.092
304.202
304.288
304.367
304.433
304.487
304.528
304.56
304.585
304.601
304.582
304.015
304.28
304.244
304.299
304.365
304.405
304.476
304.558
304.645
304.717
304.763
304.797
304.806
304.774
303.69
303.539
303.466
303.372
303.315
303.226
303.18
303.176
303.246
303.361
303.508
303.711
304.089
304.371
303.823
303.743
303.651
303.573
303.521
303.479
303.472
303.501
303.574
303.692
303.822
304.061
304.309
304.554
303.673
303.735
303.683
303.654
303.658
303.661
303.682
303.721
303.792
303.902
304.014
304.207
304.393
304.624
303.657
303.756
303.766
303.784
303.8
303.821
303.858
303.909
303.988
304.096
304.211
304.385
304.556
304.738
303.667
303.811
303.856
303.902
303.948
303.993
304.043
304.104
304.184
304.284
304.388
304.529
304.671
304.835
303.704
303.889
303.981
304.054
304.12
304.18
304.238
304.302
304.378
304.466
304.558
304.674
304.798
304.921
303.81
304.012
304.129
304.217
304.297
304.367
304.433
304.498
304.567
304.642
304.719
304.814
304.915
305.001
303.97
304.179
304.303
304.396
304.481
304.557
304.626
304.691
304.755
304.819
304.883
304.96
305.038
305.089
304.145
304.352
304.48
304.577
304.665
304.745
304.816
304.88
304.94
304.998
305.052
305.116
305.173
305.2
304.367
304.567
304.683
304.773
304.859
304.937
305.007
305.068
305.124
305.178
305.228
305.283
305.327
305.329
304.545
304.766
304.878
304.969
305.056
305.133
305.201
305.259
305.313
305.366
305.417
305.466
305.507
305.48
304.82
305.026
305.102
305.185
305.27
305.338
305.402
305.459
305.512
305.564
305.614
305.658
305.705
305.652
304.969
305.257
305.333
305.415
305.488
305.544
305.605
305.663
305.718
305.774
305.825
305.868
305.928
305.871
305.417
305.605
305.571
305.628
305.683
305.722
305.784
305.852
305.924
305.999
306.055
306.097
306.136
306.096
304.51
304.331
304.241
304.134
304.081
304.014
303.985
303.992
304.065
304.183
304.326
304.563
304.898
305.14
304.611
304.492
304.405
304.308
304.264
304.226
304.226
304.263
304.349
304.48
304.629
304.846
305.069
305.276
304.522
304.507
304.476
304.426
304.418
304.414
304.437
304.486
304.568
304.686
304.81
304.989
305.172
305.402
304.563
304.573
304.57
304.572
304.578
304.593
304.631
304.689
304.776
304.89
305.011
305.17
305.316
305.47
304.532
304.639
304.676
304.71
304.743
304.78
304.831
304.897
304.983
305.085
305.189
305.314
305.429
305.57
304.584
304.724
304.804
304.865
304.92
304.973
305.033
305.103
305.184
305.274
305.364
305.465
305.558
305.663
304.69
304.844
304.947
305.029
305.101
305.167
305.234
305.305
305.382
305.46
305.536
305.616
305.688
305.768
304.846
305.004
305.118
305.211
305.292
305.366
305.436
305.507
305.578
305.648
305.712
305.774
305.827
305.877
305.013
305.177
305.299
305.401
305.489
305.566
305.638
305.705
305.772
305.835
305.894
305.944
305.985
306.011
305.237
305.397
305.512
305.611
305.697
305.771
305.838
305.9
305.963
306.023
306.079
306.123
306.159
306.153
305.431
305.616
305.729
305.828
305.909
305.976
306.036
306.092
306.15
306.209
306.266
306.308
306.351
306.317
305.718
305.885
305.967
306.057
306.128
306.18
306.23
306.281
306.337
306.397
306.458
306.499
306.557
306.499
305.948
306.16
306.218
306.294
306.343
306.376
306.418
306.465
306.522
306.587
306.653
306.696
306.773
306.718
306.373
306.504
306.487
306.51
306.542
306.561
306.6
306.649
306.711
306.787
306.859
306.914
306.975
306.957
305.02
304.834
304.759
304.645
304.592
304.532
304.511
304.523
304.595
304.705
304.841
305.067
305.327
305.553
305.122
304.977
304.899
304.801
304.757
304.721
304.721
304.758
304.839
304.959
305.104
305.292
305.496
305.685
305.065
305.017
304.988
304.927
304.915
304.904
304.925
304.971
305.047
305.155
305.276
305.438
305.618
305.822
305.116
305.099
305.094
305.08
305.08
305.089
305.123
305.175
305.253
305.357
305.471
305.612
305.748
305.899
305.105
305.166
305.198
305.221
305.247
305.275
305.321
305.379
305.456
305.548
305.643
305.753
305.858
305.99
305.157
305.258
305.326
305.375
305.421
305.464
305.519
305.58
305.654
305.735
305.817
305.906
305.99
306.091
305.261
305.377
305.466
305.537
305.598
305.655
305.715
305.779
305.85
305.922
305.991
306.06
306.123
306.199
305.413
305.537
305.635
305.718
305.787
305.851
305.914
305.978
306.044
306.11
306.171
306.224
306.27
306.317
305.581
305.713
305.817
305.909
305.984
306.051
306.114
306.175
306.238
306.3
306.357
306.401
306.438
306.456
305.806
305.935
306.03
306.119
306.191
306.254
306.312
306.369
306.429
306.49
306.547
306.585
306.62
306.609
306.016
306.16
306.246
306.335
306.401
306.456
306.507
306.56
306.618
306.677
306.736
306.77
306.815
306.782
306.297
306.429
306.489
306.561
306.615
306.656
306.698
306.746
306.803
306.863
306.926
306.958
307.021
306.971
306.535
306.691
306.72
306.786
306.818
306.844
306.879
306.924
306.982
307.047
307.115
307.149
307.23
307.2
306.935
307.029
307.008
307.013
307.022
307.035
307.065
307.109
307.168
307.24
307.315
307.37
307.439
307.459
305.259
305.094
305.041
304.931
304.877
304.828
304.818
304.841
304.914
305.022
305.155
305.346
305.562
305.763
305.345
305.223
305.16
305.074
305.034
305.009
305.016
305.059
305.138
305.255
305.387
305.556
305.734
305.901
305.321
305.274
305.251
305.203
305.195
305.193
305.219
305.268
305.342
305.443
305.555
305.702
305.863
306.042
305.381
305.361
305.369
305.355
305.366
305.382
305.422
305.477
305.552
305.647
305.75
305.875
305.994
306.145
305.4
305.443
305.479
305.506
305.54
305.576
305.626
305.685
305.758
305.839
305.923
306.018
306.114
306.23
305.467
305.548
305.612
305.665
305.718
305.77
305.829
305.891
305.96
306.033
306.105
306.183
306.256
306.345
305.575
305.675
305.758
305.833
305.9
305.964
306.029
306.093
306.159
306.224
306.285
306.344
306.398
306.46
305.728
305.838
305.929
306.014
306.089
306.161
306.228
306.292
306.355
306.414
306.469
306.515
306.554
306.588
305.896
306.015
306.11
306.203
306.282
306.356
306.423
306.486
306.547
306.604
306.656
306.693
306.725
306.732
306.117
306.232
306.318
306.406
306.48
306.55
306.613
306.672
306.733
306.79
306.844
306.873
306.904
306.887
306.33
306.451
306.524
306.61
306.677
306.738
306.794
306.851
306.911
306.97
307.026
307.05
307.091
307.055
306.599
306.705
306.758
306.827
306.878
306.925
306.971
307.023
307.085
307.143
307.203
307.224
307.284
307.237
306.83
306.951
306.972
307.033
307.065
307.097
307.135
307.185
307.247
307.308
307.374
307.4
307.472
307.453
307.194
307.263
307.239
307.252
307.255
307.272
307.306
307.352
307.411
307.475
307.547
307.594
307.66
307.7
305.41
305.275
305.233
305.142
305.089
305.044
305.033
305.052
305.112
305.211
305.333
305.496
305.68
305.862
305.489
305.392
305.341
305.274
305.24
305.219
305.225
305.259
305.325
305.427
305.543
305.689
305.849
306.003
305.485
305.45
305.434
305.403
305.399
305.4
305.423
305.464
305.526
305.611
305.709
305.836
305.98
306.141
305.551
305.54
305.553
305.549
305.566
305.586
305.624
305.671
305.733
305.812
305.9
306.006
306.114
306.252
305.59
305.629
305.669
305.7
305.738
305.776
305.824
305.875
305.934
306
306.071
306.151
306.239
306.345
305.668
305.739
305.802
305.856
305.912
305.965
306.021
306.076
306.132
306.191
306.251
306.318
306.384
306.464
305.78
305.868
305.946
306.018
306.087
306.153
306.215
306.271
306.325
306.377
306.428
306.479
306.528
306.583
305.932
306.027
306.109
306.192
306.266
306.338
306.402
306.459
306.511
306.559
306.606
306.646
306.682
306.708
306.097
306.2
306.281
306.369
306.446
306.519
306.583
306.639
306.691
306.739
306.784
306.817
306.846
306.845
306.308
306.403
306.474
306.557
306.628
306.696
306.755
306.81
306.863
306.911
306.958
306.983
307.012
306.996
306.511
306.61
306.67
306.749
306.81
306.869
306.921
306.973
307.026
307.075
307.123
307.144
307.184
307.155
306.76
306.845
306.886
306.948
306.994
307.04
307.085
307.132
307.183
307.232
307.285
307.304
307.36
307.325
306.979
307.077
307.093
307.142
307.174
307.208
307.243
307.285
307.334
307.386
307.444
307.471
307.534
307.521
307.307
307.357
307.326
307.347
307.358
307.379
307.407
307.444
307.489
307.542
307.606
307.655
307.712
307.764
305.499
305.386
305.345
305.27
305.221
305.181
305.169
305.182
305.231
305.317
305.425
305.567
305.729
305.899
305.572
305.495
305.455
305.404
305.375
305.356
305.358
305.382
305.438
305.523
305.625
305.754
305.897
306.038
305.583
305.56
305.552
305.534
305.531
305.533
305.549
305.579
305.63
305.701
305.788
305.901
306.028
306.179
305.656
305.655
305.672
305.676
305.693
305.713
305.742
305.779
305.83
305.895
305.972
306.065
306.169
306.291
305.713
305.751
305.791
305.821
305.857
305.892
305.932
305.972
306.019
306.074
306.136
306.208
306.286
306.399
305.801
305.864
305.921
305.972
306.023
306.07
306.116
306.16
306.206
306.255
306.31
306.371
306.434
306.507
305.911
305.99
306.059
306.125
306.187
306.245
306.297
306.343
306.388
306.432
306.478
306.526
306.574
306.627
306.054
306.14
306.212
306.287
306.355
306.419
306.473
306.519
306.562
306.602
306.644
306.681
306.718
306.746
306.209
306.3
306.372
306.453
306.524
306.59
306.643
306.687
306.728
306.767
306.806
306.837
306.869
306.875
306.401
306.486
306.548
306.628
306.694
306.755
306.803
306.845
306.885
306.924
306.964
306.99
307.022
307.011
306.591
306.679
306.735
306.81
306.866
306.917
306.957
306.996
307.036
307.075
307.118
307.14
307.181
307.16
306.82
306.896
306.935
306.996
307.036
307.075
307.109
307.144
307.183
307.223
307.27
307.29
307.346
307.324
307.035
307.119
307.135
307.182
307.208
307.236
307.26
307.29
307.327
307.369
307.421
307.451
307.512
307.513
307.336
307.379
307.352
307.375
307.385
307.4
307.416
307.441
307.475
307.519
307.576
307.626
307.685
307.744
305.61
305.513
305.475
305.412
305.368
305.332
305.321
305.326
305.362
305.433
305.526
305.644
305.785
305.939
305.687
305.627
305.597
305.557
305.53
305.511
305.51
305.523
305.564
305.632
305.717
305.826
305.95
306.076
305.715
305.702
305.704
305.696
305.691
305.688
305.696
305.715
305.753
305.807
305.879
305.971
306.08
306.213
305.788
305.801
305.828
305.841
305.853
305.865
305.883
305.908
305.944
305.993
306.055
306.131
306.22
306.322
305.853
305.899
305.947
305.98
306.01
306.035
306.061
306.087
306.12
306.16
306.208
306.265
306.333
306.436
305.938
306.007
306.07
306.12
306.162
306.198
306.229
306.258
306.288
306.323
306.365
306.413
306.466
306.536
306.039
306.124
306.196
306.259
306.31
306.352
306.386
306.415
306.445
306.476
306.513
306.551
306.595
306.648
306.168
306.259
306.333
306.403
306.456
306.501
306.536
306.566
306.595
306.624
306.657
306.688
306.725
306.757
306.31
306.406
306.477
306.549
306.602
306.649
306.683
306.711
306.739
306.767
306.799
306.826
306.86
306.875
306.487
306.577
306.636
306.703
306.751
306.794
306.824
306.851
306.878
306.906
306.94
306.966
307.001
306.998
306.669
306.758
306.805
306.866
306.904
306.939
306.963
306.987
307.014
307.044
307.081
307.106
307.148
307.137
306.886
306.955
306.985
307.031
307.056
307.083
307.101
307.122
307.149
307.179
307.221
307.247
307.302
307.29
307.093
307.163
307.168
307.202
307.217
307.233
307.242
307.258
307.284
307.317
307.363
307.395
307.457
307.473
307.365
307.393
307.363
307.379
307.379
307.385
307.385
307.397
307.422
307.458
307.512
307.561
307.625
307.688
301.136
301.528
301.783
302.193
302.695
302.035
300.76
300.781
300.608
300.545
300.662
299.498
300.785
300.348
299.802
299.325
299.006
297.202
300.589
299.932
299.099
298.201
297.372
295.06
300.472
299.653
298.639
297.403
296.267
293.902
300.376
299.51
298.411
296.991
295.769
293.695
300.366
299.489
298.417
296.96
295.75
294.052
300.408
299.571
298.626
297.265
296.179
294.95
300.522
299.769
299.047
297.988
297.286
296.629
300.668
300.082
299.697
299.133
298.947
298.751
300.874
300.573
300.59
300.497
300.711
300.696
301.149
301.098
301.424
301.758
302.313
302.381
301.626
301.787
302.315
302.867
303.64
303.759
301.555
302.028
302.709
303.543
304.461
304.613
302.555
302.853
302.89
302.787
302.653
302.412
301.91
301.876
301.657
301.133
300.505
299.671
301.849
301.191
300.455
299.468
298.276
296.663
301.587
300.559
299.34
297.908
296.249
294.026
301.418
300.12
298.517
296.82
294.997
292.604
301.268
299.899
298.198
296.404
294.681
292.482
301.219
299.853
298.188
296.413
294.856
293.1
301.271
299.974
298.442
296.818
295.553
294.317
301.464
300.354
299.069
297.747
296.884
296.17
301.736
300.849
299.971
299.127
298.788
298.432
302.071
301.454
301.029
300.653
300.768
300.672
302.451
302.134
302.068
302.027
302.448
302.583
302.943
302.85
303.022
303.222
303.827
304.084
302.914
303.141
303.518
303.956
304.62
304.98
303.939
304.124
304.003
303.758
303.57
303.478
303.204
303.156
302.902
302.325
301.608
300.905
303.038
302.534
301.759
300.566
299.176
297.686
302.81
301.867
300.568
298.866
296.899
294.77
302.688
301.489
299.773
297.691
295.395
293.044
302.564
301.254
299.427
297.283
295.067
292.868
302.525
301.224
299.467
297.39
295.346
293.474
302.561
301.341
299.76
297.913
296.258
294.833
302.732
301.703
300.387
298.914
297.773
296.861
302.991
302.223
301.293
300.326
299.713
299.264
303.326
302.774
302.263
301.776
301.616
301.564
303.695
303.344
303.217
303.082
303.249
303.54
304.147
303.999
304.117
304.21
304.59
305.014
304.211
304.334
304.53
304.86
305.36
305.882
304.776
305.049
305.073
304.97
304.792
304.592
304.141
304.189
304.144
303.925
303.426
302.66
303.977
303.769
303.325
302.532
301.378
299.814
303.75
303.216
302.356
301.015
299.16
296.984
303.653
302.907
301.646
299.818
297.515
294.976
303.56
302.696
301.28
299.269
296.903
294.452
303.527
302.635
301.244
299.287
297.017
294.692
303.557
302.683
301.431
299.694
297.765
295.845
303.697
302.925
301.912
300.524
299.127
297.723
303.909
303.316
302.625
301.698
300.878
299.985
304.174
303.771
303.369
302.891
302.527
302.077
304.471
304.24
304.102
303.949
303.9
303.81
304.876
304.788
304.867
304.918
305.072
305.144