/*--------------------------------*- C++ -*----------------------------------*\
| =========                 |                                                 |
| \\      /  F ield         | OpenFOAM: The Open Source CFD Toolbox           |
|  \\    /   O peration     | Version:  v2106                                 |
|   \\  /    A nd           | Website:  www.openfoam.com                      |
|    \\/     M anipulation  |                                                 |
\*---------------------------------------------------------------------------*/
FoamFile
{
    version     2.0;
    format      ascii;
    arch        "LSB;label=32;scalar=64";
    class       volScalarField;
    location    "0.000178";
    object      nut;
}
// * * * * * * * * * * * * * * * * * * * * * * * * * * * * * * * * * * * * * //

dimensions      [0 2 -1 0 0 0 0];

internalField   nonuniform List<scalar> 
18109
(
1.45227e-07
7.36461e-08
4.48119e-08
3.16889e-08
2.6574e-08
2.51821e-08
2.67221e-08
6.45953e-08
2.15764e-08
9.99316e-09
6.69858e-09
5.76504e-09
5.57883e-09
6.04471e-09
3.45659e-08
7.91637e-09
2.18861e-09
1.14719e-09
9.62181e-10
9.5004e-10
1.10303e-09
2.49407e-08
5.3211e-09
1.02303e-09
2.51266e-10
1.34702e-10
1.32737e-10
2.08067e-10
2.2641e-08
5.16866e-09
1.00573e-09
1.70779e-10
3.2679e-11
2.41402e-11
7.38624e-11
2.36499e-08
5.51407e-09
1.07172e-09
1.69521e-10
2.35543e-11
1.35088e-11
5.62051e-11
2.79101e-08
6.35264e-09
1.17187e-09
1.77131e-10
2.9652e-11
2.23885e-11
7.02869e-11
3.5429e-08
7.67161e-09
1.35059e-09
2.35805e-10
9.05015e-11
9.32006e-11
1.63218e-10
9.17557e-08
4.35734e-08
2.46612e-08
1.60434e-08
1.2373e-08
1.08187e-08
1.06319e-08
1.14184e-08
1.47878e-08
2.49093e-08
5.40757e-08
1.31217e-07
3.11021e-07
6.79596e-07
3.92787e-08
1.1687e-08
4.69271e-09
2.7706e-09
2.16641e-09
1.94585e-09
1.99364e-09
2.33887e-09
3.8769e-09
9.57095e-09
2.84084e-08
8.22947e-08
2.14147e-07
4.90652e-07
2.10169e-08
4.47617e-09
1.01599e-09
3.97839e-10
2.82664e-10
2.59623e-10
3.01468e-10
5.12597e-10
1.46165e-09
5.13765e-09
1.75413e-08
5.37233e-08
1.44699e-07
3.41972e-07
1.64114e-08
3.57583e-09
6.66835e-10
1.22925e-10
3.70049e-11
2.97029e-11
5.61844e-11
1.94065e-10
8.07854e-10
3.19082e-09
1.12839e-08
3.53267e-08
9.77975e-08
2.40122e-07
1.63139e-08
3.77335e-09
7.32232e-10
1.19114e-10
1.68697e-11
6.62881e-12
2.38955e-11
1.1869e-10
5.44462e-10
2.21376e-09
7.94712e-09
2.52815e-08
7.1716e-08
1.8326e-07
1.80952e-08
4.16762e-09
7.95483e-10
1.23103e-10
1.55416e-11
5.05152e-12
1.8944e-11
9.56615e-11
4.38219e-10
1.77634e-09
6.37936e-09
2.04562e-08
5.9142e-08
1.56052e-07
2.22828e-08
4.94728e-09
8.86778e-10
1.30558e-10
2.06864e-11
1.17279e-11
2.62667e-11
1.02778e-10
4.37268e-10
1.72659e-09
6.13601e-09
1.96389e-08
5.70357e-08
1.51835e-07
2.90312e-08
6.0885e-09
1.03265e-09
1.74443e-10
6.61798e-11
6.3886e-11
8.6544e-11
1.85773e-10
5.96785e-10
2.1312e-09
7.26251e-09
2.26649e-08
6.44522e-08
1.67959e-07
3.81179e-08
7.74781e-09
1.43716e-09
4.26416e-10
3.28223e-10
3.59627e-10
4.27105e-10
6.16705e-10
1.27574e-09
3.54539e-09
1.07329e-08
3.12645e-08
8.42512e-08
2.08943e-07
5.16899e-08
1.15785e-08
3.11185e-09
1.61224e-09
1.51757e-09
1.7008e-09
1.9961e-09
2.56933e-09
3.99024e-09
8.06891e-09
1.97163e-08
5.04495e-08
1.24023e-07
2.85258e-07
7.91321e-08
2.38911e-08
9.74228e-09
6.29256e-09
5.9931e-09
6.72064e-09
7.96604e-09
1.00562e-08
1.39632e-08
2.2653e-08
4.37203e-08
9.3996e-08
2.04546e-07
4.28558e-07
1.46556e-07
6.14687e-08
3.16861e-08
2.18166e-08
2.023e-08
2.25082e-08
2.69982e-08
3.41968e-08
4.57281e-08
6.63037e-08
1.0721e-07
1.93279e-07
3.66019e-07
6.91464e-07
2.97137e-07
1.55765e-07
9.09722e-08
6.49609e-08
5.89272e-08
6.47534e-08
7.83522e-08
1.00035e-07
1.32382e-07
1.82545e-07
2.65741e-07
4.15503e-07
6.85957e-07
1.16547e-06
5.92193e-07
3.54013e-07
2.2376e-07
1.66583e-07
1.5039e-07
1.62922e-07
1.97116e-07
2.52559e-07
3.33197e-07
4.49058e-07
6.15805e-07
8.65356e-07
1.2543e-06
1.89929e-06
3.61465e-07
8.0992e-07
1.6899e-06
3.15205e-06
5.33804e-06
8.60014e-06
2.4139e-07
5.78804e-07
1.28155e-06
2.50128e-06
4.34772e-06
7.0086e-06
1.55406e-07
4.47708e-07
1.10112e-06
2.26736e-06
4.04767e-06
6.83007e-06
1.03053e-07
3.36853e-07
8.932e-07
1.93745e-06
3.6755e-06
6.769e-06
7.0427e-08
2.49823e-07
7.04439e-07
1.6286e-06
3.35104e-06
6.76831e-06
5.3501e-08
1.95929e-07
5.73718e-07
1.40721e-06
3.12964e-06
6.84822e-06
4.55373e-08
1.66136e-07
4.94447e-07
1.27081e-06
3.01568e-06
6.93968e-06
4.35563e-08
1.55543e-07
4.64907e-07
1.23117e-06
3.03336e-06
7.09191e-06
4.60319e-08
1.60482e-07
4.76756e-07
1.27005e-06
3.1302e-06
7.19774e-06
5.67468e-08
1.90851e-07
5.50762e-07
1.42418e-06
3.3732e-06
7.33559e-06
8.20921e-08
2.60579e-07
7.07458e-07
1.70672e-06
3.73235e-06
7.42766e-06
1.36648e-07
3.95112e-07
9.79518e-07
2.14357e-06
4.22048e-06
7.54482e-06
2.49175e-07
6.35305e-07
1.40522e-06
2.74693e-06
4.83307e-06
7.763e-06
4.64696e-07
1.02107e-06
1.99136e-06
3.47431e-06
5.5222e-06
8.15632e-06
8.25872e-07
1.54313e-06
2.64743e-06
4.17957e-06
6.20907e-06
8.92402e-06
1.37659e-06
2.15206e-06
3.22474e-06
4.68026e-06
6.77655e-06
9.99174e-06
9.95527e-07
1.70552e-06
2.76988e-06
4.37884e-06
6.9559e-06
1.12253e-05
7.1448e-07
1.34852e-06
2.41108e-06
4.22023e-06
7.3953e-06
1.29029e-05
5.29557e-07
1.10834e-06
2.19993e-06
4.23847e-06
7.97262e-06
1.44889e-05
4.29092e-07
9.79232e-07
2.10612e-06
4.32782e-06
8.47452e-06
1.56228e-05
3.81013e-07
9.20611e-07
2.07899e-06
4.40789e-06
8.76133e-06
1.60939e-05
3.74212e-07
9.20439e-07
2.10251e-06
4.45922e-06
8.79845e-06
1.592e-05
4.04851e-07
9.75792e-07
2.1799e-06
4.51485e-06
8.68551e-06
1.54194e-05
4.80833e-07
1.10333e-06
2.35168e-06
4.67161e-06
8.65019e-06
1.4884e-05
6.15673e-07
1.31876e-06
2.64002e-06
4.96051e-06
8.76296e-06
1.44771e-05
8.54843e-07
1.68593e-06
3.13371e-06
5.50369e-06
9.15937e-06
1.43994e-05
1.26781e-06
2.28994e-06
3.91997e-06
6.37401e-06
9.90941e-06
1.49212e-05
1.96552e-06
3.21371e-06
5.03096e-06
7.56845e-06
1.10873e-05
1.62554e-05
2.96919e-06
4.38638e-06
6.30538e-06
8.90694e-06
1.26335e-05
1.84016e-05
2.65184e-06
4.2663e-06
6.33874e-06
9.14541e-06
1.33888e-05
2.01455e-05
2.20019e-06
3.6634e-06
5.60174e-06
8.45037e-06
1.32015e-05
2.13201e-05
1.7241e-06
2.99154e-06
4.78045e-06
7.6812e-06
1.29352e-05
2.23643e-05
1.30605e-06
2.37644e-06
4.01368e-06
6.8933e-06
1.23738e-05
2.24321e-05
9.77959e-07
1.85932e-06
3.33328e-06
6.09492e-06
1.1564e-05
2.21304e-05
7.33143e-07
1.4562e-06
2.77331e-06
5.38604e-06
1.07072e-05
2.10589e-05
5.58037e-07
1.1567e-06
2.33374e-06
4.7638e-06
9.77589e-06
1.94022e-05
4.37372e-07
9.44064e-07
2.00618e-06
4.25008e-06
8.81042e-06
1.7476e-05
3.63864e-07
8.13481e-07
1.79018e-06
3.87723e-06
8.04222e-06
1.58366e-05
3.37538e-07
7.67213e-07
1.70821e-06
3.68499e-06
7.52966e-06
1.44961e-05
3.67459e-07
8.12509e-07
1.77088e-06
3.70732e-06
7.28529e-06
1.36047e-05
4.72266e-07
9.73652e-07
1.9831e-06
3.94492e-06
7.34957e-06
1.33698e-05
7.01106e-07
1.33427e-06
2.49471e-06
4.55153e-06
8.05129e-06
1.37421e-05
1.10136e-06
1.94297e-06
3.35687e-06
5.63103e-06
9.05497e-06
1.41592e-05
9.6742e-08
2.94787e-07
8.00275e-07
1.9554e-06
4.3019e-06
8.84556e-06
1.14401e-07
3.24188e-07
8.37707e-07
1.95427e-06
4.13265e-06
8.31665e-06
1.4443e-07
3.61707e-07
8.93174e-07
2.01894e-06
4.25073e-06
8.3423e-06
2.05435e-07
4.50509e-07
1.05095e-06
2.35127e-06
4.75258e-06
8.54634e-06
7.99024e-07
1.55895e-06
3.22331e-06
5.79392e-06
9.09892e-06
1.39335e-05
5.27319e-07
1.28189e-06
2.89904e-06
5.24084e-06
8.26288e-06
1.33125e-05
3.68178e-07
1.06251e-06
2.46492e-06
4.45291e-06
7.21786e-06
1.26744e-05
2.75265e-07
8.48546e-07
1.98323e-06
3.64611e-06
6.27198e-06
1.20744e-05
2.12485e-07
6.56312e-07
1.54197e-06
2.93318e-06
5.46492e-06
1.15231e-05
1.62117e-07
4.94662e-07
1.16741e-06
2.34148e-06
4.79717e-06
1.08893e-05
1.20172e-07
3.64886e-07
8.7562e-07
1.88876e-06
4.25842e-06
1.00885e-05
8.84451e-08
2.68015e-07
6.71411e-07
1.59395e-06
3.85154e-06
9.17033e-06
6.9265e-08
2.1053e-07
5.6229e-07
1.44437e-06
3.58085e-06
8.30732e-06
6.13777e-08
1.8911e-07
5.3039e-07
1.39701e-06
3.38836e-06
7.51102e-06
6.33528e-08
1.96198e-07
5.50388e-07
1.40735e-06
3.24322e-06
6.84628e-06
7.54473e-08
2.23195e-07
5.98973e-07
1.45018e-06
3.16724e-06
6.43807e-06
9.69577e-08
2.58548e-07
6.63173e-07
1.54194e-06
3.28721e-06
6.56387e-06
1.35398e-07
3.19441e-07
7.8702e-07
1.82429e-06
3.77274e-06
6.92085e-06
1.11941e-05
2.84379e-05
8.11949e-05
6.98017e-05
5.48469e-05
1.20145e-05
3.24282e-05
8.29036e-05
6.83446e-05
5.38436e-05
1.31421e-05
3.67899e-05
8.17187e-05
6.72568e-05
5.40995e-05
1.40739e-05
4.03675e-05
7.95239e-05
6.74838e-05
5.55609e-05
1.48621e-05
4.2099e-05
7.64229e-05
6.75169e-05
5.68079e-05
1.52778e-05
4.09297e-05
7.14067e-05
6.68858e-05
5.76551e-05
1.5213e-05
3.76695e-05
6.45066e-05
6.59243e-05
5.88318e-05
1.45961e-05
3.36075e-05
5.76545e-05
6.58836e-05
6.04847e-05
6.33951e-05
1.37739e-05
2.9479e-05
5.15007e-05
6.58644e-05
6.18645e-05
6.65785e-05
1.28386e-05
2.59731e-05
4.62234e-05
6.46394e-05
6.145e-05
6.85608e-05
1.19191e-05
2.31375e-05
4.29927e-05
6.25229e-05
5.96538e-05
6.87544e-05
8.13778e-05
1.12666e-05
2.17343e-05
4.26448e-05
6.07129e-05
5.73283e-05
6.63215e-05
9.27056e-05
9.30543e-05
1.13263e-05
2.29908e-05
4.65369e-05
5.9763e-05
5.60237e-05
6.28976e-05
9.34605e-05
0.000192932
1.2585e-05
2.75256e-05
5.44542e-05
5.95852e-05
5.66091e-05
6.16624e-05
7.02413e-05
0.00019195
1.494e-05
3.38802e-05
6.23292e-05
5.93188e-05
5.72133e-05
6.20207e-05
6.7382e-05
0.000171614
1.79568e-05
3.96701e-05
6.62455e-05
5.89653e-05
5.75523e-05
6.35054e-05
6.76847e-05
0.000159099
2.14675e-05
4.48678e-05
6.8437e-05
6.04493e-05
5.95142e-05
6.55965e-05
6.7726e-05
9.17357e-05
2.42987e-05
4.79604e-05
6.97274e-05
6.40094e-05
6.29356e-05
6.81894e-05
6.59174e-05
0.00012249
2.59705e-05
4.84292e-05
6.97031e-05
6.77261e-05
6.5926e-05
7.02193e-05
6.41304e-05
0.00012436
2.63065e-05
4.66676e-05
6.81789e-05
7.07963e-05
6.76617e-05
7.18669e-05
6.35376e-05
9.8237e-05
2.54976e-05
4.35492e-05
6.61697e-05
7.33375e-05
6.91941e-05
7.41219e-05
6.62074e-05
4.184e-05
2.41295e-05
4.08782e-05
6.62865e-05
7.61341e-05
7.04306e-05
7.71598e-05
7.15633e-05
4.44217e-05
2.2677e-05
3.90464e-05
6.81202e-05
7.73006e-05
7.05549e-05
7.9185e-05
2.16105e-05
3.87204e-05
7.16701e-05
7.5033e-05
6.83244e-05
7.98101e-05
2.11343e-05
4.01775e-05
7.52146e-05
6.96566e-05
6.45382e-05
7.98785e-05
2.17733e-05
4.4039e-05
7.78522e-05
6.4145e-05
6.06856e-05
7.71256e-05
2.38332e-05
5.00886e-05
7.89361e-05
6.00206e-05
5.82446e-05
7.24075e-05
2.71382e-05
5.7637e-05
7.9413e-05
5.87576e-05
5.75365e-05
3.07128e-05
6.54305e-05
7.88749e-05
6.01427e-05
5.90559e-05
3.40743e-05
7.22198e-05
7.72007e-05
6.202e-05
6.03493e-05
3.70567e-05
7.65256e-05
7.60416e-05
6.48577e-05
6.27409e-05
3.8989e-05
7.41961e-05
7.55425e-05
6.9472e-05
6.59453e-05
4.00194e-05
6.76697e-05
7.3955e-05
7.36705e-05
6.82781e-05
3.83768e-05
5.94265e-05
7.08471e-05
7.67409e-05
6.90739e-05
3.50445e-05
5.17894e-05
6.83875e-05
7.90504e-05
6.87186e-05
3.1101e-05
4.57087e-05
6.90938e-05
8.19648e-05
6.81221e-05
2.75878e-05
4.11985e-05
7.38933e-05
8.3775e-05
6.6114e-05
2.45378e-05
3.80142e-05
8.22019e-05
8.21167e-05
6.19245e-05
2.20588e-05
3.7264e-05
9.10608e-05
7.67977e-05
5.77139e-05
2.05076e-05
4.04619e-05
9.76694e-05
7.22433e-05
5.52721e-05
2.0294e-05
4.73314e-05
0.000100191
7.01804e-05
5.4981e-05
2.13283e-05
5.60324e-05
9.85214e-05
7.11443e-05
5.6414e-05
2.26508e-05
6.46799e-05
9.59865e-05
7.25022e-05
5.73784e-05
2.43063e-05
7.14452e-05
9.30225e-05
7.16461e-05
5.70919e-05
2.66767e-05
7.37384e-05
8.97819e-05
7.07555e-05
5.78668e-05
2.83714e-05
7.03745e-05
8.56645e-05
7.13205e-05
5.96579e-05
2.90319e-05
6.38651e-05
8.01582e-05
7.16536e-05
6.09353e-05
2.8024e-05
5.53532e-05
7.24822e-05
7.12359e-05
6.16846e-05
2.56657e-05
4.68235e-05
6.37672e-05
7.0367e-05
6.19621e-05
2.26152e-05
3.93435e-05
5.5981e-05
7.04765e-05
6.22018e-05
1.95317e-05
3.312e-05
4.98882e-05
7.1442e-05
6.19483e-05
1.67049e-05
2.78961e-05
4.58999e-05
7.20969e-05
6.02039e-05
1.42712e-05
2.36693e-05
4.51447e-05
7.17008e-05
5.78052e-05
1.24042e-05
2.0988e-05
4.9458e-05
7.0727e-05
5.59159e-05
1.12208e-05
2.10528e-05
5.94922e-05
6.97383e-05
5.51965e-05
1.0857e-05
2.42197e-05
7.22079e-05
6.98274e-05
5.53532e-05
6.63653e-08
3.17809e-08
1.80012e-08
1.13327e-08
8.19377e-09
6.58568e-09
5.9136e-09
5.79745e-09
7.18244e-09
1.28119e-08
3.07023e-08
8.12261e-08
2.06077e-07
4.76032e-07
2.72627e-08
7.88867e-09
3.10111e-09
1.73208e-09
1.24004e-09
1.00987e-09
9.41567e-10
1.03122e-09
1.78928e-09
5.02845e-09
1.64925e-08
5.12921e-08
1.41547e-07
3.41982e-07
1.47265e-08
3.08664e-09
6.63118e-10
2.23569e-10
1.34463e-10
1.08514e-10
1.17605e-10
2.18134e-10
7.34741e-10
2.87022e-09
1.04489e-08
3.37283e-08
9.55309e-08
2.37405e-07
1.24609e-08
2.7514e-09
5.11387e-10
8.70388e-11
1.82714e-11
1.02407e-11
2.18317e-11
9.24363e-11
4.27355e-10
1.79915e-09
6.69661e-09
2.20006e-08
6.38643e-08
1.64123e-07
1.32516e-08
3.04865e-09
5.86292e-10
9.43868e-11
1.24151e-11
3.00482e-12
1.04882e-11
5.69171e-11
2.79038e-10
1.20554e-09
4.579e-09
1.53415e-08
4.55618e-08
1.20884e-07
1.52834e-08
3.45782e-09
6.48114e-10
9.90331e-11
1.22083e-11
2.8181e-12
8.30935e-12
4.32183e-11
2.1057e-10
9.11481e-10
3.47966e-09
1.17591e-08
3.54879e-08
9.6901e-08
1.93616e-08
4.20401e-09
7.36428e-10
1.06603e-10
1.68243e-11
8.71147e-12
1.42432e-11
4.62718e-11
1.96346e-10
8.16601e-10
3.07574e-09
1.03746e-08
3.15527e-08
8.75974e-08
2.57299e-08
5.26998e-09
8.6814e-10
1.43219e-10
5.54083e-11
5.43223e-11
6.59826e-11
1.07463e-10
2.81231e-10
9.68155e-10
3.41057e-09
1.11815e-08
3.34822e-08
9.18741e-08
3.44245e-08
6.80284e-09
1.20091e-09
3.43877e-10
2.73151e-10
3.09802e-10
3.62707e-10
4.64476e-10
7.64592e-10
1.79729e-09
5.23057e-09
1.56394e-08
4.41459e-08
1.15149e-07
4.72776e-08
1.00844e-08
2.49948e-09
1.26562e-09
1.23951e-09
1.44351e-09
1.711e-09
2.11945e-09
2.93005e-09
5.03697e-09
1.10936e-08
2.78808e-08
7.01938e-08
1.67445e-07
7.16049e-08
2.00084e-08
7.57383e-09
4.85283e-09
4.80055e-09
5.59105e-09
6.73966e-09
8.42732e-09
1.11579e-08
1.65583e-08
2.91243e-08
5.99212e-08
1.30208e-07
2.78061e-07
1.28602e-07
4.98864e-08
2.43075e-08
1.66142e-08
1.59202e-08
1.83796e-08
2.24832e-08
2.8549e-08
3.7556e-08
5.24447e-08
8.04192e-08
1.39192e-07
2.59267e-07
4.92335e-07
2.54585e-07
1.25139e-07
6.95725e-08
4.91347e-08
4.5763e-08
5.21258e-08
6.4456e-08
8.30216e-08
1.09661e-07
1.49485e-07
2.12918e-07
3.24846e-07
5.26597e-07
8.93688e-07
5.06591e-07
2.86249e-07
1.72114e-07
1.25909e-07
1.15714e-07
1.29657e-07
1.60839e-07
2.09071e-07
2.77547e-07
3.74509e-07
5.12025e-07
7.13883e-07
1.02125e-06
1.53398e-06
2.60655e-08
1.53684e-08
1.03295e-08
6.87927e-09
4.75626e-09
3.46488e-09
2.76371e-09
2.32139e-09
2.26286e-09
3.22989e-09
7.72726e-09
2.33988e-08
6.98736e-08
1.88156e-07
8.53176e-09
2.93922e-09
1.54068e-09
9.57102e-10
6.47007e-10
4.73551e-10
3.90071e-10
3.47868e-10
4.39674e-10
1.12374e-09
4.19188e-09
1.54303e-08
5.01227e-08
1.40694e-07
5.07499e-09
1.11682e-09
2.72584e-10
1.04155e-10
5.97489e-11
4.31765e-11
3.84464e-11
5.02188e-11
1.51421e-10
6.81206e-10
2.94932e-09
1.11779e-08
3.66254e-08
1.03852e-07
5.93251e-09
1.30357e-09
2.36609e-10
3.91308e-11
7.35151e-12
2.94841e-12
4.08742e-12
1.67416e-11
9.26831e-11
4.71921e-10
2.08215e-09
7.93794e-09
2.62375e-08
7.55289e-08
7.48575e-09
1.63181e-09
2.95544e-10
4.53216e-11
5.67663e-12
7.61397e-13
1.58512e-12
1.05997e-11
6.39795e-11
3.32205e-10
1.48372e-09
5.72576e-09
1.91958e-08
5.63307e-08
9.49205e-09
1.99852e-09
3.45316e-10
4.92335e-11
5.75631e-12
8.48966e-13
1.40516e-12
8.20148e-12
4.8334e-11
2.49446e-10
1.11214e-09
4.30055e-09
1.45495e-08
4.36449e-08
1.28001e-08
2.57364e-09
4.11721e-10
5.45321e-11
7.86387e-12
3.49014e-12
4.14487e-12
9.74424e-12
4.18012e-11
2.00084e-10
8.74718e-10
3.37974e-09
1.16023e-08
3.59121e-08
1.76623e-08
3.35705e-09
4.97191e-10
7.17718e-11
2.56025e-11
2.49189e-11
2.83135e-11
3.59427e-11
6.82237e-11
2.15324e-10
8.29601e-10
3.11268e-09
1.07069e-08
3.36152e-08
2.42985e-08
4.40434e-09
6.59248e-10
1.59391e-10
1.29276e-10
1.51021e-10
1.76144e-10
2.07867e-10
2.74071e-10
4.82778e-10
1.25536e-09
4.0105e-09
1.29347e-08
3.9036e-08
3.36066e-08
6.12686e-09
1.18143e-09
5.61105e-10
6.04265e-10
7.3612e-10
8.84963e-10
1.06638e-09
1.33525e-09
1.8565e-09
3.26096e-09
7.63951e-09
2.06434e-08
5.57394e-08
4.81316e-08
1.03507e-08
3.16479e-09
2.13677e-09
2.40437e-09
2.97103e-09
3.66581e-09
4.54153e-09
5.73172e-09
7.53853e-09
1.10164e-08
1.97575e-08
4.23986e-08
9.74112e-08
7.74866e-08
2.30392e-08
9.94277e-09
7.39733e-09
8.15931e-09
1.0129e-08
1.27763e-08
1.6218e-08
2.07801e-08
2.70714e-08
3.68326e-08
5.643e-08
9.94911e-08
1.93685e-07
1.41545e-07
5.75145e-08
2.94763e-08
2.24691e-08
2.39581e-08
2.96233e-08
3.79996e-08
4.91983e-08
6.39579e-08
8.36723e-08
1.11075e-07
1.56094e-07
2.38562e-07
4.03091e-07
2.82431e-07
1.39556e-07
7.76877e-08
6.00843e-08
6.21023e-08
7.57455e-08
9.78429e-08
1.28409e-07
1.69066e-07
2.23003e-07
2.93952e-07
3.92327e-07
5.37001e-07
7.86067e-07
7.50097e-09
4.31393e-09
2.96173e-09
2.00437e-09
1.37442e-09
9.56201e-10
7.38331e-10
5.95844e-10
5.19204e-10
5.91793e-10
1.31655e-09
4.50911e-09
1.59558e-08
5.10717e-08
2.27866e-09
7.08685e-10
3.67301e-10
2.31632e-10
1.5457e-10
1.06974e-10
8.46146e-11
7.0805e-11
7.38319e-11
1.63055e-10
6.852e-10
3.00598e-09
1.15939e-08
3.84283e-08
1.89723e-09
3.94718e-10
7.86219e-11
2.28321e-11
1.12272e-11
7.29444e-12
6.00742e-12
6.60227e-12
1.84243e-11
9.69463e-11
5.08244e-10
2.30287e-09
8.89866e-09
2.94035e-08
2.76518e-09
5.7644e-10
9.88911e-11
1.4676e-11
2.10331e-12
4.26989e-13
3.69873e-13
1.65464e-12
1.15059e-11
7.23108e-11
3.85712e-10
1.74612e-09
6.74309e-09
2.23308e-08
3.77856e-09
7.6994e-10
1.32339e-10
1.88093e-11
2.25678e-12
2.29836e-13
1.45373e-13
1.14495e-12
8.6515e-12
5.49354e-11
2.93993e-10
1.33488e-09
5.17365e-09
1.72145e-08
5.0864e-09
9.91637e-10
1.6218e-10
2.12435e-11
2.36337e-12
2.97519e-13
2.09335e-13
9.85799e-13
6.80562e-12
4.26214e-11
2.27298e-10
1.03046e-09
3.99593e-09
1.33703e-08
7.1619e-09
1.33056e-09
2.01883e-10
2.43024e-11
3.13797e-12
1.27344e-12
1.31793e-12
1.99754e-12
6.62945e-12
3.47105e-11
1.78259e-10
7.99673e-10
3.10327e-09
1.05482e-08
1.01976e-08
1.79233e-09
2.48987e-10
3.0775e-11
9.2573e-12
9.16012e-12
1.05604e-11
1.20816e-11
1.66358e-11
3.9917e-11
1.55508e-10
6.56862e-10
2.55934e-09
9.00076e-09
1.43658e-08
2.39528e-09
3.18335e-10
5.91632e-11
4.61967e-11
5.71228e-11
6.84869e-11
7.87289e-11
9.18201e-11
1.24068e-10
2.51885e-10
7.85879e-10
2.82622e-09
9.87444e-09
2.01409e-08
3.25157e-09
4.93353e-10
1.91824e-10
2.24112e-10
2.91076e-10
3.58996e-10
4.25661e-10
4.99646e-10
6.05739e-10
8.55106e-10
1.71135e-09
4.73978e-09
1.46415e-08
2.83291e-08
4.98155e-09
1.14617e-09
7.42745e-10
9.36152e-10
1.23538e-09
1.56079e-09
1.90611e-09
2.29312e-09
2.77693e-09
3.56087e-09
5.53603e-09
1.14511e-08
2.87613e-08
4.3502e-08
1.01971e-08
3.58987e-09
2.73207e-09
3.35611e-09
4.44119e-09
5.72881e-09
7.18151e-09
8.84732e-09
1.08771e-08
1.36423e-08
1.89274e-08
3.17596e-08
6.51457e-08
7.41339e-08
2.5691e-08
1.15409e-08
9.04078e-09
1.05185e-08
1.37465e-08
1.79783e-08
2.30324e-08
2.89893e-08
3.62992e-08
4.55951e-08
6.00278e-08
8.76787e-08
1.5143e-07
1.43365e-07
6.69675e-08
3.42072e-08
2.6945e-08
2.95666e-08
3.7496e-08
4.90373e-08
6.36813e-08
8.15695e-08
1.03962e-07
1.31984e-07
1.70001e-07
2.2653e-07
3.32792e-07
1.50144e-09
6.70686e-10
4.27933e-10
2.96753e-10
2.08352e-10
1.54211e-10
1.25595e-10
1.05581e-10
8.94062e-11
7.95114e-11
1.28338e-10
4.55258e-10
1.92421e-09
7.44996e-09
6.69734e-10
1.40412e-10
4.55907e-11
2.57095e-11
1.71459e-11
1.2739e-11
1.06797e-11
9.21058e-12
8.54963e-12
1.37968e-11
5.96753e-11
3.14468e-10
1.46291e-09
5.79573e-09
8.08631e-10
1.59907e-10
2.5048e-11
4.1058e-12
1.03758e-12
5.54221e-13
4.59856e-13
4.76742e-13
1.19841e-12
7.33465e-12
4.72586e-11
2.60339e-10
1.20782e-09
4.74474e-09
1.25861e-09
2.5336e-10
3.97183e-11
5.60905e-12
6.75786e-13
7.46649e-14
1.73533e-14
8.15236e-14
7.48709e-13
5.94363e-12
3.91156e-11
2.14736e-10
9.91652e-10
3.88611e-09
1.78006e-09
3.4731e-10
5.32589e-11
7.24593e-12
8.16468e-13
8.01754e-14
1.29459e-14
6.4866e-14
6.14555e-13
4.89859e-12
3.22903e-11
1.77469e-10
8.20393e-10
3.21936e-09
2.45254e-09
4.57295e-10
6.57163e-11
8.13488e-12
8.42743e-13
1.03652e-13
4.58147e-14
8.96738e-14
5.42258e-13
4.07135e-12
2.66363e-11
1.4624e-10
6.76017e-10
2.65209e-09
3.45953e-09
6.20472e-10
8.21297e-11
9.14377e-12
1.05603e-12
4.11488e-13
4.17222e-13
4.81275e-13
8.59169e-13
3.73114e-12
2.20294e-11
1.18695e-10
5.46145e-10
2.14361e-09
4.82769e-09
8.37256e-10
1.01162e-10
1.09876e-11
2.83953e-12
2.88421e-12
3.40968e-12
3.80481e-12
4.31631e-12
6.7446e-12
2.14426e-11
9.84763e-11
4.40159e-10
1.74283e-09
6.5373e-09
1.1132e-09
1.26423e-10
1.87832e-11
1.39587e-11
1.82075e-11
2.23235e-11
2.55482e-11
2.82213e-11
3.22706e-11
4.77431e-11
1.22928e-10
4.56024e-10
1.76491e-09
8.65453e-09
1.4754e-09
1.79903e-10
5.65109e-11
6.96831e-11
9.55213e-11
1.19744e-10
1.40897e-10
1.59252e-10
1.78134e-10
2.12094e-10
3.31614e-10
8.15875e-10
2.6549e-09
1.13321e-08
2.08777e-09
3.65797e-10
2.21219e-10
3.0325e-10
4.21006e-10
5.38019e-10
6.49219e-10
7.52484e-10
8.56928e-10
9.92537e-10
1.30793e-09
2.3433e-09
5.87952e-09
1.58874e-08
3.81019e-09
1.10602e-09
8.58995e-10
1.14189e-09
1.58103e-09
2.05484e-09
2.53659e-09
3.00866e-09
3.50253e-09
4.08547e-09
5.09089e-09
7.62854e-09
1.52992e-08
2.57453e-08
9.11159e-09
3.77434e-09
3.07974e-09
3.79718e-09
5.13872e-09
6.74645e-09
8.49431e-09
1.02945e-08
1.22533e-08
1.45244e-08
1.77763e-08
2.39679e-08
4.01978e-08
5.15876e-08
2.44825e-08
1.24054e-08
1.0157e-08
1.14915e-08
1.48113e-08
1.93158e-08
2.46183e-08
3.04202e-08
3.70058e-08
4.47328e-08
5.47733e-08
6.94439e-08
1.0032e-07
2.8583e-10
7.67531e-11
3.52464e-11
2.31735e-11
1.64231e-11
1.27502e-11
1.14831e-11
1.05321e-11
9.39602e-12
7.86255e-12
8.97048e-12
2.9558e-11
1.4735e-10
6.85163e-10
1.87851e-10
3.48021e-11
5.77701e-12
1.4704e-12
7.75391e-13
6.08544e-13
6.02252e-13
5.97441e-13
5.86076e-13
7.92657e-13
3.37601e-12
2.12063e-11
1.18571e-10
5.5955e-10
2.73614e-10
5.78717e-11
9.27977e-12
1.2456e-12
1.6166e-13
2.35049e-14
1.11049e-14
1.41214e-14
4.57853e-14
3.52216e-13
2.79222e-12
1.86557e-11
1.0387e-10
4.85504e-10
4.20497e-10
9.0328e-11
1.47378e-11
1.99723e-12
2.4969e-13
2.52823e-14
2.43974e-15
2.75049e-15
2.98798e-14
2.97793e-13
2.42647e-12
1.62554e-11
9.04852e-11
4.22692e-10
5.87474e-10
1.24337e-10
1.98896e-11
2.58322e-12
3.06201e-13
2.93086e-14
3.01089e-15
2.72703e-15
2.59381e-14
2.58507e-13
2.12079e-12
1.42891e-11
7.98871e-11
3.74428e-10
7.95087e-10
1.63929e-10
2.49495e-11
2.95631e-12
3.2246e-13
3.42968e-14
1.04287e-14
1.0239e-14
2.95392e-14
2.27903e-13
1.83188e-12
1.23848e-11
6.96144e-11
3.27716e-10
1.08358e-09
2.17365e-10
3.1278e-11
3.33993e-12
3.71345e-13
9.81362e-14
8.76823e-14
9.11922e-14
1.06105e-13
2.69448e-13
1.62083e-12
1.05705e-11
5.93189e-11
2.79811e-10
1.44978e-09
2.81802e-10
3.84744e-11
3.87461e-12
7.40985e-13
6.10507e-13
6.9722e-13
7.48203e-13
7.7305e-13
9.00226e-13
1.98752e-12
9.29627e-12
4.91613e-11
2.29576e-10
1.87803e-09
3.54249e-10
4.69089e-11
5.61076e-12
3.07714e-12
3.83926e-12
4.58872e-12
5.06002e-12
5.30769e-12
5.52758e-12
6.55104e-12
1.31934e-11
4.90764e-11
2.12062e-10
2.38284e-09
4.43155e-10
6.18366e-11
1.37751e-11
1.52149e-11
2.0704e-11
2.52589e-11
2.85588e-11
3.07251e-11
3.22809e-11
3.4468e-11
4.38512e-11
9.01899e-11
2.95695e-10
2.99773e-09
5.86199e-10
1.06217e-10
5.00236e-11
6.84375e-11
9.51806e-11
1.1819e-10
1.36772e-10
1.50701e-10
1.61773e-10
1.7293e-10
1.98555e-10
2.9687e-10
7.01313e-10
4.07751e-09
9.926e-10
2.8114e-10
1.95308e-10
2.69163e-10
3.76265e-10
4.7553e-10
5.62547e-10
6.33546e-10
6.95248e-10
7.56181e-10
8.52053e-10
1.11085e-09
2.07458e-09
6.66197e-09
2.3154e-09
9.33463e-10
7.23251e-10
9.34633e-10
1.29203e-09
1.65882e-09
2.00477e-09
2.30571e-09
2.58606e-09
2.87315e-09
3.25027e-09
3.94925e-09
6.19346e-09
1.40764e-08
6.3982e-09
3.17187e-09
2.4994e-09
2.93781e-09
3.90967e-09
5.05092e-09
6.22318e-09
7.31063e-09
8.38345e-09
9.53203e-09
1.09509e-08
1.28688e-08
1.7635e-08
5.47281e-11
1.06742e-11
2.56996e-12
1.23316e-12
8.91113e-13
7.97085e-13
8.61385e-13
9.12912e-13
8.96053e-13
7.71618e-13
7.33335e-13
2.29193e-12
1.3305e-11
7.14815e-11
4.46471e-11
9.07762e-12
1.46874e-12
2.04419e-13
3.77231e-14
2.18569e-14
2.88221e-14
3.84783e-14
4.61035e-14
6.09258e-14
2.42476e-13
1.73682e-12
1.12224e-11
6.07388e-11
6.97456e-11
1.57162e-11
2.79138e-12
3.97393e-13
5.10742e-14
6.07831e-15
1.50514e-15
1.78318e-15
3.78379e-15
2.23615e-14
1.98416e-13
1.55363e-12
1.00649e-11
5.42924e-11
1.05674e-10
2.39584e-11
4.35331e-12
6.28693e-13
7.9708e-14
8.53577e-15
8.30905e-16
2.58893e-16
1.5679e-15
1.7583e-14
1.70967e-13
1.35784e-12
8.86517e-12
4.81845e-11
1.44813e-10
3.227e-11
5.77972e-12
8.06727e-13
9.71491e-14
9.86157e-15
9.55512e-16
2.72975e-16
1.32892e-15
1.50169e-14
1.48349e-13
1.19414e-12
7.89179e-12
4.33571e-11
1.91302e-10
4.13647e-11
7.08362e-12
9.15623e-13
1.01515e-13
1.04873e-14
2.15428e-15
1.56046e-15
2.35465e-15
1.38083e-14
1.28133e-13
1.03867e-12
6.95332e-12
3.86561e-11
2.53481e-10
5.30577e-11
8.6087e-12
1.0179e-12
1.08831e-13
2.01963e-14
1.45277e-14
1.45067e-14
1.47415e-14
2.35584e-14
1.20161e-13
9.03909e-13
6.05021e-12
3.38684e-11
3.3027e-10
6.67258e-11
1.02573e-11
1.1391e-12
1.66459e-13
1.01772e-13
1.12247e-13
1.18453e-13
1.18254e-13
1.21755e-13
1.96668e-13
8.47598e-13
5.16354e-12
2.85109e-11
4.15775e-10
8.1099e-11
1.19685e-11
1.43922e-12
5.4654e-13
6.32535e-13
7.49624e-13
8.11402e-13
8.28064e-13
8.25558e-13
8.75667e-13
1.44717e-12
5.26406e-12
2.57559e-11
5.1117e-10
9.72064e-11
1.45688e-11
2.81341e-12
2.62561e-12
3.53301e-12
4.268e-12
4.7172e-12
4.92724e-12
4.99855e-12
5.05716e-12
5.78262e-12
1.03183e-11
3.38792e-11
6.18188e-10
1.20448e-10
2.17607e-11
9.11702e-12
1.22855e-11
1.70941e-11
2.09184e-11
2.35688e-11
2.51472e-11
2.60571e-11
2.66547e-11
2.86883e-11
3.79478e-11
8.34441e-11
8.07192e-10
1.87666e-10
5.08644e-11
3.53069e-11
5.10057e-11
7.17612e-11
8.89932e-11
1.0213e-10
1.11108e-10
1.17525e-10
1.22615e-10
1.3167e-10
1.56942e-10
2.72147e-10
1.30145e-09
4.21057e-10
1.63626e-10
1.33014e-10
1.86402e-10
2.62625e-10
3.30585e-10
3.86622e-10
4.28694e-10
4.62879e-10
4.93722e-10
5.36482e-10
6.09797e-10
8.99152e-10
2.83295e-09
1.18641e-09
5.66769e-10
4.68413e-10
6.07558e-10
8.43247e-10
1.07626e-09
1.28381e-09
1.45197e-09
1.60129e-09
1.74806e-09
1.93647e-09
2.16242e-09
2.83706e-09
1.20407e-11
2.3523e-12
4.86988e-13
1.74033e-13
1.15668e-13
1.12036e-13
1.32938e-13
1.52478e-13
1.59301e-13
1.41534e-13
1.1295e-13
2.39534e-13
1.40748e-12
8.18462e-12
1.09904e-11
2.34752e-12
4.13376e-13
6.16114e-14
1.05881e-14
5.14964e-15
6.85202e-15
9.66934e-15
1.20362e-14
1.32378e-14
2.72019e-14
1.75573e-13
1.22124e-12
7.16699e-12
1.76724e-11
4.06959e-12
7.68004e-13
1.18076e-13
1.61802e-14
2.04376e-15
5.09357e-16
5.70923e-16
8.80068e-16
2.45806e-15
1.87603e-14
1.58328e-13
1.1207e-12
6.57374e-12
2.64356e-11
6.11666e-12
1.17605e-12
1.83379e-13
2.48803e-14
2.84942e-15
3.07247e-16
8.92323e-17
1.81446e-16
1.53365e-15
1.59145e-14
1.39348e-13
9.99604e-13
5.94434e-12
3.56809e-11
8.11445e-12
1.5328e-12
2.317e-13
3.00947e-14
3.27218e-15
3.37078e-16
8.37006e-17
1.45719e-16
1.29588e-15
1.38348e-14
1.23343e-13
9.00261e-13
5.44561e-12
4.61815e-11
1.01568e-11
1.82655e-12
2.57338e-13
3.10983e-14
3.32341e-15
5.55104e-16
3.29755e-16
3.63364e-16
1.30852e-15
1.20715e-14
1.0799e-13
8.02088e-13
4.94118e-12
5.97096e-11
1.26486e-11
2.1428e-12
2.77763e-13
3.20335e-14
4.99878e-15
2.86352e-15
2.73944e-15
2.6596e-15
3.25785e-15
1.2277e-14
9.54164e-14
7.07205e-13
4.4076e-12
7.60013e-11
1.54754e-11
2.47202e-12
3.00735e-13
4.23374e-14
2.01399e-14
2.11014e-14
2.18973e-14
2.14637e-14
2.08566e-14
2.70973e-14
9.60909e-14
6.168e-13
3.78447e-12
9.37629e-11
1.83838e-11
2.80659e-12
3.58139e-13
1.14112e-13
1.20508e-13
1.41023e-13
1.50246e-13
1.50597e-13
1.45972e-13
1.4542e-13
2.0151e-13
6.58313e-13
3.43533e-12
1.13301e-10
2.15779e-11
3.3043e-12
6.2665e-13
5.19115e-13
6.81769e-13
8.15568e-13
8.85758e-13
9.06987e-13
8.97163e-13
8.76715e-13
9.26131e-13
1.42953e-12
4.44593e-12
1.34373e-10
2.59382e-11
4.64048e-12
1.88522e-12
2.46471e-12
3.38979e-12
4.09825e-12
4.5294e-12
4.72943e-12
4.77708e-12
4.73417e-12
4.83865e-12
5.76857e-12
1.13737e-11
1.70784e-10
3.83338e-11
1.00762e-11
7.23074e-12
1.05764e-11
1.47532e-11
1.80161e-11
2.02381e-11
2.15063e-11
2.21446e-11
2.23635e-11
2.30081e-11
2.54369e-11
3.99307e-11
2.71938e-10
8.29e-11
3.14947e-11
2.74521e-11
4.00977e-11
5.63211e-11
6.96252e-11
7.95393e-11
8.59945e-11
9.02379e-11
9.30015e-11
9.71409e-11
1.04189e-10
1.41811e-10
6.02719e-10
2.34495e-10
1.09499e-10
9.71955e-11
1.34955e-10
1.89301e-10
2.37259e-10
2.75729e-10
3.03264e-10
3.24269e-10
3.41347e-10
3.63475e-10
3.87025e-10
4.77963e-10
2.32663e-12
4.66138e-13
9.85238e-14
3.37811e-14
2.26797e-14
2.35041e-14
2.94096e-14
3.52297e-14
3.82893e-14
3.51058e-14
2.5899e-14
2.85461e-14
1.35049e-13
8.30955e-13
2.37511e-12
5.21888e-13
9.67663e-14
1.55625e-14
2.79162e-15
1.34202e-15
1.7992e-15
2.59881e-15
3.31705e-15
3.52693e-15
3.96171e-15
1.64626e-14
1.1829e-13
7.48765e-13
3.9484e-12
9.20892e-13
1.80477e-13
2.96537e-14
4.33908e-15
5.98665e-16
1.74289e-16
1.93589e-16
2.6871e-16
4.05919e-16
1.72261e-15
1.44622e-14
1.1081e-13
7.04938e-13
5.91906e-12
1.39005e-12
2.773e-13
4.60107e-14
6.65883e-15
8.24075e-16
1.15292e-16
5.11898e-17
5.6586e-17
1.58391e-16
1.36275e-15
1.27611e-14
9.99617e-14
6.48402e-13
7.95523e-12
1.83814e-12
3.59907e-13
5.7942e-14
8.06186e-15
9.45866e-16
1.21533e-16
4.64493e-17
4.55929e-17
1.30601e-16
1.18267e-15
1.13333e-14
9.07001e-14
6.0185e-13
1.01567e-11
2.26441e-12
4.21529e-13
6.36112e-14
8.28828e-15
9.35339e-16
1.49562e-16
8.10979e-17
7.69193e-17
1.44611e-16
1.04429e-15
9.94482e-15
8.12443e-14
5.52124e-13
1.28827e-11
2.75718e-12
4.82534e-13
6.74707e-14
8.30242e-15
1.14082e-15
4.86667e-16
4.33267e-16
4.07162e-16
4.26327e-16
1.16134e-15
8.88023e-15
7.20994e-14
4.97715e-13
1.60859e-11
3.30201e-12
5.43986e-13
7.1567e-14
9.70981e-15
3.38978e-15
3.22664e-15
3.26624e-15
3.12859e-15
2.90298e-15
3.2643e-15
9.55713e-15
6.35893e-14
4.31426e-13
1.94972e-11
3.85041e-12
6.04646e-13
8.10891e-14
2.07046e-14
1.88757e-14
2.16278e-14
2.25883e-14
2.21109e-14
2.07264e-14
1.96411e-14
2.39508e-14
7.04648e-14
3.92048e-13
2.31595e-11
4.43135e-12
6.89295e-13
1.248e-13
8.55964e-14
1.08237e-13
1.27983e-13