/*--------------------------------*- C++ -*----------------------------------*\
| =========                 |                                                 |
| \\      /  F ield         | OpenFOAM: The Open Source CFD Toolbox           |
|  \\    /   O peration     | Version:  v2106                                 |
|   \\  /    A nd           | Website:  www.openfoam.com                      |
|    \\/     M anipulation  |                                                 |
\*---------------------------------------------------------------------------*/
FoamFile
{
    version     2.0;
    format      ascii;
    arch        "LSB;label=32;scalar=64";
    class       volScalarField;
    location    "0.000178";
    object      p;
}
// * * * * * * * * * * * * * * * * * * * * * * * * * * * * * * * * * * * * * //

dimensions      [1 -1 -2 0 0 0 0];

internalField   nonuniform List<scalar> 
18109
(
213937
213765
213694
213633
213629
213665
213734
213882
213636
213526
213418
213381
213367
213393
213722
213481
213307
213152
213059
213000
212988
213348
213119
212897
212740
212632
212556
212516
212989
212753
212507
212338
212204
212105
212040
212518
212281
212047
211873
211736
211623
211538
212016
211811
211595
211414
211278
211157
211062
211501
211340
211157
210974
210845
210713
210607
214906
214789
214752
214692
214716
214794
214905
214991
215026
214925
214725
214358
213899
213250
214820
214637
214575
214518
214524
214558
214625
214670
214664
214565
214325
213901
213382
212731
214688
214529
214412
214320
214273
214263
214302
214318
214302
214186
213955
213560
213060
212425
214324
214187
214033
213939
213876
213856
213877
213873
213834
213708
213473
213089
212601
212013
213958
213814
213656
213557
213478
213436
213429
213406
213354
213236
213028
212692
212244
211701
213482
213341
213198
213094
213012
212952
212921
212882
212822
212713
212526
212242
211861
211402
212964
212853
212731
212618
212537
212462
212416
212365
212302
212209
212055
211836
211536
211175
212423
212357
212266
212149
212069
211974
211905
211839
211770
211689
211567
211412
211195
210955
211888
211856
211806
211689
211611
211502
211410
211330
211250
211176
211078
210979
210818
210686
211377
211376
211379
211262
211179
211047
210927
210823
210718
210628
210519
210451
210323
210274
210880
210882
210926
210815
210727
210579
210429
210295
210150
210032
209898
209863
209731
209776
210402
210422
210501
210397
210283
210137
209942
209749
209547
209387
209207
209133
208960
209040
209861
209886
210003
209946
209785
209610
209360
209132
208871
208640
208397
208278
208093
208168
209294
209439
209515
209437
209243
209035
208727
208432
208113
207844
207588
207400
207167
207146
213808
213844
213785
213721
213586
213138
214767
214782
214673
214600
214465
214170
214760
214648
214484
214186
213856
213313
214707
214565
214385
214010
213653
212901
214721
214600
214413
214034
213482
212771
214796
214738
214561
214237
213738
213320
214937
214959
214859
214591
214310
213896
215096
215203
215204
215131
215060
214817
215207
215388
215486
215555
215667
215723
215268
215498
215682
215889
216180
216522
215190
215452
215683
215993
216367
216892
214956
215182
215411
215747
216138
216691
214515
214668
214815
215083
215410
215961
213994
214098
214144
214276
214427
214801
213242
213223
213109
213082
213127
213323
212650
212670
212484
212351
212136
211980
212138
211866
211435
211084
210603
210238
211712
211279
210657
210096
209437
209011
211329
210752
210024
209298
208458
207873
211059
210402
209630
208808
207912
207249
210852
210191
209453
208631
207848
207101
210703
210153
209524
208865
208299
207595
210586
210161
209681
209225
208782
208362
210387
210077
209715
209472
209111
208852
210023
209778
209523
209275
209001
208778
209457
209174
208876
208562
208255
208017
208648
208286
207865
207453
207042
206772
207803
207299
206806
206355
205938
205614
206684
206084
205510
204998
204547
204059
206260
205857
205308
204691
203865
203032
206299
205493
204670
203766
202733
201708
206392
205422
204421
203292
202071
200834
206548
205478
204278
202992
201605
200286
206808
205652
204401
203067
201670
200399
207147
206021
204838
203523
202209
201141
207548
206489
205394
204239
203174
202212
207941
207040
206057
205073
204241
203461
208335
207592
206756
205989
205343
204821
208603
207992
207267
206666
206069
205672
208842
208329
207684
207151
206630
206280
208880
208427
207831
207326
206827
206376
208901
208458
207923
207407
206883
206368
208764
208356
207763
207127
206453
205838
213634
214029
214343
214731
215082
215574
213904
214252
214520
214819
215095
215434
213990
214271
214446
214587
214729
214937
214041
214222
214146
214145
214086
214053
208873
208453
207940
207328
206579
205659
209438
208912
208332
207543
206605
205519
209937
209373
208796
208014
207012
205914
210546
210028
209427
208629
207540
206510
211161
210733
210202
209427
208551
207739
211793
211484
211091
210490
209839
209190
212417
212283
212026
211669
211289
210897
213019
213058
212983
212886
212709
212690
213598
213766
213853
213928
213976
214191
214124
214374
214540
214743
214912
215258
214504
214785
214980
215229
215448
215808
214797
215057
215219
215420
215612
215866
214884
215117
215217
215337
215400
215508
214954
215123
215019
215016
214827
214788
213548
213611
214276
219804
229230
212637
212057
212383
217756
228120
212146
211126
211916
218741
232597
211992
210749
211850
218757
231173
212362
211381
212812
219188
228605
213223
212699
214169
219736
226434
214664
214654
216716
222734
231591
215989
216704
219286
224998
233562
244889
217209
218451
221159
225593
231299
239851
217855
219576
222654
226950
232773
239924
217906
220017
223597
228531
235867
244989
251565
217092
219428
223630
229910
239748
252583
267747
277394
215632
217676
222078
229468
243145
262970
291962
326962
213714
215495
219277
226368
240730
259591
285451
300592
211738
212886
215636
221915
232514
245626
260148
267686
209929
210190
212266
218972
230352
245574
254468
262812
208199
208272
210424
218374
232637
254363
277407
285584
206767
206673
209089
216851
229958
249463
270338
298102
206269
206070
208502
214727
224172
236496
250477
257836
206235
205986
208510
214454
222710
233176
239329
245196
207024
207123
210218
216959
228258
243839
257185
258316
207947
208603
212014
217916
227360
240055
255452
280106
208632
209852
213202
217888
223362
229077
208825
210507
214202
218847
224282
229556
208251
210101
214303
219447
226855
236475
207129
208473
212781
218859
230026
243888
205326
206249
210172
217375
233490
254947
203793
203751
207315
214595
230670
202016
201133
203984
210601
221647
200231
198925
201254
208996
221345
198941
197501
199939
208813
224938
198312
197047
199254
207559
222783
198484
197318
199249
205120
214029
199645
198798
201130
206246
213803
201208
200906
204030
209924
221492
202821
203189
206428
211552
221099
204352
205093
207974
212109
217571
205418
206204
208634
212762
218414
205994
206277
208750
212726
220718
205829
205717
207810
212389
224665
205330
204505
206343
211403
226298
204615
203389
205117
210976
224897
204074
202467
203907
209645
220508
203803
201996
203273
210469
222336
204054
202095
203548
212154
228400
204806
203026
204376
212329
226489
206360
204935
206204
212394
221470
208325
207543
209039
213979
220842
210583
210569
212867
218206
228011
212786
213604
216358
221458
230790
214683
215993
218720
223072
229254
215962
217568
220415
224631
231040
216587
218256
221031
225965
234214
216567
217877
220579
226698
238301
215897
216794
219219
225740
240932
214784
215406
216850
223301
238080
216944
216890
216915
216897
216942
217037
217207
217349
217460
217475
217376
217111
216729
216148
216824
216756
216735
216727
216779
216881
217025
217145
217249
217258
217098
216786
216374
215819
216613
216592
216593
216603
216640
216722
216835
216933
217006
216995
216856
216559
216142
215582
216257
216280
216269
216278
216306
216379
216472
216554
216611
216585
216440
216150
215728
215184
215816
215849
215874
215903
215933
215996
216065
216121
216153
216114
215972
215710
215315
214782
215285
215354
215403
215432
215459
215506
215552
215587
215599
215550
215414
215173
214818
214327
214701
214805
214877
214913
214942
214971
214994
215007
215001
214951
214833
214628
214337
213921
214102
214243
214346
214374
214394
214399
214393
214382
214357
214308
214210
214054
213833
213540
213495
213659
213791
213822
213834
213817
213782
213749
213708
213664
213592
213501
213338
213203
212929
213103
213274
213295
213284
213241
213174
213110
213043
212995
212925
212889
212787
212793
212384
212527
212744
212767
212730
212664
212559
212463
212365
212307
212238
212275
212232
212331
211875
212007
212238
212254
212180
212098
211959
211821
211680
211596
211518
211570
211538
211728
211305
211444
211692
211714
211600
211493
211308
211128
210948
210810
210721
210769
210768
211021
210759
211040
211177
211153
211013
210866
210626
210391
210159
209995
209918
209916
209909
210071
221081
221162
221245
221335
221465
221600
221788
221955
222108
222185
222222
222132
221933
221524
220901
221035
221105
221220
221345
221495
221676
221844
221988
222069
222076
221910
221656
221244
220579
220785
220909
221075
221221
221386
221554
221706
221825
221881
221874
221738
221491
221104
220246
220503
220655
220833
220978
221135
221285
221420
221521
221565
221540
221392
221126
220735
219796
220101
220290
220482
220634
220784
220918
221033
221112
221143
221109
220965
220705
220322
219292
219616
219844
220043
220195
220326
220437
220527
220585
220602
220564
220421
220169
219793
218721
219057
219323
219524
219672
219782
219868
219932
219971
219978
219939
219806
219575
219234
218134
218472
218766
218957
219091
219174
219230
219269
219289
219288
219251
219138
218939
218661
217511
217840
218156
218346
218464
218524
218552
218566
218568
218561
218530
218455
218305
218120
216935
217236
217555
217733
217825
217858
217855
217841
217824
217813
217785
217764
217683
217596
216350
216624
216927
217105
217170
217178
217148
217104
217072
217062
217044
217096
217056
217139
215802
216083
216329
216497
216520
216504
216444
216367
216308
216289
216270
216369
216371
216562
215203
215503
215712
215878
215862
215828
215732
215618
215528
215508
215524
215673
215741
215996
214660
214991
215140
215259
215196
215138
215002
214850
214728
214699
214712
214840
214945
215156
225753
225941
226146
226303
226480
226642
226828
227016
227208
227378
227508
227574
227593
227493
225423
225691
225904
226094
226284
226465
226661
226855
227041
227193
227295
227337
227317
227186
225058
225394
225630
225865
226077
226279
226481
226674
226851
226992
227090
227139
227116
226982
224705
225066
225321
225574
225794
226001
226202
226391
226561
226697
226791
226834
226804
226667
224303
224677
224961
225226
225450
225655
225848
226028
226191
226323
226415
226456
226426
226297
223875
224248
224553
224819
225040
225234
225412
225577
225729
225856
225943
225982
225952
225832
223415
223779
224097
224359
224571
224750
224908
225055
225193
225311
225394
225433
225406
225302
222948
223293
223613
223861
224055
224210
224344
224469
224589
224699
224778
224824
224803
224721
222460
222781
223095
223330
223504
223635
223742
223843
223943
224045
224124
224184
224178
224130
222005
222296
222585
222796
222938
223038
223115
223191
223270
223365
223447
223528
223544
223551
221516
221792
222046
222242
222356
222425
222470
222521
222582
222675
222770
222892
222932
223017
221074
221335
221533
221703
221778
221814
221826
221851
221894
221981
222084
222246
222307
222477
220544
220809
220968
221128
221176
221186
221162
221161
221190
221281
221413
221630
221760
221997
220029
220338
220455
220574
220567
220554
220498
220475
220491
220576
220699
220936
221085
221314
230837
231092
231304
231498
231672
231840
232012
232197
232396
232600
232806
232991
233176
233277
230454
230767
230999
231212
231404
231587
231774
231971
232178
232386
232586
232766
232915
233019
230090
230430
230679
230915
231125
231323
231521
231725
231937
232147
232349
232532
232679
232789
229735
230078
230346
230593
230812
231018
231223
231432
231647
231862
232067
232252
232396
232514
229381
229722
230004
230255
230478
230685
230891
231102
231320
231539
231749
231939
232085
232207
229032
229363
229650
229898
230117
230320
230522
230730
230947
231169
231381
231573
231719
231845
228692
229007
229290
229529
229737
229929
230120
230320
230532
230751
230962
231157
231303
231436
228369
228661
228928
229148
229338
229511
229684
229870
230071
230285
230492
230690
230837
230973
228055
228319
228562
228760
228925
229074
229223
229389
229574
229780
229984
230186
230332
230475
227760
227990
228198
228366
228499
228618
228740
228883
229048
229245
229447
229656
229803
229956
227435
227643
227817
227961
228061
228149
228240
228357
228503
228693
228897
229117
229268
229445
227145
227322
227445
227552
227612
227665
227728
227823
227953
228138
228345
228583
228741
228949
226736
226916
227012
227111
227143
227166
227202
227273
227389
227572
227797
228066
228257
228498
226397
226569
226633
226690
226677
226665
226683
226743
226852
227034
227257
227535
227734
227996
235095
235362
235573
235778
235960
236132
236305
236485
236679
236890
237114
237341
237581
237765
234758
235041
235269
235485
235681
235868
236054
236248
236455
236677
236908
237144
237367
237565
234449
234736
234974
235198
235403
235598
235793
235996
236212
236442
236679
236921
237151
237354
234165
234445
234686
234910
235117
235316
235516
235725
235948
236187
236432
236682
236915
237132
233900
234169
234408
234627
234832
235029
235231
235445
235673
235920
236174
236434
236673
236899
233662
233914
234143
234351
234547
234739
234938
235153
235385
235639
235898
236166
236409
236644
233451
233681
233894
234086
234268
234449
234641
234853
235086
235342
235606
235879
236122
236365
233264
233467
233658
233829
233991
234157
234336
234541
234770
235027
235291
235566
235805
236054
233094
233266
233430
233577
233717
233863
234026
234219
234440
234694
234956
235231
235462
235714
232931
233070
233205
233325
233442
233565
233709
233887
234098
234347
234605
234877
235098
235352
232766
232875
232979
233072
233162
233261
233384
233545
233744
233987
234241
234511
234724
234980
232601
232680
232747
232809
232872
232949
233053
233200
233388
233625
233877
234148
234356
234614
232390
232458
232502
232546
232581
232632
232715
232844
233021
233253
233507
233787
234007
234276
232258
232287
232283
232289
232285
232311
232378
232500
232673
232904
233159
233437
233658
233950
238060
238291
238494
238703
238907
239108
239311
239519
239732
239956
240184
240412
240645
240838
237804
238045
238257
238472
238686
238899
239115
239338
239564
239802
240038
240278
240502
240709
237601
237836
238048
238263
238478
238694
238913
239142
239374
239616
239857
240097
240330
240534
237422
237648
237857
238067
238279
238494
238714
238943
239178
239423
239667
239912
240145
240359
237271
237483
237684
237886
238091
238301
238517
238744
238977
239223
239468
239715
239952
240173
237146
237342
237531
237721
237915
238116
238326
238548
238778
239023
239266
239515
239752
239982
237045
237222
237397
237572
237753
237943
238143
238358
238584
238825
239066
239315
239550
239788
236962
237119
237277
237435
237602
237777
237966
238173
238392
238630
238866
239114
239343
239589
236893
237027
237166
237307
237457
237618
237794
237991
238204
238436
238667
238913
239133
239386
236830
236941
237059
237183
237316
237463
237627
237815
238020
238249
238475
238717
238926
239183
236776
236863
236959
237063
237178
237309
237461
237640
237838
238064
238285
238525
238725
238986
236723
236790
236859
236942
237037
237153
237294
237467
237662
237886
238107
238345
238540
238800
236669
236724
236771
236833
236907
237004
237130
237294
237484
237706
237927
238170
238371
238642
236657
236689
236698
236728
236772
236847
236960
237117
237307
237532
237760
238001
238211
238482
239879
240056
240221
240410
240611
240822
241040
241268
241490
241716
241927
242133
242330
242506
239744
239927
240096
240288
240494
240716
240946
241187
241423
241663
241882
242100
242291
242478
239657
239834
240004
240194
240401
240621
240852
241094
241331
241570
241791
242005
242199
242382
239589
239760
239928
240117
240321
240539
240767
241005
241239
241476
241694
241908
242101
242288
239544
239707
239872
240056
240253
240465
240685
240914
241140
241367
241580
241787
241981
242166
239522
239675
239834
240009
240198
240400
240610
240827
241042
241257
241461
241660
241850
242037
239515
239659
239810
239975
240153
240343
240539
240743
240945
241148
241341
241532
241718
241908
239516
239651
239793
239948
240114
240291
240474
240664
240852
241042
241225
241408
241589
241782
239525
239648
239780
239925
240079
240242
240411
240587
240764
240942
241115
241292
241466
241664
239541
239652
239770
239903
240044
240193
240349
240514
240681
240851
241016
241188
241357
241557
239569
239668
239770
239886
240013
240149
240292
240447
240605
240770
240929
241100
241264
241474
239601
239691
239770
239870
239979
240101
240234
240381
240533
240695
240854
241026
241191
241404
239644
239719
239780
239864
239957
240065
240188
240330
240477
240638
240798
240977
241146
241373
239702
239772
239804
239863
239933
240025
240138
240274
240424
240589
240755
240933
241117
241329
240851
240988
241122
241283
241458
241648
241843
242048
242240
242433
242602
242774
242927
243088
240841
240978
241110
241269
241446
241641
241844
242056
242259
242463
242643
242826
242980
243150
240842
240973
241108
241268
241444
241639
241842
242054
242257
242459
242639
242819
242976
243147
240859
240986
241121
241279
241455
241647
241848
242055
242254
242451
242629
242807
242966
243136
240888
241012
241147
241303
241474
241661
241855
242053
242245
242433
242606
242777
242938
243107
240930
241051
241184
241335
241501
241679
241863
242050
242231
242407
242573
242737
242897
243066
240981
241099
241228
241374
241531
241699
241871
242045
242213
242377
242534
242690
242850
243020
241040
241156
241279
241417
241564
241719
241878
242037
242192
242343
242492
242640
242801
242972
241104
241217
241332
241461
241597
241738
241883
242028
242171
242310
242452
242595
242757
242930
241177
241286
241390
241507
241629
241756
241886
242017
242150
242280
242417
242556
242720
242897
241255
241357
241447
241551
241660
241774
241892
242013
242137
242261
242396
242537
242702
242887
241340
241435
241507
241599
241693
241793
241899
242009
242127
242248
242383
242526
242697
242885
241431
241507
241566
241646
241728
241818
241916
242023
242138
242263
242400
242552
242723
242926
241521
241603
241641
241704
241770
241850
241938
242038
242150
242272
242411
242562
242746
242938
241460
241583
241696
241826
241964
242111
242258
242409
242549
242694
242820
242959
243081
243231
241535
241643
241752
241876
242011
242157
242306
242461
242607
242760
242896
243046
243172
243328
241599
241701
241809
241930
242061
242204
242351
242503
242650
242801
242939
243089
243221
243379
241668
241766
241871
241989
242117
242256
242399
242547
242692
242841
242980
243131
243269
243430
241741
241835
241937
242052
242175
242308
242445
242588
242729
242875
243015
243166
243308
243471
241820
241911
242009
242119
242236
242361
242491
242626
242763
242903
243043
243192
243339
243504
241902
241989
242083
242188
242298
242416
242538
242664
242794
242929
243067
243213
243366
243533
241991
242076
242164
242260
242362
242470
242584
242701
242825
242952
243089
243231
243390
243557
242079
242162
242242
242331
242425
242524
242630
242740
242858
242980
243116
243256
243421
243589
242177
242258
242326
242407
242491
242581
242677
242778
242891
243008
243144
243283
243456
243626
242273
242348
242407
242480
242556
242638
242728
242825
242936
243052
243191
243332
243510
243683
242380
242451
242500
242565
242630
242703
242785
242875
242983
243097
243239
243383
243569
243744
242487
242547
242587
242645
242703
242772
242851
242943
243054
243175
243321
243474
243661
243841
242591
242661
242688
242737
242788
242853
242929
243018
243126
243245
243390
243541
243731
243912
241870
241972
242054
242142
242234
242332
242432
242538
242639
242748
242847
242966
243073
243216
241995
242072
242149
242229
242313
242406
242502
242605
242707
242819
242924
243048
243160
243305
242101
242168
242239
242314
242392
242479
242570
242669
242769
242880
242987
243111
243228
243374
242202
242263
242328
242397
242470
242551
242637
242732
242830
242939
243048
243173
243295
243443
242298
242353
242413
242478
242546
242622
242704
242795
242891
242999
243109
243236
243362
243512
242394
242443
242499
242557
242621
242692
242771
242859
242953
243059
243171
243299
243430
243580
242487
242530
242582
242636
242695
242762
242837
242922
243017
243123
243237
243366
243501
243652
242584
242623
242670
242717
242773
242834
242906
242989
243083
243189
243308
243437
243579
243726
242675
242714
242755
242798
242851
242909
242980
243062
243158
243265
243388
243519
243667
243811
242773
242813
242848
242888
242937
242992
243062
243141
243239
243346
243475
243606
243762
243903
242866
242909
242938
242978
243024
243079
243149
243231
243333
243444
243578
243711
243872
244011
242969
243014
243039
243078
243121
243176
243246
243328
243431
243543
243679
243814
243980
244119
243065
243111
243133
243174
243216
243274
243348
243436
243546
243665
243806
243946
244113
244252
243163
243217
243236
243277
243320
243381
243456
243547
243656
243775
243913
244051
244213
244360
241952
242032
242093
242158
242225
242301
242381
242470
242561
242662
242761
242877
242978
243111
242090
242141
242194
242249
242308
242377
242452
242536
242624
242726
242827
242947
243054
243189
242207
242248
242294
242342
242394
242455
242523
242602
242688
242787
242888
243008
243121
243258
242322
242355
242394
242436
242481
242536
242598
242672
242754
242851
242953
243073
243190
243328
242432
242458
242492
242528
242568
242618
242676
242747
242827
242922
243025
243145
243265
243404
242541
242561
242592
242622
242659
242704
242759
242827
242906
243001
243105
243225
243349
243487
242646
242662
242690
242716
242750
242793
242846
242913
242994
243089
243197
243317
243444
243579
242753
242766
242791
242813
242847
242888
242942
243009
243091
243188
243300
243420
243551
243682
242853
242870
242891
242912
242946
242987
243044
243113
243200
243300
243416
243537
243671
243796
242954
242977
242995
243019
243053
243096
243155
243227
243318
243420
243541
243662
243800
243921
243050
243079
243096
243124
243161
243208
243272
243350
243446
243554
243678
243801
243941
244055
243149
243184
243203
243236
243276
243328
243397
243478
243578
243688
243814
243937
244080
244192
243238
243279
243301
243341
243386
243446
243522
243612
243719
243835
243965
244091
244233
244343
243330
243375
243401
243446
243498
243566
243647
243742
243851
243968
244095
244221
244359
244481
241737
241804
241859
241915
241970
242027
242090
242161
242239
242327
242421
242528
242626
242751
241875
241916
241962
242010
242059
242112
242170
242237
242312
242400
242494
242603
242708
242831
241999
242030
242070
242110
242153
242200
242254
242316
242389
242473
242566
242674
242781
242905
242122
242144
242175
242209
242247
242291
242341
242402
242472
242556
242649
242756
242864
242989
242240
242256
242282
242310
242344
242385
242434
242493
242563
242647
242740
242847
242956
243080
242359
242369
242391
242414
242446
242485
242533
242594
242665
242750
242845
242952
243063
243184
242472
242479
242500
242520
242552
242591
242642
242704
242778
242865
242962
243069
243182
243298
242585
242593
242612
242632
242665
242705
242759
242824
242903
242992
243093
243199
243315
243427
242691
242705
242723
242747
242782
242826
242884
242954
243037
243130
243233
243341
243458
243565
242795
242818
242838
242866
242906
242955
243018
243092
243180
243276
243383
243491
243611
243712
242895
242926
242949
242984
243030
243086
243156
243237
243330
243430
243540
243649
243770
243863
242992
243031
243061
243104
243157
243222
243298
243384
243482
243585
243697
243806
243928
244018
243079
243128
243164
243217
243278
243352
243437
243532
243636
243745
243860
243972
244091
244178
243166
243219
243264
243328
243397
243480
243571
243672
243779
243890
244005
244116
244233
244332
241303
241346
241389
241434
241481
241534
241593
241660
241735
241817
241905
242000
242091
242192
241430
241459
241495
241534
241577
241627
241683
241749
241823
241905
241994
242090
242182
242285
241557
241578
241610
241643
241682
241728
241782
241844
241916
241997
242084
242179
242271
242373
241683
241698
241724
241754
241791
241834
241887
241949
242020
242101
242188
242282
242375
242476
241807
241820
241844
241871
241907
241949
242001
242062
242133
242213
242299
242393
242484
242584
241933
241944
241967
241993
242028
242071
242124
242186
242258
242338
242425
242517
242609
242705
242055
242068
242092
242119
242155
242200
242254
242318
242392
242473
242559
242650
242741
242832
242177
242193
242218
242248
242288
242336
242394
242460
242536
242618
242706
242794
242886
242971
242292
242313
242341
242377
242421
242475
242537
242608
242687
242770
242859
242946
243038
243116
242401
242432
242465
242508
242558
242618
242686
242761
242844
242928
243018
243104
243196
243267
242503
242543
242581
242632
242691
242759
242835
242916
243002
243089
243180
243265
243357
243420
242598
242649
242695
242756
242824
242900
242983
243069
243158
243248
243339
243424
243515
243576
242683
242743
242797
242869
242946
243033
243124
243217
243313
243406
243500
243586
243674
243732
242763
242834
242899
242983
243069
243163
243260
243357
243455
243550
243644
243730
243817
243883
240648
240673
240709
240748
240794
240846
240905
240970
241041
241117
241196
241278
241355
241437
240777
240791
240826
240862
240905
240956
241015
241080
241152
241229
241309
241392
241468
241554
240909
240918
240953
240986
241029
241077
241135
241198
241269
241344
241423
241504
241580
241664
241038
241048
241081
241114
241157
241205
241263
241327
241398
241473
241551
241631
241707
241786
241166
241180
241214
241248
241292
241341
241400
241464
241533
241608
241684
241762
241836
241913
241296
241315
241348
241385
241431
241483
241544
241609
241679
241752
241827
241903
241976
242050
241421
241446
241481
241523
241573
241629
241692
241758
241829
241902
241975
242049
242120
242189
241545
241576
241615
241663
241717
241778
241844
241912
241984
242056
242129
242200
242271
242334
241660
241698
241743
241798
241859
241925
241995
242067
242140
242212
242285
242353
242422
242479
241772
241820
241871
241934
242002
242074
242147
242222
242297
242369
242441
242507
242576
242627
241875
241931
241992
242063
242137
242216
242295
242373
242451
242524
242596
242661
242729
242772
241975
242042
242111
242191
242273
242357
242440
242521
242600
242673
242746
242810
242878
242918
242065
242142
242219
242308
242397
242488
242578
242663
242746
242822
242896
242960
243027
243065
242153
242245
242333
242429
242525
242620
242712
242799
242883
242960
243033
243097
243162
243208
239907
239913
239939
239969
240010
240058
240114
240174
240238
240304
240372
240440
240504
240571
240048
240043
240069
240099
240141
240190
240246
240307
240371
240437
240504
240572
240634
240702
240180
240176
240205
240237
240281
240331
240387
240446
240509
240573
240637
240703
240761
240828
240307
240311
240342
240377
240425
240477
240535
240595
240658
240721
240784
240847
240904
240967
240430
240445
240480
240521
240572
240627
240687
240748
240809
240871
240932
240993
241049
241107
240554
240579
240619
240666
240722
240781
240842
240904
240966
241027
241087
241146
241201
241257
240675
240711
240757
240812
240872
240934
240998
241060
241122
241183
241242
241299
241352
241405
240798
240844
240897
240958
241022
241087
241153
241217
241280
241340
241398
241453
241508
241556
240919
240974
241034
241100
241168
241237
241305
241371
241434
241494
241552
241605
241660
241703
241043
241106
241171
241243
241315
241386
241456
241522
241587
241646
241705
241757
241812
241850
241160
241230
241302
241378
241454
241529
241602
241670
241736
241796
241855
241905
241961
241993
241280
241358
241435
241516
241596
241673
241746
241815
241881
241941
242000
242051
242107
242137
241390
241473
241557
241643
241727
241808
241886
241958
242025
242087
242146
242197
242252
242281
241503
241598
241689
241779
241865
241947
242025
242097
242164
242225
242283
242334
242388
242426
239317
239303
239315
239336
239366
239402
239441
239484
239529
239576
239625
239674
239721
239770
239455
239436
239454
239476
239508
239544
239584
239627
239671
239716
239761
239807
239850
239897
239576
239569
239592
239619
239653
239691
239731
239772
239814
239857
239899
239942
239980
240027
239699
239705
239732
239763
239800
239839
239880
239922
239964
240005
240045
240086
240123
240167
239818
239837
239870
239906
239946
239988
240031
240073
240114
240154
240193
240233
240268
240309
239943
239972
240010
240050
240093
240137
240181
240224
240266
240306
240345
240383
240419
240457
240067
240104
240147
240192
240239
240285
240330
240374
240416
240456
240495
240533
240568
240604
240194
240238
240285
240334
240383
240431
240478
240523
240566
240607
240646
240683
240720
240753
240318
240369
240420
240473
240525
240575
240624
240670
240713
240754
240794
240830
240869
240899
240445
240502
240557
240612
240667
240718
240768
240814
240859
240900
240942
240978
241019
241045
240569
240631
240689
240748
240805
240859
240910
240957
241003
241045
241087
241123
241165
241187
240697
240765
240825
240886
240944
240999
241051
241099
241145
241187
241230
241268
241311
241331
240818
240888
240953
241017
241078
241136
241191
241240
241287
241331
241374
241412
241456
241476
240953
241027
241093
241158
241220
241277
241332
241381
241428
241471
241513
241552
241595
241625
239038
239048
239060
239074
239090
239108
239128
239151
239178
239203
239166
239147
239151
239157
239167
239178
239190
239204
239218
239234
239252
239272
239292
239316
239276
239264
239272
239281
239293
239306
239319
239332
239345
239359
239373
239390
239406
239429
239387
239383
239395
239406
239419
239433
239447
239460
239473
239486
239499
239514
239528
239548
239492
239498
239515
239528
239543
239559
239573
239587
239600
239613
239625
239638
239651
239670
239600
239614
239634
239650
239667
239683
239698
239713
239727
239740
239753
239766
239778