/*--------------------------------*- C++ -*----------------------------------*\
| =========                 |                                                 |
| \\      /  F ield         | OpenFOAM: The Open Source CFD Toolbox           |
|  \\    /   O peration     | Version:  v2106                                 |
|   \\  /    A nd           | Website:  www.openfoam.com                      |
|    \\/     M anipulation  |                                                 |
\*---------------------------------------------------------------------------*/
FoamFile
{
    version     2.0;
    format      ascii;
    arch        "LSB;label=32;scalar=64";
    class       volScalarField;
    location    "0.000198";
    object      epsilon;
}
// * * * * * * * * * * * * * * * * * * * * * * * * * * * * * * * * * * * * * //

dimensions      [0 2 -3 0 0 0 0];

internalField   nonuniform List<scalar> 
17924
(
1.4179e-08
1.27632e-08
1.24846e-08
1.2434e-08
1.26039e-08
1.24378e-08
1.2405e-08
1.23989e-08
1.23986e-08
1.23999e-08
1.24021e-08
1.26374e-08
1.24449e-08
1.24015e-08
1.23925e-08
1.23907e-08
1.23905e-08
1.23907e-08
1.28168e-08
1.24872e-08
1.2408e-08
1.2391e-08
1.23876e-08
1.2387e-08
1.2387e-08
1.30842e-08
1.25482e-08
1.24183e-08
1.23905e-08
1.23851e-08
1.23842e-08
1.23842e-08
1.33933e-08
1.26132e-08
1.24282e-08
1.23898e-08
1.23826e-08
1.23816e-08
1.23816e-08
1.37165e-08
1.26729e-08
1.24356e-08
1.23886e-08
1.23804e-08
1.23793e-08
1.23793e-08
1.40704e-08
1.27317e-08
1.24414e-08
1.23871e-08
1.23783e-08
1.23772e-08
1.23773e-08
1.44631e-08
1.27925e-08
1.24468e-08
1.23858e-08
1.23765e-08
1.23756e-08
1.23758e-08
1.48766e-08
1.28544e-08
1.24527e-08
1.23853e-08
1.23759e-08
1.23755e-08
1.23762e-08
1.53145e-08
1.29223e-08
1.2462e-08
1.23883e-08
1.23806e-08
1.23829e-08
1.23859e-08
1.57773e-08
1.30141e-08
1.24879e-08
1.24089e-08
1.24103e-08
1.24253e-08
1.24393e-08
1.65561e-08
1.32579e-08
1.25951e-08
1.25083e-08
1.25505e-08
1.26214e-08
1.26836e-08
1.88768e-08
1.41441e-08
1.30381e-08
1.29299e-08
1.3132e-08
1.34261e-08
1.36818e-08
2.68377e-08
1.72891e-08
1.47206e-08
1.45481e-08
1.53117e-08
1.64093e-08
1.73697e-08
1.24176e-08
1.23996e-08
1.23958e-08
1.23946e-08
1.23941e-08
1.23941e-08
1.23943e-08
1.23947e-08
1.23951e-08
1.23956e-08
1.2396e-08
1.23963e-08
1.23972e-08
1.23996e-08
1.24207e-08
1.23987e-08
1.2393e-08
1.23913e-08
1.23903e-08
1.23899e-08
1.23897e-08
1.23897e-08
1.239e-08
1.23906e-08
1.23914e-08
1.2392e-08
1.23932e-08
1.23959e-08
1.24402e-08
1.24014e-08
1.23911e-08
1.23883e-08
1.23871e-08
1.23866e-08
1.23863e-08
1.23863e-08
1.23865e-08
1.2387e-08
1.23878e-08
1.23884e-08
1.23898e-08
1.23927e-08
1.24697e-08
1.2406e-08
1.23896e-08
1.23855e-08
1.23841e-08
1.23835e-08
1.23831e-08
1.23831e-08
1.23832e-08
1.23835e-08
1.23841e-08
1.23847e-08
1.2386e-08
1.23888e-08
1.25038e-08
1.24111e-08
1.23882e-08
1.23828e-08
1.23812e-08
1.23806e-08
1.23802e-08
1.23801e-08
1.23801e-08
1.23805e-08
1.2381e-08
1.23815e-08
1.23826e-08
1.23854e-08
1.25387e-08
1.24156e-08
1.23867e-08
1.23804e-08
1.23786e-08
1.2378e-08
1.23775e-08
1.23774e-08
1.23773e-08
1.23776e-08
1.23781e-08
1.23786e-08
1.23795e-08
1.23822e-08
1.25761e-08
1.24199e-08
1.23852e-08
1.23781e-08
1.23763e-08
1.23756e-08
1.23752e-08
1.2375e-08
1.2375e-08
1.23753e-08
1.23757e-08
1.23763e-08
1.23771e-08
1.23797e-08
1.26169e-08
1.24244e-08
1.23838e-08
1.2376e-08
1.23742e-08
1.23736e-08
1.23732e-08
1.2373e-08
1.2373e-08
1.23733e-08
1.23737e-08
1.23744e-08
1.23752e-08
1.23777e-08
1.2659e-08
1.2429e-08
1.23826e-08
1.23743e-08
1.23726e-08
1.2372e-08
1.23717e-08
1.23716e-08
1.23717e-08
1.2372e-08
1.23724e-08
1.23732e-08
1.2374e-08
1.23765e-08
1.27028e-08
1.2434e-08
1.23819e-08
1.23731e-08
1.23716e-08
1.23713e-08
1.23713e-08
1.23714e-08
1.23716e-08
1.2372e-08
1.23725e-08
1.23734e-08
1.23743e-08
1.23775e-08
1.27464e-08
1.24408e-08
1.23828e-08
1.23737e-08
1.23731e-08
1.23741e-08
1.23751e-08
1.23758e-08
1.23764e-08
1.23769e-08
1.23775e-08
1.23785e-08
1.23797e-08
1.23852e-08
1.28142e-08
1.24602e-08
1.23908e-08
1.23813e-08
1.23848e-08
1.23909e-08
1.23963e-08
1.23998e-08
1.24017e-08
1.24025e-08
1.24029e-08
1.24038e-08
1.24054e-08
1.24176e-08
1.30165e-08
1.25354e-08
1.24279e-08
1.24178e-08
1.2437e-08
1.24642e-08
1.24873e-08
1.25021e-08
1.25097e-08
1.25122e-08
1.25116e-08
1.25118e-08
1.25131e-08
1.25404e-08
1.37388e-08
1.28121e-08
1.25739e-08
1.2563e-08
1.26393e-08
1.27446e-08
1.28333e-08
1.28924e-08
1.2924e-08
1.29348e-08
1.29318e-08
1.293e-08
1.29274e-08
1.29838e-08
1.23982e-08
1.2396e-08
1.23952e-08
1.23947e-08
1.23942e-08
1.23939e-08
1.23938e-08
1.23939e-08
1.23942e-08
1.23947e-08
1.23953e-08
1.2396e-08
1.23967e-08
1.23967e-08
1.23969e-08
1.23943e-08
1.23929e-08
1.2392e-08
1.23913e-08
1.23908e-08
1.23905e-08
1.23904e-08
1.23906e-08
1.23911e-08
1.23918e-08
1.23923e-08
1.23931e-08
1.23934e-08
1.23972e-08
1.23924e-08
1.23902e-08
1.23891e-08
1.23883e-08
1.23877e-08
1.23874e-08
1.23873e-08
1.23874e-08
1.23879e-08
1.23885e-08
1.2389e-08
1.23899e-08
1.23905e-08
1.2398e-08
1.23904e-08
1.23876e-08
1.23863e-08
1.23854e-08
1.23849e-08
1.23844e-08
1.23843e-08
1.23843e-08
1.23846e-08
1.2385e-08
1.23854e-08
1.23863e-08
1.23869e-08
1.23992e-08
1.23884e-08
1.23849e-08
1.23835e-08
1.23826e-08
1.23821e-08
1.23816e-08
1.23814e-08
1.23814e-08
1.23816e-08
1.2382e-08
1.23824e-08
1.23831e-08
1.23837e-08
1.24004e-08
1.23864e-08
1.23824e-08
1.2381e-08
1.23801e-08
1.23795e-08
1.2379e-08
1.23788e-08
1.23787e-08
1.23788e-08
1.23791e-08
1.23795e-08
1.238e-08
1.23808e-08
1.2402e-08
1.23847e-08
1.23801e-08
1.23787e-08
1.23777e-08
1.23772e-08
1.23767e-08
1.23764e-08
1.23762e-08
1.23763e-08
1.23766e-08
1.2377e-08
1.23774e-08
1.23784e-08
1.24039e-08
1.23831e-08
1.2378e-08
1.23766e-08
1.23757e-08
1.23751e-08
1.23746e-08
1.23743e-08
1.23741e-08
1.23741e-08
1.23743e-08
1.23747e-08
1.23752e-08
1.23762e-08
1.24062e-08
1.23818e-08
1.23763e-08
1.23749e-08
1.2374e-08
1.23734e-08
1.23728e-08
1.23725e-08
1.23722e-08
1.23722e-08
1.23724e-08
1.23729e-08
1.23734e-08
1.23744e-08
1.24089e-08
1.23806e-08
1.23748e-08
1.23734e-08
1.23726e-08
1.2372e-08
1.23715e-08
1.23711e-08
1.23709e-08
1.23708e-08
1.2371e-08
1.23715e-08
1.23719e-08
1.2373e-08
1.24115e-08
1.23799e-08
1.23737e-08
1.23723e-08
1.23717e-08
1.23712e-08
1.23708e-08
1.23705e-08
1.23703e-08
1.23702e-08
1.23704e-08
1.2371e-08
1.23713e-08
1.23724e-08
1.24157e-08
1.23802e-08
1.23734e-08
1.2372e-08
1.23719e-08
1.23718e-08
1.23719e-08
1.23718e-08
1.23717e-08
1.23717e-08
1.23718e-08
1.23723e-08
1.23723e-08
1.23736e-08
1.24304e-08
1.2385e-08
1.23757e-08
1.23744e-08
1.23758e-08
1.23777e-08
1.23793e-08
1.23801e-08
1.23804e-08
1.23804e-08
1.23802e-08
1.23801e-08
1.23794e-08
1.23808e-08
1.24893e-08
1.24065e-08
1.23869e-08
1.23862e-08
1.23931e-08
1.24022e-08
1.24095e-08
1.24139e-08
1.24157e-08
1.24156e-08
1.24142e-08
1.24125e-08
1.24105e-08
1.24128e-08
1.23948e-08
1.23949e-08
1.23948e-08
1.23946e-08
1.23943e-08
1.23942e-08
1.23942e-08
1.23944e-08
1.23947e-08
1.23952e-08
1.23959e-08
1.23966e-08
1.23972e-08
1.23971e-08
1.23932e-08
1.23933e-08
1.23929e-08
1.23925e-08
1.2392e-08
1.23918e-08
1.23918e-08
1.23918e-08
1.23921e-08
1.23926e-08
1.23933e-08
1.23939e-08
1.23944e-08
1.23945e-08
1.23917e-08
1.23913e-08
1.23906e-08
1.23901e-08
1.23896e-08
1.23894e-08
1.23893e-08
1.23894e-08
1.23896e-08
1.23901e-08
1.23908e-08
1.23913e-08
1.23921e-08
1.23924e-08
1.23898e-08
1.23889e-08
1.23881e-08
1.23877e-08
1.23872e-08
1.2387e-08
1.23869e-08
1.2387e-08
1.23872e-08
1.23875e-08
1.2388e-08
1.23885e-08
1.23892e-08
1.23896e-08
1.23876e-08
1.23865e-08
1.23856e-08
1.23853e-08
1.23849e-08
1.23847e-08
1.23846e-08
1.23846e-08
1.23848e-08
1.23851e-08
1.23855e-08
1.23859e-08
1.23866e-08
1.2387e-08
1.23855e-08
1.23841e-08
1.23834e-08
1.23831e-08
1.23827e-08
1.23825e-08
1.23824e-08
1.23824e-08
1.23825e-08
1.23827e-08
1.23831e-08
1.23835e-08
1.2384e-08
1.23846e-08
1.23837e-08
1.23821e-08
1.23814e-08
1.23811e-08
1.23807e-08
1.23805e-08
1.23803e-08
1.23803e-08
1.23803e-08
1.23805e-08
1.23808e-08
1.23813e-08
1.23817e-08
1.23825e-08
1.23821e-08
1.23802e-08
1.23795e-08
1.23793e-08
1.23789e-08
1.23787e-08
1.23785e-08
1.23784e-08
1.23783e-08
1.23785e-08
1.23787e-08
1.23792e-08
1.23796e-08
1.23805e-08
1.23809e-08
1.23786e-08
1.2378e-08
1.23778e-08
1.23774e-08
1.23771e-08
1.23768e-08
1.23766e-08
1.23766e-08
1.23767e-08
1.23769e-08
1.23774e-08
1.23779e-08
1.23788e-08
1.238e-08
1.23772e-08
1.23767e-08
1.23764e-08
1.23761e-08
1.23757e-08
1.23754e-08
1.23752e-08
1.23751e-08
1.23751e-08
1.23753e-08
1.23759e-08
1.23763e-08
1.23772e-08
1.23794e-08
1.23762e-08
1.23757e-08
1.23754e-08
1.23751e-08
1.23747e-08
1.23743e-08
1.2374e-08
1.23738e-08
1.23739e-08
1.23741e-08
1.23747e-08
1.23751e-08
1.2376e-08
1.23789e-08
1.23754e-08
1.2375e-08
1.23747e-08
1.23744e-08
1.2374e-08
1.23736e-08
1.23732e-08
1.2373e-08
1.2373e-08
1.23732e-08
1.23737e-08
1.23738e-08
1.23744e-08
1.23791e-08
1.2375e-08
1.23747e-08
1.23744e-08
1.23742e-08
1.23739e-08
1.23736e-08
1.23732e-08
1.23729e-08
1.23728e-08
1.23728e-08
1.2373e-08
1.23725e-08
1.23725e-08
1.23829e-08
1.2376e-08
1.23752e-08
1.2375e-08
1.23754e-08
1.23757e-08
1.23759e-08
1.23757e-08
1.23753e-08
1.23748e-08
1.23744e-08
1.23736e-08
1.23726e-08
1.23722e-08
1.2389e-08
1.23902e-08
1.23911e-08
1.23917e-08
1.23921e-08
1.23924e-08
1.23928e-08
1.23933e-08
1.23938e-08
1.23945e-08
1.23952e-08
1.23959e-08
1.23964e-08
1.23961e-08
1.23881e-08
1.23893e-08
1.239e-08
1.23904e-08
1.23907e-08
1.2391e-08
1.23914e-08
1.23919e-08
1.23925e-08
1.23932e-08
1.2394e-08
1.23946e-08
1.23951e-08
1.23952e-08
1.23871e-08
1.23881e-08
1.23884e-08
1.23889e-08
1.23891e-08
1.23895e-08
1.23899e-08
1.23904e-08
1.2391e-08
1.23918e-08
1.23926e-08
1.23932e-08
1.2394e-08
1.23943e-08
1.23855e-08
1.23864e-08
1.23868e-08
1.23873e-08
1.23876e-08
1.2388e-08
1.23884e-08
1.23889e-08
1.23895e-08
1.23901e-08
1.23908e-08
1.23913e-08
1.23921e-08
1.23926e-08
1.23838e-08
1.23847e-08
1.23851e-08
1.23856e-08
1.2386e-08
1.23864e-08
1.23869e-08
1.23873e-08
1.23879e-08
1.23884e-08
1.23891e-08
1.23896e-08
1.23903e-08
1.23908e-08
1.23821e-08
1.2383e-08
1.23835e-08
1.23841e-08
1.23845e-08
1.23849e-08
1.23853e-08
1.23858e-08
1.23862e-08
1.23867e-08
1.23873e-08
1.23878e-08
1.23884e-08
1.2389e-08
1.23807e-08
1.23815e-08
1.23821e-08
1.23827e-08
1.2383e-08
1.23835e-08
1.23838e-08
1.23842e-08
1.23846e-08
1.23851e-08
1.23856e-08
1.23862e-08
1.23866e-08
1.23874e-08
1.23794e-08
1.23802e-08
1.23808e-08
1.23814e-08
1.23817e-08
1.23821e-08
1.23824e-08
1.23827e-08
1.2383e-08
1.23835e-08
1.23839e-08
1.23845e-08
1.2385e-08
1.23859e-08
1.23784e-08
1.23791e-08
1.23797e-08
1.23803e-08
1.23806e-08
1.23809e-08
1.23811e-08
1.23813e-08
1.23816e-08
1.2382e-08
1.23824e-08
1.2383e-08
1.23835e-08
1.23844e-08
1.23778e-08
1.23783e-08
1.23789e-08
1.23794e-08
1.23796e-08
1.23798e-08
1.23799e-08
1.23801e-08
1.23803e-08
1.23806e-08
1.2381e-08
1.23817e-08
1.23822e-08
1.23831e-08
1.23775e-08
1.23777e-08
1.23783e-08
1.23786e-08
1.23788e-08
1.23789e-08
1.23789e-08
1.23789e-08
1.23791e-08
1.23794e-08
1.23798e-08
1.23805e-08
1.2381e-08
1.23819e-08
1.23771e-08
1.23771e-08
1.23778e-08
1.2378e-08
1.23781e-08
1.23781e-08
1.2378e-08
1.23779e-08
1.2378e-08
1.23782e-08
1.23786e-08
1.23793e-08
1.23795e-08
1.23801e-08
1.23768e-08
1.23767e-08
1.23775e-08
1.23776e-08
1.23776e-08
1.23774e-08
1.23772e-08
1.23771e-08
1.2377e-08
1.23771e-08
1.23774e-08
1.23778e-08
1.23776e-08
1.23777e-08
1.23767e-08
1.23763e-08
1.23773e-08
1.23773e-08
1.23774e-08
1.23771e-08
1.23769e-08
1.23766e-08
1.23764e-08
1.23762e-08
1.23761e-08
1.23758e-08
1.23752e-08
1.23747e-08
1.23763e-08
1.23789e-08
1.23809e-08
1.23826e-08
1.23838e-08
1.23849e-08
1.23859e-08
1.23868e-08
1.23878e-08
1.23887e-08
1.23897e-08
1.23904e-08
1.2391e-08
1.23908e-08
1.23769e-08
1.23792e-08
1.23809e-08
1.23824e-08
1.23836e-08
1.23848e-08
1.23859e-08
1.2387e-08
1.2388e-08
1.2389e-08
1.23901e-08
1.23908e-08
1.23915e-08
1.23918e-08
1.23769e-08
1.2379e-08
1.23806e-08
1.23821e-08
1.23834e-08
1.23846e-08
1.23858e-08
1.23868e-08
1.23879e-08
1.2389e-08
1.23901e-08
1.23909e-08
1.23918e-08
1.23924e-08
1.23764e-08
1.23785e-08
1.23802e-08
1.23817e-08
1.23831e-08
1.23843e-08
1.23855e-08
1.23866e-08
1.23876e-08
1.23887e-08
1.23897e-08
1.23905e-08
1.23914e-08
1.23922e-08
1.23758e-08
1.23779e-08
1.23796e-08
1.23812e-08
1.23826e-08
1.23838e-08
1.2385e-08
1.23861e-08
1.23872e-08
1.23882e-08
1.23892e-08
1.239e-08
1.23908e-08
1.23915e-08
1.23752e-08
1.23773e-08
1.23791e-08
1.23806e-08
1.2382e-08
1.23833e-08
1.23845e-08
1.23856e-08
1.23866e-08
1.23875e-08
1.23885e-08
1.23893e-08
1.239e-08
1.23908e-08
1.23748e-08
1.2377e-08
1.23786e-08
1.23802e-08
1.23815e-08
1.23827e-08
1.23839e-08
1.23849e-08
1.23859e-08
1.23868e-08
1.23877e-08
1.23885e-08
1.23892e-08
1.239e-08
1.23745e-08
1.23765e-08
1.23782e-08
1.23797e-08
1.2381e-08
1.23822e-08
1.23832e-08
1.23842e-08
1.23851e-08
1.2386e-08
1.23868e-08
1.23876e-08
1.23882e-08
1.23892e-08
1.23744e-08
1.23763e-08
1.23779e-08
1.23794e-08
1.23805e-08
1.23816e-08
1.23825e-08
1.23834e-08
1.23842e-08
1.2385e-08
1.23858e-08
1.23866e-08
1.23873e-08
1.23883e-08
1.23745e-08
1.23762e-08
1.23777e-08
1.2379e-08
1.238e-08
1.2381e-08
1.23818e-08
1.23826e-08
1.23832e-08
1.2384e-08
1.23847e-08
1.23857e-08
1.23863e-08
1.23873e-08
1.23749e-08
1.23762e-08
1.23776e-08
1.23787e-08
1.23796e-08
1.23804e-08
1.2381e-08
1.23817e-08
1.23823e-08
1.2383e-08
1.23837e-08
1.23847e-08
1.23853e-08
1.23864e-08
1.2375e-08
1.23761e-08
1.23774e-08
1.23784e-08
1.23791e-08
1.23797e-08
1.23802e-08
1.23808e-08
1.23813e-08
1.23819e-08
1.23827e-08
1.23836e-08
1.2384e-08
1.23848e-08
1.23749e-08
1.23759e-08
1.23772e-08
1.2378e-08
1.23786e-08
1.2379e-08
1.23794e-08
1.23797e-08
1.23802e-08
1.23807e-08
1.23813e-08
1.23821e-08
1.23822e-08
1.23825e-08
1.23748e-08
1.23756e-08
1.2377e-08
1.23776e-08
1.2378e-08
1.23783e-08
1.23786e-08
1.23789e-08
1.23791e-08
1.23794e-08
1.23798e-08
1.23799e-08
1.23796e-08
1.23794e-08
1.23552e-08
1.23587e-08
1.23617e-08
1.23643e-08
1.23664e-08
1.23683e-08
1.237e-08
1.23715e-08
1.23729e-08
1.23742e-08
1.23755e-08
1.23765e-08
1.23773e-08
1.23776e-08
1.2357e-08
1.23601e-08
1.2363e-08
1.23654e-08
1.23676e-08
1.23696e-08
1.23715e-08
1.23731e-08
1.23747e-08
1.23762e-08
1.23776e-08
1.23787e-08
1.23797e-08
1.23805e-08
1.23585e-08
1.23615e-08
1.23642e-08
1.23666e-08
1.23689e-08
1.23709e-08
1.23729e-08
1.23746e-08
1.23763e-08
1.23778e-08
1.23793e-08
1.23805e-08
1.23816e-08
1.23826e-08
1.23594e-08
1.23623e-08
1.23651e-08
1.23676e-08
1.23699e-08
1.2372e-08
1.23741e-08
1.23759e-08
1.23776e-08
1.23791e-08
1.23806e-08
1.23818e-08
1.2383e-08
1.23842e-08
1.23603e-08
1.23632e-08
1.2366e-08
1.23686e-08
1.23709e-08
1.2373e-08
1.23751e-08
1.23769e-08
1.23786e-08
1.23801e-08
1.23816e-08
1.23828e-08
1.2384e-08
1.23851e-08
1.23611e-08
1.2364e-08
1.23668e-08
1.23693e-08
1.23716e-08
1.23738e-08
1.23758e-08
1.23777e-08
1.23794e-08
1.23809e-08
1.23823e-08
1.23836e-08
1.23847e-08
1.23858e-08
1.2362e-08
1.23651e-08
1.23677e-08
1.23702e-08
1.23724e-08
1.23745e-08
1.23764e-08
1.23782e-08
1.23799e-08
1.23814e-08
1.23828e-08
1.2384e-08
1.23851e-08
1.23863e-08
1.2363e-08
1.23659e-08
1.23683e-08
1.23708e-08
1.23729e-08
1.2375e-08
1.23768e-08
1.23786e-08
1.23801e-08
1.23816e-08
1.2383e-08
1.23843e-08
1.23853e-08
1.23866e-08
1.2364e-08
1.23667e-08
1.23691e-08
1.23714e-08
1.23734e-08
1.23754e-08
1.23771e-08
1.23787e-08
1.23801e-08
1.23816e-08
1.23829e-08
1.23843e-08
1.23854e-08
1.23867e-08
1.2365e-08
1.23675e-08
1.23697e-08
1.23718e-08
1.23737e-08
1.23755e-08
1.23771e-08
1.23786e-08
1.238e-08
1.23815e-08
1.23828e-08
1.23842e-08
1.23853e-08
1.23867e-08
1.23661e-08
1.23682e-08
1.23702e-08
1.23722e-08
1.23739e-08
1.23755e-08
1.2377e-08
1.23784e-08
1.23797e-08
1.23811e-08
1.23824e-08
1.23839e-08
1.2385e-08
1.23865e-08
1.23668e-08
1.23686e-08
1.23705e-08
1.23723e-08
1.23738e-08
1.23753e-08
1.23766e-08
1.2378e-08
1.23792e-08
1.23806e-08
1.23819e-08
1.23834e-08
1.23844e-08
1.23857e-08
1.23672e-08
1.23688e-08
1.23707e-08
1.23722e-08
1.23736e-08
1.23749e-08
1.2376e-08
1.23772e-08
1.23784e-08
1.23796e-08
1.2381e-08
1.23824e-08
1.23831e-08
1.23839e-08
1.23672e-08
1.23688e-08
1.23706e-08
1.2372e-08
1.23732e-08
1.23743e-08
1.23754e-08
1.23765e-08
1.23776e-08
1.23787e-08
1.23798e-08
1.23806e-08
1.23811e-08
1.23816e-08
1.23274e-08
1.2331e-08
1.23344e-08
1.23374e-08
1.23401e-08
1.23425e-08
1.23447e-08
1.23467e-08
1.23486e-08
1.23503e-08
1.2352e-08
1.23534e-08
1.23547e-08
1.23553e-08
1.23303e-08
1.23335e-08
1.23368e-08
1.23397e-08
1.23425e-08
1.23451e-08
1.23475e-08
1.23497e-08
1.23517e-08
1.23536e-08
1.23555e-08
1.23571e-08
1.23585e-08
1.23599e-08
1.23333e-08
1.23363e-08
1.23395e-08
1.23424e-08
1.23452e-08
1.23478e-08
1.23503e-08
1.23526e-08
1.23547e-08
1.23567e-08
1.23586e-08
1.23603e-08
1.23618e-08
1.23634e-08
1.23356e-08
1.23386e-08
1.23418e-08
1.23447e-08
1.23476e-08
1.23503e-08
1.23529e-08
1.23552e-08
1.23574e-08
1.23595e-08
1.23614e-08
1.23631e-08
1.23648e-08
1.23666e-08
1.23379e-08
1.23409e-08
1.23442e-08
1.23471e-08
1.235e-08
1.23527e-08
1.23553e-08
1.23577e-08
1.23599e-08
1.2362e-08
1.2364e-08
1.23657e-08
1.23675e-08
1.23691e-08
1.23402e-08
1.23433e-08
1.23464e-08
1.23494e-08
1.23522e-08
1.23549e-08
1.23575e-08
1.23599e-08
1.23622e-08
1.23643e-08
1.23663e-08
1.23681e-08
1.23698e-08
1.23714e-08
1.23425e-08
1.23456e-08
1.23486e-08
1.23515e-08
1.23543e-08
1.2357e-08
1.23595e-08
1.23619e-08
1.23641e-08
1.23663e-08
1.23683e-08
1.23702e-08
1.23719e-08
1.23736e-08
1.23447e-08
1.23478e-08
1.23506e-08
1.23535e-08
1.23561e-08
1.23588e-08
1.23613e-08
1.23636e-08
1.23659e-08
1.2368e-08
1.237e-08
1.2372e-08
1.23737e-08
1.23755e-08
1.23469e-08
1.23498e-08
1.23525e-08
1.23553e-08
1.23578e-08
1.23604e-08
1.23628e-08
1.23651e-08
1.23673e-08
1.23694e-08
1.23714e-08
1.23735e-08
1.23752e-08
1.23771e-08
1.2349e-08
1.23517e-08
1.23542e-08
1.23568e-08
1.23593e-08
1.23617e-08
1.23641e-08
1.23663e-08
1.23685e-08
1.23706e-08
1.23727e-08
1.23748e-08
1.23766e-08
1.23786e-08
1.2351e-08
1.23534e-08
1.23557e-08
1.23582e-08
1.23606e-08
1.23629e-08
1.23651e-08
1.23673e-08
1.23694e-08
1.23715e-08
1.23736e-08
1.23759e-08
1.23778e-08
1.238e-08
1.23526e-08
1.23547e-08
1.2357e-08
1.23593e-08
1.23615e-08
1.23637e-08
1.23659e-08
1.23681e-08
1.23702e-08
1.23723e-08
1.23745e-08
1.23769e-08
1.23787e-08
1.23808e-08
1.23537e-08
1.23558e-08
1.2358e-08
1.23602e-08
1.23623e-08
1.23644e-08
1.23665e-08
1.23685e-08
1.23706e-08
1.23728e-08
1.2375e-08
1.23773e-08
1.23789e-08
1.23807e-08
1.23543e-08
1.23564e-08
1.23586e-08
1.23607e-08
1.23627e-08
1.23647e-08
1.23669e-08
1.23689e-08
1.2371e-08
1.23731e-08
1.23752e-08
1.23771e-08
1.23785e-08
1.238e-08
1.22997e-08
1.23024e-08
1.23053e-08
1.23079e-08
1.23105e-08
1.23129e-08
1.23152e-08
1.23174e-08
1.23195e-08
1.23216e-08
1.23235e-08
1.23253e-08
1.2327e-08
1.23282e-08
1.23036e-08
1.23059e-08
1.23087e-08
1.23113e-08
1.23139e-08
1.23163e-08
1.23188e-08
1.23211e-08
1.23234e-08
1.23256e-08
1.23277e-08
1.23297e-08
1.23315e-08
1.23334e-08
1.23074e-08
1.23096e-08
1.23124e-08
1.23149e-08
1.23175e-08
1.232e-08
1.23225e-08
1.23248e-08
1.23272e-08
1.23294e-08
1.23316e-08
1.23337e-08
1.23356e-08
1.23377e-08
1.23109e-08
1.23131e-08
1.23158e-08
1.23184e-08
1.2321e-08
1.23235e-08
1.23261e-08
1.23285e-08
1.23309e-08
1.23333e-08
1.23355e-08
1.23377e-08
1.23397e-08
1.23419e-08
1.23143e-08
1.23166e-08
1.23193e-08
1.23219e-08
1.23245e-08
1.23271e-08
1.23297e-08
1.23321e-08
1.23346e-08
1.2337e-08
1.23393e-08
1.23415e-08
1.23436e-08
1.23457e-08
1.23178e-08
1.23202e-08
1.23228e-08
1.23254e-08
1.2328e-08
1.23306e-08
1.23331e-08
1.23357e-08
1.23382e-08
1.23406e-08
1.2343e-08
1.23452e-08
1.23474e-08
1.23495e-08
1.23212e-08
1.23236e-08
1.23262e-08
1.23287e-08
1.23313e-08
1.23339e-08
1.23365e-08
1.23391e-08
1.23416e-08
1.23441e-08
1.23465e-08
1.23488e-08
1.2351e-08
1.23532e-08
1.23245e-08
1.2327e-08
1.23294e-08
1.2332e-08
1.23345e-08
1.23371e-08
1.23397e-08
1.23424e-08
1.23449e-08
1.23475e-08
1.23499e-08
1.23523e-08
1.23546e-08
1.23568e-08
1.23277e-08
1.23301e-08
1.23325e-08
1.23351e-08
1.23376e-08
1.23402e-08
1.23428e-08
1.23455e-08
1.23481e-08
1.23506e-08
1.23531e-08
1.23556e-08
1.23579e-08
1.23602e-08
1.23308e-08
1.23332e-08
1.23355e-08
1.2338e-08
1.23405e-08
1.23431e-08
1.23458e-08
1.23484e-08
1.2351e-08
1.23536e-08
1.23562e-08
1.23587e-08
1.23612e-08
1.23635e-08
1.23338e-08
1.2336e-08
1.23382e-08
1.23407e-08
1.23432e-08
1.23459e-08
1.23485e-08
1.23512e-08
1.23538e-08
1.23564e-08
1.23591e-08
1.23618e-08
1.23643e-08
1.23668e-08
1.23366e-08
1.23387e-08
1.23409e-08
1.23433e-08
1.23458e-08
1.23484e-08
1.2351e-08
1.23537e-08
1.23563e-08
1.2359e-08
1.23617e-08
1.23646e-08
1.23671e-08
1.23697e-08
1.23388e-08
1.23409e-08
1.23432e-08
1.23456e-08
1.23481e-08
1.23507e-08
1.23533e-08
1.2356e-08
1.23587e-08
1.23615e-08
1.23643e-08
1.23671e-08
1.23695e-08
1.23719e-08
1.23406e-08
1.23427e-08
1.23452e-08
1.23476e-08
1.23502e-08
1.23528e-08
1.23555e-08
1.23581e-08
1.23609e-08
1.23636e-08
1.23664e-08
1.2369e-08
1.23712e-08
1.23735e-08
1.22804e-08
1.22815e-08
1.22831e-08
1.22847e-08
1.22864e-08
1.22883e-08
1.22901e-08
1.2292e-08
1.22939e-08
1.22958e-08
1.22977e-08
1.22996e-08
1.23012e-08
1.23027e-08
1.22848e-08
1.22856e-08
1.22871e-08
1.22885e-08
1.22902e-08
1.2292e-08
1.22939e-08
1.22958e-08
1.22978e-08
1.22999e-08
1.23019e-08
1.23038e-08
1.23056e-08
1.23076e-08
1.22887e-08
1.22896e-08
1.22911e-08
1.22925e-08
1.22942e-08
1.2296e-08
1.22979e-08
1.22999e-08
1.23018e-08
1.23039e-08
1.23059e-08
1.23079e-08
1.23098e-08
1.23119e-08
1.22926e-08
1.22935e-08
1.22951e-08
1.22965e-08
1.22982e-08
1.23e-08
1.2302e-08
1.2304e-08
1.2306e-08
1.23081e-08
1.23102e-08
1.23122e-08
1.23142e-08
1.23164e-08
1.22964e-08
1.22975e-08
1.2299e-08
1.23005e-08
1.23023e-08
1.23042e-08
1.23062e-08
1.23082e-08
1.23103e-08
1.23124e-08
1.23145e-08
1.23166e-08
1.23186e-08
1.23207e-08
1.23003e-08
1.23016e-08
1.23031e-08
1.23047e-08
1.23065e-08
1.23084e-08
1.23104e-08
1.23125e-08
1.23147e-08
1.23168e-08
1.2319e-08
1.23211e-08
1.23232e-08
1.23253e-08
1.23042e-08
1.23056e-08
1.23071e-08
1.23088e-08
1.23106e-08
1.23126e-08
1.23147e-08
1.23168e-08
1.2319e-08
1.23212e-08
1.23235e-08
1.23257e-08
1.23278e-08
1.23299e-08
1.23081e-08
1.23096e-08
1.23111e-08
1.23129e-08
1.23148e-08
1.23168e-08
1.2319e-08
1.23212e-08
1.23234e-08
1.23257e-08
1.2328e-08
1.23303e-08
1.23325e-08
1.23346e-08
1.23119e-08
1.23134e-08
1.23151e-08
1.2317e-08
1.23189e-08
1.2321e-08
1.23232e-08
1.23255e-08
1.23278e-08
1.23301e-08
1.23325e-08
1.23348e-08
1.23371e-08
1.23392e-08
1.23157e-08
1.23173e-08
1.2319e-08
1.23209e-08
1.23229e-08
1.23251e-08
1.23274e-08
1.23297e-08
1.23321e-08
1.23345e-08
1.23369e-08
1.23393e-08
1.23417e-08
1.23439e-08
1.23194e-08
1.2321e-08
1.23227e-08
1.23248e-08
1.23269e-08
1.23291e-08
1.23315e-08
1.23339e-08
1.23363e-08
1.23388e-08
1.23413e-08
1.23438e-08
1.23463e-08
1.23485e-08
1.2323e-08
1.23247e-08
1.23265e-08
1.23286e-08
1.23307e-08
1.2333e-08
1.23354e-08
1.23379e-08
1.23404e-08
1.23429e-08
1.23455e-08
1.23481e-08
1.23507e-08
1.2353e-08
1.23261e-08
1.23278e-08
1.23298e-08
1.2332e-08
1.23343e-08
1.23367e-08
1.23392e-08
1.23418e-08
1.23444e-08
1.2347e-08
1.23497e-08
1.23524e-08
1.2355e-08
1.23571e-08
1.2329e-08
1.23308e-08
1.23332e-08
1.23355e-08
1.23379e-08
1.23403e-08
1.23429e-08
1.23455e-08
1.23482e-08
1.23508e-08
1.23534e-08
1.2356e-08
1.23583e-08
1.23605e-08
1.22721e-08
1.22719e-08
1.22723e-08
1.22729e-08
1.22736e-08
1.22745e-08
1.22754e-08
1.22766e-08
1.22778e-08
1.22791e-08
1.22805e-08
1.22819e-08
1.22832e-08
1.22844e-08
1.22761e-08
1.22757e-08
1.2276e-08
1.22764e-08
1.22771e-08
1.22779e-08
1.22789e-08
1.228e-08
1.22813e-08
1.22826e-08
1.2284e-08
1.22855e-08
1.22868e-08
1.22883e-08
1.22796e-08
1.22792e-08
1.22796e-08
1.22801e-08
1.22808e-08
1.22816e-08
1.22826e-08
1.22837e-08
1.22849e-08
1.22862e-08
1.22876e-08
1.2289e-08
1.22904e-08
1.2292e-08
1.22832e-08
1.22829e-08
1.22833e-08
1.22838e-08
1.22845e-08
1.22854e-08
1.22864e-08
1.22875e-08
1.22888e-08
1.22901e-08
1.22915e-08
1.22929e-08
1.22943e-08
1.22959e-08
1.22866e-08
1.22866e-08
1.22871e-08
1.22877e-08
1.22884e-08
1.22893e-08
1.22904e-08
1.22915e-08
1.22928e-08
1.22941e-08
1.22955e-08
1.22969e-08
1.22984e-08
1.22999e-08
1.22903e-08
1.22905e-08
1.2291e-08
1.22916e-08
1.22924e-08
1.22934e-08
1.22945e-08
1.22957e-08
1.2297e-08
1.22984e-08
1.22998e-08
1.23013e-08
1.23027e-08
1.23042e-08
1.22939e-08
1.22943e-08
1.22949e-08
1.22957e-08
1.22965e-08
1.22975e-08
1.22987e-08
1.23e-08
1.23013e-08
1.23027e-08
1.23042e-08
1.23057e-08
1.23072e-08
1.23086e-08
1.22977e-08
1.22983e-08
1.22989e-08
1.22997e-08
1.23007e-08
1.23018e-08
1.2303e-08
1.23043e-08
1.23057e-08
1.23072e-08
1.23087e-08
1.23103e-08
1.23118e-08
1.23132e-08
1.23014e-08
1.23021e-08
1.23028e-08
1.23038e-08
1.23049e-08
1.23061e-08
1.23074e-08
1.23088e-08
1.23103e-08
1.23118e-08
1.23133e-08
1.23149e-08
1.23165e-08
1.23179e-08
1.23052e-08
1.2306e-08
1.23068e-08
1.23079e-08
1.23091e-08
1.23104e-08
1.23118e-08
1.23133e-08
1.23148e-08
1.23164e-08
1.2318e-08
1.23196e-08
1.23214e-08
1.23228e-08
1.23089e-08
1.23098e-08
1.23107e-08
1.2312e-08
1.23133e-08
1.23147e-08
1.23163e-08
1.23178e-08
1.23194e-08
1.2321e-08
1.23227e-08
1.23244e-08
1.23263e-08
1.23277e-08
1.23127e-08
1.23137e-08
1.23147e-08
1.23161e-08
1.23175e-08
1.2319e-08
1.23207e-08
1.23223e-08
1.2324e-08
1.23257e-08
1.23275e-08
1.23293e-08
1.23312e-08
1.23326e-08
1.23161e-08
1.23172e-08
1.23185e-08
1.232e-08
1.23216e-08
1.23233e-08
1.2325e-08
1.23268e-08
1.23286e-08
1.23304e-08
1.23322e-08
1.23342e-08
1.2336e-08
1.23374e-08
1.23195e-08
1.23208e-08
1.23224e-08
1.2324e-08
1.23258e-08
1.23275e-08
1.23294e-08
1.23312e-08
1.23331e-08
1.23349e-08
1.23368e-08
1.23386e-08
1.23404e-08
1.23418e-08
1.22718e-08
1.22712e-08
1.22708e-08
1.22706e-08
1.22705e-08
1.22706e-08
1.22708e-08
1.22711e-08
1.22715e-08
1.2272e-08
1.22726e-08
1.22734e-08
1.2274e-08
1.22747e-08
1.22749e-08
1.22741e-08
1.22737e-08
1.22734e-08
1.22733e-08
1.22733e-08
1.22734e-08
1.22737e-08
1.22741e-08
1.22747e-08
1.22753e-08
1.2276e-08
1.22766e-08
1.22774e-08
1.22776e-08
1.22768e-08
1.22765e-08
1.22762e-08
1.22761e-08
1.22761e-08
1.22763e-08
1.22766e-08
1.2277e-08
1.22775e-08
1.2278e-08
1.22787e-08
1.22792e-08
1.22801e-08
1.22805e-08
1.22798e-08
1.22795e-08
1.22792e-08
1.22791e-08
1.22791e-08
1.22793e-08
1.22795e-08
1.22799e-08
1.22804e-08
1.22809e-08
1.22815e-08
1.22821e-08
1.2283e-08
1.22833e-08
1.22827e-08
1.22824e-08
1.22822e-08
1.22822e-08
1.22822e-08
1.22824e-08
1.22827e-08
1.2283e-08
1.22835e-08
1.2284e-08
1.22846e-08
1.22852e-08
1.22859e-08
1.22862e-08
1.22857e-08
1.22855e-08
1.22854e-08
1.22854e-08
1.22854e-08
1.22856e-08
1.22859e-08
1.22863e-08
1.22868e-08
1.22873e-08
1.22878e-08
1.22884e-08
1.22891e-08
1.22891e-08
1.22888e-08
1.22887e-08
1.22886e-08
1.22886e-08
1.22888e-08
1.2289e-08
1.22893e-08
1.22897e-08
1.22902e-08
1.22907e-08
1.22913e-08
1.22919e-08
1.22925e-08
1.22921e-08
1.2292e-08
1.22919e-08
1.22919e-08
1.2292e-08
1.22922e-08
1.22925e-08
1.22928e-08
1.22933e-08
1.22938e-08
1.22943e-08
1.22949e-08
1.22956e-08
1.2296e-08
1.2295e-08
1.22952e-08
1.22952e-08
1.22953e-08
1.22955e-08
1.22958e-08
1.22961e-08
1.22965e-08
1.2297e-08
1.22975e-08
1.22981e-08
1.22987e-08
1.22994e-08
1.22998e-08
1.22982e-08
1.22984e-08
1.22986e-08
1.22988e-08
1.22991e-08
1.22994e-08
1.22998e-08
1.23003e-08
1.23008e-08
1.23014e-08
1.23021e-08
1.23027e-08
1.23034e-08
1.23038e-08
1.23013e-08
1.23017e-08
1.2302e-08
1.23023e-08
1.23027e-08
1.23032e-08
1.23037e-08
1.23042e-08
1.23048e-08
1.23054e-08
1.23062e-08
1.23068e-08
1.23076e-08
1.23078e-08
1.23046e-08
1.23052e-08
1.23055e-08
1.23059e-08
1.23064e-08
1.2307e-08
1.23076e-08
1.23082e-08
1.23089e-08
1.23096e-08
1.23103e-08
1.23111e-08
1.23119e-08
1.23121e-08
1.23078e-08
1.23084e-08
1.23089e-08
1.23095e-08
1.23102e-08
1.23108e-08
1.23115e-08
1.23122e-08
1.2313e-08
1.23138e-08
1.23146e-08
1.23153e-08
1.23162e-08
1.23164e-08
1.23112e-08
1.23118e-08
1.23126e-08
1.23132e-08
1.2314e-08
1.23147e-08
1.23155e-08
1.23163e-08
1.23171e-08
1.2318e-08
1.23187e-08
1.23195e-08
1.23203e-08
1.23207e-08
1.2276e-08
1.2275e-08
1.22743e-08
1.22736e-08
1.2273e-08
1.22726e-08
1.22722e-08
1.22719e-08
1.22717e-08
1.22715e-08
1.22714e-08
1.22715e-08
1.22714e-08
1.22715e-08
1.2278e-08
1.2277e-08
1.22763e-08
1.22755e-08
1.22749e-08
1.22743e-08
1.22739e-08
1.22736e-08
1.22733e-08
1.22732e-08
1.22731e-08
1.2273e-08
1.22729e-08
1.22732e-08
1.22798e-08
1.22787e-08
1.2278e-08
1.22773e-08
1.22767e-08
1.22762e-08
1.22758e-08
1.22754e-08
1.22752e-08
1.2275e-08
1.22748e-08
1.22747e-08
1.22746e-08
1.22748e-08
1.22817e-08
1.22807e-08
1.228e-08
1.22793e-08
1.22787e-08
1.22782e-08
1.22777e-08
1.22774e-08
1.22771e-08
1.22769e-08
1.22767e-08
1.22765e-08
1.22764e-08
1.22766e-08
1.22836e-08
1.22826e-08
1.2282e-08
1.22813e-08
1.22808e-08
1.22802e-08
1.22798e-08
1.22794e-08
1.22791e-08
1.22789e-08
1.22787e-08
1.22785e-08
1.22783e-08
1.22783e-08
1.22856e-08
1.22847e-08
1.22841e-08
1.22835e-08
1.22829e-08
1.22824e-08
1.2282e-08
1.22816e-08
1.22813e-08
1.2281e-08
1.22808e-08
1.22806e-08
1.22804e-08
1.22802e-08
1.22875e-08
1.22868e-08
1.22863e-08
1.22857e-08
1.22851e-08
1.22846e-08
1.22842e-08
1.22838e-08
1.22835e-08
1.22832e-08
1.2283e-08
1.22828e-08
1.22826e-08
1.22823e-08
1.22896e-08
1.22891e-08
1.22885e-08
1.2288e-08
1.22875e-08
1.2287e-08
1.22866e-08
1.22862e-08
1.22859e-08
1.22856e-08
1.22854e-08
1.22851e-08
1.22849e-08
1.22846e-08
1.22918e-08
1.22913e-08
1.22908e-08
1.22904e-08
1.22899e-08
1.22895e-08
1.22891e-08
1.22887e-08
1.22884e-08
1.22881e-08
1.22879e-08
1.22876e-08
1.22874e-08
1.2287e-08
1.2294e-08
1.22937e-08
1.22933e-08
1.22929e-08
1.22924e-08
1.22921e-08
1.22917e-08
1.22913e-08
1.2291e-08
1.22907e-08
1.22905e-08
1.22901e-08
1.229e-08
1.22896e-08
1.22963e-08
1.22961e-08
1.22958e-08
1.22954e-08
1.22951e-08
1.22947e-08
1.22944e-08
1.22941e-08
1.22938e-08
1.22935e-08
1.22932e-08
1.22929e-08
1.22928e-08
1.22924e-08
1.22988e-08
1.22987e-08
1.22984e-08
1.22981e-08
1.22978e-08
1.22975e-08
1.22972e-08
1.22969e-08
1.22967e-08
1.22964e-08
1.22961e-08
1.22958e-08
1.22958e-08
1.22953e-08
1.23012e-08
1.23012e-08
1.2301e-08
1.23008e-08
1.23006e-08
1.23004e-08
1.23001e-08
1.22999e-08
1.22996e-08
1.22994e-08
1.22991e-08
1.22988e-08
1.22987e-08
1.22983e-08
1.23039e-08
1.23038e-08
1.23037e-08
1.23036e-08
1.23035e-08
1.23033e-08
1.23031e-08