/*--------------------------------*- C++ -*----------------------------------*\
| =========                 |                                                 |
| \\      /  F ield         | OpenFOAM: The Open Source CFD Toolbox           |
|  \\    /   O peration     | Version:  v2106                                 |
|   \\  /    A nd           | Website:  www.openfoam.com                      |
|    \\/     M anipulation  |                                                 |
\*---------------------------------------------------------------------------*/
FoamFile
{
    version     2.0;
    format      ascii;
    arch        "LSB;label=32;scalar=64";
    class       volScalarField;
    location    "0.000198";
    object      nut;
}
// * * * * * * * * * * * * * * * * * * * * * * * * * * * * * * * * * * * * * //

dimensions      [0 2 -1 0 0 0 0];

internalField   nonuniform List<scalar> 
17924
(
3.84293e-17
3.65797e-17
3.61736e-17
3.60981e-17
3.6323e-17
3.61011e-17
3.60516e-17
3.60424e-17
3.60427e-17
3.60462e-17
3.60515e-17
3.65868e-17
3.61611e-17
3.60587e-17
3.60368e-17
3.60326e-17
3.60322e-17
3.60328e-17
3.70288e-17
3.6267e-17
3.60786e-17
3.60376e-17
3.60294e-17
3.60281e-17
3.60281e-17
3.75575e-17
3.63917e-17
3.61025e-17
3.60393e-17
3.60271e-17
3.60251e-17
3.6025e-17
3.80498e-17
3.6496e-17
3.61196e-17
3.60396e-17
3.60245e-17
3.60223e-17
3.60222e-17
3.84442e-17
3.65617e-17
3.61259e-17
3.60376e-17
3.60219e-17
3.60198e-17
3.60197e-17
3.87861e-17
3.66049e-17
3.61263e-17
3.60347e-17
3.60195e-17
3.60175e-17
3.60176e-17
3.90896e-17
3.66339e-17
3.61238e-17
3.60318e-17
3.60175e-17
3.6016e-17
3.60162e-17
3.93257e-17
3.66478e-17
3.61201e-17
3.60302e-17
3.60177e-17
3.60171e-17
3.60178e-17
3.94935e-17
3.66502e-17
3.61185e-17
3.60349e-17
3.6028e-17
3.60316e-17
3.60345e-17
3.95603e-17
3.66437e-17
3.6131e-17
3.60695e-17
3.6086e-17
3.61087e-17
3.61219e-17
3.97221e-17
3.66935e-17
3.62133e-17
3.62308e-17
3.63466e-17
3.6455e-17
3.65153e-17
4.08564e-17
3.70455e-17
3.6563e-17
3.68714e-17
3.73845e-17
3.78475e-17
3.81093e-17
4.64705e-17
3.87179e-17
3.78758e-17
3.91507e-17
4.11095e-17
4.29322e-17
4.40255e-17
3.60613e-17
3.60361e-17
3.60304e-17
3.60289e-17
3.60285e-17
3.60287e-17
3.60293e-17
3.60303e-17
3.60313e-17
3.60319e-17
3.60321e-17
3.60318e-17
3.60321e-17
3.60326e-17
3.60908e-17
3.60413e-17
3.60287e-17
3.60254e-17
3.60241e-17
3.60236e-17
3.60234e-17
3.60236e-17
3.6024e-17
3.60248e-17
3.60257e-17
3.60263e-17
3.60274e-17
3.60292e-17
3.61415e-17
3.60514e-17
3.60281e-17
3.60224e-17
3.60206e-17
3.60199e-17
3.60196e-17
3.60197e-17
3.602e-17
3.60206e-17
3.60216e-17
3.60223e-17
3.60238e-17
3.60262e-17
3.62028e-17
3.60636e-17
3.60281e-17
3.60196e-17
3.60173e-17
3.60166e-17
3.60162e-17
3.60162e-17
3.60163e-17
3.60168e-17
3.60175e-17
3.60182e-17
3.60196e-17
3.60225e-17
3.62588e-17
3.60733e-17
3.60273e-17
3.60168e-17
3.60142e-17
3.60134e-17
3.6013e-17
3.60129e-17
3.6013e-17
3.60134e-17
3.6014e-17
3.60147e-17
3.6016e-17
3.60192e-17
3.63007e-17
3.60781e-17
3.60254e-17
3.60141e-17
3.60113e-17
3.60105e-17
3.60101e-17
3.601e-17
3.601e-17
3.60103e-17
3.60109e-17
3.60115e-17
3.60126e-17
3.60161e-17
3.63338e-17
3.60802e-17
3.6023e-17
3.60114e-17
3.60088e-17
3.6008e-17
3.60075e-17
3.60074e-17
3.60074e-17
3.60078e-17
3.60083e-17
3.6009e-17
3.601e-17
3.60136e-17
3.63598e-17
3.60803e-17
3.60204e-17
3.6009e-17
3.60065e-17
3.60058e-17
3.60054e-17
3.60053e-17
3.60053e-17
3.60056e-17
3.60061e-17
3.60069e-17
3.60079e-17
3.60114e-17
3.63759e-17
3.60787e-17
3.6018e-17
3.60071e-17
3.60048e-17
3.60042e-17
3.60039e-17
3.60038e-17
3.60039e-17
3.60043e-17
3.60048e-17
3.60057e-17
3.60066e-17
3.60097e-17
3.6382e-17
3.60758e-17
3.60159e-17
3.60059e-17
3.60043e-17
3.60041e-17
3.60041e-17
3.60041e-17
3.60041e-17
3.60043e-17
3.60048e-17
3.60057e-17
3.60065e-17
3.6009e-17
3.63734e-17
3.60716e-17
3.60154e-17
3.60076e-17
3.60084e-17
3.601e-17
3.6011e-17
3.6011e-17
3.60105e-17
3.601e-17
3.60096e-17
3.60098e-17
3.60096e-17
3.60113e-17
3.6362e-17
3.60711e-17
3.60213e-17
3.60214e-17
3.60314e-17
3.60408e-17
3.60459e-17
3.60461e-17
3.60431e-17
3.60386e-17
3.60338e-17
3.603e-17
3.60258e-17
3.60252e-17
3.63987e-17
3.60916e-17
3.60519e-17
3.60811e-17
3.61286e-17
3.61704e-17
3.61924e-17
3.61938e-17
3.61809e-17
3.61603e-17
3.6137e-17
3.6116e-17
3.60951e-17
3.60848e-17
3.66693e-17
3.61872e-17
3.61663e-17
3.63e-17
3.6487e-17
3.66527e-17
3.67412e-17
3.67526e-17
3.67082e-17
3.66303e-17
3.65391e-17
3.64539e-17
3.63705e-17
3.63194e-17
3.60258e-17
3.60228e-17
3.60219e-17
3.60213e-17
3.60208e-17
3.60205e-17
3.60205e-17
3.60207e-17
3.60211e-17
3.60218e-17
3.60225e-17
3.60232e-17
3.6024e-17
3.60238e-17
3.60272e-17
3.60217e-17
3.60195e-17
3.60184e-17
3.60176e-17
3.6017e-17
3.60167e-17
3.60167e-17
3.6017e-17
3.60176e-17
3.60185e-17
3.60191e-17
3.60199e-17
3.60202e-17
3.60308e-17
3.60204e-17
3.60167e-17
3.60153e-17
3.60143e-17
3.60137e-17
3.60134e-17
3.60133e-17
3.60135e-17
3.60141e-17
3.60148e-17
3.60154e-17
3.60165e-17
3.60171e-17
3.6035e-17
3.6019e-17
3.6014e-17
3.60123e-17
3.60112e-17
3.60106e-17
3.60102e-17
3.601e-17
3.60101e-17
3.60105e-17
3.6011e-17
3.60115e-17
3.60126e-17
3.60132e-17
3.60384e-17
3.60173e-17
3.60112e-17
3.60092e-17
3.60081e-17
3.60075e-17
3.60071e-17
3.60069e-17
3.60069e-17
3.60072e-17
3.60077e-17
3.60081e-17
3.6009e-17
3.60098e-17
3.60401e-17
3.60152e-17
3.60084e-17
3.60064e-17
3.60054e-17
3.60048e-17
3.60043e-17
3.6004e-17
3.6004e-17
3.60042e-17
3.60045e-17
3.6005e-17
3.60056e-17
3.60066e-17
3.60409e-17
3.6013e-17
3.60059e-17
3.60039e-17
3.60028e-17
3.60022e-17
3.60017e-17
3.60014e-17
3.60013e-17
3.60015e-17
3.60018e-17
3.60023e-17
3.60028e-17
3.6004e-17
3.60409e-17
3.60107e-17
3.60035e-17
3.60017e-17
3.60006e-17
3.6e-17
3.59995e-17
3.59992e-17
3.59989e-17
3.5999e-17
3.59993e-17
3.59998e-17
3.60004e-17
3.60016e-17
3.60401e-17
3.60086e-17
3.60015e-17
3.59998e-17
3.59988e-17
3.59982e-17
3.59976e-17
3.59972e-17
3.5997e-17
3.5997e-17
3.59973e-17
3.59979e-17
3.59984e-17
3.59996e-17
3.60385e-17
3.60065e-17
3.59998e-17
3.59982e-17
3.59973e-17
3.59967e-17
3.59962e-17
3.59958e-17
3.59956e-17
3.59955e-17
3.59957e-17
3.59964e-17
3.59969e-17
3.59981e-17
3.60357e-17
3.60046e-17
3.59986e-17
3.59972e-17
3.59966e-17
3.59962e-17
3.59957e-17
3.59953e-17
3.59951e-17
3.5995e-17
3.59951e-17
3.59958e-17
3.59961e-17
3.59971e-17
3.6032e-17
3.60031e-17
3.59981e-17
3.59975e-17
3.59978e-17
3.5998e-17
3.5998e-17
3.59976e-17
3.59971e-17
3.59967e-17
3.59965e-17
3.59967e-17
3.59964e-17
3.59969e-17
3.60313e-17
3.60032e-17
3.6e-17
3.60021e-17
3.60058e-17
3.60089e-17
3.60103e-17
3.60099e-17
3.60085e-17
3.60065e-17
3.60046e-17
3.60028e-17
3.60004e-17
3.59993e-17
3.60467e-17
3.60093e-17
3.60096e-17
3.60215e-17
3.6038e-17
3.60521e-17
3.6059e-17
3.60587e-17
3.60535e-17
3.60456e-17
3.60368e-17
3.60283e-17
3.602e-17
3.60144e-17
3.60139e-17
3.60139e-17
3.60139e-17
3.60138e-17
3.60135e-17
3.60134e-17
3.60134e-17
3.60137e-17
3.60141e-17
3.60147e-17
3.60155e-17
3.60163e-17
3.60171e-17
3.60169e-17
3.60125e-17
3.60124e-17
3.60119e-17
3.60115e-17
3.6011e-17
3.60108e-17
3.60108e-17
3.60109e-17
3.60113e-17
3.60119e-17
3.60127e-17
3.60134e-17
3.6014e-17
3.60141e-17
3.60113e-17
3.60103e-17
3.60094e-17
3.60089e-17
3.60084e-17
3.60081e-17
3.60081e-17
3.60083e-17
3.60086e-17
3.60092e-17
3.601e-17
3.60106e-17
3.60116e-17
3.60119e-17
3.60095e-17
3.60078e-17
3.60068e-17
3.60063e-17
3.60058e-17
3.60056e-17
3.60056e-17
3.60057e-17
3.60059e-17
3.60064e-17
3.6007e-17
3.60075e-17
3.60084e-17
3.60089e-17
3.60073e-17
3.60052e-17
3.60041e-17
3.60037e-17
3.60032e-17
3.60031e-17
3.6003e-17
3.60031e-17
3.60034e-17
3.60038e-17
3.60043e-17
3.60048e-17
3.60055e-17
3.60061e-17
3.60051e-17
3.60027e-17
3.60017e-17
3.60013e-17
3.60009e-17
3.60008e-17
3.60007e-17
3.60007e-17
3.60008e-17
3.60012e-17
3.60016e-17
3.60021e-17
3.60027e-17
3.60034e-17
3.60031e-17
3.60004e-17
3.59995e-17
3.59992e-17
3.59988e-17
3.59986e-17
3.59984e-17
3.59984e-17
3.59985e-17
3.59988e-17
3.59992e-17
3.59997e-17
3.60002e-17
3.60012e-17
3.60011e-17
3.59984e-17
3.59975e-17
3.59972e-17
3.59969e-17
3.59967e-17
3.59964e-17
3.59964e-17
3.59964e-17
3.59966e-17
3.59969e-17
3.59975e-17
3.5998e-17
3.5999e-17
3.59995e-17
3.59966e-17
3.59958e-17
3.59956e-17
3.59952e-17
3.5995e-17
3.59947e-17
3.59945e-17
3.59945e-17
3.59947e-17
3.59949e-17
3.59956e-17
3.59961e-17
3.59972e-17
3.59982e-17
3.59951e-17
3.59944e-17
3.59942e-17
3.59939e-17
3.59935e-17
3.59932e-17
3.5993e-17
3.59929e-17
3.5993e-17
3.59933e-17
3.5994e-17
3.59945e-17
3.59955e-17
3.59971e-17
3.59939e-17
3.59935e-17
3.59932e-17
3.59929e-17
3.59925e-17
3.59921e-17
3.59918e-17
3.59916e-17
3.59917e-17
3.5992e-17
3.59927e-17
3.59931e-17
3.59942e-17
3.59958e-17
3.59929e-17
3.59927e-17
3.59925e-17
3.59922e-17
3.59918e-17
3.59914e-17
3.5991e-17
3.59908e-17
3.59907e-17
3.5991e-17
3.59916e-17
3.59917e-17
3.59924e-17
3.59947e-17
3.59921e-17
3.59924e-17
3.59924e-17
3.59924e-17
3.59922e-17
3.59919e-17
3.59913e-17
3.59909e-17
3.59906e-17
3.59906e-17
3.59906e-17
3.59901e-17
3.59899e-17
3.5995e-17
3.59919e-17
3.59929e-17
3.59937e-17
3.59949e-17
3.59956e-17
3.59957e-17
3.59951e-17
3.5994e-17
3.5993e-17
3.59919e-17
3.59905e-17
3.59891e-17
3.5988e-17
3.59999e-17
3.60014e-17
3.60024e-17
3.60032e-17
3.60036e-17
3.60041e-17
3.60045e-17
3.60051e-17
3.60058e-17
3.60065e-17
3.60074e-17
3.60082e-17
3.60088e-17
3.60084e-17
3.59991e-17
3.60005e-17
3.60013e-17
3.60018e-17
3.60022e-17
3.60026e-17
3.60031e-17
3.60037e-17
3.60044e-17
3.60052e-17
3.60062e-17
3.60068e-17
3.60075e-17
3.60076e-17
3.59981e-17
3.59992e-17
3.59997e-17
3.60002e-17
3.60005e-17
3.6001e-17
3.60015e-17
3.60021e-17
3.60029e-17
3.60037e-17
3.60047e-17
3.60054e-17
3.60063e-17
3.60067e-17
3.59965e-17
3.59975e-17
3.5998e-17
3.59986e-17
3.5999e-17
3.59994e-17
3.6e-17
3.60005e-17
3.60012e-17
3.60019e-17
3.60027e-17
3.60034e-17
3.60043e-17
3.60049e-17
3.59946e-17
3.59956e-17
3.59961e-17
3.59967e-17
3.59972e-17
3.59977e-17
3.59983e-17
3.59989e-17
3.59995e-17
3.60002e-17
3.60009e-17
3.60016e-17
3.60024e-17
3.6003e-17
3.59928e-17
3.59938e-17
3.59944e-17
3.59951e-17
3.59956e-17
3.59962e-17
3.59967e-17
3.59972e-17
3.59977e-17
3.59984e-17
3.5999e-17
3.59997e-17
3.60003e-17
3.60011e-17
3.59913e-17
3.59923e-17
3.59929e-17
3.59936e-17
3.59941e-17
3.59946e-17
3.59951e-17
3.59955e-17
3.5996e-17
3.59966e-17
3.59972e-17
3.59979e-17
3.59985e-17
3.59994e-17
3.59899e-17
3.59909e-17
3.59915e-17
3.59923e-17
3.59927e-17
3.59932e-17
3.59935e-17
3.5994e-17
3.59944e-17
3.59949e-17
3.59955e-17
3.59962e-17
3.59967e-17
3.59977e-17
3.59889e-17
3.59898e-17
3.59905e-17
3.59912e-17
3.59915e-17
3.59919e-17
3.59922e-17
3.59925e-17
3.59928e-17
3.59933e-17
3.59938e-17
3.59946e-17
3.59952e-17
3.59962e-17
3.59883e-17
3.59889e-17
3.59896e-17
3.59902e-17
3.59905e-17
3.59908e-17
3.59909e-17
3.59912e-17
3.59915e-17
3.59919e-17
3.59924e-17
3.59932e-17
3.59938e-17
3.59948e-17
3.5988e-17
3.59883e-17
3.5989e-17
3.59895e-17
3.59897e-17
3.59898e-17
3.59899e-17
3.599e-17
3.59902e-17
3.59906e-17
3.59911e-17
3.5992e-17
3.59925e-17
3.59936e-17
3.59876e-17
3.59878e-17
3.59886e-17
3.59889e-17
3.59891e-17
3.5989e-17
3.5989e-17
3.5989e-17
3.59891e-17
3.59893e-17
3.59899e-17
3.59906e-17
3.59909e-17
3.59917e-17
3.59872e-17
3.59873e-17
3.59883e-17
3.59885e-17
3.59886e-17
3.59884e-17
3.59882e-17
3.59881e-17
3.5988e-17
3.59882e-17
3.59885e-17
3.5989e-17
3.59888e-17
3.59889e-17
3.59868e-17
3.59869e-17
3.59881e-17
3.59883e-17
3.59884e-17
3.59882e-17
3.5988e-17
3.59877e-17
3.59874e-17
3.59872e-17
3.59871e-17
3.59867e-17
3.5986e-17
3.59854e-17
3.59785e-17
3.59814e-17
3.59837e-17
3.59857e-17
3.59871e-17
3.59884e-17
3.59896e-17
3.59906e-17
3.59917e-17
3.59928e-17
3.59939e-17
3.59948e-17
3.59955e-17
3.59952e-17
3.59792e-17
3.59819e-17
3.59839e-17
3.59856e-17
3.5987e-17
3.59884e-17
3.59897e-17
3.59909e-17
3.59921e-17
3.59933e-17
3.59945e-17
3.59954e-17
3.59962e-17
3.59965e-17
3.59793e-17
3.59818e-17
3.59837e-17
3.59854e-17
3.59869e-17
3.59883e-17
3.59896e-17
3.59909e-17
3.59921e-17
3.59934e-17
3.59946e-17
3.59956e-17
3.59966e-17
3.59973e-17
3.59789e-17
3.59813e-17
3.59833e-17
3.5985e-17
3.59866e-17
3.5988e-17
3.59894e-17
3.59907e-17
3.59919e-17
3.59931e-17
3.59943e-17
3.59952e-17
3.59963e-17
3.59972e-17
3.59784e-17
3.59807e-17
3.59828e-17
3.59846e-17
3.59862e-17
3.59876e-17
3.5989e-17
3.59903e-17
3.59915e-17
3.59927e-17
3.59938e-17
3.59947e-17
3.59957e-17
3.59966e-17
3.59777e-17
3.59802e-17
3.59822e-17
3.5984e-17
3.59856e-17
3.59871e-17
3.59885e-17
3.59898e-17
3.59909e-17
3.59921e-17
3.59931e-17
3.59941e-17
3.59949e-17
3.59958e-17
3.59775e-17
3.59799e-17
3.59818e-17
3.59837e-17
3.59852e-17
3.59866e-17
3.59879e-17
3.59891e-17
3.59902e-17
3.59913e-17
3.59924e-17
3.59933e-17
3.59941e-17
3.59951e-17
3.59772e-17
3.59795e-17
3.59814e-17
3.59832e-17
3.59847e-17
3.59861e-17
3.59873e-17
3.59884e-17
3.59894e-17
3.59905e-17
3.59914e-17
3.59924e-17
3.59932e-17
3.59943e-17
3.59772e-17
3.59794e-17
3.59812e-17
3.5983e-17
3.59843e-17
3.59855e-17
3.59866e-17
3.59876e-17
3.59885e-17
3.59895e-17
3.59904e-17
3.59914e-17
3.59922e-17
3.59933e-17
3.59774e-17
3.59793e-17
3.59811e-17
3.59826e-17
3.59838e-17
3.59849e-17
3.59859e-17
3.59868e-17
3.59876e-17
3.59885e-17
3.59894e-17
3.59904e-17
3.59912e-17
3.59923e-17
3.59779e-17
3.59794e-17
3.5981e-17
3.59824e-17
3.59834e-17
3.59843e-17
3.59851e-17
3.59859e-17
3.59866e-17
3.59874e-17
3.59883e-17
3.59895e-17
3.59902e-17
3.59914e-17
3.59781e-17
3.59794e-17
3.59809e-17
3.59821e-17
3.59829e-17
3.59837e-17
3.59843e-17
3.5985e-17
3.59856e-17
3.59863e-17
3.59872e-17
3.59883e-17
3.59888e-17
3.59898e-17
3.59781e-17
3.59792e-17
3.59808e-17
3.59817e-17
3.59824e-17
3.59829e-17
3.59834e-17
3.59838e-17
3.59844e-17
3.5985e-17
3.59858e-17
3.59867e-17
3.59868e-17
3.59872e-17
3.59779e-17
3.5979e-17
3.59806e-17
3.59813e-17
3.59819e-17
3.59823e-17
3.59826e-17
3.59829e-17
3.59833e-17
3.59837e-17
3.59841e-17
3.59842e-17
3.59839e-17
3.59837e-17
3.59476e-17
3.59516e-17
3.59551e-17
3.5958e-17
3.59604e-17
3.59626e-17
3.59646e-17
3.59663e-17
3.59679e-17
3.59694e-17
3.59708e-17
3.5972e-17
3.5973e-17
3.59732e-17
3.59499e-17
3.59534e-17
3.59566e-17
3.59594e-17
3.59619e-17
3.59642e-17
3.59663e-17
3.59682e-17
3.597e-17
3.59717e-17
3.59734e-17
3.59746e-17
3.59757e-17
3.59767e-17
3.59516e-17
3.5955e-17
3.59581e-17
3.59609e-17
3.59635e-17
3.59658e-17
3.59681e-17
3.59701e-17
3.5972e-17
3.59737e-17
3.59754e-17
3.59768e-17
3.5978e-17
3.59792e-17
3.59528e-17
3.5956e-17
3.59593e-17
3.59621e-17
3.59648e-17
3.59672e-17
3.59695e-17
3.59715e-17
3.59735e-17
3.59753e-17
3.5977e-17
3.59784e-17
3.59797e-17
3.5981e-17
3.59538e-17
3.59572e-17
3.59604e-17
3.59633e-17
3.5966e-17
3.59684e-17
3.59707e-17
3.59728e-17
3.59748e-17
3.59765e-17
3.59782e-17
3.59796e-17
3.59809e-17
3.59822e-17
3.59548e-17
3.59582e-17
3.59614e-17
3.59642e-17
3.59669e-17
3.59694e-17
3.59717e-17
3.59738e-17
3.59757e-17
3.59775e-17
3.59792e-17
3.59806e-17
3.59819e-17
3.59831e-17
3.5956e-17
3.59595e-17
3.59624e-17
3.59653e-17
3.59679e-17
3.59703e-17
3.59725e-17
3.59745e-17
3.59764e-17
3.59781e-17
3.59797e-17
3.59812e-17
3.59824e-17
3.59838e-17
3.59572e-17
3.59605e-17
3.59633e-17
3.59661e-17
3.59686e-17
3.59709e-17
3.5973e-17
3.5975e-17
3.59768e-17
3.59785e-17
3.59801e-17
3.59816e-17
3.59828e-17
3.59842e-17
3.59584e-17
3.59615e-17
3.59642e-17
3.59669e-17
3.59692e-17
3.59714e-17
3.59734e-17
3.59753e-17
3.59769e-17
3.59786e-17
3.59801e-17
3.59817e-17
3.59829e-17
3.59844e-17
3.59597e-17
3.59624e-17
3.5965e-17
3.59675e-17
3.59696e-17
3.59716e-17
3.59735e-17
3.59753e-17
3.59769e-17
3.59785e-17
3.598e-17
3.59817e-17
3.59829e-17
3.59845e-17
3.5961e-17
3.59634e-17
3.59657e-17
3.59679e-17
3.59699e-17
3.59717e-17
3.59734e-17
3.59751e-17
3.59766e-17
3.59782e-17
3.59797e-17
3.59814e-17
3.59827e-17
3.59844e-17
3.59619e-17
3.59639e-17
3.59661e-17
3.59681e-17
3.59699e-17
3.59716e-17
3.59731e-17
3.59747e-17
3.59761e-17
3.59777e-17
3.59792e-17
3.5981e-17
3.59821e-17
3.59836e-17
3.59624e-17
3.59642e-17
3.59664e-17
3.59682e-17
3.59698e-17
3.59712e-17
3.59726e-17
3.59739e-17
3.59753e-17
3.59767e-17
3.59782e-17
3.59799e-17
3.59807e-17
3.59817e-17
3.59624e-17
3.59642e-17
3.59664e-17
3.59679e-17
3.59693e-17
3.59706e-17
3.59719e-17
3.59732e-17
3.59745e-17
3.59758e-17
3.5977e-17
3.5978e-17
3.59785e-17
3.5979e-17
3.59096e-17
3.59137e-17
3.59175e-17
3.59209e-17
3.59239e-17
3.59267e-17
3.59292e-17
3.59315e-17
3.59336e-17
3.59356e-17
3.59375e-17
3.59391e-17
3.59406e-17
3.59413e-17
3.5913e-17
3.59166e-17
3.59203e-17
3.59236e-17
3.59268e-17
3.59297e-17
3.59325e-17
3.5935e-17
3.59373e-17
3.59394e-17
3.59415e-17
3.59433e-17
3.5945e-17
3.59466e-17
3.59164e-17
3.59198e-17
3.59234e-17
3.59267e-17
3.59299e-17
3.59329e-17
3.59357e-17
3.59383e-17
3.59407e-17
3.5943e-17
3.59452e-17
3.59471e-17
3.59488e-17
3.59507e-17
3.59191e-17
3.59225e-17
3.59262e-17
3.59295e-17
3.59328e-17
3.59358e-17
3.59387e-17
3.59414e-17
3.59439e-17
3.59462e-17
3.59484e-17
3.59504e-17
3.59523e-17
3.59543e-17
3.59218e-17
3.59252e-17
3.59289e-17
3.59323e-17
3.59356e-17
3.59386e-17
3.59416e-17
3.59443e-17
3.59468e-17
3.59492e-17
3.59514e-17
3.59534e-17
3.59554e-17
3.59572e-17
3.59245e-17
3.5928e-17
3.59315e-17
3.59349e-17
3.59381e-17
3.59412e-17
3.59442e-17
3.59469e-17
3.59494e-17
3.59519e-17
3.59541e-17
3.59562e-17
3.59581e-17
3.596e-17
3.59272e-17
3.59307e-17
3.59341e-17
3.59374e-17
3.59406e-17
3.59436e-17
3.59465e-17
3.59492e-17
3.59518e-17
3.59542e-17
3.59565e-17
3.59586e-17
3.59605e-17
3.59624e-17
3.59298e-17
3.59333e-17
3.59365e-17
3.59397e-17
3.59428e-17
3.59457e-17
3.59486e-17
3.59513e-17
3.59538e-17
3.59562e-17
3.59585e-17
3.59607e-17
3.59627e-17
3.59647e-17
3.59323e-17
3.59356e-17
3.59387e-17
3.59418e-17
3.59448e-17
3.59476e-17
3.59504e-17
3.5953e-17
3.59555e-17
3.59579e-17
3.59602e-17
3.59625e-17
3.59645e-17
3.59666e-17
3.59348e-17
3.59378e-17
3.59407e-17
3.59437e-17
3.59465e-17
3.59492e-17
3.59519e-17
3.59545e-17
3.59569e-17
3.59594e-17
3.59617e-17
3.59641e-17
3.59661e-17
3.59684e-17
3.59371e-17
3.59398e-17
3.59425e-17
3.59453e-17
3.5948e-17
3.59506e-17
3.59532e-17
3.59557e-17
3.59581e-17
3.59605e-17
3.59629e-17
3.59654e-17
3.59676e-17
3.59701e-17
3.5939e-17
3.59414e-17
3.5944e-17
3.59466e-17
3.59492e-17
3.59517e-17
3.59542e-17
3.59566e-17
3.5959e-17
3.59615e-17
3.59639e-17
3.59666e-17
3.59687e-17
3.59711e-17
3.59403e-17
3.59426e-17
3.59452e-17
3.59477e-17
3.59501e-17
3.59525e-17
3.59548e-17
3.59572e-17
3.59596e-17
3.5962e-17
3.59645e-17
3.59671e-17
3.5969e-17
3.59711e-17
3.5941e-17
3.59434e-17
3.5946e-17
3.59483e-17
3.59506e-17
3.5953e-17
3.59554e-17
3.59577e-17
3.59601e-17
3.59625e-17
3.59649e-17
3.5967e-17
3.59686e-17
3.59703e-17
3.58718e-17
3.58748e-17
3.58781e-17
3.58811e-17
3.5884e-17
3.58868e-17
3.58894e-17
3.58919e-17
3.58943e-17
3.58966e-17
3.58988e-17
3.59008e-17
3.59027e-17
3.5904e-17
3.58763e-17
3.58789e-17
3.58821e-17
3.5885e-17
3.58879e-17
3.58907e-17
3.58935e-17
3.58961e-17
3.58987e-17
3.59012e-17
3.59036e-17
3.59058e-17
3.59079e-17
3.591e-17
3.58807e-17
3.58832e-17
3.58863e-17
3.58892e-17
3.58921e-17
3.58949e-17
3.58977e-17
3.59004e-17
3.5903e-17
3.59056e-17
3.59081e-17
3.59104e-17
3.59126e-17
3.59149e-17
3.58847e-17
3.58872e-17
3.58903e-17
3.58932e-17
3.58962e-17
3.5899e-17
3.59019e-17
3.59047e-17
3.59074e-17
3.591e-17
3.59126e-17
3.5915e-17
3.59173e-17
3.59197e-17
3.58886e-17
3.58912e-17
3.58943e-17
3.58972e-17
3.59002e-17
3.59031e-17
3.5906e-17
3.59088e-17
3.59116e-17
3.59143e-17
3.59169e-17
3.59193e-17
3.59217e-17
3.59241e-17
3.58926e-17
3.58953e-17
3.58983e-17
3.59012e-17
3.59042e-17
3.59071e-17
3.591e-17
3.59129e-17
3.59157e-17
3.59185e-17
3.59211e-17
3.59237e-17
3.59261e-17
3.59285e-17
3.58965e-17
3.58993e-17
3.59022e-17
3.59051e-17
3.5908e-17
3.5911e-17
3.59139e-17
3.59168e-17
3.59197e-17
3.59225e-17
3.59252e-17
3.59278e-17
3.59303e-17
3.59327e-17
3.59004e-17
3.59032e-17
3.59059e-17
3.59088e-17
3.59117e-17
3.59147e-17
3.59176e-17
3.59206e-17
3.59235e-17
3.59263e-17
3.59291e-17
3.59319e-17
3.59344e-17
3.59369e-17
3.5904e-17
3.59068e-17
3.59095e-17
3.59124e-17
3.59152e-17
3.59182e-17
3.59212e-17
3.59242e-17
3.59271e-17
3.593e-17
3.59328e-17
3.59356e-17
3.59382e-17
3.59408e-17
3.59076e-17
3.59103e-17
3.59129e-17
3.59158e-17
3.59186e-17
3.59216e-17
3.59246e-17
3.59276e-17
3.59305e-17
3.59334e-17
3.59363e-17
3.59392e-17
3.5942e-17
3.59446e-17
3.59111e-17
3.59136e-17
3.59161e-17
3.59189e-17
3.59218e-17
3.59247e-17
3.59277e-17
3.59307e-17
3.59337e-17
3.59367e-17
3.59397e-17
3.59427e-17
3.59456e-17
3.59484e-17
3.59143e-17
3.59166e-17
3.59191e-17
3.59219e-17
3.59247e-17
3.59276e-17
3.59306e-17
3.59336e-17
3.59367e-17
3.59397e-17
3.59428e-17
3.59459e-17
3.59488e-17
3.59518e-17
3.59168e-17
3.59191e-17
3.59218e-17
3.59245e-17
3.59274e-17
3.59303e-17
3.59333e-17
3.59363e-17
3.59394e-17
3.59425e-17
3.59457e-17
3.59489e-17
3.59516e-17
3.59543e-17
3.59189e-17
3.59213e-17
3.59241e-17
3.59269e-17
3.59298e-17
3.59327e-17
3.59358e-17
3.59388e-17
3.59419e-17
3.5945e-17
3.59481e-17
3.59511e-17
3.59536e-17
3.59561e-17
3.58438e-17
3.5845e-17
3.58469e-17
3.58486e-17
3.58506e-17
3.58527e-17
3.58548e-17
3.58569e-17
3.5859e-17
3.58612e-17
3.58633e-17
3.58654e-17
3.58673e-17
3.58689e-17
3.58489e-17
3.58497e-17
3.58514e-17
3.5853e-17
3.58549e-17
3.58569e-17
3.58591e-17
3.58613e-17
3.58635e-17
3.58658e-17
3.58681e-17
3.58703e-17
3.58723e-17
3.58745e-17
3.58534e-17
3.58543e-17
3.5856e-17
3.58575e-17
3.58595e-17
3.58615e-17
3.58637e-17
3.58659e-17
3.58681e-17
3.58704e-17
3.58727e-17
3.58749e-17
3.5877e-17
3.58794e-17
3.58578e-17
3.58588e-17
3.58606e-17
3.58621e-17
3.58641e-17
3.58661e-17
3.58683e-17
3.58706e-17
3.58729e-17
3.58752e-17
3.58776e-17
3.58799e-17
3.58821e-17
3.58845e-17
3.58621e-17
3.58633e-17
3.58651e-17
3.58668e-17
3.58688e-17
3.58709e-17
3.58731e-17
3.58754e-17
3.58778e-17
3.58801e-17
3.58825e-17
3.58848e-17
3.58871e-17
3.58895e-17
3.58667e-17
3.5868e-17
3.58697e-17
3.58715e-17
3.58735e-17
3.58757e-17
3.5878e-17
3.58803e-17
3.58827e-17
3.58852e-17
3.58876e-17
3.589e-17
3.58924e-17
3.58947e-17
3.58711e-17
3.58726e-17
3.58743e-17
3.58762e-17
3.58783e-17
3.58805e-17
3.58829e-17
3.58853e-17
3.58877e-17
3.58902e-17
3.58927e-17
3.58952e-17
3.58976e-17
3.58999e-17
3.58755e-17
3.58772e-17
3.58789e-17
3.58809e-17
3.5883e-17
3.58854e-17
3.58877e-17
3.58902e-17
3.58928e-17
3.58953e-17
3.58979e-17
3.59004e-17
3.59029e-17
3.59053e-17
3.58798e-17
3.58816e-17
3.58834e-17
3.58855e-17
3.58877e-17
3.58901e-17
3.58926e-17
3.58951e-17
3.58977e-17
3.59003e-17
3.5903e-17
3.59056e-17
3.59081e-17
3.59105e-17
3.58842e-17
3.5886e-17
3.58879e-17
3.58901e-17
3.58923e-17
3.58948e-17
3.58973e-17
3.59e-17
3.59026e-17
3.59053e-17
3.59081e-17
3.59107e-17
3.59134e-17
3.59159e-17
3.58884e-17
3.58902e-17
3.58921e-17
3.58945e-17
3.58968e-17
3.58994e-17
3.5902e-17
3.59047e-17
3.59075e-17
3.59102e-17
3.59131e-17
3.59159e-17
3.59187e-17
3.59212e-17
3.58925e-17
3.58944e-17
3.58964e-17
3.58988e-17
3.59012e-17
3.59038e-17
3.59065e-17
3.59093e-17
3.59121e-17
3.5915e-17
3.59179e-17
3.59208e-17
3.59238e-17
3.59263e-17
3.5896e-17
3.5898e-17
3.59003e-17
3.59027e-17
3.59053e-17
3.5908e-17
3.59109e-17
3.59137e-17
3.59167e-17
3.59196e-17
3.59227e-17
3.59257e-17
3.59286e-17
3.5931e-17
3.58993e-17
3.59014e-17
3.59041e-17
3.59067e-17
3.59094e-17
3.59122e-17
3.59151e-17
3.5918e-17
3.5921e-17
3.5924e-17
3.59269e-17
3.59298e-17
3.59324e-17
3.59349e-17
3.58285e-17
3.58283e-17
3.58287e-17
3.58293e-17
3.58301e-17
3.58311e-17
3.58322e-17
3.58334e-17
3.58348e-17
3.58363e-17
3.58378e-17
3.58394e-17
3.58408e-17
3.58421e-17
3.58331e-17
3.58326e-17
3.5833e-17
3.58334e-17
3.58341e-17
3.5835e-17
3.58361e-17
3.58374e-17
3.58387e-17
3.58403e-17
3.58418e-17
3.58434e-17
3.58449e-17
3.58466e-17
3.58371e-17
3.58366e-17
3.5837e-17
3.58375e-17
3.58383e-17
3.58392e-17
3.58403e-17
3.58416e-17
3.58429e-17
3.58444e-17
3.58459e-17
3.58475e-17
3.5849e-17
3.58508e-17
3.58411e-17
3.58408e-17
3.58413e-17
3.58418e-17
3.58426e-17
3.58435e-17
3.58446e-17
3.58459e-17
3.58473e-17
3.58488e-17
3.58503e-17
3.58519e-17
3.58534e-17
3.58553e-17
3.5845e-17
3.5845e-17
3.58455e-17
3.58462e-17
3.5847e-17
3.5848e-17
3.58492e-17
3.58505e-17
3.58518e-17
3.58533e-17
3.58549e-17
3.58565e-17
3.58581e-17
3.58598e-17
3.58492e-17
3.58494e-17
3.585e-17
3.58507e-17
3.58516e-17
3.58526e-17
3.58538e-17
3.58552e-17
3.58566e-17
3.58582e-17
3.58598e-17
3.58614e-17
3.5863e-17
3.58647e-17
3.58533e-17
3.58538e-17
3.58544e-17
3.58553e-17
3.58562e-17
3.58574e-17
3.58586e-17
3.586e-17
3.58615e-17
3.58631e-17
3.58647e-17
3.58664e-17
3.58681e-17
3.58697e-17
3.58576e-17
3.58583e-17
3.5859e-17
3.58599e-17
3.58609e-17
3.58622e-17
3.58635e-17
3.5865e-17
3.58666e-17
3.58682e-17
3.58699e-17
3.58716e-17
3.58733e-17
3.58749e-17
3.58618e-17
3.58626e-17
3.58634e-17
3.58645e-17
3.58657e-17
3.5867e-17
3.58685e-17
3.58701e-17
3.58717e-17
3.58734e-17
3.58751e-17
3.58768e-17
3.58786e-17
3.58802e-17
3.58661e-17
3.5867e-17
3.58679e-17
3.58692e-17
3.58705e-17
3.58719e-17
3.58735e-17
3.58752e-17
3.58769e-17
3.58786e-17
3.58804e-17
3.58822e-17
3.58842e-17
3.58857e-17
3.58703e-17
3.58713e-17
3.58724e-17
3.58738e-17
3.58752e-17
3.58768e-17
3.58786e-17
3.58803e-17
3.58821e-17
3.58839e-17
3.58858e-17
3.58877e-17
3.58897e-17
3.58913e-17
3.58746e-17
3.58757e-17
3.58769e-17
3.58784e-17
3.588e-17
3.58817e-17
3.58836e-17
3.58854e-17
3.58873e-17
3.58892e-17
3.58912e-17
3.58932e-17
3.58953e-17
3.58969e-17
3.58785e-17
3.58797e-17
3.58812e-17
3.58829e-17
3.58847e-17
3.58865e-17
3.58885e-17
3.58905e-17
3.58925e-17
3.58945e-17
3.58966e-17
3.58987e-17
3.59008e-17
3.59024e-17
3.58823e-17
3.58838e-17
3.58856e-17
3.58874e-17
3.58894e-17
3.58914e-17
3.58934e-17
3.58955e-17
3.58976e-17
3.58997e-17
3.59017e-17
3.59038e-17
3.59058e-17
3.59074e-17
3.58224e-17
3.58217e-17
3.58212e-17
3.5821e-17
3.58209e-17
3.58209e-17
3.58211e-17
3.58214e-17
3.58218e-17
3.58224e-17
3.58231e-17
3.58239e-17
3.58246e-17
3.58254e-17
3.5826e-17
3.5825e-17
3.58246e-17
3.58241e-17
3.5824e-17
3.58239e-17
3.58241e-17
3.58244e-17
3.58248e-17
3.58254e-17
3.58261e-17
3.58269e-17
3.58275e-17
3.58284e-17
3.5829e-17
3.58281e-17
3.58277e-17
3.58273e-17
3.58272e-17
3.58272e-17
3.58273e-17
3.58276e-17
3.5828e-17
3.58286e-17
3.58292e-17
3.58299e-17
3.58305e-17
3.58314e-17
3.58323e-17
3.58314e-17
3.58311e-17
3.58307e-17
3.58306e-17
3.58306e-17
3.58307e-17
3.5831e-17
3.58314e-17
3.58319e-17
3.58325e-17
3.58331e-17
3.58337e-17
3.58347e-17
3.58354e-17
3.58347e-17
3.58344e-17
3.58341e-17
3.5834e-17
3.58341e-17
3.58342e-17
3.58345e-17
3.58349e-17
3.58354e-17
3.58359e-17
3.58366e-17
3.58372e-17
3.5838e-17
3.58387e-17
3.58381e-17
3.58379e-17
3.58377e-17
3.58377e-17
3.58377e-17
3.58379e-17
3.58382e-17
3.58386e-17
3.58391e-17
3.58397e-17
3.58403e-17
3.58409e-17
3.58416e-17
3.58419e-17
3.58416e-17
3.58414e-17
3.58413e-17
3.58414e-17
3.58415e-17
3.58417e-17
3.5842e-17
3.58425e-17
3.5843e-17
3.58435e-17
3.58441e-17
3.58448e-17
3.58454e-17
3.58453e-17
3.58452e-17
3.58451e-17
3.58451e-17
3.58452e-17
3.58454e-17
3.58456e-17
3.5846e-17
3.58465e-17
3.5847e-17
3.58476e-17
3.58482e-17
3.5849e-17
3.58494e-17
3.58487e-17
3.58488e-17
3.58488e-17
3.58489e-17
3.58491e-17
3.58494e-17
3.58497e-17
3.58502e-17
3.58507e-17
3.58512e-17
3.58519e-17
3.58525e-17
3.58533e-17
3.58536e-17
3.58522e-17
3.58525e-17
3.58526e-17
3.58529e-17
3.58531e-17
3.58535e-17
3.58539e-17
3.58544e-17
3.5855e-17
3.58556e-17
3.58564e-17
3.5857e-17
3.58578e-17
3.58581e-17
3.58558e-17
3.58562e-17
3.58564e-17
3.58568e-17
3.58573e-17
3.58577e-17
3.58583e-17
3.58588e-17
3.58595e-17
3.58602e-17
3.5861e-17
3.58616e-17
3.58625e-17
3.58627e-17
3.58595e-17
3.58601e-17
3.58604e-17
3.58609e-17
3.58614e-17
3.5862e-17
3.58626e-17
3.58633e-17
3.58641e-17
3.58649e-17
3.58657e-17
3.58664e-17
3.58674e-17
3.58675e-17
3.58631e-17
3.58637e-17
3.58643e-17
3.5865e-17
3.58657e-17
3.58664e-17
3.58671e-17
3.58679e-17
3.58687e-17
3.58696e-17
3.58704e-17
3.58713e-17
3.58722e-17
3.58724e-17
3.58669e-17
3.58676e-17
3.58684e-17
3.58691e-17
3.587e-17
3.58708e-17
3.58716e-17
3.58725e-17
3.58734e-17
3.58743e-17
3.58752e-17
3.5876e-17
3.58769e-17
3.58773e-17
3.58214e-17
3.58203e-17
3.58195e-17
3.58187e-17
3.5818e-17
3.58174e-17
3.5817e-17
3.58166e-17
3.58164e-17
3.58162e-17
3.58161e-17
3.5816e-17
3.58159e-17
3.5816e-17
3.58237e-17
3.58225e-17
3.58217e-17
3.58208e-17
3.58201e-17
3.58194e-17
3.58189e-17
3.58185e-17
3.58182e-17
3.5818e-17
3.58179e-17
3.58178e-17
3.58176e-17
3.58179e-17
3.58257e-17
3.58245e-17
3.58237e-17
3.58228e-17
3.58221e-17
3.58215e-17
3.5821e-17
3.58206e-17
3.58203e-17
3.582e-17
3.58198e-17
3.58197e-17
3.58195e-17
3.58197e-17
3.58279e-17
3.58267e-17
3.58259e-17
3.58251e-17
3.58244e-17
3.58237e-17
3.58232e-17
3.58228e-17
3.58224e-17
3.58222e-17
3.58219e-17
3.58217e-17
3.58215e-17
3.58217e-17
3.58299e-17
3.58289e-17
3.58281e-17
3.58273e-17
3.58267e-17
3.58261e-17
3.58255e-17
3.58251e-17
3.58247e-17
3.58244e-17
3.58241e-17
3.58239e-17
3.58236e-17
3.58236e-17
3.58322e-17
3.58312e-17
3.58305e-17
3.58297e-17
3.58291e-17
3.58285e-17
3.5828e-17
3.58275e-17
3.58271e-17
3.58268e-17
3.58265e-17
3.58262e-17
3.5826e-17
3.58258e-17
3.58344e-17
3.58336e-17
3.58329e-17
3.58322e-17
3.58316e-17
3.5831e-17
3.58305e-17
3.583e-17
3.58296e-17
3.58293e-17
3.5829e-17
3.58287e-17
3.58284e-17
3.58281e-17
3.58367e-17
3.58361e-17
3.58354e-17
3.58348e-17
3.58342e-17
3.58337e-17
3.58332e-17
3.58327e-17
3.58323e-17
3.58319e-17
3.58316e-17
3.58313e-17
3.58311e-17
3.58307e-17
3.58391e-17
3.58386e-17
3.5838e-17
3.58375e-17
3.58369e-17
3.58364e-17
3.58359e-17
3.58355e-17
3.58351e-17
3.58347e-17
3.58344e-17
3.58341e-17
3.58338e-17
3.58334e-17
3.58416e-17
3.58413e-17
3.58407e-17
3.58403e-17
3.58398e-17
3.58393e-17
3.58389e-17
3.58384e-17
3.5838e-17
3.58377e-17
3.58374e-17
3.58369e-17
3.58367e-17
3.58363e-17
3.58442e-17
3.5844e-17
3.58435e-17
3.58432e-17
3.58427e-17
3.58423e-17
3.58419e-17
3.58415e-17
3.58411e-17
3.58408e-17
3.58404e-17
3.584e-17
3.58399e-17
3.58394e-17
3.58469e-17
3.58468e-17
3.58464e-17
3.58461e-17
3.58458e-17
3.58454e-17
3.5845e-17
3.58447e-17
3.58444e-17
3.5844e-17
3.58437e-17
3.58433e-17
3.58432e-17
3.58427e-17
3.58497e-17
3.58497e-17
3.58494e-17
3.58492e-17
3.58489e-17
3.58486e-17
3.58483e-17
3.5848e-17
3.58477e-17
3.58473e-17
3.5847e-17
3.58466e-17
3.58465e-17
3.5846e-17
3.58527e-17
3.58526e-17
3.58524e-17
3.58523e-17
3.58521e-17
3.58519e-17
3.58517e-17
3.58514e-17