/*--------------------------------*- C++ -*----------------------------------*\
| =========                 |                                                 |
| \\      /  F ield         | OpenFOAM: The Open Source CFD Toolbox           |
|  \\    /   O peration     | Version:  v2106                                 |
|   \\  /    A nd           | Website:  www.openfoam.com                      |
|    \\/     M anipulation  |                                                 |
\*---------------------------------------------------------------------------*/
FoamFile
{
    version     2.0;
    format      ascii;
    arch        "LSB;label=32;scalar=64";
    class       volScalarField;
    location    "0.000198";
    object      p;
}
// * * * * * * * * * * * * * * * * * * * * * * * * * * * * * * * * * * * * * //

dimensions      [1 -1 -2 0 0 0 0];

internalField   nonuniform List<scalar> 
17924
(
242821
242825
242830
242835
242662
242644
242632
242625
242622
242622
242626
242564
242553
242539
242529
242524
242523
242526
242476
242465
242447
242436
242430
242429
242431
242391
242378
242360
242349
242343
242342
242344
242311
242296
242278
242268
242262
242261
242264
242234
242217
242201
242191
242186
242187
242190
242159
242141
242127
242119
242116
242117
242122
242085
242067
242056
242050
242050
242053
242061
242011
241995
241987
241984
241987
241993
242005
241937
241924
241920
241921
241927
241938
241954
241863
241852
241852
241857
241869
241885
241907
241788
241780
241786
241799
241817
241839
241864
241713
241708
241721
241741
241765
241791
241823
241635
241638
241662
241687
241716
241749
241786
242501
242469
242447
242430
242419
242412
242410
242413
242420
242432
242450
242470
242502
242531
242405
242383
242356
242336
242322
242312
242307
242307
242312
242322
242338
242356
242386
242403
242319
242295
242265
242243
242226
242215
242207
242204
242206
242214
242228
242245
242273
242290
242234
242208
242178
242155
242136
242122
242112
242108
242108
242113
242125
242140
242167
242183
242153
242125
242095
242071
242050
242035
242023
242017
242015
242018
242029
242044
242069
242089
242074
242045
242016
241992
241970
241954
241941
241934
241930
241933
241943
241957
241980
242002
241999
241969
241941
241917
241896
241880
241867
241860
241856
241859
241868
241882
241903
241926
241925
241897
241871
241848
241829
241814
241803
241795
241793
241795
241803
241817
241836
241859
241854
241827
241805
241785
241769
241755
241747
241741
241741
241744
241752
241766
241783
241806
241785
241763
241745
241729
241716
241706
241700
241697
241698
241702
241712
241726
241742
241764
241722
241703
241690
241678
241670
241665
241663
241663
241667
241673
241684
241699
241714
241734
241664
241649
241642
241636
241634
241632
241635
241637
241644
241653
241665
241681
241697
241717
241610
241599
241600
241600
241603
241607
241614
241620
241630
241642
241656
241671
241686
241702
241560
241558
241567
241572
241580
241589
241601
241612
241624
241637
241651
241666
241682
241697
242319
242286
242262
242244
242233
242226
242223
242225
242231
242242
242258
242278
242308
242338
242231
242208
242181
242161
242147
242137
242130
242129
242133
242142
242155
242172
242199
242216
242151
242128
242099
242079
242061
242048
242039
242034
242035
242041
242052
242067
242094
242109
242069
242045
242018
241997
241978
241963
241951
241945
241943
241947
241956
241969
241994
242006
241991
241967
241939
241917
241896
241880
241867
241859
241856
241858
241866
241879
241901
241916
241915
241890
241864
241842
241820
241804
241790
241781
241775
241776
241782
241794
241813
241832
241841
241817
241792
241770
241749
241732
241718
241708
241702
241701
241706
241716
241734
241755
241771
241749
241726
241705
241686
241669
241654
241643
241635
241632
241636
241645
241661
241683
241706
241686
241666
241647
241629
241612
241598
241585
241578
241573
241575
241583
241596
241619
241648
241630
241614
241597
241581
241565
241551
241538
241529
241523
241523
241529
241539
241561
241596
241582
241569
241554
241540
241525
241513
241500
241492
241485
241483
241486
241493
241513
241556
241544
241535
241521
241509
241497
241485
241474
241464
241457
241453
241454
241459
241476
241520
241512
241508
241498
241489
241478
241468
241459
241451
241443
241439
241436
241437
241449
241501
241495
241493
241486
241479
241470
241460
241450
241442
241433
241427
241422
241422
241430
242077
242066
242054
242046
242041
242039
242040
242045
242054
242066
242081
242102
242129
242157
242002
241999
241987
241979
241972
241970
241970
241974
241981
241991
242005
242023
242044
242060
241936
241933
241921
241911
241903
241898
241897
241898
241903
241912
241925
241941
241964
241978
241867
241862
241851
241843
241835
241830
241827
241828
241831
241838
241849
241864
241885
241898
241799
241795
241783
241775
241767
241762
241758
241758
241760
241767
241777
241790
241810
241826
241733
241728
241719
241712
241704
241699
241694
241693
241693
241698
241707
241720
241738
241757
241671
241666
241659
241652
241644
241638
241633
241630
241630
241633
241641
241653
241669
241691
241613
241609
241604
241598
241590
241583
241577
241573
241571
241573
241579
241589
241605
241627
241563
241558
241555
241548
241541
241533
241526
241520
241518
241518
241522
241532
241546
241568
241519
241515
241513
241507
241500
241491
241483
241475
241470
241468
241471
241479
241491
241512
241484
241480
241479
241473
241465
241456
241446
241436
241430
241425
241426
241431
241440
241461
241458
241455
241455
241448
241440
241430
241418
241406
241396
241388
241385
241386
241393
241411
241440
241439
241439
241432
241423
241412
241398
241383
241370
241360
241353
241350
241354
241367
241441
241438
241435
241426
241417
241403
241387
241368
241350
241335
241323
241314
241314
241320
241722
241741
241756
241771
241783
241795
241807
241820
241836
241852
241871
241891
241912
241934
241672
241696
241712
241728
241741
241754
241768
241783
241799
241815
241834
241852
241874
241891
241627
241654
241670
241686
241698
241710
241723
241737
241752
241768
241786
241805
241827
241845
241581
241609
241625
241642
241655
241668
241680
241693
241707
241722
241739
241757
241779
241797
241537
241564
241581
241597
241610
241622
241634
241646
241659
241673
241690
241707
241728
241747
241493
241518
241537
241553
241567
241579
241590
241601
241612
241625
241640
241657
241676
241697
241453
241477
241496
241512
241524
241535
241545
241555
241565
241577
241591
241607
241625
241647
241417
241440
241459
241474
241486
241495
241504
241512
241521
241531
241544
241558
241576
241597
241386
241408
241426
241439
241450
241457
241464
241471
241478
241487
241498
241512
241528
241550
241362
241383
241400
241411
241419
241425
241430
241433
241439
241445
241454
241466
241480
241502
241346
241364
241379
241388
241393
241396
241398
241399
241402
241405
241412
241422
241435
241456
241337
241351
241364
241371
241373
241373
241371
241369
241368
241369
241372
241378
241387
241407
241335
241346
241356
241359
241358
241354
241347
241341
241336
241333
241334
241337
241345
241362
241346
241353
241358
241356
241350
241341
241329
241318
241308
241300
241295
241294
241298
241307
241176
241234
241282
241326
241363
241396
241425
241450
241477
241501
241525
241549
241572
241597
241169
241226
241273
241318
241357
241392
241425
241455
241484
241510
241536
241559
241584
241607
241157
241216
241267
241312
241352
241387
241421
241450
241478
241504
241530
241555
241580
241605
241145
241203
241255
241300
241342
241378
241412
241442
241471
241497
241524
241549
241574
241599
241135
241192
241245
241289
241330
241365
241399
241428
241457
241483
241509
241534
241559
241584
241123
241179
241231
241275
241315
241350
241383
241413
241441
241466
241492
241516
241540
241565
241115
241170
241220
241262
241301
241334
241366
241394
241420
241445
241469
241492
241515
241539
241109
241161
241208
241249
241286
241318
241347
241374
241398
241422
241444
241466
241488
241512
241106
241155
241199
241238
241271
241301
241326
241350
241373
241394
241415
241436
241456
241480
241106
241152
241193
241228
241257
241283
241306
241327
241346
241365
241384
241403
241421
241445
241110
241152
241187
241218
241242
241265
241283
241301
241317
241334
241350
241368
241384
241408
241117
241153
241183
241209
241228
241247
241261
241275
241288
241301
241314
241329
241344
241367
241125
241156
241180
241200
241214
241228
241237
241246
241256
241265
241276
241289
241303
241327
241142
241167
241182
241195
241202
241210
241214
241219
241223
241228
241236
241246
241258
241275
240409
240495
240572
240640
240699
240753
240801
240844
240883
240918
240951
240980
241008
241044
240440
240519
240598
240667
240732
240790
240843
240890
240934
240973
241009
241041
241072
241110
240473
240553
240634
240704
240770
240828
240883
240930
240975
241015
241052
241086
241117
241153
240501
240581
240662
240732
240799
240859
240915
240965
241012
241053
241092
241127
241160
241196
240532
240612
240692
240762
240829
240888
240944
240993
241039
241081
241120
241155
241190
241224
240560
240640
240717
240786
240851
240910
240966
241016
241063
241105
241144
241179
241214
241247
240590
240669
240742
240810
240873
240930
240984
241032
241077
241118
241156
241192
241225
241258
240620
240695
240764
240829
240889
240945
240996
241043
241086
241126
241163
241198
241231
241264
240648
240720
240784
240846
240902
240954
241002
241046
241087
241125
241162
241197
241229
241262
240676
240743
240801
240858
240909
240958
241003
241045
241084
241121
241156
241190
241220
241254
240702
240763
240815
240867
240913
240958
240999
241038
241074
241110
241142
241175
241205
241240
240726
240780
240825
240871
240913
240953
240990
241027
241060
241093
241124
241156
241184
241220
240745
240794
240832
240873
240909
240944
240976
241007
241038
241069
241099
241130
241159
241195
240767
240809
240840
240873
240901
240930
240958
240986
241014
241041
241070
241099
241128
241166
239479
239567
239655
239733
239807
239875
239937
239993
240045
240091
240134
240174
240214
240256
239541
239623
239715
239796
239876
239948
240015
240076
240131
240182
240229
240274
240317
240369
239617
239699
239791
239871
239951
240023
240092
240153
240210
240263
240312
240358
240402
240454
239686
239767
239857
239939
240019
240093
240163
240227
240287
240342
240393
240442
240488
240540
239756
239838
239927
240007
240087
240161
240231
240295
240355
240411
240464
240514
240562
240611
239825
239907
239992
240071
240150
240223
240293
240358
240419
240476
240530
240581
240631
240679
239892
239973
240054
240132
240208
240280
240348
240413
240474
240532
240586
240638
240688
240735
239958
240036
240112
240187
240261
240331
240398
240462
240523
240581
240636
240688
240739
240786
240017
240093
240165
240237
240307
240375
240441
240504
240564
240621
240676
240728
240779
240827
240075
240147
240213
240282
240348
240414
240477
240539
240598
240654
240709
240762
240813
240863
240126
240194
240255
240320
240382
240445
240506
240566
240624
240680
240735
240788
240841
240893
240172
240235
240291
240352
240411
240471
240530
240588
240645
240700
240755
240810
240862
240917
240212
240271
240321
240378
240434
240491
240547
240603
240659
240715
240770
240825
240878
240936
240250
240304
240347
240398
240450
240504
240559
240614
240669
240724
240779
240835
240890
240953
238564
238630
238705
238775
238845
238911
238975
239036
239093
239148
239200
239250
239300
239350
238659
238718
238795
238867
238939
239007
239073
239137
239199
239257
239313
239368
239420
239482
238763
238821
238898
238968
239039
239107
239174
239238
239300
239360
239418
239474
239527
239590
238863
238921
238996
239065
239137
239205
239273
239340
239404
239467
239526
239586
239641
239704
238962
239023
239095
239164
239235
239303
239372
239439
239504
239568
239630
239691
239748
239809
239062
239123
239193
239260
239330
239399
239468
239536
239604
239669
239733
239795
239855
239915
239157
239219
239286
239354
239423
239492
239561
239630
239698
239765
239831
239894
239955
240014
239252
239314
239378
239444
239512
239582
239652
239721
239791
239858
239925
239990
240054
240113
239339
239401
239463
239529
239596
239666
239737
239807
239877
239946
240014
240079
240145
240204
239425
239487
239546
239611
239678
239748
239818
239889
239960
240029
240098
240164
240232
240291
239504
239564
239621
239686
239752
239822
239893
239965
240037
240107
240177
240244
240314
240372
239580
239640
239695
239759
239824
239894
239964
240036
240107
240178
240249
240317
240388
240450
239647
239706
239759
239823
239888
239957
240029
240101
240175
240247
240320
240389
240461
240528
239715
239771
239823
239886
239950
240019
240089
240161
240233
240305
240378
240452
240526
240604
237894
237917
237958
237999
238045
238094
238145
238197
238248
238300
238351
238401
238451
238502
238006
238023
238063
238102
238148
238198
238249
238302
238356
238410
238463
238516
238567
238627
238114
238134
238174
238212
238258
238307
238358
238411
238464
238518
238572
238626
238677
238739
238224
238247
238286
238324
238370
238419
238471
238525
238579
238635
238690
238746
238799
238860
238331
238358
238397
238437
238483
238533
238586
238640
238695
238752
238808
238866
238919
238980
238442
238472
238509
238551
238598
238649
238703
238758
238815
238873
238931
238990
239046
239105
238549
238582
238620
238664
238713
238765
238820
238877
238935
238994
239054
239113
239172
239229
238658
238693
238732
238778
238828
238881
238937
238996
239056
239116
239178
239238
239300
239356
238763
238800
238841
238889
238940
238996
239053
239113
239175
239237
239301
239362
239426
239481
238867
238907
238949
238999
239052
239109
239168
239230
239294
239357
239423
239485
239552
239605
238965
239007
239051
239104
239158
239218
239280
239344
239410
239475
239543
239606
239675
239726
239063
239108
239154
239208
239265
239326
239390
239455
239522
239589
239658
239722
239793
239846
239150
239199
239247
239303
239363
239427
239494
239562
239632
239702
239773
239840
239912
239967
239244
239293
239344
239402
239465
239529
239597
239665
239735
239804
239875
239944
240016
240085
237526
237517
237524
237538
237555
237578
237604
237635
237667
237703
237740
237778
237816
237855
237631
237614
237622
237635
237652
237674
237700
237731
237763
237799
237836
237875
237912
237956
237726
237712
237721
237735
237753
237775
237801
237830
237863
237898
237933
237972
238008
238054
237825
237816
237825
237839
237858
237880
237906
237936
237968
238003
238040
238078
238115
238161
237922
237920
237930
237946
237965
237988
238014
238045
238078
238113
238150
238189
238227
238271
238024
238028
238039
238055
238075
238099
238127
238159
238193
238229
238267
238306
238345
238387
238125
238134
238147
238165
238187
238213
238243
238276
238311
238348
238387
238426
238467
238507
238229
238242
238256
238277
238301
238329
238361
238395
238432
238470
238510
238551
238594
238632
238331
238347
238364
238388
238416
238446
238480
238517
238555
238595
238636
238677
238722
238758
238434
238453
238473
238500
238531
238564
238601
238640
238680
238721
238764
238806
238854
238889
238534
238557
238580
238611
238645
238682
238722
238763
238805
238848
238892
238936
238985
239017
238636
238662
238689
238723
238760
238800
238843
238886
238931
238975
239021
239067
239119
239149
238731
238760
238792
238830
238872
238916
238962
239008
239056
239102
239151
239198
239251
239282
238836
238867
238903
238942
238987
239032
239080
239129
239178
239226
239276
239324
239377
239418
237379
237356
237343
237335
237331
237332
237336
237344
237354
237369
237385
237405
237424
237447
237458
237432
237420
237411
237407
237407
237410
237418
237428
237441
237456
237475
237492
237516
237532
237508
237497
237489
237485
237485
237488
237495
237504
237517
237530
237547
237563
237586
237611
237590
237579
237571
237568
237568
237570
237577
237585
237597
237610
237626
237641
237664
237689
237671
237662
237655
237652
237653
237656
237662
237670
237682
237695
237710
237725
237745
237770
237755
237747
237742
237740
237741
237744
237751
237760
237771
237784
237798
237814
237832
237849
237839
237834
237830
237830
237832
237836
237844
237853
237864
237877
237892
237908
237924
237931
237926
237922
237921
237922
237926
237932
237940
237950
237962
237976
237991
238008
238021
238013
238014
238012
238014
238017
238022
238030
238039
238051
238063
238079
238094
238112
238122
238098
238103
238104
238108
238114
238122
238131
238142
238155
238169
238186
238202
238222
238228
238184
238193
238196
238204
238213
238223
238235
238247
238262
238278
238296
238313
238333
238336
238272
238285
238291
238302
238314
238327
238341
238356
238373
238391
238410
238428
238450
238450
238360
238375
238386
238400
238416
238432
238449
238466
238485
238504
238524
238542
238565
238565
238460
238472
238486
238502
238520
238538
238557
238577
238598
238619
238640
238660
238683
238693
237348
237317
237295
237275
237258
237243
237232
237223
237217
237212
237209
237209
237209
237214
237399
237368
237346
237326
237308
237293
237281
237271
237263
237257
237253
237251
237248
237255
237446
237417
237396
237376
237359
237344
237331
237321
237313
237306
237300
237297
237293
237298
237498
237471
237450
237431
237414
237398
237385
237374
237365
237357
237351
237346
237341
237344
237551
237526
237506
237487
237470
237455
237441
237430
237420
237412
237405
237399
237393
237393
237606
237583
237564
237545
237529
237514
237500
237489
237478
237470
237462
237456
237449
237446
237661
237641
237623
237606
237590
237575
237562
237550
237540
237531
237523
237516
237509
237503
237718
237701
237684
237668
237653
237639
237626
237615
237604
237595
237586
237579
237572
237565
237777
237763
237747
237733
237719
237706
237694
237682
237672
237662
237654
237645
237639
237629
237838
237827
237813
237800
237788
237776
237764
237753
237743
237733
237724
237714
237709
237699
237900
237893
237881
237870
237859
237848
237837
237827
237817
237807
237799
237788
237784
237773
237966
237962
237951
237942
237932
237923
237914
237904
237895
237885
237877
237867
237864
237852
238035
238032
238024
238017
238009
238001
237992
237983
237975
237965
237957
237948
237944
237931
238113
238104
238096
238090
238085
238079
238073
238066
238059
238050
238042
238034
238032
238021
237347
237313
237287
237261
237238
237215
237195
237175
237157
237139
237123
237107
237093
237079
237373
237342
237316
237291
237267
237243
237222
237200
237181
237161
237143
237126
237111
237097
237397
237368
237343
237317
237293
237270
237248
237226
237206
237186
237168
237150
237132
237117
237425
237397
237372
237346
237322
237298
237276
237254
237233
237213
237193
237175
237156
237139
237454
237426
237401
237376
237352
237328
237306
237283
237262
237241
237220
237201
237180
237162
237485
237458
237434
237409
237384
237360
237337
237314
237292
237270
237248
237227
237206
237186
237516
237492
237467
237442
237418
237394
237370
237347
237323
237301
237278
237256
237234
237212
237550
237527
237502
237478
237453
237429
237405
237380
237356
237333
237309
237286
237263
237240
237584
237562
237538
237514
237489
237465
237440
237416
237391
237367
237343
237319
237295
237270
237619
237599
237576
237553
237528
237503
237478
237453
237428
237403
237378
237353
237329
237302
237655
237636
237614
237591
237567
237542
237517
237492
237466
237441
237415
237388
237364
237334
237692
237675
237653
237631
237607
237583
237558
237532
237505
237478
237452
237424
237399
237368
237733
237716
237695
237673
237649
237625
237599
237573
237546
237519
237491
237461
237435
237404
237777
237755
237734
237713
237691
237668
237643
237617
237590
237562
237535
237505
237478
237447
237328
237296
237269
237242
237215
237187
237159
237132
237106
237080
237055
237029
237005
236978
237334
237304
237278
237251
237223
237196
237168
237139
237112
237084
237057
237029
237004
236977
237339
237312
237285
237258
237230
237203
237175
237146
237118
237089
237062
237033
237007
236979
237347
237320
237293
237266
237238
237210
237182
237153
237125
237095
237067
237037
237009
236980
237354
237328
237301
237274
237246
237218
237189
237160
237130
237100
237071
237041
237011
236981
237362
237336
237309
237282
237253
237224
237195
237165
237135
237105
237074
237043
237012
236981
237371
237345
237318
237290
237261
237232
237202
237171
237140
237109
237077
237045
237013
236981
237379
237354
237326
237298
237268
237238
237208
237177
237145
237113
237080
237047
237014
236980
237388
237362
237335
237306
237276
237245
237214
237182
237149
237116
237082
237048
237014
236979
237396
237370
237343
237314
237283
237252
237220
237187
237153
237119
237084
237050
237014
236979
237405
237379
237351
237322
237290
237258
237225
237192
237157
237122
237086
237050
237013
236976
237413
237387
237359
237329
237297
237265
237231
237196
237160
237124
237087
237050
237012
236975
237422
237395
237367
237336
237304
237270
237236
237201
237164
237127
237089
237050
237011
236971
237429
237400
237373
237342
237310
237276
237241
237205
237169
237132
237094
237056
237016
236976
237245
237217
237191
237163
237134
237103
237072
237039
237007
236972
236940
236906
236876
236839
237232
237206
237180
237153
237123
237093
237061
237028
236995
236960
236927
236891
236860
236824
237217
237193
237167
237139
237110
237080
237048
237015
236982
236947
236913
236877
236844
236808
237203
237180
237153
237126
237096
237066
237034
237001
236967
236932
236898
236862
236828
236792
237188
237165
237138
237111
237081
237051
237019
236986
236952
236916
236881
236844
236809
236773
237173
237150
237123
237095
237065
237034
237002
236968
236934
236898
236862
236825
236789
236752
237158
237134
237107
237079
237048
237017
236984
236950
236915
236878
236842
236804
236767
236729
237142
237117
237089
237060
237029
236997
236964
236929
236893
236857
236819
236782
236743
236705
237126
237100
237071
237041
237010
236977
236943
236907
236871
236833
236795
236757
236718
236680
237107
237080
237051
237020
236988
236954
236920
236884
236847
236809
236770
236731
236691
236653
237090
237060
237031
237000
236966
236932
236896
236859
236820
236782
236742
236703
236661
236625
237069
237038
237008
236976
236942
236907
236870
236833
236794
236755
236714
236675
236632
236596
237050
237017
236986
236953
236918
236882
236844
236805
236765
236724
236683
236643
236600
236563
237027
236993
236962
236928
236892
236854
236816
236777
236737
236697
236656
236616
236574
236535
237016
236992
236967
236941
236913
236883
236852
236819
236784
236748
236713
236676
236641
236601
236983
236962
236938
236912
236884
236855
236823
236789
236755
236718
236683
236645
236610
236572
236949
236930
236905
236880
236852
236823
236792
236759
236724
236688
236653
236615
236580
236541
236915
236897
236872
236847
236819
236790
236758
236725
236691
236655
236619
236582
236546
236508
236881
236863
236838
236813
236784
236755
236723
236690
236656
236620
236584
236547
236511
236474
236845
236826
236801
236776
236747
236718
236686
236653
236618
236582
236547
236509
236473
236436
236810
236789
236764
236737
236709
236679
236647
236613
236579
236543
236507
236470
236434
236397
236771
236749
236724
236697
236668
236638
236605
236572
236537
236502
236465
236428
236391
236355
236734
236709
236683
236656
236626
236595
236563
236529
236494
236458
236421
236385
236347
236312
236694
236667
236640
236612
236582
236551
236518
236484
236448
236413
236375
236339
236301
236267
236655
236625
236598
236568
236538
236506
236472
236437
236401
236365
236327
236291
236253
236221
236612
236580
236553
236522
236491
236458
236424
236389
236353
236317
236279
236243
236205
236174
236572
236538
236509
236478
236445
236411
236376
236340
236303
236266
236228
236191
236153
236124
236526
236491
236460
236428
236395
236361
236326
236290
236254
236217
236180
236145
236107
236077
236561
236544
236524
236504
236483
236459
236434
236406
236377
236347
236315
236283
236251
236215
236515
236502
236483
236463
236441
236417
236392
236364
236335
236304
236272
236239
236208
236174
236470
236459
236439
236419
236397
236373
236347
236320
236292
236262
236231
236199
236168
236135
236425
236413
236393
236373
236351
236327
236301
236274
236246
236216
236186
236154
236124
236091
236379
236366
236346
236326
236303
236279
236254
236227
236199
236169
236140
236108
236079
236047
236331
236317
236297
236277
236254
236230
236204
236177
236149
236120
236091
236060
236031
236000
236283
236267
236247
236226
236203
236179
236153
236126
236098
236070
236041
236011
235982
235952
236232
236214
236195
236173
236151
236126
236101
236074
236046
236018
235988
235959
235930
235901
236182
236162
236142
236120
236097
236073
236047
236020
235992
235964
235935
235907
235878
235851
236130
236108
236088
236065
236042
236017
235992
235965
235937
235909
235880
235853
235823
235799
236080
236055
236034
236011
235987
235962
235936
235909
235881
235853
235825
235798
235769
235747
236027
236000
235978
235954
235930
235905
235879
235852
235825
235798
235769
235742
235714
235694
235976
235948
235925
235901
235875
235849
235822
235795
235767
235740
235711
235685
235658
235640
235918
235892
235867
235843
235817
235791
235764
235738
235711
235684
235657
235631
235604
235586
235868
235861
235850
235839
235828
235815
235800
235784
235767
235748
235728
235707
235819
235817
235806
235796
235784
235771
235756
235739
235722
235703
235683
235662
235776
235773
235761
235751
235739
235725
235710
235694
235677
235658
235640
235619
235729
235726
235715
235704
235692
235678
235663
235647
235630
235612
235594
235574
235684
235679
235668
235657
235644
235630
235615
235599
235582
235565
235547
235528
235637
235630
235619
235608
235595
235581
235566
235550
235534
235517
235499
235480
235589
235580
235570
235558
235545
235531
235516
235501
235484
235468
235450
235433
235540
235530
235519
235507
235494
235480
235465
235450
235434
235418
235401
235384
235491
235479
235468
235456
235443
235429
235414
235399
235383
235367
235351
235334
235441
235428
235416
235404
235391
235377
235363
235347
235332
235316
235300
235285
235392
235377
235365
235352
235339
235325
235311
235296
235280
235265
235250
235235
235342
235325
235313
235300
235287
235273
235259
235244
235229
235213
235198
235185
235294
235276
235263
235250
235236
235221
235207
235192
235177
235162
235147
235135
235240
235225
235210
235197
235183
235169
235155
235141
235126
235112
235098
235085
242911
242971
243037
243103
243168
243235
242907
242990
243073
243159
243244
243332
242922
243018
243118
243221
243324
243430
242932
243040
243154
243273
243394
243518
242749
242818
242880
242943
243002
243061
242729
242815
242900
242983
243061
243137
242731
242833
242933
243032
243127
243220
242733
242848
242963
243079
243192
243303
242737
242864
242993
243124
243253
243379
242742
242878
243018
243161
243303
243443
242749
242892
243040
243191
243341
243491
242582
242654
242713
242770
242826
242879
242548
242631
242710
242788
242857
242919
242543
242638
242729
242818
242899
242971
242535
242645
242750
242852
242947
243032
242532
242655
242774
242890
242999
243100
242532
242666
242797
242926
243049
243165
242536
242677
242819
242959
243093
243223
242541
242688
242836
242983
243127
243267
242550
242699
242849
242999
243148
243294
242561
242709
242856
243006
243155
243302
242575
242716
242857
243002
243146
243290
242591
242723
242853
242988
243121
243255
242609
242725
242838
242961
243079
243200
242641
242744
242842
242940
243035
243131
242393
242460
242513
242566
242614
242663
242355
242431
242501
242565
242623
242675
242345
242428
242508
242579
242642
242696
242335
242429
242518
242597
242666
242725
242331
242435
242534
242623
242701
242769
242330
242443
242552
242653
242743
242823
242333
242454
242573
242685
242788
242882
242339
242466
242592
242715
242830
242938
242347
242478
242609
242738
242863
242981
242359
242490
242622
242753
242882
243004
242373
242500
242627
242756
242882
243005
242389
242509
242627
242747
242866
242984
242407
242513
242616
242725
242831
242937
242439
242532
242621
242708
242791
242876
242139
242187
242228
242269
242306
242342
242117
242174
242225
242273
242314
242352
242116
242178
242234
242283
242325
242361
242112
242181
242241
242293
242336
242370
242113
242188
242253
242309
242353
242389
242115
242196
242268
242329
242379
242420
242121
242208
242287
242356
242414
242462
242130
242221
242308
242385
242453
242511
242142
242236
242329
242413
242491
242559
242155
242251
242346
242436
242521
242597
242170
242265
242358
242449
242538
242618
242188
242278
242366
242453
242538
242618
242206
242288
242364
242445
242522
242598
242234
242306
242372
242437
242498
242559
241757
241767
241783
241799
241814
241829
241772
241791
241810
241830
241849
241866
241790
241814
241836
241856
241875
241889
241804
241832
241856
241876
241892
241900
241818
241850
241875
241893
241904
241907
241832
241866
241892
241909
241917
241917
241848
241884
241912
241928
241936
241934
241864
241902
241933
241951
241961
241962
241882
241921
241956
241978
241992
241997
241899
241940
241979
242005
242026
242037
241917
241960
242002
242032
242059
242076
241937
241980
242022
242054
242084
242105
241953
241994
242034
242069
242100
242126
241975
242013
242047
242081
242111
242137
241172
241145
241127
241101
241080
241058
241229
241205
241190
241170
241154
241136
241273
241255
241240
241220
241205
241188
241315
241299
241283
241262
241243
241221
241351
241334
241316
241290
241266
241237
241385
241367
241345
241314
241281
241243
241416
241396
241370
241334
241292
241243
241444
241423
241394
241354
241305
241249
241471
241450
241419
241377
241325
241266
241496
241475
241445
241405
241355
241297
241522
241503
241477
241441
241397
241346
241547
241530
241510
241481
241447
241406
241572
241559
241547
241527
241505
241475
241597
241594
241587
241575
241561
241546
240355
240281
240225
240160
240102
240041
240449
240377
240320
240256
240201
240145
240516
240447
240391
240330
240279
240227
240584
240516
240458
240396
240342
240289
240643
240573
240511
240446
240386
240327
240696
240625
240557
240484
240415
240346
240742
240669
240594
240514
240433
240352
240784
240710
240628
240540
240447
240352
240823
240748
240661
240568
240466
240362
240857
240784
240697
240603
240499
240391
240891
240823
240741
240651
240552
240448
240922
240863