/*--------------------------------*- C++ -*----------------------------------*\
| =========                 |                                                 |
| \\      /  F ield         | OpenFOAM: The Open Source CFD Toolbox           |
|  \\    /   O peration     | Version:  v2106                                 |
|   \\  /    A nd           | Website:  www.openfoam.com                      |
|    \\/     M anipulation  |                                                 |
\*---------------------------------------------------------------------------*/
FoamFile
{
    version     2.0;
    format      ascii;
    arch        "LSB;label=32;scalar=64";
    class       volScalarField;
    location    "0.000198";
    object      Ttot;
}
// * * * * * * * * * * * * * * * * * * * * * * * * * * * * * * * * * * * * * //

dimensions      [0 0 0 1 0 0 0];

internalField   nonuniform List<scalar> 
17924
(
308.982
308.983
308.985
308.988
308.919
308.912
308.908
308.906
308.905
308.906
308.909
308.882
308.878
308.873
308.869
308.868
308.869
308.871
308.849
308.844
308.838
308.834
308.833
308.834
308.835
308.817
308.812
308.805
308.802
308.801
308.801
308.803
308.787
308.781
308.775
308.772
308.771
308.771
308.773
308.758
308.752
308.747
308.744
308.743
308.743
308.746
308.731
308.724
308.72
308.717
308.717
308.718
308.721
308.703
308.697
308.693
308.692
308.692
308.694
308.698
308.676
308.67
308.668
308.667
308.669
308.672
308.677
308.649
308.644
308.643
308.644
308.647
308.652
308.659
308.622
308.618
308.618
308.621
308.626
308.633
308.642
308.594
308.591
308.594
308.599
308.607
308.616
308.627
308.566
308.564
308.57
308.578
308.588
308.599
308.612
308.537
308.538
308.548
308.558
308.57
308.584
308.598
308.854
308.842
308.833
308.828
308.824
308.822
308.822
308.823
308.827
308.832
308.84
308.848
308.861
308.872
308.818
308.809
308.799
308.792
308.787
308.784
308.783
308.784
308.786
308.79
308.797
308.805
308.817
308.824
308.785
308.776
308.765
308.757
308.751
308.748
308.745
308.745
308.746
308.75
308.756
308.763
308.774
308.781
308.753
308.743
308.732
308.724
308.718
308.713
308.71
308.709
308.709
308.712
308.717
308.723
308.734
308.741
308.723
308.712
308.701
308.693
308.686
308.68
308.676
308.674
308.674
308.676
308.681
308.687
308.697
308.705
308.694
308.683
308.672
308.663
308.656
308.65
308.646
308.643
308.643
308.644
308.649
308.655
308.664
308.673
308.666
308.655
308.644
308.636
308.628
308.622
308.618
308.616
308.615
308.616
308.621
308.626
308.635
308.644
308.638
308.628
308.618
308.61
308.603
308.598
308.594
308.592
308.591
308.593
308.596
308.603
308.61
308.62
308.612
308.602
308.594
308.586
308.581
308.576
308.573
308.572
308.572
308.574
308.578
308.584
308.591
308.6
308.586
308.578
308.571
308.566
308.561
308.558
308.556
308.555
308.556
308.559
308.563
308.57
308.576
308.585
308.563
308.556
308.551
308.547
308.545
308.543
308.543
308.543
308.545
308.548
308.554
308.56
308.567
308.575
308.542
308.536
308.534
308.532
308.531
308.531
308.532
308.534
308.537
308.541
308.547
308.554
308.561
308.569
308.522
308.517
308.518
308.519
308.52
308.522
308.525
308.528
308.533
308.538
308.544
308.551
308.557
308.563
308.503
308.502
308.506
308.508
308.512
308.516
308.521
308.526
308.531
308.536
308.543
308.549
308.555
308.561
308.78
308.767
308.758
308.752
308.748
308.746
308.745
308.746
308.749
308.754
308.761
308.769
308.781
308.792
308.747
308.737
308.727
308.721
308.716
308.712
308.711
308.71
308.712
308.716
308.722
308.728
308.739
308.746
308.716
308.707
308.696
308.689
308.683
308.679
308.676
308.675
308.675
308.678
308.683
308.689
308.699
308.705
308.685
308.676
308.666
308.659
308.652
308.647
308.643
308.641
308.641
308.643
308.647
308.652
308.661
308.666
308.656
308.647
308.637
308.629
308.622
308.616
308.612
308.609
308.608
308.609
308.613
308.618
308.627
308.633
308.628
308.619
308.609
308.601
308.593
308.587
308.582
308.579
308.578
308.578
308.581
308.586
308.594
308.601
308.6
308.592
308.582
308.574
308.567
308.561
308.556
308.552
308.55
308.55
308.552
308.557
308.564
308.572
308.574
308.566
308.558
308.55
308.543
308.537
308.531
308.527
308.525
308.524
308.526
308.53
308.536
308.545
308.55
308.542
308.535
308.528
308.521
308.515
308.51
308.506
308.503
308.502
308.503
308.507
308.512
308.521
308.528
308.522
308.516
308.509
308.503
308.498
308.493
308.488
308.485
308.483
308.484
308.487
308.491
308.5
308.509
308.504
308.499
308.494
308.489
308.483
308.479
308.474
308.471
308.469
308.469
308.471
308.475
308.482
308.495
308.49
308.486
308.482
308.477
308.473
308.469
308.465
308.461
308.459
308.458
308.46
308.462
308.468
308.481
308.478
308.477
308.473
308.47
308.466
308.463
308.459
308.456
308.454
308.453
308.453
308.454
308.458
308.474
308.472
308.471
308.469
308.467
308.463
308.46
308.456
308.453
308.45
308.449
308.447
308.447
308.45
308.682
308.678
308.673
308.671
308.669
308.669
308.67
308.672
308.676
308.681
308.687
308.696
308.706
308.717
308.654
308.652
308.648
308.645
308.643
308.643
308.644
308.645
308.648
308.652
308.658
308.665
308.673
308.68
308.628
308.627
308.623
308.62
308.617
308.616
308.616
308.617
308.619
308.623
308.628
308.634
308.643
308.648
308.602
308.601
308.597
308.594
308.592
308.59
308.59
308.59
308.592
308.595
308.6
308.605
308.613
308.618
308.577
308.576
308.572
308.569
308.567
308.565
308.564
308.564
308.565
308.568
308.572
308.578
308.585
308.591
308.552
308.551
308.548
308.546
308.543
308.541
308.54
308.539
308.54
308.542
308.546
308.551
308.558
308.566
308.529
308.528
308.526
308.523
308.521
308.518
308.517
308.516
308.516
308.518
308.521
308.526
308.532
308.54
308.508
308.507
308.505
308.503
308.5
308.498
308.496
308.494
308.494
308.495
308.497
308.502
308.508
308.517
308.489
308.487
308.486
308.484
308.482
308.479
308.477
308.474
308.474
308.474
308.476
308.48
308.486
308.495
308.473
308.471
308.471
308.469
308.466
308.463
308.46
308.457
308.456
308.455
308.457
308.46
308.466
308.474
308.46
308.459
308.458
308.456
308.453
308.45
308.446
308.443
308.44
308.439
308.44
308.443
308.447
308.455
308.45
308.449
308.449
308.447
308.444
308.44
308.436
308.432
308.428
308.426
308.425
308.426
308.429
308.436
308.444
308.443
308.443
308.441
308.438
308.434
308.428
308.423
308.418
308.415
308.413
308.412
308.414
308.419
308.444
308.443
308.442
308.439
308.435
308.431
308.424
308.418
308.411
308.405
308.401
308.398
308.398
308.4
308.54
308.547
308.552
308.559
308.564
308.569
308.574
308.579
308.586
308.592
308.6
308.608
308.616
308.624
308.521
308.53
308.536
308.543
308.548
308.554
308.56
308.565
308.572
308.578
308.586
308.593
308.601
308.607
308.503
308.513
308.52
308.527
308.532
308.537
308.543
308.548
308.554
308.561
308.568
308.575
308.584
308.59
308.486
308.497
308.504
308.511
308.516
308.522
308.527
308.532
308.537
308.543
308.55
308.557
308.566
308.572
308.47
308.481
308.488
308.494
308.5
308.505
308.509
308.514
308.52
308.525
308.532
308.539
308.547
308.554
308.454
308.464
308.471
308.478
308.484
308.488
308.493
308.497
308.502
308.507
308.513
308.52
308.528
308.535
308.439
308.449
308.456
308.463
308.468
308.472
308.476
308.48
308.484
308.489
308.495
308.501
308.508
308.516
308.426
308.435
308.442
308.448
308.453
308.457
308.46
308.464
308.468
308.472
308.477
308.483
308.489
308.498
308.414
308.423
308.43
308.435
308.44
308.443
308.446
308.448
308.451
308.455
308.459
308.465
308.471
308.48
308.406
308.413
308.42
308.425
308.428
308.431
308.433
308.434
308.437
308.439
308.443
308.448
308.454
308.462
308.4
308.407
308.412
308.416
308.419
308.42
308.421
308.421
308.422
308.424
308.427
308.432
308.437
308.445
308.397
308.402
308.407
308.41
308.411
308.411
308.411
308.41
308.41
308.41
308.412
308.415
308.419
308.427
308.396
308.4
308.404
308.406
308.405
308.404
308.402
308.399
308.398
308.397
308.398
308.4
308.403
308.409
308.4
308.403
308.404
308.404
308.402
308.399
308.395
308.391
308.387
308.384
308.383
308.383
308.384
308.387
308.324
308.345
308.363
308.381
308.396
308.409
308.42
308.43
308.44
308.45
308.46
308.469
308.478
308.487
308.321
308.342
308.36
308.378
308.393
308.408
308.421
308.432
308.444
308.454
308.464
308.473
308.483
308.491
308.316
308.338
308.358
308.376
308.392
308.406
308.419
308.431
308.442
308.452
308.462
308.472
308.481
308.49
308.312
308.334
308.354
308.372
308.389
308.403
308.416
308.428
308.439
308.45
308.46
308.47
308.48
308.489
308.309
308.331
308.352
308.369
308.385
308.399
308.412
308.423
308.434
308.445
308.455
308.465
308.474
308.484
308.305
308.327
308.347
308.364
308.38
308.393
308.406
308.418
308.429
308.439
308.449
308.458
308.468
308.477
308.302
308.324
308.343
308.359
308.374
308.388
308.4
308.411
308.421
308.431
308.44
308.449
308.458
308.467
308.3
308.32
308.339
308.355
308.369
308.382
308.393
308.403
308.413
308.422
308.431
308.44
308.448
308.457
308.299
308.318
308.335
308.351
308.364
308.375
308.385
308.395
308.403
308.412
308.42
308.428
308.436
308.446
308.3
308.317
308.333
308.347
308.358
308.369
308.377
308.386
308.393
308.401
308.408
308.416
308.424
308.433
308.302
308.318
308.331
308.343
308.353
308.362
308.369
308.376
308.382
308.389
308.396
308.403
308.41
308.419
308.305
308.318
308.33
308.34
308.348
308.355
308.361
308.366
308.372
308.377
308.382
308.389
308.395
308.404
308.308
308.32
308.329
308.337
308.343
308.348
308.352
308.355
308.359
308.363
308.368
308.374
308.379
308.388
308.314
308.323
308.329
308.334
308.338
308.341
308.343
308.345
308.347
308.349
308.352
308.356
308.361
308.367
308.021
308.053
308.083
308.109
308.133
308.154
308.173
308.189
308.204
308.218
308.231
308.242
308.254
308.267
308.032
308.062
308.093
308.12
308.146
308.168
308.189
308.207
308.224
308.239
308.253
308.266
308.278
308.291
308.045
308.076
308.108
308.135
308.161
308.184
308.205
308.223
308.24
308.256
308.271
308.283
308.295
308.309
308.056
308.087
308.119
308.146
308.173
308.196
308.218
308.237
308.255
308.271
308.287
308.3
308.313
308.326
308.069
308.1
308.131
308.158
308.184
308.207
308.229
308.248
308.266
308.282
308.298
308.311
308.325
308.337
308.081
308.111
308.141
308.168
308.193
308.216
308.238
308.257
308.275
308.292
308.307
308.321
308.334
308.347
308.093
308.123
308.151
308.178
308.202
308.224
308.245
308.264
308.281
308.297
308.312
308.326
308.339
308.351
308.104
308.133
308.16
308.185
308.208
308.23
308.25
308.268
308.285
308.301
308.315
308.329
308.341
308.354
308.115
308.143
308.168
308.192
308.214
308.234
308.252
308.27
308.285
308.301
308.315
308.328
308.341
308.354
308.126
308.152
308.175
308.197
308.217
308.236
308.253
308.27
308.285
308.299
308.313
308.326
308.338
308.352
308.137
308.16
308.18
308.2
308.218
308.236
308.252
308.267
308.281
308.295
308.308
308.321
308.333
308.347
308.146
308.167
308.184
308.202
308.218
308.234
308.249
308.263
308.276
308.289
308.301
308.314
308.326
308.34
308.154
308.172
308.187
308.203
308.217
308.231
308.243
308.256
308.267
308.28
308.292
308.304
308.316
308.33
308.162
308.178
308.189
308.203
308.214
308.226
308.237
308.248
308.259
308.269
308.281
308.292
308.304
308.317
307.654
307.688
307.722
307.753
307.782
307.808
307.832
307.854
307.874
307.892
307.909
307.924
307.94
307.955
307.678
307.71
307.745
307.777
307.808
307.836
307.862
307.886
307.907
307.927
307.945
307.963
307.979
307.998
307.707
307.739
307.775
307.807
307.838
307.866
307.892
307.916
307.938
307.958
307.978
307.996
308.013
308.032
307.735
307.766
307.801
307.833
307.864
307.893
307.92
307.945
307.968
307.989
308.009
308.028
308.046
308.065
307.762
307.794
307.829
307.86
307.891
307.919
307.946
307.971
307.995
308.016
308.037
308.056
308.075
308.093
307.79
307.821
307.854
307.885
307.915
307.943
307.971
307.996
308.019
308.042
308.063
308.083
308.102
308.12
307.816
307.847
307.878
307.909
307.938
307.966
307.992
308.017
308.041
308.063
308.084
308.105
308.124
308.142
307.841
307.871
307.901
307.93
307.958
307.986
308.012
308.037
308.06
308.083
308.104
308.124
308.144
308.162
307.864
307.893
307.921
307.949
307.977
308.003
308.028
308.053
308.076
308.098
308.119
308.14
308.16
308.179
307.887
307.914
307.94
307.967
307.993
308.018
308.043
308.066
308.089
308.111
308.133
308.153
308.173
308.193
307.907
307.933
307.957
307.982
308.006
308.031
308.054
308.077
308.1
308.121
308.143
308.164
308.185
308.206
307.925
307.949
307.971
307.994
308.017
308.041
308.063
308.086
308.108
308.13
308.151
308.173
308.194
308.215
307.941
307.963
307.982
308.005
308.026
308.049
308.07
308.092
308.114
308.135
308.157
308.179
308.2
308.222
307.955
307.975
307.992
308.012
308.032
308.054
308.075
308.096
308.118
308.14
308.161
308.183
308.204
308.228
307.294
307.32
307.349
307.376
307.403
307.429
307.454
307.477
307.5
307.521
307.541
307.561
307.58
307.599
307.331
307.354
307.384
307.412
307.44
307.466
307.492
307.517
307.54
307.563
307.585
307.606
307.626
307.649
307.371
307.394
307.424
307.451
307.479
307.505
307.531
307.556
307.58
307.603
307.625
307.647
307.668
307.691
307.41
307.433
307.462
307.489
307.517
307.543
307.57
307.595
307.62
307.644
307.668
307.691
307.712
307.736
307.449
307.473
307.501
307.527
307.555
307.581
307.608
307.634
307.659
307.684
307.708
307.732
307.754
307.777
307.488
307.512
307.539
307.565
307.592
307.619
307.645
307.672
307.698
307.723
307.748
307.772
307.795
307.818
307.525
307.549
307.575
307.601
307.628
307.655
307.681
307.708
307.735
307.76
307.786
307.81
307.834
307.857
307.562
307.586
307.611
307.636
307.663
307.689
307.716
307.743
307.77
307.797
307.822
307.848
307.872
307.895
307.596
307.619
307.644
307.669
307.695
307.722
307.75
307.777
307.804
307.831
307.857
307.882
307.908
307.931
307.629
307.653
307.676
307.701
307.727
307.754
307.781
307.809
307.836
307.863
307.89
307.915
307.942
307.965
307.66
307.683
307.705
307.73
307.756
307.783
307.81
307.838
307.866
307.893
307.92
307.947
307.974
307.997
307.69
307.712
307.734
307.759
307.784
307.811
307.838
307.866
307.893
307.921
307.948
307.975
308.003
308.028
307.716
307.738
307.759
307.784
307.809
307.836
307.863
307.891
307.92
307.948
307.976
308.004
308.032
308.058
307.741
307.763
307.783
307.808
307.833
307.859
307.887
307.915
307.943
307.971
307.999
308.028
308.057
308.086
307.03
307.039
307.055
307.071
307.089
307.108
307.127
307.147
307.167
307.187
307.207
307.227
307.246
307.265
307.073
307.08
307.096
307.111
307.129
307.148
307.168
307.188
307.209
307.23
307.25
307.271
307.291
307.313
307.115
307.123
307.139
307.154
307.171
307.19
307.21
307.23
307.251
307.272
307.293
307.314
307.334
307.357
307.158
307.167
307.182
307.197
307.215
307.234
307.254
307.275
307.296
307.317
307.338
307.36
307.381
307.404
307.2
307.211
307.225
307.241
307.259
307.278
307.298
307.319
307.341
307.363
307.384
307.407
307.428
307.451
307.243
307.254
307.269
307.285
307.303
307.323
307.344
307.365
307.387
307.41
307.432
307.455
307.477
307.499
307.285
307.297
307.312
307.329
307.348
307.368
307.389
307.411
307.434
307.457
307.48
307.503
307.525
307.547
307.327
307.34
307.355
307.373
307.392
307.413
307.435
307.457
307.48
307.504
307.528
307.551
307.575
307.597
307.367
307.382
307.398
307.416
307.436
307.457
307.48
307.503
307.527
307.551
307.575
307.599
307.624
307.645
307.407
307.423
307.439
307.459
307.479
307.501
307.524
307.548
307.573
307.597
307.623
307.647
307.672
307.693
307.446
307.462
307.479
307.499
307.521
307.544
307.567
307.592
307.618
307.643
307.669
307.694
307.72
307.741
307.484
307.502
307.519
307.54
307.562
307.586
307.61
307.635
307.661
307.687
307.713
307.739
307.767
307.788
307.518
307.537
307.555
307.577
307.6
307.625
307.651
307.677
307.704
307.731
307.758
307.785
307.813
307.835
307.554
307.573
307.593
307.615
307.639
307.664
307.69
307.717
307.744
307.771
307.798
307.825
307.853
307.879
306.883
306.88
306.883
306.888
306.895
306.904
306.914
306.926
306.938
306.952
306.966
306.981
306.995
307.01
306.924
306.918
306.921
306.926
306.932
306.941
306.951
306.963
306.975
306.989
307.003
307.018
307.033
307.049
306.961
306.956
306.959
306.965
306.972
306.98
306.99
307.001
307.014
307.027
307.041
307.056
307.07
307.087
307
306.996
307
307.005
307.012
307.021
307.031
307.042
307.055
307.068
307.082
307.097
307.112
307.129
307.038
307.037
307.04
307.046
307.054
307.063
307.073
307.085
307.097
307.111
307.125
307.14
307.155
307.171
307.077
307.078
307.082
307.089
307.096
307.106
307.116
307.129
307.142
307.156
307.17
307.185
307.201
307.217
307.116
307.119
307.124
307.131
307.14
307.15
307.161
307.174
307.187
307.202
307.217
307.232
307.248
307.263
307.156
307.161
307.167
307.175
307.184
307.195
307.207
307.22
307.234
307.249
307.265
307.28
307.297
307.312
307.196
307.202
307.209
307.218
307.228
307.24
307.253
307.267
307.282
307.297
307.313
307.329
307.346
307.36
307.235
307.243
307.251
307.261
307.273
307.286
307.3
307.315
307.33
307.346
307.363
307.379
307.397
307.411
307.274
307.283
307.292
307.304
307.317
307.331
307.347
307.363
307.379
307.395
307.412
307.429
307.448
307.461
307.314
307.324
307.334
307.348
307.362
307.377
307.394
307.41
307.427
307.444
307.462
307.48
307.5
307.512
307.351
307.362
307.375
307.389
307.405
307.422
307.44
307.458
307.476
307.494
307.512
307.531
307.551
307.564
307.391
307.403
307.417
307.433
307.45
307.467
307.486
307.504
307.523
307.542
307.561
307.58
307.6
307.616
306.823
306.815
306.809
306.806
306.805
306.805
306.806
306.809
306.813
306.819
306.825
306.832
306.84
306.848
306.854
306.844
306.839
306.835
306.834
306.834
306.835
306.838
306.842
306.847
306.853
306.86
306.866
306.875
306.882
306.874
306.869
306.866
306.864
306.864
306.865
306.868
306.871
306.876
306.881
306.888
306.894
306.902
306.913
306.905
306.901
306.898
306.896
306.896
306.897
306.899
306.903
306.907
306.912
306.918
306.924
306.933
306.943
306.936
306.933
306.93
306.929
306.929
306.93
306.932
306.936
306.94
306.945
306.95
306.956
306.964
306.974
306.969
306.966
306.964
306.963
306.963
306.964
306.967
306.97
306.974
306.979
306.985
306.991
306.998
307.005
307.001
306.999
306.998
306.997
306.998
307
307.003
307.006
307.01
307.015
307.021
307.027
307.033
307.037
307.035
307.033
307.033
307.033
307.034
307.037
307.04
307.044
307.048
307.053
307.059
307.066
307.071
307.068
307.069
307.068
307.069
307.07
307.072
307.075
307.078
307.083
307.087
307.093
307.099
307.106
307.11
307.101
307.103
307.103
307.105
307.107
307.11
307.114
307.118
307.123
307.128
307.135
307.141
307.148
307.151
307.134
307.138
307.139
307.142
307.146
307.15
307.154
307.159
307.164
307.17
307.177
307.183
307.191
307.192
307.168
307.173
307.176
307.18
307.184
307.189
307.195
307.201
307.207
307.214
307.221
307.228
307.236
307.237
307.203
307.209
307.213
307.218
307.224
307.23
307.237
307.243
307.25
307.258
307.265
307.272
307.281
307.282
307.241
307.246
307.251
307.257
307.264
307.271
307.279
307.286
307.294
307.302
307.31
307.317
307.326
307.331
306.807
306.796
306.787
306.779
306.773
306.767
306.763
306.759
306.756
306.755
306.753
306.753
306.753
306.754
306.827
306.816
306.807
306.799
306.792
306.786
306.781
306.777
306.774
306.772
306.77
306.769
306.768
306.771
306.846
306.835
306.826
306.818
306.812
306.806
306.801
306.797
306.793
306.791
306.788
306.787
306.785
306.787
306.866
306.855
306.847
306.839
306.833
306.827
306.822
306.817
306.814
306.811
306.808
306.806
306.804
306.805
306.886
306.876
306.869
306.861
306.854
306.848
306.843
306.839
306.835
306.832
306.829
306.826
306.824
306.824
306.907
306.898
306.891
306.884
306.877
306.871
306.866
306.861
306.857
306.854
306.851
306.848
306.846
306.844
306.928
306.92
306.914
306.907
306.901
306.895
306.89
306.885
306.881
306.877
306.874
306.871
306.869
306.866
306.95
306.944
306.937
306.931
306.925
306.92
306.914
306.91
306.906
306.902
306.899
306.896
306.893
306.89
306.973
306.968
306.962
306.956
306.95
306.945
306.94
306.936
306.932
306.928
306.925
306.921
306.919
306.915
306.996
306.992
306.987
306.982
306.977
306.972
306.968
306.963
306.959
306.955
306.952
306.948
306.946
306.942
307.02
307.018
307.013
307.009
307.004
307
306.996
306.992
306.988
306.984
306.98
306.976
306.974
306.97
307.046
307.044
307.04
307.037
307.033
307.029
307.025
307.022
307.018
307.014
307.01
307.006
307.005
307
307.072
307.072
307.068
307.065
307.062
307.059
307.056
307.052
307.049
307.045
307.041
307.037
307.036
307.031
307.103
307.099
307.096
307.094
307.092
307.089
307.087
307.084
307.081
307.077
307.074
307.071
307.07
307.066
306.803
306.791
306.78
306.77
306.761
306.752
306.744
306.737
306.73
306.722
306.716
306.71
306.704
306.699
306.814
306.802
306.792
306.782
306.772
306.763
306.755
306.746
306.739
306.731
306.724
306.717
306.711
306.706
306.823
306.812
306.802
306.792
306.782
306.773
306.765
306.756
306.748
306.741
306.733
306.726
306.72
306.714
306.834
306.823
306.813
306.803
306.793
306.784
306.775
306.767
306.759
306.751
306.743
306.736
306.728
306.722
306.845
306.834
306.824
306.814
306.805
306.796
306.787
306.778
306.77
306.761
306.753
306.746
306.738
306.73
306.856
306.846
306.836
306.827
306.817
306.808
306.799
306.79
306.781
306.772
306.764
306.756
306.748
306.74
306.868
306.859
306.849
306.84
306.83
306.821
306.811
306.802
306.793
306.784
306.776
306.767
306.758
306.75
306.881
306.872
306.863
306.853
306.844
306.834
306.825
306.815
306.806
306.797
306.788
306.778
306.769
306.761
306.894
306.886
306.877
306.867
306.858
306.848
306.838
306.829
306.819
306.81
306.8
306.791
306.782
306.772
306.908
306.9
306.891
306.882
306.872
306.863
306.853
306.843
306.833
306.823
306.814
306.804
306.794
306.784
306.921
306.914
306.905
306.897
306.887
306.878
306.868
306.858
306.848
306.838
306.828
306.817
306.807
306.796
306.935
306.929
306.92
306.912
306.903
306.893
306.883
306.873
306.863
306.852
306.842
306.831
306.821
306.809
306.951
306.945
306.937
306.928
306.919
306.909
306.899
306.889
306.879
306.868
306.857
306.845
306.835
306.823
306.968
306.96
306.952
306.944
306.935
306.926
306.916
306.906
306.895
306.884
306.874
306.862
306.851
306.84
306.792
306.78
306.77
306.759
306.748
306.738
306.727
306.716
306.706
306.696
306.686
306.676
306.666
306.656
306.795
306.783
306.773
306.762
306.752
306.741
306.73
306.719
306.708
306.697
306.687
306.676
306.666
306.656
306.797
306.786
306.776
306.765
306.754
306.743
306.733
306.721
306.711
306.699
306.689
306.677
306.667
306.656
306.8
306.789
306.779
306.768
306.757
306.746
306.735
306.724
306.713
306.701
306.69
306.679
306.668
306.657
306.802
306.792
306.782
306.771
306.76
306.749
306.738
306.726
306.715
306.703
306.692
306.68
306.668
306.657
306.805
306.795
306.784
306.774
306.763
306.751
306.74
306.728
306.717
306.705
306.693
306.681
306.669
306.657
306.808
306.798
306.788
306.777
306.765
306.754
306.742
306.731
306.719
306.706
306.694
306.681
306.669
306.656
306.811
306.801
306.791
306.78
306.768
306.757
306.745
306.732
306.72
306.708
306.695
306.682
306.669
306.656
306.814
306.805
306.794
306.783
306.771
306.759
306.747
306.734
306.722
306.709
306.695
306.682
306.669
306.656
306.817
306.808
306.797
306.785
306.774
306.761
306.749
306.736
306.723
306.71
306.696
306.683
306.668
306.655
306.82
306.811
306.8
306.788
306.776
306.764
306.751
306.738
306.724
306.71
306.696
306.682
306.668
306.654
306.823
306.813
306.802
306.791
306.779
306.766
306.753
306.739
306.725
306.711
306.697
306.682
306.667
306.653
306.827
306.816
306.805
306.794
306.781
306.768
306.755
306.741
306.727
306.712
306.697
306.682
306.667
306.651
306.829
306.819
306.808
306.796
306.783
306.77
306.756
306.743
306.728
306.714
306.699
306.684
306.669
306.653
306.756
306.746
306.736
306.725
306.713
306.701
306.689
306.676
306.664
306.65
306.638
306.624
306.612
306.598
306.752
306.741
306.731
306.72
306.709
306.697
306.685
306.672
306.659
306.646
306.633
306.619
306.607
306.593
306.746
306.736
306.726
306.715
306.704
306.692
306.68
306.667
306.654
306.64
306.627
306.613
306.6
306.587
306.74
306.731
306.72
306.71
306.698
306.686
306.674
306.661
306.648
306.635
306.621
306.607
306.594
306.58
306.734
306.725
306.715
306.704
306.692
306.681
306.668
306.655
306.642
306.628
306.614
306.6
306.587
306.572
306.728
306.719
306.708
306.697
306.686
306.674
306.661
306.648
306.635
306.621
306.607
306.593
306.579
306.564
306.722
306.713
306.702
306.691
306.679
306.667
306.654
306.641
306.627
306.613
306.599
306.584
306.57
306.555
306.715
306.706
306.695
306.684
306.672
306.659
306.646
306.633
306.619
306.605
306.59
306.576
306.561
306.546
306.709
306.699
306.688
306.676
306.664
306.651
306.638
306.624
306.61
306.596
306.581
306.566
306.55
306.536
306.701
306.691
306.68
306.668
306.655
306.642
306.629
306.615
306.6
306.586
306.571
306.556
306.54
306.525
306.694
306.683
306.672
306.66
306.647
306.633
306.619
306.605
306.59
306.575
306.559
306.544
306.528
306.514
306.686
306.675
306.663
306.65
306.637
306.624
306.609
306.595
306.58
306.565
306.549
306.533
306.516
306.502
306.678
306.666
306.654
306.641
306.628
306.614
306.599
306.584
306.568
306.552
306.536
306.521
306.504
306.49
306.67
306.657
306.645
306.631
306.617
306.603
306.588
306.573
306.557
306.542
306.526
306.51
306.494
306.479
306.664
306.654
306.645
306.635
306.624
306.612
306.6
306.587
306.574
306.56
306.546
306.531
306.518
306.502
306.651
306.643
306.633
306.623
306.613
306.601
306.589
306.576
306.562
306.548
306.534
306.52
306.506
306.491
306.638
306.63
306.621
306.611
306.6
306.589
306.577
306.564
306.55
306.536
306.523
306.508
306.494
306.479
306.625
306.617
306.608
306.598
306.587
306.576
306.563
306.551
306.537
306.523
306.509
306.495
306.481
306.466
306.611
306.604
306.594
306.584
306.573
306.562
306.55
306.537
306.524
306.51
306.496
306.481
306.467
306.453
306.597
306.589
306.58
306.57
306.559
306.547
306.535
306.522
306.509
306.495
306.481
306.467
306.453
306.438
306.583
306.575
306.565
306.555
306.544
306.532
306.52
306.507
306.493
306.48
306.466
306.451
306.437
306.423
306.568
306.559
306.549
306.539
306.528
306.516
306.504
306.491
306.477
306.463
306.449
306.435
306.421
306.406
306.553
306.544
306.534
306.523
306.512
306.5
306.487
306.474
306.46
306.446
306.432
306.418
306.403
306.39
306.537
306.527
306.517
306.506
306.494
306.482
306.469
306.456
306.443
306.429
306.414
306.4
306.385
306.372
306.522
306.511
306.501
306.489
306.477
306.465
306.451
306.438
306.424
306.41
306.395
306.381
306.366
306.354
306.505
306.493
306.483
306.471
306.459
306.446
306.433
306.419
306.405
306.391
306.377
306.363
306.347
306.336
306.49
306.477
306.466
306.453
306.441
306.428
306.414
306.4
306.386
306.371
306.356
306.342
306.327
306.316
306.472
306.458
306.447
306.434
306.421
306.408
306.394
306.381
306.366
306.352
306.338
306.324
306.31
306.298
306.484
306.477
306.469
306.462
306.453
306.444
306.434
306.424
306.412
306.4
306.388
306.375
306.363
306.349
306.466
306.461
306.453
306.445
306.437
306.428
306.418
306.407
306.396
306.384
306.372
306.359
306.347
306.333
306.448
306.444
306.436
306.428
306.419
306.41
306.4
306.39
306.379
306.367
306.355
306.343
306.331
306.318
306.431
306.426
306.418
306.41
306.402
306.392
306.383
306.372
306.361
306.349
306.338
306.325
306.314
306.301
306.413
306.407
306.4
306.392
306.383
306.374
306.364
306.353
306.343
306.331
306.32
306.308
306.296
306.284
306.394
306.388
306.381
306.373
306.364
306.355
306.345
306.334
306.323
306.312
306.301
306.289
306.277
306.265
306.375
306.369
306.361
306.353
306.344
306.335
306.325
306.314
306.304
306.292
306.281
306.27
306.258
306.247
306.355
306.348
306.341
306.333
306.324
306.314
306.304
306.294
306.283
306.272
306.261
306.25
306.238
306.227
306.336
306.328
306.32
306.312
306.303
306.293
306.283
306.273
306.262
306.251
306.24
306.229
306.218
306.208
306.315
306.307
306.299
306.29
306.281
306.272
306.262
306.252
306.241
306.23
306.219
306.208
306.197
306.187
306.296
306.286
306.278
306.269
306.26
306.25
306.24
306.23
306.219
306.208
306.197
306.187
306.175
306.167
306.275
306.265
306.256
306.247
306.238
306.228
306.218
306.208
306.197
306.186
306.175
306.165
306.154
306.146
306.255
306.245
306.236
306.226
306.216
306.206
306.196
306.185
306.175
306.164
306.153
306.143
306.132
306.125
306.233
306.223
306.213
306.204
306.194
306.184
306.173
306.163
306.153
306.142
306.132
306.122
306.111
306.104
306.211
306.208
306.204
306.2
306.195
306.19
306.184
306.178
306.172
306.164
306.157
306.149
306.192
306.191
306.187
306.183
306.178
306.173
306.167
306.161
306.154
306.147
306.139
306.131
306.175
306.174
306.169
306.165
306.161
306.155
306.149
306.143
306.137
306.13
306.122
306.114
306.157
306.155
306.151
306.147
306.142
306.137
306.131
306.125
306.118
306.111
306.104
306.097
306.139
306.137
306.133
306.129
306.124
306.118
306.112
306.106
306.1
306.093
306.086
306.079
306.121
306.118
306.114
306.109
306.105
306.099
306.093
306.087
306.081
306.074
306.068
306.06
306.102
306.099
306.095
306.09
306.085
306.08
306.074
306.068
306.062
306.055
306.049
306.042
306.083
306.079
306.075
306.07
306.065
306.06
306.054
306.048
306.042
306.036
306.029
306.023
306.064
306.059
306.055
306.05
306.045
306.04
306.034
306.028
306.022
306.016
306.01
306.004
306.045
306.039
306.035
306.03
306.025
306.02
306.014
306.008
306.002
305.996
305.99
305.984
306.026
306.02
306.015
306.01
306.005
306
305.994
305.988
305.982
305.976
305.97
305.965
306.006
305.999
305.995
305.99
305.985
305.979
305.974
305.968
305.962
305.956
305.951
305.945
305.987
305.981
305.976
305.97
305.965
305.959
305.954
305.948
305.942
305.936
305.931
305.926
305.966
305.96
305.955
305.95
305.944
305.939
305.934
305.928
305.922
305.917
305.911
305.907
309.015
309.037
309.062
309.087
309.111
309.135
309.014
309.045
309.076
309.108
309.14
309.172
309.02
309.057
309.094
309.132
309.171
309.21
309.025
309.066
309.109
309.153
309.198
309.244
308.951
308.977
309.001
309.024
309.046
309.067
308.944
308.977
309.008
309.039
309.068
309.096
308.945
308.984
309.021
309.058
309.093
309.128
308.946
308.99
309.033
309.077
309.118
309.16
308.949
308.997
309.045
309.094
309.142
309.19
308.952
309.003
309.055
309.109
309.162
309.214
308.955
309.009
309.064
309.121
309.177
309.234
308.884
308.911
308.934
308.955
308.975
308.994
308.872
308.903
308.933
308.962
308.987
309.01
308.87
308.906
308.94
308.973
309.003
309.03
308.868
308.909
308.948