/*--------------------------------*- C++ -*----------------------------------*\
| =========                 |                                                 |
| \\      /  F ield         | OpenFOAM: The Open Source CFD Toolbox           |
|  \\    /   O peration     | Version:  v2106                                 |
|   \\  /    A nd           | Website:  www.openfoam.com                      |
|    \\/     M anipulation  |                                                 |
\*---------------------------------------------------------------------------*/
FoamFile
{
    version     2.0;
    format      ascii;
    arch        "LSB;label=32;scalar=64";
    class       volScalarField;
    location    "0.000131";
    object      epsilon;
}
// * * * * * * * * * * * * * * * * * * * * * * * * * * * * * * * * * * * * * //

dimensions      [0 2 -3 0 0 0 0];

internalField   nonuniform List<scalar> 
18273
(
9852.24
10237.8
11712.9
12844.2
13465.2
13336
12585.7
11495.2
10219.7
8802.29
6989.87
4914.35
3352.21
2627.8
6923.91
6307.67
6615.05
7012.13
7226.63
7141.86
6810.33
6276.3
5610.4
4872.44
3812.57
2584.51
1788.06
1746.63
6683.08
4757.81
3756.49
3256.45
3018.83
2877.6
2754.63
2563.14
2337.96
2105.27
1649.03
1173.7
1087.59
1740.45
8496.85
5408.92
3190.11
1812.21
1143.45
872.051
770.326
716.982
686.703
664.136
545.208
499.877
858.728
1971.18
11019.7
7045.93
3885.12
1816.85
755.406
312.857
163.667
127.756
130.76
144.484
148.634
289.3
901.358
2372.97
12799.7
8281.19
4553.8
2078.78
781.288
239.51
62.0306
19.471
15.3093
22.4086
61.2699
292.053
1104.07
2921.73
13968.7
9004.28
4906.41
2180.82
776.51
217.287
46.2785
7.55426
1.70747
6.44606
62.1176
364.034
1351.14
3471.31
15116.6
9731.3
5262.91
2282.91
779.668
207.039
43.742
8.95866
2.84694
8.06282
78.9172
440.494
1557.76
3862.55
15999.6
10185.8
5462.65
2340.23
795.658
225.776
67.3922
29.7064
16.9734
18.0055
96.7886
487.799
1647.76
3975.78
16328.3
10176.8
5395.69
2331.04
856.637
331.742
181.549
126.387
86.2526
63.2761
122.7
467.987
1503.81
3631.78
15820.7
9616.46
5062.72
2305.61
1075.18
681.011
554.645
453.818
337.264
239.639
229.596
448.97
1199.61
2912.39
14452.4
8635.3
4646.87
2474.91
1708.44
1565.51
1487.18
1299.08
1026.95
759.935
586.504
597.488
949.153
2058.91
12563.8
7506.28
4431.97
3154.97
3092.73
3326.49
3309.02
2993.28
2490.74
1935.52
1461.12
1165.45
1059.74
1532.25
11256.5
6990.76
4940.54
4761.02
5532.41
6127.23
6130.78
5672.05
4930.42
4019.79
3108.38
2372.03
1774.28
1678.44
25295.4
25833.6
27914.4
28811
28278.6
26209.7
23193.7
19971.9
16793.4
13668.8
10181.5
6784.84
4707
4551.29
15932.1
15923.9
16719.9
17053.2
16556.6
15258.2
13501.5
11555.7
9595.18
7766.8
5688.01
3702.69
2926.59
3991.04
12200.6
10161.5
8915.82
8038.4
7225.26
6427.02
5680.8
4840.43
4037.49
3361.91
2471.07
1838.46
2306.46
4565.65
13427.6
9361.86
6040.55
3800.25
2550.71
1924.89
1583.01
1326.45
1154.72
1034.63
830.538
964.229
2234.31
5338.97
17581.2
11917.9
6887.46
3408.95
1487.55
630.473
313.249
218.814
204.42
215.982
261.799
738.152
2487.42
6223.59
21162.2
14503.3
8391.04
4001.15
1556.13
488.061
124.558
33.7518
22.0073
36.7862
155.579
805.508
2899.53
7106.78
23963.8
16510.3
9536.89
4436.14
1633.53
468.044
100.771
16.2344
3.26703
17.0426
170.411
942.656
3260.91
7762.66
27201.3
18860.4
10910.3
4992.68
1775.91
486.827
106.984
24.6209
9.37113
22.6576
196.848
1030.85
3422.51
7935.33
30356.4
20941.8
12086.7
5489.88
1948.96
574.067
182.538
89.2668
55.3589
52.7351
219.94
1023.6
3278.35
7513.95
32929.9
22314.4
12749.4
5819.79
2202.08
860.304
485.833
361.058
263.668
195.598
289.834
913.397
2736.86
6329.74
34184
22492.8
12692.8
5984.08
2721.1
1657.18
1384.33
1207.27
962.933
724.45
631.629
934.608
2089.17
4712.55
33573.6
21473.7
12120.5
6310.97
3951.21
3495.37
3451.86
3221.75
2741.28
2181.62
1708.24
1518.84
1831.99
3257.44
31272.6
19594
11515.9
7294.11
6381.52
6864.55
7164.02
6922.18
6209.03
5214.75
4149.66
3259.38
2629.74
2883.61
29454.8
18301.5
11707.3
9423.44
10232.3
11703.8
12380.3
12210.6
11405.1
10048.8
8318.32
6535.43
4909.06
4124.87
58468.4
56934
57560.9
55421.9
51137.7
45078.8
38282.8
31395
25154.6
19502.4
13882.9
9089.31
7425.81
10048.3
38163.5
38374.2
38831.3
37598.8
34241.5
29517.6
24462.1
19373.1
14948.5
11190.8
7754.92
5299.27
5781.42
10293.5
25042.5
23183.2
21239.8
19032.6
16278.4
13506.3
10869.4
8326.86
6299.91
4796.66
3381.5
3101.53
5626.98
12037.7
21685.4
16518.7
11586.4
7910.91
5509.4
4031.12
3020.48
2204.36
1734.14
1430.38
1218.41
2147.61
5955.5
13659.5
26270.8
18583.3
11045.6
5619.9
2525.6
1088.47
518.118
327.241
281.514
294.241
518.257
1991.65
6515.53
14983.2
32111.8
23209
13724.7
6622.46
2582.27
798.918
194.568
46.2706
27.4282
66.3627
418.928
2148.65
7054.72
15827
37186.4
27166.7
16230.1
7702.38
2855.22
806.137
166.757
25.0054
5.18098
46.0099
448.135
2291.59
7295.56
16014.1
43369.9
32509.2
19767.5
9334.83
3357.53
912.193
197.806
48.8119
21.6886
57.0644
461.143
2246.15
6953.96
15101.3
50159.2
38053.9
23409.1
11063.3
3980.54
1165.82
377.571
200.259
133.954
129.093
469.221
2014.33
6088.71
13292.9
57114.3
43058.5
26486.5
12592.5
4786.31
1825.25
1038.69
816.055
635.763
497.483
644.71
1703.1
4709.04
10415
62847
46306.1
28208
13703.5
5998.01
3427.59
2886.73
2659.94
2271.28
1843.23
1596.28
1959.59
3588.64
7286.22
66214.8
47270.2
28459.9
14718.4
8288.89
6853.43
6909
6822.47
6240.52
5398.06
4476.01
3835.52
3817.77
5377.74
66125.6
46071.6
27957
16238.2
12261.6
12738.1
13721.5
14012.8
13509.1
12305.3
10533.9
8607.33
6802.57
6359.59
65017.6
44343.7
27744.3
18922.7
17936.3
20494.6
22564.5
23472.4
23428
22283.9
19924.7
16644.2
13087.2
10966.1
3047.35
5109.62
9690.44
26546
300271
112163
2588.7
4118.16
6922.41
15356.2
165270
57499.5
3201.14
5187.03
8354.77
16065.4
127900
33364.9
3971.97
6674.2
10707.6
19410.9
114747
22503.5
4894.07
8439.95
13665.5
23521.4
117871
18187.1
5925.48
10239.5
16619.4
27950.8
131516
17370.6
6859.56
11669.9
18840.9
32076.3
150854
18712
7460.42
12392.5
19959.1
35220
171852
22097.3
7596.18
12364.1
19951.7
36748.7
194007
27493.2
7050.67
11363.5
18552.3
35809.5
212859
34524
5894.54
9522.22
15871.7
32394.1
230301
43965.8
4305.85
7140.64
12389.2
27606.6
245453
58319.5
2848.83
4975.12
9376.31
24538.8
272845
84613.9
2184.66
3952.23
8284.83
25186
331789
132849
6669.97
10337.1
16306.1
30169.9
179210
69907.9
6883.48
10514
15504.3
24333.9
109515
39297.6
8452.32
13029.1
18885.8
28215.9
95979.7
27665.6
10169.5
16049.4
23423.3
34235.7
96442.6
24104.5
11844.1
18965.9
28018.1
39854.3
104654
24505.4
13250
21229.5
31503.4
44999.3
116521
26766.8
14137.2
22288.3
32966.7
48336.7
131092
29696.5
14238.2
21944.9
32618.3
50173.4
147447
32822.7
13499.4
20453
30564.9
48915.3
160013
36146.8
11708.7
17593.3
26506.2
43943.3
164351
38388.8
9161.52
13862.9
21162.9
36553.1
167551
40431.7
6317.47
9835.05
15485.3
28941.5
164921
45394.9
4398.15
7100.29
11783.5
24256.8
168745
57556.6
4501.2
7128.87
12045.5
24756.7
190994
82144.5
16571.5
22071.9
27165.8
30754.9
38707.1
57159.1
17907.1
24585.5
30412.5
34120.8
39500.5
55062.7
20942.7
29134.3
35956.7
40352.1
45294
60783.2
23751.5
33552.6
41705.2
46900.3
51680.6
66629.4
25758.6
36688.4
45788.4
51502.5
56329.8
68278.7
26636.7
38009.4
47643.6
54486.6
60753.7
65771
26404.3
37525.2
47464.7
56579.3
66765.5
60886.5
24829.9
34910
45218.5
56281.3
74171.9
54752.2
22195.3
30729.3
40674.2
51081.9
78173.2
47079.7
18196.3
24958.2
33334.8
41624.7
72753.1
38230.3
13543
18645.3
25041.9
31187.9
59051.7
30566.1
9273.98
13076.3
17862.4
22425.1
43081.5
27385.5
7783.05
11164
15434.2
19498.9
33734.4
32230.1
10584.3
14662.9
19734.2
23236.8
34781.1
48780.1
2766.62
4498.11
8155.29
21714.4
278662
118384
3194.96
4823.99
7687.75
16717.7
169120
59876.9
4310.14
6515.49
10028.2
19329.9
138497
34839.4
5636.27
8671.68
13248.8
23947.4
129352
23995.2
7081.74
10996.2
16750.3
28959.3
135309
19892
8345.62
12957.7
19634.3
33217.3
149578
19139.3
9290.83
14263.7
21597
36240.1
167433
20183.5
9885.61
14925.1
22552.7
38410.8
186305
22528.1
9947.59
14809.4
22314.6
39313.2
206830
26768.8
9181.37
13564.7
20517.5
37779.3
226818
32471.3
7655.1
11335
17420
34772.4
245252
39741
6481.24
9438.27
14703.7
31870.3
270016
52056.9
7206.55
10235.2
15439.6
34106.3
310405
77524.8
10422
15415.6
23023.7
48531.4
387769
122815
7321.18
10964.1
15996.8
28405.1
162296
72099.8
8702.24
12620.4
17545.7
27507.2
112784
40938.3
11287.1
16440.2
22691.7
33926.5
105004
29971.5
14038.8
20578.3
28676
42189.5
109775
27418.5
16352.5
23960.9
33649.7
48642.4
120825
28477.5
17851.6
25995.9
36580.3
53064.2
134834
30645.8
18544.7
26602.5
37594.3
55067.3
146973
32652.8
18527.2
26031.6
36589.1
54589.5
161022
33943.5
17565.5
24273.4
33675.7
51641.8
170191
34752.4
15404.2
20969.3
28810.7
45820.7
171657
35051.4
12918.3
17423.2
23744.3
39556.3
168613
36516.6
12793.8
16898.2
22547.3
37493.5
174221
41902.1
17543.3
23241.2
29214.9
44602.1
197767
57823.1
27207.5
37312
45929.7
64812.9
238141
85558.5
18599.3
23454.9
27143.9
30196.2
36414.2
57867.8
21775.9
28156.4
32859.4
36907.6
41024.8
59260.3
26600.4
34892.9
41049
46403.9
50137.2
68782
30889.7
40726.3
48574.9
54511
58165.2
75911.6
33359.6
43913.7
52321
58562.4
62157.4
75190.7
34005.4
44609.9
53252.5
60321.5
65230.1
69570.2
33316.7
43506.4
52280.4
60679.1
69239.3
61554.7
31640.5
40701.1
48848.4
57876.7
73405.2
52224.7
28656.9
36142.5
42720.8
50783.5
69555.9
41660.4
24486.9
30355.8
35336.8
41596.8
58807.2
32731.5
22335.7
27226
31262
35814.6
48175.6
29996.1
27400
32729.2
36279.7
38801.9
45034.9
37789
41876.2
48833.6
51033.8
50912.6
50974
62363.5
59949.8
66878.4
66007.4
63638.7
63552.6
107722
123309
428042
63509.9
28043.8
16428.1
10229.9
88074.6
370433
51028.4
22136.9
13385.8
8674.68
62345.8
321474
46840.2
22089.7
14213.9
9750.54
46718.2
294966
49273.5
25356.8
17114.4
12338.5
36531.1
276398
54432.9
29652.7
20610.5
15221.5
28896
257852
58461.6
33736.4
23651.4
17457.2
23221.7
235838
60745.7
37254.1
26304.5
19318.7
19605.2
213235
61811.5
40247.7
29085.9
21170.4
18406.5
192532
63241
41875
31047.3
22784
19046.2
180065
64651.2
42349.5
31900.3
23686.7
22599.7
178200
64551.7
41512.5
31280
23497.1
31852.4
191795
62640.3
39229
29625.5
22136.8
53361.7
233740
62259.7
36642.2
27349.5
19975.3
104739
363463
74974.8
38361.3
27460.7
19124.7
86677.8
264943
74017.6
48832.9
35620.2
24608.2
66424.7
241521
57487.3
34393.5
24445.5
17126.6
52237.7
223812
50430
29260.5
21017.6
15432.9
44649.9
218208
51476.3
31220
23221
17969.1
39983.7
216589
58150.8
36946.5
28136.8
22371.8
36962.9
209882
66309.2
43753
33416.1
26471.2
34665.3
193908
73097.4
50277.7
38497.8
30344.6
33810.8
170501
78551.5
56459.4
44290.4
34858.8
33256.1
152217
81489.2
60942.9
49385.4
39428.4
32883.2
142214
83938.3
64122.3
53711.4
43436
33440.6
139828
85911.4
65999.1
56740.9
46129.2
36717.6
142096
85316.9
66389.1
58630.8
47137
46867.2
158336
85431
65288
58871.6
45968.3
74852.7
217949
96127.5
69365.5
62121.9
47328.4
106559
65433.5
62290.6
66336.4
64131.9
54489.5
66991.9
59355
54235.8
53395.9
47279
37219.3
43767.2
59080.2
44823.3
41761.7
35042.1
27455.7
34165.1
64610.3
41324.9
37845.7
32384.2
26500.7
33615.6
73683.5
44712.4
41345.2
36288.7
31228.8
38519.7
80611.7
51913.6
47626.8
42275.3
36884.1
46212.1
80384.1
59635
53738
48331.7
42602.4
55430.2
74476.6
64277.6
59219.7
55271.7
49644.2
66345.7
67100.3
65517.9
63765.6
62389.1
57696.4
80024.2
65284.5
67442.6
68488.2
69903
65761.3
96848.2
69163.1
72249.7
74180.9
76999.3
72861.7
115220
74609.6
77307.5
79140
82652.7
78021.3
128600
76507.8
78606.7
78975
84959.7
80030.1
135959
74828
74066.9
75266.2
85573.4
82880.7
138398
384139
37008.4
13052.1
6288.81
3546.1
98681.4
341648
37111
15430
8515.51
5250.86
69792.3
308563
39725
18769.6
11586.7
7741.63
51732.5
283108
44888.7
23118.1
15109.1
10553.1
39821.4
259386
50864.2
27862.5
18735.8
13186.2
30700.3
236324
55909.6
32490.3
22174.2
15555.5
23594.3
213127
58848.2
36558.1
25335.5
17679.9
18605.8
191696
59969
39853.8
28151.1
19585.9
16796.2
172939
60968.6
41801.6
30172.2
21042.7
17181.1
161734
61395
41341.7
30336.4
21296.5
20580.8
161278
59851.4
39060.2
28720.7
20300
29538.2
177596
57236.4
36360.1
26634.4
18697
49911.6
222528
56886.3
34111
24317.6
16686
97463.8
365034
74899.6
38816.5
25817.2
16514.4
88115.1
226161
32504.7
15423.8
8658.55
5443.97
69246.6
219001
33866.4
17023.8
10556.1
6872.47
56588
217481
38767.4
21751.8
14744.1
10292.2
48709.3
214815
46818.2
28349.7
20001.9
14728.7
43466.7
205294
55675.2
35544.5
25727.8
19242.3
39148
189666
64195.4
42878.3
31665.4
23726.4
34792.1
171269
70173.4
49703.2
37571.6
28204.5
31438.5
152162
74059.5
55586.9
43371.5
32875.8
29458.3
136870
76501.3
60314.3
48407.3
37392.7
28279.6
129538
78516
62617.5
51733.9
40413.8
28523
127682
79166
62538.2
52542.3
41102.3
31969.3
130989
77622.9
61501
52505.5
40560
42459.3
148270
78401.8
60641.5
52305.5
39237.6
69874.5
219007
95062.6
68552.3
57343.1
41536.3
51694
42400.5
25021.5
20984.3
14860
10514.7
37261.9
48228.4
23161
19131.9
14040.7
9931.31
31645.3
61333.3
27670.6
23396.3
18274.2
13578.5
32037.8
75834
36022.6
31054.1
24698.8
19571.6
36221.3
85148.9
45310.1
39154.4
31821.8
25916.5
42362.4
85422.5
54050
46704.2
39332.8
32516.1
49334.8
77555.2
59948.8
53732.7
47205.7
39692.1
56897.8
68234.9
62137.7
59112.1
55137.7
47859.8
65992.7
62059.5
62151
63053.5
62069.4
55821.8
77475.2
60830.8
63275.1
66706.5
68095.4
62564.7
91174.4
63322.5
65988.6
69806.4
72201.7
67111.5
105296
66435.1
68062.4
71596.1
74885.7
69819
116416
67832.3
68335.5
71143.9
76181.5
71009.7
126926
69583.5
67749.1
71303.6
80309
77122.8
113208
104976
100401
91370.5
79922.7
66544.9
53998.2
42340.8
32953.3
24947.6
18101.8
12808.8
13406.1
22731.2
77453.5
74635.4
71365.2
64468.4
54843
44166.1
34403.3
25684.5
18972.6
13597.6
9460.6
7660.27
11637.2
23381
48530.5
44118.5
38779.9
32626.4
26037.4
19983.6
14953.6
10697.6
7667.4
5491.49
4021.17
4966.38
11794.4
26189.1
34977.5
26353.3
18368.9
12464.2
8430.76
5797.8
4049.62
2760.61
1965.49
1526.79
1529.46
3872.51
12106.9
27904
36442.3
24505.3
14045.2
7078.6
3234.63
1429.17
664.779
359.932
282.719
307.414
792.062
3644.4
12314.7
28357.7
42336.9
29573.8
17039.7
8009.34
3062.17
935.234
223.931
48.9847
25.4165
87.4005
685.783
3650.82
12168.4
27510.4
49063.2
35497.8
20747.1
9604.21
3476.68
965.878
199.357
30.2129
6.28982
68.2554
685.055
3583.83
11611.3
25721.1
58967.8
44509.5
26723.5
12357.2
4329.13
1150.11
248.139
63.0553
29.9744
80.6837
652.19
3254.6
10302.9
22689.8
70827.7
55014.7
33752.4
15692.3
5489.41
1552.99
492.043
268.51
191.806
193.047
652.441
2790.06
8599.02
19137.8
84575.7
66333.8
41143.5
19333.8
7062.96
2519.67
1384.79
1126.98
938.506
798.603
998.092
2405.65
6518.65
14657.1
97131.1
75712.9
47109.6
22617.5
9225.7
4757.18
3924.35
3787.02
3462.6
3094.63
2818.59
3257.56
5352.05
10508.2
107338
82024.5
51003
25700.9
12840.2
9533.03
9620.17
10009.1
9816.44
9337.84
8399.33
7523.07
7192.43
9069.49
111794
84013.2
52663.4
28964
18734.7
17922.8
19583.5
21055.8
21728.7
21623.2
20161
17696.6
14608.4
13496.2
117896
85085.3
53512.7
32993.3
27096.2
29657.1
33157.4
36060.4
38293.6
39208.2
37794.1
34067.7
28443.2
25218
114045
106477
100327
88845.7
75438.6
61014.4
48301.2
37212.7
28521.7
21296.4
15258.2
10828.5
11863.4
20443.6
75343
70937.1
65591.2
56839.9
46840.2
36647.9
27925.4
20512.4
14961.8
10685.9
7380.51
6116.94
10071
21168.9
45220.2
39131
32565.9
26026.9
20023.6
14937.4
10962.6
7739.33
5518.32
3982.09
2967.41
3877.17
9870.08
23247.8
31505.8
22111.7
14461.1
9252.45
5964.61
3947.96
2689.81
1793.27
1281.73
1035.92
1102.22
3018.4
9932.28
24318.1
32577.5
20495.3
11178.3
5390.9
2333.75
954.136
403.779
215.832
174.801
204.756
588.868
2817.29
9922.64
24285.6
37672
24593.9
13407.8
6051.05
2242.23
665.07
153.048
30.9905
15.918
64.9865
516.345
2776.26
9625.96
23163.3
43479.7
29428.7
16141.1
7104.65
2479.92
671.781
135.97
20.5024
5.00464
52.7675
505.587
2671.97
9045.23
21397.3
52761
37052.3
20705.2
9006.48
3021.75
783.877
170.226
46.6045
23.9024
61.7965
472.972
2387.2
7905.83
18581.9
64531.6
46367.2
26299.5
11425.8
3811.42
1062.27
351.571
202.921
146.19
145.4
467.474
2022.72
6531.12
15479.7
78681.4
56977.9
32586.1
14275.6
4973.57
1773.45
1015.49
840.713
696.425
592.51
723.139
1730.89
4877.44
11625.5
91928.4
66450.7
38183.6
17082
6677.24
3474.02
2919.89
2816.23
2555.76
2293.5
2092.18
2411.65
4019.67
8216.05
103895
74028.2
42702.3
20048.1
9638.95
7200.4
7309.53
7576.36
7384.73
7068.19
6420.51
5853.44
5692.42
7215.57
109637
77744.8
45598.6
23416.2
14637.5
14040.6
15405.5
16563.1
17034.9
17052.3
16058.3
14436.5
12276.6
11448
116891
80493.5
48118.7
27890.3
22231.9
24361.8
27355.3
29891.4
31745.3
32651.1
31637.7
29051.7
24715.1
22013.7
67340.7
64472.2
61217.1
54689
46452.6
37616.1
29546.6
22619.8
16945.1
12371
8463.16
5548.34
5298.96
9315.6
39035.8
36361.4
32870.2
28420.2
23474.6
18557.9
14194.1
10518.4
7651.92
5529.08
3692.32
2625.24
3877.21
9388.36
21548
17110.7
13378.1
10438.7
8099.98
6177.87
4614.59
3348.65
2434.64
1829.48
1298.14
1371.72
3631.29
10408.2
16832.9
10355.3
6056.02
3526.05
2144.24
1390.8
949.982
655.546
496.662
424.32
398.349
977.697
3746.94
11175
19926.8
11547.8
5896.17
2637.84
1039.71
372.912
137.559
74.1191
64.0834
73.7687
179.575
937.155
3896.25
11418.1
24032.8
14331.9
7209.64
3053.5
1070.91
301.891
65.8205
12.2732
5.59251
18.8647
157.551
970.286
3916.54
11101.9
28196.3
17200
8553.62
3461.31
1130.28
291.095
56.7173
8.22124
1.59565
14.6874
161.314
970.205
3777.88
10399.6
34250.6
21367.7
10593.6
4154.78
1285.84
314.797
65.5948
17.116
8.06766
18.1294
156.392
889.762
3347.71
9025.8
41495.8
26257.4
13003.9
5010.82
1523.54
403.117
133.401
76.104
51.9696
46.1164
156.418
767.335
2791.39
7467.28
49638.2
31442.1
15550.3
5983.78
1910.1
682.113
408.564
332.188
260.41
202.95
236.823
639.176
2062.72
5491.58
56973.7
35766.5
17662.9
6936.45
2583.72
1444.65
1257.77
1178.72
1012.58
846.52
715.387
826.558
1579.44
3696.58
62487.2
38767.9
19282.3
8069.92
3950.69
3257.37
3361.7
3387.33
3142.23
2845.15
2422.12
2092.93
2061.41
2880.36
64414.6
39849.3
20385.1
9667.15
6550.04
6853.98
7592.8
7996.45
7917.84
7612.74
6837.24
5863.19
4858.98
4515.84
66020.3
40413.3
21710.3
12305.1
10964.6
12805.1
14519.2
15702.7
16313.1
16344.4
15350.7
13544.9
11252.6
9712.73
26465.4
25140.1
24055.6
21908.9
18975.1
15571.8
12258.3
9246.9
6762.12
4836.24
3145.57
1855.52
1455.16
2504.3
12034.6
10693.6
9656.12
8542.25
7286.58
5902.02
4576.18
3400.9
2479.02
1830.44
1192.94
718.598
835.69
2381.2
6356.01
4385.63
3207.54
2468.11
1954.16
1522.56
1158.63
846.428
641.082
513.393
354.547
293.44
757.839
2790.26
6520.55
3516.36
1792.11
900.176
477.487
278.303
178.864
130.53
113.996
105
88.5444
179.791
816.059
3129.74
8959.67
4763.72
2223.34
903.274
316.119
95.3721
29.1784
14.4691
13.6253
15.9538
30.3969
172.317
891.843
3312.31
11370.2
6045.18
2744.96
1060.36
342.078
89.1309
17.9587
2.98567
1.15779
2.82169
23.9564
184.07
931.617
3326.58
13702.3
7232.27
3166.01
1148.04
341.393
81.1538
14.7664
2.01678
0.313537
1.74068
24.7199
188.466
918.729
3165.64
16651.7
8773.46
3739.13
1289.2
358.775
80.3666
15.4978
3.76541
1.62895
2.37435
24.2876
174.462
816.19
2727.98
19880.2
10434.8
4363.62
1454.25
393.233
95.5396
30.5409
16.9955
11.0301
7.8867
24.8397
150.679
675.504
2206.23
23169.5
12043.8
4966.42
1635.23
466.96
163.034
100.421
79.5304
59.0754
40.8846
41.1921
121.664
481.052
1546.46
25843.6
13206.7
5388.39
1812.48
637.768
381.83
341.302
308.538
250.603
190.783
145.737
156.928
339.648
964.765
27498.8
13831.5
5675.52
2090.16
1069.43
972.923
1014.23
986.168
865.268
725.432
571.893
456.987
438.259
673.72
27797.8
13935.7
5916.2
2631.58
2028.23
2302
2566.66
2629.42
2477.57
2245.59
1893.55
1535.77
1217.29
1097.85
28023.5
14086.7
6460.69
3762.76
3905.7
4834.48
5552.44
5917.46
5937.68
5713.5
5120.54
4334.37
3473.01
2870
7294.03
7016.98
7125.12
6753.55
5980.24
4957.53
3912.7
2929.98
2162.12
1560.24
977.388
513.464
305.546
475.077
2574.51
2149.09
2025.43
1889.5
1688.59
1416.43
1132.15
854.529
650.69
492.232
312.918
162.609
131.587
416.083
1569.28
882.186
573.115
425.576
344.178
278.438
220.296
171.345
141.169
116.436
77.5382
48.7239
108.183
537.697
2262.23
1062.54
463.379
193.395
83.9301
41.6061
27.0402
22.9728
21.7461
20.4591
15.371
22.2608
123.612
653.668
3546.49
1695.59
708.615
257.178
79.7059
21.0353
5.39907
2.3872
2.2916
2.59824
3.47265
20.518
144.867
731.895
4631.89
2192.57
891.347
309.97
90.5279
21.4567
3.95284
0.588613
0.184489
0.286044
2.1512
22.9742
158.94
761.424
5697.81
2619.78
1015.17
331.005
89.5279
19.4969
3.2682
0.406089
0.0482432
0.0970522
2.1574
23.6983
157.059
720.005
6941.44
3108.61
1154.15
354.156
89.1369
18.1014
3.06055
0.591236
0.213828
0.167385
2.0581
21.4482
135.88
598.062
8192.58
3565.36
1273.21
371.593
89.243
18.8913
5.07376
2.55035
1.59376
0.940345
2.10482
17.4966
106.189
453.713
9349.73
3944.05
1361.5
384.763
95.1057
29.1096
17.2096
13.4986
9.80848
6.24534
4.67411
13.2947
69.0372
288.655
10130.5
4116.52
1377.04
390.506
121.151
72.4255
67.1789
60.7704
48.3494
34.2535
22.8337
19.7833
43.5462
156.54
10399.8
4085.83
1351.43
424.454
215.974
214.462
233.152
226.898
195.178
152.814
110.569
78.3609
63.9335
97.6565
10039.3
3882.45
1327.17
549.132
480.269
597.177
692.034
711.331
656.916
562.362
443.634
331.618
235.867
189.696
9777.89
3834.65
1470.08
912.782
1108.71
1475.35
1763.72
1897.29
1873.21
1731.44
1472.73
1169.78
861.301
643.161
1343.08
1354.75
1526.57
1532.6
1397.2
1171.24
932.174
732.422
562.317
410.633
249.578
120.227
53.5738
67.4251
407.396
300.1
290.339
283.305
266.137
234.5
198.578
168.523
138.5
107.266
66.4444
31.3739
17.1138
55.2549
373.916
163.598
80.9638
49.4788
38.0605
32.1556
29.9794
28.3126
25.5366
21.3934
13.7277
7.07839
12.1421
80.0945
732.462
298.777
111.709
38.1043
12.3452
4.87826
3.40686
3.36777
3.44498
3.22118
2.24183
2.26732
14.75
107.513
1253.3
530.692
195.45
62.4775
17.0989
3.97102
0.873898
0.345311
0.32936
0.353189
0.346631
1.85376
18.3647
127.914
1655.26
684.976
246.386
76.4477
20.0747
4.34052
0.745557
0.104864
0.0271944
0.0280121
0.127822
2.04897
20.6454
136.851
2056.28
811.974
276.04
80.3003
19.6595
3.9458
0.624812
0.0753708
0.00813053
0.00315807
0.0995432
1.95837
19.7037
127.405
2488.43
930.485
296.811
80.4036
18.2381
3.39372
0.525239
0.0873748
0.027648
0.0126315
0.077169
1.54473
15.49
98.4286
2906.54
1022.76
304.509
76.5733
16.21
3.03159
0.713904
0.342707
0.217076
0.120075
0.0983061
1.07482
10.5911
66.4523
3258.61
1081.51
302.006
71.0483
14.943
4.1212
2.49837
2.0412
1.50626
0.928311
0.494763
0.806815
5.93323
36.3176
3425.72
1072.18
282.487
64.6596
17.6632
11.3965
11.4416
10.68
8.51856
5.78206
3.3349
2.0461
3.45714
16.3098
3342.83
998.323
255.944
66.1544
35.8182
40.8775
47.0636
46.7366
39.9211
29.6517
19.1442
11.684
7.3396
9.09319
2966.02
866.631
231.65
92.1082
99.2192
136.932
165.781
172.971
157.689
127.224
91.4117
61.0419
37.4919
24.7998
2717.87
813.836
261.606
190.829
281.073
403.774
502.549
548.099
532.896
466.353
367.914
266.214
174.248
112.752
188.123
204.431
260.399
271.999
244.185
192.668
153.698
124.394
99.9362
76.7153
48.4211
23.0657
8.55348
6.96058
52.1533
33.621
33.3618
32.6058
29.3838
24.9101
22.8045
21.2285
19.3503
16.4179
10.83
5.11876
2.01048
4.98501
72.7998
26.4139
10.1229
4.54498
2.66149
2.33071
2.50533
2.77056
2.92338
2.76324
1.90816
0.926515
0.955415
7.89178
186.686
66.7927
21.66
6.24192
1.60675
0.438957
0.240152
0.270942
0.334975
0.357918
0.264568
0.184299
1.09183
11.4706
331.209
120.481
38.423
10.6406
2.51174
0.494908
0.0858028
0.0265897
0.0283286
0.0342846
0.0299445
0.0996138
1.38912
14.2167
449.512
156.748
47.9665
12.722
2.86292
0.530234
0.0779185
0.00924447
0.00216122
0.00231689
0.00516865
0.103285
1.58534
15.4705
570.742
184.684
52.2721
12.7975
2.65471
0.453626
0.0615251
0.00639247
0.000582875
0.0001645
0.002848
0.0990839
1.53502
14.4393
709.121
211.896
54.934
12.2641
2.31424
0.360891
0.046813
0.00638452
0.00169019
0.000680075
0.00197449
0.0774653
1.21997
11.1338
845.966
234.337
55.6729
11.3036
1.9449
0.295598
0.0579998
0.0255986
0.0151321
0.00772592
0.00404858
0.0503367
0.816026
7.38141
953.701
247.86
54.6752
10.2089
1.6975
0.389116
0.230086
0.182356
0.126203
0.0723424
0.0349089
0.0379223
0.416503
3.73173
983.449
240.565
49.7545
8.87478
1.94011
1.25311
1.28585
1.16014
0.872437
0.556693
0.301812
0.15736
0.217393
1.46452
914.039
213.65
42.7962
8.559
4.41391
5.51516
6.45141
6.22071
5.05874
3.57639
2.1832
1.23226
0.66451
0.711307
746.862
170.248
35.4308
12.1221
14.9697
22.5362
27.7767
28.4116
24.9734
19.4151
13.243
8.30038
4.63432
2.63253
640.659
150.391
39.1969
29.913
51.8587
80.9507
103.347
111.928
106.506
90.5373
68.4385
46.7876
28.0018
16.0532
17.5503
13.859
9.84846
5.57259
2.33112
0.718641
0.497906
2.1982
1.9693
1.55145
0.930269
0.389871
0.126595
0.359404
0.210184
0.21994
0.195332
0.124562
0.0538549
0.0522621
0.647108
0.0155069
0.019068
0.0193519
0.0134212
0.00788944
0.0618986
0.997291
0.00131869
0.00126888
0.0014658
0.00115739
0.00312803
0.0750246
1.22163
0.000548097
9.2555e-05
8.27007e-05
9.17902e-05
0.00245029
0.0746302
1.22912
0.000408633
3.28413e-05
6.71418e-06
1.20465e-05
0.00154963
0.0571609
0.986258
0.000392119
9.56814e-05
4.03481e-05
1.81063e-05
0.000701268
0.0313178
0.583943
209.015
47.121
9.15499
1.52216
0.21428
0.0262405
0.00398649
0.0016076
0.00100348
0.000541712
0.000238339
0.00036894
0.0145817
0.286519
235.209
49.4643
8.88129
1.35272
0.180874
0.0317455
0.0169869
0.0140387
0.0102893
0.00614114
0.00299861
0.00136961
0.00622174
0.116426
239.436
47.1906
7.91228
1.14377
0.198597
0.114118
0.119351
0.112792
0.0889317
0.0581219
0.0314752
0.0150601
0.00817447
0.038787
215.932
40.6915
6.62304
1.09693
0.519534
0.639445
0.765381
0.770339
0.649769
0.462542
0.27681
0.146854
0.0695993
0.0421601
166.837
31.0805
5.39429
1.81297
2.2693
3.35067
4.2208
4.48841
4.04532
3.11526
2.04824
1.19017
0.607673
0.307553
133.543
26.5883
6.62647
5.88337
9.98447
15.3297
20.0321
22.4347
21.6192
17.9535
12.889
8.11796
4.43334
2.29681
134393
131936
123730
109313
93505
71983.1
116350
117809
114605
106046
94294.2
75904.9
110951
112596
108947
100280
87767.2
69494.2
101398
103446
99268.4
90379.5
77857
61123.7
90050.5
92752.2
88893.9
80926.4
69758.4
54423.7
76967.6
80576.1
78750.2
73636.6
65209.3
50594.9
64978.9
69501.2
70058.1
68233.4
63175.7
48548.4
53376.5
59128.5
62067.5
62833.2
60651.5
45259
43732.7
50082.1
54392.5
56454.8
55224.9
38121.9
35399.6
41872.9
46568.6
48901.1
46931.7
28884
27400
34000.9
38634.7
40482.9
37353.3
20524.8
19875.7
26657.3
31467.6
33701.9
30448.4
15607.7
16831.1
23969.9
30909.5
35469.9
31309.7
15776.1
22141.2
31895.8
41902.3
47889.7
40574.3
21268.8
141798
145717
140766
132956
126672
124236
124666
131722
132712
129711
125799
123945
118059
125372
125414
121683
117415
115090
104836
112537
112040
107947
103079
100047
91318.5
99080.2
98155.8
93391.3
87775.3
84716.8
75879.2
83287.5
83739.7
80039
74749.6
71839.3
62395.8
69817.1
72028.7
69793
64392.1
60481.4
50724.5
58476.2
62370.5
61228
55555.2
50060.3
40861.7
49057.4
53930.5
53191.9
46861.5
39655.7
32783.6
40884
46118.2
45086.7
38059.3
29796.5
25093.9
32943.7
38062.4
36300.5
29423.5
21816.8
18017
25462.4
29573.1
28176.5
23494.7
18530.3
15255.4
22199.3
26596
27089.1
25187.9
22871.3
19804.9
28210.8
34075.1
35616.6
35386.7
34660
95427.9
102517
102677
100996
100530
102900
86547.4
97366.3
100821
100298
99960.9
102072
83192.8
94793.9
96938.1
94487.4
92712.8
93667.2
75571.4
86587.2
88534.1
85634.3
82640.6
82029.8
65493.9
76759.3
79066
76011.2
71832.2
69957.1
54449.5
65249.6
68605.9
67026.7
62650
59868.4
44282.8
54492.4
58918.4
59355.1
54937.7
50743.6
35494
45100.4
50467.5
52645.7
48230.9
42224.3
28131.6
36822
43336.3
46181.5
41215.1
33688.2
21530.8
29370.2
36352.7
38713
33104.2
25345.8
15793.2
22542.4
29259.2
30206.7
24519.8
18081.3
10590.3
16334.5
21150.8
21106.3
17483.5
14314.8
7951.97
12526.6
16093.6
17256.9
17049.6
17362
9244.71
14450.7
19158.8
22446.4
24939.7
27631.8
48274.2
60077.1
68285.8
73150
76056.3
78633.6
44846.7
59683.7
69714.5
74895.6
77761
79399
43230
59072.6
68241.6
72048.2
73161.7
73830
39562.3
54971.4
63083.3
66075.2
66413.3
67004.6
34666.6
48718.6
56445.1
59327.1
59584.7
59752.1
28928.4
41741.4
49271.8
52440
53029.3
52835.8
23372.9
34745.2
41973.4
45793.1
46983.3
46351.9
18243.1
28228.5
35298.6
39417.4
41008.5
39601.7
13837.4
22096.3
28707
33371.9
35011.7
32559
9975.25
16015.5
21964.7
26581.8
28076
25055.6
6673.93
10855.5
15822.4
19845.7
20851.5
17714
3969.89
6789.08
10529.3
13452.9
13952.6
12226.5
2498.99
4699.17
7412.99
9885.81
11536.7
12742
2631.87
5066.89
8545.59
12682.5
16978.1
21133.4
18935.2
30046.2
42261.1
53448
62051.2
68492.2
18441.2
32207.8
47393.2
60006
69152.6
75088.6
18603.5
33268.7
48353
60336.1
68710
73633.3
17362.1
31499.5
45576.5
56422.5
64132.9
69360
15181.3
28099.9
40720.5
50164.6
57545.6
63796.1
12490.2
23670.7
34592.6
42865.3
49617.9
56273
9810.61
19018
28299.4
35465.1
41309.3
47567.9
7353.8
14603.1
22532.7
28819
33379.5
38241
5424.04
10745.3
17055.5
22426.2
26419.7
29500.8
3816.75
7321.18
11745.4
16215.7
19788.3
21758.2
2359.35
4487.81
7435.8
10808
13879.9
15194.6
1239.22
2423.74
4278.1
6612.95
8934.89
9821.24
615.372
1324.59
2606.21
4393.55
6384.04
8081.49
529.57
1278.75
2760.07
5255.69
8878.67
13451.5
5099.26
10869.5
19818.7
31460.3
44119.8
56284.9
5439.45
13183.4
25803.7
41240.8
56752.3
70836.6
6128.67
15362.1
29607.8
46215.9
62364.9
77129.4
6034.34
15450.2
29526.9
45837.2
61627.1
77342.8
5336.29
13944.2
26753.8
41395.8
55850.7
72074.5
4316.81
11444.5
22247.7
34573.3
46865.5
61768.2
3267.02
8714.84
17331.4
27273.4
36979.8
48924.4
2430.46
6376
12866.8
20795.7
28442.4
36750.6
1783.4
4513.24
9076.13
14953.5
20685.5
26453.6
1228.1
2970.86
5837.97
9687.75
13973.5
18045
710.843
1660.85
3314.74
5688.21
8618.75
11384.5
334.761
777.222
1620.94
2945.07
4740.58
6437.52
133.694
320.58
740.941
1516.01
2733.31
4148.16
82.9193
230.324
635.817
1555.43
3384.48
6466.88
1005.83
2862.98
6848.73
13960.5
24533.8
37733.4
1197.6
3950.79
10337.4
21734.3
37356.3
55148.7
1538.38
5286.56
13598.3
27451.9
45945.1
66715.9
1609.46
5748.51
14752.3
29193.3
48360.7
70123.5
1435
5331.92
13905.5
27514.1
45296.6
66667.3
1114.79
4297.5
11500
23128.2
38261.7
56931.9
801.521
3101.53
8544.45
17722.2
29728.9
44126.1
582.576
2165.04
5977.33
12687.3
21799.4
32370
419.709
1454.34
3937.76
8439.6
14761.4
21944.1
286.743
911.205
2375.12
5016.19
8875.69
13623.7
164.293
481.787
1225.98
2622.71
4793.05
7559.24