/*--------------------------------*- C++ -*----------------------------------*\
| =========                 |                                                 |
| \\      /  F ield         | OpenFOAM: The Open Source CFD Toolbox           |
|  \\    /   O peration     | Version:  v2106                                 |
|   \\  /    A nd           | Website:  www.openfoam.com                      |
|    \\/     M anipulation  |                                                 |
\*---------------------------------------------------------------------------*/
FoamFile
{
    version     2.0;
    format      ascii;
    arch        "LSB;label=32;scalar=64";
    class       volScalarField;
    location    "0.000185";
    object      alphat;
}
// * * * * * * * * * * * * * * * * * * * * * * * * * * * * * * * * * * * * * //

dimensions      [1 -1 -1 0 0 0 0];

internalField   nonuniform List<scalar> 
18109
(
3.67615e-07
2.2726e-07
1.45508e-07
1.00755e-07
7.9955e-08
7.36351e-08
7.96538e-08
1.39733e-07
6.80045e-08
3.9547e-08
2.6979e-08
2.18427e-08
2.06842e-08
2.33416e-08
5.92487e-08
1.9989e-08
9.36715e-09
6.07879e-09
5.0176e-09
4.97098e-09
6.24895e-09
3.37018e-08
8.19482e-09
2.45428e-09
1.23991e-09
9.95803e-10
1.0918e-09
1.79259e-09
2.75581e-08
6.16749e-09
1.27445e-09
3.31794e-10
1.94455e-10
2.7229e-10
7.15367e-10
2.82661e-08
6.32044e-09
1.18829e-09
1.99913e-10
5.97215e-11
1.1641e-10
4.44773e-10
3.32468e-08
7.23487e-09
1.2846e-09
1.94736e-10
5.01184e-11
1.02498e-10
4.01458e-10
4.23414e-08
8.75761e-09
1.48862e-09
2.68857e-10
1.31015e-10
2.01651e-10
5.48386e-10
2.9098e-07
1.81301e-07
1.14022e-07
7.46957e-08
5.43857e-08
4.50353e-08
4.38727e-08
5.23432e-08
8.19619e-08
1.58452e-07
3.36064e-07
7.08537e-07
1.41539e-06
2.66419e-06
1.03071e-07
5.02407e-08
2.84698e-08
1.80662e-08
1.32419e-08
1.12187e-08
1.15393e-08
1.56187e-08
3.02499e-08
7.30455e-08
1.84681e-07
4.43185e-07
9.75801e-07
1.96186e-06
4.12081e-08
1.36587e-08
6.10997e-09
3.59242e-09
2.63929e-09
2.34074e-09
2.80139e-09
5.16052e-09
1.37257e-08
4.04532e-08
1.14171e-07
2.93365e-07
6.77523e-07
1.41106e-06
2.38814e-08
5.6966e-09
1.55769e-09
6.5663e-10
4.4743e-10
4.50712e-10
7.90546e-10
2.25405e-09
7.57715e-09
2.45882e-08
7.27827e-08
1.93813e-07
4.63439e-07
1.00407e-06
2.11454e-08
4.72973e-09
9.34561e-10
1.97621e-10
8.11018e-11
1.09594e-10
3.38346e-10
1.29655e-09
4.80536e-09
1.61718e-08
4.89246e-08
1.33294e-07
3.28939e-07
7.44609e-07
2.3082e-08
5.10737e-09
9.41214e-10
1.47859e-10
3.07455e-11
5.14444e-11
2.16241e-10
9.02961e-10
3.4235e-09
1.16537e-08
3.57135e-08
9.92224e-08
2.52193e-07
5.93467e-07
2.83333e-08
6.03853e-09
1.04743e-09
1.53908e-10
3.28821e-11
5.04452e-11
1.90361e-10
7.65199e-10
2.86375e-09
9.73044e-09
2.99926e-08
8.43428e-08
2.18199e-07
5.24315e-07
3.72201e-08
7.4978e-09
1.23676e-09
2.18406e-10
1.02602e-10
1.31327e-10
2.86197e-10
8.91103e-10
3.04893e-09
1.00227e-08
3.04477e-08
8.49269e-08
2.1844e-07
5.22101e-07
5.00833e-08
9.74019e-09
1.76168e-09
5.83963e-10
5.1178e-10
6.12539e-10
8.80874e-10
1.75811e-09
4.66736e-09
1.36541e-08
3.89929e-08
1.0416e-07
2.58675e-07
5.98969e-07
6.98155e-08
1.4633e-08
3.84248e-09
2.27311e-09
2.37736e-09
2.82572e-09
3.61602e-09
5.46713e-09
1.05814e-08
2.48932e-08
6.2465e-08
1.5345e-07
3.57076e-07
7.8305e-07
1.08626e-07
2.96782e-08
1.1993e-08
8.80588e-09
9.37377e-09
1.11798e-08
1.4066e-08
1.93418e-08
3.07129e-08
5.78192e-08
1.22051e-07
2.66281e-07
5.67406e-07
1.15887e-06
2.02093e-07
7.65269e-08
3.93298e-08
3.01425e-08
3.14515e-08
3.76037e-08
4.7594e-08
6.38417e-08
9.25932e-08
1.49617e-07
2.68193e-07
5.11959e-07
9.86185e-07
1.86101e-06
4.17619e-07
2.00311e-07
1.15472e-07
8.92246e-08
9.09049e-08
1.08652e-07
1.3903e-07
1.86199e-07
2.60309e-07
3.8605e-07
6.12165e-07
1.02868e-06
1.77679e-06
3.06512e-06
8.68123e-07
4.78735e-07
2.94232e-07
2.29889e-07
2.29808e-07
2.72953e-07
3.51737e-07
4.72648e-07
6.50312e-07
9.17902e-07
1.3317e-06
1.99214e-06
3.06407e-06
4.80142e-06
9.70549e-07
2.05284e-06
4.03519e-06
7.21051e-06
1.19291e-05
1.93933e-05
8.10608e-07
1.76448e-06
3.54473e-06
6.41756e-06
1.07222e-05
1.74849e-05
5.60146e-07
1.37761e-06
2.98946e-06
5.70784e-06
9.97064e-06
1.71443e-05
3.73545e-07
1.01515e-06
2.37286e-06
4.8324e-06
9.02488e-06
1.66432e-05
2.51268e-07
7.36079e-07
1.83982e-06
4.02136e-06
8.09983e-06
1.6159e-05
1.83029e-07
5.59215e-07
1.46801e-06
3.42046e-06
7.41428e-06
1.59037e-05
1.49767e-07
4.63685e-07
1.25527e-06
3.07921e-06
7.09896e-06
1.59362e-05
1.42776e-07
4.39596e-07
1.20722e-06
3.05288e-06
7.28349e-06
1.66745e-05
1.63024e-07
4.90931e-07
1.33315e-06
3.35372e-06
7.94117e-06
1.77901e-05
2.3273e-07
6.69919e-07
1.73955e-06
4.17361e-06
9.35843e-06
1.96465e-05
3.91972e-07
1.05024e-06
2.52599e-06
5.56823e-06
1.13861e-05
2.17873e-05
7.13067e-07
1.73434e-06
3.77887e-06
7.50573e-06
1.38097e-05
2.40479e-05
1.29719e-06
2.81157e-06
5.48183e-06
9.79356e-06
1.6436e-05
2.66616e-05
2.24436e-06
4.29488e-06
7.51632e-06
1.2326e-05
1.95105e-05
3.04275e-05
3.64835e-06
6.13927e-06
9.8118e-06
1.51996e-05
2.33088e-05
3.54342e-05
4.86135e-06
7.43755e-06
1.12137e-05
1.69394e-05
2.5748e-05
3.89653e-05
3.64741e-06
6.01949e-06
9.73636e-06
1.56913e-05
2.53176e-05
4.0295e-05
2.70228e-06
4.86181e-06
8.50309e-06
1.46529e-05
2.49161e-05
4.11465e-05
2.01842e-06
3.95968e-06
7.46631e-06
1.36394e-05
2.41533e-05
4.08495e-05
1.57892e-06
3.32819e-06
6.65962e-06
1.27054e-05
2.31691e-05
3.99033e-05
1.31121e-06
2.90576e-06
6.05567e-06
1.18961e-05
2.21203e-05
3.86447e-05
1.18073e-06
2.67759e-06
5.68796e-06
1.13341e-05
2.12531e-05
3.76709e-05
1.16708e-06
2.63056e-06
5.56556e-06
1.10627e-05
2.07318e-05
3.73418e-05
1.2988e-06
2.83743e-06
5.85606e-06
1.14407e-05
2.12847e-05
3.8413e-05
1.62048e-06
3.3681e-06
6.66129e-06
1.25695e-05
2.28417e-05
4.07047e-05
2.25298e-06
4.37706e-06
8.14093e-06
1.45557e-05
2.53541e-05
4.4071e-05
3.36131e-06
5.99363e-06
1.02975e-05
1.72079e-05
2.85434e-05
4.8083e-05
5.06962e-06
8.21098e-06
1.29821e-05
2.03382e-05
3.23333e-05
5.27125e-05
7.34283e-06
1.0841e-05
1.58971e-05
2.35699e-05
3.60123e-05
5.66397e-05
5.77378e-06
8.93087e-06
1.40458e-05
2.1883e-05
3.47572e-05
5.51149e-05
4.55071e-06
7.63972e-06
1.22892e-05
1.92877e-05
3.09774e-05
5.08166e-05
3.56791e-06
6.32605e-06
1.03586e-05
1.65811e-05
2.73931e-05
4.6909e-05
2.72685e-06
5.01576e-06
8.43403e-06
1.39858e-05
2.40603e-05
4.29012e-05
2.0321e-06
3.85443e-06
6.72623e-06
1.16855e-05
2.10301e-05
3.89691e-05
1.49043e-06
2.90482e-06
5.28985e-06
9.68514e-06
1.82625e-05
3.50041e-05
1.09082e-06
2.18355e-06
4.16416e-06
8.03742e-06
1.58195e-05
3.10875e-05
8.06447e-07
1.66012e-06
3.32606e-06
6.74247e-06
1.37345e-05
2.75929e-05
6.20146e-07
1.31686e-06
2.76814e-06
5.8547e-06
1.22493e-05
2.52848e-05
5.22488e-07
1.14517e-06
2.50101e-06
5.42528e-06
1.14952e-05
2.41162e-05
5.24982e-07
1.16325e-06
2.55818e-06
5.52154e-06
1.15384e-05
2.40622e-05
6.62224e-07
1.41752e-06
2.98584e-06
6.19847e-06
1.23494e-05
2.50376e-05
1.02845e-06
2.06224e-06
4.04905e-06
7.8022e-06
1.46132e-05
2.72676e-05
1.73229e-06
3.22184e-06
5.8592e-06
1.02836e-05
1.72321e-05
2.88124e-05
1.23196e-07
3.86913e-07
1.11893e-06
3.00202e-06
7.51549e-06
1.77729e-05
1.62674e-07
4.62875e-07
1.29435e-06
3.46036e-06
8.38696e-06
1.84367e-05
2.5396e-07
6.11684e-07
1.62182e-06
4.2233e-06
9.5314e-06
1.91163e-05
4.72836e-07
9.92828e-07
2.34216e-06
5.47754e-06
1.09364e-05
1.97388e-05
1.38807e-06
2.7196e-06
5.66892e-06
1.05563e-05
1.73654e-05
2.8381e-05
9.12821e-07
2.25732e-06
5.13083e-06
9.62628e-06
1.58816e-05
2.68394e-05
6.16654e-07
1.82291e-06
4.31548e-06
8.13812e-06
1.37925e-05
2.46718e-05
4.41159e-07
1.41401e-06
3.41026e-06
6.54098e-06
1.16409e-05
2.22906e-05
3.24398e-07
1.05411e-06
2.57025e-06
5.07954e-06
9.653e-06
1.99307e-05
2.36808e-07
7.62226e-07
1.87053e-06
3.85835e-06
7.94485e-06
1.76907e-05
1.68794e-07
5.38389e-07
1.34115e-06
2.94862e-06
6.63947e-06
1.57289e-05
1.20886e-07
3.8197e-07
9.86161e-07
2.36317e-06
5.76285e-06
1.41659e-05
9.31609e-08
2.93188e-07
8.01091e-07
2.08179e-06
5.30498e-06
1.31118e-05
8.269e-08
2.63031e-07
7.55825e-07
2.04109e-06
5.18523e-06
1.25763e-05
8.8488e-08
2.79582e-07
8.13172e-07
2.17962e-06
5.43813e-06
1.30506e-05
1.17114e-07
3.40371e-07
9.59329e-07
2.55153e-06
6.24793e-06
1.41583e-05
1.89926e-07
4.69981e-07
1.26193e-06
3.31375e-06
7.6274e-06
1.57015e-05
3.7316e-07
8.07018e-07
1.95402e-06
4.67731e-06
9.44487e-06
1.71166e-05
2.96145e-05
8.78367e-05
0.00023647
0.000222172
0.000187769
3.12955e-05
9.63957e-05
0.000225029
0.000215866
0.000186665
3.35674e-05
0.000101653
0.000213952
0.000211726
0.000191452
3.538e-05
0.000102889
0.000205018
0.000212149
0.00019652
3.65618e-05
0.000101253
0.000197218
0.000214794
0.000200662
3.66129e-05
9.64746e-05
0.000187454
0.000217199
0.000204158
3.6037e-05
9.14934e-05
0.000181065
0.000219337
0.000208597
3.61151e-05
8.636e-05
0.000177392
0.000219555
0.000209611
0.000234871
3.72615e-05
8.56105e-05
0.00017758
0.000216736
0.000208549
0.000241327
3.85199e-05
8.77288e-05
0.000181564
0.000207842
0.000203985
0.000246242
3.994e-05
9.21825e-05
0.000185061
0.000196314
0.000197356
0.000248324
0.000300324
4.22875e-05
9.83484e-05
0.000187675
0.000186762
0.000191956
0.000245472
0.000353745
0.000377891
4.65619e-05
0.00010652
0.000193684
0.000182626
0.000191116
0.000239701
0.000375786
0.000834705
5.22873e-05
0.000115522
0.000202848
0.000186381
0.00019236
0.000230341
0.000281228
0.000758723
5.74958e-05
0.000121702
0.000209499
0.000193968
0.000194541
0.000221964
0.000250304
0.000614413
6.12607e-05
0.000124293
0.000208989
0.000200139
0.000198675
0.000226744
0.000245491
0.000551406
6.34678e-05
0.000126119
0.000205357
0.000207361
0.00020705
0.000238755
0.000263131
0.000334146
6.36934e-05
0.000124781
0.000204441
0.000216748
0.000214461
0.000244095
0.000254754
0.000476282
6.35711e-05
0.000122264
0.0002087
0.000223998
0.000217695
0.000242143
0.000235211
0.000441928
6.22822e-05
0.000120437
0.000218833
0.000228613
0.000218548
0.000245801
0.000225859
0.000343434
6.10619e-05
0.000121342
0.000236387
0.000228249
0.000220481
0.000259568
0.000247743
0.000159149
6.18449e-05
0.00012684
0.000256383
0.000222897
0.000218201
0.000265084
0.000266104
0.000193331
6.52326e-05
0.000140053
0.000265414
0.000212871
0.000211823
0.000258268
7.01182e-05
0.000156494
0.000254837
0.000199162
0.000203205
0.000254083
7.51935e-05
0.000167142
0.000237055
0.000186323
0.000194445
0.00025599
7.97967e-05
0.000173139
0.000226542
0.000180275
0.000189292
0.000252376
8.42458e-05
0.000177746
0.000221075
0.000178577
0.000188774
0.000245314
8.67003e-05
0.000183406
0.000220879
0.000186528
0.000189593
8.51262e-05
0.000187068
0.000219485
0.000199107
0.000192848
8.43949e-05
0.000179196
0.000212449
0.000207599
0.00019771
8.44304e-05
0.000163145
0.000202919
0.000215499
0.000205752
8.17697e-05
0.000145336
0.000195839
0.000226035
0.000212154
7.74324e-05
0.000130643
0.000194525
0.000238493
0.000215577
7.12448e-05
0.000118548
0.000200764
0.000249841
0.000213556
6.46857e-05
0.00010941
0.000217756
0.000256163
0.000209365
5.87507e-05
0.000103794
0.000248253
0.000259376
0.000203675
5.37102e-05
0.000101829
0.000285726
0.00025687
0.000193868
4.96312e-05
0.000104821
0.00031219
0.000247822
0.000183709
4.69052e-05
0.00011435
0.000314401
0.0002374
0.000178816
4.62565e-05
0.000129499
0.000300828
0.000233079
0.000181457
4.83779e-05
0.000145288
0.00028058
0.000231389
0.000187465
5.15259e-05
0.00015663
0.000267152
0.000233152
0.000192647
5.40037e-05
0.000160314
0.000254431
0.000231869
0.000192745
5.61811e-05
0.000155293
0.000234351
0.000224629
0.000192991
5.7153e-05
0.000143292
0.000213445
0.00021996
0.000198449
5.60062e-05
0.000128116
0.000195388
0.000220158
0.000203024
5.33902e-05
0.00011444
0.000181257
0.000224382
0.000205739
4.95085e-05
0.000102323
0.000169296
0.000230267
0.000205009
4.51235e-05
9.16353e-05
0.000160786
0.000236102
0.000203218
4.06325e-05
8.22078e-05
0.000158494
0.000243198
0.000199898
3.64132e-05
7.39577e-05
0.00016473
0.000248123
0.000193832
3.27469e-05
6.72253e-05
0.000178043
0.000244457
0.000185849
2.99182e-05
6.39955e-05
0.000194554
0.000232833
0.000180195
2.80415e-05
6.51142e-05
0.000213065
0.000224397
0.000179148
2.77762e-05
7.01338e-05
0.000231244
0.000220573
0.000182451
2.86927e-05
7.77595e-05
0.00024124
0.000222287
0.000186738
2.5553e-07
1.63937e-07
1.0387e-07
6.61358e-08
4.48485e-08
3.34442e-08
2.91389e-08
3.19269e-08
4.89125e-08
9.82611e-08
2.21257e-07
4.96967e-07
1.05388e-06
2.09143e-06
8.5405e-08
4.37365e-08
2.51527e-08
1.53375e-08
1.03052e-08
7.73978e-09
7.11083e-09
9.09037e-09
1.81818e-08
4.69889e-08
1.26337e-07
3.1974e-07
7.37949e-07
1.54676e-06
3.20446e-08
1.11873e-08
5.14519e-09
2.88478e-09
1.91048e-09
1.48004e-09
1.61916e-09
3.04669e-09
8.71777e-09
2.72163e-08
8.02313e-08
2.14517e-07
5.15138e-07
1.11295e-06
1.85098e-08
4.49275e-09
1.24088e-09
4.94956e-10
2.96845e-10
2.62225e-10
4.60002e-10
1.4158e-09
5.02514e-09
1.69087e-08
5.1669e-08
1.42291e-07
3.52588e-07
7.89852e-07
1.7281e-08
3.85402e-09
7.52714e-10
1.50744e-10
5.14435e-11
6.26844e-11
2.06553e-10
8.35095e-10
3.20896e-09
1.11449e-08
3.47896e-08
9.79046e-08
2.49567e-07
5.81668e-07
1.97372e-08
4.3026e-09
7.7971e-10
1.19424e-10
2.14263e-11
3.01369e-11
1.30795e-10
5.66674e-10
2.228e-09
7.86021e-09
2.49409e-08
7.16483e-08
1.87841e-07
4.54178e-07
2.50659e-08
5.22683e-09
8.87115e-10
1.27532e-10
2.51744e-11
3.16582e-11
1.12774e-10
4.60479e-10
1.78519e-09
6.30296e-09
2.01648e-08
5.87127e-08
1.56713e-07
3.87058e-07
3.38569e-08
6.65438e-09
1.06781e-09
1.83486e-10
8.48979e-11
1.00654e-10
1.88152e-10
5.37324e-10
1.83578e-09
6.21747e-09
1.95969e-08
5.66685e-08
1.50782e-07
3.71258e-07
4.67151e-08
8.81993e-09
1.52618e-09
4.90304e-10
4.35408e-10
5.17428e-10
6.9026e-10
1.21059e-09
2.95718e-09
8.54787e-09
2.49439e-08
6.87155e-08
1.76304e-07
4.20567e-07
6.62036e-08
1.32356e-08
3.25361e-09
1.89841e-09
2.03165e-09
2.4427e-09
3.05633e-09
4.31087e-09
7.58899e-09
1.68301e-08
4.17761e-08
1.04127e-07
2.47886e-07
5.57074e-07
1.02401e-07
2.60564e-08
9.94338e-09
7.32688e-09
7.99782e-09
9.70881e-09
1.21713e-08
1.62696e-08
2.44405e-08
4.33695e-08
8.85391e-08
1.92261e-07
4.13799e-07
8.5909e-07
1.85678e-07
6.55373e-08
3.23758e-08
2.50011e-08
2.67482e-08
3.26429e-08
4.15001e-08
5.51235e-08
7.78885e-08
1.21229e-07
2.10288e-07
3.95661e-07
7.62962e-07
1.45711e-06
3.74974e-07
1.70356e-07
9.50242e-08
7.38454e-08
7.7038e-08
9.41394e-08
1.21599e-07
1.628e-07
2.25415e-07
3.28196e-07
5.09499e-07
8.44513e-07
1.45666e-06
2.5441e-06
7.76367e-07
4.0961e-07
2.43189e-07
1.9024e-07
1.94318e-07
2.36139e-07
3.08385e-07
4.16825e-07
5.73579e-07
8.05231e-07
1.15734e-06
1.71443e-06
2.62632e-06
4.15024e-06
1.56888e-07
1.10744e-07
7.45957e-08
4.84285e-08
3.19849e-08
2.1931e-08
1.65997e-08
1.45987e-08
1.78098e-08
3.33348e-08
8.18994e-08
2.10203e-07
5.0948e-07
1.13643e-06
4.38841e-08
2.63974e-08
1.67915e-08
1.05101e-08
6.81605e-09
4.62758e-09
3.59006e-09
3.50387e-09
5.78003e-09
1.55494e-08
4.81044e-08
1.40584e-07
3.68888e-07
8.61678e-07
1.3642e-08
5.62791e-09
3.02615e-09
1.79074e-09
1.14083e-09
7.78459e-10
6.66573e-10
9.4704e-10
2.66717e-09
9.54037e-09
3.26379e-08
9.95694e-08
2.68112e-07
6.38858e-07
8.87668e-09
2.1892e-09
6.31097e-10
2.64656e-10
1.51324e-10
1.09271e-10
1.39718e-10
4.0471e-10
1.64516e-09
6.4563e-09
2.26006e-08
6.98679e-08
1.91378e-07
4.68208e-07
1.03678e-08
2.2123e-09
4.07815e-10
7.57311e-11
2.15322e-11
1.78831e-11
5.34515e-11
2.49745e-10
1.13172e-09
4.54555e-09
1.60599e-08
5.01713e-08
1.39893e-07
3.52794e-07
1.33955e-08
2.71858e-09
4.56796e-10
6.42559e-11
8.98744e-12
7.19315e-12
3.44709e-11
1.77741e-10
8.15323e-10
3.28359e-09
1.16781e-08
3.70145e-08
1.0573e-07
2.75628e-07
1.84105e-08
3.53021e-09
5.47936e-10
7.11224e-11
1.15158e-11
9.51026e-12
3.0796e-11
1.40294e-10
6.24847e-10
2.50659e-09
8.99069e-09
2.90118e-08
8.49898e-08
2.28e-07
2.61621e-08
4.70464e-09
6.76336e-10
1.00667e-10
4.22034e-11
4.51246e-11
6.75609e-11
1.65457e-10
5.85934e-10
2.21369e-09
7.86986e-09
2.55594e-08
7.57346e-08
2.05548e-07
3.72221e-08
6.34917e-09
9.35274e-10
2.58218e-10
2.30692e-10
2.71657e-10
3.34066e-10
4.84129e-10
1.00578e-09
2.89272e-09
9.23706e-09
2.85616e-08
8.20202e-08
2.17361e-07
5.34035e-08
9.1731e-09
1.80527e-09
1.00144e-09
1.13231e-09
1.38375e-09
1.69814e-09
2.19162e-09
3.28937e-09
6.42473e-09
1.58101e-08
4.23207e-08
1.11041e-07
2.76261e-07
7.97805e-08
1.62385e-08
5.14736e-09
3.95533e-09
4.66128e-09
5.82953e-09
7.32794e-09
9.43742e-09
1.29583e-08
2.03601e-08
3.85164e-08
8.42917e-08
1.92515e-07
4.3408e-07
1.3456e-07
3.7903e-08
1.66948e-08
1.38482e-08
1.61906e-08
2.05914e-08
2.65232e-08
3.46928e-08
4.67439e-08
6.71827e-08
1.07843e-07
1.97362e-07
3.8941e-07
7.87691e-07
2.55705e-07
9.84776e-08
5.05325e-08
4.21244e-08
4.81733e-08
6.18725e-08
8.14317e-08
1.08448e-07
1.46409e-07
2.0357e-07
2.99478e-07
4.80465e-07
8.31205e-07
1.51454e-06
5.30063e-07
2.49676e-07
1.36236e-07
1.1256e-07
1.2535e-07
1.6094e-07
2.14957e-07
2.90826e-07
3.95557e-07
5.42364e-07
7.55388e-07
1.08768e-06
1.64547e-06
2.66773e-06
6.1075e-08
4.24877e-08
2.95357e-08
1.9517e-08
1.29937e-08
8.68036e-09
6.38142e-09
5.28963e-09
5.74348e-09
9.81268e-09
2.46191e-08
6.93773e-08
1.89402e-07
4.77969e-07
1.47253e-08
8.63192e-09
5.75263e-09
3.67366e-09
2.4071e-09
1.57506e-09
1.15786e-09
1.00906e-09
1.43354e-09
3.84308e-09
1.3267e-08
4.44015e-08
1.33583e-07
3.55468e-07
4.76552e-09
1.70211e-09
8.87959e-10
5.24461e-10
3.35017e-10
2.16859e-10
1.68646e-10
2.05676e-10
5.79287e-10
2.357e-09
9.30119e-09
3.24997e-08
9.93486e-08
2.65812e-07
4.51041e-09
9.68557e-10
2.16085e-10
7.04954e-11
3.59275e-11
2.30275e-11
2.56452e-11
7.68308e-11
3.66693e-10
1.68585e-09
6.79608e-09
2.38181e-08
7.28771e-08
1.96215e-07
6.18698e-09
1.21727e-09
2.02111e-10
3.02981e-11
5.51361e-12
2.82193e-12
8.75304e-12
4.96531e-11
2.67615e-10
1.25154e-09
5.05447e-09
1.77322e-08
5.45981e-08
1.49952e-07
8.5823e-09
1.59982e-09
2.47923e-10
3.14508e-11
3.59271e-12
1.28158e-12
6.00481e-12
3.68771e-11
1.99568e-10
9.30876e-10
3.76e-09
1.32866e-08
4.17184e-08
1.18818e-07
1.24458e-08
2.18622e-09
3.12e-10
3.63861e-11
5.17424e-12
3.09494e-12
6.89749e-12
3.05016e-11
1.53618e-10
7.06508e-10
2.8672e-09
1.03326e-08
3.36109e-08
1.00385e-07
1.83662e-08
3.02407e-09
3.94582e-10
5.06194e-11
1.98049e-11
2.11093e-11
2.67014e-11
4.71895e-11
1.46247e-10
5.91698e-10
2.37496e-09
8.7766e-09
2.96775e-08
9.23213e-08
2.68609e-08
4.17334e-09
5.33691e-10
1.2313e-10
1.13962e-10
1.40339e-10
1.69056e-10
2.12003e-10
3.37023e-10
8.34184e-10
2.78299e-09
9.77754e-09
3.26024e-08
1.00735e-07
3.92736e-08
6.00253e-09
9.50939e-10
4.80143e-10
5.88502e-10
7.57648e-10
9.38973e-10
1.15791e-09
1.52055e-09
2.46478e-09
5.56421e-09
1.57821e-08
4.68154e-08
1.33997e-07
5.84967e-08
1.02081e-08
2.5945e-09
1.98263e-09
2.53618e-09
3.34077e-09
4.27018e-09
5.40016e-09
6.96136e-09
9.82307e-09
1.68316e-08
3.65042e-08
8.92971e-08
2.23503e-07
9.7098e-08
2.34161e-08
8.72905e-09
7.34014e-09
9.1768e-09
1.22391e-08
1.60666e-08
2.08646e-08
2.71712e-08
3.68612e-08
5.52706e-08
9.81554e-08
1.99165e-07
4.32414e-07
1.8115e-07
6.25711e-08
2.84094e-08
2.38585e-08
2.85538e-08
3.80623e-08
5.09427e-08
6.7705e-08
8.96455e-08
1.20906e-07
1.70883e-07
2.66562e-07
4.63592e-07
8.84963e-07
3.75519e-07
1.68542e-07
8.35313e-08
6.88585e-08
7.84522e-08
1.0303e-07
1.39053e-07
1.87986e-07
2.53114e-07
3.43327e-07
4.72097e-07
6.71425e-07
1.00549e-06
1.64938e-06
1.38698e-08
8.95183e-09
6.35355e-09
4.42456e-09
3.12087e-09
2.21792e-09
1.66688e-09
1.32785e-09
1.22206e-09
1.66428e-09
3.99908e-09
1.26433e-08
4.05253e-08
1.20647e-07
3.25849e-09
1.52622e-09
9.94083e-10
6.68546e-10
4.61626e-10
3.24046e-10
2.43358e-10
1.97213e-10
2.19125e-10
5.22039e-10
2.03587e-09
8.09515e-09
2.88461e-08
9.0299e-08
1.76801e-09
4.17328e-10
1.40922e-10
7.49547e-11
4.83272e-11
3.33558e-11
2.57286e-11
2.67146e-11
6.84559e-11
3.21344e-10
1.52084e-09
6.30957e-09
2.26523e-08
7.06831e-08
2.46477e-09
4.79497e-10
7.68843e-11
1.40053e-11
4.32652e-12
2.45455e-12
2.48471e-12
7.69619e-12
4.46111e-11
2.49778e-10
1.20537e-09
4.98484e-09
1.7779e-08
5.51477e-08
3.62652e-09
6.75148e-10
9.94329e-11
1.30103e-11
1.52971e-12
2.9164e-13
7.33014e-13
5.31858e-12
3.5592e-11
2.01752e-10
9.70342e-10
3.99236e-09
1.41861e-08
4.40761e-08
5.1981e-09
9.15373e-10
1.25491e-10
1.47473e-11
1.50444e-12
2.64057e-13
6.35907e-13
4.36404e-12
2.86988e-11
1.61229e-10
7.70551e-10
3.16051e-09
1.12743e-08
3.56758e-08
7.67334e-09
1.27439e-09
1.59429e-10
1.69766e-11
2.30675e-12
1.31271e-12
1.7553e-12
4.81343e-12
2.41115e-11
1.28342e-10
6.07587e-10
2.51304e-09
9.21362e-09
3.06571e-08
1.13515e-08
1.77267e-09
2.02028e-10
2.34943e-11
9.78557e-12
1.11168e-11
1.33095e-11
1.71962e-11
3.37304e-11
1.18591e-10
5.13166e-10
2.14356e-09
8.22436e-09
2.9086e-08
1.65562e-08
2.44292e-09
2.7244e-10
5.93094e-11
6.01375e-11
7.82582e-11
9.57906e-11
1.14148e-10
1.44732e-10
2.48579e-10
6.92217e-10
2.53148e-09
9.50512e-09
3.38074e-08
2.45347e-08
3.5126e-09
4.83717e-10
2.40711e-10
3.1655e-10
4.27927e-10
5.41427e-10
6.60672e-10
8.03433e-10
1.07205e-09
1.87671e-09
4.81329e-09
1.50872e-08
4.8696e-08
3.73561e-08
5.93227e-09
1.33271e-09
1.02541e-09
1.37707e-09
1.88861e-09
2.45714e-09
3.08654e-09
3.81346e-09
4.88046e-09
7.08283e-09
1.34123e-08
3.23535e-08
8.75115e-08
6.08e-08
1.34342e-08
4.64176e-09
3.96955e-09
5.08424e-09
6.9582e-09
9.24912e-09
1.19238e-08
1.5058e-08
1.92804e-08
2.61576e-08
4.15613e-08
8.01333e-08
1.79997e-07
1.05765e-07
3.60229e-08
1.60181e-08
1.38088e-08
1.65307e-08
2.21115e-08
2.96339e-08
3.89165e-08
5.01592e-08
6.50174e-08
8.63149e-08
1.24645e-07
2.04229e-07
3.92028e-07
2.11663e-07
1.00816e-07
5.09987e-08
4.35097e-08
4.87133e-08
6.26126e-08
8.31785e-08
1.10083e-07
1.44131e-07
1.89522e-07
2.50732e-07
3.42431e-07
4.91803e-07
7.9633e-07
1.77518e-09
9.37454e-10
6.40416e-10
4.56663e-10
3.33246e-10
2.52437e-10
2.07428e-10
1.74684e-10
1.50989e-10
1.60812e-10
3.37712e-10
1.19103e-09
4.54469e-09
1.61564e-08
6.15987e-10
1.65369e-10
7.63389e-11
4.90845e-11
3.48523e-11
2.62942e-11
2.18876e-11
1.88253e-11
1.88696e-11
3.88484e-11
1.68544e-10
7.98337e-10
3.37672e-09
1.24665e-08
6.85355e-10
1.34577e-10
2.3345e-11
5.47417e-12
2.54486e-12
1.75395e-12
1.4916e-12
1.60729e-12
4.29798e-12
2.39522e-11
1.36412e-10
6.74266e-10
2.86033e-09
1.04818e-08
1.09755e-09
2.1229e-10
3.27236e-11
4.30044e-12
5.76616e-13
1.14677e-13
9.27478e-14
3.89183e-13
2.91474e-12
2.00232e-11
1.16441e-10
5.7429e-10
2.42199e-09
8.80925e-09
1.65534e-09
3.03857e-10
4.52738e-11
5.57654e-12
6.26789e-13
6.12893e-14
3.633e-14
3.02785e-13
2.52431e-12
1.75252e-11
1.01837e-10
5.00464e-10
2.09999e-09
7.59389e-09
2.4486e-09
4.1789e-10
5.79723e-11
6.46764e-12
6.80207e-13
9.33048e-14
7.12973e-14
2.99959e-13
2.20221e-12
1.50414e-11
8.70393e-11
4.26217e-10
1.78216e-09
6.43613e-09
3.65476e-09
5.81187e-10
7.38834e-11
7.50456e-12
1.02951e-12
5.42195e-13
5.84668e-13
8.07489e-13
2.40878e-12
1.31234e-11
7.30294e-11
3.55305e-10
1.49289e-09
5.49665e-09
5.34113e-09
8.01044e-10
9.28816e-11
1.00983e-11
3.90761e-12
4.35891e-12
5.0745e-12
5.72882e-12
7.36171e-12
1.64487e-11
6.62421e-11
3.04193e-10
1.29814e-09
5.02092e-09
7.54898e-09
1.1192e-09
1.22309e-10
2.27677e-11
2.19384e-11
2.87093e-11
3.46015e-11
3.95172e-11
4.46346e-11
5.70856e-11
1.11464e-10
3.67633e-10
1.46748e-09
5.78229e-09
1.0526e-08
1.61997e-09
2.05324e-10
8.59064e-11
1.12418e-10
1.5294e-10
1.89682e-10
2.22961e-10
2.54349e-10
2.97048e-10
4.03913e-10
8.23927e-10
2.5087e-09
8.86281e-09
1.48068e-08
2.64629e-09
5.31728e-10
3.64363e-10
4.91798e-10
6.77085e-10
8.6125e-10
1.04106e-09
1.21642e-09
1.42342e-09
1.77175e-09
2.76666e-09
6.13605e-09
1.75382e-08
2.26676e-08
5.66315e-09
1.83456e-09
1.46075e-09
1.86889e-09
2.55268e-09
3.31031e-09
4.10305e-09
4.91239e-09
5.84631e-09
7.14705e-09
9.89499e-09
1.73851e-08
3.98442e-08
3.9489e-08
1.47767e-08
6.57275e-09
5.39513e-09
6.37446e-09
8.42269e-09
1.09826e-08
1.38704e-08
1.6989e-08
2.06513e-08
2.53695e-08
3.32731e-08
5.01535e-08
9.53643e-08
8.32736e-08
4.17299e-08
2.23418e-08
1.84378e-08
2.01589e-08
2.51954e-08
3.23113e-08
4.10238e-08
5.11316e-08
6.34973e-08
7.91505e-08
1.01728e-07
1.38412e-07
2.21141e-07
2.16388e-10
6.59932e-11
3.56256e-11
2.45292e-11
1.85628e-11
1.52639e-11
1.41551e-11
1.32113e-11
1.18815e-11
1.1185e-11
2.06478e-11
8.37252e-11
3.83244e-10
1.59895e-09
1.47064e-10
2.66428e-11
5.31425e-12
1.79079e-12
1.11412e-12
9.14926e-13
8.89916e-13
8.75724e-13
9.46673e-13
2.15477e-12
1.12803e-11
6.32294e-11
3.10478e-10
1.31611e-09
2.25592e-10
4.31487e-11
7.04445e-12
9.82361e-13
1.44827e-13
4.0546e-14
3.29239e-14
4.83401e-14
2.02421e-13
1.4601e-12
9.88075e-12
5.69336e-11
2.79185e-10
1.17379e-09
3.60167e-10
6.83044e-11
1.12223e-11
1.53799e-12
1.85469e-13
1.93272e-14
3.38529e-15
1.60198e-14
1.54216e-13
1.27135e-12
8.73482e-12
5.04517e-11
2.47474e-10
1.03886e-09
5.22224e-10
9.63987e-11
1.51496e-11
1.98681e-12
2.2608e-13
2.23254e-14
3.6725e-15
1.43205e-14
1.36768e-13
1.1371e-12
7.86795e-12
4.56447e-11
2.24263e-10
9.4064e-10
7.31754e-10
1.3103e-10
1.88942e-11
2.26889e-12
2.42221e-13
3.24172e-14
1.61878e-14
2.56026e-14
1.31776e-13
1.0096e-12
6.96173e-12
4.05203e-11
1.99456e-10
8.36154e-10
1.02751e-09
1.78692e-10
2.33453e-11
2.5693e-12
3.26897e-13
1.44948e-13
1.48288e-13
1.63781e-13
2.55868e-13
1.01441e-12
6.1852e-12
3.54005e-11
1.73943e-10
7.30998e-10
1.41403e-09
2.38707e-10
2.84539e-11
3.20091e-12
9.82337e-13
1.03285e-12
1.19767e-12
1.30336e-12
1.42343e-12
2.08919e-12
6.49641e-12
3.14358e-11
1.50737e-10
6.42659e-10
1.88283e-09
3.0946e-10
3.54141e-11
5.99065e-12
5.04308e-12
6.5907e-12
7.8917e-12
8.78116e-12
9.39794e-12
1.04307e-11
1.51165e-11
4.05835e-11
1.62887e-10
6.86001e-10
2.46149e-09
4.06318e-10
5.31391e-11
1.98935e-11
2.57998e-11
3.53378e-11
4.32233e-11
4.92619e-11
5.37402e-11
5.83501e-11
6.80659e-11
1.09362e-10
2.92418e-10
1.056e-09
3.26601e-09
6.06108e-10
1.22682e-10
8.24605e-11
1.15746e-10
1.60731e-10
2.00479e-10
2.33811e-10
2.60844e-10
2.87471e-10
3.24913e-10
4.31514e-10
8.20399e-10
2.2952e-09
4.84757e-09
1.23686e-09
4.10285e-10
3.35509e-10
4.54203e-10
6.28882e-10
7.98163e-10
9.51756e-10
1.08596e-09
1.22182e-09
1.38775e-09
1.72228e-09
2.66556e-09
5.85862e-09
8.76478e-09
3.30586e-09
1.50656e-09
1.27291e-09
1.59414e-09
2.15269e-09
2.7599e-09
3.35887e-09
3.92105e-09
4.51358e-09
5.2091e-09
6.31351e-09
8.62683e-09
1.55138e-08
1.99111e-08
9.76941e-09
5.36388e-09
4.51205e-09
5.16035e-09
6.61109e-09
8.4154e-09
1.03839e-08
1.23931e-08
1.46152e-08
1.72325e-08
2.08882e-08
2.65677e-08
4.05527e-08
4.30934e-11
8.60308e-12
2.64338e-12
1.44629e-12
1.07649e-12
9.62166e-13
9.98908e-13
1.02516e-12
9.85287e-13
9.36243e-13
1.76333e-12
8.35737e-12
4.36597e-11
2.01426e-10
3.85344e-11
7.30882e-12
1.21804e-12
1.93575e-13
4.95257e-14
3.48616e-14
4.15684e-14
5.08083e-14
6.52904e-14
1.75883e-13
1.06375e-12
6.71012e-12
3.65315e-11
1.70021e-10
6.25633e-11
1.27066e-11
2.22337e-12
3.27695e-13
4.32599e-14
5.53703e-15
1.8194e-15
3.04507e-15
1.51626e-14
1.23018e-13
9.35889e-13
6.04528e-12
3.30226e-11
1.53581e-10
9.49675e-11
1.91154e-11
3.37851e-12
5.01024e-13
6.48282e-14
7.11589e-15
8.33275e-16
1.19526e-15
1.1396e-14
1.05579e-13
8.19989e-13
5.3388e-12
2.9372e-11
1.37683e-10
1.31255e-10
2.55476e-11
4.3737e-12
6.22572e-13
7.67188e-14
8.17051e-15
1.14105e-15
1.3157e-15
1.0153e-14
9.33452e-14
7.34059e-13
4.83569e-12
2.68621e-11
1.26878e-10
1.75703e-10
3.27291e-11
5.23693e-12
6.89463e-13
8.04338e-14
1.091e-14
4.8011e-15
5.05244e-15
1.25732e-14
8.49287e-14
6.5075e-13
4.3201e-12
2.42271e-11
1.15318e-10
2.34614e-10
4.19863e-11
6.18016e-12
7.53708e-13
1.00104e-13
3.88753e-14
3.83055e-14
4.04395e-14
4.70565e-14
1.08865e-13
6.02227e-13
3.83202e-12
2.14783e-11
1.02674e-10
3.07568e-10
5.28708e-11
7.20838e-12
8.92751e-13
2.50761e-13
2.4565e-13
2.83803e-13
3.05877e-13
3.19662e-13
3.74166e-13
7.97279e-13
3.58214e-12
1.88428e-11
8.96811e-11
3.92179e-10
6.51e-11
8.58371e-12
1.51182e-12
1.16209e-12
1.49479e-12
1.78358e-12
1.96403e-12
2.06868e-12
2.17667e-12
2.6287e-12
5.41897e-12
2.04026e-11
9.07186e-11
4.93273e-10
8.16906e-11
1.21127e-11
4.56194e-12
5.78901e-12
7.88717e-12
9.56876e-12
1.07544e-11
1.15461e-11
1.21943e-11
1.32381e-11
1.77695e-11
3.93102e-11
1.36769e-10
6.33455e-10
1.17443e-10
2.59971e-11
1.81584e-11
2.59708e-11
3.59843e-11
4.4329e-11
5.08141e-11
5.56336e-11
5.97901e-11
6.45399e-11
7.72167e-11
1.2409e-10
3.17579e-10
9.33734e-10
2.3717e-10
8.36226e-11
7.26652e-11
1.028e-10
1.43002e-10
1.78884e-10
2.09044e-10
2.33303e-10
2.55562e-10
2.79198e-10
3.23484e-10
4.43727e-10
8.90691e-10
1.77151e-09
6.49331e-10
3.04895e-10
2.72285e-10
3.62845e-10
4.99484e-10
6.33334e-10
7.54648e-10
8.59131e-10
9.60366e-10
1.06769e-09
1.22927e-09
1.54154e-09
2.56263e-09
4.26139e-09
1.97739e-09
1.09092e-09
9.54066e-10
1.16768e-09
1.55483e-09
1.98155e-09
2.40311e-09
2.79329e-09
3.19098e-09
3.62232e-09
4.20709e-09
5.03285e-09
7.2379e-09
1.00658e-11
1.92342e-12
4.1891e-13
1.61252e-13
1.12931e-13
1.12766e-13
1.32666e-13
1.50268e-13
1.54136e-13
1.42312e-13
2.05681e-13
9.25566e-13
5.16e-12
2.52614e-11
1.03236e-11
2.13109e-12
3.73369e-13
5.77695e-14
1.04421e-14
5.40997e-15
7.11277e-15
9.84022e-15
1.26313e-14
2.32862e-14
1.17192e-13
7.67186e-13
4.44759e-12
2.19503e-11
1.69617e-11
3.68904e-12
6.80185e-13
1.06404e-13
1.48377e-14
1.9668e-15
5.89132e-16
7.3551e-16
1.98648e-15
1.29978e-14
1.01706e-13
7.00114e-13
4.08493e-12
2.02357e-11
2.53131e-11
5.47419e-12
1.01835e-12
1.59718e-13
2.18814e-14
2.5713e-15
3.49362e-16
2.29238e-16
1.20004e-15
1.08855e-14
8.97756e-14
6.2636e-13
3.69356e-12
1.85356e-11
3.42987e-11
7.20845e-12
1.30312e-12
1.96621e-13
2.5748e-14
2.91482e-15
4.29036e-16
2.76644e-16
1.10563e-15
9.67086e-15
8.07534e-14
5.71935e-13
3.42059e-12
1.73945e-11
4.47489e-11
8.99393e-12
1.53257e-12
2.15307e-13
2.6659e-14
3.49178e-15
1.26692e-15
1.15402e-15
1.84105e-15
9.26109e-15
7.23481e-14
5.15752e-13
3.12771e-12
1.61235e-11
5.80611e-11
1.11202e-11
1.76966e-12
2.31302e-13
3.05957e-14
9.47716e-15
8.57267e-15
8.82646e-15
9.35656e-15
1.54407e-14
7.05088e-14
4.64296e-13
2.81239e-12
1.46165e-11
7.40102e-11
1.35083e-11
2.02154e-12
2.62879e-13
6.20958e-14
5.31843e-14
6.04777e-14
6.42681e-14
6.55006e-14
6.9646e-14
1.15799e-13
4.56575e-13
2.50318e-12
1.28481e-11
9.18651e-11
1.60676e-11
2.33951e-12
3.95246e-13
2.53664e-13
3.15449e-13
3.73566e-13
4.05089e-13
4.18264e-13
4.2431e-13
4.67941e-13
8.00122e-13
2.75877e-12
1.2627e-11
1.12432e-10
1.9362e-11
3.08721e-12
1.04153e-12
1.23672e-12