/*--------------------------------*- C++ -*----------------------------------*\
| =========                 |                                                 |
| \\      /  F ield         | OpenFOAM: The Open Source CFD Toolbox           |
|  \\    /   O peration     | Version:  v2106                                 |
|   \\  /    A nd           | Website:  www.openfoam.com                      |
|    \\/     M anipulation  |                                                 |
\*---------------------------------------------------------------------------*/
FoamFile
{
    version     2.0;
    format      ascii;
    arch        "LSB;label=32;scalar=64";
    class       volScalarField;
    location    "0.000185";
    object      rho;
}
// * * * * * * * * * * * * * * * * * * * * * * * * * * * * * * * * * * * * * //

dimensions      [1 -3 0 0 0 0 0];

internalField   nonuniform List<scalar> 
18109
(
2.47346
2.47104
2.46903
2.46723
2.46541
2.46314
2.46065
2.47184
2.46914
2.46665
2.46447
2.46227
2.45974
2.45695
2.46884
2.46584
2.46339
2.46118
2.45892
2.45635
2.45349
2.4651
2.46217
2.45978
2.45756
2.45524
2.45261
2.44969
2.46085
2.4582
2.45589
2.45366
2.45124
2.44851
2.44555
2.45659
2.45422
2.45187
2.44949
2.44687
2.444
2.44098
2.4523
2.44994
2.4475
2.44494
2.44215
2.43921
2.43623
2.44781
2.44529
2.44278
2.44009
2.43723
2.43426
2.43135
2.47949
2.47726
2.47584
2.47466
2.47363
2.47225
2.47035
2.46779
2.46495
2.46182
2.45876
2.4553
2.45157
2.44599
2.47774
2.4754
2.47364
2.47225
2.47094
2.46924
2.46697
2.46405
2.46067
2.45695
2.45339
2.4498
2.44635
2.44176
2.47464
2.47226
2.47064
2.46918
2.46774
2.46589
2.46343
2.46033
2.45689
2.45328
2.44991
2.44651
2.44297
2.43861
2.47081
2.46879
2.46721
2.46569
2.46404
2.46196
2.45933
2.45618
2.45274
2.44921
2.44589
2.44267
2.43917
2.43504
2.4667
2.46496
2.4633
2.46167
2.45981
2.45753
2.45482
2.45177
2.44857
2.44532
2.44217
2.43902
2.43549
2.43142
2.46254
2.46097
2.45918
2.45733
2.45517
2.4527
2.44993
2.44696
2.44397
2.44093
2.43794
2.43481
2.43128
2.42724
2.45826
2.45655
2.45461
2.45253
2.45018
2.44765
2.44492
2.44211
2.43935
2.43653
2.43363
2.43054
2.42704
2.42315
2.45356
2.45163
2.44959
2.44739
2.44497
2.44247
2.43986
2.43721
2.43464
2.432
2.42904
2.42606
2.42245
2.41875
2.44846
2.44635
2.44418
2.44194
2.43959
2.43727
2.4349
2.43248
2.43002
2.42747
2.42439
2.42137
2.41774
2.41436
2.44291
2.44061
2.43847
2.43636
2.43427
2.4322
2.43017
2.42799
2.42562
2.42314
2.42001
2.41702
2.41316
2.41027
2.43746
2.43491
2.43273
2.43076
2.42901
2.42726
2.42557
2.42368
2.42144
2.41902
2.41591
2.41275
2.4087
2.40654
2.43189
2.42919
2.42734
2.42551
2.42402
2.42249
2.42101
2.4194
2.4173
2.41497
2.41197
2.40883
2.40496
2.40284
2.4267
2.42421
2.42252
2.42075
2.41944
2.41801
2.41656
2.41509
2.41312
2.41091
2.40805
2.40482
2.40088
2.39865
2.42188
2.4202
2.41898
2.41733
2.41582
2.41418
2.41244
2.41081
2.40874
2.4066
2.40388
2.40108
2.39747
2.39405
2.47356
2.47441
2.47507
2.47674
2.47886
2.4845
2.47941
2.48028
2.48066
2.48175
2.48306
2.48739
2.47863
2.4793
2.47948
2.47995
2.48155
2.487
2.47766
2.47874
2.47922
2.47997
2.48305
2.48933
2.47699
2.47886
2.48037
2.48238
2.487
2.49409
2.47652
2.47936
2.48231
2.48602
2.49227
2.50012
2.47565
2.47949
2.48393
2.48937
2.49684
2.50509
2.47441
2.47952
2.48528
2.49215
2.50114
2.5109
2.47238
2.47842
2.48541
2.4936
2.50385
2.51455
2.46983
2.47612
2.4838
2.49278
2.50309
2.51397
2.46664
2.47266
2.47993
2.48843
2.49764
2.50798
2.46306
2.46832
2.4744
2.48119
2.48815
2.49738
2.45881
2.46264
2.46651
2.471
2.47592
2.48323
2.45423
2.45673
2.45813
2.4598
2.46179
2.46665
2.44801
2.44741
2.44638
2.44565
2.44639
2.45118
2.44161
2.44006
2.43782
2.43716
2.43762
2.44175
2.43775
2.43417
2.43044
2.4287
2.42977
2.43412
2.43394
2.4301
2.42601
2.42442
2.42581
2.42937
2.42996
2.42586
2.42202
2.42103
2.42273
2.42513
2.4265
2.42253
2.41907
2.41864
2.4204
2.42219
2.42245
2.41884
2.41609
2.41604
2.41784
2.41946
2.41867
2.41541
2.41338
2.41358
2.41534
2.41759
2.41464
2.41163
2.41026
2.41028
2.41205
2.41462
2.41055
2.40776
2.40658
2.40644
2.40711
2.40935
2.40642
2.40374
2.40202
2.40121
2.40037
2.40209
2.40247
2.39978
2.39716
2.39515
2.39325
2.39348
2.39849
2.39531
2.39142
2.38791
2.38506
2.38452
2.39526
2.39138
2.38731
2.38372
2.38049
2.37953
2.38954
2.38407
2.37875
2.3746
2.37339
2.375
2.38935
2.38439
2.38035
2.37709
2.37653
2.37786
2.39248
2.38645
2.38154
2.37901
2.37901
2.38095
2.39602
2.38993
2.38557
2.38316
2.38401
2.38678
2.39892
2.39309
2.38912
2.38737
2.38922
2.39255
2.40197
2.39674
2.39356
2.39315
2.39596
2.39973
2.40436
2.39998
2.39763
2.39868
2.40206
2.40648
2.40683
2.40365
2.40246
2.40486
2.40876
2.41331
2.40898
2.40701
2.40712
2.40972
2.41357
2.41836
2.41135
2.41023
2.41112
2.41399
2.41696
2.4212
2.41334
2.41281
2.41371
2.4162
2.41799
2.42094
2.41493
2.41462
2.41522
2.41659
2.41723
2.41843
2.41638
2.41595
2.41568
2.41534
2.41469
2.41451
2.41776
2.4169
2.41556
2.41405
2.41251
2.41177
2.41907
2.41745
2.41485
2.41278
2.41147
2.41174
2.46876
2.47563
2.48279
2.49083
2.49837
2.50931
2.47189
2.47791
2.4834
2.48954
2.49453
2.50271
2.47379
2.47832
2.48177
2.48536
2.4884
2.4942
2.47667
2.47909
2.47979
2.48048
2.48263
2.48731
2.42061
2.41877
2.4176
2.4163
2.41584
2.41748
2.427
2.42524
2.42428
2.42333
2.42383
2.42718
2.43277
2.43148
2.43164
2.43165
2.43392
2.43872
2.43917
2.43869
2.43994
2.44142
2.44506
2.4512
2.44516
2.44582
2.4484
2.45176
2.45707
2.46507
2.45084
2.45266
2.45652
2.46193
2.46911
2.47869
2.45599
2.45899
2.46409
2.47125
2.48035
2.49176
2.46083
2.46484
2.47077
2.47921
2.49001
2.50235
2.46531
2.47013
2.47672
2.48606
2.49744
2.50974
2.4696
2.47512
2.48195
2.49105
2.50123
2.51322
2.47354
2.47935
2.48583
2.49361
2.5014
2.51205
2.47689
2.48233
2.4876
2.49362
2.4991
2.50704
2.47923
2.48369
2.48708
2.49093
2.49403
2.49946
2.48179
2.48447
2.48531
2.48668
2.48786
2.49176
2.5007
2.52406
2.56821
2.66405
2.84366
2.49872
2.51906
2.55639
2.65443
2.84312
2.49975
2.51669
2.5519
2.65961
2.88216
2.50437
2.5188
2.5525
2.65808
2.8742
2.51086
2.52631
2.56604
2.67344
2.87074
2.51646
2.53583
2.5832
2.70088
2.89507
2.52501
2.55016
2.60806
2.7421
2.96004
2.53094
2.56094
2.62948
2.76726
2.96845
3.17917
2.5322
2.56832
2.64534
2.77855
2.9552
3.14075
2.52746
2.56829
2.65057
2.77713
2.94159
3.11918
2.5174
2.56017
2.64503
2.76362
2.93424
3.12409
3.26598
2.50139
2.54528
2.62361
2.74131
2.93298
3.16003
3.38815
3.5456
2.485
2.52516
2.5925
2.70903
2.93142
3.22132
3.58849
3.95084
2.4695
2.50293
2.55949
2.67234
2.88453
3.18562
3.51569
3.74322
2.45485
2.47986
2.52687
2.63411
2.81403
3.07166
3.32451
3.46087
2.44252
2.46042
2.50156
2.60981
2.80159
3.08048
3.27989
3.40792
2.43342
2.44569
2.48931
2.60138
2.82642
3.16534
3.51392
3.64521
2.42717
2.43735
2.48113
2.59288
2.81372
3.13616
3.46675
3.82509
2.42445
2.43541
2.48514
2.59232
2.78488
3.04072
3.29578
3.43043
2.42348
2.44069
2.50002
2.6158
2.80067
3.03699
3.21164
3.32211
2.42472
2.44962
2.51761
2.64897
2.86093
3.13756
3.38492
3.46338
2.42318
2.45584
2.52714
2.65423
2.84344
3.09122
3.35548
3.67537
2.41917
2.45701
2.52761
2.63455
2.78125
2.9561
2.41397
2.44895
2.51617
2.60812
2.74479
2.91131
2.40313
2.43308
2.49241
2.58589
2.74018
2.93349
2.39221
2.41348
2.46528
2.56836
2.75609
2.98283
2.38364
2.39619
2.43976
2.54433
2.76934
3.07702
2.3788
2.38407
2.41894
2.52101
2.73416
2.37678
2.37668
2.40431
2.49593
2.66851
2.3795
2.37912
2.40124
2.49145
2.66938
2.38651
2.38751
2.41339
2.51046
2.72478
2.3944
2.39841
2.43047
2.52221
2.73222
2.40377
2.41188
2.45389
2.54665
2.73829
2.4131
2.42641
2.47841
2.58203
2.76384
2.42165
2.44119
2.50038
2.6192
2.82428
2.42877
2.45282
2.51028
2.62767
2.81451
2.43148
2.45478
2.50831
2.60873
2.76605
2.42934
2.45163
2.50011
2.58733
2.73764
2.42404
2.44241
2.48678
2.56738
2.72854
2.41875
2.43187
2.47236
2.55221
2.73884
2.41648
2.42542
2.45975
2.53848
2.73736
2.41559
2.42062
2.448
2.52274
2.70787
2.42014
2.42282
2.44334
2.51711
2.67511
2.43014
2.43169
2.44885
2.52894
2.70618
2.44388
2.44731
2.4668
2.55798
2.77875
2.45925
2.46627
2.48996
2.58183
2.79519
2.47619
2.48889
2.52194
2.61434
2.81309
2.49247
2.51141
2.55472
2.65876
2.85145
2.50905
2.53293
2.58698
2.71021
2.92856
2.5215
2.55087
2.61111
2.7451
2.96013
2.53008
2.56302
2.62507
2.75891
2.958
2.53284
2.56611
2.62856
2.75429
2.94644
2.5295
2.56277
2.62245
2.73567
2.9265
2.5214
2.5551
2.61037
2.71456
2.91126
2.51247
2.54486
2.5962
2.69379
2.89593
2.50541
2.53352
2.58231
2.67954
2.87388
2.49014
2.48884
2.4887
2.48897
2.48923
2.48909
2.48836
2.48667
2.48421
2.48108
2.47772
2.47392
2.47021
2.46502
2.48879
2.48756
2.48735
2.48734
2.48731
2.48676
2.48545
2.48316
2.48018
2.47649
2.47261
2.4685
2.46471
2.46011
2.4866
2.4855
2.48528
2.485
2.4846
2.48363
2.48192
2.47936
2.47625
2.47261
2.46894
2.46521
2.46158
2.45702
2.48336
2.48275
2.48232
2.48176
2.48092
2.4796
2.47763
2.47492
2.47177
2.4683
2.4648
2.4614
2.45799
2.45383
2.48
2.47949
2.47878
2.4779
2.47666
2.47502
2.47292
2.47028
2.46735
2.46423
2.46111
2.458
2.45467
2.45073
2.47616
2.47534
2.47442
2.47323
2.47173
2.46994
2.46783
2.46533
2.46267
2.45987
2.45705
2.45413
2.45089
2.44707
2.47176
2.47065
2.46954
2.46815
2.4665
2.46471
2.46272
2.46048
2.45814
2.45566
2.45298
2.45017
2.44687
2.44312
2.46639
2.46533
2.46399
2.46258
2.46095
2.45932
2.45756
2.45565
2.45357
2.45129
2.44858
2.4457
2.44236
2.4386
2.46045
2.45943
2.45794
2.45671
2.45534
2.45402
2.45259
2.45101
2.44912
2.44695
2.44412
2.44106
2.43764
2.43396
2.45413
2.45307
2.45186
2.45078
2.44984
2.44884
2.44777
2.44652
2.44478
2.44266
2.43965
2.43663
2.43257
2.42932
2.448
2.44673
2.44579
2.44493
2.44443
2.44382
2.44304
2.44211
2.44051
2.43839
2.43527
2.43202
2.42753
2.42509
2.44198
2.44067
2.44029
2.43955
2.4393
2.4389
2.43828
2.43761
2.43615
2.43411
2.43105
2.42764
2.42312
2.42082
2.43658
2.43539
2.4352
2.43463
2.43445
2.43413
2.4335
2.43296
2.43158
2.42958
2.42662
2.42288
2.4183
2.4157
2.43202
2.43131
2.43153
2.43081
2.43034
2.42972
2.4288
2.4281
2.42662
2.4247
2.42197
2.41855
2.41416
2.40991
2.51614
2.51529
2.51595
2.51669
2.51751
2.5178
2.5178
2.51703
2.51548
2.51318
2.51074
2.50749
2.50438
2.50008
2.51436
2.51401
2.51459
2.5153
2.51597
2.51618
2.5159
2.51465
2.51262
2.50977
2.50672
2.50295
2.49952
2.49502
2.51285
2.51294
2.51349
2.51405
2.5144
2.51423
2.51347
2.51176
2.50942
2.50641
2.50329
2.49956
2.49612
2.49182
2.51027
2.51078
2.51119
2.51153
2.51151
2.51096
2.50978
2.50782
2.50534
2.50229
2.49913
2.49554
2.49215
2.48808
2.50791
2.50815
2.50829
2.50833
2.50796
2.50709
2.50568
2.50363
2.5012
2.49839
2.49549
2.49216
2.48889
2.48491
2.50456
2.50456
2.50462
2.50439
2.50376
2.50262
2.50113
2.49909
2.49678
2.49419
2.49147
2.48839
2.48522
2.48146
2.50028
2.50024
2.5001
2.49973
2.49899
2.49779
2.49643
2.49459
2.49252
2.49018
2.48758
2.48465
2.4814
2.47786
2.49508
2.49504
2.495
2.49458
2.49394
2.49283
2.49172
2.49015
2.48825
2.48603
2.48334
2.48044
2.47691
2.47357
2.48935
2.48917
2.48924
2.48888
2.48852
2.48775
2.48695
2.48572
2.48399
2.48183
2.47897
2.47612
2.47225
2.46905
2.48325
2.48294
2.48339
2.48311
2.48311
2.4828
2.48225
2.48136
2.47975
2.47756
2.47438
2.47138
2.46695
2.46391
2.47719
2.47662
2.47743
2.47732
2.47765
2.47781
2.4774
2.47677
2.47523
2.47297
2.46957
2.46644
2.46159
2.45943
2.47139
2.47088
2.47191
2.47194
2.47242
2.47285
2.47254
2.47213
2.47067
2.46842
2.46503
2.46147
2.45632
2.45405
2.46587
2.46529
2.46642
2.4668
2.46724
2.46773
2.46738
2.46698
2.46547
2.46308
2.45962
2.45565
2.45064
2.44806
2.46103
2.46141
2.46224
2.46245
2.46239
2.46268
2.46209
2.46149
2.45988
2.45752
2.45423
2.45014
2.44524
2.44098
2.55594
2.55532
2.5561
2.55648
2.55738
2.55778
2.55815
2.55809
2.55764
2.55674
2.55553
2.5538
2.55216
2.54889
2.55347
2.55389
2.55459
2.55518
2.55588
2.55619
2.5564
2.55615
2.55542
2.55418
2.55249
2.55023
2.54815
2.54478
2.55122
2.552
2.55281
2.55357
2.55425
2.5545
2.55456
2.55403
2.55299
2.5515
2.54966
2.5473
2.54494
2.54159
2.5488
2.54987
2.55065
2.55136
2.55182
2.55191
2.55168
2.55085
2.54959
2.54789
2.54585
2.54335
2.54081
2.53753
2.54592
2.54718
2.54793
2.54855
2.54883
2.54875
2.54823
2.54718
2.54575
2.54396
2.54189
2.53946
2.53691
2.53381
2.54275
2.544
2.54474
2.54516
2.54532
2.54503
2.54427
2.5431
2.54158
2.53977
2.53769
2.53532
2.53274
2.52972
2.53908
2.54024
2.54098
2.54124
2.54131
2.54089
2.54006
2.5389
2.53743
2.53569
2.53363
2.53133
2.52869
2.52578
2.53497
2.53597
2.53685
2.537
2.53702
2.53655
2.53577
2.53469
2.53327
2.53156
2.52942
2.52713
2.52431
2.52156
2.53049
2.5312
2.53218
2.53229
2.53232
2.53197
2.53135
2.53045
2.52912
2.52746
2.52521
2.52296
2.51991
2.51739
2.52571
2.52623
2.52742
2.52758
2.52764
2.52747
2.52701
2.52626
2.52497
2.52324
2.52075
2.51844
2.51498
2.51277
2.52101
2.52104
2.52223
2.5226
2.52268
2.52285
2.5225
2.52188
2.52059
2.51878
2.51612
2.5138
2.50993
2.50838
2.51596
2.51628
2.51737
2.51784
2.51785
2.51822
2.51795
2.5174
2.51605
2.5141
2.5113
2.5086
2.50439
2.50296
2.51099
2.51126
2.51227
2.51295
2.5129
2.51333
2.51296
2.5123
2.51076
2.50858
2.50573
2.50265
2.49873
2.49675
2.50638
2.5074
2.5081
2.50841
2.508
2.50823
2.50758
2.5067
2.50498
2.50272
2.49978
2.49614
2.49235
2.48897
2.60439
2.60368
2.60401
2.60389
2.60411
2.60419
2.6044
2.6046
2.60479
2.60485
2.60488
2.60461
2.60418
2.60316
2.60107
2.60132
2.60177
2.60188
2.60214
2.60227
2.60248
2.60263
2.6027
2.60262
2.60238
2.60174
2.60096
2.59955
2.59844
2.59909
2.59953
2.59986
2.60016
2.60033
2.60052
2.60058
2.60055
2.60031
2.59983
2.59899
2.59794
2.59628
2.5957
2.59665
2.59716
2.59757
2.59787
2.598
2.59808
2.598
2.59776
2.59728
2.59653
2.59543
2.59414
2.59235
2.59293
2.59404
2.59465
2.59506
2.59531
2.59537
2.5953
2.59504
2.59457
2.59386
2.59289
2.59165
2.5902
2.58837
2.59007
2.59118
2.59188
2.59225
2.59243
2.59237
2.59212
2.59165
2.59097
2.59009
2.58898
2.58763
2.58608
2.58423
2.58695
2.58797
2.58878
2.58909
2.5892
2.58902
2.58862
2.58801
2.5872
2.58623
2.58505
2.58368
2.58207
2.58029
2.58366
2.58456
2.58544
2.58571
2.58569
2.58541
2.5849
2.5842
2.58331
2.58229
2.58106
2.57968
2.57804
2.57637
2.58003
2.58077
2.58166
2.58193
2.58182
2.58152
2.581
2.58031
2.5794
2.57835
2.57707
2.57573
2.57405
2.57258
2.57635
2.57698
2.57784
2.5781
2.57789
2.57761
2.57709
2.5764
2.57544
2.57432
2.57291
2.57155
2.56978
2.56865
2.57225
2.57288
2.57356
2.57385
2.57361
2.57343
2.57297
2.57231
2.57133
2.57018
2.56868
2.56735
2.56538
2.5648
2.56811
2.56892
2.56946
2.56974
2.56942
2.56928
2.56882
2.56813
2.56703
2.56575
2.56403
2.56254
2.56032
2.56023
2.56359
2.56463
2.56494
2.56526
2.56489
2.56472
2.56416
2.56336
2.56215
2.56077
2.55905
2.55752
2.55545
2.55513
2.55929
2.56066
2.56088
2.56101
2.56028
2.55992
2.55916
2.55822
2.55686
2.55535
2.55343
2.55158
2.54949
2.54827
2.64993
2.64959
2.64956
2.64924
2.64906
2.64887
2.64887
2.6491
2.64951
2.65007
2.65079
2.6515
2.65241
2.65289
2.64651
2.64669
2.64676
2.64658
2.64645
2.64631
2.64637
2.64665
2.6471
2.64768
2.64835
2.64897
2.64955
2.64991
2.64374
2.64414
2.64417
2.6441
2.64403
2.64395
2.64407
2.64441
2.64488
2.64546
2.64605
2.64658
2.64697
2.64714
2.64102
2.64153
2.64166
2.64163
2.6416
2.64155
2.64168
2.642
2.64242
2.64289
2.64334
2.6437
2.64386
2.64393
2.63846
2.63901
2.63922
2.63919
2.63918
2.63915
2.63926
2.63953
2.63984
2.64019
2.64049
2.64068
2.64066
2.64059
2.63598
2.63651
2.63676
2.63673
2.6367
2.63665
2.63668
2.63683
2.63702
2.63723
2.63737
2.63743
2.63729
2.63709
2.63354
2.63399
2.63426
2.63422
2.63414
2.63402
2.63395
2.63397
2.63404
2.63414
2.63417
2.63418
2.63401
2.63373
2.63107
2.63141
2.63167
2.6316
2.63143
2.63124
2.63104
2.63093
2.6309
2.63091
2.63088
2.63086
2.63068
2.63049
2.62854
2.62875
2.62895
2.62885
2.62858
2.6283
2.62799
2.62777
2.62765
2.62762
2.62755
2.62753
2.62736
2.62739
2.62593
2.62605
2.62615
2.62599
2.62561
2.62525
2.62486
2.62454
2.62432
2.62425
2.62414
2.62413
2.62395
2.6242
2.62301
2.62315
2.62309
2.6229
2.62244
2.62202
2.62158
2.62121
2.62091
2.62078
2.62064
2.62066
2.62046
2.62097
2.62014
2.6203
2.62007
2.6198
2.61923
2.61873
2.61822
2.61779
2.61737
2.61713
2.61694
2.61694
2.61665
2.61742
2.61657
2.61704
2.61658
2.61632
2.61567
2.61511
2.61454
2.61406
2.61357
2.61329
2.61311
2.61313
2.61285
2.61372
2.61339
2.61381
2.61337
2.61296
2.6121
2.61141
2.61077
2.6102
2.60959
2.60917
2.60883
2.60869
2.60825
2.60912
2.68504
2.68498
2.68484
2.6845
2.68422
2.68401
2.68405
2.68439
2.68504
2.68602
2.68736
2.68885
2.69076
2.69209
2.68202
2.68205
2.68193
2.6816
2.68131
2.68109
2.68117
2.6816
2.68235
2.68346
2.68486
2.68646
2.68816
2.68959
2.67942
2.67953
2.67933
2.67897
2.67867
2.67845
2.67856
2.67906
2.67989
2.68107
2.68251
2.68411
2.68576
2.6871
2.67693
2.67701
2.67683
2.67648
2.67617
2.67597
2.67611
2.67666
2.67752
2.67872
2.68013
2.68168
2.68318
2.68451
2.67468
2.67471
2.67454
2.67417
2.67387
2.67368
2.67386
2.67443
2.6753
2.6765
2.67787
2.67936
2.68073
2.68197
2.67261
2.67254
2.67237
2.67199
2.67169
2.67152
2.6717
2.67226
2.67312
2.67429
2.67559
2.67702
2.67825
2.67943
2.67069
2.67052
2.67033
2.66994
2.66962
2.66945
2.66961
2.67015
2.67097
2.67212
2.67337
2.67476
2.67591
2.67703
2.66885
2.66858
2.66835
2.66795
2.6676
2.66741
2.66753
2.66802
2.66879
2.6699
2.67112
2.67249
2.67358
2.67471
2.66703
2.66669
2.66639
2.66597
2.66557
2.66535
2.66543
2.66585
2.66656
2.66762
2.66881
2.67018
2.67126
2.67245
2.66514
2.66478
2.66439
2.66395
2.66351
2.66325
2.66328
2.66363
2.66426
2.66527
2.66641
2.66778
2.66886
2.67011
2.66315
2.66278
2.6623
2.66185
2.66138
2.66108
2.66105
2.66133
2.66188
2.66283
2.66391
2.66527
2.66632
2.66767
2.66104
2.66071
2.66014
2.65967
2.65918
2.65884
2.65876
2.65899
2.65946
2.66032
2.66132
2.66265
2.66362
2.66509
2.65855
2.65837
2.65772
2.65731
2.65683
2.65648
2.65636
2.65654
2.65693
2.65772
2.65864
2.65993
2.66088
2.66242
2.65632
2.65601
2.65542
2.65497
2.65443
2.65408
2.65393
2.65407
2.6544
2.65509
2.65588
2.65702
2.6577
2.65947
2.70807
2.70796
2.70776
2.70749
2.70736
2.70742
2.70773
2.70834
2.70929
2.7106
2.71227
2.71408
2.71636
2.71813
2.70568
2.70552
2.7053
2.70498
2.70478
2.7048
2.70508
2.7057
2.7067
2.7081
2.70984
2.7118
2.71399
2.71588
2.70363
2.7035
2.70314
2.70274
2.70245
2.7024
2.70266
2.70325
2.70424
2.70564
2.70741
2.70937
2.71161
2.71347
2.70162
2.70143
2.70104
2.7006
2.70027
2.70019
2.70045
2.70105
2.70203
2.70344
2.70517
2.70713
2.70927
2.71117
2.69987
2.69958
2.69914
2.69866
2.6983
2.6982
2.69844
2.69905
2.70004
2.70146
2.70317
2.70509
2.70713
2.70902
2.69821
2.69783
2.69735
2.69685
2.69649
2.69639
2.69664
2.69727
2.69827
2.6997
2.70138
2.70328
2.70519
2.70706
2.69668
2.6962
2.69569
2.69519
2.69482
2.69474
2.69501
2.69567
2.69669
2.69815
2.69981
2.70171
2.70352
2.70536
2.69521
2.69463
2.6941
2.6936
2.69326
2.69321
2.6935
2.69419
2.69525
2.69675
2.69841
2.70032
2.70206
2.70389
2.69376
2.69311
2.69257
2.69209
2.69179
2.69178
2.69208
2.6928
2.69389
2.69543
2.69711
2.69904
2.70077
2.70261
2.69226
2.69159
2.69106
2.69062
2.69038
2.69041
2.69073
2.69147
2.69259
2.69415
2.69585
2.69782
2.69955
2.70144
2.69071
2.69009
2.68959
2.68922
2.68903
2.68909
2.68941
2.69017
2.69129
2.69286
2.69456
2.69657
2.69833
2.70028
2.68906
2.68858
2.68813
2.68785
2.68771
2.6878
2.68814
2.6889
2.69
2.69155
2.69323
2.69526
2.69703
2.69907
2.68733
2.68703
2.68666
2.6865
2.68643
2.68654
2.68691
2.68766
2.6887
2.69019
2.69181
2.69384
2.69562
2.69777
2.68583
2.68551
2.6853
2.68523
2.68519
2.68534
2.68572
2.68641
2.68735
2.68872
2.69022
2.69215
2.69382
2.69619
2.72172
2.7217
2.7216
2.7216
2.72173
2.72205
2.72257
2.72335
2.72435
2.72557
2.72703
2.72852
2.73042
2.73189
2.71991
2.71991
2.71977
2.71971
2.71978
2.72002
2.72048
2.72122
2.72221
2.72346
2.72496
2.72658
2.72846
2.73007
2.71851
2.71842
2.71816
2.71802
2.71801
2.71816
2.71853
2.71918
2.72009
2.72128
2.72276
2.72434
2.72631
2.72797
2.71701
2.71685
2.71653
2.71633
2.71627
2.71638
2.71668
2.71729
2.71815
2.71931
2.72074
2.72233
2.72424
2.72599
2.71569
2.71541
2.71503
2.71476
2.71463
2.71469
2.71495
2.7155
2.71633
2.71745
2.71884
2.72041
2.72227
2.72406
2.71431
2.71394
2.71352
2.71321
2.71306
2.7131
2.71334
2.71389
2.71471
2.71584
2.71719
2.71877
2.72054
2.72235
2.71294
2.71248
2.71205
2.71172
2.71156
2.71161
2.71187
2.71245
2.71329
2.71445
2.7158
2.7174
2.71909
2.72091
2.71153
2.71101
2.71058
2.71027
2.71014
2.71023
2.71054
2.71118
2.71208
2.71331
2.71468
2.71631
2.71796
2.71978
2.71009
2.70954
2.70914
2.70889
2.70881
2.70896
2.70935
2.71009
2.71106
2.71237
2.71379
2.71548
2.71712
2.71895
2.70864
2.70811
2.70776
2.70759
2.70759
2.70781
2.7083
2.70914
2.7102
2.7116
2.71308
2.71483
2.7165
2.71835
2.70722
2.70674
2.70648
2.70641
2.70649
2.70681
2.70739
2.70833
2.70946
2.71094
2.7125
2.71434
2.71605
2.71794
2.70584
2.7055
2.70532
2.70535
2.70552
2.70594
2.70661
2.7076
2.7088
2.71034
2.71197
2.7139
2.71569
2.71765
2.7045
2.70432
2.70422
2.70437
2.70465
2.70518
2.70593
2.70698
2.70823
2.70984
2.71151
2.71353
2.7154
2.71745
2.70353
2.70334
2.7034
2.70363
2.70399
2.70458
2.70535
2.70639
2.70759
2.70917
2.71083
2.71283
2.7148
2.71689
2.73019
2.73018
2.73019
2.73034
2.73058
2.731
2.73151
2.73219
2.73294
2.73381
2.73478
2.73579
2.73705
2.73805
2.72871
2.72886
2.72883
2.72892
2.7291
2.72946
2.72993
2.73057
2.73132
2.7322
2.7332
2.73429
2.73556
2.73669
2.72765
2.72772
2.72763
2.72765
2.72776
2.72803
2.72843
2.729
2.72968
2.7305
2.73148
2.73255
2.7339
2.7351
2.72636
2.72642
2.7263
2.72629
2.72636
2.72659
2.72696
2.72749
2.72814
2.72894
2.7299
2.73097
2.73232
2.73361
2.72519
2.72516
2.72501
2.72497
2.72501
2.72521
2.72553
2.72602
2.72663
2.7274
2.72832
2.7294
2.73074
2.73211
2.72389
2.72379
2.72364
2.7236
2.72365
2.72385
2.72418
2.72466
2.72526
2.72602
2.72693
2.72802
2.72932
2.73075
2.72257
2.72241
2.72227
2.72225
2.72233
2.72255
2.7229
2.7234
2.72401
2.72479
2.7257
2.72682
2.72809
2.72955
2.7212
2.72102
2.72091
2.72094
2.72106
2.72134
2.72174
2.72229
2.72295
2.72378
2.72471
2.72585
2.7271
2.72857
2.7198
2.71964
2.71958
2.71967
2.71988
2.72023
2.72071
2.72135
2.72208
2.72299
2.72397
2.72517
2.72641
2.72789
2.71846
2.71834
2.71836
2.71853
2.71883
2.71927
2.71984
2.72057
2.72138
2.72237
2.72341
2.72466
2.72593
2.72742
2.71714
2.71709
2.71719
2.71747
2.71787
2.71843
2.71911
2.71995
2.72087
2.72197
2.72309
2.72442
2.72573
2.72723
2.71602
2.71607
2.71625
2.71663
2.71713
2.71778
2.71856
2.71948
2.72048
2.72166
2.72286
2.72427
2.72564
2.72717
2.71492
2.71512
2.71534
2.71584
2.71645
2.71722
2.7181
2.71916
2.72027
2.72156
2.72286
2.72437
2.7258
2.72736
2.71426
2.71447
2.71483
2.7154
2.71608
2.71691
2.71786
2.71894
2.72008
2.7214
2.72271
2.72422
2.72569
2.72728
2.73402
2.73418
2.73436
2.73466
2.73501
2.73548
2.73596
2.73655
2.73714
2.7378
2.73848
2.7392
2.74005
2.74077
2.73281
2.73311
2.73324
2.73349
2.73382
2.73427
2.73476
2.73535
2.73595
2.73663
2.73735
2.73813
2.739
2.73979
2.73195
2.73217
2.73225
2.73248
2.73277
2.73318
2.73362
2.73417
2.73474
2.73538
2.73609
2.73687
2.7378
2.73867
2.73081
2.73102
2.7311
2.73133
2.73162
2.73202
2.73247
2.73301
2.73357
2.73422
2.73494
2.73575
2.7367
2.73764
2.72971
2.72988
2.72999
2.73023
2.73053
2.73093
2.73137
2.73189
2.73246
2.7331
2.73381
2.73463
2.7356
2.73662
2.72852
2.7287
2.72886
2.72913
2.72946
2.72987
2.73033
2.73086
2.73142
2.73205
2.73276
2.73359
2.73457
2.73565
2.72731
2.72751
2.72773
2.72805
2.72842
2.72886
2.72935
2.72989
2.73047
2.73112
2.73184
2.73269
2.73366
2.73478
2.72617
2.7264
2.72668
2.72705
2.72748
2.72796
2.72848
2.72904
2.72963
2.7303
2.73102
2.73189
2.73285
2.73399
2.725
2.72527
2.72562
2.72607
2.72657
2.72711
2.7277
2.72832
2.72896
2.72967
2.73041
2.7313
2.73223
2.73338
2.72401
2.72434
2.72477
2.72528
2.72585
2.72645
2.72709
2.72775
2.72843
2.72917
2.72993
2.73084
2.73176
2.7329
2.72304
2.72345
2.72393
2.72452
2.72517
2.72586
2.72659
2.72735
2.72809
2.7289
2.72969
2.73062
2.73153
2.73264
2.72235
2.72284
2.7234
2.72405
2.72476
2.72551
2.72629
2.72709
2.72787
2.72871
2.72953
2.73047
2.73138
2.73244
2.72162
2.72222
2.72281
2.72355
2.72435
2.7252
2.72607
2.72696
2.72781
2.72871
2.72957
2.73054
2.73146
2.7325
2.7213
2.72196
2.72264
2.72343
2.72427
2.72514
2.72603
2.72692
2.72778
2.72868
2.72953
2.73048
2.73135
2.73243
2.73481
2.73527
2.73576
2.73629
2.73682
2.73737
2.73789
2.73841
2.73891
2.73942
2.73989
2.74041
2.74092
2.74146
2.73392
2.73444
2.73493
2.73546
2.73601
2.7366
2.73716
2.73774
2.73828
2.73882
2.73934
2.73989
2.74045
2.74102
2.73315
2.73368
2.73416
2.73473
2.73529
2.7359
2.73648
2.73707
2.73762
2.73818
2.73872
2.7393
2.73991
2.74053
2.73227
2.73283
2.73334
2.73393
2.73453
2.73515
2.73576
2.73637
2.73695
2.73754
2.73811
2.73872
2.73936
2.74003
2.7314
2.73199
2.73254
2.73316
2.73378
2.73444
2.73508
2.73571
2.73632
2.73694
2.73755
2.73818
2.73885
2.73956
2.73058
2.7312
2.7318
2.73246
2.73312
2.73379
2.73444
2.73508
2.7357
2.73632
2.73695
2.7376
2.7383
2.73904
2.72975
2.73041
2.73106
2.73175
2.73245
2.73315
2.73383
2.73449
2.73512
2.73576
2.73638
2.73705
2.73775
2.73851
2.72908
2.72977
2.73047
2.73119
2.73191
2.73261
2.73329
2.73394
2.73457
2.7352
2.73582
2.73649
2.73717
2.73795
2.72842
2.72914
2.72989
2.73064
2.73139
2.73212
2.73281
2.73347
2.73409
2.73471
2.73531
2.73598
2.73664
2.73743
2.72797
2.72872
2.7295
2.73027
2.73104
2.73176
2.73244
2.73309
2.73369
2.7343
2.73487
2.73552
2.73614
2.73692
2.72757
2.72835
2.72915
2.72994
2.73073
2.73146
2.73215
2.73279
2.73338
2.73397
2.73451
2.73514
2.73571
2.73647
2.72737
2.72818
2.72899
2.7298
2.73059
2.73131
2.73197
2.73258
2.73313
2.7337
2.7342
2.73478
2.7353
2.73601
2.72715
2.72801
2.72884
2.72967
2.73047
2.7312
2.73186
2.73247
2.733
2.73355
2.73403
2.73458
2.73507
2.7357
2.72727
2.7282
2.72899
2.72979
2.73055
2.73124
2.73187
2.73244
2.73292
2.73341
2.73384
2.73433
2.73477
2.73534
2.73463
2.73526
2.73586
2.73647
2.73702
2.73756
2.73805
2.73851
2.73893
2.73933
2.7397
2.74011
2.74048
2.74094
2.734
2.73476
2.73541
2.73607
2.73669
2.73729
2.73782
2.73832
2.73876
2.73919
2.7396
2.74003
2.74045
2.74092
2.73351
2.73432
2.73502
2.73573
2.73639
2.73702
2.73759
2.73814
2.73864
2.73911
2.73955
2.74
2.74042
2.7409
2.73303
2.73388
2.73466
2.73542
2.73611
2.73677
2.73738
2.73796
2.73849
2.73899
2.73945
2.73992
2.74037
2.74085
2.73255
2.73346
2.73429
2.73509
2.73583
2.73653
2.73718
2.73779
2.73835
2.73888
2.73938
2.73986
2.74033
2.74082
2.73217
2.73312
2.734
2.73483
2.73561
2.73632
2.73699
2.73762
2.7382
2.73875
2.73927
2.73977
2.74026
2.74075
2.73186
2.73284
2.73375
2.7346
2.7354
2.73614
2.73682
2.73746
2.73805
2.73861
2.73913
2.73964
2.74013
2.74062
2.73167
2.73267
2.7336
2.73446
2.73527
2.736
2.73668
2.73731
2.7379
2.73844
2.73894
2.73944
2.73991
2.7404
2.73155
2.73257
2.7335
2.73437
2.73517
2.73589
2.73656
2.73715
2.73769
2.73819
2.73866
2.73913
2.73958
2.74007
2.73157
2.73259
2.73351
2.73436
2.73513
2.73582
2.73643
2.73698
2.73747
2.73794
2.73835
2.73879
2.73919
2.73967
2.73165
2.73267
2.73356
2.73438
2.73511
2.73576
2.73632
2.73681
2.73724
2.73764
2.73798
2.73836
2.73868
2.73915
2.73188
2.73288
2.73371
2.73447
2.73514
2.73571
2.73621
2.73663
2.73697
2.73729
2.73756
2.73787
2.73812
2.73854
2.7321
2.73306
2.73383
2.73455
2.73515
2.73564
2.73606
2.7364
2.73667
2.73691
2.73711
2.73736
2.73756
2.73794
2.73257
2.73343
2.7341
2.73471
2.73521
2.7356
2.73592
2.73616
2.73633
2.73648
2.73661
2.73678
2.73694
2.73722
2.73379
2.73463
2.73532
2.73599
2.73657
2.73711
2.73759
2.73802
2.7384
2.73874
2.73907
2.73938
2.73968
2.74006
2.7335
2.73439
2.73514
2.73586
2.73651
2.73712
2.73766
2.73814
2.73858
2.73898
2.73936
2.73973
2.74006
2.74047
2.73323
2.73417
2.73501
2.73579
2.7365
2.73716
2.73775
2.73829
2.73877
2.73921
2.73961
2.74
2.74035
2.74074
2.73309
2.73407
2.73497
2.7358
2.73655
2.73724
2.73786
2.73843
2.73895
2.73942
2.73986
2.74027
2.74063
2.74103
2.73304
2.73403
2.73496
2.73582
2.7366
2.73732
2.73797
2.73857
2.73911
2.7396
2.74005
2.74047
2.74085
2.74123
2.73304
2.73406
2.73502
2.73589
2.73669
2.73741
2.73808
2.73869
2.73924
2.73975
2.74021
2.74063
2.74101
2.74138
2.73314
2.73416
2.73512
2.73599
2.73679
2.73751
2.73818
2.73878
2.73934
2.73983
2.74028
2.7407
2.74108
2.74144
2.73334
2.73433
2.73526
2.73612
2.7369
2.73761
2.73826
2.73885
2.73939
2.73988
2.74032
2.74073
2.7411
2.74144
2.73359
2.73456
2.73545
2.73627
2.73702
2.73769
2.73831
2.73887
2.73937
2.73982
2.74023
2.74061
2.74096
2.7413
2.7339
2.73483
2.73566
2.73642
2.73712
2.73775
2.73831
2.73882
2.73926
2.73965
2.74001
2.74035
2.74066
2.741
2.73422
2.73511
2.73587
2.73656
2.73719
2.73774
2.73822
2.73865
2.73903
2.73937
2.73967
2.73997
2.74024
2.74057
2.7346
2.73541
2.73607
2.73666
2.7372
2.73765
2.73807
2.73843
2.73873
2.739
2.73924
2.73949
2.73971
2.74002
2.73495
2.73567
2.73622
2.73671
2.73714
2.73751
2.73783
2.73809
2.7383
2.7385
2.73867
2.73886
2.73903
2.73934
2.73539
2.73597
2.7364
2.73677
2.73707
2.73732
2.73752
2.73769
2.73782
2.73793
2.73803
2.73815
2.73827
2.73849
2.73164
2.73259
2.73342
2.73424
2.73494
2.73557
2.73612
2.73662
2.73706
2.73744
2.7378
2.73812
2.73842
2.73874
2.73173
2.73273
2.73364
2.73447
2.73522
2.73591
2.73652
2.73706
2.73755
2.73799
2.73839
2.73875
2.73907
2.73946
2.73194
2.73292
2.73387
2.73474
2.73553
2.73625
2.7369
2.73748
2.73801
2.73847
2.73889
2.73926
2.7396
2.73997
2.73216
2.73314
2.73411
2.735
2.73583
2.73658
2.73726
2.73787
2.73842
2.73891
2.73936
2.73975
2.74011
2.74047
2.73244
2.73342
2.73439
2.73529
2.73614
2.7369
2.7376
2.73822
2.73879
2.73929
2.73974
2.74014
2.7405
2.74084
2.73277
2.73375
2.7347
2.73559
2.73643
2.7372
2.7379
2.73853
2.7391
2.73961
2.74007
2.74047
2.74083
2.74115
2.73315
2.7341
2.73503
2.7359
2.73672
2.73746
2.73815
2.73877
2.73932
2.73982
2.74027
2.74067
2.74102
2.74133
2.73357
2.73448
2.73535
2.73617
2.73695
2.73767
2.73833
2.73893
2.73947
2.73996
2.74039
2.74078
2.74111
2.74141
2.73399
2.73485
2.73566
2.73643
2.73715
2.73782
2.73844
2.73901
2.73952
2.73999
2.7404
2.74077
2.74109
2.74139
2.73441
2.7352
2.73593
2.73663
2.73728
2.7379
2.73847
2.73899
2.73947
2.7399
2.74028
2.74064
2.74094
2.74126
2.73479
2.73551
2.73616
2.73677
2.73735
2.73789
2.73838
2.73883
2.73924
2.73963
2.73999
2.74034
2.74064
2.74097
2.73517
2.7358
2.73634
2.73684
2.73733
2.73777
2.7382
2.7386
2.73896
2.73931
2.73963
2.73995
2.74022
2.74055
2.73548
2.73602
2.73644
2.73684
2.73723
2.73759
2.73793
2.73825
2.73854
2.73883
2.7391
2.73937
2.73962
2.73996
2.73586
2.73625
2.73653
2.7368
2.73707
2.73733
2.73758
2.73783
2.73806
2.73829
2.7385
2.73872
2.73895
2.73929
2.72909