/*--------------------------------*- C++ -*----------------------------------*\
| =========                 |                                                 |
| \\      /  F ield         | OpenFOAM: The Open Source CFD Toolbox           |
|  \\    /   O peration     | Version:  v2106                                 |
|   \\  /    A nd           | Website:  www.openfoam.com                      |
|    \\/     M anipulation  |                                                 |
\*---------------------------------------------------------------------------*/
FoamFile
{
    version     2.0;
    format      ascii;
    arch        "LSB;label=32;scalar=64";
    class       volScalarField;
    location    "0.000185";
    object      T;
}
// * * * * * * * * * * * * * * * * * * * * * * * * * * * * * * * * * * * * * //

dimensions      [0 0 0 1 0 0 0];

internalField   nonuniform List<scalar> 
18109
(
296.482
296.399
296.346
296.3
296.253
296.182
296.087
296.396
296.269
296.16
296.073
295.992
295.902
295.801
296.275
296.103
295.961
295.843
295.738
295.633
295.523
296.132
295.939
295.771
295.632
295.509
295.388
295.264
295.961
295.757
295.579
295.432
295.299
295.167
295.03
295.77
295.562
295.379
295.229
295.091
294.951
294.805
295.555
295.341
295.159
295.008
294.869
294.728
294.581
295.318
295.1
294.923
294.772
294.633
294.492
294.347
296.768
296.684
296.647
296.619
296.6
296.565
296.5
296.387
296.235
296.041
295.833
295.614
295.416
295.181
296.678
296.559
296.476
296.418
296.371
296.314
296.233
296.116
295.965
295.777
295.583
295.39
295.23
295.064
296.553
296.404
296.297
296.213
296.144
296.067
295.97
295.845
295.7
295.535
295.375
295.219
295.085
294.963
296.402
296.247
296.122
296.02
295.93
295.833
295.718
295.582
295.432
295.274
295.13
295.008
294.908
294.826
296.227
296.067
295.931
295.821
295.72
295.61
295.484
295.34
295.189
295.039
294.91
294.811
294.738
294.683
296.029
295.868
295.727
295.613
295.502
295.384
295.25
295.102
294.949
294.804
294.687
294.606
294.553
294.511
295.809
295.639
295.498
295.382
295.269
295.15
295.017
294.871
294.725
294.589
294.483
294.417
294.375
294.34
295.561
295.387
295.248
295.132
295.019
294.902
294.774
294.636
294.502
294.38
294.28
294.225
294.178
294.139
295.301
295.129
294.989
294.871
294.757
294.644
294.526
294.404
294.283
294.175
294.077
294.018
293.957
293.909
295.037
294.868
294.735
294.617
294.503
294.391
294.285
294.178
294.072
293.979
293.881
293.813
293.712
293.643
294.792
294.628
294.503
294.387
294.276
294.163
294.063
293.968
293.874
293.791
293.691
293.598
293.441
293.337
294.539
294.396
294.306
294.203
294.1
293.989
293.887
293.796
293.701
293.615
293.508
293.389
293.186
293.008
294.288
294.19
294.134
294.056
293.979
293.883
293.782
293.684
293.576
293.472
293.343
293.18
292.927
292.702
294.03
293.987
293.989
293.952
293.901
293.831
293.737
293.634
293.504
293.374
293.21
293.019
292.747
292.461
296.505
296.541
296.532
296.491
296.209
295.643
296.783
296.821
296.806
296.791
296.598
296.142
296.805
296.847
296.826
296.72
296.379
295.752
296.799
296.858
296.85
296.715
296.31
295.594
296.806
296.908
296.933
296.802
296.368
295.672
296.819
296.964
297.015
296.89
296.494
295.946
296.8
296.958
297.02
296.923
296.626
296.264
296.752
296.933
296.998
296.934
296.798
296.672
296.64
296.833
296.921
296.926
296.94
296.956
296.467
296.641
296.759
296.855
296.961
297.043
296.235
296.38
296.509
296.664
296.837
296.961
295.973
296.092
296.221
296.401
296.584
296.726
295.698
295.785
295.886
296.041
296.176
296.227
295.456
295.531
295.581
295.624
295.582
295.328
295.207
295.189
295.135
294.995
294.68
294.054
295.026
295.011
294.85
294.533
293.863
292.851
294.963
294.88
294.617
294.061
293.105
291.874
294.865
294.794
294.457
293.73
292.582
291.251
294.733
294.649
294.248
293.429
292.237
290.951
294.604
294.489
294.022
293.181
292.079
290.975
294.427
294.267
293.762
292.958
292.037
291.199
294.236
294.011
293.492
292.777
292.073
291.49
293.998
293.702
293.193
292.586
292.081
291.654
293.71
293.357
292.883
292.394
292.001
291.648
293.368
292.989
292.562
292.18
291.826
291.461
293.002
292.641
292.27
291.957
291.581
291.054
292.654
292.33
291.984
291.647
291.159
290.382
292.416
292.136
291.828
291.429
290.731
289.665
292.168
291.854
291.467
290.865
289.982
288.854
292.253
291.997
291.654
290.949
289.814
288.498
292.556
292.283
291.862
291.055
289.807
288.43
292.856
292.606
292.208
291.372
290.08
288.667
293.094
292.884
292.496
291.695
290.467
289.132
293.314
293.162
292.8
292.076
291
289.872
293.477
293.37
293.043
292.416
291.524
290.695
293.618
293.528
293.239
292.74
292.061
291.478
293.713
293.607
293.349
292.946
292.464
292.076
293.778
293.643
293.406
293.096
292.739
292.443
293.802
293.644
293.414
293.162
292.859
292.566
293.808
293.636
293.42
293.183
292.885
292.508
293.812
293.641
293.424
293.144
292.791
292.295
293.814
293.658
293.439
293.137
292.676
291.947
293.827
293.67
293.425
293.094
292.504
291.609
296.322
296.585
296.78
296.981
297.13
297.321
296.427
296.665
296.82
296.968
297.042
297.159
296.493
296.679
296.772
296.842
296.824
296.768
296.629
296.717
296.707
296.676
296.558
296.199
293.925
293.777
293.598
293.236
292.557
291.601
294.285
294.164
294.006
293.615
292.884
291.931
294.606
294.53
294.448
294.119
293.461
292.519
294.929
294.92
294.934
294.7
294.133
293.279
295.223
295.314
295.393
295.252
294.838
294.212
295.517
295.681
295.794
295.741
295.497
295.143
295.79
296.005
296.139
296.154
296.068
295.987
296.038
296.272
296.425
296.503
296.55
296.649
296.247
296.483
296.656
296.811
296.97
297.149
296.422
296.663
296.849
297.058
297.268
297.453
296.565
296.804
296.992
297.208
297.392
297.574
296.679
296.904
297.065
297.237
297.367
297.508
296.761
296.95
297.05
297.149
297.181
297.21
296.879
296.986
296.982
297.003
296.925
296.709
294.654
292.624
291.402
289.861
284.847
294.253
292.53
291.381
289.907
284.092
294.245
292.924
291.929
290.143
284.48
294.68
293.715
292.652
289.375
281.3
295.339
294.683
293.254
288.23
277.756
295.927
295.509
293.535
287.061
275.665
296.56
296.107
293.613
286.421
275.921
296.915
296.237
292.978
285.175
275.001
267.837
296.99
295.968
292.097
284.237
274.715
267.528
296.739
295.199
290.873
283.838
276.365
270.343
296.173
293.918
289.807
284.247
279.096
274.389
271.291
295.081
292.333
288.937
285.335
281.909
278.097
276.507
277.037
293.633
290.709
288.224
286.195
284.036
281.404
282.894
288.94
292.095
289.384
287.766
286.735
284.636
280.047
280.022
279.128
290.809
288.545
287.26
285.797
280.938
273.188
269.202
267.4
289.944
288.16
287.024
285.332
280.125
272.097
265.183
264.103
289.527
288.1
287.203
285.305
280.45
273.787
270.814
267.861
289.486
288.223
287.165
283.911
277.233
269.338
265.505
267.274
289.795
288.669
287.205
282.217
273.041
262.527
256.49
253.279
290.3
289.108
286.792
280.606
271.194
261.248
252.619
249.425
290.696
289.272
285.991
279.667
271.961
264.225
258.621
253.741
290.762
288.8
284.556
278.124
270.853
263.632
258.368
258.719
290.507
288.004
283.232
276.624
268.806
259.758
290.058
286.897
282.328
276.183
268.682
260.055
289.229
285.846
281.997
277.309
271.692
265.183
288.271
285.056
282.322
279.054
274.541
269.567
287.386
284.557
282.711
280.378
276.864
273.149
286.731
284.307
282.992
281.356
277.903
286.363
284.167
282.943
281.267
275.532
286.408
284.526
283.552
282.194
276.021
286.91
285.488
285.005
283.273
277.655
287.756
286.769
286.317
283.724
277.654
288.852
288.047
287.175
282.958
274.253
289.967
289.153
287.578
282.032
272.196
290.886
289.956
287.816
281.863
272.938
291.513
290.314
287.281
281.34
273.116
291.781
290.094
286.65
280.655
271.737
291.687
289.709
286.3
280.912
272.661
291.342
289.02
286.051
281.859
275.406
290.779
288.204
285.921
282.925
278.206
290.174
287.62
285.902
283.614
280.028
289.7
287.244
285.728
283.839
279.808
289.668
287.325
285.905
284.197
277.94
290.114
288.053
286.875
285.169
277.816
290.946
289.414
288.494
286.444
279.881
292.082
291.023
290.09
287.14
279.82
293.429
292.705
291.544
286.953
276.66
294.708
294.196
292.511
286.21
274.254
295.869
295.41
293.229
286.074
274.259
296.689
296.244
293.571
285.659
273.737
297.237
296.7
293.567
285.788
274.132
297.469
296.66
293.335
286.462
276.638
297.314
296.121
292.936
287.624
280.064
296.91
295.265
292.44
288.763
283.598
296.231
294.221
291.907
289.471
285.818
295.392
293.225
291.577
289.972
286.778
297.29
297.232
297.236
297.261
297.292
297.305
297.287
297.223
297.112
296.951
296.762
296.548
296.353
296.126
297.225
297.142
297.117
297.113
297.117
297.105
297.061
296.973
296.847
296.679
296.491
296.287
296.111
295.93
297.138
297.039
296.992
296.963
296.94
296.899
296.83
296.725
296.593
296.431
296.264
296.096
295.949
295.798
297.001
296.909
296.845
296.796
296.747
296.685
296.597
296.476
296.334
296.175
296.017
295.877
295.762
295.658
296.844
296.749
296.673
296.611
296.545
296.467
296.368
296.243
296.1
295.949
295.808
295.69
295.599
295.525
296.646
296.538
296.459
296.389
296.316
296.233
296.133
296.007
295.869
295.727
295.6
295.5
295.429
295.372
296.414
296.297
296.218
296.146
296.072
295.991
295.895
295.779
295.653
295.525
295.408
295.324
295.26
295.209
296.14
296.029
295.944
295.878
295.806
295.732
295.647
295.548
295.436
295.32
295.208
295.128
295.069
295.016
295.851
295.745
295.655
295.596
295.532
295.47
295.399
295.318
295.222
295.12
295.008
294.921
294.857
294.801
295.559
295.455
295.38
295.321
295.268
295.211
295.153
295.091
295.01
294.921
294.806
294.715
294.606
294.552
295.275
295.182
295.127
295.071
295.025
294.974
294.921
294.872
294.802
294.722
294.607
294.496
294.333
294.27
294.997
294.934
294.916
294.866
294.825
294.774
294.719
294.675
294.608
294.531
294.418
294.29
294.08
293.945
294.752
294.719
294.727
294.697
294.67
294.627
294.569
294.522
294.447
294.358
294.233
294.064
293.812
293.612
294.527
294.542
294.589
294.571
294.559
294.53
294.475
294.419
294.326
294.217
294.071
293.879
293.61
293.326
298.55
298.501
298.522
298.547
298.588
298.616
298.629
298.611
298.558
298.461
298.347
298.183
298.023
297.832
298.465
298.42
298.421
298.43
298.453
298.471
298.472
298.43
298.354
298.235
298.102
297.929
297.77
297.584
298.407
298.359
298.351
298.355
298.363
298.356
298.326
298.256
298.156
298.025
297.888
297.722
297.575
297.411
298.286
298.249
298.233
298.235
298.227
298.2
298.146
298.057
297.941
297.799
297.653
297.494
297.361
297.231
298.156
298.111
298.092
298.085
298.066
298.026
297.961
297.862
297.741
297.601
297.459
297.313
297.197
297.091
297.976
297.927
297.914
297.9
297.874
297.825
297.756
297.655
297.535
297.398
297.262
297.13
297.029
296.944
297.753
297.71
297.694
297.679
297.652
297.602
297.539
297.447
297.336
297.209
297.079
296.959
296.865
296.799
297.494
297.456
297.448
297.433
297.412
297.365
297.314
297.234
297.133
297.014
296.884
296.771
296.675
296.626
297.219
297.179
297.175
297.161
297.149
297.115
297.077
297.015
296.925
296.817
296.686
296.579
296.473
296.439
296.935
296.898
296.907
296.89
296.888
296.87
296.839
296.793
296.714
296.614
296.48
296.371
296.235
296.197
296.664
296.624
296.648
296.631
296.637
296.631
296.599
296.563
296.491
296.397
296.264
296.153
295.978
295.95
296.414
296.388
296.427
296.412
296.416
296.416
296.382
296.348
296.279
296.189
296.06
295.93
295.714
295.627
296.171
296.16
296.218
296.225
296.227
296.229
296.19
296.15
296.072
295.969
295.826
295.66
295.426
295.288
295.943
296.004
296.069
296.083
296.075
296.08
296.037
295.989
295.899
295.783
295.627
295.427
295.175
294.946
300.451
300.401
300.419
300.418
300.453
300.477
300.51
300.525
300.519
300.496
300.454
300.374
300.287
300.148
300.339
300.323
300.319
300.321
300.341
300.358
300.378
300.379
300.36
300.319
300.255
300.156
300.063
299.939
300.23
300.23
300.228
300.238
300.261
300.275
300.281
300.262
300.22
300.159
300.081
299.979
299.881
299.763
300.105
300.118
300.12
300.135
300.154
300.16
300.15
300.112
300.053
299.972
299.877
299.767
299.665
299.554
299.952
299.971
299.983
300.006
300.023
300.022
299.999
299.948
299.876
299.784
299.681
299.572
299.475
299.381
299.784
299.802
299.825
299.85
299.865
299.856
299.823
299.765
299.686
299.588
299.482
299.375
299.283
299.204
299.598
299.614
299.645
299.669
299.68
299.665
299.629
299.572
299.493
299.398
299.292
299.192
299.105
299.041
299.401
299.413
299.451
299.47
299.477
299.458
299.423
299.37
299.295
299.204
299.099
299.003
298.917
298.868
299.197
299.193
299.233
299.246
299.25
299.235
299.206
299.161
299.094
299.011
298.909
298.821
298.73
298.696
298.983
298.971
299.014
299.024
299.025
299.014
298.988
298.95
298.888
298.812
298.711
298.63
298.518
298.49
298.775
298.75
298.789
298.8
298.797
298.793
298.766
298.732
298.673
298.601
298.506
298.436
298.296
298.273
298.563
298.555
298.589
298.603
298.592
298.59
298.559
298.523
298.462
298.387
298.289
298.205
298.036
297.991
298.349
298.358
298.398
298.423
298.406
298.403
298.363
298.318
298.244
298.154
298.046
297.929
297.761
297.674
298.143
298.208
298.252
298.271
298.244
298.239
298.191
298.135
298.047
297.943
297.814
297.65
297.471
297.308
302.723
302.664
302.654
302.633
302.637
302.64
302.655
302.676
302.701
302.72
302.732
302.724
302.706
302.662
302.569
302.549
302.538
302.522
302.526
302.529
302.542
302.555
302.57
302.577
302.576
302.554
302.527
302.481
302.436
302.442
302.431
302.424
302.43
302.437
302.448
302.454
302.456
302.45
302.434
302.402
302.366
302.319
302.295
302.314
302.311
302.316
302.327
302.336
302.341
302.337
302.325
302.302
302.268
302.222
302.175
302.126
302.148
302.17
302.183
302.2
302.215
302.221
302.22
302.207
302.182
302.144
302.095
302.04
301.987
301.937
301.999
302.02
302.048
302.07
302.085
302.087
302.077
302.055
302.018
301.97
301.913
301.852
301.796
301.748
301.847
301.867
301.903
301.926
301.937
301.932
301.916
301.886
301.844
301.791
301.731
301.67
301.616
301.576
301.694
301.712
301.749
301.769
301.772
301.761
301.74
301.706
301.66
301.607
301.547
301.49
301.439
301.41
301.53
301.541
301.576
301.591
301.588
301.575
301.55
301.517
301.473
301.424
301.369
301.317
301.269
301.251
301.368
301.373
301.403
301.414
301.402
301.385
301.358
301.324
301.282
301.237
301.185
301.141
301.089
301.08
301.192
301.198
301.215
301.223
301.205
301.186
301.158
301.125
301.084
301.044
300.998
300.967
300.903
300.901
301.023
301.041
301.048
301.051
301.026
301.003
300.969
300.932
300.886
300.84
300.788
300.758
300.677
300.682
300.841
300.877
300.874
300.88
300.85
300.823
300.78
300.735
300.68
300.626
300.569
300.528
300.45
300.445
300.658
300.723
300.728
300.733
300.692
300.661
300.61
300.554
300.486
300.419
300.341
300.27
300.182
300.13
304.806
304.772
304.752
304.723
304.708
304.698
304.7
304.713
304.74
304.776
304.819
304.859
304.905
304.93
304.646
304.634
304.618
304.593
304.581
304.574
304.577
304.591
304.616
304.649
304.686
304.722
304.755
304.779
304.507
304.512
304.495
304.476
304.469
304.466
304.472
304.489
304.512
304.54
304.571
304.6
304.624
304.641
304.372
304.382
304.372
304.361
304.359
304.359
304.366
304.382
304.401
304.422
304.443
304.461
304.473
304.486
304.244
304.252
304.252
304.248
304.25
304.252
304.259
304.272
304.286
304.3
304.311
304.319
304.322
304.332
304.12
304.128
304.135
304.135
304.138
304.139
304.143
304.15
304.158
304.165
304.167
304.168
304.167
304.176
304.003
304.01
304.02
304.021
304.021
304.019
304.017
304.019
304.02
304.022
304.019
304.019
304.02
304.031
303.89
303.893
303.902
303.901
303.896
303.89
303.881
303.876
303.874
303.872
303.868
303.87
303.876
303.892
303.776
303.775
303.78
303.775
303.763
303.75
303.737
303.727
303.722
303.72
303.717
303.724
303.736
303.76
303.662
303.657
303.656
303.644
303.623
303.604
303.586
303.573
303.564
303.563
303.563
303.577
303.595
303.627
303.539
303.536
303.525
303.506
303.477
303.452
303.43
303.414
303.403
303.402
303.406
303.427
303.448
303.493
303.427
303.425
303.405
303.377
303.337
303.305
303.277
303.257
303.241
303.236
303.24
303.263
303.282
303.337
303.286
303.305
303.272
303.242
303.197
303.159
303.124
303.098
303.077
303.069
303.072
303.095
303.112
303.169
303.16
303.181
303.154
303.127
303.075
303.031
302.989
302.954
302.923
302.906
302.897
302.904
302.905
302.958
306.379
306.364
306.349
306.327
306.31
306.299
306.301
306.316
306.348
306.397
306.464
306.538
306.63
306.695
306.237
306.223
306.209
306.19
306.176
306.166
306.17
306.189
306.224
306.277
306.344
306.421
306.504
306.574
306.113
306.103
306.086
306.068
306.055
306.046
306.052
306.076
306.114
306.168
306.236
306.311
306.39
306.454
305.992
305.983
305.969
305.953
305.942
305.934
305.942
305.968
306.008
306.063
306.127
306.199
306.269
306.332
305.884
305.875
305.863
305.848
305.837
305.831
305.84
305.868
305.908
305.963
306.025
306.092
306.155
306.214
305.787
305.774
305.765
305.75
305.739
305.733
305.742
305.769
305.809
305.863
305.921
305.984
306.04
306.099
305.698
305.683
305.673
305.658
305.646
305.639
305.647
305.673
305.711
305.763
305.819
305.88
305.933
305.992
305.614
305.598
305.585
305.567
305.553
305.545
305.552
305.575
305.611
305.661
305.715
305.777
305.829
305.892
305.534
305.515
305.498
305.477
305.459
305.45
305.454
305.475
305.508
305.557
305.61
305.674
305.729
305.797
305.454
305.433
305.41
305.385
305.363
305.351
305.353
305.371
305.402
305.449
305.502
305.568
305.627
305.701
305.371
305.349
305.319
305.292
305.265
305.25
305.249
305.263
305.291
305.337
305.39
305.459
305.52
305.601
305.286
305.266
305.231
305.199
305.169
305.149
305.144
305.155
305.179
305.223
305.274
305.346
305.405
305.492
305.188
305.176
305.137
305.106
305.073
305.05
305.041
305.048
305.067
305.108
305.157
305.228
305.286
305.377
305.104
305.088
305.053
305.023
304.988
304.961
304.949
304.951
304.963
304.997
305.04
305.102
305.147
305.245
307.395
307.387
307.376
307.362
307.355
307.358
307.371
307.398
307.442
307.502
307.58
307.665
307.771
307.854
307.283
307.273
307.262
307.247
307.239
307.24
307.253
307.281
307.326
307.39
307.47
307.561
307.662
307.75
307.186
307.178
307.162
307.145
307.133
307.131
307.144
307.171
307.216
307.28
307.361
307.451
307.554
307.639
307.092
307.083
307.066
307.048
307.034
307.031
307.043
307.071
307.116
307.181
307.26
307.35
307.447
307.533
307.011
306.999
306.98
306.96
306.945
306.941
306.953
306.981
307.027
307.091
307.17
307.257
307.349
307.434
306.936
306.919
306.9
306.878
306.863
306.859
306.871
306.9
306.946
307.012
307.088
307.175
307.26
307.345
306.868
306.846
306.825
306.803
306.788
306.785
306.797
306.828
306.875
306.942
307.017
307.103
307.184
307.267
306.804
306.777
306.754
306.732
306.717
306.715
306.729
306.761
306.81
306.878
306.954
307.04
307.118
307.202
306.741
306.711
306.685
306.663
306.65
306.65
306.664
306.698
306.748
306.819
306.895
306.982
307.061
307.148
306.677
306.645
306.618
306.597
306.585
306.587
306.602
306.637
306.689
306.761
306.838
306.928
307.009
307.099
306.611
306.58
306.554
306.534
306.523
306.525
306.541
306.577
306.63
306.703
306.781
306.874
306.958
307.053
306.542
306.517
306.491
306.474
306.464
306.466
306.482
306.518
306.571
306.644
306.723
306.818
306.904
307.004
306.472
306.455
306.432
306.419
306.41
306.412
306.427
306.462
306.512
306.583
306.661
306.758
306.845
306.951
306.413
306.396
306.382
306.372
306.364
306.365
306.378
306.408
306.453
306.518
306.591
306.684
306.766
306.882
307.998
307.998
307.995
307.995
308.001
308.016
308.039
308.075
308.12
308.175
308.241
308.31
308.396
308.463
307.916
307.917
307.912
307.91
307.914
307.925
307.946
307.979
308.024
308.081
308.149
308.222
308.308
308.381
307.851
307.85
307.839
307.834
307.834
307.841
307.857
307.887
307.928
307.982
308.05
308.122
308.211
308.286
307.783
307.778
307.766
307.757
307.755
307.76
307.774
307.801
307.841
307.894
307.958
308.031
308.117
308.196
307.723
307.713
307.698
307.686
307.681
307.684
307.695
307.72
307.758
307.809
307.872
307.944
308.028
308.108
307.661
307.647
307.63
307.616
307.609
307.612
307.622
307.647
307.685
307.736
307.798
307.87
307.95
308.031
307.601
307.582
307.563
307.549
307.542
307.544
307.556
307.582
307.621
307.674
307.735
307.808
307.884
307.965
307.538
307.515
307.497
307.483
307.477
307.481
307.496
307.525
307.566
307.622
307.685
307.759
307.833
307.914
307.475
307.45
307.432
307.42
307.417
307.424
307.442
307.476
307.521
307.58
307.645
307.721
307.795
307.877
307.41
307.386
307.37
307.362
307.362
307.372
307.395
307.433
307.482
307.546
307.613
307.693
307.768
307.851
307.348
307.325
307.312
307.308
307.311
307.326
307.353
307.396
307.449
307.516
307.588
307.672
307.749
307.835
307.288
307.27
307.26
307.26
307.267
307.286
307.317
307.363
307.418
307.489
307.564
307.652
307.735
307.824
307.229
307.219
307.212
307.217
307.227
307.251
307.285
307.334
307.392
307.466
307.543
307.637
307.722
307.817
307.188
307.178
307.178
307.185
307.199
307.223
307.258
307.306
307.362
307.435
307.512
307.605
307.696
307.793
308.378
308.379
308.381
308.388
308.399
308.418
308.441
308.472
308.506
308.545
308.589
308.635
308.691
308.737
308.312
308.319
308.32
308.325
308.333
308.349
308.37
308.399
308.433
308.473
308.518
308.567
308.625
308.676
308.264
308.268
308.265
308.267
308.272
308.284
308.302
308.328
308.359
308.396
308.441
308.489
308.55
308.604
308.206
308.21
308.205
308.205
308.209
308.219
308.235
308.259
308.289
308.325
308.369
308.418
308.478
308.537
308.153
308.153
308.147
308.146
308.148
308.156
308.171
308.193
308.22
308.255
308.297
308.346
308.407
308.469
308.095
308.091
308.085
308.084
308.086
308.095
308.109
308.131
308.158
308.193
308.234
308.284
308.343
308.407
308.035
308.029
308.023
308.022
308.026
308.036
308.051
308.074
308.102
308.138
308.179
308.23
308.288
308.353
307.973
307.966
307.961
307.963
307.968
307.981
307.999
308.024
308.054
308.092
308.134
308.186
308.243
308.309
307.91
307.903
307.901
307.905
307.915
307.931
307.953
307.982
308.015
308.056
308.101
308.156
308.212
308.278
307.85
307.845
307.846
307.854
307.867
307.888
307.914
307.947
307.984
308.029
308.076
308.133
308.191
308.257
307.791
307.788
307.793
307.806
307.824
307.85
307.881
307.919
307.961
308.011
308.062
308.122
308.181
308.249
307.741
307.742
307.75
307.767
307.79
307.82
307.855
307.897
307.942
307.996
308.051
308.115
308.177
308.246
307.691
307.699
307.708
307.731
307.758
307.793
307.834
307.882
307.932
307.991
308.051
308.119
308.184
308.255
307.66
307.669
307.685
307.71
307.74
307.777
307.821
307.87
307.923
307.983
308.044
308.112
308.179
308.251
308.552
308.559
308.568
308.582
308.598
308.619
308.641
308.668
308.695
308.725
308.755
308.788
308.826
308.859
308.497
308.512
308.519
308.53
308.545
308.565
308.587
308.614
308.641
308.672
308.704
308.74
308.779
308.814
308.459
308.47
308.474
308.484
308.497
308.515
308.535
308.56
308.586
308.615
308.648
308.683
308.725
308.764
308.407
308.418
308.422
308.432
308.445
308.463
308.483
308.507
308.533
308.563
308.595
308.632
308.675
308.717
308.357
308.366
308.371
308.382
308.396
308.413
308.433
308.457
308.482
308.511
308.544
308.581
308.625
308.671
308.304
308.312
308.32
308.332
308.347
308.365
308.386
308.41
308.435
308.464
308.496
308.534
308.578
308.627
308.249
308.258
308.268
308.283
308.299
308.319
308.341
308.366
308.392
308.422
308.455
308.494
308.537
308.588
308.197
308.208
308.221
308.238
308.257
308.278
308.302
308.327
308.354
308.385
308.418
308.457
308.501
308.552
308.144
308.157
308.173
308.193
308.216
308.24
308.267
308.295
308.324
308.356
308.39
308.431
308.473
308.525
308.099
308.114
308.134
308.158
308.183
308.211
308.24
308.27
308.3
308.334
308.369
308.41
308.452
308.503
308.055
308.074
308.096
308.123
308.153
308.184
308.217
308.251
308.285
308.322
308.358
308.4
308.441
308.491
308.024
308.046
308.072
308.102
308.134
308.169
308.204
308.24
308.275
308.313
308.35
308.393
308.435
308.482
307.991
308.018
308.045
308.079
308.115
308.153
308.193
308.233
308.272
308.313
308.352
308.396
308.438
308.484
307.976
308.005
308.036
308.072
308.109
308.149
308.19
308.231
308.27
308.311
308.349
308.392
308.432
308.481
308.588
308.609
308.631
308.655
308.679
308.704
308.728
308.752
308.774
308.798
308.819
308.843
308.865
308.89
308.548
308.573
308.594
308.618
308.643
308.67
308.695
308.721
308.746
308.77
308.794
308.819
308.844
308.87
308.514
308.538
308.56
308.585
308.611
308.638
308.664
308.691
308.716
308.741
308.766
308.792
308.819
308.847
308.474
308.5
308.523
308.549
308.576
308.604
308.631
308.659
308.685
308.712
308.738
308.765
308.794
308.824
308.435
308.461
308.486
308.514
308.542
308.572
308.6
308.629
308.657
308.684
308.712
308.741
308.771
308.803
308.397
308.425
308.452
308.482
308.512
308.542
308.571
308.6
308.628
308.657
308.685
308.715
308.746
308.78
308.359
308.389
308.419
308.45
308.481
308.513
308.544
308.573
308.602
308.631
308.659
308.69
308.721
308.756
308.329
308.36
308.392
308.424
308.457
308.489
308.519
308.549
308.577
308.606
308.634
308.664
308.695
308.731
308.299
308.331
308.366
308.4
308.434
308.466
308.498
308.527
308.555
308.584
308.611
308.641
308.671
308.707
308.278
308.312
308.348
308.383
308.418
308.45
308.481
308.51
308.537
308.565
308.591
308.621
308.649
308.684
308.26
308.296
308.332
308.368
308.404
308.437
308.468
308.497
308.523
308.55
308.575
308.604
308.63
308.664
308.251
308.288
308.325
308.362
308.398
308.43
308.46
308.487
308.512
308.538
308.56
308.587
308.611
308.643
308.241
308.28
308.318
308.356
308.392
308.425
308.455
308.482
308.506
308.531
308.553
308.578
308.6
308.628
308.246
308.288
308.325
308.361
308.395
308.426
308.455
308.48
308.502
308.524
308.544
308.566
308.586
308.611
308.58
308.609
308.636
308.663
308.688
308.713
308.735
308.756
308.775
308.793
308.81
308.829
308.845
308.866
308.552
308.586
308.616
308.646
308.674
308.701
308.725
308.747
308.767
308.787
308.805
308.825
308.844
308.865
308.53
308.567
308.598
308.631
308.66
308.688
308.714
308.739
308.761
308.783
308.802
308.823
308.842
308.864
308.508
308.547
308.582
308.616
308.647
308.677
308.705
308.731
308.754
308.777
308.798
308.819
308.839
308.861
308.486
308.527
308.565
308.601
308.634
308.666
308.695
308.723
308.748
308.772
308.794
308.817
308.838
308.86
308.469
308.512
308.552
308.589
308.624
308.656
308.687
308.715
308.741
308.766
308.79
308.812
308.834
308.857
308.455
308.499
308.54
308.579
308.615
308.648
308.679
308.708
308.735
308.76
308.783
308.806
308.829
308.851
308.446
308.491
308.534
308.573
308.609
308.642
308.673
308.701
308.727
308.752
308.775
308.797
308.819
308.841
308.441
308.487
308.529
308.568
308.604
308.637
308.667
308.694
308.718
308.741
308.762
308.783
308.804
308.826
308.442
308.488
308.529
308.568
308.603
308.634
308.661
308.686
308.708
308.729
308.748
308.768
308.786
308.808
308.445
308.492
308.532
308.569
308.602
308.631
308.656
308.679
308.698
308.716
308.731
308.749
308.763
308.785
308.456
308.501
308.539
308.573
308.603
308.629
308.651
308.67
308.686
308.7
308.712
308.727
308.738
308.757
308.466
308.509
308.545
308.577
308.604
308.626
308.645
308.66
308.672
308.683
308.692
308.703
308.713
308.729
308.487
308.526
308.556
308.584
308.606
308.624
308.638
308.649
308.657
308.663
308.669
308.677
308.684
308.697
308.543
308.581
308.611
308.642
308.668
308.692
308.714
308.734
308.751
308.766
308.781
308.795
308.809
308.826
308.53
308.569
308.603
308.636
308.665
308.693
308.717
308.739
308.759
308.777
308.794
308.811
308.826
308.844
308.517
308.56
308.597
308.633
308.665
308.694
308.721
308.745
308.767
308.787
308.805
308.823
308.838
308.856
308.511
308.555
308.596
308.633
308.667
308.698
308.726
308.752
308.775
308.796
308.816
308.835
308.851
308.869
308.508
308.553
308.595
308.634
308.669
308.702
308.731
308.758
308.782
308.804
308.825
308.844
308.861
308.878
308.509
308.554
308.598
308.637
308.673
308.706
308.736
308.763
308.788
308.811
308.832
308.851
308.868
308.885
308.513
308.559
308.602
308.642
308.678
308.71
308.74
308.768
308.793
308.815
308.835
308.854
308.872
308.888
308.522
308.567
308.609
308.647
308.683
308.715
308.744
308.771
308.795
308.817
308.837
308.856
308.872
308.888
308.533
308.577
308.617
308.654
308.688
308.718
308.746
308.772
308.794
308.815
308.833
308.85
308.866
308.881
308.547
308.589
308.627
308.661
308.693
308.721
308.746
308.769
308.789
308.807
308.823
308.839
308.853
308.868
308.562
308.602
308.636
308.667
308.696
308.721
308.742
308.761
308.779
308.794
308.807
308.821
308.834
308.849
308.579
308.616
308.645
308.672
308.696
308.717
308.735
308.752
308.765
308.778
308.788
308.8
308.81
308.824
308.595
308.627
308.652
308.674
308.694
308.71
308.725
308.736
308.746
308.755
308.762
308.771
308.779
308.793
308.615
308.641
308.66
308.677
308.691
308.702
308.711
308.718
308.724
308.729
308.734
308.739
308.744
308.754
308.445
308.488
308.526
308.563
308.594
308.623
308.648
308.67
308.69
308.707
308.724
308.738
308.752
308.766
308.449
308.494
308.535
308.573
308.607
308.638
308.665
308.69
308.712
308.732
308.75
308.766
308.781
308.798
308.459
308.503
308.546
308.585
308.621
308.653
308.683
308.709
308.733
308.753
308.772
308.789
308.804
308.821
308.469
308.513
308.557
308.597
308.634
308.668
308.699
308.726
308.751
308.773
308.794
308.811
308.827
308.844
308.481
308.526
308.569
308.61
308.648
308.683
308.714
308.742
308.768
308.79
308.811
308.829
308.845
308.861
308.496
308.54
308.583
308.624
308.661
308.696
308.728
308.756
308.782
308.805
308.826
308.844
308.86
308.874
308.513
308.556
308.598
308.637
308.674
308.708
308.739
308.767
308.792
308.815
308.835
308.853
308.869
308.883
308.532
308.573
308.613
308.65
308.685
308.718
308.748
308.774
308.799
308.821
308.84
308.858
308.873
308.886
308.551
308.59
308.627
308.661
308.694
308.724
308.752
308.778
308.801
308.822
308.841
308.858
308.872
308.886
308.57
308.606
308.639
308.67
308.7
308.728
308.754
308.777
308.799
308.818
308.835
308.852
308.865
308.879
308.588
308.62
308.649
308.677
308.703
308.727
308.75
308.77
308.788
308.806
308.822
308.838
308.852
308.867
308.604
308.633
308.657
308.68
308.702
308.722
308.741
308.759
308.776
308.792
308.806
308.821
308.833
308.848
308.619
308.643
308.662
308.68
308.698
308.714
308.729
308.744
308.757
308.77
308.782
308.794
308.806
308.821
308.636
308.654
308.666
308.678
308.691
308.702
308.714
308.725
308.735
308.746
308.755
308.765
308.775
308.791
308.33
308.374
308.414