/*--------------------------------*- C++ -*----------------------------------*\
| =========                 |                                                 |
| \\      /  F ield         | OpenFOAM: The Open Source CFD Toolbox           |
|  \\    /   O peration     | Version:  v2106                                 |
|   \\  /    A nd           | Website:  www.openfoam.com                      |
|    \\/     M anipulation  |                                                 |
\*---------------------------------------------------------------------------*/
FoamFile
{
    version     2.0;
    format      ascii;
    arch        "LSB;label=32;scalar=64";
    class       volScalarField;
    location    "0.000132";
    object      alphat;
}
// * * * * * * * * * * * * * * * * * * * * * * * * * * * * * * * * * * * * * //

dimensions      [1 -1 -1 0 0 0 0];

internalField   nonuniform List<scalar> 
18109
(
3.60605e-08
3.38404e-08
4.08558e-08
4.07086e-08
3.50803e-08
3.22588e-08
3.03707e-08
1.96829e-08
7.41579e-09
4.44468e-09
3.28656e-09
3.0132e-09
3.24488e-09
3.59641e-09
3.50555e-08
1.11617e-08
3.4364e-09
1.00163e-09
3.57089e-10
2.61111e-10
3.15048e-10
8.47346e-08
2.79608e-08
8.12922e-09
2.0644e-09
4.53989e-10
9.19979e-11
3.09802e-11
1.3866e-07
4.53577e-08
1.29152e-08
3.17226e-09
6.6383e-10
1.16228e-10
1.72173e-11
1.84075e-07
5.72408e-08
1.54633e-08
3.5973e-09
7.11818e-10
1.17055e-10
1.55567e-11
2.26968e-07
6.55193e-08
1.6415e-08
3.5328e-09
6.44262e-10
9.75334e-11
1.19571e-11
2.70811e-07
7.22638e-08
1.66842e-08
3.298e-09
5.49947e-10
7.63436e-11
9.02202e-12
5.90981e-09
4.52423e-09
5.33646e-09
5.10723e-09
5.09386e-09
5.14389e-09
5.17695e-09
5.03326e-09
4.61707e-09
3.8201e-09
2.57921e-09
1.31522e-09
5.11203e-10
2.66243e-10
5.70212e-09
1.63411e-09
5.86433e-10
3.42537e-10
3.46719e-10
4.12409e-10
4.95487e-10
5.64873e-10
5.93044e-10
5.52241e-10
4.07846e-10
2.1511e-10
7.96369e-11
8.26022e-11
1.17062e-08
3.39316e-09
8.97022e-10
2.15697e-10
5.53825e-11
3.01235e-11
3.62904e-11
4.84782e-11
5.8658e-11
6.17297e-11
4.97518e-11
2.74661e-11
1.37561e-11
1.12309e-10
2.68525e-08
7.79296e-09
1.97851e-09
4.37059e-10
8.31454e-11
1.40969e-11
3.56337e-12
3.29326e-12
4.44192e-12
5.36732e-12
4.82406e-12
2.90579e-12
8.41406e-12
1.66844e-10
4.12113e-08
1.18544e-08
2.943e-09
6.27026e-10
1.13411e-10
1.71395e-11
2.17468e-12
3.4802e-13
2.60691e-13
3.50027e-13
3.54236e-13
3.76057e-13
8.76673e-12
1.98322e-10
5.37525e-08
1.45715e-08
3.40885e-09
6.83359e-10
1.1614e-10
1.64273e-11
1.89315e-12
1.76913e-13
2.22382e-14
1.82428e-14
2.06024e-14
1.22938e-13
7.75806e-12
1.92733e-10
6.5326e-08
1.63436e-08
3.53412e-09
6.54343e-10
1.02557e-10
1.33946e-11
1.43108e-12
1.24342e-13
1.01358e-14
1.9478e-15
1.37988e-15
6.53615e-14
5.24016e-12
1.47516e-10
7.68559e-08
1.76851e-08
3.52034e-09
5.99594e-10
8.62449e-11
1.03844e-11
1.07269e-12
1.26448e-13
3.37871e-14
1.42189e-14
5.74334e-15
3.80883e-14
3.37748e-12
9.77755e-11
8.6842e-08
1.83927e-08
3.36425e-09
5.26558e-10
7.00417e-11
8.39582e-12
1.4249e-12
6.19866e-13
3.71087e-13
1.92732e-13
8.44317e-14
5.72964e-14
2.14188e-12
5.98794e-11
9.33283e-08
1.84977e-08
3.14284e-09
4.55005e-10
6.01191e-11
1.2627e-11
7.53655e-12
5.77108e-12
3.94801e-12
2.24998e-12
1.08528e-12
4.83854e-13
1.49662e-12
3.29118e-11
9.07264e-08
1.70142e-08
2.73406e-09
3.90882e-10
8.34091e-11
5.92351e-11
5.7179e-11
4.87584e-11
3.573e-11
2.21651e-11
1.17654e-11
5.58994e-12
3.07893e-12
1.65302e-11
7.80361e-08
1.41702e-08
2.27156e-09
4.4621e-10
3.06526e-10
3.64623e-10
3.87723e-10
3.51481e-10
2.74826e-10
1.84668e-10
1.07584e-10
5.61271e-11
2.67671e-11
1.83491e-11
5.77336e-08
1.0533e-08
2.02779e-09
1.10616e-09
1.52193e-09
2.01411e-09
2.25421e-09
2.16035e-09
1.79836e-09
1.30043e-09
8.24423e-10
4.67364e-10
2.36891e-10
1.22326e-10
4.46749e-08
9.32095e-09
3.50462e-09
4.45825e-09
7.03646e-09
9.62469e-09
1.12305e-08
1.13528e-08
1.00656e-08
7.82477e-09
5.37127e-09
3.27296e-09
1.75533e-09
9.03223e-10
2.12537e-07
7.42198e-07
2.09981e-06
4.85581e-06
9.61143e-06
1.65164e-05
3.39877e-08
1.43814e-07
5.00218e-07
1.41173e-06
3.3872e-06
6.99366e-06
4.42415e-08
2.35098e-07
9.33443e-07
2.82574e-06
6.81987e-06
1.3357e-05
6.34416e-08
3.72544e-07
1.51665e-06
4.50681e-06
1.03931e-05
1.92616e-05
7.06489e-08
4.52585e-07
1.88586e-06
5.55679e-06
1.24908e-05
2.24397e-05
6.07779e-08
4.29556e-07
1.87573e-06
5.63759e-06
1.26873e-05
2.26283e-05
5.14885e-08
3.44046e-07
1.55557e-06
4.87143e-06
1.12743e-05
2.05185e-05
4.39741e-08
2.73989e-07
1.21822e-06
3.86376e-06
9.1551e-06
1.70868e-05
3.65519e-08
2.0957e-07
9.02098e-07
2.86656e-06
6.91134e-06
1.32083e-05
2.88997e-08
1.50656e-07
6.20454e-07
1.95888e-06
4.78533e-06
9.33907e-06
2.05738e-08
9.6562e-08
3.77848e-07
1.17534e-06
2.87827e-06
5.71948e-06
1.192e-08
5.02958e-08
1.8789e-07
5.78473e-07
1.44367e-06
2.94189e-06
5.38582e-09
2.09079e-08
7.61929e-08
2.336e-07
6.02846e-07
1.25237e-06
1.89429e-09
6.979e-09
2.54287e-08
7.71438e-08
2.08821e-07
4.55577e-07
6.06158e-10
2.19006e-09
8.20125e-09
2.84883e-08
9.28594e-08
2.62787e-07
8.24148e-10
3.36812e-09
1.46744e-08
6.09863e-08
2.26698e-07
7.3255e-07
7.78515e-10
5.68504e-09
3.44688e-08
1.67929e-07
6.5685e-07
2.07757e-06
1.49267e-09
1.28462e-08
8.26904e-08
4.03619e-07
1.51801e-06
4.46313e-06
2.3269e-09
2.18747e-08
1.47222e-07
7.2728e-07
2.64674e-06
7.23717e-06
2.8396e-09
2.85618e-08
1.99297e-07
9.85228e-07
3.47054e-06
9.00804e-06
2.85711e-09
3.03433e-08
2.16249e-07
1.06487e-06
3.67056e-06
9.22662e-06
2.3256e-09
2.57196e-08
1.89322e-07
9.38115e-07
3.23548e-06
8.15813e-06
1.6252e-09
1.80436e-08
1.33514e-07
6.83077e-07
2.42969e-06
6.32657e-06
1.01677e-09
1.11543e-08
8.21402e-08
4.22285e-07
1.5459e-06
4.1498e-06
5.24176e-10
5.49287e-09
4.00031e-08
2.07188e-07
7.86484e-07
2.20356e-06
2.2163e-10
2.19071e-09
1.53299e-08
7.88065e-08
3.12318e-07
9.14607e-07
8.58168e-11
7.62347e-10
5.09065e-09
2.59714e-08
1.0586e-07
3.23258e-07
1.2889e-10
6.46058e-10
3.28506e-09
1.386e-08
4.9627e-08
1.46132e-07
8.4597e-10
3.25913e-09
1.22712e-08
4.19685e-08
1.28927e-07
3.55319e-07
5.73611e-09
1.98933e-08
6.49567e-08
1.94265e-07
5.27201e-07
1.29253e-06
1.07753e-08
4.27486e-08
1.52892e-07
4.83235e-07
1.34267e-06
3.26114e-06
1.91005e-08
8.22163e-08
3.08284e-07
9.88982e-07
2.70595e-06
6.29425e-06
2.95112e-08
1.31571e-07
5.01003e-07
1.60484e-06
4.29007e-06
9.4785e-06
4.01717e-08
1.80084e-07
6.83256e-07
2.14667e-06
5.49053e-06
1.14742e-05
4.8319e-08
2.11947e-07
7.81311e-07
2.36063e-06
5.8073e-06
1.17237e-05
5.12162e-08
2.15246e-07
7.60522e-07
2.22206e-06
5.34501e-06
1.06354e-05
4.82499e-08
1.92881e-07
6.50365e-07
1.84415e-06
4.36676e-06
8.651e-06
4.00061e-08
1.50389e-07
4.81292e-07
1.31717e-06
3.06292e-06
6.01799e-06
2.89305e-08
1.01506e-07
3.03965e-07
7.86134e-07
1.75634e-06
3.3863e-06
1.82058e-08
5.9501e-08
1.67026e-07
4.07852e-07
8.69504e-07
1.60301e-06
1.1399e-08
3.48753e-08
9.23479e-08
2.14013e-07
4.37823e-07
8.0002e-07
1.41048e-08
4.26598e-08
1.17197e-07
2.90334e-07
6.53366e-07
1.34916e-06
5.08107e-08
1.50371e-07
4.07046e-07
9.7758e-07
2.10085e-06
4.06395e-06
2.40759e-07
5.5768e-07
1.19041e-06
2.37293e-06
4.30028e-06
6.59339e-06
1.09628e-07
2.59571e-07
5.73405e-07
1.14038e-06
2.08869e-06
3.26545e-06
6.3291e-08
1.53955e-07
3.59059e-07
8.01542e-07
1.69961e-06
3.33814e-06
6.3845e-08
2.07216e-07
6.43994e-07
1.74501e-06
4.03078e-06
7.92489e-06
2.09218e-07
5.61641e-07
1.34106e-06
2.8373e-06
5.45028e-06
9.52454e-06
2.85602e-07
8.74493e-07
2.29567e-06
5.14013e-06
9.95251e-06
1.67333e-05
3.747e-07
1.22629e-06
3.31373e-06
7.40345e-06
1.39949e-05
2.2759e-05
4.15932e-07
1.41076e-06
3.86039e-06
8.59505e-06
1.60106e-05
2.55503e-05
4.03826e-07
1.39173e-06
3.84447e-06
8.58622e-06
1.59268e-05
2.52457e-05
3.51942e-07
1.21272e-06
3.37846e-06
7.63231e-06
1.43202e-05
2.2873e-05
2.869e-07
9.64904e-07
2.68896e-06
6.17144e-06
1.18462e-05
1.93673e-05
2.23765e-07
7.17114e-07
1.97091e-06
4.61467e-06
9.15424e-06
1.54485e-05
1.7033e-07
5.10977e-07
1.37449e-06
3.28653e-06
6.65911e-06
1.14328e-05
1.24615e-07
3.49668e-07
9.00857e-07
2.15838e-06
4.38055e-06
7.45433e-06
8.318e-08
2.20045e-07
5.29473e-07
1.17351e-06
2.39633e-06
4.08971e-06
4.096e-08
1.02556e-07
2.44755e-07
5.27099e-07
1.07315e-06
1.82111e-06
2.09805e-08
5.34135e-08
1.26231e-07
2.77808e-07
5.84115e-07
1.17099e-06
1.48865e-08
4.55981e-08
1.42606e-07
4.27064e-07
1.15248e-06
2.71816e-06
1.26865e-05
2.85855e-05
4.84646e-05
6.85669e-05
8.76352e-05
2.22153e-05
4.26891e-05
6.47578e-05
8.33974e-05
9.57738e-05
3.03971e-05
5.14329e-05
7.15134e-05
8.60776e-05
8.91488e-05
3.41994e-05
5.44638e-05
7.32962e-05
8.62285e-05
8.19479e-05
3.41263e-05
5.35319e-05
7.26371e-05
8.38183e-05
7.37087e-05
3.13421e-05
4.97503e-05
6.75907e-05
7.49247e-05
6.36839e-05
2.67546e-05
4.20546e-05
5.72622e-05
6.2637e-05
5.4132e-05
2.13622e-05
3.26426e-05
4.44187e-05
5.01819e-05
4.61841e-05
3.94928e-05
1.55287e-05
2.3326e-05
3.14995e-05
3.71273e-05
3.86719e-05
3.60345e-05
1.00603e-05
1.50872e-05
2.02422e-05
2.46528e-05
3.02665e-05
3.14098e-05
5.43835e-06
8.34325e-06
1.12611e-05
1.43532e-05
2.04241e-05
2.64594e-05
3.02921e-05
2.31883e-06
3.59493e-06
5.1848e-06
7.23853e-06
1.08451e-05
1.97122e-05
2.7633e-05
3.0779e-05
8.52353e-07
1.62999e-06
3.27644e-06
5.93462e-06
9.54463e-06
1.51445e-05
2.36829e-05
6.17925e-05
6.96287e-07
2.60598e-06
6.97939e-06
1.37908e-05
2.17078e-05
3.04345e-05
3.21307e-05
0.000114663
2.04093e-06
7.31101e-06
1.75501e-05
3.1712e-05
4.70397e-05
6.5053e-05
0.000101239
0.000245215
5.35628e-06
1.5969e-05
3.29954e-05
5.29431e-05
7.16576e-05
9.29595e-05
0.000157417
0.000376203
1.03361e-05
2.59756e-05
4.68646e-05
6.7216e-05
8.13442e-05
9.02022e-05
0.000115994
0.000289815
1.52273e-05
3.3307e-05
5.43296e-05
7.23933e-05
8.14319e-05
7.91683e-05
7.98274e-05
0.000291661
1.79437e-05
3.62785e-05
5.64849e-05
7.38115e-05
8.01237e-05
7.09849e-05
6.79652e-05
0.000256326
1.79591e-05
3.53116e-05
5.48321e-05
7.19957e-05
7.5815e-05
6.23113e-05
5.92976e-05
0.000211359
1.59463e-05
3.16908e-05
5.01715e-05
6.61199e-05
6.81992e-05
5.4867e-05
5.12923e-05
8.68258e-05
1.27307e-05
2.57116e-05
4.17995e-05
5.59677e-05
5.81004e-05
4.80687e-05
4.74034e-05
8.13199e-05
8.78265e-06
1.83133e-05
3.05036e-05
4.22753e-05
4.64558e-05
4.11343e-05
4.9374e-06
1.07443e-05
1.86737e-05
2.73417e-05
3.38133e-05
3.38484e-05
2.17294e-06
4.95681e-06
9.14577e-06
1.4288e-05
2.00142e-05
2.57281e-05
7.78391e-07
1.90065e-06
3.70946e-06
6.24093e-06
9.67843e-06
1.65389e-05
3.50884e-07
1.14127e-06
2.86013e-06
5.56693e-06
9.10341e-06
1.40796e-05
8.74821e-07
3.03896e-06
7.60842e-06
1.44919e-05
2.24479e-05
2.85376e-06
8.59482e-06
1.89865e-05
3.28973e-05
4.77997e-05
6.90062e-06
1.78652e-05
3.45607e-05
5.36432e-05
7.12432e-05
1.24221e-05
2.78748e-05
4.76681e-05
6.65384e-05
7.93169e-05
1.73543e-05
3.46253e-05
5.39774e-05
7.04192e-05
7.80126e-05
2.00027e-05
3.68575e-05
5.51945e-05
7.08296e-05
7.52622e-05
1.98168e-05
3.54288e-05
5.29765e-05
6.80741e-05
6.99093e-05
1.76487e-05
3.14904e-05
4.79257e-05
6.20545e-05
6.25111e-05
1.41484e-05
2.56081e-05
3.98508e-05
5.24884e-05
5.33472e-05
9.69002e-06
1.81067e-05
2.87998e-05
3.93613e-05
4.27324e-05
5.38053e-06
1.06535e-05
1.73602e-05
2.49397e-05
3.15911e-05
2.45106e-06
5.13959e-06
9.0636e-06
1.39001e-05
2.12609e-05
1.34497e-06
3.24471e-06
6.49376e-06
1.0988e-05
1.74967e-05
2.58213e-06
6.70473e-06
1.31723e-05
2.09362e-05
2.93751e-05
7.13748e-06
1.65423e-05
2.9638e-05
4.41412e-05
5.8777e-05
1.53209e-05
3.11422e-05
5.03409e-05
6.96188e-05
8.76589e-05
2.51159e-05
4.49073e-05
6.55726e-05
8.29203e-05
9.44014e-05
3.30724e-05
5.25449e-05
7.07947e-05
8.41051e-05
8.6751e-05
3.60836e-05
5.44827e-05
7.15405e-05
8.32836e-05
7.88568e-05
3.53183e-05
5.29013e-05
7.00942e-05
8.04518e-05
7.05083e-05
3.21761e-05
4.87404e-05
6.50174e-05
7.29192e-05
6.13969e-05
2.76339e-05
4.17219e-05
5.54146e-05
6.19291e-05
5.34643e-05
2.22114e-05
3.28201e-05
4.35089e-05
5.03516e-05
4.68023e-05
1.6389e-05
2.36614e-05
3.09915e-05
3.77902e-05
4.02775e-05
1.04686e-05
1.49716e-05
1.9766e-05
2.50621e-05
3.31561e-05
5.5495e-06
7.94025e-06
1.0929e-05
1.51782e-05
2.5491e-05
2.53836e-06
4.45637e-06
7.62606e-06
1.22317e-05
2.07026e-05
2.29905e-06
6.2498e-06
1.27652e-05
2.0667e-05
2.97229e-05
5.58437e-06
1.46693e-05
2.78257e-05
4.25078e-05
5.76607e-05
5.00094e-10
2.46913e-10
2.72092e-10
3.25005e-10
3.94758e-10
4.60128e-10
5.18231e-10
5.50531e-10
5.3933e-10
4.69558e-10
3.33623e-10
1.77253e-10
7.10284e-11
2.90354e-11
8.61788e-10
2.15554e-10
5.65107e-11
2.4576e-11
2.50209e-11
3.39123e-11
4.58934e-11
5.70918e-11
6.38192e-11
6.23389e-11
4.82871e-11
2.66619e-11
1.02277e-11
4.94601e-12
2.06258e-09
5.30524e-10
1.23454e-10
2.59079e-11
5.50088e-12
2.52336e-12
3.19351e-12
4.58555e-12
5.86817e-12
6.44197e-12
5.41289e-12
3.12182e-12
1.25361e-12
4.16254e-12
4.41597e-09
1.15547e-09
2.63577e-10
5.23078e-11
8.96197e-12
1.36584e-12
3.11892e-13
2.95818e-13
4.19097e-13
5.22908e-13
4.83354e-13
2.96505e-13
3.14558e-13
6.67052e-12
6.75481e-09
1.73994e-09
3.87051e-10
7.41344e-11
1.21115e-11
1.6672e-12
1.9509e-13
3.01288e-14
2.37698e-14
3.2638e-14
3.33247e-14
2.40514e-14
2.79509e-13
8.80797e-12
8.61757e-09
2.08473e-09
4.36625e-10
7.87237e-11
1.20985e-11
1.56244e-12
1.66827e-13
1.4915e-14
2.00486e-15
1.72659e-15
1.90827e-15
3.79755e-15
2.53438e-13
9.27594e-12
1.0074e-08
2.23958e-09
4.32871e-10
7.20514e-11
1.02302e-11
1.224e-12
1.21511e-13
1.00505e-14
8.39797e-16
2.25053e-16
1.92387e-16
1.90246e-15
2.08834e-13
7.96127e-12
1.12142e-08
2.28425e-09
4.05469e-10
6.20467e-11
8.09163e-12
8.93384e-13
8.47355e-14
8.63019e-15
1.88466e-15
7.60898e-16
3.47105e-16
1.47297e-15
1.4606e-13
5.76668e-12
1.18015e-08
2.20685e-09
3.59587e-10
5.05842e-11
6.09671e-12
6.61948e-13
9.67992e-14
3.66e-14
2.03777e-14
9.90729e-15
4.10186e-15
2.8069e-15
1.08629e-13
3.76707e-12
1.16027e-08
2.01804e-09
3.05e-10
3.98033e-11
4.76696e-12
9.186e-13
5.19225e-13
3.75048e-13
2.41044e-13
1.27135e-13
5.64852e-14
2.33228e-14
9.53521e-14
2.3476e-12
1.01506e-08
1.6624e-09
2.36695e-10
3.06414e-11
6.48166e-12
4.77788e-12
4.46838e-12
3.58839e-12
2.45697e-12
1.39921e-12
6.75685e-13
2.8775e-13
1.64819e-13
1.369e-12
7.75926e-09
1.23186e-09
1.76311e-10
3.52105e-11
2.82491e-11
3.38845e-11
3.46372e-11
2.94755e-11
2.1417e-11
1.31106e-11
6.86802e-12
3.17568e-12
1.34637e-12
1.10752e-12
5.02792e-09
8.13952e-10
1.55419e-10
1.11646e-10
1.65132e-10
2.15568e-10
2.3105e-10
2.07313e-10
1.59458e-10
1.04363e-10
5.90781e-11
2.95169e-11
1.31433e-11
6.18515e-12
3.4727e-09
6.97042e-10
3.52535e-10
5.47766e-10
8.839e-10
1.19096e-09
1.32998e-09
1.25596e-09
1.02302e-09
7.15881e-10
4.36449e-10
2.3346e-10
1.0956e-10
5.01238e-11
5.99468e-11
1.78757e-11
1.6777e-11
2.51442e-11
3.74921e-11
5.17845e-11
6.66829e-11
7.85508e-11
8.26486e-11
7.54576e-11
5.50768e-11
3.02497e-11
1.22504e-11
4.33896e-12
1.4925e-10
3.36127e-11
7.42891e-12
2.43659e-12
2.43722e-12
3.7851e-12
5.77332e-12
7.8572e-12
9.35015e-12
9.53514e-12
7.53193e-12
4.30327e-12
1.68488e-12
5.80869e-13
3.66248e-10
8.56976e-11
1.80804e-11
3.44091e-12
6.53598e-13
2.84821e-13
3.9548e-13
6.14795e-13
8.3289e-13
9.47346e-13
8.06082e-13
4.78652e-13
1.8685e-13
1.90689e-13
7.63936e-10
1.82669e-10
3.82053e-11
6.98916e-12
1.11298e-12
1.59551e-13
3.6897e-14
3.89404e-14
5.8261e-14
7.45708e-14
6.91262e-14
4.31297e-14
2.27481e-14
2.9427e-13
1.16928e-09
2.75213e-10
5.62015e-11
9.93632e-12
1.51205e-12
1.9615e-13
2.2093e-14
3.69207e-15
3.33468e-15
4.65257e-15
4.71493e-15
3.19943e-15
1.19717e-14
4.48724e-13
1.44162e-09
3.19684e-10
6.17168e-11
1.0312e-11
1.4811e-12
1.80916e-13
1.86064e-14
1.71713e-15
3.35093e-16
3.23801e-16
3.44352e-16
3.60468e-16
1.21143e-14
5.38238e-13
1.58411e-09
3.2424e-10
5.79988e-11
8.9989e-12
1.20093e-12
1.36647e-13
1.31355e-14
1.13881e-15
1.75293e-16
1.14691e-16
1.12371e-16
1.88698e-16
1.15359e-14
5.32563e-13
1.6131e-09
3.0387e-10
5.01213e-11
7.1877e-12
8.85949e-13
9.34368e-14
8.53756e-15
8.50931e-16
2.16766e-16
1.36601e-16
1.1372e-16
1.86736e-16
9.55557e-15
4.30296e-13
1.52943e-09
2.65176e-10
4.03124e-11
5.34441e-12
6.11722e-13
6.2767e-14
7.98907e-15
2.54853e-15
1.33673e-15
6.55318e-16
3.0801e-16
2.81798e-16
8.77249e-15
3.26377e-13
1.33384e-09
2.1533e-10
3.04638e-11
3.76351e-12
4.26635e-13
7.4543e-14
3.84606e-14
2.61774e-14
1.58012e-14
7.75886e-15
3.20915e-15
1.3323e-15
9.17627e-15
2.40753e-13
1.02388e-09
1.55586e-10
2.07528e-11
2.55793e-12
5.39969e-13
3.99498e-13
3.59534e-13
2.71935e-13
1.73187e-13
9.03063e-14
3.95244e-14
1.51922e-14
1.15253e-14
1.58e-13
6.85559e-10
1.01312e-10
1.37069e-11
2.93815e-12
2.67437e-12
3.17415e-12
3.09107e-12
2.45427e-12
1.6432e-12
9.11893e-13
4.28183e-13
1.75698e-13
6.74182e-14
9.40534e-14
3.88637e-10
5.95072e-11
1.23126e-11
1.16486e-11
1.79847e-11
2.27922e-11
2.30645e-11
1.91464e-11
1.34486e-11
7.91138e-12
3.97144e-12
1.7465e-12
6.83713e-13
3.07143e-13
2.40823e-10
5.12264e-11
3.7517e-11
6.73333e-11
1.09949e-10
1.4289e-10
1.49428e-10
1.29424e-10
9.53326e-11
5.9353e-11
3.17782e-11
1.48737e-11
6.11079e-12
2.52877e-12
7.56029e-12
1.69648e-12
1.09438e-12
1.8334e-12
3.25572e-12
5.23088e-12
7.60467e-12
9.85977e-12
1.11372e-11
1.06992e-11
8.02951e-12
4.5886e-12
1.91413e-12
6.46575e-13
2.13014e-11
4.39285e-12
8.63856e-13
2.28169e-13
2.20204e-13
3.8571e-13
6.54107e-13
9.6753e-13
1.22565e-12
1.30696e-12
1.05681e-12
6.2341e-13
2.5502e-13
8.21714e-14
5.26406e-11
1.13177e-11
2.19062e-12
3.83047e-13
6.67751e-14
2.91147e-14
4.47788e-14
7.50202e-14
1.07427e-13
1.26951e-13
1.09931e-13
6.6883e-14
2.72644e-14
1.1818e-14
1.08257e-10
2.37747e-11
4.58698e-12
7.78797e-13
1.16202e-13
1.59215e-14
3.98931e-15
4.7977e-15
7.53064e-15
9.89388e-15
9.26402e-15
5.89352e-15
2.58462e-15
1.12248e-14
1.63843e-10
3.54926e-11
6.70925e-12
1.10445e-12
1.57954e-13
1.95357e-14
2.21489e-15
4.88484e-16
5.11358e-16
6.95024e-16
7.03167e-16
4.99418e-16
6.38188e-16
1.8958e-14
1.94e-10
3.97848e-11
7.14532e-12
1.11721e-12
1.51451e-13
1.77118e-14
1.84008e-15
2.51582e-16
1.27263e-16
1.29582e-16
1.31959e-16
1.25718e-16
6.36148e-16
2.74216e-14
1.99744e-10
3.80703e-11
6.37125e-12
9.31131e-13
1.17992e-13
1.2944e-14
1.28709e-15
1.92876e-16
1.07511e-16
1.02369e-16
1.0223e-16
1.05624e-16
6.96728e-16
3.22069e-14
1.86413e-10
3.29273e-11
5.1096e-12
6.94184e-13
8.17205e-14
8.37551e-15
8.20138e-16
1.58552e-16
1.07583e-16
1.02591e-16
1.01509e-16
1.06679e-16
7.17773e-16
3.05335e-14
1.6001e-10
2.61773e-11
3.76802e-12
4.76335e-13
5.23632e-14
5.20556e-15
6.57599e-16
2.35898e-16
1.60682e-16
1.25499e-16
1.09419e-16
1.1395e-16
8.30641e-16
2.82772e-14
1.25017e-10
1.91441e-11
2.57819e-12
3.05344e-13
3.30643e-14
5.19963e-15
2.40478e-15
1.56742e-15
9.2976e-16
4.77048e-16
2.39761e-16
1.59967e-16
1.00111e-15
2.52696e-14
8.53052e-11
1.23557e-11
1.57578e-12
1.86886e-13
3.80092e-14
2.71114e-14
2.33045e-14
1.6694e-14
9.97811e-15
4.87627e-15
2.01401e-15
7.71143e-16
1.04311e-15
1.85614e-14
5.09503e-11
7.20882e-12
9.40589e-13
2.12633e-13
2.05917e-13
2.381e-13
2.19984e-13
1.63774e-13
1.01607e-13
5.18762e-14
2.22198e-14
8.30412e-15
3.14788e-15
9.90479e-15
2.586e-11
3.84343e-12
8.822e-13
1.01012e-12
1.57209e-12
1.91445e-12
1.82091e-12
1.40427e-12
9.05607e-13
4.85406e-13
2.19671e-13
8.6813e-14
3.05286e-14
1.47192e-14
1.4717e-11
3.48425e-12
3.49394e-12
6.75546e-12
1.09143e-11
1.35146e-11
1.31602e-11
1.04875e-11
7.02391e-12
3.94428e-12
1.88509e-12
7.86755e-13
2.88061e-13
1.11329e-13
8.35268e-13
1.61884e-13
7.02696e-14
1.20844e-13
2.4901e-13
4.57933e-13
7.43756e-13
1.05431e-12
1.27514e-12
1.28629e-12
9.92566e-13
5.8178e-13
2.51808e-13
8.57304e-14
2.47563e-12
4.74968e-13
8.57315e-14
1.92353e-14
1.76248e-14
3.42703e-14
6.39027e-14
1.02133e-13
1.37394e-13
1.52982e-13
1.26618e-13
7.6324e-14
3.25732e-14
1.0734e-14
6.15489e-12
1.23208e-12
2.22059e-13
3.62648e-14
5.96469e-15
2.67565e-15
4.46924e-15
7.96301e-15
1.1973e-14
1.46659e-14
1.29468e-14
8.04112e-15
3.45753e-15
1.22342e-15
1.25198e-11
2.5576e-12
4.608e-13
7.34899e-14
1.04458e-14
1.45327e-15
4.59504e-16
5.91454e-16
9.17256e-16
1.20884e-15
1.1497e-15
7.70111e-16
3.85194e-16
4.94766e-16
1.86375e-11
3.7642e-12
6.66476e-13
1.03394e-13
1.41165e-14
1.75439e-15
2.76669e-16
1.37391e-16
1.45456e-16
1.67313e-16
1.68334e-16
1.45123e-16
1.30446e-16
7.99213e-16
2.11248e-11
4.05925e-12
6.86195e-13
1.01597e-13
1.32114e-14
1.56779e-15
2.41287e-16
1.12733e-16
1.03115e-16
1.03687e-16
1.03954e-16
1.02998e-16
1.20727e-16
1.30331e-15
2.03708e-11
3.662e-12
5.8047e-13
8.08674e-14
9.90881e-15
1.13276e-15
1.93064e-16
1.07605e-16
1.0103e-16
1.00659e-16
1.00662e-16
1.00815e-16
1.27802e-16
1.78583e-15
1.74657e-11
2.92812e-12
4.32914e-13
5.64372e-14
6.4914e-15
7.28461e-16
1.53094e-16
1.0453e-16
1.00903e-16
1.00618e-16
1.0058e-16
1.00949e-16
1.3831e-16
2.05005e-15
1.36412e-11
2.13266e-12
2.94489e-13
3.59869e-14
3.91836e-15
4.58195e-16
1.345e-16
1.06752e-16
1.0291e-16
1.01495e-16
1.00901e-16
1.01554e-16
1.58646e-16
2.35548e-15
9.62196e-12
1.4173e-12
1.84231e-13
2.12363e-14
2.29397e-15
3.9507e-16
2.10857e-16
1.64707e-16
1.34126e-16
1.14677e-16
1.05458e-16
1.03612e-16
1.83181e-16
2.51485e-15
5.91269e-12
8.29325e-13
1.02682e-13
1.18812e-14
2.31638e-15
1.55874e-15
1.28811e-15
9.03137e-16
5.47449e-16
3.00569e-16
1.72888e-16
1.24207e-16
1.84356e-16
2.05482e-15
3.20306e-12
4.40739e-13
5.61751e-14
1.30126e-14
1.27646e-14
1.42286e-14
1.24807e-14
8.76654e-15
5.11169e-15
2.4748e-15
1.03122e-15
4.13311e-16
2.31516e-16
1.13637e-15
1.48652e-12
2.17134e-13
5.50002e-14
7.06826e-14
1.08758e-13
1.26628e-13
1.13286e-13
8.15038e-14
4.86624e-14
2.41095e-14
1.00411e-14
3.67214e-15
1.24525e-15
8.44231e-16
7.94188e-13
2.132e-13
2.70362e-13
5.39479e-13
8.50173e-13
9.98182e-13
9.05868e-13
6.6719e-13
4.09808e-13
2.10422e-13
9.13427e-14
3.45691e-14
1.15475e-14
4.42128e-15
7.65166e-14
1.36034e-14
4.3202e-15
7.13052e-15
1.65839e-14
3.43315e-14
6.15983e-14
9.47014e-14
1.22035e-13
1.2878e-13
1.02017e-13
6.08687e-14
2.7005e-14
9.53194e-15
2.33205e-13
4.19992e-14
7.11825e-15
1.47727e-15
1.29639e-15
2.67925e-15
5.36233e-15
9.14743e-15
1.29859e-14
1.50435e-14
1.27457e-14
7.83414e-15
3.47745e-15
1.23939e-15
5.86341e-13
1.10011e-13
1.86427e-14
2.93422e-15
5.31937e-16
2.93175e-16
4.60318e-16
7.94116e-16
1.20175e-15
1.50047e-15
1.35806e-15
8.86278e-16
4.39601e-16
2.11862e-16
1.1829e-12
2.26338e-13
3.83701e-14
5.85253e-15
8.69757e-16
1.97008e-16
1.28162e-16
1.43188e-16
1.75397e-16
2.05352e-16
2.008e-16
1.64571e-16
1.27811e-16
1.16372e-16
1.72828e-12
3.2773e-13
5.47373e-14
8.12243e-15
1.13797e-15
2.1782e-16
1.12426e-16
1.03122e-16
1.04279e-16
1.06459e-16
1.06594e-16
1.0441e-16
1.02349e-16
1.21197e-16
1.87386e-12
3.39792e-13
5.44642e-14
7.75447e-15
1.04683e-15
2.02162e-16
1.09696e-16
1.00999e-16
1.00402e-16
1.00496e-16
1.00537e-16
1.00454e-16
1.00995e-16
1.43975e-16
1.69693e-12
2.89695e-13
4.38445e-14
5.92785e-15
7.80728e-16
1.69142e-16
1.06257e-16
1.00667e-16
1.00257e-16
1.00252e-16
1.00267e-16
1.00286e-16
1.0146e-16
1.75977e-16
1.34425e-12
2.15399e-13
3.06254e-14
3.92602e-15
5.18832e-16
1.39752e-16
1.03512e-16
1.00492e-16
1.00286e-16
1.00288e-16
1.003e-16
1.00337e-16
1.02497e-16
2.12088e-16
9.62587e-13
1.4494e-13
1.94102e-14
2.37928e-15
3.33946e-16
1.2112e-16
1.02124e-16
1.00552e-16
1.00393e-16
1.00362e-16
1.00357e-16
1.00425e-16
1.04541e-16
2.62592e-16
6.18961e-13
8.84609e-14
1.12553e-14
1.34396e-15
2.22624e-16
1.14549e-16
1.04634e-16
1.02617e-16
1.01491e-16
1.00837e-16
1.0055e-16
1.00579e-16
1.07096e-16
3.03613e-16
3.46942e-13
4.75829e-14
5.83729e-15
7.35515e-16
2.06906e-16
1.63025e-16
1.48203e-16
1.30635e-16
1.16032e-16
1.06935e-16
1.0267e-16
1.0126e-16
1.07455e-16
2.79152e-16
1.7274e-13
2.33647e-14
2.99324e-15
7.50095e-16
7.2311e-16
7.68004e-16
6.55949e-16
4.66261e-16
2.97208e-16
1.85916e-16
1.30556e-16
1.09667e-16
1.06973e-16
1.97626e-16
7.43869e-14
1.07835e-14
2.99068e-15
4.05462e-15
6.07114e-15
6.74946e-15
5.71674e-15
3.88675e-15
2.20501e-15
1.06511e-15
4.65874e-16
2.18091e-16
1.3453e-16
1.45626e-16
3.77793e-14
1.14773e-14
1.7143e-14
3.44502e-14
5.25812e-14
5.85254e-14
4.97193e-14
3.40795e-14
1.94057e-14
9.24755e-15
3.73917e-15
1.35416e-15
4.78382e-16
2.48771e-16
5.96781e-15
1.06398e-15
3.3162e-16
4.53199e-16
1.03444e-15
2.26987e-15
4.37354e-15
7.18269e-15
9.78176e-15
1.07534e-14
8.74386e-15
5.31765e-15
2.4426e-15
9.39228e-16
1.8348e-14
3.18381e-15
5.81507e-16
1.84468e-16
1.67597e-16
2.61991e-16
4.61951e-16
7.67625e-16
1.10426e-15
1.31062e-15
1.1466e-15
7.46761e-16
3.85779e-16
1.97558e-16
4.6455e-14
8.26646e-15
1.39348e-15
2.85325e-16
1.26297e-16
1.11734e-16
1.2423e-16
1.50365e-16
1.84424e-16
2.11374e-16
2.01747e-16
1.63811e-16
1.27677e-16
1.09074e-16
9.27223e-14
1.675e-14
2.75267e-15
4.76685e-16
1.47511e-16
1.05457e-16
1.01524e-16
1.02854e-16
1.05482e-16
1.08026e-16
1.07771e-16
1.04926e-16
1.02038e-16
1.00737e-16
1.32338e-13
2.37175e-14
3.82012e-15
6.1816e-16
1.6368e-16
1.06672e-16
1.00435e-16
9.99461e-17
1.00079e-16
1.00278e-16
1.00311e-16
1.00159e-16
9.99977e-17
1.00475e-16
1.36885e-13
2.35713e-14
3.66423e-15
5.77752e-16
1.5627e-16
1.05647e-16
1.00312e-16
9.98432e-17
9.98328e-17
9.98601e-17
9.98808e-17
9.98908e-17
9.99163e-17
1.01328e-16
1.16449e-13
1.90015e-14
2.82445e-15
4.46485e-16
1.38504e-16
1.03641e-16
1.00162e-16
9.98761e-17
9.98731e-17
9.98907e-17
9.99074e-17
9.99233e-17
9.99827e-17
1.02988e-16
8.5558e-14
1.32038e-14
1.88248e-15
3.13385e-16
1.22193e-16
1.0196e-16
1.0006e-16
9.99207e-17
9.99284e-17
9.99456e-17
9.9961e-17
9.99766e-17
1.00101e-16
1.05783e-16
5.65196e-14
8.28216e-15
1.15129e-15
2.18095e-16
1.11545e-16
1.00969e-16
1.00033e-16
9.9975e-17
9.99868e-17
1.00003e-16
1.00017e-16
1.00034e-16
1.00305e-16
1.10355e-16
3.34321e-14
4.71324e-15
6.62137e-16
1.59118e-16
1.05595e-16
1.0059e-16
1.00148e-16
1.00092e-16
1.00075e-16
1.00074e-16
1.00081e-16
1.00099e-16
1.00567e-16
1.14818e-16
1.73106e-14
2.39478e-15
3.66545e-16
1.27493e-16
1.04275e-16
1.02247e-16
1.01643e-16
1.01034e-16
1.00572e-16
1.00309e-16
1.00199e-16
1.00177e-16
1.00677e-16
1.14055e-16
8.05172e-15
1.14311e-15
2.22982e-16
1.26662e-16
1.24797e-16
1.25374e-16
1.19927e-16
1.12312e-16
1.06256e-16
1.02671e-16
1.01037e-16
1.00463e-16
1.00603e-16
1.0805e-16
3.3033e-15
5.4656e-16
2.26105e-16
2.7946e-16
3.64472e-16
3.81058e-16
3.238e-16
2.407e-16
1.72092e-16
1.30161e-16
1.10514e-16
1.03337e-16
1.01218e-16
1.03279e-16
1.65431e-15
6.18285e-16
9.76658e-16
1.86673e-15
2.70922e-15
2.85316e-15
2.29357e-15
1.50028e-15
8.37516e-16
4.21375e-16
2.15502e-16
1.35315e-16
1.09773e-16
1.05147e-16
4.7294e-16
1.56441e-16
1.10622e-16
1.13851e-16
1.43068e-16
2.14541e-16
3.49109e-16
5.44858e-16
7.43749e-16
8.37319e-16
7.11431e-16
4.71535e-16
2.67141e-16
1.59809e-16
1.28641e-15
2.8747e-16
1.26627e-16
1.03619e-16
1.02513e-16
1.0778e-16
1.20015e-16
1.40421e-16
1.64825e-16
1.81499e-16
1.71741e-16
1.44249e-16
1.19251e-16
1.0623e-16
3.13653e-15
6.02692e-16
1.74082e-16
1.09324e-16
1.00597e-16
9.98832e-17
1.00683e-16
1.02393e-16
1.04755e-16
1.06758e-16
1.06234e-16
1.03696e-16
1.01272e-16
1.00024e-16
6.11269e-15
1.11721e-15
2.52186e-16
1.19798e-16
1.0174e-16
9.95644e-17
9.9392e-17
9.94985e-17
9.96909e-17
9.9885e-17
9.98927e-17
9.97224e-17
9.95483e-17
9.94726e-17
8.46448e-15
1.50916e-15
3.09288e-16
1.27091e-16
1.02583e-16
9.96658e-17
9.93719e-17
9.93635e-17
9.93879e-17
9.94166e-17
9.94354e-17
9.94419e-17
9.94471e-17
9.94743e-17
8.34289e-15
1.43942e-15
2.92168e-16
1.23967e-16
1.02165e-16
9.96583e-17
9.94143e-17
9.94054e-17
9.94193e-17
9.94352e-17
9.94512e-17
9.94666e-17
9.94814e-17
9.95412e-17
6.68818e-15
1.11755e-15
2.38559e-16
1.16285e-16
1.01254e-16
9.96069e-17
9.94575e-17
9.94572e-17
9.94702e-17
9.94843e-17
9.94982e-17
9.95122e-17
9.95264e-17
9.96543e-17
4.59957e-15
7.57754e-16
1.84197e-16
1.09189e-16
1.00481e-16
9.95776e-17
9.95048e-17
9.95112e-17
9.9524e-17
9.95373e-17
9.95498e-17
9.95623e-17
9.95784e-17
9.98584e-17
2.84963e-15
4.80418e-16
1.45587e-16
1.04551e-16
1.00027e-16
9.95845e-17
9.95564e-17
9.95664e-17
9.95789e-17
9.95916e-17
9.9603e-17
9.96141e-17
9.96377e-17
1.00206e-16
1.59895e-15
2.9694e-16
1.22104e-16
1.01938e-16
9.98118e-17
9.96194e-17
9.96136e-17
9.96244e-17
9.96362e-17
9.96483e-17
9.96589e-17
9.96692e-17
9.97055e-17
1.00595e-16
8.14827e-16
1.89253e-16
1.0946e-16
1.00665e-16
9.97877e-17
9.97182e-17
9.971e-17
9.97051e-17
9.97048e-17
9.971e-17
9.97174e-17
9.97256e-17
9.9766e-17
1.00654e-16
4.0516e-16
1.36683e-16
1.0393e-16
1.00603e-16
1.00503e-16
1.005e-16
1.00314e-16
1.00083e-16
9.99159e-17
9.9828e-17
9.97954e-17
9.9789e-17
9.98141e-17
1.0033e-16
2.12951e-16
1.14452e-16
1.04289e-16
1.06369e-16
1.09264e-16
1.0936e-16
1.06943e-16
1.03993e-16
1.01822e-16
1.00619e-16
1.00095e-16
9.99165e-17
9.98757e-17
1.00038e-16
1.5209e-16
1.19639e-16
1.36579e-16
1.73719e-16
2.05002e-16
2.04451e-16
1.77456e-16
1.4544e-16
1.21753e-16
1.0857e-16
1.02786e-16
1.00744e-16
1.00131e-16
1.00074e-16
1.18752e-16
1.01748e-16
9.93554e-17
9.94208e-17
1.0068e-16
1.04085e-16
1.11165e-16
1.22479e-16
1.35107e-16
1.42151e-16
1.35497e-16
1.21207e-16
1.08965e-16
1.02575e-16
1.63626e-16
1.0857e-16
1.00218e-16
9.90792e-17
9.90247e-17
9.92855e-17
9.99281e-17
1.01072e-16
1.02541e-16
1.03639e-16
1.03158e-16
1.01569e-16
1.0012e-16
9.93697e-17
2.66244e-16
1.25035e-16
1.02585e-16
9.93841e-17
9.89757e-17
9.89472e-17
9.8993e-17
9.90915e-17
9.92346e-17
9.93647e-17
9.93513e-17
9.92168e-17
9.90897e-17
9.90313e-17
4.27541e-16
1.5144e-16
1.06402e-16
9.99012e-17
9.90618e-17
9.8967e-17
9.89631e-17
9.89735e-17
9.89909e-17
9.90101e-17
9.90209e-17
9.90213e-17
9.90233e-17
9.90314e-17
5.43253e-16
1.69814e-16
1.08991e-16
1.0025e-16
9.91335e-17
9.90082e-17
9.89987e-17
9.90028e-17
9.90101e-17
9.90189e-17
9.9029e-17
9.90387e-17
9.905e-17
9.9063e-17
5.15062e-16
1.6303e-16
1.07805e-16
1.00107e-16
9.91506e-17
9.90464e-17
9.90392e-17
9.90429e-17
9.90492e-17
9.90567e-17
9.90658e-17
9.90753e-17
9.90861e-17
9.90993e-17
4.10691e-16
1.44562e-16
1.05039e-16
9.97777e-17
9.91494e-17
9.90842e-17
9.9081e-17
9.90849e-17
9.90906e-17
9.90974e-17
9.91052e-17
9.91139e-17
9.91231e-17
9.91379e-17
2.96235e-16
1.26284e-16
1.02519e-16
9.95025e-17
9.91579e-17
9.91245e-17
9.91245e-17
9.91285e-17
9.91337e-17
9.914e-17
9.91468e-17
9.91545e-17
9.91625e-17
9.91829e-17
2.0969e-16
1.13605e-16
1.00898e-16
9.93507e-17
9.9182e-17
9.91675e-17
9.91693e-17
9.91734e-17
9.91782e-17
9.91839e-17
9.91897e-17
9.91963e-17
9.92033e-17
9.92368e-17
1.53927e-16
1.06092e-16
1.00007e-16
9.92911e-17
9.92172e-17
9.92127e-17
9.92156e-17
9.92196e-17
9.92243e-17
9.92295e-17
9.92347e-17