/*--------------------------------*- C++ -*----------------------------------*\
| =========                 |                                                 |
| \\      /  F ield         | OpenFOAM: The Open Source CFD Toolbox           |
|  \\    /   O peration     | Version:  v2106                                 |
|   \\  /    A nd           | Website:  www.openfoam.com                      |
|    \\/     M anipulation  |                                                 |
\*---------------------------------------------------------------------------*/
FoamFile
{
    version     2.0;
    format      ascii;
    arch        "LSB;label=32;scalar=64";
    class       volScalarField;
    location    "0.000169";
    object      p;
}
// * * * * * * * * * * * * * * * * * * * * * * * * * * * * * * * * * * * * * //

dimensions      [1 -1 -2 0 0 0 0];

internalField   nonuniform List<scalar> 
17924
(
239685
239670
239649
239626
239438
239415
239387
239359
239327
239293
239254
239388
239366
239335
239306
239271
239235
239193
239340
239317
239284
239251
239213
239174
239131
239291
239266
239230
239195
239155
239114
239068
239242
239213
239175
239138
239096
239052
239004
239190
239157
239118
239078
239034
238988
238938
239136
239099
239058
239016
238970
238921
238870
239075
239035
238993
238949
238901
238851
238798
239013
238970
238927
238880
238831
238778
238724
238944
238898
238853
238804
238754
238700
238645
238874
238825
238779
238728
238675
238620
238563
238796
238743
238696
238642
238589
238532
238475
238721
238665
238615
238559
238503
238444
238384
238626
238571
238518
238463
238406
238348
238288
239015
238982
238945
238912
238878
238844
238810
238774
238737
238698
238657
238615
238568
238523
238947
238918
238878
238843
238806
238769
238730
238690
238649
238606
238562
238515
238466
238413
238880
238849
238807
238769
238729
238689
238648
238606
238562
238518
238473
238424
238375
238323
238811
238778
238734
238694
238651
238608
238565
238520
238474
238427
238380
238331
238281
238228
238740
238703
238657
238615
238570
238525
238480
238433
238386
238338
238290
238241
238191
238139
238665
238624
238578
238533
238487
238441
238393
238345
238297
238248
238200
238150
238101
238050
238587
238542
238495
238449
238401
238353
238305
238256
238207
238159
238110
238061
238013
237964
238502
238455
238408
238361
238313
238264
238214
238165
238116
238067
238019
237971
237924
237878
238415
238365
238319
238270
238222
238172
238122
238073
238024
237976
237928
237882
237837
237796
238321
238270
238224
238174
238126
238076
238027
237978
237930
237882
237836
237792
237749
237712
238227
238174
238128
238078
238030
237980
237931
237882
237834
237788
237743
237702
237661
237632
238126
238071
238026
237977
237928
237879
237831
237783
237737
237693
237649
237611
237573
237549
238031
237974
237928
237878
237829
237780
237731
237684
237638
237595
237554
237518
237484
237466
237914
237865
237818
237770
237723
237675
237629
237584
237540
237500
237462
237429
237397
237380
238440
238403
238365
238332
238301
238273
238247
238223
238200
238178
238157
238138
238119
238106
238354
238326
238285
238252
238218
238187
238157
238130
238104
238080
238056
238033
238013
237990
238272
238242
238200
238165
238129
238097
238066
238036
238009
237983
237959
237935
237914
237891
238188
238156
238114
238077
238040
238006
237973
237943
237914
237887
237861
237836
237814
237788
238103
238067
238025
237987
237949
237914
237880
237849
237819
237791
237765
237740
237718
237693
238014
237976
237934
237895
237857
237821
237787
237756
237725
237697
237671
237646
237624
237599
237925
237884
237842
237802
237764
237728
237694
237663
237633
237605
237579
237555
237533
237511
237832
237789
237748
237709
237671
237635
237602
237571
237541
237514
237488
237465
237444
237424
237738
237693
237654
237615
237578
237543
237510
237479
237451
237424
237400
237379
237359
237342
237641
237596
237559
237520
237484
237450
237418
237388
237361
237336
237313
237294
237274
237262
237545
237500
237464
237426
237391
237358
237327
237299
237274
237250
237229
237212
237194
237187
237447
237402
237367
237331
237298
237266
237237
237211
237187
237165
237146
237130
237115
237113
237354
237310
237275
237240
237207
237177
237150
237125
237103
237083
237067
237053
237041
237045
237247
237212
237177
237145
237115
237088
237063
237040
237021
237004
236990
236978
236969
236974
237759
237731
237702
237680
237660
237643
237629
237617
237609
237605
237605
237606
237613
237620
237669
237650
237620
237597
237577
237559
237544
237532
237523
237518
237516
237515
237521
237518
237585
237565
237535
237512
237491
237474
237458
237445
237436
237430
237427
237425
237432
237427
237499
237478
237449
237427
237406
237388
237373
237360
237350
237344
237341
237338
237343
237337
237416
237393
237364
237342
237321
237303
237288
237275
237266
237259
237256
237253
237257
237253
237331
237306
237279
237257
237236
237219
237204
237192
237183
237177
237174
237172
237173
237171
237248
237221
237196
237173
237153
237136
237122
237111
237103
237097
237094
237093
237094
237094
237165
237136
237112
237091
237072
237056
237043
237033
237025
237020
237017
237016
237017
237019
237083
237054
237031
237010
236992
236977
236966
236956
236950
236946
236944
236944
236945
236949
237002
236972
236950
236931
236915
236901
236891
236882
236877
236874
236873
236874
236875
236881
236923
236893
236873
236855
236840
236827
236818
236812
236808
236806
236806
236809
236811
236820
236845
236815
236798
236781
236767
236756
236749
236743
236741
236741
236742
236746
236750
236760
236770
236744
236727
236711
236698
236689
236683
236679
236679
236680
236684
236690
236696
236708
236692
236671
236655
236641
236631
236624
236620
236619
236620
236623
236629
236636
236644
236655
237017
237008
236997
236991
236987
236986
236986
236989
236995
237004
237017
237033
237056
237080
236938
236938
236930
236924
236920
236920
236921
236925
236932
236942
236954
236969
236990
237006
236872
236871
236863
236858
236854
236854
236855
236860
236867
236876
236889
236903
236924
236938
236805
236802
236795
236791
236788
236789
236792
236797
236804
236814
236826
236840
236860
236872
236740
236735
236729
236726
236724
236725
236729
236735
236742
236752
236765
236779
236797
236811
236676
236671
236665
236663
236662
236664
236668
236674
236683
236693
236705
236719
236736
236751
236615
236608
236603
236601
236601
236604
236609
236616
236625
236635
236648
236662
236678
236694
236554
236546
236543
236541
236543
236546
236551
236559
236568
236579
236592
236606
236621
236639
236495
236487
236484
236483
236485
236490
236496
236504
236514
236526
236539
236554
236568
236586
236437
236430
236428
236428
236430
236435
236443
236452
236463
236475
236488
236503
236517
236536
236383
236375
236374
236374
236378
236384
236393
236403
236414
236427
236441
236456
236471
236490
236333
236323
236323
236325
236330
236337
236346
236357
236369
236383
236397
236413
236428
236447
236283
236275
236276
236278
236284
236293
236304
236316
236329
236344
236359
236375
236392
236412
236236
236230
236232
236236
236243
236253
236264
236277
236291
236307
236324
236341
236358
236377
236235
236245
236256
236268
236281
236295
236310
236326
236343
236361
236381
236404
236428
236460
236193
236204
236215
236230
236244
236260
236276
236292
236310
236330
236351
236374
236398
236424
236155
236168
236180
236194
236208
236224
236240
236258
236276
236296
236318
236341
236365
236389
236117
236132
236144
236159
236173
236189
236206
236224
236243
236263
236285
236308
236332
236356
236082
236096
236108
236123
236138
236154
236172
236190
236210
236230
236252
236274
236298
236322
236046
236060
236072
236088
236104
236121
236139
236157
236177
236197
236218
236241
236264
236288
236011
236024
236037
236053
236069
236087
236106
236125
236144
236165
236186
236208
236231
236254
235977
235989
236004
236019
236036
236054
236073
236092
236112
236133
236154
236175
236198
236221
235944
235957
235972
235987
236004
236022
236041
236061
236081
236102
236123
236145
236166
236189
235914
235926
235941
235957
235974
235992
236011
236031
236051
236072
236093
236115
236136
236159
235884
235896
235912
235928
235946
235964
235983
236003
236024
236045
236066
236087
236108
236131
235857
235869
235885
235901
235919
235938
235958
235978
235998
236019
236040
236062
236082
236105
235831
235844
235860
235877
235895
235915
235936
235956
235977
235998
236019
236040
236061
236084
235810
235823
235840
235857
235876
235896
235915
235936
235956
235977
235998
236020
236041
236062
235412
235439
235464
235488
235513
235537
235561
235584
235607
235630
235654
235677
235700
235726
235403
235431
235456
235482
235508
235533
235558
235583
235607
235631
235654
235678
235702
235728
235399
235425
235452
235478
235504
235529
235555
235580
235604
235628
235651
235675
235699
235725
235392
235419
235446
235472
235499
235525
235551
235577
235601
235625
235649
235673
235697
235722
235387
235414
235440
235467
235494
235520
235546
235571
235596
235621
235644
235668
235692
235717
235380
235407
235434
235460
235487
235514
235540
235565
235590
235615
235639
235663
235686
235711
235373
235399
235426
235453
235480
235506
235532
235558
235583
235607
235631
235655
235678
235702
235365
235392
235418
235445
235472
235498
235524
235549
235574
235599
235623
235646
235670
235693
235357
235384
235411
235437
235463
235489
235515
235540
235565
235590
235614
235637
235660
235683
235350
235377
235403
235430
235455
235481
235507
235532
235556
235580
235604
235627
235651
235673
235343
235369
235396
235422
235448
235474
235499
235524
235548
235571
235595
235618
235641
235663
235337
235363
235389
235416
235441
235467
235492
235516
235540
235563
235586
235609
235631
235654
235332
235359
235384
235411
235436
235462
235487
235511
235534
235557
235580
235602
235623
235646
235334
235360
235385
235411
235435
235459
235482
235506
235528
235551
235573
235594
235616
235638
234537
234566
234597
234625
234654
234681
234707
234732
234756
234779
234801
234821
234839
234861
234554
234583
234615
234644
234674
234702
234730
234756
234781
234805
234826
234847
234865
234887
234575
234604
234637
234666
234696
234725
234752
234778
234803
234826
234847
234868
234887
234908
234592
234622
234655
234685
234715
234744
234772
234799
234824
234847
234869
234890
234910
234930
234609
234640
234673
234703
234734
234762
234790
234816
234841
234865
234887
234908
234928
234948
234624
234656
234688
234719
234749
234778
234806
234832
234858
234882
234904
234925
234945
234965
234638
234671
234703
234734
234764
234792
234820
234846
234871
234895
234918
234939
234960
234979
234651
234684
234716
234747
234777
234805
234833
234859
234884
234908
234930
234952
234973
234992
234664
234697
234728
234759
234788
234817
234844
234870
234894
234918
234941
234962
234983
235002
234676
234709
234740
234771
234800
234828
234854
234880
234904
234927
234950
234971
234992
235011
234688
234721
234751
234781
234810
234838
234864
234889
234913
234936
234958
234978
234999
235018
234700
234733
234762
234792
234820
234847
234873
234898
234921
234943
234964
234985
235005
235024
234712
234744
234773
234802
234829
234856
234881
234905
234928
234950
234971
234991
235010
235029
234727
234759
234786
234814
234840
234866
234889
234912
234934
234955
234975
234994
235014
235034
233630
233653
233680
233704
233729
233752
233774
233795
233815
233833
233849
233864
233877
233894
233659
233682
233710
233735
233761
233785
233808
233830
233850
233869
233886
233901
233914
233930
233691
233715
233743
233769
233795
233819
233842
233864
233884
233902
233919
233934
233947
233962
233719
233745
233773
233799
233826
233850
233874
233896
233916
233935
233952
233968
233982
233996
233747
233775
233803
233830
233856
233881
233904
233926
233947
233966
233983
233999
234013
234026
233775
233803
233832
233859
233885
233910
233933
233955
233976
233995
234013
234029
234044
234057
233801
233830
233859
233886
233913
233937
233961
233983
234003
234022
234040
234056
234071
234084
233827
233857
233885
233913
233939
233963
233987
234009
234029
234048
234066
234083
234098
234111
233852
233882
233910
233938
233964
233988
234011
234033
234053
234072
234090
234106
234122
234135
233876
233907
233934
233962
233987
234012
234035
234056
234076
234095
234112
234129
234145
234158
233899
233929
233957
233984
234009
234034
234056
234077
234097
234115
234133
234149
234164
234177
233923
233952
233979
234006
234030
234054
234076
234097
234116
234134
234151
234167
234182
234195
233944
233973
233999
234025
234049
234073
234094
234114
234133
234151
234167
234183
234198
234212
233969
233997
234022
234046
234069
234090
234111
234130
234148
234165
234181
234196
234211
234226
232744
232757
232774
232789
232805
232820
232834
232847
232859
232871
232881
232890
232898
232910
232772
232786
232803
232819
232835
232851
232866
232879
232892
232904
232914
232924
232931
232943
232802
232816
232834
232851
232867
232883
232897
232911
232924
232935
232946
232955
232962
232973
232830
232846
232864
232881
232898
232914
232929
232943
232955
232967
232978
232987
232995
233005
232858
232875
232894
232912
232929
232945
232960
232973
232986
232998
233009
233019
233027
233035
232887
232905
232924
232942
232959
232975
232990
233004
233017
233029
233040
233049
233058
233066
232915
232934
232953
232971
232988
233004
233020
233034
233047
233059
233070
233079
233088
233095
232942
232963
232981
233000
233017
233033
233048
233063
233076
233088
233099
233108
233117
233124
232970
232990
233009
233028
233045
233061
233076
233091
233104
233115
233126
233136
233145
233152
232997
233018
233036
233054
233072
233088
233103
233117
233130
233142
233152
233162
233171
233178
233022
233043
233061
233080
233097
233113
233128
233142
233155
233166
233177
233187
233196
233202
233049
233069
233087
233105
233121
233137
233152
233165
233178
233189
233200
233209
233218
233225
233072
233092
233110
233127
233144
233159
233173
233187
233199
233210
233221
233230
233239
233246
233099
233118
233134
233150
233165
233180
233193
233206
233218
233229
233239
233248
233258
233267
231918
231922
231929
231936
231942
231948
231954
231959
231964
231969
231973
231977
231980
231986
231939
231943
231950
231957
231963
231970
231976
231981
231986
231991
231996
231999
232002
232008
231959
231964
231972
231979
231986
231992
231998
232003
232009
232013
232017
232021
232024
232029
231981
231986
231994
232001
232008
232014
232020
232026
232031
232036
232040
232044
232047
232051
232002
232008
232016
232024
232031
232037
232043
232049
232054
232059
232063
232066
232069
232073
232023
232031
232039
232046
232053
232060
232066
232072
232077
232082
232086
232089
232092
232095
232045
232053
232061
232069
232076
232083
232089
232095
232100
232104
232108
232112
232115
232117
232067
232076
232083
232091
232099
232105
232112
232117
232122
232127
232131
232134
232137
232139
232088
232097
232105
232113
232121
232127
232134
232139
232145
232149
232153
232156
232160
232161
232109
232119
232127
232135
232142
232149
232155
232161
232166
232170
232175
232178
232181
232182
232130
232140
232147
232155
232163
232169
232176
232181
232186
232191
232195
232199
232202
232202
232150
232160
232167
232175
232182
232189
232195
232201
232206
232211
232215
232218
232221
232221
232169
232179
232186
232194
232201
232208
232214
232219
232224
232229
232233
232236
232239
232240
232190
232198
232205
232212
232219
232225
232231
232236
232241
232246
232250
232253
232256
232259
231151
231152
231152
231152
231152
231153
231152
231152
231152
231151
231151
231150
231149
231149
231164
231164
231164
231164
231164
231164
231164
231164
231164
231163
231162
231162
231161
231161
231176
231175
231176
231176
231176
231176
231176
231176
231175
231175
231174
231173
231172
231172
231189
231188
231188
231189
231189
231189
231188
231188
231188
231187
231186
231185
231184
231184
231201
231200
231201
231201
231201
231201
231201
231201
231200
231199
231198
231197
231196
231195
231213
231213
231214
231214
231214
231214
231214
231213
231212
231212
231211
231209
231208
231206
231225
231226
231226
231227
231227
231227
231226
231226
231225
231224
231223
231222
231220
231218
231238
231239
231239
231239
231239
231239
231239
231238
231238
231237
231235
231234
231232
231230
231250
231251
231251
231252
231252
231251
231251
231251
231250
231249
231248
231246
231245
231242
231262
231263
231263
231264
231264
231264
231263
231263
231262
231261
231260
231258
231257
231253
231273
231275
231275
231275
231276
231275
231275
231275
231274
231273
231272
231270
231268
231265
231284
231286
231286
231286
231287
231287
231286
231286
231285
231284
231283
231281
231280
231276
231294
231296
231296
231297
231297
231297
231297
231297
231296
231295
231294
231292
231291
231288
231304
231305
231306
231306
231307
231307
231307
231307
231306
231306
231305
231303
231302
231299
230421
230421
230419
230417
230415
230412
230409
230406
230403
230400
230396
230393
230389
230385
230428
230427
230425
230423
230420
230418
230415
230411
230408
230404
230401
230397
230394
230390
230434
230432
230430
230428
230425
230423
230420
230416
230413
230409
230406
230402
230398
230394
230439
230437
230435
230433
230430
230427
230424
230421
230418
230414
230410
230406
230402
230398
230444
230442
230440
230438
230435
230432
230429
230426
230422
230418
230414
230410
230406
230402
230449
230447
230445
230442
230440
230437
230433
230430
230426
230423
230419
230415
230410
230405
230454
230452
230449
230447
230444
230441
230438
230434
230431
230427
230423
230418
230414
230409
230458
230456
230454
230451
230448
230445
230442
230438
230434
230431
230427
230422
230417
230412
230462
230460
230457
230455
230452
230449
230445
230442
230438
230434
230430
230426
230421
230416
230465
230463
230461
230458
230455
230452
230449
230445
230442
230438
230434
230429
230424
230419
230468
230466
230464
230461
230458
230455
230452
230449
230445
230441
230437
230433
230428
230422
230470
230468
230466
230463
230461
230458
230455
230452
230448
230444
230440
230436
230431
230425
230472
230470
230468
230466
230463
230460
230457
230454
230451
230447
230444
230439
230434
230428
230472
230470
230468
230466
230464
230462
230460
230457
230454
230450
230447
230442
230437
230431
229709
229709
229708
229707
229705
229702
229699
229696
229692
229687
229683
229678
229673
229667
229713
229712
229711
229709
229707
229704
229701
229698
229694
229689
229684
229679
229674
229668
229715
229714
229713
229711
229709
229706
229703
229699
229695
229691
229686
229681
229675
229670
229717
229716
229714
229713
229710
229707
229704
229700
229696
229692
229687
229682
229676
229670
229718
229717
229715
229713
229711
229708
229705
229701
229697
229692
229687
229682
229677
229670
229719
229717
229715
229713
229711
229708
229705
229701
229697
229692
229687
229682
229676
229670
229718
229717
229715
229713
229710
229708
229704
229701
229696
229692
229687
229681
229676
229669
229718
229716
229714
229712
229710
229707
229703
229700
229695
229691
229686
229680
229674
229668
229716
229715
229713
229711
229708
229705
229702
229698
229694
229689
229684
229679
229673
229667
229714
229712
229711
229709
229706
229703
229700
229696
229692
229688
229683
229677
229671
229665
229711
229710
229708
229706
229704
229701
229698
229694
229690
229686
229681
229675
229669
229663
229708
229706
229705
229703
229701
229698
229695
229692
229688
229683
229678
229673
229667
229660
229704
229703
229701
229700
229697
229695
229692
229689
229685
229681
229676
229670
229664
229657
229699
229697
229696
229695
229693
229691
229689
229686
229682
229678
229673
229668
229662
229655
229015
229016
229016
229016
229015
229014
229012
229009
229006
229002
228998
228993
228988
228981
229016
229017
229018
229017
229017
229015
229013
229010
229007
229003
228999
228993
228988
228982
229017
229018
229019
229018
229018
229016
229014
229011
229008
229004
229000
228995
228989
228983
229018
229019
229019
229019
229018
229016
229014
229012
229008
229004
229000
228995
228989
228983
229017
229018
229018
229018
229017
229016
229014
229011
229008
229004
228999
228994
228989
228983
229016
229017
229017
229017
229016
229015
229013
229010
229007
229003
228998
228993
228988
228982
229015
229015
229015
229015
229014
229013
229011
229008
229005
229001
228996
228991
228986
228980
229012
229013
229013
229013
229012
229010
229008
229006
229002
228998
228994
228989
228983
228977
229009
229009
229010
229009
229009
229007
229005
229002
228999
228995
228991
228986
228980
228974
229005
229005
229006
229006
229005
229003
229001
228999
228995
228992
228987
228982
228976
228970
229001
229001
229001
229001
229000
228999
228997
228994
228991
228987
228983
228978
228972
228966
228995
228995
228996
228996
228995
228994
228992
228990
228987
228983
228978
228973
228967
228962
228990
228990
228990
228990
228990
228989
228987
228985
228981
228978
228973
228968
228963
228957
228983
228983
228984
228984
228984
228983
228981
228979
228976
228973
228968
228964
228958
228952
228353
228355
228356
228356
228356
228356
228355
228354
228352
228349
228346
228342
228338
228333
228354
228355
228356
228357
228357
228357
228356
228355
228353
228350
228347
228343
228339
228335
228354
228356
228357
228358
228358
228358
228357
228356
228354
228351
228348
228344
228340
228335
228354
228356
228357
228358
228358
228358
228357
228356
228354
228351
228348
228344
228340
228336
228354
228355
228357
228358
228358
228358
228357
228355
228353
228351
228348
228344
228340
228335
228352
228354
228356
228357
228357
228357
228356
228355
228353
228350
228347
228343
228339
228335
228351
228353
228354
228355
228356
228355
228355
228353
228351
228348
228345
228342
228338
228333
228349
228351
228352
228353
228353
228353
228352
228351
228349
228346
228343
228340
228336
228331
228346
228348
228349
228350
228351
228351
228350
228348
228346
228344
228341
228337
228333
228329
228343
228345
228346
228347
228347
228347
228346
228345
228343
228340
228337
228334
228330
228326
228339
228341
228342
228343
228344
228343
228342
228341
228339
228337
228333
228330
228326
228322
228335
228336
228338
228339
228339
228339
228338
228337
228335
228332
228329
228326
228322
228318
228331
228332
228333
228334
228334
228334
228334
228332
228330
228328
228325
228321
228317
228314
228325
228327
228328
228329
228329
228329
228328
228327
228325
228323
228320
228317
228313
228309
227743
227743
227744
227744
227745
227744
227744
227744
227743
227741
227740
227739
227737
227735
227742
227743
227744
227744
227745
227745
227745
227744
227743
227742
227740
227739
227737
227735
227742
227743
227744
227744
227745
227745
227744
227744
227743
227742
227740
227739
227737
227735
227742
227743
227743
227744
227744
227745
227744
227744
227743
227742
227740
227739
227737
227735
227741
227742
227743
227744
227744
227744
227744
227743
227743
227741
227740
227738
227737
227735
227740
227741
227742
227743
227743
227744
227743
227743
227742
227741
227740
227738
227736
227734
227739
227740
227741
227742
227743
227743
227743
227742
227741
227740
227739
227737
227736
227734
227738
227739
227740
227741
227741
227742
227741
227741
227740
227739
227738
227736
227734
227733
227737
227738
227739
227739
227740
227740
227740
227739
227739
227737
227736
227735
227733
227731
227735
227736
227737
227738
227738
227738
227738
227738
227737
227736
227734
227733
227731
227730
227734
227735
227735
227736
227736
227736
227736
227735
227735
227734
227732
227731
227729
227728
227732
227733
227733
227734
227734
227734
227734
227733
227732
227731
227730
227729
227727
227726
227730
227730
227731
227731
227732
227732
227731
227731
227730
227729
227728
227726
227725
227724
227728
227728
227729
227729
227729
227729
227729
227728
227727
227726
227725
227724
227723
227721
227195
227193
227192
227192
227191
227191
227190
227190
227190
227190
227191
227191
227192
227193
227193
227192
227191
227190
227190
227189
227189
227189
227189
227189
227189
227189
227190
227191
227191
227190
227189
227189
227188
227188
227187
227187
227187
227187
227188
227188
227189
227190
227190
227189
227188
227187
227187
227186
227186
227186
227186
227186
227186
227187
227188
227189
227189
227188
227187
227186
227186
227185
227185
227185
227185
227185
227186
227186
227187
227188
227188
227187
227186
227185
227185
227184
227184
227184
227184
227184
227185
227185
227186
227187
227187
227186
227185
227185
227184
227184
227184
227183
227184
227184
227184
227185
227186
227187
227187
227186
227185
227184
227184
227183
227183
227183
227183
227183
227184
227184
227185
227186
227186
227186
227185
227184
227183
227183
227183
227183
227183
227183
227184
227184
227185
227186
227187
227186
227185
227184
227183
227183
227183
227183
227183
227183
227183
227184
227185
227186
227187
227186
227185
227184
227183
227183
227183
227183
227183
227183
227183
227184
227185
227186
227187
227186
227185
227184
227184
227183
227183
227183
227183
227183
227184
227184
227185
227187
227188
227187
227186
227185
227184
227184
227183
227183
227183
227184
227184
227185
227186
227187
227189
227188
227187
227186
227185
227184
227184
227184
227184
227184
227184
227185
227186
227188
226707
226704
226702
226699
226698
226697
226697
226697
226697
226698
226700
226701
226704
226701
226699
226697
226695
226694
226693
226693
226694
226695
226696
226698
226701
226699
226696
226694
226692
226691
226691
226691
226691
226692
226694
226695
226699
226696
226694
226692
226690
226689
226688
226688
226689
226690
226691
226693
226698
226695
226692
226690
226688
226687
226686
226686
226687
226688
226689
226691
226696
226693
226691
226688
226687
226686
226685
226685
226686
226687
226688
226690
226696
226693
226690
226688
226686
226685
226684
226684
226685
226686
226687
226690
226695
226692
226690
226687
226686
226685
226684
226684
226685
226686
226687
226689
226695
226693
226690
226688
226686
226685
226684
226684
226685
226686
226688
226690
226696
226694
226691
226689
226687
226686
226685
226685
226686
226687
226689
226691
226698
226695
226692
226690
226689
226687
226687
226687
226687
226688
226690
226692
226700
226697
226694
226692
226691
226690
226689
226689
226689
226690
226692
226694
226702
226699
226697
226695
226693
226692
226691
226691
226692
226693
226694
226696
226706
226702
226700
226698
226696
226695
226694
226694
226695
226695
226697
226699
239711
239736
239758
239779
239797
239816
239704
239738
239772
239805
239835
239864
239692
239735
239779
239823
239866
239909
239674
239725
239778
239832
239886
239941
239475
239510
239541
239572
239597
239623
239458
239504
239543
239581
239613
239644
239441
239495
239544
239592
239633
239673
239419
239483
239541
239598
239651
239703
239393
239465
239533
239601
239664
239728
239362
239441
239516
239593
239666
239741
239326
239408
239488
239570
239653
239736
239070
239122
239167
239214
239256
239297
239040
239103
239155
239208
239253
239297
239015
239088
239148
239208
239258
239307
238988
239070
239139
239207
239266
239322
238961
239051
239130
239207
239277
239344
238932
239029
239118
239205
239286
239365
238902
239003
239100
239196
239288
239378
238869
238973
239075
239177
239277
239377
238832
238934
239038
239142
239247
239353
238792
238889
238989
239091
239194
239298
238746
238833
238925
239018
239113
239210
238700
238771
238851
238930
239009
239093
238643
238697
238758
238819
238881
238945
238595
238625
238665
238702
238740
238780
238512
238583
238644
238706
238762
238819
238476
238555
238622
238694
238757
238818
238449
238538
238614
238689
238756
238821
238422
238518
238602
238685
238758
238827
238396
238500
238592
238681
238761
238837
238373
238481
238581
238677
238765
238848
238350
238463
238569
238672
238768
238859
238328
238442
238554
238662
238766
238866
238305
238420
238533
238644
238754
238861
238282
238394
238505
238617
238727
238837
238257
238362
238467
238574
238680
238788
238234
238327
238422
238518
238614
238713
238205
238283
238361
238443
238524
238608
238193
238246
238305
238363
238421
238483
237839
237914
237977
238041
238101
238161
237804
237887
237960
238036
238109
238178
237786
237877
237960
238043
238120
238193
237769
237866
237955
238042
238123
238200
237753
237855
237950
238040
238125
238204
237739
237844
237943
238037
238125
238206
237727
237834
237936
238033
238125
238209
237716
237824
237929
238028
238122
238210
237708
237815
237920
238021
238117
238209
237702
237806
237909
238009
238107
238202
237697
237797
237894
237993
238088
238183
237695
237787
237877
237969
238059
238150
237689
237770
237850
237932
238013
238096
237705
237772
237831
237896
237959
238026
237084
237137
237186
237232
237278
237325
237065
237126
237186
237246
237305
237363
237064
237133
237201
237268
237333
237395
237062
237136
237210
237281
237350
237414
237061
237140
237218
237292
237361
237426
237061
237143
237223
237298
237368
237433
237062
237146
237226
237301
237371
237435
237065
237148
237229
237303
237374
237436
237070
237152
237231
237306
237376
237438
237078
237157
237234
237307
237377
237440
237087
237164
237237
237309
237378
237442
237101
237173
237240
237309
237376
237440
237116
237181
237241
237305
237368
237431
237141
237200
237252
237308
237361
237415
236264
236282
236304
236325
236343
236362
236276
236301
236329
236357
236382
236407
236291
236322
236355
236388
236418
236447
236304
236341
236378
236414
236448
236480
236319
236359
236399
236438
236473
236505
236334
236377
236419
236458
236493
236525
236350
236394
236436
236475
236510
236539
236367
236410
236453
236490
236524
236552
236383
236427
236469
236505
236538
236564
236401
236444
236485
236520
236553
236578
236420
236462
236502
236537
236570
236595
236442
236482
236520
236555
236588
236615
236463
236502
236538
236574
236606
236637
236494
236530
236561
236596
236627
236658
235404
235390
235381
235368
235357
235345
235434
235421
235410
235400
235390
235380
235458
235448
235440
235432
235424
235415
235485
235477
235470
235464
235457
235449
235510
235505
235500
235495
235489
235482
235536
235533
235530
235526
235521
235513
235561
235560
235559
235555
235550
235542
235586
235587
235587
235584
235579
235570
235611
235613
235614
235611
235606
235598
235635
235638
235640
235638
235634
235626
235659
235663
235667
235666
235664
235657
235683
235688