/*--------------------------------*- C++ -*----------------------------------*\
| =========                 |                                                 |
| \\      /  F ield         | OpenFOAM: The Open Source CFD Toolbox           |
|  \\    /   O peration     | Version:  v2106                                 |
|   \\  /    A nd           | Website:  www.openfoam.com                      |
|    \\/     M anipulation  |                                                 |
\*---------------------------------------------------------------------------*/
FoamFile
{
    version     2.0;
    format      ascii;
    arch        "LSB;label=32;scalar=64";
    class       volScalarField;
    location    "0.000204";
    object      k;
}
// * * * * * * * * * * * * * * * * * * * * * * * * * * * * * * * * * * * * * //

dimensions      [0 2 -2 0 0 0 0];

internalField   nonuniform List<scalar> 
18109
(
0.126045
0.0947619
0.070198
0.0530546
0.0422724
0.0374477
0.0387546
0.0602953
0.0454389
0.0332209
0.0244243
0.0187341
0.01584
0.0156823
0.0282106
0.020578
0.0147285
0.0105236
0.00780841
0.00636421
0.00611223
0.0130393
0.00883384
0.00610015
0.00421764
0.00303491
0.00240409
0.00227154
0.00603854
0.00362347
0.00235969
0.00156856
0.00109557
0.000848984
0.000802367
0.00294727
0.00146683
0.000860836
0.000541742
0.000366628
0.000279998
0.000271438
0.0017114
0.00065057
0.0003111
0.000176344
0.000114073
8.67579e-05
9.05878e-05
0.00136778
0.000393189
0.000131345
5.79175e-05
3.38252e-05
2.61577e-05
3.254e-05
0.112225
0.0850443
0.0631152
0.0472956
0.0367363
0.0310383
0.0301655
0.035176
0.0487509
0.0749388
0.117863
0.181428
0.273517
0.407158
0.0523856
0.0400038
0.0293229
0.0214375
0.0161123
0.0130825
0.0122508
0.0140177
0.0197478
0.0319953
0.0542994
0.0908637
0.148395
0.237799
0.0236601
0.0177206
0.0127468
0.00907331
0.00661545
0.00519636
0.00474536
0.00540639
0.0078511
0.0135504
0.0250071
0.0459952
0.0823154
0.144153
0.010404
0.00740578
0.00517302
0.00357066
0.00252858
0.00193263
0.00174268
0.0020195
0.00311197
0.00587179
0.0119853
0.024483
0.0484023
0.0931075
0.00450751
0.00293149
0.0019557
0.00130304
0.000897282
0.000671082
0.000607087
0.000741355
0.00127113
0.00271433
0.0062186
0.0140985
0.030596
0.0638489
0.00203453
0.00112744
0.000693082
0.000440991
0.000295184
0.000217708
0.000202999
0.000277431
0.000561754
0.00138854
0.00355688
0.00880878
0.0206029
0.0457438
0.00110817
0.00046338
0.000238906
0.000139859
9.02505e-05
6.64841e-05
6.75172e-05
0.000113258
0.000282624
0.000800875
0.00224207
0.00593056
0.014661
0.0340628
0.000876172
0.000257151
9.22547e-05
4.37134e-05
2.61597e-05
1.98451e-05
2.45871e-05
5.54572e-05
0.00016787
0.000524699
0.00155911
0.00431241
0.0110829
0.0266009
0.000987509
0.000230326
5.44555e-05
1.70254e-05
8.86713e-06
7.86228e-06
1.33373e-05
3.75827e-05
0.000124479
0.000405457
0.00123817
0.00350284
0.00919433
0.022485
0.00132934
0.000285897
5.77334e-05
1.61263e-05
1.06572e-05
1.26313e-05
2.06252e-05
4.68901e-05
0.000134074
0.000409129
0.00121425
0.00339139
0.00885672
0.0216255
0.00190452
0.000415504
9.70089e-05
4.21981e-05
3.96666e-05
4.96963e-05
7.01782e-05
0.000117493
0.000245685
0.000610247
0.00161235
0.00420883
0.0105281
0.0249061
0.00288608
0.000722912
0.000236422
0.000149267
0.000155692
0.000194783
0.00026301
0.000388375
0.000655595
0.00129812
0.00288507
0.00670326
0.0154907
0.0344648
0.00476052
0.00154134
0.000689245
0.000512758
0.000543108
0.000673978
0.000897345
0.00126813
0.00193357
0.00328375
0.00621557
0.0126449
0.026424
0.0541338
0.00887674
0.00382017
0.0020441
0.00160132
0.00168072
0.00206794
0.00273701
0.00379651
0.00550185
0.00849725
0.0141338
0.0251902
0.0470577
0.0880471
0.256956
0.418862
0.677072
1.08873
1.75986
2.90013
0.232599
0.385192
0.631852
1.02647
1.66059
2.69874
0.170429
0.302976
0.52692
0.901496
1.53816
2.66394
0.127822
0.242764
0.44711
0.808354
1.46581
2.73499
0.0981196
0.199431
0.391635
0.757794
1.48517
3.03292
0.0791077
0.172032
0.363545
0.763684
1.64195
3.68854
0.0701713
0.163927
0.375464
0.861973
2.0273
4.87232
0.0716426
0.178438
0.437796
1.07151
2.64819
6.48698
0.0858679
0.220836
0.557418
1.38864
3.41859
8.15636
0.117318
0.296311
0.732276
1.77575
4.21541
9.56636
0.170978
0.404358
0.938736
2.14555
4.79545
10.1357
0.249586
0.539671
1.15416
2.44396
5.07511
9.91854
0.355729
0.695268
1.35493
2.63253
5.03896
9.11664
0.497316
0.874998
1.54699
2.74911
4.83693
8.09742
0.694995
1.10678
1.77709
2.86642
4.56809
7.01162
0.45444
0.755668
1.36196
2.3416
3.80354
5.8211
0.313155
0.569587
1.05748
1.83872
3.01962
4.77871
0.230057
0.445061
0.834178
1.465
2.47413
4.17594
0.173796
0.347253
0.658098
1.18036
2.06974
3.73572
0.131617
0.269689
0.522804
0.968415
1.77669
3.4885
0.099709
0.209696
0.41858
0.803404
1.53936
3.24386
0.0766206
0.16545
0.340699
0.678222
1.36318
3.08717
0.0609599
0.134674
0.28533
0.587461
1.23474
3.01656
0.0519281
0.116325
0.251476
0.53212
1.16717
3.08612
0.0494584
0.110461
0.239433
0.512438
1.1528
3.15376
0.0549021
0.118884
0.251426
0.529999
1.18449
3.16606
0.0710104
0.144122
0.288397
0.580031
1.23724
3.04918
0.101818
0.18916
0.350127
0.655435
1.29533
2.86392
0.15007
0.25361
0.43078
0.742419
1.33785
2.60629
0.133061
0.207415
0.344191
0.60246
1.10229
2.10731
0.0914944
0.158619
0.281756
0.518459
0.968303
1.8538
0.0588279
0.117668
0.229804
0.444201
0.845897
1.63503
0.0386378
0.0873492
0.182667
0.365077
0.712155
1.41921
0.026248
0.0641121
0.140498
0.291399
0.590161
1.2296
0.0180742
0.0460333
0.104897
0.22666
0.478811
1.04677
0.0125498
0.0326676
0.0771873
0.174373
0.386298
0.88708
0.00877262
0.0231032
0.056494
0.133675
0.310756
0.749797
0.00635573
0.0168699
0.0425417
0.105129
0.256389
0.653276
0.00511596
0.0136845
0.0351536
0.089229
0.225277
0.602172
0.005191
0.0139195
0.0353408
0.0889007
0.22505
0.612913
0.00701525
0.0185485
0.0453567
0.108804
0.262175
0.68105
0.0108599
0.0276058
0.0658566
0.149664
0.332237
0.778703
0.0159345
0.0376145
0.0881526
0.192659
0.399678
0.854556
0.0246488
0.0738059
0.213711
0.576848
1.44873
3.37036
0.0445862
0.1164
0.296268
0.707187
1.57399
3.24906
0.0808452
0.181212
0.39905
0.837619
1.66367
3.10577
0.146032
0.279701
0.527945
0.973425
1.74495
3.01599
0.0213441
0.0530153
0.121707
0.250181
0.487834
0.968151
0.0150703
0.0424083
0.104366
0.22494
0.459591
0.958023
0.0105306
0.0321336
0.0820805
0.186646
0.403616
0.897422
0.00730201
0.0233199
0.0617791
0.146799
0.341472
0.825657
0.00509184
0.016628
0.0460789
0.116555
0.293948
0.79179
0.00369486
0.0123125
0.0359727
0.0996961
0.283561
0.880693
0.00304777
0.0104357
0.0328867
0.10201
0.326792
1.09941
0.00325675
0.011436
0.0389089
0.131206
0.442269
1.47262
0.00478612
0.0166799
0.0578838
0.194728
0.631508
1.94661
0.00875541
0.0288286
0.094651
0.29451
0.865518
2.37604
0.0172898
0.051592
0.152625
0.423949
1.10036
2.64955
0.0340602
0.0895221
0.233165
0.571489
1.30629
2.76609
0.066125
0.15036
0.339136
0.729673
1.47952
2.80407
0.125853
0.24505
0.472796
0.889725
1.61813
2.8065
4.29417
16.1121
45.9171
43.9032
32.2354
4.59089
17.7232
50.9731
43.7021
31.3751
5.23429
20.3407
56.1248
43.0327
31.287
6.45443
24.1839
59.8293
42.7174
31.9709
8.55248
29.5525
61.4966
41.9135
32.3164
11.5136
35.6923
59.7306
39.983
32.1565
14.8965
40.9043
55.9865
37.7593
32.2118
17.6369
42.8591
52.8552
37.3138
33.0647
35.4082
19.2759
42.1854
50.666
37.6877
33.7407
36.9186
18.854
38.388
48.2189
37.6303
33.6503
38.1407
17.0862
33.4613
46.4584
37.9315
33.011
38.7108
48.3332
14.6274
28.1271
45.274
39.3463
32.474
37.0316
54.8966
70.6285
12.0635
23.2105
44.8752
42.1651
33.082
33.6523
53.1359
129.725
9.89657
19.9413
46.8681
46.819
35.9989
32.7184
38.7383
99.2464
8.39117
19.2799
51.3955
51.645
39.0924
33.5539
37.0718
97.2932
7.74982
19.9672
58.1322
55.0794
40.0448
34.4469
38.357
84.5523
7.73787
22.0501
67.1411
57.4259
41.0553
36.2795
39.4431
74.0632
7.87763
25.8752
76.8752
60.5073
43.525
38.6577
38.556
58.9829
8.09902
31.5242
84.1545
62.0802
43.8576
39.1005
37.931
50.4288
8.3395
37.4932
84.0066
59.6827
41.4683
38.4409
37.5028
44.6649
8.90179
42.8096
79.8174
55.8686
39.6459
38.8455
39.3115
41.1328
9.77513
45.7619
76.325
55.271
40.2874
40.5221
43.359
39.5606
10.6377
45.2238
72.1831
55.4455
40.6892
41.4687
10.7293
40.5767
64.7496
54.3536
40.3468
41.2911
9.89842
33.284
54.47
52.4442
39.7815
40.6433
8.6889
25.9715
44.0313
51.2445
39.9407
38.4144
7.56077
20.121
35.6092
50.1882
41.9986
35.8097
6.54674
16.149
31.1733
51.4767
46.8455
5.71427
13.5939
30.0818
56.4025
52.4411
5.09138
11.9102
31.2789
63.0712
55.1994
4.58315
10.8524
35.373
71.1186
56.6599
4.10998
10.4161
43.7357
82.5935
60.5232
3.69307
10.4524
55.7537
92.7952
60.6164
3.30207
10.7617
67.1803
94.5554
55.0368
2.96295
11.6645
74.2763
89.7412
50.1786
2.7074
13.0541
75.8724
84.3604
48.7866
2.58763
14.2765
71.1698
77.7292
47.2685
2.6005
14.4307
58.7178
68.1063
44.9428
2.75242
13.6806
45.1226
58.2326
42.9625
2.998
12.4956
34.4369
49.6432
41.3858
3.232
11.3321
27.9254
44.2857
40.0713
3.36492
10.3874
25.2927
43.7084
40.4368
3.36797
9.67362
25.5558
46.528
41.3233
3.25079
9.27624
28.4218
50.1997
40.0779
3.08863
9.35576
34.8436
54.4748
38.803
2.94098
10.0312
45.2149
58.9005
38.4889
2.8675
11.3186
57.9126
60.8124
36.5004
3.07432
13.1138
68.7074
58.1061
32.9451
3.68987
15.7716
72.9868
53.1861
30.475
4.61052
19.2738
70.198
49.8017
29.919
5.51242
21.3135
65.0018
47.2789
29.5076
5.87144
20.5277
57.605
44.5569
29.126
5.64946
17.9788
50.6723
42.7774
28.9883
5.12868
15.4134
44.7481
41.6661
29.5409
4.64888
14.4741
41.4041
41.4099
30.7465
4.339
15.086
42.1011
42.5449
31.9166
0.100505
0.0765185
0.0569661
0.0425812
0.0327234
0.0269939
0.0253081
0.0283094
0.0381981
0.0586781
0.0943157
0.149678
0.233013
0.356284
0.0457221
0.0350863
0.0257809
0.0188318
0.0140577
0.0112093
0.0102002
0.011251
0.0154569
0.025008
0.0433313
0.0748108
0.126135
0.207748
0.0199708
0.0151085
0.0108944
0.00775988
0.00563698
0.0043654
0.0038941
0.00429895
0.00612045
0.0105962
0.0200129
0.0380278
0.0703367
0.127031
0.00840475
0.00611497
0.00429301
0.00297191
0.0021031
0.00158874
0.0014045
0.00158603
0.00241853
0.00462159
0.00970684
0.0205069
0.041919
0.0832938
0.00344452
0.00233156
0.00157408
0.00105528
0.000728392
0.000539673
0.000480183
0.000575799
0.000991101
0.00216979
0.00513965
0.0120404
0.0269612
0.0580116
0.00145398
0.000855062
0.000539354
0.000347484
0.000234004
0.000171381
0.000157898
0.000214717
0.000444448
0.00113637
0.00301064
0.00768002
0.018469
0.042135
0.000744971
0.000329214
0.000177833
0.000106898
6.9887e-05
5.13355e-05
5.2003e-05
8.86621e-05
0.000229421
0.000673135
0.0019422
0.00527176
0.0133562
0.0317827
0.000578971
0.000169208
6.36862e-05
3.19484e-05
1.97641e-05
1.51216e-05
1.9051e-05
4.45495e-05
0.000140025
0.000451059
0.00137575
0.00389415
0.0102345
0.0251004
0.000664687
0.000144628
3.37604e-05
1.14786e-05
6.61747e-06
6.14834e-06
1.07103e-05
3.10304e-05
0.000105709
0.000353261
0.00110511
0.00319737
0.00857639
0.0214057
0.000913729
0.000177722
3.42364e-05
1.1008e-05
8.75022e-06
1.08321e-05
1.75688e-05
3.96787e-05
0.00011466
0.00035737
0.00108628
0.00310643
0.00829489
0.0206691
0.00134109
0.000264766
6.23804e-05
3.28965e-05
3.45461e-05
4.41262e-05
6.19458e-05
0.000102371
0.00021285
0.000534368
0.00144156
0.0038543
0.00986358
0.0238135
0.00211426
0.000494022
0.000171796
0.000124378
0.000138079
0.000175448
0.000236601
0.000346494
0.000579676
0.0011488
0.00258749
0.00613901
0.0145027
0.0329204
0.00370698
0.00116405
0.000546178
0.000440549
0.000486835
0.000613331
0.000817739
0.00115033
0.00174146
0.00294973
0.00562166
0.0116237
0.0247847
0.0517644
0.00739383
0.00313171
0.00170196
0.00140435
0.00152295
0.00190221
0.00252529
0.00349394
0.00503656
0.00775217
0.0129211
0.0232744
0.0442146
0.0842633
0.0845187
0.0643422
0.0481273
0.0358218
0.0272543
0.0218666
0.0194866
0.0199753
0.024731
0.0362021
0.0590366
0.0991564
0.165134
0.268085
0.0357441
0.02718
0.0200422
0.0146079
0.0108488
0.00848338
0.00741845
0.00756614
0.0096139
0.0149055
0.0262576
0.0479556
0.0865979
0.15232
0.0144655
0.0107411
0.00775334
0.00551865
0.00400849
0.00306429
0.00264455
0.00271443
0.00361014
0.00608543
0.0118603
0.0239813
0.0478644
0.093734
0.00555488
0.00395527
0.00277806
0.00192677
0.00137148
0.00102836
0.000882256
0.000929349
0.00134452
0.00257329
0.00571916
0.0130037
0.0289102
0.0628936
0.0020353
0.0013575
0.000919862
0.000620143
0.000433453
0.000320266
0.000276615
0.000310958
0.000523728
0.00119794
0.0030808
0.00783688
0.0191286
0.0450524
0.000759457
0.000442803
0.000282137
0.000183729
0.000126238
9.26271e-05
8.28784e-05
0.000107778
0.000230507
0.000641789
0.00187031
0.00518752
0.0135622
0.0336855
0.000364979
0.000152493
8.24214e-05
5.03487e-05
3.38948e-05
2.50916e-05
2.49511e-05
4.30314e-05
0.000122271
0.000398508
0.00126374
0.00371846
0.0102024
0.0262775
0.000307931
7.64396e-05
2.62759e-05
1.32388e-05
8.56651e-06
6.70868e-06
8.66631e-06
2.21599e-05
7.85038e-05
0.000280488
0.000935494
0.00286504
0.00813417
0.0214972
0.000399397
7.1161e-05
1.34497e-05
4.40634e-06
2.89973e-06
2.94582e-06
5.31166e-06
1.65145e-05
6.21231e-05
0.00022863
0.00078113
0.00244987
0.00709399
0.0190132
0.000601729
9.60259e-05
1.52509e-05
5.71839e-06
5.744e-06
7.38287e-06
1.12544e-05
2.39826e-05
7.08699e-05
0.000238353
0.00079027
0.0024572
0.0070803
0.0188797
0.000952871
0.000157683
3.41372e-05
2.20814e-05
2.60239e-05
3.38203e-05
4.6061e-05
7.20109e-05
0.000144603
0.000374219
0.0010836
0.00313891
0.00863838
0.0222001
0.00163978
0.000333209
0.000112298
9.15943e-05
0.000108772
0.000141106
0.000188437
0.00026803
0.000433515
0.000858383
0.00201656
0.0051118
0.0129042
0.0310167
0.00314264
0.000887777
0.000401127
0.000344111
0.000397128
0.000510386
0.000679062
0.000940838
0.00139342
0.00234153
0.00455328
0.00987904
0.0223178
0.0491161
0.0065446
0.00265091
0.00136821
0.00116101
0.00128967
0.00163754
0.00217595
0.00298609
0.00424624
0.00648841
0.0108754
0.0201424
0.0399931
0.0799113
0.0684726
0.0515918
0.0385558
0.028695
0.0220833
0.0177132
0.0156316
0.0153142
0.0178131
0.0245557
0.0392721
0.0669834
0.116632
0.198262
0.0262903
0.019568
0.0144203
0.0105143
0.00792935
0.00623101
0.00544796
0.00536221
0.00645763
0.0094722
0.0164464
0.0306106
0.0582044
0.109554
0.00970583
0.00696025
0.00501505
0.0035627
0.00262979
0.00202086
0.00175184
0.00174504
0.00222042
0.00358533
0.00700707
0.0146854
0.0314573
0.0680167
0.00339448
0.00230992
0.00161781
0.00111369
0.000803851
0.000603447
0.000520248
0.000532742
0.000745871
0.00140403
0.00322881
0.00781168
0.0190257
0.0463821
0.00113336
0.000715465
0.000482694
0.00032044
0.000225824
0.000165489
0.000143224
0.000157211
0.000264221
0.000624664
0.00172324
0.00476898
0.0128987
0.0340948
0.000398589
0.000212559
0.000133429
8.4769e-05
5.81864e-05
4.17236e-05
3.72904e-05
4.86145e-05
0.00011059
0.000335289
0.00107106
0.00326617
0.00948662
0.0263141
0.00020768
7.10653e-05
3.54252e-05
2.07295e-05
1.37446e-05
9.76855e-06
9.82921e-06
1.83752e-05
5.93815e-05
0.000216248
0.000758059
0.00246616
0.00751838
0.0215194
0.000214636
4.14865e-05
1.10316e-05
4.91771e-06
3.06935e-06
2.30751e-06
3.20907e-06
9.64012e-06
3.95198e-05
0.000158954
0.000590504
0.002012
0.00634583
0.0185404
0.000320137
4.73751e-05
6.69298e-06
1.79393e-06
1.26581e-06
1.39328e-06
2.50309e-06
8.01203e-06
3.33167e-05
0.000138044
0.000529439
0.00185422
0.00593682
0.0174124
0.000531912
7.38472e-05
9.59395e-06
3.69731e-06
4.19245e-06
5.5824e-06
7.9921e-06
1.51726e-05
4.36073e-05
0.000158245
0.000582743
0.0020071
0.00631886
0.0181616
0.000918666
0.000136332
2.54931e-05
1.6941e-05
2.10073e-05
2.8103e-05
3.78925e-05
5.63176e-05
0.000107104
0.000281818
0.000877268
0.00276322
0.00817223
0.0222659
0.0017252
0.000317441
9.39405e-05
7.586e-05
9.1902e-05
0.000121971
0.000163423
0.000228639
0.00035901
0.000708157
0.00173134
0.00467802
0.0125636
0.0317512
0.00343068
0.00089558
0.000366123
0.000305336
0.000350639
0.000455698
0.000608144
0.000838001
0.00122397
0.00204694
0.00405571
0.00920468
0.0219546
0.0506556
0.00697418
0.00280029
0.0013573
0.00110583
0.00119584
0.0015169
0.00201338
0.00275671
0.00389871
0.00594856
0.0100178
0.0189544
0.0390702
0.0816091
0.0455799
0.0338573
0.0254624
0.0191908
0.0151718
0.0123136
0.0108825
0.0104532
0.0116199
0.0151617
0.0237053
0.0406169
0.0751284
0.135456
0.0157587
0.0113304
0.00838942
0.00619681
0.00482602
0.00385457
0.00339494
0.00329087
0.00378067
0.00527327
0.00909307
0.0173971
0.0359007
0.0752727
0.00521392
0.00352887
0.00254798
0.00183171
0.001401
0.00109758
0.000963069
0.000945808
0.0011438
0.00177778
0.00356186
0.00800599
0.0193165
0.0483244
0.0016212
0.00101425
0.000708766
0.000493405
0.000370085
0.000283815
0.000248206
0.000249679
0.000332636
0.000625635
0.0015565
0.00424063
0.0119405
0.0339204
0.000492939
0.000270719
0.000179614
0.000120489
8.85041e-05
6.63874e-05
5.81988e-05
6.25063e-05
0.000103423
0.00026521
0.00083868
0.00269263
0.0084729
0.0259608
0.000191539
7.41914e-05
4.19888e-05
2.65804e-05
1.90517e-05
1.40232e-05
1.26586e-05
1.65374e-05
4.1139e-05
0.000146931
0.000551648
0.00196197
0.00659581
0.0209984
0.000151781
3.20592e-05
1.03598e-05
5.39183e-06
3.68254e-06
2.69729e-06
2.79129e-06
5.90771e-06
2.34356e-05
0.000103015
0.000424199
0.00160188
0.00559966
0.0181585
0.000214431
3.21978e-05
4.60249e-06
1.20184e-06
7.04733e-07
5.68512e-07
8.95382e-07
3.41822e-06
1.73884e-05
8.36111e-05
0.000362362
0.00141926
0.00505965
0.0164405
0.000352228
4.80294e-05
4.92925e-06
8.00301e-07
6.0203e-07
7.45673e-07
1.21771e-06
3.68487e-06
1.70494e-05
8.20476e-05
0.000361781
0.00143265
0.00508701
0.0162524
0.000615596
8.48331e-05
9.02105e-06
2.7612e-06
3.18525e-06
4.24007e-06
5.7334e-06
9.72199e-06
2.68168e-05
0.000105285
0.000433134
0.00165186
0.00565501
0.017368
0.00110446
0.000166342
2.49941e-05
1.37842e-05
1.68927e-05
2.25514e-05
2.98459e-05
4.25344e-05
7.75069e-05
0.000208059
0.000698567
0.00238912
0.00756837
0.0217828
0.00211647
0.000383919
9.25475e-05
6.54774e-05
7.7014e-05
0.000101564
0.000134432
0.000184489
0.000282439
0.000554431
0.00141301
0.00408793
0.0117429
0.0313521
0.00408215
0.00102013
0.000370811
0.000282975
0.000310012
0.000396577
0.000521353
0.000709525
0.00102125
0.00169185
0.00340453
0.00811794
0.0206271
0.050367
0.00766011
0.00309661
0.00145692
0.00111019
0.00112859
0.00139542
0.00181331
0.00245078
0.00343307
0.0052029
0.00875872
0.0169175
0.0363418
0.080278
0.016715
0.0116002
0.00853059
0.00647544
0.00540176
0.00470444
0.00449494
0.0045425
0.00512888
0.0065463
0.0100177
0.0170789
0.033498
0.066238
0.00518816
0.00338299
0.00242282
0.00177642
0.0014464
0.00123884
0.00118447
0.00121699
0.00143088
0.00197388
0.00339568
0.00675034
0.0154437
0.0373683
0.00154961
0.00090896
0.000630689
0.000446067
0.000352934
0.000295069
0.000280429
0.000293059
0.000365837
0.000576808
0.00121256
0.00303741
0.00851998
0.0249781
0.000460383
0.000225248
0.000148683
0.00010137
7.78561e-05
6.33092e-05
5.96328e-05
6.41195e-05
9.04829e-05
0.000185346
0.000525594
0.00168154
0.00555279
0.0182349
0.00016601
5.59101e-05
3.18378e-05
2.06297e-05
1.53686e-05
1.21526e-05
1.14252e-05
1.34706e-05
2.60163e-05
8.16144e-05
0.000309482
0.00117198
0.00427669
0.0149928
0.000117192
2.21677e-05
7.04056e-06
3.78264e-06
2.68548e-06
2.07484e-06
2.0451e-06
3.3462e-06
1.14227e-05
5.1562e-05
0.000229158
0.000946055
0.00364448
0.0131574
0.000150595
2.19715e-05
2.92773e-06
7.21239e-07
4.19678e-07
3.23179e-07
4.19112e-07
1.42562e-06
7.77271e-06
4.13213e-05
0.000197901
0.000858936
0.00341121
0.0124159
0.000248021
3.46896e-05
3.31469e-06
3.05386e-07
1.02669e-07
9.94671e-08
2.08091e-07
1.0669e-06
6.65806e-06
3.77057e-05
0.000188765
0.000842974
0.0033752
0.0121316
0.000430972
6.1151e-05
5.49781e-06
5.23554e-07
3.36264e-07
4.31824e-07
6.19403e-07
1.56421e-06
7.51623e-06
4.12654e-05
0.000207801
0.000926956
0.00364932
0.0127327
0.000778671
0.000118224
1.15776e-05
2.06271e-06
2.12633e-06
2.82461e-06
3.64747e-06
5.52219e-06
1.40112e-05
5.82873e-05
0.000267203
0.00112995
0.00423
0.0140173
0.00141657
0.000236767
3.0294e-05
1.0353e-05
1.17557e-05
1.56262e-05
2.01695e-05
2.73167e-05
4.66103e-05
0.00012499
0.000452226
0.00169188
0.00581796
0.0179911
0.00260833
0.000514494
0.000100878
5.17853e-05
5.657e-05
7.35336e-05
9.51888e-05
0.000126503
0.000185471
0.000354412
0.000933014
0.00290027
0.00898763
0.0257442
0.0046892
0.00120804
0.000382317
0.000242103
0.00024545
0.000305093
0.000390629
0.000517996
0.000725745
0.00117465
0.00237351
0.00590619
0.0159881
0.0419905
0.00818315
0.00326915
0.00154159
0.00104941
0.000977597
0.00115769
0.00145123
0.00191021
0.002625
0.00392177
0.00654762
0.012753
0.028383
0.0672242
0.00270659
0.00176122
0.00126131
0.00094248
0.000796143
0.000714933
0.000722799
0.000775051
0.000921338
0.00120958
0.00190977
0.00350251
0.00758437
0.0173286
0.000757256
0.000447437
0.000311137
0.000223851
0.000181682
0.000157858
0.000156953
0.000169199
0.000208141
0.000299886
0.000556758
0.00127443
0.00342816
0.00979779
0.00021898
0.000104199
6.88007e-05
4.78222e-05
3.74254e-05
3.14142e-05
3.0554e-05
3.30852e-05
4.33899e-05
7.59361e-05
0.000191486
0.000597456
0.00202019
0.00686508
8.18642e-05
2.45039e-05
1.36096e-05
9.01292e-06
6.82921e-06
5.557e-06
5.29827e-06
5.91853e-06
9.46645e-06
2.52909e-05
9.41617e-05
0.000372011
0.0014287
0.00526887
5.70145e-05
9.65985e-06
2.79827e-06
1.50168e-06
1.08284e-06
8.58926e-07
8.23244e-07
1.11349e-06
3.11589e-06
1.39863e-05
6.61743e-05
0.000292122
0.00120328
0.00470244
6.9959e-05
9.98597e-06
1.24867e-06
2.68139e-07
1.49402e-07
1.15225e-07
1.27812e-07
3.41005e-07
1.85978e-06
1.06821e-05
5.52439e-05
0.000258158
0.00111459
0.00450427
0.000104973
1.52838e-05
1.50531e-06
1.19504e-07
2.32617e-08
1.68158e-08
3.51094e-08
2.16441e-07
1.54004e-06
9.58622e-06
5.22524e-05
0.000255726
0.00114238
0.00468044
0.000172691
2.59496e-05
2.4627e-06
1.55443e-07
2.75586e-08
2.90543e-08
5.03231e-08
2.20471e-07
1.49911e-06
9.65179e-06
5.47987e-05
0.000276242
0.00124568
0.00503709
0.000288658
4.4981e-05
4.3675e-06
3.38464e-07
1.74488e-07
2.22858e-07
2.85608e-07
5.13089e-07
2.04596e-06
1.19119e-05
6.71024e-05
0.000336271
0.00148561
0.00580476
0.00049432
8.08515e-05
8.76487e-06
1.25315e-06
1.15485e-06
1.52639e-06
1.90758e-06
2.55035e-06
5.16e-06
1.98617e-05
9.72287e-05
0.000454626
0.0018924
0.00697145
0.000860005
0.000151119
2.10027e-05
6.16923e-06
6.68804e-06
8.81063e-06
1.11195e-05
1.42631e-05
2.15058e-05
5.07823e-05
0.000183011
0.000736815
0.00278805
0.00952754
0.00156646
0.000320368
6.85067e-05
3.25608e-05
3.42464e-05
4.37232e-05
5.52423e-05
7.09736e-05
9.7724e-05
0.000170073
0.000424456
0.00135472
0.00449138
0.0140258
0.00290193
0.00077018
0.000266275
0.000164869
0.000161326
0.000194958
0.000241269
0.000310389
0.00041853
0.000641895
0.0012295
0.00303013
0.0085144
0.0240552
0.00578873
0.00242867
0.00122141
0.000810528
0.000716168
0.000813324
0.000970473
0.00123671
0.00165084
0.00240055
0.00388121
0.00735216
0.0162636
0.040291
0.000204501
0.000127863
9.09113e-05
6.69858e-05
5.44131e-05
4.72787e-05
4.68731e-05
5.10501e-05
6.33824e-05
8.91518e-05
0.00015492
0.00032289
0.000795176
0.00209498
5.25953e-05
2.8202e-05
1.94279e-05
1.39791e-05
1.10024e-05
9.2305e-06
8.85006e-06
9.45379e-06
1.19384e-05
1.8883e-05
4.16626e-05
0.00011753
0.000376491
0.00123239
1.71641e-05
5.97712e-06
3.59442e-06
2.49931e-06
1.92181e-06
1.57298e-06
1.47027e-06
1.56245e-06
2.17594e-06
4.81149e-06
1.6397e-05
6.4188e-05
0.000249192
0.000921595
1.13588e-05
2.07313e-06
6.67135e-07
3.83417e-07
2.83263e-07
2.27828e-07
2.11413e-07
2.45646e-07
5.26744e-07
2.14023e-06
1.02815e-05
4.65654e-05
0.00019321
0.000746446
1.3573e-05
2.01268e-06
2.75877e-07
6.36589e-08
3.55421e-08
2.7551e-08
2.75278e-08
5.4335e-08
2.65255e-07
1.56914e-06
8.41361e-06
3.99701e-05
0.000172555
0.00069823
2.0029e-05
2.94503e-06
3.16627e-07
2.91605e-08
5.17884e-09
3.04741e-09
4.98211e-09
2.80684e-08
2.07982e-07
1.34873e-06
7.51812e-06
3.7093e-05
0.000167268
0.000707348
3.12703e-05
4.63129e-06
4.62886e-07
3.29103e-08
3.23537e-09
1.82168e-09
3.9102e-09
2.47301e-08
1.89737e-07
1.27134e-06
7.3756e-06
3.81095e-05
0.000179799
0.000786165
5.0426e-05
7.51908e-06
7.228e-07
4.97894e-08
1.21643e-08
1.34505e-08
1.75261e-08
3.90884e-08
2.05526e-07
1.34047e-06
8.05513e-06
4.33065e-05
0.000210001
0.000924649
8.12887e-05
1.22997e-05
1.1974e-06
1.17903e-07
8.27341e-08
1.06857e-07
1.30795e-07
1.73596e-07
3.96008e-07
1.85832e-06
1.05856e-05
5.66076e-05
0.000271876
0.00116979
0.000132896
2.09034e-05
2.34874e-06
4.99134e-07
5.424e-07
7.16854e-07
8.85998e-07
1.08942e-06
1.59438e-06
4.08181e-06
1.75727e-05
8.45937e-05
0.000380621
0.00154524
0.000222718
3.87551e-05
6.33875e-06
2.71609e-06
3.15665e-06
4.12175e-06
5.14178e-06
6.34026e-06
8.28027e-06
1.42592e-05
4.00241e-05
0.000153473
0.000610432
0.00227249
0.000409087
9.10471e-05
2.58347e-05
1.56559e-05
1.68704e-05
2.11086e-05
2.61582e-05
3.25842e-05
4.16892e-05
6.08586e-05
0.000119349
0.000333505
0.00109457
0.00361148
0.000805918
0.000265087
0.000121218
8.70056e-05
8.74019e-05
0.000103482
0.000125002
0.000155453
0.000198769
0.000275222
0.000442037
0.000917499
0.00235954
0.00668965
0.00189708
0.000922949
0.00054658
0.000421083
0.000400969
0.00045157
0.000528049
0.000647572
0.00082332
0.00111745
0.00163421
0.00272876
0.00529438
0.0123006
1.29546e-05
8.01129e-06
5.74391e-06
4.28176e-06
3.40956e-06
2.88145e-06
2.72415e-06
2.82146e-06
3.33783e-06
4.75184e-06
9.0225e-06
2.20288e-05
6.33185e-05
0.000192624
3.21892e-06
1.50653e-06
1.01354e-06
7.39139e-07
5.79804e-07
4.83657e-07
4.50399e-07
4.58942e-07
5.54742e-07
9.48556e-07
2.5911e-06
9.14554e-06
3.41103e-05
0.000123437
1.59531e-06
3.77682e-07
1.6347e-07
1.05613e-07
8.06982e-08
6.68467e-08
6.21016e-08
6.51946e-08
9.97575e-08
3.02565e-07
1.34771e-06
6.10408e-06
2.55824e-05
9.85137e-05
1.84822e-06
3.04756e-07
5.23851e-08
1.55809e-08
9.37245e-09
7.50089e-09
7.18479e-09
1.00025e-08
3.39231e-08
1.87757e-07
1.02187e-06
4.92977e-06
2.11885e-05
8.28111e-05
2.7217e-06
4.2999e-07
5.54459e-08
6.76684e-09
1.35487e-09
7.29124e-10
8.82069e-10
3.40206e-09
2.3797e-08
1.57238e-07
8.9186e-07
4.38929e-06
1.92413e-05
7.72382e-05
4.16304e-06
6.36713e-07
7.48227e-08
7.25967e-09
7.33972e-10
1.64231e-10
3.27977e-10
2.5103e-09
2.03323e-08
1.3909e-07
8.07359e-07
4.0799e-06
1.8485e-05
7.72144e-05
6.43892e-06
9.52325e-07
1.02816e-07
8.84506e-09
1.07554e-09
5.94563e-10
8.14874e-10
2.79982e-09
1.90691e-08
1.30407e-07
7.78849e-07
4.09414e-06
1.94226e-05
8.50322e-05
1.00228e-05
1.44094e-06
1.4551e-07
1.284e-08
4.26968e-09
4.79912e-09
5.80209e-09
8.23818e-09
2.4609e-08
1.38414e-07
8.29472e-07
4.53656e-06
2.24607e-05
0.000101729
1.5452e-05
2.19348e-06
2.21179e-07
3.17308e-08
2.74534e-08
3.56215e-08
4.31346e-08
5.13188e-08
7.62486e-08
2.24465e-07
1.11742e-06
5.97182e-06
2.96581e-05
0.000134201
2.39422e-05
3.5215e-06
4.33717e-07
1.44116e-07
1.73102e-07
2.28232e-07
2.79233e-07
3.29818e-07
4.09623e-07
6.99205e-07
2.17843e-06
9.6876e-06
4.44865e-05
0.000190903
3.87431e-05
6.72813e-06
1.40601e-06
8.36097e-07
1.01987e-06
1.32331e-06
1.62782e-06
1.95704e-06
2.37909e-06
3.30814e-06
6.61107e-06
2.08216e-05
7.96719e-05
0.00030642
6.94915e-05
1.73625e-05
6.36314e-06
4.66796e-06
5.35796e-06
6.75509e-06
8.3184e-06
1.01469e-05
1.24296e-05
1.62635e-05
2.54708e-05
5.61064e-05
0.000164339
0.000536324
0.000142917
5.53053e-05
2.90401e-05
2.29778e-05
2.45522e-05
2.95053e-05
3.57061e-05
4.3677e-05
5.40204e-05
7.0025e-05
9.95019e-05
0.000173333
0.000388797
0.0010581
0.000363025
0.000194466
0.000123974
0.000102854
0.000104214
0.000119016
0.000139644
0.000169165
0.00020957
0.000271951
0.000372142
0.000564533
0.000984722
0.00213253
1.24244e-06
7.23378e-07
5.0911e-07
3.76912e-07
2.9722e-07
2.49368e-07
2.31282e-07
2.30942e-07
2.57152e-07
3.59992e-07
7.44335e-07
2.11759e-06
6.94362e-06
2.33959e-05
3.51598e-07
1.27846e-07
7.5537e-08
5.3142e-08
4.13252e-08
3.4604e-08
3.2088e-08
3.20463e-08
3.79684e-08
7.26284e-08
2.45608e-07
1.01668e-06
4.15625e-06
1.59199e-05
2.84228e-07
5.60536e-08
1.4533e-08
6.65671e-09
4.63657e-09
3.8347e-09
3.60225e-09
3.9376e-09
7.38174e-09
3.00992e-08
1.5571e-07
7.55898e-07
3.30397e-06
1.30858e-05
4.0107e-07
7.08964e-08
1.11563e-08
1.8881e-09
5.57117e-10
3.53015e-10
3.51496e-10
6.8411e-10
3.42755e-09
2.17111e-08
1.24696e-07
6.24213e-07
2.76451e-06
1.10314e-05
5.93677e-07
1.01454e-07
1.47308e-08
1.9073e-09
2.43314e-10
4.935e-11
5.713e-11
3.40934e-10
2.67254e-09
1.84115e-08
1.08331e-07
5.51194e-07
2.4801e-06
1.00854e-05
8.66435e-07
1.39849e-07
1.87682e-08
2.20781e-09
2.49783e-10
4.46887e-11
5.07096e-11
2.88892e-10
2.27239e-09
1.59181e-08
9.55706e-08
4.98023e-07
2.30399e-06
9.6813e-06
1.26821e-06
1.92197e-07
2.35799e-08
2.55564e-09
3.74736e-10
2.03888e-10
2.3581e-10
4.57031e-10
2.21692e-09
1.45742e-08
8.88629e-08
4.78457e-07
2.30596e-06
1.01518e-05
1.85325e-06
2.64597e-07
3.01331e-08
3.52347e-09
1.36835e-09
1.51818e-09
1.80291e-09
2.1861e-09
3.99926e-09
1.62421e-08
9.18816e-08
5.0567e-07
2.53971e-06
1.1687e-05
2.67819e-06
3.66546e-07
4.20253e-08
8.63563e-09
8.14294e-09
1.04997e-08
1.26628e-08
1.46177e-08
1.81769e-08
3.47467e-08
1.31136e-07
6.60626e-07
3.29787e-06
1.53048e-05
3.93144e-06
5.54509e-07
8.30168e-08
3.87472e-08
4.83438e-08
6.34531e-08
7.73399e-08
9.02534e-08
1.05952e-07
1.45256e-07
3.16724e-07
1.17158e-06
5.18964e-06
2.27099e-05
6.12703e-06
1.08698e-06
2.90166e-07
2.13493e-07
2.71245e-07
3.53189e-07
4.34529e-07
5.17489e-07
6.11604e-07
7.70842e-07
1.21319e-06
2.97365e-06
1.01949e-05
3.87267e-05
1.11721e-05
3.04875e-06
1.29533e-06
1.06712e-06
1.29084e-06
1.6469e-06
2.03143e-06
2.45044e-06
2.92993e-06
3.62624e-06
5.00156e-06
9.12525e-06
2.33476e-05
7.34612e-05
2.463e-05
1.0318e-05
5.70549e-06
4.83086e-06
5.4777e-06
6.7382e-06
8.23068e-06
9.9813e-06
1.20699e-05
1.49993e-05
1.97311e-05
3.04075e-05
6.02196e-05
0.000154843
6.58676e-05
3.6146e-05
2.32676e-05
2.01047e-05
2.15164e-05
2.52819e-05
3.01784e-05
3.64203e-05
4.4333e-05
5.56623e-05
7.2437e-05
0.00010244
0.000164638
0.000335621
1.67065e-07
8.59669e-08
5.82658e-08
4.26344e-08
3.35638e-08
2.84241e-08
2.65197e-08
2.61986e-08
2.79904e-08
3.80801e-08
8.29546e-08
2.62683e-07
9.36829e-07
3.34447e-06
6.49982e-08
1.81639e-08
8.30782e-09
5.31813e-09
4.06418e-09
3.44665e-09
3.24374e-09
3.26054e-09
3.91729e-09
8.37249e-09
3.25528e-08
1.46164e-07
6.23277e-07
2.44208e-06
7.35127e-08
1.45493e-08
2.90624e-09
8.10191e-10
4.24012e-10
3.33989e-10
3.20263e-10