/*--------------------------------*- C++ -*----------------------------------*\
| =========                 |                                                 |
| \\      /  F ield         | OpenFOAM: The Open Source CFD Toolbox           |
|  \\    /   O peration     | Version:  v2106                                 |
|   \\  /    A nd           | Website:  www.openfoam.com                      |
|    \\/     M anipulation  |                                                 |
\*---------------------------------------------------------------------------*/
FoamFile
{
    version     2.0;
    format      ascii;
    arch        "LSB;label=32;scalar=64";
    class       surfaceScalarField;
    location    "0.000204";
    object      phi;
}
// * * * * * * * * * * * * * * * * * * * * * * * * * * * * * * * * * * * * * //

dimensions      [1 0 -1 0 0 0 0];

internalField   nonuniform List<scalar> 
52765
(
1.11902e-06
2.10694e-06
-5.09596e-06
-2.10852e-06
-1.11429e-06
1.08979e-06
2.17665e-06
-5.13287e-06
1.06515e-06
2.22841e-06
-5.16442e-06
1.04218e-06
2.28094e-06
-5.19547e-06
1.02756e-06
2.31342e-06
-5.23046e-06
1.02579e-06
2.33994e-06
-5.26726e-06
2.35795e-06
-5.3047e-06
1.17121e-06
2.12569e-06
-5.11544e-06
-1.18444e-06
1.13724e-06
2.21106e-06
-5.15468e-06
1.10141e-06
2.26011e-06
-5.18727e-06
1.07111e-06
2.30151e-06
-5.21662e-06
1.05136e-06
2.32134e-06
-5.24758e-06
1.04438e-06
2.33391e-06
-5.27987e-06
2.34168e-06
-5.31401e-06
1.20337e-06
2.16886e-06
-5.11418e-06
-1.24978e-06
1.15446e-06
2.25369e-06
-5.15433e-06
1.108e-06
2.29512e-06
-5.18944e-06
1.07536e-06
2.31767e-06
-5.22355e-06
1.05326e-06
2.32551e-06
-5.2567e-06
1.04127e-06
2.32816e-06
-5.28955e-06
2.32826e-06
-5.32154e-06
1.22804e-06
2.2227e-06
-5.11916e-06
-1.29713e-06
1.16968e-06
2.29439e-06
-5.16222e-06
1.11873e-06
2.32494e-06
-5.19983e-06
1.08243e-06
2.33068e-06
-5.2356e-06
1.05679e-06
2.32759e-06
-5.26785e-06
1.04076e-06
2.32094e-06
-5.29838e-06
2.31561e-06
-5.32867e-06
1.22388e-06
2.27296e-06
-5.11481e-06
1.16836e-06
2.32193e-06
-5.15938e-06
1.12575e-06
2.33717e-06
-5.20071e-06
1.08956e-06
2.33283e-06
-5.23978e-06
1.05988e-06
2.32363e-06
-5.2748e-06
1.03925e-06
2.30983e-06
-5.30655e-06
2.29862e-06
-5.33611e-06
1.21957e-06
2.29791e-06
-5.11027e-06
1.17109e-06
2.32584e-06
-5.15571e-06
1.12759e-06
2.33498e-06
-5.19871e-06
1.09285e-06
2.32393e-06
-5.23929e-06
1.06593e-06
2.30853e-06
-5.27781e-06
1.04603e-06
2.2904e-06
-5.31169e-06
2.27463e-06
-5.34177e-06
1.21013e-06
2.29574e-06
-5.10284e-06
1.16845e-06
2.31144e-06
-5.14929e-06
1.13267e-06
2.31603e-06
-5.19489e-06
1.1033e-06
2.30102e-06
-5.23738e-06
1.07919e-06
2.28321e-06
-5.27766e-06
1.06103e-06
2.26273e-06
-5.31347e-06
2.2439e-06
-5.34477e-06
1.20403e-06
-5.09451e-06
1.17228e-06
-5.14027e-06
1.14192e-06
-5.18617e-06
1.11611e-06
-5.22954e-06
1.0962e-06
-5.27144e-06
1.0819e-06
-5.30879e-06
-5.34113e-06
9.5055e-07
2.12425e-06
-2.10819e-06
-9.34767e-07
-5.08377e-06
9.3339e-07
2.20466e-06
-2.16116e-06
-5.11714e-06
9.18793e-07
2.26456e-06
-2.2284e-06
-5.14872e-06
9.01384e-07
2.32161e-06
-2.29051e-06
-5.17694e-06
8.87998e-07
2.34977e-06
-2.33033e-06
-5.20962e-06
8.85668e-07
2.36759e-06
-2.36686e-06
-5.24343e-06
8.92027e-07
2.38176e-06
-2.39636e-06
-5.27762e-06
9.1432e-07
2.41686e-06
-2.45315e-06
-5.30629e-06
9.55666e-07
2.47079e-06
-2.52852e-06
-5.33212e-06
1.00938e-06
2.53001e-06
-2.59763e-06
-5.35621e-06
1.05715e-06
2.56374e-06
-2.61891e-06
-5.37089e-06
1.08792e-06
2.54324e-06
-2.5717e-06
-5.37891e-06
1.10417e-06
2.49377e-06
-2.50184e-06
-5.39322e-06
2.44439e-06
-2.41676e-06
1.08983e-06
-5.39674e-06
1.00396e-06
2.15509e-06
-1.00559e-06
-5.10507e-06
9.81557e-07
2.2502e-06
-5.13878e-06
9.55842e-07
2.3073e-06
-5.16998e-06
9.31927e-07
2.35448e-06
-5.19563e-06
9.13339e-07
2.37062e-06
-5.22444e-06
9.04956e-07
2.372e-06
-5.25433e-06
9.01436e-07
2.37464e-06
-5.2851e-06
9.09075e-07
2.39264e-06
-5.31396e-06
9.34724e-07
2.42706e-06
-5.3402e-06
9.77266e-07
2.47099e-06
-5.36154e-06
1.02619e-06
2.5045e-06
-5.37623e-06
1.05985e-06
2.50735e-06
-5.38667e-06
1.07617e-06
2.48277e-06
-5.39656e-06
2.45501e-06
1.07375e-06
-5.3994e-06
1.03316e-06
2.21388e-06
-1.07179e-06
-5.10208e-06
9.9429e-07
2.30494e-06
-5.13746e-06
9.57062e-07
2.3538e-06
-5.16966e-06
9.32149e-07
2.3803e-06
-5.19883e-06
9.14184e-07
2.38343e-06
-5.22926e-06
9.0263e-07
2.37404e-06
-5.2603e-06
8.95478e-07
2.3686e-06
-5.29087e-06
8.97708e-07
2.37358e-06
-5.31805e-06
9.14618e-07
2.39211e-06
-5.34273e-06
9.46427e-07
2.42219e-06
-5.3634e-06
9.87929e-07
2.45104e-06
-5.37935e-06
1.02233e-06
2.46742e-06
-5.39109e-06
1.04472e-06
2.46226e-06
-5.4005e-06
2.45214e-06
1.05401e-06
-5.40602e-06
1.06151e-06
2.28386e-06
-1.12519e-06
-5.10197e-06
1.01038e-06
2.35692e-06
-5.13968e-06
9.66748e-07
2.39235e-06
-5.17333e-06
9.37631e-07
2.39901e-06
-5.20545e-06
9.15997e-07
2.39202e-06
-5.23655e-06
9.0101e-07
2.3739e-06
-5.26623e-06
8.90584e-07
2.36211e-06
-5.29585e-06
8.87797e-07
2.35824e-06
-5.32279e-06
8.95953e-07
2.36578e-06
-5.34685e-06
9.16555e-07
2.38488e-06
-5.36653e-06
9.46984e-07
2.40847e-06
-5.38198e-06
9.79084e-07
2.42925e-06
-5.39368e-06
1.0029e-06
2.43878e-06
-5.40358e-06
2.43844e-06
1.0211e-06
-5.41021e-06
1.05468e-06
2.34547e-06
-1.12297e-06
-5.09518e-06
1.00627e-06
2.39377e-06
-5.13451e-06
9.70409e-07
2.41199e-06
-5.17085e-06
9.43889e-07
2.40547e-06
-5.20587e-06
9.19945e-07
2.39349e-06
-5.23924e-06
9.00273e-07
2.37072e-06
-5.27038e-06
8.87231e-07
2.35285e-06
-5.3002e-06
8.82417e-07
2.34174e-06
-5.32769e-06
8.86072e-07
2.34245e-06
-5.35199e-06
9.00181e-07
2.35406e-06
-5.37254e-06
9.22738e-07
2.37411e-06
-5.38842e-06
9.50526e-07
2.39577e-06
-5.40006e-06
9.76541e-07
2.41261e-06
-5.40893e-06
2.41765e-06
1.00114e-06
-5.41509e-06
1.04078e-06
2.37664e-06
-1.09437e-06
-5.087e-06
1.00524e-06
2.40192e-06
-5.12741e-06
9.74564e-07
2.41249e-06
-5.16603e-06
9.47506e-07
2.40246e-06
-5.20334e-06
9.24671e-07
2.38671e-06
-5.23946e-06
9.05555e-07
2.3607e-06
-5.27224e-06
8.92875e-07
2.33821e-06
-5.30308e-06
8.87748e-07
2.32204e-06
-5.3314e-06
8.89744e-07
2.31887e-06
-5.35651e-06
9.00793e-07
2.32595e-06
-5.37814e-06
9.194e-07
2.34395e-06
-5.39451e-06
9.44287e-07
2.36572e-06
-5.40621e-06
9.71532e-07
2.38525e-06
-5.41415e-06
2.39316e-06
9.9963e-07
-5.41976e-06
1.0232e-06
2.37629e-06
-1.06117e-06
-5.07764e-06
9.97073e-07
2.3886e-06
-5.1188e-06
9.74137e-07
2.39693e-06
-5.15968e-06
9.53899e-07
2.38575e-06
-5.19846e-06
9.35783e-07
2.36914e-06
-5.23594e-06
9.19179e-07
2.34278e-06
-5.2704e-06
9.06991e-07
2.31825e-06
-5.30272e-06
9.01067e-07
2.29915e-06
-5.33214e-06
9.01989e-07
2.29373e-06
-5.35821e-06
9.11531e-07
2.29801e-06
-5.38034e-06
9.28701e-07
2.31445e-06
-5.3965e-06
9.52626e-07
2.33591e-06
-5.40752e-06
9.81743e-07
2.35481e-06
-5.41451e-06
2.36496e-06
1.01261e-06
-5.42004e-06
1.00349e-06
2.34998e-06
-1.02383e-06
-5.06723e-06
9.89394e-07
2.35736e-06
-5.1087e-06
9.75198e-07
2.36801e-06
-5.14952e-06
9.61634e-07
2.35921e-06
-5.18889e-06
9.49457e-07
2.34262e-06
-5.22711e-06
9.3684e-07
2.3174e-06
-5.26251e-06
9.26069e-07
2.29264e-06
-5.29563e-06
9.20038e-07
2.27208e-06
-5.32586e-06
9.20915e-07
2.26497e-06
-5.35316e-06
9.30159e-07
2.26737e-06
-5.37602e-06
9.47466e-07
2.28246e-06
-5.39238e-06
9.71252e-07
2.30397e-06
-5.40315e-06
1.00056e-06
2.32236e-06
-5.40995e-06
2.33785e-06
1.02915e-06
-5.41557e-06
9.76907e-07
2.30705e-06
-9.8045e-07
-5.05392e-06
9.75521e-07
2.31621e-06
-5.09513e-06
9.72058e-07
2.33116e-06
-5.1354e-06
9.66228e-07
2.32715e-06
-5.17515e-06
9.60198e-07
2.31079e-06
-5.21319e-06
9.51377e-07
2.28736e-06
-5.24861e-06
9.42275e-07
2.26276e-06
-5.28199e-06
9.36155e-07
2.24147e-06
-5.31292e-06
9.36947e-07
2.23254e-06
-5.3413e-06
9.46176e-07
2.23377e-06
-5.36476e-06
9.6447e-07
2.24721e-06
-5.38173e-06
9.89232e-07
2.2691e-06
-5.39302e-06
1.01731e-06
2.28915e-06
-5.40148e-06
2.3137e-06
1.04064e-06
-5.40771e-06
9.48501e-07
2.25907e-06
-9.39889e-07
-5.04048e-06
9.57647e-07
2.27316e-06
-5.08153e-06
9.65252e-07
2.29134e-06
-5.11998e-06
9.6769e-07
2.29359e-06
-5.15972e-06
9.67039e-07
2.27793e-06
-5.19689e-06
9.60514e-07
2.25722e-06
-5.23208e-06
9.5167e-07
2.23265e-06
-5.26553e-06
9.44464e-07
2.21044e-06
-5.29688e-06
9.44737e-07
2.19864e-06
-5.32611e-06
9.53847e-07
2.19834e-06
-5.35074e-06
9.72926e-07
2.21008e-06
-5.3695e-06
9.96609e-07
2.23475e-06
-5.38232e-06
1.01776e-06
2.2614e-06
-5.39233e-06
2.29417e-06
1.03386e-06
-5.397e-06
8.99394e-07
2.21998e-06
-8.84443e-07
-5.03677e-06
9.20535e-07
2.2327e-06
-5.07587e-06
9.45126e-07
2.24792e-06
-5.10901e-06
9.60875e-07
2.25699e-06
-5.14775e-06
9.69561e-07
2.24283e-06
-5.18353e-06
9.6821e-07
2.22651e-06
-5.21818e-06
9.6146e-07
2.20294e-06
-5.25055e-06
9.53882e-07
2.1807e-06
-5.28117e-06
9.51429e-07
2.16712e-06
-5.31035e-06
9.57178e-07
2.1653e-06
-5.3355e-06
9.7207e-07
2.17629e-06
-5.35591e-06
9.88797e-07
2.20697e-06
-5.36997e-06
1.00125e-06
2.24245e-06
-5.37977e-06
2.27984e-06
1.01151e-06
-5.38149e-06
8.52957e-07
2.19102e-06
-8.30816e-07
-5.02838e-06
8.78982e-07
2.20273e-06
-5.06831e-06
9.1497e-07
2.20718e-06
-5.10152e-06
9.42889e-07
2.21775e-06
-5.13946e-06
9.61111e-07
2.20472e-06
-5.17363e-06
9.68016e-07
2.19271e-06
-5.20725e-06
9.672e-07
2.17199e-06
-5.23767e-06
9.62375e-07
2.15218e-06
-5.26599e-06
9.59788e-07
2.13833e-06
-5.29243e-06
9.64515e-07
2.13496e-06
-5.31636e-06
9.75315e-07
2.14784e-06
-5.33663e-06
9.86745e-07
2.18578e-06
-5.35024e-06
9.97207e-07
2.22741e-06
-5.35882e-06
2.26648e-06
1.00841e-06
-5.35726e-06
7.97484e-07
2.17724e-06
-7.80968e-07
-5.02432e-06
8.18324e-07
2.18731e-06
-5.06375e-06
8.61457e-07
2.16884e-06
-5.09719e-06
9.05106e-07
2.17207e-06
-5.13406e-06
9.40811e-07
2.15741e-06
-5.16585e-06
9.63888e-07
2.14874e-06
-5.1967e-06
9.74052e-07
2.13478e-06
-5.22441e-06
9.74363e-07
2.12192e-06
-5.24983e-06
9.71223e-07
2.11217e-06
-5.27315e-06
9.73252e-07
2.10909e-06
-5.29435e-06
9.80204e-07
2.1247e-06
-5.31223e-06
9.90955e-07
2.16649e-06
-5.32347e-06
1.00445e-06
2.21067e-06
-5.33034e-06
2.25077e-06
1.02043e-06
-5.32682e-06
7.79165e-07
2.16901e-06
-7.69331e-07
-5.00889e-06
7.94568e-07
2.17687e-06
-5.04595e-06
8.30152e-07
2.13813e-06
-5.08263e-06
8.77749e-07
2.12226e-06
-5.12049e-06
9.16445e-07
2.10731e-06
-5.15301e-06
9.41016e-07
2.10239e-06
-5.18068e-06
9.55643e-07
2.09258e-06
-5.2059e-06
9.66093e-07
2.08278e-06
-5.22865e-06
9.72697e-07
2.07808e-06
-5.24791e-06
9.80497e-07
2.07957e-06
-5.26788e-06
9.92252e-07
2.09841e-06
-5.28541e-06
1.01018e-06
2.14019e-06
-5.29594e-06
1.03648e-06
2.18001e-06
-5.3017e-06
1.06823e-06
2.21685e-06
-5.29943e-06
-2.32176e-06
-3.26213e-06
4.91017e-07
-2.50063e-06
-3.76499e-06
5.53027e-07
-2.5709e-06
-4.23949e-06
5.683e-07
-2.49914e-06
-4.71894e-06
6.65035e-07
-2.28683e-06
-5.13251e-06
9.19636e-07
-5.57923e-06
1.49849e-06
-2.2774e-06
-3.86179e-07
5.79728e-07
-3.25705e-06
-2.40696e-06
-4.72573e-07
6.33676e-07
-3.762e-06
-2.42714e-06
-5.75547e-07
6.51455e-07
-4.25181e-06
-2.31163e-06
-7.68136e-07
7.34704e-07
-4.7451e-06
-2.0412e-06
-1.12201e-06
9.81632e-07
-5.19052e-06
-1.80495e-06
1.52935e-06
-1.58498e-06
-5.66749e-06
-2.33652e-06
-1.84785e-07
-4.11883e-06
-2.47506e-06
-2.95733e-07
-4.63537e-06
-2.52747e-06
-4.59636e-07
-5.12696e-06
-2.44117e-06
-7.48801e-07
-5.62079e-06
-2.18276e-06
-1.22317e-06
-6.04702e-06
-2.10934e-06
-1.67045e-06
-6.53514e-06
-2.41939e-06
3.20395e-08
-4.86797e-06
-2.56936e-06
-1.05918e-07
-5.39464e-06
-2.64182e-06
-3.23408e-07
-5.89049e-06
-2.58777e-06
-7.01966e-07
-6.39512e-06
-2.34907e-06
-1.30792e-06
-6.81764e-06
-2.41743e-06
-1.83631e-06
-7.27695e-06
-2.50081e-06
2.63765e-07
-5.48939e-06
-2.67643e-06
1.06687e-07
-6.02974e-06
-2.78329e-06
-1.57112e-07
-6.53767e-06
-2.78065e-06
-6.06467e-07
-7.04889e-06
-2.60158e-06
-1.33931e-06
-7.47278e-06
-2.67038e-06
-2.13009e-06
-7.90265e-06
-2.5577e-06
5.06327e-07
-5.97863e-06
-2.76751e-06
3.46727e-07
-6.53229e-06
-2.92845e-06
5.90967e-08
-7.05653e-06
-3.00249e-06
-4.3236e-07
-7.5715e-06
-2.9019e-06
-1.28737e-06
-7.9896e-06
-2.84987e-06
-2.48158e-06
-8.37023e-06
-2.61947e-06
7.65807e-07
-6.32205e-06
-2.87608e-06
6.25751e-07
-6.88496e-06
-3.10516e-06
3.44555e-07
-7.43059e-06
-3.27489e-06
-1.56274e-07
-7.94886e-06
-3.27619e-06
-1.12075e-06
-8.35982e-06
-2.93958e-06
-2.92734e-06
-8.68698e-06
-2.67583e-06
1.04344e-06
-6.52177e-06
-2.9765e-06
9.4169e-07
-7.09824e-06
-3.27344e-06
6.90416e-07
-7.65922e-06
-3.51376e-06
1.91965e-07
-8.17063e-06
-3.60764e-06
-8.70362e-07
-8.56526e-06
-2.87713e-06
-3.4176e-06
-8.81237e-06
-2.74522e-06
1.32447e-06
-6.56245e-06
-3.06511e-06
1.26756e-06
-7.14537e-06
-3.38288e-06
1.04844e-06
-7.72128e-06
-3.64356e-06
5.45506e-07
-8.21838e-06
-3.79881e-06
-5.74264e-07
-8.59549e-06
-2.65846e-06
-3.74856e-06
-8.78156e-06
-2.80558e-06
1.58727e-06
-6.44176e-06
-3.10275e-06
1.56646e-06
-7.0211e-06
-3.39525e-06
1.37364e-06
-7.59311e-06
-3.63596e-06
8.60209e-07
-8.07828e-06
-3.82078e-06
-2.63019e-07
-8.44814e-06
-2.28406e-06
-3.92319e-06
-8.56806e-06
-2.82377e-06
1.8037e-06
-6.15264e-06
-3.04151e-06
1.78986e-06
-6.72033e-06
-3.25865e-06
1.62065e-06
-7.28334e-06
-3.45863e-06
1.1231e-06
-7.76149e-06
-3.65411e-06
5.51588e-08
-8.12106e-06
-1.79643e-06
-3.88606e-06
-8.23249e-06
-2.75457e-06
1.93614e-06
-5.69691e-06
-2.88302e-06
1.92796e-06
-6.25498e-06
-3.01045e-06
1.77174e-06
-6.80734e-06
-3.12792e-06
1.30078e-06
-7.29206e-06
-3.30463e-06
3.36215e-07
-7.64669e-06
-1.25767e-06
-3.62195e-06
-7.80643e-06
-2.60975e-06
1.9778e-06
-5.08365e-06
-2.62323e-06
1.9588e-06
-5.63714e-06
-2.62968e-06
1.8075e-06
-6.16552e-06
-2.63732e-06
1.37367e-06
-6.65485e-06
-2.76422e-06
5.59209e-07
-7.0325e-06
-7.10878e-07
-3.11863e-06
-7.29789e-06
-2.42265e-06
1.90749e-06
-4.33637e-06
-2.31795e-06
1.87338e-06
-4.88332e-06
-2.20577e-06
1.72688e-06
-5.40739e-06
-2.12975e-06
1.36032e-06
-5.90816e-06
-2.17766e-06
6.98505e-07
-6.33834e-06
-3.05065e-07
-2.4008e-06
-6.68027e-06
-2.24121e-06
1.74113e-06
-3.44568e-06
-2.04499e-06
1.69682e-06
-3.98091e-06
-1.82099e-06
1.53549e-06
-4.5007e-06
-1.60848e-06
1.20346e-06
-4.99649e-06
-1.48483e-06
6.58202e-07
-5.47102e-06
-9.98539e-08
-1.53577e-06
-5.99895e-06
6.96841e-07
2.14312e-06
-3.45027e-06
2.98367e-07
2.11248e-06
-3.99538e-06
-7.72781e-08
1.94311e-06
-4.53915e-06
-4.01496e-07
1.5814e-06
-5.05492e-06
-6.19977e-07
9.58637e-07
-5.56857e-06
4.6012e-08
-6.25339e-07
-6.16731e-06
7.69576e-07
2.45693e-06
-4.34931e-06
4.8139e-07
2.41735e-06
-4.90561e-06
2.31091e-07
2.22897e-06
-5.47014e-06
4.13428e-08
1.83183e-06
-6.00823e-06
-4.19672e-08
1.13457e-06
-6.54899e-06
4.98331e-08
9.57464e-08
-7.16907e-06
8.29363e-07
2.69043e-06
-5.12517e-06
6.28267e-07
2.63159e-06
-5.69664e-06
4.68924e-07
2.41831e-06
-6.28876e-06
3.72949e-07
1.98546e-06
-6.86829e-06
3.75347e-07
1.22121e-06
-7.4319e-06
-3.3439e-08
5.81594e-07
-8.05322e-06
8.82561e-07
2.83632e-06
-5.7617e-06
7.65264e-07
2.75866e-06
-6.35481e-06
6.73319e-07
2.53151e-06
-6.96566e-06
6.2902e-07
2.07367e-06
-7.5771e-06
6.50495e-07
1.27204e-06
-8.15158e-06
-1.26364e-07
8.39947e-07
-8.78084e-06
9.42431e-07
2.90223e-06
-6.24723e-06
8.96622e-07
2.81201e-06
-6.86179e-06
8.51394e-07
2.58874e-06
-7.48062e-06
8.14948e-07
2.13572e-06
-8.11989e-06
7.91534e-07
1.32936e-06
-8.71297e-06
-1.73302e-07
9.01237e-07
-9.36258e-06
1.02183e-06
2.88613e-06
-6.5744e-06
1.03824e-06
2.80277e-06
-7.20628e-06
1.02716e-06
2.60295e-06
-7.82967e-06
9.84876e-07
2.18791e-06
-8.48475e-06
9.25134e-07
1.39496e-06
-9.0952e-06
-1.63903e-07
9.42634e-07
-9.70656e-06
1.10977e-06
2.79528e-06
-6.73614e-06
1.18797e-06
2.72916e-06
-7.37473e-06
1.21182e-06
2.5741e-06
-8.00221e-06
1.17144e-06
2.22472e-06
-8.66993e-06
1.07583e-06
1.48507e-06
-9.30185e-06
-6.71473e-08
9.97792e-07
-9.86631e-06
1.19244e-06
2.63867e-06
-6.72896e-06
1.32785e-06
2.59678e-06
-7.36601e-06
1.39495e-06
2.49454e-06
-7.99568e-06
1.384e-06
2.22475e-06
-8.66168e-06
1.2929e-06
1.56933e-06
-9.30782e-06
1.00192e-07
1.14408e-06
-9.83395e-06
1.25787e-06
2.42415e-06
-6.55343e-06
1.44437e-06
2.40654e-06
-7.18278e-06
1.56986e-06
2.35349e-06
-7.81049e-06
1.62909e-06
2.15298e-06
-8.46562e-06
1.59619e-06
1.5985e-06
-9.10923e-06
2.88755e-07
1.43111e-06
-9.59393e-06
1.3007e-06
2.15465e-06
-6.21554e-06
1.5468e-06
2.15527e-06
-6.82936e-06
1.75922e-06
2.13043e-06
-7.44404e-06
1.91003e-06
1.98993e-06
-8.07025e-06
1.96156e-06
1.54836e-06
-8.69394e-06
4.52055e-07
1.82663e-06
-9.16093e-06
1.33029e-06
1.8337e-06
-5.71941e-06
1.64056e-06
1.84165e-06
-6.3126e-06
1.93005e-06
1.83283e-06
-6.90489e-06
2.17937e-06
1.73587e-06
-7.51127e-06
2.34019e-06
1.3975e-06
-8.11124e-06
5.24961e-07
2.29345e-06
-8.57406e-06
1.38606e-06
1.45693e-06
-5.07151e-06
1.75507e-06
1.47021e-06
-5.64159e-06
2.12206e-06
1.46139e-06
-6.21227e-06
2.46553e-06
1.39138e-06
-6.78914e-06
2.73335e-06
1.13559e-06
-7.35227e-06
4.86734e-07
2.79574e-06
-7.83703e-06
1.44736e-06
1.03036e-06
-4.28563e-06
1.87254e-06
1.04203e-06
-4.83708e-06
2.29775e-06
1.0344e-06
-5.38974e-06
2.71202e-06
9.78273e-07
-5.939e-06
3.06012e-06
7.93058e-07
-6.49667e-06
3.16121e-07
3.25604e-06
-7.01773e-06
1.51667e-06
5.79199e-07
-3.3898e-06
1.96869e-06
5.8469e-07
-3.93256e-06
2.43472e-06
5.60266e-07
-4.46602e-06
2.89197e-06
5.13452e-07
-4.99113e-06
3.3144e-06
3.67052e-07
-5.52896e-06
1.00807e-08
3.63591e-06
-6.04379e-06
2.47395e-06
3.17202e-07
-3.37953e-06
2.7314e-06
3.17166e-07
-3.91789e-06
2.99171e-06
2.8123e-07
-4.44678e-06
3.25876e-06
2.25679e-07
-4.95815e-06
3.55759e-06
5.66728e-08
-5.48061e-06
-3.40898e-07
3.92206e-06
-6.02362e-06
2.43323e-06
5.65596e-08
-4.25531e-06
2.69963e-06
4.06224e-08
-4.79288e-06
2.97639e-06
-1.01834e-08
-5.31723e-06
3.27243e-06
-8.32272e-08
-5.82485e-06
3.59788e-06
-2.73246e-07
-6.34613e-06
-7.19303e-07
3.98625e-06
-6.8895e-06
2.38955e-06
-2.05231e-07
-4.99631e-06
2.64503e-06
-2.2877e-07
-5.53753e-06
2.90664e-06
-2.87034e-07
-6.07222e-06
3.19882e-06
-3.85702e-07
-6.58997e-06
3.52878e-06
-6.03474e-07
-7.12813e-06
-1.09513e-06
3.91384e-06
-7.68373e-06
2.33403e-06
-4.59772e-07
-5.59557e-06
2.57315e-06
-4.8675e-07
-6.14339e-06
2.81256e-06
-5.40066e-07
-6.69122e-06
3.0788e-06
-6.55986e-07
-7.2254e-06
3.36547e-06
-8.80349e-07
-7.7728e-06
-1.39491e-06
3.67529e-06
-8.34496e-06
2.29082e-06
-6.98456e-07
-6.03979e-06
2.4993e-06
-7.1912e-07
-6.59497e-06
2.70495e-06
-7.54867e-07
-7.1638e-06
2.9265e-06
-8.75287e-07
-7.72556e-06
3.12721e-06
-1.06939e-06
-8.25852e-06
-1.55476e-06
3.29513e-06
-8.84838e-06
2.25919e-06
-9.13373e-07
-6.32703e-06
2.43133e-06
-9.17737e-07
-6.8889e-06
2.59814e-06
-9.30392e-07
-7.46827e-06
2.7649e-06
-1.03788e-06
-8.04596e-06
2.88194e-06
-1.17404e-06
-8.55781e-06
-1.59293e-06
2.93028e-06
-9.1717e-06
2.23188e-06
-1.09714e-06
-6.45977e-06
2.36444e-06
-1.0751e-06
-7.03459e-06
2.48758e-06
-1.06614e-06
-7.61188e-06
2.5925e-06
-1.13997e-06
-8.18804e-06
2.64295e-06
-1.21438e-06
-8.69741e-06
-1.56948e-06
2.63406e-06
-9.30948e-06
2.21824e-06
-1.25404e-06
-6.43391e-06
2.32113e-06
-1.20578e-06
-7.01103e-06
2.40051e-06
-1.16618e-06
-7.57675e-06
2.44595e-06
-1.18861e-06
-8.13466e-06
2.46492e-06
-1.22631e-06
-8.64448e-06
-1.5278e-06
2.44627e-06
-9.25586e-06
2.20117e-06
-1.37412e-06
-6.24809e-06
2.27902e-06
-1.30665e-06
-6.82053e-06
2.33024e-06
-1.23741e-06
-7.37524e-06
2.34113e-06
-1.20539e-06
-7.91473e-06
2.35362e-06
-1.22891e-06
-8.43072e-06
-1.48412e-06
2.34843e-06
-9.03124e-06
2.17588e-06
-1.45305e-06
-5.90472e-06
2.22725e-06
-1.37318e-06
-6.46108e-06
2.26152e-06
-1.29014e-06
-6.99411e-06
2.28151e-06
-1.23594e-06
-7.52626e-06
2.3134e-06
-1.24932e-06
-8.04511e-06
-1.459e-06
2.3357e-06
-8.59872e-06
2.16365e-06
-1.49706e-06
-5.40778e-06
2.19832e-06
-1.41464e-06
-5.94146e-06
2.23793e-06
-1.33978e-06
-6.45717e-06
2.28585e-06
-1.28864e-06
-6.97932e-06
2.34666e-06
-1.2924e-06
-7.49062e-06
-1.47359e-06
2.41706e-06
-8.00213e-06
2.16767e-06
-1.5229e-06
-4.78232e-06
2.20516e-06
-1.45138e-06
-5.2969e-06
2.25993e-06
-1.39436e-06
-5.79794e-06
2.32578e-06
-1.34919e-06
-6.29813e-06
2.40774e-06
-1.34573e-06
-6.79145e-06
-1.51156e-06
2.51081e-06
-7.26054e-06
2.1684e-06
-1.51178e-06
-4.03841e-06
2.18715e-06
-1.46948e-06
-4.53541e-06
2.23956e-06
-1.44181e-06
-5.02051e-06
2.31935e-06
-1.41113e-06
-5.4958e-06
2.42377e-06
-1.40604e-06
-5.97397e-06
-1.56147e-06
2.54961e-06
-6.41351e-06
2.12309e-06
-1.46383e-06
-3.19961e-06
2.11757e-06
-1.46191e-06
-3.68624e-06
2.1445e-06
-1.4606e-06
-4.15547e-06
2.21335e-06
-1.45846e-06
-4.61225e-06
2.31021e-06
-1.45271e-06
-5.07172e-06
-1.59694e-06
2.42483e-06
-5.48862e-06
-1.67191e-06
-1.52975e-06
-5.39773e-06
-2.0224e-06
-1.43497e-06
-5.89874e-06
-2.36006e-06
-1.34615e-06
-6.39778e-06
-2.65943e-06
-1.33087e-06
-6.87321e-06
-2.89429e-06
-1.5454e-06
-7.29349e-06
-2.27642e-06
-7.60685e-06
-1.61134e-06
-1.17343e-06
-4.80594e-06
-1.93322e-06
-1.11655e-06
-5.31016e-06
-2.23514e-06
-1.04351e-06
-5.80116e-06
-2.48963e-06
-1.05816e-06
-6.26231e-06
-2.69045e-06
-1.3062e-06
-6.67256e-06
-2.0145e-06
-6.99968e-06
-1.52592e-06
-8.28076e-07
-4.09036e-06
-1.80977e-06
-8.24332e-07
-4.59614e-06
-2.05073e-06
-7.83327e-07
-5.07741e-06
-2.22996e-06
-8.34153e-07
-5.53935e-06
-2.36373e-06
-1.09235e-06
-5.95817e-06
-1.73417e-06
-6.31089e-06
-1.44472e-06
-3.24885e-06
-1.70582e-06
-3.75189e-06
-1.89543e-06
-4.22965e-06
-2.01624e-06
-4.69395e-06
-2.10094e-06
-5.11255e-06
-5.52575e-06
-3.83585e-07
-1.85e-06
-3.19335e-06
3.31077e-08
-1.87704e-06
-3.68032e-06
4.64695e-07
-1.88356e-06
-4.15072e-06
9.51289e-07
-1.92698e-06
-4.60308e-06
1.50746e-06
-1.96968e-06
-5.04659e-06
-2.17593e-06
2.15039e-06
-5.45861e-06
-4.70973e-07
-2.15689e-06
-4.01973e-06
-1.4837e-07
-2.19569e-06
-4.50352e-06
2.09376e-07
-2.22895e-06
-4.97159e-06
6.27051e-07
-2.32038e-06
-5.43143e-06
1.09652e-06
-2.40151e-06
-5.84488e-06
-2.70662e-06
1.68393e-06
-6.25863e-06
-5.81814e-07
-2.41227e-06
-4.73319e-06
-3.37644e-07
-2.44899e-06
-5.22088e-06
-5.91624e-08
-2.51097e-06
-5.68746e-06
2.64513e-07
-2.63655e-06
-6.15194e-06
6.22303e-07
-2.74133e-06
-6.55383e-06
-3.12998e-06
1.08497e-06
-6.97942e-06
-7.11277e-07
-2.61203e-06
-5.31501e-06
-5.42898e-07
-2.64652e-06
-5.80775e-06
-3.56095e-07
-2.72076e-06
-6.27653e-06
-1.45341e-07
-2.86044e-06
-6.7431e-06
7.481e-08
-2.96811e-06
-7.13992e-06
-3.42356e-06
3.78518e-07
-7.58916e-06
-8.43213e-07
-2.75593e-06
-5.75793e-06
-7.62163e-07
-2.77675e-06
-6.25855e-06
-6.85584e-07
-2.84163e-06
-6.73134e-06
-6.1333e-07
-2.96397e-06
-7.19309e-06
-5.52175e-07
-3.05861e-06
-7.59012e-06
-3.54995e-06
-4.40749e-07
-8.06847e-06
-9.75521e-07
-2.81813e-06
-6.06737e-06
-9.96833e-07
-2.81347e-06
-6.57316e-06
-1.0395e-06
-2.85305e-06
-7.05105e-06
-1.11699e-06
-2.93076e-06
-7.50773e-06
-1.21848e-06
-3.00025e-06
-7.92245e-06
-3.49745e-06
-1.28198e-06
-8.4241e-06
-1.12031e-06
-2.77694e-06
-6.23101e-06
-1.24708e-06
-2.73562e-06
-6.73867e-06
-1.40739e-06
-2.72925e-06
-7.22391e-06
-1.62354e-06
-2.73725e-06
-7.67833e-06
-1.84104e-06
-2.80001e-06
-8.11674e-06
-3.31523e-06
-1.98522e-06
-8.63023e-06
-1.26009e-06
-2.61867e-06
-6.24762e-06
-1.48522e-06
-2.53778e-06
-6.75678e-06
-1.74626e-06
-2.47954e-06
-7.24409e-06
-2.05567e-06
-2.42811e-06
-7.70637e-06
-2.33846e-06
-2.49997e-06
-8.15962e-06
-3.05157e-06
-2.51669e-06
-8.652e-06
-1.38103e-06
-2.35155e-06
-6.11157e-06
-1.6827e-06
-2.23973e-06
-6.62032e-06
-2.00842e-06
-2.1429e-06
-7.11307e-06
-2.33927e-06
-2.07607e-06
-7.59825e-06
-2.61982e-06
-2.16911e-06
-8.05897e-06
-2.74822e-06
-2.80537e-06
-8.49594e-06
-1.46704e-06
-2.00887e-06
-5.82174e-06
-1.80415e-06
-1.89161e-06
-6.32876e-06
-2.14014e-06
-1.78577e-06
-6.82866e-06
-2.44366e-06
-1.73704e-06
-7.33034e-06
-2.69225e-06
-1.85307e-06
-7.78614e-06
-2.47679e-06
-2.86485e-06
-8.14972e-06
-1.48417e-06
-1.63827e-06
-5.3825e-06
-1.81506e-06
-1.54023e-06
-5.88874e-06
-2.12595e-06
-1.44722e-06
-6.39486e-06
-2.39975e-06
-1.41786e-06
-6.89092e-06
-2.60487e-06
-1.58333e-06
-7.34047e-06
-2.22619e-06
-2.75395e-06
-7.69971e-06
-1.41705e-06
-1.27273e-06
-4.79578e-06
-1.71867e-06
-1.21217e-06
-5.30423e-06
-1.99626e-06
-1.13624e-06
-5.80478e-06
-2.22681e-06
-1.13547e-06
-6.28801e-06
-2.39177e-06
-1.33807e-06
-6.7324e-06
-1.97288e-06
-2.51149e-06
-7.10438e-06
-1.33169e-06
-9.21888e-07
-4.08414e-06
-1.59876e-06
-9.13038e-07
-4.59289e-06
-1.82002e-06
-8.72167e-07
-5.08463e-06
-1.9777e-06
-9.10221e-07
-5.56774e-06
-2.07137e-06
-1.14115e-06
-6.01719e-06
-1.73276e-06
-2.15877e-06
-6.40626e-06
-1.25342e-06
-3.2446e-06
-1.5039e-06
-3.74722e-06
-1.67919e-06
-4.23539e-06
-1.78549e-06
-4.7138e-06
-1.83357e-06
-5.16179e-06
-1.87771e-06
-5.60456e-06
-3.02322e-07
-1.085e-05
1.04394e-05
-1.61631e-05
2.13022e-06
-2.04431e-05
1.92971e-05
-1.1312e-05
5.08678e-06
-3.40715e-05
3.18194e-05
-1.63606e-06
8.38864e-06
-5.18741e-05
4.81994e-05
1.28497e-05
-7.35175e-05
6.90939e-05
2.62142e-05
-2.01215e-07
-1.1477e-05
-1.59888e-05
2.17057e-06
-2.1978e-05
-1.08843e-05
4.80063e-06
-3.60423e-05
-6.57766e-07
7.01263e-06
-5.43353e-05
1.42533e-05
-7.52919e-05
2.79378e-05
-4.06137e-07
-1.21384e-05
-1.56097e-05
2.00226e-06
-2.35247e-05
-1.05072e-05
4.77261e-06
-3.77447e-05
8.56042e-07
6.90951e-06
-5.63573e-05
1.58163e-05
-7.6386e-05
2.88004e-05
-6.98305e-07
-1.28131e-05
-1.52675e-05
1.77253e-06
-2.48822e-05
-9.79358e-06
5.10055e-06
-3.96827e-05
2.4702e-06
8.22691e-06
-5.92156e-05
1.70084e-05
-7.97243e-05
2.83306e-05
-1.1415e-06
-1.33934e-05
-1.49528e-05
1.28033e-06
-2.58103e-05
-8.59918e-06
4.62552e-06
-4.13791e-05
5.14931e-06
7.60118e-06
-6.2104e-05
2.03671e-05
-8.31646e-05
3.14058e-05
-1.65117e-06
-1.38248e-05
-1.47115e-05
7.35261e-07
-2.62863e-05
-7.18188e-06
3.54186e-06
-4.24351e-05
7.55559e-06
4.86966e-06
-6.34253e-05
2.22999e-05
-8.38923e-05
3.27667e-05
-2.398e-06
-1.38274e-05
-1.42535e-05
-4.59402e-07
-2.60349e-05
-5.36562e-06
1.44874e-06
-4.26529e-05
9.70581e-06
1.08096e-06
-6.31585e-05
2.49159e-05
-8.27664e-05
3.68073e-05
-2.95847e-06
-1.34623e-05
-1.38043e-05
-1.26247e-06
-2.5389e-05
-4.35228e-06
2.59083e-07
-4.2325e-05
9.67741e-06
-3.48931e-07
-6.24901e-05
2.43086e-05
-3.38435e-06
-8.22407e-05
3.55927e-05
-9.464e-05
4.28101e-05
-3.53279e-06
-1.26052e-05
-1.34655e-05
-2.33012e-06
-2.41382e-05
-3.77562e-06
-1.62992e-06
-4.08588e-05
9.67646e-06
-3.31687e-06
-6.04688e-05
2.48175e-05
-7.69757e-06
-8.02231e-05
3.68067e-05
-9.32608e-05
4.51642e-05
-3.97344e-06
-1.12721e-05
-1.36535e-05
-3.50768e-06
-2.21141e-05
-4.72429e-06
-4.07609e-06
-3.79475e-05
7.78288e-06
-7.29513e-06
-5.63395e-05
2.36716e-05
-1.33022e-05
-7.586e-05
3.79025e-05
-8.97199e-05
4.96539e-05
-3.93487e-06
-9.75748e-06
-1.42565e-05
-3.73753e-06
-1.99249e-05
-6.40962e-06
-4.79335e-06
-3.46497e-05
4.75579e-06
-8.31908e-06
-5.13586e-05
2.05896e-05
-1.45942e-05
-7.05482e-05
3.56083e-05
-2.24458e-05
-8.51835e-05
4.89954e-05
-9.0114e-05
6.0025e-05
-3.55035e-06
-8.20254e-06
-1.49464e-05
-3.29454e-06
-1.8036e-05
-8.36336e-06
-4.18057e-06
-3.17951e-05
1.33176e-06
-6.93017e-06
-4.68673e-05
1.7045e-05
-1.16897e-05
-6.56991e-05
3.25997e-05
-1.70205e-05
-8.2029e-05
4.61875e-05
-2.17011e-05
-8.94191e-05
6.02055e-05
-2.23861e-05
7.12333e-05
-2.03037e-05
-2.19025e-05
-1.98479e-05
-2.51726e-06
-7.0267e-06
-1.56683e-05
-1.88976e-06
-1.69054e-05
-1.03415e-05
-2.03368e-06
-3.01482e-05
-2.2392e-06
-3.23955e-06
-4.43418e-05
1.22943e-05
-5.05914e-06
-6.33014e-05
2.71776e-05
-4.0248e-06
-8.30439e-05
3.99848e-05
-2.64952e-06
-2.37697e-05
5.40199e-05
1.79583e-06
-1.99112e-06
1.53405e-06
-2.36008e-05
-2.32695e-05
-2.29827e-05
-4.45171e-06
-2.10452e-05
1.80344e-05
-1.27781e-06
-6.38031e-06
-1.65354e-05
-2.72048e-07
-1.66092e-05
-1.21571e-05
6.35809e-07
-2.9938e-05
-4.54961e-06
1.87372e-06
-4.47847e-05
9.57559e-06
3.87585e-06
-6.54548e-05
2.39611e-05
1.53433e-06
-8.93251e-05
3.30698e-05
3.49379e-06
1.71967e-06
3.1516e-06
3.45626e-06
-2.56529e-05
1.01681e-05
1.37407e-05
-3.09163e-05
1.48167e-05
2.32029e-05
-6.25018e-06
1.37968e-08
-6.25434e-06
-1.71866e-05
1.21991e-06
-1.69989e-05
-1.35613e-05
2.43751e-06
-3.03332e-05
-5.75155e-06
4.23563e-06
-4.59987e-05
8.77959e-06
6.41961e-06
-6.78147e-05
2.22986e-05
1.80045e-06
-9.28942e-05
3.19666e-05
1.69845e-06
2.47784e-06
2.50855e-06
2.71097e-05
2.17961e-06
9.72305e-06
-2.8058e-05
2.56358e-05
1.0016e-05
-2.51481e-05
-1.86325e-06
9.5745e-07
-6.46283e-06
-1.77856e-05
2.22285e-06
-1.76935e-05
-1.47479e-05
3.15362e-06
-3.05226e-05
-6.02621e-06
3.78188e-06
-4.62293e-05
1.00307e-05
3.53375e-06
-6.78504e-05
2.59758e-05
-4.59817e-08
-9.16634e-05
3.75234e-05
1.20193e-08
2.47562e-07
6.13498e-07
2.81643e-05
-8.41855e-07
-2.79773e-05
1.06825e-05
2.4371e-05
-2.77962e-05
1.16762e-05
1.63376e-06
1.47443e-06
-6.80367e-06
-1.79367e-05
2.7765e-06
-1.85137e-05
-1.53981e-05
3.89523e-06
-3.05294e-05
-5.25269e-06
4.96311e-06
-4.66076e-05
1.1558e-05
4.67587e-06
-6.82946e-05
2.70012e-05
-1.42765e-06
-9.01641e-05
3.6737e-05
1.97008e-06
-6.44865e-07
2.34318e-06
2.73407e-05
-3.05812e-06
-2.62384e-05
1.23339e-05
3.16464e-05
-1.58992e-05
-2.56456e-05
1.89593e-05
6.45136e-06
1.61251e-06
-7.28761e-06
-1.7939e-05
3.01106e-06
-1.92827e-05
-1.53865e-05
4.8786e-06
-3.11435e-05
-3.38271e-06
7.8072e-06
-4.90017e-05
1.34746e-05
1.13014e-05
-7.25047e-05
2.75418e-05
2.75031e-06
-9.52145e-05
3.54523e-05
5.1947e-06
2.50516e-06
4.52381e-06
2.62795e-05
3.54849e-06
-2.70674e-05
9.02337e-06
2.56939e-05
2.96451e-06
-2.55561e-05
9.47948e-06
-3.43091e-06
1.38879e-06
-7.61515e-06
-1.81592e-05
2.5431e-06
-1.96242e-05
-1.43669e-05
4.69657e-06
-3.22516e-05
-2.2996e-07
8.0834e-06
-5.21378e-05
1.71751e-05
1.13289e-05
-7.67199e-05
3.07394e-05
3.25584e-06
-9.96379e-05
3.7331e-05
3.76098e-06
2.61812e-06
3.36258e-06
2.82537e-05
3.95053e-06
-2.93368e-05
9.20186e-06
3.28363e-05
-2.89784e-05
8.87608e-06
-4.78821e-06
1.2865e-06
-7.82184e-06
-1.81224e-05
2.18616e-06
-1.95356e-05
-1.30829e-05
3.73953e-06
-3.26436e-05
2.31455e-06
5.03281e-06
-5.30095e-05
2.07143e-05
4.56441e-06
-7.72456e-05
3.56385e-05
2.68232e-07
-9.80771e-05
4.37362e-05
-1.99989e-07
3.23478e-07
2.1615e-07
2.9415e-05
-3.96028e-07
-2.91411e-05
1.07148e-05
2.59362e-05
-2.86999e-05
1.01367e-05
1.54995e-06
1.12716e-06
-7.76783e-06
-1.7852e-05
1.89027e-06
-1.92571e-05
-1.15087e-05
3.05189e-06
-3.27461e-05
4.23004e-06
2.75721e-06
-5.24957e-05
2.2447e-05
-3.95103e-07
-7.50815e-05
3.854e-05
-2.78437e-06
-9.4367e-05
4.82134e-05
-1.00975e-06
-1.90629e-06
-7.7905e-08
2.81128e-05
-4.28774e-06
-2.70179e-05
1.2715e-05
3.22857e-05
-1.51767e-05
-2.60284e-05
1.62869e-05
6.9694e-06
1.0862e-06
-7.43584e-06
-1.75235e-05
1.80319e-06
-1.87784e-05
-1.0491e-05
3.09592e-06
-3.27359e-05