/*--------------------------------*- C++ -*----------------------------------*\
| =========                 |                                                 |
| \\      /  F ield         | OpenFOAM: The Open Source CFD Toolbox           |
|  \\    /   O peration     | Version:  v2106                                 |
|   \\  /    A nd           | Website:  www.openfoam.com                      |
|    \\/     M anipulation  |                                                 |
\*---------------------------------------------------------------------------*/
FoamFile
{
    version     2.0;
    format      ascii;
    arch        "LSB;label=32;scalar=64";
    class       volScalarField;
    location    "0.000154";
    object      alphat;
}
// * * * * * * * * * * * * * * * * * * * * * * * * * * * * * * * * * * * * * //

dimensions      [1 -1 -1 0 0 0 0];

internalField   nonuniform List<scalar> 
18109
(
3.96925e-06
1.21429e-06
2.71761e-07
5.6224e-08
1.92687e-08
1.47692e-08
1.74901e-08
2.63569e-06
6.69048e-07
1.0211e-07
1.22551e-08
2.16737e-09
1.23261e-09
1.6827e-09
1.65844e-06
3.76734e-07
5.86194e-08
8.0174e-09
1.33074e-09
2.44712e-10
1.23583e-10
1.10555e-06
2.68539e-07
5.6751e-08
1.08674e-08
1.96643e-09
2.95071e-10
3.92555e-11
8.06658e-07
2.26555e-07
5.82612e-08
1.25473e-08
2.22582e-09
3.26022e-10
3.91187e-11
6.7224e-07
2.09367e-07
5.72319e-08
1.2361e-08
2.08059e-09
3.02543e-10
4.15925e-11
6.50202e-07
2.13286e-07
5.73586e-08
1.18224e-08
1.93439e-09
3.19478e-10
9.11386e-11
7.28543e-07
2.37194e-07
6.07277e-08
1.19069e-08
2.17309e-09
6.09757e-10
4.23845e-10
1.55174e-06
4.12326e-07
7.52337e-08
1.07894e-08
3.00343e-09
2.63579e-09
3.49237e-09
4.93705e-09
6.69782e-09
8.92031e-09
1.31102e-08
2.43786e-08
5.88523e-08
1.68009e-07
8.94722e-07
1.96711e-07
2.78567e-08
2.69995e-09
3.75392e-10
1.85791e-10
2.68335e-10
4.62294e-10
7.18166e-10
9.79625e-10
1.47038e-09
3.60163e-09
1.37767e-08
6.24643e-08
5.18659e-07
1.09814e-07
1.79466e-08
2.55368e-09
3.79554e-10
5.53806e-11
1.84071e-11
2.64439e-11
4.82803e-11
8.00367e-11
2.02526e-10
1.04916e-09
6.17419e-09
3.24355e-08
3.54972e-07
8.73549e-08
1.89915e-08
3.57228e-09
5.53969e-10
7.14386e-11
7.89024e-12
1.61556e-12
2.05669e-12
7.38153e-12
5.56248e-11
4.3749e-10
2.91571e-09
1.58977e-08
2.82444e-07
7.8468e-08
1.93446e-08
3.97629e-09
6.17797e-10
7.78464e-11
8.02246e-12
7.54093e-13
3.30855e-13
2.28346e-12
2.28241e-11
1.93758e-10
1.34036e-09
7.52866e-09
2.51285e-07
7.43385e-08
1.89572e-08
3.87525e-09
5.73514e-10
7.01637e-11
8.01392e-12
1.65101e-12
1.10105e-12
1.92738e-12
1.28012e-11
1.08395e-10
7.75907e-10
4.54144e-09
2.54468e-07
7.74057e-08
1.92256e-08
3.73581e-09
5.28706e-10
7.11401e-11
1.66211e-11
1.10878e-11
9.91654e-12
9.77688e-12
1.76784e-11
9.3816e-11
6.51881e-10
4.00278e-09
2.94037e-07
8.73218e-08
2.04739e-08
3.77041e-09
5.56549e-10
1.28499e-10
8.35365e-11
7.8951e-11
7.45761e-11
7.20438e-11
8.2191e-11
1.76209e-10
8.51331e-10
5.03724e-09
3.60435e-07
1.01269e-07
2.27227e-08
4.2031e-09
8.87095e-10
4.82514e-10
4.66541e-10
4.68338e-10
4.53849e-10
4.5072e-10
4.88597e-10
6.82022e-10
1.81231e-09
8.47385e-09
4.48372e-07
1.21884e-07
2.82733e-08
6.35908e-09
2.58055e-09
2.19594e-09
2.27388e-09
2.31774e-09
2.2968e-09
2.35318e-09
2.57852e-09
3.16061e-09
5.73541e-09
1.94307e-08
5.82191e-07
1.71082e-07
4.69145e-08
1.58112e-08
9.75885e-09
9.22573e-09
9.48448e-09
9.72366e-09
9.86181e-09
1.0433e-08
1.16897e-08
1.37516e-08
2.0714e-08
5.50342e-08
9.60873e-07
3.64372e-07
1.30779e-07
5.49966e-08
3.69115e-08
3.43401e-08
3.43464e-08
3.5167e-08
3.64179e-08
3.97025e-08
4.56934e-08
5.3393e-08
7.27012e-08
1.60437e-07
2.05971e-06
9.95425e-07
4.34743e-07
2.01324e-07
1.27876e-07
1.12642e-07
1.09161e-07
1.10894e-07
1.16823e-07
1.3082e-07
1.55401e-07
1.84765e-07
2.38613e-07
4.48422e-07
4.46575e-06
2.58956e-06
1.3364e-06
6.75708e-07
4.02133e-07
3.27277e-07
3.07383e-07
3.06959e-07
3.2566e-07
3.71669e-07
4.57116e-07
5.64085e-07
7.16938e-07
1.13032e-06
5.15008e-06
8.79793e-06
1.62975e-05
2.73376e-05
3.99988e-05
5.11912e-05
1.97559e-06
3.92831e-06
8.47627e-06
1.62899e-05
2.68527e-05
3.7755e-05
7.19593e-07
2.01963e-06
5.57076e-06
1.21072e-05
2.09651e-05
3.00517e-05
2.46247e-07
1.06286e-06
3.44365e-06
8.1168e-06
1.4867e-05
2.26939e-05
9.17568e-08
5.41591e-07
2.01013e-06
5.21165e-06
1.03111e-05
1.69114e-05
4.13169e-08
2.84263e-07
1.19896e-06
3.43994e-06
7.38631e-06
1.29806e-05
2.93994e-08
1.95525e-07
8.4547e-07
2.52367e-06
5.68796e-06
1.04974e-05
3.06374e-08
1.8283e-07
7.44555e-07
2.18099e-06
4.95002e-06
9.2795e-06
3.63813e-08
1.96073e-07
7.44012e-07
2.10163e-06
4.7313e-06
9.12903e-06
4.54073e-08
2.25938e-07
8.07472e-07
2.22922e-06
5.16912e-06
1.0984e-05
5.85967e-08
2.73615e-07
9.60079e-07
2.73634e-06
6.78534e-06
1.51625e-05
8.41287e-08
3.75785e-07
1.32716e-06
3.885e-06
9.61987e-06
2.02861e-05
1.4631e-07
6.24031e-07
2.11427e-06
5.76088e-06
1.28953e-05
2.40428e-05
3.14126e-07
1.14663e-06
3.32091e-06
7.77157e-06
1.51289e-05
2.49684e-05
7.39201e-07
2.04024e-06
4.76231e-06
9.40985e-06
1.61074e-05
2.42534e-05
3.71638e-07
1.24642e-06
3.44479e-06
7.66909e-06
1.40435e-05
2.16658e-05
2.66608e-07
8.87829e-07
2.51479e-06
5.84292e-06
1.12323e-05
1.81566e-05
1.40813e-07
5.01643e-07
1.53152e-06
3.85229e-06
8.03314e-06
1.42535e-05
7.03745e-08
2.70866e-07
8.82972e-07
2.40951e-06
5.58213e-06
1.08364e-05
3.46367e-08
1.4493e-07
5.17648e-07
1.56745e-06
3.993e-06
8.24939e-06
2.21144e-08
1.00148e-07
3.84752e-07
1.23129e-06
3.20077e-06
6.77003e-06
2.06678e-08
9.76279e-08
3.76478e-07
1.17398e-06
2.96275e-06
6.14627e-06
2.60468e-08
1.20162e-07
4.41031e-07
1.30242e-06
3.17805e-06
6.69703e-06
3.98229e-08
1.71064e-07
5.94521e-07
1.71521e-06
4.26961e-06
9.53378e-06
7.70374e-08
3.02372e-07
9.9937e-07
2.82672e-06
6.97022e-06
1.50892e-05
1.85092e-07
6.4797e-07
1.95066e-06
5.05747e-06
1.12984e-05
2.17888e-05
4.70942e-07
1.44157e-06
3.76861e-06
8.42416e-06
1.62497e-05
2.71503e-05
1.18054e-06
2.94755e-06
6.38201e-06
1.20305e-05
2.00239e-05
2.95676e-05
2.64667e-06
5.25651e-06
9.40832e-06
1.51776e-05
2.23055e-05
3.00866e-05
2.21903e-06
4.67411e-06
8.73786e-06
1.44601e-05
2.13781e-05
2.86136e-05
1.91332e-06
4.0295e-06
7.56712e-06
1.26615e-05
1.89863e-05
2.57546e-05
1.4912e-06
3.19986e-06
6.1305e-06
1.04713e-05
1.60819e-05
2.24455e-05
1.15522e-06
2.53209e-06
4.9126e-06
8.56046e-06
1.34692e-05
1.92976e-05
9.12386e-07
2.04578e-06
4.08055e-06
7.27346e-06
1.16895e-05
1.71416e-05
7.99495e-07
1.83885e-06
3.72063e-06
6.69483e-06
1.09126e-05
1.68367e-05
7.57905e-07
1.76387e-06
3.60484e-06
6.66643e-06
1.18111e-05
2.12159e-05
7.70249e-07
1.81616e-06
3.88234e-06
7.97801e-06
1.6378e-05
3.23397e-05
8.47089e-07
2.13279e-06
5.14206e-06
1.18365e-05
2.50479e-05
4.71901e-05
1.14408e-06
3.15309e-06
8.02337e-06
1.80882e-05
3.54091e-05
5.93779e-05
1.95976e-06
5.14718e-06
1.20097e-05
2.42349e-05
4.24456e-05
6.42279e-05
3.45866e-06
7.82678e-06
1.58395e-05
2.81591e-05
4.44526e-05
6.16349e-05
5.69868e-06
1.08531e-05
1.89737e-05
3.01189e-05
4.33889e-05
5.63362e-05
8.47254e-06
1.38477e-05
2.14286e-05
3.08587e-05
4.13888e-05
5.13976e-05
3.5719e-06
9.57157e-06
2.16721e-05
4.07591e-05
6.43275e-05
8.70224e-05
4.99915e-06
1.18422e-05
2.41541e-05
4.16429e-05
6.15457e-05
7.91892e-05
6.83247e-06
1.38551e-05
2.51685e-05
4.00605e-05
5.61725e-05
7.00138e-05
8.74658e-06
1.52745e-05
2.52075e-05
3.75286e-05
5.05228e-05
6.15523e-05
5.17245e-06
9.27631e-06
1.65775e-05
2.60086e-05
3.6131e-05
4.52728e-05
3.25072e-06
7.18941e-06
1.37767e-05
2.21775e-05
3.0807e-05
3.87105e-05
2.31172e-06
5.51125e-06
1.0655e-05
1.72864e-05
2.4668e-05
3.20866e-05
1.74194e-06
4.09512e-06
7.83963e-06
1.31393e-05
1.96399e-05
2.68068e-05
1.32179e-06
3.08202e-06
6.05665e-06
1.04558e-05
1.63118e-05
2.32425e-05
1.00559e-06
2.39365e-06
4.91024e-06
8.91699e-06
1.46197e-05
2.24793e-05
8.08632e-07
2.03194e-06
4.42647e-06
8.53036e-06
1.52425e-05
2.72998e-05
7.30074e-07
1.95688e-06
4.52764e-06
9.51791e-06
1.94036e-05
3.85112e-05
7.64782e-07
2.14633e-06
5.36154e-06
1.25074e-05
2.71475e-05
5.26228e-05
8.98524e-07
2.6457e-06
7.1433e-06
1.72421e-05
3.58837e-05
6.29246e-05
1.20825e-06
3.61723e-06
9.59649e-06
2.16028e-05
4.09585e-05
6.55928e-05
1.78486e-06
4.89843e-06
1.17284e-05
2.37544e-05
4.1187e-05
6.10617e-05
2.72659e-06
6.34557e-06
1.32272e-05
2.40397e-05
3.84692e-05
5.35266e-05
3.95425e-06
7.6694e-06
1.39781e-05
2.31359e-05
3.46862e-05
4.61766e-05
4.63806e-05
5.98665e-05
7.26903e-05
8.33413e-05
8.17928e-05
3.84013e-05
5.02082e-05
6.21473e-05
7.47953e-05
8.23503e-05
3.13019e-05
4.16727e-05
5.26493e-05
6.84779e-05
8.62278e-05
2.52426e-05
3.45208e-05
4.67055e-05
6.99792e-05
9.77477e-05
2.05101e-05
2.92632e-05
4.52866e-05
8.05627e-05
0.000115157
1.70205e-05
2.66653e-05
5.03182e-05
9.60081e-05
0.000131206
1.53554e-05
2.96656e-05
6.44056e-05
0.000113357
0.000142687
1.68729e-05
3.95859e-05
8.25802e-05
0.000126578
0.000150142
0.000155997
2.25236e-05
5.3748e-05
9.74528e-05
0.000129974
0.000147409
0.000157343
3.02398e-05
6.46078e-05
0.000100215
0.000119106
0.000132445
0.000150992
3.63334e-05
6.84615e-05
9.40292e-05
0.000104383
0.000113272
0.000138774
0.000170541
3.8244e-05
6.57934e-05
8.5847e-05
9.35819e-05
9.70125e-05
0.000119455
0.000194315
0.000193578
3.62882e-05
5.97268e-05
7.92234e-05
9.01467e-05
9.0534e-05
9.05125e-05
0.000191951
0.000492583
3.29563e-05
5.3204e-05
7.3124e-05
8.9969e-05
9.34697e-05
7.54753e-05
8.38286e-05
0.000473258
2.89418e-05
4.70023e-05
6.73535e-05
8.65214e-05
9.14767e-05
7.70462e-05
7.87525e-05
0.000389638
2.48786e-05
4.11138e-05
5.9572e-05
7.6826e-05
8.41423e-05
7.98021e-05
8.23381e-05
0.000352811
2.11686e-05
3.50316e-05
5.08276e-05
6.70216e-05
7.86242e-05
8.58623e-05
9.0577e-05
0.000195018
1.73332e-05
2.91211e-05
4.30871e-05
6.12444e-05
8.06611e-05
9.80268e-05
9.97824e-05
0.000272403
1.40484e-05
2.41769e-05
3.79894e-05
6.1742e-05
9.0833e-05
0.000114776
0.000114036
0.000307666
1.17017e-05
2.08994e-05
3.70394e-05
6.79478e-05
0.000105354
0.000131721
0.00012765
0.000265136
1.08352e-05
2.21554e-05
4.51633e-05
8.1921e-05
0.000121121
0.000146823
0.000141722
0.000114289
1.30124e-05
3.07459e-05
6.19182e-05
9.96434e-05
0.00013353
0.00015898
0.000156629
0.000120381
1.94241e-05
4.47217e-05
7.95782e-05
0.000110176
0.000135257
0.000161011
2.84884e-05
5.7715e-05
8.80165e-05
0.000105979
0.000122422
0.000153729
3.63001e-05
6.40976e-05
8.57037e-05
9.39086e-05
0.000103134
0.000140379
3.98998e-05
6.38478e-05
8.00884e-05
8.56739e-05
8.65707e-05
0.00011821
3.96021e-05
6.00631e-05
7.60025e-05
8.47427e-05
8.07236e-05
9.42249e-05
3.77024e-05
5.60585e-05
7.30125e-05
8.7157e-05
8.45623e-05
3.51907e-05
5.17391e-05
6.90534e-05
8.54314e-05
8.98706e-05
3.18212e-05
4.68633e-05
6.27019e-05
8.14651e-05
9.61472e-05
2.82743e-05
4.17289e-05
5.78154e-05
8.32933e-05
0.0001079
2.49399e-05
3.80047e-05
5.98387e-05
9.53282e-05
0.000129047
2.32029e-05
3.96819e-05
7.32951e-05
0.000117559
0.000154256
2.6181e-05
5.317e-05
9.76072e-05
0.000141046
0.000171623
3.83571e-05
7.93795e-05
0.000125156
0.000155965
0.000177716
5.77689e-05
0.000104606
0.000139408
0.000155311
0.000174997
7.60061e-05
0.000116167
0.000133642
0.000138978
0.000159901
8.50433e-05
0.000111708
0.000115826
0.000115994
0.000138477
8.31487e-05
0.000101138
0.000100248
9.80623e-05
0.0001157
7.49235e-05
8.93693e-05
9.10689e-05
8.96279e-05
9.60221e-05
6.57084e-05
7.88361e-05
8.53657e-05
8.83594e-05
8.97136e-05
5.78003e-05
6.9702e-05
7.8538e-05
8.79783e-05
9.26029e-05
5.10717e-05
6.09682e-05
7.1103e-05
8.73483e-05
9.97803e-05
4.44044e-05
5.2676e-05
6.51504e-05
9.02312e-05
0.000111241
3.82858e-05
4.62264e-05
6.51411e-05
0.000100956
0.000127771
3.3104e-05
4.47564e-05
7.67754e-05
0.000123596
0.000150037
3.07693e-05
5.22757e-05
0.000101937
0.000151755
0.000169637
3.55421e-05
7.38496e-05
0.000131787
0.000169901
0.000177453
5.0154e-05
0.000103443
0.000154097
0.000173374
0.000177663
6.99286e-05
0.000125071
0.000158768
0.000165699
0.000174464
8.6415e-05
0.000131092
0.000145967
0.000147039
0.000160555
9.27067e-05
0.000123018
0.000125397
0.000124021
0.00014124
8.87651e-05
0.000110425
0.000108431
0.000105418
0.000119747
7.85095e-05
9.61398e-05
9.7474e-05
9.5066e-05
9.75382e-05
6.60632e-05
8.21305e-05
9.03965e-05
9.21665e-05
8.41832e-05
5.49801e-05
7.01421e-05
8.21514e-05
9.01372e-05
8.17562e-05
3.98256e-07
9.07798e-08
1.51676e-08
1.96808e-09
4.32368e-10
3.83016e-10
5.23297e-10
7.26853e-10
9.25823e-10
1.08709e-09
1.22172e-09
1.76552e-09
4.65729e-09
1.95012e-08
1.7487e-07
3.45312e-08
5.1165e-09
6.26677e-10
8.16731e-11
2.85788e-11
3.65347e-11
5.98218e-11
9.05612e-11
1.1265e-10
1.27229e-10
2.92297e-10
1.63915e-09
1.07082e-08
9.76228e-08
2.22093e-08
4.39761e-09
7.78675e-10
1.15594e-10
1.47789e-11
3.14377e-12
3.40389e-12
5.45148e-12
8.25379e-12
1.77809e-11
1.19151e-10
9.47523e-10
6.39864e-09
8.30018e-08
2.24667e-08
5.30164e-09
1.06781e-09
1.71267e-10
2.02348e-11
1.92336e-12
2.99701e-13
2.81473e-13
6.44319e-13
5.22982e-12
5.48889e-11
4.75451e-10
3.29734e-09
7.78927e-08
2.24656e-08
5.68679e-09
1.20159e-09
1.95881e-10
2.2558e-11
2.02378e-12
1.60246e-13
3.5548e-14
1.74723e-13
2.27721e-12
2.56331e-11
2.2808e-10
1.61429e-09
7.6853e-08
2.28997e-08
5.80736e-09
1.18685e-09
1.8388e-10
2.01171e-11
1.86339e-12
2.67056e-13
1.37436e-13
1.76928e-13
1.26883e-12
1.40297e-11
1.2732e-10
9.16942e-10
8.67286e-08
2.557e-08
6.15994e-09
1.18544e-09
1.73613e-10
1.91672e-11
3.07355e-12
1.6737e-12
1.41404e-12
1.22404e-12
1.77471e-12
1.03817e-11
8.89998e-11
6.52302e-10
1.07291e-07
2.9924e-08
6.6994e-09
1.20185e-09
1.70017e-10
2.73378e-11
1.46201e-11
1.32017e-11
1.20951e-11
1.06702e-11
1.01904e-11
1.74149e-11
8.8329e-11
6.28054e-10
1.34332e-07
3.51265e-08
7.44794e-09
1.30243e-09
2.21926e-10
9.29596e-11
8.92801e-11
8.81086e-11
8.37084e-11
7.70947e-11
7.36819e-11
8.26296e-11
1.70033e-10
8.63841e-10
1.69071e-07
4.21307e-08
8.79828e-09
1.6976e-09
5.35759e-10
4.46965e-10
4.8148e-10
4.88905e-10
4.79582e-10
4.61433e-10
4.59242e-10
4.78838e-10
6.21772e-10
1.78298e-09
2.14039e-07
5.29587e-08
1.18558e-08
3.22753e-09
1.98918e-09
2.03269e-09
2.21049e-09
2.28753e-09
2.3182e-09
2.33144e-09
2.42665e-09
2.53178e-09
2.86313e-09
5.69218e-09
3.1958e-07
9.0268e-08
2.45589e-08
9.71379e-09
7.82071e-09
8.13719e-09
8.72902e-09
9.15968e-09
9.58513e-09
1.00614e-08
1.09538e-08
1.17236e-08
1.28095e-08
2.10558e-08
6.49077e-07
2.30848e-07
7.61847e-08
3.41929e-08
2.78759e-08
2.84519e-08
2.99753e-08
3.17657e-08
3.42905e-08
3.74647e-08
4.26887e-08
4.76222e-08
5.26948e-08
7.5772e-08
1.56162e-06
6.76713e-07
2.59335e-07
1.16821e-07
8.72174e-08
8.6985e-08
9.03228e-08
9.61536e-08
1.06625e-07
1.20585e-07
1.43822e-07
1.68861e-07
1.95697e-07
2.56892e-07
3.48786e-08
6.78566e-09
1.12271e-09
1.86813e-10
7.14467e-11
7.36923e-11
1.02447e-10
1.29963e-10
1.52142e-10
1.56576e-10
1.33436e-10
1.11742e-10
1.99848e-10
1.12988e-09
1.42971e-08
2.89159e-09
5.16324e-10
8.49543e-11
1.43647e-11
5.331e-12
6.96804e-12
1.06188e-11
1.46287e-11
1.68196e-11
1.43909e-11
1.77522e-11
1.05938e-10
9.06255e-10
1.29127e-08
3.3e-09
7.33344e-10
1.42445e-10
2.34127e-11
3.13068e-12
6.10038e-13
6.35611e-13
9.41636e-13
1.2335e-12
1.47774e-12
7.74597e-12
7.84798e-11
6.81044e-10
1.55497e-08
4.22854e-09
1.01129e-09
2.08171e-10
3.50443e-11
4.47119e-12
4.0207e-13
5.74499e-14
5.40925e-14
7.7874e-14
3.38117e-13
4.37263e-12
4.98023e-11
4.43966e-10
1.71016e-08
4.83509e-09
1.20039e-09
2.49919e-10
4.15395e-11
5.18596e-12
4.37435e-13
2.91729e-14
4.81037e-15
1.13448e-14
1.66072e-13
2.55008e-12
2.99302e-11
2.69735e-10
1.89091e-08
5.3391e-09
1.28438e-09
2.54452e-10
3.99076e-11
4.72086e-12
3.8987e-13
3.42432e-14
1.09447e-14
1.10907e-14
9.90671e-14
1.54028e-12
1.85201e-11
1.692e-10
2.25331e-08
6.14925e-09
1.39818e-09
2.60288e-10
3.83536e-11
4.37224e-12
4.69767e-13
1.59381e-13
1.20231e-13
9.32077e-14
1.27502e-13
1.0831e-12
1.25907e-11
1.15998e-10
2.81116e-08
7.24108e-09
1.53413e-09
2.65344e-10
3.69441e-11
4.93734e-12
1.68407e-12
1.35861e-12
1.17084e-12
9.41574e-13
7.68048e-13
1.33327e-12
9.65294e-12
8.79293e-11
3.48419e-08
8.4775e-09
1.69431e-09
2.79202e-10
4.19494e-11
1.25915e-11
1.09387e-11
1.03496e-11
9.31446e-12
7.87163e-12
6.50569e-12
6.25127e-12
1.28575e-11
8.66975e-11
4.38153e-08
1.01101e-08
1.93956e-09
3.27879e-10
8.04301e-11
6.07498e-11
6.69321e-11
6.59926e-11
6.15419e-11
5.45974e-11
4.7622e-11
4.31124e-11
4.51338e-11
1.24021e-10
5.3245e-08
1.17636e-08
2.27387e-09
4.98309e-10
2.79799e-10
3.05166e-10
3.50297e-10
3.55327e-10
3.43381e-10
3.20032e-10
2.94808e-10
2.71196e-10
2.50807e-10
3.6708e-10
6.77661e-08
1.53029e-08
3.371e-09
1.25685e-09
1.17017e-09
1.36671e-09
1.57171e-09
1.63421e-09
1.63579e-09
1.60165e-09
1.55551e-09
1.47928e-09
1.36525e-09
1.60908e-09
1.03695e-07
2.75107e-08
7.64059e-09
4.24374e-09
4.58148e-09
5.35443e-09
6.1066e-09
6.49192e-09
6.73126e-09
6.921e-09
7.08171e-09
7.03877e-09
6.70519e-09
7.19202e-09
2.272e-07
7.28955e-08
2.35105e-08
1.43337e-08
1.58065e-08
1.83744e-08
2.07341e-08
2.2458e-08
2.40576e-08
2.58632e-08
2.78412e-08
2.91654e-08
2.94377e-08
3.02806e-08
2.74104e-09
5.44168e-10
1.15678e-10
3.47733e-11
1.97889e-11
1.90076e-11
2.41319e-11
2.87786e-11
3.17776e-11
3.06995e-11
2.27795e-11
1.4399e-11
1.32602e-11
7.42702e-11
1.52299e-09
3.37925e-10
6.77609e-11
1.24921e-11
2.48048e-12
1.17632e-12
1.61205e-12
2.34787e-12
3.06391e-12
3.39943e-12
2.69027e-12
1.93476e-12
7.12843e-12
7.04679e-11
2.13392e-09
5.4019e-10
1.21002e-10
2.38444e-11
4.03592e-12
5.89551e-13
1.35355e-13
1.43151e-13
2.0786e-13
2.59811e-13
2.36532e-13
5.32205e-13
5.90079e-12
6.20033e-11
2.913e-09
7.73184e-10
1.82657e-10
3.72681e-11
6.33251e-12
8.57008e-13
8.97417e-14
1.32388e-14
1.28914e-14
1.69055e-14
2.70878e-14
2.91286e-13
4.22206e-12
4.6422e-11
3.55765e-09
9.69043e-10
2.31346e-10
4.68336e-11
7.76781e-12
1.01513e-12
9.87046e-14
6.71137e-15
1.06111e-15
1.3029e-15
9.69738e-15
1.90433e-13
2.90745e-12
3.28197e-11
4.18952e-09
1.11492e-09
2.55217e-10
4.90513e-11
7.68633e-12
9.51423e-13
8.88457e-14
6.49868e-15
1.16907e-15
8.39267e-16
5.86328e-15
1.23433e-13
1.96666e-12
2.29689e-11
5.15202e-09
1.3136e-09
2.83488e-10
5.09896e-11
7.45422e-12
8.7007e-13
8.80974e-14
1.77592e-14
1.11308e-14
7.97642e-15
8.91451e-15
9.03132e-14
1.4085e-12
1.66797e-11
6.4362e-09
1.55131e-09
3.12849e-10
5.23498e-11
7.1823e-12
8.88868e-13
2.08385e-13
1.41406e-13
1.15457e-13
8.76162e-14
6.41775e-14
1.06136e-13
1.02962e-12
1.2093e-11
7.89911e-09
1.80551e-09
3.43326e-10
5.42801e-11
7.59659e-12
1.73747e-12
1.2637e-12
1.16119e-12
1.0053e-12
8.04516e-13
6.07357e-13
5.28409e-13
1.13073e-12
1.00697e-11
9.7543e-09
2.11587e-09
3.83086e-10
6.00769e-11
1.21876e-11
7.86964e-12
8.3854e-12
8.1669e-12
7.35583e-12
6.18323e-12
4.95708e-12
4.14961e-12
3.82456e-12
1.09969e-11
1.14286e-08
2.36847e-09
4.22776e-10
7.97431e-11
3.87832e-11
4.25067e-11
4.87482e-11
4.8962e-11
4.58097e-11
4.03888e-11
3.43292e-11
2.94725e-11
2.43595e-11
3.04362e-11
1.33759e-08
2.72346e-09
5.30595e-10
1.75663e-10
1.70262e-10
2.10178e-10
2.44967e-10
2.52665e-10
2.45205e-10
2.26321e-10
2.02894e-10
1.79832e-10
1.50671e-10
1.51914e-10
1.67802e-08
3.76597e-09
9.61949e-10
5.95544e-10
7.27619e-10
9.13904e-10
1.06991e-09
1.13157e-09
1.1385e-09
1.09906e-09
1.03484e-09
9.51925e-10
8.27115e-10
7.77971e-10
2.89061e-08
7.96633e-09
2.62892e-09
2.17032e-09
2.79002e-09
3.5018e-09
4.09686e-09
4.43071e-09
4.60877e-09
4.63896e-09
4.56846e-09
4.38364e-09
3.99955e-09
3.68876e-09
3.22017e-10
6.85364e-11
1.71272e-11
6.27467e-12
4.22677e-12
4.4581e-12
5.62339e-12
6.75815e-12
7.49036e-12
7.14117e-12
5.19897e-12
2.99162e-12
1.70628e-12
6.67432e-12
2.50727e-10
5.75643e-11
1.19661e-11
2.30823e-12
5.07091e-13
2.84436e-13
3.89146e-13
5.59265e-13
7.29244e-13
7.99865e-13
6.38519e-13
3.91126e-13
6.64334e-13
6.5036e-12
4.11971e-10
1.03011e-10
2.30224e-11
4.5528e-12
7.80243e-13
1.19539e-13
3.2429e-14
3.59772e-14
5.22192e-14
6.43392e-14
5.6888e-14
6.22913e-14
5.43992e-13
6.35705e-12
5.97788e-10
1.56173e-10
3.63189e-11
7.31914e-12
1.24208e-12
1.71884e-13
1.94273e-14
3.47764e-15
3.49283e-15
4.57661e-15
4.92838e-15
2.57532e-14
4.14393e-13
5.21152e-12
7.71302e-10
2.03544e-10
4.71263e-11
9.32586e-12
1.53515e-12
2.04046e-13
2.10927e-14
1.74192e-15
3.456e-16
3.74253e-16
9.46219e-16
1.70116e-14
3.06981e-13
4.0166e-12
9.29143e-10
2.36415e-10
5.21179e-11
9.76706e-12
1.51896e-12
1.91165e-13
1.88699e-14
1.55079e-15
2.62312e-16
1.81841e-16
5.26195e-16
1.12795e-14
2.16759e-13
2.98827e-12
1.1382e-09
2.74672e-10
5.6784e-11
9.92549e-12
1.43691e-12
1.69645e-13
1.72286e-14
2.83903e-15
1.49274e-15
1.02638e-15
9.28294e-16
8.42035e-15
1.5941e-13
2.26093e-12
1.39777e-09
3.17559e-10
6.12669e-11
9.95422e-12
1.34877e-12
1.63258e-13
3.24104e-14
1.92352e-14
1.49516e-14
1.083e-14
7.3471e-15
1.04396e-14
1.15885e-13
1.64876e-12
1.66862e-09
3.59115e-10
6.52226e-11
9.97437e-12
1.35304e-12
2.77945e-13
1.81599e-13
1.61509e-13
1.34902e-13
1.0309e-13
7.28457e-14
5.78765e-14
1.19182e-13
1.27731e-12
1.99218e-09
4.07142e-10
7.03035e-11
1.05726e-11
2.0037e-12
1.20975e-12
1.2523e-12
1.19478e-12
1.03846e-12
8.33624e-13
6.26005e-13
4.88735e-13
4.08734e-13
1.20031e-12
2.26046e-09
4.42133e-10
7.46735e-11
1.32185e-11
6.19166e-12
6.81619e-12
7.71508e-12
7.60022e-12
6.85644e-12
5.76809e-12
4.58914e-12
3.69455e-12
2.80317e-12
3.12271e-12
2.49449e-09
4.77126e-10
8.70771e-11
2.80036e-11
2.83496e-11
3.58187e-11
4.14494e-11
4.19281e-11
3.91804e-11
3.44123e-11
2.88267e-11
2.39502e-11
1.84475e-11
1.67298e-11
2.84272e-09
5.85762e-10
1.43936e-10
9.77706e-11
1.28334e-10
1.66328e-10
1.94461e-10
2.0182e-10
1.95235e-10
1.78684e-10
1.56748e-10
1.34523e-10
1.07059e-10
9.26284e-11
4.19248e-09
1.06771e-09
3.78487e-10
3.79713e-10
5.25869e-10
6.83989e-10
8.03233e-10
8.53069e-10
8.52062e-10
8.09853e-10
7.40076e-10
6.57758e-10
5.46875e-10
4.69623e-10
3.7095e-11
8.21734e-12
2.2432e-12
9.64723e-13
7.95002e-13
9.2759e-13
1.20092e-12
1.46545e-12
1.64657e-12
1.57622e-12
1.15588e-12
6.5027e-13
2.91901e-13
5.51428e-13
4.05723e-11
9.41453e-12
1.97901e-12
3.89273e-13
9.35437e-14
6.25798e-14
8.84825e-14
1.26787e-13
1.6478e-13
1.79559e-13
1.44699e-13
8.57013e-14
6.7299e-14
5.12272e-13
7.2511e-11
1.79592e-11
3.9723e-12
7.78892e-13
1.33194e-13
2.12954e-14
7.08482e-15
8.57068e-15
1.25069e-14
1.53623e-14
1.3542e-14
9.84006e-15
4.41729e-14
5.43899e-13
1.10824e-10
2.85002e-11
6.48648e-12
1.28269e-12
2.15204e-13
3.00527e-14
3.63899e-15
8.48622e-16
9.13397e-16
1.18416e-15
1.15733e-15
2.31748e-15
3.44099e-14
4.80822e-13
1.4896e-10
3.81427e-11
8.55143e-12
1.64951e-12
2.67553e-13
3.57719e-14
3.89115e-15
4.24847e-16
1.58603e-16
1.64898e-16
1.9636e-16
1.38337e-15
2.70002e-14
3.99747e-13
1.81754e-10
4.44937e-11
9.47108e-12
1.72933e-12
2.6539e-13
3.36274e-14
3.49034e-15
3.7279e-16
1.25818e-16
1.10089e-16
1.2781e-16
9.46442e-16
1.97438e-14
3.13139e-13
2.19106e-10
5.05492e-11
1.00704e-11
1.71416e-12
2.45112e-13
2.91161e-14
3.02704e-15
4.9063e-16
2.56387e-16
1.94172e-16
1.68461e-16
7.38046e-16
1.48391e-14
2.45815e-13
2.61376e-10
5.65957e-11
1.05256e-11
1.6672e-12
2.23281e-13
2.66277e-14
4.65353e-15
2.40368e-15
1.78511e-15
1.25316e-15
8.22363e-16
9.66499e-16
1.0794e-14
1.81915e-13
3.01297e-10
6.16607e-11
1.07863e-11
1.60678e-12
2.13111e-13
3.99852e-14
2.31976e-14
1.97352e-14
1.58645e-14
1.15332e-14
7.68313e-15
5.60576e-15
1.07988e-14
1.36627e-13
3.43593e-10
6.67966e-11
1.11141e-11
1.62272e-12
2.92238e-13
1.64268e-13
1.62985e-13
1.50828e-13
1.26062e-13
9.59579e-14
6.76265e-14
4.91459e-14
3.77965e-14
1.15709e-13
3.73059e-10
6.94355e-11
1.12685e-11
1.92117e-12
8.75576e-13
9.52975e-13
1.04874e-12
1.0025e-12
8.68479e-13
6.91556e-13
5.15233e-13
3.87167e-13
2.72708e-13
2.75935e-13
3.883e-10
7.05887e-11
1.23438e-11
3.96631e-12
4.14447e-12
5.24926e-12
5.92992e-12
5.81571e-12
5.2081e-12
4.32177e-12
3.3804e-12
2.61978e-12
1.87478e-12
1.53989e-12
4.07765e-10
7.89516e-11
1.92228e-11
1.4356e-11
1.96977e-11
2.57072e-11
2.94402e-11
2.95948e-11
2.73764e-11
2.36211e-11
1.92893e-11
1.53912e-11
1.13343e-11
9.01093e-12
5.33643e-10
1.2842e-10
5.0578e-11
5.89251e-11
8.52659e-11
1.12139e-10
1.29426e-10
1.32958e-10
1.26572e-10
1.13116e-10
9.5894e-11
7.88387e-11
6.03094e-11
4.79711e-11
3.998e-12
9.0246e-13
2.56385e-13
1.27279e-13
1.26909e-13
1.6339e-13
2.21016e-13
2.78114e-13
3.18258e-13
3.09379e-13
2.31206e-13
1.3107e-13
5.57675e-14
4.82473e-14
5.88334e-12
1.35598e-12
2.82702e-13
5.57262e-14
1.45996e-14
1.15769e-14
1.72169e-14
2.50591e-14
3.26691e-14
3.57392e-14
2.92159e-14
1.73897e-14
8.83401e-15
3.70134e-14
1.11127e-11
2.70614e-12
5.85848e-13
1.12676e-13
1.90693e-14
3.23952e-15
1.39975e-15
1.84961e-15
2.68219e-15
3.26727e-15
2.90715e-15
1.90057e-15
3.51879e-15
4.11854e-14
1.76928e-11
4.44074e-12
9.80671e-13
1.88767e-13
3.10787e-14
4.38796e-15
6.26232e-16
2.39718e-16
2.68608e-16
3.26578e-16
3.18534e-16
3.25979e-16
2.61854e-15
3.88329e-14
2.42118e-11
5.99578e-12
1.29695e-12
2.427e-13
3.85706e-14
5.19063e-15
6.47358e-16
1.50249e-16
1.11714e-16
1.13665e-16
1.15491e-16
1.84633e-16
2.15177e-15
3.44801e-14
2.94019e-11
6.93174e-12
1.42326e-12
2.52373e-13
3.80141e-14
4.8571e-15
5.84938e-16
1.39993e-16
1.03828e-16
1.01489e-16
1.02225e-16
1.53834e-16
1.65541e-15
2.85323e-14
3.4425e-11
7.61765e-12
1.46387e-12
2.42271e-13
3.40819e-14
4.09804e-15
5.00292e-16
1.47782e-16
1.15588e-16
1.08524e-16
1.05295e-16
1.41879e-16
1.29544e-15
2.33384e-14
3.9501e-11
8.18104e-12
1.46896e-12
2.2657e-13
2.99049e-14
3.58316e-15
6.47204e-16
3.438e-16
2.67012e-16
2.06856e-16
1.60989e-16
1.62923e-16
9.82411e-16
1.7811e-14
4.37356e-11
8.53616e-12
1.44047e-12
2.08794e-13
2.71624e-14
4.90563e-15
2.67611e-15
2.20223e-15
1.72354e-15
1.21865e-15
7.96038e-16
5.60287e-16
9.72882e-16
1.33486e-14
4.73139e-11
8.7632e-12
1.40659e-12
1.99673e-13
3.51495e-14
1.92878e-14
1.85844e-14
1.66929e-14
1.345e-14
9.75777e-15
6.5039e-15
4.4173e-15
3.19021e-15
1.05885e-14
4.85505e-11
8.6029e-12
1.34655e-12
2.2558e-13
1.05502e-13
1.14901e-13
1.23407e-13
1.14409e-13
9.52643e-14
7.19983e-14
5.04284e-14
3.533e-14
2.32529e-14
2.20981e-14
4.73717e-11
8.2018e-12
1.3942e-12
4.73054e-13
5.21465e-13
6.59699e-13
7.27769e-13
6.91236e-13
5.93361e-13
4.66117e-13
3.41725e-13
2.4676e-13
1.6483e-13
1.24088e-13
4.5985e-11
8.47896e-12
2.13447e-12
1.82562e-12
2.60171e-12
3.38952e-12
3.79284e-12
3.68609e-12
3.25976e-12
2.65621e-12
2.02707e-12
1.50382e-12
1.03042e-12
7.55516e-13
5.53242e-11
1.2876e-11
5.9356e-12
7.94297e-12
1.18626e-11
1.55983e-11
1.75982e-11
1.74347e-11
1.58152e-11
1.33115e-11
1.05109e-11
8.0059e-12
5.67285e-12
4.17575e-12
4.16628e-13
9.3605e-14
2.66473e-14
1.52282e-14
1.78343e-14
2.49451e-14
3.51981e-14
4.57471e-14
5.33043e-14
5.26565e-14
4.0063e-14
2.30878e-14
9.89216e-15
5.11009e-15
7.64095e-13
1.72922e-13
3.53249e-14
6.95857e-15
2.04033e-15
1.90095e-15
2.92461e-15
4.31476e-15
5.64045e-15
6.19932e-15
5.129e-15
3.11153e-15
1.42539e-15
2.66255e-15
1.49322e-12
3.53949e-13
7.43004e-14
1.39576e-14
2.38858e-15
4.97911e-16
3.09508e-16
4.07562e-16
5.55559e-16
6.58126e-16
5.95298e-16
4.09849e-16
3.77991e-16
2.91875e-15
2.44246e-12
5.92758e-13
1.26098e-13
2.35363e-14
3.84676e-15
6.11732e-16
1.65346e-16
1.22464e-16
1.3001e-16
1.40717e-16
1.3909e-16
1.29357e-16
2.64504e-16
2.92567e-15
3.35984e-12
8.00059e-13
1.66257e-13
3.01016e-14
4.72926e-15
7.0258e-16
1.64718e-16
1.06359e-16
1.01941e-16
1.02393e-16
1.0249e-16
1.0559e-16
2.37435e-16
2.78224e-15
4.01711e-12
9.08714e-13
1.79368e-13
3.08273e-14
4.60074e-15
6.55121e-16
1.56111e-16
1.04738e-16
1.00444e-16
1.00136e-16
1.00121e-16
1.03131e-16
2.10029e-16
2.46162e-15
4.53242e-12
9.60784e-13
1.77774e-13
2.85946e-14
4.00632e-15
5.51529e-16
1.44268e-16
1.05031e-16
1.01414e-16
1.00669e-16
1.00305e-16
1.02541e-16
1.88779e-16
2.13437e-15
4.95789e-12
9.82394e-13
1.7021e-13
2.55871e-14
3.38323e-15
4.74638e-16
1.5516e-16
1.2227e-16
1.14192e-16
1.08435e-16
1.04433e-16
1.04112e-16
1.68585e-16
1.71933e-15
5.23245e-12
9.75601e-13
1.59e-13
2.24969e-14
2.9433e-15
5.91189e-16
3.51899e-16
2.9705e-16
2.45048e-16
1.935e-16
1.5344e-16
1.31563e-16
1.6704e-16
1.33516e-15
5.36047e-12
9.48558e-13
1.4722e-13
2.04498e-14
3.66493e-15
2.07048e-15
1.95409e-15
1.7125e-15
1.34782e-15
9.57557e-16
6.35569e-16
4.33508e-16
3.25379e-16
1.04087e-15
5.20206e-12
8.81384e-13
1.3375e-13
2.24623e-14
1.1227e-14
1.22849e-14
1.28573e-14
1.15555e-14
9.26771e-15
6.68605e-15
4.45638e-15
2.9494e-15
1.85542e-15
1.73779e-15
4.7766e-12
7.92661e-13
1.32866e-13
4.95626e-14
5.78881e-14
7.2731e-14
7.81134e-14
7.17575e-14
5.90956e-14
4.40791e-14
3.04976e-14
2.06307e-14
1.29602e-14
9.07328e-15
4.31683e-12
7.68127e-13
2.07873e-13
2.05999e-13
3.01587e-13
3.8914e-13
4.23737e-13
3.97479e-13
3.36235e-13
2.59409e-13
1.86134e-13
1.29014e-13
8.2761e-14
5.63219e-14
4.87e-12
1.12594e-12
6.32706e-13
9.45496e-13
1.43873e-12
1.87393e-12
2.05642e-12
1.96162e-12
1.69728e-12
1.34897e-12
9.98129e-13
7.08211e-13
4.67966e-13
3.19958e-13
4.22579e-14
9.29983e-15
2.60331e-15
1.69038e-15
2.2281e-15
3.32562e-15
4.8759e-15
6.54448e-15
7.79528e-15
7.84707e-15
6.09249e-15
3.59963e-15
1.60972e-15
7.11999e-16
8.91778e-14
1.97201e-14
3.98245e-15
8.4075e-16
3.22506e-16
3.35734e-16
4.91414e-16
7.03032e-16
9.0705e-16
9.99966e-16
8.49778e-16
5.53162e-16
2.95061e-16
2.75018e-16
1.78601e-13
4.10082e-14
8.37491e-15
1.59432e-15
3.40671e-16
1.43817e-16
1.2826e-16
1.44635e-16
1.67388e-16
1.83352e-16
1.74308e-16
1.46279e-16
1.2591e-16
2.68215e-16
2.97207e-13
6.93787e-14
1.42293e-14
2.63068e-15
4.92141e-16
1.5246e-16
1.06909e-16
1.02988e-16
1.04361e-16
1.05987e-16
1.05702e-16
1.03791e-16
1.08958e-16
2.79397e-16
4.06649e-13
9.28955e-14
1.85822e-14
3.3137e-15
5.8055e-16
1.61006e-16
1.06401e-16
1.0051e-16
1.00069e-16
1.00127e-16
1.00106e-16
1.00172e-16
1.07428e-16
2.83575e-16
4.75439e-13
1.03198e-13
1.96434e-14
3.33286e-15
5.59026e-16
1.54978e-16
1.05398e-16
1.00278e-16
9.98146e-17
9.97525e-17
9.97156e-17
9.986e-17
1.06557e-16
2.74452e-16
5.15132e-13
1.04869e-13
1.87633e-14
2.99606e-15
4.84808e-16
1.42934e-16
1.04048e-16
1.00251e-16
9.9865e-17
9.97619e-17
9.96933e-17
9.97953e-17
1.0574e-16
2.61056e-16
5.35294e-13
1.01932e-13
1.71259e-14
2.57351e-15
4.08199e-16
1.33627e-16
1.04699e-16
1.01646e-16
1.00874e-16
1.00344e-16
9.99794e-17
9.98919e-17
1.04721e-16
2.36477e-16
5.35883e-13
9.59722e-14
1.51935e-14
2.16471e-15
3.53157e-16
1.42618e-16
1.21342e-16
1.1587e-16
1.10937e-16
1.06476e-16
1.03297e-16
1.01624e-16
1.04645e-16
2.09358e-16
5.17903e-13
8.80715e-14
1.33055e-14
1.87793e-15
4.12072e-16
2.77837e-16
2.63612e-16
2.37041e-16