/*--------------------------------*- C++ -*----------------------------------*\
| =========                 |                                                 |
| \\      /  F ield         | OpenFOAM: The Open Source CFD Toolbox           |
|  \\    /   O peration     | Version:  v2106                                 |
|   \\  /    A nd           | Website:  www.openfoam.com                      |
|    \\/     M anipulation  |                                                 |
\*---------------------------------------------------------------------------*/
FoamFile
{
    version     2.0;
    format      ascii;
    arch        "LSB;label=32;scalar=64";
    class       volScalarField;
    location    "0.000189";
    object      nut;
}
// * * * * * * * * * * * * * * * * * * * * * * * * * * * * * * * * * * * * * //

dimensions      [0 2 -1 0 0 0 0];

internalField   nonuniform List<scalar> 
18109
(
1.9467e-07
1.29552e-07
8.56641e-08
5.97377e-08
4.68102e-08
4.26586e-08
4.66421e-08
7.37242e-08
4.3447e-08
2.73405e-08
1.88001e-08
1.4839e-08
1.37538e-08
1.55483e-08
2.85969e-08
1.3294e-08
7.57136e-09
5.09072e-09
4.07276e-09
3.90893e-09
4.79869e-09
1.32976e-08
4.3482e-09
1.94783e-09
1.21108e-09
9.7961e-10
1.01435e-09
1.50012e-09
8.94121e-09
2.18259e-09
6.16469e-10
2.7899e-10
2.16336e-10
2.68444e-10
5.62198e-10
8.44519e-09
1.8747e-09
3.75192e-10
8.9497e-11
5.25381e-11
9.35564e-11
2.92524e-10
9.67031e-09
2.06396e-09
3.6572e-10
6.01318e-11
2.39279e-11
5.77829e-11
2.16749e-10
1.22208e-08
2.48323e-09
4.17228e-10
7.5474e-11
4.08246e-11
7.7486e-11
2.37383e-10
1.69345e-07
1.14049e-07
7.42049e-08
4.92501e-08
3.54588e-08
2.8962e-08
2.84726e-08
3.54647e-08
5.69587e-08
1.07284e-07
2.1245e-07
4.12531e-07
7.5962e-07
1.31954e-06
6.12382e-08
3.66791e-08
2.26612e-08
1.46666e-08
1.05169e-08
8.68585e-09
8.88865e-09
1.21689e-08
2.26788e-08
5.00219e-08
1.13703e-07
2.477e-07
5.03075e-07
9.55625e-07
2.22928e-08
1.06088e-08
5.93224e-09
3.7067e-09
2.66043e-09
2.26806e-09
2.5822e-09
4.36543e-09
1.02483e-08
2.68e-08
6.83097e-08
1.61488e-07
3.49249e-07
6.95912e-07
9.88583e-09
3.27798e-09
1.43317e-09
8.13976e-10
5.81831e-10
5.40375e-10
7.90368e-10
1.85571e-09
5.41967e-09
1.58717e-08
4.32229e-08
1.07268e-07
2.4191e-07
5.00892e-07
6.81228e-09
1.65592e-09
4.45831e-10
1.76369e-10
1.16784e-10
1.36184e-10
3.08533e-10
9.85722e-10
3.27393e-09
1.01367e-08
2.85644e-08
7.3101e-08
1.70663e-07
3.68007e-07
6.81075e-09
1.49638e-09
2.89657e-10
6.03248e-11
2.74961e-11
4.87977e-11
1.67494e-10
6.2546e-10
2.18723e-09
6.94849e-09
2.00128e-08
5.25358e-08
1.26728e-07
2.84258e-07
8.16379e-09
1.71138e-09
2.96119e-10
4.59062e-11
1.44707e-11
3.19539e-11
1.23024e-10
4.71651e-10
1.66539e-09
5.34561e-09
1.56245e-08
4.18412e-08
1.03516e-07
2.38864e-07
1.06843e-08
2.12083e-09
3.47122e-10
6.13089e-11
3.11208e-11
5.00473e-11
1.36924e-10
4.60496e-10
1.55774e-09
4.93608e-09
1.44095e-08
3.87415e-08
9.65012e-08
2.24282e-07
1.45342e-08
2.7732e-09
4.89528e-10
1.6058e-10
1.4491e-10
1.85948e-10
3.08778e-10
7.18024e-10
2.03797e-09
5.97252e-09
1.67263e-08
4.37427e-08
1.06703e-07
2.43543e-07
2.047e-08
4.11401e-09
1.03265e-09
6.2584e-10
6.78217e-10
8.32292e-10
1.1275e-09
1.87634e-09
3.98781e-09
9.81316e-09
2.48171e-08
6.06862e-08
1.40633e-07
3.0738e-07
3.16167e-08
8.02103e-09
3.15374e-09
2.44628e-09
2.72212e-09
3.33298e-09
4.3182e-09
6.22767e-09
1.0569e-08
2.10967e-08
4.59789e-08
1.01568e-07
2.18009e-07
4.47378e-07
5.75375e-08
2.0255e-08
1.03838e-08
8.46169e-09
9.29543e-09
1.14256e-08
1.4769e-08
2.03422e-08
3.07177e-08
5.21272e-08
9.74742e-08
1.9113e-07
3.74922e-07
7.14247e-07
1.18332e-07
5.38554e-08
3.11189e-08
2.53954e-08
2.7311e-08
3.3662e-08
4.39047e-08
5.98546e-08
8.57971e-08
1.31783e-07
2.17483e-07
3.78024e-07
6.69508e-07
1.16615e-06
2.50111e-07
1.33116e-07
8.16463e-08
6.6529e-08
7.00665e-08
8.60954e-08
1.13197e-07
1.54342e-07
2.15795e-07
3.11405e-07
4.65411e-07
7.19281e-07
1.14028e-06
1.81063e-06
4.89711e-07
9.58145e-07
1.76034e-06
3.00832e-06
4.88471e-06
7.93653e-06
4.38629e-07
8.69263e-07
1.61417e-06
2.78713e-06
4.58678e-06
7.51774e-06
3.06977e-07
6.73108e-07
1.34308e-06
2.45142e-06
4.22928e-06
7.253e-06
2.0644e-07
4.94883e-07
1.06266e-06
2.07221e-06
3.80158e-06
6.9043e-06
1.4055e-07
3.62141e-07
8.31696e-07
1.73714e-06
3.41458e-06
6.63436e-06
1.02603e-07
2.7826e-07
6.75997e-07
1.50579e-06
3.17105e-06
6.59855e-06
8.40312e-08
2.34693e-07
5.94263e-07
1.39626e-06
3.11706e-06
6.84848e-06
8.15535e-08
2.29548e-07
5.93564e-07
1.43842e-06
3.32479e-06
7.45339e-06
9.75172e-08
2.7021e-07
6.92528e-07
1.67022e-06
3.83518e-06
8.39432e-06
1.44674e-07
3.83819e-07
9.40524e-07
2.16317e-06
4.70436e-06
9.69262e-06
2.45342e-07
6.06637e-07
1.37756e-06
2.919e-06
5.83615e-06
1.11601e-05
4.34614e-07
9.79488e-07
2.01984e-06
3.88456e-06
7.11157e-06
1.2661e-05
7.62752e-07
1.53927e-06
2.85641e-06
5.00314e-06
8.51792e-06
1.4282e-05
1.28144e-06
2.29414e-06
3.87075e-06
6.31539e-06
1.01669e-05
1.621e-05
2.00182e-06
3.22868e-06
5.07129e-06
7.86211e-06
1.20975e-05
1.82333e-05
2.16124e-06
3.4219e-06
5.3304e-06
8.25678e-06
1.26483e-05
1.8815e-05
1.73315e-06
2.85512e-06
4.62373e-06
7.41771e-06
1.17726e-05
1.81956e-05
1.30726e-06
2.3038e-06
3.95782e-06
6.66441e-06
1.10023e-05
1.75576e-05
9.76167e-07
1.84931e-06
3.37649e-06
5.96063e-06
1.02076e-05
1.67739e-05
7.49427e-07
1.51558e-06
2.91938e-06
5.37144e-06
9.50067e-06
1.6072e-05
6.02227e-07
1.28151e-06
2.57668e-06
4.90706e-06
8.91546e-06
1.55387e-05
5.18992e-07
1.13934e-06
2.35677e-06
4.59932e-06
8.5252e-06
1.53611e-05
4.89116e-07
1.08106e-06
2.25781e-06
4.45397e-06
8.38862e-06
1.56491e-05
5.20835e-07
1.13153e-06
2.341e-06
4.61743e-06
8.81349e-06
1.67917e-05
6.32661e-07
1.32252e-06
2.65256e-06
5.12373e-06
9.68019e-06
1.84614e-05
8.69178e-07
1.70556e-06
3.23037e-06
5.95221e-06
1.08836e-05
2.03422e-05
1.28677e-06
2.31246e-06
4.04673e-06
6.98661e-06
1.21984e-05
2.19972e-05
1.91572e-06
3.13111e-06
5.03741e-06
8.115e-06
1.34511e-05
2.31847e-05
2.74505e-06
4.09184e-06
6.08346e-06
9.16879e-06
1.43394e-05
2.32362e-05
2.21217e-06
3.26538e-06
5.13561e-06
8.11585e-06
1.30779e-05
2.13276e-05
1.67993e-06
2.72251e-06
4.4608e-06
7.14394e-06
1.15707e-05
1.90969e-05
1.27458e-06
2.24954e-06
3.7749e-06
6.12187e-06
1.00779e-05
1.70723e-05
9.6169e-07
1.79299e-06
3.07211e-06
5.10475e-06
8.65734e-06
1.51442e-05
7.12369e-07
1.37673e-06
2.42602e-06
4.18695e-06
7.38849e-06
1.34046e-05
5.18866e-07
1.02827e-06
1.87406e-06
3.38695e-06
6.2501e-06
1.1758e-05
3.75068e-07
7.588e-07
1.43822e-06
2.72998e-06
5.27587e-06
1.02589e-05
2.71724e-07
5.6106e-07
1.11162e-06
2.21821e-06
4.46995e-06
9.03154e-06
2.02484e-07
4.28423e-07
8.90138e-07
1.86434e-06
3.90855e-06
8.26879e-06
1.6314e-07
3.56178e-07
7.74175e-07
1.68323e-06
3.62867e-06
7.9323e-06
1.56215e-07
3.49303e-07
7.74572e-07
1.69906e-06
3.66366e-06
8.02962e-06
1.92562e-07
4.23809e-07
9.13588e-07
1.94561e-06
4.02117e-06
8.52494e-06
3.04233e-07
6.32713e-07
1.28195e-06
2.54566e-06
4.89984e-06
9.43936e-06
5.18996e-07
1.00826e-06
1.89459e-06
3.41314e-06
5.8409e-06
1.00298e-05
4.08992e-08
1.30566e-07
4.12213e-07
1.18878e-06
3.06381e-06
7.26475e-06
6.08033e-08
1.74336e-07
5.3299e-07
1.47295e-06
3.5458e-06
7.63522e-06
1.08809e-07
2.65373e-07
7.33737e-07
1.8626e-06
4.07503e-06
7.98158e-06
2.24671e-07
4.79137e-07
1.10602e-06
2.40571e-06
4.6165e-06
8.21593e-06
4.38872e-07
8.92748e-07
1.8734e-06
3.53755e-06
5.96037e-06
9.94292e-06
2.90262e-07
7.46256e-07
1.70115e-06
3.23669e-06
5.48304e-06
9.42603e-06
1.96922e-07
5.94794e-07
1.41545e-06
2.71681e-06
4.7343e-06
8.56168e-06
1.39406e-07
4.52868e-07
1.1028e-06
2.16032e-06
3.94643e-06
7.59883e-06
1.00239e-07
3.30994e-07
8.17974e-07
1.65453e-06
3.2201e-06
6.67392e-06
7.13849e-08
2.3476e-07
5.87025e-07
1.24053e-06
2.60648e-06
5.837e-06
4.99319e-08
1.63141e-07
4.16474e-07
9.37828e-07
2.14827e-06
5.16028e-06
3.56278e-08
1.15354e-07
3.05975e-07
7.48241e-07
1.85456e-06
4.68727e-06
2.7841e-08
8.97853e-08
2.51583e-07
6.65033e-07
1.73191e-06
4.52945e-06
2.57807e-08
8.30259e-08
2.45069e-07
6.87583e-07
1.83666e-06
4.8055e-06
3.03084e-08
9.36764e-08
2.88485e-07
8.23854e-07
2.15073e-06
5.30679e-06
4.65011e-08
1.2887e-07
3.89424e-07
1.08428e-06
2.67298e-06
5.99309e-06
8.88644e-08
2.12492e-07
5.90702e-07
1.51985e-06
3.39236e-06
6.79122e-06
1.93792e-07
4.14396e-07
9.74708e-07
2.14371e-06
4.15e-06
7.43842e-06
1.25052e-05
3.80267e-05
9.29574e-05
9.01307e-05
7.38306e-05
1.31718e-05
4.02239e-05
8.73496e-05
8.7884e-05
7.39573e-05
1.40109e-05
4.09914e-05
8.33264e-05
8.70888e-05
7.50889e-05
1.46702e-05
4.0966e-05
8.17421e-05
8.83577e-05
7.69985e-05
1.49797e-05
4.06007e-05
8.19216e-05
8.97974e-05
7.78688e-05
1.50236e-05
3.97691e-05
8.27297e-05
8.97718e-05
7.71212e-05
1.55887e-05
3.935e-05
8.44782e-05
8.8132e-05
7.61957e-05
1.67885e-05
4.06998e-05
8.55373e-05
8.61857e-05
7.6248e-05
7.90283e-05
1.84548e-05
4.41462e-05
8.6914e-05
8.34974e-05
7.62109e-05
8.16928e-05
2.01778e-05
4.77171e-05
8.66281e-05
7.98541e-05
7.50955e-05
8.38816e-05
2.17339e-05
5.04361e-05
8.51895e-05
7.64704e-05
7.33917e-05
8.4847e-05
9.54015e-05
2.31832e-05
5.19952e-05
8.49279e-05
7.49487e-05
7.23226e-05
8.34615e-05
0.000108208
0.000111123
2.4758e-05
5.31216e-05
8.70864e-05
7.60086e-05
7.26908e-05
8.01127e-05
0.00010786
0.000214989
2.62017e-05
5.36936e-05
9.04355e-05
8.01661e-05
7.46316e-05
7.78806e-05
8.3762e-05
0.000203211
2.68633e-05
5.32829e-05
9.20273e-05
8.52721e-05
7.76722e-05
7.79561e-05
7.90985e-05
0.000177651
2.66932e-05
5.32477e-05
8.99084e-05
8.84539e-05
7.97356e-05
7.93231e-05
7.87504e-05
0.000162159
2.63587e-05
5.30178e-05
8.89121e-05
9.10668e-05
8.17296e-05
8.118e-05
7.91496e-05
9.19444e-05
2.64258e-05
5.2349e-05
9.19421e-05
9.45474e-05
8.44457e-05
8.37716e-05
7.82156e-05
0.000127889
2.64454e-05
5.27173e-05
9.89929e-05
9.69904e-05
8.5704e-05
8.54035e-05
7.5874e-05
0.000133729
2.61962e-05
5.43944e-05
0.000108479
9.6517e-05
8.43628e-05
8.61504e-05
7.436e-05
0.000108442
2.63129e-05
5.82282e-05
0.000117411
9.31401e-05
8.2964e-05
8.77405e-05
7.76314e-05
4.97693e-05
2.79037e-05
6.46125e-05
0.000121283
9.05356e-05
8.31185e-05
9.07863e-05
8.45407e-05
6.05116e-05
3.11119e-05
7.38887e-05
0.000118126
8.81756e-05
8.26325e-05
9.16958e-05
3.45205e-05
8.13484e-05
0.000110598
8.5083e-05
8.04671e-05
9.09204e-05
3.71112e-05
8.4095e-05
0.000104966
8.20214e-05
7.7672e-05
9.0302e-05
3.84166e-05
8.43804e-05
0.00010278
8.14153e-05
7.61673e-05
8.73354e-05
3.83145e-05
8.2967e-05
0.000100825
8.28522e-05
7.64676e-05
8.31478e-05
3.68376e-05
8.10624e-05
9.87779e-05
8.8158e-05
7.83528e-05
3.51569e-05
7.60882e-05
9.55378e-05
9.35539e-05
8.17915e-05
3.37057e-05
6.82825e-05
8.94959e-05
9.57429e-05
8.34004e-05
3.23304e-05
6.01887e-05
8.40448e-05
9.76781e-05
8.39144e-05
3.02221e-05
5.34366e-05
8.17146e-05
0.00010163
8.57436e-05
2.78585e-05
4.83989e-05
8.38934e-05
0.000107038
8.65162e-05
2.53153e-05
4.45991e-05
9.0774e-05
0.000111452
8.48773e-05
2.29226e-05
4.2137e-05
0.000102541
0.000113258
8.1951e-05
2.08523e-05
4.11756e-05
0.000118588
0.000114971
8.10553e-05
1.92665e-05
4.22932e-05
0.000134021
0.000115874
8.0061e-05
1.82308e-05
4.58992e-05
0.000141196
0.000114187
7.79538e-05
1.77598e-05
5.12026e-05
0.000137694
0.000110316
7.66908e-05
1.80473e-05
5.66905e-05
0.000128103
0.000107415
7.7767e-05
1.91621e-05
6.04276e-05
0.00011649
0.000104527
7.98526e-05
2.04201e-05
6.15988e-05
0.000107512
0.000103059
8.20452e-05
2.11856e-05
5.94795e-05
9.8247e-05
0.000100451
8.28637e-05
2.14087e-05
5.47799e-05
8.7735e-05
9.55072e-05
8.09683e-05
2.08551e-05
4.89894e-05
7.87429e-05
9.22749e-05
7.95076e-05
1.97568e-05
4.37988e-05
7.25829e-05
9.22602e-05
7.97077e-05
1.84655e-05
3.98581e-05
6.96015e-05
9.51334e-05
7.94078e-05
1.69956e-05
3.65676e-05
6.88719e-05
9.81011e-05
7.69468e-05
1.5512e-05
3.37275e-05
7.03685e-05
9.96405e-05
7.34319e-05
1.41319e-05
3.12472e-05
7.50462e-05
0.00010069
7.11744e-05
1.30478e-05
2.94316e-05
8.22589e-05
9.98509e-05
6.92475e-05
1.22415e-05
2.92464e-05
8.87153e-05
9.61371e-05
6.7815e-05
1.17582e-05
3.00982e-05
9.32832e-05
9.26725e-05
6.75364e-05
1.17411e-05
3.14374e-05
9.68404e-05
9.12787e-05
6.83919e-05
1.20928e-05
3.28223e-05
9.90828e-05
9.05212e-05
7.03535e-05
1.24124e-05
3.47251e-05
9.81203e-05
9.07344e-05
7.25648e-05
1.52343e-07
1.0452e-07
6.80152e-08
4.38703e-08
2.9614e-08
2.20257e-08
1.96303e-08
2.27888e-08
3.59839e-08
6.98907e-08
1.45984e-07
3.00393e-07
5.83998e-07
1.07099e-06
5.32921e-08
3.28238e-08
2.03356e-08
1.27032e-08
8.44588e-09
6.2913e-09
5.84666e-09
7.62343e-09
1.44776e-08
3.36815e-08
8.10681e-08
1.86328e-07
3.97137e-07
7.85922e-07
1.83785e-08
9.15011e-09
5.16931e-09
3.10088e-09
2.04264e-09
1.55605e-09
1.63392e-09
2.76534e-09
6.84653e-09
1.89032e-08
5.04377e-08
1.24288e-07
2.79141e-07
5.74371e-07
7.77742e-09
2.69166e-09
1.20006e-09
6.53227e-10
4.24499e-10
3.52619e-10
5.00645e-10
1.23612e-09
3.79741e-09
1.15508e-08
3.25081e-08
8.3375e-08
1.9416e-07
4.1382e-07
5.43847e-09
1.33177e-09
3.59238e-10
1.36013e-10
8.0967e-11
8.71429e-11
2.04441e-10
6.86412e-10
2.3559e-09
7.49754e-09
2.171e-08
5.71801e-08
1.37368e-07
3.0406e-07
5.68148e-09
1.2342e-09
2.35075e-10
4.67599e-11
1.86648e-11
3.18358e-11
1.13858e-10
4.38498e-10
1.57302e-09
5.12786e-09
1.51715e-08
4.09454e-08
1.01421e-07
2.32829e-07
7.07177e-09
1.45391e-09
2.4635e-10
3.70344e-11
1.0448e-11
2.13469e-11
8.27593e-11
3.24257e-10
1.17507e-09
3.87683e-09
1.16517e-08
3.20551e-08
8.12744e-08
1.91499e-07
9.54448e-09
1.85037e-09
2.95069e-10
5.07507e-11
2.50148e-11
3.69544e-11
9.34605e-11
3.09306e-10
1.06436e-09
3.46438e-09
1.04126e-08
2.87841e-08
7.3517e-08
1.74516e-07
1.33373e-08
2.47282e-09
4.19985e-10
1.34614e-10
1.22407e-10
1.53516e-10
2.36202e-10
5.07442e-10
1.4018e-09
4.14788e-09
1.1888e-08
3.19004e-08
7.97223e-08
1.8589e-07
1.91492e-08
3.68808e-09
8.76299e-10
5.27322e-10
5.81379e-10
7.14334e-10
9.39029e-10
1.46674e-09
2.93177e-09
7.03932e-09
1.78756e-08
4.44402e-08
1.05081e-07
2.34351e-07
2.96166e-08
7.05761e-09
2.64297e-09
2.06706e-09
2.34612e-09
2.89829e-09
3.72094e-09
5.20669e-09
8.42891e-09
1.61754e-08
3.47091e-08
7.69665e-08
1.67391e-07
3.49275e-07
5.297e-08
1.74877e-08
8.66871e-09
7.1564e-09
8.02868e-09
9.9941e-09
1.29128e-08
1.75613e-08
2.58302e-08
4.24801e-08
7.77479e-08
1.51747e-07
3.0005e-07
5.80801e-07
1.06995e-07
4.63119e-08
2.60279e-08
2.14927e-08
2.36085e-08
2.9536e-08
3.8689e-08
5.25455e-08
7.44099e-08
1.12219e-07
1.8218e-07
3.14704e-07
5.60897e-07
9.93871e-07
2.2543e-07
1.15384e-07
6.86958e-08
5.63956e-08
6.06198e-08
7.57371e-08
1.00357e-07
1.37074e-07
1.91017e-07
2.73518e-07
4.0493e-07
6.21906e-07
9.88149e-07
1.5909e-06
1.03277e-07
7.3972e-08
5.00005e-08
3.26307e-08
2.15592e-08
1.48102e-08
1.13992e-08
1.07323e-08
1.43655e-08
2.74328e-08
6.27779e-08
1.45086e-07
3.16275e-07
6.4445e-07
3.21501e-08
2.12933e-08
1.38789e-08
8.75642e-09
5.6745e-09
3.85012e-09
3.02003e-09
3.11404e-09
5.23763e-09
1.29448e-08
3.55546e-08
9.29024e-08
2.21642e-07
4.82318e-07
9.35509e-09
5.19904e-09
3.1778e-09
1.94023e-09
1.24233e-09
8.45018e-10
7.17878e-10
9.73065e-10
2.40945e-09
7.56959e-09
2.32502e-08
6.46387e-08
1.60759e-07
3.6043e-07
3.65174e-09
1.33221e-09
6.40107e-10
3.59271e-10
2.26107e-10
1.61024e-10
1.78257e-10
4.06765e-10
1.40488e-09
4.9439e-09
1.5833e-08
4.52133e-08
1.15385e-07
2.66361e-07
3.06764e-09
7.11316e-10
1.79505e-10
6.51098e-11
3.59101e-11
3.08793e-11
6.32857e-11
2.35308e-10
9.40335e-10
3.42849e-09
1.11359e-08
3.22708e-08
8.41886e-08
2.00678e-07
3.78752e-09
7.65293e-10
1.328e-10
2.28237e-11
6.86252e-12
9.17352e-12
3.55986e-11
1.60339e-10
6.63368e-10
2.44142e-09
8.01222e-09
2.36181e-08
6.31978e-08
1.55516e-07
5.20069e-09
9.82086e-10
1.51464e-10
2.00731e-11
4.10436e-12
6.35471e-12
2.67017e-11
1.20297e-10
4.96439e-10
1.83486e-09
6.0953e-09
1.83155e-08
5.02453e-08
1.26994e-07
7.45026e-09
1.31576e-09
1.8753e-10
2.80685e-11
1.23362e-11
1.53544e-11
3.31948e-11
1.11171e-10
4.22236e-10
1.53641e-09
5.13255e-09
1.56222e-08
4.35466e-08
1.11731e-07
1.07617e-08
1.7961e-09
2.61779e-10
7.40076e-11
6.74594e-11
8.12239e-11
1.10249e-10
2.03235e-10
5.43654e-10
1.72595e-09
5.4733e-09
1.62523e-08
4.46203e-08
1.13212e-07
1.56884e-08
2.61809e-09
5.1011e-10
2.96065e-10
3.40586e-10
4.18774e-10
5.27631e-10
7.38809e-10
1.30616e-09
3.02373e-09
8.06153e-09
2.1801e-08
5.64045e-08
1.37289e-07
2.38406e-08
4.64913e-09
1.4724e-09
1.198e-09
1.4429e-09
1.81507e-09
2.30925e-09
3.07267e-09
4.54401e-09
8.0392e-09
1.69549e-08
3.92272e-08
9.14119e-08
2.06303e-07
4.07126e-08
1.09295e-08
4.86489e-09
4.27775e-09
5.1428e-09
6.59385e-09
8.56026e-09
1.13855e-08
1.59067e-08
2.44873e-08
4.29909e-08
8.45682e-08
1.74586e-07
3.59635e-07
7.87166e-08
2.913e-08
1.51201e-08
1.32664e-08
1.56609e-08
2.03316e-08
2.69286e-08
3.62367e-08
4.99063e-08
7.2197e-08
1.13044e-07
1.93966e-07
3.5485e-07
6.63465e-07
1.66536e-07
7.65888e-08
4.20301e-08
3.61264e-08
4.15645e-08
5.41701e-08
7.28695e-08
9.93674e-08
1.36671e-07
1.91303e-07
2.76159e-07
4.18249e-07
6.70982e-07
1.13096e-06
4.71506e-08
3.33746e-08
2.30396e-08
1.51548e-08
1.00791e-08
6.87439e-09
5.24835e-09
4.72944e-09
5.78723e-09
1.03784e-08
2.40547e-08
5.94936e-08
1.42481e-07
3.20512e-07
1.28497e-08
8.36447e-09
5.63111e-09
3.58155e-09
2.32859e-09
1.53487e-09
1.15785e-09
1.09604e-09
1.66746e-09
4.12969e-09
1.23299e-08
3.59944e-08
9.63887e-08
2.33171e-07
3.35014e-09
1.76629e-09
1.10676e-09
6.79402e-10
4.35344e-10
2.81853e-10
2.21457e-10
2.70141e-10
6.70899e-10
2.33209e-09
8.06894e-09
2.52086e-08
7.00037e-08
1.73307e-07
1.59759e-09
4.72471e-10
1.98403e-10
1.05624e-10
6.50181e-11
4.27488e-11
4.30089e-11
1.00299e-10
3.94305e-10
1.58133e-09
5.69307e-09
1.80704e-08
5.08342e-08
1.28453e-07
1.81436e-09
3.66166e-10
7.14783e-11
1.86355e-11
8.39118e-12
6.29743e-12
1.35494e-11
5.95811e-11
2.76873e-10
1.14711e-09
4.16482e-09
1.33235e-08
3.81007e-08
9.93885e-08
2.50925e-09
4.61465e-10
7.10011e-11
9.66894e-12
1.73325e-12
1.70342e-12
7.87796e-12
4.21063e-11
2.01125e-10
8.38096e-10
3.06675e-09
9.97421e-09
2.93575e-08
7.97216e-08
3.66593e-09
6.31478e-10
8.82235e-11
1.02875e-11
1.62891e-12
1.64528e-12
6.39803e-12
3.2044e-11
1.50921e-10
6.3138e-10
2.34906e-09
7.86312e-09
2.40595e-08
6.81425e-08
5.48574e-09
8.83225e-10
1.12878e-10
1.47309e-11
6.20842e-12
7.08625e-12
1.14824e-11
3.19909e-11
1.26339e-10
5.1544e-10
1.95333e-09
6.75566e-09
2.14246e-08
6.25998e-08
8.18741e-09
1.24059e-09
1.56402e-10
3.85866e-11
3.70923e-11
4.58718e-11
5.7372e-11
8.44656e-11
1.87281e-10
5.98915e-10
2.11967e-09
7.21948e-09
2.27891e-08
6.62738e-08
1.22598e-08
1.82314e-09
2.90142e-10
1.58563e-10
1.97208e-10
2.53779e-10
3.17022e-10
4.07875e-10
6.12376e-10
1.26405e-09
3.44936e-09
1.03349e-08
3.01924e-08
8.30736e-08
1.88516e-08
3.17436e-09
8.22039e-10
6.70541e-10
8.69282e-10
1.14749e-09
1.4735e-09
1.89913e-09
2.59259e-09
4.16954e-09
8.48377e-09
2.05274e-08
5.19732e-08
1.29065e-07
3.21791e-08
7.44742e-09
2.83312e-09
2.51488e-09
3.20227e-09
4.29459e-09
5.66218e-09
7.43781e-09
9.97994e-09
1.45153e-08
2.44294e-08
4.84766e-08
1.05216e-07
2.3272e-07
6.11254e-08
2.04475e-08
9.42776e-09
8.26807e-09
1.01043e-08
1.35882e-08
1.82903e-08
2.4546e-08
3.31434e-08
4.6548e-08
7.07294e-08
1.20704e-07
2.27404e-07
4.5065e-07
1.29492e-07
5.71518e-08
2.84301e-08
2.415e-08
2.80768e-08
3.73374e-08
5.08397e-08
6.94515e-08
9.48958e-08
1.31607e-07
1.8756e-07
2.81511e-07
4.54556e-07
7.96518e-07
1.32201e-08
8.98304e-09
6.37877e-09
4.38068e-09
3.05241e-09
2.1466e-09
1.63632e-09
1.39676e-09
1.49504e-09
2.34594e-09
5.42654e-09
1.48172e-08
4.08071e-08
1.0653e-07
3.10546e-09
1.85568e-09
1.28445e-09
8.5969e-10
5.89083e-10
4.04728e-10
3.01749e-10
2.57815e-10
3.24412e-10
7.61722e-10
2.54952e-09
8.71554e-09
2.73428e-08
7.68427e-08
9.02798e-10
3.53699e-10
2.04897e-10
1.29977e-10
8.72524e-11
5.92044e-11
4.48966e-11
4.66606e-11
1.07376e-10
4.2414e-10
1.7372e-09
6.37583e-09
2.05582e-08
5.83729e-08
7.85119e-10
1.66005e-10
4.09573e-11
1.68245e-11
9.91021e-12
6.667e-12
6.17598e-12
1.39842e-11
6.43171e-11
3.09345e-10
1.31386e-09
4.8443e-09
1.55999e-08
4.44266e-08
1.12497e-09
2.06692e-10
3.11006e-11
4.81625e-12
1.17162e-12
6.98574e-13
1.57814e-12
8.62713e-12
4.90268e-11
2.42169e-10
1.02796e-09
3.7822e-09
1.22408e-08
3.56307e-08
1.64204e-09
2.82594e-10
3.82819e-11
4.47358e-12
4.9974e-13
2.0679e-13
1.00947e-12
6.647e-12
3.833e-11
1.88671e-10
7.99872e-10
2.96465e-09
9.81149e-09
2.97827e-08
2.46536e-09
3.96995e-10
4.89186e-11
5.14949e-12
7.32543e-13
5.02526e-13
1.1797e-12
5.61849e-12
3.03274e-11
1.47958e-10
6.34649e-10
2.42253e-09
8.40295e-09
2.70266e-08
3.72548e-09
5.60331e-10
6.28036e-11
7.4153e-12
3.31476e-12
3.80573e-12
4.90317e-12
8.84093e-12
2.90386e-11
1.26431e-10
5.45144e-10
2.16614e-09
7.89981e-09
2.65812e-08
5.56842e-09
7.8887e-10
8.66587e-11
2.02626e-11
2.11794e-11
2.72743e-11
3.34407e-11
4.21177e-11
6.74929e-11
1.77159e-10
6.45667e-10
2.47875e-09
9.00388e-09
3.01918e-08
8.46034e-09
1.17234e-09
1.62274e-10
8.76735e-11
1.15745e-10
1.54862e-10
1.95209e-10
2.41513e-10
3.15635e-10
5.22202e-10
1.26617e-09
3.94808e-09
1.28621e-08
4.01441e-08
1.34394e-08
2.07611e-09
4.77912e-10
3.88175e-10
5.20974e-10
7.10373e-10
9.23448e-10
1.1719e-09
1.50359e-09
2.13718e-09
3.81295e-09
8.92335e-09
2.38722e-08
6.51721e-08
2.3994e-08
4.98558e-09
1.74795e-09
1.53964e-09
1.96992e-09
2.69515e-09
3.59233e-09
4.68413e-09
6.08383e-09
8.29326e-09
1.27113e-08
2.37511e-08
5.18686e-08
1.21792e-07
4.4439e-08
1.40123e-08
6.22966e-09
5.44026e-09
6.49337e-09
8.7333e-09
1.17864e-08
1.5701e-08
2.07731e-08
2.81931e-08
4.04595e-08
6.53861e-08
1.20437e-07
2.4609e-07
9.03252e-08
4.15035e-08
2.02207e-08
1.71972e-08
1.91553e-08
2.49383e-08
3.35812e-08
4.53121e-08
6.10078e-08
8.34549e-08
1.16255e-07
1.69284e-07
2.63379e-07
4.579e-07
1.82665e-09
1.13587e-09
8.08801e-10
5.76064e-10
4.20566e-10
3.12926e-10
2.48345e-10
2.07715e-10
1.97533e-10
2.65861e-10
6.05441e-10
1.86084e-09
6.02703e-09
1.86817e-08
4.23939e-10
1.90919e-10
1.24399e-10
8.60277e-11
6.1923e-11
4.58279e-11
3.65329e-11
3.09088e-11
3.35806e-11
7.28976e-11
2.75375e-10
1.1175e-09
4.15292e-09
1.37524e-08
2.51316e-10
5.72579e-11
1.84869e-11
9.79501e-12
6.61416e-12
4.84321e-12
3.9594e-12
4.03912e-12
9.1683e-12
4.19224e-11
2.04664e-10
8.87605e-10
3.35473e-09
1.11021e-08
3.67504e-10
6.96366e-11
1.10601e-11
1.9067e-12
6.17431e-13
3.74042e-13
3.72994e-13
1.00182e-12
5.73218e-12
3.33801e-11
1.68552e-10
7.30553e-10
2.73755e-09
8.95641e-09
5.64385e-10
1.00759e-10
1.46711e-11
1.7904e-12
2.14704e-13
4.13364e-14
9.26155e-14
6.81928e-13
4.80308e-12
2.85918e-11
1.43998e-10
6.20004e-10
2.30883e-09
7.54774e-09
8.59462e-10
1.40695e-10
1.90215e-11
2.08173e-12
2.15919e-13
3.59506e-14
8.09871e-14
5.81848e-13
4.05929e-12
2.40313e-11
1.20448e-10
5.17113e-10
1.93258e-09
6.43198e-09
1.35687e-09
1.98912e-10
2.44986e-11
2.44423e-12
3.45518e-13
1.9705e-13
2.5313e-13
6.76697e-13
3.54941e-12
2.0015e-11
9.98985e-11
4.34409e-10
1.67561e-09
5.88885e-09
2.12973e-09
2.80333e-10
3.13388e-11
3.49189e-12
1.52972e-12
1.72651e-12
2.01779e-12
2.53651e-12
5.0161e-12
1.88632e-11
8.76308e-11
3.89751e-10
1.58865e-09
5.97868e-09
3.23717e-09
4.06645e-10
4.30883e-11
9.32006e-12
9.67217e-12
1.24937e-11
1.4961e-11
1.73912e-11
2.16236e-11
3.81161e-11
1.16341e-10
4.67415e-10
1.90211e-09
7.28445e-09
4.85799e-09
6.5448e-10
8.14784e-11
4.04041e-11
5.32004e-11
7.14707e-11
8.85729e-11
1.0555e-10
1.2531e-10
1.65571e-10
3.03734e-10
8.64476e-10
3.01229e-09
1.06492e-08
7.34015e-09
1.20017e-09
2.44112e-10
1.81956e-10
2.40879e-10
3.2808e-10
4.1908e-10
5.14924e-10
6.21357e-10
7.80577e-10
1.14449e-09
2.31805e-09
6.22468e-09
1.87109e-08
1.18943e-08
2.82517e-09
9.09923e-10
7.49965e-10
9.33795e-10
1.26048e-09
1.64434e-09
2.07579e-09
2.56486e-09
3.22193e-09
4.35808e-09
7.15719e-09
1.49814e-08
3.72483e-08
2.09452e-08
7.65954e-09
3.3648e-09
2.80993e-09
3.23512e-09
4.21887e-09
5.5238e-09
7.09853e-09
8.97017e-09
1.14344e-08
1.50943e-08
2.21504e-08
3.8393e-08
8.0382e-08
4.38193e-08
2.2087e-08
1.1665e-08
9.64217e-09
1.03453e-08
1.28222e-08
1.65058e-08
2.12641e-08
2.7274e-08
3.53506e-08
4.65705e-08
6.42862e-08
9.5696e-08
1.66092e-07
1.60461e-10
7.67003e-11
5.17727e-11
3.74387e-11
2.87125e-11
2.31973e-11
2.04393e-11
1.82107e-11
1.62858e-11
1.78793e-11
3.90993e-11
1.42465e-10
5.57819e-10
2.04316e-09
6.69614e-11
1.51207e-11
6.15398e-12
3.79366e-12
2.81645e-12
2.28332e-12
2.05313e-12
1.88717e-12
2.01703e-12
4.52339e-12
2.04105e-11
9.84489e-11
4.25027e-10
1.61383e-09
8.72146e-11
1.52669e-11
2.61207e-12
5.23565e-13
2.11529e-13
1.50361e-13
1.39385e-13
1.68969e-13
5.12305e-13
2.97623e-12
1.72004e-11
8.62673e-11
3.73208e-10
1.40391e-09
1.42295e-10
2.42019e-11
3.86337e-12
5.20451e-13
6.63719e-14
1.1932e-14
1.00144e-14
4.75267e-14
3.66389e-13
2.55294e-12
1.50552e-11
7.54693e-11
3.24764e-10
1.21048e-09
2.14544e-10
3.50399e-11
5.30463e-12
6.76845e-13
7.51017e-14
7.5938e-15
4.52726e-15
3.82023e-14
3.24241e-13
2.28918e-12
1.35288e-11
6.77186e-11
2.90263e-10
1.0758e-09
3.14532e-10
4.93691e-11
6.70727e-12
7.82028e-13
8.18929e-14
1.1838e-14
9.13297e-15
3.84352e-14
2.88125e-13
2.00997e-12
1.187e-11
5.93509e-11
2.53952e-10
9.4169e-10
4.62945e-10
7.08504e-11
8.38345e-12
8.99715e-13
1.25196e-13
6.77353e-14
7.29471e-14
1.01385e-13
3.17032e-13
1.80192e-12
1.03126e-11
5.14358e-11
2.2191e-10
8.41899e-10
6.6679e-10
9.98372e-11
1.03678e-11
1.22091e-12
4.99008e-13
5.63543e-13
6.53197e-13
7.30129e-13
9.43704e-13
2.23911e-12
9.62646e-12
4.60904e-11
2.03609e-10
8.1513e-10
9.31965e-10
1.37183e-10
1.35361e-11
2.88165e-12
2.92021e-12
3.83557e-12
4.58995e-12
5.16855e-12
5.75852e-12
7.45404e-12
1.57317e-11
5.67478e-11
2.39584e-10
9.83624e-10
1.28696e-09
1.94769e-10
2.36331e-11
1.15302e-11
1.55313e-11
2.11409e-11
2.59587e-11
3.00035e-11
3.36103e-11
3.89541e-11
5.47388e-11
1.22822e-10
4.08961e-10
1.53374e-09
1.81793e-09
3.24536e-10
6.73478e-11
5.12628e-11
7.05344e-11
9.69437e-11
1.21779e-10
1.44496e-10
1.65602e-10
1.91416e-10
2.4036e-10
3.97556e-10
9.6443e-10
2.98059e-09
2.85408e-09
7.33499e-10
2.53102e-10
2.14583e-10
2.78789e-10
3.79151e-10
4.84417e-10
5.8892e-10
6.9194e-10
8.12986e-10
9.93437e-10
1.41615e-09
2.65693e-09
6.58823e-09
5.26361e-09
2.05002e-09
9.6976e-10
8.29344e-10
9.9139e-10
1.30077e-09
1.66752e-09
2.06611e-09
2.48752e-09
2.98836e-09
3.65766e-09
4.86669e-09
7.65219e-09
1.55561e-08
1.19662e-08
6.1724e-09
3.51611e-09
2.9824e-09
3.28214e-09
4.06163e-09
5.10944e-09
6.36895e-09
7.81925e-09
9.61423e-09
1.19393e-08
1.5474e-08
2.15891e-08
3.63124e-08
2.01073e-11
5.63045e-12
2.91017e-12
2.00246e-12
1.56028e-12
1.33897e-12
1.28579e-12
1.23649e-12
1.15236e-12
1.21962e-12
2.81554e-12
1.23015e-11
5.61443e-11
2.32264e-10
1.53794e-11
2.77289e-12
5.41144e-13
1.59086e-13
9.25952e-14
7.82778e-14
7.90732e-14
8.17739e-14
1.01765e-13
3.03999e-13
1.69667e-12
9.38156e-12
4.5316e-11
1.90626e-10
2.46e-11
4.56404e-12
7.79476e-13
1.1409e-13
1.66539e-14
4.13039e-15
3.3037e-15
6.00656e-15
3.09844e-14
2.26446e-13
1.49775e-12
8.4508e-12
4.08577e-11
1.70912e-10
3.84499e-11
6.99447e-12
1.2027e-12
1.73905e-13
2.19611e-14
2.40134e-15
5.04962e-16
2.67132e-15
2.4809e-14
1.97578e-13
1.32007e-12
7.46951e-12
3.62058e-11
1.51544e-10
5.48241e-11
9.55489e-12
1.57641e-12
2.18381e-13
2.62094e-14
2.77362e-15
5.90466e-16
2.45839e-15
2.22752e-14
1.78564e-13
1.20171e-12
6.83435e-12
3.32109e-11
1.38962e-10
7.5614e-11
1.25463e-11
1.9014e-12
2.43061e-13
2.81158e-14
4.51935e-15
2.73236e-15
4.42707e-15
2.18458e-14
1.60591e-13
1.07596e-12
6.14022e-12
2.99081e-11
1.25212e-10
1.0395e-10
1.65398e-11
2.25653e-12
2.70251e-13
4.14703e-14
2.27211e-14
2.40874e-14
2.6884e-14
4.24787e-14
1.64256e-13
9.71395e-13
5.45231e-12
2.65633e-11
1.11956e-10
1.40334e-10
2.14396e-11
2.6635e-12
3.52008e-13
1.44035e-13
1.60993e-13
1.87454e-13
2.04732e-13
2.26324e-13
3.37571e-13
1.04842e-12
5.00847e-12
2.39444e-11
1.03085e-10
1.84843e-10
2.73853e-11
3.33605e-12
7.69632e-13
7.65552e-13
1.00574e-12
1.20267e-12
1.33906e-12
1.44169e-12
1.62028e-12
2.41868e-12
6.69304e-12
2.72378e-11
1.16088e-10
2.41855e-10
3.66777e-11
5.54776e-12
2.86697e-12
3.8966e-12
5.30776e-12
6.46906e-12
7.36369e-12
8.05508e-12
8.80497e-12
1.04779e-11
1.76143e-11
4.92783e-11
1.81847e-10
3.29096e-10
5.99483e-11
1.50844e-11
1.22373e-11
1.73691e-11
2.39234e-11
2.96852e-11
3.453e-11
3.8551e-11
4.26268e-11
4.86713e-11
6.65034e-11
1.32504e-10
3.83722e-10
5.21333e-10
1.39905e-10
5.51836e-11
4.99155e-11
6.80445e-11
9.3388e-11
1.17725e-10
1.3982e-10
1.59419e-10
1.79516e-10
2.04702e-10
2.5774e-10
4.12591e-10
9.40555e-10
1.04106e-09
4.1317e-10
2.09859e-10
1.89115e-10
2.39416e-10
3.20965e-10
4.08268e-10
4.94268e-10
5.75922e-10
6.62371e-10
7.64419e-10
9.3185e-10
1.30122e-09
2.4209e-09
2.55364e-09
1.29067e-09
7.60111e-10
6.70366e-10
7.78816e-10
9.94887e-10
1.25701e-09
1.54138e-09
1.8342e-09
2.15928e-09
2.54199e-09
3.08764e-09
3.97963e-09
6.24355e-09
4.39705e-12
9.4251e-13
3.0644e-13
1.70877e-13
1.29929e-13
1.19379e-13
1.25327e-13
1.29774e-13
1.25867e-13
1.3079e-13
3.06564e-13
1.48378e-12
7.3615e-12
3.22786e-11
4.23498e-12
8.47256e-13
1.47828e-13
2.5328e-14
7.23066e-15
5.345e-15
6.25614e-15
7.59624e-15
1.05471e-14
3.39218e-14
2.03282e-13
1.20223e-12
6.16841e-12
2.73372e-11
7.05495e-12
1.46567e-12
2.63277e-13
4.02038e-14
5.51938e-15
7.82694e-16
3.26701e-16
6.16899e-16
3.33321e-15
2.56875e-14
1.81391e-13
1.09436e-12
5.64398e-12
2.50272e-11
1.06818e-11
2.18383e-12
3.95596e-13
6.04443e-14
8.06706e-15
9.2853e-16
1.43279e-16
3.03414e-16
2.65359e-15
2.24111e-14
1.60656e-13
9.76228e-13
5.07414e-12
2.26961e-11
1.46949e-11
2.88447e-12
5.0605e-13
7.41795e-14
9.45232e-15
1.06679e-15
1.95572e-16
3.19489e-16
2.39782e-15
2.01804e-14
1.4631e-13
8.9858e-13
4.71199e-12
2.12263e-11
1.95319e-11
3.62148e-12
5.96304e-13
8.1236e-14
9.95195e-15
1.54777e-15
8.17033e-16
9.46768e-16
2.7576e-15
1.8493e-14
1.3167e-13
8.14184e-13
4.30322e-12
1.95229e-11
2.58322e-11
4.51003e-12
6.90951e-13
8.83939e-14
1.3193e-14
6.15275e-15
6.30867e-15
6.75513e-15
8.39953e-15
2.20931e-14
1.22097e-13
7.30215e-13
3.8597e-12
1.7621e-11
3.35717e-11
5.52096e-12
7.9653e-13
1.08326e-13
3.74355e-14
3.91947e-14
4.55081e-14
4.9196e-14
5.21243e-14
6.45311e-14
1.52372e-13
6.88016e-13
3.46311e-12
1.58854e-11
4.26006e-11
6.6634e-12
9.59167e-13
2.05044e-13
1.81105e-13
2.34861e-13
2.8009e-13
3.08536e-13
3.26334e-13
3.48735e-13
4.46893e-13
1.01036e-12
3.88555e-12
1.69818e-11
5.36758e-11
8.4103e-12
1.45283e-12
6.8199e-13
9.00584e-13
1.22148e-12
1.4784e-12
1.65953e-12
1.78446e-12
1.89899e-12
2.1191e-12
3.06248e-12