/*--------------------------------*- C++ -*----------------------------------*\
| =========                 |                                                 |
| \\      /  F ield         | OpenFOAM: The Open Source CFD Toolbox           |
|  \\    /   O peration     | Version:  v2106                                 |
|   \\  /    A nd           | Website:  www.openfoam.com                      |
|    \\/     M anipulation  |                                                 |
\*---------------------------------------------------------------------------*/
FoamFile
{
    version     2.0;
    format      ascii;
    arch        "LSB;label=32;scalar=64";
    class       volScalarField;
    location    "0.000157";
    object      nut;
}
// * * * * * * * * * * * * * * * * * * * * * * * * * * * * * * * * * * * * * //

dimensions      [0 2 -1 0 0 0 0];

internalField   nonuniform List<scalar> 
18109
(
1.16524e-06
3.32433e-07
7.19125e-08
1.68001e-08
8.98265e-09
8.97678e-09
1.16584e-08
8.48332e-07
1.97202e-07
2.77992e-08
3.33888e-09
8.59765e-10
8.21494e-10
1.2825e-09
6.16446e-07
1.29727e-07
1.74804e-08
2.3069e-09
3.74778e-10
8.84371e-11
8.82591e-11
4.57376e-07
1.02311e-07
1.819e-08
3.18315e-09
5.49877e-10
7.98213e-11
1.18141e-11
3.45637e-07
8.72996e-08
1.92779e-08
3.68189e-09
6.23208e-10
8.81147e-11
1.03927e-11
2.86412e-07
8.06025e-08
1.94287e-08
3.66596e-09
5.85439e-10
8.31359e-11
1.25572e-11
2.68685e-07
8.16195e-08
1.9807e-08
3.54656e-09
5.56909e-10
9.91561e-11
3.85065e-11
2.9059e-07
8.97303e-08
2.08844e-08
3.61903e-09
6.81649e-10
2.46234e-10
2.04668e-10
4.89498e-07
1.22759e-07
2.12108e-08
3.46436e-09
1.5964e-09
1.75226e-09
2.44825e-09
3.51213e-09
4.89966e-09
6.79236e-09
1.03067e-08
1.82776e-08
3.77288e-08
8.69001e-08
3.18285e-07
6.68165e-08
8.37453e-09
7.97429e-10
1.44271e-10
1.25175e-10
2.1201e-10
3.60512e-10
5.49754e-10
7.77553e-10
1.23802e-09
2.75043e-09
8.68173e-09
3.31153e-08
2.12721e-07
4.35859e-08
6.14417e-09
7.87292e-10
1.13485e-10
1.82793e-11
1.19583e-11
2.18894e-11
3.84768e-11
6.38309e-11
1.65415e-10
7.53643e-10
3.83038e-09
1.74403e-08
1.56274e-07
3.58625e-08
6.83454e-09
1.12127e-09
1.66864e-10
2.08756e-11
2.35514e-12
8.29366e-13
1.68789e-12
7.28521e-12
5.01607e-11
3.37203e-10
1.92754e-09
9.10217e-09
1.2438e-07
3.20779e-08
7.14088e-09
1.2844e-09
1.8686e-10
2.27673e-11
2.2955e-12
2.44103e-13
3.02762e-13
2.63783e-12
2.29509e-11
1.66101e-10
9.89354e-10
4.86195e-09
1.10019e-07
3.04808e-08
7.13104e-09
1.28488e-09
1.7443e-10
2.07994e-11
2.57277e-12
7.73801e-13
7.08438e-13
2.03299e-12
1.46372e-11
1.079e-10
6.71747e-10
3.49053e-09
1.09578e-07
3.16994e-08
7.33771e-09
1.25977e-09
1.63694e-10
2.3446e-11
7.66227e-12
6.11835e-12
5.81045e-12
6.78043e-12
1.84793e-11
1.08758e-10
6.79846e-10
3.66975e-09
1.23415e-07
3.55008e-08
7.81605e-09
1.26942e-09
1.85379e-10
5.62409e-11
4.48584e-11
4.39709e-11
4.27901e-11
4.40979e-11
6.21882e-11
1.89558e-10
9.84963e-10
5.1355e-09
1.47322e-07
4.04163e-08
8.51037e-09
1.44616e-09
3.62367e-10
2.49074e-10
2.53119e-10
2.56963e-10
2.55145e-10
2.6407e-10
3.1448e-10
5.62921e-10
1.95535e-09
8.81713e-09
1.7804e-07
4.73076e-08
1.05155e-08
2.51042e-09
1.25352e-09
1.16658e-09
1.21732e-09
1.24738e-09
1.26306e-09
1.33556e-09
1.53643e-09
2.15486e-09
5.14196e-09
1.87687e-08
2.22715e-07
6.6042e-08
1.94398e-08
7.54504e-09
5.07675e-09
4.89301e-09
5.00655e-09
5.13525e-09
5.29694e-09
5.73597e-09
6.59888e-09
8.35151e-09
1.54697e-08
4.58884e-08
3.51706e-07
1.46112e-07
6.06926e-08
2.8975e-08
1.97098e-08
1.80742e-08
1.79141e-08
1.8244e-08
1.90722e-08
2.1092e-08
2.45998e-08
2.99162e-08
4.67452e-08
1.14804e-07
7.49619e-07
4.00771e-07
2.03653e-07
1.07905e-07
6.94371e-08
5.8788e-08
5.62743e-08
5.65595e-08
5.9526e-08
6.68913e-08
7.97814e-08
9.6771e-08
1.34713e-07
2.72631e-07
1.59488e-06
1.00633e-06
5.98835e-07
3.50695e-07
2.20163e-07
1.70223e-07
1.55996e-07
1.54001e-07
1.61461e-07
1.82328e-07
2.22929e-07
2.76092e-07
3.58815e-07
5.83022e-07
1.61685e-06
2.68678e-06
4.88218e-06
8.24997e-06
1.23693e-05
1.6475e-05
6.63948e-07
1.25975e-06
2.63772e-06
5.05857e-06
8.45254e-06
1.21404e-05
2.22853e-07
6.02816e-07
1.6427e-06
3.63177e-06
6.44668e-06
9.58565e-06
7.05325e-08
3.09834e-07
1.01865e-06
2.4546e-06
4.60705e-06
7.2643e-06
2.8273e-08
1.63662e-07
6.12062e-07
1.61856e-06
3.28453e-06
5.57215e-06
1.67811e-08
1.03226e-07
4.14862e-07
1.17102e-06
2.53156e-06
4.56385e-06
1.51854e-08
8.80883e-08
3.48123e-07
9.90873e-07
2.19509e-06
4.07225e-06
1.79452e-08
9.48937e-08
3.50723e-07
9.65722e-07
2.13048e-06
4.1117e-06
2.28363e-08
1.10406e-07
3.83198e-07
1.02813e-06
2.34083e-06
4.99863e-06
2.97619e-08
1.3375e-07
4.49026e-07
1.23525e-06
3.02439e-06
6.82936e-06
4.00066e-08
1.72783e-07
5.86415e-07
1.6693e-06
4.12988e-06
8.91311e-06
5.9248e-08
2.46401e-07
8.29412e-07
2.30255e-06
5.31646e-06
1.03346e-05
9.95603e-08
3.83987e-07
1.18267e-06
2.93239e-06
6.0306e-06
1.04985e-05
1.80757e-07
5.90311e-07
1.552e-06
3.35737e-06
6.16815e-06
9.81454e-06
3.49422e-07
8.80218e-07
1.91265e-06
3.60383e-06
6.00216e-06
8.91463e-06
1.71904e-07
5.21219e-07
1.33599e-06
2.82862e-06
5.03306e-06
7.65997e-06
1.21095e-07
3.64442e-07
9.50884e-07
2.09098e-06
3.89507e-06
6.22082e-06
6.60127e-08
2.10497e-07
5.83893e-07
1.37758e-06
2.76997e-06
4.83065e-06
3.54632e-08
1.21232e-07
3.58791e-07
9.12174e-07
1.99965e-06
3.75516e-06
1.99883e-08
7.50827e-08
2.43612e-07
6.73786e-07
1.57806e-06
3.09818e-06
1.53412e-08
6.22775e-08
2.13016e-07
6.05794e-07
1.4289e-06
2.82881e-06
1.66455e-08
6.87029e-08
2.32029e-07
6.43839e-07
1.49822e-06
3.05843e-06
2.26643e-08
9.02274e-08
2.93634e-07
8.02591e-07
1.92407e-06
4.23111e-06
3.59763e-08
1.36203e-07
4.3477e-07
1.20212e-06
2.95157e-06
6.47429e-06
6.83937e-08
2.42318e-07
7.41004e-07
1.96988e-06
4.55706e-06
9.13369e-06
1.47027e-07
4.70865e-07
1.30439e-06
3.09525e-06
6.32292e-06
1.11423e-05
3.26511e-07
8.96052e-07
2.1068e-06
4.28719e-06
7.63175e-06
1.19309e-05
6.75774e-07
1.51634e-06
2.99945e-06
5.26684e-06
8.30464e-06
1.18204e-05
1.27374e-06
2.33305e-06
3.92066e-06
6.05416e-06
8.64218e-06
1.1442e-05
1.02332e-06
2.01908e-06
3.56479e-06
5.65382e-06
8.11852e-06
1.06561e-05
8.61141e-07
1.71623e-06
3.05815e-06
4.89725e-06
7.09963e-06
9.46968e-06
6.7964e-07
1.3784e-06
2.49722e-06
4.0728e-06
6.06679e-06
8.32812e-06
5.32631e-07
1.10689e-06
2.04972e-06
3.43646e-06
5.25668e-06
7.44053e-06
4.30259e-07
9.27478e-07
1.78148e-06
3.07427e-06
4.84714e-06
7.31788e-06
3.86423e-07
8.60921e-07
1.68861e-06
2.99638e-06
5.10556e-06
9.0005e-06
3.72555e-07
8.46759e-07
1.72638e-06
3.38025e-06
6.73867e-06
1.33905e-05
3.84578e-07
9.1845e-07
2.09235e-06
4.68764e-06
9.98322e-06
1.92772e-05
4.47202e-07
1.17754e-06
2.95283e-06
6.80112e-06
1.38549e-05
2.42551e-05
6.23223e-07
1.6925e-06
4.15631e-06
8.90486e-06
1.65509e-05
2.646e-05
9.6199e-07
2.3955e-06
5.30746e-06
1.02439e-05
1.735e-05
2.56859e-05
1.45958e-06
3.15018e-06
6.15079e-06
1.07312e-05
1.67276e-05
2.32042e-05
2.11419e-06
3.91482e-06
6.7572e-06
1.07013e-05
1.55406e-05
2.06102e-05
2.92432e-06
4.73009e-06
7.30541e-06
1.06498e-05
1.45374e-05
1.83936e-05
1.48395e-06
3.93133e-06
8.72705e-06
1.61159e-05
2.52158e-05
3.44896e-05
1.83348e-06
4.29146e-06
8.70182e-06
1.50684e-05
2.2503e-05
2.9833e-05
2.20204e-06
4.49985e-06
8.32035e-06
1.3571e-05
1.94867e-05
2.50837e-05
2.64012e-06
4.73383e-06
7.97801e-06
1.21194e-05
1.66888e-05
2.09417e-05
1.85922e-06
3.18694e-06
5.64491e-06
8.90242e-06
1.24154e-05
1.58169e-05
1.11999e-06
2.42343e-06
4.66772e-06
7.54042e-06
1.06112e-05
1.35792e-05
8.20012e-07
1.93608e-06
3.67922e-06
5.94234e-06
8.58232e-06
1.1441e-05
6.50282e-07
1.50043e-06
2.84692e-06
4.73906e-06
7.1216e-06
9.93367e-06
5.17058e-07
1.19386e-06
2.3382e-06
4.0425e-06
6.36937e-06
9.68886e-06
4.119e-07
9.86639e-07
2.03192e-06
3.73214e-06
6.50516e-06
1.18168e-05
3.47556e-07
8.86353e-07
1.95635e-06
3.99935e-06
8.18448e-06
1.66768e-05
3.2557e-07
8.93089e-07
2.18252e-06
5.07878e-06
1.12435e-05
2.23784e-05
3.48633e-07
1.03249e-06
2.78565e-06
6.83464e-06
1.4651e-05
2.66172e-05
4.16172e-07
1.28413e-06
3.53994e-06
8.3588e-06
1.66403e-05
2.79425e-05
5.40127e-07
1.60669e-06
4.15428e-06
9.01229e-06
1.66087e-05
2.61927e-05
7.11519e-07
1.89704e-06
4.42801e-06
8.82533e-06
1.52325e-05
2.27062e-05
9.4014e-07
2.14469e-06
4.44736e-06
8.17901e-06
1.33154e-05
1.89296e-05
1.23184e-06
2.40721e-06
4.466e-06
7.53014e-06
1.15064e-05
1.56845e-05
1.57938e-05
2.05148e-05
2.52604e-05
3.06537e-05
3.36665e-05
1.29299e-05
1.70882e-05
2.16076e-05
2.89031e-05
3.52459e-05
1.05113e-05
1.43072e-05
1.9385e-05
2.98286e-05
3.82597e-05
8.59777e-06
1.23486e-05
1.96557e-05
3.48311e-05
4.35744e-05
7.28884e-06
1.17513e-05
2.32439e-05
4.20002e-05
4.84823e-05
6.77764e-06
1.3733e-05
3.01989e-05
4.71993e-05
5.03202e-05
7.76692e-06
1.87696e-05
3.7604e-05
4.92421e-05
4.97674e-05
1.04414e-05
2.5009e-05
4.21875e-05
4.87142e-05
4.91412e-05
4.95199e-05
1.39367e-05
2.9754e-05
4.30227e-05
4.58779e-05
4.6555e-05
4.92873e-05
1.64665e-05
3.0997e-05
4.04555e-05
4.16231e-05
4.24085e-05
4.7436e-05
1.71017e-05
2.95195e-05
3.72182e-05
3.83936e-05
3.8324e-05
4.44413e-05
5.38858e-05
1.59264e-05
2.63054e-05
3.39317e-05
3.66207e-05
3.53427e-05
3.91908e-05
5.88374e-05
6.00176e-05
1.38481e-05
2.25222e-05
3.04009e-05
3.56611e-05
3.43311e-05
3.16558e-05
5.50787e-05
0.000129861
1.18241e-05
1.91127e-05
2.69751e-05
3.40992e-05
3.48249e-05
2.96005e-05
3.00533e-05
0.000135279
1.00192e-05
1.65587e-05
2.41065e-05
3.12888e-05
3.39565e-05
3.15144e-05
3.08122e-05
0.000123206
8.5753e-06
1.42496e-05
2.08787e-05
2.77249e-05
3.23865e-05
3.32133e-05
3.30624e-05
0.00011403
7.21057e-06
1.20742e-05
1.78496e-05
2.53776e-05
3.25252e-05
3.61052e-05
3.54712e-05
6.28599e-05
5.93434e-06
1.02044e-05
1.60387e-05
2.60895e-05
3.6151e-05
4.1106e-05
3.86196e-05
8.67858e-05
5.10519e-06
9.12744e-06
1.63704e-05
2.98296e-05
4.14574e-05
4.60401e-05
4.21183e-05
0.000100277
4.83697e-06
9.90013e-06
2.03214e-05
3.49047e-05
4.5482e-05
4.91308e-05
4.48026e-05
8.53233e-05
5.85163e-06
1.38059e-05
2.74325e-05
4.01983e-05
4.7164e-05
5.07489e-05
4.73463e-05
3.66518e-05
8.64535e-06
1.99224e-05
3.40181e-05
4.26057e-05
4.70039e-05
5.23084e-05
5.07366e-05
3.78168e-05
1.24844e-05
2.5376e-05
3.70178e-05
4.11419e-05
4.42751e-05
5.16197e-05
1.57217e-05
2.78788e-05
3.58432e-05
3.71452e-05
3.94865e-05
4.92862e-05
1.70676e-05
2.74781e-05
3.34034e-05
3.418e-05
3.49729e-05
4.61688e-05
1.66242e-05
2.53998e-05
3.13913e-05
3.35445e-05
3.24503e-05
4.11967e-05
1.53361e-05
2.2925e-05
2.93925e-05
3.40279e-05
3.30413e-05
3.64723e-05
1.40599e-05
2.07683e-05
2.75533e-05
3.4073e-05
3.59879e-05
1.28732e-05
1.89774e-05
2.57291e-05
3.40142e-05
3.9823e-05
1.15833e-05
1.71951e-05
2.42948e-05
3.55598e-05
4.37467e-05
1.04572e-05
1.59223e-05
2.57207e-05
4.02828e-05
4.88402e-05
9.89739e-06
1.70629e-05
3.22508e-05
4.82054e-05
5.52329e-05
1.13126e-05
2.33474e-05
4.26035e-05
5.53222e-05
5.93427e-05
1.62976e-05
3.42516e-05
5.17121e-05
5.75604e-05
5.93297e-05
2.43796e-05
4.45456e-05
5.49522e-05
5.50206e-05
5.6977e-05
3.18522e-05
4.8785e-05
5.21052e-05
4.9905e-05
5.44843e-05
3.5854e-05
4.78294e-05
4.69179e-05
4.40162e-05
5.01463e-05
3.56783e-05
4.39947e-05
4.17537e-05
3.89339e-05
4.49337e-05
3.25154e-05
3.91681e-05
3.8459e-05
3.63768e-05
3.98676e-05
2.81531e-05
3.39706e-05
3.59484e-05
3.60133e-05
3.68541e-05
2.40802e-05
2.91111e-05
3.2445e-05
3.6048e-05
3.74597e-05
2.08987e-05
2.50573e-05
2.90525e-05
3.63945e-05
4.02802e-05
1.83184e-05
2.17187e-05
2.71155e-05
3.85074e-05
4.48306e-05
1.60141e-05
1.92633e-05
2.81201e-05
4.33827e-05
4.93934e-05
1.40402e-05
1.90868e-05
3.43724e-05
5.09817e-05
5.38091e-05
1.32365e-05
2.34443e-05
4.63309e-05
5.95537e-05
5.794e-05
1.56252e-05
3.37591e-05
5.77363e-05
6.35189e-05
5.90007e-05
2.22956e-05
4.68666e-05
6.31126e-05
6.14637e-05
5.69336e-05
3.09434e-05
5.48468e-05
6.12917e-05
5.64671e-05
5.43552e-05
3.74855e-05
5.58753e-05
5.61028e-05
5.15032e-05
5.27918e-05
4.03438e-05
5.33508e-05
5.0433e-05
4.63339e-05
4.9421e-05
3.91703e-05
4.87377e-05
4.53155e-05
4.16131e-05
4.47003e-05
3.50444e-05
4.31947e-05
4.18897e-05
3.86274e-05
3.93163e-05
2.93738e-05
3.6465e-05
3.87031e-05
3.71102e-05
3.44011e-05
2.36843e-05
2.99803e-05
3.43337e-05
3.57823e-05
3.21909e-05
1.91565e-05
2.45889e-05
2.9523e-05
3.34811e-05
3.24981e-05
1.71587e-07
3.96001e-08
6.18532e-09
7.41093e-10
2.3545e-10
2.56733e-10
3.66448e-10
5.18691e-10
6.82991e-10
8.35252e-10
1.01981e-09
1.64309e-09
4.21049e-09
1.48414e-08
8.72665e-08
1.73606e-08
2.35382e-09
2.36595e-10
3.06474e-11
1.5684e-11
2.52423e-11
4.31854e-11
6.49022e-11
8.23916e-11
1.07742e-10
2.77894e-10
1.38762e-09
7.71407e-09
5.27593e-08
1.14662e-08
2.03097e-09
3.07801e-10
4.12661e-11
5.22528e-12
1.46826e-12
2.15725e-12
3.73236e-12
5.95092e-12
1.76325e-11
1.16764e-10
7.92507e-10
4.52615e-09
4.27936e-08
1.10456e-08
2.41117e-09
4.35331e-10
6.17943e-11
7.06923e-12
6.61685e-13
1.11236e-13
1.43022e-13
6.86193e-13
6.47761e-12
5.73505e-11
4.14029e-10
2.41753e-09
3.94457e-08
1.0922e-08
2.57677e-09
4.98526e-10
7.16666e-11
7.83899e-12
6.91716e-13
5.86287e-14
3.05957e-14
2.74667e-13
3.10637e-12
2.86752e-11
2.12411e-10
1.27214e-09
3.8603e-08
1.10179e-08
2.64716e-09
5.02466e-10
6.83399e-11
7.05271e-12
6.99108e-13
1.5477e-13
1.134e-13
2.34069e-13
1.88564e-12
1.72786e-11
1.30361e-10
7.99116e-10
4.25391e-08
1.22232e-08
2.82888e-09
5.05887e-10
6.48334e-11
7.23903e-12
1.72135e-12
1.23651e-12
1.11424e-12
1.07809e-12
2.23122e-12
1.40097e-11
1.03065e-10
6.47974e-10
5.14859e-08
1.42136e-08
3.06926e-09
5.1096e-10
6.57021e-11
1.4021e-11
1.01575e-11
9.71674e-12
9.18733e-12
8.53195e-12
9.38944e-12
2.14885e-11
1.16522e-10
7.17316e-10
6.33455e-08
1.64725e-08
3.36832e-09
5.55388e-10
1.02485e-10
6.01108e-11
6.20216e-11
6.2516e-11
6.0999e-11
5.85682e-11
6.01047e-11
7.81331e-11
2.11758e-10
1.04422e-09
7.80256e-08
1.93768e-08
3.95047e-09
7.75227e-10
3.12739e-10
2.97437e-10
3.2326e-10
3.32855e-10
3.34512e-10
3.34158e-10
3.49123e-10
3.89689e-10
6.33676e-10
2.09855e-09
9.71718e-08
2.46472e-08
5.71421e-09
1.76959e-09
1.26564e-09
1.32606e-09
1.43163e-09
1.4947e-09
1.54619e-09
1.60666e-09
1.73388e-09
1.88478e-09
2.47338e-09
5.97101e-09
1.46867e-07
4.56028e-08
1.40996e-08
6.14515e-09
4.98193e-09
5.16045e-09
5.46439e-09
5.74978e-09
6.10631e-09
6.57914e-09
7.36101e-09
8.12374e-09
9.82867e-09
1.91098e-08
3.03621e-07
1.24784e-07
4.83133e-08
2.28143e-08
1.74421e-08
1.74704e-08
1.81692e-08
1.91801e-08
2.08352e-08
2.31607e-08
2.69135e-08
3.07616e-08
3.64919e-08
5.98161e-08
7.09677e-07
3.53122e-07
1.60473e-07
7.8448e-08
5.38302e-08
5.13298e-08
5.28821e-08
5.58914e-08
6.17397e-08
7.02445e-08
8.47026e-08
1.01232e-07
1.22049e-07
1.75479e-07
2.00322e-08
4.01274e-09
6.44167e-10
1.10682e-10
4.46761e-11
4.56811e-11
6.33017e-11
8.02568e-11
9.59205e-11
1.02119e-10
9.36639e-11
9.13873e-11
2.0547e-10
1.07337e-09
8.83542e-09
1.7472e-09
2.86095e-10
4.14398e-11
6.24202e-12
2.68956e-12
4.09276e-12
6.33372e-12
8.72844e-12
9.96835e-12
9.15241e-12
1.65088e-11
1.06374e-10
8.04711e-10
7.24396e-09
1.79889e-09
3.78072e-10
6.79268e-11
1.00863e-11
1.18143e-12
2.54752e-13
3.16027e-13
4.966e-13
6.68888e-13
1.18476e-12
8.64173e-12
7.78707e-11
5.82058e-10
8.40476e-09
2.2445e-09
5.10085e-10
9.85839e-11
1.534e-11
1.72094e-12
1.46324e-13
2.12989e-14
2.10619e-14
4.83344e-14
4.45996e-13
5.30377e-12
5.07408e-11
3.81555e-10
9.16624e-09
2.51256e-09
5.97313e-10
1.18505e-10
1.84098e-11
2.02347e-12
1.5777e-13
1.07203e-14
2.55162e-15
1.65776e-14
2.54932e-13
3.20425e-12
3.10992e-11
2.35787e-10
9.94462e-09
2.7437e-09
6.41684e-10
1.22138e-10
1.79243e-11
1.86263e-12
1.46269e-13
1.8113e-14
9.36334e-15
1.55423e-14
1.63082e-13
2.0489e-12
2.01668e-11
1.55126e-10
1.16573e-08
3.15613e-09
7.04927e-10
1.26318e-10
1.74058e-11
1.7834e-12
2.41536e-13
1.26936e-13
1.05363e-13
8.97889e-14
1.75971e-13
1.5027e-12
1.44637e-11
1.12657e-10
1.43981e-08
3.7196e-09
7.78008e-10
1.29717e-10
1.70693e-11
2.43672e-12
1.24316e-12
1.11035e-12
9.92829e-13
8.38234e-13
7.75307e-13
1.73273e-12
1.21384e-11
9.38928e-11
1.77169e-08
4.34949e-09
8.60117e-10
1.37729e-10
2.11514e-11
8.39887e-12
8.36621e-12
8.15345e-12
7.56502e-12
6.67501e-12
5.92281e-12
6.36086e-12
1.6242e-11
1.00813e-10
2.20647e-08
5.15853e-09
9.84172e-10
1.67702e-10
4.90629e-11
4.36059e-11
4.93945e-11
4.96789e-11
4.76674e-11
4.40853e-11
4.07191e-11
3.87764e-11
4.77252e-11
1.48876e-10
2.66813e-08
6.02081e-09
1.18173e-09
2.85282e-10
1.89731e-10
2.15185e-10
2.47575e-10
2.55084e-10
2.53026e-10
2.45316e-10
2.37521e-10
2.26926e-10
2.30013e-10
4.06439e-10
3.44701e-08
8.27613e-09
1.95297e-09
8.10384e-10
7.96415e-10
9.31962e-10
1.06393e-09
1.11842e-09
1.14527e-09
1.16223e-09
1.17978e-09
1.16253e-09
1.14424e-09
1.58309e-09
5.5868e-08
1.66635e-08
5.07846e-09
2.8219e-09
3.02737e-09
3.51781e-09
3.96331e-09
4.23744e-09
4.47134e-09
4.73265e-09
5.02978e-09
5.17667e-09
5.20823e-09
6.32619e-09
1.28104e-07
4.67159e-08
1.67291e-08
9.52416e-09
9.95588e-09
1.15441e-08
1.28922e-08
1.39827e-08
1.51439e-08
1.6602e-08
1.84207e-08
1.99544e-08
2.11577e-08
2.386e-08
1.74512e-09
3.42213e-10
7.13847e-11
2.26202e-11
1.25606e-11
1.09439e-11
1.343e-11
1.57173e-11
1.72365e-11
1.66493e-11
1.27518e-11
8.88003e-12
1.15755e-11
6.91945e-11
9.15154e-10
1.95467e-10
3.6997e-11
6.39593e-12
1.22002e-12
5.95602e-13
8.47234e-13
1.23001e-12
1.58612e-12
1.73042e-12
1.3604e-12
1.27336e-12
6.90102e-12
6.32061e-11
1.17411e-09
2.94806e-10
6.38256e-11
1.20041e-11
1.91794e-12
2.57621e-13
5.48826e-14
6.32574e-14
9.47501e-14
1.20427e-13
1.21928e-13
5.24557e-13
5.74656e-12
5.33589e-11
1.5811e-09
4.12081e-10
9.43492e-11
1.86232e-11
3.03721e-12
3.86441e-13
3.58581e-14
4.95272e-15
4.84611e-15
6.7368e-15
2.43343e-14
3.38669e-13
4.23174e-12
4.02597e-11
1.89679e-09
5.07473e-10
1.18677e-10
2.34613e-11
3.75963e-12
4.63727e-13
4.01571e-14
2.49426e-15
4.21615e-16
8.9739e-16
1.35287e-14
2.31705e-13
2.97673e-12
2.88371e-11
2.2067e-09
5.82882e-10
1.32062e-10
2.49085e-11
3.77579e-12
4.40719e-13
3.69924e-14
2.85436e-15
8.25557e-16
8.63683e-16
9.095e-15
1.58967e-13
2.09835e-12
2.08232e-11
2.70436e-09
6.93322e-10
1.49344e-10
2.64557e-11
3.74545e-12
4.1496e-13
4.24763e-14
1.25935e-14
9.23485e-15
7.08947e-15
1.11258e-14
1.19825e-13
1.55399e-12
1.55903e-11
3.37922e-09
8.26165e-10
1.6722e-10
2.76439e-11
3.6924e-12
4.63569e-13
1.41465e-13
1.11486e-13
9.48667e-14
7.50603e-14
6.07411e-14
1.28977e-13
1.18403e-12
1.17747e-11
4.15595e-09
9.69975e-10
1.85906e-10
2.91965e-11
4.11666e-12
1.12145e-12
9.43377e-13
8.98312e-13
8.01423e-13
6.6598e-13
5.35604e-13
5.10701e-13
1.30305e-12
1.04285e-11
5.14116e-09
1.1451e-09
2.09881e-10
3.32374e-11
7.45729e-12
5.53686e-12
6.12802e-12
6.09636e-12
5.64857e-12
4.92129e-12
4.16489e-12
3.63636e-12
3.79179e-12
1.19483e-11
6.04176e-09
1.28914e-09
2.34778e-10
4.6942e-11
2.5937e-11
2.95311e-11
3.43483e-11
3.51309e-11
3.37513e-11
3.07823e-11
2.74226e-11
2.43259e-11
2.16212e-11
3.0917e-11
7.20032e-09
1.52999e-09
3.11289e-10
1.12414e-10
1.14e-10
1.41373e-10
1.6582e-10
1.73748e-10
1.72738e-10
1.64575e-10
1.53689e-10
1.40558e-10
1.2483e-10
1.39472e-10
9.43215e-09
2.29541e-09
6.21012e-10
3.87896e-10
4.7432e-10
5.93444e-10
6.95235e-10
7.44567e-10
7.64639e-10
7.5958e-10
7.41308e-10
7.04074e-10
6.44479e-10
6.59053e-10
1.7711e-08
5.36255e-09
1.81149e-09
1.37046e-09
1.74376e-09
2.18384e-09
2.55117e-09
2.78562e-09
2.94377e-09
3.03611e-09
3.08692e-09
3.06114e-09
2.93543e-09
2.90752e-09
2.08371e-10
4.35821e-11
1.06166e-11
3.9197e-12
2.42943e-12
2.35522e-12
2.86811e-12
3.39252e-12
3.71305e-12
3.51284e-12
2.56569e-12
1.54927e-12
1.18365e-12
6.09731e-12
1.43772e-10
3.23196e-11
6.50017e-12
1.20593e-12
2.52768e-13
1.35677e-13
1.84549e-13
2.66496e-13
3.45954e-13
3.77273e-13
2.97037e-13
1.98731e-13
5.90011e-13
5.85486e-12
2.24728e-10
5.57579e-11
1.22032e-11
2.35379e-12
3.91589e-13
5.6854e-14
1.34937e-14
1.47932e-14
2.20379e-14
2.77141e-14
2.49581e-14
4.70278e-14
5.07845e-13
5.45041e-12
3.21144e-10
8.26144e-11
1.89002e-11
3.75267e-12
6.25469e-13
8.40547e-14
8.9345e-15
1.378e-15
1.33913e-15
1.76275e-15
2.61547e-15
2.65442e-14
3.9499e-13
4.43856e-12
4.07138e-10
1.06331e-10
2.44445e-11
4.79771e-12
7.79327e-13
1.00925e-13
9.91065e-15
7.30293e-16
1.33085e-16
1.57293e-16
9.45168e-16
1.87417e-14
2.95293e-13
3.42091e-12
4.88551e-10
1.24173e-10
2.73469e-11
5.09463e-12
7.81884e-13
9.57698e-14
9.00246e-15
7.01982e-16
1.40392e-16
1.08368e-16
6.19364e-16
1.30895e-14
2.15555e-13
2.59848e-12
6.02451e-10
1.46797e-10
3.04955e-11
5.31245e-12
7.59241e-13
8.74236e-14
8.88087e-15
1.82506e-15
1.14005e-15
8.27184e-16
9.47172e-16
1.00736e-14
1.63413e-13
2.01007e-12
7.47415e-10
1.72916e-10
3.36831e-11
5.46787e-12
7.3322e-13
8.95071e-14
2.12041e-14
1.45658e-14
1.18713e-14
9.03506e-15
6.66055e-15
1.17403e-14
1.23794e-13
1.51506e-12
9.01995e-10
1.99007e-10
3.66472e-11
5.62243e-12
7.69653e-13
1.77871e-13
1.32037e-13
1.2249e-13
1.05827e-13
8.48055e-14
6.40457e-14
5.5749e-14
1.30453e-13
1.24188e-12
1.09353e-09
2.30432e-10
4.04928e-11
6.16745e-12
1.24931e-12
8.39093e-13
9.03593e-13
8.8677e-13
7.96418e-13
6.69005e-13
5.34077e-13
4.42096e-13
4.10648e-13
1.27033e-12
1.25647e-09
2.54486e-10
4.4042e-11
8.12709e-12
4.1361e-12
4.70176e-12
5.42959e-12
5.48814e-12
5.11296e-12
4.489e-12
3.77651e-12
3.19677e-12
2.60868e-12
3.29265e-12
1.42103e-09
2.83465e-10
5.3742e-11
1.82605e-11
1.8934e-11
2.41303e-11
2.83166e-11
2.93426e-11
2.82818e-11
2.58529e-11
2.27803e-11
1.98396e-11
1.63014e-11
1.64164e-11
1.69553e-09
3.7364e-10
9.55624e-11
6.42703e-11
8.39608e-11
1.09014e-10
1.28631e-10
1.36447e-10
1.3589e-10
1.29057e-10
1.18585e-10
1.06616e-10
9.03255e-11
8.52983e-11
2.71413e-09
7.4641e-10
2.60333e-10
2.41855e-10
3.33671e-10
4.34449e-10
5.13297e-10
5.55796e-10
5.6995e-10
5.6026e-10
5.34474e-10
4.97636e-10
4.4013e-10
4.08363e-10
2.66687e-11
5.66182e-12
1.43105e-12
5.70888e-13
4.22675e-13
4.66149e-13
5.95616e-13
7.24069e-13
8.09939e-13
7.72229e-13
5.63882e-13
3.23201e-13
1.65887e-13
5.10581e-13
2.47388e-11
5.69765e-12
1.17605e-12
2.24298e-13
4.92919e-14
2.90787e-14
4.07115e-14
5.92075e-14
7.78244e-14
8.53804e-14
6.84287e-14
4.14757e-14
5.326e-14
4.89935e-13
4.25198e-11
1.05056e-11
2.30883e-12
4.4905e-13
7.58793e-14
1.16106e-14
3.22484e-15
3.61556e-15
5.36223e-15
6.75129e-15
6.00406e-15
5.65084e-15
4.16659e-14
4.90921e-13
6.35434e-11
1.62768e-11
3.70518e-12
7.33608e-13
1.22976e-13
1.70124e-14
1.97145e-15
3.79435e-16
3.76562e-16
4.89902e-16
5.08903e-16
2.07709e-15
3.3072e-14
4.22634e-13
8.423e-11
2.16482e-11
4.89196e-12
9.50292e-13
1.54725e-13
2.05829e-14
2.18173e-15
2.10776e-16
6.27088e-17
6.43939e-17
1.06849e-16
1.40985e-15
2.5782e-14
3.44977e-13
1.03094e-10
2.55385e-11
5.50369e-12
1.01416e-12
1.56356e-13
1.9724e-14
1.99862e-15
1.92135e-16
5.32341e-17
4.42095e-17
7.07068e-17
9.85585e-16
1.91283e-14
2.70985e-13
1.26424e-10
2.97886e-11
6.03723e-12
1.03958e-12
1.49418e-13
1.76842e-14
1.82783e-15
3.09688e-16
1.6715e-16
1.22138e-16
1.10567e-16
7.72678e-16
1.46585e-14
2.14685e-13
1.54098e-10
3.43466e-11
6.52675e-12
1.04844e-12
1.41384e-13
1.70544e-14
3.26886e-15
1.87745e-15
1.45191e-15
1.0584e-15
7.28022e-16
1.0047e-15
1.10237e-14
1.62269e-13
1.81529e-10
3.84972e-11
6.91254e-12
1.04826e-12
1.41339e-13
2.82119e-14
1.77952e-14
1.57454e-14
1.3106e-14
1.00024e-14
7.10045e-15
5.64162e-15
1.15832e-14
1.27737e-13
2.12827e-10
4.31006e-11
7.38528e-12
1.10291e-12
2.05594e-13
1.21312e-13
1.24199e-13
1.1837e-13
1.02461e-13
8.18792e-14
6.14771e-14
4.78427e-14
4.01433e-14
1.20198e-13
2.37621e-10
4.62763e-11
7.76804e-12
1.36154e-12
6.30582e-13
6.94819e-13
7.81076e-13
7.67919e-13
6.889e-13
5.74922e-13
4.54869e-13
3.63494e-13
2.75652e-13
3.08436e-13
2.56497e-10
4.8991e-11
8.87606e-12
2.85352e-12
2.93309e-12
3.73611e-12
4.29587e-12
4.32883e-12
4.01217e-12
3.48223e-12
2.88202e-12
2.36696e-12
1.81472e-12
1.64836e-12
2.84687e-10
5.86977e-11
1.44496e-11
1.01125e-11
1.36105e-11
1.78114e-11
2.06832e-11
2.13273e-11
2.03956e-11
1.83653e-11
1.582e-11
1.33632e-11
1.05426e-11
9.15186e-12
4.00887e-10
1.02748e-10
3.7777e-11
4.00337e-11
5.72455e-11
7.53814e-11
8.79522e-11
9.25038e-11
9.09101e-11
8.46027e-11
7.5482e-11
6.5694e-11
5.39038e-11
4.64253e-11
3.14766e-12
6.81759e-13
1.7682e-13
7.60205e-14
6.731e-14
8.37136e-14
1.1326e-13
1.42567e-13
1.63657e-13
1.59041e-13
1.18309e-13
6.74081e-14
2.97692e-14
4.27378e-14
3.86647e-12
8.93134e-13
1.85572e-13
3.58902e-14
8.43425e-15
5.68423e-15
8.32185e-15
1.23005e-14
1.63206e-14
1.80635e-14
1.48028e-14
8.8902e-15
5.86973e-15
3.77294e-14
7.06365e-12
1.72976e-12
3.77306e-13
7.2952e-14
1.23365e-14
1.98656e-15
6.90557e-16
8.47391e-16
1.25084e-15
1.56228e-15
1.40829e-15
9.87994e-16
3.29314e-15
3.98809e-14
1.09797e-11
2.77856e-12
6.22538e-13
1.21509e-13
2.02184e-14
2.84272e-15
3.71248e-16
1.08415e-16
1.14651e-16
1.4135e-16
1.39429e-16
2.08101e-16
2.55615e-15
3.60221e-14
1.48933e-11
3.74722e-12
8.27154e-13
1.57722e-13
2.54445e-14
3.43167e-15
4.01828e-16
6.88864e-17
4.25776e-17
4.30434e-17
4.50815e-17
1.26999e-16
2.04636e-15
3.07658e-14
1.82428e-11
4.39733e-12
9.24119e-13
1.67289e-13
2.56105e-14
3.28211e-15
3.69044e-16
6.39959e-17
3.93076e-17
3.76867e-17
3.87408e-17
9.67254e-17
1.54187e-15
2.48944e-14
2.18987e-11
4.99106e-12
9.85002e-13
1.66709e-13
2.38386e-14
2.86982e-15
3.24045e-16
7.33136e-17
5.01181e-17
4.45623e-17
4.21075e-17
8.35211e-17
1.19431e-15
2.01593e-14
2.59204e-11
5.56593e-12
1.02957e-12
1.62656e-13
2.18311e-14
2.62583e-15
4.63636e-16
2.41731e-16
1.84483e-16
1.37301e-16
9.89483e-17
1.07481e-16
9.0538e-16
1.54334e-14
2.96148e-11
6.03024e-12
1.05229e-12
1.56621e-13
2.07575e-14
3.79208e-15
2.12386e-15
1.79938e-15
1.45021e-15
1.06364e-15
7.19541e-16
5.30199e-16
9.54655e-16
1.19195e-14
3.32681e-11
6.45798e-12
1.07415e-12
1.56626e-13
2.77082e-14
1.50712e-14
1.48558e-14
1.37549e-14
1.14938e-14
8.76213e-15
6.19911e-15
4.51152e-15
3.47711e-15
1.04788e-14
3.55236e-11
6.62036e-12
1.07472e-12
1.82003e-13
8.1308e-14
8.81982e-14
9.69927e-14
9.27065e-14
8.01409e-14
6.36845e-14
4.74102e-14
3.5536e-14
2.51629e-14
2.56622e-14
3.62923e-11
6.61763e-12
1.15522e-12
3.70183e-13
3.89223e-13
4.95225e-13
5.58634e-13
5.46802e-13
4.87317e-13
4.021e-13
3.12815e-13
2.40999e-13
1.72888e-13
1.43384e-13
3.74661e-11
7.29682e-12
1.78467e-12
1.36059e-12
1.89368e-12
2.48235e-12
2.83204e-12
2.83322e-12
2.59961e-12
2.22141e-12
1.79536e-12
1.41958e-12
1.04578e-12
8.38298e-13
4.77892e-11
1.16566e-11
4.71997e-12
5.69853e-12
8.40237e-12
1.11056e-11
1.27431e-11
1.29802e-11
1.22073e-11
1.07593e-11
8.98832e-12
7.30051e-12
5.57502e-12
4.45896e-12
3.50262e-13
7.73839e-14
2.0845e-14
1.02286e-14
1.06389e-14
1.43045e-14
1.99954e-14
2.57907e-14
2.99672e-14
2.94595e-14
2.22371e-14
1.27669e-14
5.48939e-15
4.03957e-15
5.43834e-13
1.24371e-13
2.56258e-14
4.98336e-15
1.29693e-15
1.04669e-15
1.58936e-15
2.35668e-15
3.10916e-15
3.43685e-15
2.84616e-15
1.72918e-15
8.56071e-16
2.85477e-15
1.03206e-12
2.4829e-13
5.3097e-14
1.01055e-14
1.71509e-15
3.13809e-16
1.5455e-16
2.00076e-16
2.81341e-16
3.40511e-16
3.09198e-16
2.11983e-16
3.01435e-16
3.08705e-15
1.6515e-12
4.08658e-13
8.91391e-14
1.70042e-14
2.80394e-15
4.19114e-16
8.38573e-17
4.94259e-17
5.23921e-17
5.81767e-17
5.76768e-17
5.60014e-17
2.207e-16
2.92666e-15
2.26539e-12
5.5357e-13
1.18413e-13
2.19965e-14
3.50413e-15
4.95811e-16
8.6333e-17
4.13457e-17
3.77976e-17
3.79704e-17
3.81172e-17
4.25717e-17
1.86545e-16
2.63723e-15
2.74872e-12
6.40776e-13
1.30377e-13
2.30042e-14
3.48096e-15
4.69499e-16
8.09388e-17
4.04169e-17
3.70654e-17
3.68453e-17
3.68953e-17
4.04569e-17
1.51529e-16
2.2264e-15
3.19947e-12
7.02069e-13
1.3409e-13
2.21422e-14
3.13841e-15
4.02276e-16
7.30924e-17
4.09238e-17
3.80038e-17
3.74115e-17
3.71454e-17
3.97579e-17
1.26448e-16
1.86421e-15
3.63818e-12
7.49488e-13
1.34214e-13
2.07162e-14
2.76296e-15
3.54181e-16
8.44683e-17
5.67398e-17
5.00984e-17
4.51504e-17
4.14867e-17
4.15387e-17
1.04663e-16
1.46281e-15
3.99445e-12
7.78127e-13
1.31386e-13
1.91016e-14
2.50796e-15
4.62103e-16
2.55651e-16
2.13577e-16
1.72809e-16
1.30081e-16
9.44575e-17
7.45237e-17
1.0727e-16
1.12903e-15
4.28297e-12
7.94708e-13
1.27905e-13
1.82027e-14
3.17146e-15
1.69308e-15
1.62223e-15
1.4595e-15
1.18238e-15
8.6736e-16
5.90877e-16
4.12543e-16
3.06244e-16
9.34129e-16
4.36425e-12
7.77418e-13
1.22133e-13
2.03484e-14
9.27601e-15
1.00253e-14
1.07611e-14
9.97711e-15
8.31297e-15
6.29799e-15
4.44443e-15
3.1408e-15
2.09953e-15
2.0173e-15
4.22994e-12
7.3762e-13
1.25427e-13
4.19908e-14
4.60733e-14
5.83065e-14
6.42457e-14
6.09323e-14
5.22149e-14
4.09851e-14
3.01325e-14
2.18412e-14
1.47444e-14
1.13037e-14
4.08856e-12
7.60303e-13
1.90956e-13
1.63401e-13
2.34012e-13
3.04901e-13
3.39961e-13
3.29143e-13
2.8975e-13
2.35119e-13
1.79196e-13
1.3303e-13
9.19856e-14
6.84505e-14
4.83302e-12
1.14588e-12
5.32055e-13
7.21743e-13
1.08694e-12
1.42915e-12
1.60325e-12
1.57779e-12
1.42035e-12
1.1868e-12
9.32965e-13
7.09711e-13
5.07033e-13
3.77123e-13
3.694e-14
8.21477e-15
2.28517e-15
1.29762e-15
1.53685e-15
2.17952e-15
3.11706e-15
4.09902e-15
4.82111e-15
4.79607e-15
3.67102e-15
2.14011e-15
9.38421e-16
4.74717e-16
6.84002e-14
1.53927e-14
3.13661e-15
6.31383e-16
2.02249e-16
1.91706e-16
2.84706e-16
4.12494e-16
5.36571e-16
5.91814e-16
4.97643e-16
3.15585e-16
1.60211e-16
2.43877e-16
1.33768e-13
3.14412e-14
6.55958e-15
1.24134e-15
2.33516e-16
7.07915e-17
5.50151e-17
6.41475e-17
7.79436e-17
8.77544e-17
8.23688e-17
6.55173e-17
5.94306e-17
2.55158e-16
2.18932e-13
5.25946e-14
1.11046e-14
2.07726e-15
3.60444e-16
8.06763e-17
4.23328e-17
3.87005e-17
3.94234e-17
4.04218e-17
4.02952e-17
3.93632e-17
4.85592e-17
2.54452e-16
3.008e-13
7.1e-14
1.46588e-14
2.65897e-15
4.39073e-16
8.88256e-17
4.23033e-17
3.72549e-17
3.68719e-17
3.69138e-17
3.69237e-17
3.71585e-17
4.665e-17
2.44265e-16
3.58746e-13
8.06162e-14
1.58406e-14
2.7324e-15
4.29842e-16
8.48739e-17
4.15794e-17
3.7116e-17
3.6738e-17
3.67108e-17
3.67096e-17
3.69484e-17
4.48968e-17
2.21033e-16
4.03002e-13
8.51042e-14
1.57192e-14
2.54517e-15
3.79432e-16
7.59198e-17
4.05498e-17
3.71325e-17
3.68163e-17
3.67543e-17
3.6725e-17
3.69045e-17
4.35299e-17
1.97664e-16
4.38316e-13
8.67578e-14
1.50472e-14
2.2845e-15
3.25261e-16
6.89986e-17
4.13253e-17
3.85011e-17
3.78369e-17
3.73789e-17
3.70612e-17
3.70381e-17
4.21368e-17
1.66797e-16
4.6021e-13
8.59786e-14
1.40669e-14
2.01659e-15
2.86239e-16
7.80144e-17
5.70778e-17
5.23912e-17
4.81021e-17
4.39619e-17
4.08207e-17
3.91508e-17
4.21088e-17
1.37778e-16
4.69358e-13
8.34905e-14
1.30326e-14
1.83444e-15
3.43507e-16
1.99832e-16