/*--------------------------------*- C++ -*----------------------------------*\
| =========                 |                                                 |
| \\      /  F ield         | OpenFOAM: The Open Source CFD Toolbox           |
|  \\    /   O peration     | Version:  v2106                                 |
|   \\  /    A nd           | Website:  www.openfoam.com                      |
|    \\/     M anipulation  |                                                 |
\*---------------------------------------------------------------------------*/
FoamFile
{
    version     2.0;
    format      ascii;
    arch        "LSB;label=32;scalar=64";
    class       volScalarField;
    location    "0.000157";
    object      p;
}
// * * * * * * * * * * * * * * * * * * * * * * * * * * * * * * * * * * * * * //

dimensions      [1 -1 -2 0 0 0 0];

internalField   nonuniform List<scalar> 
18109
(
218726
220068
220801
221579
222112
222514
222773
218429
219660
220519
221296
221879
222340
222662
218282
219391
220289
221074
221685
222180
222543
218233
219260
220144
220911
221520
222028
222413
218264
219209
220033
220761
221352
221857
222252
218384
219206
219945
220612
221168
221653
222044
218477
219182
219830
220428
220943
221402
221780
218596
219164
219673
220195
220665
221093
221453
221063
222224
222944
223669
224166
224545
224801
224973
225062
225136
225134
225210
225285
225443
220934
221982
222771
223467
223995
224414
224713
224946
225098
225220
225321
225447
225648
225823
220827
221799
222604
223306
223848
224287
224615
224881
225079
225238
225389
225533
225754
225931
220806
221717
222499
223179
223715
224162
224507
224785
225006
225176
225346
225511
225746
225977
220857
221686
222407
223050
223570
224011
224361
224643
224872
225052
225226
225405
225640
225896
220938
221660
222316
222904
223396
223821
224168
224449
224681
224871
225054
225242
225481
225742
221034
221609
222185
222716
223176
223583
223921
224201
224435
224636
224828
225023
225255
225508
221043
221521
222014
222488
222910
223292
223618
223898
224136
224350
224554
224756
224977
225213
220981
221380
221803
222209
222595
222956
223269
223548
223790
224015
224229
224434
224643
224853
220837
221162
221511
221866
222228
222569
222879
223165
223416
223657
223882
224089
224288
224468
220582
220839
221127
221456
221799
222135
222454
222753
223024
223284
223522
223737
223932
224088
220169
220396
220646
220962
221294
221651
221996
222330
222638
222929
223180
223396
223567
223701
219740
219866
220082
220389
220743
221138
221526
221909
222268
222609
222891
223133
223322
223419
218847
219080
219375
219744
220144
220594
221053
221512
221932
222315
222648
222861
223023
223076
219259
218703
218676
218333
218408
218287
221452
220856
220677
220309
220154
219881
222577
222262
222306
222265
222478
222580
223340
223310
223607
223862
224339
224772
223986
224167
224573
225020
225670
226363
224422
224713
225192
225748
226483
227228
224777
225055
225492
226017
226703
227359
224981
225149
225476
225841
226288
226777
225045
225064
225235
225361
225467
225581
225049
224920
224828
224621
224411
224112
225067
224765
224442
223917
223266
222388
224968
224563
224074
223353
222426
221157
225030
224596
224041
223208
222210
220911
225080
224711
224277
223576
222824
221701
225392
225067
224793
224289
223836
223137
225678
225451
225469
225319
225170
224991
226316
226264
226445
226550
226669
226846
226456
226679
227071
227493
227936
228448
226470
226912
227451
228066
228761
229522
226350
226899
227564
228333
229227
230209
226177
226712
227388
228185
229123
230130
225909
226374
226965
227659
228446
229311
225563
225900
226336
226798
227306
227861
225135
225327
225558
225715
225897
226029
224672
224693
224660
224510
224242
223808
224180
224035
223825
223395
222787
221984
223757
223518
223200
222642
221886
221058
223415
223126
222793
222293
221632
220899
223205
222893
222708
222272
221863
221413
223298
223120
223152
222992
222962
222753
223232
223203
223360
223463
223760
223985
222989
223135
223435
223813
224380
225023
222657
222841
223202
223747
224529
225468
222231
222334
222645
223168
223956
224888
221718
221649
221777
222086
222658
223336
221167
220845
220701
220627
220762
221017
220575
219980
219535
218975
218567
218174
220015
219162
218359
217227
216115
214822
219472
218412
217340
215824
214302
212377
219022
217909
216700
215012
213329
211254
218667
217577
216315
214868
213218
211496
218564
217479
216464
215229
214173
212992
218352
217300
216697
215896
215370
214777
217071
215540
213752
211631
209215
206567
217237
215893
214285
212429
210380
208381
217704
216510
215337
213943
212709
211489
218182
217113
216481
215674
215138
214596
219054
218450
218350
217762
217649
217363
219662
219297
219374
219153
219371
219532
220134
219966
220195
220287
220748
221357
220445
220363
220584
220863
221502
222293
220608
220461
220560
220820
221390
222068
220653
220298
220147
220117
220367
220649
220536
219896
219442
218939
218594
218346
220306
219421
218596
217570
216519
215375
220102
218992
217803
216207
214467
212433
219897
218585
217118
215153
213074
210523
219794
218466
216939
214879
212852
210279
219866
218668
217331
215518
213653
211535
220184
219154
218042
216735
215365
213988
220556
219574
218890
218070
217351
216621
219764
219724
222188
227257
235890
223002
223784
226293
230716
238483
225867
227141
229680
233749
242271
227727
229481
231868
235217
242602
228757
230581
232904
235905
241518
228785
230160
232013
234909
239890
227712
228515
230274
233272
239693
225586
225207
225744
228291
234914
241639
223247
221280
220402
221754
226312
231336
220797
217432
215773
216325
220765
225681
219250
215663
213679
214673
220576
227494
232721
219048
215668
214212
216513
224961
234884
248038
257377
220077
217670
216814
220063
230529
247597
272831
307112
222114
220805
220539
223846
232774
247147
268731
286829
224680
224244
224679
227521
233285
241694
256610
265146
227153
227465
228522
231382
236838
245268
253423
260780
229314
230349
231968
234612
240639
251333
266792
272720
230833
232431
234550
237162
242484
250878
263085
283887
231857
233999
236389
239091
243688
249635
256656
260050
231825
233972
236317
239417
244007
250680
257086
262169
230805
232723
235224
238921
244835
254390
263589
266730
228717
229757
231324
234479
240497
249201
259503
278389
226225
226086
226850
229038
233629
239128
222843
220899
220657
222722
228745
235263
220370
217870
217347
220556
228924
238555
219116
216598
216053
220658
231078
245515
219266
217454
217463
223037
235551
255772
220757
219804
220572
225513
235509
222706
222818
224304
228492
235371
224662
225817
228136
232629
239105
226423
228420
231493
235535
243597
227319
229990
233478
238282
246204
226894
229654
233662
238902
246281
224891
227415
231399
236635
244064
221802
223353
226870
232889
242405
217537
217503
219931
226132
236814
213131
211832
214185
219711
227272
210014
207682
209876
216138
224312
208477
205832
208868
217751
227019
208997
207046
210091
219729
231948
211352
210358
213922
223698
238274
213945
214080
217993
225910
238112
217149
218356
222217
228801
237798
220365
222266
226627
233413
242088
222889
225528
230027
236169
248163
224300
227046
231519
237998
248759
223800
225970
230319
235746
243759
221575
223034
226470
231687
238314
217999
218062
220697
226802
237012
213134
211165
212703
218771
229941
209365
206481
207409
211640
218415
207294
203646
204384
208711
215045
206899
203121
204646
211216
218034
208641
205775
207613
215146
225436
212023
210255
212213
220242
234096
215796
214962
217200
224024
236672
224763
225675
226300
226914
227327
227653
227886
228049
228165
228257
228337
228471
228587
228737
224709
225549
226181
226736
227159
227506
227769
227981
228158
228310
228468
228653
228879
229078
224637
225393
226029
226585
227008
227366
227652
227895
228111
228299
228496
228695
228938
229150
224639
225332
225938
226458
226876
227238
227539
227801
228035
228239
228450
228667
228928
229187
224697
225295
225848
226336
226742
227102
227409
227678
227920
228137
228353
228578
228842
229123
224744
225267
225754
226203
226595
226948
227257
227530
227776
228004
228228
228461
228729
229017
224780
225211
225642
226052
226423
226767
227074
227351
227602
227838
228071
228309
228576
228861
224796
225143
225513
225878
226227
226559
226862
227142
227398
227645
227889
228135
228399
228672
224752
225038
225353
225680
226008
226328
226626
226908
227170
227428
227683
227935
228193
228449
224627
224862
225139
225446
225763
226076
226372
226660
226931
227202
227470
227728
227982
228217
224451
224643
224890
225181
225492
225801
226102
226397
226680
226966
227248
227512
227767
227990
224140
224333
224563
224859
225172
225501
225823
226140
226444
226747
227039
227307
227560
227756
223781
223953
224171
224485
224826
225200
225554
225906
226241
226565
226871
227140
227406
227567
223122
223428
223703
224075
224461
224884
225294
225692
226066
226414
226734
226984
227182
227321
229823
230440
230851
231222
231487
231713
231889
232037
232176
232316
232487
232668
232851
233180
229812
230322
230707
231041
231304
231534
231735
231921
232114
232315
232543
232794
233045
233393
229788
230217
230578
230888
231151
231391
231615
231831
232056
232288
232542
232819
233097
233443
229811
230164
230486
230769
231027
231273
231514
231756
232006
232266
232539
232834
233134
233476
229842
230132
230412
230675
230929
231180
231432
231689
231953
232229
232513
232818
233130
233476
229898
230128
230364
230603
230851
231101
231359
231626
231899
232186
232478
232788
233107
233457
229948
230120
230320
230538
230778
231029
231292
231565
231844
232136
232432
232741
233061
233405
229972
230100
230276
230480
230714
230964
231229
231506
231789
232086
232386
232695
233015
233347
229959
230064
230222
230417
230648
230899
231165
231445
231730
232031
232338
232647
232963
233274
229880
229990
230145
230347
230584
230839
231109
231393
231682
231986
232295
232604
232914
233205
229775
229891
230051
230267
230511
230775
231051
231340
231635
231945
232262
232572
232874
233142
229597
229742
229916
230162
230428
230714
231005
231308
231611
231924
232241
232545
232837
233076
229387
229560
229753
230039
230336
230658
230971
231293
231609
231925
232241
232535
232817
233022
229044
229322
229569
229909
230248
230615
230959
231300
231626
231938
232244
232515
232792
232945
233965
234290
234456
234628
234786
234930
235068
235200
235342
235494
235681
235899
236128
236479
233905
234171
234341
234503
234659
234808
234960
235118
235290
235490
235721
235992
236257
236609
233923
234123
234281
234429
234581
234734
234895
235073
235268
235497
235743
236034
236321
236680
233972
234114
234244
234377
234525
234683
234858
235057
235275
235526
235793
236098
236401
236761
234025
234125
234234
234357
234504
234667
234854
235069
235299
235564
235841
236152
236463
236817
234086
234155
234244
234360
234505
234672
234866
235091
235334
235610
235895
236208
236522
236870
234142
234187
234264
234376
234523
234696
234900
235134
235384
235665
235952
236261
236573
236912
234185
234218
234292
234403
234556
234737
234950
235191
235447
235728
236015
236316
236621
236942
234208
234238
234317
234435
234597
234788
235010
235256
235516
235796
236082
236374
236672
236974
234203
234251
234342
234476
234652
234857
235088
235340
235603
235882
236165
236447
236735
237011
234175
234251
234360
234514
234708
234927
235170
235428
235694
235972
236254
236528
236807
237061
234135
234246
234380
234561
234776
235013
235269
235536
235807
236085
236364
236630
236895
237117
234097
234228
234390
234606
234847
235108
235381
235659
235935
236211
236484
236736
236983
237186
233975
234169
234391
234664
234940
235226
235514
235799
236076
236345
236604
236844
237072
237271
236980
237074
237113
237178
237242
237316
237398
237493
237599
237735
237892
238097
238301
238620
236893
236982
237024
237092
237163
237247
237342
237457
237586
237751
237940
238176
238412
238723
236876
236949
236994
237059
237135
237227
237336
237468
237613
237795
237990
238236
238486
238803
236900
236949
236993
237058
237138
237236
237354
237497
237658
237859
238073
238330
238591
238906
236942
236977
237022
237088
237172
237275
237402
237559
237733
237946
238169
238429
238696
239004
237007
237029
237070
237135
237223
237332
237469
237637
237824
238046
238276
238538
238806
239106
237075
237090
237133
237200
237297
237416
237564
237742
237936
238162
238394
238651
238916
239204
237149
237166
237214
237287
237393
237523
237682
237868
238068
238294
238524
238773
239031
239304
237216
237243
237300
237385
237504
237646
237816
238008
238211
238435
238660
238898
239146
239403
237292
237339
237410
237509
237641
237795
237975
238173
238377
238597
238816
239044
239279
239517
237365
237438
237525
237644
237790
237958
238146
238348
238555
238770
238983
239199
239420
239639
237461
237554
237661
237799
237959
238138
238334
238541
238748
238961
239169
239380
239589
239790
237578
237686
237815
237970
238143
238333
238536
238747
238957
239166
239369
239567
239762
239951
237700
237829
237990
238166
238352
238546
238751
238962
239167
239370
239564
239755
239942
240144
238718
238781
238799
238836
238864
238901
238945
239004
239068
239162
239263
239400
239529
239718
238636
238703
238731
238775
238814
238862
238920
238995
239077
239187
239310
239465
239626
239828
238613
238673
238713
238762
238811
238872
238944
239036
239134
239255
239381
239542
239708
239922
238624
238680
238730
238784
238842
238909
238987
239085
239193
239329
239470
239641
239817
240035
238678
238730
238783
238840
238906
238980
239068
239174
239291
239434
239582
239757
239938
240154
238757
238802
238859
238918
238990
239070
239165
239277
239400
239548
239702
239879
240063
240273
238851
238896
238956
239020
239100
239186
239288
239405
239532
239680
239834
240007
240189
240391
238970
239017
239079
239148
239233
239326
239434
239554
239682
239827
239978
240144
240321
240513
239100
239154
239218
239292
239383
239482
239595
239718
239845
239986
240129
240285
240456
240634
239253
239318
239381
239461
239555
239659
239775
239899
240023
240159
240295
240441
240602
240764
239432
239511
239571
239654
239750
239855
239971
240093
240214
240342
240470
240605
240751
240892
239629
239718
239779
239863
239958
240064
240178
240296
240413
240535
240654
240779
240909
241034
239859
239952
240014
240093
240183
240286
240396
240510
240622
240737
240844
240956
241068
241179
240124
240201
240267
240340
240422
240516
240619
240726
240827
240930
241023
241122
241221
241337
239650
239786
239851
239914
239956
239989
240013
240035
240052
240068
240084
240110
240135
240170
239634
239746
239816
239882
239933
239978
240016
240050
240073
240097
240128
240178
240236
240305
239649
239750
239823
239890
239951
240007
240057
240105
240145
240187
240227
240281
240334
240418
239693
239781
239858
239928
239994
240054
240110
240163
240212
240267
240321
240388
240452
240542
239763
239844
239923
239995
240068
240133
240196
240256
240313
240374
240433
240504
240572
240662
239858
239933
240013
240086
240161
240228
240294
240356
240416
240482
240545
240619
240690
240778
239976
240050
240128
240201
240276
240343
240409
240471
240531
240597
240660
240731
240803
240887
240122
240193
240267
240337
240407
240470
240533
240592
240650
240712
240772
240840
240909
240988
240292
240359
240424
240487
240551
240606
240664
240718
240770
240827
240881
240943
241009
241083
240472
240534
240587
240642
240697
240745
240796
240843
240888
240938
240986
241043
241104
241174
240671
240726
240761
240806
240850
240890
240932
240970
241007
241048
241088
241136
241193
241257
240863
240911
240933
240964
240997
241028
241063
241095
241124
241157
241187
241232
241284
241346
241057
241097
241108
241126
241147
241169
241196
241219
241241
241264
241288
241329
241377
241427
241249
241276
241273
241280
241290
241303
241321
241338
241353
241372
241389
241423
241462
241533
240318
240478
240578
240661
240721
240762
240782
240778
240758
240721
240670
240602
240512
240416
240397
240516
240610
240691
240751
240791
240809
240802
240780
240742
240693
240636
240583
240525
240476
240582
240671
240741
240794
240831
240847
240844
240829
240802
240765
240719
240660
240613
240573
240659
240737
240797
240844
240875
240885
240879
240864
240841
240810
240775
240732
240702
240677
240748
240815
240864
240903
240927
240936
240932
240920
240899
240871
240841
240807
240784
240787
240843
240898
240937
240967
240983
240988
240983
240970
240951
240925
240902
240879
240862
240898
240943
240984
241013
241035
241043
241044
241036
241022
241003
240981
240966
240948
240937
241007
241041
241070
241090
241102
241103
241098
241085
241068
241050
241031
241020
241006
241001
241114
241138
241156
241166
241170
241163
241151
241132
241112
241096
241077
241068
241057
241059
241210
241225
241232
241234
241230
241216
241198
241176
241155
241137
241117
241108
241097
241104
241302
241310
241307
241301
241288
241268
241247
241221
241197
241176
241152
241142
241136
241144
241376
241380
241370
241357
241341
241316
241293
241264
241237
241213
241187
241178
241171
241180
241460
241457
241439
241419
241397
241368
241340
241306
241275
241248
241220
241209
241204
241208
241534
241522
241496
241471
241445
241413
241384
241349
241318
241291
241260
241247
241231
241244
240850
240962
241037
241094
241127
241140
241131
241105
241060
240998
240916
240816
240696
240544
240975
241045
241104
241146
241171
241173
241156
241119
241064
240993
240903
240797
240685
240563
241069
241123
241169
241195
241206
241199
241177
241137
241081
241009
240921
240820
240709
240594
241154
241187
241218
241231
241233
241220
241192
241146
241085
241011
240926
240831
240732
240630
241221
241243
241261
241263
241259
241238
241204
241155
241093
241021
240940
240852
240762
240667
241276
241287
241294
241289
241277
241250
241210
241158
241096
241025
240950
240871
240789
240700
241317
241320
241319
241307
241288
241258
241216
241162
241101
241033
240962
240890
240813
240732
241344
241343
241336
241320
241296
241262
241217
241163
241101
241036
240969
240902
240828
240755
241365
241361
241350
241331
241304
241266
241219
241163
241102
241039
240973
240909
240837
240773
241380
241373
241360
241337
241307
241265
241216
241160
241100
241036
240970
240908
240838
240779
241393
241383
241368
241342
241309
241264
241213
241153
241091
241026
240959
240900
240830
240777
241391
241379
241363
241336
241301
241254
241201
241139
241075
241009
240942
240880
240812
240758
241388
241375
241356
241325
241287
241236
241179
241113
241047
240977
240909
240845
240782
240728
241360
241346
241327
241294
241256
241204
241148
241083
241016
240946
240877
240809
240743
240688
241065
241099
241123
241138
241146
241140
241119
241078
241019
240944
240852
240748
240630
240487
241145
241153
241169
241178
241182
241168
241136
241086
241018
240935
240831
240712
240584
240440
241199
241200
241213
241212
241203
241178
241139
241085
241015
240927
240821
240700
240569
240417
241233
241229
241231
241221
241203
241172
241128
241069
240992
240899
240791
240667
240535
240382
241243
241238
241231
241215
241192
241156
241107
241042
240961
240866
240757
240634
240500
240349
241240
241231
241219
241198
241168
241127
241071
241001
240916
240819
240710
240587
240456
240313
241228
241214
241193
241166
241130
241083
241023
240950
240863
240766
240658
240538
240412
240278
241198
241178
241152
241120
241079
241027
240964
240889
240803
240706
240599
240484
240364
240242
241154
241129
241099
241062
241017
240962
240897
240821
240735
240640
240536
240428
240314
240203
241097
241068
241035
240994
240947
240889
240823
240746
240661
240568
240469
240368
240260
240161
241031
240998
240964
240920
240871
240811
240743
240666
240583
240493
240399
240305
240205
240117
240953
240918
240884
240839
240789
240728
240661
240585
240504
240419
240329
240241
240147
240066
240868
240833
240799
240754
240704
240643
240577
240502
240422
240339
240255
240173
240088
240011
240760
240733
240704
240662
240616
240558
240494
240422
240347
240268
240189
240108
240028
239947
240912
240874
240851
240828
240806
240776
240742
240702
240653
240597
240530
240458
240375
240269
240928
240888
240857
240826
240795
240758
240714
240663
240603
240534
240454
240368
240274
240155
240937
240896
240858
240819
240777
240732
240679
240620
240552
240474
240387
240291
240190
240067
240929
240886
240839
240795
240745
240694
240637
240572
240496
240411
240317
240212
240105
239977
240905
240858
240806
240758
240705
240650
240586
240516
240436
240347
240249
240140
240027
239899
240866
240816
240763
240712
240656
240596
240528
240454
240370
240278
240177
240065
239949
239821
240811
240759
240705
240652
240593
240530
240460
240383
240298
240205
240103
239992
239875
239751
240742
240687
240634
240578
240519
240454
240382
240304
240218
240125
240023
239914
239799
239680
240659
240603
240550
240492
240432
240366
240294
240216
240131
240039
239939
239834
239722
239610
240559
240502
240451
240392
240333
240266
240195
240118
240035
239946
239850
239749
239642
239538
240448
240390
240340
240282
240223
240157
240088
240012
239932
239847
239756
239661
239560
239466
240319
240262
240215
240159
240104
240040
239974
239902
239825
239745
239659
239570
239475
239389
240190
240135
240089
240035
239981
239920
239856
239787
239714
239638
239558
239477
239391
239314
240032
239990
239948
239899
239850
239795
239737
239674
239608
239538
239465
239388
239309
239231
240625
240551
240487
240429
240381
240340
240304
240270
240236
240202
240164
240123
240077
240033
240572
240504
240432
240374
240320
240271
240226
240182
240139
240094
240045
239994
239943
239874
240519
240449
240372
240311
240250
240196
240143
240092
240041
239987
239931
239873
239815
239737
240458
240385
240306
240241
240175
240117
240057
239999
239940
239879
239816
239751
239684
239601
240384
240309
240228
240161
240092
240029
239965
239903
239838
239772
239704
239631
239558
239475
240301
240222
240143
240073
240003
239936
239869
239802
239733
239663
239590
239513
239436
239350
240203
240123
240045
239973
239902
239834
239765
239696
239626
239553
239478
239399
239318
239233
240093
240012
239937
239864
239794
239725
239656
239586
239514
239441
239365
239286
239203
239118
239974
239892
239819
239746
239677
239608
239540
239470
239400
239328
239253
239175
239093
239011
239842
239760
239691
239619
239552
239484
239418
239351
239283
239214
239141
239066
238986
238909
239704
239624
239558
239488
239423
239357
239294
239230
239165
239100
239031
238960
238883
238814
239556
239479
239417
239350
239290
239228
239168
239108
239048
238987
238922
238856
238785
238722
239417
239341
239280
239217
239158
239099
239043
238987
238931
238874
238814
238754
238690
238637
239255
239191
239134
239076
239023
238970
238920
238869
238819
238768
238715
238660
238601
238549
240224
240134
240048
239975
239913
239862
239820
239788
239764
239745
239731
239720
239712
239702
240115
240037
239947
239874
239806
239750
239703
239665
239634
239609
239588
239568
239556
239530
240001
239922
239830
239758
239688
239631
239581
239539
239503
239474
239447
239422
239404
239374
239887
239807
239716
239642
239571
239511
239457
239412
239372
239338
239306
239276
239250
239218
239767
239683
239594
239520
239448
239387
239331
239283
239241
239203
239168
239134
239104
239072
239640
239555
239469
239394
239323
239261
239204
239154
239110
239069
239031
238994
238960
238926
239509
239423
239340
239265
239195
239133
239076
239025
238980
238938
238897
238858
238821
238786
239372
239285
239206
239132
239065
239003
238948
238897
238851
238808
238766
238726
238686
238649
239234
239147
239072
238999
238935
238874
238820
238771
238725
238682
238640
238600
238559
238522
239091
239006
238935
238865
238803
238745
238694
238646
238602
238560
238518
238478
238437
238401
238951
238868
238801
238733
238674
238619
238570
238524
238482
238441
238401
238364
238325
238291
238809
238729
238665
238601
238546
238494
238448
238405
238365
238327
238290
238255
238218
238187
238677
238599
238537
238476
238423
238373
238330
238289
238253
238217
238183
238153
238119
238094
238535
238464
238405
238349
238299
238254
238214
238178
238145
238114
238084
238056
238027
238004
239711
239632
239553
239488
239429
239382
239345
239317
239298
239287
239286
239293
239305
239313
239563
239500
239420
239354
239294
239245
239206
239177
239157
239145
239143
239145
239156
239150
239417
239353
239275
239211
239152
239105
239066
239036
239016
239002
238998
238999
239007
239000
239270
239208
239133
239070
239012
238965
238926
238896
238874
238859
238853
238852
238858
238852
239127
239062
238989
238928
238872
238826
238787
238757
238735
238719
238712
238709
238712
238709
238982
238916
238847
238787
238734
238689
238651
238621
238598
238582
238573
238569
238569
238569
238841
238773
238708
238650
238598
238555
238518
238489
238466
238449
238439
238435
238433
238432
238700
238632
238571
238515
238466
238424
238389
238361
238338
238321
238311
238304
238301
238300
238565
238497
238440
238385
238339
238299
238266
238239
238217
238200
238189
238181
238175
238176
238433
238366
238312
238260
238217
238179
238147
238121
238100
238083
238071
238062
238055
238057
238308
238242
238191
238141
238100
238064
238035
238010
237990
237974
237962
237953
237945
237949
238186
238121
238073
238026
237987
237953
237926
237903
237884
237869
237858
237850
237842
237846
238073
238009
237963
237918
237881
237849
237823
237801
237784
237771
237762
237755
237750
237758
237952
237896
237851
237810
237776
237747
237724
237704
237690
237679
237671
237665
237660
237666
239104
239060
239011
238972
238936
238905
238880
238861
238850
238847
238853
238866
238889
238907
238953
238921
238873
238837
238802
238773
238748
238731
238722
238721
238727
238738
238762
238771
238811
238780
238734
238699
238666
238638
238616
238600
238592
238592
238599
238610
238635
238643
238669
238638
238596
238562
238532
238506
238485
238472
238465
238466
238473
238483
238507
238517
238534
238501
238462
238429
238400
238376
238357
238345
238340
238342
238348
238359
238382
238396
238402
238367
238331
238300
238272
238250
238233
238223
238219
238221
238228
238239
238261
238276
238276
238240
238206
238176
238150
238129
238115
238105
238103
238105
238112
238124
238144
238161
238154
238118
238085
238058
238034
238015
238002
237994
237992
237994
238001
238013
238030
238050
238040
238002
237972
237946
237925
237907
237895
237887
237886
237888
237895
237908
237923
237945
237930
237893
237865
237841
237821
237805
237793
237786
237785
237787
237794
237806
237820
237844
237828
237790
237765
237741
237723
237708
237697
237692
237690
237693
237700
237712
237725
237750
237729
237691
237669
237647
237630
237616
237607
237602
237601
237604
237611
237623
237635
237659
237636
237600
237579
237557
237542
237530
237522
237518
237519
237523
237531
237543
237557
237581
237542
237510
237489
237470
237457
237447
237442
237439
237441
237446
237456
237467
237482
237500
238458
238455
238443
238435
238428
238423
238420
238418
238420
238425
238434
238449
238471
238494
238338
238343
238333
238327
238322
238319
238318
238319
238323
238331
238343
238359
238381
238396
238233
238235
238226
238221
238216
238215
238215
238217
238223
238233
238246
238264
238288
238304
238125
238124
238118
238114
238111
238112
238113
238118
238125
238137
238152
238170
238195
238211
238021
238018
238013
238011
238010
238011
238014
238019
238028
238041
238057
238077
238103
238122
237919
237917
237913
237912
237912
237914
237917
237924
237934
237947
237965
237986
238011
238034
237823
237819
237817
237816
237817
237819
237824
237831
237842
237856
237875
237896
237922
237948
237731
237727
237725
237724
237726
237728
237734
237742
237753
237768
237787
237809
237834
237862
237644
237638
237637
237636
237638
237641
237647
237656
237668
237684
237702
237725
237749
237779
237561
237554
237553
237552
237555
237559
237566
237575
237588
237603
237622
237644
237668
237699
237482
237473
237473
237473
237476
237481
237489
237499
237513
237528
237547
237569
237591
237623
237408
237397
237399
237399
237403
237409
237417
237428
237441
237457
237475
237496
237518
237550
237337
237326
237328
237329
237334
237342
237351
237363
237377
237393
237412
237432
237455
237488
237267
237257
237261
237263
237270
237278
237288
237300
237315
237331
237350
237370
237393
237421
237778
237808
237832
237856
237877
237897
237915
237932
237948
237963
237979
237996
238015
238038
237714
237745
237769
237795
237817
237839
237859
237877
237895
237914
237932
237952
237971
237991
237655
237687
237710
237736
237758
237779
237798
237818
237837
237857
237877
237898
237920
237941
237594
237626
237649
237674
237696
237718
237738
237758
237778
237799
237820
237843
237867
237889
237534
237563
237586
237611
237632
237654
237675
237696
237717
237739
237761
237785
237811
237835
237471
237500
237523
237548
237570
237592
237613
237635
237656
237679
237702
237727
237753
237780
237411
237437
237461
237485
237507
237529
237551
237573
237596
237619
237643
237668
237695
237723
237353
237377
237401
237424
237447
237469
237491
237513
237536
237559
237584
237610
237637
237667
237296
237318
237343
237365
237387
237409
237431
237454
237477
237501
237526
237553
237580
237610
237242
237262
237286
237308
237331
237352
237374
237397
237420
237444
237469
237496
237522
237554
237189
237206
237231
237253
237275
237297
237319
237342
237365
237389
237414
237440
237466
237499
237140
237155
237179
237200
237223
237244
237266
237289
237312
237336
237360
237386
237412
237445
237090
237106
237128
237151
237173
237196
237218
237241
237265
237288
237313
237338
237365
237398
237046
237063
237085
237107
237129
237150
237172
237194
237216
237239
237264
237289
237316
237346
237213
237249
237282
237313
237341
237367
237390
237412
237432
237455
237025
237074
237118
237161
237201
237239
237274
237306
237336
237364
237389
237412
237434
237458
237012
237061
237106
237148
237189
237226
237262
237294
237324
237352
237378
237403
237426
237450
236995
237043
237088
237131
237172
237210
237246
237279
237310
237339
237367
237392
237417
237442
236979
237026
237071
237113
237154
237191
237227
237260
237291
237321
237349
237376
237402
237428
236958
237005
237049
237091
237131
237169
237205
237239
237271
237301
237330
237358
237385