/*--------------------------------*- C++ -*----------------------------------*\
| =========                 |                                                 |
| \\      /  F ield         | OpenFOAM: The Open Source CFD Toolbox           |
|  \\    /   O peration     | Version:  v2106                                 |
|   \\  /    A nd           | Website:  www.openfoam.com                      |
|    \\/     M anipulation  |                                                 |
\*---------------------------------------------------------------------------*/
FoamFile
{
    version     2.0;
    format      ascii;
    arch        "LSB;label=32;scalar=64";
    class       surfaceScalarField;
    location    "0.000157";
    object      phi;
}
// * * * * * * * * * * * * * * * * * * * * * * * * * * * * * * * * * * * * * //

dimensions      [1 0 -1 0 0 0 0];

internalField   nonuniform List<scalar> 
52765
(
-7.78468e-07
-1.02942e-06
-3.04606e-06
8.67683e-07
5.80066e-07
-9.7543e-07
-6.83365e-07
-3.01244e-06
-1.13968e-06
-2.50567e-07
-2.9155e-06
-1.26135e-06
1.26234e-07
-2.84385e-06
-1.33058e-06
4.02911e-07
-2.76686e-06
-1.35163e-06
6.16848e-07
-2.71513e-06
7.78755e-07
-2.6734e-06
-3.89909e-07
-1.06779e-06
-3.02965e-06
7.40136e-08
-6.8675e-07
-7.30986e-07
-2.99512e-06
-9.17474e-07
-3.47762e-07
-2.91697e-06
-1.0793e-06
-3.55521e-08
-2.85905e-06
-1.18786e-06
1.90424e-07
-2.79408e-06
-1.24999e-06
3.57284e-07
-2.74958e-06
4.84706e-07
-2.70813e-06
-7.30418e-08
-1.00231e-06
-2.99497e-06
-3.36321e-07
-4.33093e-07
-7.0564e-07
-2.96413e-06
-7.06408e-07
-3.99654e-07
-2.91161e-06
-8.99852e-07
-1.63886e-07
-2.86882e-06
-1.0416e-06
8.41426e-09
-2.81906e-06
-1.13769e-06
1.27193e-07
-2.77955e-06
2.23328e-07
-2.74419e-06
1.44841e-07
-8.86641e-07
-2.96389e-06
-5.95169e-07
-2.34833e-07
-6.52188e-07
-2.94729e-06
-5.29102e-07
-4.29214e-07
-2.91032e-06
-7.44296e-07
-2.69176e-07
-2.87788e-06
-9.10783e-07
-1.48156e-07
-2.83861e-06
-1.03645e-06
-7.33426e-08
-2.80284e-06
-7.16101e-09
-2.77009e-06
2.81821e-07
-7.55699e-07
-2.94941e-06
-8.87682e-08
-5.99446e-07
-2.93824e-06
-3.85402e-07
-4.52491e-07
-2.91412e-06
-6.15189e-07
-3.59398e-07
-2.88621e-06
-8.01089e-07
-2.85195e-07
-2.85528e-06
-9.53657e-07
-2.47178e-07
-2.8209e-06
-2.08154e-07
-2.79057e-06
3.73315e-07
-6.30979e-07
-2.94223e-06
1.06065e-08
-5.50697e-07
-2.93465e-06
-2.85142e-07
-4.74981e-07
-2.91836e-06
-5.25366e-07
-4.40183e-07
-2.89403e-06
-7.26707e-07
-4.0834e-07
-2.86733e-06
-9.00205e-07
-4.02552e-07
-2.83381e-06
-3.87812e-07
-2.8049e-06
4.13869e-07
-5.30312e-07
-2.94587e-06
6.36827e-08
-5.13846e-07
-2.93348e-06
-2.30765e-07
-5.01385e-07
-2.92294e-06
-4.79359e-07
-5.16653e-07
-2.89884e-06
-6.92248e-07
-5.2467e-07
-2.87693e-06
-8.79593e-07
-5.4884e-07
-2.84424e-06
-5.56566e-07
-2.81776e-06
4.12193e-07
-2.93638e-06
7.10476e-08
-2.93404e-06
-2.23012e-07
-2.9242e-06
-4.74165e-07
-2.90227e-06
-6.91171e-07
-2.8826e-06
-8.84129e-07
-2.8499e-06
-2.8236e-06
-3.3907e-07
-8.71929e-07
7.68568e-07
1.06836e-07
-2.64895e-06
-5.50881e-07
-5.6344e-07
4.4352e-07
-2.62263e-06
-7.34148e-07
-1.91756e-07
5.23534e-08
-2.53675e-06
-8.83409e-07
1.16063e-07
-2.82197e-07
-2.47785e-06
-9.8909e-07
3.30219e-07
-5.36428e-07
-2.41228e-06
-1.05282e-06
4.98102e-07
-7.47336e-07
-2.36746e-06
-1.09221e-06
6.35462e-07
-9.13232e-07
-2.32806e-06
-1.11041e-06
7.39373e-07
-1.04236e-06
-2.29201e-06
-1.09693e-06
7.96175e-07
-1.13543e-06
-2.25007e-06
-1.05542e-06
8.06194e-07
-1.18183e-06
-2.21529e-06
-9.94283e-07
7.58645e-07
-1.15861e-06
-2.20058e-06
-9.33304e-07
6.70739e-07
-1.07482e-06
-2.20123e-06
-8.97281e-07
5.43758e-07
-9.23791e-07
-2.20619e-06
4.26169e-07
-7.71071e-07
-8.92438e-07
-2.21452e-06
-3.77658e-08
-8.85903e-07
-2.85857e-07
-2.62475e-06
-3.29823e-07
-6.03718e-07
-2.59995e-06
-5.61523e-07
-2.83241e-07
-2.53454e-06
-7.36573e-07
-2.96203e-08
-2.48585e-06
-8.72536e-07
1.46283e-07
-2.43014e-06
-9.70552e-07
2.73751e-07
-2.39157e-06
-1.0421e-06
3.81146e-07
-2.35398e-06
-1.0882e-06
4.54531e-07
-2.31952e-06
-1.12022e-06
4.91554e-07
-2.28729e-06
-1.13462e-06
4.79045e-07
-2.25746e-06
-1.13426e-06
4.14281e-07
-2.23408e-06
-1.13187e-06
3.22757e-07
-2.219e-06
-1.14961e-06
2.17275e-07
-2.2153e-06
1.39853e-07
-1.1993e-06
-2.21574e-06
2.02279e-07
-8.35359e-07
-5.87269e-07
-2.58934e-06
-1.32247e-07
-5.97536e-07
-2.56954e-06
-3.95938e-07
-3.44041e-07
-2.52633e-06
-5.93712e-07
-1.54925e-07
-2.49211e-06
-7.52253e-07
-2.03956e-08
-2.44848e-06
-8.76229e-07
6.94153e-08
-2.41439e-06
-9.78148e-07
1.50431e-07
-2.38241e-06
-1.0614e-06
1.99835e-07
-2.35156e-06
-1.13275e-06
2.2205e-07
-2.32112e-06
-1.20017e-06
2.02983e-07
-2.28872e-06
-1.26612e-06
1.34153e-07
-2.2578e-06
-1.33051e-06
4.23391e-08
-2.22761e-06
-1.39786e-06
-5.91164e-08
-2.20232e-06
-1.27709e-07
-1.46008e-06
-2.18899e-06
3.6698e-07
-7.55075e-07
-7.73664e-07
-2.56186e-06
2.0617e-08
-5.75784e-07
-2.55286e-06
-2.57387e-07
-3.91188e-07
-2.52265e-06
-4.70864e-07
-2.67144e-07
-2.4975e-06
-6.47501e-07
-1.72392e-07
-2.46383e-06
-7.94431e-07
-1.15607e-07
-2.43297e-06
-9.21438e-07
-5.8785e-08
-2.40333e-06
-1.03492e-06
-2.78964e-08
-2.37271e-06
-1.13754e-06
-1.87729e-08
-2.34271e-06
-1.24114e-06
-3.87965e-08
-2.30791e-06
-1.35086e-06
-1.02008e-07
-2.27439e-06
-1.46103e-06
-1.9214e-07
-2.24278e-06
-1.57179e-06
-2.88196e-07
-2.20922e-06
-3.66002e-07
-1.66577e-06
-2.18779e-06
4.66313e-07
-6.67139e-07
-8.70403e-07
-2.55345e-06
1.29911e-07
-5.61007e-07
-2.54493e-06
-1.46749e-07
-4.39286e-07
-2.52628e-06
-3.71854e-07
-3.70549e-07
-2.50318e-06
-5.63777e-07
-3.12521e-07
-2.47723e-06
-7.31195e-07
-2.83385e-07
-2.44763e-06
-8.80708e-07
-2.48317e-07
-2.42041e-06
-1.0196e-06
-2.32231e-07
-2.38948e-06
-1.14959e-06
-2.34698e-07
-2.35949e-06
-1.28101e-06
-2.54415e-07
-2.32279e-06
-1.42142e-06
-3.08745e-07
-2.28663e-06
-1.56759e-06
-3.92665e-07
-2.25333e-06
-1.71567e-06
-4.80923e-07
-2.21343e-06
-5.65836e-07
-1.85058e-06
-2.18424e-06
5.23506e-07
-5.99818e-07
-9.02848e-07
-2.54821e-06
1.99582e-07
-5.56127e-07
-2.54352e-06
-7.36843e-08
-4.92223e-07
-2.53014e-06
-3.06445e-07
-4.69184e-07
-2.50952e-06
-5.1046e-07
-4.44133e-07
-2.48712e-06
-6.93501e-07
-4.39404e-07
-2.45781e-06
-8.60584e-07
-4.23965e-07
-2.43197e-06
-1.01941e-06
-4.19544e-07
-2.39954e-06
-1.17319e-06
-4.30047e-07
-2.37021e-06
-1.32956e-06
-4.48254e-07
-2.33317e-06
-1.49543e-06
-4.93814e-07
-2.2967e-06
-1.66933e-06
-5.69356e-07
-2.2612e-06
-1.84858e-06
-6.46723e-07
-2.21693e-06
-7.32363e-07
-2.0201e-06
-2.18131e-06
5.50477e-07
-5.69361e-07
-8.95151e-07
-2.5495e-06
2.31483e-07
-5.57436e-07
-2.54279e-06
-3.99814e-08
-5.4937e-07
-2.53362e-06
-2.76999e-07
-5.67152e-07
-2.51287e-06
-4.87727e-07
-5.73176e-07
-2.49458e-06
-6.79321e-07
-5.90923e-07
-2.46618e-06
-8.5746e-07
-5.92972e-07
-2.44256e-06
-1.03022e-06
-5.96875e-07
-2.40925e-06
-1.20232e-06
-6.11212e-07
-2.37955e-06
-1.37831e-06
-6.26836e-07
-2.34055e-06
-1.56292e-06
-6.6475e-07
-2.30236e-06
-1.75724e-06
-7.29126e-07
-2.26188e-06
-1.96205e-06
-7.90346e-07
-2.2136e-06
-8.66332e-07
-2.16739e-06
-2.17141e-06
5.319e-07
-5.47146e-07
-8.70142e-07
-2.54592e-06
2.23741e-07
-5.71578e-07
-2.54324e-06
-4.40205e-08
-6.12826e-07
-2.53287e-06
-2.79999e-07
-6.68665e-07
-2.51471e-06
-4.91e-07
-7.05619e-07
-2.49804e-06
-6.841e-07
-7.45127e-07
-2.46973e-06
-8.65814e-07
-7.63001e-07
-2.44627e-06
-1.0443e-06
-7.72593e-07
-2.41156e-06
-1.22556e-06
-7.87029e-07
-2.38133e-06
-1.41135e-06
-7.99058e-07
-2.34175e-06
-1.60478e-06
-8.29633e-07
-2.3032e-06
-1.81385e-06
-8.75049e-07
-2.25803e-06
-2.04754e-06
-9.06931e-07
-2.20864e-06
-9.51304e-07
-2.30214e-06
-2.15678e-06
4.57544e-07
-5.3638e-07
-7.88753e-07
-2.54936e-06
1.6161e-07
-6.02925e-07
-2.54733e-06
-8.83994e-08
-6.97758e-07
-2.53533e-06
-3.11597e-07
-7.85603e-07
-2.52149e-06
-5.15655e-07
-8.4759e-07
-2.50434e-06
-7.04981e-07
-9.06672e-07
-2.4772e-06
-8.85844e-07
-9.37796e-07
-2.45389e-06
-1.06424e-06
-9.52263e-07
-2.41876e-06
-1.24676e-06
-9.64926e-07
-2.38618e-06
-1.43309e-06
-9.73338e-07
-2.34574e-06
-1.62616e-06
-9.95323e-07
-2.30547e-06
-1.84304e-06
-1.01193e-06
-2.25374e-06
-2.10141e-06
-9.98823e-07
-2.20485e-06
-9.91993e-07
-2.40109e-06
-2.14632e-06
3.1461e-07
-5.52324e-07
-6.27042e-07
-2.56713e-06
5.36542e-08
-6.77515e-07
-2.56088e-06
-1.66124e-07
-8.1834e-07
-2.53885e-06
-3.69013e-07
-9.26811e-07
-2.52294e-06
-5.55537e-07
-1.00929e-06
-2.4996e-06
-7.32101e-07
-1.08369e-06
-2.47431e-06
-9.04197e-07
-1.12387e-06
-2.45086e-06
-1.07483e-06
-1.1421e-06
-2.41669e-06
-1.25072e-06
-1.15124e-06
-2.38353e-06
-1.43085e-06
-1.15462e-06
-2.34443e-06
-1.62047e-06
-1.16328e-06
-2.30354e-06
-1.84234e-06
-1.14247e-06
-2.24875e-06
-2.11904e-06
-1.07142e-06
-2.20546e-06
-1.00195e-06
-2.45161e-06
-2.14841e-06
8.21979e-08
-6.09528e-07
-3.64816e-07
-2.60157e-06
-1.37505e-07
-8.00124e-07
-2.592e-06
-3.18348e-07
-9.83353e-07
-2.55815e-06
-4.81705e-07
-1.11253e-06
-2.5356e-06
-6.30844e-07
-1.21131e-06
-2.50296e-06
-7.80602e-07
-1.2901e-06
-2.47971e-06
-9.32413e-07
-1.33046e-06
-2.45261e-06
-1.08576e-06
-1.34922e-06
-2.41823e-06
-1.24694e-06
-1.35127e-06
-2.3816e-06
-1.41592e-06
-1.34534e-06
-2.34305e-06
-1.60091e-06
-1.33238e-06
-2.30015e-06
-1.8234e-06
-1.27129e-06
-2.24849e-06
-2.10485e-06
-1.13789e-06
-2.20992e-06
-1.01157e-06
-2.43527e-06
-2.16608e-06
-2.32226e-07
-7.0961e-07
-2.22373e-08
-2.64192e-06
-4.12681e-07
-9.72548e-07
-2.62388e-06
-5.44855e-07
-1.2054e-06
-2.57682e-06
-6.44151e-07
-1.36679e-06
-2.53848e-06
-7.38289e-07
-1.47461e-06
-2.49503e-06
-8.42226e-07
-1.54303e-06
-2.47088e-06
-9.55776e-07
-1.57282e-06
-2.44168e-06
-1.07979e-06
-1.58272e-06
-2.41142e-06
-1.21939e-06
-1.56902e-06
-2.37736e-06
-1.37619e-06
-1.54477e-06
-2.34128e-06
-1.55933e-06
-1.50071e-06
-2.29782e-06
-1.77613e-06
-1.40318e-06
-2.25615e-06
-2.04695e-06
-1.21376e-06
-2.22333e-06
-1.03427e-06
-2.36654e-06
-2.19805e-06
-5.88476e-07
-8.34908e-07
3.44113e-07
-2.69039e-06
-7.4991e-07
-1.18108e-06
-2.66169e-06
-8.31806e-07
-1.48946e-06
-2.60151e-06
-8.68454e-07
-1.69037e-06
-2.54895e-06
-9.03659e-07
-1.80076e-06
-2.49997e-06
-9.49915e-07
-1.85158e-06
-2.46479e-06
-1.01177e-06
-1.86326e-06
-2.42931e-06
-1.09136e-06
-1.8546e-06
-2.39585e-06
-1.19307e-06
-1.81721e-06
-2.36031e-06
-1.31987e-06
-1.76743e-06
-2.32416e-06
-1.48426e-06
-1.6858e-06
-2.28178e-06
-1.67825e-06
-1.55919e-06
-2.25363e-06
-1.9208e-06
-1.32019e-06
-2.23679e-06
-1.09364e-06
-2.21091e-06
-2.22624e-06
-8.79056e-07
-9.39794e-07
6.03319e-07
-2.71002e-06
-1.03726e-06
-1.40453e-06
-2.6816e-06
-1.09257e-06
-1.80723e-06
-2.61621e-06
-1.08985e-06
-2.05976e-06
-2.54601e-06
-1.0628e-06
-2.18546e-06
-2.4847e-06
-1.04005e-06
-2.22427e-06
-2.43706e-06
-1.04518e-06
-2.20543e-06
-2.40317e-06
-1.08263e-06
-2.16072e-06
-2.3768e-06
-1.15762e-06
-2.0835e-06
-2.35359e-06
-1.26466e-06
-1.99884e-06
-2.32307e-06
-1.40701e-06
-1.8834e-06
-2.28215e-06
-1.58694e-06
-1.71943e-06
-2.2565e-06
-1.79119e-06
-1.46298e-06
-2.2412e-06
-2.0241e-06
-1.20676e-06
-2.24162e-06
1.17344e-06
-1.95882e-06
-1.17717e-07
1.46021e-06
-2.27733e-06
-9.09559e-08
1.84088e-06
-2.6402e-06
2.46346e-08
2.29131e-06
-3.02963e-06
1.97332e-07
2.77812e-06
-3.44748e-06
5.61369e-07
-3.82547e-06
1.23413e-06
9.73719e-07
-1.17409e-07
-3.07971e-07
-1.70207e-06
1.17342e-06
-1.40445e-07
-3.12187e-07
-1.98472e-06
1.46683e-06
-3.17578e-07
-2.59542e-07
-2.31352e-06
1.81501e-06
-4.90592e-07
-1.9057e-07
-2.6514e-06
2.2603e-06
-8.21677e-07
1.35147e-09
-3.02507e-06
-1.37203e-06
4.42983e-07
2.78764e-06
-3.37265e-06
5.8447e-07
-5.22464e-07
-2.13074e-06
7.80579e-07
-6.34369e-07
-2.41628e-06
1.04039e-06
-9.02222e-07
-2.73543e-06
1.39262e-06
-1.20314e-06
-3.05391e-06
1.85055e-06
-1.67661e-06
-3.39607e-06
-2.409e-06
2.46702e-06
-3.73719e-06
1.25024e-07
-8.96491e-07
-2.40836e-06
2.61157e-07
-1.10013e-06
-2.68119e-06
4.34502e-07
-1.42871e-06
-2.97641e-06
7.07635e-07
-1.84984e-06
-3.27514e-06
1.07691e-06
-2.44819e-06
-3.59793e-06
-3.34924e-06
1.62053e-06
-3.93623e-06
-3.06262e-07
-1.20002e-06
-2.62563e-06
-2.76124e-07
-1.47905e-06
-2.88046e-06
-2.34318e-07
-1.83424e-06
-3.15372e-06
-1.2454e-07
-2.32387e-06
-3.41266e-06
3.59244e-08
-2.98344e-06
-3.67714e-06
-3.99029e-06
3.19163e-07
-3.94359e-06
-6.96271e-07
-1.38854e-06
-2.75813e-06
-8.48106e-07
-1.68268e-06
-2.99392e-06
-1.01493e-06
-2.0271e-06
-3.23744e-06
-1.16195e-06
-2.52634e-06
-3.44467e-06
-1.30972e-06
-3.17398e-06
-3.64424e-06
-4.20019e-06
-1.4173e-06
-3.81053e-06
-1.04869e-06
-1.44948e-06
-2.83102e-06
-1.39134e-06
-1.69887e-06
-3.02907e-06
-1.77801e-06
-1.99046e-06
-3.22816e-06
-2.1944e-06
-2.43615e-06
-3.37975e-06
-2.65514e-06
-3.00455e-06
-3.47222e-06
-4.00025e-06
-3.12902e-06
-3.54751e-06
-1.34376e-06
-1.38884e-06
-2.83183e-06
-1.88139e-06
-1.52591e-06
-3.01031e-06
-2.48609e-06
-1.73006e-06
-3.16693e-06
-3.16262e-06
-2.06988e-06
-3.26891e-06
-3.93304e-06
-2.49687e-06
-3.2662e-06
-3.3681e-06
-4.81222e-06
-3.28979e-06
-1.57364e-06
-1.22969e-06
-2.76103e-06
-2.25646e-06
-1.21149e-06
-2.94142e-06
-3.04202e-06
-1.29954e-06
-3.05416e-06
-3.94871e-06
-1.47983e-06
-3.12206e-06
-5.01024e-06
-1.71261e-06
-3.07946e-06
-2.34559e-06
-6.24081e-06
-3.12341e-06
-1.74963e-06
-9.87923e-07
-2.64111e-06
-2.5066e-06
-8.38869e-07
-2.82815e-06
-3.38652e-06
-7.91794e-07
-2.93714e-06
-4.45176e-06
-7.58715e-07
-3.00326e-06
-5.72235e-06
-7.5522e-07
-2.99264e-06
-1.06894e-06
-7.14272e-06
-3.02328e-06
-1.82072e-06
-7.16233e-07
-2.49118e-06
-2.5824e-06
-4.58321e-07
-2.69114e-06
-3.48019e-06
-2.80671e-07
-2.80787e-06
-4.55236e-06
-6.61774e-08
-2.89729e-06
-5.76299e-06
1.09088e-07
-2.96589e-06
5.91335e-08
-7.0845e-06
-2.93948e-06
-1.77384e-06
-4.53372e-07
-2.31076e-06
-2.46084e-06
-1.45698e-07
-2.51769e-06
-3.25956e-06
1.26804e-07
-2.65337e-06
-4.17805e-06
4.48579e-07
-2.80452e-06
-5.16046e-06
7.09379e-07
-2.94016e-06
7.54508e-07
-6.11895e-06
-2.94528e-06
-1.60936e-06
-2.43642e-07
-2.07715e-06
-2.1584e-06
5.03818e-08
-2.29205e-06
-2.76697e-06
3.50303e-07
-2.45958e-06
-3.39263e-06
6.60152e-07
-2.65306e-06
-3.99488e-06
8.81219e-07
-2.81527e-06
9.15968e-07
-4.54856e-06
-2.92569e-06
-1.34073e-06
-1.04126e-07
-1.77974e-06
-1.71166e-06
1.06965e-07
-2.00212e-06
-2.07854e-06
3.54245e-07
-2.20032e-06
-2.37975e-06
5.62866e-07
-2.41299e-06
-2.61405e-06
6.61627e-07
-2.60635e-06
6.58399e-07
-2.82872e-06
-2.80416e-06
-1.03823e-06
-6.16407e-08
-1.43634e-06
-1.21461e-06
2.34817e-08
-1.66133e-06
-1.32649e-06
1.55132e-07
-1.88081e-06
-1.36789e-06
2.44531e-07
-2.09924e-06
-1.39451e-06
2.63006e-07
-2.32933e-06
1.88845e-07
-1.40087e-06
-2.56205e-06
-9.3025e-07
-2.45083e-07
-1.41822e-06
-9.27278e-07
-2.3376e-07
-1.65037e-06
-8.85347e-07
-2.02781e-07
-1.8949e-06
-8.05436e-07
-1.99066e-07
-2.13702e-06
-7.12853e-07
-2.621e-07
-2.39877e-06
-4.80052e-07
-5.32351e-07
-2.63084e-06
-1.2317e-06
-4.89916e-07
-1.78398e-06
-1.21887e-06
-5.52987e-07
-2.01575e-06
-1.1355e-06
-6.48871e-07
-2.26061e-06
-9.67288e-07
-7.72909e-07
-2.48771e-06
-7.07835e-07
-9.87392e-07
-2.73406e-06
-1.39374e-06
-3.17953e-07
-2.97922e-06
-1.5072e-06
-7.57186e-07
-2.05766e-06
-1.50457e-06
-8.92375e-07
-2.27934e-06
-1.44196e-06
-1.09656e-06
-2.51067e-06
-1.28622e-06
-1.34582e-06
-2.73e-06
-1.01209e-06
-1.72571e-06
-2.97684e-06
-2.33265e-06
-5.88148e-07
-3.21288e-06
-1.78798e-06
-9.83921e-07
-2.28896e-06
-1.857e-06
-1.1923e-06
-2.4989e-06
-1.88411e-06
-1.47009e-06
-2.69885e-06
-1.8191e-06
-1.82481e-06
-2.88594e-06
-1.63709e-06
-2.34064e-06
-3.10271e-06
-3.12868e-06
-1.30138e-06
-3.28697e-06
-2.07467e-06
-1.1274e-06
-2.45398e-06
-2.28819e-06
-1.36662e-06
-2.64244e-06
-2.49842e-06
-1.66026e-06
-2.80776e-06
-2.64337e-06
-2.07673e-06
-2.95724e-06
-2.71277e-06
-2.66185e-06
-3.10702e-06
-3.5757e-06
-2.66225e-06
-3.21916e-06
-2.36786e-06
-1.16828e-06
-2.55951e-06
-2.7605e-06
-1.36879e-06
-2.71518e-06
-3.18118e-06
-1.63023e-06
-2.84461e-06
-3.5851e-06
-2.04595e-06
-2.94509e-06
-3.95367e-06
-2.6391e-06
-2.99871e-06
-3.62871e-06
-4.22897e-06
-3.01785e-06
-2.64055e-06
-1.09105e-06
-2.594e-06
-3.20845e-06
-1.19866e-06
-2.72582e-06
-3.83534e-06
-1.39295e-06
-2.81159e-06
-4.51203e-06
-1.73753e-06
-2.86759e-06
-5.22203e-06
-2.26531e-06
-2.84811e-06
-3.21643e-06
-5.93558e-06
-2.81474e-06
-2.89129e-06
-8.9962e-07
-2.57319e-06
-3.59663e-06
-8.98404e-07
-2.70097e-06
-4.39776e-06
-9.91674e-07
-2.76919e-06
-5.32035e-06
-1.20006e-06
-2.80401e-06
-6.36503e-06
-1.58004e-06
-2.75808e-06
-2.35495e-06
-7.51419e-06
-2.71598e-06
-3.07278e-06
-6.20812e-07
-2.51028e-06
-3.85706e-06
-5.21095e-07
-2.6437e-06
-4.76534e-06
-4.92609e-07
-2.71194e-06
-5.85271e-06
-5.1754e-07
-2.75771e-06
-7.12013e-06
-6.86178e-07
-2.7434e-06
-1.19925e-06
-8.53635e-06
-2.66743e-06
-3.14391e-06
-3.06538e-07
-2.41025e-06
-3.9252e-06
-1.36415e-07
-2.54999e-06
-4.84527e-06
1.53825e-08
-2.63818e-06
-5.93652e-06
1.54443e-07
-2.7305e-06
-7.18073e-06
1.69788e-07
-2.77516e-06
-1.0782e-07
-8.55425e-06
-2.69386e-06
-3.0885e-06
-8.41586e-09
-2.26312e-06
-3.80769e-06
2.03283e-07
-2.40993e-06
-4.61897e-06
4.16862e-07
-2.53526e-06
-5.51989e-06
6.26909e-07
-2.68697e-06
-6.5101e-06
7.48082e-07
-2.78125e-06
5.84375e-07
-7.53063e-06
-2.75158e-06
-2.92462e-06
2.29073e-07
-2.05812e-06
-3.49227e-06
4.22837e-07
-2.21971e-06
-4.09514e-06
6.28689e-07
-2.38666e-06
-4.70038e-06
8.08703e-07
-2.58075e-06
-5.29675e-06
9.02255e-07
-2.71887e-06
7.87489e-07
-5.91668e-06
-2.81469e-06
-2.64128e-06
3.82584e-07
-1.77665e-06
-3.01826e-06
4.81473e-07
-1.9645e-06
-3.35765e-06
6.06096e-07
-2.16719e-06
-3.64302e-06
6.93409e-07
-2.37819e-06
-3.88898e-06
6.95461e-07
-2.5838e-06
5.44493e-07
-4.09879e-06
-2.77406e-06
-2.27663e-06
4.18086e-07
-1.43814e-06
-2.47695e-06
4.19413e-07
-1.65046e-06
-2.60246e-06
4.14921e-07
-1.87838e-06
-2.66877e-06
3.95551e-07
-2.10764e-06
-2.68956e-06
2.9233e-07
-2.35286e-06
3.27942e-08
-2.63031e-06
-2.59546e-06
-1.50713e-06
4.96302e-07
-1.4398e-06
-1.77122e-06
4.25673e-07
-1.67371e-06
-1.95167e-06
2.81761e-07
-1.92768e-06
-2.06814e-06
1.45715e-07
-2.17131e-06
-2.03774e-06
-1.57982e-07
-2.43361e-06
-6.7336e-07
-1.79051e-06
-2.70495e-06
-1.77749e-06
5.31387e-07
-1.81372e-06
-2.03306e-06
3.63929e-07
-2.0529e-06
-2.19824e-06
8.35454e-08
-2.30322e-06
-2.21478e-06
-2.50318e-07
-2.53857e-06
-2.0506e-06
-7.89001e-07
-2.80085e-06
-1.61826e-06
-1.60541e-06
-3.09197e-06
-2.08467e-06
5.7334e-07
-2.13347e-06
-2.38778e-06
3.08988e-07
-2.37197e-06
-2.6123e-06
-8.92498e-08
-2.61105e-06
-2.67182e-06
-6.28879e-07
-2.84816e-06
-2.52993e-06
-1.41348e-06
-3.09356e-06
-2.55513e-06
-2.08566e-06
-3.35891e-06
-2.3235e-06
6.55195e-07
-2.40719e-06
-2.73475e-06
3.34186e-07
-2.63915e-06
-3.10326e-06
-1.33401e-07
-2.85378e-06
-3.35269e-06
-8.17883e-07
-3.05909e-06
-3.43592e-06
-1.78915e-06
-3.26075e-06
-3.21418e-06
-3.2347e-06
-3.46558e-06
-2.52748e-06
8.05816e-07
-2.62663e-06
-3.10957e-06
5.15004e-07
-2.84199e-06
-3.70783e-06
4.94481e-08
-3.0378e-06
-4.2706e-06
-6.76524e-07
-3.21094e-06
-4.73236e-06
-1.74108e-06
-3.36601e-06
-3.33492e-06
-4.99111e-06
-3.47296e-06
-2.70534e-06
1.03339e-06
-2.78349e-06
-3.4586e-06
8.57864e-07
-2.99467e-06
-4.29136e-06
4.62804e-07
-3.17173e-06
-5.18815e-06
-1.97003e-07
-3.29906e-06
-6.10573e-06
-1.22006e-06
-3.38995e-06
-2.85447e-06
-6.91005e-06
-3.36599e-06
-2.84648e-06
1.31377e-06
-2.87445e-06
-3.7092e-06
1.29952e-06
-3.0961e-06
-4.71636e-06
1.03555e-06
-3.27272e-06
-5.90885e-06
5.64036e-07
-3.38674e-06
-7.20551e-06
-3.29566e-07
-3.44321e-06
-1.99065e-06
-8.37941e-06
-3.30578e-06
-2.90811e-06
1.60416e-06
-2.92368e-06
-3.8057e-06
1.75919e-06
-3.16549e-06
-4.90411e-06
1.6772e-06
-3.35439e-06
-6.23981e-06
1.45969e-06
-3.48234e-06
-7.66839e-06
6.90159e-07
-3.52956e-06
-9.97629e-07
-8.96692e-06
-3.31211e-06
-2.886e-06
1.85346e-06
-2.91769e-06
-3.71035e-06
2.14026e-06
-3.17545e-06
-4.72939e-06
2.22036e-06
-3.39494e-06
-5.91049e-06
2.19791e-06
-3.57588e-06
-7.19535e-06
1.56165e-06
-3.67483e-06
1.51735e-09
-8.48093e-06
-3.47945e-06
-2.73131e-06
1.99277e-06
-2.85238e-06
-3.36508e-06
2.32703e-06
-3.1234e-06
-4.13499e-06
2.49609e-06
-3.38837e-06
-4.94283e-06
2.54235e-06
-3.64051e-06
-5.86421e-06
2.03697e-06
-3.80589e-06
6.47295e-07
-6.83508e-06
-3.6191e-06
-2.42383e-06
1.96643e-06
-2.71419e-06
-2.77669e-06
2.24013e-06
-2.99572e-06
-3.16266e-06
2.39274e-06
-3.30556e-06
-3.49204e-06
2.38167e-06
-3.60502e-06
-3.94619e-06
1.99044e-06
-3.81633e-06
8.14831e-07
-4.54709e-06
-3.77185e-06
-1.93068e-06
1.73015e-06
-2.49095e-06
-1.95788e-06
1.85979e-06
-2.78548e-06
-1.94592e-06
1.93128e-06
-3.10954e-06
-1.93441e-06
1.86078e-06
-3.43513e-06
-1.95667e-06
1.4716e-06
-3.71326e-06
5.02852e-07
-2.1552e-06
-3.87304e-06
-1.27464e-06
1.28018e-06
-2.17991e-06
-1.04735e-06
1.27536e-06
-2.48412e-06
-7.85575e-07
1.24774e-06
-2.82106e-06
-4.87551e-07
1.07453e-06
-3.15989e-06
-2.30536e-07
6.65663e-07
-3.47721e-06
-1.72044e-07
-1.38629e-07
-3.73195e-06
-6.54723e-07
7.49938e-07
-1.76248e-06
-3.51154e-07
6.81579e-07
-2.05285e-06
2.07004e-08
5.17242e-07
-2.39209e-06
3.98242e-07
2.68125e-07
-2.73402e-06
7.52435e-07
-1.77743e-07
-3.09002e-06
-9.34063e-07
9.8447e-07
-3.4623e-06
-9.55163e-07
1.41232e-06
-3.18783e-06
-1.29388e-06
1.78396e-06
-3.58356e-06
-1.6143e-06
1.97633e-06
-3.96395e-06
-1.95494e-06
1.87766e-06
-4.2991e-06
-2.34332e-06
1.2286e-06
-4.5763e-06
-3.99961e-07
-4.41614e-06
-4.36154e-07
1.16994e-06
-2.88726e-06
-4.13893e-07
1.38763e-06
-3.28295e-06
-3.26144e-07
1.4671e-06
-3.67437e-06
-2.67498e-07
1.35143e-06
-4.06211e-06
-2.95926e-07
8.28777e-07
-4.40755e-06
-3.97764e-07
-4.50138e-06
2.64443e-07
6.77135e-07
-2.50947e-06
5.76491e-07
7.47301e-07
-2.88303e-06
9.01422e-07
7.5332e-07
-3.2722e-06
1.22481e-06
5.94122e-07
-3.66914e-06
1.41908e-06
1.71644e-07
-4.03082e-06
-7.07974e-07
-4.30519e-06
9.08399e-07
-2.01559e-06
1.29951e-06
-2.35723e-06
1.76301e-06
-2.73802e-06
2.18012e-06
-3.12376e-06
2.48562e-06
-3.52205e-06
-3.88038e-06
5.44255e-07
5.51021e-07
-1.74867e-06
5.33672e-07
3.991e-07
-2.03718e-06
6.27514e-07
7.38648e-08
-2.37158e-06
8.71932e-07
-3.61743e-07
-2.74708e-06
1.24488e-06
-1.00193e-06
-3.13589e-06
-1.98496e-06
1.79279e-06
-3.5302e-06
1.94008e-07
4.07707e-07
-2.18698e-06
1.32728e-07
1.23846e-07
-2.4867e-06
1.46222e-07
-3.36687e-07
-2.8113e-06
3.49096e-07
-9.8518e-07
-3.15795e-06
7.51492e-07
-1.88295e-06
-3.55931e-06
-3.15791e-06
1.43192e-06
-3.95633e-06
-2.409e-07
2.93744e-07
-2.513e-06
-3.87209e-07
-1.04199e-07
-2.81045e-06
-4.8369e-07
-6.65886e-07
-3.13062e-06
-4.1923e-07
-1.49664e-06
-3.46263e-06
-1.82019e-07
-2.60899e-06
-3.84479e-06
-4.14511e-06
2.99603e-07
-4.18357e-06
-6.75938e-07
2.47872e-07
-2.76748e-06
-9.62497e-07
-2.0842e-07
-3.06111e-06
-1.24046e-06
-8.18296e-07
-3.3716e-06
-1.4441e-06
-1.74017e-06
-3.65895e-06
-1.59076e-06
-2.94431e-06
-3.97949e-06
-4.66802e-06
-1.52948e-06
-4.24986e-06
-1.04335e-06
2.91117e-07
-2.95376e-06
-1.50865e-06
-1.37189e-07
-3.24166e-06
-2.03486e-06
-7.13004e-07
-3.52139e-06
-2.60995e-06
-1.59086e-06
-3.77724e-06
-3.19332e-06
-2.78247e-06
-4.01582e-06
-4.57994e-06
-3.66715e-06
-4.17896e-06
-1.306e-06
4.28795e-07
-3.08211e-06
-1.96149e-06
1.27006e-07
-3.35341e-06
-2.74515e-06
-3.30598e-07
-3.60709e-06
-3.68391e-06
-1.04296e-06
-3.81209e-06
-4.74081e-06
-2.10534e-06
-3.95527e-06
-3.83977e-06
-5.77189e-06
-4.0089e-06
-1.45801e-06
6.38708e-07
-3.1417e-06
-2.26149e-06
5.43505e-07
-3.40019e-06
-3.25642e-06
2.6505e-07
-3.64774e-06
-4.49637e-06
-1.79427e-07
-3.83217e-06
-5.94139e-06
-1.02209e-06
-3.90889e-06
-2.69959e-06
-7.32844e-06
-3.85146e-06
-1.5124e-06
8.8406e-07
-3.12494e-06
-2.3708e-06
1.01273e-06
-3.40741e-06
-3.4755e-06
9.60069e-07
-3.65139e-06
-4.86412e-06
8.2201e-07
-3.83249e-06
-6.4324e-06
1.93818e-07
-3.89861e-06
-1.46273e-06
-7.86333e-06
-3.75776e-06
-1.50397e-06
1.1158e-06
-3.05363e-06
-2.31678e-06
1.42215e-06
-3.35845e-06
-3.36601e-06
1.57525e-06
-3.62601e-06
-4.62345e-06
1.6611e-06
-3.84503e-06
-5.98003e-06
1.18683e-06
-3.97105e-06
-2.87166e-07
-7.31902e-06
-3.81312e-06
-1.37986e-06
1.26152e-06
-2.93198e-06
-2.01315e-06
1.65184e-06
-3.2605e-06
-2.8334e-06
1.94549e-06
-3.55411e-06
-3.72829e-06
2.11824e-06
-3.83675e-06
-4.6936e-06
1.76065e-06
-4.04215e-06
5.48042e-07
-5.75033e-06
-3.86814e-06
-1.14346e-06
1.27595e-06
-2.74704e-06
-1.53561e-06
1.64744e-06
-3.0886e-06
-1.98529e-06
1.94518e-06
-3.40514e-06
-2.38254e-06
2.06872e-06
-3.73992e-06
-2.92005e-06
1.82219e-06
-3.98129e-06
8.81193e-07
-3.61681e-06
-3.93155e-06
-7.61373e-07
1.12008e-06
-2.48697e-06
-8.67629e-07
1.37892e-06
-2.83008e-06
-9.25356e-07
1.5748e-06
-3.1607e-06
-9.24068e-07
1.59984e-06
-3.50734e-06
-1.05581e-06
1.42873e-06
-3.79513e-06
7.44933e-07
-1.40761e-06
-3.9543e-06
-2.2566e-07
7.6248e-07
-2.15782e-06
-4.86213e-08
8.69526e-07
-2.48842e-06
1.90882e-07
9.54674e-07
-2.8256e-06
4.18321e-07
9.34545e-07
-3.16021e-06
5.82712e-07
7.73485e-07
-3.47721e-06
2.69499e-07
5.71076e-07
-3.7631e-06
3.33185e-07
-1.74539e-06
6.3047e-07
-2.04971e-06
1.0202e-06
-2.38046e-06
1.39468e-06
-2.70263e-06
1.74898e-06
-3.05079e-06
2.0183e-06
-3.38762e-06
3.43261e-06
-8.68032e-06
7.04232e-06
-1.10717e-05
4.11318e-06
-1.86176e-05
1.74786e-05
-1.2593e-05
5.29843e-06
-3.10758e-05
3.03817e-05
-1.26951e-05
8.23992e-06
-4.57166e-05
4.51119e-05
-5.65591e-06
-6.32776e-05
6.12907e-05
1.07405e-05
3.48806e-06
-1.05826e-05
-1.07503e-05
4.62788e-06
-2.01039e-05
-1.23879e-05
6.22539e-06
-3.22507e-05
-1.20111e-05
8.91053e-06
-4.60993e-05
-3.59348e-06
-6.4529e-05
1.33723e-05
2.45983e-06
-1.22138e-05
-1.00365e-05
3.63339e-06
-2.15907e-05
-1.1279e-05
5.60411e-06
-3.3564e-05
-9.43581e-06
8.68123e-06
-4.76431e-05
4.31438e-07
-6.6874e-05
1.36232e-05
6.36334e-07
-1.31766e-05
-9.07806e-06
1.51641e-06
-2.25481e-05
-9.44568e-06
4.01986e-06
-3.51693e-05
-5.57267e-06
8.67623e-06
-5.18146e-05
4.34586e-06
-7.27975e-05
1.54303e-05
-1.75257e-06
-1.32436e-05
-7.94878e-06
-1.42149e-06
-2.25931e-05
-7.03386e-06
7.34638e-07
-3.62515e-05
-1.08445e-06
4.92541e-06
-5.59781e-05
9.86287e-06
-7.88118e-05
2.01533e-05
-4.07993e-06
-1.24289e-05
-6.54386e-06
-4.26161e-06
-2.1721e-05
-4.24499e-06
-2.78216e-06
-3.66831e-05
3.22494e-06
-5.66459e-07
-5.81509e-05
1.45765e-05
-8.08681e-05
2.47117e-05
-6.67745e-06
-1.04888e-05
-5.35739e-06
-7.62747e-06
-1.98948e-05
-1.73784e-06
-7.42893e-06
-3.57003e-05
6.8166e-06
-6.71512e-06
-5.76496e-05
1.85881e-05
-8.01963e-05
2.95021e-05
-8.64155e-06
-7.84353e-06
-4.38125e-06
-9.98744e-06
-1.74105e-05
-8.13951e-08
-1.01021e-05
-3.37858e-05
8.53238e-06
-9.66749e-06
-5.62713e-05
1.9871e-05
-9.6974e-06
-7.94514e-05
3.01097e-05
-9.62355e-05
3.43348e-05
-9.82612e-06
-4.91026e-06
-3.88419e-06
-1.1504e-05
-1.42111e-05
5.68985e-07
-1.1969e-05
-3.05492e-05
8.85352e-06
-1.25318e-05
-5.26992e-05
2.07339e-05
-1.4527e-05
-7.58829e-05
3.34151e-05
-9.37871e-05
4.0657e-05
-9.55086e-06
-2.36463e-06
-4.02416e-06
-1.11713e-05
-1.11391e-05
4.71171e-08
-1.1961e-05
-2.7079e-05
7.49506e-06
-1.33084e-05
-4.8493e-05
1.88867e-05
-1.70908e-05
-7.04414e-05
3.38049e-05
-8.77147e-05
4.73235e-05
-8.02104e-06
-6.46029e-07
-4.8642e-06
-9.16994e-06
-8.96922e-06
-1.68638e-06
-1.01209e-05
-2.39091e-05
3.96449e-06
-1.18503e-05
-4.39665e-05
1.35214e-05
-1.61463e-05
-6.41862e-05
3.02264e-05
-2.58457e-05
-7.9411e-05
4.98363e-05
-9.00584e-05
5.85769e-05
-5.72171e-06
-9.5191e-08
-6.04397e-06
-6.62239e-06
-7.86876e-06
-4.26106e-06
-7.99545e-06
-2.10974e-05
-1.07452e-06
-9.90418e-06
-3.88846e-05
5.73179e-06
-1.2779e-05
-5.74259e-05
2.25978e-05
-2.017e-05
-7.22215e-05
4.77585e-05
-3.20664e-05
-8.19881e-05
6.36032e-05
-2.07264e-05
7.33899e-05
-2.1563e-05
-2.00095e-05
-1.99738e-05
-3.17492e-06
-7.2938e-07
-7.21865e-06
-3.54662e-06
-8.00068e-06
-7.0187e-06
-4.34815e-06
-1.95761e-05
-5.92585e-06
-5.31694e-06
-3.53878e-05
-2.05767e-06
-6.08371e-06
-5.2985e-05
1.21273e-05
-6.41132e-06
-6.9583e-05
3.57348e-05
-5.26889e-06
-2.0655e-05
6.14602e-05
4.06623e-07
-4.30078e-06
1.75263e-07
-2.05498e-05
-2.02102e-05
-2.02599e-05
-9.90655e-06
-1.81455e-05
1.99332e-05
-1.00709e-06
-2.37307e-06
-8.12318e-06
-5.54052e-07
-9.42795e-06
-9.1027e-06
9.93834e-08
-2.01907e-05
-9.12862e-06
1.48438e-06
-3.52017e-05
-6.70591e-06
4.37297e-06
-5.31212e-05
4.95829e-06
1.69213e-06
-7.37783e-05
2.42976e-05
3.7702e-06
2.14349e-06
3.6976e-06
3.3525e-06
-2.23089e-05
1.02273e-05
1.27172e-05
-2.81157e-05
1.68397e-05
2.07182e-05
-5.90212e-06
2.95217e-07
-4.53605e-06
-8.60695e-06
1.3235e-06
-1.16193e-05
-1.03023e-05
3.00615e-06
-2.23074e-05
-1.10767e-05
5.81493e-06
-3.71509e-05
-8.72238e-06
9.34518e-06
-5.45847e-05
2.86699e-06
2.51528e-06
-7.64007e-05
2.22107e-05
2.82546e-06
3.33437e-06
3.57085e-06
2.3669e-05
2.64258e-06
9.15866e-06
-2.43753e-05
2.29958e-05
1.09576e-05
-2.24516e-05
-2.17972e-06
7.52636e-07
-6.88381e-06
-8.63447e-06
2.08099e-06
-1.40787e-05
-1.05165e-05
3.8441e-06
-2.46769e-05
-1.11776e-05
6.29847e-06
-3.88074e-05
-7.76195e-06
8.493e-06
-5.49308e-05
6.53904e-06
1.25559e-06
-7.54556e-05
2.50811e-05
1.44519e-06
1.73688e-06
2.02855e-06
2.44974e-05
3.18129e-07
-2.42543e-05
9.32761e-06
2.16461e-05
-2.44884e-05
1.111e-05
6.15305e-07
3.82872e-07
-9.00897e-06
-8.27479e-06
1.70856e-06
-1.63973e-05
-9.85605e-06
3.43457e-06
-2.68646e-05
-9.64317e-06
5.89968e-06
-4.01935e-05
-3.97943e-06
7.91817e-06
-5.64588e-05
9.50702e-06
1.50948e-07
-7.57195e-05
2.26415e-05
2.62241e-06
1.076e-06
3.14838e-06
2.35328e-05
-1.39427e-06
-2.25712e-05
9.28365e-06
2.77269e-05
-1.36842e-05
-2.24715e-05
1.66174e-05
4.84867e-06
-6.38701e-07
-1.0624e-05
-7.61045e-06
4.70963e-07
-1.8257e-05
-8.61825e-06
2.37379e-06
-2.88467e-05
-7.16768e-06
5.59022e-06
-4.26107e-05
1.72825e-08
9.63696e-06
-6.08367e-05
1.14204e-05
2.725e-06
-8.1838e-05
2.08504e-05
4.65545e-06
2.86266e-06
4.3672e-06
2.26889e-05
3.40324e-06
-2.36845e-05
6.73468e-06
2.25914e-05
2.74233e-06
-2.25886e-05
7.74993e-06
-3.21973e-06
-2.56953e-06
-1.13985e-05
-6.75163e-06
-1.96515e-06
-1.91776e-05
-6.83468e-06
-3.88147e-07
-3.00466e-05
-3.66486e-06
2.65755e-06
-4.51252e-05
5.02298e-06
6.45064e-06
-6.53803e-05
1.54887e-05
2.50176e-06
-8.77407e-05
2.41561e-05
2.69948e-06
2.33351e-06
2.77104e-06
2.50567e-05
3.39198e-06
-2.65554e-05
6.97935e-06
2.96909e-05
-2.63573e-05
7.43013e-06
-4.16072e-06
-4.69033e-06
-1.13111e-05
-5.5877e-06
-4.51381e-06
-1.92264e-05
-4.36265e-06
-3.07473e-06
-3.08465e-05
4.30115e-07
-8.56583e-07
-4.7445e-05
9.86462e-06
7.02396e-07
-6.84116e-05
1.92258e-05
-4.12159e-07
-8.90306e-05
2.79995e-05
-4.47399e-07
-8.37355e-08
1.00052e-07
2.70795e-05
-9.71286e-07
-2.71307e-05
7.80033e-06
2.40173e-05
-2.69886e-05