/*--------------------------------*- C++ -*----------------------------------*\
| =========                 |                                                 |
| \\      /  F ield         | OpenFOAM: The Open Source CFD Toolbox           |
|  \\    /   O peration     | Version:  v2106                                 |
|   \\  /    A nd           | Website:  www.openfoam.com                      |
|    \\/     M anipulation  |                                                 |
\*---------------------------------------------------------------------------*/
FoamFile
{
    version     2.0;
    format      ascii;
    arch        "LSB;label=32;scalar=64";
    class       volScalarField;
    location    "0.000203";
    object      alphat;
}
// * * * * * * * * * * * * * * * * * * * * * * * * * * * * * * * * * * * * * //

dimensions      [1 -1 -1 0 0 0 0];

internalField   nonuniform List<scalar> 
18273
(
7.23324e-05
5.74715e-05
4.6445e-05
3.93584e-05
3.90716e-05
4.60866e-05
6.00915e-05
7.84878e-05
9.60852e-05
0.000108055
0.000112303
0.000109784
0.000108426
0.000111437
6.5606e-05
4.99315e-05
3.70546e-05
2.74492e-05
2.33607e-05
2.4353e-05
3.11967e-05
4.33984e-05
5.86425e-05
7.28826e-05
8.36579e-05
8.82977e-05
8.85261e-05
9.41468e-05
6.09598e-05
4.45714e-05
3.06113e-05
2.02486e-05
1.5157e-05
1.36891e-05
1.61999e-05
2.29715e-05
3.34397e-05
4.57499e-05
5.70063e-05
6.65557e-05
6.95629e-05
7.75206e-05
5.44206e-05
3.65903e-05
2.34002e-05
1.46304e-05
9.97658e-06
8.05973e-06
8.66621e-06
1.22203e-05
1.89038e-05
2.77698e-05
3.68415e-05
4.4329e-05
5.06782e-05
6.11745e-05
4.3535e-05
2.72884e-05
1.62447e-05
9.56899e-06
6.10594e-06
4.59776e-06
4.63448e-06
6.51779e-06
1.07227e-05
1.70049e-05
2.41633e-05
3.06094e-05
3.69561e-05
4.90584e-05
3.17652e-05
1.81747e-05
9.96345e-06
5.5028e-06
3.33077e-06
2.41811e-06
2.40904e-06
3.5113e-06
6.22656e-06
1.0706e-05
1.63395e-05
2.20923e-05
2.81771e-05
4.04703e-05
2.10286e-05
1.07648e-05
5.37211e-06
2.77117e-06
1.60688e-06
1.16401e-06
1.23473e-06
1.9951e-06
3.87504e-06
7.1811e-06
1.17003e-05
1.68739e-05
2.31937e-05
3.84513e-05
1.30636e-05
5.91152e-06
2.65226e-06
1.26834e-06
7.12379e-07
5.46483e-07
6.90479e-07
1.31148e-06
2.76035e-06
5.36485e-06
9.14391e-06
1.3941e-05
2.12291e-05
4.10092e-05
8.51322e-06
3.47136e-06
1.41161e-06
6.32766e-07
3.59179e-07
3.23855e-07
5.15234e-07
1.09215e-06
2.34604e-06
4.58421e-06
7.96794e-06
1.28622e-05
2.24348e-05
4.74504e-05
7.2449e-06
2.94473e-06
1.20014e-06
5.68515e-07
3.62359e-07
3.65864e-07
5.8556e-07
1.16927e-06
2.37586e-06
4.51534e-06
7.95407e-06
1.39308e-05
2.74941e-05
5.5797e-05
9.23307e-06
4.29049e-06
1.93253e-06
1.02758e-06
7.20829e-07
6.94528e-07
9.30163e-07
1.56447e-06
2.85984e-06
5.21758e-06
9.41051e-06
1.80244e-05
3.60518e-05
6.40362e-05
1.57611e-05
9.39816e-06
5.02245e-06
2.67017e-06
1.759e-06
1.54583e-06
1.7718e-06
2.51791e-06
4.07992e-06
7.08159e-06
1.29874e-05
2.53542e-05
4.63848e-05
7.16762e-05
2.66648e-05
1.95324e-05
1.27174e-05
7.44324e-06
4.56931e-06
3.53597e-06
3.57905e-06
4.474e-06
6.47806e-06
1.04554e-05
1.83654e-05
3.36931e-05
5.52795e-05
7.77165e-05
3.9475e-05
3.26806e-05
2.51014e-05
1.75729e-05
1.17259e-05
8.42742e-06
7.42915e-06
8.1642e-06
1.05521e-05
1.5407e-05
2.44034e-05
4.05433e-05
6.07883e-05
8.02392e-05
6.12514e-05
4.62703e-05
3.62295e-05
2.98682e-05
2.82125e-05
3.06128e-05
3.70196e-05
4.58597e-05
5.52145e-05
6.33683e-05
7.16846e-05
8.18597e-05
9.33718e-05
0.000105522
4.77656e-05
3.54035e-05
2.64333e-05
2.01831e-05
1.73714e-05
1.74061e-05
2.06377e-05
2.67129e-05
3.46817e-05
4.2944e-05
5.10062e-05
5.9886e-05
7.05761e-05
8.25151e-05
3.77393e-05
2.73701e-05
1.97825e-05
1.42881e-05
1.12671e-05
1.02905e-05
1.15469e-05
1.51533e-05
2.09481e-05
2.81053e-05
3.58746e-05
4.35789e-05
5.21841e-05
6.32153e-05
2.94592e-05
2.09197e-05
1.44182e-05
9.85345e-06
7.22622e-06
6.09481e-06
6.42899e-06
8.44745e-06
1.23977e-05
1.79771e-05
2.4418e-05
3.09378e-05
3.73209e-05
4.7442e-05
2.24764e-05
1.50717e-05
9.76298e-06
6.28743e-06
4.33773e-06
3.44981e-06
3.47789e-06
4.60295e-06
7.20654e-06
1.13412e-05
1.65262e-05
2.20735e-05
2.76348e-05
3.67142e-05
1.63853e-05
1.00444e-05
5.99911e-06
3.61128e-06
2.35712e-06
1.80176e-06
1.79287e-06
2.46612e-06
4.18861e-06
7.18323e-06
1.12739e-05
1.60174e-05
2.12149e-05
2.90965e-05
1.12539e-05
6.13861e-06
3.31316e-06
1.84683e-06
1.14425e-06
8.58776e-07
8.89126e-07
1.34932e-06
2.54457e-06
4.75092e-06
7.98804e-06
1.20845e-05
1.70661e-05
2.51854e-05
7.45364e-06
3.54447e-06
1.68741e-06
8.55726e-07
5.02998e-07
3.85631e-07
4.58102e-07
8.26872e-07
1.73819e-06
3.46362e-06
6.13683e-06
9.77245e-06
1.47573e-05
2.40323e-05
5.30512e-06
2.2144e-06
9.1308e-07
4.08653e-07
2.27459e-07
1.94188e-07
2.96292e-07
6.36348e-07
1.42147e-06
2.90322e-06
5.28e-06
8.75248e-06
1.41894e-05
2.53145e-05
4.85418e-06
1.93911e-06
7.45526e-07
3.1538e-07
1.79379e-07
1.75075e-07
2.97235e-07
6.45292e-07
1.40918e-06
2.83538e-06
5.19028e-06
8.92605e-06
1.55573e-05
2.86711e-05
6.17255e-06
2.69471e-06
1.11884e-06
5.27136e-07
3.35556e-07
3.19521e-07
4.57361e-07
8.45763e-07
1.67923e-06
3.23642e-06
5.90989e-06
1.05511e-05
1.89023e-05
3.36447e-05
1.01814e-05
5.41321e-06
2.64578e-06
1.3321e-06
8.5207e-07
7.51175e-07
8.98078e-07
1.36971e-06
2.38149e-06
4.29713e-06
7.73694e-06
1.39102e-05
2.41921e-05
4.05801e-05
1.72087e-05
1.09928e-05
6.46971e-06
3.60256e-06
2.22912e-06
1.80043e-06
1.90688e-06
2.50543e-06
3.81208e-06
6.29942e-06
1.08458e-05
1.8988e-05
3.24397e-05
5.00472e-05
2.62569e-05
1.88713e-05
1.30254e-05
8.49622e-06
5.56793e-06
4.22003e-06
4.03439e-06
4.7281e-06
6.38975e-06
9.52933e-06
1.51622e-05
2.53054e-05
4.20425e-05
6.02368e-05
4.72355e-05
3.50113e-05
2.69997e-05
2.19523e-05
1.99991e-05
2.00857e-05
2.21623e-05
2.55301e-05
2.99835e-05
3.44648e-05
3.91632e-05
4.57515e-05
6.07098e-05
8.54829e-05
2.94004e-05
2.22716e-05
1.70954e-05
1.35708e-05
1.18589e-05
1.15213e-05
1.25816e-05
1.48146e-05
1.81836e-05
2.21331e-05
2.68651e-05
3.29295e-05
4.39775e-05
6.14762e-05
1.90361e-05
1.44723e-05
1.10427e-05
8.54866e-06
7.15215e-06
6.65465e-06
7.08807e-06
8.44338e-06
1.08521e-05
1.41602e-05
1.84275e-05
2.3854e-05
3.21304e-05
4.44731e-05
1.333e-05
9.64305e-06
7.10377e-06
5.29679e-06
4.24004e-06
3.77904e-06
3.90948e-06
4.69259e-06
6.35716e-06
8.96596e-06
1.25623e-05
1.72127e-05
2.34969e-05
3.25116e-05
9.6907e-06
6.40969e-06
4.40896e-06
3.1155e-06
2.37811e-06
2.03828e-06
2.06075e-06
2.51353e-06
3.63864e-06
5.61431e-06
8.51343e-06
1.23879e-05
1.74928e-05
2.46446e-05
7.10508e-06
4.16506e-06
2.58637e-06
1.69595e-06
1.22626e-06
1.01601e-06
1.0205e-06
1.29784e-06
2.05624e-06
3.51132e-06
5.798e-06
9.00627e-06
1.33032e-05
1.94176e-05
5.234e-06
2.65559e-06
1.43427e-06
8.46987e-07
5.72882e-07
4.61797e-07
4.76633e-07
6.67219e-07
1.19768e-06
2.27716e-06
4.08474e-06
6.76616e-06
1.05205e-05
1.60275e-05
4.05958e-06
1.76788e-06
7.96966e-07
4.01832e-07
2.45925e-07
1.9506e-07
2.23055e-07
3.75508e-07
7.82293e-07
1.63133e-06
3.12136e-06
5.44625e-06
8.86987e-06
1.41091e-05
3.48953e-06
1.35253e-06
5.09636e-07
2.0748e-07
1.08141e-07
8.73649e-08
1.25749e-07
2.67804e-07
6.247e-07
1.3666e-06
2.69715e-06
4.84639e-06
8.15202e-06
1.34304e-05
3.55574e-06
1.33853e-06
4.67881e-07
1.67552e-07
7.77793e-08
6.6741e-08
1.13664e-07
2.6355e-07
6.22544e-07
1.35515e-06
2.66993e-06
4.82632e-06
8.23564e-06
1.38464e-05
4.27954e-06
1.72388e-06
6.49253e-07
2.58147e-07
1.36364e-07
1.19299e-07
1.75058e-07
3.49671e-07
7.54468e-07
1.56313e-06
3.00077e-06
5.35498e-06
9.09754e-06
1.53041e-05
6.20924e-06
2.86985e-06
1.27009e-06
5.92825e-07
3.51648e-07
3.00085e-07
3.65646e-07
5.88389e-07
1.09045e-06
2.06946e-06
3.78232e-06
6.54033e-06
1.08478e-05
1.79956e-05
9.54771e-06
5.12503e-06
2.71236e-06
1.46636e-06
9.25758e-07
7.69291e-07
8.37778e-07
1.13963e-06
1.80102e-06
3.05792e-06
5.23016e-06
8.72431e-06
1.42405e-05
2.2622e-05
1.42381e-05
8.50528e-06
5.23031e-06
3.26938e-06
2.22756e-06
1.8413e-06
1.88745e-06
2.30764e-06
3.21295e-06
4.8817e-06
7.7353e-06
1.25461e-05
2.07038e-05
3.21467e-05
0.000124176
0.000145927
0.000165426
0.000178627
0.000184555
0.000237061
0.00010953
0.000138414
0.000165795
0.000184714
0.000198315
0.000262753
9.69433e-05
0.000134355
0.000168426
0.000188378
0.000206859
0.000286076
8.61241e-05
0.000133854
0.000173427
0.000188838
0.000208498
0.000305895
7.96007e-05
0.000136945
0.000178409
0.000187102
0.000205075
0.00032291
7.77427e-05
0.000142037
0.00017979
0.000182464
0.000198301
0.000335925
8.07802e-05
0.000143699
0.000174733
0.000175178
0.000190724
0.0003448
8.69716e-05
0.000141076
0.000164675
0.000167972
0.000184803
0.000348275
9.10455e-05
0.000132725
0.000153036
0.000161488
0.000180118
0.000346381
9.12754e-05
0.000121668
0.000141532
0.000155278
0.00017577
0.00033805
8.93147e-05
0.000111444
0.000131292
0.000149548
0.000172403
0.000323226
8.78802e-05
0.000104628
0.000123531
0.000144653
0.000169962
0.000301527
8.74601e-05
0.000101003
0.000119108
0.000141605
0.000167765
0.000275051
8.63104e-05
9.93785e-05
0.000117853
0.000141706
0.000166824
0.000243012
0.000119892
0.000142322
0.000162199
0.000178736
0.000186472
0.000220166
9.67393e-05
0.000122834
0.00015238
0.000177953
0.000197709
0.000244748
7.87716e-05
0.000108545
0.000146924
0.000179175
0.000203958
0.000267271
6.35732e-05
9.73742e-05
0.000144577
0.000180535
0.00020484
0.00028531
5.338e-05
9.05943e-05
0.00014486
0.000181924
0.000202275
0.000300097
4.6952e-05
8.81475e-05
0.000146146
0.000181509
0.00019732
0.00031038
4.48261e-05
8.81879e-05
0.000145002
0.00017692
0.000191834
0.000317432
4.59858e-05
8.90148e-05
0.000140366
0.00017016
0.000187421
0.000321041
4.85328e-05
8.76594e-05
0.000132382
0.000162929
0.000184567
0.000321075
5.11739e-05
8.38731e-05
0.000123052
0.000156019
0.00018279
0.00031527
5.34915e-05
7.97522e-05
0.000114549
0.000149584
0.000181094
0.000302966
5.68132e-05
7.83987e-05
0.000109265
0.000143979
0.000178744
0.000283118
6.28617e-05
8.12876e-05
0.000108324
0.000140098
0.000175574
0.000257104
6.86353e-05
8.63783e-05
0.000110293
0.000137968
0.000172106
0.000225691
0.000112908
0.000141668
0.000164079
0.000176749
0.000188018
0.000196035
8.39494e-05
0.000111049
0.000139155
0.000164582
0.000190253
0.000219712
6.25318e-05
8.80048e-05
0.000120114
0.000155263
0.000190738
0.000242239
4.61221e-05
7.04787e-05
0.000105434
0.000148739
0.000190123
0.000259446
3.6253e-05
5.82578e-05
9.5275e-05
0.000145009
0.000189172
0.000272982
2.94912e-05
5.03541e-05
8.9792e-05
0.00014373
0.000187975
0.000282896
2.53136e-05
4.60113e-05
8.78755e-05
0.000142907
0.000185094
0.000291291
2.33454e-05
4.47184e-05
8.73643e-05
0.000140433
0.000182461
0.000297825
2.31347e-05
4.4966e-05
8.59107e-05
0.000136843
0.000180967
0.000301145
2.40576e-05
4.48632e-05
8.25826e-05
0.000132448
0.000180965
0.000298111
2.56033e-05
4.42182e-05
7.85059e-05
0.000128106
0.000180733
0.000286857
2.78426e-05
4.44242e-05
7.60783e-05
0.000124296
0.000177948
0.000267852
3.27122e-05
4.84749e-05
7.81528e-05
0.000122537
0.00017448
0.000241524
3.93416e-05
5.65004e-05
8.49529e-05
0.000122649
0.000171706
0.000209503
8.3888e-05
9.99885e-05
0.000121782
0.000147934
0.000172967
0.000248131
6.45524e-05
8.05752e-05
0.000106515
0.00014056
0.000178968
0.000272102
4.711e-05
6.32215e-05
9.30453e-05
0.00013335
0.000180989
0.000292239
3.26985e-05
4.9345e-05
8.24483e-05
0.000126701
0.00017852
0.000306477
2.41029e-05
4.1041e-05
7.59296e-05
0.000121991
0.000172987
0.000316587
1.92429e-05
3.80036e-05
7.48079e-05
0.000119488
0.000166589
0.000322163
1.74948e-05
3.85322e-05
7.60704e-05
0.000117415
0.000159852
0.000325628
1.84389e-05
4.15013e-05
7.76686e-05
0.000114535
0.000153327
0.000328197
2.1766e-05
4.49892e-05
7.7116e-05
0.000109656
0.000147475
0.000329599
2.67189e-05
4.75423e-05
7.41863e-05
0.000103552
0.000143787
0.00032676
3.20502e-05
4.89037e-05
7.0397e-05
9.79304e-05
0.000143291
0.000318046
3.68649e-05
4.99361e-05
6.78984e-05
9.49795e-05
0.000145543
0.000300842
4.09722e-05
5.18006e-05
6.88419e-05
9.7367e-05
0.000150524
0.000276265
4.43029e-05
5.57861e-05
7.52641e-05
0.000107426
0.000161668
0.000245982
7.14849e-05
9.03756e-05
0.000112817
0.000139836
0.000173941
0.00022878
5.02607e-05
6.64792e-05
9.04361e-05
0.000123908
0.000170221
0.000249525
3.33004e-05
4.73597e-05
7.14155e-05
0.000109326
0.000164433
0.000266117
2.21539e-05
3.37089e-05
5.68179e-05
9.7212e-05
0.000156558
0.000276349
1.56839e-05
2.63884e-05
4.83788e-05
8.80454e-05
0.000147063
0.000282176
1.18583e-05
2.22514e-05
4.42073e-05
8.28823e-05
0.000139095
0.000285327
9.90011e-06
2.05492e-05
4.28682e-05
7.98502e-05
0.000132624
0.000287656
9.45378e-06
2.08366e-05
4.33112e-05
7.80086e-05
0.000127728
0.000289333
1.049e-05
2.24075e-05
4.39477e-05
7.59853e-05
0.000124639
0.000291074
1.28887e-05
2.4453e-05
4.37824e-05
7.36252e-05
0.000125837
0.000290765
1.62319e-05
2.65958e-05
4.35637e-05
7.25748e-05
0.000131472
0.000285144
2.01302e-05
2.9186e-05
4.48643e-05
7.51052e-05
0.000140437
0.000272036
2.46058e-05
3.33538e-05
5.00715e-05
8.40248e-05
0.000153376
0.000252378
2.98402e-05
4.07246e-05
6.17835e-05
0.000101247
0.000170017
0.000226402
4.51215e-05
6.50034e-05
9.07761e-05
0.000124434
0.00017049
0.000207251
3.05624e-05
4.56061e-05
6.82192e-05
0.000102726
0.000156061
0.000223262
1.89372e-05
3.06678e-05
5.00425e-05
8.38094e-05
0.000141592
0.000234388
1.26424e-05
2.09095e-05
3.66666e-05
6.80972e-05
0.000125593
0.000240403
8.83612e-06
1.57081e-05
2.89155e-05
5.64105e-05
0.000110675
0.000242132
6.47951e-06
1.24359e-05
2.41974e-05
4.91407e-05
9.85647e-05
0.000240759
5.12236e-06
1.04795e-05
2.1401e-05
4.44861e-05
9.01744e-05
0.000239472
4.47237e-06
9.52486e-06
2.00275e-05
4.18057e-05
8.51445e-05
0.000239727
4.43021e-06
9.38137e-06
1.96381e-05
4.06113e-05
8.45453e-05
0.000242929
5.02943e-06
9.90112e-06
1.98348e-05
4.08886e-05
9.02018e-05
0.000247385
6.27523e-06
1.10049e-05
2.08091e-05
4.37635e-05
0.000103374
0.000248553
8.18999e-06
1.29291e-05
2.35369e-05
5.13597e-05
0.00012288
0.000242474
1.10324e-05
1.66375e-05
3.02694e-05
6.60649e-05
0.000145881
0.000228332
1.5781e-05
2.45425e-05
4.46427e-05
8.91624e-05
0.000167865
0.000206106
0.00024031
0.000195226
0.000152136
0.000118345
9.28214e-05
7.70952e-05
0.000271981
0.000182992
0.00013648
0.000105047
8.36089e-05
7.1435e-05
0.000299249
0.00017867
0.000130525
0.000100626
8.04288e-05
6.80402e-05
0.000321081
0.000179587
0.000132489
0.000103618
8.13196e-05
6.52782e-05
0.000335043
0.000184239
0.000140259
0.000110103
8.16964e-05
5.92288e-05
0.00034296
0.000195644
0.000150808
0.00011402
7.69182e-05
4.94057e-05
0.000346748
0.000212478
0.000157422
0.000110203
6.67934e-05
3.75992e-05
0.000348594
0.0002303
0.000155803
9.81725e-05
5.33012e-05
2.66613e-05
0.000346472
0.000241669
0.000147945
8.33526e-05
4.14235e-05
1.9167e-05
0.000338642
0.000244022
0.000137729
7.19938e-05
3.46932e-05
1.61686e-05
0.000324211
0.000236419
0.000131004
6.83061e-05
3.45873e-05
1.77999e-05
0.000304575
0.000221152
0.000127198
7.13828e-05
4.06356e-05
2.43817e-05
0.000279259
0.000201606
0.000125981
7.87788e-05
5.09093e-05
3.48437e-05
0.000251664
0.000183604
0.000126208
8.86306e-05
6.38422e-05
4.77345e-05
0.000222529
0.000211434
0.00015816
0.000116464
8.49008e-05
6.52384e-05
0.000251259
0.000200561
0.000141812
9.83102e-05
6.87147e-05
5.26739e-05
0.000275232
0.000195518
0.000132092
8.73716e-05
5.87402e-05
4.34826e-05
0.000295139
0.000195683
0.000127492
8.3086e-05
5.35988e-05
3.68528e-05
0.000309272
0.000197357
0.000126846
8.10901e-05
4.92729e-05
3.1299e-05
0.000318461
0.00020209
0.000127316
7.8196e-05
4.45365e-05
2.56925e-05
0.000323694
0.000210606
0.000126191
7.25141e-05
3.83036e-05
1.99921e-05
0.00032623
0.000220386
0.000123059
6.49843e-05
3.17353e-05
1.5057e-05
0.000324493
0.000228065
0.000119217
5.82384e-05
2.67898e-05
1.18855e-05
0.000317601
0.000231446
0.000116171
5.46352e-05
2.48577e-05
1.10533e-05
0.00030416
0.000227875
0.000115741
5.55713e-05
2.65544e-05
1.27568e-05
0.000284936
0.000217988
0.000117905
6.13908e-05
3.25555e-05
1.77982e-05
0.000259663
0.000204127
0.000120827
6.9925e-05
4.16483e-05
2.58723e-05
0.000232064
0.000191396
0.000125604
8.09302e-05
5.33758e-05
3.64233e-05
0.0001987
0.000221719
0.000165856
0.000113458
7.41719e-05
4.84007e-05
0.000225585
0.000219461
0.000150079
9.11216e-05
5.29935e-05
3.26744e-05
0.000247851
0.000214283
0.000136666
7.54661e-05
4.11495e-05
2.43482e-05
0.000267067
0.000207847
0.000123755
6.65387e-05
3.49678e-05
1.94724e-05
0.000281211
0.000199836
0.000113173
5.97652e-05
3.04211e-05
1.58635e-05
0.000290671
0.000193476
0.000105391
5.43884e-05
2.67221e-05
1.2975e-05
0.000296474
0.000190727
0.000100326
5.00133e-05
2.35179e-05
1.06609e-05
0.000299702
0.000192494
9.83852e-05
4.73143e-05
2.13654e-05
9.14533e-06
0.000299517
0.000196969
9.90628e-05
4.63369e-05
2.03354e-05
8.42105e-06
0.000294588
0.000201412
0.000101602
4.72795e-05
2.07633e-05
8.6641e-06
0.000282832
0.000202002
0.000104717
4.96734e-05
2.24894e-05
9.88509e-06
0.000264015
0.000196972
0.000109213
5.49875e-05
2.67948e-05
1.29394e-05
0.000239095
0.00019099
0.00011368
6.15831e-05
3.28676e-05
1.77502e-05
0.000210589
0.000186194
0.000119826
7.02302e-05
4.09951e-05
2.44758e-05
0.000232929
0.000176191
0.000165831
0.000149565
0.00013196
0.000117091
0.000263375
0.000171391
0.000157082
0.000140651
0.000125471
0.000114382
0.000290432
0.000170003
0.000153149
0.000138069
0.000125004
0.000115243
0.000313204
0.000172583
0.000154752
0.000142405
0.000131617
0.00012162
0.000331114
0.000179844
0.000161303
0.000152914
0.000144664
0.000129518
0.000343512
0.000191005
0.000172859
0.000169046
0.000159296
0.000131936
0.000349942
0.000205712
0.000188873
0.000186337
0.000167074
0.000123766
0.000349005
0.000223421
0.000206209
0.000196676
0.000161018
0.000105656
0.000341892
0.000241516
0.000217668
0.000192297
0.000141615
8.49155e-05
0.000330354
0.000257226
0.000217385
0.000173757
0.000117688
6.89236e-05
0.000315238
0.000264556
0.000208987
0.000154013
0.000101219
6.20329e-05
0.000296145
0.000258195
0.000197107
0.000142067
9.64334e-05
6.45155e-05
0.000271552
0.000239941
0.000187594
0.000139343
0.000100366
7.30707e-05
0.000244611
0.000217359
0.00017882
0.000141857
0.000110262
8.6483e-05
0.000215474
0.000180918
0.000169117
0.00015259
0.000131949
0.000112916
0.000243242
0.000178372
0.000164347
0.000145558
0.000122582
0.000104378
0.000268076
0.000178096
0.00016255
0.000141975
0.000115725
9.48038e-05
0.00028968
0.000180483
0.000164954
0.000144352
0.000115799
9.1446e-05
0.000307028
0.000185568
0.000171018
0.000152469
0.00012123
8.71168e-05
0.000319433
0.000194362
0.00018108
0.000163527
0.000123314
8.29381e-05
0.000325858
0.00020783
0.000193651
0.000169247
0.000119855
7.48889e-05
0.000325427
0.000225207
0.000203065
0.000165563
0.000109685
6.43082e-05
0.00031905
0.000243193
0.00020396
0.00015257
9.55534e-05
5.41949e-05
0.000310284
0.000259123
0.000195862
0.000135816
8.30616e-05
4.79474e-05
0.00029628
0.000266146
0.000187957
0.000124722
7.72071e-05
4.6977e-05
0.000277238
0.000263183
0.000182963
0.000122967
8.03523e-05
5.26775e-05
0.000252547
0.000248921
0.000180937
0.000128225
8.98916e-05
6.34705e-05
0.000226027
0.000232462
0.000181577
0.000139771
0.000106216
8.01534e-05
0.000193666
0.000189133
0.000177819
0.000158891
0.000126109
9.49861e-05
0.00022013
0.000193043
0.000178393
0.000146329
0.000105847
7.6109e-05
0.000243883
0.0001968
0.000178935
0.000139055
9.31279e-05
6.11249e-05
0.00026547
0.000201898
0.000181695
0.000135964
8.74132e-05
5.69014e-05
0.000283093
0.000207262
0.00018287
0.000134048
8.59976e-05
5.3408e-05
0.000295299
0.000212812
0.000181884
0.000131267
8.24967e-05
4.88431e-05
0.000300436
0.000219388
0.00017916
0.00012509
7.61002e-05
4.33571e-05
0.000299935
0.000228453
0.000173635
0.000116323
6.91527e-05
3.8669e-05
0.000295592
0.000235633
0.000167449
0.000108256
6.34263e-05
3.52942e-05
0.000286592
0.000240962
0.000164004
0.000104083
6.11627e-05
3.46066e-05
0.000271502
0.000242326
0.000164214
0.000104316
6.27489e-05
3.67161e-05
0.000251451
0.000238789
0.000168068
0.000111177
7.05288e-05
4.38203e-05
0.000226611
0.000230793
0.000174276
0.000122497
8.30799e-05
5.53486e-05
0.000200515
0.000227366
0.000184638
0.000139914
0.000102126
7.25307e-05
2.76431e-05
2.01033e-05
1.51191e-05
1.22894e-05
1.13298e-05
1.12359e-05
1.18381e-05
1.29053e-05
1.46681e-05
1.7066e-05
2.00362e-05
2.30863e-05
2.71755e-05
3.85426e-05
1.43223e-05
1.03219e-05
7.81321e-06
6.36125e-06
5.8425e-06
5.83702e-06
6.22926e-06
6.90331e-06
8.00925e-06
9.59433e-06
1.1737e-05
1.42845e-05
1.81074e-05
2.68831e-05
8.21183e-06
5.41616e-06
4.02042e-06
3.26875e-06
2.99354e-06
3.00045e-06
3.22081e-06
3.60709e-06
4.26671e-06
5.29459e-06
6.82871e-06
8.94964e-06
1.23598e-05
1.91468e-05
5.23569e-06
2.99031e-06
2.06992e-06
1.64546e-06
1.49717e-06
1.50169e-06
1.61495e-06
1.82274e-06
2.20616e-06
2.87511e-06
4.0004e-06
5.76916e-06
8.72669e-06
1.41343e-05
3.61279e-06
1.7518e-06
1.06537e-06
7.98714e-07
7.14401e-07
7.15441e-07
7.71318e-07
8.8232e-07
1.1108e-06
1.56223e-06
2.40972e-06
3.88016e-06
6.39708e-06
1.07763e-05
2.68019e-06
1.10575e-06
5.56436e-07
3.71532e-07
3.19423e-07
3.18205e-07
3.46143e-07
4.09178e-07
5.55487e-07
8.77257e-07
1.53308e-06
2.75005e-06
4.87893e-06
8.49388e-06
2.13319e-06
7.69306e-07
3.09156e-07
1.69049e-07
1.33192e-07
1.30974e-07
1.46407e-07
1.87445e-07
2.92455e-07
5.39678e-07
1.0679e-06
2.08741e-06
3.90143e-06
6.964e-06
1.86354e-06
6.11742e-07
1.99475e-07
8.1391e-08
5.30663e-08
5.06501e-08
6.12651e-08
9.3709e-08
1.80851e-07
3.9102e-07
8.46044e-07
1.73579e-06
3.33207e-06
6.02952e-06
1.76136e-06
5.5229e-07
1.58716e-07
4.85495e-08
2.27929e-08
2.04692e-08
3.00992e-08
6.13632e-08
1.45587e-07
3.46668e-07
7.75953e-07
1.60649e-06
3.08884e-06
5.58222e-06
1.8329e-06
5.75141e-07
1.6093e-07
4.36043e-08
1.59353e-08
1.35146e-08
2.44493e-08
5.97384e-08
1.52361e-07
3.66741e-07
8.10284e-07
1.64493e-06
3.10781e-06
5.53641e-06
2.02036e-06
6.5522e-07
1.95165e-07
6.01309e-08
2.67075e-08
2.37066e-08
3.78464e-08
8.19809e-08
1.92875e-07
4.3937e-07
9.30936e-07
1.82519e-06
3.35324e-06
5.83832e-06
2.55994e-06
8.88512e-07
3.03877e-07
1.21786e-07
7.2108e-08
6.61827e-08
8.63709e-08
1.46795e-07
2.88951e-07
5.8847e-07
1.16076e-06
2.16348e-06
3.82325e-06
6.45365e-06
3.46923e-06
1.34097e-06
5.58722e-07
2.90912e-07
2.05941e-07
1.91163e-07
2.21968e-07
3.1212e-07
5.06441e-07
8.88628e-07
1.58417e-06
2.75702e-06
4.62562e-06
7.49629e-06
5.034e-06
2.21526e-06
1.12366e-06
7.02631e-07
5.46969e-07
5.12716e-07
5.64531e-07
7.14951e-07
1.0121e-06
1.55114e-06
2.47186e-06
3.95e-06
6.20171e-06
9.43102e-06
1.51879e-05
1.11249e-05
8.64534e-06
7.29607e-06
6.95778e-06
7.11335e-06
7.69148e-06
8.59028e-06
9.94373e-06
1.1795e-05
1.41568e-05
1.68648e-05
2.01009e-05
2.59174e-05
8.04595e-06
5.65858e-06
4.34371e-06
3.63746e-06
3.44614e-06
3.54832e-06
3.88591e-06
4.42347e-06
5.24915e-06
6.43333e-06
8.04981e-06
1.00565e-05
1.27335e-05
1.74581e-05
4.72765e-06
2.95896e-06
2.17761e-06
1.79796e-06
1.69242e-06
1.7477e-06
1.9257e-06
2.21955e-06
2.69109e-06
3.41913e-06
4.50699e-06
6.02097e-06
8.26529e-06
1.22217e-05
3.04093e-06
1.61703e-06
1.08555e-06
8.67059e-07
8.09096e-07
8.36605e-07
9.25e-07
1.07675e-06
1.33687e-06
1.78014e-06
2.52148e-06
3.69107e-06
5.58232e-06
8.909e-06
2.10391e-06
9.35838e-07
5.39668e-07
4.02364e-07
3.68942e-07
3.81584e-07
4.24218e-07
5.01362e-07
6.46439e-07
9.24238e-07
1.44627e-06
2.36659e-06
3.95488e-06
6.74486e-06
1.55778e-06
5.87909e-07
2.75274e-07
1.80126e-07
1.58431e-07
1.6333e-07
1.83763e-07
2.244e-07
3.10545e-07
4.95833e-07
8.79256e-07
1.61348e-06
2.94026e-06
5.27927e-06
1.23137e-06
4.11044e-07
1.53021e-07
8.02607e-08
6.4066e-08
6.52414e-08
7.55268e-08
9.9481e-08
1.57097e-07
2.92728e-07
5.91245e-07
1.19246e-06
2.31189e-06
4.29587e-06
1.05481e-06
3.27766e-07
1.00806e-07
3.8907e-08
2.51296e-08
2.47334e-08
3.08886e-08
4.81767e-08
9.38044e-08
2.06253e-07
4.59567e-07
9.792e-07
1.95872e-06
3.69755e-06
9.75631e-07
2.96376e-07
8.24335e-08
2.40984e-08
1.09088e-08
9.92938e-09
1.49274e-08
3.0839e-08
7.43306e-08
1.81716e-07
4.21185e-07
9.07527e-07
1.81878e-06
3.42408e-06
9.85256e-07
3.04711e-07
8.38303e-08
2.21561e-08
7.90194e-09
6.72175e-09
1.22593e-08
3.02751e-08
7.88271e-08
1.95333e-07
4.46861e-07
9.42752e-07
1.85271e-06
3.4277e-06
1.04871e-06
3.39847e-07
1.00401e-07
3.06364e-08
1.37674e-08
1.24869e-08
1.99491e-08
4.32643e-08
1.03365e-07
2.4148e-07
5.27971e-07
1.07287e-06
2.04526e-06
3.68689e-06
1.2497e-06
4.37745e-07
1.51065e-07
6.20716e-08
3.83857e-08
3.65132e-08
4.82291e-08
8.20559e-08
1.62886e-07
3.37849e-07
6.84099e-07
1.31688e-06
2.40842e-06
4.19554e-06
1.59203e-06
6.35404e-07
2.76836e-07
1.52405e-07
1.13209e-07
1.08971e-07
1.29531e-07
1.84316e-07
3.01991e-07
5.36835e-07
9.75553e-07
1.74315e-06
3.01472e-06
5.02617e-06
2.23397e-06
1.06786e-06
5.8283e-07
3.84739e-07
3.10554e-07
3.00109e-07
3.39552e-07
4.38825e-07
6.2975e-07
9.73685e-07
1.56629e-06
2.54262e-06
4.0725e-06
6.36205e-06
7.69324e-06
5.73687e-06
4.59558e-06
4.01234e-06
3.95327e-06
4.21237e-06
4.77158e-06
5.59525e-06
6.71928e-06
8.17571e-06
1.00095e-05
1.22343e-05
1.50173e-05
1.92915e-05
4.23344e-06
3.01391e-06
2.34947e-06
1.99806e-06
1.92467e-06
2.03807e-06
2.3213e-06
2.77404e-06
3.43349e-06
4.34854e-06
5.57894e-06
7.16526e-06
9.28684e-06
1.25745e-05
2.51633e-06
1.59337e-06
1.17726e-06
9.74185e-07
9.22389e-07
9.70738e-07
1.10654e-06
1.33746e-06
1.69742e-06
2.2406e-06
3.03999e-06
4.1744e-06
5.83073e-06
8.49125e-06
1.61263e-06
8.59238e-07
5.74196e-07
4.56197e-07
4.2598e-07
4.47093e-07
5.10364e-07
6.22743e-07
8.11406e-07
1.12672e-06
1.64611e-06
2.47252e-06
3.79341e-06
5.98658e-06
1.11058e-06
4.85379e-07
2.75721e-07
2.03477e-07
1.86457e-07
1.95733e-07
2.24729e-07
2.78479e-07
3.7739e-07
5.63632e-07
9.10058e-07
1.52509e-06
2.5863e-06
4.41113e-06
8.12746e-07
2.96444e-07
1.35184e-07
8.71604e-08
7.6712e-08
8.04727e-08
9.36666e-08
1.2001e-07
1.74627e-07
2.90994e-07
5.31982e-07
9.99234e-07
1.85532e-06
3.373e-06
6.31667e-07
2.02434e-07
7.26538e-08
3.72257e-08
2.97588e-08
3.09646e-08
3.71843e-08
5.14013e-08
8.51588e-08
1.64952e-07
3.43203e-07
7.10439e-07
1.41311e-06
2.69043e-06
5.29264e-07
1.58805e-07
4.70313e-08
1.75147e-08
1.12497e-08
1.13612e-08
1.47743e-08
2.41501e-08
4.90499e-08
1.11643e-07
2.56809e-07
5.65032e-07
1.16891e-06
2.28266e-06
4.8301e-07
1.43584e-07
3.8681e-08
1.08415e-08
4.79714e-09
4.4945e-09
7.0665e-09
1.52074e-08
3.79493e-08
9.58865e-08
2.30228e-07
5.15168e-07
1.07407e-06
2.10382e-06
4.87601e-07
1.49423e-07
3.99858e-08
1.0238e-08
3.66834e-09
3.2661e-09
6.07719e-09
1.52244e-08
4.05292e-08
1.03436e-07
2.45179e-07
5.38178e-07
1.10231e-06
2.12517e-06
5.29038e-07
1.70805e-07
4.91691e-08
1.4919e-08
7.15523e-09
6.88756e-09
1.09103e-08
2.32279e-08
5.56131e-08
1.32526e-07
2.98822e-07
6.30096e-07
1.24932e-06
2.34235e-06
6.30019e-07
2.21674e-07
7.59439e-08
3.21464e-08
2.14032e-08
2.15392e-08
2.8727e-08
4.8104e-08
9.44721e-08
1.97302e-07
4.08295e-07
8.10621e-07
1.53511e-06
2.76977e-06
8.04677e-07
3.2927e-07
1.46306e-07
8.36609e-08
6.55874e-08
6.63963e-08
8.12587e-08
1.16326e-07
1.89911e-07
3.38162e-07
6.22613e-07
1.13856e-06
2.0278e-06
3.48379e-06
1.14709e-06
5.76348e-07
3.23189e-07
2.19221e-07
1.83838e-07
1.85959e-07
2.18822e-07
2.89422e-07
4.19478e-07
6.51896e-07
1.05787e-06
1.74504e-06
2.86167e-06
4.59544e-06
4.489e-06
3.38644e-06
2.667e-06
2.29328e-06
2.24308e-06
2.45006e-06
2.91216e-06
3.60634e-06
4.54097e-06
5.73911e-06
7.22603e-06
9.07894e-06
1.14416e-05
1.48488e-05
2.47644e-06
1.79217e-06
1.37069e-06
1.13344e-06
1.06641e-06
1.13734e-06
1.3463e-06
1.69889e-06
2.2203e-06
2.94936e-06
3.93089e-06
5.23015e-06
6.97647e-06
9.54554e-06
1.42784e-06
9.2425e-07
6.72274e-07
5.38488e-07
4.94112e-07
5.18202e-07
6.09533e-07
7.77416e-07
1.04812e-06
1.46439e-06
2.08221e-06
2.9792e-06
4.28536e-06
6.28989e-06
8.79866e-07
4.76031e-07
3.14738e-07
2.42054e-07
2.18498e-07
2.27469e-07
2.66902e-07
3.43676e-07
4.78477e-07
7.09507e-07
1.09436e-06
1.71719e-06
2.70952e-06
4.31229e-06
5.83712e-07
2.54102e-07
1.43135e-07
1.02571e-07
9.09392e-08
9.4656e-08
1.11662e-07
1.46344e-07
2.13355e-07
3.4304e-07
5.87436e-07
1.02748e-06
1.78822e-06
3.08273e-06
4.13036e-07
1.46986e-07
6.60454e-08
4.14912e-08
3.545e-08
3.69773e-08
4.435e-08
6.04393e-08
9.53911e-08
1.71976e-07
3.33165e-07
6.50556e-07
1.23795e-06
2.28513e-06
3.12435e-07
9.662e-08
3.36734e-08
1.67473e-08
1.30378e-08
1.35626e-08
1.69027e-08
2.50987e-08
4.53792e-08
9.47348e-08
2.07416e-07
4.4452e-07
9.07795e-07
1.76714e-06
2.58261e-07
7.50148e-08
2.13429e-08
7.58857e-09
4.71436e-09
4.79501e-09
6.56077e-09
1.16362e-08
2.562e-08
6.19355e-08
1.4878e-07
3.39021e-07
7.2439e-07
1.45944e-06
2.39546e-07
6.93935e-08
1.78897e-08
4.7328e-09
2.00152e-09
1.91144e-09
3.2014e-09
7.38355e-09
1.94823e-08
5.14781e-08
1.28694e-07
2.99491e-07
6.49687e-07
1.32431e-06
2.52868e-07
7.51403e-08
1.91411e-08
4.71175e-09
1.7439e-09
1.6456e-09
3.06655e-09
7.70909e-09
2.09555e-08
5.51974e-08
1.35897e-07
3.11053e-07
6.65943e-07
1.3431e-06
2.89766e-07
8.94509e-08
2.45388e-08
7.50771e-09
4.03881e-09
4.16986e-09
6.39481e-09
1.29545e-08
3.04844e-08
7.35579e-08
1.70858e-07
3.74578e-07
7.75725e-07
1.52098e-06
3.57109e-07
1.20184e-07
4.01393e-08
1.77571e-08
1.30337e-08
1.39524e-08
1.86259e-08
3.01154e-08
5.72887e-08
1.18818e-07
2.49849e-07
5.11376e-07
1.00585e-06
1.88764e-06
4.70669e-07
1.88037e-07
8.31512e-08
4.91878e-08
4.10977e-08
4.41005e-08
5.54954e-08
7.93061e-08
1.27476e-07
2.24742e-07
4.16105e-07
7.75884e-07
1.42209e-06
2.51803e-06
6.94204e-07
3.4788e-07
1.94019e-07
1.33451e-07
1.16843e-07
1.24859e-07
1.53144e-07
2.06746e-07
3.01167e-07
4.68026e-07
7.63018e-07
1.27449e-06
2.13344e-06
3.50447e-06
3.1896e-06
2.39614e-06
1.82837e-06
1.49954e-06
1.39633e-06
1.49701e-06
1.80459e-06
2.32048e-06
3.06585e-06
4.06672e-06
5.34068e-06
6.94401e-06
8.97755e-06
1.17878e-05
1.71963e-06
1.25205e-06
9.34191e-07
7.38082e-07
6.56873e-07
6.77175e-07
8.01958e-07
1.04505e-06
1.43728e-06
2.01926e-06
2.82977e-06
3.92728e-06
5.40514e-06
7.51133e-06
9.45855e-07
6.25124e-07
4.47452e-07
3.42893e-07
2.96437e-07
2.97762e-07
3.47406e-07
4.56205e-07
6.49963e-07
9.68459e-07
1.46028e-06
2.19297e-06
3.26577e-06
4.8727e-06
5.46002e-07
3.05308e-07
2.01532e-07
1.4879e-07
1.26107e-07
1.24997e-07
1.44936e-07
1.92346e-07
2.84938e-07
4.5482e-07
7.4975e-07
1.23935e-06
2.02479e-06
3.27918e-06
3.36406e-07
1.51237e-07
8.66805e-08
6.0198e-08
5.00489e-08
4.94377e-08
5.76716e-08
7.83871e-08
1.22928e-07
2.14849e-07