/*--------------------------------*- C++ -*----------------------------------*\
| =========                 |                                                 |
| \\      /  F ield         | OpenFOAM: The Open Source CFD Toolbox           |
|  \\    /   O peration     | Version:  v2106                                 |
|   \\  /    A nd           | Website:  www.openfoam.com                      |
|    \\/     M anipulation  |                                                 |
\*---------------------------------------------------------------------------*/
FoamFile
{
    version     2.0;
    format      ascii;
    arch        "LSB;label=32;scalar=64";
    class       volScalarField;
    location    "0.000123";
    object      k;
}
// * * * * * * * * * * * * * * * * * * * * * * * * * * * * * * * * * * * * * //

dimensions      [0 2 -2 0 0 0 0];

internalField   nonuniform List<scalar> 
18109
(
0.000101225
4.40594e-05
9.81228e-05
0.00025032
0.000523325
0.000869621
0.00117025
0.00022685
5.22181e-05
1.79428e-05
2.50186e-05
5.49166e-05
0.00010212
0.000155091
0.000621541
0.000140792
2.87044e-05
6.63093e-06
5.04788e-06
9.23866e-06
1.59031e-05
0.00144772
0.000332047
6.74768e-05
1.22263e-05
2.15021e-06
8.50991e-07
1.23002e-06
0.00251393
0.000592703
0.000121304
2.16623e-05
3.3523e-06
4.65654e-07
1.08814e-07
0.00321415
0.000742837
0.000148525
2.56465e-05
3.79241e-06
4.74531e-07
5.09198e-08
0.00338001
0.000732574
0.000137297
2.21773e-05
3.06131e-06
3.55871e-07
3.41657e-08
0.00305966
0.000611911
0.000105448
1.55866e-05
1.96228e-06
2.0765e-07
1.81133e-08
2.11201e-05
6.47133e-06
1.25379e-05
3.56537e-05
8.27794e-05
0.000148532
0.000210608
0.00024329
0.000233341
0.000185541
0.000119598
6.17231e-05
2.37924e-05
6.89223e-06
5.27264e-05
1.08804e-05
2.81878e-06
3.11608e-06
7.20616e-06
1.42988e-05
2.27141e-05
2.91881e-05
3.07803e-05
2.66754e-05
1.81573e-05
9.41859e-06
3.39918e-06
9.06033e-07
0.000151015
3.13159e-05
5.80683e-06
1.10238e-06
5.91313e-07
1.05165e-06
1.86585e-06
2.68326e-06
3.11912e-06
2.97455e-06
2.14438e-06
1.12696e-06
3.90798e-07
1.01271e-07
0.000363946
7.54959e-05
1.38228e-05
2.23263e-06
3.31662e-07
9.06921e-08
1.14155e-07
1.81256e-07
2.3833e-07
2.56224e-07
2.00295e-07
1.08491e-07
3.66346e-08
2.00907e-08
0.000634869
0.000133384
2.41279e-05
3.77076e-06
5.05387e-07
5.91e-08
9.71785e-09
9.00329e-09
1.34029e-08
1.66111e-08
1.43586e-08
8.14057e-09
3.56719e-09
5.70723e-08
0.00080139
0.000162363
2.82266e-05
4.20248e-06
5.31293e-07
5.65167e-08
5.09902e-09
6.57924e-10
5.83909e-10
8.23988e-10
8.00032e-10
4.90332e-10
3.30628e-09
2.03175e-07
0.000820921
0.000154847
2.50926e-05
3.47654e-06
4.08222e-07
4.02185e-08
3.2811e-09
2.29386e-10
3.33474e-11
3.47494e-11
3.71783e-11
5.19108e-11
8.24953e-09
4.8249e-07
0.000711466
0.000123597
1.84347e-05
2.34439e-06
2.52315e-07
2.27897e-08
1.70747e-09
1.08277e-10
9.59099e-12
5.08825e-12
5.54543e-12
9.57833e-11
1.47665e-08
7.5847e-07
0.000530148
8.4947e-05
1.16857e-05
1.36931e-06
1.35544e-07
1.1257e-08
7.83664e-10
5.1302e-11
7.54039e-12
4.59687e-12
6.28517e-12
2.60256e-10
2.08618e-08
8.47769e-07
0.000335156
5.01237e-05
6.3907e-06
6.90495e-07
6.28628e-08
5.06176e-09
5.41514e-10
1.46502e-10
5.57268e-11
1.90097e-11
1.29282e-11
5.02023e-10
2.43614e-08
6.97439e-07
0.000175538
2.48353e-05
2.96339e-06
3.01445e-07
3.14367e-08
8.89109e-09
5.54197e-09
3.02757e-09
1.28959e-09
4.08855e-10
1.08222e-10
5.32946e-10
1.99774e-08
4.2994e-07
7.93891e-05
1.08329e-05
1.25104e-06
1.73999e-07
1.08995e-07
1.15348e-07
9.18493e-08
5.41811e-08
2.46115e-08
8.40652e-09
2.2167e-09
7.12469e-10
9.59438e-09
1.80255e-07
3.09721e-05
4.19962e-06
7.39802e-07
7.61011e-07
1.23816e-06
1.45345e-06
1.21266e-06
7.57675e-07
3.66734e-07
1.35737e-07
3.89184e-08
8.85122e-09
4.32357e-09
5.4442e-08
1.34046e-05
2.8061e-06
3.18731e-06
7.27552e-06
1.24172e-05
1.48277e-05
1.28179e-05
8.45522e-06
4.35919e-06
1.74123e-06
5.42288e-07
1.35207e-07
2.88719e-08
4.72618e-08
0.000207133
0.000616419
0.00194785
0.00604062
0.0174024
0.0450898
3.86943e-05
0.000112258
0.000354074
0.00116415
0.00376309
0.0113425
3.30798e-05
0.000199139
0.00101581
0.00436397
0.0158306
0.0487231
0.000123608
0.000787099
0.00397139
0.0161548
0.0545504
0.15465
0.000345787
0.00227925
0.0115161
0.0454905
0.144348
0.371779
0.000743291
0.00488065
0.0241663
0.091594
0.272827
0.650144
0.00121476
0.00772281
0.0369123
0.133899
0.377685
0.84921
0.00154747
0.00935702
0.0429195
0.149885
0.406867
0.883079
0.00159467
0.00903464
0.039857
0.135703
0.360857
0.771572
0.00136156
0.00711474
0.0300949
0.100969
0.268193
0.576568
0.000983976
0.00474342
0.0194926
0.0653454
0.174698
0.378224
0.00060941
0.00272202
0.0108694
0.0362287
0.0973562
0.212399
0.000312334
0.00127829
0.00494529
0.0162521
0.0439299
0.0964476
0.000121399
0.000445286
0.00163817
0.00508009
0.0137484
0.0299465
3.5041e-05
0.000116163
0.000378801
0.00104763
0.00278723
0.00598943
6.32914e-06
1.84402e-05
5.47818e-05
0.000141558
0.000373502
0.000810191
7.35456e-07
2.35772e-06
8.10013e-06
3.35614e-05
0.00018369
0.00106192
1.15416e-07
1.29259e-06
1.62569e-05
0.000160687
0.00119296
0.00690484
3.80969e-07
7.45017e-06
9.58337e-05
0.000873508
0.00581531
0.029479
1.73704e-06
3.19327e-05
0.000378524
0.00313723
0.0187527
0.0838516
5.64564e-06
9.63824e-05
0.00105096
0.00794463
0.04304
0.17045
1.24809e-05
0.0002023
0.00208519
0.0145876
0.0712073
0.250015
1.81411e-05
0.000273425
0.00263843
0.0172653
0.0787346
0.258581
1.84902e-05
0.000255956
0.00232717
0.0145376
0.0639606
0.203756
1.32633e-05
0.000164621
0.00141398
0.00861257
0.0375952
0.120403
6.65045e-06
7.3225e-05
0.000582151
0.00346056
0.0156875
0.0525633
2.51078e-06
2.38003e-05
0.000177146
0.0010442
0.00489496
0.0171375
6.92972e-07
5.7605e-06
3.91743e-05
0.000213741
0.000994543
0.0036004
1.68654e-07
1.18641e-06
7.14505e-06
3.42509e-05
0.000140101
0.000470342
2.42414e-07
1.05018e-06
4.58496e-06
1.98082e-05
8.2721e-05
0.000328731
3.70944e-07
2.75205e-06
1.7974e-05
0.000102685
0.00050948
0.00221567
1.63953e-06
1.33444e-05
9.24393e-05
0.000543326
0.00269188
0.0113542
6.02642e-06
5.11274e-05
0.000360205
0.00210533
0.0101279
0.040359
1.78832e-05
0.000152418
0.00105799
0.00598581
0.0273434
0.101267
4.18051e-05
0.000349772
0.00235638
0.0127534
0.0547508
0.186009
7.6496e-05
0.000617095
0.00398117
0.0204081
0.081824
0.254761
0.000110581
0.000845699
0.00515596
0.0247868
0.0922325
0.265408
0.000124202
0.000886963
0.00503456
0.0225347
0.0786251
0.21504
0.000103028
0.000677319
0.00351668
0.0145234
0.0478486
0.127564
6.12437e-05
0.000367511
0.00173244
0.00659543
0.0207161
0.0540596
2.68107e-05
0.000146138
0.00062546
0.00219527
0.00650282
0.0162955
1.15962e-05
5.48367e-05
0.00020772
0.000652643
0.00173739
0.00392724
1.4761e-05
5.62884e-05
0.000191641
0.000579316
0.00156322
0.00386191
0.00557357
0.016985
0.0456211
0.106149
0.218933
0.386391
0.00246776
0.00721193
0.0190342
0.0430801
0.0893918
0.157942
0.000949289
0.002542
0.00621181
0.0134842
0.0268851
0.0474204
0.000340666
0.00087959
0.00209603
0.00457872
0.00930985
0.0174801
8.34424e-05
0.000288831
0.00093728
0.00279052
0.00758297
0.0187766
0.000199198
0.000808857
0.00295774
0.00956373
0.0274086
0.0696044
0.000498602
0.00220712
0.0084546
0.0276933
0.0786457
0.194041
0.00106028
0.00495573
0.0195244
0.0642843
0.178439
0.41729
0.00191497
0.00910611
0.0358308
0.115405
0.306452
0.676129
0.00283489
0.0132869
0.0510375
0.158683
0.402799
0.846749
0.00350804
0.0157247
0.0580862
0.174044
0.425763
0.866806
0.0037257
0.0156627
0.0551551
0.159552
0.379931
0.760512
0.00338322
0.0131866
0.0440483
0.123395
0.28926
0.574896
0.00257451
0.00927888
0.0292956
0.0794759
0.185426
0.37294
0.00153823
0.00524576
0.015928
0.0421861
0.100588
0.204362
0.000665364
0.0021524
0.0063643
0.0162938
0.0392662
0.0786436
0.000243513
0.000720044
0.00195132
0.00468826
0.0104671
0.0211471
8.32748e-05
0.000233505
0.000599368
0.00139528
0.00299535
0.00577169
0.0312897
0.121541
0.331738
0.683686
1.14553
0.129087
0.426446
1.01999
1.92877
3.08831
0.373946
1.05603
2.24909
3.9394
6.02935
0.795117
1.93179
3.72327
6.05507
8.61335
1.28185
2.74538
4.93374
7.69499
10.23
1.59088
3.24965
5.70447
8.80999
10.8668
1.62199
3.30398
5.99998
9.26837
10.5921
1.41561
2.95844
5.72643
8.87146
9.63341
7.37222
1.05171
2.21419
4.53735
7.25224
8.13179
6.47546
0.691403
1.38424
2.6121
4.8511
6.42163
5.58877
0.392631
0.738127
1.19301
2.28836
4.34883
4.64739
3.78872
0.174738
0.30441
0.463463
0.706874
1.76507
3.13992
3.44767
2.73964
0.0536461
0.0908755
0.136983
0.185009
0.253318
0.746699
2.16834
5.16251
0.0107748
0.0195982
0.0332608
0.0503274
0.0683404
0.083949
0.0400292
0.4296
0.00186965
0.00767114
0.0305262
0.0902392
0.191902
0.305542
0.107171
0.702492
0.00558824
0.0362488
0.14631
0.40222
0.799786
1.23981
0.83051
2.01227
0.03152
0.162739
0.54395
1.30079
2.38654
3.70458
5.05499
8.89061
0.11503
0.481571
1.35624
2.8525
4.79208
7.04051
11.5688
24.8205
0.283557
0.984693
2.37074
4.4036
6.62358
8.5954
11.497
14.7609
0.499414
1.46161
3.12067
5.32963
7.5007
8.79259
9.48845
13.1735
0.650297
1.70594
3.429
5.78808
8.09897
8.93505
8.50077
11.3893
0.639456
1.65363
3.39964
5.96992
8.45843
8.99021
8.35194
8.41154
0.49743
1.3342
2.95011
5.53207
8.00398
8.26185
0.296478
0.824249
1.9366
4.15601
6.57879
6.92949
0.135282
0.382192
0.870107
2.16223
4.40838
5.42269
0.0459993
0.133449
0.288218
0.566055
1.78792
3.44882
0.0101225
0.0311636
0.0703428
0.123715
0.203074
0.724419
0.00128536
0.00501513
0.0139437
0.0286685
0.0469797
0.00121533
0.00696314
0.028156
0.0817902
0.170616
0.00839054
0.0426335
0.151271
0.3902
0.75703
0.040573
0.178042
0.551882
1.27702
2.32218
0.132473
0.498469
1.34631
2.78775
4.67622
0.301809
0.974738
2.29423
4.22976
6.38905
0.496921
1.39557
2.94003
5.03204
7.14253
0.61911
1.5767
3.16106
5.37482
7.57089
0.605457
1.50278
3.05215
5.39134
7.68551
0.474492
1.18997
2.54467
4.78576
7.03325
0.276212
0.710118
1.61358
3.39962
5.58928
0.113911
0.304273
0.709802
1.70864
3.58008
0.0324299
0.0948886
0.215064
0.465573
1.42298
0.00740997
0.0236226
0.0588853
0.113827
0.217579
0.00887301
0.0311355
0.0830264
0.171908
0.290099
0.0425811
0.138567
0.342591
0.672915
1.10529
0.158322
0.463063
1.04515
1.92681
3.06574
0.420909
1.09644
2.26016
3.91548
5.99736
0.833534
1.93217
3.65334
5.91674
8.45823
1.27101
2.65584
4.73169
7.41367
9.92835
1.52646
3.05559
5.38502
8.38497
10.4268
1.53337
3.07196
5.56216
8.66141
10.0287
1.33018
2.71638
5.15364
8.13457
9.04894
0.984591
2.01206
3.94946
6.57652
7.6833
0.632631
1.1989
2.24271
4.28808
5.99253
0.33241
0.585711
0.975901
1.96158
3.87968
0.124203
0.221224
0.350662
0.588416
1.56565
0.0338229
0.0655043
0.11188
0.173829
0.296895
0.0107089
0.0349665
0.0939862
0.196226
0.330656
1.97446e-06
4.32522e-07
5.67798e-07
1.7894e-06
4.75925e-06
9.66046e-06
1.52573e-05
1.92276e-05
1.96622e-05
1.63412e-05
1.06758e-05
5.52791e-06
2.16083e-06
6.54502e-07
5.64235e-06
1.03938e-06
2.03825e-07
1.46421e-07
3.57559e-07
8.01879e-07
1.42422e-06
2.00673e-06
2.27019e-06
2.0741e-06
1.44539e-06
7.59599e-07
2.85392e-07
8.10181e-08
1.66592e-05
3.10446e-06
5.18288e-07
8.28767e-08
2.98099e-08
5.19999e-08
1.02716e-07
1.62241e-07
2.037e-07
2.0594e-07
1.52896e-07
8.19363e-08
3.02639e-08
8.25371e-09
4.01641e-05
7.4931e-06
1.23319e-06
1.79161e-07
2.34236e-08
4.82259e-09
5.66859e-09
9.8495e-09
1.40938e-08
1.60214e-08
1.28902e-08
7.14179e-09
2.60635e-09
8.63287e-10
6.89078e-05
1.28674e-05
2.07759e-06
2.90703e-07
3.50331e-08
3.68557e-09
5.19322e-10
4.70482e-10
7.48875e-10
9.69991e-10
8.53027e-10
4.9359e-10
1.92229e-10
1.05973e-09
8.38816e-05
1.49699e-05
2.30529e-06
3.05784e-07
3.47036e-08
3.35526e-09
2.81972e-10
3.77855e-11
3.525e-11
4.90765e-11
4.76253e-11
3.05245e-11
4.65124e-11
4.22444e-09
8.10073e-05
1.34073e-05
1.92022e-06
2.36959e-07
2.5016e-08
2.2485e-09
1.73385e-10
1.4956e-11
5.38213e-12
5.50098e-12
5.59442e-12
5.51661e-12
1.13906e-10
1.12772e-08
6.47655e-05
9.85761e-06
1.30009e-06
1.47719e-07
1.43693e-08
1.19323e-09
8.6856e-11
8.73509e-12
4.14837e-12
3.94296e-12
3.95384e-12
6.46874e-12
2.89629e-10
2.01876e-08
4.39406e-05
6.18539e-06
7.55072e-07
7.94158e-08
7.14668e-09
5.50979e-10
3.93607e-11
5.89138e-12
4.01595e-12
3.90806e-12
3.95885e-12
1.22967e-11
6.24945e-10
2.70476e-08
2.50889e-05
3.31339e-06
3.76897e-07
3.67577e-08
3.0572e-09
2.27553e-10
2.35018e-11
7.97557e-12
5.22472e-12
4.25552e-12
4.14971e-12
2.19807e-11
9.80939e-10
2.89428e-08
1.18279e-05
1.48867e-06
1.59568e-07
1.47244e-08
1.37998e-09
3.39408e-10
1.94242e-10
1.00326e-10
4.20451e-11
1.50934e-11
6.66266e-12
2.49363e-11
9.25531e-10
2.22185e-08
4.8245e-06
5.89584e-07
6.13349e-08
7.97422e-09
5.02428e-09
5.05358e-09
3.7497e-09
2.04674e-09
8.59481e-10
2.72879e-10
6.92942e-11
2.79808e-11
4.92388e-10
1.03582e-08
1.70684e-06
2.08267e-07
3.6292e-08
4.23366e-08
6.84277e-08
7.60806e-08
5.90124e-08
3.38863e-08
1.49817e-08
5.04243e-09
1.31645e-09
2.75618e-10
1.96018e-10
3.18151e-09
6.84731e-07
1.49098e-07
2.08866e-07
4.90219e-07
8.19255e-07
9.28252e-07
7.44374e-07
4.48685e-07
2.09259e-07
7.5047e-08
2.09233e-08
4.66398e-09
9.15532e-10
2.1478e-09
1.93974e-07
3.41832e-08
2.42757e-08
7.90812e-08
2.42552e-07
5.70647e-07
1.03878e-06
1.48979e-06
1.69663e-06
1.52953e-06
1.04458e-06
5.51607e-07
2.1884e-07
6.90868e-08
6.18173e-07
1.03014e-07
1.67126e-08
7.08277e-09
1.7135e-08
4.43137e-08
9.05479e-08
1.44726e-07
1.81819e-07
1.81188e-07
1.32258e-07
7.11037e-08
2.74593e-08
8.23535e-09
1.8252e-06
3.10345e-07
4.72386e-08
6.65351e-09
1.67302e-09
2.75835e-09
6.19487e-09
1.10447e-08
1.5523e-08
1.70567e-08
1.32282e-08
7.25001e-09
2.76895e-09
8.06669e-10
4.28532e-06
7.31194e-07
1.09991e-07
1.46181e-08
1.73725e-09
2.9647e-10
3.39988e-10
6.64684e-10
1.04921e-09
1.27818e-09
1.0637e-09
6.01423e-10
2.30169e-10
7.05178e-11
7.03931e-06
1.19381e-06
1.75819e-07
2.25396e-08
2.50694e-09
2.47775e-10
3.61081e-11
3.57333e-11
5.89181e-11
7.88864e-11
7.10644e-11
4.29665e-11
1.88928e-11
2.39291e-11
8.03117e-06
1.30015e-06
1.82641e-07
2.22422e-08
2.33877e-09
2.14762e-10
2.04105e-11
5.94362e-12
6.09575e-12
7.23053e-12
7.13175e-12
5.8169e-12
5.26206e-12
8.71553e-11
7.09575e-06
1.06954e-06
1.40327e-07
1.5989e-08
1.5743e-09
1.36475e-10
1.33448e-11
4.39611e-12
3.88186e-12
3.90134e-12
3.90653e-12
3.88283e-12
7.22703e-12
2.95715e-10
5.08776e-06
7.09227e-07
8.62343e-08
9.12035e-09
8.36332e-10
6.92457e-11
8.18099e-12
4.03586e-12
3.7967e-12
3.78496e-12
3.78435e-12
3.90405e-12
1.64585e-11
7.46338e-10
3.07763e-06
3.99262e-07
4.52348e-08
4.46212e-09
3.83153e-10
3.15857e-11
5.53164e-12
3.88095e-12
3.78931e-12
3.78301e-12
3.78429e-12
4.21248e-12
3.70838e-11
1.41107e-09
1.56805e-06
1.91772e-07
2.03507e-08
1.87216e-09
1.51271e-10
1.40419e-11
4.56349e-12
3.90887e-12
3.81964e-12
3.79241e-12
3.79322e-12
4.76984e-12
6.2214e-11
1.8939e-09
6.65235e-07
7.78253e-08
7.80845e-09
6.8299e-10
6.299e-11
1.63067e-11
1.01764e-11
6.77957e-12
4.88156e-12
4.08442e-12
3.86002e-12
4.99671e-12
6.28433e-11
1.58802e-09
2.46508e-07
2.80079e-08
2.72933e-09
3.51524e-10
2.27353e-10
2.15564e-10
1.49096e-10
7.66223e-11
3.17273e-11
1.18617e-11
5.59506e-12
4.83868e-12
3.6674e-11
7.79299e-10
7.98311e-08
9.08399e-09
1.70756e-09
2.29978e-09
3.60636e-09
3.73194e-09
2.65739e-09
1.39041e-09
5.59555e-10
1.73526e-10
4.39787e-11
1.14657e-11
1.51398e-11
2.406e-10
3.04487e-08
7.54837e-09
1.34532e-08
3.18269e-08
5.071e-08
5.30571e-08
3.86861e-08
2.10086e-08
8.79124e-09
2.83101e-09
7.12383e-10
1.45507e-10
3.0625e-11
1.18794e-10
1.66837e-08
2.58246e-09
1.00695e-09
3.05854e-09
1.06758e-08
2.89158e-08
6.03427e-08
9.80985e-08
1.24568e-07
1.22559e-07
8.82152e-08
4.77858e-08
1.93064e-08
6.3056e-09
5.62007e-08
8.61155e-09
1.23803e-09
3.38793e-10
7.42855e-10
2.17698e-09
5.04924e-09
9.07858e-09
1.27687e-08
1.38417e-08
1.06252e-08
5.86992e-09
2.3271e-09
7.2748e-10
1.64798e-07
2.58156e-08
3.61554e-09
4.63837e-10
9.18955e-11
1.37569e-10
3.41736e-10
6.85087e-10
1.0656e-09
1.26258e-09
1.02501e-09
5.77635e-10
2.28572e-10
7.17473e-11
3.72244e-07
5.85661e-08
8.12787e-09
9.99173e-10
1.12365e-10
1.99054e-11
2.26455e-11
4.48493e-11
7.44076e-11
9.54986e-11
8.28108e-11
4.92322e-11
2.14282e-11
9.01413e-12
5.81203e-07
9.0456e-08
1.22695e-08
1.4566e-09
1.53632e-10
1.73805e-11
5.51066e-12
5.73622e-12
7.45395e-12
9.05104e-12
8.61127e-12
6.60525e-12
4.84836e-12
4.41147e-12
6.16882e-07
9.17621e-08
1.18944e-08
1.34623e-09
1.35344e-10
1.49156e-11
4.5621e-12
3.8413e-12
3.87386e-12
3.95926e-12
3.95482e-12
3.8616e-12
3.79812e-12
6.18442e-12
4.96721e-07
6.91891e-08
8.42731e-09
8.99229e-10
8.64184e-11
1.03428e-11
4.17632e-12
3.74736e-12
3.72377e-12
3.72532e-12
3.72527e-12
3.72297e-12
3.86992e-12
1.48815e-11
3.20111e-07
4.15378e-08
4.72729e-09
4.7387e-10
4.4431e-11
6.78229e-12
3.91884e-12
3.73049e-12
3.71917e-12
3.71803e-12
3.71756e-12
3.72363e-12
4.37203e-12
3.99575e-11
1.73777e-07
2.11406e-08
2.25902e-09
2.14476e-10
2.08509e-11
4.9313e-12
3.79533e-12
3.72452e-12
3.71991e-12
3.719e-12
3.71865e-12
3.74216e-12
5.62684e-12
8.62839e-11
7.97375e-08
9.18769e-09
9.25621e-10
8.43577e-11
9.83354e-12
4.13146e-12
3.75035e-12
3.72511e-12
3.72179e-12
3.72054e-12
3.72044e-12
3.77785e-12
7.35625e-12
1.29195e-10
3.08213e-08
3.40498e-09
3.27174e-10
3.05742e-11
5.92142e-12
4.11773e-12
3.90111e-12
3.7998e-12
3.74856e-12
3.72858e-12
3.72363e-12
3.79683e-12
7.64473e-12
1.1724e-10
1.05006e-08
1.12593e-09
1.07296e-10
1.66934e-11
1.20084e-11
1.10587e-11
8.38126e-12
5.8748e-12
4.48345e-12
3.92659e-12
3.76562e-12
3.77862e-12
6.00767e-12
6.22945e-11
3.15027e-09
3.41521e-10
7.30263e-11
1.07549e-10
1.60478e-10
1.5424e-10
1.02143e-10
5.07071e-11
2.09113e-11
8.53419e-12
4.76805e-12
3.91738e-12
4.4676e-12
2.15766e-11
1.18493e-09
3.3772e-10
7.19034e-10
1.69797e-09
2.57068e-09
2.47978e-09
1.64916e-09
8.13327e-10
3.10187e-10
9.31921e-11
2.40888e-11
7.42219e-12
4.49028e-12
1.01903e-11
1.22172e-09
1.75396e-10
4.56965e-11
1.1242e-10
4.31316e-10
1.32123e-09
3.11269e-09
5.6679e-09
7.95436e-09
8.41523e-09
6.32336e-09
3.48998e-09
1.4302e-09
4.79468e-10
4.22135e-09
6.02582e-10
8.18769e-11
1.91443e-11
3.34266e-11
1.01352e-10
2.5781e-10
5.12535e-10
7.87446e-10
9.1264e-10
7.30359e-10
4.13465e-10
1.68787e-10
5.63073e-11
1.2207e-08
1.77627e-09
2.33451e-10
3.05933e-11
7.97664e-12
9.79607e-12
2.06611e-11
4.1205e-11
6.70361e-11
8.35867e-11
7.09991e-11
4.22808e-11
1.90738e-11
8.45504e-12
2.65204e-08
3.87342e-09
5.02214e-10
6.04335e-11
9.44588e-12
4.47947e-12
4.64951e-12
5.9434e-12
7.83183e-12
9.35997e-12
8.73249e-12
6.64301e-12
4.86049e-12
4.04824e-12
3.92677e-08
5.66103e-09
7.16443e-10
8.23509e-11
1.1286e-11
4.34485e-12
3.77979e-12
3.8037e-12
3.91015e-12
4.01613e-12
3.9967e-12
3.87453e-12
3.76493e-12
3.72479e-12
3.87304e-08
5.35106e-09
6.49461e-10
7.19189e-11
9.98663e-12
4.20114e-12
3.73095e-12
3.70002e-12
3.70259e-12
3.70786e-12
3.70778e-12
3.7022e-12
3.69791e-12
3.77833e-12
2.8507e-08
3.71274e-09
4.27146e-10
4.60814e-11
7.40164e-12
3.97842e-12
3.71399e-12
3.69589e-12
3.69465e-12
3.69456e-12
3.69446e-12
3.69431e-12
3.7009e-12
4.15247e-12
1.6642e-08
2.03709e-09
2.22271e-10
2.43426e-11
5.40289e-12
3.82017e-12
3.70419e-12
3.69628e-12
3.69543e-12
3.69509e-12
3.69491e-12
3.6952e-12
3.72692e-12
5.42784e-12
8.18556e-09
9.47878e-10
9.9528e-11
1.22485e-11
4.36603e-12
3.74403e-12
3.70054e-12
3.69732e-12
3.69669e-12
3.69633e-12
3.69613e-12
3.69734e-12
3.79767e-12
8.16346e-12
3.41572e-09
3.78008e-10
3.95813e-11
6.70958e-12
3.92068e-12
3.71427e-12
3.70019e-12
3.69871e-12
3.69815e-12
3.69779e-12
3.69759e-12
3.7008e-12
3.90733e-12
1.12193e-11
1.21419e-09
1.3103e-10
1.52907e-11
4.62643e-12
3.77365e-12
3.71225e-12
3.70499e-12
3.70187e-12
3.70025e-12
3.69948e-12
3.69917e-12
3.70352e-12
3.94113e-12
1.10514e-11
3.84306e-10
4.23747e-11
7.12652e-12
4.1276e-12
3.96896e-12
3.92133e-12
3.83038e-12
3.75623e-12
3.71901e-12
3.70532e-12
3.70156e-12
3.70376e-12
3.8484e-12
7.72262e-12
1.09757e-10
1.45806e-11
6.24016e-12
7.83051e-12
9.63902e-12
8.97633e-12
6.87017e-12
5.08587e-12
4.16552e-12
3.82148e-12
3.72611e-12
3.70691e-12
3.74923e-12
4.93562e-12
4.46963e-11
1.714e-11
3.70545e-11
8.17743e-11
1.15742e-10
1.03325e-10
6.4215e-11
3.07927e-11
1.3026e-11
6.18416e-12
4.21935e-12
3.78927e-12
3.72737e-12
4.06559e-12
7.92142e-11
1.35293e-11
5.4263e-12
7.27561e-12
1.92774e-11
5.72924e-11
1.44207e-10
2.85907e-10
4.34194e-10
4.89149e-10
3.82623e-10
2.16139e-10
9.15603e-11
3.33914e-11
2.68355e-10
3.86838e-11
7.89707e-12
4.3492e-12
4.78294e-12
7.63593e-12
1.49682e-11
2.83182e-11
4.4653e-11
5.41033e-11
4.54996e-11
2.76931e-11
1.34837e-11
6.84965e-12
7.545e-10
1.05308e-10
1.59404e-11
5.01298e-12
3.86865e-12
3.93282e-12
4.43014e-12
5.46154e-12
6.89711e-12
7.96365e-12
7.41683e-12
5.86212e-12
4.56287e-12
3.95913e-12
1.57372e-09
2.17323e-10
2.93504e-11
6.40805e-12
3.94269e-12
3.71785e-12
3.72653e-12
3.78948e-12
3.88925e-12
3.97866e-12
3.95418e-12
3.84462e-12
3.74818e-12
3.70355e-12
2.20287e-09
2.99014e-10
3.84351e-11
7.27273e-12
4.01069e-12
3.71196e-12
3.68888e-12
3.69009e-12
3.6953e-12
3.70093e-12
3.70022e-12
3.69389e-12
3.68805e-12
3.68564e-12
2.01755e-09
2.63794e-10
3.31394e-11
6.6118e-12
3.94127e-12
3.70589e-12
3.68743e-12
3.68596e-12
3.68583e-12
3.68587e-12
3.68572e-12
3.68533e-12
3.68502e-12
3.68763e-12
1.36323e-09
1.70231e-10
2.16242e-11
5.38567e-12
3.82866e-12
3.69762e-12
3.68757e-12
3.68654e-12
3.68618e-12
3.68592e-12
3.68572e-12
3.68557e-12
3.68576e-12
3.70305e-12
7.28448e-10
8.7733e-11
1.22743e-11
4.46122e-12
3.7498e-12
3.69259e-12
3.68813e-12
3.68745e-12
3.68707e-12
3.68677e-12
3.68654e-12
3.68639e-12
3.68767e-12
3.7606e-12
3.29627e-10
3.95948e-11
7.17242e-12
3.9877e-12
3.71226e-12
3.6909e-12
3.68899e-12
3.68845e-12
3.68806e-12
3.68774e-12
3.68749e-12
3.68734e-12
3.69195e-12
3.89937e-12
1.28344e-10
1.67813e-11
4.8948e-12
3.78862e-12
3.69799e-12
3.69097e-12
3.69002e-12
3.68952e-12
3.68913e-12
3.6888e-12
3.68852e-12
3.68844e-12
3.69882e-12
4.08047e-12
4.44931e-11
7.80344e-12
4.05285e-12
3.72055e-12
3.69437e-12
3.69198e-12
3.69124e-12
3.6907e-12
3.69026e-12
3.6899e-12
3.68959e-12
3.68957e-12
3.70233e-12
4.10283e-12
1.5562e-11
4.84825e-12
3.79316e-12
3.70646e-12
3.70121e-12
3.69879e-12
3.69551e-12
3.69308e-12
3.69178e-12
3.69113e-12
3.69073e-12
3.69059e-12
3.69862e-12
3.93051e-12
6.77991e-12
4.00195e-12
3.78244e-12
3.84633e-12
3.89938e-12
3.86188e-12
3.78609e-12
3.73006e-12
3.70395e-12
3.69489e-12
3.69234e-12
3.69162e-12
3.69385e-12
3.76562e-12
4.99779e-12
4.20825e-12
5.12639e-12
6.94328e-12
8.07329e-12
7.28537e-12
5.69317e-12
4.51114e-12
3.95016e-12
3.75566e-12
3.7048e-12
3.69435e-12
3.69297e-12
3.7108e-12
7.60009e-12
4.15668e-12
3.74842e-12
3.7879e-12
4.18321e-12
5.57257e-12
9.09625e-12
1.55096e-11
2.31394e-11
2.70102e-11
2.26089e-11
1.44855e-11
8.20178e-12
5.22275e-12
1.74667e-11
5.387e-12
3.87208e-12
3.7066e-12
3.71661e-12
3.81863e-12
4.10696e-12
4.68516e-12
5.4718e-12
6.01573e-12
5.69134e-12
4.85666e-12
4.16553e-12
3.83724e-12
4.19349e-11
8.52543e-12
4.22686e-12
3.73655e-12
3.68812e-12
3.68965e-12
3.70844e-12
3.75118e-12
3.81645e-12
3.87143e-12
3.85287e-12
3.78234e-12
3.72101e-12
3.6919e-12
8.05447e-11
1.34686e-11
4.78118e-12
3.791e-12
3.69144e-12
3.68258e-12
3.68258e-12
3.68477e-12
3.68881e-12
3.69281e-12
3.69187e-12
3.68682e-12
3.68217e-12
3.67987e-12
1.05209e-10
1.64418e-11
5.08874e-12
3.81863e-12
3.69388e-12
3.68279e-12
3.68162e-12
3.6813e-12
3.68117e-12
3.6811e-12
3.68079e-12
3.68025e-12
3.67972e-12
3.67937e-12
8.99328e-11
1.41481e-11
4.79785e-12
3.78744e-12
3.69142e-12
3.68305e-12
3.68205e-12
3.68161e-12
3.68123e-12
3.68089e-12
3.68057e-12
3.68027e-12
3.68e-12
3.67982e-12
5.72537e-11
9.8853e-12
4.31568e-12
3.74043e-12
3.68788e-12
3.68329e-12
3.68257e-12
3.68213e-12
3.68173e-12
3.68136e-12
3.68103e-12
3.68072e-12
3.68046e-12
3.68079e-12
2.99488e-11
6.58288e-12
3.96649e-12
3.70858e-12
3.68584e-12
3.68369e-12
3.68313e-12
3.6827e-12
3.6823e-12
3.68192e-12
3.68157e-12
3.68124e-12
3.68101e-12
3.68349e-12
1.4573e-11
4.83208e-12
3.79172e-12
3.69376e-12
3.68526e-12
3.68421e-12
3.68373e-12
3.68329e-12
3.68289e-12
3.6825e-12
3.68214e-12
3.68179e-12
3.68168e-12
3.68999e-12
7.53137e-12
4.07315e-12
3.72021e-12
3.68838e-12
3.68546e-12
3.68482e-12
3.68436e-12
3.68392e-12
3.68351e-12
3.68311e-12
3.68273e-12
3.68237e-12
3.6825e-12
3.69947e-12
4.8524e-12
3.79968e-12
3.69627e-12
3.6871e-12
3.686e-12
3.68549e-12
3.68501e-12
3.68456e-12
3.68413e-12
3.68372e-12
3.68332e-12
3.68294e-12
3.68319e-12
3.70238e-12
4.00241e-12
3.71708e-12
3.68986e-12
3.68737e-12
3.6868e-12
3.68627e-12
3.68572e-12
3.68521e-12
3.68476e-12
3.68433e-12
3.68391e-12
3.6835e-12
3.68352e-12
3.69514e-12
3.76494e-12
3.69578e-12
3.69085e-12
3.69286e-12
3.69378e-12
3.6917e-12
3.6888e-12
3.68674e-12
3.68562e-12
3.68496e-12
3.68447e-12
3.68402e-12
3.68372e-12
3.68708e-12
3.72692e-12
3.70792e-12
3.74675e-12
3.81309e-12
3.84328e-12
3.80421e-12
3.74639e-12
3.70863e-12
3.69231e-12
3.6869e-12
3.68526e-12
3.68455e-12
3.68404e-12
3.6844e-12
3.84655e-12
3.69703e-12
3.67993e-12
3.68008e-12
3.69081e-12
3.73289e-12
3.85021e-12
4.08564e-12
4.39998e-12
4.60057e-12
4.45935e-12
4.13279e-12
3.86886e-12
3.74079e-12
4.27065e-12
3.74701e-12
3.68505e-12
3.67836e-12
3.67816e-12
3.68084e-12
3.6898e-12
3.70983e-12
3.7401e-12
3.76455e-12
3.75523e-12
3.72277e-12
3.69449e-12
3.68063e-12
5.28203e-12
3.86909e-12
3.6982e-12
3.67967e-12
3.67764e-12
3.6773e-12
3.67752e-12
3.6786e-12
3.68067e-12
3.68263e-12
3.68188e-12
3.67894e-12
3.67621e-12
3.67476e-12
6.77123e-12
4.04828e-12
3.71726e-12
3.68165e-12
3.67798e-12
3.67733e-12
3.67695e-12
3.67664e-12
3.67641e-12
3.67622e-12
3.67586e-12
3.67536e-12
3.67487e-12
3.67451e-12
7.52517e-12
4.13265e-12
3.72555e-12
3.68254e-12
3.67826e-12
3.67755e-12
3.67714e-12
3.67675e-12
3.67637e-12
3.67601e-12
3.67566e-12
3.67532e-12
3.67499e-12
3.6747e-12
6.71179e-12
4.02577e-12
3.71365e-12
3.68159e-12
3.6784e-12
3.67779e-12
3.67738e-12
3.67698e-12
3.67659e-12
3.67621e-12
3.67586e-12
3.67553e-12
3.67521e-12
3.67493e-12
5.41889e-12
3.87007e-12
3.69751e-12
3.68033e-12
3.67852e-12
3.67802e-12
3.67761e-12
3.67722e-12
3.67683e-12
3.67646e-12
3.6761e-12
3.67576e-12
3.67545e-12
3.67517e-12
4.46907e-12
3.76261e-12
3.68705e-12
3.67965e-12
3.6787e-12
3.67826e-12
3.67787e-12
3.67747e-12
3.67708e-12
3.67671e-12
3.67635e-12
3.676e-12
3.67569e-12
3.67548e-12
3.98363e-12
3.71048e-12
3.68233e-12
3.67948e-12
3.67891e-12
3.67851e-12
3.67812e-12
3.67773e-12
3.67734e-12
3.67697e-12
3.6766e-12
3.67625e-12
3.67592e-12
3.67593e-12
3.77994e-12
3.68978e-12
3.68069e-12
3.67959e-12
3.67916e-12
3.67877e-12
3.67838e-12
3.67799e-12
3.67761e-12
3.67723e-12
3.67685e-12
3.67649e-12
3.67616e-12
3.67652e-12
3.70871e-12
3.68303e-12
3.68033e-12
3.67979e-12
3.67941e-12
3.67903e-12
3.67864e-12
3.67824e-12
3.67786e-12
3.67747e-12
3.6771e-12
3.67673e-12
3.6764e-12
3.67688e-12
3.68796e-12
3.6813e-12
3.68042e-12
3.68004e-12
3.67967e-12
3.67928e-12
3.67888e-12
3.67849e-12
3.6781e-12
3.67771e-12
3.67732e-12
3.67694e-12
3.6766e-12
3.67677e-12
3.68272e-12
3.68104e-12
3.68068e-12
3.68044e-12
3.6801e-12
3.67965e-12
3.67918e-12
3.67873e-12
3.67831e-12
3.67791e-12
3.67751e-12
3.67712e-12
3.67675e-12
3.67655e-12
3.6824e-12
3.6818e-12
3.68304e-12
3.68493e-12
3.68516e-12
3.68317e-12
3.68091e-12
3.67945e-12
3.67864e-12
3.67813e-12
3.6777e-12
3.67729e-12
3.67687e-12
3.67651e-12
3.67892e-12
3.67335e-12
3.67256e-12
3.6723e-12
3.67227e-12
3.67304e-12
3.67595e-12
3.6827e-12
3.69291e-12
3.70069e-12
3.697e-12
3.68586e-12
3.6763e-12
3.67142e-12
3.69405e-12
3.67512e-12
3.67281e-12
3.67235e-12
3.67206e-12
3.67183e-12
3.67175e-12
3.67201e-12
3.67265e-12
3.67322e-12
3.67272e-12
3.67137e-12
3.6701e-12
3.66934e-12
3.72858e-12
3.67911e-12
3.67328e-12
3.67246e-12
3.67212e-12
3.67181e-12
3.6715e-12
3.67121e-12
3.67095e-12
3.6707e-12
3.67037e-12
3.66998e-12
3.66959e-12
3.66926e-12
3.77576e-12
3.68451e-12
3.67387e-12
3.67256e-12
3.67218e-12
3.67186e-12
3.67154e-12
3.67121e-12
3.67088e-12
3.67056e-12
3.67025e-12
3.66994e-12
3.66963e-12
3.66935e-12
3.79331e-12
3.68635e-12
3.67407e-12
3.67262e-12
3.67223e-12
3.67191e-12
3.67158e-12
3.67125e-12
3.67093e-12
3.67061e-12
3.6703e-12
3.67e-12
3.66971e-12
3.66944e-12
3.76119e-12
3.68255e-12
3.67371e-12
3.67262e-12
3.67225e-12
3.67194e-12
3.67162e-12
3.67129e-12
3.67097e-12
3.67065e-12
3.67035e-12
3.67006e-12
3.66978e-12
3.66951e-12
3.72002e-12
3.67795e-12
3.67329e-12
3.67261e-12
3.67228e-12
3.67197e-12
3.67165e-12
3.67133e-12
3.67101e-12
3.6707e-12
3.6704e-12
3.67011e-12
3.66984e-12
3.66958e-12
3.69306e-12
3.6751e-12
3.67305e-12
3.67261e-12
3.6723e-12
3.67199e-12
3.67168e-12
3.67136e-12
3.67105e-12
3.67074e-12
3.67045e-12
3.67017e-12
3.6699e-12
3.66965e-12
3.68046e-12
3.67385e-12
3.67297e-12
3.67263e-12
3.67233e-12
3.67202e-12
3.67171e-12
3.6714e-12
3.67108e-12
3.67078e-12
3.67049e-12
3.67021e-12
3.66995e-12
3.66971e-12
3.67561e-12
3.67341e-12
3.67297e-12
3.67267e-12
3.67237e-12
3.67205e-12
3.67174e-12
3.67143e-12
3.67112e-12
3.67082e-12
3.67053e-12
3.67026e-12
3.67e-12
3.66977e-12
3.67406e-12
3.67331e-12
3.67299e-12
3.6727e-12
3.6724e-12
3.67209e-12
3.67177e-12
3.67146e-12
3.67116e-12
3.67086e-12
3.67057e-12
3.6703e-12
3.67003e-12
3.66981e-12
3.67368e-12
3.67332e-12
3.67305e-12
3.67275e-12
3.67244e-12
3.67212e-12
3.67181e-12
3.67149e-12
3.67119e-12
3.67089e-12
3.6706e-12
3.67033e-12
3.67006e-12
3.66983e-12
3.67362e-12
3.67335e-12
3.67309e-12
3.6728e-12
3.67249e-12
3.67216e-12
3.67184e-12
3.67152e-12
3.67121e-12
3.67091e-12
3.67062e-12
3.67034e-12
3.67007e-12
3.66982e-12
3.67371e-12
3.67342e-12
3.67319e-12
3.67297e-12
3.67266e-12
3.67228e-12
3.6719e-12
3.67154e-12
3.67123e-12
3.67092e-12
3.67064e-12
3.67036e-12
3.67009e-12
3.66982e-12
3.66678e-12
3.66649e-12
3.66633e-12
3.66616e-12
3.66598e-12
3.66579e-12
3.66563e-12
3.66557e-12
3.66562e-12
3.66563e-12
3.66533e-12
3.66477e-12
3.66425e-12
3.66389e-12
3.66724e-12
3.66656e-12
3.66635e-12
3.66617e-12
3.66597e-12
3.66576e-12
3.66554e-12
3.66532e-12
3.6651e-12
3.66488e-12
3.66463e-12
3.66435e-12
3.66408e-12
3.66383e-12
3.66823e-12
3.66666e-12
3.66635e-12
3.66616e-12
3.66596e-12
3.66575e-12
3.66552e-12
3.66529e-12
3.66505e-12
3.66481e-12
3.66457e-12
3.66433e-12
3.6641e-12
3.66386e-12
3.66946e-12
3.66679e-12
3.66635e-12
3.66614e-12
3.66594e-12
3.66572e-12
3.6655e-12
3.66527e-12
3.66503e-12
3.6648e-12
3.66456e-12
3.66434e-12
3.66411e-12
3.66389e-12
3.66974e-12
3.66679e-12
3.66633e-12
3.66611e-12
3.66591e-12
3.66569e-12
3.66547e-12
3.66524e-12
3.66501e-12
3.66478e-12
3.66455e-12
3.66433e-12