/*--------------------------------*- C++ -*----------------------------------*\
| =========                 |                                                 |
| \\      /  F ield         | OpenFOAM: The Open Source CFD Toolbox           |
|  \\    /   O peration     | Version:  v2106                                 |
|   \\  /    A nd           | Website:  www.openfoam.com                      |
|    \\/     M anipulation  |                                                 |
\*---------------------------------------------------------------------------*/
FoamFile
{
    version     2.0;
    format      ascii;
    arch        "LSB;label=32;scalar=64";
    class       volScalarField;
    location    "0.00012";
    object      T;
}
// * * * * * * * * * * * * * * * * * * * * * * * * * * * * * * * * * * * * * //

dimensions      [0 0 0 1 0 0 0];

internalField   nonuniform List<scalar> 
144746
(
295.133
294.931
294.756
294.644
294.57
294.535
294.523
294.521
294.538
294.581
294.666
294.787
294.948
295.145
294.856
294.526
294.328
294.221
294.166
294.147
294.144
294.151
294.178
294.225
294.312
294.434
294.617
294.922
294.638
294.278
294.059
293.959
293.916
293.903
293.903
293.916
293.947
293.994
294.075
294.195
294.389
294.719
294.511
294.146
293.927
293.836
293.8
293.791
293.792
293.808
293.84
293.886
293.962
294.075
294.258
294.566
294.442
294.079
293.864
293.785
293.758
293.753
293.752
293.766
293.799
293.843
293.909
294.009
294.182
294.464
294.425
294.065
293.854
293.782
293.761
293.76
293.761
293.775
293.803
293.843
293.903
293.992
294.152
294.416
294.44
294.077
293.865
293.796
293.777
293.783
293.789
293.804
293.827
293.862
293.91
293.988
294.14
294.396
294.47
294.109
293.896
293.826
293.807
293.818
293.83
293.848
293.868
293.901
293.942
294.009
294.157
294.408
294.54
294.163
293.937
293.86
293.84
293.854
293.868
293.888
293.908
293.94
293.975
294.037
294.19
294.444
294.609
294.225
293.988
293.905
293.881
293.891
293.906
293.926
293.946
293.98
294.023
294.089
294.25
294.511
294.706
294.301
294.051
293.964
293.942
293.952
293.969
293.99
294.013
294.05
294.091
294.155
294.327
294.601
294.821
294.401
294.137
294.038
294.007
294.011
294.024
294.045
294.065
294.109
294.167
294.243
294.426
294.719
295.002
294.591
294.321
294.199
294.153
294.156
294.17
294.198
294.224
294.276
294.341
294.435
294.626
294.923
295.21
294.894
294.629
294.48
294.405
294.392
294.399
294.431
294.473
294.545
294.637
294.755
294.942
295.164
295.981
295.946
295.942
295.994
296.06
296.126
296.195
296.253
296.309
296.361
296.441
296.529
296.612
296.687
296.018
295.886
295.859
295.891
295.941
295.993
296.051
296.106
296.166
296.228
296.302
296.381
296.489
296.641
296.005
295.846
295.804
295.817
295.847
295.89
295.947
296.013
296.079
296.141
296.204
296.286
296.425
296.628
296.045
295.894
295.831
295.818
295.831
295.863
295.915
295.977
296.043
296.125
296.196
296.271
296.422
296.62
296.122
295.954
295.858
295.82
295.824
295.858
295.921
295.992
296.063
296.125
296.194
296.286
296.443
296.637
296.219
296.019
295.9
295.838
295.841
295.881
295.951
296.029
296.098
296.162
296.223
296.307
296.472
296.668
296.31
296.091
295.956
295.876
295.882
295.923
295.996
296.075
296.148
296.209
296.272
296.359
296.53
296.725
296.396
296.163
296.018
295.926
295.942
295.987
296.061
296.139
296.212
296.275
296.337
296.424
296.599
296.796
296.471
296.242
296.087
295.985
295.995
296.032
296.103
296.18
296.255
296.324
296.395
296.489
296.671
296.876
296.533
296.309
296.152
296.057
296.066
296.103
296.176
296.252
296.33
296.4
296.475
296.578
296.757
296.972
296.587
296.381
296.232
296.141
296.145
296.179
296.25
296.327
296.407
296.483
296.561
296.671
296.845
297.065
296.626
296.44
296.321
296.251
296.264
296.301
296.367
296.443
296.524
296.598
296.675
296.785
296.944
297.166
296.702
296.574
296.498
296.432
296.444
296.486
296.558
296.646
296.74
296.818
296.896
296.978
297.112
297.289
296.806
296.802
296.772
296.729
296.744
296.784
296.847
296.918
297.002
297.072
297.139
297.223
297.32
297.43
298.24
298.482
298.727
298.901
299.024
299.123
299.196
299.251
299.296
299.332
299.352
299.336
299.302
299.176
298.584
298.672
298.864
299.032
299.174
299.285
299.368
299.429
299.479
299.516
299.533
299.531
299.49
299.465
298.814
298.931
299.075
299.222
299.356
299.469
299.561
299.635
299.698
299.733
299.736
299.708
299.696
299.715
299.029
299.155
299.281
299.414
299.537
299.651
299.75
299.835
299.909
299.944
299.941
299.924
299.905
299.912
299.225
299.323
299.454
299.586
299.711
299.83
299.938
300.031
300.109
300.142
300.134
300.113
300.098
300.079
299.367
299.482
299.609
299.736
299.863
299.987
300.102
300.201
300.28
300.311
300.303
300.286
300.274
300.253
299.529
299.628
299.744
299.862
299.99
300.119
300.238
300.338
300.418
300.45
300.444
300.429
300.424
300.403
299.679
299.764
299.866
299.976
300.104
300.236
300.357
300.457
300.539
300.571
300.569
300.556
300.556
300.529
299.807
299.878
299.965
300.064
300.188
300.318
300.438
300.538
300.623
300.659
300.662
300.654
300.659
300.623
299.906
299.961
300.048
300.151
300.281
300.416
300.536
300.633
300.715
300.746
300.746
300.738
300.745
300.701
299.965
300.005
300.092
300.201
300.333
300.468
300.587
300.683
300.759
300.787
300.787
300.778
300.782
300.747
300.002
300.039
300.139
300.256
300.379
300.506
300.616
300.71
300.782
300.809
300.813
300.801
300.786
300.767
299.941
300.017
300.152
300.304
300.448
300.581
300.683
300.773
300.839
300.865
300.869
300.851
300.803
300.772
299.843
300.135
300.287
300.436
300.552
300.667
300.771
300.861
300.92
300.936
300.943
300.917
300.858
300.667
295.523
295.776
296.124
296.239
296.451
296.491
295.391
295.71
296.096
296.257
296.473
296.512
295.219
295.64
296.12
296.335
296.624
296.665
295.077
295.567
296.145
296.456
296.786
296.84
294.98
295.521
296.181
296.57
296.967
297.002
294.926
295.497
296.208
296.651
297.075
297.13
294.904
295.487
296.212
296.685
297.121
297.158
294.916
295.495
296.204
296.673
297.083
297.103
294.945
295.506
296.168
296.596
296.977
297.026
295.001
295.517
296.124
296.513
296.864
296.945
295.08
295.551
296.125
296.442
296.779
296.88
295.179
295.604
296.091
296.37
296.691
296.817
295.343
295.701
296.125
296.383
296.707
296.831
295.508
295.78
296.14
296.361
296.679
296.829
296.913
296.924
297.183
297.223
297.471
297.286
296.884
296.959
297.272
297.376
297.67
297.39
296.891
297.005
297.376
297.512
297.823
297.562
296.898
297.052
297.48
297.657
298.051
297.708
296.92
297.113
297.567
297.784
298.227
297.826
296.964
297.183
297.638
297.86
298.296
297.91
297.037
297.278
297.704
297.866
298.285
297.857
297.123
297.387
297.777
297.841
298.217
297.776
297.205
297.482
297.837
297.804
298.128
297.734
297.291
297.558
297.866
297.798
298.073
297.742
297.382
297.63
297.901
297.807
298.065
297.783
297.472
297.685
297.915
297.837
298.025
297.798
297.567
297.706
297.929
297.887
298.11
297.918
297.624
297.677
297.865
297.856
298.064
297.907
299.285
299.077
299.236
298.561
298.06
295.89
299.56
299.431
299.568
298.812
298.21
295.514
299.784
299.701
299.828
299.002
298.322
295.109
299.977
299.932
300.029
299.138
298.365
294.653
300.149
300.101
300.167
299.198
298.379
294.313
300.312
300.263
300.278
299.244
298.286
294.06
300.46
300.396
300.351
299.25
298.227
294.053
300.588
300.499
300.422
299.312
298.265
294.379
300.688
300.575
300.517
299.464
298.451
295.006
300.774
300.646
300.64
299.705
298.788
295.846
300.829
300.708
300.778
299.978
299.16
296.45
300.852
300.732
300.867
300.187
299.527
297.062
300.919
300.734
300.913
300.262
299.629
297.263
300.62
300.415
300.669
299.997
299.345
296.971
295.536
295.818
296.196
296.415
296.742
296.877
295.427
295.788
296.218
296.476
296.82
296.946
295.272
295.736
296.246
296.549
296.917
297.067
295.158
295.687
296.283
296.618
297.022
297.16
295.063
295.629
296.282
296.683
297.111
297.24
294.987
295.573
296.261
296.696
297.142
297.242
294.935
295.516
296.213
296.673
297.114
297.241
294.898
295.464
296.155
296.598
297.018
297.129
294.884
295.42
296.074
296.479
296.879
296.955
294.896
295.389
295.996
296.34
296.686
296.763
294.965
295.417
295.967
296.244
296.554
296.571
295.116
295.516
295.981
296.171
296.418
296.52
295.368
295.708
296.108
296.245
296.483
296.536
295.595
295.907
296.275
296.394
296.612
296.635
297.651
297.683
297.922
297.943
298.193
298.04
297.627
297.757
298.05
298.081
298.392
298.178
297.569
297.78
298.135
298.181
298.529
298.284
297.513
297.781
298.171
298.271
298.66
298.357
297.459
297.763
298.167
298.267
298.672
298.328
297.4
297.73
298.136
298.23
298.646
298.294
297.331
297.682
298.071
298.126
298.502
298.13
297.264
297.615
297.984
297.978
298.336
297.938
297.193
297.515
297.867
297.828
298.153
297.776
297.131
297.4
297.729
297.658
297.955
297.631
297.104
297.291
297.584
297.512
297.791
297.485
297.092
297.183
297.443
297.374
297.626
297.392
297.114
297.107
297.387
297.385
297.635
297.398
297.074
297.022
297.421
297.504
297.799
297.53
300.814
300.597
300.833
300.1
299.469
296.819
301.099
301.002
301.246
300.481
299.76
296.673
301.138
301.131
301.359
300.603
299.86
296.314
301.166
301.232
301.441
300.652
299.921
295.95
301.147
301.243
301.414
300.578
299.81
295.557
301.114
301.224
301.346
300.457
299.598
295.249
301.04
301.132
301.218
300.304
299.382
295.158
300.938
300.977
301.057
300.159
299.234
295.353
300.82
300.802
300.885
300.051
299.192
295.683
300.671
300.615
300.725
299.973
299.214
296.085
300.52
300.447
300.591
299.901
299.217
296.235
300.346
300.257
300.418
299.742
299.11
296.156
300.308
300.125
300.353
299.549
298.848
295.956
299.818
299.548
299.768
298.983
298.385
295.326
296.081
296.131
296.033
295.988
295.722
295.498
296.058
296.161
296.027
295.954
295.637
295.329
296.158
296.225
296.085
295.944
295.545
295.161
296.303
296.387
296.205
296.032
295.542
295.071
296.441
296.558
296.379
296.166
295.594
295.041
296.641
296.766
296.579
296.323
295.682
295.051
296.859
296.986
296.792
296.506
295.796
295.089
297.108
297.195
296.987
296.658
295.884
295.133
297.265
297.37
297.131
296.768
295.96
295.21
297.311
297.416
297.142
296.782
296.012
295.275
297.323
297.4
297.099
296.778
296.04
295.362
297.206
297.257
296.959
296.683
296.056
295.457
296.997
297.026
296.764
296.577
296.064
295.577
296.772
296.79
296.56
296.398
296.034
295.649
296.494
296.759
296.533
296.517
296.122
296.182
296.339
296.662
296.401
296.505
296.249
296.262
296.479
296.737
296.548
296.618
296.361
296.286
296.429
296.813
296.643
296.788
296.505
296.336
296.514
296.983
296.801
296.905
296.594
296.416
296.61
297.139
296.931
296.99
296.684
296.515
296.724
297.289
297.082
297.087
296.751
296.6
296.995
297.592
297.309
297.217
296.821
296.675
297.366
297.938
297.557
297.348
296.877
296.733
297.609
298.16
297.708
297.426
296.917
296.779
297.741
298.28
297.789
297.463
296.944
296.834
297.838
298.296
297.778
297.431
296.939
296.869
297.877
298.264
297.795
297.493
297.001
296.965
297.691
298.012
297.641
297.326
296.848
296.868
294.236
296.741
297.242
297.934
297.774
298.091
294.822
297.176
297.656
298.444
298.323
298.662
294.952
297.192
297.78
298.539
298.464
298.73
294.757
297.065
297.724
298.588
298.606
298.917
294.13
296.701
297.491
298.554
298.729
299.087
293.324
296.337
297.234
298.532
298.866
299.277
292.533
296.203
297.161
298.603
299.029
299.461
292.208
296.446
297.309
298.785
299.231
299.635
292.21
296.877
297.626
299.04
299.436
299.786
292.375
297.32
298.014
299.342
299.636
299.91
292.774
297.728
298.386
299.609
299.793
300.005
293.461
298.09
298.732
299.841
299.912
300.076
294.376
298.451
299.028
300.013
299.975
300.161
294.868
298.23
298.865
299.709
299.591
299.912
296.435
296.399
296.206
296.068
295.757
295.491
296.463
296.457
296.295
296.136
295.753
295.404
296.496
296.532
296.358
296.185
295.742
295.302
296.642
296.717
296.536
296.315
295.769
295.226
296.711
296.82
296.66
296.42
295.803
295.185
296.823
296.936
296.787
296.539
295.856
295.174
296.897
297.017
296.864
296.612
295.893
295.178
296.987
297.097
296.93
296.663
295.928
295.195
297.049
297.145
296.948
296.669
295.932
295.212
296.967
297.11
296.909
296.645
295.928
295.244
296.852
296.979
296.787
296.551
295.906
295.299
296.684
296.793
296.612
296.436
295.899
295.381
296.46
296.553
296.385
296.285
295.876
295.495
296.27
296.347
296.2
296.125
295.845
295.526
297.103
297.266
297.068
297.043
296.851
296.803
297.052
297.27
297.109
297.17
296.966
296.885
296.885
297.198
297.041
297.153
296.939
296.797
296.866
297.243
297.059
297.133
296.885
296.705
296.731
297.191
297.009
297.048
296.795
296.614
296.693
297.204
297.012
296.989
296.706
296.546
296.665
297.245
297.029
296.948
296.616
296.481
296.784
297.39
297.107
296.959
296.534
296.419
296.972
297.56
297.193
296.962
296.454
296.347
297.076
297.645
297.205
296.909
296.364
296.281
297.067
297.627
297.172
296.863
296.306
296.22
297.041
297.522
297.081
296.764
296.228
296.14
296.951
297.352
296.96
296.728
296.193
296.179
296.709
297.046
296.718
296.482
296.029
296.065
296.034
297.824
298.331
298.901
298.726
298.931
296.278
298.065
298.617
299.228
299.141
299.375
295.805
297.673
298.276
299.023
299.017
299.269
295.037
297.025
297.732
298.665
298.828
299.184
293.865
296.299
297.16
298.374
298.706
299.142
292.765
295.809
296.752
298.166
298.621
299.115
291.846
295.608
296.534
298.037
298.561
299.083
291.419
295.693
296.486
297.968
298.519
299.046
291.266
295.902
296.548
297.953
298.482
298.992
291.401
296.182
296.681
297.993
298.47
298.933
291.827
296.475
296.845
298.052
298.465
298.877
292.419
296.646
296.998
298.124
298.395
298.751
293.232
296.89
297.239
298.211
298.273
298.576
293.806
296.704
297.12
297.918
297.851
298.257
301.306
301.246
301.327
301.289
301.25
301.185
301.128
301.059
301.017
301.002
301.025
301.16
301.422
301.641
301.371
301.256
301.27
301.256
301.243
301.22
301.199
301.175
301.165
301.173
301.212
301.329
301.516
301.731
301.229
301.201
301.21
301.235
301.254
301.265
301.272
301.277
301.288
301.319
301.377
301.479
301.623
301.854
301.231
301.24
301.246
301.276
301.307
301.339
301.368
301.394
301.425
301.478
301.546
301.644
301.78
302.006
301.239
301.302
301.324
301.363
301.405
301.45
301.491
301.532
301.573
301.634
301.703
301.795
301.926
302.148
301.352
301.424
301.448
301.482
301.528
301.58
301.629
301.676
301.722
301.785
301.852
301.939
302.07
302.284
301.543
301.58
301.589
301.611
301.654
301.708
301.763
301.815
301.862
301.925
301.987
302.068
302.196
302.399
301.777
301.768
301.749
301.75
301.78
301.832
301.889
301.944
301.992
302.056
302.116
302.192
302.316
302.501
302.018
301.966
301.91
301.892
301.914
301.961
302.018
302.072
302.12
302.183
302.243
302.316
302.435
302.6
302.285
302.176
302.08
302.043
302.054
302.091
302.145
302.198
302.246
302.308
302.371
302.446
302.563
302.707
302.54
302.385
302.258
302.212
302.215
302.247
302.297
302.348
302.395
302.456
302.52
302.598
302.716
302.841
302.774
302.61
302.467
302.417
302.415
302.438
302.484
302.533
302.582
302.643
302.712
302.792
302.902
303.008
302.943
302.835
302.697
302.648
302.637
302.658
302.705
302.757
302.811
302.875
302.947
303.028
303.131
303.234
303.119
303.146
302.976
302.907
302.874
302.901
302.963
303.035
303.106
303.177
303.252
303.326
303.41
303.455
302.659
302.639
302.664
302.593
302.527
302.438
302.357
302.274
302.237
302.259
302.296
302.438
302.664
302.877
302.762
302.702
302.688
302.658
302.623
302.579
302.538
302.506
302.503
302.535
302.594
302.726
302.906
303.1
302.622
302.674
302.689
302.705
302.704
302.697
302.689
302.686
302.701
302.745
302.816
302.938
303.091
303.293
302.6
302.689
302.724
302.766
302.795
302.815
302.832
302.852
302.885
302.942
303.021
303.139
303.289
303.482
302.602
302.733
302.801
302.862
302.912
302.952
302.985
303.021
303.066
303.127
303.205
303.317
303.454
303.635
302.702
302.839
302.921
302.988
303.048
303.1
303.144
303.189
303.239
303.3
303.374
303.477
303.606
303.775
302.892
303
303.07
303.13
303.19
303.245
303.296
303.347
303.4
303.459
303.529
303.622
303.739
303.892
303.135
303.2
303.245
303.287
303.337
303.391
303.446
303.499
303.553
303.611
303.678
303.762
303.865
303.996
303.397
303.419
303.434
303.454
303.492
303.541
303.594
303.647
303.701
303.76
303.829
303.907
303.996
304.101
303.674
303.659
303.638
303.634
303.657
303.699
303.749
303.801
303.855
303.914
303.986
304.063
304.145
304.224
303.948
303.909
303.851
303.827
303.839
303.872
303.917
303.968
304.022
304.082
304.159
304.241
304.321
304.376
304.201
304.149
304.068
304.031
304.035
304.062
304.106
304.158
304.213
304.276
304.356
304.445
304.527
304.546
304.385
304.381
304.306
304.267
304.262
304.284
304.329
304.383
304.441
304.503
304.582
304.671
304.756
304.752
304.546
304.63
304.518
304.493
304.486
304.511
304.569
304.641
304.716
304.788
304.855
304.917
304.973
304.909
303.93
303.862
303.82
303.72
303.659
303.567
303.49
303.404
303.363
303.393
303.44
303.564
303.757
304.005
304.003
303.929
303.859
303.815
303.764
303.707
303.659
303.617
303.604
303.652
303.722
303.875
304.09
304.269
303.853
303.913
303.892
303.873
303.843
303.812
303.787
303.775
303.787
303.837
303.915
304.05
304.216
304.403
303.813
303.909
303.923
303.929
303.924
303.914
303.911
303.918
303.948
304.008
304.098
304.232
304.399
304.587
303.84
303.942
303.986
304.012
304.025
304.03
304.039
304.061
304.102
304.169
304.26
304.386
304.542
304.724
303.942
304.038
304.089
304.121
304.142
304.156
304.173
304.203
304.251
304.32
304.41
304.533
304.684
304.861
304.115
304.185
304.226
304.252
304.272
304.29
304.313
304.348
304.398
304.468
304.555
304.673
304.818
304.985
304.344
304.38
304.398
304.409
304.421
304.437
304.462
304.499
304.551
304.62
304.706
304.82
304.958
305.11
304.595
304.6
304.595
304.588
304.591
304.603
304.625
304.662
304.714
304.785
304.871
304.981
305.111
305.241
304.875
304.859
304.823
304.793
304.784
304.789
304.807
304.84
304.893
304.965
305.053
305.16
305.283
305.388
305.141
305.124
305.065
305.016
304.995
304.995
305.007
305.039
305.092
305.167
305.261
305.367
305.486
305.557
305.417
305.396
305.321
305.258
305.226
305.22
305.233
305.264
305.319
305.397
305.496
305.606
305.722
305.738
305.653
305.661
305.579
305.513
305.474
305.466
305.482
305.519
305.579
305.659
305.758
305.861
305.973
305.956
305.89
305.906
305.779
305.744
305.716
305.718
305.747
305.797
305.866
305.95
306.044
306.131
306.229
306.136
304.751
304.626
304.582
304.447
304.383
304.281
304.206
304.131
304.099
304.13
304.189
304.297
304.51
304.734
304.772
304.685
304.637
304.549
304.491
304.425
304.376
304.341
304.336
304.388
304.469
304.619
304.806
304.971
304.678
304.683
304.664
304.632
304.595
304.558
304.532
304.522
304.538
304.589
304.668
304.795
304.948
305.139
304.628
304.704
304.716
304.71
304.695
304.68
304.677
304.687
304.72
304.779
304.865
304.991
305.141
305.308
304.658
304.745
304.784
304.802
304.808
304.811
304.822
304.847
304.889
304.951
305.036
305.149
305.28
305.437
304.752
304.833
304.881
304.91
304.929
304.945
304.966
304.999
305.046
305.111
305.194
305.3
305.424
305.572
304.902
304.965
305.009
305.039
305.062
305.084
305.111
305.148
305.198
305.264
305.345
305.447
305.563
305.695
305.11
305.149
305.176
305.196
305.215
305.236
305.264
305.302
305.353
305.42
305.502
305.601
305.71
305.823
305.35
305.367
305.375
305.38
305.39
305.406
305.43
305.467
305.518
305.587
305.669
305.768
305.872
305.964
305.632
305.627
305.609
305.594
305.589
305.595
305.613
305.646
305.697
305.767
305.853
305.951
306.054
306.124
305.912
305.899
305.859
305.827
305.808
305.802
305.812
305.841
305.893
305.967
306.057
306.153
306.258
306.301
306.224
306.187
306.12
306.077
306.044
306.025
306.028
306.055
306.109
306.188
306.286
306.383
306.494
306.494
306.491
306.486
306.398
306.34
306.29
306.261
306.26
306.289
306.346
306.428
306.529
306.623
306.738
306.717
306.806
306.744
306.616
306.566
306.521
306.501
306.508
306.545
306.608
306.692
306.794
306.878
306.987
306.939
305.25
305.11
305.082
304.945
304.867
304.762
304.684
304.612
304.583
304.6
304.659
304.761
304.961
305.152
305.263
305.179
305.143
305.042
304.986
304.907
304.854
304.812
304.804
304.845
304.919
305.048
305.21
305.363
305.202
305.19
305.184
305.133
305.093
305.046
305.012
304.995
305
305.042
305.11
305.221
305.366
305.552
305.183
305.229
305.238
305.22
305.199
305.174
305.16
305.158
305.18
305.227
305.302
305.414
305.549
305.703
305.21
305.277
305.31
305.312
305.307
305.299
305.3
305.311
305.341
305.39
305.463
305.563
305.681
305.829
305.295
305.361
305.402
305.416
305.421
305.424
305.433
305.453
305.488
305.54
305.612
305.707
305.821
305.957
305.43
305.484
305.521
305.537
305.545
305.553
305.566
305.591
305.628
305.682
305.755
305.846
305.952
306.073
305.625
305.659
305.679
305.684
305.689
305.695
305.706
305.732
305.771
305.828
305.903
305.993
306.094
306.197
305.854
305.869
305.868
305.86
305.858
305.855
305.861
305.886
305.925
305.985
306.063
306.154
306.251
306.333
306.13
306.116
306.088
306.064
306.048
306.035
306.034
306.055
306.096
306.159
306.241
306.332
306.43
306.489
306.405
306.377
306.329
306.293
306.26
306.234
306.226
306.244
306.286
306.354
306.441
306.529
306.632
306.665
306.708
306.654
306.581
306.531
306.485
306.447
306.434
306.451
306.496
306.568
306.663
306.752
306.862
306.863
306.966
306.941
306.847
306.784
306.722
306.675
306.659
306.675
306.723
306.799
306.901
306.991
307.106
307.09
307.302
307.224
307.086
307.008
306.946
306.908
306.901
306.925
306.978
307.055
307.163
307.249
307.36
307.346
305.503
305.395
305.37
305.246
305.167
305.071
305.001
304.942
304.92
304.936
304.989
305.083
305.242
305.396
305.521
305.457
305.428
305.344
305.287
305.218
305.172
305.138
305.132
305.169
305.233
305.342
305.477
305.609
305.492
305.482
305.478
305.428
305.399
305.358
305.329
305.315
305.32
305.355
305.413
305.507
305.636
305.792
305.499
305.527
305.538
305.521
305.506
305.488
305.477
305.475
305.494
305.532
305.596
305.692
305.805
305.943
305.536
305.589
305.615
305.618
305.618
305.615
305.616
305.623
305.647
305.686
305.747
305.831
305.931
306.062
305.623
305.679
305.712
305.724
305.732
305.738
305.746
305.762
305.789
305.831
305.892
305.974
306.07
306.189
305.754
305.803
305.833
305.846
305.856
305.865
305.876
305.895
305.925
305.969
306.031
306.11
306.201
306.304
305.94
305.971
305.984
305.99
305.997
306.002
306.01
306.031
306.063
306.112
306.177
306.256
306.343
306.428
306.158
306.168
306.164
306.159
306.159
306.156
306.16
306.179
306.213
306.266
306.335
306.415
306.501
306.566
306.421
306.401
306.372
306.354
306.339
306.326
306.324
306.342
306.378
306.435
306.51
306.589
306.678
306.724
306.678
306.65
306.604
306.57
306.539
306.514
306.506
306.522
306.56
306.621
306.702
306.78
306.872
306.893
306.97
306.921
306.849
306.796
306.75
306.715
306.704
306.719
306.759
306.823
306.913
306.992
307.087
307.077
307.219
307.183
307.097
307.033
306.971
306.928
306.914
306.928
306.97
307.038
307.135
307.215
307.312
307.286
307.532
307.463
307.335
307.248
307.178
307.14
307.135
307.156
307.204
307.275
307.377
307.452
307.54
307.527
305.67
305.585
305.563
305.458
305.382
305.294
305.227
305.172
305.147
305.154
305.2
305.281
305.409
305.544
305.689
305.636
305.612
305.541
305.487
305.423
305.377
305.342
305.333
305.36
305.414
305.505
305.62
305.741
305.679
305.665
305.656
305.61
305.583
305.542
305.513
305.494
305.494
305.522
305.572
305.654
305.767
305.909
305.703
305.71
305.714
305.691
305.677
305.655
305.64
305.633
305.646
305.677
305.734
305.819
305.922
306.053
305.75
305.776
305.786
305.777
305.776
305.767
305.762
305.763
305.781
305.813
305.869
305.946
306.041
306.165
305.839
305.868
305.881
305.878
305.881
305.879
305.879
305.888
305.91
305.947
306.004
306.082
306.175
306.288
305.969
305.989
305.996
305.995
305.997
305.996
305.998
306.012
306.037
306.078
306.137
306.212
306.3
306.399
306.143
306.146
306.139
306.132
306.128
306.123
306.123
306.139
306.168
306.213
306.277
306.353
306.439
306.521
306.343
306.327
306.305
306.29
306.277
306.265
306.262
306.278
306.309
306.359
306.427
306.503
306.588
306.651
306.578
306.542
306.499
306.469
306.443
306.421
306.415
306.43
306.464
306.518
306.592
306.669
306.755
306.797
306.817
306.774
306.713
306.667
306.627
306.597
306.587
306.6
306.635
306.694
306.775
306.851
306.935
306.952
307.083
307.024
306.94
306.878
306.825
306.789
306.777
306.79
306.827
306.888
306.977
307.052
307.133
307.122
307.309
307.265
307.168
307.1
307.038
306.997
306.983
306.997
307.035
307.1
307.192
307.265
307.344
307.317
307.576
307.506
307.387
307.309
307.246
307.209
307.202
307.221
307.267
307.331
307.421
307.489
307.557
307.549
305.75
305.68
305.663
305.574
305.503
305.426
305.363
305.311
305.284
305.288
305.325
305.399
305.505
305.625
305.764
305.722
305.703
305.645
305.593
305.535
305.492
305.456
305.444
305.464
305.511
305.591
305.691
305.798
305.763
305.746
305.74
305.702
305.673
305.633
305.603
305.583
305.58
305.601
305.648
305.723
305.824
305.954
305.798
305.791
305.793
305.768
305.752
305.728
305.71
305.701
305.711
305.738
305.791
305.869
305.965
306.088
305.856
305.857
305.86
305.845
305.837
305.822
305.813
305.813
305.829
305.859
305.912
305.986
306.078
306.2
305.949
305.951
305.95
305.938
305.932
305.921
305.917
305.925
305.946
305.984
306.04
306.115
306.207
306.314
306.075
306.071
306.062
306.049
306.04
306.03
306.027
306.041
306.066
306.108
306.167
306.242
306.329
306.424
306.24
306.222
306.2
306.181
306.165
306.151
306.149
306.165
306.194
306.241
306.304
306.378
306.462
306.538
306.428
306.397
306.361
306.333
306.309
306.29
306.287
306.303
306.335
306.384
306.45
306.525
306.605
306.661
306.648
306.602
306.545
306.504
306.468
306.445
306.439
306.454
306.488
306.541
306.613
306.686
306.762
306.799
306.871
306.818
306.745
306.692
306.647
306.618
306.61
306.625
306.659
306.716
306.794
306.863
306.933
306.944
307.111
307.046
306.958
306.895
306.844
306.811
306.801
306.815
306.852
306.911
306.991
307.056
307.12
307.105
307.315
307.265
307.169
307.105
307.051
307.018
307.009
307.022
307.061
307.119
307.198
307.258
307.317
307.286
307.543
307.479
307.372
307.309
307.256
307.226
307.222
307.241
307.284
307.341
307.414
307.467
307.516
307.502
305.818
305.759
305.743
305.669
305.607
305.541
305.487
305.439
305.413
305.417
305.449
305.517
305.61
305.717
305.832
305.793
305.775
305.724
305.677
305.628
305.59
305.56
305.548
305.564
305.609
305.684
305.776
305.87
305.836
305.814
305.805
305.769
305.739
305.705
305.679
305.662
305.662
305.681
305.73
305.803
305.895
306.006
305.878
305.861
305.855
305.828
305.806
305.783
305.767
305.762
305.774
305.802
305.857
305.932
306.018
306.122
305.941
305.929
305.919
305.897
305.88
305.863
305.854
305.859
305.877
305.912
305.969
306.041
306.124
306.233
306.041
306.025
306.008
305.985
305.968
305.953
305.948
305.962
305.986
306.029
306.089
306.161
306.241
306.332
306.17
306.146
306.12
306.094
306.074
306.059
306.056
306.074
306.103
306.149
306.211
306.28
306.357
306.437
306.329
306.295
306.257
306.225
306.199
306.182
306.18
306.199
306.231
306.279
306.342
306.408
306.48
306.543
306.501
306.46
306.412
306.375
306.344
306.325
306.323
306.34
306.373
306.421
306.483
306.546
306.612
306.658
306.697
306.646
306.585
306.54
306.504
306.482
306.479
306.496
306.529
306.576
306.638
306.697
306.757
306.785
306.895
306.839
306.767
306.718
306.679
306.656
306.652
306.666
306.697
306.744
306.807
306.862
306.916
306.92
307.101
307.04
306.961
306.908
306.865
306.841
306.836
306.849
306.88
306.927
306.991
307.043
307.089
307.071
307.282
307.234
307.15
307.099
307.057
307.034
307.029
307.042
307.076
307.124
307.185
307.232
307.273
307.24
307.478
307.421
307.333
307.286
307.247
307.227
307.226
307.244
307.284
307.333
307.388
307.427
307.46
307.439
301.645
302.106
302.689
303.336
304.069
303.735
301.432
301.688
301.958
302.303
302.879
302.427
301.46
301.481
301.454
301.36
301.557
300.633
301.337
301.177
300.833
300.354
300.278
298.84
301.212
300.898
300.341
299.541
299.066
297.255
301.072
300.624
299.909
298.842
298.097
296.291
300.985
300.482
299.706
298.459
297.527
295.923
300.919
300.42
299.676
298.379
297.355
295.965
300.92
300.439
299.798
298.61
297.672
296.696
300.973
300.544
300.115
299.275
298.754
298.261
301.064
300.747
300.63
300.253
300.19
300.047
301.251
301.115
301.309
301.351
301.635
301.603
301.568
301.573
301.997
302.318
302.862
302.836
301.548
301.864
302.43
303.066
303.792
303.794
302.939
303.273
303.699
304.001
304.293
304.218
302.65
302.778
302.949
303.062
303.138
302.931
302.611
302.473
302.326
302.009
301.613
300.858
302.429
302.073
301.479
300.741
299.883
298.437
302.28
301.672
300.723
299.596
298.389
296.442
302.104
301.305
300.12
298.719
297.352
295.298
301.975
301.098
299.871
298.35
296.993
295.187
301.874
300.986
299.791
298.271
297.015
295.564
301.862
301.024
299.932
298.561
297.526
296.483
301.961
301.248
300.399
299.345
298.641
298.024
302.106
301.522
301.007
300.43
300.229
299.945
302.368
301.931
301.746
301.533
301.718
301.649
302.685
302.418
302.479
302.47
302.937
303.097
302.63
302.667
302.882
303.176
303.831
304.215
304.188
304.405
304.646
304.789
305.007
305.197
303.844
303.947
304.004
304.005
303.988
303.926
303.745
303.635
303.421
303.05
302.549
301.943
303.521
303.193
302.615
301.763
300.656
299.343
303.403
302.854
301.89
300.608
299.028
297.187
303.246
302.537
301.325
299.727
297.901
295.891
303.141
302.348
301.111
299.425
297.656
295.817
303.04
302.227
301.047
299.458
297.858
296.31
303.018
302.248
301.207
299.849
298.572
297.355
303.118
302.466
301.663
300.612
299.761
299.013
303.259
302.751
302.233
301.608
301.241
300.937
303.514
303.111
302.856
302.585
302.588
302.615
303.801
303.527
303.54
303.493
303.747
304.052
303.79
303.787
303.907
304.134
304.603
305.093
304.945
305.143
305.38
305.527
305.679
305.692
304.639
304.8
304.938
305.032
305.054
304.892
304.563
304.582
304.53
304.349
303.994
303.372
304.314
304.165
303.861
303.331
302.461
301.134
304.184
303.876
303.263
302.287
300.857
298.987
304.033
303.597
302.785
301.474
299.675
297.494
303.932
303.411
302.525
301.113
299.257
297.157
303.838
303.277
302.416
301.091
299.389
297.432
303.812
303.267
302.488
301.363
299.974
298.363
303.887
303.399
302.795
301.933
300.979
299.884
304.011
303.623
303.237
302.697
302.229
301.623
304.211
303.929
303.717
303.447
303.312