/*--------------------------------*- C++ -*----------------------------------*\
| =========                 |                                                 |
| \\      /  F ield         | OpenFOAM: The Open Source CFD Toolbox           |
|  \\    /   O peration     | Version:  v2106                                 |
|   \\  /    A nd           | Website:  www.openfoam.com                      |
|    \\/     M anipulation  |                                                 |
\*---------------------------------------------------------------------------*/
FoamFile
{
    version     2.0;
    format      ascii;
    arch        "LSB;label=32;scalar=64";
    class       volScalarField;
    location    "0.00012";
    object      Ttot;
}
// * * * * * * * * * * * * * * * * * * * * * * * * * * * * * * * * * * * * * //

dimensions      [0 0 0 1 0 0 0];

internalField   nonuniform List<scalar> 
144746
(
302.272
302.446
302.521
302.601
302.65
302.687
302.703
302.69
302.659
302.619
302.579
302.539
302.504
302.476
302.377
302.558
302.64
302.706
302.747
302.776
302.787
302.779
302.767
302.756
302.749
302.736
302.713
302.653
302.438
302.609
302.689
302.754
302.787
302.805
302.807
302.801
302.8
302.811
302.823
302.826
302.806
302.751
302.533
302.68
302.752
302.815
302.839
302.848
302.844
302.84
302.846
302.869
302.893
302.906
302.889
302.83
302.638
302.763
302.819
302.877
302.896
302.898
302.882
302.874
302.883
302.91
302.938
302.95
302.941
302.882
302.748
302.856
302.898
302.949
302.962
302.959
302.937
302.924
302.934
302.963
302.992
303.004
302.995
302.932
302.842
302.94
302.971
303.015
303.024
303.02
302.996
302.982
302.986
303.015
303.039
303.045
303.034
302.969
302.913
303.015
303.045
303.086
303.095
303.094
303.075
303.063
303.063
303.091
303.106
303.099
303.082
303.008
302.994
303.089
303.111
303.151
303.165
303.17
303.157
303.149
303.147
303.17
303.173
303.149
303.127
303.043
303.035
303.14
303.166
303.212
303.234
303.243
303.236
303.23
303.224
303.242
303.241
303.21
303.18
303.079
303.049
303.163
303.199
303.257
303.295
303.315
303.316
303.312
303.304
303.321
303.307
303.258
303.214
303.092
303.012
303.146
303.189
303.254
303.303
303.333
303.341
303.341
303.332
303.346
303.332
303.273
303.214
303.082
302.975
303.115
303.166
303.234
303.291
303.342
303.365
303.382
303.378
303.384
303.357
303.296
303.243
303.112
302.877
303.004
303.063
303.144
303.207
303.268
303.302
303.333
303.344
303.35
303.324
303.257
303.201
303.074
303.903
304.176
304.346
304.448
304.475
304.448
304.394
304.305
304.215
304.134
304.104
304.104
304.04
303.953
304.236
304.521
304.642
304.683
304.67
304.616
304.55
304.48
304.428
304.394
304.382
304.381
304.342
304.201
304.353
304.608
304.697
304.699
304.65
304.579
304.512
304.469
304.457
304.471
304.485
304.489
304.484
304.406
304.444
304.674
304.721
304.688
304.619
304.535
304.467
304.427
304.422
304.482
304.534
304.566
304.599
304.545
304.554
304.732
304.726
304.661
304.573
304.481
304.417
304.39
304.4
304.448
304.516
304.594
304.664
304.643
304.684
304.799
304.746
304.643
304.536
304.434
304.368
304.347
304.366
304.437
304.52
304.613
304.716
304.721
304.815
304.884
304.788
304.655
304.54
304.425
304.35
304.33
304.361
304.438
304.546
304.657
304.779
304.801
304.958
304.989
304.861
304.714
304.612
304.493
304.415
304.39
304.425
304.506
304.619
304.732
304.864
304.891
305.079
305.114
304.973
304.812
304.711
304.588
304.508
304.481
304.518
304.602
304.715
304.825
304.961
304.985
305.163
305.208
305.07
304.924
304.848
304.749
304.684
304.663
304.699
304.775
304.871
304.967
305.08
305.086
305.219
305.298
305.173
305.036
304.974
304.896
304.847
304.834
304.867
304.936
305.011
305.092
305.173
305.15
305.213
305.35
305.263
305.152
305.112
305.055
305.013
305
305.03
305.088
305.141
305.201
305.241
305.187
305.147
305.384
305.352
305.261
305.232
305.207
305.194
305.206
305.245
305.295
305.325
305.332
305.325
305.206
305.075
305.333
305.366
305.311
305.303
305.311
305.326
305.348
305.38
305.402
305.389
305.352
305.28
305.164
306.574
306.855
307.09
307.151
307.104
306.998
306.847
306.684
306.548
306.452
306.431
306.479
306.584
306.473
306.962
307.082
307.208
307.229
307.178
307.066
306.925
306.785
306.683
306.619
306.636
306.747
306.901
306.911
306.94
307.093
307.138
307.125
307.051
306.939
306.819
306.726
306.69
306.683
306.737
306.863
307.079
307.233
306.941
307.049
307.03
306.969
306.858
306.741
306.643
306.593
306.61
306.659
306.773
306.979
307.229
307.431
306.972
307.018
306.989
306.88
306.725
306.593
306.507
306.485
306.534
306.622
306.779
307.025
307.324
307.545
307.103
307.135
307.057
306.879
306.677
306.523
306.439
306.43
306.495
306.61
306.799
307.08
307.405
307.642
307.371
307.361
307.208
306.964
306.724
306.55
306.459
306.45
306.523
306.651
306.857
307.146
307.479
307.711
307.69
307.644
307.431
307.141
306.872
306.681
306.579
306.568
306.644
306.778
306.991
307.274
307.596
307.797
308.025
307.965
307.712
307.381
307.082
306.872
306.761
306.747
306.827
306.965
307.178
307.45
307.75
307.901
308.333
308.275
308.026
307.696
307.402
307.198
307.09
307.076
307.154
307.279
307.471
307.706
307.962
308.048
308.569
308.536
308.303
307.993
307.718
307.535
307.444
307.443
307.52
307.634
307.803
307.997
308.185
308.203
308.741
308.753
308.562
308.299
308.055
307.906
307.842
307.861
307.944
308.052
308.196
308.34
308.442
308.404
308.72
308.812
308.688
308.529
308.365
308.28
308.25
308.293
308.379
308.476
308.587
308.674
308.684
308.599
308.642
308.942
308.87
308.77
308.607
308.54
308.548
308.618
308.706
308.783
308.865
308.879
308.799
308.552
302.329
301.896
301.391
300.534
299.511
297.679
302.493
302.05
301.533
300.658
299.59
297.731
302.626
302.219
301.72
300.822
299.768
297.883
302.723
302.336
301.866
300.995
299.909
298.031
302.79
302.422
301.98
301.131
300.056
298.164
302.842
302.482
302.058
301.223
300.136
298.273
302.879
302.521
302.099
301.277
300.178
298.299
302.916
302.55
302.116
301.305
300.182
298.266
302.937
302.558
302.101
301.284
300.15
298.239
302.952
302.541
302.076
301.265
300.138
298.233
302.948
302.532
302.084
301.251
300.158
298.245
302.916
302.503
302.017
301.203
300.161
298.257
302.895
302.48
301.991
301.22
300.239
298.304
302.884
302.465
301.948
301.17
300.19
298.279
303.681
302.983
302.304
301.23
300.179
298.281
303.903
303.23
302.564
301.473
300.397
298.37
304.152
303.478
302.81
301.667
300.526
298.509
304.327
303.666
302.993
301.809
300.688
298.602
304.453
303.812
303.11
301.908
300.797
298.677
304.558
303.936
303.21
301.974
300.82
298.737
304.664
304.066
303.31
301.994
300.804
298.687
304.771
304.198
303.419
302.019
300.792
298.644
304.864
304.307
303.514
302.058
300.803
298.676
304.948
304.392
303.575
302.143
300.88
298.782
305
304.44
303.636
302.248
301.012
298.913
305.009
304.441
303.64
302.341
301.098
299.011
304.966
304.357
303.588
302.386
301.234
299.153
304.867
304.215
303.437
302.284
301.136
299.101
306.387
305.587
304.745
302.846
301.265
297.821
306.88
306.165
305.217
303.175
301.476
297.612
307.244
306.595
305.581
303.42
301.626
297.353
307.478
306.868
305.776
303.52
301.656
296.999
307.614
307.007
305.869
303.529
301.625
296.674
307.721
307.137
305.949
303.53
301.466
296.392
307.802
307.228
305.984
303.475
301.325
296.326
307.88
307.285
306.011
303.478
301.298
296.571
307.955
307.327
306.095
303.631
301.491
297.122
308.067
307.422
306.29
303.98
301.929
297.907
308.21
307.586
306.595
304.44
302.432
298.514
308.368
307.724
306.83
304.819
302.946
299.153
308.564
307.795
306.913
304.945
303.11
299.379
308.269
307.445
306.612
304.632
302.836
299.108
302.928
302.522
302.04
301.272
300.3
298.334
303.064
302.654
302.177
301.391
300.397
298.406
303.169
302.805
302.328
301.512
300.473
298.505
303.26
302.92
302.461
301.602
300.526
298.545
303.294
302.963
302.518
301.663
300.554
298.576
303.287
302.958
302.526
301.661
300.529
298.542
303.262
302.917
302.477
301.619
300.464
298.527
303.217
302.848
302.402
301.532
300.365
298.417
303.164
302.766
302.292
301.406
300.258
298.271
303.089
302.664
302.169
301.257
300.102
298.115
303.002
302.565
302.056
301.128
299.995
297.946
302.903
302.46
301.933
300.966
299.819
297.881
302.821
302.387
301.868
300.902
299.778
297.824
302.727
302.342
301.818
300.867
299.752
297.815
304.904
304.229
303.506
302.37
301.259
299.211
305.07
304.448
303.76
302.575
301.468
299.334
305.214
304.636
303.957
302.717
301.565
299.394
305.306
304.757
304.055
302.801
301.633
299.405
305.35
304.813
304.075
302.768
301.577
299.328
305.352
304.829
304.061
302.712
301.501
299.273
305.331
304.815
304.013
302.611
301.35
299.117
305.295
304.767
303.948
302.495
301.23
298.965
305.25
304.681
303.855
302.398
301.132
298.87
305.2
304.566
303.731
302.285
301.035
298.796
305.176
304.44
303.567
302.166
300.941
298.696
305.117
304.261
303.353
301.981
300.769
298.588
304.996
304.014
303.12
301.823
300.632
298.503
304.697
303.675
302.851
301.65
300.557
298.488
308.497
307.638
306.746
304.696
302.992
299.048
308.879
308.172
307.287
305.175
303.363
299.068
309.034
308.472
307.54
305.388
303.522
298.858
309.082
308.639
307.66
305.438
303.581
298.557
309.022
308.634
307.611
305.332
303.437
298.175
308.95
308.605
307.534
305.181
303.166
297.838
308.852
308.507
307.405
304.999
302.902
297.703
308.756
308.364
307.276
304.873
302.759
297.835
308.706
308.255
307.22
304.903
302.824
298.119
308.709
308.19
307.228
305.03
303.015
298.513
308.799
308.213
307.281
305.145
303.177
298.721
308.803
308.134
307.177
305.055
303.157
298.683
308.897
308.025
307.032
304.763
302.87
298.445
308.309
307.247
306.176
303.967
302.3
297.758
296.976
298.71
299.857
300.841
301.478
302.015
297.015
298.816
299.927
300.903
301.541
302.094
297.127
298.869
300.018
301.002
301.647
302.208
297.227
298.961
300.125
301.162
301.801
302.339
297.299
299.024
300.243
301.323
301.951
302.466
297.429
299.117
300.378
301.482
302.105
302.589
297.591
299.254
300.545
301.67
302.266
302.697
297.814
299.43
300.732
301.843
302.389
302.78
297.976
299.64
300.917
301.989
302.489
302.869
298.052
299.763
300.989
302.038
302.542
302.905
298.124
299.859
301.025
302.066
302.539
302.913
298.088
299.848
300.967
301.982
302.494
302.865
297.974
299.767
300.866
301.89
302.416
302.791
297.829
299.686
300.779
301.748
302.346
302.709
297.263
299.108
300.206
301.49
302.347
303.399
297.202
299.156
300.216
301.639
302.638
303.71
297.386
299.233
300.392
301.819
302.847
303.886
297.298
299.206
300.416
301.957
303.01
304.007
297.309
299.212
300.426
301.981
303.077
304.122
297.312
299.191
300.385
301.96
303.14
304.255
297.335
299.192
300.389
301.964
303.192
304.379
297.536
299.41
300.545
302.056
303.282
304.507
297.871
299.739
300.807
302.209
303.366
304.597
298.118
300.018
301.011
302.326
303.43
304.662
298.288
300.242
301.186
302.421
303.472
304.701
298.454
300.395
301.286
302.43
303.444
304.669
298.597
300.534
301.437
302.545
303.472
304.625
298.506
300.458
301.433
302.439
303.301
304.416
296.331
300.26
301.889
303.957
304.953
306.038
296.918
300.747
302.424
304.609
305.637
306.704
297.015
300.674
302.499
304.637
305.648
306.601
296.749
300.366
302.254
304.501
305.597
306.615
296.082
299.773
301.685
304.144
305.506
306.631
295.277
299.201
301.115
303.825
305.508
306.793
294.557
298.996
300.914
303.775
305.672
307.061
294.346
299.319
301.114
304.002
305.972
307.378
294.491
299.929
301.58
304.376
306.316
307.7
294.796
300.581
302.134
304.813
306.653
307.991
295.294
301.175
302.659
305.21
306.926
308.219
296.033
301.663
303.117
305.565
307.143
308.387
296.929
302.101
303.532
305.869
307.283
308.515
297.319
301.918
303.455
305.672
306.946
308.271
297.562
299.307
300.328
301.194
301.784
302.231
297.553
299.264
300.33
301.199
301.775
302.251
297.508
299.195
300.288
301.207
301.795
302.301
297.557
299.209
300.345
301.296
301.875
302.365
297.517
299.128
300.339
301.355
301.944
302.436
297.53
299.08
300.341
301.442
302.047
302.506
297.526
299.038
300.317
301.482
302.108
302.554
297.575
299.056
300.337
301.52
302.145
302.574
297.626
299.108
300.365
301.528
302.127
302.557
297.56
299.128
300.364
301.513
302.083
302.513
297.487
299.084
300.296
301.417
301.994
302.448
297.383
299.009
300.187
301.283
301.875
302.341
297.229
298.89
300.025
301.106
301.718
302.228
297.103
298.797
299.904
300.923
301.584
302.04
298.073
299.873
300.932
302.035
302.834
303.525
298.01
299.811
300.923
302.135
302.962
303.709
297.786
299.59
300.733
302.059
302.956
303.753
297.675
299.429
300.575
301.953
302.906
303.727
297.431
299.159
300.318
301.759
302.797
303.692
297.275
298.961
300.122
301.578
302.673
303.706
297.149
298.845
299.99
301.454
302.608
303.762
297.204
298.91
300.005
301.439
302.59
303.834
297.358
299.071
300.109
301.471
302.579
303.868
297.47
299.213
300.175
301.467
302.55
303.877
297.495
299.295
300.236
301.488
302.543
303.846
297.532
299.325
300.262
301.45
302.463
303.698
297.532
299.316
300.264
301.463
302.385
303.576
297.371
299.161
300.128
301.242
302.173
303.286
297.818
300.921
302.522
304.276
305.09
305.927
297.968
301.06
302.76
304.58
305.493
306.381
297.443
300.507
302.261
304.215
305.202
306.155
296.623
299.651
301.415
303.568
304.819
305.977
295.448
298.717
300.506
302.966
304.564
305.929
294.384
298.107
299.915
302.595
304.472
305.998
293.584
297.939
299.723
302.504
304.537
306.138
293.289
298.172
299.833
302.602
304.69
306.313
293.294
298.595
300.098
302.781
304.849
306.467
293.566
299.097
300.422
303.002
305.005
306.59
294.089
299.576
300.763
303.241
305.152
306.674
294.727
299.871
301.05
303.49
305.225
306.658
295.508
300.197
301.433
303.732
305.189
306.5
295.944
300.062
301.436
303.583
304.824
306.163
308.163
308.003
307.94
307.717
307.471
307.178
306.891
306.594
306.351
306.175
306.098
306.265
306.744
307.217
307.825
307.561
307.404
307.211
307.011
306.79
306.579
306.385
306.241
306.157
306.16
306.356
306.771
307.251
307.158
307.002
306.863
306.73
306.568
306.4
306.245
306.121
306.048
306.041
306.127
306.366
306.767
307.321
306.909
306.752
306.565
306.407
306.24
306.096
305.982
305.912
305.897
305.957
306.11
306.399
306.832
307.414
306.833
306.694
306.473
306.268
306.079
305.936
305.842
305.802
305.818
305.916
306.101
306.417
306.871
307.471
307.039
306.842
306.553
306.282
306.059
305.905
305.815
305.787
305.817
305.933
306.136
306.463
306.929
307.527
307.395
307.099
306.732
306.394
306.136
305.966
305.874
305.85
305.884
306.008
306.214
306.536
306.995
307.568
307.843
307.44
306.989
306.586
306.287
306.099
306.001
305.977
306.013
306.141
306.348
306.66
307.101
307.629
308.32
307.829
307.3
306.844
306.511
306.303
306.197
306.172
306.208
306.337
306.542
306.841
307.256
307.722
308.838
308.26
307.66
307.164
306.804
306.58
306.47
306.444
306.483
306.611
306.811
307.092
307.471
307.857
309.318
308.692
308.05
307.541
307.174
306.949
306.844
306.824
306.868
306.991
307.183
307.443
307.777
308.074
309.761
309.144
308.478
307.98
307.628
307.419
307.332
307.325
307.381
307.508
307.695
307.933
308.216
308.432
310.059
309.558
308.905
308.446
308.126
307.955
307.898
307.914
307.99
308.123
308.303
308.515
308.757
308.956
310.423
310.082
309.374
308.93
308.621
308.506
308.51
308.577
308.688
308.83
308.993
309.159
309.333
309.482
307.142
307.089
307.061
306.917
306.748
306.513
306.267
305.998
305.777
305.633
305.516
305.571
305.803
306.19
306.766
306.651
306.587
306.505
306.398
306.246
306.084
305.923
305.8
305.729
305.699
305.799
306.028
306.43
306.262
306.278
306.246
306.206
306.129
306.027
305.919
305.822
305.758
305.744
305.783
305.932
306.19
306.626
306.145
306.146
306.085
306.034
305.966
305.89
305.822
305.77
305.753
305.785
305.879
306.073
306.377
306.819
306.204
306.182
306.091
306.008
305.929
305.863
305.814
305.79
305.801
305.859
305.978
306.195
306.512
306.951
306.453
306.364
306.22
306.093
305.993
305.923
305.88
305.869
305.893
305.963
306.093
306.315
306.635
307.066
306.829
306.638
306.426
306.247
306.12
306.039
305.995
305.987
306.016
306.091
306.223
306.437
306.743
307.149
307.279
306.978
306.689
306.456
306.295
306.198
306.149
306.142
306.172
306.248
306.379
306.579
306.86
307.223
307.745
307.346
306.988
306.702
306.508
306.394
306.339
306.331
306.362
306.437
306.566
306.752
307.003
307.307
308.218
307.738
307.311
306.981
306.761
306.634
306.576
306.568
306.601
306.675
306.801
306.97
307.186
307.418
308.647
308.118
307.638
307.283
307.052
306.921
306.865
306.863
306.9
306.974
307.097
307.253
307.43
307.582
309.008
308.462
307.953
307.594
307.373
307.257
307.217
307.229
307.276
307.354
307.475
307.62
307.762
307.83
309.221
308.753
308.264
307.935
307.743
307.658
307.645
307.679
307.742
307.826
307.939
308.062
308.174
308.189
309.462
309.1
308.555
308.266
308.115
308.086
308.129
308.211
308.312
308.411
308.507
308.586
308.643
308.582
306.293
306.249
306.242
306.131
306.041
305.87
305.697
305.493
305.327
305.232
305.149
305.166
305.276
305.571
306.046
306.007
305.967
305.928
305.864
305.753
305.636
305.511
305.411
305.376
305.358
305.443
305.616
305.888
305.743
305.818
305.817
305.792
305.742
305.668
305.587
305.515
305.467
305.462
305.49
305.6
305.773
306.064
305.696
305.766
305.76
305.733
305.694
305.641
305.592
305.554
305.541
305.565
305.633
305.772
305.981
306.278
305.804
305.83
305.805
305.767
305.725
305.684
305.651
305.634
305.643
305.686
305.772
305.92
306.136
306.431
306.031
305.998
305.934
305.872
305.82
305.778
305.751
305.746
305.766
305.819
305.911
306.063
306.28
306.57
306.339
306.231
306.118
306.024
305.955
305.908
305.881
305.88
305.904
305.961
306.053
306.201
306.411
306.685
306.712
306.522
306.352
306.219
306.127
306.068
306.037
306.035
306.062
306.119
306.21
306.351
306.548
306.796
307.096
306.836
306.616
306.446
306.33
306.257
306.221
306.217
306.243
306.301
306.39
306.522
306.702
306.913
307.501
307.186
306.91
306.699
306.56
306.477
306.435
306.428
306.455
306.514
306.601
306.722
306.88
307.043
307.849
307.514
307.203
306.967
306.814
306.725
306.68
306.675
306.704
306.766
306.856
306.967
307.099
307.2
308.174
307.826
307.494
307.247
307.09
307.004
306.966
306.967
307.004
307.071
307.164
307.27
307.373
307.395
308.398
308.086
307.756
307.527
307.388
307.32
307.299
307.317
307.366
307.44
307.53
307.619
307.693
307.66
308.674
308.362
307.972
307.782
307.68
307.654
307.671
307.718
307.789
307.873
307.96
308.03
308.08
307.968
305.882
305.805
305.814
305.688
305.613
305.465
305.331
305.18
305.067
305.011
304.979
305.006
305.145
305.375
305.716
305.69
305.687
305.62
305.563
305.467
305.377
305.287
305.223
305.212
305.226
305.319
305.457
305.656
305.557
305.603
305.624
305.602
305.566
305.507
305.448
305.397
305.369
305.375
305.411
305.506
305.638
305.87
305.521
305.608
305.637
305.627
305.605
305.571
305.542
305.521
305.519
305.544
305.602
305.71
305.859
306.07
305.614
305.679
305.704
305.702
305.69
305.674
305.662
305.66
305.674
305.709
305.774
305.879
306.021
306.219
305.794
305.82
305.823
305.817
305.807
305.8
305.796
305.805
305.827
305.869
305.936
306.037
306.174
306.358
306.035
306.012
305.987
305.966
305.951
305.943
305.942
305.955
305.981
306.025
306.091
306.187
306.314
306.478
306.338
306.261
306.197
306.15
306.12
306.104
306.101
306.113
306.141
306.187
306.253
306.344
306.459
306.599
306.663
306.539
306.438
306.363
306.314
306.286
306.277
306.286
306.313
306.36
306.426
306.513
306.618
306.731
307.024
306.854
306.709
306.601
306.529
306.487
306.47
306.475
306.503
306.552
306.619
306.702
306.796
306.879
307.351
307.159
306.982
306.85
306.76
306.705
306.681
306.684
306.715
306.769
306.839
306.917
307.001
307.044
307.697
307.464
307.253
307.107
307.005
306.939
306.912
306.918
306.955
307.016
307.094
307.17
307.245
307.237
307.955
307.745
307.513
307.361
307.256
307.192
307.169
307.183
307.229
307.298
307.38
307.448
307.514
307.474
308.286
308.008
307.723
307.583
307.495
307.452
307.449
307.481
307.54
307.618
307.705
307.767
307.825
307.76
305.787
305.692
305.71
305.586
305.502
305.366
305.248
305.124
305.038
304.995
304.993
305.039
305.192
305.38
305.686
305.652
305.653
305.574
305.52
305.424
305.343
305.263
305.212
305.207
305.235
305.324
305.454
305.617
305.585
305.614
305.638
305.601
305.565
305.506
305.452
305.407
305.38
305.388
305.424
305.509
305.635
305.835
305.574
305.639
305.669
305.655
305.635
305.601
305.571
305.549
305.545
305.566
305.617
305.71
305.837
306.009
305.642
305.708
305.743
305.74
305.73
305.712
305.7
305.692
305.702
305.729
305.784
305.871
305.987
306.15
305.786
305.83
305.853
305.853
305.845
305.835
305.83
305.833
305.849
305.882
305.938
306.022
306.134
306.282
305.985
305.996
306
305.991
305.979
305.97
305.966
305.973
305.992
306.029
306.085
306.165
306.267
306.398
306.247
306.218
306.19
306.159
306.136
306.119
306.111
306.118
306.138
306.178
306.237
306.314
306.408
306.517
306.538
306.472
306.409
306.355
306.317
306.288
306.272
306.276
306.297
306.339
306.4
306.475
306.562
306.646
306.871
306.758
306.653
306.574
306.516
306.472
306.449
306.45
306.473
306.518
306.581
306.655
306.738
306.796
307.184
307.042
306.909
306.81
306.733
306.675
306.644
306.644
306.67
306.719
306.788
306.858
306.938
306.966
307.515
307.333
307.166
307.049
306.957
306.889
306.855
306.857
306.888
306.945
307.022
307.09
307.171
307.163
307.772
307.609
307.42
307.292
307.191
307.119
307.088
307.093
307.131
307.195
307.28
307.348
307.428
307.4
308.111
307.89
307.648
307.507
307.412
307.354
307.337
307.355
307.404
307.476
307.569
307.64
307.717
307.693
305.762
305.684
305.69
305.576
305.496
305.385
305.289
305.194
305.131
305.105
305.117
305.175
305.307
305.46
305.71
305.678
305.675
305.606
305.553
305.475
305.41
305.349
305.312
305.316
305.348
305.43
305.547
305.684
305.654
305.673
305.688
305.651
305.624
305.576
305.534
305.499
305.48
305.491
305.524
305.601
305.717
305.883
305.662
305.706
305.732
305.72
305.707
305.684
305.662
305.644
305.643
305.661
305.706
305.788
305.896
306.046
305.728
305.781
305.81
305.812
305.809
305.799
305.791
305.784
305.792
305.814
305.86
305.935
306.032
306.172
305.856
305.899
305.922
305.925
305.924
305.921
305.918
305.92
305.932
305.96
306.008
306.081
306.176
306.301
306.037
306.058
306.065
306.062
306.057
306.052
306.049
306.055
306.07
306.101
306.15
306.22
306.307
306.415
306.272
306.262
306.242
306.222
306.208
306.195
306.187
306.193
306.211
306.246
306.299
306.368
306.449
306.536
306.535
306.493
306.446
306.407
306.38
306.356
306.341
306.345
306.365
306.404
306.46
306.528
306.605
306.671
306.836
306.753
306.672
306.613
306.568
306.531
306.51
306.512
306.534
306.577
306.639
306.706
306.782
306.826
307.117
307.015
306.911
306.833
306.77
306.72
306.695
306.696
306.722
306.771
306.838
306.902
306.978
306.994
307.427
307.293
307.159
307.059
306.979
306.921
306.895
306.898
306.928
306.982
307.059
307.123
307.2
307.183
307.675
307.55
307.399
307.289
307.197
307.134
307.109
307.115
307.152
307.212
307.298
307.363
307.439
307.403
307.99
307.827
307.629
307.496
307.4
307.346
307.333
307.351
307.399
307.467
307.56
307.624
307.693
307.673
305.81
305.741
305.737
305.637
305.556
305.458
305.373
305.295
305.244
305.225
305.245
305.305
305.418
305.552
305.784
305.748
305.738
305.675
305.619
305.548
305.489
305.436
305.408
305.413
305.448
305.523
305.629
305.753
305.756
305.756
305.758
305.717
305.689
305.641
305.602
305.57
305.554
305.565
305.601
305.673
305.78
305.927
305.78
305.794
305.804
305.782
305.766
305.739
305.714
305.696
305.696
305.715
305.76
305.837
305.939
306.076
305.844
305.868
305.877
305.865
305.858
305.842
305.829
305.82
305.826
305.848
305.895
305.967
306.061
306.191
305.958
305.977
305.981
305.969
305.963
305.952
305.943
305.942
305.953
305.981
306.031
306.104
306.196
306.315
306.118
306.119
306.11
306.095
306.084
306.072
306.063
306.066
306.081
306.113
306.165
306.235
306.322
306.425
306.325
306.3
306.27
306.243
306.223
306.203
306.191
306.195
306.214
306.25
306.306
306.377
306.461
306.546
306.555
306.504
306.452
306.412
306.379
306.35
306.334
306.337
306.358
306.399
306.459
306.53
306.611
306.675
306.819
306.738
306.659
306.599
306.55
306.511
306.49
306.494
306.518
306.563
306.629
306.699
306.779
306.82
307.078
306.981
306.879
306.802
306.738
306.69
306.667
306.669
306.696
306.746
306.819
306.887
306.962
306.977
307.359
307.239
307.111
307.015
306.938
306.884
306.861
306.865
306.895
306.948
307.03
307.097
307.168
307.153
307.587
307.48
307.338
307.236
307.152
307.095
307.073
307.079
307.113
307.172
307.257
307.322
307.391
307.36
307.862
307.725
307.556
307.444
307.359
307.31
307.296
307.311
307.354
307.417
307.502
307.564
307.624
307.614
305.844
305.784
305.776
305.69
305.614
305.528
305.453
305.384
305.339
305.326
305.348
305.408
305.507
305.627
305.83
305.795
305.784
305.729
305.675
305.611
305.557
305.509
305.483
305.49
305.525
305.596
305.692
305.801
305.814
305.804
305.803
305.766
305.735
305.69
305.652
305.622
305.609
305.619
305.657
305.725
305.825
305.958
305.846
305.843
305.847
305.821
305.802
305.773
305.748
305.731
305.732
305.75
305.796
305.87
305.965
306.092
305.914
305.914
305.914
305.895
305.882
305.86
305.845
305.837
305.845
305.868
305.916
305.986
306.079
306.205
306.024
306.018
306.01
305.99
305.976
305.957
305.946
305.947
305.96
305.992
306.043
306.116
306.208
306.318
306.171
306.152
306.131
306.107
306.088
306.068
306.057
306.063
306.081
306.117
306.171
306.243
306.33
306.428
306.36
306.32
306.281
306.247
306.218
306.193
306.18
306.188
306.21
306.251
306.309
306.381
306.464
306.541
306.571
306.512
306.454
306.407
306.367
306.336
306.322
306.329
306.354
306.397
306.459
306.53
306.608
306.665
306.813
306.732
306.648
306.585
306.532
306.495
306.478
306.485
306.512
306.558
306.626
306.695
306.768
306.803
307.054
306.96
306.856
306.778
306.716
306.673
306.655
306.66
306.689
306.74
306.813
306.878
306.944
306.953
307.305
307.196
307.074
306.986
306.916
306.869
306.85
306.856
306.888
306.942
307.018
307.079
307.139
307.121
307.514
307.418
307.288
307.198
307.126
307.079
307.062
307.071
307.105
307.16
307.236
307.292
307.348
307.315
307.751
307.639
307.495
307.404
307.332
307.291
307.28
307.295
307.338
307.393
307.466
307.516
307.563
307.549
305.902
305.847
305.836
305.763
305.696
305.623
305.559
305.499
305.461
305.453
305.476
305.536
305.626
305.733
305.899
305.862
305.846
305.795
305.745
305.691
305.645
305.605
305.584
305.591
305.629
305.7
305.789
305.885
305.89
305.869
305.863
305.826
305.792
305.753
305.72
305.696
305.689
305.702
305.745
305.814
305.906
306.02
305.929
305.913
305.906
305.875
305.85
305.822
305.8
305.789
305.795
305.818
305.869
305.942
306.027
306.134
305.998
305.982
305.969
305.942
305.92
305.897
305.882
305.881
305.894
305.925
305.978
306.049
306.133
306.244
306.108
306.086
306.061
306.031
306.007
305.985
305.975
305.982
306.002
306.041
306.098
306.169
306.249
306.342
306.253
306.216
306.179
306.144
306.115
306.092
306.083
306.095
306.119
306.161
306.22
306.288
306.365
306.446
306.428
306.376
306.324
306.28
306.243
306.218
306.208
306.222
306.249
306.293
306.353
306.417
306.489
306.552
306.617
306.554
306.488
306.436
306.393
306.364
306.354
306.366
306.394
306.438
306.496
306.558
306.623
306.669
306.828
306.751
306.669
306.608
306.558
306.526
306.515
306.525
306.553
306.596
306.655
306.712
306.771
306.798
307.04
306.954
306.858
306.791
306.737
306.704
306.692
306.7
306.727
306.77
306.83
306.883
306.935
306.937
307.256
307.162
307.057
306.985
306.928
306.893
306.88
306.888
306.916
306.959
307.021
307.071
307.116
307.095
307.442
307.361
307.25
307.18
307.123
307.09
307.079
307.087
307.118
307.165
307.225
307.269
307.31
307.275
307.646
307.555
307.438
307.371
307.316
307.287
307.281
307.295
307.335
307.383
307.439
307.477
307.51
307.488
308.93
309.14
309.117
308.795
308.588
308.067
308.569
308.667
308.456
308.131
308.015
307.694
308.488
308.552
308.159
307.523
307.145
306.567
308.166
308.136
307.426
306.516
305.936
304.975
307.807
307.66
306.721
305.485
304.456
303.134
307.389
307.053
305.876
304.296
302.856
301.47
307.018
306.507
305.159
303.288
301.505
300.169
306.656
306.006
304.602
302.576
300.584
299.282
306.388
305.627
304.298
302.317
300.348
299.179
306.238
305.477
304.414
302.768
301.19
300.246
306.202
305.587
304.96
303.795
302.622
301.824
306.375
306.025
305.817
305.07
304.186
303.384
306.877
306.733
306.73
306.186
305.525
304.731
307.047
307.267
307.321
307.054
306.604
305.956
307.963
308.164
308.495
308.453
308.39
308.115
307.637
307.975
308.137
308.192
308.055
307.772
307.572
307.824
307.806
307.58
307.116
306.389
307.295
307.413
307.035
306.408
305.58
304.218
307.012
306.9
306.164
305.082
303.93
302.033
306.628
306.261
305.185
303.714
302.292
300.227
306.263
305.679
304.394
302.68
301.053
299.151
305.889
305.131
303.714
301.862
300.121
298.498
305.604
304.736
303.302
301.481
299.828
298.531
305.465
304.613
303.376
301.815
300.434
299.481
305.393
304.628
303.786
302.734
301.865
301.174
305.498
304.908
304.496
303.853
303.386
302.874
305.798
305.449
305.317
304.877
304.718
304.448
305.887
305.88
305.888
305.766
305.833
305.852
306.952
307.122
307.499
307.691
307.98
308.217
306.614
306.949
307.232
307.457
307.636
307.755
306.55
306.814
306.943
306.911
306.697
306.37
306.316
306.428
306.231
305.738
304.986
304.021
306.158
306.071
305.493
304.518
303.272
301.743
305.889
305.602
304.711
303.324
301.703
299.895
305.639
305.176
304.131
302.536
300.768
298.986
305.355
304.752
303.629
301.973
300.198
298.556
305.144
304.465
303.364
301.798
300.22
298.824
305.056
304.388
303.451
302.121
300.925
299.966
305.01
304.422
303.754
302.865
302.185
301.689
305.094
304.593
304.212
303.734
303.489
303.364
305.28
304.936
304.84
304.638
304.714
304.91
305.313
305.267
305.303
305.433
305.785
306.2
306.324
306.523
306.895
307.185
307.504
307.675
306.045
306.375
306.729
307.083
307.399
307.54
306.029
306.307
306.555
306.726
306.75
306.524
305.786
305.946
305.979
305.833
305.356
304.484
305.644
305.666
305.396
304.758
303.699
302.268
305.427
305.297
304.783
303.745
302.199
300.343
305.234
304.958
304.29
303.037
301.278
299.33
305.023
304.632
303.897
302.602
300.835
298.876
304.876
304.418
303.68
302.48
300.924
299.205
304.818
304.343
303.721
302.736
301.59
300.354
304.809
304.39
303.951
303.288
302.661
301.938
304.889
304.56
304.281
303.917
303.679
303.353
305.081
304.849
304.751
304.63
304.652
304.611