/*--------------------------------*- C++ -*----------------------------------*\
| =========                 |                                                 |
| \\      /  F ield         | OpenFOAM: The Open Source CFD Toolbox           |
|  \\    /   O peration     | Version:  v2106                                 |
|   \\  /    A nd           | Website:  www.openfoam.com                      |
|    \\/     M anipulation  |                                                 |
\*---------------------------------------------------------------------------*/
FoamFile
{
    version     2.0;
    format      ascii;
    arch        "LSB;label=32;scalar=64";
    class       volScalarField;
    location    "0.000218";
    object      alphat;
}
// * * * * * * * * * * * * * * * * * * * * * * * * * * * * * * * * * * * * * //

dimensions      [1 -1 -1 0 0 0 0];

internalField   nonuniform List<scalar> 
17924
(
3.67285e-16
1.83858e-16
1.39728e-16
1.26745e-16
1.39468e-16
1.08886e-16
1.02136e-16
1.0045e-16
1.00125e-16
1.00363e-16
1.00897e-16
1.50666e-16
1.08954e-16
9.92187e-17
9.71875e-17
9.68251e-17
9.68085e-17
9.68789e-17
1.88284e-16
1.17832e-16
1.00849e-16
9.72542e-17
9.65816e-17
9.64671e-17
9.64503e-17
2.34721e-16
1.28609e-16
1.03058e-16
9.76476e-17
9.66398e-17
9.64673e-17
9.64337e-17
2.82194e-16
1.38508e-16
1.04851e-16
9.79455e-17
9.67009e-17
9.64974e-17
9.646e-17
3.28607e-16
1.46591e-16
1.05945e-16
9.80771e-17
9.67379e-17
9.65321e-17
9.64962e-17
3.78526e-16
1.54108e-16
1.06679e-16
9.81328e-17
9.67806e-17
9.65911e-17
9.65612e-17
4.33229e-16
1.61682e-16
1.07306e-16
9.82307e-17
9.69338e-17
9.67959e-17
9.67899e-17
4.8992e-16
1.69194e-16
1.08057e-16
9.87198e-17
9.77094e-17
9.78086e-17
9.79355e-17
5.50424e-16
1.7817e-16
1.10059e-16
1.01195e-16
1.01556e-16
1.02858e-16
1.03737e-16
6.25797e-16
1.96004e-16
1.18282e-16
1.12452e-16
1.18994e-16
1.26122e-16
1.31068e-16
7.98716e-16
2.60677e-16
1.55648e-16
1.5997e-16
1.91107e-16
2.23389e-16
2.47302e-16
1.35463e-15
5.06193e-16
3.09362e-16
3.41673e-16
4.56802e-16
5.82348e-16
6.80912e-16
3.10767e-15
1.3352e-15
8.57482e-16
9.59302e-16
1.32603e-15
1.75475e-15
2.11099e-15
1.03095e-16
9.84116e-17
9.73572e-17
9.70998e-17
9.70591e-17
9.71047e-17
9.71972e-17
9.72679e-17
9.72649e-17
9.71487e-17
9.69791e-17
9.70725e-17
9.85224e-17
1.06227e-16
1.06006e-16
9.87853e-17
9.70635e-17
9.66871e-17
9.66075e-17
9.65905e-17
9.65904e-17
9.65928e-17
9.65899e-17
9.65789e-17
9.6596e-17
9.68567e-17
9.83419e-17
1.05585e-16
1.12803e-16
1.0042e-16
9.73972e-17
9.67357e-17
9.65972e-17
9.65611e-17
9.65446e-17
9.65327e-17
9.65231e-17
9.65202e-17
9.65619e-17
9.68588e-17
9.84025e-17
1.05677e-16
1.20973e-16
1.02359e-16
9.78195e-17
9.68315e-17
9.66313e-17
9.6584e-17
9.65638e-17
9.65491e-17
9.65372e-17
9.65336e-17
9.65769e-17
9.68799e-17
9.84485e-17
1.05776e-16
1.29062e-16
1.04089e-16
9.81608e-17
9.69096e-17
9.66667e-17
9.66134e-17
9.6592e-17
9.65766e-17
9.65638e-17
9.65594e-17
9.66022e-17
9.69074e-17
9.84999e-17
1.05928e-16
1.3661e-16
1.0542e-16
9.83693e-17
9.69587e-17
9.66997e-17
9.66457e-17
9.6624e-17
9.66081e-17
9.65944e-17
9.6589e-17
9.66293e-17
9.69259e-17
9.84917e-17
1.0583e-16
1.44373e-16
1.06563e-16
9.85064e-17
9.69949e-17
9.67351e-17
9.66839e-17
9.66628e-17
9.66465e-17
9.66319e-17
9.66247e-17
9.66596e-17
9.69303e-17
9.83785e-17
1.05248e-16
1.52566e-16
1.07621e-16
9.86154e-17
9.70373e-17
9.67886e-17
9.67457e-17
9.67279e-17
9.67115e-17
9.66948e-17
9.66833e-17
9.67067e-17
9.69261e-17
9.81287e-17
1.04032e-16
1.60735e-16
1.08564e-16
9.87307e-17
9.71379e-17
9.69355e-17
9.69283e-17
9.69295e-17
9.69166e-17
9.68928e-17
9.68671e-17
9.68666e-17
9.70148e-17
9.79179e-17
1.02877e-16
1.69029e-16
1.09547e-16
9.90014e-17
9.75296e-17
9.75357e-17
9.77037e-17
9.78092e-17
9.78268e-17
9.77815e-17
9.77046e-17
9.76382e-17
9.77078e-17
9.84852e-17
1.03957e-16
1.78671e-16
1.11329e-16
1.00034e-16
9.91813e-17
1.00113e-16
1.01104e-16
1.01737e-16
1.01972e-16
1.01909e-16
1.01687e-16
1.01445e-16
1.01522e-16
1.03213e-16
1.14774e-16
2.01092e-16
1.18392e-16
1.04446e-16
1.05788e-16
1.10469e-16
1.1503e-16
1.18147e-16
1.19705e-16
1.2006e-16
1.19785e-16
1.19428e-16
1.20325e-16
1.26614e-16
1.58167e-16
2.78176e-16
1.49034e-16
1.23185e-16
1.3071e-16
1.48787e-16
1.67274e-16
1.80942e-16
1.89255e-16
1.93211e-16
1.94908e-16
1.96283e-16
2.01368e-16
2.20152e-16
2.97878e-16
5.32482e-16
2.63043e-16
1.9708e-16
2.18838e-16
2.77706e-16
3.42788e-16
3.94092e-16
4.28829e-16
4.49679e-16
4.63209e-16
4.75356e-16
4.96194e-16
5.42893e-16
7.09657e-16
9.77664e-17
9.70257e-17
9.68443e-17
9.67868e-17
9.67655e-17
9.67586e-17
9.67609e-17
9.6761e-17
9.67516e-17
9.67237e-17
9.66847e-17
9.66692e-17
9.67853e-17
9.74241e-17
9.83401e-17
9.71412e-17
9.68387e-17
9.67557e-17
9.67233e-17
9.6703e-17
9.66872e-17
9.66729e-17
9.66599e-17
9.66453e-17
9.6634e-17
9.66456e-17
9.67803e-17
9.7441e-17
9.9491e-17
9.74361e-17
9.69166e-17
9.67854e-17
9.67426e-17
9.67184e-17
9.66991e-17
9.66814e-17
9.66659e-17
9.66512e-17
9.66422e-17
9.66585e-17
9.6804e-17
9.75075e-17
1.00852e-16
9.77796e-17
9.70087e-17
9.68228e-17
9.6769e-17
9.67421e-17
9.67212e-17
9.6702e-17
9.66847e-17
9.66683e-17
9.66579e-17
9.66739e-17
9.68238e-17
9.75614e-17
1.0216e-16
9.80815e-17
9.70858e-17
9.68568e-17
9.67959e-17
9.67677e-17
9.67461e-17
9.6726e-17
9.67074e-17
9.66897e-17
9.66775e-17
9.66923e-17
9.68451e-17
9.76128e-17
1.03315e-16
9.83082e-17
9.714e-17
9.68867e-17
9.68232e-17
9.67947e-17
9.67724e-17
9.67514e-17
9.67315e-17
9.67126e-17
9.6699e-17
9.67117e-17
9.68617e-17
9.76333e-17
1.04426e-16
9.84939e-17
9.71812e-17
9.69144e-17
9.68512e-17
9.68233e-17
9.68007e-17
9.67793e-17
9.67585e-17
9.67384e-17
9.6723e-17
9.67319e-17
9.68691e-17
9.75951e-17
1.05515e-16
9.86549e-17
9.72169e-17
9.69432e-17
9.68824e-17
9.68559e-17
9.68336e-17
9.68118e-17
9.679e-17
9.67686e-17
9.67508e-17
9.67532e-17
9.68631e-17
9.74717e-17
1.06504e-16
9.87858e-17
9.72524e-17
9.698e-17
9.69266e-17
9.69055e-17
9.68859e-17
9.68646e-17
9.68413e-17
9.68173e-17
9.67953e-17
9.67884e-17
9.68612e-17
9.73086e-17
1.07384e-16
9.89014e-17
9.73071e-17
9.70566e-17
9.70333e-17
9.70366e-17
9.70312e-17
9.7013e-17
9.69853e-17
9.69524e-17
9.69192e-17
9.68984e-17
9.69353e-17
9.72501e-17
1.08225e-16
9.90701e-17
9.74587e-17
9.73055e-17
9.74112e-17
9.75262e-17
9.75893e-17
9.75937e-17
9.75546e-17
9.74907e-17
9.74191e-17
9.73669e-17
9.73946e-17
9.78314e-17
1.10213e-16
9.97086e-17
9.80162e-17
9.82225e-17
9.88505e-17
9.94403e-17
9.98087e-17
9.99389e-17
9.98873e-17
9.9731e-17
9.95352e-17
9.94004e-17
9.95264e-17
1.01048e-16
1.18217e-16
1.02467e-16
1.00078e-16
1.01468e-16
1.04009e-16
1.06444e-16
1.08088e-16
1.08879e-16
1.08987e-16
1.08695e-16
1.0825e-16
1.08021e-16
1.08707e-16
1.14211e-16
1.48921e-16
1.14008e-16
1.07775e-16
1.12365e-16
1.21097e-16
1.30031e-16
1.3655e-16
1.40377e-16
1.41983e-16
1.42281e-16
1.42099e-16
1.42628e-16
1.45432e-16
1.6039e-16
9.71385e-17
9.70051e-17
9.69591e-17
9.69303e-17
9.69074e-17
9.68872e-17
9.68702e-17
9.68537e-17
9.68381e-17
9.68199e-17
9.68021e-17
9.67852e-17
9.67832e-17
9.68277e-17
9.72491e-17
9.70447e-17
9.69787e-17
9.69448e-17
9.69191e-17
9.68957e-17
9.68741e-17
9.68535e-17
9.68354e-17
9.68171e-17
9.68017e-17
9.67867e-17
9.67859e-17
9.6836e-17
9.74417e-17
9.7105e-17
9.70052e-17
9.6964e-17
9.69367e-17
9.69128e-17
9.68906e-17
9.68688e-17
9.68492e-17
9.68295e-17
9.68127e-17
9.67967e-17
9.67958e-17
9.68507e-17
9.76629e-17
9.71715e-17
9.70332e-17
9.6984e-17
9.69552e-17
9.69307e-17
9.69076e-17
9.68848e-17
9.68636e-17
9.68421e-17
9.6823e-17
9.6805e-17
9.68026e-17
9.68602e-17
9.78698e-17
9.72288e-17
9.7057e-17
9.70021e-17
9.69728e-17
9.69483e-17
9.6925e-17
9.69015e-17
9.68789e-17
9.68559e-17
9.68345e-17
9.68144e-17
9.68097e-17
9.68689e-17
9.80465e-17
9.7273e-17
9.70769e-17
9.70193e-17
9.699e-17
9.69657e-17
9.69418e-17
9.69176e-17
9.68938e-17
9.68694e-17
9.68461e-17
9.68241e-17
9.68167e-17
9.68752e-17
9.82085e-17
9.73093e-17
9.70938e-17
9.70354e-17
9.70066e-17
9.69827e-17
9.69588e-17
9.69342e-17
9.69094e-17
9.68838e-17
9.68587e-17
9.68348e-17
9.6824e-17
9.68772e-17
9.83583e-17
9.73401e-17
9.71091e-17
9.70509e-17
9.7023e-17
9.69996e-17
9.69757e-17
9.69509e-17
9.69254e-17
9.68988e-17
9.6872e-17
9.68464e-17
9.68313e-17
9.68714e-17
9.84846e-17
9.73657e-17
9.71242e-17
9.70671e-17
9.70406e-17
9.70182e-17
9.69949e-17
9.69704e-17
9.69442e-17
9.6917e-17
9.68886e-17
9.68614e-17
9.68411e-17
9.68623e-17
9.85815e-17
9.73861e-17
9.71405e-17
9.70873e-17
9.70653e-17
9.70468e-17
9.70256e-17
9.70016e-17
9.69746e-17
9.69461e-17
9.69159e-17
9.68868e-17
9.68617e-17
9.68636e-17
9.865e-17
9.74099e-17
9.7169e-17
9.71298e-17
9.7125e-17
9.71207e-17
9.71082e-17
9.70869e-17
9.70583e-17
9.70256e-17
9.69898e-17
9.69551e-17
9.69248e-17
9.69203e-17
9.87957e-17
9.74787e-17
9.72452e-17
9.72564e-17
9.73205e-17
9.73776e-17
9.74033e-17
9.7395e-17
9.73605e-17
9.7311e-17
9.72543e-17
9.72007e-17
9.71606e-17
9.7192e-17
9.94474e-17
9.77458e-17
9.74985e-17
9.76822e-17
9.79989e-17
9.829e-17
9.84663e-17
9.85211e-17
9.84799e-17
9.83801e-17
9.82526e-17
9.81316e-17
9.80517e-17
9.8229e-17
1.02071e-16
9.87118e-17
9.83224e-17
9.90386e-17
1.0019e-16
1.01301e-16
1.02037e-16
1.02373e-16
1.02382e-16
1.02185e-16
1.01885e-16
1.01602e-16
1.01414e-16
1.02009e-16
9.72286e-17
9.71913e-17
9.71686e-17
9.71462e-17
9.71232e-17
9.71002e-17
9.70785e-17
9.70574e-17
9.70383e-17
9.70192e-17
9.70032e-17
9.69858e-17
9.69734e-17
9.6961e-17
9.72499e-17
9.72041e-17
9.71791e-17
9.71566e-17
9.71337e-17
9.71106e-17
9.70878e-17
9.70653e-17
9.70448e-17
9.70245e-17
9.70075e-17
9.69889e-17
9.69746e-17
9.69637e-17
9.72817e-17
9.72179e-17
9.71876e-17
9.71643e-17
9.71423e-17
9.71201e-17
9.7098e-17
9.70756e-17
9.70545e-17
9.70331e-17
9.70143e-17
9.6994e-17
9.69783e-17
9.69669e-17
9.73153e-17
9.72308e-17
9.71958e-17
9.71721e-17
9.71504e-17
9.71286e-17
9.71065e-17
9.70838e-17
9.70617e-17
9.70389e-17
9.70179e-17
9.69955e-17
9.69776e-17
9.69649e-17
9.73442e-17
9.72404e-17
9.72015e-17
9.71779e-17
9.7157e-17
9.71357e-17
9.71138e-17
9.70908e-17
9.70678e-17
9.70436e-17
9.70203e-17
9.69959e-17
9.69755e-17
9.69608e-17
9.73679e-17
9.72473e-17
9.72057e-17
9.71827e-17
9.71621e-17
9.7141e-17
9.71189e-17
9.70954e-17
9.70713e-17
9.7046e-17
9.70211e-17
9.69953e-17
9.69721e-17
9.69557e-17
9.73889e-17
9.72525e-17
9.72086e-17
9.7186e-17
9.71656e-17
9.71447e-17
9.71224e-17
9.70986e-17
9.70738e-17
9.70476e-17
9.70212e-17
9.6994e-17
9.69682e-17
9.69502e-17
9.74065e-17
9.72556e-17
9.72099e-17
9.71877e-17
9.71674e-17
9.71466e-17
9.71242e-17
9.71001e-17
9.70748e-17
9.70479e-17
9.70201e-17
9.69918e-17
9.69639e-17
9.69437e-17
9.74203e-17
9.72576e-17
9.72111e-17
9.71893e-17
9.71691e-17
9.71482e-17
9.71255e-17
9.71011e-17
9.70751e-17
9.70476e-17
9.70187e-17
9.69898e-17
9.69603e-17
9.69374e-17
9.7428e-17
9.72566e-17
9.72102e-17
9.71889e-17
9.71693e-17
9.71489e-17
9.71266e-17
9.71023e-17
9.70759e-17
9.70482e-17
9.70187e-17
9.69897e-17
9.69588e-17
9.69331e-17
9.74305e-17
9.72554e-17
9.72106e-17
9.7191e-17
9.71736e-17
9.71549e-17
9.71332e-17
9.71088e-17
9.70818e-17
9.70536e-17
9.70235e-17
9.69937e-17
9.69619e-17
9.69348e-17
9.74359e-17
9.72565e-17
9.72144e-17
9.72011e-17
9.71925e-17
9.71813e-17
9.71645e-17
9.71418e-17
9.71141e-17
9.70839e-17
9.70514e-17
9.70187e-17
9.69844e-17
9.69572e-17
9.74896e-17
9.7278e-17
9.72392e-17
9.72481e-17
9.72711e-17
9.72881e-17
9.72887e-17
9.72719e-17
9.72415e-17
9.72032e-17
9.71603e-17
9.71166e-17
9.70725e-17
9.7048e-17
9.77183e-17
9.73661e-17
9.73283e-17
9.74087e-17
9.75368e-17
9.76536e-17
9.7719e-17
9.773e-17
9.76974e-17
9.76375e-17
9.75627e-17
9.74852e-17
9.74096e-17
9.73821e-17
9.73937e-17
9.73752e-17
9.73592e-17
9.73412e-17
9.73216e-17
9.73009e-17
9.72801e-17
9.72593e-17
9.72395e-17
9.722e-17
9.72029e-17
9.71848e-17
9.71707e-17
9.71533e-17
9.73932e-17
9.73748e-17
9.73592e-17
9.73417e-17
9.73225e-17
9.73025e-17
9.72821e-17
9.72613e-17
9.72412e-17
9.72213e-17
9.72039e-17
9.71856e-17
9.71713e-17
9.71555e-17
9.73925e-17
9.73727e-17
9.73559e-17
9.73387e-17
9.73207e-17
9.73021e-17
9.7283e-17
9.72633e-17
9.72437e-17
9.72238e-17
9.72059e-17
9.7187e-17
9.71722e-17
9.71564e-17
9.73909e-17
9.73694e-17
9.73524e-17
9.73358e-17
9.73184e-17
9.73004e-17
9.72819e-17
9.72626e-17
9.72431e-17
9.7223e-17
9.72042e-17
9.71845e-17
9.71686e-17
9.71524e-17
9.73868e-17
9.73642e-17
9.73472e-17
9.73314e-17
9.73147e-17
9.72972e-17
9.7279e-17
9.72599e-17
9.72403e-17
9.72198e-17
9.72001e-17
9.71794e-17
9.71619e-17
9.71444e-17
9.73813e-17
9.73576e-17
9.73408e-17
9.73258e-17
9.73092e-17
9.72919e-17
9.72734e-17
9.72539e-17
9.72339e-17
9.7213e-17
9.71925e-17
9.71712e-17
9.71521e-17
9.71339e-17
9.73756e-17
9.73506e-17
9.73336e-17
9.7319e-17
9.73024e-17
9.72848e-17
9.7266e-17
9.72459e-17
9.72252e-17
9.72035e-17
9.71821e-17
9.71601e-17
9.71395e-17
9.71208e-17
9.7368e-17
9.73415e-17
9.73243e-17
9.73099e-17
9.7293e-17
9.72751e-17
9.72558e-17
9.72351e-17
9.72136e-17
9.71909e-17
9.71684e-17
9.71458e-17
9.71238e-17
9.71045e-17
9.73603e-17
9.73319e-17
9.73148e-17
9.73002e-17
9.72829e-17
9.72644e-17
9.72443e-17
9.72227e-17
9.72001e-17
9.71764e-17
9.71525e-17
9.71295e-17
9.7106e-17
9.70866e-17
9.73509e-17
9.73204e-17
9.73033e-17
9.72881e-17
9.72704e-17
9.72514e-17
9.72305e-17
9.72083e-17
9.71848e-17
9.71604e-17
9.71355e-17
9.7112e-17
9.70872e-17
9.70671e-17
9.73408e-17
9.73086e-17
9.72918e-17
9.7276e-17
9.72582e-17
9.72384e-17
9.72166e-17
9.71934e-17
9.71686e-17
9.71434e-17
9.71176e-17
9.70937e-17
9.70681e-17
9.70479e-17
9.73286e-17
9.72951e-17
9.72787e-17
9.7263e-17
9.72456e-17
9.7226e-17
9.7204e-17
9.71803e-17
9.71549e-17
9.71293e-17
9.7103e-17
9.70778e-17
9.70505e-17
9.70287e-17
9.73202e-17
9.72826e-17
9.72678e-17
9.7254e-17
9.72401e-17
9.72228e-17
9.72018e-17
9.71776e-17
9.71507e-17
9.71232e-17
9.70947e-17
9.70666e-17
9.70362e-17
9.70119e-17
9.73264e-17
9.72754e-17
9.72622e-17
9.72567e-17
9.72551e-17
9.72491e-17
9.72352e-17
9.72134e-17
9.71855e-17
9.71547e-17
9.71212e-17
9.7087e-17
9.70518e-17
9.70207e-17
9.75257e-17
9.75117e-17
9.74976e-17
9.74816e-17
9.74641e-17
9.74452e-17
9.74261e-17
9.74063e-17
9.73865e-17
9.73668e-17
9.73484e-17
9.73291e-17
9.73124e-17
9.72921e-17
9.75141e-17
9.75011e-17
9.74875e-17
9.74717e-17
9.74544e-17
9.74362e-17
9.74177e-17
9.73986e-17
9.73796e-17
9.73608e-17
9.73432e-17
9.73251e-17
9.73098e-17
9.72929e-17
9.7501e-17
9.74889e-17
9.74744e-17
9.74592e-17
9.74427e-17
9.74258e-17
9.74085e-17
9.73906e-17
9.73726e-17
9.73548e-17
9.73381e-17
9.73211e-17
9.7307e-17
9.72915e-17
9.74869e-17
9.74754e-17
9.74613e-17
9.74468e-17
9.74309e-17
9.74147e-17
9.7398e-17
9.73808e-17
9.73634e-17
9.73461e-17
9.73297e-17
9.73134e-17
9.73003e-17
9.72865e-17
9.74713e-17
9.74607e-17
9.74471e-17
9.74337e-17
9.74185e-17
9.74029e-17
9.73867e-17
9.73698e-17
9.73528e-17
9.73358e-17
9.73198e-17
9.73038e-17
9.72909e-17
9.72775e-17
9.7455e-17
9.74451e-17
9.74322e-17
9.74195e-17
9.74047e-17
9.73895e-17
9.73734e-17
9.73565e-17
9.73396e-17
9.73228e-17
9.7307e-17
9.72915e-17
9.72788e-17
9.72661e-17
9.74392e-17
9.74295e-17
9.74168e-17
9.74046e-17
9.739e-17
9.73748e-17
9.73586e-17
9.73416e-17
9.73246e-17
9.73076e-17
9.72918e-17
9.72766e-17
9.72636e-17
9.72516e-17
9.74217e-17
9.74119e-17
9.73993e-17
9.73873e-17
9.73727e-17
9.73574e-17
9.73409e-17
9.73237e-17
9.73064e-17
9.72891e-17
9.7273e-17
9.72578e-17
9.72444e-17
9.72329e-17
9.74049e-17
9.73941e-17
9.73819e-17
9.73696e-17
9.73547e-17
9.73388e-17
9.73217e-17
9.73039e-17
9.72859e-17
9.72681e-17
9.72514e-17
9.72362e-17
9.72222e-17
9.72112e-17
9.73876e-17
9.73752e-17
9.7363e-17
9.73499e-17
9.73344e-17
9.73178e-17
9.72999e-17
9.72814e-17
9.72628e-17
9.72445e-17
9.72272e-17
9.72119e-17
9.71969e-17
9.71867e-17
9.7371e-17
9.73566e-17
9.73443e-17
9.73301e-17
9.73139e-17
9.72961e-17
9.72771e-17
9.72575e-17
9.72378e-17
9.72189e-17
9.72009e-17
9.71854e-17
9.71693e-17
9.71601e-17
9.73524e-17
9.73368e-17
9.73243e-17
9.7309e-17
9.72919e-17
9.7273e-17
9.72528e-17
9.72323e-17
9.72117e-17
9.71923e-17
9.71734e-17
9.71568e-17
9.71389e-17
9.71287e-17
9.73333e-17
9.73166e-17
9.73047e-17
9.72885e-17
9.72709e-17
9.72507e-17
9.72293e-17
9.72073e-17
9.71848e-17
9.71638e-17
9.7143e-17
9.71242e-17
9.71039e-17
9.7091e-17
9.73131e-17
9.72954e-17
9.72838e-17
9.72677e-17
9.72507e-17
9.72307e-17
9.72091e-17
9.71865e-17
9.71628e-17
9.71399e-17
9.71167e-17
9.70942e-17
9.70711e-17
9.7052e-17
9.76133e-17
9.76012e-17
9.75881e-17
9.75727e-17
9.7556e-17
9.75376e-17
9.75187e-17
9.74989e-17
9.74786e-17
9.74584e-17
9.74386e-17
9.7418e-17
9.73991e-17
9.73758e-17
9.75923e-17
9.75818e-17
9.75685e-17
9.75535e-17
9.75367e-17
9.7519e-17
9.75008e-17
9.74818e-17
9.74626e-17
9.74435e-17
9.74252e-17
9.74063e-17
9.73892e-17
9.73706e-17
9.757e-17
9.75604e-17
9.75462e-17
9.75317e-17
9.75156e-17
9.74992e-17
9.74822e-17
9.74645e-17
9.74465e-17
9.74288e-17
9.74117e-17
9.73947e-17
9.73798e-17
9.7364e-17
9.75468e-17
9.75374e-17
9.75237e-17
9.751e-17
9.74945e-17
9.74789e-17
9.74626e-17
9.74457e-17
9.74287e-17
9.74121e-17
9.7396e-17
9.73804e-17
9.73672e-17
9.73537e-17
9.75227e-17
9.75139e-17
9.75007e-17
9.7488e-17
9.74731e-17
9.74582e-17
9.74426e-17
9.74264e-17
9.74104e-17
9.73946e-17
9.73796e-17
9.7365e-17
9.73528e-17
9.73404e-17
9.74984e-17
9.749e-17
9.74775e-17
9.74655e-17
9.74511e-17
9.74366e-17
9.74213e-17
9.74056e-17
9.73902e-17
9.73752e-17
9.73612e-17
9.73478e-17
9.73366e-17
9.73258e-17
9.74754e-17
9.74671e-17
9.74549e-17
9.74433e-17
9.74292e-17
9.74148e-17
9.73997e-17
9.73843e-17
9.73693e-17
9.73549e-17
9.73416e-17
9.73292e-17
9.7319e-17
9.73098e-17
9.74515e-17
9.74431e-17
9.74313e-17
9.74198e-17
9.74059e-17
9.73915e-17
9.73765e-17
9.73613e-17
9.73465e-17
9.73323e-17
9.73195e-17
9.73079e-17
9.72984e-17
9.72905e-17
9.74289e-17
9.74195e-17
9.7408e-17
9.73962e-17
9.7382e-17
9.73674e-17
9.73522e-17
9.73369e-17
9.73221e-17
9.7308e-17
9.72954e-17
9.72844e-17
9.72755e-17
9.72689e-17
9.74062e-17
9.7395e-17
9.73833e-17
9.73706e-17
9.7356e-17
9.7341e-17
9.73255e-17
9.73101e-17
9.72953e-17
9.72813e-17
9.72688e-17
9.72583e-17
9.72495e-17
9.72444e-17
9.73845e-17
9.73713e-17
9.73591e-17
9.73454e-17
9.73301e-17
9.73143e-17
9.7298e-17
9.7282e-17
9.72667e-17
9.72525e-17
9.72399e-17
9.72303e-17
9.72212e-17
9.72181e-17
9.73614e-17
9.73466e-17
9.73339e-17
9.73191e-17
9.73028e-17
9.72859e-17
9.72689e-17
9.72523e-17
9.72363e-17
9.72217e-17
9.72084e-17
9.71989e-17
9.71888e-17
9.71872e-17
9.73379e-17
9.73224e-17
9.73098e-17
9.72934e-17
9.72762e-17
9.7258e-17
9.72396e-17
9.72216e-17
9.7204e-17
9.71881e-17
9.71735e-17
9.71629e-17
9.71513e-17
9.71483e-17
9.73128e-17
9.7297e-17
9.7284e-17
9.72666e-17
9.72483e-17
9.72291e-17
9.72098e-17
9.71908e-17
9.71719e-17
9.71546e-17
9.71385e-17
9.71253e-17
9.71123e-17
9.71042e-17
9.7658e-17
9.76478e-17
9.76353e-17
9.76206e-17
9.76045e-17
9.75867e-17
9.75682e-17
9.75486e-17
9.75283e-17
9.75078e-17
9.74874e-17
9.74658e-17
9.74447e-17
9.74192e-17
9.76297e-17
9.76215e-17
9.76085e-17
9.75939e-17
9.75776e-17
9.75602e-17
9.75421e-17
9.75232e-17
9.75037e-17
9.74844e-17
9.74653e-17
9.74457e-17
9.7427e-17
9.74068e-17
9.76007e-17
9.75925e-17
9.75784e-17
9.75644e-17
9.75484e-17
9.75325e-17
9.75157e-17
9.74981e-17
9.74802e-17
9.74623e-17
9.74446e-17
9.74269e-17
9.74105e-17
9.73937e-17
9.75703e-17
9.75618e-17
9.75481e-17
9.75349e-17
9.75194e-17
9.75042e-17
9.74881e-17
9.74716e-17
9.74548e-17
9.74383e-17
9.74219e-17
9.7406e-17
9.73916e-17
9.73773e-17
9.75395e-17
9.75308e-17
9.75175e-17
9.75049e-17
9.749e-17
9.74755e-17
9.74603e-17
9.74447e-17
9.74292e-17
9.74139e-17
9.73989e-17
9.73844e-17
9.73713e-17
9.73584e-17
9.75086e-17
9.74998e-17
9.74869e-17
9.74747e-17
9.74603e-17
9.74462e-17
9.74315e-17
9.74166e-17
9.7402e-17
9.73878e-17
9.73742e-17
9.73612e-17
9.73495e-17
9.73383e-17
9.74794e-17
9.74702e-17
9.74575e-17
9.74452e-17
9.74311e-17
9.74171e-17
9.74029e-17
9.73886e-17
9.73747e-17
9.73614e-17
9.73492e-17
9.73375e-17
9.73273e-17
9.7318e-17
9.745e-17
9.74404e-17
9.74279e-17
9.74156e-17
9.74016e-17
9.73877e-17
9.73736e-17
9.73597e-17
9.73465e-17
9.73339e-17
9.73226e-17
9.73121e-17
9.73032e-17
9.72957e-17
9.74227e-17
9.74119e-17
9.73997e-17
9.73869e-17
9.73727e-17
9.73585e-17
9.73445e-17
9.73308e-17
9.73178e-17
9.73057e-17
9.72952e-17
9.72858e-17
9.72781e-17
9.72724e-17
9.73955e-17
9.73832e-17
9.73707e-17
9.73572e-17
9.73428e-17
9.73284e-17
9.73143e-17
9.73006e-17
9.72879e-17
9.72762e-17
9.72661e-17
9.72576e-17
9.72507e-17
9.72472e-17
9.73696e-17
9.73558e-17
9.73428e-17
9.73286e-17
9.73137e-17
9.72986e-17
9.72839e-17
9.72698e-17
9.72568e-17
9.72452e-17
9.72355e-17
9.72282e-17
9.7222e-17
9.72211e-17
9.73425e-17
9.73275e-17
9.73139e-17
9.72987e-17
9.72831e-17
9.72674e-17
9.72521e-17
9.72375e-17
9.72242e-17
9.72126e-17
9.72029e-17
9.71964e-17
9.71901e-17
9.71915e-17
9.73159e-17
9.73001e-17
9.72861e-17
9.72699e-17
9.72534e-17
9.72365e-17
9.72199e-17
9.72041e-17
9.71898e-17
9.71778e-17
9.7168e-17
9.71615e-17
9.71546e-17
9.71575e-17
9.72865e-17
9.72705e-17
9.7256e-17
9.72388e-17
9.72213e-17
9.72036e-17
9.71864e-17
9.71701e-17
9.71552e-17
9.71427e-17
9.71323e-17
9.71243e-17
9.71174e-17
9.71181e-17
9.76566e-17
9.76485e-17
9.76372e-17
9.76241e-17
9.76094e-17
9.75933e-17
9.75764e-17
9.75582e-17
9.75388e-17
9.75189e-17
9.74985e-17
9.74764e-17
9.74543e-17
9.74268e-17
9.76233e-17
9.76172e-17
9.76046e-17
9.75915e-17
9.75762e-17
9.75602e-17
9.75432e-17
9.75252e-17
9.75064e-17
9.74873e-17
9.74679e-17
9.74475e-17
9.74272e-17
9.74052e-17
9.75895e-17
9.75827e-17
9.75689e-17
9.75559e-17
9.75408e-17
9.75258e-17
9.75098e-17
9.74929e-17
9.74754e-17
9.74576e-17
9.74395e-17
9.74207e-17
9.74022e-17
9.73833e-17
9.75544e-17
9.75467e-17
9.75332e-17
9.75206e-17
9.75057e-17
9.74912e-17
9.74756e-17
9.74595e-17
9.74429e-17
9.74262e-17
9.74092e-17
9.73922e-17
9.73756e-17
9.73592e-17
9.75192e-17
9.75108e-17
9.74974e-17
9.74851e-17
9.74706e-17
9.74566e-17
9.74417e-17
9.74265e-17
9.7411e-17
9.73957e-17
9.73801e-17
9.73647e-17
9.73497e-17
9.73349e-17
9.74842e-17
9.74749e-17
9.74618e-17
9.74496e-17
9.74355e-17
9.74217e-17
9.74074e-17
9.73929e-17
9.73784e-17
9.73641e-17
9.73501e-17
9.73364e-17
9.73231e-17
9.73101e-17
9.74505e-17
9.74403e-17
9.74273e-17
9.74147e-17
9.74009e-17
9.73872e-17
9.73734e-17
9.73596e-17
9.73462e-17
9.73331e-17
9.73207e-17
9.73086e-17
9.72971e-17
9.72862e-17
9.74165e-17
9.74051e-17
9.73923e-17
9.73795e-17
9.73658e-17
9.73523e-17
9.73389e-17
9.73258e-17
9.73132e-17
9.73012e-17
9.72901e-17
9.72795e-17
9.72697e-17
9.72609e-17
9.73841e-17
9.73716e-17
9.73587e-17
9.73453e-17
9.73316e-17
9.7318e-17
9.73049e-17
9.72922e-17
9.72804e-17
9.72693e-17
9.72594e-17
9.72504e-17
9.72422e-17
9.72357e-17
9.73514e-17
9.73375e-17
9.73244e-17
9.73104e-17
9.72967e-17
9.72832e-17
9.72704e-17
9.72583e-17
9.72472e-17
9.72369e-17
9.7228e-17
9.72204e-17
9.72136e-17
9.72096e-17
9.73207e-17
9.73053e-17
9.72917e-17
9.7277e-17
9.7263e-17
9.72491e-17
9.72363e-17
9.72243e-17
9.72137e-17
9.72042e-17
9.71963e-17
9.71903e-17
9.7185e-17
9.7184e-17
9.72884e-17
9.72718e-17
9.72579e-17
9.72424e-17
9.7228e-17
9.72141e-17
9.72013e-17
9.71896e-17
9.71794e-17
9.71707e-17
9.71638e-17
9.7159e-17
9.71544e-17
9.71557e-17
9.72571e-17
9.72398e-17
9.72258e-17
9.72096e-17
9.71942e-17
9.71796e-17
9.71663e-17
9.71544e-17
9.71442e-17
9.7136e-17
9.71299e-17
9.71259e-17
9.71216e-17
9.71244e-17
9.72211e-17
9.72044e-17
9.71899e-17
9.71736e-17
9.71579e-17
9.71435e-17
9.71304e-17
9.71189e-17
9.71091e-17
9.71013e-17
9.70953e-17
9.70905e-17
9.70861e-17
9.70892e-17
9.76004e-17
9.75961e-17
9.75867e-17
9.75766e-17
9.75645e-17
9.75514e-17
9.75372e-17
9.75216e-17
9.75048e-17
9.74872e-17
9.74687e-17
9.74483e-17
9.74274e-17
9.74006e-17
9.75644e-17
9.7561e-17
9.75504e-17
9.75395e-17
9.75267e-17
9.75134e-17
9.74989e-17
9.74833e-17
9.74666e-17
9.74493e-17
9.74314e-17
9.74118e-17
9.73915e-17
9.73685e-17
9.75276e-17
9.75231e-17
9.75111e-17
9.75e-17
9.74869e-17
9.74741e-17
9.746e-17
9.74452e-17
9.74295e-17
9.74132e-17
9.73962e-17
9.73778e-17
9.73592e-17
9.73394e-17
9.74895e-17
9.74836e-17
9.74714e-17
9.74603e-17
9.74472e-17
9.74343e-17
9.74204e-17
9.74058e-17
9.73906e-17
9.73749e-17
9.73585e-17
9.73412e-17
9.73239e-17
9.73058e-17
9.74517e-17
9.74441e-17
9.74317e-17
9.74203e-17
9.74072e-17
9.73944e-17
9.73807e-17
9.73667e-17
9.73523e-17
9.73376e-17
9.73223e-17
9.73064e-17
9.72902e-17
9.72733e-17
9.74138e-17
9.74045e-17
9.7392e-17
9.73802e-17
9.73672e-17
9.73543e-17
9.73409e-17
9.73273e-17
9.73135e-17
9.72997e-17
9.72855e-17
9.72711e-17
9.7256e-17
9.72407e-17
9.73769e-17
9.7366e-17
9.73532e-17
9.73407e-17
9.73276e-17
9.73146e-17
9.73015e-17
9.72884e-17
9.72755e-17
9.72627e-17
9.72499e-17
9.72371e-17
9.72237e-17
9.72104e-17
9.73393e-17
9.73269e-17
9.73141e-17
9.73011e-17
9.7288e-17
9.7275e-17
9.72623e-17
9.72498e-17
9.72376e-17
9.72258e-17
9.72142e-17
9.72029e-17
9.71912e-17
9.718e-17
9.73025e-17
9.72891e-17
9.7276e-17
9.72624e-17
9.72492e-17
9.72362e-17
9.72239e-17
9.7212e-17
9.72008e-17
9.71899e-17
9.71797e-17
9.71701e-17
9.716e-17
9.71514e-17
9.72653e-17
9.72503e-17
9.72371e-17
9.7223e-17
9.72101e-17
9.71974e-17
9.71858e-17
9.71746e-17
9.71644e-17
9.71546e-17
9.71457e-17
9.71379e-17
9.71295e-17
9.71236e-17
9.72297e-17
9.72132e-17
9.71999e-17
9.71852e-17
9.71723e-17
9.71597e-17
9.71485e-17
9.7138e-17
9.71287e-17
9.71203e-17
9.71129e-17
9.7107e-17
9.71005e-17
9.70975e-17
9.71923e-17
9.71745e-17
9.71611e-17
9.71463e-17
9.71335e-17
9.71217e-17
9.71111e-17
9.71016e-17
9.70935e-17
9.70864e-17
9.70807e-17
9.70765e-17
9.70715e-17
9.70707e-17
9.71557e-17
9.71377e-17
9.71243e-17
9.71093e-17
9.70962e-17
9.70845e-17
9.70743e-17
9.70656e-17
9.70583e-17
9.70526e-17
9.70485e-17
9.70457e-17
9.70421e-17
9.70424e-17
9.71127e-17
9.70967e-17
9.70832e-17
9.70693e-17
9.70569e-17
9.70464e-17
9.70374e-17
9.703e-17
9.70241e-17
9.70197e-17
9.70168e-17
9.70141e-17
9.70112e-17
9.70126e-17
9.7483e-17
9.74805e-17
9.74735e-17
9.7466e-17
9.74571e-17
9.74476e-17
9.74373e-17
9.74261e-17
9.74139e-17
9.74009e-17
9.73868e-17
9.73715e-17
9.73545e-17
9.73343e-17
9.7446e-17
9.74446e-17
9.74358e-17
9.74272e-17
9.74173e-17
9.74072e-17
9.73962e-17
9.73845e-17
9.73718e-17
9.73585e-17
9.73444e-17
9.73288e-17
9.7312e-17
9.72922e-17
9.74091e-17
9.74057e-17
9.73954e-17
9.73863e-17
9.73758e-17
9.73657e-17
9.73547e-17
9.73431e-17
9.73307e-17
9.73178e-17
9.73041e-17
9.72888e-17
9.72732e-17
9.72552e-17
9.73707e-17
9.73654e-17
9.73547e-17
9.73451e-17
9.73342e-17
9.73238e-17
9.73124e-17
9.73006e-17
9.72881e-17
9.72751e-17
9.72614e-17
9.72462e-17
9.72307e-17
9.72137e-17
9.73323e-17
9.73249e-17
9.73136e-17
9.73035e-17
9.72923e-17
9.72815e-17
9.72701e-17
9.72583e-17
9.7246e-17
9.72334e-17
9.722e-17
9.72054e-17
9.71903e-17
9.71736e-17
9.72935e-17
9.72841e-17
9.72725e-17
9.72617e-17
9.72503e-17
9.72391e-17
9.72276e-17
9.72158e-17
9.72038e-17
9.71915e-17
9.71784e-17
9.71646e-17
9.71498e-17
9.71339e-17
9.72551e-17
9.72439e-17
9.72317e-17
9.72201e-17
9.72084e-17
9.7197e-17
9.71855e-17
9.71739e-17
9.71623e-17
9.71506e-17
9.71383e-17
9.71257e-17
9.71117e-17
9.70973e-17
9.72154e-17
9.72028e-17
9.71904e-17
9.71782e-17
9.71665e-17
9.7155e-17
9.71438e-17
9.71326e-17
9.71215e-17
9.71103e-17
9.70987e-17
9.70872e-17
9.70742e-17
9.70615e-17
9.71762e-17
9.71622e-17
9.71497e-17
9.71369e-17
9.71251e-17
9.71137e-17
9.71029e-17
9.70922e-17
9.70818e-17
9.70715e-17
9.7061e-17
9.70509e-17
9.70391e-17
9.70287e-17
9.7136e-17
9.71204e-17
9.7108e-17
9.70951e-17
9.70837e-17
9.70726e-17
9.70625e-17
9.70526e-17
9.70432e-17
9.70339e-17
9.70246e-17
9.70161e-17
9.70056e-17
9.69975e-17
9.70969e-17
9.70799e-17
9.70677e-17
9.70545e-17
9.70434e-17
9.70328e-17
9.70233e-17
9.70143e-17
9.70061e-17
9.69982e-17
9.69906e-17
9.69841e-17
9.69753e-17
9.69697e-17
9.70558e-17
9.70377e-17
9.7026e-17
9.70133e-17
9.70028e-17
9.69932e-17
9.69847e-17
9.6977e-17
9.69702e-17
9.69639e-17
9.69582e-17
9.69534e-17
9.69465e-17
9.69427e-17
9.70152e-17
9.69976e-17
9.69859e-17
9.69739e-17
9.69637e-17
9.69548e-17
9.69474e-17
9.69409e-17
9.69356e-17
9.69311e-17
9.69274e-17
9.69242e-17
9.6919e-17
9.69166e-17
9.69675e-17
9.69537e-17
9.69425e-17
9.69323e-17
9.69234e-17
9.69164e-17
9.69107e-17
9.69062e-17
9.69029e-17
9.69002e-17
9.68983e-17
9.68958e-17
9.6892e-17
9.68898e-17
9.73173e-17
9.73148e-17
9.73084e-17
9.73029e-17
9.72966e-17
9.72905e-17
9.72842e-17
9.72778e-17
9.72709e-17
9.72636e-17
9.72555e-17
9.7247e-17
9.72366e-17
9.72269e-17
9.72806e-17
9.72792e-17
9.72712e-17
9.72646e-17
9.72572e-17
9.72504e-17
9.72433e-17
9.7236e-17
9.72282e-17
9.72201e-17
9.72115e-17
9.72019e-17
9.71914e-17
9.71797e-17
9.72445e-17
9.72411e-17
9.72317e-17
9.72247e-17
9.72167e-17
9.72096e-17
9.72021e-17
9.71945e-17
9.71864e-17
9.71781e-17
9.71694e-17
9.71595e-17
9.71489e-17
9.7137e-17
9.72068e-17
9.72016e-17
9.7192e-17
9.71844e-17
9.7176e-17
9.71684e-17
9.71605e-17
9.71524e-17
9.71439e-17
9.71351e-17
9.71258e-17
9.71151e-17
9.71043e-17
9.70915e-17
9.7169e-17
9.7162e-17
9.7152e-17
9.71437e-17
9.7135e-17
9.7127e-17
9.71188e-17
9.71104e-17
9.71017e-17
9.70928e-17
9.70831e-17
9.70723e-17
9.70612e-17
9.7048e-17
9.71306e-17
9.71218e-17
9.71116e-17
9.71027e-17
9.70938e-17
9.70855e-17
9.70771e-17
9.70686e-17
9.70597e-17
9.70506e-17
9.70407e-17
9.703e-17
9.70183e-17
9.7005e-17
9.70923e-17
9.70819e-17
9.70713e-17
9.70618e-17
9.70527e-17
9.70441e-17
9.70357e-17
9.70271e-17
9.70183e-17
9.70092e-17
9.69994e-17
9.69892e-17
9.69774e-17
9.69649e-17
9.70526e-17
9.70409e-17
9.70303e-17
9.70205e-17
9.70115e-17
9.70028e-17
9.69945e-17
9.69861e-17
9.69775e-17
9.69686e-17
9.69589e-17
9.69491e-17
9.69373e-17
9.69258e-17
9.70131e-17
9.69999e-17
9.69895e-17
9.69794e-17
9.69705e-17
9.69621e-17
9.6954e-17
9.6946e-17
9.69377e-17
9.69294e-17
9.69201e-17
9.69112e-17
9.68998e-17
9.68898e-17
9.69725e-17
9.6958e-17
9.69479e-17
9.6938e-17
9.69296e-17
9.69217e-17
9.69142e-17
9.69068e-17
9.68992e-17
9.68914e-17
9.68828e-17
9.68749e-17
9.68639e-17
9.68555e-17
9.69329e-17
9.69169e-17
9.69073e-17
9.68976e-17
9.68897e-17
9.68823e-17
9.68756e-17
9.68689e-17
9.68623e-17
9.68555e-17
9.68482e-17
9.68419e-17
9.68321e-17
9.68256e-17
9.68907e-17
9.68747e-17
9.6866e-17
9.68571e-17
9.685e-17
9.68436e-17
9.68379e-17
9.68324e-17
9.6827e-17
9.68214e-17
9.68156e-17
9.68106e-17
9.68021e-17
9.67967e-17
9.68495e-17
9.68347e-17
9.68265e-17
9.68182e-17
9.68118e-17
9.68062e-17
9.68017e-17
9.67975e-17
9.67935e-17
9.67895e-17
9.67857e-17
9.6782e-17
9.67752e-17
9.67706e-17
9.68029e-17
9.6792e-17
9.67849e-17