/*--------------------------------*- C++ -*----------------------------------*\
| =========                 |                                                 |
| \\      /  F ield         | OpenFOAM: The Open Source CFD Toolbox           |
|  \\    /   O peration     | Version:  v2106                                 |
|   \\  /    A nd           | Website:  www.openfoam.com                      |
|    \\/     M anipulation  |                                                 |
\*---------------------------------------------------------------------------*/
FoamFile
{
    version     2.0;
    format      ascii;
    arch        "LSB;label=32;scalar=64";
    class       volScalarField;
    location    "0.000218";
    object      k;
}
// * * * * * * * * * * * * * * * * * * * * * * * * * * * * * * * * * * * * * //

dimensions      [0 2 -2 0 0 0 0];

internalField   nonuniform List<scalar> 
17924
(
1.04336e-11
4.87792e-12
3.48183e-12
3.00622e-12
3.40638e-12
2.43512e-12
2.20376e-12
2.13308e-12
2.10931e-12
2.10631e-12
2.11398e-12
3.3694e-12
2.30333e-12
2.06272e-12
2.01307e-12
2.00369e-12
2.00281e-12
2.0042e-12
4.15786e-12
2.48739e-12
2.09199e-12
2.00995e-12
1.99496e-12
1.99257e-12
1.99235e-12
5.29732e-12
2.75407e-12
2.14613e-12
2.01902e-12
1.99585e-12
1.99211e-12
1.99153e-12
6.57923e-12
3.02841e-12
2.19662e-12
2.02707e-12
1.99711e-12
1.99247e-12
1.99178e-12
7.94128e-12
3.28333e-12
2.23515e-12
2.03186e-12
1.99785e-12
1.99291e-12
1.99224e-12
9.48944e-12
3.5442e-12
2.26829e-12
2.03513e-12
1.99873e-12
1.99395e-12
1.99345e-12
1.12626e-11
3.8254e-12
2.30198e-12
2.03977e-12
2.00242e-12
1.99888e-12
1.9993e-12
1.32001e-11
4.12656e-12
2.34398e-12
2.05549e-12
2.02254e-12
2.02585e-12
2.03159e-12
1.53889e-11
4.50823e-12
2.43594e-12
2.12916e-12
2.12562e-12
2.16387e-12
2.19782e-12
1.82716e-11
5.25447e-12
2.76329e-12
2.46709e-12
2.6009e-12
2.79933e-12
2.96757e-12
2.4698e-11
7.69916e-12
4.11436e-12
3.89761e-12
4.57578e-12
5.42834e-12
6.16269e-12
4.45488e-11
1.65191e-11
9.39893e-12
9.40964e-12
1.19787e-11
1.52119e-11
1.80866e-11
1.06578e-10
4.62121e-11
2.83601e-11
2.88186e-11
3.71679e-11
4.80861e-11
5.81496e-11
2.21854e-12
2.05931e-12
2.02276e-12
2.01244e-12
2.00947e-12
2.00958e-12
2.0112e-12
2.01227e-12
2.0117e-12
2.00923e-12
2.00851e-12
2.02503e-12
2.11479e-12
2.48294e-12
2.23009e-12
2.04667e-12
2.00509e-12
1.99641e-12
1.99471e-12
1.99447e-12
1.99462e-12
1.99479e-12
1.99487e-12
1.99504e-12
1.99746e-12
2.01317e-12
2.08981e-12
2.41221e-12
2.37409e-12
2.08118e-12
2.01143e-12
1.99668e-12
1.99383e-12
1.99325e-12
1.99308e-12
1.993e-12
1.993e-12
1.99334e-12
1.99588e-12
2.01031e-12
2.0802e-12
2.37868e-12
2.57704e-12
2.12916e-12
2.02147e-12
1.99862e-12
1.99427e-12
1.99344e-12
1.9932e-12
1.99307e-12
1.99302e-12
1.9933e-12
1.99556e-12
2.00852e-12
2.07247e-12
2.35195e-12
2.80138e-12
2.1777e-12
2.03068e-12
2.00032e-12
1.99475e-12
1.99376e-12
1.9935e-12
1.99337e-12
1.9933e-12
1.99353e-12
1.99555e-12
2.00743e-12
2.06738e-12
2.33535e-12
3.03436e-12
2.22169e-12
2.0376e-12
2.00143e-12
1.99517e-12
1.99412e-12
1.99386e-12
1.99372e-12
1.99364e-12
1.99382e-12
1.99562e-12
2.00656e-12
2.06308e-12
2.32176e-12
3.29292e-12
2.26549e-12
2.0434e-12
2.00228e-12
1.99562e-12
1.9946e-12
1.99436e-12
1.99423e-12
1.99413e-12
1.99428e-12
1.9959e-12
2.00606e-12
2.05982e-12
2.31164e-12
3.58276e-12
2.31155e-12
2.04909e-12
2.0033e-12
1.9965e-12
1.99567e-12
1.99556e-12
1.99549e-12
1.99541e-12
1.99554e-12
1.99705e-12
2.00682e-12
2.05928e-12
2.31001e-12
3.89279e-12
2.35961e-12
2.05585e-12
2.00595e-12
1.99981e-12
2e-12
2.00066e-12
2.00103e-12
2.00117e-12
2.0014e-12
2.00316e-12
2.0142e-12
2.07259e-12
2.35119e-12
4.23256e-12
2.41793e-12
2.06964e-12
2.01702e-12
2.01527e-12
2.02061e-12
2.02536e-12
2.02835e-12
2.02999e-12
2.03125e-12
2.03473e-12
2.05238e-12
2.13732e-12
2.52067e-12
4.65847e-12
2.52549e-12
2.11674e-12
2.06648e-12
2.08528e-12
2.11426e-12
2.13844e-12
2.15487e-12
2.16513e-12
2.17289e-12
2.18463e-12
2.22582e-12
2.39286e-12
3.07842e-12
5.57857e-12
2.87108e-12
2.30914e-12
2.27447e-12
2.3755e-12
2.50163e-12
2.60779e-12
2.68428e-12
2.73595e-12
2.77694e-12
2.82526e-12
2.94194e-12
3.32595e-12
4.77051e-12
8.43769e-12
4.11728e-12
3.05797e-12
3.07361e-12
3.46498e-12
3.9481e-12
4.36549e-12
4.68341e-12
4.91251e-12
5.10202e-12
5.30374e-12
5.66139e-12
6.57332e-12
9.74012e-12
1.7484e-11
8.32313e-12
5.73763e-12
5.88249e-12
7.1805e-12
8.83195e-12
1.0302e-11
1.14757e-11
1.2381e-11
1.31718e-11
1.39936e-11
1.51736e-11
1.73683e-11
2.39965e-11
2.02944e-12
2.00485e-12
1.99928e-12
1.99767e-12
1.99717e-12
1.99711e-12
1.99729e-12
1.99739e-12
1.99724e-12
1.99674e-12
1.99627e-12
1.99752e-12
2.0065e-12
2.04528e-12
2.03386e-12
2.00429e-12
1.99744e-12
1.99584e-12
1.99537e-12
1.99516e-12
1.99502e-12
1.99492e-12
1.99482e-12
1.99472e-12
1.99484e-12
1.99629e-12
2.0042e-12
2.03876e-12
2.05838e-12
2.01042e-12
1.9988e-12
1.99615e-12
1.99547e-12
1.9952e-12
1.99501e-12
1.99486e-12
1.99474e-12
1.99466e-12
1.99481e-12
1.99617e-12
2.00348e-12
2.03577e-12
2.09215e-12
2.01861e-12
2.0007e-12
1.9967e-12
1.99577e-12
1.99545e-12
1.99524e-12
1.99507e-12
1.99493e-12
1.99482e-12
1.99493e-12
1.99614e-12
2.00283e-12
2.03326e-12
2.12881e-12
2.02675e-12
2.00243e-12
1.9972e-12
1.99608e-12
1.99573e-12
1.99552e-12
1.99534e-12
1.99518e-12
1.99506e-12
1.99512e-12
1.9962e-12
2.00244e-12
2.03169e-12
2.16601e-12
2.03396e-12
2.00376e-12
1.99762e-12
1.99638e-12
1.99603e-12
1.99581e-12
1.99562e-12
1.99545e-12
1.99531e-12
1.99533e-12
1.9963e-12
2.00214e-12
2.03036e-12
2.20629e-12
2.04095e-12
2.00488e-12
1.998e-12
1.9967e-12
1.99635e-12
1.99613e-12
1.99594e-12
1.99576e-12
1.99561e-12
1.9956e-12
1.99646e-12
2.00196e-12
2.02926e-12
2.25047e-12
2.04811e-12
2.00596e-12
1.9984e-12
1.9971e-12
1.99677e-12
1.99657e-12
1.99638e-12
1.99619e-12
1.99602e-12
1.99599e-12
1.99679e-12
2.00208e-12
2.02883e-12
2.2967e-12
2.05538e-12
2.00718e-12
1.99904e-12
1.99782e-12
1.99764e-12
1.99754e-12
1.99741e-12
1.99724e-12
1.99707e-12
1.99704e-12
1.99796e-12
2.00374e-12
2.0328e-12
2.34581e-12
2.0638e-12
2.0093e-12
2.0008e-12
2.0002e-12
2.00072e-12
2.00117e-12
2.00138e-12
2.00137e-12
2.00129e-12
2.00141e-12
2.00296e-12
2.01135e-12
2.05068e-12
2.40441e-12
2.07836e-12
2.0158e-12
2.00774e-12
2.00999e-12
2.01376e-12
2.01682e-12
2.01873e-12
2.01973e-12
2.02028e-12
2.02114e-12
2.02499e-12
2.0417e-12
2.11234e-12
2.52656e-12
2.12386e-12
2.04147e-12
2.03605e-12
2.04985e-12
2.06702e-12
2.08113e-12
2.09071e-12
2.09655e-12
2.1005e-12
2.10479e-12
2.11602e-12
2.15481e-12
2.30565e-12
2.90898e-12
2.288e-12
2.14061e-12
2.14426e-12
2.19943e-12
2.2664e-12
2.32268e-12
2.36326e-12
2.39003e-12
2.40962e-12
2.42876e-12
2.46364e-12
2.5556e-12
2.88902e-12
4.13624e-12
2.84382e-12
2.49457e-12
2.52427e-12
2.71128e-12
2.94356e-12
3.14367e-12
3.29525e-12
3.40304e-12
3.48785e-12
3.56911e-12
3.68641e-12
3.90694e-12
4.60523e-12
2.00302e-12
1.99932e-12
1.9984e-12
1.998e-12
1.99774e-12
1.99755e-12
1.99741e-12
1.99728e-12
1.99713e-12
1.99693e-12
1.99674e-12
1.99667e-12
1.99738e-12
2.00106e-12
2.00424e-12
1.99964e-12
1.99844e-12
1.99799e-12
1.9977e-12
1.99746e-12
1.99725e-12
1.99706e-12
1.9969e-12
1.99674e-12
1.99663e-12
1.9966e-12
1.99724e-12
2.00061e-12
2.0083e-12
2.00079e-12
1.99882e-12
1.99819e-12
1.99787e-12
1.99763e-12
1.99742e-12
1.99722e-12
1.99705e-12
1.99688e-12
1.99677e-12
1.99673e-12
1.99732e-12
2.0005e-12
2.01365e-12
2.00221e-12
1.99926e-12
1.99843e-12
1.99808e-12
1.99783e-12
1.99761e-12
1.9974e-12
1.99721e-12
1.99703e-12
1.99688e-12
1.99681e-12
1.99733e-12
2.00032e-12
2.01929e-12
2.00356e-12
1.99965e-12
1.99864e-12
1.99827e-12
1.99803e-12
1.99781e-12
1.99759e-12
1.99739e-12
1.99719e-12
1.99701e-12
1.99691e-12
1.99735e-12
2.00019e-12
2.02488e-12
2.00474e-12
1.99997e-12
1.99885e-12
1.99847e-12
1.99823e-12
1.998e-12
1.99778e-12
1.99756e-12
1.99735e-12
1.99714e-12
1.99702e-12
1.99739e-12
2.0001e-12
2.0308e-12
2.00587e-12
2.00026e-12
1.99905e-12
1.99866e-12
1.99843e-12
1.9982e-12
1.99797e-12
1.99775e-12
1.99752e-12
1.9973e-12
1.99715e-12
1.99745e-12
2.00005e-12
2.03714e-12
2.007e-12
2.00055e-12
1.99925e-12
1.99887e-12
1.99864e-12
1.99841e-12
1.99818e-12
1.99794e-12
1.99771e-12
1.99747e-12
1.9973e-12
1.99756e-12
2.00006e-12
2.04365e-12
2.00811e-12
2.00085e-12
1.99949e-12
1.99912e-12
1.9989e-12
1.99869e-12
1.99847e-12
1.99823e-12
1.99799e-12
1.99774e-12
1.99758e-12
1.99787e-12
2.00052e-12
2.05035e-12
2.00933e-12
2.00125e-12
1.99985e-12
1.99956e-12
1.99944e-12
1.9993e-12
1.99912e-12
1.9989e-12
1.99867e-12
1.99843e-12
1.99834e-12
1.99888e-12
2.00247e-12
2.05795e-12
2.01125e-12
2.0022e-12
2.00087e-12
2.00095e-12
2.00124e-12
2.00143e-12
2.00146e-12
2.00136e-12
2.00118e-12
2.00102e-12
2.00114e-12
2.00246e-12
2.00912e-12
2.07306e-12
2.01689e-12
2.00547e-12
2.00455e-12
2.00616e-12
2.00819e-12
2.00978e-12
2.01072e-12
2.01114e-12
2.01128e-12
2.0114e-12
2.01217e-12
2.01558e-12
2.03023e-12
2.12074e-12
2.03713e-12
2.01783e-12
2.01834e-12
2.02546e-12
2.03399e-12
2.04093e-12
2.0456e-12
2.04831e-12
2.04992e-12
2.05126e-12
2.05406e-12
2.06236e-12
2.09521e-12
2.27622e-12
2.10592e-12
2.06173e-12
2.06663e-12
2.09164e-12
2.12204e-12
2.14741e-12
2.16557e-12
2.17729e-12
2.18529e-12
2.19204e-12
2.20216e-12
2.22209e-12
2.29091e-12
2.00155e-12
2.00093e-12
2.0007e-12
2.00048e-12
2.00025e-12
2.00002e-12
1.99982e-12
1.99962e-12
1.99944e-12
1.99926e-12
1.99911e-12
1.99894e-12
1.99885e-12
1.99897e-12
2.00192e-12
2.00114e-12
2.00084e-12
2.0006e-12
2.00036e-12
2.00012e-12
1.99989e-12
1.99967e-12
1.99948e-12
1.9993e-12
1.99916e-12
1.99898e-12
1.99888e-12
1.99905e-12
2.00263e-12
2.0014e-12
2.00095e-12
2.00068e-12
2.00045e-12
2.00023e-12
2.00001e-12
1.9998e-12
1.99961e-12
1.99943e-12
1.99927e-12
1.99908e-12
1.99899e-12
1.99915e-12
2.00344e-12
2.00165e-12
2.00107e-12
2.00077e-12
2.00054e-12
2.00033e-12
2.00012e-12
1.99991e-12
1.99971e-12
1.9995e-12
1.99931e-12
1.99911e-12
1.99899e-12
1.99912e-12
2.00423e-12
2.00186e-12
2.00115e-12
2.00084e-12
2.00062e-12
2.00042e-12
2.00021e-12
2e-12
1.99979e-12
1.99957e-12
1.99936e-12
1.99913e-12
1.99898e-12
1.99906e-12
2.00498e-12
2.00203e-12
2.00121e-12
2.00091e-12
2.00069e-12
2.00049e-12
2.00028e-12
2.00007e-12
1.99984e-12
1.99961e-12
1.99938e-12
1.99914e-12
1.99896e-12
1.999e-12
2.00579e-12
2.0022e-12
2.00128e-12
2.00097e-12
2.00075e-12
2.00056e-12
2.00034e-12
2.00012e-12
1.99989e-12
1.99965e-12
1.9994e-12
1.99915e-12
1.99893e-12
1.99896e-12
2.00662e-12
2.00236e-12
2.00133e-12
2.00102e-12
2.0008e-12
2.00061e-12
2.00039e-12
2.00017e-12
1.99993e-12
1.99968e-12
1.99942e-12
1.99916e-12
1.99892e-12
1.99893e-12
2.00748e-12
2.00252e-12
2.00139e-12
2.00108e-12
2.00086e-12
2.00066e-12
2.00044e-12
2.00021e-12
1.99997e-12
1.99971e-12
1.99944e-12
1.99918e-12
1.99894e-12
1.99895e-12
2.00833e-12
2.00267e-12
2.00144e-12
2.00112e-12
2.00091e-12
2.00072e-12
2.00052e-12
2.00029e-12
2.00005e-12
1.9998e-12
1.99953e-12
1.99929e-12
1.99906e-12
1.99915e-12
2.00924e-12
2.00289e-12
2.00156e-12
2.00124e-12
2.00108e-12
2.00094e-12
2.00076e-12
2.00056e-12
2.00033e-12
2.00009e-12
1.99984e-12
1.99962e-12
1.99947e-12
1.99984e-12
2.01093e-12
2.00348e-12
2.00191e-12
2.00165e-12
2.00169e-12
2.00175e-12
2.00174e-12
2.00165e-12
2.00148e-12
2.00127e-12
2.00105e-12
2.00089e-12
2.00092e-12
2.002e-12
2.01639e-12
2.00573e-12
2.0033e-12
2.00325e-12
2.00398e-12
2.00484e-12
2.00547e-12
2.00579e-12
2.00585e-12
2.00577e-12
2.00563e-12
2.00559e-12
2.00599e-12
2.00871e-12
2.03467e-12
2.0136e-12
2.00834e-12
2.00894e-12
2.01196e-12
2.01554e-12
2.01841e-12
2.02028e-12
2.02127e-12
2.02174e-12
2.02197e-12
2.02245e-12
2.02376e-12
2.02974e-12
2.00338e-12
2.00323e-12
2.00311e-12
2.00296e-12
2.00276e-12
2.00255e-12
2.00235e-12
2.00215e-12
2.00196e-12
2.00178e-12
2.00163e-12
2.00144e-12
2.00127e-12
2.00106e-12
2.00351e-12
2.00331e-12
2.00316e-12
2.00299e-12
2.00278e-12
2.00258e-12
2.00237e-12
2.00217e-12
2.00198e-12
2.0018e-12
2.00165e-12
2.00147e-12
2.00131e-12
2.00118e-12
2.00363e-12
2.00334e-12
2.00314e-12
2.00296e-12
2.00277e-12
2.00259e-12
2.0024e-12
2.00222e-12
2.00204e-12
2.00186e-12
2.00171e-12
2.00153e-12
2.00139e-12
2.00127e-12
2.0037e-12
2.00333e-12
2.00312e-12
2.00294e-12
2.00276e-12
2.00258e-12
2.00241e-12
2.00223e-12
2.00205e-12
2.00187e-12
2.0017e-12
2.00151e-12
2.00136e-12
2.00125e-12
2.00371e-12
2.00329e-12
2.00307e-12
2.0029e-12
2.00273e-12
2.00257e-12
2.0024e-12
2.00222e-12
2.00204e-12
2.00186e-12
2.00167e-12
2.00147e-12
2.0013e-12
2.00116e-12
2.00371e-12
2.00324e-12
2.00302e-12
2.00286e-12
2.00269e-12
2.00253e-12
2.00236e-12
2.00218e-12
2.00199e-12
2.0018e-12
2.00161e-12
2.0014e-12
2.00122e-12
2.00106e-12
2.00373e-12
2.0032e-12
2.00296e-12
2.00281e-12
2.00265e-12
2.00248e-12
2.0023e-12
2.00212e-12
2.00192e-12
2.00172e-12
2.00152e-12
2.00131e-12
2.00111e-12
2.00095e-12
2.00375e-12
2.00314e-12
2.00289e-12
2.00275e-12
2.00258e-12
2.00241e-12
2.00223e-12
2.00203e-12
2.00183e-12
2.00162e-12
2.0014e-12
2.00119e-12
2.00097e-12
2.00081e-12
2.00377e-12
2.00308e-12
2.00283e-12
2.00268e-12
2.00251e-12
2.00233e-12
2.00214e-12
2.00193e-12
2.00172e-12
2.0015e-12
2.00127e-12
2.00106e-12
2.00083e-12
2.00066e-12
2.0038e-12
2.00301e-12
2.00274e-12
2.00259e-12
2.00241e-12
2.00223e-12
2.00203e-12
2.00182e-12
2.0016e-12
2.00137e-12
2.00114e-12
2.00093e-12
2.0007e-12
2.00054e-12
2.00384e-12
2.00294e-12
2.00266e-12
2.0025e-12
2.00233e-12
2.00214e-12
2.00193e-12
2.00171e-12
2.00148e-12
2.00126e-12
2.00103e-12
2.00083e-12
2.00061e-12
2.00047e-12
2.0039e-12
2.00287e-12
2.00258e-12
2.00242e-12
2.00227e-12
2.00209e-12
2.0019e-12
2.00168e-12
2.00146e-12
2.00124e-12
2.00103e-12
2.00083e-12
2.0006e-12
2.0005e-12
2.00433e-12
2.00295e-12
2.00261e-12
2.00246e-12
2.00239e-12
2.0023e-12
2.00217e-12
2.002e-12
2.00178e-12
2.00157e-12
2.00135e-12
2.00113e-12
2.00088e-12
2.00085e-12
2.00613e-12
2.0036e-12
2.00299e-12
2.00294e-12
2.00315e-12
2.00338e-12
2.00351e-12
2.0035e-12
2.00338e-12
2.0032e-12
2.00298e-12
2.00274e-12
2.00252e-12
2.0027e-12
2.00522e-12
2.00514e-12
2.00504e-12
2.00491e-12
2.00474e-12
2.00455e-12
2.00436e-12
2.00417e-12
2.00398e-12
2.00379e-12
2.00362e-12
2.00343e-12
2.00323e-12
2.00296e-12
2.00522e-12
2.00511e-12
2.00499e-12
2.00484e-12
2.00465e-12
2.00447e-12
2.00428e-12
2.0041e-12
2.00392e-12
2.00374e-12
2.00359e-12
2.00341e-12
2.00324e-12
2.00307e-12
2.00517e-12
2.00503e-12
2.00487e-12
2.00471e-12
2.00454e-12
2.00437e-12
2.0042e-12
2.00404e-12
2.00387e-12
2.00372e-12
2.00357e-12
2.00341e-12
2.00327e-12
2.00313e-12
2.00506e-12
2.0049e-12
2.00475e-12
2.00459e-12
2.00443e-12
2.00427e-12
2.00411e-12
2.00396e-12
2.0038e-12
2.00364e-12
2.00349e-12
2.00333e-12
2.00321e-12
2.0031e-12
2.00489e-12
2.00475e-12
2.0046e-12
2.00446e-12
2.00431e-12
2.00416e-12
2.00401e-12
2.00386e-12
2.0037e-12
2.00355e-12
2.0034e-12
2.00325e-12
2.00312e-12
2.003e-12
2.00472e-12
2.00459e-12
2.00446e-12
2.00433e-12
2.00418e-12
2.00404e-12
2.00389e-12
2.00374e-12
2.00358e-12
2.00343e-12
2.00328e-12
2.00313e-12
2.003e-12
2.00288e-12
2.00458e-12
2.00445e-12
2.00432e-12
2.0042e-12
2.00405e-12
2.00391e-12
2.00376e-12
2.0036e-12
2.00345e-12
2.00329e-12
2.00314e-12
2.003e-12
2.00287e-12
2.00276e-12
2.00442e-12
2.00429e-12
2.00416e-12
2.00404e-12
2.0039e-12
2.00376e-12
2.0036e-12
2.00344e-12
2.00328e-12
2.00312e-12
2.00297e-12
2.00282e-12
2.00269e-12
2.00258e-12
2.00427e-12
2.00413e-12
2.004e-12
2.00389e-12
2.00374e-12
2.00359e-12
2.00343e-12
2.00326e-12
2.00309e-12
2.00292e-12
2.00277e-12
2.00263e-12
2.00249e-12
2.00239e-12
2.00414e-12
2.00396e-12
2.00383e-12
2.00371e-12
2.00356e-12
2.0034e-12
2.00323e-12
2.00305e-12
2.00288e-12
2.00271e-12
2.00255e-12
2.00242e-12
2.00228e-12
2.00219e-12
2.00402e-12
2.0038e-12
2.00367e-12
2.00354e-12
2.00338e-12
2.0032e-12
2.00302e-12
2.00283e-12
2.00265e-12
2.00248e-12
2.00233e-12
2.0022e-12
2.00206e-12
2.00198e-12
2.00385e-12
2.00361e-12
2.00349e-12
2.00335e-12
2.00318e-12
2.00299e-12
2.0028e-12
2.00261e-12
2.00242e-12
2.00225e-12
2.0021e-12
2.00197e-12
2.00181e-12
2.00171e-12
2.00369e-12
2.00341e-12
2.00331e-12
2.00316e-12
2.003e-12
2.00281e-12
2.00261e-12
2.00241e-12
2.0022e-12
2.00203e-12
2.00186e-12
2.0017e-12
2.00149e-12
2.00133e-12
2.0036e-12
2.00323e-12
2.00313e-12
2.00299e-12
2.00287e-12
2.00271e-12
2.00254e-12
2.00234e-12
2.00214e-12
2.00194e-12
2.00175e-12
2.00153e-12
2.00128e-12
2.00105e-12
2.00664e-12
2.00658e-12
2.0065e-12
2.00637e-12
2.0062e-12
2.00602e-12
2.00583e-12
2.00564e-12
2.00544e-12
2.00525e-12
2.00507e-12
2.00486e-12
2.00464e-12
2.00434e-12
2.00655e-12
2.00647e-12
2.00635e-12
2.0062e-12
2.00602e-12
2.00584e-12
2.00565e-12
2.00547e-12
2.00529e-12
2.00511e-12
2.00495e-12
2.00476e-12
2.00458e-12
2.00438e-12
2.00639e-12
2.00628e-12
2.00613e-12
2.00598e-12
2.00581e-12
2.00565e-12
2.00548e-12
2.00532e-12
2.00515e-12
2.00499e-12
2.00484e-12
2.00468e-12
2.00453e-12
2.00439e-12
2.00617e-12
2.00605e-12
2.00591e-12
2.00576e-12
2.0056e-12
2.00545e-12
2.0053e-12
2.00514e-12
2.00498e-12
2.00483e-12
2.00469e-12
2.00453e-12
2.00441e-12
2.0043e-12
2.00591e-12
2.00581e-12
2.00567e-12
2.00554e-12
2.00539e-12
2.00525e-12
2.00511e-12
2.00496e-12
2.00481e-12
2.00467e-12
2.00453e-12
2.00439e-12
2.00426e-12
2.00415e-12
2.00565e-12
2.00557e-12
2.00544e-12
2.00532e-12
2.00518e-12
2.00505e-12
2.0049e-12
2.00476e-12
2.00462e-12
2.00448e-12
2.00435e-12
2.00422e-12
2.0041e-12
2.004e-12
2.00543e-12
2.00535e-12
2.00522e-12
2.00511e-12
2.00498e-12
2.00484e-12
2.0047e-12
2.00455e-12
2.00442e-12
2.00428e-12
2.00416e-12
2.00404e-12
2.00394e-12
2.00386e-12
2.00519e-12
2.00512e-12
2.005e-12
2.00489e-12
2.00476e-12
2.00462e-12
2.00448e-12
2.00433e-12
2.0042e-12
2.00407e-12
2.00395e-12
2.00384e-12
2.00375e-12
2.00367e-12
2.00498e-12
2.00489e-12
2.00478e-12
2.00468e-12
2.00454e-12
2.00439e-12
2.00425e-12
2.0041e-12
2.00396e-12
2.00383e-12
2.00372e-12
2.00362e-12
2.00353e-12
2.00347e-12
2.00477e-12
2.00466e-12
2.00455e-12
2.00443e-12
2.00429e-12
2.00414e-12
2.00399e-12
2.00385e-12
2.00371e-12
2.00358e-12
2.00347e-12
2.00338e-12
2.0033e-12
2.00326e-12
2.00458e-12
2.00444e-12
2.00432e-12
2.00419e-12
2.00404e-12
2.00389e-12
2.00373e-12
2.00358e-12
2.00344e-12
2.00331e-12
2.00321e-12
2.00314e-12
2.00306e-12
2.00304e-12
2.00435e-12
2.0042e-12
2.00408e-12
2.00394e-12
2.00378e-12
2.00361e-12
2.00345e-12
2.00329e-12
2.00315e-12
2.00303e-12
2.00292e-12
2.00286e-12
2.00278e-12
2.00275e-12
2.00409e-12
2.00393e-12
2.00384e-12
2.00369e-12
2.00352e-12
2.00334e-12
2.00317e-12
2.003e-12
2.00284e-12
2.00271e-12
2.00259e-12
2.00252e-12
2.00239e-12
2.0023e-12
2.00379e-12
2.00364e-12
2.00357e-12
2.00342e-12
2.00326e-12
2.00308e-12
2.0029e-12
2.00272e-12
2.00255e-12
2.0024e-12
2.00227e-12
2.00214e-12
2.00197e-12
2.00181e-12
2.00764e-12
2.00759e-12
2.00751e-12
2.00738e-12
2.00722e-12
2.00704e-12
2.00686e-12
2.00667e-12
2.00647e-12
2.00628e-12
2.00609e-12
2.00587e-12
2.00563e-12
2.0053e-12
2.00747e-12
2.0074e-12
2.00729e-12
2.00714e-12
2.00696e-12
2.00678e-12
2.0066e-12
2.00642e-12
2.00623e-12
2.00606e-12
2.00588e-12
2.00569e-12
2.00549e-12
2.00527e-12
2.00723e-12
2.00713e-12
2.00698e-12
2.00683e-12
2.00667e-12
2.00651e-12
2.00635e-12
2.00618e-12
2.00602e-12
2.00586e-12
2.0057e-12
2.00553e-12
2.00536e-12
2.00521e-12
2.00693e-12
2.00682e-12
2.00668e-12
2.00654e-12
2.00638e-12
2.00623e-12
2.00608e-12
2.00593e-12
2.00577e-12
2.00562e-12
2.00547e-12
2.00531e-12
2.00517e-12
2.00506e-12
2.00659e-12
2.0065e-12
2.00637e-12
2.00624e-12
2.00609e-12
2.00595e-12
2.00581e-12
2.00566e-12
2.00552e-12
2.00538e-12
2.00524e-12
2.0051e-12
2.00497e-12
2.00485e-12
2.00627e-12
2.00618e-12
2.00606e-12
2.00594e-12
2.0058e-12
2.00567e-12
2.00553e-12
2.00539e-12
2.00525e-12
2.00512e-12
2.005e-12
2.00487e-12
2.00475e-12
2.00464e-12
2.00598e-12
2.0059e-12
2.00577e-12
2.00565e-12
2.00552e-12
2.00538e-12
2.00525e-12
2.00511e-12
2.00499e-12
2.00486e-12
2.00475e-12
2.00464e-12
2.00454e-12
2.00445e-12
2.00569e-12
2.0056e-12
2.00548e-12
2.00537e-12
2.00523e-12
2.0051e-12
2.00496e-12
2.00483e-12
2.00471e-12
2.00459e-12
2.00449e-12
2.00439e-12
2.0043e-12
2.00423e-12
2.00542e-12
2.00533e-12
2.00521e-12
2.00509e-12
2.00495e-12
2.00482e-12
2.00468e-12
2.00455e-12
2.00443e-12
2.00432e-12
2.00422e-12
2.00414e-12
2.00406e-12
2.00401e-12
2.00517e-12
2.00505e-12
2.00493e-12
2.0048e-12
2.00466e-12
2.00452e-12
2.00439e-12
2.00426e-12
2.00414e-12
2.00403e-12
2.00394e-12
2.00387e-12
2.00381e-12
2.00378e-12
2.00493e-12
2.00479e-12
2.00466e-12
2.00453e-12
2.00438e-12
2.00423e-12
2.00409e-12
2.00396e-12
2.00383e-12
2.00373e-12
2.00365e-12
2.00361e-12
2.00356e-12
2.00356e-12
2.00466e-12
2.00451e-12
2.00438e-12
2.00423e-12
2.00408e-12
2.00392e-12
2.00378e-12
2.00364e-12
2.00352e-12
2.00342e-12
2.00335e-12
2.00331e-12
2.00327e-12
2.00327e-12
2.00436e-12
2.0042e-12
2.0041e-12
2.00394e-12
2.00379e-12
2.00362e-12
2.00346e-12
2.00331e-12
2.00317e-12
2.00308e-12
2.00301e-12
2.00297e-12
2.00289e-12
2.00287e-12
2.004e-12
2.00387e-12
2.00378e-12
2.00363e-12
2.00347e-12
2.0033e-12
2.00314e-12
2.00298e-12
2.00284e-12
2.00274e-12
2.00266e-12
2.00258e-12
2.00248e-12
2.00241e-12
2.00817e-12
2.00814e-12
2.00807e-12
2.00795e-12
2.0078e-12
2.00764e-12
2.00747e-12
2.00729e-12
2.0071e-12
2.00691e-12
2.00672e-12
2.00649e-12
2.00625e-12
2.0059e-12
2.00794e-12
2.00789e-12
2.00778e-12
2.00764e-12
2.00747e-12
2.00731e-12
2.00714e-12
2.00696e-12
2.00678e-12
2.00661e-12
2.00643e-12
2.00623e-12
2.00601e-12
2.00578e-12
2.00764e-12
2.00756e-12
2.00741e-12
2.00727e-12
2.00711e-12
2.00697e-12
2.00681e-12
2.00665e-12
2.00649e-12
2.00633e-12
2.00616e-12
2.00598e-12
2.00579e-12
2.00562e-12
2.00729e-12
2.00719e-12
2.00705e-12
2.00692e-12
2.00677e-12
2.00663e-12
2.00648e-12
2.00632e-12
2.00617e-12
2.00602e-12
2.00585e-12
2.00569e-12
2.00552e-12
2.00539e-12
2.00691e-12
2.00682e-12
2.00668e-12
2.00656e-12
2.00642e-12
2.00628e-12
2.00614e-12
2.006e-12
2.00585e-12
2.00571e-12
2.00557e-12
2.00541e-12
2.00526e-12
2.00512e-12
2.00655e-12
2.00645e-12
2.00633e-12
2.00621e-12
2.00607e-12
2.00594e-12
2.0058e-12
2.00566e-12
2.00553e-12
2.0054e-12
2.00526e-12
2.00513e-12
2.00499e-12
2.00486e-12
2.00621e-12
2.00611e-12
2.00599e-12
2.00586e-12
2.00573e-12
2.0056e-12
2.00547e-12
2.00533e-12
2.00521e-12
2.00509e-12
2.00497e-12
2.00486e-12
2.00474e-12
2.00463e-12
2.00587e-12
2.00576e-12
2.00564e-12
2.00552e-12
2.00538e-12
2.00525e-12
2.00512e-12
2.005e-12
2.00488e-12
2.00477e-12
2.00467e-12
2.00457e-12
2.00447e-12
2.00438e-12
2.00554e-12
2.00543e-12
2.00531e-12
2.00519e-12
2.00505e-12
2.00491e-12
2.00479e-12
2.00467e-12
2.00455e-12
2.00445e-12
2.00436e-12
2.00428e-12
2.0042e-12
2.00414e-12
2.00523e-12
2.0051e-12
2.00497e-12
2.00484e-12
2.0047e-12
2.00457e-12
2.00444e-12
2.00433e-12
2.00422e-12
2.00413e-12
2.00405e-12
2.00399e-12
2.00393e-12
2.0039e-12
2.00494e-12
2.00478e-12
2.00465e-12
2.00451e-12
2.00437e-12
2.00423e-12
2.00411e-12
2.00399e-12
2.00389e-12
2.00381e-12
2.00374e-12
2.00371e-12
2.00367e-12
2.00367e-12
2.00461e-12
2.00445e-12
2.00431e-12
2.00416e-12
2.00402e-12
2.00388e-12
2.00376e-12
2.00365e-12
2.00355e-12
2.00348e-12
2.00343e-12
2.00341e-12
2.00338e-12
2.00339e-12
2.00427e-12
2.0041e-12
2.00399e-12
2.00383e-12
2.00368e-12
2.00353e-12
2.0034e-12
2.00329e-12
2.0032e-12
2.00313e-12
2.0031e-12
2.00309e-12
2.00303e-12
2.00302e-12
2.00384e-12
2.00371e-12
2.00361e-12
2.00346e-12
2.00332e-12
2.00318e-12
2.00305e-12
2.00294e-12
2.00285e-12
2.00279e-12
2.00275e-12
2.0027e-12
2.00264e-12
2.0026e-12
2.00815e-12
2.00815e-12
2.00809e-12
2.00799e-12
2.00787e-12
2.00774e-12
2.00759e-12
2.00744e-12
2.00728e-12
2.00711e-12
2.00693e-12
2.00672e-12
2.00648e-12
2.00615e-12
2.00788e-12
2.00786e-12
2.00776e-12
2.00763e-12
2.00749e-12
2.00736e-12
2.00721e-12
2.00706e-12
2.00689e-12
2.00673e-12
2.00657e-12
2.00638e-12
2.00616e-12
2.00591e-12
2.00754e-12
2.00748e-12
2.00735e-12
2.00723e-12
2.00709e-12
2.00696e-12
2.00683e-12
2.00668e-12
2.00654e-12
2.00639e-12
2.00623e-12
2.00605e-12
2.00586e-12
2.00568e-12
2.00715e-12
2.00707e-12
2.00695e-12
2.00683e-12
2.00669e-12
2.00657e-12
2.00643e-12
2.00629e-12
2.00615e-12
2.006e-12
2.00584e-12
2.00567e-12
2.0055e-12
2.00534e-12
2.00674e-12
2.00666e-12
2.00653e-12
2.00642e-12
2.00629e-12
2.00617e-12
2.00604e-12
2.0059e-12
2.00577e-12
2.00563e-12
2.00548e-12
2.00532e-12
2.00516e-12
2.005e-12
2.00635e-12
2.00626e-12
2.00613e-12
2.00602e-12
2.00589e-12
2.00576e-12
2.00564e-12
2.0055e-12
2.00537e-12
2.00524e-12
2.00511e-12
2.00497e-12
2.00481e-12
2.00466e-12
2.00598e-12
2.00587e-12
2.00575e-12
2.00563e-12
2.0055e-12
2.00537e-12
2.00524e-12
2.00511e-12
2.00499e-12
2.00487e-12
2.00476e-12
2.00463e-12
2.00449e-12
2.00436e-12
2.0056e-12
2.00548e-12
2.00536e-12
2.00523e-12
2.0051e-12
2.00497e-12
2.00485e-12
2.00473e-12
2.00461e-12
2.0045e-12
2.00439e-12
2.00428e-12
2.00417e-12
2.00406e-12
2.00523e-12
2.0051e-12
2.00498e-12
2.00485e-12
2.00471e-12
2.00458e-12
2.00446e-12
2.00435e-12
2.00424e-12
2.00414e-12
2.00404e-12
2.00395e-12
2.00386e-12
2.00378e-12
2.00486e-12
2.00472e-12
2.00459e-12
2.00445e-12
2.00432e-12
2.00419e-12
2.00408e-12
2.00397e-12
2.00388e-12
2.00379e-12
2.0037e-12
2.00364e-12
2.00356e-12
2.00351e-12
2.00451e-12
2.00435e-12
2.00421e-12
2.00407e-12
2.00394e-12
2.00382e-12
2.00371e-12
2.00361e-12
2.00352e-12
2.00344e-12
2.00338e-12
2.00334e-12
2.00329e-12
2.00327e-12
2.00413e-12
2.00395e-12
2.00382e-12
2.00368e-12
2.00355e-12
2.00343e-12
2.00333e-12
2.00324e-12
2.00316e-12
2.0031e-12
2.00307e-12
2.00305e-12
2.00301e-12
2.00301e-12
2.00374e-12
2.00356e-12
2.00345e-12
2.0033e-12
2.00317e-12
2.00305e-12
2.00295e-12
2.00287e-12
2.0028e-12
2.00276e-12
2.00275e-12
2.00274e-12
2.0027e-12
2.00267e-12
2.00325e-12
2.00311e-12
2.00302e-12
2.00289e-12
2.00277e-12
2.00267e-12
2.00259e-12
2.00252e-12
2.00247e-12
2.00244e-12
2.00242e-12
2.0024e-12
2.00235e-12
2.00231e-12
2.00749e-12
2.00751e-12
2.00746e-12
2.00739e-12
2.0073e-12
2.0072e-12
2.00709e-12
2.00698e-12
2.00686e-12
2.00674e-12
2.0066e-12
2.00644e-12
2.00625e-12
2.00597e-12
2.0072e-12
2.00719e-12
2.00711e-12
2.00701e-12
2.0069e-12
2.00679e-12
2.00668e-12
2.00656e-12
2.00643e-12
2.00631e-12
2.00618e-12
2.00603e-12
2.00585e-12
2.00563e-12
2.00685e-12
2.0068e-12
2.00669e-12
2.00658e-12
2.00647e-12
2.00637e-12
2.00626e-12
2.00615e-12
2.00603e-12
2.00591e-12
2.00579e-12
2.00564e-12
2.00548e-12
2.00531e-12
2.00645e-12
2.00638e-12
2.00627e-12
2.00616e-12
2.00605e-12
2.00595e-12
2.00584e-12
2.00572e-12
2.0056e-12
2.00548e-12
2.00535e-12
2.00519e-12
2.00504e-12
2.00489e-12
2.00604e-12
2.00595e-12
2.00584e-12
2.00574e-12
2.00563e-12
2.00552e-12
2.00541e-12
2.00529e-12
2.00518e-12
2.00506e-12
2.00493e-12
2.00478e-12
2.00462e-12
2.00446e-12
2.00563e-12
2.00554e-12
2.00542e-12
2.00531e-12
2.0052e-12
2.00509e-12
2.00498e-12
2.00486e-12
2.00475e-12
2.00463e-12
2.00451e-12
2.00437e-12
2.00421e-12
2.00405e-12
2.00524e-12
2.00513e-12
2.00501e-12
2.0049e-12
2.00478e-12
2.00467e-12
2.00455e-12
2.00444e-12
2.00433e-12
2.00422e-12
2.0041e-12
2.00398e-12
2.00383e-12
2.00369e-12
2.00484e-12
2.00472e-12
2.00459e-12
2.00447e-12
2.00436e-12
2.00424e-12
2.00413e-12
2.00402e-12
2.00391e-12
2.00381e-12
2.0037e-12
2.00359e-12
2.00345e-12
2.00333e-12
2.00444e-12
2.00431e-12
2.00419e-12
2.00406e-12
2.00394e-12
2.00382e-12
2.00372e-12
2.00361e-12
2.00351e-12
2.00341e-12
2.00331e-12
2.00322e-12
2.0031e-12
2.003e-12
2.00403e-12
2.00388e-12
2.00376e-12
2.00363e-12
2.00352e-12
2.00341e-12
2.00331e-12
2.00321e-12
2.00312e-12
2.00303e-12
2.00294e-12
2.00287e-12
2.00277e-12
2.0027e-12
2.00365e-12
2.00348e-12
2.00335e-12
2.00322e-12
2.00311e-12
2.003e-12
2.00291e-12
2.00282e-12
2.00274e-12
2.00267e-12
2.00261e-12
2.00256e-12
2.00248e-12
2.00244e-12
2.00322e-12
2.00304e-12
2.00293e-12
2.0028e-12
2.0027e-12
2.0026e-12
2.00251e-12
2.00244e-12
2.00238e-12
2.00233e-12
2.00229e-12
2.00226e-12
2.0022e-12
2.00217e-12
2.00279e-12
2.00262e-12
2.00252e-12
2.0024e-12
2.0023e-12
2.00221e-12
2.00213e-12
2.00207e-12
2.00202e-12
2.00199e-12
2.00198e-12
2.00197e-12
2.00191e-12
2.00186e-12
2.00225e-12
2.00214e-12
2.00206e-12
2.00196e-12
2.00188e-12
2.00181e-12
2.00176e-12
2.00173e-12
2.0017e-12
2.00168e-12
2.00168e-12
2.00166e-12
2.0016e-12
2.00153e-12
2.00633e-12
2.00633e-12
2.00628e-12
2.00623e-12
2.00616e-12
2.0061e-12
2.00603e-12
2.00597e-12
2.0059e-12
2.00583e-12
2.00575e-12
2.00566e-12
2.00553e-12
2.00537e-12
2.00602e-12
2.00601e-12
2.00593e-12
2.00585e-12
2.00576e-12
2.00569e-12
2.00561e-12
2.00554e-12
2.00546e-12
2.00538e-12
2.00531e-12
2.00521e-12
2.0051e-12
2.00496e-12
2.00567e-12
2.00562e-12
2.00551e-12
2.00543e-12
2.00534e-12
2.00527e-12
2.0052e-12
2.00512e-12
2.00504e-12
2.00497e-12
2.00489e-12
2.00479e-12
2.00468e-12
2.00457e-12
2.00528e-12
2.0052e-12
2.0051e-12
2.00502e-12
2.00493e-12
2.00485e-12
2.00477e-12
2.00469e-12
2.00461e-12
2.00453e-12
2.00444e-12
2.00433e-12
2.00421e-12
2.0041e-12
2.00487e-12
2.00478e-12
2.00468e-12
2.0046e-12
2.00451e-12
2.00443e-12
2.00435e-12
2.00426e-12
2.00418e-12
2.0041e-12
2.004e-12
2.00389e-12
2.00377e-12
2.00364e-12
2.00446e-12
2.00437e-12
2.00427e-12
2.00418e-12
2.00409e-12
2.004e-12
2.00392e-12
2.00383e-12
2.00375e-12
2.00366e-12
2.00357e-12
2.00346e-12
2.00333e-12
2.0032e-12
2.00407e-12
2.00396e-12
2.00386e-12
2.00376e-12
2.00367e-12
2.00358e-12
2.0035e-12
2.00341e-12
2.00333e-12
2.00324e-12
2.00315e-12
2.00305e-12
2.00292e-12
2.00279e-12
2.00366e-12
2.00355e-12
2.00344e-12
2.00334e-12
2.00325e-12
2.00316e-12
2.00308e-12
2.00299e-12
2.00291e-12
2.00282e-12
2.00273e-12
2.00263e-12
2.00251e-12
2.0024e-12
2.00325e-12
2.00313e-12
2.00302e-12
2.00292e-12
2.00283e-12
2.00274e-12
2.00266e-12
2.00258e-12
2.0025e-12
2.00242e-12
2.00233e-12
2.00225e-12
2.00213e-12
2.00204e-12
2.00284e-12
2.0027e-12
2.00259e-12
2.0025e-12
2.00241e-12
2.00233e-12
2.00225e-12
2.00218e-12
2.00211e-12
2.00203e-12
2.00195e-12
2.00188e-12
2.00177e-12
2.0017e-12
2.00244e-12
2.00228e-12
2.00218e-12
2.00208e-12
2.002e-12
2.00193e-12
2.00186e-12
2.0018e-12
2.00173e-12
2.00167e-12
2.0016e-12
2.00156e-12
2.00147e-12
2.00142e-12
2.002e-12
2.00184e-12
2.00175e-12
2.00167e-12
2.00159e-12
2.00153e-12
2.00147e-12
2.00142e-12
2.00137e-12
2.00132e-12
2.00128e-12
2.00125e-12
2.00118e-12
2.00112e-12
2.00156e-12
2.00141e-12
2.00135e-12
2.00127e-12
2.0012e-12
2.00114e-12
2.0011e-12
2.00106e-12
2.00102e-12
2.001e-12
2.00098e-12
2.00096e-12
2.00089e-12
2.00082e-12
2.00104e-12
2.00095e-12
2.00091e-12
2.00085e-12
2.0008e-12
2.00077e-12
2.00075e-12
2.00073e-12
2.00071e-12
2.0007e-12