/*--------------------------------*- C++ -*----------------------------------*\
| =========                 |                                                 |
| \\      /  F ield         | OpenFOAM: The Open Source CFD Toolbox           |
|  \\    /   O peration     | Version:  v2106                                 |
|   \\  /    A nd           | Website:  www.openfoam.com                      |
|    \\/     M anipulation  |                                                 |
\*---------------------------------------------------------------------------*/
FoamFile
{
    version     2.0;
    format      ascii;
    arch        "LSB;label=32;scalar=64";
    class       surfaceScalarField;
    location    "0.000216";
    object      phi;
}
// * * * * * * * * * * * * * * * * * * * * * * * * * * * * * * * * * * * * * //

dimensions      [1 0 -1 0 0 0 0];

internalField   nonuniform List<scalar> 
53237
(
-1.71041e-10
-2.72834e-10
-2.04371e-07
3.75412e-10
-1.07812e-10
-2.80455e-10
-2.04375e-07
3.68532e-10
-4.45161e-11
-2.89773e-10
-2.04382e-07
3.71795e-10
1.41568e-11
-2.97083e-10
-2.0439e-07
3.81097e-10
7.16992e-11
-2.98762e-10
-2.04392e-07
3.83019e-10
1.32836e-10
-2.9257e-10
-2.04386e-07
3.75141e-10
1.94872e-10
-2.84405e-10
-2.04382e-07
3.71166e-10
2.56199e-10
-2.78238e-10
-2.0438e-07
3.79697e-10
3.11614e-10
-2.72234e-10
-2.04381e-07
3.84209e-10
3.59106e-10
-3.9236e-10
-2.04385e-07
5.4209e-10
-3.38085e-10
-2.04367e-07
4.47152e-10
4.66859e-10
-3.05733e-10
-2.92157e-10
-2.04407e-07
-2.1783e-10
-2.01375e-10
-2.04402e-07
-1.42426e-10
-2.02836e-10
-2.04402e-07
-8.23099e-11
-2.09955e-10
-2.044e-07
-3.16184e-11
-2.16902e-10
-2.04394e-07
1.34305e-11
-2.21976e-10
-2.04398e-07
5.66589e-11
-2.22821e-10
-2.044e-07
1.05686e-10
-2.19727e-10
-2.04399e-07
1.64713e-10
-2.1515e-10
-2.04407e-07
2.39166e-10
-2.09598e-10
-2.04411e-07
3.26395e-10
-2.11016e-10
-2.04413e-07
4.1479e-10
-3.02729e-10
-2.0442e-07
-2.89156e-10
-2.04387e-07
5.63445e-10
-2.74648e-10
-2.17702e-10
-2.04372e-07
3.86437e-10
-2.14988e-10
-2.01485e-10
-2.04403e-07
-1.56337e-10
-1.39256e-10
-2.04388e-07
-1.04965e-10
-1.36772e-10
-2.04394e-07
-6.35533e-11
-1.47067e-10
-2.04398e-07
-2.58825e-11
-1.55525e-10
-2.04399e-07
1.20575e-11
-1.62923e-10
-2.04409e-07
4.84381e-11
-1.63136e-10
-2.0441e-07
8.50981e-11
-1.59182e-10
-2.04404e-07
1.25441e-10
-1.53561e-10
-2.04405e-07
1.76092e-10
-1.45092e-10
-2.04404e-07
2.34183e-10
-1.50325e-10
-2.04399e-07
2.93392e-10
-2.13728e-10
-2.04416e-07
-2.31915e-10
-2.04386e-07
4.03739e-10
-2.82799e-10
-1.53397e-10
-2.04373e-07
3.82528e-10
-2.16342e-10
-1.24007e-10
-2.04403e-07
-1.53898e-10
-8.51074e-11
-2.04395e-07
-9.83018e-11
-7.79278e-11
-2.04404e-07
-5.62003e-11
-8.7002e-11
-2.04409e-07
-2.16999e-11
-9.3009e-11
-2.04408e-07
1.06198e-11
-9.99072e-11
-2.04418e-07
4.18318e-11
-9.99022e-11
-2.0442e-07
7.54451e-11
-9.77266e-11
-2.04412e-07
1.16177e-10
-9.46052e-11
-2.04416e-07
1.70859e-10
-8.75897e-11
-2.04413e-07
2.32546e-10
-9.71686e-11
-2.04406e-07
2.9895e-10
-1.37486e-10
-2.04416e-07
-1.69222e-10
-2.04387e-07
3.98806e-10
-2.90356e-10
-8.9373e-11
-2.04378e-07
3.74438e-10
-2.24112e-10
-6.25977e-11
-2.04402e-07
-1.65044e-10
-4.19454e-11
-2.04398e-07
-1.0821e-10
-3.36529e-11
-2.04409e-07
-6.40765e-11
-4.0756e-11
-2.04416e-07
-2.63548e-11
-4.50206e-11
-2.04417e-07
9.36832e-12
-5.09976e-11
-2.0443e-07
4.43091e-11
-5.09938e-11
-2.04431e-07
8.10144e-11
-5.05649e-11
-2.04421e-07
1.23632e-10
-4.93394e-11
-2.04423e-07
1.79587e-10
-4.46657e-11
-2.04418e-07
2.38187e-10
-5.51335e-11
-2.04409e-07
3.04573e-10
-7.71529e-11
-2.04414e-07
-1.06239e-10
-2.04391e-07
3.8885e-10
-2.98445e-10
-2.63272e-11
-2.04385e-07
3.75594e-10
-2.30447e-10
-1.17796e-11
-2.04397e-07
-1.73374e-10
-3.71267e-12
-2.04401e-07
-1.14406e-10
1.81473e-12
-2.04409e-07
-6.92838e-11
-1.90589e-12
-2.04418e-07
-3.01091e-11
-4.39147e-12
-2.04418e-07
6.49644e-12
-8.32583e-12
-2.04431e-07
4.21271e-11
-8.35457e-12
-2.04432e-07
8.04475e-11
-1.04458e-11
-2.04421e-07
1.24992e-10
-1.12357e-11
-2.04424e-07
1.83949e-10
-1.03932e-11
-2.04417e-07
2.42101e-10
-1.84267e-11
-2.04411e-07
3.12165e-10
-2.81382e-11
-2.04408e-07
-4.50282e-11
-2.04397e-07
3.91519e-10
-3.03307e-10
3.31263e-11
-2.04394e-07
3.80476e-10
-2.34192e-10
3.38917e-11
-2.04401e-07
-1.79962e-10
3.48761e-11
-2.04411e-07
-1.20736e-10
3.4908e-11
-2.04419e-07
-7.4864e-11
3.46731e-11
-2.0443e-07
-3.38143e-11
3.31907e-11
-2.04431e-07
4.58949e-12
3.13778e-11
-2.04446e-07
4.24932e-11
3.11229e-11
-2.04447e-07
8.32163e-11
2.63991e-11
-2.04435e-07
1.29496e-10
2.41435e-11
-2.04437e-07
1.89997e-10
2.11141e-11
-2.04428e-07
2.46431e-10
1.82354e-11
-2.04421e-07
3.18263e-10
1.56208e-11
-2.04413e-07
1.27163e-11
-2.04407e-07
3.97974e-10
-3.04213e-10
8.89849e-11
-2.04396e-07
3.83967e-10
-2.33102e-10
7.61709e-11
-2.04402e-07
-1.78041e-10
7.10422e-11
-2.04412e-07
-1.18759e-10
6.62306e-11
-2.0442e-07
-7.31263e-11
7.0141e-11
-2.04431e-07
-3.25435e-11
7.03575e-11
-2.04432e-07
5.13081e-12
7.04793e-11
-2.04447e-07
4.22984e-11
7.01552e-11
-2.04449e-07
8.24974e-11
6.33801e-11
-2.04437e-07
1.2847e-10
5.94183e-11
-2.04438e-07
1.88691e-10
5.25921e-11
-2.04429e-07
2.44882e-10
5.51855e-11
-2.04422e-07
3.16819e-10
5.92577e-11
-2.04414e-07
6.99142e-11
-2.04408e-07
3.96971e-10
-2.94594e-10
1.486e-10
-2.0439e-07
3.72557e-10
-2.26878e-10
1.23845e-10
-2.04403e-07
-1.71461e-10
1.06836e-10
-2.04407e-07
-1.1458e-10
9.93893e-11
-2.04415e-07
-7.16136e-11
1.07018e-10
-2.04424e-07
-3.44997e-11
1.09428e-10
-2.04424e-07
-1.29521e-13
1.11918e-10
-2.04437e-07
3.37608e-11
1.11698e-10
-2.04438e-07
7.12483e-11
1.02559e-10
-2.04427e-07
1.16022e-10
9.63611e-11
-2.0443e-07
1.75951e-10
8.59207e-11
-2.04423e-07
2.35193e-10
9.14072e-11
-2.04416e-07
3.06076e-10
1.08098e-10
-2.04413e-07
1.31324e-10
-2.04402e-07
3.85349e-10
-2.8328e-10
2.08643e-10
-2.04387e-07
3.66855e-10
-2.18406e-10
1.81206e-10
-2.04412e-07
-1.62034e-10
1.46076e-10
-2.04408e-07
-1.08423e-10
1.39698e-10
-2.04419e-07
-6.79761e-11
1.49587e-10
-2.04426e-07
-3.37612e-11
1.53815e-10
-2.04427e-07
-1.6013e-12
1.5795e-10
-2.04439e-07
3.08079e-11
1.57844e-10
-2.0444e-07
6.60623e-11
1.47545e-10
-2.04431e-07
1.08771e-10
1.39739e-10
-2.04432e-07
1.65977e-10
1.27583e-10
-2.04426e-07
2.26381e-10
1.32347e-10
-2.04417e-07
2.94421e-10
1.67578e-10
-2.04421e-07
1.93868e-10
-2.04398e-07
3.79274e-10
-2.73953e-10
2.67651e-10
-2.04386e-07
3.73331e-10
-2.09245e-10
2.53449e-10
-2.04417e-07
-1.5018e-10
1.94894e-10
-2.04408e-07
-9.89242e-11
1.93156e-10
-2.04418e-07
-6.17788e-11
2.04583e-10
-2.04422e-07
-3.20878e-11
2.1168e-10
-2.04422e-07
-4.57058e-12
2.17159e-10
-2.04431e-07
2.37348e-11
2.17131e-10
-2.04432e-07
5.53919e-11
2.06712e-10
-2.04425e-07
9.6184e-11
1.96478e-10
-2.04427e-07
1.52274e-10
1.83378e-10
-2.04425e-07
2.16024e-10
1.84008e-10
-2.04416e-07
2.83864e-10
2.43024e-10
-2.04425e-07
2.56463e-10
-2.04396e-07
3.83892e-10
-2.64802e-10
3.20382e-10
-2.04388e-07
3.75718e-10
-2.07191e-10
3.37716e-10
-2.0442e-07
-1.52041e-10
2.49955e-10
-2.04405e-07
-1.05613e-10
2.52209e-10
-2.04412e-07
-7.0044e-11
2.60628e-10
-2.04415e-07
-3.84062e-11
2.67e-10
-2.04416e-07
-6.43166e-12
2.71678e-10
-2.04425e-07
2.71222e-11
2.71476e-10
-2.04426e-07
6.14403e-11
2.63978e-10
-2.04419e-07
1.01341e-10
2.5547e-10
-2.04419e-07
1.52946e-10
2.46048e-10
-2.04417e-07
2.12734e-10
2.4292e-10
-2.04412e-07
2.73296e-10
3.30932e-10
-2.04428e-07
3.12799e-10
-2.04397e-07
3.84681e-10
-3.82511e-10
3.6526e-10
-2.04392e-07
5.31835e-10
-2.95937e-10
4.22502e-10
-2.04427e-07
-2.11983e-10
3.04639e-10
-2.04422e-07
-1.42291e-10
3.13992e-10
-2.04422e-07
-8.88541e-11
3.22817e-10
-2.04421e-07
-4.54757e-11
3.32642e-10
-2.04415e-07
-7.30094e-12
3.41032e-10
-2.04418e-07
3.34039e-11
3.40191e-10
-2.04419e-07
8.02448e-11
3.31818e-10
-2.04417e-07
1.38506e-10
3.21118e-10
-2.04424e-07
2.13298e-10
3.12283e-10
-2.04428e-07
3.01331e-10
3.0221e-10
-2.04429e-07
3.89912e-10
4.20141e-10
-2.04434e-07
3.61409e-10
-2.044e-07
5.39421e-10
-3.25959e-10
-2.04375e-07
4.69202e-10
4.35551e-10
-2.80281e-10
-2.04394e-07
5.67377e-10
-2.28239e-10
-2.04393e-07
4.09628e-10
-1.71623e-10
-2.04394e-07
4.07252e-10
-1.15475e-10
-2.04398e-07
4.01064e-10
-6.00849e-11
-2.04404e-07
4.05933e-10
-8.13555e-12
-2.04413e-07
4.17142e-10
4.67417e-11
-2.04414e-07
4.15614e-10
1.05952e-10
-2.04407e-07
4.07148e-10
1.67165e-10
-2.04402e-07
4.02608e-10
2.28408e-10
-2.04399e-07
4.10184e-10
2.84464e-10
-2.04399e-07
4.11417e-10
3.32184e-10
-2.04401e-07
5.69177e-10
-2.04383e-07
4.41665e-10
4.7012e-10
-2.87087e-10
-2.80668e-10
-2.08463e-07
3.6308e-10
3.67504e-10
-2.57183e-10
-3.51891e-10
-2.08478e-07
4.62713e-10
-2.13019e-10
-2.52257e-10
-2.08491e-07
3.36402e-10
-1.75143e-10
-2.80254e-10
-2.08489e-07
3.52652e-10
-1.21614e-10
-3.06725e-10
-2.08499e-07
3.62405e-10
-6.06282e-11
-3.26426e-10
-2.08507e-07
3.74962e-10
2.28118e-12
-3.42792e-10
-2.08517e-07
3.91355e-10
6.49813e-11
-3.43128e-10
-2.08518e-07
3.91899e-10
1.26279e-10
-3.28523e-10
-2.0851e-07
3.78301e-10
1.81487e-10
-3.10171e-10
-2.08505e-07
3.67245e-10
2.21602e-10
-2.85993e-10
-2.08497e-07
3.60022e-10
2.68317e-10
-2.61148e-10
-2.08499e-07
3.46578e-10
3.00517e-10
-3.62711e-10
-2.08488e-07
4.73172e-10
-2.95492e-10
-2.08474e-07
3.77735e-10
3.81445e-10
-3.57456e-10
-2.48939e-10
-2.08479e-07
4.67374e-10
-3.01078e-10
-2.93453e-10
-2.08512e-07
-2.26788e-10
-2.20371e-10
-2.08521e-07
-1.70945e-10
-2.41039e-10
-2.0852e-07
-1.11495e-10
-2.66504e-10
-2.08525e-07
-5.47511e-11
-2.83573e-10
-2.0852e-07
8.18739e-13
-2.9587e-10
-2.08526e-07
5.6333e-11
-2.95415e-10
-2.08527e-07
1.13563e-10
-2.8533e-10
-2.08524e-07
1.74225e-10
-2.70313e-10
-2.0853e-07
2.33002e-10
-2.46672e-10
-2.08527e-07
3.10505e-10
-2.27983e-10
-2.0853e-07
3.68938e-10
-3.03273e-10
-2.08522e-07
-2.61912e-10
-2.0849e-07
4.78377e-10
-2.56104e-10
-2.01631e-10
-2.08492e-07
3.37976e-10
-2.28212e-10
-2.15079e-10
-2.08521e-07
-1.79203e-10
-1.66209e-10
-2.0852e-07
-1.41366e-10
-1.78797e-10
-2.08527e-07
-9.7219e-11
-2.04595e-10
-2.08537e-07
-5.14496e-11
-2.21986e-10
-2.08539e-07
-2.13982e-13
-2.36601e-10
-2.08551e-07
5.05773e-11
-2.35714e-10
-2.08552e-07
9.74296e-11
-2.24513e-10
-2.08543e-07
1.42731e-10
-2.09147e-10
-2.08543e-07
1.82779e-10
-1.8545e-10
-2.08534e-07
2.35027e-10
-1.73985e-10
-2.0853e-07
2.66096e-10
-2.24672e-10
-2.08532e-07
-2.13768e-10
-2.08503e-07
3.49593e-10
-2.83047e-10
-1.61215e-10
-2.08491e-07
3.52556e-10
-2.48904e-10
-1.55418e-10
-2.0852e-07
-1.91902e-10
-1.24564e-10
-2.08527e-07
-1.47913e-10
-1.3039e-10
-2.08535e-07
-1.0126e-10
-1.51712e-10
-2.08546e-07
-5.30669e-11
-1.65084e-10
-2.08545e-07
-9.81518e-13
-1.77985e-10
-2.08558e-07
5.04232e-11
-1.76962e-10
-2.08559e-07
9.94362e-11
-1.68758e-10
-2.08549e-07
1.47999e-10
-1.57663e-10
-2.08551e-07
1.94178e-10
-1.38285e-10
-2.08542e-07
2.53165e-10
-1.33467e-10
-2.08536e-07
2.90026e-10
-1.65729e-10
-2.08531e-07
-1.7351e-10
-2.08502e-07
3.62157e-10
-3.08979e-10
-1.05549e-10
-2.08501e-07
3.59883e-10
-2.74471e-10
-9.43069e-11
-2.08526e-07
-2.17862e-10
-7.7996e-11
-2.08537e-07
-1.69832e-10
-8.07459e-11
-2.08546e-07
-1.17012e-10
-9.58364e-11
-2.08559e-07
-6.14227e-11
-1.05056e-10
-2.0856e-07
-1.87722e-12
-1.15241e-10
-2.08576e-07
5.72485e-11
-1.14182e-10
-2.08576e-07
1.13664e-10
-1.10035e-10
-2.08563e-07
1.67981e-10
-1.03335e-10
-2.08565e-07
2.18112e-10
-9.0106e-11
-2.08553e-07
2.77189e-10
-8.89165e-11
-2.08546e-07
3.14179e-10
-1.05939e-10
-2.08536e-07
-1.19158e-10
-2.08512e-07
3.68071e-10
-3.27095e-10
-4.43602e-11
-2.08508e-07
3.69869e-10
-2.90619e-10
-3.69e-11
-2.08522e-07
-2.35356e-10
-3.12154e-11
-2.08541e-07
-1.83998e-10
-3.15552e-11
-2.08546e-07
-1.2752e-10
-3.939e-11
-2.08561e-07
-6.79552e-11
-4.43636e-11
-2.0856e-07
-5.00471e-12
-5.08139e-11
-2.08576e-07
5.80258e-11
-4.97589e-11
-2.08577e-07
1.1921e-10
-5.04677e-11
-2.08563e-07
1.78336e-10
-4.84092e-11
-2.08566e-07
2.33373e-10
-4.27012e-11
-2.08553e-07
2.9254e-10
-4.38835e-11
-2.08548e-07
3.32995e-10
-5.05764e-11
-2.08531e-07
-5.94719e-11
-2.08519e-07
3.79261e-10
-3.41513e-10
1.83651e-11
-2.0852e-07
3.82921e-10
-3.01619e-10
1.87168e-11
-2.08528e-07
-2.49236e-10
1.94895e-11
-2.08553e-07
-1.96237e-10
1.97017e-11
-2.08559e-07
-1.37025e-10
1.95445e-11
-2.08576e-07
-7.37611e-11
1.82588e-11
-2.08577e-07
-7.02029e-12
1.56819e-11
-2.08594e-07
6.00864e-11
1.66446e-11
-2.08594e-07
1.2538e-10
1.14223e-11
-2.08579e-07
1.87947e-10
9.50391e-12
-2.08581e-07
2.45812e-10
6.9821e-12
-2.08565e-07
3.03534e-10
5.2329e-12
-2.08561e-07
3.47847e-10
3.29408e-12
-2.08538e-07
1.78472e-12
-2.0853e-07
3.92994e-10
-3.41863e-10
7.89622e-11
-2.08521e-07
3.84827e-10
-3.00226e-10
7.16048e-11
-2.08529e-07
-2.47004e-10
6.81129e-11
-2.08553e-07
-1.93627e-10
6.90369e-11
-2.0856e-07
-1.34563e-10
7.71488e-11
-2.08577e-07
-7.17151e-11
8.00443e-11
-2.08577e-07
-5.49344e-12
8.17372e-11
-2.08594e-07
6.12367e-11
8.28675e-11
-2.08595e-07
1.26128e-10
7.38018e-11
-2.0858e-07
1.88523e-10
6.81994e-11
-2.08582e-07
2.4615e-10
5.80511e-11
-2.08566e-07
3.03429e-10
5.58334e-11
-2.08562e-07
3.46869e-10
5.87958e-11
-2.08538e-07
6.41643e-11
-2.08531e-07
3.91296e-10
-3.24307e-10
1.37481e-10
-2.08512e-07
3.68101e-10
-2.87626e-10
1.26229e-10
-2.08526e-07
-2.33384e-10
1.1265e-10
-2.08545e-07
-1.8365e-10
1.16157e-10
-2.08551e-07
-1.29538e-10
1.32019e-10
-2.08565e-07
-7.2436e-11
1.39783e-10
-2.08565e-07
-1.16464e-11
1.45791e-10
-2.0858e-07
5.04216e-11
1.47101e-10
-2.08581e-07
1.11214e-10
1.34388e-10
-2.08567e-07
1.71301e-10
1.24173e-10
-2.0857e-07
2.28108e-10
1.0695e-10
-2.08557e-07
2.8879e-10
1.02264e-10
-2.08552e-07
3.29913e-10
1.15915e-10
-2.08534e-07
1.25388e-10
-2.08522e-07
3.75723e-10
-3.04342e-10
1.89748e-10
-2.08508e-07
3.56206e-10
-2.70197e-10
1.84189e-10
-2.08533e-07
-2.15069e-10
1.55446e-10
-2.08545e-07
-1.69683e-10
1.63131e-10
-2.08554e-07
-1.20239e-10
1.85008e-10
-2.08567e-07
-6.83297e-11
1.97757e-10
-2.08568e-07
-1.22087e-11
2.07506e-10
-2.08582e-07
4.548e-11
2.09092e-10
-2.08583e-07
1.01295e-10
1.94071e-10
-2.0857e-07
1.56863e-10
1.79435e-10
-2.08571e-07
2.09615e-10
1.56226e-10
-2.08559e-07
2.70672e-10
1.48546e-10
-2.08551e-07
3.09123e-10
1.76768e-10
-2.08541e-07
1.80802e-10
-2.08517e-07
3.62448e-10
-2.77617e-10
2.26847e-10
-2.085e-07
3.4713e-10
-2.43714e-10
2.40523e-10
-2.0853e-07
-1.88048e-10
1.93155e-10
-2.08537e-07
-1.47219e-10
2.07677e-10
-2.08546e-07
-1.0505e-10
2.3407e-10
-2.08556e-07
-6.15783e-11
2.51467e-10
-2.08555e-07
-1.40875e-11
2.64204e-10
-2.08567e-07
3.56239e-11
2.65774e-10
-2.08568e-07
8.3778e-11
2.49956e-10
-2.08557e-07
1.33069e-10
2.31452e-10
-2.08559e-07
1.81431e-10
2.03806e-10
-2.0855e-07
2.43465e-10
1.89169e-10
-2.08543e-07
2.81374e-10
2.35903e-10
-2.08537e-07
2.20946e-10
-2.08508e-07
3.51694e-10
-2.49387e-10
2.70688e-10
-2.08503e-07
3.32003e-10
-2.21343e-10
3.15413e-10
-2.08534e-07
-1.74537e-10
2.43739e-10
-2.08533e-07
-1.4068e-10
2.64748e-10
-2.0854e-07
-1.01441e-10
2.91027e-10
-2.0855e-07
-6.08036e-11
3.0847e-10
-2.08552e-07
-1.4829e-11
3.20513e-10
-2.08563e-07
3.40688e-11
3.21579e-10
-2.08564e-07
7.97997e-11
3.08735e-10
-2.08554e-07
1.26047e-10
2.90955e-10
-2.08553e-07
1.67341e-10
2.64444e-10
-2.08543e-07
2.20636e-10
2.42009e-10
-2.08538e-07
2.51322e-10
3.13321e-10
-2.0854e-07
2.66806e-10
-2.0851e-07
3.33954e-10
-3.49227e-10
3.00159e-10
-2.08493e-07
4.57893e-10
-2.9422e-10
3.70968e-10
-2.08527e-07
-2.21708e-10
2.71549e-10
-2.08536e-07
-1.69594e-10
2.98956e-10
-2.08535e-07
-1.15777e-10
3.25793e-10
-2.0854e-07
-6.48324e-11
3.46036e-10
-2.08535e-07
-1.43785e-11
3.63683e-10
-2.08541e-07
3.93167e-11
3.63912e-10
-2.08541e-07
9.54112e-11
3.47468e-10
-2.08536e-07
1.55714e-10
3.27751e-10
-2.08542e-07
2.14791e-10
3.01081e-10
-2.08538e-07
2.92398e-10
2.72159e-10
-2.0854e-07
3.4953e-10
3.70826e-10
-2.08531e-07
2.97479e-10
-2.08499e-07
4.58608e-10
-2.79769e-10
-2.08479e-07
3.77996e-10
3.6042e-10
-2.51063e-10
-2.08495e-07
4.77695e-10
-2.09143e-10
-2.08508e-07
3.51168e-10
-1.75492e-10
-2.08507e-07
3.67032e-10
-1.27086e-10
-2.08517e-07
3.75925e-10
-7.2036e-11
-2.08523e-07
3.88972e-10
-1.44265e-11
-2.08534e-07
4.06911e-10
4.6765e-11
-2.08534e-07
4.0591e-10
1.06897e-10
-2.08525e-07
3.91049e-10
1.61466e-10
-2.08519e-07
3.79484e-10
2.01072e-10
-2.08509e-07
3.70305e-10
2.46818e-10
-2.08511e-07
3.53676e-10
2.77133e-10
-2.08499e-07
4.7942e-10
-2.08484e-07
3.5772e-10
3.77511e-10
-3.02522e-10
-3.01088e-10
-2.12071e-07
3.47041e-10
3.46528e-10
-2.69186e-10
-3.89575e-10
-2.12088e-07
4.48923e-10
-2.39855e-10
-3.13055e-10
-2.12087e-07
3.62087e-10
-1.98928e-10
-3.60712e-10
-2.12089e-07
4.07148e-10
-1.458e-10
-4.04847e-10
-2.12091e-07
4.3668e-10
-8.04695e-11
-4.33204e-10
-2.12093e-07
4.56037e-10
-7.94388e-12
-4.57433e-10
-2.12103e-07
4.80181e-10
6.63348e-11
-4.57409e-10
-2.12104e-07
4.79596e-10
1.34366e-10
-4.35332e-10
-2.12094e-07
4.60001e-10
1.91158e-10
-4.07303e-10
-2.12094e-07
4.42129e-10
2.36802e-10
-3.66966e-10
-2.12094e-07
4.16809e-10
2.71425e-10
-3.2345e-10
-2.12091e-07
3.75627e-10
3.08953e-10
-4.0317e-10
-2.12093e-07
4.65351e-10
-3.1829e-10
-2.12077e-07
3.66759e-10
3.55435e-10
-3.89434e-10
-2.65973e-10
-2.12088e-07
4.47864e-10
-3.43745e-10
-3.4116e-10
-2.12121e-07
-2.84478e-10
-2.87391e-10
-2.12116e-07
-2.20369e-10
-3.25502e-10
-2.12119e-07
-1.55101e-10
-3.6753e-10
-2.12114e-07
-8.47341e-11
-3.95336e-10
-2.12104e-07
-8.87839e-12
-4.17156e-10
-2.12109e-07
6.66895e-11
-4.1595e-10
-2.1211e-07
1.39239e-10
-3.96337e-10
-2.12106e-07
2.09929e-10
-3.70242e-10
-2.12117e-07
2.79365e-10
-3.30267e-10
-2.12123e-07
3.43095e-10
-2.94667e-10
-2.12122e-07
3.92901e-10
-3.51703e-10
-2.12127e-07
-2.7933e-10
-2.12095e-07
4.53549e-10
-3.11416e-10
-2.32139e-10
-2.12087e-07
3.57758e-10
-2.89708e-10
-2.77236e-10
-2.12117e-07
-2.51829e-10
-2.44556e-10
-2.12101e-07
-2.01475e-10
-2.75007e-10
-2.12109e-07
-1.4555e-10
-3.13884e-10
-2.12109e-07
-8.15124e-11
-3.38408e-10
-2.12106e-07
-9.09723e-12
-3.5953e-10
-2.12117e-07
6.24856e-11
-3.57527e-10
-2.12118e-07
1.27781e-10
-3.39586e-10
-2.12108e-07
1.88053e-10
-3.16719e-10
-2.12112e-07
2.43402e-10
-2.79772e-10
-2.12114e-07
2.86097e-10
-2.51157e-10
-2.12107e-07
3.13e-10
-2.86708e-10
-2.12123e-07
-2.43107e-10
-2.12094e-07
3.62979e-10
-3.57861e-10
-1.86804e-10
-2.12091e-07
4.00502e-10
-3.27839e-10
-2.08193e-10
-2.1212e-07
-2.83063e-10
-1.88664e-10
-2.1211e-07
-2.22222e-10
-2.08277e-10
-2.1212e-07
-1.57883e-10
-2.39022e-10
-2.12118e-07
-8.72162e-11
-2.58108e-10
-2.12111e-07
-9.61069e-12
-2.75861e-10
-2.12123e-07
6.72915e-11
-2.73696e-10
-2.12123e-07
1.39084e-10
-2.60707e-10
-2.12113e-07
2.06472e-10
-2.43176e-10
-2.12122e-07
2.71409e-10
-2.14113e-10
-2.12124e-07
3.2124e-10
-1.95552e-10
-2.12115e-07
3.56058e-10
-2.17153e-10
-2.12126e-07
-1.97219e-10
-2.12098e-07
4.0287e-10
-4.01225e-10
-1.31092e-10
-2.12092e-07
4.28685e-10
-3.70615e-10
-1.38996e-10
-2.12115e-07
-3.23951e-10
-1.282e-10
-2.12109e-07
-2.54532e-10
-1.4015e-10
-2.12119e-07
-1.80392e-10
-1.61831e-10
-2.1212e-07
-9.89301e-11
-1.75207e-10
-2.12114e-07
-1.09092e-11
-1.88496e-10
-2.12128e-07
7.71155e-11
-1.86307e-10
-2.12128e-07
1.60605e-10
-1.79293e-10
-2.12115e-07
2.38053e-10
-1.67937e-10
-2.12123e-07
3.11557e-10
-1.47987e-10
-2.12123e-07
3.62548e-10
-1.36352e-10
-2.12115e-07
3.97369e-10
-1.48488e-10
-2.12122e-07
-1.42795e-10
-2.12099e-07
4.29266e-10
-4.29719e-10
-6.42342e-11
-2.12094e-07
4.46458e-10
-3.98813e-10
-6.71796e-11
-2.12106e-07
-3.4871e-10
-6.30197e-11
-2.12107e-07
-2.7411e-10
-6.84727e-11
-2.12112e-07
-1.94707e-10
-7.96365e-11
-2.12114e-07
-1.0736e-10
-8.69362e-11
-2.12106e-07
-1.35483e-11
-9.51598e-11
-2.12121e-07
8.07711e-11
-9.30322e-11
-2.12121e-07
1.71024e-10
-9.23856e-11
-2.12107e-07
2.54805e-10
-8.76339e-11
-2.12117e-07
3.34809e-10
-7.85259e-11
-2.12116e-07
3.9053e-10
-7.40641e-11
-2.12112e-07
4.27468e-10
-7.85418e-11
-2.12112e-07
-7.7793e-11
-2.12101e-07
4.49105e-10
-4.53575e-10
7.63733e-12
-2.12105e-07
4.68102e-10
-4.20305e-10
6.94014e-12
-2.12111e-07
-3.69557e-10
8.09964e-12
-2.12119e-07
-2.91561e-10
8.28523e-12
-2.12124e-07
-2.07647e-10
7.93909e-12
-2.12129e-07
-1.15154e-10
6.22062e-12
-2.12121e-07
-1.6101e-11
3.14721e-12
-2.12136e-07
8.38635e-11
5.12907e-12
-2.12136e-07
1.79813e-10
-1.35861e-13
-2.12122e-07
2.68817e-10
-1.5705e-12
-2.12131e-07
3.53141e-10
-3.62548e-12
-2.12127e-07
4.10676e-10
-4.86077e-12
-2.12123e-07
4.50367e-10
-6.0976e-12
-2.12117e-07
-7.0903e-12
-2.12112e-07
4.6958e-10
-4.54063e-10
7.77874e-11
-2.12105e-07
4.69436e-10
-4.19552e-10
7.90508e-11
-2.12111e-07
-3.67751e-10
7.67019e-11
-2.12119e-07
-2.89177e-10
8.25483e-11
-2.12124e-07
-2.05003e-10
9.36957e-11
-2.12129e-07
-1.12599e-10
9.86107e-11
-2.12121e-07
-1.39257e-11
1.01432e-10
-2.12137e-07
8.58538e-11
1.03594e-10
-2.12137e-07
1.81603e-10
9.32009e-11
-2.12122e-07
2.70569e-10
8.5932e-11
-2.12131e-07
3.54672e-10
7.33631e-11
-2.12127e-07
4.11539e-10
6.67972e-11
-2.12123e-07
4.49784e-10
6.91397e-11
-2.12116e-07
6.65945e-11
-2.12112e-07
4.67697e-10
-4.28774e-10
1.41733e-10
-2.12096e-07
4.46037e-10
-3.97131e-10
1.47707e-10
-2.12108e-07
-3.47236e-10
1.38602e-10
-2.12109e-07
-2.73864e-10
1.51026e-10
-2.12114e-07
-1.96344e-10
1.73648e-10
-2.12117e-07
-1.11268e-10
1.86508e-10
-2.12108e-07
-1.97808e-11
1.95479e-10
-2.12123e-07
7.37244e-11
1.97758e-10
-2.12123e-07
1.63952e-10
1.8244e-10
-2.12109e-07
2.49078e-10
1.68853e-10
-2.12119e-07
3.30991e-10
1.45792e-10
-2.12118e-07
3.88732e-10
1.31992e-10
-2.12113e-07
4.25971e-10
1.4214e-10
-2.12113e-07
1.34561e-10
-2.12103e-07
4.47123e-10
-3.99052e-10
1.94113e-10
-2.12095e-07
4.27318e-10
-3.68426e-10
2.141e-10
-2.12119e-07
-3.21586e-10
1.95342e-10
-2.12114e-07
-2.53697e-10
2.15482e-10
-2.12123e-07
-1.82541e-10
2.48293e-10
-2.12125e-07
-1.04413e-10
2.68153e-10
-2.12118e-07
-1.97924e-11
2.82994e-10
-2.12131e-07
6.71268e-11
2.85516e-10
-2.12131e-07
1.50485e-10
2.664e-10
-2.12119e-07
2.29398e-10
2.47189e-10
-2.12126e-07
3.05444e-10
2.14646e-10
-2.12125e-07
3.59149e-10
1.93627e-10
-2.12117e-07
3.95656e-10
2.13414e-10
-2.12123e-07
1.91814e-10
-2.12101e-07
4.26941e-10
-3.56689e-10
2.36499e-10
-2.12095e-07
4.00648e-10
-3.25985e-10
2.80713e-10
-2.12125e-07
-2.81359e-10
2.47438e-10
-2.12115e-07
-2.21773e-10
2.77749e-10
-2.12126e-07
-1.60361e-10
3.19874e-10
-2.12124e-07
-9.36476e-11
3.46075e-10
-2.12117e-07
-2.08833e-11
3.65946e-10
-2.12128e-07
5.47343e-11
3.68478e-10
-2.12128e-07
1.27149e-10
3.46809e-10
-2.12117e-07
1.96719e-10
3.2231e-10
-2.12125e-07
2.64574e-10
2.81307e-10
-2.12128e-07
3.15586e-10
2.50592e-10
-2.12118e-07
3.51083e-10
2.82977e-10
-2.12129e-07
2.37549e-10
-2.121e-07
3.97227e-10
-3.10858e-10
2.68963e-10
-2.12093e-07
3.58125e-10
-2.87372e-10
3.42794e-10
-2.12124e-07
-2.49769e-10
2.88337e-10
-2.12109e-07
-2.00697e-10
3.26381e-10
-2.12117e-07
-1.46682e-10
3.70013e-10
-2.12116e-07
-8.73123e-11
4.00189e-10
-2.12113e-07
-2.07348e-11
4.22168e-10
-2.12124e-07
4.94819e-11
4.2417e-10
-2.12124e-07
1.15066e-10
4.02568e-10
-2.12114e-07
1.77126e-10
3.74389e-10
-2.12117e-07
2.34932e-10
3.31612e-10
-2.12118e-07
2.78215e-10
2.93861e-10
-2.12111e-07
3.03695e-10
3.46786e-10
-2.12127e-07
2.71178e-10
-2.12098e-07
3.5218e-10
-3.8829e-10
3.04793e-10
-2.12095e-07
4.46809e-10
-3.42345e-10
3.91128e-10
-2.12129e-07
-2.83505e-10
3.14206e-10
-2.12125e-07
-2.19774e-10
3.60736e-10
-2.12128e-07
-1.55674e-10
4.04021e-10
-2.12123e-07
-8.93658e-11
4.35123e-10
-2.12113e-07
-1.95278e-11
4.60425e-10
-2.12118e-07
5.48428e-11
4.60791e-10
-2.12117e-07
1.27628e-10
4.37478e-10
-2.12113e-07
1.97843e-10
4.09105e-10
-2.12124e-07
2.67655e-10
3.661e-10
-2.12129e-07
3.31768e-10
3.19466e-10
-2.12127e-07
3.79778e-10
3.95874e-10
-2.12132e-07
3.06898e-10
-2.12099e-07
4.38665e-10
-3.0058e-10
-2.1208e-07
3.50808e-10
3.45905e-10
-2.67682e-10
-2.12097e-07
4.50926e-10
-2.38e-10
-2.12096e-07
3.6307e-10
-1.9828e-10
-2.121e-07
4.06306e-10
-1.48793e-10
-2.12101e-07
4.34327e-10
-8.68539e-11
-2.12103e-07
4.55256e-10
-1.83583e-11
-2.12113e-07
4.78522e-10
5.39084e-11
-2.12113e-07
4.77394e-10
1.21337e-10
-2.12103e-07
4.56896e-10
1.77915e-10
-2.12102e-07
4.39228e-10
2.23256e-10
-2.12101e-07
4.11156e-10
2.56338e-10
-2.12098e-07
3.67494e-10
2.90499e-10
-2.12099e-07
4.55386e-10
-2.12082e-07
3.34817e-10
3.51784e-10
-2.53383e-10
-2.53395e-10
-2.15379e-07
2.75206e-10
2.73802e-10
-2.35339e-10
-3.56236e-10
-2.15373e-07
3.77837e-10
-2.05977e-10
-2.91111e-10
-2.15361e-07
3.1141e-10
-1.83731e-10
-3.54113e-10
-2.15344e-07
3.80964e-10
-1.39434e-10
-4.1009e-10
-2.15338e-07
4.26096e-10
-8.10395e-11
-4.46658e-10
-2.15331e-07
4.56487e-10
-1.41047e-11
-4.78587e-10
-2.15338e-07
4.88168e-10
5.44782e-11
-4.76753e-10
-2.15338e-07
4.86129e-10
1.15874e-10
-4.48511e-10
-2.1533e-07
4.60801e-10
1.65335e-10
-4.13087e-10
-2.15338e-07
4.32928e-10
1.93273e-10
-3.60716e-10
-2.15344e-07
3.9244e-10
2.28287e-10
-3.01122e-10
-2.15362e-07
3.25715e-10
2.50328e-10
-3.70408e-10
-2.15374e-07
3.94898e-10
-2.7036e-10
-2.15381e-07
2.93725e-10
2.72786e-10
-3.54999e-10
-2.3372e-10
-2.15372e-07
3.76245e-10
-3.37524e-10
-3.37136e-10
-2.15378e-07
-2.79565e-10
-2.91951e-10
-2.15361e-07
-2.29315e-10
-3.39108e-10
-2.1534e-07
-1.64824e-10
-3.92181e-10
-2.15326e-07
-9.23389e-11
-4.24552e-10
-2.15305e-07
-1.53198e-11
-4.51857e-10
-2.15307e-07
6.23497e-11
-4.497e-10
-2.15307e-07
1.37638e-10
-4.25026e-10
-2.15305e-07
2.07713e-10
-3.93089e-10
-2.15326e-07
2.64041e-10
-3.42466e-10
-2.15341e-07
3.27949e-10
-2.98046e-10
-2.15361e-07
3.4982e-10
-3.47369e-10
-2.15379e-07
-2.47064e-10
-2.15374e-07
3.73682e-10
-2.88324e-10
-2.00721e-10
-2.15362e-07
3.07671e-10
-2.92332e-10
-2.74654e-10
-2.15361e-07
-2.52563e-10
-2.47169e-10
-2.15332e-07
-2.10001e-10
-2.8382e-10
-2.15315e-07
-1.52764e-10
-3.31331e-10
-2.15303e-07
-8.7295e-11
-3.59404e-10
-2.15289e-07
-1.56127e-11
-3.83488e-10
-2.15297e-07
5.59916e-11
-3.80628e-10
-2.15297e-07
1.23682e-10
-3.59398e-10
-2.15289e-07
1.85693e-10
-3.31956e-10
-2.15304e-07
2.33849e-10
-2.86325e-10
-2.15316e-07
2.7982e-10
-2.51692e-10
-2.15333e-07
2.81137e-10
-2.81975e-10
-2.15362e-07
-2.10817e-10
-2.15363e-07
3.04614e-10
-3.50296e-10
-1.741e-10
-2.15345e-07
3.75103e-10
-3.39303e-10
-2.19651e-10
-2.15341e-07
-2.89579e-10
-1.99757e-10
-2.15315e-07
-2.35658e-10
-2.24988e-10
-2.15299e-07
-1.69569e-10
-2.62667e-10
-2.15285e-07
-9.54836e-11
-2.84812e-10
-2.15266e-07
-1.5649e-11
-3.04532e-10
-2.15274e-07
6.39317e-11
-3.01246e-10
-2.15274e-07
1.39919e-10
-2.85401e-10
-2.15267e-07
2.09968e-10
-2.64145e-10
-2.15286e-07
2.68764e-10
-2.28032e-10
-2.153e-07
3.24088e-10
-2.04449e-10
-2.15317e-07
3.40079e-10
-2.25737e-10
-2.15343e-07
-1.82741e-10
-2.15347e-07
3.69541e-10
-4.06172e-10
-1.2581e-10
-2.15339e-07
4.18481e-10
-3.93268e-10
-1.51589e-10
-2.15327e-07
-3.3826e-10
-1.38839e-10
-2.15304e-07
-2.74333e-10
-1.5551e-10
-2.15286e-07
-1.96431e-10
-1.81657e-10
-2.15275e-07
-1.08997e-10
-1.96971e-10
-2.15257e-07
-1.61002e-11
-2.11571e-10
-2.15267e-07
7.66014e-11
-2.08183e-10
-2.15267e-07
1.65749e-10
-1.98724e-10
-2.15258e-07
2.47057e-10
-1.8453e-10
-2.15277e-07
3.15476e-10
-1.59745e-10
-2.15287e-07
3.75733e-10
-1.44629e-10
-2.15305e-07
3.93735e-10
-1.58295e-10
-2.15328e-07
-1.34972e-10
-2.1534e-07
4.11008e-10
-4.42516e-10
-6.5694e-11
-2.15332e-07
4.46795e-10
-4.26701e-10
-7.7694e-11
-2.15307e-07
-3.67351e-10
-7.17515e-11
-2.15291e-07
-2.97307e-10
-7.99496e-11
-2.15267e-07
-2.12511e-10
-9.29031e-11
-2.15258e-07
-1.17432e-10
-1.00608e-10
-2.15238e-07
-1.75557e-11
-1.0939e-10
-2.15248e-07
8.23956e-11
-1.06127e-10
-2.15247e-07
1.79542e-10
-1.03568e-10
-2.15238e-07
2.68138e-10
-9.72996e-11
-2.15259e-07
3.4329e-10
-8.57261e-11
-2.15268e-07
4.08459e-10
-7.89315e-11
-2.15292e-07
4.29897e-10
-8.57307e-11
-2.15309e-07
-7.60649e-11
-2.15334e-07
4.39375e-10
-4.7467e-10
3.96602e-13
-2.1534e-07
4.77316e-10
-4.54757e-10
-1.06679e-12
-2.15309e-07
-3.91951e-10
-1.65438e-13
-2.15299e-07
-3.17301e-10
-2.55427e-13
-2.15275e-07
-2.27132e-10
-3.19232e-13
-2.15268e-07
-1.25965e-10
-1.07849e-12
-2.15248e-07
-2.02431e-11
-4.01886e-12
-2.15258e-07
8.60036e-11
-1.15158e-12
-2.15258e-07
1.89762e-10
-5.22888e-12
-2.15248e-07
2.84314e-10
-6.2316e-12
-2.15268e-07
3.64773e-10
-7.58203e-12
-2.15276e-07
4.34088e-10
-8.52364e-12
-2.153e-07
4.60184e-10
-9.94202e-12
-2.15311e-07
-1.05035e-11
-2.15342e-07
4.68325e-10
-4.74734e-10
6.56991e-11
-2.15339e-07
4.76967e-10
-4.54298e-10
7.42728e-11
-2.15308e-07
-3.90448e-10
6.94066e-11
-2.15299e-07
-3.14945e-10
7.75463e-11
-2.15275e-07
-2.24177e-10
9.06964e-11
-2.15268e-07
-1.22672e-10
9.74673e-11
-2.15248e-07
-1.72607e-11
1.01112e-10
-2.15258e-07
8.88095e-11
1.03863e-10
-2.15258e-07
1.9258e-10
9.38189e-11
-2.15248e-07
2.87007e-10
8.59111e-11
-2.15268e-07
3.67015e-10
7.20814e-11
-2.15275e-07
4.35663e-10
6.39078e-11
-2.153e-07
4.60688e-10
6.89369e-11
-2.1531e-07
5.89369e-11
-2.15342e-07
4.6704e-10
-4.42924e-10
1.22674e-10
-2.15332e-07
4.47418e-10
-4.26668e-10
1.45649e-10
-2.15307e-07
-3.6655e-10
1.33562e-10
-2.15291e-07
-2.96746e-10
1.50814e-10
-2.15268e-07
-2.12929e-10
1.77723e-10
-2.15259e-07
-1.19271e-10
1.92983e-10
-2.15239e-07
-2.17567e-11
2.03851e-10
-2.15248e-07
7.7142e-11
2.06553e-10
-2.15248e-07
1.74448e-10
1.90737e-10
-2.15239e-07
2.63855e-10
1.75225e-10
-2.15259e-07
3.40193e-10
1.48403e-10
-2.15269e-07
4.07165e-10
1.31957e-10
-2.15292e-07
4.30153e-10
1.44742e-10
-2.15309e-07
1.21198e-10
-2.15334e-07
4.3957e-10
-4.06768e-10
1.67133e-10
-2.15339e-07
4.19576e-10
-3.93352e-10
2.11067e-10
-2.15328e-07
-3.37391e-10
1.91578e-10
-2.15305e-07
-2.73558e-10
2.17959e-10
-2.15287e-07
-1.96783e-10
2.56922e-10
-2.15277e-07
-1.11338e-10
2.79954e-10
-2.15259e-07
-2.16478e-11
2.976e-10
-2.15268e-07
6.9787e-11
3.00274e-10
-2.15268e-07
1.58993e-10
2.79726e-10
-2.15259e-07
2.41325e-10
2.57551e-10
-2.15277e-07
3.11484e-10
2.19681e-10
-2.15287e-07
3.74139e-10
1.94843e-10
-2.15305e-07
3.93622e-10
2.15466e-10
-2.15328e-07
1.71493e-10
-2.15341e-07
4.10599e-10
-3.52078e-10
1.90716e-10
-2.15345e-07
3.78413e-10
-3.39414e-10
2.63702e-10
-2.15342e-07
-2.88597e-10
2.36647e-10
-2.15317e-07
-2.34745e-10
2.74425e-10
-2.15301e-07
-1.69758e-10
3.23417e-10
-2.15288e-07
-9.79921e-11
3.53307e-10
-2.15269e-07
-2.17293e-11
3.76884e-10
-2.15276e-07
5.65982e-11
3.79252e-10
-2.15275e-07
1.32161e-10
3.55018e-10
-2.15269e-07
2.0287e-10
3.27002e-10
-2.15287e-07
2.63331e-10
2.79905e-10
-2.15301e-07
3.20856e-10
2.43986e-10
-2.15317e-07
3.37743e-10
2.72425e-10
-2.15343e-07
1.99849e-10
-2.15347e-07
3.66068e-10
-2.90217e-10
2.23484e-10
-2.15363e-07
3.10662e-10