/*--------------------------------*- C++ -*----------------------------------*\
| =========                 |                                                 |
| \\      /  F ield         | OpenFOAM: The Open Source CFD Toolbox           |
|  \\    /   O peration     | Version:  v2106                                 |
|   \\  /    A nd           | Website:  www.openfoam.com                      |
|    \\/     M anipulation  |                                                 |
\*---------------------------------------------------------------------------*/
FoamFile
{
    version     2.0;
    format      ascii;
    arch        "LSB;label=32;scalar=64";
    class       volScalarField;
    location    "0.000142";
    object      alphat;
}
// * * * * * * * * * * * * * * * * * * * * * * * * * * * * * * * * * * * * * //

dimensions      [1 -1 -1 0 0 0 0];

internalField   nonuniform List<scalar> 
17920
(
9.33119e-17
9.33113e-17
9.33127e-17
9.33121e-17
9.33134e-17
9.33129e-17
9.33141e-17
9.33135e-17
9.33146e-17
9.3314e-17
9.3315e-17
9.33143e-17
9.33152e-17
9.33146e-17
9.33153e-17
9.33147e-17
9.33153e-17
9.33147e-17
9.33152e-17
9.33146e-17
9.3315e-17
9.33143e-17
9.33146e-17
9.3314e-17
9.33141e-17
9.33135e-17
9.33136e-17
9.3313e-17
9.32133e-17
9.32142e-17
9.32152e-17
9.3216e-17
9.32166e-17
9.3217e-17
9.32173e-17
9.32174e-17
9.32174e-17
9.32171e-17
9.32166e-17
9.3216e-17
9.32151e-17
9.32143e-17
9.32144e-17
9.32154e-17
9.32164e-17
9.32172e-17
9.32179e-17
9.32183e-17
9.32186e-17
9.32187e-17
9.32186e-17
9.32183e-17
9.32178e-17
9.32171e-17
9.32163e-17
9.32154e-17
9.32155e-17
9.32165e-17
9.32176e-17
9.32184e-17
9.3219e-17
9.32195e-17
9.32198e-17
9.32199e-17
9.32198e-17
9.32195e-17
9.32189e-17
9.32183e-17
9.32173e-17
9.32164e-17
9.32164e-17
9.32174e-17
9.32185e-17
9.32193e-17
9.322e-17
9.32205e-17
9.32208e-17
9.32209e-17
9.32207e-17
9.32204e-17
9.32199e-17
9.32191e-17
9.32182e-17
9.32172e-17
9.32171e-17
9.32182e-17
9.32193e-17
9.32201e-17
9.32208e-17
9.32213e-17
9.32216e-17
9.32216e-17
9.32215e-17
9.32212e-17
9.32206e-17
9.32199e-17
9.32189e-17
9.32179e-17
9.32176e-17
9.32187e-17
9.32198e-17
9.32207e-17
9.32214e-17
9.32218e-17
9.32221e-17
9.32222e-17
9.32221e-17
9.32217e-17
9.32212e-17
9.32205e-17
9.32195e-17
9.32184e-17
9.32179e-17
9.32191e-17
9.32202e-17
9.3221e-17
9.32217e-17
9.32222e-17
9.32225e-17
9.32226e-17
9.32224e-17
9.32221e-17
9.32215e-17
9.32208e-17
9.32199e-17
9.32188e-17
9.32181e-17
9.32193e-17
9.32203e-17
9.32212e-17
9.32219e-17
9.32224e-17
9.32227e-17
9.32227e-17
9.32226e-17
9.32223e-17
9.32217e-17
9.3221e-17
9.32201e-17
9.3219e-17
9.3218e-17
9.32192e-17
9.32203e-17
9.32211e-17
9.32218e-17
9.32223e-17
9.32226e-17
9.32227e-17
9.32225e-17
9.32222e-17
9.32217e-17
9.3221e-17
9.322e-17
9.3219e-17
9.32177e-17
9.32189e-17
9.322e-17
9.32209e-17
9.32216e-17
9.3222e-17
9.32223e-17
9.32224e-17
9.32223e-17
9.32219e-17
9.32214e-17
9.32207e-17
9.32198e-17
9.32188e-17
9.32173e-17
9.32185e-17
9.32196e-17
9.32204e-17
9.32211e-17
9.32216e-17
9.32219e-17
9.3222e-17
9.32218e-17
9.32215e-17
9.3221e-17
9.32203e-17
9.32194e-17
9.32184e-17
9.32168e-17
9.32179e-17
9.3219e-17
9.32198e-17
9.32205e-17
9.3221e-17
9.32212e-17
9.32213e-17
9.32212e-17
9.32209e-17
9.32203e-17
9.32196e-17
9.32188e-17
9.32178e-17
9.3216e-17
9.32171e-17
9.32181e-17
9.3219e-17
9.32196e-17
9.32201e-17
9.32204e-17
9.32205e-17
9.32203e-17
9.322e-17
9.32195e-17
9.32188e-17
9.3218e-17
9.32171e-17
9.32153e-17
9.32163e-17
9.32173e-17
9.32181e-17
9.32187e-17
9.32192e-17
9.32194e-17
9.32195e-17
9.32193e-17
9.3219e-17
9.32186e-17
9.32179e-17
9.32171e-17
9.32163e-17
9.31164e-17
9.31173e-17
9.31182e-17
9.3119e-17
9.31196e-17
9.31201e-17
9.31204e-17
9.31205e-17
9.31204e-17
9.31201e-17
9.31197e-17
9.3119e-17
9.31182e-17
9.31173e-17
9.31176e-17
9.31185e-17
9.31195e-17
9.31203e-17
9.3121e-17
9.31214e-17
9.31217e-17
9.31218e-17
9.31217e-17
9.31214e-17
9.31209e-17
9.31202e-17
9.31193e-17
9.31184e-17
9.31187e-17
9.31197e-17
9.31207e-17
9.31215e-17
9.31222e-17
9.31227e-17
9.3123e-17
9.31231e-17
9.31229e-17
9.31226e-17
9.31221e-17
9.31213e-17
9.31204e-17
9.31194e-17
9.31195e-17
9.31206e-17
9.31217e-17
9.31225e-17
9.31232e-17
9.31237e-17
9.3124e-17
9.31241e-17
9.31239e-17
9.31236e-17
9.3123e-17
9.31223e-17
9.31213e-17
9.31202e-17
9.31202e-17
9.31214e-17
9.31225e-17
9.31233e-17
9.31241e-17
9.31245e-17
9.31248e-17
9.31249e-17
9.31248e-17
9.31244e-17
9.31238e-17
9.3123e-17
9.3122e-17
9.31209e-17
9.31207e-17
9.31219e-17
9.31231e-17
9.31239e-17
9.31247e-17
9.31251e-17
9.31254e-17
9.31255e-17
9.31254e-17
9.3125e-17
9.31244e-17
9.31236e-17
9.31226e-17
9.31215e-17
9.3121e-17
9.31223e-17
9.31234e-17
9.31243e-17
9.3125e-17
9.31255e-17
9.31258e-17
9.31259e-17
9.31257e-17
9.31254e-17
9.31248e-17
9.3124e-17
9.3123e-17
9.31219e-17
9.31212e-17
9.31225e-17
9.31236e-17
9.31245e-17
9.31252e-17
9.31257e-17
9.3126e-17
9.31261e-17
9.31259e-17
9.31256e-17
9.3125e-17
9.31242e-17
9.31232e-17
9.31221e-17
9.31211e-17
9.31224e-17
9.31235e-17
9.31244e-17
9.31252e-17
9.31257e-17
9.3126e-17
9.31261e-17
9.31259e-17
9.31255e-17
9.31249e-17
9.31242e-17
9.31232e-17
9.31221e-17
9.31209e-17
9.31221e-17
9.31233e-17
9.31242e-17
9.31249e-17
9.31254e-17
9.31257e-17
9.31258e-17
9.31256e-17
9.31252e-17
9.31247e-17
9.31239e-17
9.3123e-17
9.31219e-17
9.31205e-17
9.31217e-17
9.31228e-17
9.31237e-17
9.31244e-17
9.31249e-17
9.31252e-17
9.31253e-17
9.31251e-17
9.31248e-17
9.31242e-17
9.31235e-17
9.31225e-17
9.31215e-17
9.31199e-17
9.31211e-17
9.31222e-17
9.31231e-17
9.31238e-17
9.31243e-17
9.31245e-17
9.31246e-17
9.31244e-17
9.31241e-17
9.31236e-17
9.31228e-17
9.31219e-17
9.3121e-17
9.31192e-17
9.31203e-17
9.31214e-17
9.31222e-17
9.31229e-17
9.31234e-17
9.31237e-17
9.31237e-17
9.31235e-17
9.31232e-17
9.31227e-17
9.3122e-17
9.31211e-17
9.31202e-17
9.31185e-17
9.31196e-17
9.31206e-17
9.31214e-17
9.3122e-17
9.31224e-17
9.31226e-17
9.31227e-17
9.31225e-17
9.31222e-17
9.31217e-17
9.31211e-17
9.31203e-17
9.31194e-17
9.30202e-17
9.30209e-17
9.30216e-17
9.30221e-17
9.30226e-17
9.30229e-17
9.30231e-17
9.30232e-17
9.30231e-17
9.30229e-17
9.30226e-17
9.30222e-17
9.30216e-17
9.30209e-17
9.30211e-17
9.30218e-17
9.30225e-17
9.30231e-17
9.30236e-17
9.30239e-17
9.30242e-17
9.30242e-17
9.30242e-17
9.30239e-17
9.30235e-17
9.3023e-17
9.30224e-17
9.30218e-17
9.30219e-17
9.30226e-17
9.30234e-17
9.3024e-17
9.30245e-17
9.30249e-17
9.30251e-17
9.30251e-17
9.30251e-17
9.30248e-17
9.30244e-17
9.30239e-17
9.30232e-17
9.30225e-17
9.30226e-17
9.30234e-17
9.30242e-17
9.30248e-17
9.30253e-17
9.30256e-17
9.30259e-17
9.30259e-17
9.30258e-17
9.30256e-17
9.30252e-17
9.30246e-17
9.30239e-17
9.30232e-17
9.30231e-17
9.3024e-17
9.30248e-17
9.30254e-17
9.30259e-17
9.30263e-17
9.30265e-17
9.30266e-17
9.30265e-17
9.30262e-17
9.30258e-17
9.30252e-17
9.30245e-17
9.30237e-17
9.30235e-17
9.30244e-17
9.30252e-17
9.30259e-17
9.30264e-17
9.30268e-17
9.3027e-17
9.3027e-17
9.30269e-17
9.30267e-17
9.30262e-17
9.30257e-17
9.3025e-17
9.30241e-17
9.30237e-17
9.30247e-17
9.30255e-17
9.30262e-17
9.30267e-17
9.30271e-17
9.30273e-17
9.30274e-17
9.30273e-17
9.3027e-17
9.30266e-17
9.3026e-17
9.30253e-17
9.30244e-17
9.30239e-17
9.30248e-17
9.30256e-17
9.30263e-17
9.30269e-17
9.30273e-17
9.30275e-17
9.30275e-17
9.30274e-17
9.30272e-17
9.30267e-17
9.30262e-17
9.30255e-17
9.30246e-17
9.30238e-17
9.30248e-17
9.30257e-17
9.30263e-17
9.30269e-17
9.30273e-17
9.30275e-17
9.30275e-17
9.30274e-17
9.30272e-17
9.30268e-17
9.30262e-17
9.30255e-17
9.30246e-17
9.30237e-17
9.30247e-17
9.30255e-17
9.30262e-17
9.30267e-17
9.30271e-17
9.30273e-17
9.30274e-17
9.30273e-17
9.3027e-17
9.30266e-17
9.30261e-17
9.30253e-17
9.30245e-17
9.30235e-17
9.30244e-17
9.30252e-17
9.30259e-17
9.30264e-17
9.30268e-17
9.3027e-17
9.30271e-17
9.3027e-17
9.30267e-17
9.30263e-17
9.30258e-17
9.30251e-17
9.30243e-17
9.30231e-17
9.3024e-17
9.30248e-17
9.30255e-17
9.3026e-17
9.30263e-17
9.30265e-17
9.30266e-17
9.30265e-17
9.30262e-17
9.30258e-17
9.30253e-17
9.30246e-17
9.30239e-17
9.30226e-17
9.30234e-17
9.30242e-17
9.30249e-17
9.30254e-17
9.30257e-17
9.30259e-17
9.3026e-17
9.30259e-17
9.30256e-17
9.30252e-17
9.30247e-17
9.30241e-17
9.30234e-17
9.30221e-17
9.30229e-17
9.30237e-17
9.30243e-17
9.30247e-17
9.3025e-17
9.30252e-17
9.30252e-17
9.30251e-17
9.30249e-17
9.30245e-17
9.30241e-17
9.30235e-17
9.30228e-17
9.29268e-17
9.29271e-17
9.29274e-17
9.29276e-17
9.29278e-17
9.29279e-17
9.2928e-17
9.2928e-17
9.2928e-17
9.29279e-17
9.29278e-17
9.29277e-17
9.29275e-17
9.29272e-17
9.29273e-17
9.29275e-17
9.29278e-17
9.2928e-17
9.29282e-17
9.29284e-17
9.29285e-17
9.29285e-17
9.29285e-17
9.29284e-17
9.29283e-17
9.29281e-17
9.29279e-17
9.29276e-17
9.29276e-17
9.29279e-17
9.29282e-17
9.29284e-17
9.29286e-17
9.29288e-17
9.29288e-17
9.29289e-17
9.29289e-17
9.29288e-17
9.29287e-17
9.29285e-17
9.29282e-17
9.2928e-17
9.29279e-17
9.29282e-17
9.29285e-17
9.29287e-17
9.2929e-17
9.29291e-17
9.29292e-17
9.29292e-17
9.29292e-17
9.29291e-17
9.2929e-17
9.29288e-17
9.29285e-17
9.29283e-17
9.29281e-17
9.29285e-17
9.29288e-17
9.2929e-17
9.29292e-17
9.29294e-17
9.29295e-17
9.29295e-17
9.29295e-17
9.29294e-17
9.29293e-17
9.29291e-17
9.29288e-17
9.29285e-17
9.29283e-17
9.29287e-17
9.2929e-17
9.29293e-17
9.29295e-17
9.29296e-17
9.29297e-17
9.29298e-17
9.29298e-17
9.29297e-17
9.29295e-17
9.29293e-17
9.2929e-17
9.29287e-17
9.29284e-17
9.29288e-17
9.29292e-17
9.29294e-17
9.29297e-17
9.29298e-17
9.29299e-17
9.293e-17
9.29299e-17
9.29299e-17
9.29297e-17
9.29295e-17
9.29292e-17
9.29289e-17
9.29285e-17
9.29289e-17
9.29293e-17
9.29296e-17
9.29298e-17
9.29299e-17
9.29301e-17
9.29301e-17
9.29301e-17
9.293e-17
9.29298e-17
9.29296e-17
9.29293e-17
9.2929e-17
9.29286e-17
9.2929e-17
9.29293e-17
9.29296e-17
9.29298e-17
9.293e-17
9.29301e-17
9.29301e-17
9.29301e-17
9.293e-17
9.29299e-17
9.29297e-17
9.29294e-17
9.2929e-17
9.29286e-17
9.2929e-17
9.29293e-17
9.29296e-17
9.29298e-17
9.293e-17
9.29301e-17
9.29301e-17
9.29301e-17
9.293e-17
9.29299e-17
9.29297e-17
9.29294e-17
9.29291e-17
9.29285e-17
9.29289e-17
9.29293e-17
9.29295e-17
9.29298e-17
9.29299e-17
9.293e-17
9.29301e-17
9.293e-17
9.293e-17
9.29298e-17
9.29296e-17
9.29293e-17
9.2929e-17
9.29284e-17
9.29288e-17
9.29292e-17
9.29294e-17
9.29297e-17
9.29298e-17
9.29299e-17
9.29299e-17
9.29299e-17
9.29298e-17
9.29297e-17
9.29295e-17
9.29292e-17
9.29289e-17
9.29283e-17
9.29287e-17
9.2929e-17
9.29293e-17
9.29295e-17
9.29296e-17
9.29297e-17
9.29298e-17
9.29297e-17
9.29296e-17
9.29295e-17
9.29293e-17
9.2929e-17
9.29288e-17
9.29281e-17
9.29285e-17
9.29288e-17
9.29291e-17
9.29292e-17
9.29294e-17
9.29294e-17
9.29295e-17
9.29294e-17
9.29294e-17
9.29293e-17
9.29291e-17
9.29289e-17
9.29286e-17
9.28387e-17
9.28385e-17
9.28383e-17
9.28382e-17
9.28381e-17
9.28381e-17
9.2838e-17
9.2838e-17
9.2838e-17
9.28381e-17
9.28382e-17
9.28383e-17
9.28385e-17
9.28387e-17
9.28385e-17
9.28383e-17
9.28382e-17
9.28381e-17
9.2838e-17
9.2838e-17
9.28379e-17
9.28379e-17
9.2838e-17
9.2838e-17
9.28381e-17
9.28382e-17
9.28384e-17
9.28385e-17
9.28384e-17
9.28382e-17
9.28381e-17
9.2838e-17
9.28379e-17
9.28378e-17
9.28378e-17
9.28378e-17
9.28379e-17
9.28379e-17
9.2838e-17
9.28381e-17
9.28383e-17
9.28384e-17
9.28383e-17
9.28381e-17
9.2838e-17
9.28379e-17
9.28378e-17
9.28378e-17
9.28378e-17
9.28378e-17
9.28378e-17
9.28379e-17
9.2838e-17
9.28381e-17
9.28382e-17
9.28384e-17
9.28382e-17
9.28381e-17
9.28379e-17
9.28379e-17
9.28378e-17
9.28377e-17
9.28377e-17
9.28377e-17
9.28378e-17
9.28378e-17
9.28379e-17
9.2838e-17
9.28382e-17
9.28383e-17
9.28382e-17
9.28381e-17
9.28379e-17
9.28378e-17
9.28378e-17
9.28377e-17
9.28377e-17
9.28377e-17
9.28377e-17
9.28378e-17
9.28379e-17
9.2838e-17
9.28382e-17
9.28383e-17
9.28382e-17
9.28381e-17
9.28379e-17
9.28378e-17
9.28378e-17
9.28377e-17
9.28377e-17
9.28377e-17
9.28378e-17
9.28378e-17
9.28379e-17
9.2838e-17
9.28382e-17
9.28383e-17
9.28382e-17
9.28381e-17
9.2838e-17
9.28379e-17
9.28378e-17
9.28378e-17
9.28377e-17
9.28378e-17
9.28378e-17
9.28379e-17
9.2838e-17
9.28381e-17
9.28382e-17
9.28383e-17
9.28383e-17
9.28382e-17
9.28381e-17
9.2838e-17
9.28379e-17
9.28379e-17
9.28378e-17
9.28378e-17
9.28379e-17
9.28379e-17
9.2838e-17
9.28381e-17
9.28383e-17
9.28384e-17
9.28384e-17
9.28383e-17
9.28382e-17
9.28381e-17
9.2838e-17
9.2838e-17
9.28379e-17
9.28379e-17
9.2838e-17
9.2838e-17
9.28381e-17
9.28382e-17
9.28384e-17
9.28385e-17
9.28385e-17
9.28384e-17
9.28383e-17
9.28382e-17
9.28381e-17
9.28381e-17
9.28381e-17
9.28381e-17
9.28381e-17
9.28382e-17
9.28383e-17
9.28384e-17
9.28385e-17
9.28386e-17
9.28387e-17
9.28386e-17
9.28384e-17
9.28383e-17
9.28383e-17
9.28382e-17
9.28382e-17
9.28382e-17
9.28383e-17
9.28383e-17
9.28384e-17
9.28385e-17
9.28386e-17
9.28387e-17
9.28389e-17
9.28387e-17
9.28386e-17
9.28385e-17
9.28385e-17
9.28384e-17
9.28384e-17
9.28384e-17
9.28385e-17
9.28385e-17
9.28386e-17
9.28387e-17
9.28388e-17
9.28389e-17
9.28391e-17
9.28389e-17
9.28388e-17
9.28387e-17
9.28386e-17
9.28386e-17
9.28386e-17
9.28386e-17
9.28386e-17
9.28387e-17
9.28387e-17
9.28389e-17
9.2839e-17
9.28391e-17
9.27572e-17
9.27568e-17
9.27564e-17
9.27561e-17
9.27559e-17
9.27557e-17
9.27556e-17
9.27556e-17
9.27556e-17
9.27557e-17
9.27558e-17
9.27561e-17
9.27564e-17
9.27568e-17
9.27567e-17
9.27563e-17
9.2756e-17
9.27557e-17
9.27554e-17
9.27553e-17
9.27552e-17
9.27551e-17
9.27551e-17
9.27553e-17
9.27554e-17
9.27557e-17
9.2756e-17
9.27564e-17
9.27563e-17
9.27559e-17
9.27555e-17
9.27553e-17
9.2755e-17
9.27548e-17
9.27547e-17
9.27547e-17
9.27547e-17
9.27549e-17
9.27551e-17
9.27553e-17
9.27557e-17
9.2756e-17
9.2756e-17
9.27556e-17
9.27552e-17
9.27549e-17
9.27547e-17
9.27545e-17
9.27544e-17
9.27544e-17
9.27544e-17
9.27545e-17
9.27547e-17
9.2755e-17
9.27554e-17
9.27557e-17
9.27558e-17
9.27554e-17
9.2755e-17
9.27547e-17
9.27544e-17
9.27542e-17
9.27541e-17
9.27541e-17
9.27541e-17
9.27543e-17
9.27545e-17
9.27548e-17
9.27551e-17
9.27555e-17
9.27556e-17
9.27552e-17
9.27548e-17
9.27545e-17
9.27542e-17
9.2754e-17
9.27539e-17
9.27539e-17
9.2754e-17
9.27541e-17
9.27543e-17
9.27546e-17
9.27549e-17
9.27553e-17
9.27555e-17
9.27551e-17
9.27547e-17
9.27543e-17
9.27541e-17
9.27539e-17
9.27538e-17
9.27538e-17
9.27538e-17
9.2754e-17
9.27542e-17
9.27545e-17
9.27548e-17
9.27552e-17
9.27555e-17
9.2755e-17
9.27546e-17
9.27543e-17
9.2754e-17
9.27539e-17
9.27538e-17
9.27537e-17
9.27538e-17
9.27539e-17
9.27541e-17
9.27544e-17
9.27548e-17
9.27552e-17
9.27555e-17
9.27551e-17
9.27547e-17
9.27543e-17
9.27541e-17
9.27539e-17
9.27538e-17
9.27538e-17
9.27538e-17
9.2754e-17
9.27542e-17
9.27544e-17
9.27548e-17
9.27552e-17
9.27556e-17
9.27552e-17
9.27548e-17
9.27545e-17
9.27542e-17
9.2754e-17
9.27539e-17
9.27539e-17
9.2754e-17
9.27541e-17
9.27543e-17
9.27546e-17
9.27549e-17
9.27552e-17
9.27558e-17
9.27554e-17
9.2755e-17
9.27546e-17
9.27544e-17
9.27542e-17
9.27541e-17
9.27541e-17
9.27542e-17
9.27543e-17
9.27545e-17
9.27547e-17
9.27551e-17
9.27554e-17
9.2756e-17
9.27556e-17
9.27552e-17
9.27549e-17
9.27546e-17
9.27545e-17
9.27544e-17
9.27544e-17
9.27544e-17
9.27545e-17
9.27547e-17
9.2755e-17
9.27553e-17
9.27556e-17
9.27563e-17
9.27559e-17
9.27555e-17
9.27552e-17
9.2755e-17
9.27548e-17
9.27547e-17
9.27547e-17
9.27548e-17
9.27549e-17
9.27551e-17
9.27553e-17
9.27556e-17
9.27559e-17
9.27567e-17
9.27562e-17
9.27558e-17
9.27555e-17
9.27553e-17
9.27552e-17
9.27551e-17
9.27551e-17
9.27551e-17
9.27553e-17
9.27554e-17
9.27556e-17
9.27559e-17
9.27563e-17
9.2683e-17
9.26826e-17
9.26822e-17
9.26819e-17
9.26817e-17
9.26815e-17
9.26814e-17
9.26813e-17
9.26813e-17
9.26814e-17
9.26815e-17
9.26817e-17
9.2682e-17
9.26823e-17
9.26825e-17
9.26821e-17
9.26817e-17
9.26814e-17
9.26812e-17
9.2681e-17
9.26809e-17
9.26808e-17
9.26808e-17
9.26809e-17
9.2681e-17
9.26813e-17
9.26815e-17
9.26818e-17
9.2682e-17
9.26817e-17
9.26813e-17
9.2681e-17
9.26807e-17
9.26805e-17
9.26804e-17
9.26803e-17
9.26803e-17
9.26804e-17
9.26806e-17
9.26808e-17
9.26811e-17
9.26814e-17
9.26817e-17
9.26813e-17
9.26809e-17
9.26806e-17
9.26803e-17
9.26801e-17
9.268e-17
9.26799e-17
9.26799e-17
9.268e-17
9.26802e-17
9.26804e-17
9.26808e-17
9.26811e-17
9.26814e-17
9.2681e-17
9.26806e-17
9.26802e-17
9.268e-17
9.26798e-17
9.26796e-17
9.26796e-17
9.26796e-17
9.26797e-17
9.26799e-17
9.26801e-17
9.26805e-17
9.26808e-17
9.26812e-17
9.26807e-17
9.26803e-17
9.268e-17
9.26797e-17
9.26795e-17
9.26794e-17
9.26793e-17
9.26793e-17
9.26795e-17
9.26796e-17
9.26799e-17
9.26802e-17
9.26806e-17
9.2681e-17
9.26806e-17
9.26802e-17
9.26798e-17
9.26795e-17
9.26793e-17
9.26792e-17
9.26791e-17
9.26792e-17
9.26793e-17
9.26795e-17
9.26797e-17
9.268e-17
9.26804e-17
9.2681e-17
9.26805e-17
9.26801e-17
9.26797e-17
9.26794e-17
9.26792e-17
9.26791e-17
9.2679e-17
9.26791e-17
9.26792e-17
9.26793e-17
9.26796e-17
9.26799e-17
9.26803e-17
9.26809e-17
9.26805e-17
9.268e-17
9.26797e-17
9.26794e-17
9.26792e-17
9.26791e-17
9.2679e-17
9.2679e-17
9.26791e-17
9.26793e-17
9.26796e-17
9.26799e-17
9.26803e-17
9.2681e-17
9.26805e-17
9.26801e-17
9.26797e-17
9.26794e-17
9.26792e-17
9.26791e-17
9.2679e-17
9.26791e-17
9.26792e-17
9.26793e-17
9.26796e-17
9.26799e-17
9.26803e-17
9.2681e-17
9.26806e-17
9.26802e-17
9.26798e-17
9.26795e-17
9.26793e-17
9.26792e-17
9.26792e-17
9.26792e-17
9.26793e-17
9.26795e-17
9.26797e-17
9.268e-17
9.26803e-17
9.26812e-17
9.26807e-17
9.26803e-17
9.268e-17
9.26797e-17
9.26795e-17
9.26794e-17
9.26794e-17
9.26794e-17
9.26795e-17
9.26796e-17
9.26799e-17
9.26802e-17
9.26805e-17
9.26814e-17
9.26809e-17
9.26806e-17
9.26802e-17
9.268e-17
9.26798e-17
9.26797e-17
9.26796e-17
9.26796e-17
9.26798e-17
9.26799e-17
9.26801e-17
9.26804e-17
9.26807e-17
9.26817e-17
9.26812e-17
9.26808e-17
9.26805e-17
9.26803e-17
9.26801e-17
9.268e-17
9.26799e-17
9.268e-17
9.26801e-17
9.26802e-17
9.26804e-17
9.26806e-17
9.26809e-17
9.26152e-17
9.2615e-17
9.26148e-17
9.26146e-17
9.26145e-17
9.26143e-17
9.26142e-17
9.26142e-17
9.26141e-17
9.26141e-17
9.26141e-17
9.26142e-17
9.26143e-17
9.26143e-17
9.26148e-17
9.26147e-17
9.26145e-17
9.26143e-17
9.26141e-17
9.2614e-17
9.26139e-17
9.26138e-17
9.26138e-17
9.26138e-17
9.26138e-17
9.26139e-17
9.2614e-17
9.2614e-17
9.26146e-17
9.26144e-17
9.26141e-17
9.2614e-17
9.26138e-17
9.26136e-17
9.26135e-17
9.26135e-17
9.26134e-17
9.26134e-17
9.26135e-17
9.26136e-17
9.26137e-17
9.26138e-17
9.26143e-17
9.26141e-17
9.26139e-17
9.26137e-17
9.26135e-17
9.26134e-17
9.26132e-17
9.26132e-17
9.26132e-17
9.26132e-17
9.26132e-17
9.26133e-17
9.26134e-17
9.26135e-17
9.26141e-17
9.26139e-17
9.26136e-17
9.26134e-17
9.26132e-17
9.26131e-17
9.2613e-17
9.26129e-17
9.26129e-17
9.26129e-17
9.26129e-17
9.2613e-17
9.26132e-17
9.26133e-17
9.26139e-17
9.26137e-17
9.26134e-17
9.26132e-17
9.2613e-17
9.26129e-17
9.26128e-17
9.26127e-17
9.26127e-17
9.26127e-17
9.26127e-17
9.26128e-17
9.26129e-17
9.26131e-17
9.26138e-17
9.26135e-17
9.26132e-17
9.2613e-17
9.26128e-17
9.26127e-17
9.26126e-17
9.26125e-17
9.26125e-17
9.26125e-17
9.26125e-17
9.26126e-17
9.26128e-17
9.26129e-17
9.26136e-17
9.26133e-17
9.26131e-17
9.26129e-17
9.26127e-17
9.26125e-17
9.26124e-17
9.26123e-17
9.26123e-17
9.26123e-17
9.26124e-17
9.26125e-17
9.26126e-17
9.26128e-17
9.26135e-17
9.26132e-17
9.2613e-17
9.26127e-17
9.26126e-17
9.26124e-17
9.26123e-17
9.26122e-17
9.26122e-17
9.26122e-17
9.26123e-17
9.26124e-17
9.26125e-17
9.26127e-17
9.26134e-17
9.26132e-17
9.26129e-17
9.26127e-17
9.26125e-17
9.26123e-17
9.26122e-17
9.26122e-17
9.26121e-17
9.26121e-17
9.26122e-17
9.26123e-17
9.26124e-17
9.26126e-17
9.26134e-17
9.26131e-17
9.26128e-17
9.26126e-17
9.26124e-17
9.26123e-17
9.26122e-17
9.26121e-17
9.26121e-17
9.26121e-17
9.26122e-17
9.26122e-17
9.26124e-17
9.26125e-17
9.26134e-17
9.26131e-17
9.26128e-17
9.26126e-17
9.26124e-17
9.26123e-17
9.26122e-17
9.26121e-17
9.26121e-17
9.26121e-17
9.26122e-17
9.26122e-17
9.26124e-17
9.26125e-17
9.26134e-17
9.26131e-17
9.26129e-17
9.26127e-17
9.26125e-17
9.26123e-17
9.26122e-17
9.26122e-17
9.26122e-17
9.26122e-17
9.26122e-17
9.26123e-17
9.26124e-17
9.26125e-17
9.26134e-17
9.26131e-17
9.26129e-17
9.26127e-17
9.26125e-17
9.26124e-17
9.26123e-17
9.26123e-17
9.26122e-17
9.26122e-17
9.26123e-17
9.26123e-17
9.26124e-17
9.26125e-17
9.2552e-17
9.25521e-17
9.25521e-17
9.25521e-17
9.2552e-17
9.2552e-17
9.2552e-17
9.25519e-17
9.25518e-17
9.25517e-17
9.25516e-17
9.25515e-17
9.25514e-17
9.25512e-17
9.2552e-17
9.2552e-17
9.2552e-17
9.2552e-17
9.2552e-17
9.25519e-17
9.25519e-17
9.25518e-17
9.25517e-17
9.25516e-17
9.25515e-17
9.25514e-17
9.25513e-17
9.25511e-17
9.25519e-17
9.25519e-17
9.25519e-17
9.25519e-17
9.25519e-17
9.25518e-17
9.25518e-17
9.25517e-17
9.25516e-17
9.25515e-17
9.25514e-17
9.25513e-17
9.25512e-17
9.2551e-17
9.25518e-17
9.25518e-17
9.25518e-17
9.25518e-17
9.25518e-17
9.25517e-17
9.25517e-17
9.25516e-17
9.25515e-17
9.25514e-17
9.25513e-17
9.25512e-17
9.25511e-17
9.25509e-17
9.25517e-17
9.25517e-17
9.25517e-17
9.25517e-17
9.25516e-17
9.25516e-17
9.25515e-17
9.25515e-17
9.25514e-17
9.25513e-17
9.25512e-17
9.25511e-17
9.2551e-17
9.25508e-17
9.25516e-17
9.25516e-17
9.25516e-17
9.25515e-17
9.25515e-17
9.25514e-17
9.25514e-17
9.25513e-17
9.25512e-17
9.25512e-17
9.25511e-17
9.2551e-17
9.25508e-17
9.25507e-17
9.25514e-17
9.25514e-17
9.25514e-17
9.25514e-17
9.25514e-17
9.25513e-17
9.25512e-17
9.25512e-17
9.25511e-17
9.2551e-17
9.25509e-17
9.25508e-17
9.25507e-17
9.25506e-17
9.25513e-17
9.25513e-17
9.25513e-17
9.25512e-17
9.25512e-17
9.25511e-17
9.25511e-17
9.2551e-17
9.25509e-17
9.25508e-17
9.25508e-17
9.25507e-17
9.25505e-17
9.25504e-17
9.25512e-17
9.25511e-17
9.25511e-17
9.25511e-17
9.2551e-17
9.2551e-17
9.25509e-17
9.25508e-17
9.25508e-17
9.25507e-17
9.25506e-17
9.25505e-17
9.25504e-17
9.25503e-17
9.2551e-17
9.2551e-17
9.25509e-17
9.25509e-17
9.25509e-17
9.25508e-17
9.25507e-17
9.25507e-17
9.25506e-17
9.25505e-17
9.25504e-17
9.25503e-17
9.25502e-17
9.25501e-17
9.25508e-17
9.25508e-17
9.25507e-17
9.25507e-17
9.25507e-17
9.25506e-17
9.25506e-17
9.25505e-17
9.25504e-17
9.25503e-17
9.25502e-17
9.25501e-17
9.255e-17
9.255e-17
9.25506e-17
9.25506e-17
9.25506e-17
9.25505e-17
9.25505e-17
9.25504e-17
9.25504e-17
9.25503e-17
9.25502e-17
9.25501e-17
9.255e-17
9.25499e-17
9.25498e-17
9.25498e-17
9.25504e-17
9.25504e-17
9.25504e-17
9.25503e-17
9.25503e-17
9.25502e-17
9.25502e-17
9.25501e-17
9.255e-17
9.25499e-17
9.25498e-17
9.25498e-17
9.25497e-17
9.25496e-17
9.25502e-17
9.25502e-17
9.25502e-17
9.25501e-17
9.25501e-17
9.255e-17
9.255e-17
9.25499e-17
9.25498e-17
9.25497e-17
9.25496e-17
9.25496e-17
9.25495e-17
9.25494e-17
9.24917e-17
9.24919e-17
9.24921e-17
9.24922e-17
9.24923e-17
9.24923e-17
9.24923e-17
9.24923e-17
9.24922e-17
9.2492e-17
9.24918e-17
9.24916e-17
9.24913e-17
9.2491e-17
9.24918e-17
9.2492e-17
9.24922e-17
9.24923e-17
9.24924e-17
9.24924e-17
9.24924e-17
9.24924e-17
9.24923e-17
9.24921e-17
9.24919e-17
9.24917e-17
9.24914e-17
9.24911e-17
9.24919e-17
9.24921e-17
9.24923e-17
9.24924e-17
9.24925e-17
9.24925e-17
9.24925e-17
9.24925e-17
9.24924e-17
9.24922e-17
9.2492e-17
9.24918e-17
9.24915e-17
9.24912e-17
9.2492e-17
9.24922e-17
9.24923e-17
9.24925e-17
9.24926e-17
9.24926e-17
9.24926e-17
9.24925e-17
9.24924e-17
9.24923e-17
9.24921e-17
9.24918e-17
9.24915e-17
9.24912e-17
9.2492e-17
9.24922e-17
9.24924e-17
9.24925e-17
9.24926e-17
9.24926e-17
9.24926e-17
9.24925e-17
9.24924e-17
9.24923e-17
9.24921e-17
9.24918e-17
9.24915e-17
9.24912e-17
9.24919e-17
9.24921e-17
9.24923e-17
9.24924e-17
9.24925e-17
9.24926e-17
9.24926e-17
9.24925e-17
9.24924e-17
9.24922e-17
9.2492e-17
9.24918e-17
9.24915e-17
9.24912e-17
9.24918e-17
9.2492e-17
9.24922e-17
9.24923e-17
9.24924e-17
9.24925e-17
9.24925e-17
9.24924e-17
9.24923e-17
9.24921e-17
9.24919e-17
9.24917e-17
9.24914e-17
9.24911e-17
9.24917e-17
9.24919e-17
9.24921e-17
9.24922e-17
9.24923e-17
9.24923e-17
9.24923e-17
9.24923e-17
9.24922e-17
9.2492e-17
9.24918e-17
9.24916e-17
9.24913e-17
9.2491e-17
9.24915e-17
9.24917e-17
9.24919e-17
9.2492e-17
9.24921e-17
9.24922e-17
9.24921e-17
9.24921e-17
9.2492e-17
9.24918e-17
9.24916e-17
9.24914e-17
9.24911e-17
9.24908e-17
9.24913e-17
9.24915e-17
9.24917e-17
9.24918e-17
9.24919e-17
9.24919e-17
9.24919e-17
9.24918e-17
9.24917e-17
9.24916e-17
9.24914e-17
9.24912e-17
9.24909e-17
9.24906e-17
9.24911e-17
9.24912e-17
9.24914e-17
9.24915e-17
9.24916e-17
9.24916e-17
9.24916e-17
9.24916e-17
9.24915e-17
9.24913e-17
9.24911e-17
9.24909e-17
9.24906e-17
9.24904e-17
9.24908e-17
9.24909e-17
9.24911e-17
9.24912e-17
9.24913e-17
9.24913e-17
9.24913e-17
9.24913e-17
9.24912e-17
9.2491e-17
9.24908e-17
9.24906e-17
9.24903e-17
9.24901e-17
9.24904e-17
9.24906e-17
9.24908e-17
9.24909e-17
9.24909e-17
9.2491e-17
9.2491e-17
9.24909e-17
9.24908e-17
9.24906e-17
9.24904e-17
9.24902e-17
9.249e-17
9.24897e-17
9.24901e-17
9.24902e-17
9.24904e-17
9.24905e-17
9.24906e-17
9.24906e-17
9.24906e-17
9.24905e-17
9.24904e-17
9.24903e-17
9.24901e-17
9.24899e-17
9.24896e-17
9.24894e-17
9.24329e-17
9.24332e-17
9.24334e-17
9.24336e-17
9.24337e-17
9.24338e-17
9.24338e-17
9.24338e-17
9.24337e-17
9.24335e-17
9.24333e-17
9.24331e-17
9.24327e-17
9.24324e-17
9.24331e-17
9.24334e-17
9.24336e-17
9.24338e-17
9.24339e-17
9.2434e-17
9.2434e-17
9.2434e-17
9.24339e-17
9.24337e-17
9.24335e-17
9.24332e-17
9.24329e-17
9.24325e-17
9.24333e-17
9.24336e-17
9.24338e-17
9.2434e-17
9.24341e-17
9.24342e-17
9.24343e-17
9.24342e-17
9.24341e-17
9.24339e-17
9.24337e-17
9.24334e-17
9.24331e-17
9.24327e-17
9.24334e-17
9.24337e-17
9.2434e-17
9.24341e-17
9.24343e-17
9.24344e-17
9.24344e-17
9.24344e-17
9.24342e-17
9.24341e-17
9.24339e-17
9.24336e-17
9.24332e-17
9.24328e-17
9.24335e-17
9.24338e-17
9.2434e-17
9.24342e-17
9.24344e-17
9.24345e-17
9.24345e-17
9.24344e-17
9.24343e-17
9.24342e-17
9.24339e-17
9.24337e-17
9.24333e-17
9.24329e-17
9.24335e-17
9.24338e-17
9.24341e-17
9.24343e-17
9.24344e-17
9.24345e-17
9.24345e-17
9.24345e-17
9.24344e-17
9.24342e-17
9.2434e-17
9.24337e-17
9.24333e-17
9.24329e-17
9.24334e-17
9.24337e-17
9.2434e-17
9.24342e-17
9.24344e-17
9.24344e-17
9.24345e-17
9.24344e-17
9.24343e-17
9.24342e-17
9.24339e-17
9.24336e-17
9.24333e-17
9.24329e-17
9.24333e-17
9.24336e-17
9.24339e-17
9.24341e-17
9.24343e-17
9.24343e-17
9.24344e-17
9.24343e-17
9.24342e-17
9.24341e-17
9.24338e-17
9.24335e-17
9.24332e-17
9.24328e-17
9.24332e-17
9.24335e-17
9.24337e-17
9.24339e-17
9.24341e-17
9.24342e-17
9.24342e-17
9.24342e-17
9.24341e-17
9.24339e-17
9.24337e-17
9.24334e-17
9.2433e-17
9.24326e-17
9.2433e-17
9.24333e-17
9.24335e-17
9.24337e-17
9.24339e-17
9.2434e-17
9.2434e-17
9.24339e-17
9.24338e-17
9.24337e-17
9.24334e-17
9.24332e-17
9.24328e-17
9.24324e-17
9.24327e-17
9.2433e-17
9.24332e-17
9.24334e-17
9.24336e-17
9.24337e-17
9.24337e-17
9.24336e-17
9.24335e-17
9.24334e-17
9.24331e-17
9.24329e-17
9.24325e-17
9.24322e-17
9.24324e-17
9.24326e-17
9.24329e-17
9.24331e-17
9.24332e-17
9.24333e-17
9.24333e-17
9.24333e-17
9.24332e-17
9.2433e-17
9.24328e-17
9.24325e-17
9.24322e-17
9.24319e-17
9.2432e-17
9.24323e-17
9.24325e-17
9.24327e-17
9.24328e-17
9.24329e-17
9.24329e-17
9.24329e-17
9.24328e-17
9.24326e-17
9.24324e-17
9.24321e-17
9.24318e-17
9.24315e-17
9.24316e-17
9.24319e-17
9.24321e-17
9.24323e-17
9.24324e-17
9.24325e-17
9.24325e-17
9.24324e-17
9.24323e-17
9.24322e-17
9.2432e-17
9.24317e-17
9.24314e-17
9.24311e-17
9.23755e-17
9.23757e-17
9.23759e-17
9.23761e-17
9.23762e-17
9.23763e-17
9.23763e-17
9.23763e-17
9.23762e-17
9.23761e-17
9.23759e-17
9.23757e-17
9.23755e-17
9.23752e-17
9.23757e-17
9.23759e-17
9.23761e-17
9.23763e-17
9.23764e-17
9.23765e-17
9.23766e-17
9.23765e-17
9.23765e-17
9.23763e-17
9.23762e-17
9.23759e-17
9.23757e-17
9.23753e-17
9.23758e-17
9.23761e-17
9.23763e-17
9.23765e-17
9.23767e-17
9.23767e-17
9.23768e-17
9.23767e-17
9.23767e-17
9.23765e-17
9.23764e-17
9.23761e-17
9.23758e-17
9.23755e-17
9.2376e-17
9.23762e-17
9.23765e-17
9.23767e-17
9.23768e-17
9.23769e-17
9.23769e-17
9.23769e-17
9.23768e-17
9.23767e-17
9.23765e-17
9.23763e-17
9.2376e-17
9.23757e-17
9.23761e-17
9.23763e-17
9.23766e-17
9.23768e-17
9.23769e-17
9.2377e-17
9.2377e-17
9.2377e-17
9.23769e-17
9.23768e-17
9.23766e-17
9.23764e-17
9.23761e-17
9.23757e-17
9.23761e-17
9.23764e-17
9.23766e-17
9.23768e-17
9.2377e-17
9.2377e-17
9.23771e-17
9.23771e-17
9.2377e-17
9.23768e-17
9.23767e-17
9.23764e-17
9.23761e-17
9.23758e-17
9.23761e-17
9.23764e-17
9.23766e-17
9.23768e-17
9.2377e-17
9.2377e-17
9.23771e-17
9.2377e-17
9.2377e-17
9.23768e-17
9.23766e-17
9.23764e-17
9.23761e-17
9.23758e-17
9.2376e-17
9.23763e-17
9.23766e-17
9.23767e-17
9.23769e-17
9.2377e-17
9.2377e-17
9.2377e-17
9.23769e-17
9.23768e-17
9.23766e-17
9.23763e-17
9.2376e-17
9.23757e-17
9.23759e-17
9.23762e-17
9.23764e-17
9.23766e-17
9.23768e-17
9.23769e-17
9.23769e-17
9.23769e-17
9.23768e-17
9.23767e-17
9.23765e-17
9.23762e-17
9.23759e-17
9.23756e-17
9.23757e-17
9.2376e-17
9.23763e-17
9.23765e-17
9.23766e-17
9.23767e-17
9.23767e-17
9.23767e-17
9.23766e-17
9.23765e-17
9.23763e-17
9.23761e-17
9.23758e-17
9.23755e-17
9.23755e-17
9.23758e-17
9.2376e-17
9.23762e-17
9.23764e-17
9.23765e-17
9.23765e-17
9.23765e-17
9.23764e-17
9.23763e-17
9.23761e-17
9.23758e-17
9.23756e-17
9.23753e-17
9.23753e-17
9.23755e-17
9.23758e-17
9.2376e-17
9.23761e-17
9.23762e-17
9.23762e-17
9.23762e-17
9.23761e-17
9.2376e-17
9.23758e-17
9.23756e-17
9.23753e-17
9.2375e-17
9.2375e-17
9.23752e-17
9.23755e-17
9.23756e-17
9.23758e-17
9.23759e-17
9.23759e-17
9.23759e-17
9.23758e-17
9.23757e-17
9.23755e-17
9.23753e-17
9.2375e-17
9.23747e-17
9.23747e-17
9.23749e-17
9.23751e-17
9.23753e-17
9.23754e-17
9.23755e-17
9.23755e-17
9.23755e-17
9.23754e-17
9.23753e-17
9.23751e-17
9.23749e-17
9.23747e-17
9.23744e-17
9.23204e-17
9.23205e-17
9.23207e-17
9.23208e-17
9.23209e-17
9.23209e-17
9.2321e-17
9.2321e-17
9.23209e-17
9.23209e-17
9.23208e-17
9.23206e-17
9.23205e-17
9.23203e-17
9.23205e-17
9.23207e-17
9.23208e-17
9.2321e-17
9.23211e-17
9.23211e-17
9.23211e-17
9.23211e-17
9.23211e-17
9.2321e-17
9.23209e-17
9.23208e-17
9.23206e-17
9.23205e-17
9.23207e-17
9.23208e-17
9.2321e-17
9.23211e-17
9.23212e-17
9.23213e-17
9.23213e-17
9.23213e-17
9.23212e-17
9.23212e-17
9.23211e-17
9.23209e-17
9.23208e-17
9.23206e-17
9.23208e-17
9.23209e-17
9.23211e-17
9.23212e-17
9.23213e-17
9.23214e-17
9.23214e-17
9.23214e-17
9.23214e-17
9.23213e-17
9.23212e-17
9.2321e-17
9.23209e-17
9.23207e-17
9.23208e-17
9.2321e-17
9.23212e-17
9.23213e-17
9.23214e-17
9.23214e-17
9.23215e-17
9.23215e-17
9.23214e-17
9.23214e-17
9.23213e-17
9.23211e-17