/*--------------------------------*- C++ -*----------------------------------*\
| =========                 |                                                 |
| \\      /  F ield         | OpenFOAM: The Open Source CFD Toolbox           |
|  \\    /   O peration     | Version:  v2106                                 |
|   \\  /    A nd           | Website:  www.openfoam.com                      |
|    \\/     M anipulation  |                                                 |
\*---------------------------------------------------------------------------*/
FoamFile
{
    version     2.0;
    format      ascii;
    arch        "LSB;label=32;scalar=64";
    class       volScalarField;
    location    "0.000197";
    object      p;
}
// * * * * * * * * * * * * * * * * * * * * * * * * * * * * * * * * * * * * * //

dimensions      [1 -1 -2 0 0 0 0];

internalField   nonuniform List<scalar> 
18109
(
206483
206007
205572
205116
204649
204154
203639
206334
205872
205432
204977
204504
204010
203492
206197
205734
205272
204818
204352
203873
203375
206108
205654
205200
204746
204277
203795
203292
206060
205622
205173
204708
204222
203726
203220
206077
205648
205195
204717
204214
203704
203186
206142
205707
205248
204758
204244
203710
203166
206232
205793
205326
204818
204274
203708
203139
207067
206588
206138
205663
205189
204703
204211
203701
203187
202665
202150
201621
201107
200470
206917
206449
206008
205538
205061
204576
204079
203584
203092
202601
202107
201606
201099
200592
206798
206345
205882
205409
204930
204457
203982
203514
203043
202577
202108
201642
201162
200699
206727
206285
205822
205345
204862
204388
203918
203456
203002
202555
202104
201657
201188
200720
206699
206262
205795
205309
204816
204331
203858
203401
202952
202512
202068
201628
201166
200705
206710
206265
205788
205288
204783
204288
203809
203347
202891
202442
201992
201544
201081
200616
206734
206279
205792
205281
204765
204255
203757
203276
202805
202343
201877
201414
200940
200472
206755
206288
205789
205261
204728
204207
203697
203198
202708
202225
201740
201259
200772
200287
206735
206253
205751
205227
204699
204171
203647
203130
202621
202116
201610
201111
200608
200105
206698
206209
205706
205187
204664
204139
203612
203086
202565
202043
201520
201003
200487
199973
206630
206140
205647
205140
204627
204113
203592
203071
202547
202016
201484
200951
200417
199896
206498
206029
205565
205085
204598
204109
203611
203108
202587
202054
201514
200961
200411
199869
206387
205919
205492
205044
204597
204144
203673
203192
202679
202144
201597
201035
200468
199898
206175
205747
205383
204979
204589
204188
203764
203313
202815
202281
201731
201151
200579
199972
206758
207071
207365
207669
207886
208129
207309
207630
207912
208147
208230
208331
206842
207203
207520
207849
208089
208365
206457
206833
207224
207643
208002
208382
205977
206370
206811
207331
207820
208312
205485
205866
206284
206812
207356
207848
204952
205296
205661
206134
206657
207183
204395
204662
204968
205360
205801
206220
203811
203983
204200
204478
204791
205069
203226
203308
203427
203570
203729
203865
202642
202611
202619
202619
202618
202491
202081
201972
201877
201691
201512
201247
201486
201218
200997
200705
200453
200128
200928
200603
200324
199966
199689
199319
200286
199814
199469
199044
198739
198457
200040
199784
199479
199143
198720
198405
200156
199683
199256
198903
198546
198329
200212
199756
199299
198902
198562
198365
200208
199719
199219
198809
198448
198253
200173
199663
199132
198699
198304
197979
200059
199524
198962
198480
198010
197603
199892
199331
198755
198228
197708
197220
199718
199139
198560
198019
197476
196917
199557
198974
198423
197887
197336
196689
199438
198878
198337
197815
197210
196492
199387
198873
198386
197876
197276
196583
199383
198916
198483
198024
197498
196890
199485
199141
198809
198433
198013
197564
199519
199292
199043
198759
198468
198121
200016
199848
199779
199604
199439
199184
200596
200469
200412
200307
200194
200088
201188
201112
201122
201150
201136
201133
201792
201768
201830
201949
202052
202201
202376
202408
202504
202694
202859
203113
202926
203015
203133
203339
203485
203784
203430
203568
203680
203867
203976
204284
203881
204045
204152
204280
204305
204556
204295
204469
204563
204631
204568
204726
204689
204850
204922
204962
204844
204887
205063
205220
205266
205291
205136
205105
205464
205610
205621
205609
205510
205443
205816
205968
206002
205988
205993
205870
206309
206408
206463
206470
206539
206577
206591
207125
207632
208139
208591
208885
206680
207182
207652
208115
208519
208716
206769
207252
207629
208031
208266
208427
206892
207207
207454
207678
207860
208075
206575
206682
206923
207121
207362
207621
206807
207032
207392
207721
208097
208546
206959
207291
207768
208233
208747
209342
207112
207535
208077
208652
209273
210012
207203
207701
208266
208921
209617
210428
207235
207760
208320
208982
209681
210516
207234
207740
208257
208882
209567
210438
207199
207675
208151
208716
209330
210208
207160
207611
208044
208563
209112
209944
207133
207573
207988
208481
208976
209631
207157
207615
208033
208485
208901
209213
207233
207683
208089
208477
208830
208969
207316
207773
208126
208481
208695
208773
207473
207802
208039
208238
208331
208414
208654
209767
212508
218617
227239
209004
210530
213770
219971
229244
209223
211070
214647
221643
234981
209244
210941
214336
221540
234643
208494
210207
213339
219274
228962
207630
208917
211600
215976
222931
206692
207825
210515
215431
224603
205411
206286
208902
213460
221893
230431
204052
204560
206752
210212
216261
222232
202515
202964
205457
210028
216905
224104
201104
201502
204433
210003
219351
230588
239990
199976
200492
203845
210926
223004
237761
254220
270097
199064
199640
203048
210867
225417
246559
277388
311837
198353
199188
202476
210104
223407
242197
266660
286741
198029
198870
201923
208202
217404
229520
244545
254165
198030
198740
201969
208074
217481
231765
241041
250336
198207
198950
202321
208663
221410
241071
263732
273047
198203
198769
201557
207597
219541
237916
258507
287031
197938
198506
201007
206068
214538
225453
239098
246580
197385
197874
200132
204630
212064
222017
227143
232122
196870
197134
199703
205103
216960
232423
245116
247760
196316
196277
198701
203965
214869
229501
245916
269543
195807
195507
197101
200903
207647
215039
195431
194963
196416
200171
206099
212235
195494
194925
196486
200806
208303
217451
195904
195300
196998
202601
212657
226068
196677
196164
198045
204184
216091
235076
197661
197321
199038
204728
215570
198841
198803
200279
204694
211799
200080
200404
202045
205997
212939
201393
201882
203957
207711
216967
202569
203053
205249
208054
215869
203631
204131
206425
209471
215324
204322
204836
206770
209892
215318
204664
205349
207176
210983
219350
204563
205219
206798
210639
218417
204448
204961
206242
209491
215341
204441
204615
205721
209283
215820
204667
204845
206012
209596
217565
205185
205368
206880
210849
220763
205984
206331
208305
212535
222867
207030
207719
209956
214206
223929
208298
209494
211849
215955
223441
209541
211099
213514
217687
225094
210531
212345
214982
219383
229686
211356
213055
215719
220101
229481
211845
213514
216297
220211
227259
211984
213617
216006
220214
226186
211868
213654
216094
220792
228155
211385
213054
215401
220062
226674
210796
212350
214487
218225
223149
210118
211456
213652
218061
224621
209750
210707
213014
217770
227029
209370
209953
212341
217681
229286
208983
209527
211923
217443
230545
208695
209420
211736
217541
228881
207693
207358
207005
206621
206216
205771
205308
204831
204347
203848
203352
202836
202347
201730
207641
207279
206919
206507
206083
205633
205169
204690
204220
203746
203276
202780
202285
201753
207591
207233
206841
206411
205966
205510
205059
204606
204162
203711
203257
202785
202299
201795
207591
207211
206795
206341
205878
205412
204964
204524
204100
203674
203234
202781
202295
201798
207587
207189
206750
206277
205799
205325
204879
204448
204037
203624
203194
202749
202263
201771
207574
207156
206696
206206
205714
205236
204790
204365
203958
203552
203122
202676
202185
201684
207501
207069
206604
206113
205612
205138
204693
204265
203851
203437
202999
202542
202043
201525
207350
206914
206445
205962
205486
205024
204577
204142
203711
203281
202829
202359
201848
201321
207145
206718
206268
205817
205361
204908
204453
204002
203547
203090
202616
202129
201606
201067
206901
206496
206073
205654
205221
204783
204326
203859
203380
202895
202399
201897
201362
200810
206651
206265
205875
205487
205078
204657
204204
203732
203235
202722
202199
201668
201113
200551
206378
206026
205675
205320
204946
204553
204112
203637
203121
202588
202039
201477
200907
200335
206153
205805
205493
205170
204832
204467
204046
203573
203044
202490
201923
201344
200749
200157
205852
205563
205325
205038
204742
204414
204020
203553
203029
202463
201871
201252
200649
200019
209211
208975
208695
208377
208035
207645
207250
206813
206377
205890
205415
204883
204367
203717
209256
208984
208664
208299
207935
207522
207110
206660
206207
205713
205245
204724
204227
203642
209259
208945
208616
208216
207836
207407
206988
206547
206118
205652
205196
204683
204178
203597
209246
208908
208550
208116
207720
207275
206854
206423
206000
205552
205110
204612
204099
203521
209149
208806
208437
207995
207591
207146
206733
206314
205905
205467
205022
204527
204003
203424
208992
208657
208281
207846
207433
206997
206589
206178
205776
205345
204899
204404
203867
203287
208756
208428
208073
207652
207248
206829
206433
206031
205631
205203
204750
204251
203702
203115
208456
208141
207814
207417
207048
206648
206262
205862
205454
205017
204547
204037
203475
202879
208110
207819
207524
207174
206831
206451
206068
205661
205234
204779
204291
203771
203200
202608
207738
207481
207217
206915
206588
206232
205847
205432
204986
204512
204005
203472
202894
202302
207366
207147
206905
206646
206332
205997
205607
205181
204711
204212
203679
203126
202537
201942
206974
206796
206583
206349
206058
205736
205345
204910
204419
203906
203357
202788
202193
201591
206575
206415
206254
206047
205775
205467
205081
204645
204136
203600
203024
202435
201825
201215
206152
206019
205918
205739
205494
205196
204819
204393
203885
203347
202768
202176
201555
200827
212443
212260
212057
211816
211513
211162
210799
210399
210010
209552
209127
208625
208125
207497
212565
212341
212106
211793
211467
211075
210683
210238
209814
209337
208898
208397
207931
207353
212577
212294
212046
211696
211362
210954
210565
210129
209706
209235
208796
208288
207794
207209
212465
212183
211917
211560
211218
210797
210404
209959
209524
209052
208602
208098
207599
207016
212285
212025
211743
211396
211046
210627
210235
209792
209358
208886
208424
207908
207390
206800
211996
211757
211473
211150
210804
210404
210020
209583
209149
208677
208201
207679
207143
206550
211656
211425
211156
210857
210522
210147
209772
209344
208913
208443
207957
207430
206878
206291
211242
211018
210784
210500
210196
209846
209485
209069
208636
208165
207665
207133
206563
205974
210771
210575
210364
210101
209833
209503
209153
208748
208311
207840
207331
206801
206225
205647
210282
210098
209917
209664
209437
209119
208784
208391
207953
207484
206965
206431
205841
205257
209776
209606
209459
209210
209011
208699
208365
207971
207524
207050
206518
205983
205387
204807
209229
209066
208958
208728
208542
208241
207907
207518
207066
206598
206066
205529
204930
204311
208635
208518
208451
208257
208062
207773
207431
207040
206567
206085
205535
204982
204373
203767
208006
207904
207880
207753
207559
207294
206950
206573
206103
205633
205096
204545
203910
203188
217387
217128
216947
216678
216413
216076
215754
215395
215041
214655
214333
213934
213555
213038
217316
217050
216858
216551
216262
215907
215562
215183
214812
214409
214053
213632
213257
212774
217230
216966
216763
216447
216158
215791
215435
215046
214666
214264
213896
213469
213062
212558
217018
216791
216582
216277
215986
215613
215248
214847
214452
214036
213642
213200
212774
212264
216748
216559
216344
216062
215775
215411
215045
214641
214237
213811
213397
212940
212488
211971
216431
216266
216057
215795
215520
215166
214801
214395
213980
213543
213106
212637
212163
211639
216038
215895
215711
215466
215214
214875
214517
214116
213698
213255
212801
212324
211829
211309
215605
215459
215323
215080
214862
214538
214188
213794
213371
212922
212450
211963
211442
210922
215112
214968
214879
214644
214453
214144
213800
213417
212997
212549
212069
211584
211050
210541
214583
214438
214381
214161
213993
213701
213364
212993
212575
212130
211638
211145
210579
210066
214009
213864
213837
213639
213482
213206
212866
212499
212078
211633
211134
210643
210068
209555
213367
213226
213240
213081
212932
212674
212335
211978
211558
211119
210622
210124
209524
208963
212659
212602
212623
212505
212351
212113
211766
211401
210958
210500
209981
209465
208883
208277
211843
211882
211974
211921
211765
211544
211200
210841
210394
209939
209419
208877
208229
207498
223877
223549
223371
223101
222835
222517
222200
221872
221562
221251
220982
220670
220385
219998
223602
223333
223153
222872
222604
222284
221962
221628
221308
220989
220696
220362
220056
219659
223355
223115
222938
222660
222393
222074
221751
221416
221094
220774
220471
220136
219813
219415
223029
222831
222653
222390
222129
221816
221494
221157
220825
220494
220171
219824
219479
219075
222668
222516
222342
222096
221842
221536
221215
220877
220539
220199
219862
219508
219147
218740
222285
222159
221996
221761
221514
221216
220897
220557
220212
219862
219511
219149
218774
218363
221860
221746
221610
221386
221148
220860
220543
220206
219856
219500
219140
218772
218384
217975
221413
221292
221191
220980
220749
220468
220152
219816
219463
219102
218730
218354
217949
217541
220912
220795
220726
220530
220305
220033
219719
219387
219036
218674
218296
217916
217496
217097
220379
220260
220224
220049
219832
219571
219259
218930
218577
218210
217819
217425
216974
216571
219812
219699
219683
219530
219319
219069
218759
218432
218076
217706
217309
216910
216447
216046
219194
219093
219108
218984
218786
218554
218248
217921
217556
217176
216768
216350
215857
215428
218570
218543
218532
218424
218237
218023
217706
217366
216977
216574
216148
215709
215246
214738
217812
217883
217938
217865
217681
217484
217164
216825
216420
216002
215550
215068
214535
213924
230229
229886
229677
229396
229126
228833
228555
228289
228049
227822
227616
227391
227173
226902
229791
229529
229339
229072
228814
228531
228256
227988
227741
227502
227275
227022
226770
226457
229424
229199
229015
228767
228521
228250
227984
227720
227471
227228
226991
226735
226476
226172
229009
228821
228649
228421
228190
227931
227671
227408
227152
226899
226648
226382
226111
225814
228598
228441
228284
228071
227851
227603
227347
227084
226824
226565
226307
226041
225769
225485
228183
228039
227900
227699
227487
227246
226992
226727
226460
226195
225932
225668
225397
225123
227758
227622
227505
227316
227110
226874
226619
226352
226081
225813
225548
225289
225020
224758
227324
227191
227099
226921
226718
226483
226224
225954
225678
225406
225137
224881
224610
224360
226873
226749
226678
226513
226313
226079
225817
225543
225263
224988
224716
224460
224183
223946
226422
226306
226252
226102
225904
225671
225403
225124
224835
224553
224272
224010
223717
223490
225956
225856
225807
225672
225478
225251
224978
224694
224397
224108
223819
223551
223245
223026
225515
225427
225380
225259
225066
224842
224560
224265
223951
223645
223339
223053
222733
222501
225060
225024
224940
224828
224637
224418
224123
223814
223480
223158
222839
222537
222233
221943
224591
224593
224542
224438
224234
224010
223702
223381
223027
222684
222336
221998
221657
221324
235281
235055
234866
234628
234396
234156
233936
233740
233578
233435
233309
233157
232996
232734
234835
234636
234464
234249
234032
233807
233596
233406
233244
233096
232953
232778
232578
232298
234401
234245
234078
233879
233678
233469
233272
233092
232935
232787
232635
232453
232244
231970
233982
233835
233680
233495
233303
233104
232913
232735
232574
232420
232258
232069
231853
231595
233578
233444
233299
233122
232937
232742
232553
232374
232208
232048
231883
231699
231491
231256
233185
233052
232918
232745
232561
232365
232170
231984
231808
231642
231474
231299
231103
230896
232804
232672
232548
232379
232192
231992
231788
231591
231405
231233
231066
230902
230722
230543
232433
232298
232184
232018
231828
231619
231402
231191
230992
230813
230644
230490
230322
230173
232068
231935
231832
231670
231475
231258
231026
230799
230586
230399
230228
230081
229922
229798
231716
231588
231490
231332
231135
230908
230661
230418
230189
229991
229813
229669
229510
229406
231373
231255
231156
231002
230803
230571
230310
230051
229806
229596
229411
229266
229104
229016
231064
230955
230846
230691
230486
230246
229972
229698
229435
229211
229014
228860
228693
228607
230747
230655
230542
230384
230172
229928
229642
229352
229076
228840
228634
228471
228305
228196
230514
230391
230273
230107
229875
229623
229328
229029
228738
228486
228261
228078
227889
227794
238688
238584
238426
238257
238082
237905
237743
237603
237494
237406
237343
237259
237179
236982
238305
238186
238038
237875
237706
237537
237384
237253
237151
237068
236997
236909
236805
236609
237904
237811
237656
237496
237331
237171
237028
236910
236817
236740
236670
236580
236473
236267
237545
237435
237286
237122
236957
236796
236654
236536
236442
236366
236292
236205
236093
235906
237200
237083
236933
236765
236595
236430
236284
236163
236067
235990
235919
235837
235733
235570
236870
236738
236589
236414
236235
236061
235903
235773
235667
235587
235515
235444
235351
235225
236560
236414
236264
236081
235892
235705
235533
235389
235272
235188
235118
235057
234982
234896
236264
236106
235954
235763
235562
235360
235171
235010
234879
234788
234715
234667
234608
234563
235986
235819
235664
235466
235254
235037
234829
234651
234504
234404
234328
234290
234246
234240
235724
235550
235393
235188
234966
234736
234511
234315
234152
234043
233961
233927
233892
233916
235480
235302
235142
234931
234700
234459
234218
234007
233828
233710
233621
233588
233556
233604
235262
235082
234913
234694
234454
234204
233952
233729
233538
233410
233312
233274
233239
233298
235055
234867
234699
234476
234227
233971
233710
233479
233279
233142
233038
232995
232958
233008
234921
234669
234497
234267
234010
233754
233494
233264
233061
232916
232800
232742
232679
232756
240793
240737
240604
240485
240358
240236
240124
240025
239946
239878
239838
239790
239765
239640
240470
240392
240261
240136
240006
239883
239772
239677
239602
239541
239501
239457
239418
239306
240128
240057
239913
239784
239650
239528
239421
239334
239267
239214
239180
239135
239093
238969
239817
239724
239580
239441
239303
239177
239067
238980
238913
238864
238829
238785
238738
238629
239515
239405
239257
239110
238964
238832
238719
238630
238564
238517
238484
238444
238403
238309
239222
239091
238940
238783
238630
238489
238368
238275
238204
238158
238124
238093
238058
237989
238946
238795
238640
238471
238308
238158
238027
237928
237852
237807
237775
237753
237729
237688
238682
238512
238350
238171
237998
237837
237695
237587
237505
237459
237429
237417
237403
237392
238434
238248
238079
237888
237705
237533
237380
237264
237174
237128
237098
237097
237094
237111
238203
238001
237825
237624
237431
237249
237086
236962
236863
236814
236786
236795
236799
236842
237991
237775
237591
237380
237178
236988
236816
236685
236579
236527
236499
236515
236523
236590
237803
237574
237379
237158
236947
236751
236574
236438
236328
236272
236242
236263
236270
236356
237629
237393
237191
236964
236746
236544
236363
236225
236112
236052
236023
236046
236058
236146
237486
237189
237001
236772
236555
236357
236181
236043
235930
235870
235837
235856
235851
235974
241973
241938
241836
241756
241669
241592
241523
241463
241415
241367
241341
241316
241316
241240
241700
241649
241544
241458
241365
241283
241209
241146
241095
241047
241018
240991
240986
240920
241416
241364
241247
241155
241059
240975
240900
240837
240787
240740
240714
240683
240675
240603
241142
241072
240956
240856
240758
240672
240596
240531
240479
240433
240404
240369
240351
240286
240875
240788
240670
240565
240464
240376
240298
240234
240182
240136
240107
240069
240046
239986
240606
240501
240384
240274
240171
240082
240003
239940
239888
239845
239811
239774
239747
239696
240350
240229
240109
239994
239888
239796
239716
239654
239603
239562
239528
239494
239465
239425
240100
239963
239840
239719
239610
239516
239435
239375
239325
239288
239254
239225
239196
239171
239863
239711
239584
239455
239343
239247
239165
239107
239057
239024
238993
238973
238948
238937
239640
239474
239342
239205
239089
238990
238907
238850
238801
238774
238746
238737
238717
238723
239431
239254
239115
238972
238850
238750
238666
238611
238564
238542
238521
238523
238512
238532
239242
239052
238906
238756
238631
238528
238444
238390
238346
238330
238314
238326
238323
238363
239066
238876
238720
238568
238438
238333
238248
238196
238157
238148
238139
238162
238173
238225
238896
238672
238528
238378
238253
238154
238073
238023
237988
237985
237979
238010
238019
238105
242597
242597
242549
242516
242480
242451
242430
242413
242403
242390
242391
242384
242398
242360
242378
242368
242315
242279
242239
242205
242178
242154
242138
242119
242112
242100
242109
242068
242159
242144
242082
242041
241998
241961
241930
241901
241880
241853
241842
241823
241829
241783
241933
241905
241844
241798
241754
241717
241683
241652
241626
241595
241576
241550
241546
241504
241714
241674
241612
241562
241516
241478
241443
241409
241380
241346
241322
241290
241274
241233
241486
241434
241373
241322
241276
241240
241205
241173
241142
241108
241079
241042
241016
240973
241267
241203
241143
241090
241044
241007
240972
240942
240911
240879
240847
240809
240772
240730
241050
240975
240916
240862
240816
240780
240746
240718
240690
240661
240627
240589
240544
240503
240838
240756
240696
240640
240594
240559
240527
240504
240480
240455
240421
240385
240337
240298
240638
240549
240488
240429
240383
240348
240319
240299
240277
240256
240223
240193
240145
240111
240446
240352
240289
240229
240181
240148
240120
240105
240087
240071
240043
240018
239975
239946
240268
240166
240103
240040
239993
239960
239935
239922
239906
239895
239871
239852
239813
239795
240098
240002
239931
239869
239819
239787
239762
239754
239744
239738
239722
239708
239680
239666
239921
239820
239759
239701
239655
239626
239605
239597
239588
239587
239577
239570
239548
239544
242940
242967
242977
242994
243014
243038
243065
243092
243122
243147
243177
243196
243224
243216
242774
242804
242812
242827
242846
242868
242894
242919
242948
242970
242996
243009
243032
243019
242619
242648
242652
242665
242680
242700
242724
242746
242771
242788
242809
242813
242832
242814
242454
242477
242480
242492
242507
242527
242549
242568
242590
242601
242615
242612
242621
242602
242294
242310
242312
242322
242335
242353
242372
242388
242403
242407
242413
242403
242403
242381
242124
242133
242135
242144
242156
242174
242190
242203
242212
242210
242207
242192
242180
242156
241956
241957
241960
241968
241979
241994
242006
242014
242015
242010
241999
241981
241958
241932
241790
241784
241786
241792
241802
241814
241822
241826
241822
241813
241797
241775
241743
241714
241621
241610
241612
241617
241624
241634
241637
241641
241635
241625
241606
241582
241542
241509
241459
241445
241447
241449
241454
241461
241461
241463
241456
241444
241420
241395
241349
241314
241300
241285
241284
241284
241286
241291
241290
241292
241285
241272
241247
241218
241168
241132
241145
241129
241128
241127
241128
241131
241129
241128
241118
241104
241076
241045
240993
240950
240990
240980
240976
240974
240972
240975
240971
240969
240957
240942
240915
240880
240826
240785
240817
240828
240832
240831
240827
240826
240820
240812
240799
240783
240758
240722
240673
240600
243095
243133
243168
243206
243247
243289
243334
243376
243420
243458
243497
243528
243562
243571
242979
243022
243059
243099
243142
243187
243233
243277
243323
243362
243402
243432
243462
243471
242876
242920
242958
243000
243043
243088
243135
243180
243226
243265
243304
243331
243361
243365
242762
242808
242849
242892
242937
242983
243032
243077
243123
243162
243199
243223
243248
243250
242653
242699
242741
242786
242831
242878
242925
242970
243015
243051
243084
243104
243122
243120
242538
242584
242628
242673
242719
242765
242812
242855
242896
242929
242956
242971
242981
242977
242421
242466
242511
242557
242603
242648
242692
242732
242767
242795
242815
242824
242827
242822
242301
242346
242392
242437
242481
242524
242564
242600
242628
242651
242661
242666
242661
242657
242178
242221
242266
242310
242352
242392
242426
242457
242478
242495
242499
242501
242491
242487
242050
242093
242137
242180
242218
242254
242282
242307
242321
242333
242329
242325
242309
242305
241922
241961
242003
242041
242075
242104
242127
242147
242154
242160
242151
242140
242116
242109
241787
241826
241865
241898
241927
241952
241969
241982
241982
241981
241966
241947
241914
241900
241652
241688
241722
241750
241773
241791
241802
241809
241805
241796
241777
241754
241719
241704
241502
241554
241586
241607
241620
241631
241634
241635
241626
241612
241591
241564
241526
241494
243104
243145
243179
243218
243259
243302
243347
243390
243433
243472
243509
243539
243570
243586
243009
243054
243092
243134
243179
243225
243273
243320
243367
243408
243447
243478
243507
243523
242929
242975
243016
243060
243105
243153
243203
243251
243300
243343
243383
243413
243444
243457
242843
242890
242934
242980
243029
243079
243131
243182
243233
243277
243318
243348
243377
243389
242760
242807
242853
242902
242952
243004
243057
243110
243162
243206
243247
243276
243302
243313
242675
242722
242769
242819
242871
242924
242978
243031
243083
243127
243167
243196
243219
243227
242587
242634
242682
242733
242785
242839
242893
242946
242996
243040
243078
243106
243124
243130
242495
242541
242590
242641
242693
242746
242800
242852
242900
242942
242975
243000
243012
243018
242398
242443
242492
242542
242593
242645
242696
242746
242790
242830
242859
242882
242889
242897
242293
242338
242387
242435
242484
242533
242582
242629
242669
242706
242729
242749
242752
242763
242184
242226
242273
242318
242365
242411
242454
242496
242531
242565
242586
242604
242607
242621
242067
242107
242150
242192
242234
242275
242315
242354
242387
242418
242436
242451
242450
242462
241943
241979
242018
242055
242094
242132
242168
242202
242231
242257
242271
242281
242281
242294
241807
241849
241883
241915
241947
241979
242010
242040
242063
242082
242093
242097
242097
242105
243031
243064
243089
243117
243147
243179
243214
243248
243283
243317
243351
243382
243412
243436
242945
242978
243006
243038
243072
243107
243145
243183
243223
243260
243297
243329
243360
243382
242869
242902
242932
242967
243003
243040
243080
243121
243163
243202
243241
243274
243308
243329
242791
242825
242857
242894
242933
242974
243017
243060
243105
243147
243188
243222
243256
243277
242716
242750
242784
242823
242864
242907
242953
242998
243045
243089
243132
243166
243199
243219
242639
242672
242708
242749
242792
242838
242886
242933
242982
243027
243070
243105
243136
243155
242558
242592
242629
242671
242716
242764
242813
242863
242912
242957
243000
243035
243064
243082
242475
242507
242546
242588
242634
242682
242733
242783
242832
242878
242919
242954
242979
242996
242386
242418
242457
242498
242544
242593
242643
242694
242743
242789
242828
242863
242886
242903
242292
242322
242360
242400
242446
242494
242545
242596
242645
242691
242729
242764
242785
242805
242189
242217
242255
242295
242340
242388
242438
242489
242537
242584
242622
242658
242679
242703
242077
242104
242142
242180
242226
242273
242323
242375
242424
242471
242509
242545
242565
242590
241955
241981
242018
242056
242101
242149
242199
242252
242302
242350
242388
242424
242445
242472
241822
241857
241892
241930
241973
242020
242069
242120
242170
242217
242257
242292
242315
242335
242898
242911
242921
242932
242948
242966
242989
243013
243040
243068
243098
243128
243162
243191
242803
242819
242828
242843
242861
242881
242906
242933
242963
242994
243027
243058
243093
243117
242718
242734
242745
242761
242781
242804
242830
242858
242890
242921
242956
242988
243026
243051
242637
242651
242664
242683
242705
242731
242760
242791
242825
242860
242898
242931
242968
242994
242561
242574
242588
242609
242633
242661
242693
242726
242763
242800
242840
242875
242914
242942
242485
242497
242512
242535
242562
242593
242627
242663
242703
242743
242784
242822
242860
242890
242408
242419
242437
242461
242490
242524
242561
242600
242643
242685
242728
242767
242805
242835
242328
242340
242360
242386
242417
242453
242493
242535
242579
242624
242667
242707
242744
242776
242245
242258
242281
242308
242342
242380
242422
242466
242513
242559
242603
242645
242682
242713
242158
242172
242198
242227
242262
242303
242347
242394
242441
242488
242533
242575
242610
242643
242069
242082
242111
242141
242179
242222
242268
242317
242366
242415
242460
242503
242536
242568
241973
241987
242018
242050
242091
242136
242186
242237
242287
242335
242381
242425
242457
242491
241871
241884
241917
241953
241998
242046
242098
242150
242203
242256
242303
242348
242381
242415
241759
241779
241814
241855
241901
241952
242008
242063
242117
242171
242221
242267
242302
242335
242746
242749
242757
242769
242785
242805
242829
242855
242891
242922
242666
242661
242649
242646
242646
242648
242656
242668
242685
242704
242730
242755
242790
242812
242575
242568
242555
242552
242551
242554
242561
242574
242590
242610
242636
242661
242696
242717
242487
242478
242466
242463
242462
242466
242474
242487
242504
242524
242551
242577
242611
242636
242407
242394
242383
242379
242380
242384
242392
242406
242425
242446
242474
242502
242536
242565
242329
242315
242305
242302
242303
242308
242317
242333
242354
242377
242405
242435
242469