/*--------------------------------*- C++ -*----------------------------------*\
| =========                 |                                                 |
| \\      /  F ield         | OpenFOAM: The Open Source CFD Toolbox           |
|  \\    /   O peration     | Version:  v2106                                 |
|   \\  /    A nd           | Website:  www.openfoam.com                      |
|    \\/     M anipulation  |                                                 |
\*---------------------------------------------------------------------------*/
FoamFile
{
    version     2.0;
    format      ascii;
    arch        "LSB;label=32;scalar=64";
    class       volScalarField;
    location    "0.000209";
    object      k;
}
// * * * * * * * * * * * * * * * * * * * * * * * * * * * * * * * * * * * * * //

dimensions      [0 2 -2 0 0 0 0];

internalField   nonuniform List<scalar> 
17924
(
3.9652e-12
2.52894e-12
2.23094e-12
2.16763e-12
2.38464e-12
2.16359e-12
2.11772e-12
2.1083e-12
2.10698e-12
2.10808e-12
2.1102e-12
2.45311e-12
2.17701e-12
2.11423e-12
2.10143e-12
2.09897e-12
2.09849e-12
2.09843e-12
2.69074e-12
2.23495e-12
2.1259e-12
2.10281e-12
2.09829e-12
2.09731e-12
2.09694e-12
3.00756e-12
2.30924e-12
2.14077e-12
2.10497e-12
2.09812e-12
2.09678e-12
2.09635e-12
3.34822e-12
2.38188e-12
2.15369e-12
2.10652e-12
2.09785e-12
2.0963e-12
2.09586e-12
3.69421e-12
2.44561e-12
2.16264e-12
2.10707e-12
2.09744e-12
2.09584e-12
2.09542e-12
4.07195e-12
2.5079e-12
2.16977e-12
2.10719e-12
2.09707e-12
2.09553e-12
2.09516e-12
4.48797e-12
2.57221e-12
2.17657e-12
2.10754e-12
2.09729e-12
2.09603e-12
2.09585e-12
4.91993e-12
2.63731e-12
2.18458e-12
2.11005e-12
2.10076e-12
2.10091e-12
2.1018e-12
5.37952e-12
2.71401e-12
2.20162e-12
2.12373e-12
2.12049e-12
2.12771e-12
2.1342e-12
5.93175e-12
2.85125e-12
2.26172e-12
2.18822e-12
2.21331e-12
2.25305e-12
2.28596e-12
7.1206e-12
3.2945e-12
2.5103e-12
2.46258e-12
2.60199e-12
2.77585e-12
2.92005e-12
1.09083e-11
4.90068e-12
3.4769e-12
3.51853e-12
4.0678e-12
4.73838e-12
5.30516e-12
2.30895e-11
1.03266e-11
6.92336e-12
7.22415e-12
9.07851e-12
1.13951e-11
1.34002e-11
2.14126e-12
2.11005e-12
2.10351e-12
2.1021e-12
2.10182e-12
2.10186e-12
2.10205e-12
2.1022e-12
2.10214e-12
2.10173e-12
2.10111e-12
2.10145e-12
2.10711e-12
2.13468e-12
2.15304e-12
2.11234e-12
2.10289e-12
2.10083e-12
2.10029e-12
2.10004e-12
2.09986e-12
2.09969e-12
2.09953e-12
2.09937e-12
2.09929e-12
2.10006e-12
2.10539e-12
2.13072e-12
2.18923e-12
2.12086e-12
2.10426e-12
2.10059e-12
2.09972e-12
2.09939e-12
2.09916e-12
2.09896e-12
2.09879e-12
2.09864e-12
2.09863e-12
2.09941e-12
2.10443e-12
2.12848e-12
2.23736e-12
2.13184e-12
2.10609e-12
2.10045e-12
2.09921e-12
2.09882e-12
2.09859e-12
2.09839e-12
2.09821e-12
2.09807e-12
2.09805e-12
2.09877e-12
2.10339e-12
2.12625e-12
2.28857e-12
2.14245e-12
2.10759e-12
2.10021e-12
2.09868e-12
2.09827e-12
2.09803e-12
2.09785e-12
2.09768e-12
2.09756e-12
2.09754e-12
2.09819e-12
2.10252e-12
2.12457e-12
2.3393e-12
2.15143e-12
2.10847e-12
2.09982e-12
2.09815e-12
2.09773e-12
2.0975e-12
2.09732e-12
2.09716e-12
2.09704e-12
2.09702e-12
2.09762e-12
2.10166e-12
2.12284e-12
2.39334e-12
2.15993e-12
2.10904e-12
2.09939e-12
2.09764e-12
2.09723e-12
2.097e-12
2.09684e-12
2.09669e-12
2.09658e-12
2.09656e-12
2.09712e-12
2.10088e-12
2.12105e-12
2.45163e-12
2.16847e-12
2.10954e-12
2.099e-12
2.09723e-12
2.09685e-12
2.09665e-12
2.09649e-12
2.09635e-12
2.09625e-12
2.09623e-12
2.09676e-12
2.10031e-12
2.11954e-12
2.51086e-12
2.17689e-12
2.11018e-12
2.0989e-12
2.09724e-12
2.09702e-12
2.09694e-12
2.09686e-12
2.09674e-12
2.09664e-12
2.09664e-12
2.09725e-12
2.10105e-12
2.12131e-12
2.572e-12
2.18642e-12
2.11187e-12
2.10015e-12
2.09922e-12
2.09986e-12
2.10045e-12
2.10074e-12
2.1008e-12
2.10075e-12
2.1008e-12
2.1018e-12
2.10731e-12
2.1345e-12
2.64105e-12
2.20258e-12
2.11864e-12
2.10755e-12
2.11012e-12
2.11474e-12
2.1185e-12
2.12075e-12
2.1218e-12
2.12219e-12
2.12259e-12
2.12501e-12
2.13623e-12
2.18674e-12
2.78303e-12
2.25458e-12
2.1478e-12
2.1404e-12
2.15739e-12
2.17869e-12
2.19594e-12
2.20705e-12
2.21307e-12
2.21614e-12
2.21854e-12
2.22575e-12
2.25226e-12
2.36451e-12
3.24023e-12
2.44572e-12
2.26287e-12
2.26897e-12
2.33882e-12
2.42295e-12
2.49203e-12
2.53915e-12
2.56703e-12
2.58346e-12
2.59582e-12
2.61932e-12
2.68194e-12
2.93345e-12
4.74003e-12
3.097e-12
2.67527e-12
2.72384e-12
2.96641e-12
3.26306e-12
3.51125e-12
3.68938e-12
3.80397e-12
3.8793e-12
3.93759e-12
4.02156e-12
4.17247e-12
4.69923e-12
2.10728e-12
2.1033e-12
2.10244e-12
2.10221e-12
2.10208e-12
2.10199e-12
2.10192e-12
2.10184e-12
2.10173e-12
2.10156e-12
2.10132e-12
2.10111e-12
2.10132e-12
2.10334e-12
2.10884e-12
2.10339e-12
2.10204e-12
2.10167e-12
2.10148e-12
2.10133e-12
2.10119e-12
2.10105e-12
2.10092e-12
2.10079e-12
2.10065e-12
2.10053e-12
2.10077e-12
2.10274e-12
2.11363e-12
2.10422e-12
2.10182e-12
2.10121e-12
2.10097e-12
2.10081e-12
2.10066e-12
2.10053e-12
2.1004e-12
2.10028e-12
2.10015e-12
2.10007e-12
2.10033e-12
2.10228e-12
2.12001e-12
2.10535e-12
2.10165e-12
2.10075e-12
2.10046e-12
2.10029e-12
2.10014e-12
2.1e-12
2.09987e-12
2.09975e-12
2.09962e-12
2.09954e-12
2.09979e-12
2.10168e-12
2.12672e-12
2.10639e-12
2.10142e-12
2.10027e-12
2.09993e-12
2.09976e-12
2.09962e-12
2.09949e-12
2.09936e-12
2.09924e-12
2.09912e-12
2.09904e-12
2.09927e-12
2.10112e-12
2.13318e-12
2.10717e-12
2.1011e-12
2.09978e-12
2.09941e-12
2.09924e-12
2.09909e-12
2.09896e-12
2.09883e-12
2.09872e-12
2.09861e-12
2.09855e-12
2.09877e-12
2.10056e-12
2.13992e-12
2.10787e-12
2.10074e-12
2.09929e-12
2.09891e-12
2.09873e-12
2.09858e-12
2.09845e-12
2.09833e-12
2.09823e-12
2.09813e-12
2.09809e-12
2.0983e-12
2.10004e-12
2.14705e-12
2.10854e-12
2.10038e-12
2.09881e-12
2.09842e-12
2.09824e-12
2.09809e-12
2.09796e-12
2.09784e-12
2.09775e-12
2.09767e-12
2.09765e-12
2.09787e-12
2.09953e-12
2.15415e-12
2.10918e-12
2.10005e-12
2.09839e-12
2.098e-12
2.09783e-12
2.09769e-12
2.09757e-12
2.09746e-12
2.09738e-12
2.09731e-12
2.09732e-12
2.09758e-12
2.09931e-12
2.16127e-12
2.1099e-12
2.09984e-12
2.0981e-12
2.0978e-12
2.09771e-12
2.09765e-12
2.09757e-12
2.09749e-12
2.09742e-12
2.09737e-12
2.09743e-12
2.09784e-12
2.10014e-12
2.16888e-12
2.11131e-12
2.1002e-12
2.09853e-12
2.09862e-12
2.09898e-12
2.09926e-12
2.09938e-12
2.09939e-12
2.09936e-12
2.09933e-12
2.0995e-12
2.10036e-12
2.10464e-12
2.18407e-12
2.11655e-12
2.103e-12
2.10181e-12
2.10357e-12
2.10583e-12
2.10761e-12
2.10866e-12
2.10913e-12
2.10926e-12
2.10929e-12
2.10973e-12
2.11172e-12
2.12129e-12
2.23447e-12
2.13718e-12
2.11535e-12
2.11596e-12
2.12399e-12
2.13356e-12
2.14119e-12
2.14604e-12
2.14852e-12
2.14955e-12
2.14997e-12
2.15128e-12
2.15571e-12
2.17703e-12
2.40454e-12
2.20913e-12
2.16075e-12
2.16741e-12
2.19645e-12
2.23131e-12
2.2595e-12
2.27848e-12
2.28924e-12
2.29468e-12
2.29745e-12
2.30219e-12
2.31209e-12
2.35602e-12
2.10324e-12
2.10287e-12
2.10279e-12
2.10274e-12
2.10268e-12
2.1026e-12
2.10252e-12
2.10244e-12
2.10234e-12
2.10223e-12
2.1021e-12
2.10192e-12
2.10174e-12
2.1016e-12
2.10323e-12
2.10262e-12
2.10243e-12
2.10233e-12
2.10223e-12
2.10213e-12
2.10203e-12
2.10193e-12
2.10183e-12
2.10172e-12
2.10161e-12
2.10146e-12
2.1013e-12
2.10124e-12
2.10356e-12
2.10239e-12
2.10202e-12
2.10188e-12
2.10176e-12
2.10167e-12
2.10156e-12
2.10147e-12
2.10137e-12
2.10127e-12
2.10116e-12
2.10102e-12
2.1009e-12
2.10089e-12
2.10401e-12
2.10213e-12
2.10159e-12
2.10141e-12
2.10128e-12
2.10118e-12
2.10108e-12
2.10098e-12
2.10088e-12
2.10077e-12
2.10065e-12
2.10051e-12
2.1004e-12
2.10041e-12
2.10446e-12
2.10184e-12
2.10113e-12
2.10092e-12
2.10079e-12
2.10069e-12
2.10059e-12
2.10049e-12
2.10039e-12
2.10029e-12
2.10016e-12
2.10003e-12
2.09991e-12
2.09993e-12
2.10485e-12
2.10151e-12
2.10067e-12
2.10043e-12
2.1003e-12
2.10019e-12
2.10009e-12
2.09999e-12
2.09988e-12
2.09979e-12
2.09967e-12
2.09955e-12
2.09943e-12
2.09947e-12
2.10527e-12
2.10119e-12
2.10021e-12
2.09995e-12
2.09981e-12
2.0997e-12
2.09959e-12
2.09949e-12
2.09939e-12
2.0993e-12
2.0992e-12
2.0991e-12
2.099e-12
2.09906e-12
2.10571e-12
2.10085e-12
2.09974e-12
2.09947e-12
2.09933e-12
2.09921e-12
2.0991e-12
2.099e-12
2.09891e-12
2.09883e-12
2.09874e-12
2.09866e-12
2.09858e-12
2.09866e-12
2.10613e-12
2.10051e-12
2.0993e-12
2.09901e-12
2.09886e-12
2.09874e-12
2.09863e-12
2.09853e-12
2.09845e-12
2.09838e-12
2.09831e-12
2.09826e-12
2.09821e-12
2.09831e-12
2.10654e-12
2.10017e-12
2.09886e-12
2.09855e-12
2.09841e-12
2.09829e-12
2.0982e-12
2.09812e-12
2.09805e-12
2.09799e-12
2.09795e-12
2.09793e-12
2.09791e-12
2.09808e-12
2.10696e-12
2.09991e-12
2.09849e-12
2.09819e-12
2.09808e-12
2.09801e-12
2.09795e-12
2.09789e-12
2.09784e-12
2.09781e-12
2.09779e-12
2.09781e-12
2.09784e-12
2.0982e-12
2.10806e-12
2.1e-12
2.09835e-12
2.0981e-12
2.09818e-12
2.09831e-12
2.09841e-12
2.09845e-12
2.09845e-12
2.09844e-12
2.09844e-12
2.09847e-12
2.09858e-12
2.09936e-12
2.11277e-12
2.10166e-12
2.09921e-12
2.09917e-12
2.09994e-12
2.10085e-12
2.10156e-12
2.10198e-12
2.10215e-12
2.10218e-12
2.10216e-12
2.10219e-12
2.1024e-12
2.10405e-12
2.13011e-12
2.10858e-12
2.10344e-12
2.10417e-12
2.10731e-12
2.11102e-12
2.11392e-12
2.11574e-12
2.11662e-12
2.11688e-12
2.1168e-12
2.11683e-12
2.11721e-12
2.12051e-12
2.10277e-12
2.10283e-12
2.10289e-12
2.10291e-12
2.10289e-12
2.10285e-12
2.10281e-12
2.10275e-12
2.10268e-12
2.10261e-12
2.10252e-12
2.10238e-12
2.1022e-12
2.10193e-12
2.10257e-12
2.10258e-12
2.10257e-12
2.10255e-12
2.10251e-12
2.10246e-12
2.1024e-12
2.10232e-12
2.10225e-12
2.10217e-12
2.10209e-12
2.10195e-12
2.10179e-12
2.10159e-12
2.10236e-12
2.10224e-12
2.10218e-12
2.10215e-12
2.10209e-12
2.10205e-12
2.10198e-12
2.10191e-12
2.10184e-12
2.10176e-12
2.10167e-12
2.10154e-12
2.10141e-12
2.10125e-12
2.10207e-12
2.10185e-12
2.10176e-12
2.10171e-12
2.10166e-12
2.10161e-12
2.10154e-12
2.10147e-12
2.10138e-12
2.1013e-12
2.10119e-12
2.10106e-12
2.10092e-12
2.10078e-12
2.10174e-12
2.10143e-12
2.10132e-12
2.10127e-12
2.10121e-12
2.10115e-12
2.10109e-12
2.10101e-12
2.10093e-12
2.10084e-12
2.10073e-12
2.1006e-12
2.10045e-12
2.10031e-12
2.10139e-12
2.10099e-12
2.10087e-12
2.10081e-12
2.10075e-12
2.10069e-12
2.10062e-12
2.10054e-12
2.10046e-12
2.10037e-12
2.10026e-12
2.10014e-12
2.09998e-12
2.09986e-12
2.10105e-12
2.10057e-12
2.10042e-12
2.10036e-12
2.10029e-12
2.10022e-12
2.10015e-12
2.10007e-12
2.09999e-12
2.09991e-12
2.09981e-12
2.0997e-12
2.09956e-12
2.09946e-12
2.1007e-12
2.10013e-12
2.09996e-12
2.09989e-12
2.09982e-12
2.09975e-12
2.09967e-12
2.0996e-12
2.09952e-12
2.09944e-12
2.09936e-12
2.09926e-12
2.09914e-12
2.09906e-12
2.10034e-12
2.09968e-12
2.0995e-12
2.09943e-12
2.09936e-12
2.09928e-12
2.09921e-12
2.09913e-12
2.09906e-12
2.099e-12
2.09893e-12
2.09886e-12
2.09876e-12
2.0987e-12
2.09998e-12
2.09922e-12
2.09903e-12
2.09895e-12
2.09888e-12
2.09881e-12
2.09874e-12
2.09868e-12
2.09862e-12
2.09857e-12
2.09852e-12
2.09848e-12
2.09841e-12
2.09838e-12
2.09963e-12
2.09877e-12
2.09858e-12
2.09849e-12
2.09842e-12
2.09835e-12
2.0983e-12
2.09825e-12
2.09821e-12
2.09818e-12
2.09816e-12
2.09815e-12
2.09811e-12
2.09812e-12
2.09929e-12
2.09832e-12
2.09812e-12
2.09804e-12
2.098e-12
2.09796e-12
2.09793e-12
2.0979e-12
2.09788e-12
2.09787e-12
2.09788e-12
2.09789e-12
2.09787e-12
2.09792e-12
2.09926e-12
2.09802e-12
2.09776e-12
2.0977e-12
2.09774e-12
2.09778e-12
2.09782e-12
2.09785e-12
2.09786e-12
2.09787e-12
2.09789e-12
2.09789e-12
2.09785e-12
2.09792e-12
2.10038e-12
2.09815e-12
2.09767e-12
2.09772e-12
2.09803e-12
2.09838e-12
2.09866e-12
2.09883e-12
2.09891e-12
2.09893e-12
2.09892e-12
2.09886e-12
2.09881e-12
2.09898e-12
2.10223e-12
2.10235e-12
2.10244e-12
2.10248e-12
2.10249e-12
2.10248e-12
2.10247e-12
2.10245e-12
2.10242e-12
2.10238e-12
2.10233e-12
2.10224e-12
2.1021e-12
2.10187e-12
2.10203e-12
2.10211e-12
2.10216e-12
2.10217e-12
2.10216e-12
2.10215e-12
2.10213e-12
2.1021e-12
2.10206e-12
2.10202e-12
2.10196e-12
2.10186e-12
2.10174e-12
2.10155e-12
2.10177e-12
2.1018e-12
2.10181e-12
2.10181e-12
2.1018e-12
2.1018e-12
2.10178e-12
2.10175e-12
2.10171e-12
2.10167e-12
2.1016e-12
2.1015e-12
2.10139e-12
2.10124e-12
2.10143e-12
2.10143e-12
2.10143e-12
2.10144e-12
2.10143e-12
2.10143e-12
2.1014e-12
2.10137e-12
2.10132e-12
2.10127e-12
2.10118e-12
2.10107e-12
2.10095e-12
2.10082e-12
2.10105e-12
2.10104e-12
2.10104e-12
2.10105e-12
2.10104e-12
2.10104e-12
2.10101e-12
2.10098e-12
2.10093e-12
2.10087e-12
2.10078e-12
2.10066e-12
2.10053e-12
2.10038e-12
2.10066e-12
2.10065e-12
2.10064e-12
2.10065e-12
2.10064e-12
2.10063e-12
2.10061e-12
2.10057e-12
2.10051e-12
2.10045e-12
2.10036e-12
2.10025e-12
2.1001e-12
2.09996e-12
2.10028e-12
2.10026e-12
2.10024e-12
2.10024e-12
2.10023e-12
2.10022e-12
2.10019e-12
2.10015e-12
2.10009e-12
2.10003e-12
2.09995e-12
2.09985e-12
2.0997e-12
2.09958e-12
2.09988e-12
2.09984e-12
2.09982e-12
2.09982e-12
2.09981e-12
2.09979e-12
2.09976e-12
2.09972e-12
2.09966e-12
2.0996e-12
2.09952e-12
2.09943e-12
2.0993e-12
2.09919e-12
2.09947e-12
2.09941e-12
2.0994e-12
2.09939e-12
2.09937e-12
2.09935e-12
2.09932e-12
2.09928e-12
2.09923e-12
2.09918e-12
2.09911e-12
2.09904e-12
2.09893e-12
2.09884e-12
2.09905e-12
2.09896e-12
2.09895e-12
2.09894e-12
2.09892e-12
2.0989e-12
2.09888e-12
2.09885e-12
2.09881e-12
2.09877e-12
2.09871e-12
2.09867e-12
2.09857e-12
2.09851e-12
2.09864e-12
2.0985e-12
2.0985e-12
2.09849e-12
2.09847e-12
2.09845e-12
2.09844e-12
2.09842e-12
2.09839e-12
2.09837e-12
2.09835e-12
2.09833e-12
2.09826e-12
2.09823e-12
2.09817e-12
2.09802e-12
2.09803e-12
2.09802e-12
2.09801e-12
2.098e-12
2.09799e-12
2.09799e-12
2.09798e-12
2.09798e-12
2.09799e-12
2.09799e-12
2.09794e-12
2.09792e-12
2.0977e-12
2.09753e-12
2.09756e-12
2.09755e-12
2.09756e-12
2.09756e-12
2.09758e-12
2.09759e-12
2.09761e-12
2.09763e-12
2.09766e-12
2.09766e-12
2.0976e-12
2.09755e-12
2.09724e-12
2.09702e-12
2.09706e-12
2.09709e-12
2.09715e-12
2.0972e-12
2.09726e-12
2.09731e-12
2.09735e-12
2.09739e-12
2.09741e-12
2.09738e-12
2.09732e-12
2.09724e-12
2.10142e-12
2.10151e-12
2.10156e-12
2.10159e-12
2.10159e-12
2.1016e-12
2.1016e-12
2.1016e-12
2.10159e-12
2.10158e-12
2.10157e-12
2.10151e-12
2.10142e-12
2.10125e-12
2.10121e-12
2.10127e-12
2.10128e-12
2.10128e-12
2.10128e-12
2.10128e-12
2.10127e-12
2.10127e-12
2.10126e-12
2.10124e-12
2.10123e-12
2.10117e-12
2.10108e-12
2.10095e-12
2.10093e-12
2.10095e-12
2.10094e-12
2.10094e-12
2.10094e-12
2.10095e-12
2.10095e-12
2.10095e-12
2.10094e-12
2.10093e-12
2.1009e-12
2.10084e-12
2.10076e-12
2.10065e-12
2.10059e-12
2.1006e-12
2.10059e-12
2.1006e-12
2.10061e-12
2.10062e-12
2.10062e-12
2.10062e-12
2.1006e-12
2.10058e-12
2.10053e-12
2.10046e-12
2.10037e-12
2.10026e-12
2.10022e-12
2.10023e-12
2.10023e-12
2.10025e-12
2.10026e-12
2.10027e-12
2.10028e-12
2.10028e-12
2.10026e-12
2.10023e-12
2.10018e-12
2.10009e-12
2.09999e-12
2.09987e-12
2.09986e-12
2.09987e-12
2.09988e-12
2.09989e-12
2.09991e-12
2.09992e-12
2.09992e-12
2.09992e-12
2.0999e-12
2.09987e-12
2.09981e-12
2.09973e-12
2.09961e-12
2.09948e-12
2.09951e-12
2.09951e-12
2.09951e-12
2.09953e-12
2.09955e-12
2.09956e-12
2.09956e-12
2.09956e-12
2.09954e-12
2.09951e-12
2.09945e-12
2.09938e-12
2.09925e-12
2.09914e-12
2.09913e-12
2.09913e-12
2.09914e-12
2.09916e-12
2.09917e-12
2.09918e-12
2.09919e-12
2.09919e-12
2.09917e-12
2.09913e-12
2.09908e-12
2.09901e-12
2.09889e-12
2.09879e-12
2.09876e-12
2.09874e-12
2.09875e-12
2.09878e-12
2.09879e-12
2.0988e-12
2.09881e-12
2.09881e-12
2.09879e-12
2.09876e-12
2.09871e-12
2.09866e-12
2.09855e-12
2.09846e-12
2.09836e-12
2.09833e-12
2.09835e-12
2.09837e-12
2.09839e-12
2.09841e-12
2.09841e-12
2.09842e-12
2.09841e-12
2.09839e-12
2.09835e-12
2.09831e-12
2.09822e-12
2.09815e-12
2.09798e-12
2.09792e-12
2.09794e-12
2.09797e-12
2.09799e-12
2.09801e-12
2.09802e-12
2.09804e-12
2.09804e-12
2.09803e-12
2.09802e-12
2.09801e-12
2.09793e-12
2.09788e-12
2.09754e-12
2.09747e-12
2.09752e-12
2.09754e-12
2.09757e-12
2.0976e-12
2.09762e-12
2.09765e-12
2.09766e-12
2.09768e-12
2.09768e-12
2.09769e-12
2.09762e-12
2.09757e-12
2.09708e-12
2.097e-12
2.09708e-12
2.09711e-12
2.09715e-12
2.09718e-12
2.09723e-12
2.09726e-12
2.0973e-12
2.09733e-12
2.09736e-12
2.09737e-12
2.09729e-12
2.09721e-12
2.09654e-12
2.0965e-12
2.09661e-12
2.09666e-12
2.09672e-12
2.09678e-12
2.09685e-12
2.09691e-12
2.09696e-12
2.097e-12
2.09703e-12
2.09701e-12
2.09693e-12
2.09681e-12
2.10049e-12
2.10052e-12
2.10052e-12
2.10052e-12
2.1005e-12
2.10049e-12
2.10049e-12
2.1005e-12
2.10051e-12
2.10053e-12
2.10055e-12
2.10054e-12
2.1005e-12
2.1004e-12
2.10024e-12
2.10026e-12
2.10022e-12
2.10019e-12
2.10016e-12
2.10015e-12
2.10015e-12
2.10015e-12
2.10016e-12
2.10017e-12
2.10019e-12
2.10017e-12
2.10014e-12
2.10006e-12
2.09994e-12
2.09992e-12
2.09987e-12
2.09984e-12
2.09982e-12
2.09981e-12
2.09982e-12
2.09983e-12
2.09984e-12
2.09985e-12
2.09985e-12
2.09983e-12
2.0998e-12
2.09975e-12
2.09959e-12
2.09956e-12
2.09952e-12
2.0995e-12
2.09948e-12
2.09948e-12
2.09948e-12
2.09949e-12
2.0995e-12
2.0995e-12
2.09949e-12
2.09945e-12
2.09941e-12
2.09936e-12
2.09922e-12
2.0992e-12
2.09916e-12
2.09915e-12
2.09914e-12
2.09915e-12
2.09915e-12
2.09916e-12
2.09917e-12
2.09916e-12
2.09915e-12
2.09911e-12
2.09905e-12
2.09898e-12
2.09887e-12
2.09885e-12
2.09882e-12
2.09881e-12
2.0988e-12
2.09881e-12
2.09882e-12
2.09883e-12
2.09883e-12
2.09883e-12
2.0988e-12
2.09876e-12
2.09869e-12
2.09861e-12
2.09853e-12
2.09851e-12
2.09848e-12
2.09847e-12
2.09847e-12
2.09848e-12
2.09849e-12
2.0985e-12
2.0985e-12
2.0985e-12
2.09847e-12
2.09843e-12
2.09835e-12
2.09828e-12
2.09818e-12
2.09815e-12
2.09813e-12
2.09813e-12
2.09813e-12
2.09814e-12
2.09816e-12
2.09817e-12
2.09817e-12
2.09816e-12
2.09814e-12
2.0981e-12
2.09801e-12
2.09794e-12
2.09783e-12
2.0978e-12
2.09779e-12
2.09779e-12
2.0978e-12
2.09781e-12
2.09782e-12
2.09784e-12
2.09784e-12
2.09784e-12
2.09781e-12
2.09778e-12
2.0977e-12
2.09763e-12
2.09747e-12
2.09743e-12
2.09743e-12
2.09744e-12
2.09745e-12
2.09747e-12
2.09749e-12
2.09751e-12
2.09752e-12
2.09752e-12
2.0975e-12
2.09748e-12
2.0974e-12
2.09734e-12
2.09713e-12
2.09706e-12
2.09708e-12
2.0971e-12
2.09712e-12
2.09714e-12
2.09716e-12
2.09719e-12
2.0972e-12
2.09721e-12
2.0972e-12
2.09721e-12
2.09713e-12
2.09709e-12
2.09674e-12
2.09667e-12
2.09671e-12
2.09674e-12
2.09677e-12
2.0968e-12
2.09684e-12
2.09687e-12
2.09689e-12
2.09691e-12
2.09692e-12
2.09693e-12
2.09686e-12
2.09681e-12
2.09635e-12
2.09628e-12
2.09635e-12
2.09638e-12
2.09643e-12
2.09647e-12
2.09651e-12
2.09655e-12
2.09659e-12
2.09662e-12
2.09665e-12
2.09666e-12
2.09657e-12
2.09648e-12
2.09589e-12
2.09585e-12
2.09596e-12
2.09601e-12
2.09608e-12
2.09614e-12
2.09621e-12
2.09626e-12
2.09631e-12
2.09635e-12
2.09637e-12
2.09633e-12
2.09624e-12
2.09611e-12
2.09947e-12
2.09945e-12
2.09942e-12
2.0994e-12
2.09937e-12
2.09936e-12
2.09937e-12
2.09939e-12
2.09942e-12
2.09946e-12
2.09951e-12
2.09954e-12
2.09957e-12
2.09951e-12
2.0992e-12
2.09918e-12
2.09911e-12
2.09907e-12
2.09903e-12
2.09901e-12
2.09901e-12
2.09902e-12
2.09905e-12
2.09908e-12
2.09913e-12
2.09916e-12
2.09919e-12
2.09915e-12
2.09889e-12
2.09884e-12
2.09875e-12
2.09871e-12
2.09867e-12
2.09866e-12
2.09866e-12
2.09868e-12
2.09871e-12
2.09874e-12
2.09878e-12
2.0988e-12
2.09883e-12
2.09882e-12
2.09853e-12
2.09848e-12
2.09841e-12
2.09837e-12
2.09833e-12
2.09832e-12
2.09832e-12
2.09834e-12
2.09836e-12
2.09839e-12
2.09841e-12
2.09842e-12
2.09844e-12
2.09842e-12
2.09817e-12
2.09812e-12
2.09806e-12
2.09802e-12
2.098e-12
2.09799e-12
2.09799e-12
2.09801e-12
2.09803e-12
2.09805e-12
2.09807e-12
2.09807e-12
2.09807e-12
2.09805e-12
2.09783e-12
2.09778e-12
2.09773e-12
2.09769e-12
2.09767e-12
2.09767e-12
2.09767e-12
2.09768e-12
2.0977e-12
2.09772e-12
2.09773e-12
2.09773e-12
2.09771e-12
2.09769e-12
2.09751e-12
2.09746e-12
2.0974e-12
2.09738e-12
2.09736e-12
2.09736e-12
2.09736e-12
2.09737e-12
2.09738e-12
2.0974e-12
2.09741e-12
2.09741e-12
2.09738e-12
2.09736e-12
2.09717e-12
2.09713e-12
2.09709e-12
2.09707e-12
2.09705e-12
2.09705e-12
2.09706e-12
2.09707e-12
2.09708e-12
2.09709e-12
2.09709e-12
2.09709e-12
2.09706e-12
2.09704e-12
2.09685e-12
2.09681e-12
2.09678e-12
2.09677e-12
2.09676e-12
2.09676e-12
2.09677e-12
2.09678e-12
2.09678e-12
2.09679e-12
2.09679e-12
2.09679e-12
2.09676e-12
2.09674e-12
2.09654e-12
2.0965e-12
2.09648e-12
2.09647e-12
2.09647e-12
2.09648e-12
2.09648e-12
2.0965e-12
2.0965e-12
2.09651e-12
2.09651e-12
2.09652e-12
2.09647e-12
2.09646e-12
2.09624e-12
2.09619e-12
2.09619e-12
2.09619e-12
2.0962e-12
2.09621e-12
2.09622e-12
2.09623e-12
2.09624e-12
2.09625e-12
2.09626e-12
2.09628e-12
2.09623e-12
2.09622e-12
2.09594e-12
2.09588e-12
2.0959e-12
2.09591e-12
2.09593e-12
2.09595e-12
2.09596e-12
2.09598e-12
2.09599e-12
2.09601e-12
2.09602e-12
2.09604e-12
2.09599e-12
2.09595e-12
2.09561e-12
2.09556e-12
2.09562e-12
2.09564e-12
2.09567e-12
2.0957e-12
2.09572e-12
2.09575e-12
2.09576e-12
2.09578e-12
2.0958e-12
2.09581e-12
2.09573e-12
2.09564e-12
2.09525e-12
2.09522e-12
2.09532e-12
2.09536e-12
2.09542e-12
2.09546e-12
2.0955e-12
2.09553e-12
2.09555e-12
2.09557e-12
2.09557e-12
2.09552e-12
2.09542e-12
2.09529e-12
2.09829e-12
2.09826e-12
2.09823e-12
2.09822e-12
2.09821e-12
2.09822e-12
2.09824e-12
2.09827e-12
2.09832e-12
2.09838e-12
2.09846e-12
2.09852e-12
2.0986e-12
2.09859e-12
2.09802e-12
2.098e-12
2.09795e-12
2.09792e-12
2.09789e-12
2.09789e-12
2.0979e-12
2.09793e-12
2.09797e-12
2.09803e-12
2.09811e-12
2.09816e-12
2.09823e-12
2.09824e-12
2.09773e-12
2.09769e-12
2.09762e-12
2.09759e-12
2.09757e-12
2.09757e-12
2.09758e-12
2.09761e-12
2.09765e-12
2.09771e-12
2.09778e-12
2.09783e-12
2.09791e-12
2.09793e-12
2.09741e-12
2.09736e-12
2.09731e-12
2.09728e-12
2.09726e-12
2.09726e-12
2.09727e-12
2.09729e-12
2.09733e-12
2.09738e-12
2.09744e-12
2.09748e-12
2.09755e-12
2.09756e-12
2.09708e-12
2.09704e-12
2.09699e-12
2.09697e-12
2.09695e-12
2.09695e-12
2.09696e-12
2.09699e-12
2.09702e-12
2.09707e-12
2.09712e-12
2.09716e-12
2.09721e-12
2.09723e-12
2.09677e-12
2.09674e-12
2.0967e-12
2.09668e-12
2.09666e-12
2.09666e-12
2.09667e-12
2.09669e-12
2.09673e-12
2.09677e-12
2.09681e-12
2.09685e-12
2.09688e-12
2.0969e-12
2.09649e-12
2.09646e-12
2.09642e-12
2.0964e-12
2.09639e-12
2.09639e-12
2.0964e-12
2.09642e-12
2.09644e-12
2.09648e-12
2.09652e-12
2.09656e-12
2.09658e-12
2.09661e-12
2.09621e-12
2.09618e-12
2.09615e-12
2.09614e-12
2.09613e-12
2.09613e-12
2.09614e-12
2.09616e-12
2.09618e-12
2.09621e-12
2.09624e-12
2.09627e-12
2.09629e-12
2.09632e-12
2.09594e-12
2.09592e-12
2.0959e-12
2.0959e-12
2.09589e-12
2.09589e-12
2.0959e-12
2.09591e-12
2.09593e-12
2.09595e-12
2.09597e-12
2.09601e-12
2.09602e-12
2.09605e-12
2.09569e-12
2.09567e-12
2.09566e-12
2.09566e-12
2.09566e-12
2.09566e-12
2.09567e-12
2.09568e-12
2.0957e-12
2.09572e-12
2.09573e-12
2.09577e-12
2.09577e-12
2.0958e-12
2.09546e-12
2.09544e-12
2.09544e-12
2.09545e-12
2.09545e-12
2.09546e-12
2.09546e-12
2.09547e-12
2.09548e-12
2.0955e-12
2.09552e-12
2.09555e-12
2.09555e-12
2.09559e-12
2.09524e-12
2.09521e-12
2.09523e-12
2.09524e-12
2.09526e-12
2.09526e-12
2.09527e-12
2.09528e-12
2.09529e-12
2.0953e-12
2.09532e-12
2.09535e-12
2.09533e-12
2.09534e-12
2.095e-12
2.09498e-12
2.09504e-12
2.09505e-12
2.09507e-12
2.09508e-12
2.0951e-12
2.0951e-12
2.0951e-12
2.09511e-12
2.09513e-12
2.09515e-12
2.09509e-12
2.09505e-12
2.09474e-12
2.09473e-12
2.09483e-12
2.09486e-12
2.0949e-12
2.09492e-12
2.09494e-12
2.09495e-12
2.09495e-12
2.09494e-12
2.09493e-12
2.09489e-12
2.0948e-12
2.0947e-12
2.09679e-12
2.09683e-12
2.09685e-12
2.09688e-12
2.09691e-12
2.09695e-12
2.097e-12
2.09705e-12
2.09713e-12
2.09721e-12
2.0973e-12
2.09739e-12
2.09749e-12
2.09752e-12
2.0966e-12
2.09664e-12
2.09664e-12
2.09665e-12
2.09667e-12
2.0967e-12
2.09674e-12
2.09679e-12
2.09686e-12
2.09694e-12
2.09704e-12
2.09712e-12
2.0972e-12
2.09724e-12
2.09639e-12
2.09641e-12
2.09639e-12
2.0964e-12
2.09641e-12
2.09645e-12
2.09649e-12
2.09655e-12
2.09661e-12
2.09669e-12
2.09678e-12
2.09686e-12
2.09696e-12
2.09701e-12
2.09614e-12
2.09615e-12
2.09615e-12
2.09616e-12
2.09618e-12
2.09621e-12
2.09625e-12
2.0963e-12
2.09636e-12
2.09643e-12
2.09651e-12
2.09658e-12
2.09668e-12
2.09673e-12
2.09589e-12
2.0959e-12
2.09591e-12
2.09593e-12
2.09594e-12
2.09598e-12
2.09602e-12
2.09607e-12
2.09613e-12
2.09619e-12
2.09627e-12
2.09634e-12
2.09642e-12
2.09648e-12
2.09565e-12
2.09568e-12
2.09569e-12
2.09571e-12
2.09573e-12
2.09576e-12
2.0958e-12
2.09584e-12
2.09589e-12
2.09596e-12
2.09603e-12
2.09609e-12
2.09616e-12
2.09623e-12
2.09544e-12
2.09547e-12
2.09548e-12
2.09551e-12
2.09552e-12
2.09555e-12
2.09558e-12
2.09563e-12
2.09568e-12
2.09574e-12
2.0958e-12
2.09587e-12
2.09593e-12
2.09601e-12
2.09523e-12
2.09526e-12
2.09528e-12
2.09531e-12
2.09533e-12
2.09536e-12
2.09539e-12
2.09543e-12
2.09547e-12
2.09552e-12
2.09558e-12
2.09564e-12
2.0957e-12
2.09578e-12
2.09504e-12
2.09507e-12
2.0951e-12
2.09513e-12
2.09515e-12
2.09518e-12
2.09521e-12
2.09524e-12
2.09528e-12
2.09532e-12
2.09537e-12
2.09544e-12
2.09549e-12
2.09557e-12
2.09487e-12
2.0949e-12
2.09493e-12
2.09496e-12
2.09499e-12
2.09501e-12
2.09504e-12
2.09507e-12
2.0951e-12
2.09514e-12
2.09518e-12
2.09525e-12
2.09529e-12
2.09537e-12
2.09472e-12
2.09474e-12
2.09479e-12
2.09482e-12
2.09485e-12
2.09487e-12
2.09489e-12
2.09491e-12
2.09494e-12
2.09497e-12
2.09502e-12
2.09508e-12
2.09512e-12
2.0952e-12
2.09458e-12
2.09459e-12
2.09465e-12
2.09468e-12
2.09471e-12
2.09473e-12
2.09475e-12
2.09477e-12
2.09479e-12
2.09482e-12
2.09486e-12
2.09492e-12
2.09494e-12
2.09499e-12
2.09441e-12
2.09444e-12
2.09453e-12
2.09456e-12
2.09459e-12
2.09461e-12
2.09462e-12
2.09463e-12
2.09465e-12
2.09467e-12
2.09471e-12
2.09475e-12
2.09474e-12
2.09474e-12
2.09426e-12
2.0943e-12
2.09441e-12
2.09445e-12
2.09449e-12
2.0945e-12
2.09452e-12
2.09453e-12
2.09453e-12
2.09454e-12
2.09455e-12
2.09453e-12
2.09448e-12
2.09442e-12
2.09488e-12
2.095e-12
2.09511e-12
2.09522e-12
2.09531e-12
2.09539e-12
2.09548e-12
2.09558e-12
2.09568e-12
2.09579e-12
2.0959e-12
2.09601e-12
2.09611e-12
2.09616e-12
2.09481e-12
2.09493e-12
2.09502e-12
2.09511e-12
2.09519e-12
2.09527e-12
2.09536e-12
2.09546e-12
2.09556e-12
2.09566e-12
2.09578e-12
2.09588e-12
2.09598e-12
2.09605e-12
2.09471e-12
2.09483e-12
2.09491e-12
2.09499e-12
2.09506e-12
2.09514e-12
2.09523e-12
2.09533e-12
2.09543e-12
2.09554e-12
2.09566e-12
2.09576e-12
2.09588e-12
2.09596e-12
2.09459e-12
2.0947e-12
2.09478e-12
2.09487e-12
2.09495e-12
2.09503e-12
2.09511e-12
2.0952e-12
2.09529e-12
2.0954e-12
2.09551e-12
2.09561e-12
2.09573e-12
2.09582e-12
2.09445e-12
2.09456e-12
2.09465e-12
2.09474e-12
2.09481e-12
2.0949e-12
2.09498e-12
2.09507e-12
2.09516e-12
2.09526e-12
2.09537e-12
2.09547e-12
2.09558e-12
2.09568e-12
2.09431e-12
2.09443e-12
2.09452e-12
2.09462e-12
2.09469e-12
2.09478e-12
2.09486e-12
2.09495e-12
2.09503e-12
2.09513e-12
2.09523e-12
2.09533e-12
2.09543e-12
2.09553e-12
2.0942e-12
2.09431e-12
2.09441e-12
2.0945e-12
2.09458e-12
2.09466e-12
2.09474e-12
2.09482e-12
2.09491e-12
2.095e-12
2.09509e-12
2.09519e-12
2.09529e-12
2.0954e-12
2.09408e-12
2.0942e-12
2.0943e-12
2.0944e-12
2.09447e-12
2.09455e-12
2.09463e-12
2.09471e-12
2.09479e-12
2.09487e-12
2.09496e-12
2.09506e-12
2.09515e-12
2.09527e-12
2.09398e-12
2.0941e-12
2.09421e-12
2.0943e-12
2.09437e-12
2.09445e-12
2.09452e-12
2.09459e-12
2.09467e-12
2.09475e-12
2.09483e-12
2.09493e-12
2.09502e-12
2.09514e-12
2.09391e-12
2.09401e-12
2.09412e-12
2.09421e-12
2.09428e-12
2.09435e-12
2.09442e-12
2.09449e-12
2.09456e-12
2.09463e-12
2.09471e-12
2.09481e-12
2.0949e-12
2.09502e-12
2.09385e-12
2.09394e-12
2.09404e-12
2.09413e-12
2.0942e-12
2.09427e-12
2.09433e-12
2.09439e-12
2.09445e-12
2.09452e-12
2.0946e-12
2.09471e-12
2.09479e-12
2.09491e-12
2.09378e-12
2.09386e-12
2.09397e-12
2.09406e-12
2.09413e-12
2.09419e-12
2.09424e-12
2.0943e-12
2.09436e-12
2.09442e-12
2.0945e-12
2.0946e-12
2.09466e-12
2.09476e-12
2.0937e-12
2.09379e-12
2.09392e-12
2.094e-12
2.09407e-12
2.09411e-12
2.09416e-12
2.0942e-12
2.09425e-12
2.09431e-12
2.09438e-12
2.09447e-12
2.09451e-12
2.09456e-12
2.09364e-12
2.09374e-12
2.09388e-12
2.09395e-12
2.09401e-12
2.09405e-12
2.09409e-12
2.09413e-12
2.09417e-12
2.09421e-12
2.09426e-12
2.09428e-12
2.09429e-12
2.09428e-12
2.09244e-12
2.09267e-12
2.09288e-12
2.09306e-12
2.09323e-12
2.09337e-12
2.09352e-12
2.09366e-12
2.0938e-12
2.09394e-12
2.09409e-12
2.09423e-12
2.09436e-12
2.09443e-12
2.09252e-12
2.09274e-12
2.09292e-12
2.0931e-12
2.09326e-12
2.09341e-12
2.09357e-12
2.09371e-12
2.09386e-12
2.094e-12
2.09415e-12
2.09429e-12
2.09442e-12
2.09453e-12
2.09258e-12
2.09278e-12
2.09296e-12
2.09313e-12
2.0933e-12
2.09345e-12
2.0936e-12
2.09375e-12
2.0939e-12
2.09404e-12
2.0942e-12
2.09433e-12
2.09448e-12
2.09461e-12
2.09259e-12
2.09279e-12
2.09298e-12
2.09316e-12
2.09332e-12
2.09347e-12
2.09363e-12
2.09377e-12
2.09392e-12
2.09407e-12
2.09422e-12
2.09435e-12
2.09449e-12
2.09463e-12
2.0926e-12
2.0928e-12
2.093e-12
2.09317e-12
2.09334e-12
2.09349e-12
2.09364e-12
2.09379e-12
2.09393e-12
2.09407e-12
2.09422e-12
2.09435e-12
2.09449e-12
2.09463e-12
2.09259e-12
2.0928e-12
2.093e-12
2.09318e-12
2.09334e-12
2.0935e-12
2.09365e-12
2.09379e-12
2.09393e-12
2.09408e-12
2.09422e-12
2.09435e-12
2.09448e-12
2.09462e-12
2.0926e-12
2.09282e-12
2.09301e-12
2.09319e-12
2.09335e-12
2.0935e-12
2.09365e-12
2.09379e-12
2.09393e-12
2.09406e-12
2.0942e-12
2.09434e-12
2.09446e-12
2.0946e-12
2.0926e-12
2.09282e-12
2.09301e-12
2.09319e-12
2.09335e-12
2.0935e-12
2.09364e-12
2.09378e-12
2.09391e-12
2.09405e-12
2.09418e-12
2.09432e-12
2.09444e-12
2.09459e-12
2.09262e-12
2.09284e-12
2.09302e-12
2.0932e-12
2.09335e-12
2.0935e-12
2.09363e-12
2.09376e-12
2.09389e-12
2.09402e-12
2.09415e-12
2.09429e-12
2.09441e-12
2.09456e-12
2.09265e-12
2.09285e-12
2.09303e-12
2.0932e-12
2.09335e-12
2.09349e-12
2.09362e-12
2.09375e-12
2.09387e-12
2.09399e-12
2.09412e-12
2.09426e-12
2.09438e-12
2.09454e-12
2.0927e-12
2.09288e-12
2.09305e-12
2.09321e-12
2.09335e-12
2.09348e-12
2.0936e-12
2.09372e-12
2.09383e-12
2.09396e-12
2.09408e-12
2.09423e-12
2.09435e-12
2.09451e-12
2.09273e-12
2.09289e-12
2.09306e-12
2.09321e-12
2.09334e-12
2.09346e-12
2.09357e-12
2.09369e-12
2.0938e-12
2.09392e-12
2.09404e-12
2.09419e-12
2.0943e-12
2.09445e-12
2.09275e-12
2.0929e-12
2.09308e-12
2.09322e-12
2.09334e-12
2.09344e-12
2.09355e-12
2.09365e-12
2.09375e-12
2.09386e-12
2.09398e-12
2.09412e-12
2.09421e-12
2.09431e-12
2.09275e-12
2.09292e-12
2.09309e-12
2.09322e-12
2.09333e-12
2.09343e-12
2.09352e-12