/*--------------------------------*- C++ -*----------------------------------*\
| =========                 |                                                 |
| \\      /  F ield         | OpenFOAM: The Open Source CFD Toolbox           |
|  \\    /   O peration     | Version:  v2106                                 |
|   \\  /    A nd           | Website:  www.openfoam.com                      |
|    \\/     M anipulation  |                                                 |
\*---------------------------------------------------------------------------*/
FoamFile
{
    version     2.0;
    format      ascii;
    arch        "LSB;label=32;scalar=64";
    class       volScalarField;
    location    "0.000205";
    object      p;
}
// * * * * * * * * * * * * * * * * * * * * * * * * * * * * * * * * * * * * * //

dimensions      [1 -1 -2 0 0 0 0];

internalField   nonuniform List<scalar> 
17924
(
243390
243391
243383
243370
243386
243397
243402
243403
243400
243394
243386
243269
243284
243288
243288
243285
243278
243268
243159
243171
243173
243171
243165
243157
243144
243039
243049
243048
243045
243038
243028
243013
242919
242924
242921
242916
242906
242894
242876
242792
242793
242788
242780
242769
242754
242734
242663
242658
242651
242641
242627
242609
242586
242527
242520
242510
242497
242481
242460
242435
242391
242381
242368
242350
242331
242307
242280
242252
242237
242221
242200
242179
242151
242124
242113
242094
242074
242049
242025
241996
241968
241969
241947
241924
241897
241871
241842
241814
241829
241806
241780
241750
241721
241692
241663
241682
241660
241630
241600
241571
241542
241515
243265
243290
243308
243320
243328
243331
243331
243328
243322
243311
243295
243275
243252
243228
243167
243196
243211
243224
243230
243232
243231
243227
243218
243204
243184
243161
243134
243102
243074
243101
243114
243124
243128
243129
243127
243121
243110
243094
243072
243048
243020
242984
242971
242995
243007
243016
243019
243019
243016
243009
242997
242979
242955
242928
242898
242860
242866
242885
242896
242903
242905
242905
242901
242894
242879
242860
242834
242807
242774
242737
242753
242769
242779
242785
242786
242786
242782
242773
242758
242736
242710
242681
242647
242611
242638
242650
242658
242663
242664
242663
242658
242648
242632
242609
242582
242553
242520
242486
242517
242525
242533
242537
242538
242535
242530
242519
242502
242479
242452
242424
242391
242360
242394
242399
242405
242407
242408
242404
242398
242386
242369
242347
242322
242295
242266
242239
242266
242267
242273
242273
242274
242269
242262
242250
242234
242214
242192
242167
242141
242120
242137
242134
242139
242136
242136
242130
242123
242113
242099
242082
242063
242042
242021
242007
242001
241996
242000
241996
241995
241988
241982
241973
241962
241948
241934
241917
241903
241897
241865
241860
241861
241855
241851
241844
241839
241833
241826
241817
241807
241796
241789
241790
241721
241718
241714
241708
241703
241699
241695
241692
241689
241686
241682
241677
241674
241687
243028
243056
243079
243099
243117
243130
243140
243146
243148
243147
243142
243132
243116
243101
242945
242977
243000
243021
243039
243053
243063
243068
243069
243066
243058
243043
243024
243000
242867
242899
242922
242942
242959
242972
242980
242984
242985
242981
242969
242953
242932
242904
242782
242813
242835
242856
242872
242884
242892
242896
242894
242889
242875
242856
242832
242801
242697
242723
242745
242764
242780
242792
242799
242801
242799
242791
242776
242755
242729
242697
242603
242628
242648
242668
242682
242693
242699
242700
242697
242689
242672
242650
242622
242591
242505
242527
242548
242565
242579
242588
242593
242594
242591
242582
242564
242542
242514
242484
242401
242421
242441
242456
242470
242479
242483
242484
242480
242470
242453
242431
242404
242376
242294
242309
242328
242342
242355
242363
242368
242369
242366
242356
242341
242320
242295
242270
242180
242192
242210
242222
242235
242244
242249
242250
242247
242240
242226
242207
242184
242164
242063
242069
242087
242097
242111
242119
242125
242128
242128
242124
242113
242097
242079
242063
241940
241941
241959
241969
241982
241991
242000
242005
242007
242006
242000
241987
241973
241963
241812
241811
241826
241836
241850
241861
241872
241881
241888
241890
241890
241883
241876
241872
241672
241676
241690
241702
241716
241731
241744
241757
241767
241774
241780
241779
241775
241776
242726
242740
242756
242772
242789
242803
242817
242827
242835
242839
242840
242839
242829
242824
242647
242664
242682
242701
242718
242735
242749
242760
242767
242771
242771
242767
242755
242742
242573
242592
242610
242630
242648
242665
242680
242691
242698
242702
242701
242696
242683
242666
242497
242516
242536
242557
242576
242593
242608
242619
242626
242630
242628
242622
242607
242585
242421
242440
242459
242481
242500
242518
242533
242544
242551
242554
242552
242544
242527
242504
242340
242360
242379
242401
242421
242439
242454
242465
242472
242475
242472
242462
242444
242420
242257
242275
242295
242317
242337
242355
242371
242382
242389
242392
242389
242378
242358
242336
242169
242185
242207
242228
242249
242267
242283
242294
242301
242304
242301
242289
242269
242247
242077
242092
242114
242134
242155
242174
242190
242202
242209
242212
242209
242197
242178
242158
241980
241993
242016
242035
242057
242076
242092
242105
242112
242116
242113
242102
242083
242066
241880
241890
241912
241931
241953
241973
241990
242004
242013
242017
242016
242007
241991
241978
241774
241781
241804
241823
241846
241866
241885
241899
241910
241915
241917
241910
241897
241887
241664
241667
241690
241710
241734
241755
241776
241792
241806
241814
241820
241817
241810
241808
241544
241549
241572
241595
241620
241643
241664
241683
241700
241712
241721
241723
241720
241718
242418
242415
242411
242415
242420
242428
242436
242445
242453
242459
242465
242469
242472
242477
242332
242336
242334
242336
242343
242352
242361
242370
242379
242386
242391
242393
242392
242388
242254
242259
242258
242261
242268
242278
242288
242298
242307
242314
242318
242320
242318
242313
242177
242183
242181
242187
242195
242206
242217
242228
242237
242244
242248
242249
242244
242236
242102
242107
242107
242113
242122
242134
242147
242158
242168
242175
242179
242179
242173
242162
242027
242030
242033
242039
242050
242063
242077
242089
242099
242106
242110
242110
242102
242089
241952
241953
241956
241965
241977
241991
242006
242019
242030
242037
242041
242041
242033
242019
241874
241874
241879
241889
241903
241918
241934
241948
241959
241967
241970
241970
241961
241948
241793
241793
241800
241812
241827
241844
241860
241875
241886
241896
241899
241899
241890
241876
241709
241709
241719
241733
241749
241767
241784
241800
241812
241822
241826
241825
241815
241802
241625
241622
241634
241650
241668
241687
241706
241723
241737
241748
241752
241752
241743
241732
241536
241533
241548
241565
241586
241606
241627
241645
241660
241671
241677
241678
241670
241660
241446
241441
241458
241478
241501
241523
241546
241566
241584
241597
241605
241608
241603
241597
241349
241348
241368
241390
241415
241440
241465
241486
241506
241520
241531
241535
241534
241526
242117
242099
242084
242076
242071
242071
242073
242079
242086
242094
242104
242115
242128
242144
242028
242018
242001
241993
241987
241986
241988
241993
242000
242008
242017
242026
242037
242041
241947
241936
241919
241910
241904
241903
241905
241910
241917
241924
241933
241940
241951
241951
241868
241857
241839
241831
241825
241825
241826
241831
241838
241845
241853
241858
241866
241865
241793
241779
241762
241754
241749
241749
241751
241756
241762
241769
241776
241781
241787
241785
241717
241703
241687
241680
241676
241676
241679
241684
241690
241697
241703
241708
241710
241708
241643
241627
241614
241608
241605
241606
241609
241615
241622
241628
241634
241638
241638
241636
241569
241553
241543
241538
241537
241539
241543
241550
241556
241563
241567
241570
241569
241567
241495
241480
241472
241469
241470
241474
241480
241487
241494
241500
241504
241507
241504
241501
241420
241407
241403
241402
241405
241411
241418
241426
241434
241440
241444
241446
241442
241437
241345
241335
241334
241335
241341
241350
241359
241369
241377
241384
241388
241390
241384
241379
241274
241263
241266
241271
241280
241291
241302
241313
241323
241330
241334
241336
241329
241322
241202
241192
241199
241208
241220
241234
241249
241262
241273
241281
241286
241287
241281
241275
241131
241123
241135
241148
241164
241179
241196
241210
241223
241232
241238
241237
241232
241222
241812
241787
241767
241754
241747
241744
241745
241750
241757
241768
241782
241798
241819
241842
241724
241708
241687
241673
241663
241658
241658
241662
241668
241678
241691
241704
241724
241735
241646
241629
241606
241591
241581
241575
241574
241576
241581
241589
241601
241614
241633
241641
241568
241551
241528
241513
241502
241496
241493
241495
241499
241506
241516
241527
241545
241550
241495
241475
241453
241438
241427
241420
241417
241417
241421
241427
241436
241447
241462
241468
241422
241402
241381
241367
241356
241349
241345
241345
241348
241353
241361
241370
241382
241389
241352
241331
241312
241299
241288
241281
241278
241277
241280
241284
241291
241299
241308
241316
241283
241263
241247
241234
241225
241219
241216
241214
241216
241220
241225
241231
241237
241244
241215
241197
241184
241173
241165
241160
241158
241157
241158
241161
241164
241169
241172
241178
241150
241134
241124
241116
241110
241106
241105
241104
241105
241106
241108
241111
241111
241115
241087
241075
241068
241062
241059
241057
241057
241057
241058
241058
241058
241059
241056
241060
241031
241020
241018
241015
241014
241013
241014
241014
241014
241014
241012
241012
241006
241008
240977
240968
240969
240970
240972
240974
240976
240977
240978
240977
240975
240972
240965
240962
240928
240920
240927
240931
240935
240939
240942
240943
240944
240942
240939
240933
240924
240913
241466
241449
241435
241427
241424
241424
241427
241434
241444
241458
241475
241494
241520
241547
241387
241379
241365
241358
241352
241350
241352
241357
241366
241379
241394
241411
241434
241450
241321
241312
241297
241289
241281
241278
241278
241282
241289
241299
241313
241329
241353
241365
241252
241243
241229
241221
241213
241209
241208
241211
241216
241225
241238
241252
241274
241284
241188
241178
241164
241155
241147
241142
241141
241143
241147
241155
241167
241181
241200
241212
241125
241115
241102
241093
241085
241081
241079
241080
241083
241090
241100
241113
241130
241144
241064
241053
241042
241034
241027
241023
241020
241021
241023
241029
241037
241049
241064
241080
241006
240996
240987
240980
240974
240969
240966
240966
240968
240972
240979
240989
241001
241017
240950
240942
240936
240929
240924
240919
240917
240915
240917
240919
240925
240933
240943
240959
240899
240893
240889
240883
240879
240875
240872
240870
240870
240871
240875
240881
240888
240902
240853
240848
240846
240841
240838
240834
240832
240829
240828
240828
240830
240833
240837
240849
240814
240809
240809
240806
240804
240800
240797
240793
240791
240789
240788
240789
240788
240798
240777
240775
240777
240776
240774
240771
240768
240764
240760
240756
240752
240749
240746
240754
240752
240749
240754
240754
240752
240748
240743
240738
240731
240724
240717
240709
240704
240703
241036
241043
241045
241050
241058
241066
241076
241088
241103
241120
241140
241163
241189
241218
240984
240992
240994
241000
241007
241016
241026
241038
241052
241068
241086
241107
241130
241150
240937
240944
240947
240954
240959
240966
240975
240985
240998
241013
241030
241049
241073
241092
240886
240896
240900
240907
240912
240919
240927
240936
240947
240961
240977
240994
241018
241036
240838
240849
240854
240861
240865
240872
240878
240887
240898
240910
240926
240943
240965
240985
240793
240804
240810
240817
240822
240827
240833
240841
240850
240862
240877
240894
240914
240935
240750
240760
240767
240773
240779
240784
240790
240797
240806
240816
240830
240846
240864
240886
240709
240718
240727
240734
240739
240744
240750
240756
240764
240773
240785
240799
240817
240839
240671
240680
240690
240696
240702
240707
240712
240717
240724
240732
240743
240756
240772
240794
240637
240647
240658
240664
240670
240674
240678
240682
240688
240694
240702
240714
240728
240749
240608
240619
240629
240635
240640
240644
240647
240649
240653
240658
240665
240674
240685
240705
240587
240596
240607
240612
240616
240619
240620
240621
240623
240625
240629
240635
240644
240661
240567
240578
240588
240593
240596
240597
240596
240595
240594
240594
240596
240600
240607
240622
240564
240570
240578
240582
240583
240581
240577
240573
240568
240564
240563
240564
240567
240574
240469
240503
240532
240560
240584
240607
240629
240651
240675
240699
240725
240751
240778
240807
240450
240486
240516
240544
240569
240593
240616
240639
240662
240686
240712
240739
240767
240793
240431
240469
240499
240527
240552
240575
240598
240620
240643
240666
240692
240718
240746
240773
240412
240449
240479
240508
240534
240558
240580
240602
240624
240646
240671
240696
240724
240750
240393
240430
240461
240489
240515
240538
240560
240581
240603
240625
240648
240672
240699
240726
240372
240408
240440
240469
240495
240518
240540
240561
240582
240603
240626
240649
240675
240702
240354
240390
240422
240450
240475
240497
240519
240539
240559
240580
240601
240624
240648
240676
240337
240372
240404
240431
240456
240478
240498
240518
240537
240556
240577
240598
240622
240649
240322
240357
240388
240414
240437
240458
240477
240495
240513
240532
240551
240572
240595
240621
240312
240344
240374
240399
240421
240441
240458
240474
240491
240507
240525
240545
240566
240592
240305
240335
240363
240386
240406
240423
240439
240453
240468
240482
240499
240517
240536
240562
240301
240329
240354
240376
240393
240408
240421
240433
240446
240458
240472
240488
240505
240530
240300
240326
240349
240368
240382
240394
240404
240413
240423
240433
240445
240459
240475
240499
240311
240333
240352
240365
240374
240382
240388
240394
240400
240407
240416
240427
240441
240462
239731
239793
239850
239900
239945
239986
240025
240061
240097
240131
240166
240200
240234
240273
239750
239809
239866
239918
239967
240011
240053
240092
240130
240166
240202
240236
240271
240309
239770
239831
239891
239942
239992
240036
240078
240116
240154
240189
240225
240260
240294
240332
239786
239846
239907
239959
240009
240054
240097
240137
240175
240211
240247
240282
240316
240353
239803
239864
239924
239977
240026
240071
240113
240152
240190
240225
240260
240295
240329
240365
239817
239878
239937
239989
240038
240083
240125
240165
240202
240238
240273
240306
240341
240376
239832
239894
239951
240002
240050
240093
240135
240173
240209
240244
240278
240311
240344
240379
239848
239908
239962
240012
240058
240101
240141
240178
240214
240247
240280
240313
240346
240380
239864
239922
239974
240022
240066
240107
240145
240180
240214
240246
240278
240311
240343
240377
239882
239936
239985
240031
240072
240111
240146
240180
240212
240244
240274
240306
240337
240371
239900
239951
239996
240039
240077
240113
240145
240177
240207
240237
240266
240297
240327
240362
239919
239966
240007
240046
240080
240113
240143
240172
240200
240228
240256
240285
240314
240349
239939
239981
240018
240053
240082
240112
240138
240164
240190
240216
240242
240270
240298
240333
239964
240002
240030
240060
240085
240110
240133
240155
240178
240201
240226
240252
240280
240316
238879
238952
239025
239090
239151
239208
239262
239312
239359
239403
239446
239486
239527
239573
238931
239000
239077
239144
239210
239271
239329
239382
239433
239480
239525
239568
239610
239662
238993
239063
239140
239207
239274
239335
239393
239446
239497
239545
239591
239635
239677
239727
239047
239117
239194
239262
239330
239392
239452
239507
239559
239608
239655
239701
239744
239793
239102
239174
239250
239318
239386
239447
239507
239561
239613
239663
239710
239756
239800
239846
239156
239228
239302
239370
239436
239498
239557
239612
239664
239714
239761
239807
239852
239897
239208
239281
239352
239419
239484
239544
239602
239656
239707
239756
239804
239850
239895
239938
239261
239332
239400
239465
239527
239586
239643
239696
239747
239795
239843
239888
239933
239977
239311
239380
239444
239507
239567
239624
239678
239730
239780
239828
239874
239919
239964
240008
239361
239427
239487
239547
239603
239659
239711
239761
239809
239856
239902
239947
239992
240036
239407
239471
239526
239583
239636
239689
239739
239787
239834
239879
239925
239970
240015
240061
239453
239512
239563
239616
239666
239716
239764
239810
239855
239900
239945
239990
240034
240080
239495
239550
239596
239646
239693
239739
239784
239829
239873
239916
239960
240005
240049
240097
239539
239588
239629
239673
239716
239759
239802
239844
239887
239929
239972
240017
240062
240115
238073
238134
238203
238265
238327
238385
238441
238493
238544
238591
238637
238680
238725
238768
238154
238209
238281
238346
238412
238473
238533
238589
238642
238694
238743
238791
238836
238891
238242
238300
238372
238437
238502
238564
238624
238681
238735
238788
238838
238887
238933
238989
238328
238386
238457
238522
238588
238651
238713
238771
238828
238882
238935
238986
239034
239090
238413
238474
238544
238609
238674
238737
238799
238858
238915
238971
239024
239077
239126
239180
238499
238561
238628
238693
238758
238820
238882
238942
239000
239057
239112
239166
239217
239269
238582
238645
238710
238774
238838
238900
238962
239022
239081
239138
239193
239247
239300
239350
238666
238728
238791
238854
238916
238978
239038
239098
239157
239215
239271
239325
239379
239429
238745
238807
238866
238928
238989
239050
239111
239170
239229
239286
239343
239397
239451
239501
238823
238884
238941
239001
239060
239120
239180
239238
239297
239353
239410
239464
239520
239569
238895
238954
239009
239067
239125
239185
239243
239302
239360
239416
239473
239527
239584
239633
238967
239024
239076
239132
239189
239246
239304
239361
239418
239474
239531
239585
239642
239694
239031
239086
239135
239190
239245
239302
239359
239416
239474
239530
239587
239643
239700
239756
239097
239148
239195
239248
239301
239355
239411
239466
239522
239578
239635
239693
239752
239815
237480
237510
237552
237592
237636
237680
237724
237767
237808
237849
237889
237928
237967
238005
237573
237600
237644
237683
237728
237773
237819
237865
237910
237954
237996
238039
238080
238128
237667
237696
237740
237781
237825
237871
237918
237964
238010
238055
238099
238144
238185
238236
237764
237795
237838
237879
237924
237970
238018
238066
238114
238161
238207
238254
238297
238349
237860
237893
237936
237978
238023
238071
238119
238168
238217
238266
238313
238361
238406
238457
237958
237994
238035
238078
238124
238172
238221
238271
238321
238371
238421
238470
238518
238567
238054
238092
238133
238177
238223
238272
238322
238373
238424
238475
238526
238576
238625
238673
238151
238190
238230
238275
238322
238372
238422
238474
238526
238578
238630
238681
238733
238780
238245
238284
238325
238371
238419
238469
238520
238572
238625
238678
238732
238783
238836
238882
238338
238379
238420
238466
238513
238564
238616
238669
238723
238776
238831
238883
238938
238983
238425
238467
238508
238555
238603
238655
238708
238762
238817
238872
238927
238980
239036
239079
238513
238555
238596
238644
238692
238744
238798
238852
238908
238963
239019
239072
239130
239175
238591
238634
238676
238724
238774
238827
238883
238939
238996
239053
239111
239166
239225
239271
238675
238716
238759
238807
238858
238911
238966
239021
239078
239134
239191
239248
239307
239367
237135
237130
237142
237159
237177
237198
237220
237245
237270
237297
237323
237350
237376
237405
237223
237213
237226
237241
237259
237280
237303
237329
237355
237383
237411
237440
237468
237501
237304
237297
237310
237326
237345
237367
237390
237416
237443
237471
237499
237529
237557
237592
237391
237386
237400
237417
237436
237458
237481
237508
237535
237565
237594
237625
237654
237692
237476
237477
237491
237509
237529
237551
237575
237603
237631
237661
237692
237724
237755
237791
237565
237572
237586
237604
237624
237647
237673
237701
237730
237762
237794
237827
237860
237894
237654
237665
237680
237699
237720
237745
237772
237801
237832
237864
237898
237932
237967
238000
237745
237759
237774
237794
237817
237844
237872
237903
237936
237969
238004
238039
238076
238109
237835
237851
237867
237890
237915
237943
237974
238006
238040
238074
238110
238147
238185
238217
237925
237943
237961
237986
238013
238043
238075
238109
238145
238181
238218
238255
238297
238327
238011
238032
238052
238080
238109
238142
238176
238212
238249
238286
238325
238363
238406
238434
238100
238122
238145
238174
238206
238240
238277
238314
238353
238391
238432
238471
238517
238544
238182
238206
238232
238264
238299
238335
238375
238415
238456
238496
238539
238580
238626
238655
238274
238296
238325
238357
238394
238432
238472
238513
238555
238597
238640
238682
238728
238767
236963
236946
236936
236930
236927
236928
236930
236936
236943
236952
236962
236974
236985
237003
237030
237009
236999
236992
236989
236989
236991
236996
237002
237011
237020
237032
237043
237063
237092
237072
237063
237056
237053
237053
237055
237059
237065
237074
237083
237094
237105
237125
237159
237140
237132
237125
237121
237121
237123
237127
237133
237142
237151
237162
237173
237192
237225
237209
237201
237195
237192
237192
237194
237199
237205
237214
237224
237235
237247
237263
237294
237281
237274
237269
237267
237267
237270
237275
237282
237291
237301
237313
237325
237339
237363
237354
237348
237344
237343
237345
237348
237354
237361
237371
237382
237394
237407
237420
237434
237429
237424
237422
237422
237425
237429
237436
237445
237455
237467
237480
237495
237506
237505
237504
237501
237501
237503
237507
237513
237521
237531
237543
237556
237570
237586
237595
237578
237581
237579
237582
237586
237591
237599
237609
237621
237634
237649
237664
237682
237688
237652
237658
237659
237664
237670
237678
237688
237699
237712
237727
237744
237759
237778
237782
237728
237736
237739
237746
237755
237765
237777
237790
237806
237823
237841
237857
237879
237881
237803
237814
237820
237830
237841
237854
237868
237883
237901
237919
237938
237955
237976
237979
237889
237896
237904
237915
237928
237943
237959
237977
237995
238015
238034
238053
238076
238089
236888
236860
236839
236820
236804
236790
236780
236771
236765
236760
236756
236754
236752
236754
236930
236901
236880
236861
236844
236830
236818
236808
236800
236793
236788
236784
236780
236783
236970
236942
236921
236902
236885
236870
236858
236847
236838
236831
236824
236820
236814
236816
237013
236986
236966
236946
236929
236913
236900
236889
236879
236871
236864
236859
236853
236853
237057
237031
237011
236992
236974
236959
236946
236934
236924
236916
236908
236902
236896
236894
237103
237079
237059
237040
237023
237008
236994
236982
236972
236964
236956
236950
236943
236939
237149
237128
237108
237090
237074
237059
237045
237034
237024
237015
237007
237001
236994
236988
237198
237179
237160
237143
237127
237113
237100
237088
237078
237069
237061
237054
237048
237041
237247
237231
237214
237198
237183
237169
237157
237146
237136
237127
237119
237111
237106
237098
237298
237285
237269
237255
237241
237229
237217
237206
237196
237187
237180
237171
237167
237159
237351
237341
237327
237314
237301
237290
237279
237269
237260
237251
237243
237235
237232
237224
237406
237398
237385
237374
237363
237353
237343
237334
237326
237317
237311
237303
237301
237293
237464
237458
237447
237438
237428
237419
237410
237401
237394
237386
237380
237373
237371
237361
237530
237519
237507
237499
237492
237485
237478
237471
237465
237458
237452
237447
237447
237440
236841
236808
236782
236758
236735
236714
236695
236677
236661
236646
236632
236620
236608
236597
236861
236830
236805
236780
236757
236735
236714
236695
236677
236660
236645
236631
236618
236605
236881
236851
236825
236800
236777
236754
236734
236714
236695
236678
236661
236646
236630
236616
236903
236874
236848
236823
236799
236776
236755
236734
236715
236696
236678
236661
236644
236629
236926
236898
236872
236847
236822
236799
236777
236756
236736
236716
236697
236679
236661
236644
236951
236923
236897
236872
236847
236824
236801
236779
236758
236738
236718
236699
236680
236662
236975
236949
236923
236898
236873
236850
236827
236804
236783
236762
236741
236721
236701
236681
237002
236976
236951
236926
236901
236877
236853
236831
236808
236786
236765
236744
236723
236703
237028
237004
236979
236954
236929
236905
236882
236859
236836
236814
236792
236770
236749
236727
237056
237033
237009
236985
236960
236936
236912
236888
236865
236842
236820
236797
236776
236753
237084
237063
237039
237016
236991
236967
236943
236919
236896
236873
236850
236827
236805
236779
237113
237093
237071
237048
237024
237001
236976
236952
236928
236904
236881
236857
236835
236808
237146
237126
237105
237082
237058
237034
237010
236986
236962
236938
236913
236888
236865
236839
237180
237157
237136
237114
237092
237070
237046
237022
236998
236974
236950
236925
236902
236876
236776
236744
236717
236690
236665
236639
236615
236590
236567
236544
236523
236501
236778
236748
236722
236696
236670
236644
236618
236592
236568
236543
236521
236497
236779
236751
236725
236698
236672
236646
236620
236594
236569
236544
236520
236495
236782
236755
236728
236701
236675
236648
236622
236596
236570
236544
236519
236493
236785
236758
236731
236704
236677
236651
236624
236597
236571
236544
236517
236491
236788
236762
236734
236707
236680
236653
236626
236598
236571
236543
236516
236488
236792
236765
236738
236710
236683
236655
236627
236599
236571
236543
236515
236486
236795
236768
236741
236713
236685
236657
236629
236600
236571
236542
236513
236484
236799
236772
236744
236716
236688
236659
236630
236601
236571
236542
236511
236481
236802
236775
236747
236719
236690
236661
236632
236602
236571
236541
236510
236479
236805
236779
236751
236722
236693
236663
236633
236603
236571
236540
236508
236476
236809
236782
236754
236725
236696
236666
236635
236604
236572
236540
236507
236474
236814
236786
236758
236728
236698
236668
236636
236605
236572
236539
236505
236472
236815
236787
236760
236731
236701
236670
236638
236606
236574
236542
236508
236475
243497
243557
243623
243683
243737
243788
243495
243589
243673
243751
243821
243888
243504
243619
243721
243812
243894
243970
243503
243636
243753
243858
243949
244030
243469
243514
243564
243606
243644
243680
243484
243555
243621
243679
243730
243778
243503
243593
243675
243746
243808
243863
243513
243620
243715
243798
243869
243930
243518
243638
243745
243837
243915
243981
243518
243646
243761
243861
243944
244012
243514
243647
243766
243871
243957
244027
243330
243364
243403
243437
243470
243505
243359
243409
243461
243506
243550
243595
243388
243454
243516
243572
243623
243675
243409
243488
243561
243625
243683
243740
243424
243516
243597
243669
243732
243793
243433
243533
243622
243699
243767
243831
243436
243544
243637
243720
243791
243856
243435
243545
243642
243727
243800
243866
243430
243540
243638
243725
243799
243865
243418
243524
243620
243707
243782
243848
243399
243499
243590
243674
243747
243812
243374
243462
243544
243620
243687
243749
243337
243410
243479
243544
243602
243655
243317
243362
243410
243452
243490
243526
243089
243122
243163
243203
243244
243287
243115
243161
243212
243264
243317
243373
243146
243203
243263
243323
243384
243450
243171
243237
243304
243371
243439
243511
243193
243268
243340
243412
243485
243561
243210
243291
243367
243442
243518
243597
243223
243308
243387
243464
243541
243621
243230
243317
243397
243475
243552
243632
243232
243319
243399
243477
243552
243630
243230
243315
243392
243468
243540
243615
243223
243301
243374
243447
243515
243587
243208
243279
243345
243411
243474
243539
243183
243243
243300
243358
243412
243469
243173
243212
243253
243292
243331
243372
242795
242838
242888
242939
242989
243043
242804
242863
242924
242990
243055
243125
242826
242894
242966
243043
243120
243203
242844
242920
243000
243085
243173
243266
242863
242945
243031
243122
243218
243318
242879
242965
243055
243150
243249
243355
242894
242982
243073
243169
243270
243378
242904
242992
243083
243178
243278
243385
242911
242997
243085
243178
243275
243379
242913
242996
243079
243167
243259
243358
242912
242989
243065
243147
243231
243323
242905
242975
243043
243116
243190
243273
242889
242948
243006
243070
243134
243206
242890
242930
242973
243020
243067
243121
242494
242553
242609
242667
242724
242782
242484
242557
242630
242705
242778
242854
242492
242577
242662
242751
242838
242928
242499
242592
242689
242789
242891
242995
242509
242609
242714
242824
242937
243054
242518
242623
242734
242851
242972
243097
242527
242635
242749
242870
242996
243126
242535
242644
242758
242879
243005
243137
242542
242648
242760
242879
243002
243131
242546
242649
242755
242868
242985
243109
242548
242644
242742
242847
242955
243070
242548
242635
242723
242817
242913
243017
242540
242614
242689
242772
242855
242946
242552
242611
242667
242730
242793
242863
242196
242267
242327
242388
242447
242508
242174
242254
242333
242412
242486
242560
242172
242263
242353
242445
242534
242621
242170
242273
242375
242479
242582
242683
242171
242283
242396
242513
242629
242745
242174
242293
242415
242541
242669
242797
242179
242302
242431
242564
242699
242836
242185
242310
242441
242577
242716
242858
242191
242315
242444
242581
242720
242862
242198
242318
242443
242575
242708
242847
242203
242317
242434
242557
242683
242813
242211
242316
242422
242533
242645
242764
242209
242300
242393
242491
242589
242693
242231
242310
242379
242457
242531
242612
241889
241960
242018
242079
242137
242194
241859
241938
242013
242089
242160
242227
241853
241942
242028
242113
242194
242270
241847
241947
242044
242140
242232
242318
241845
241955
242063
242170
242274
242372
241847
241964
242082
242199
242315
242426
241852
241975
242100
242226
242352
242475
241858
241985
242115
242246
242379
242511
241866
241994
242124
242258
242394
242531
241876
242001
242128
242261
242395
242531
241886
242005
242125
242252
242380
242510
241898
242008