/*--------------------------------*- C++ -*----------------------------------*\
| =========                 |                                                 |
| \\      /  F ield         | OpenFOAM: The Open Source CFD Toolbox           |
|  \\    /   O peration     | Version:  v2106                                 |
|   \\  /    A nd           | Website:  www.openfoam.com                      |
|    \\/     M anipulation  |                                                 |
\*---------------------------------------------------------------------------*/
FoamFile
{
    version     2.0;
    format      ascii;
    arch        "LSB;label=32;scalar=64";
    class       volScalarField;
    location    "0.000205";
    object      T;
}
// * * * * * * * * * * * * * * * * * * * * * * * * * * * * * * * * * * * * * //

dimensions      [0 0 0 1 0 0 0];

internalField   nonuniform List<scalar> 
17924
(
308.804
308.804
308.802
308.797
308.802
308.807
308.808
308.808
308.807
308.805
308.803
308.76
308.765
308.767
308.767
308.766
308.763
308.76
308.72
308.724
308.725
308.724
308.722
308.719
308.715
308.676
308.68
308.68
308.679
308.676
308.672
308.667
308.633
308.635
308.634
308.631
308.628
308.624
308.617
308.586
308.587
308.585
308.582
308.578
308.573
308.565
308.539
308.538
308.535
308.531
308.526
308.52
308.512
308.49
308.487
308.484
308.479
308.473
308.466
308.456
308.441
308.437
308.432
308.426
308.419
308.41
308.4
308.39
308.384
308.379
308.371
308.363
308.353
308.343
308.339
308.332
308.325
308.316
308.307
308.297
308.286
308.287
308.279
308.27
308.26
308.251
308.24
308.23
308.236
308.227
308.218
308.207
308.196
308.185
308.175
308.182
308.174
308.163
308.152
308.141
308.131
308.121
308.759
308.768
308.774
308.779
308.781
308.783
308.782
308.781
308.779
308.775
308.769
308.762
308.754
308.745
308.723
308.733
308.739
308.743
308.746
308.747
308.746
308.745
308.742
308.736
308.729
308.721
308.711
308.699
308.689
308.699
308.704
308.707
308.709
308.709
308.708
308.706
308.702
308.696
308.689
308.68
308.669
308.656
308.652
308.66
308.665
308.668
308.669
308.669
308.668
308.666
308.661
308.654
308.646
308.636
308.625
308.611
308.613
308.62
308.624
308.627
308.628
308.628
308.626
308.623
308.618
308.611
308.602
308.592
308.58
308.567
308.572
308.578
308.582
308.584
308.585
308.584
308.583
308.58
308.574
308.566
308.557
308.546
308.534
308.521
308.531
308.535
308.538
308.54
308.54
308.54
308.538
308.534
308.528
308.52
308.51
308.5
308.487
308.475
308.487
308.489
308.492
308.494
308.494
308.493
308.491
308.487
308.481
308.472
308.463
308.452
308.441
308.429
308.441
308.443
308.446
308.446
308.447
308.445
308.443
308.439
308.433
308.425
308.416
308.406
308.395
308.385
308.395
308.395
308.398
308.398
308.398
308.396
308.393
308.389
308.383
308.376
308.368
308.359
308.35
308.342
308.348
308.347
308.348
308.348
308.348
308.345
308.343
308.339
308.334
308.328
308.321
308.313
308.306
308.301
308.298
308.297
308.298
308.297
308.296
308.294
308.291
308.288
308.284
308.279
308.274
308.268
308.263
308.261
308.249
308.247
308.247
308.245
308.243
308.241
308.239
308.237
308.234
308.231
308.228
308.224
308.221
308.221
308.196
308.195
308.194
308.191
308.19
308.188
308.187
308.185
308.185
308.183
308.182
308.18
308.179
308.184
308.672
308.682
308.691
308.698
308.705
308.71
308.713
308.715
308.716
308.716
308.714
308.71
308.704
308.699
308.642
308.654
308.662
308.67
308.676
308.681
308.685
308.687
308.687
308.686
308.683
308.678
308.671
308.662
308.614
308.626
308.634
308.641
308.647
308.652
308.655
308.657
308.657
308.655
308.651
308.645
308.637
308.627
308.583
308.594
308.602
308.61
308.616
308.62
308.623
308.624
308.624
308.622
308.617
308.61
308.601
308.59
308.552
308.562
308.569
308.576
308.582
308.586
308.589
308.59
308.589
308.586
308.581
308.573
308.564
308.552
308.518
308.527
308.534
308.541
308.547
308.55
308.553
308.553
308.552
308.549
308.543
308.535
308.525
308.513
308.482
308.49
308.498
308.504
308.509
308.512
308.514
308.515
308.513
308.51
308.504
308.496
308.485
308.474
308.444
308.451
308.459
308.464
308.469
308.472
308.474
308.474
308.473
308.469
308.463
308.455
308.445
308.435
308.405
308.411
308.417
308.423
308.427
308.43
308.432
308.432
308.431
308.428
308.422
308.415
308.406
308.396
308.364
308.368
308.374
308.379
308.384
308.387
308.389
308.389
308.388
308.385
308.38
308.374
308.365
308.358
308.321
308.323
308.33
308.333
308.338
308.341
308.344
308.345
308.345
308.343
308.339
308.334
308.327
308.321
308.276
308.276
308.283
308.287
308.292
308.295
308.298
308.3
308.301
308.3
308.298
308.293
308.288
308.285
308.229
308.229
308.235
308.238
308.243
308.247
308.251
308.255
308.257
308.258
308.258
308.255
308.253
308.251
308.178
308.18
308.185
308.189
308.194
308.2
308.205
308.209
308.213
308.216
308.218
308.217
308.216
308.216
308.562
308.568
308.574
308.579
308.585
308.591
308.596
308.599
308.602
308.604
308.604
308.603
308.6
308.598
308.534
308.54
308.546
308.553
308.56
308.566
308.571
308.575
308.578
308.579
308.579
308.577
308.573
308.568
308.507
308.514
308.52
308.528
308.534
308.54
308.546
308.55
308.552
308.554
308.553
308.552
308.547
308.541
308.479
308.486
308.493
308.501
308.508
308.514
308.519
308.524
308.526
308.527
308.527
308.525
308.519
308.511
308.451
308.458
308.465
308.473
308.48
308.487
308.492
308.496
308.499
308.5
308.499
308.496
308.49
308.482
308.422
308.429
308.436
308.444
308.451
308.458
308.463
308.468
308.47
308.471
308.47
308.467
308.46
308.451
308.392
308.398
308.406
308.413
308.421
308.428
308.433
308.437
308.44
308.441
308.44
308.436
308.429
308.42
308.359
308.366
308.373
308.381
308.389
308.395
308.401
308.405
308.408
308.409
308.408
308.403
308.396
308.388
308.326
308.331
308.339
308.347
308.355
308.361
308.367
308.372
308.374
308.375
308.374
308.37
308.363
308.356
308.291
308.296
308.304
308.311
308.319
308.326
308.332
308.336
308.339
308.34
308.339
308.335
308.328
308.322
308.254
308.258
308.266
308.273
308.281
308.288
308.294
308.299
308.303
308.304
308.304
308.301
308.295
308.29
308.216
308.218
308.226
308.234
308.242
308.249
308.256
308.261
308.265
308.267
308.268
308.265
308.26
308.257
308.175
308.177
308.185
308.192
308.201
308.209
308.216
308.222
308.227
308.23
308.232
308.231
308.229
308.228
308.132
308.133
308.142
308.15
308.159
308.168
308.175
308.182
308.189
308.193
308.196
308.197
308.196
308.195
308.45
308.449
308.448
308.449
308.451
308.454
308.457
308.46
308.463
308.465
308.468
308.469
308.47
308.472
308.419
308.421
308.42
308.421
308.423
308.426
308.43
308.433
308.436
308.439
308.441
308.441
308.441
308.44
308.391
308.392
308.392
308.393
308.396
308.399
308.403
308.407
308.41
308.412
308.414
308.414
308.414
308.412
308.363
308.365
308.364
308.366
308.369
308.373
308.377
308.381
308.385
308.387
308.388
308.389
308.387
308.384
308.335
308.337
308.337
308.339
308.343
308.347
308.351
308.356
308.359
308.362
308.363
308.363
308.361
308.357
308.308
308.309
308.31
308.312
308.316
308.321
308.326
308.33
308.334
308.337
308.338
308.338
308.335
308.331
308.281
308.281
308.282
308.285
308.29
308.295
308.3
308.305
308.309
308.312
308.313
308.313
308.31
308.305
308.252
308.252
308.254
308.258
308.263
308.268
308.274
308.279
308.283
308.286
308.287
308.287
308.284
308.279
308.223
308.222
308.225
308.229
308.235
308.241
308.247
308.252
308.257
308.26
308.261
308.261
308.258
308.253
308.192
308.192
308.195
308.2
308.206
308.213
308.219
308.225
308.229
308.233
308.234
308.234
308.231
308.226
308.161
308.16
308.165
308.17
308.177
308.184
308.191
308.197
308.202
308.206
308.208
308.208
308.204
308.2
308.129
308.127
308.133
308.139
308.147
308.154
308.162
308.168
308.174
308.178
308.18
308.181
308.177
308.174
308.096
308.094
308.1
308.107
308.116
308.124
308.132
308.14
308.146
308.151
308.154
308.155
308.153
308.151
308.06
308.06
308.067
308.075
308.085
308.094
308.103
308.111
308.118
308.123
308.127
308.128
308.128
308.125
308.341
308.334
308.329
308.326
308.324
308.324
308.325
308.327
308.329
308.332
308.336
308.34
308.345
308.351
308.308
308.305
308.298
308.295
308.293
308.293
308.293
308.295
308.298
308.301
308.304
308.307
308.312
308.313
308.279
308.275
308.268
308.265
308.263
308.263
308.263
308.265
308.268
308.27
308.273
308.276
308.28
308.28
308.25
308.246
308.239
308.236
308.234
308.234
308.235
308.236
308.239
308.241
308.244
308.246
308.249
308.249
308.222
308.217
308.211
308.208
308.206
308.206
308.207
308.209
308.211
308.214
308.216
308.218
308.22
308.22
308.195
308.189
308.184
308.181
308.18
308.18
308.181
308.183
308.185
308.187
308.19
308.191
308.192
308.192
308.168
308.162
308.157
308.155
308.154
308.154
308.155
308.158
308.16
308.162
308.164
308.166
308.166
308.165
308.141
308.135
308.131
308.129
308.129
308.13
308.131
308.134
308.136
308.138
308.14
308.141
308.141
308.14
308.113
308.108
308.105
308.104
308.105
308.106
308.108
308.111
308.113
308.116
308.117
308.118
308.117
308.116
308.086
308.081
308.08
308.08
308.081
308.083
308.086
308.089
308.091
308.094
308.095
308.096
308.094
308.093
308.059
308.055
308.055
308.055
308.058
308.061
308.064
308.068
308.071
308.073
308.075
308.075
308.073
308.071
308.033
308.029
308.03
308.032
308.035
308.039
308.043
308.047
308.051
308.054
308.055
308.055
308.053
308.051
308.007
308.003
308.006
308.009
308.013
308.018
308.024
308.028
308.033
308.036
308.037
308.038
308.035
308.033
307.98
307.978
307.982
307.987
307.993
307.998
308.004
308.01
308.014
308.017
308.02
308.019
308.018
308.014
308.229
308.22
308.213
308.208
308.206
308.205
308.205
308.207
308.209
308.213
308.218
308.224
308.232
308.24
308.197
308.192
308.184
308.179
308.175
308.173
308.173
308.175
308.177
308.18
308.185
308.19
308.197
308.201
308.169
308.163
308.154
308.149
308.145
308.143
308.142
308.143
308.145
308.148
308.152
308.157
308.164
308.167
308.14
308.134
308.126
308.12
308.116
308.114
308.113
308.114
308.115
308.118
308.122
308.125
308.132
308.134
308.114
308.107
308.098
308.093
308.089
308.086
308.085
308.085
308.087
308.089
308.092
308.096
308.102
308.104
308.087
308.08
308.072
308.067
308.063
308.06
308.059
308.059
308.06
308.062
308.065
308.068
308.073
308.075
308.061
308.054
308.047
308.042
308.038
308.036
308.034
308.034
308.035
308.037
308.039
308.042
308.045
308.048
308.036
308.029
308.023
308.018
308.015
308.013
308.012
308.011
308.012
308.013
308.015
308.017
308.019
308.022
308.011
308.005
308
307.996
307.993
307.991
307.99
307.99
307.991
307.992
307.993
307.994
307.996
307.998
307.987
307.982
307.978
307.975
307.973
307.972
307.971
307.971
307.971
307.972
307.972
307.973
307.973
307.975
307.964
307.96
307.958
307.955
307.954
307.954
307.954
307.953
307.954
307.954
307.954
307.954
307.953
307.955
307.944
307.94
307.939
307.938
307.938
307.938
307.938
307.938
307.938
307.938
307.937
307.937
307.935
307.936
307.924
307.921
307.921
307.922
307.922
307.923
307.924
307.924
307.925
307.924
307.924
307.923
307.92
307.919
307.906
307.903
307.906
307.907
307.909
307.91
307.911
307.912
307.912
307.912
307.91
307.908
307.905
307.901
308.103
308.097
308.092
308.089
308.088
308.088
308.089
308.091
308.095
308.1
308.106
308.113
308.123
308.133
308.074
308.071
308.066
308.063
308.061
308.061
308.061
308.063
308.067
308.071
308.077
308.083
308.091
308.097
308.05
308.047
308.041
308.038
308.036
308.034
308.034
308.036
308.038
308.042
308.047
308.053
308.062
308.066
308.025
308.022
308.017
308.014
308.011
308.009
308.009
308.01
308.012
308.015
308.02
308.025
308.033
308.037
308.001
307.998
307.993
307.989
307.986
307.985
307.984
307.985
307.987
307.99
307.994
307.999
308.006
308.01
307.978
307.975
307.97
307.967
307.964
307.962
307.962
307.962
307.963
307.966
307.969
307.974
307.98
307.985
307.956
307.952
307.948
307.945
307.943
307.941
307.94
307.94
307.941
307.943
307.946
307.951
307.956
307.962
307.935
307.931
307.928
307.925
307.923
307.921
307.92
307.92
307.921
307.922
307.925
307.929
307.933
307.939
307.915
307.912
307.909
307.907
307.905
307.903
307.902
307.902
307.902
307.903
307.905
307.908
307.912
307.918
307.896
307.894
307.892
307.89
307.888
307.887
307.886
307.885
307.885
307.886
307.887
307.889
307.892
307.897
307.879
307.877
307.876
307.875
307.873
307.872
307.871
307.87
307.87
307.87
307.87
307.872
307.873
307.877
307.865
307.863
307.863
307.862
307.861
307.86
307.858
307.857
307.856
307.855
307.855
307.855
307.855
307.859
307.851
307.85
307.851
307.851
307.85
307.849
307.848
307.846
307.845
307.843
307.842
307.841
307.84
307.843
307.842
307.841
307.843
307.842
307.842
307.84
307.839
307.837
307.834
307.832
307.829
307.826
307.824
307.824
307.946
307.948
307.949
307.951
307.954
307.957
307.961
307.965
307.971
307.977
307.984
307.992
308.002
308.012
307.927
307.93
307.931
307.933
307.935
307.939
307.942
307.947
307.952
307.958
307.964
307.972
307.98
307.988
307.91
307.912
307.914
307.916
307.918
307.92
307.923
307.927
307.932
307.937
307.944
307.951
307.96
307.966
307.891
307.895
307.896
307.899
307.901
307.903
307.906
307.909
307.913
307.918
307.924
307.931
307.939
307.946
307.874
307.878
307.879
307.882
307.884
307.886
307.888
307.891
307.895
307.9
307.906
307.912
307.92
307.927
307.857
307.861
307.863
307.866
307.867
307.87
307.872
307.875
307.878
307.882
307.888
307.894
307.901
307.909
307.841
307.845
307.847
307.85
307.852
307.854
307.856
307.858
307.862
307.866
307.87
307.876
307.883
307.891
307.826
307.83
307.833
307.835
307.837
307.839
307.841
307.843
307.846
307.85
307.854
307.859
307.866
307.874
307.812
307.816
307.819
307.822
307.824
307.825
307.827
307.829
307.832
307.835
307.839
307.843
307.849
307.857
307.8
307.804
307.807
307.81
307.812
307.813
307.815
307.816
307.818
307.821
307.824
307.828
307.833
307.841
307.789
307.793
307.797
307.799
307.801
307.802
307.803
307.804
307.806
307.807
307.81
307.813
307.818
307.825
307.781
307.785
307.789
307.791
307.792
307.793
307.794
307.794
307.795
307.795
307.797
307.799
307.802
307.809
307.774
307.778
307.782
307.784
307.785
307.785
307.785
307.784
307.784
307.784
307.785
307.786
307.789
307.794
307.773
307.775
307.778
307.78
307.78
307.779
307.778
307.776
307.775
307.773
307.773
307.773
307.774
307.777
307.738
307.751
307.762
307.772
307.781
307.789
307.797
307.805
307.814
307.823
307.832
307.842
307.851
307.862
307.731
307.745
307.755
307.766
307.775
307.784
307.792
307.8
307.809
307.818
307.828
307.837
307.847
307.857
307.724
307.739
307.749
307.76
307.769
307.777
307.786
307.794
307.802
307.811
307.82
307.829
307.84
307.85
307.717
307.731
307.742
307.753
307.762
307.771
307.779
307.787
307.795
307.803
307.812
307.821
307.832
307.841
307.711
307.724
307.735
307.746
307.755
307.763
307.772
307.779
307.787
307.795
307.804
307.813
307.823
307.832
307.703
307.716
307.728
307.738
307.748
307.756
307.764
307.772
307.78
307.787
307.796
307.804
307.814
307.824
307.696
307.709
307.721
307.731
307.741
307.749
307.757
307.764
307.771
307.779
307.787
307.795
307.804
307.814
307.69
307.703
307.715
307.725
307.733
307.742
307.749
307.756
307.763
307.77
307.778
307.786
307.794
307.804
307.685
307.697
307.708
307.718
307.727
307.734
307.741
307.748
307.755
307.761
307.768
307.776
307.784
307.794
307.681
307.693
307.704
307.713
307.721
307.728
307.734
307.74
307.746
307.752
307.759
307.766
307.774
307.783
307.678
307.689
307.699
307.708
307.715
307.722
307.727
307.732
307.738
307.743
307.749
307.756
307.763
307.772
307.677
307.687
307.696
307.704
307.71
307.716
307.721
307.725
307.73
307.734
307.739
307.745
307.752
307.761
307.676
307.686
307.694
307.701
307.706
307.711
307.714
307.718
307.721
307.725
307.729
307.735
307.741
307.749
307.68
307.688
307.695
307.7
307.704
307.707
307.709
307.711
307.713
307.715
307.719
307.723
307.728
307.736
307.468
307.491
307.511
307.53
307.546
307.561
307.576
307.589
307.602
307.615
307.627
307.64
307.652
307.667
307.475
307.496
307.517
307.536
307.554
307.57
307.586
307.6
307.614
307.627
307.64
307.653
307.666
307.68
307.482
307.504
307.526
307.545
307.563
307.579
307.595
307.609
307.623
307.636
307.649
307.662
307.674
307.688
307.488
307.51
307.532
307.551
307.57
307.586
307.602
307.617
307.631
307.644
307.657
307.67
307.682
307.696
307.494
307.517
307.539
307.558
307.576
307.592
307.608
307.622
307.636
307.649
307.662
307.674
307.687
307.7
307.499
307.522
307.543
307.562
307.58
307.597
307.612
307.627
307.641
307.654
307.666
307.679
307.691
307.704
307.505
307.527
307.548
307.567
307.585
307.601
307.616
307.63
307.643
307.656
307.668
307.68
307.693
307.705
307.511
307.532
307.553
307.571
307.588
307.603
307.618
307.632
307.645
307.657
307.669
307.681
307.693
307.706
307.516
307.538
307.557
307.574
307.59
307.606
307.619
307.632
307.645
307.657
307.668
307.68
307.692
307.705
307.523
307.543
307.561
307.578
307.593
307.607
307.62
307.632
307.644
307.656
307.667
307.679
307.69
307.702
307.53
307.549
307.565
307.581
307.595
307.608
307.62
307.631
307.642
307.653
307.664
307.675
307.686
307.699
307.537
307.554
307.569
307.583
307.596
307.608
307.619
307.63
307.64
307.65
307.66
307.671
307.681
307.694
307.544
307.559
307.573
307.586
307.596
307.607
307.617
307.627
307.636
307.645
307.655
307.665
307.676
307.688
307.553
307.567
307.577
307.588
307.597
307.607
307.615
307.623
307.632
307.64
307.649
307.659
307.669
307.682
307.155
307.182
307.208
307.232
307.255
307.276
307.295
307.314
307.331
307.347
307.363
307.378
307.393
307.41
307.174
307.199
307.227
307.252
307.276
307.299
307.32
307.34
307.358
307.375
307.392
307.408
307.423
307.442
307.196
307.222
307.251
307.275
307.3
307.322
307.344
307.363
307.382
307.399
307.416
307.432
307.448
307.466
307.216
307.242
307.27
307.295
307.32
307.343
307.365
307.385
307.405
307.423
307.44
307.457
307.472
307.49
307.236
307.263
307.291
307.316
307.341
307.363
307.385
307.405
307.424
307.443
307.46
307.477
307.493
307.51
307.256
307.283
307.31
307.335
307.359
307.382
307.404
307.424
307.443
307.461
307.479
307.496
307.512
307.529
307.276
307.302
307.328
307.353
307.377
307.399
307.42
307.44
307.459
307.477
307.494
307.511
307.528
307.544
307.295
307.321
307.346
307.37
307.393
307.414
307.435
307.455
307.473
307.491
307.509
307.525
307.542
307.558
307.313
307.339
307.362
307.385
307.407
307.428
307.448
307.467
307.486
307.503
307.52
307.537
307.553
307.569
307.332
307.356
307.378
307.4
307.421
307.441
307.46
307.479
307.496
307.513
307.53
307.547
307.563
307.58
307.349
307.372
307.392
307.413
307.433
307.452
307.47
307.488
307.505
307.522
307.539
307.555
307.572
307.589
307.365
307.387
307.406
307.425
307.444
307.462
307.48
307.497
307.513
307.53
307.546
307.562
307.579
307.596
307.381
307.401
307.418
307.436
307.453
307.471
307.487
307.503
307.52
307.536
307.552
307.568
307.584
307.602
307.397
307.415
307.43
307.446
307.462
307.478
307.494
307.509
307.525
307.54
307.556
307.573
307.589
307.608
306.858
306.88
306.905
306.928
306.951
306.973
306.993
307.012
307.031
307.048
307.065
307.081
307.098
307.114
306.887
306.908
306.934
306.958
306.982
307.005
307.027
307.048
307.067
307.086
307.104
307.122
307.139
307.159
306.92
306.941
306.968
306.991
307.016
307.038
307.061
307.081
307.101
307.121
307.139
307.157
307.174
307.195
306.951
306.973
306.999
307.023
307.047
307.071
307.093
307.115
307.136
307.156
307.175
307.194
307.212
307.232
306.983
307.005
307.031
307.055
307.079
307.102
307.125
307.147
307.168
307.188
307.208
307.227
307.245
307.265
307.014
307.037
307.062
307.086
307.11
307.133
307.156
307.178
307.199
307.22
307.24
307.26
307.279
307.298
307.045
307.068
307.092
307.116
307.139
307.162
307.185
307.207
307.229
307.25
307.27
307.29
307.309
307.328
307.076
307.099
307.122
307.145
307.168
307.191
307.213
307.235
307.257
307.278
307.299
307.318
307.338
307.357
307.105
307.128
307.15
307.172
307.195
307.217
307.24
307.262
307.283
307.304
307.325
307.345
307.365
307.383
307.134
307.156
307.177
307.199
307.221
307.243
307.265
307.287
307.308
307.329
307.35
307.37
307.39
307.408
307.16
307.182
307.202
307.224
307.245
307.267
307.288
307.31
307.331
307.352
307.373
307.393
307.414
307.432
307.187
307.208
307.227
307.248
307.268
307.29
307.311
307.332
307.353
307.373
307.394
307.414
307.435
307.454
307.21
307.231
307.249
307.269
307.289
307.31
307.331
307.352
307.373
307.394
307.415
307.435
307.456
307.477
307.235
307.253
307.271
307.29
307.309
307.329
307.35
307.37
307.391
307.411
307.432
307.454
307.475
307.499
306.639
306.65
306.665
306.68
306.696
306.712
306.728
306.744
306.76
306.775
306.789
306.804
306.818
306.832
306.673
306.683
306.699
306.714
306.73
306.747
306.764
306.781
306.797
306.813
306.829
306.845
306.86
306.877
306.708
306.718
306.735
306.749
306.766
306.783
306.8
306.817
306.834
306.851
306.867
306.884
306.899
306.918
306.743
306.755
306.771
306.786
306.802
306.819
306.837
306.855
306.872
306.89
306.907
306.924
306.94
306.959
306.779
306.791
306.807
306.822
306.839
306.856
306.874
306.892
306.91
306.928
306.946
306.964
306.98
306.999
306.815
306.828
306.843
306.859
306.876
306.894
306.912
306.93
306.949
306.967
306.986
307.004
307.021
307.04
306.85
306.864
306.879
306.896
306.913
306.931
306.949
306.968
306.987
307.006
307.024
307.043
307.061
307.079
306.886
306.9
306.915
306.932
306.949
306.967
306.986
307.005
307.024
307.044
307.063
307.082
307.101
307.118
306.921
306.935
306.95
306.967
306.985
307.003
307.022
307.041
307.061
307.08
307.1
307.119
307.139
307.155
306.955
306.97
306.985
307.002
307.02
307.038
307.057
307.077
307.097
307.117
307.137
307.156
307.176
307.193
306.987
307.003
307.018
307.035
307.053
307.072
307.091
307.111
307.132
307.152
307.172
307.191
307.212
307.228
307.019
307.035
307.05
307.068
307.086
307.105
307.124
307.144
307.165
307.185
307.206
307.225
307.247
307.263
307.048
307.064
307.08
307.097
307.116
307.135
307.156
307.176
307.198
307.218
307.24
307.26
307.282
307.299
307.079
307.094
307.11
307.128
307.147
307.166
307.186
307.207
307.228
307.248
307.269
307.29
307.312
307.334
306.511
306.509
306.514
306.52
306.526
306.534
306.542
306.552
306.561
306.571
306.58
306.59
306.6
306.611
306.543
306.54
306.544
306.55
306.557
306.564
306.573
306.582
306.592
306.603
306.613
306.624
306.634
306.646
306.573
306.571
306.576
306.582
306.589
306.597
306.605
306.615
306.625
306.635
306.646
306.657
306.667
306.68
306.605
306.604
306.609
306.615
306.622
306.63
306.639
306.649
306.659
306.67
306.681
306.692
306.703
306.717
306.637
306.637
306.643
306.649
306.656
306.665
306.674
306.684
306.694
306.705
306.717
306.729
306.74
306.753
306.67
306.672
306.678
306.684
306.692
306.7
306.71
306.72
306.731
306.742
306.754
306.767
306.779
306.791
306.703
306.707
306.712
306.719
306.727
306.736
306.746
306.757
306.768
306.78
306.793
306.805
306.818
306.83
306.736
306.741
306.747
306.755
306.763
306.773
306.783
306.795
306.807
306.819
306.832
306.845
306.859
306.87
306.769
306.775
306.781
306.79
306.799
306.809
306.821
306.833
306.845
306.858
306.871
306.884
306.899
306.91
306.803
306.809
306.816
306.825
306.835
306.846
306.858
306.871
306.884
306.897
306.911
306.925
306.94
306.951
306.835
306.842
306.85
306.86
306.871
306.883
306.895
306.909
306.922
306.936
306.95
306.964
306.98
306.991
306.867
306.876
306.884
306.894
306.906
306.919
306.932
306.946
306.961
306.975
306.99
307.004
307.021
307.031
306.898
306.906
306.916
306.928
306.941
306.954
306.969
306.983
306.998
307.013
307.029
307.044
307.061
307.072
306.931
306.94
306.95
306.962
306.976
306.99
307.004
307.02
307.035
307.051
307.066
307.082
307.099
307.113
306.447
306.441
306.437
306.435
306.434
306.434
306.435
306.437
306.44
306.443
306.447
306.451
306.455
306.462
306.472
306.464
306.461
306.458
306.457
306.457
306.457
306.459
306.462
306.465
306.468
306.473
306.477
306.484
306.495
306.487
306.484
306.482
306.48
306.48
306.481
306.483
306.485
306.488
306.491
306.496
306.5
306.507
306.52
306.513
306.51
306.507
306.506
306.506
306.506
306.508
306.51
306.513
306.517
306.521
306.525
306.532
306.544
306.538
306.535
306.533
306.532
306.532
306.533
306.534
306.537
306.54
306.544
306.548
306.552
306.558
306.57
306.565
306.562
306.56
306.559
306.56
306.561
306.562
306.565
306.568
306.572
306.576
306.581
306.586
306.595
306.592
306.59
306.588
306.588
306.588
306.59
306.592
306.594
306.598
306.602
306.607
306.611
306.616
306.621
306.619
306.618
306.617
306.617
306.618
306.62
306.622
306.625
306.629
306.634
306.638
306.644
306.648
306.648
306.647
306.646
306.646
306.647
306.648
306.651
306.654
306.657
306.662
306.667
306.672
306.678
306.681
306.675
306.676
306.675
306.676
306.677
306.68
306.682
306.686
306.69
306.695
306.701
306.706
306.713
306.715
306.702
306.704
306.704
306.706
306.709
306.712
306.715
306.719
306.724
306.73
306.736
306.741
306.749
306.75
306.73
306.733
306.734
306.737
306.74
306.744
306.748
306.753
306.759
306.765
306.772
306.778
306.786
306.786
306.758
306.762
306.764
306.768
306.772
306.777
306.782
306.787
306.794
306.8
306.807
306.814
306.821
306.823
306.789
306.792
306.795
306.799
306.804
306.809
306.815
306.822
306.829
306.836
306.843
306.85
306.859
306.863
306.419
306.409
306.401
306.394
306.388
306.383
306.379
306.376
306.374
306.372
306.37
306.37
306.369
306.37
306.435
306.424
306.416
306.409
306.403
306.398
306.393
306.39
306.387
306.384
306.382
306.381
306.38
306.38
306.45
306.439
306.432
306.424
306.418
306.413
306.408
306.404
306.401
306.398
306.396
306.394
306.392
306.393
306.466
306.456
306.448
306.441
306.434
306.429
306.424
306.42
306.416
306.413
306.41
306.408
306.406
306.406
306.482
306.472
306.465
306.458
306.451
306.446
306.441
306.436
306.433
306.43
306.427
306.425
306.422
306.421
306.499
306.49
306.483
306.476
306.469
306.464
306.459
306.454
306.45
306.447
306.444
306.442
306.44
306.438
306.516
306.508
306.501
306.494
306.488
306.483
306.478
306.473
306.47
306.466
306.464
306.461
306.459
306.456
306.534
306.527
306.52
306.514
306.508
306.503
306.498
306.493
306.49
306.486
306.484
306.481
306.479
306.476
306.552
306.546
306.54
306.534
306.528
306.523
306.519
306.515
306.511
306.508
306.505
306.502
306.5
306.497
306.571
306.566
306.56
306.555
306.55
306.545
306.541
306.537
306.533
306.53
306.527
306.524
306.523
306.52
306.591
306.587
306.582
306.577
306.572
306.568
306.564
306.56
306.557
306.553
306.551
306.548
306.547
306.544
306.611
306.608
306.603
306.599
306.595
306.591
306.588
306.584
306.581
306.578
306.576
306.573
306.572
306.569
306.633
306.63
306.626
306.623
306.619
306.616
306.612
306.609
306.606
306.604
306.601
306.599
306.598
306.594
306.657
306.653
306.648
306.645
306.643
306.64
306.638
306.635
306.633
306.63
306.628
306.626
306.626
306.623
306.402
306.39
306.38
306.371
306.363
306.355
306.348
306.341
306.335
306.33
306.325
306.32
306.316
306.312
306.409
306.398
306.389
306.379
306.371
306.363
306.355
306.348
306.341
306.335
306.329
306.324
306.319
306.314
306.417
306.406
306.396
306.387
306.378
306.37
306.362
306.355
306.348
306.341
306.335
306.33
306.324
306.319
306.425
306.414
306.405
306.395
306.386
306.378
306.37
306.362
306.355
306.348
306.342
306.335
306.329
306.323
306.434
306.423
306.413
306.404
306.395
306.387
306.378
306.371
306.363
306.356
306.349
306.342
306.335
306.329
306.443
306.432
306.423
306.413
306.404
306.396
306.387
306.379
306.371
306.364
306.356
306.349
306.342
306.335
306.452
306.442
306.432
306.423
306.414
306.405
306.397
306.388
306.38
306.372
306.365
306.357
306.35
306.343
306.461
306.452
306.443
306.433
306.424
306.415
306.406
306.398
306.39
306.382
306.374
306.366
306.358
306.351
306.471
306.462
306.453
306.444
306.435
306.426
306.417
306.408
306.4
306.392
306.384
306.376
306.368
306.36
306.481
306.473
306.464
306.455
306.446
306.437
306.428
306.419
306.411
306.402
306.394
306.386
306.378
306.369
306.492
306.484
306.475
306.467
306.458
306.449
306.44
306.431
306.422
306.414
306.405
306.397
306.389
306.379
306.503
306.495
306.487
306.479
306.47
306.461
306.452
306.443
306.434
306.425
306.417
306.408
306.4
306.39
306.515
306.508
306.5
306.491
306.482
306.474
306.465
306.456
306.447
306.438
306.429
306.419
306.411
306.401
306.527
306.519
306.511
306.503
306.495
306.487
306.478
306.469
306.46
306.451
306.442
306.433
306.424
306.415
306.378
306.366
306.356
306.346
306.337
306.327
306.318
306.309
306.301
306.292
306.284
306.276
306.379
306.368
306.358
306.348
306.339
306.329
306.319
306.31
306.301
306.292
306.283
306.275
306.379
306.369
306.359
306.349
306.339
306.33
306.32
306.31
306.301
306.292
306.283
306.274
306.38
306.37
306.36
306.35
306.34
306.331
306.321
306.311
306.301
306.292
306.283
306.273
306.381
306.371
306.361
306.351
306.341
306.331
306.322
306.312
306.302
306.292
306.282
306.272
306.382
306.373
306.362
306.352
306.342
306.332
306.322
306.312
306.302
306.292
306.281
306.271
306.384
306.374
306.364
306.354
306.343
306.333
306.323
306.312
306.302
306.291
306.281
306.27
306.385
306.375
306.365
306.355
306.344
306.334
306.323
306.313
306.302
306.291
306.28
306.27
306.386
306.376
306.366
306.356
306.345
306.335
306.324
306.313
306.302
306.291
306.28
306.269
306.387
306.377
306.367
306.357
306.346
306.335
306.324
306.313
306.302
306.291
306.279
306.268
306.389
306.379
306.369
306.358
306.347
306.336
306.325
306.314
306.302
306.29
306.279
306.267
306.39
306.38
306.37
306.359
306.348
306.337
306.326
306.314
306.302
306.29
306.278
306.266
306.392
306.381
306.371
306.36
306.349
306.338
306.326
306.314
306.302
306.29
306.278
306.265
306.392
306.382
306.372
306.361
306.35
306.339
306.327
306.315
306.303
306.291
306.279
306.266
308.843
308.865
308.889
308.91
308.93
308.948
308.842
308.876
308.907
308.935
308.961
308.984
308.846
308.887
308.924
308.957
308.987
309.014
308.845
308.893
308.936
308.974
309.007
309.036
308.833
308.849
308.867
308.883
308.896
308.909
308.838
308.864
308.888
308.909
308.927
308.945
308.845
308.878
308.907
308.933
308.955
308.976
308.849
308.887
308.922
308.952
308.978
309
308.851
308.894
308.933
308.966
308.994
309.018
308.85
308.897
308.938
308.975
309.005
309.03
308.849
308.897
308.94
308.978
309.01
309.035
308.782
308.794
308.808
308.821
308.833
308.846
308.792
308.811
308.829
308.846
308.862
308.878
308.803
308.827
308.85
308.87
308.888
308.907
308.811
308.839
308.866
308.889
308.91