/*--------------------------------*- C++ -*----------------------------------*\
| =========                 |                                                 |
| \\      /  F ield         | OpenFOAM: The Open Source CFD Toolbox           |
|  \\    /   O peration     | Version:  v2106                                 |
|   \\  /    A nd           | Website:  www.openfoam.com                      |
|    \\/     M anipulation  |                                                 |
\*---------------------------------------------------------------------------*/
FoamFile
{
    version     2.0;
    format      ascii;
    arch        "LSB;label=32;scalar=64";
    class       volScalarField;
    location    "0.000205";
    object      Ttot;
}
// * * * * * * * * * * * * * * * * * * * * * * * * * * * * * * * * * * * * * //

dimensions      [0 0 0 1 0 0 0];

internalField   nonuniform List<scalar> 
17924
(
309.201
309.202
309.2
309.197
309.2
309.204
309.207
309.208
309.209
309.208
309.206
309.157
309.162
309.164
309.165
309.165
309.164
309.162
309.115
309.12
309.121
309.121
309.12
309.118
309.115
309.069
309.073
309.074
309.074
309.073
309.07
309.066
309.024
309.026
309.026
309.025
309.023
309.02
309.015
308.976
308.977
308.976
308.975
308.972
308.967
308.961
308.927
308.927
308.925
308.923
308.919
308.913
308.906
308.877
308.875
308.873
308.869
308.864
308.857
308.849
308.826
308.823
308.819
308.814
308.808
308.799
308.791
308.773
308.769
308.764
308.757
308.75
308.741
308.732
308.721
308.715
308.708
308.7
308.692
308.682
308.673
308.666
308.659
308.651
308.642
308.634
308.624
308.615
308.613
308.605
308.597
308.587
308.577
308.567
308.557
308.558
308.55
308.54
308.529
308.52
308.51
308.501
309.153
309.163
309.17
309.176
309.18
309.182
309.183
309.183
309.181
309.179
309.174
309.167
309.159
309.15
309.117
309.127
309.134
309.139
309.143
309.145
309.145
309.145
309.143
309.138
309.132
309.124
309.115
309.103
309.082
309.092
309.097
309.102
309.104
309.106
309.106
309.105
309.102
309.097
309.09
309.081
309.072
309.059
309.042
309.052
309.057
309.061
309.063
309.064
309.064
309.063
309.059
309.053
309.045
309.036
309.026
309.012
309.003
309.01
309.015
309.019
309.02
309.021
309.021
309.019
309.015
309.008
309
308.991
308.979
308.966
308.96
308.967
308.971
308.974
308.976
308.977
308.976
308.974
308.969
308.962
308.953
308.943
308.931
308.919
308.917
308.922
308.926
308.928
308.93
308.93
308.929
308.927
308.922
308.914
308.905
308.895
308.883
308.871
308.871
308.875
308.879
308.881
308.882
308.882
308.881
308.878
308.873
308.865
308.856
308.847
308.835
308.824
308.825
308.827
308.831
308.832
308.833
308.833
308.831
308.828
308.823
308.816
308.808
308.799
308.789
308.779
308.776
308.777
308.781
308.782
308.783
308.782
308.78
308.777
308.772
308.766
308.759
308.751
308.742
308.734
308.727
308.727
308.73
308.73
308.731
308.73
308.728
308.725
308.721
308.716
308.711
308.704
308.697
308.692
308.675
308.675
308.677
308.677
308.678
308.676
308.675
308.673
308.67
308.666
308.662
308.657
308.652
308.65
308.624
308.623
308.624
308.623
308.623
308.622
308.621
308.62
308.618
308.616
308.613
308.61
308.609
308.609
308.57
308.569
308.569
308.568
308.567
308.567
308.566
308.566
308.566
308.566
308.566
308.565
308.565
308.57
309.06
309.071
309.08
309.089
309.096
309.102
309.107
309.109
309.111
309.112
309.111
309.108
309.102
309.096
309.03
309.041
309.051
309.059
309.067
309.073
309.077
309.08
309.081
309.081
309.079
309.074
309.068
309.059
309
309.012
309.021
309.029
309.036
309.042
309.046
309.049
309.05
309.049
309.046
309.04
309.033
309.023
308.968
308.979
308.988
308.997
309.004
309.009
309.013
309.015
309.016
309.014
309.01
309.004
308.995
308.984
308.935
308.946
308.954
308.963
308.969
308.975
308.978
308.98
308.98
308.978
308.973
308.966
308.956
308.945
308.9
308.91
308.918
308.926
308.933
308.938
308.941
308.942
308.942
308.939
308.934
308.926
308.916
308.905
308.863
308.872
308.88
308.888
308.894
308.898
308.901
308.902
308.902
308.899
308.893
308.885
308.875
308.864
308.824
308.832
308.84
308.847
308.853
308.857
308.859
308.86
308.86
308.857
308.851
308.844
308.834
308.824
308.784
308.79
308.798
308.804
308.809
308.813
308.816
308.817
308.816
308.814
308.809
308.802
308.793
308.784
308.741
308.746
308.753
308.759
308.764
308.768
308.771
308.772
308.772
308.77
308.766
308.76
308.752
308.744
308.696
308.699
308.706
308.711
308.717
308.721
308.724
308.726
308.727
308.726
308.723
308.718
308.712
308.707
308.649
308.65
308.658
308.663
308.669
308.673
308.677
308.679
308.681
308.682
308.681
308.677
308.672
308.669
308.6
308.601
308.608
308.612
308.618
308.623
308.628
308.633
308.636
308.638
308.639
308.637
308.635
308.634
308.548
308.55
308.556
308.561
308.568
308.574
308.58
308.585
308.59
308.594
308.597
308.597
308.597
308.597
308.942
308.947
308.954
308.96
308.967
308.973
308.979
308.983
308.987
308.989
308.99
308.99
308.986
308.985
308.912
308.919
308.925
308.933
308.94
308.947
308.953
308.958
308.961
308.963
308.964
308.963
308.959
308.955
308.884
308.891
308.898
308.906
308.914
308.921
308.927
308.932
308.935
308.937
308.938
308.936
308.932
308.926
308.855
308.863
308.87
308.879
308.886
308.894
308.9
308.905
308.908
308.91
308.91
308.908
308.903
308.895
308.826
308.834
308.841
308.85
308.858
308.865
308.872
308.877
308.88
308.882
308.882
308.879
308.873
308.865
308.796
308.804
308.811
308.82
308.828
308.836
308.842
308.847
308.85
308.852
308.852
308.848
308.842
308.833
308.764
308.772
308.78
308.789
308.797
308.804
308.811
308.816
308.819
308.82
308.82
308.817
308.809
308.801
308.731
308.738
308.747
308.755
308.764
308.771
308.778
308.783
308.786
308.787
308.787
308.783
308.776
308.768
308.697
308.703
308.711
308.72
308.728
308.736
308.743
308.748
308.751
308.753
308.752
308.749
308.742
308.735
308.66
308.666
308.674
308.683
308.691
308.699
308.706
308.711
308.714
308.716
308.716
308.713
308.707
308.7
308.622
308.627
308.635
308.643
308.652
308.66
308.667
308.673
308.677
308.679
308.68
308.678
308.672
308.667
308.582
308.585
308.594
308.602
308.612
308.62
308.627
308.633
308.638
308.641
308.643
308.641
308.637
308.633
308.54
308.542
308.551
308.559
308.569
308.578
308.586
308.593
308.599
308.603
308.606
308.606
308.604
308.602
308.495
308.497
308.506
308.516
308.526
308.535
308.544
308.552
308.559
308.564
308.568
308.569
308.569
308.568
308.82
308.819
308.817
308.819
308.821
308.825
308.828
308.832
308.835
308.838
308.841
308.843
308.844
308.846
308.788
308.789
308.788
308.789
308.792
308.796
308.8
308.803
308.807
308.81
308.813
308.814
308.814
308.813
308.758
308.759
308.759
308.76
308.763
308.768
308.772
308.776
308.78
308.783
308.785
308.786
308.786
308.784
308.729
308.73
308.73
308.732
308.736
308.741
308.745
308.75
308.754
308.757
308.759
308.759
308.758
308.755
308.7
308.702
308.702
308.704
308.709
308.714
308.719
308.723
308.727
308.731
308.733
308.733
308.731
308.727
308.671
308.673
308.674
308.677
308.681
308.687
308.692
308.697
308.701
308.705
308.706
308.707
308.704
308.7
308.643
308.644
308.645
308.649
308.654
308.66
308.665
308.671
308.675
308.679
308.68
308.681
308.678
308.673
308.614
308.614
308.616
308.62
308.626
308.632
308.638
308.644
308.648
308.652
308.654
308.654
308.651
308.646
308.583
308.583
308.586
308.591
308.597
308.604
308.61
308.616
308.621
308.625
308.627
308.627
308.624
308.619
308.551
308.552
308.555
308.561
308.568
308.575
308.582
308.588
308.593
308.597
308.6
308.6
308.597
308.592
308.52
308.519
308.524
308.53
308.537
308.545
308.552
308.559
308.565
308.569
308.572
308.573
308.57
308.566
308.486
308.485
308.491
308.498
308.506
308.514
308.522
308.53
308.536
308.541
308.544
308.545
308.542
308.538
308.451
308.45
308.457
308.465
308.474
308.483
308.492
308.5
308.507
308.513
308.517
308.518
308.517
308.514
308.415
308.415
308.423
308.431
308.442
308.452
308.461
308.47
308.478
308.484
308.488
308.49
308.49
308.487
308.7
308.693
308.687
308.684
308.683
308.683
308.684
308.686
308.689
308.693
308.697
308.702
308.707
308.712
308.667
308.662
308.655
308.652
308.65
308.65
308.651
308.653
308.656
308.66
308.664
308.667
308.672
308.674
308.636
308.631
308.624
308.621
308.619
308.619
308.62
308.622
308.625
308.628
308.632
308.635
308.639
308.639
308.605
308.6
308.594
308.591
308.589
308.589
308.59
308.592
308.595
308.598
308.601
308.603
308.607
308.606
308.576
308.571
308.565
308.562
308.56
308.56
308.561
308.563
308.566
308.569
308.572
308.574
308.576
308.576
308.548
308.542
308.536
308.534
308.533
308.533
308.534
308.536
308.539
308.542
308.544
308.546
308.547
308.547
308.52
308.514
308.509
308.507
308.506
308.506
308.508
308.51
308.513
308.515
308.518
308.52
308.52
308.52
308.491
308.486
308.482
308.48
308.48
308.481
308.483
308.485
308.488
308.491
308.493
308.494
308.494
308.493
308.463
308.458
308.455
308.454
308.454
308.456
308.458
308.461
308.464
308.467
308.469
308.47
308.469
308.468
308.435
308.43
308.429
308.428
308.43
308.432
308.435
308.438
308.441
308.444
308.446
308.447
308.446
308.444
308.407
308.403
308.403
308.403
308.406
308.409
308.413
308.417
308.42
308.423
308.425
308.426
308.425
308.423
308.38
308.376
308.377
308.379
308.383
308.387
308.391
308.396
308.4
308.403
308.405
308.406
308.404
308.401
308.353
308.349
308.351
308.355
308.36
308.365
308.371
308.376
308.381
308.384
308.387
308.388
308.385
308.383
308.325
308.322
308.327
308.332
308.339
308.345
308.351
308.357
308.362
308.366
308.368
308.368
308.366
308.362
308.578
308.568
308.56
308.555
308.553
308.552
308.553
308.555
308.558
308.562
308.568
308.574
308.582
308.591
308.545
308.538
308.529
308.524
308.521
308.519
308.519
308.521
308.524
308.528
308.533
308.538
308.546
308.55
308.514
308.507
308.498
308.493
308.489
308.488
308.487
308.488
308.49
308.494
308.498
308.503
308.511
308.514
308.485
308.477
308.469
308.463
308.46
308.458
308.457
308.457
308.459
308.462
308.466
308.471
308.477
308.479
308.457
308.449
308.441
308.435
308.431
308.429
308.428
308.428
308.429
308.432
308.436
308.44
308.446
308.448
308.429
308.421
308.413
308.408
308.404
308.402
308.4
308.4
308.401
308.404
308.407
308.411
308.415
308.418
308.402
308.394
308.387
308.382
308.378
308.376
308.375
308.374
308.375
308.377
308.38
308.383
308.387
308.39
308.376
308.368
308.362
308.358
308.354
308.352
308.351
308.35
308.351
308.353
308.355
308.357
308.36
308.363
308.35
308.343
308.338
308.334
308.331
308.33
308.329
308.328
308.329
308.33
308.332
308.334
308.335
308.337
308.325
308.319
308.316
308.312
308.31
308.309
308.309
308.308
308.309
308.31
308.31
308.312
308.312
308.314
308.302
308.297
308.294
308.292
308.291
308.291
308.29
308.29
308.291
308.291
308.291
308.293
308.292
308.293
308.281
308.276
308.275
308.274
308.274
308.274
308.274
308.274
308.274
308.274
308.274
308.275
308.273
308.273
308.26
308.256
308.257
308.257
308.258
308.259
308.26
308.26
308.261
308.261
308.26
308.26
308.257
308.255
308.241
308.238
308.241
308.242
308.244
308.246
308.247
308.248
308.248
308.247
308.246
308.244
308.24
308.236
308.439
308.432
308.427
308.424
308.423
308.423
308.425
308.428
308.432
308.437
308.444
308.452
308.462
308.471
308.409
308.405
308.4
308.397
308.396
308.395
308.396
308.398
308.402
308.407
308.413
308.42
308.428
308.434
308.383
308.379
308.374
308.371
308.369
308.368
308.368
308.369
308.372
308.376
308.382
308.388
308.397
308.402
308.357
308.353
308.348
308.345
308.343
308.341
308.341
308.342
308.345
308.348
308.353
308.359
308.367
308.371
308.333
308.329
308.324
308.32
308.318
308.316
308.316
308.316
308.318
308.321
308.326
308.332
308.339
308.344
308.309
308.305
308.3
308.297
308.294
308.293
308.292
308.292
308.294
308.296
308.301
308.306
308.312
308.318
308.286
308.282
308.278
308.274
308.272
308.27
308.27
308.27
308.271
308.273
308.277
308.281
308.287
308.293
308.263
308.26
308.257
308.254
308.252
308.25
308.249
308.249
308.25
308.251
308.254
308.258
308.263
308.269
308.242
308.239
308.237
308.234
308.232
308.231
308.23
308.229
308.23
308.231
308.233
308.237
308.241
308.247
308.223
308.221
308.219
308.217
308.215
308.214
308.213
308.212
308.212
308.213
308.214
308.217
308.22
308.225
308.205
308.203
308.202
308.201
308.2
308.199
308.197
308.196
308.196
308.196
308.197
308.199
308.201
308.205
308.191
308.189
308.189
308.188
308.187
308.185
308.184
308.183
308.182
308.181
308.181
308.182
308.183
308.186
308.177
308.175
308.176
308.176
308.175
308.174
308.173
308.171
308.17
308.169
308.168
308.167
308.166
308.168
308.167
308.166
308.168
308.167
308.167
308.166
308.164
308.162
308.159
308.157
308.154
308.151
308.149
308.148
308.267
308.269
308.27
308.273
308.276
308.279
308.283
308.288
308.294
308.301
308.309
308.318
308.328
308.338
308.247
308.249
308.251
308.253
308.257
308.26
308.264
308.269
308.275
308.281
308.288
308.296
308.305
308.312
308.229
308.231
308.233
308.236
308.238
308.241
308.245
308.249
308.254
308.26
308.266
308.274
308.283
308.29
308.209
308.213
308.215
308.218
308.221
308.223
308.226
308.23
308.235
308.24
308.246
308.253
308.262
308.269
308.192
308.196
308.198
308.201
308.203
308.205
308.208
308.212
308.216
308.221
308.227
308.234
308.242
308.249
308.174
308.179
308.181
308.184
308.186
308.189
308.191
308.194
308.198
308.203
308.208
308.215
308.223
308.231
308.158
308.162
308.165
308.168
308.17
308.172
308.174
308.177
308.181
308.185
308.19
308.197
308.204
308.212
308.142
308.146
308.15
308.152
308.155
308.157
308.159
308.162
308.165
308.168
308.173
308.179
308.186
308.194
308.128
308.132
308.136
308.138
308.141
308.143
308.145
308.147
308.149
308.153
308.157
308.162
308.168
308.177
308.115
308.119
308.123
308.126
308.128
308.13
308.132
308.133
308.135
308.138
308.142
308.146
308.152
308.16
308.105
308.108
308.112
308.115
308.117
308.119
308.12
308.121
308.122
308.124
308.127
308.131
308.136
308.144
308.096
308.1
308.104
308.106
308.108
308.109
308.11
308.11
308.111
308.112
308.114
308.117
308.12
308.127
308.089
308.093
308.097
308.099
308.1
308.101
308.1
308.1
308.1
308.1
308.101
308.103
308.106
308.111
308.088
308.09
308.093
308.094
308.095
308.094
308.093
308.092
308.09
308.088
308.088
308.089
308.09
308.092
308.042
308.054
308.066
308.077
308.086
308.096
308.104
308.113
308.122
308.132
308.142
308.152
308.163
308.173
308.034
308.048
308.059
308.071
308.081
308.09
308.099
308.108
308.118
308.127
308.137
308.147
308.158
308.167
308.027
308.041
308.053
308.065
308.075
308.084
308.093
308.101
308.11
308.119
308.129
308.139
308.15
308.16
308.02
308.034
308.046
308.057
308.068
308.077
308.086
308.095
308.103
308.112
308.122
308.131
308.142
308.152
308.013
308.027
308.04
308.051
308.061
308.07
308.079
308.087
308.095
308.104
308.113
308.123
308.133
308.143
308.005
308.019
308.032
308.043
308.053
308.062
308.071
308.079
308.087
308.096
308.105
308.114
308.124
308.134
307.999
308.013
308.025
308.036
308.046
308.055
308.063
308.071
308.079
308.087
308.095
308.104
308.114
308.124
307.992
308.006
308.018
308.029
308.039
308.047
308.055
308.063
308.07
308.078
308.086
308.095
308.104
308.114
307.987
308
308.012
308.023
308.032
308.04
308.047
308.055
308.061
308.069
308.076
308.085
308.093
308.104
307.983
307.996
308.007
308.017
308.025
308.033
308.04
308.047
308.053
308.06
308.066
308.075
308.083
308.093
307.981
307.992
308.003
308.012
308.02
308.027
308.033
308.038
308.044
308.05
308.056
308.064
308.072
308.082
307.979
307.99
308
308.008
308.015
308.021
308.026
308.031
308.036
308.041
308.047
308.053
308.06
308.07
307.979
307.989
307.998
308.005
308.011
308.016
308.019
308.023
308.027
308.031
308.036
308.042
308.049
308.057
307.983
307.991
307.998
308.004
308.008
308.011
308.013
308.016
308.018
308.021
308.025
308.029
308.035
308.042
307.75
307.773
307.795
307.815
307.833
307.849
307.864
307.878
307.892
307.906
307.919
307.932
307.946
307.96
307.757
307.779
307.802
307.822
307.841
307.859
307.875
307.89
307.905
307.919
307.933
307.947
307.96
307.974
307.765
307.788
307.811
307.832
307.851
307.869
307.885
307.9
307.914
307.928
307.942
307.956
307.969
307.983
307.771
307.795
307.818
307.839
307.858
307.876
307.893
307.908
307.923
307.937
307.951
307.965
307.978
307.992
307.779
307.802
307.826
307.846
307.866
307.883
307.899
307.914
307.929
307.943
307.957
307.97
307.983
307.997
307.784
307.808
307.831
307.851
307.87
307.888
307.904
307.919
307.934
307.948
307.962
307.975
307.988
308.001
307.791
307.814
307.837
307.857
307.875
307.892
307.908
307.923
307.937
307.95
307.964
307.977
307.99
308.003
307.797
307.82
307.841
307.86
307.878
307.895
307.911
307.925
307.939
307.952
307.965
307.978
307.99
308.004
307.803
307.825
307.845
307.864
307.881
307.898
307.912
307.926
307.939
307.952
307.964
307.977
307.989
308.003
307.81
307.831
307.85
307.868
307.884
307.899
307.913
307.926
307.939
307.951
307.963
307.976
307.988
308.001
307.817
307.837
307.855
307.871
307.886
307.9
307.913
307.925
307.937
307.948
307.96
307.972
307.984
307.998
307.825
307.843
307.859
307.874
307.887
307.9
307.912
307.923
307.934
307.945
307.956
307.968
307.98
307.994
307.833
307.849
307.863
307.877
307.888
307.9
307.91
307.92
307.93
307.94
307.951
307.962
307.974
307.987
307.842
307.856
307.868
307.879
307.889
307.899
307.908
307.917
307.926
307.935
307.945
307.955
307.966
307.98
307.414
307.442
307.47
307.495
307.52
307.542
307.563
307.582
307.6
307.617
307.634
307.65
307.666
307.683
307.434
307.46
307.49
307.517
307.543
307.566
307.589
307.609
307.629
307.647
307.665
307.682
307.698
307.717
307.458
307.485
307.515
307.542
307.568
307.591
307.614
307.635
307.654
307.673
307.691
307.708
307.724
307.742
307.479
307.506
307.537
307.563
307.589
307.614
307.637
307.658
307.678
307.698
307.716
307.734
307.75
307.769
307.501
307.529
307.559
307.585
307.611
307.635
307.658
307.679
307.7
307.719
307.737
307.755
307.772
307.79
307.522
307.55
307.579
307.605
307.631
307.655
307.678
307.699
307.719
307.739
307.757
307.775
307.793
307.81
307.543
307.571
307.599
307.625
307.65
307.673
307.695
307.716
307.736
307.755
307.774
307.792
307.809
307.826
307.563
307.591
307.617
307.642
307.667
307.69
307.711
307.732
307.752
307.771
307.789
307.807
307.824
307.841
307.583
307.61
307.634
307.659
307.682
307.704
307.725
307.746
307.765
307.783
307.801
307.819
307.837
307.854
307.602
307.628
307.651
307.674
307.696
307.718
307.738
307.758
307.776
307.795
307.812
307.83
307.848
307.865
307.621
307.645
307.666
307.689
307.709
307.73
307.749
307.768
307.786
307.804
307.821
307.839
307.857
307.875
307.638
307.661
307.681
307.702
307.721
307.74
307.759
307.777
307.795
307.812
307.83
307.847
307.865
307.883
307.655
307.676
307.694
307.713
307.732
307.75
307.767
307.784
307.801
307.818
307.836
307.853
307.871
307.89
307.671
307.69
307.706
307.724
307.74
307.757
307.774
307.791
307.807
307.824
307.841
307.858
307.876
307.895
307.097
307.12
307.147
307.171
307.195
307.218
307.239
307.26
307.279
307.298
307.316
307.332
307.35
307.366
307.127
307.149
307.177
307.203
307.228
307.252
307.275
307.297
307.318
307.337
307.356
307.375
307.393
307.413
307.162
307.185
307.213
307.238
307.263
307.287
307.311
307.333
307.354
307.374
307.394
307.413
307.431
307.451
307.196
307.219
307.246
307.271
307.297
307.321
307.345
307.368
307.39
307.411
307.431
307.451
307.47
307.491
307.229
307.253
307.28
307.305
307.33
307.355
307.379
307.402
307.424
307.445
307.466
307.487
307.506
307.526
307.263
307.287
307.313
307.338
307.363
307.387
307.411
307.434
307.457
307.479
307.5
307.521
307.541
307.561
307.295
307.319
307.345
307.369
307.394
307.418
307.442
307.465
307.488
307.51
307.532
307.553
307.573
307.593
307.327
307.352
307.376
307.4
307.424
307.448
307.472
307.495
307.518
307.54
307.562
307.583
307.604
307.623
307.358
307.382
307.405
307.429
307.453
307.477
307.5
307.523
307.546
307.568
307.59
307.611
307.632
307.651
307.388
307.412
307.434
307.457
307.48
307.504
307.527
307.55
307.572
307.594
307.616
307.637
307.659
307.678
307.417
307.439
307.461
307.484
307.506
307.529
307.552
307.574
307.597
307.619
307.641
307.662
307.684
307.704
307.445
307.467
307.487
307.509
307.531
307.553
307.575
307.598
307.62
307.641
307.663
307.685
307.707
307.728
307.47
307.491
307.51
307.532
307.553
307.575
307.597
307.619
307.641
307.663
307.685
307.707
307.73
307.752
307.495
307.515
307.533
307.554
307.574
307.595
307.617
307.638
307.66
307.682
307.704
307.727
307.75
307.774
306.863
306.874
306.891
306.906
306.923
306.94
306.957
306.974
306.99
307.006
307.021
307.036
307.051
307.065
306.898
306.909
306.926
306.942
306.959
306.976
306.994
307.012
307.029
307.046
307.063
307.079
307.095
307.113
306.935
306.947
306.964
306.98
306.997
307.014
307.033
307.051
307.068
307.086
307.103
307.12
307.136
307.155
306.973
306.985
307.002
307.018
307.035
307.053
307.072
307.09
307.109
307.127
307.145
307.163
307.18
307.199
307.01
307.023
307.04
307.056
307.074
307.092
307.111
307.13
307.149
307.168
307.186
307.205
307.222
307.241
307.049
307.062
307.078
307.095
307.113
307.131
307.15
307.17
307.189
307.209
307.228
307.247
307.265
307.284
307.086
307.101
307.116
307.133
307.151
307.17
307.19
307.209
307.229
307.249
307.269
307.288
307.307
307.325
307.124
307.139
307.154
307.172
307.19
307.209
307.228
307.248
307.269
307.289
307.309
307.329
307.349
307.367
307.16
307.175
307.191
307.209
307.227
307.247
307.266
307.287
307.307
307.328
307.348
307.368
307.389
307.407
307.196
307.212
307.228
307.246
307.264
307.284
307.304
307.324
307.345
307.366
307.387
307.407
307.428
307.446
307.23
307.246
307.262
307.28
307.299
307.319
307.339
307.36
307.382
307.403
307.424
307.445
307.467
307.484
307.264
307.281
307.296
307.315
307.334
307.354
307.374
307.395
307.417
307.438
307.46
307.481
307.504
307.522
307.295
307.311
307.327
307.346
307.366
307.386
307.408
307.429
307.451
307.473
307.496
307.517
307.54
307.559
307.327
307.343
307.36
307.378
307.398
307.418
307.44
307.461
307.483
307.505
307.527
307.549
307.572
307.595
306.725
306.724
306.729
306.735
306.742
306.75
306.759
306.768
306.778
306.788
306.798
306.808
306.819
306.829
306.759
306.756
306.761
306.767
306.774
306.782
306.791
306.801
306.811
306.821
306.832
306.843
306.854
306.866
306.791
306.789
306.794
306.8
306.807
306.816
306.824
306.834
306.845
306.856
306.867
306.878
306.889
306.902
306.825
306.824
306.829
306.835
306.842
306.851
306.86
306.87
306.881
306.892
306.904
306.915
306.927
306.941
306.858
306.859
306.864
306.871
306.878
306.887
306.896
306.907
306.918
306.93
306.941
306.954
306.966
306.979
306.893
306.895
306.901
306.908
306.915
306.924
306.934
306.945
306.956
306.968
306.981
306.994
307.006
307.019
306.927
306.932
306.937
306.944
306.953
306.962
306.972
306.984
306.996
307.008
307.021
307.034
307.048
307.06
306.962
306.968
306.974
306.981
306.99
307
307.011
307.023
307.036
307.049
307.062
307.076
307.09
307.103
306.997
307.003
307.01
307.019
307.028
307.039
307.051
307.063
307.076
307.09
307.104
307.117
307.132
307.145
307.032
307.039
307.046
307.056
307.066
307.078
307.09
307.103
307.117
307.131
307.145
307.16
307.175
307.187
307.066
307.074
307.081
307.092
307.103
307.116
307.129
307.143
307.157
307.172
307.187
307.201
307.218
307.229
307.1
307.109
307.117
307.129
307.141
307.154
307.168
307.183
307.198
307.212
307.228
307.243
307.261
307.272
307.132
307.142
307.151
307.164
307.177
307.191
307.206
307.222
307.237
307.253
307.269
307.285
307.303
307.315
307.167
307.176
307.187
307.2
307.214
307.228
307.244
307.26
307.276
307.292
307.309
307.325
307.343
307.358
306.656
306.65
306.646
306.643
306.642
306.642
306.643
306.645
306.648
306.651
306.655
306.659
306.664
306.67
306.682
306.674
306.67
306.667
306.666
306.666
306.666
306.668
306.671
306.674
306.678
306.682
306.686
306.694
306.706
306.699
306.695
306.692
306.691
306.691
306.691
306.693
306.695
306.698
306.702
306.706
306.71
306.718
306.732
306.725
306.721
306.719
306.717
306.717
306.718
306.719
306.722
306.725
306.728
306.732
306.737
306.744
306.758
306.752
306.748
306.746
306.745
306.745
306.745
306.747
306.749
306.753
306.756
306.761
306.765
306.771
306.784
306.779
306.776
306.774
306.773
306.773
306.774
306.776
306.779
306.782
306.786
306.791
306.795
306.801
306.811
306.807
306.805
306.803
306.803
306.803
306.805
306.807
306.81
306.813
306.818
306.822
306.827
306.832
306.838
306.836
306.834
306.834
306.834
306.834
306.836
306.839
306.842
306.846
306.851
306.855
306.861
306.865
306.866
306.866
306.864
306.864
306.865
306.866
306.869
306.872
306.876
306.88
306.885
306.89
306.896
306.9
306.894
306.895
306.895
306.895
306.897
306.899
306.902
306.906
306.91
306.915
306.921
306.926
306.933
306.936
306.922
306.925
306.925
306.927
306.93
306.933
306.936
306.94
306.946
306.951
306.957
306.963
306.97
306.972
306.952
306.955
306.956
306.959
306.962
306.966
306.971
306.976
306.982
306.988
306.995
307.001
307.009
307.011
306.981
306.985
306.988
306.992
306.996
307.001
307.006
307.012
307.018
307.025
307.032
307.039
307.047
307.049
307.014
307.017
307.02
307.024
307.03
307.035
307.041
307.048
307.055
307.062
307.07
307.077
307.086
307.091
306.624
306.613
306.605
306.597
306.591
306.586
306.582
306.578
306.576
306.574
306.572
306.571
306.57
306.571
306.64
306.629
306.621
306.613
306.607
306.601
306.596
306.592
306.589
306.586
306.584
306.583
306.581
306.582
306.656
306.645
306.637
306.629
306.622
306.616
306.612
306.607
306.604
306.601
306.598
306.596
306.594
306.595
306.672
306.662
306.654
306.646
306.639
306.633
306.628
306.624
306.62
306.617
306.614
306.611
306.609
306.609
306.689
306.679
306.671
306.664
306.657
306.651
306.646
306.641
306.637
306.634
306.631
306.628
306.626
306.625
306.707
306.697
306.69
306.682
306.675
306.669
306.664
306.66
306.656
306.652
306.649
306.647
306.644
306.642
306.725
306.716
306.709
306.702
306.695
306.689
306.684
306.679
306.675
306.672
306.669
306.666
306.664
306.661
306.743
306.736
306.729
306.722
306.716
306.71
306.705
306.7
306.696
306.693
306.69
306.687
306.684
306.682
306.762
306.756
306.749
306.743
306.737
306.732
306.727
306.723
306.719
306.715
306.712
306.709
306.707
306.704
306.782
306.777
306.771
306.765
306.76
306.755
306.75
306.746
306.742
306.738
306.735
306.732
306.73
306.727
306.802
306.798
306.793
306.788
306.783
306.778
306.774
306.77
306.766
306.763
306.76
306.756
306.755
306.752
306.824
306.821
306.816
306.811
306.807
306.803
306.799
306.795
306.792
306.789
306.786
306.783
306.782
306.778
306.846
306.844
306.839
306.836
306.832
306.828
306.825
306.821
306.818
306.815
306.812
306.81
306.809
306.805
306.871
306.867
306.863
306.86
306.857
306.854
306.851
306.848
306.846
306.843
306.84
306.838
306.838
306.835
306.602
306.59
306.58
306.57
306.561
306.553
306.545
306.538
306.532
306.526
306.521
306.515
306.511
306.506
306.61
306.598
306.588
306.578
306.569
306.561
306.553
306.545
306.538
306.532
306.526
306.52
306.515
306.51
306.618
306.606
306.596
306.586
306.577
306.568
306.56
306.552
306.545
306.538
306.532
306.526
306.52
306.514
306.626
306.615
306.605
306.595
306.585
306.577
306.568
306.56
306.553
306.545
306.538
306.532
306.525
306.519
306.635
306.624
306.614
306.604
306.594
306.585
306.577
306.569
306.561
306.553
306.546
306.538
306.531
306.525
306.644
306.633
306.623
306.613
306.604
306.595
306.586
306.577
306.569
306.561
306.553
306.546
306.538
306.531
306.654
306.643
306.633
306.623
306.614
306.605
306.596
306.587
306.579
306.57
306.562
306.554
306.546
306.539
306.664
306.654
306.644
306.634
306.624
306.615
306.606
306.597
306.588
306.58
306.571
306.563
306.555
306.547
306.674
306.665
306.655
306.645
306.635
306.626
306.617
306.608
306.599
306.59
306.582
306.573
306.565
306.556
306.684
306.676
306.666
306.657
306.647
306.638
306.628
306.619
306.61
306.601
306.592
306.583
306.575
306.566
306.695
306.687
306.678
306.669
306.659
306.65
306.64
306.631
306.622
306.613
306.604
306.595
306.586
306.576
306.706
306.699
306.69
306.681
306.672
306.663
306.653
306.644
306.634
306.625
306.616
306.606
306.597
306.587
306.719
306.711
306.703
306.694
306.685
306.676
306.666
306.657
306.647
306.638
306.628
306.618
306.609
306.599
306.732
306.724
306.715
306.707
306.698
306.689
306.68
306.671
306.661
306.652
306.642
306.632
306.623
306.613
306.573
306.561
306.551
306.54
306.53
306.52
306.511
306.501
306.492
306.483
306.475
306.466
306.574
306.563
306.553
306.542
306.532
306.522
306.512
306.502
306.492
306.483
306.474
306.465
306.575
306.564
306.553
306.543
306.533
306.523
306.513
306.502
306.493
306.483
306.474
306.464
306.576
306.565
306.555
306.544
306.534
306.523
306.513
306.503
306.493
306.483
306.473
306.463
306.576
306.566
306.556
306.545
306.535
306.524
306.514
306.503
306.493
306.482
306.472
306.462
306.578
306.567
306.557
306.546
306.536
306.525
306.514
306.504
306.493
306.482
306.472
306.461
306.579
306.569
306.558
306.547
306.536
306.526
306.515
306.504
306.493
306.482
306.471
306.46
306.58
306.57
306.559
306.548
306.537
306.526
306.515
306.504
306.493
306.482
306.47
306.459
306.581
306.571
306.56
306.549
306.538
306.527
306.516
306.504
306.493
306.481
306.469
306.458
306.582
306.572
306.561
306.55
306.539
306.528
306.516
306.505
306.493
306.481
306.469
306.457
306.583
306.573
306.563
306.551
306.54
306.528
306.517
306.505
306.493
306.48
306.468
306.455
306.584
306.574
306.563
306.552
306.541
306.529
306.517
306.505
306.493
306.48
306.467
306.454
306.586
306.576
306.565
306.553
306.542
306.53
306.518
306.505
306.492
306.48
306.466
306.453
306.587
306.576
306.566
306.554
306.543
306.53
306.518
306.506
306.493
306.48
306.467
306.454
309.241
309.263
309.288
309.31
309.331
309.349
309.241
309.276
309.308
309.337
309.364
309.389
309.246
309.289
309.328
309.362
309.393
309.421
309.247
309.297
309.341
309.381
309.415
309.445
309.231
309.248
309.266
309.282
309.296
309.309
309.237
309.264
309.289
309.311
309.33
309.347
309.245
309.28
309.31
309.337
309.36
309.38
309.25
309.291
309.327
309.358
309.384
309.407
309.254
309.299
309.339
309.374
309.403
309.428
309.255
309.303
309.346
309.384
309.415
309.441
309.255
309.305
309.35
309.389
309.422
309.448
309.177
309.189
309.204
309.216
309.229
309.241
309.188
309.207
309.226
309.243
309.26
309.276
309.2
309.225
309.248
309.269
309.288
309.307
309.209
309.239
309.266
309.29
309.312
309.333