/*--------------------------------*- C++ -*----------------------------------*\
| =========                 |                                                 |
| \\      /  F ield         | OpenFOAM: The Open Source CFD Toolbox           |
|  \\    /   O peration     | Version:  v2106                                 |
|   \\  /    A nd           | Website:  www.openfoam.com                      |
|    \\/     M anipulation  |                                                 |
\*---------------------------------------------------------------------------*/
FoamFile
{
    version     2.0;
    format      ascii;
    arch        "LSB;label=32;scalar=64";
    class       surfaceScalarField;
    location    "0.000166";
    object      phi;
}
// * * * * * * * * * * * * * * * * * * * * * * * * * * * * * * * * * * * * * //

dimensions      [1 0 -1 0 0 0 0];

internalField   nonuniform List<scalar> 
52765
(
-1.70128e-06
6.97741e-07
-3.86824e-06
-1.06385e-06
1.88607e-06
-1.61089e-06
7.30285e-07
-3.83954e-06
-1.53651e-06
8.12243e-07
-3.81758e-06
-1.49599e-06
8.60649e-07
-3.78148e-06
-1.47564e-06
8.74778e-07
-3.74985e-06
-1.4798e-06
8.23199e-07
-3.72691e-06
7.47012e-07
-3.70603e-06
-1.67069e-06
3.89111e-07
-3.90841e-06
1.77191e-06
-1.61762e-06
4.7485e-07
-3.87913e-06
-1.5833e-06
5.71568e-07
-3.84936e-06
-1.57039e-06
6.36241e-07
-3.8139e-06
-1.57146e-06
6.48416e-07
-3.78106e-06
-1.59934e-06
6.08686e-07
-3.75651e-06
5.52756e-07
-3.73035e-06
-1.55318e-06
1.2751e-07
-3.93177e-06
1.58921e-06
-1.54776e-06
2.46557e-07
-3.90825e-06
-1.56122e-06
3.55891e-07
-3.874e-06
-1.583e-06
4.23472e-07
-3.8482e-06
-1.61644e-06
4.34066e-07
-3.81365e-06
-1.6736e-06
4.07566e-07
-3.78938e-06
3.62024e-07
-3.75949e-06
-1.45157e-06
-1.01841e-07
-3.9525e-06
1.44348e-06
-1.48606e-06
4.48045e-08
-3.93147e-06
-1.53118e-06
1.57718e-07
-3.89735e-06
-1.5778e-06
2.17927e-07
-3.87432e-06
-1.63497e-06
2.30316e-07
-3.84032e-06
-1.70853e-06
2.12106e-07
-3.81566e-06
1.80794e-07
-3.78576e-06
-1.34975e-06
-2.96294e-07
-3.9699e-06
-1.41812e-06
-1.34141e-07
-3.95219e-06
-1.48693e-06
-2.65414e-08
-3.92046e-06
-1.5546e-06
2.44213e-08
-3.89598e-06
-1.62995e-06
3.72464e-08
-3.86462e-06
-1.7175e-06
2.37926e-08
-3.83854e-06
7.20969e-09
-3.80919e-06
-1.26662e-06
-4.50974e-07
-3.99203e-06
-1.35243e-06
-2.97801e-07
-3.97111e-06
-1.43609e-06
-1.98472e-07
-3.94211e-06
-1.52217e-06
-1.53449e-07
-3.91442e-06
-1.6152e-06
-1.41101e-07
-3.88435e-06
-1.71805e-06
-1.5159e-07
-3.85606e-06
-1.56908e-07
-3.82797e-06
-1.17236e-06
-5.75244e-07
-4.00669e-06
-1.2785e-06
-4.39237e-07
-3.9846e-06
-1.38012e-06
-3.49723e-07
-3.95817e-06
-1.48589e-06
-3.08709e-07
-3.92826e-06
-1.59764e-06
-2.9736e-07
-3.9016e-06
-1.71652e-06
-3.07547e-07
-3.87284e-06
-3.08339e-07
-3.84623e-06
-1.06505e-06
-4.01821e-06
-1.20002e-06
-3.99552e-06
-1.32592e-06
-3.96879e-06
-1.45233e-06
-3.93774e-06
-1.58138e-06
-3.91258e-06
-1.7143e-06
-3.8832e-06
-3.85672e-06
-1.4153e-06
5.56452e-07
-8.98761e-07
1.57544e-06
-3.62386e-06
-1.33852e-06
5.87326e-07
-8.5672e-07
-3.59146e-06
-1.28789e-06
6.65027e-07
-9.19473e-07
-3.56432e-06
-1.27626e-06
7.21547e-07
-9.45881e-07
-3.52629e-06
-1.2852e-06
7.38138e-07
-9.56672e-07
-3.48684e-06
-1.3219e-06
6.97862e-07
-9.02462e-07
-3.45645e-06
-1.3957e-06
6.44431e-07
-8.28549e-07
-3.42441e-06
-1.50029e-06
5.7824e-07
-7.41999e-07
-3.40228e-06
-1.62754e-06
4.90609e-07
-6.4386e-07
-3.3723e-06
-1.77447e-06
3.97645e-07
-5.3849e-07
-3.34972e-06
-1.94572e-06
2.79816e-07
-3.97136e-07
-3.3268e-06
-2.15814e-06
1.74285e-07
-2.47853e-07
-3.30366e-06
-2.40351e-06
5.49477e-08
-8.81125e-08
-3.27991e-06
4.27245e-09
9.00376e-10
-2.67407e-06
-3.25228e-06
-1.37844e-06
2.72382e-07
1.4558e-06
-3.64682e-06
-1.34187e-06
3.40912e-07
-3.62033e-06
-1.32962e-06
4.30931e-07
-3.5857e-06
-1.33975e-06
5.01926e-07
-3.54807e-06
-1.36954e-06
5.19929e-07
-3.50551e-06
-1.42728e-06
4.95033e-07
-3.47425e-06
-1.50869e-06
4.52948e-07
-3.44076e-06
-1.61424e-06
4.02154e-07
-3.41726e-06
-1.74218e-06
3.28541e-07
-3.38447e-06
-1.89292e-06
2.54204e-07
-3.35906e-06
-2.06304e-06
1.57699e-07
-3.33307e-06
-2.25727e-06
8.23823e-08
-3.30902e-06
-2.48624e-06
1.20839e-08
-3.28061e-06
-4.80999e-09
-2.73372e-06
-3.25141e-06
-1.2792e-06
2.47979e-08
1.29831e-06
-3.65725e-06
-1.28513e-06
1.18237e-07
-3.63732e-06
-1.31419e-06
2.19578e-07
-3.59964e-06
-1.35632e-06
2.92421e-07
-3.56925e-06
-1.4134e-06
3.12898e-07
-3.52806e-06
-1.49203e-06
2.98471e-07
-3.49784e-06
-1.59084e-06
2.68057e-07
-3.46351e-06
-1.71219e-06
2.31214e-07
-3.43846e-06
-1.85493e-06
1.74469e-07
-3.40369e-06
-2.01689e-06
1.17643e-07
-3.37162e-06
-2.19332e-06
4.03746e-08
-3.33807e-06
-2.38457e-06
-1.30911e-08
-3.30437e-06
-2.59801e-06
-4.65227e-08
-3.26769e-06
-3.26849e-08
-2.82778e-06
-3.23958e-06
-1.19012e-06
-2.01244e-07
1.16974e-06
-3.67007e-06
-1.2349e-06
-8.43765e-08
-3.65093e-06
-1.29241e-06
2.15939e-08
-3.6151e-06
-1.35677e-06
8.96108e-08
-3.58636e-06
-1.43312e-06
1.1282e-07
-3.54732e-06
-1.52657e-06
1.06699e-07
-3.51721e-06
-1.64066e-06
9.12869e-08
-3.48374e-06
-1.77389e-06
6.61332e-08
-3.45585e-06
-1.92598e-06
2.5978e-08
-3.42051e-06
-2.09429e-06
-1.46933e-08
-3.38415e-06
-2.27776e-06
-7.13562e-08
-3.34852e-06
-2.47252e-06
-1.05478e-07
-3.31197e-06
-2.67959e-06
-1.12112e-07
-3.27251e-06
-7.48283e-08
-2.89354e-06
-3.24139e-06
-1.11852e-06
-4.01693e-07
1.06341e-06
-3.68331e-06
-1.18973e-06
-2.72023e-07
-3.66582e-06
-1.26416e-06
-1.6848e-07
-3.63287e-06
-1.34413e-06
-1.05439e-07
-3.60254e-06
-1.43587e-06
-7.90702e-08
-3.56612e-06
-1.54266e-06
-7.79627e-08
-3.53474e-06
-1.66901e-06
-7.85724e-08
-3.50184e-06
-1.81377e-06
-9.07609e-08
-3.47064e-06
-1.97578e-06
-1.13819e-07
-3.43545e-06
-2.1528e-06
-1.38403e-07
-3.39746e-06
-2.34343e-06
-1.75811e-07
-3.36254e-06
-2.54048e-06
-1.94259e-07
-3.32587e-06
-2.74207e-06
-1.81104e-07
-3.28446e-06
-1.27851e-07
-2.93978e-06
-3.24946e-06
-1.04747e-06
-5.77063e-07
9.63921e-07
-3.70518e-06
-1.13574e-06
-4.47455e-07
-3.68138e-06
-1.22483e-06
-3.48594e-07
-3.64947e-06
-1.32213e-06
-2.86763e-07
-3.61596e-06
-1.43064e-06
-2.5723e-07
-3.58114e-06
-1.55198e-06
-2.49887e-07
-3.54819e-06
-1.68988e-06
-2.38361e-07
-3.51611e-06
-1.84309e-06
-2.38682e-07
-3.48248e-06
-2.01048e-06
-2.47707e-07
-3.44889e-06
-2.1883e-06
-2.59948e-07
-3.41133e-06
-2.37486e-06
-2.83358e-07
-3.37674e-06
-2.56507e-06
-2.89058e-07
-3.33927e-06
-2.75849e-06
-2.58701e-07
-3.29638e-06
-1.89427e-07
-2.94844e-06
-3.25676e-06
-9.66885e-07
-7.27495e-07
8.62847e-07
-3.72039e-06
-1.07375e-06
-6.01106e-07
-3.69264e-06
-1.18075e-06
-5.08742e-07
-3.66155e-06
-1.29554e-06
-4.47117e-07
-3.62666e-06
-1.42112e-06
-4.14845e-07
-3.59508e-06
-1.55721e-06
-4.03418e-07
-3.56209e-06
-1.7059e-06
-3.8448e-07
-3.53125e-06
-1.86553e-06
-3.77402e-07
-3.49635e-06
-2.03383e-06
-3.78568e-07
-3.46341e-06
-2.20645e-06
-3.84161e-07
-3.42563e-06
-2.38386e-06
-3.97755e-07
-3.38978e-06
-2.56583e-06
-3.90465e-07
-3.35044e-06
-2.75208e-06
-3.43074e-07
-3.30785e-06
-2.59439e-07
-2.93351e-06
-3.2657e-06
-8.71123e-07
-8.37462e-07
7.39414e-07
-3.7318e-06
-1.00563e-06
-7.15661e-07
-3.70124e-06
-1.13569e-06
-6.34905e-07
-3.6688e-06
-1.26964e-06
-5.76956e-07
-3.63392e-06
-1.41102e-06
-5.46508e-07
-3.60404e-06
-1.55969e-06
-5.3562e-07
-3.57101e-06
-1.71605e-06
-5.16575e-07
-3.5404e-06
-1.87815e-06
-5.08597e-07
-3.50535e-06
-2.0432e-06
-5.0914e-07
-3.47387e-06
-2.20752e-06
-5.13983e-07
-3.43763e-06
-2.37367e-06
-5.20846e-07
-3.40127e-06
-2.54558e-06
-4.9912e-07
-3.36016e-06
-2.72313e-06
-4.32872e-07
-3.31994e-06
-3.372e-07
-2.89761e-06
-3.27862e-06
-7.96067e-07
-9.00628e-07
6.36505e-07
-3.74494e-06
-9.51205e-07
-7.95203e-07
-3.71482e-06
-1.09939e-06
-7.31267e-07
-3.67918e-06
-1.2486e-06
-6.8106e-07
-3.64676e-06
-1.40344e-06
-6.55375e-07
-3.61705e-06
-1.56239e-06
-6.49706e-07
-3.58558e-06
-1.72386e-06
-6.3698e-07
-3.55482e-06
-1.88527e-06
-6.35035e-07
-3.52018e-06
-2.04404e-06
-6.41394e-07
-3.48809e-06
-2.19753e-06
-6.51333e-07
-3.4524e-06
-2.35056e-06
-6.53857e-07
-3.41337e-06
-2.51099e-06
-6.17164e-07
-3.37176e-06
-2.68112e-06
-5.2978e-07
-3.33694e-06
-4.26202e-07
-2.84632e-06
-3.2993e-06
-7.56524e-07
-9.13586e-07
5.63143e-07
-3.7593e-06
-9.3513e-07
-8.37827e-07
-3.72832e-06
-1.09831e-06
-8.03824e-07
-3.6877e-06
-1.25674e-06
-7.68136e-07
-3.65165e-06
-1.41789e-06
-7.50271e-07
-3.61928e-06
-1.58102e-06
-7.52416e-07
-3.59086e-06
-1.7416e-06
-7.5102e-07
-3.56171e-06
-1.89633e-06
-7.61617e-07
-3.52942e-06
-2.04346e-06
-7.79995e-07
-3.49762e-06
-2.18245e-06
-7.9914e-07
-3.46312e-06
-2.3218e-06
-7.97928e-07
-3.42304e-06
-2.46803e-06
-7.48371e-07
-3.38621e-06
-2.62402e-06
-6.43731e-07
-3.35794e-06
-5.32873e-07
-2.77624e-06
-3.32781e-06
-7.55814e-07
-8.85687e-07
5.27321e-07
-3.77945e-06
-9.60562e-07
-8.42293e-07
-3.75085e-06
-1.14247e-06
-8.47903e-07
-3.7077e-06
-1.31002e-06
-8.37151e-07
-3.66862e-06
-1.47199e-06
-8.35623e-07
-3.63329e-06
-1.63219e-06
-8.48823e-07
-3.60702e-06
-1.78504e-06
-8.63766e-07
-3.57651e-06
-1.92627e-06
-8.94078e-07
-3.54374e-06
-2.05694e-06
-9.28483e-07
-3.50881e-06
-2.17892e-06
-9.5859e-07
-3.47359e-06
-2.30181e-06
-9.55592e-07
-3.43442e-06
-2.42824e-06
-8.99957e-07
-3.40706e-06
-2.55639e-06
-7.87968e-07
-3.38647e-06
-6.80407e-07
-2.67041e-06
-3.36876e-06
-7.83053e-07
-7.7911e-07
4.83903e-07
-3.79681e-06
-1.03342e-06
-7.93381e-07
-3.77475e-06
-1.23959e-06
-8.6235e-07
-3.72627e-06
-1.41031e-06
-8.98181e-07
-3.67771e-06
-1.56297e-06
-9.23555e-07
-3.63391e-06
-1.70995e-06
-9.49828e-07
-3.60828e-06
-1.84807e-06
-9.81177e-07
-3.57861e-06
-1.97292e-06
-1.03344e-06
-3.5501e-06
-2.08579e-06
-1.08618e-06
-3.51625e-06
-2.18971e-06
-1.13049e-06
-3.4823e-06
-2.29241e-06
-1.13118e-06
-3.4472e-06
-2.38679e-06
-1.08224e-06
-3.42994e-06
-2.47174e-06
-9.78545e-07
-3.41444e-06
-8.89964e-07
-2.53071e-06
-3.39897e-06
-8.57449e-07
-6.36666e-07
5.27254e-07
-3.816e-06
-1.13092e-06
-7.18992e-07
-3.79484e-06
-1.35456e-06
-8.56742e-07
-3.74688e-06
-1.5398e-06
-9.42797e-07
-3.69609e-06
-1.69644e-06
-1.00444e-06
-3.64792e-06
-1.83501e-06
-1.05262e-06
-3.6147e-06
-1.95648e-06
-1.10556e-06
-3.5818e-06
-2.05813e-06
-1.18415e-06
-3.55148e-06
-2.14246e-06
-1.26064e-06
-3.51683e-06
-2.21457e-06
-1.3252e-06
-3.48643e-06
-2.27757e-06
-1.34113e-06
-3.45953e-06
-2.32512e-06
-1.30891e-06
-3.44965e-06
-2.34584e-06
-1.23529e-06
-3.44348e-06
-1.16691e-06
-2.351e-06
-3.42991e-06
-8.86566e-07
-3.99711e-07
4.57743e-07
-3.83607e-06
-1.20995e-06
-5.99525e-07
-3.82707e-06
-1.46797e-06
-8.16978e-07
-3.76189e-06
-1.69329e-06
-9.4548e-07
-3.71435e-06
-1.86824e-06
-1.06634e-06
-3.66319e-06
-1.99823e-06
-1.16137e-06
-3.61757e-06
-2.09391e-06
-1.24586e-06
-3.5794e-06
-2.16526e-06
-1.35043e-06
-3.55179e-06
-2.21719e-06
-1.45141e-06
-3.51962e-06
-2.25747e-06
-1.53744e-06
-3.49022e-06
-2.2844e-06
-1.57793e-06
-3.46217e-06
-2.29162e-06
-1.57321e-06
-3.44579e-06
-2.27008e-06
-1.53508e-06
-3.44104e-06
-2.17749e-06
-1.54325e-06
-3.43688e-06
-9.25735e-07
-2.45839e-06
1.4601e-06
-7.53199e-07
-2.83556e-06
1.56735e-06
-6.01935e-07
-3.21502e-06
1.71666e-06
-4.04795e-07
-3.56402e-06
1.92186e-06
-1.65163e-07
-3.95461e-06
2.23909e-06
-4.24233e-06
2.7658e-06
-7.95413e-07
-1.42469e-06
1.21572e-06
-2.3086e-06
-6.57361e-07
-1.55419e-06
1.30541e-06
-2.66995e-06
-5.3436e-07
-1.66825e-06
1.43112e-06
-3.03417e-06
-3.66096e-07
-1.88454e-06
1.60784e-06
-3.37515e-06
-1.49417e-07
-2.19707e-06
1.87285e-06
-3.75422e-06
-2.73799e-06
2.31094e-06
1.82975e-07
-4.04547e-06
-9.05647e-07
-1.51599e-06
-2.88051e-06
-9.70893e-07
-1.62737e-06
-3.2283e-06
-1.06281e-06
-1.704e-06
-3.58095e-06
-1.13186e-06
-1.92474e-06
-3.93265e-06
-1.20134e-06
-2.23477e-06
-4.28441e-06
-2.84904e-06
-1.18524e-06
-4.57974e-06
-1.0809e-06
-1.52609e-06
-3.35602e-06
-1.28591e-06
-1.58286e-06
-3.68851e-06
-1.52799e-06
-1.60481e-06
-4.04475e-06
-1.78837e-06
-1.78375e-06
-4.38484e-06
-2.10152e-06
-2.02104e-06
-4.71387e-06
-2.64902e-06
-2.37715e-06
-5.01095e-06
-1.15637e-06
-1.5149e-06
-3.72667e-06
-1.43608e-06
-1.48666e-06
-4.06099e-06
-1.77003e-06
-1.43736e-06
-4.4219e-06
-2.17889e-06
-1.51853e-06
-4.74536e-06
-2.67655e-06
-1.62277e-06
-5.0673e-06
-2.24328e-06
-3.18092e-06
-5.37911e-06
-1.21232e-06
-1.48545e-06
-3.98973e-06
-1.53757e-06
-1.37054e-06
-4.3222e-06
-1.92375e-06
-1.24645e-06
-4.69948e-06
-2.41727e-06
-1.19401e-06
-5.02279e-06
-2.9855e-06
-1.18077e-06
-5.3524e-06
-1.81322e-06
-3.55659e-06
-5.67171e-06
-1.19059e-06
-1.45749e-06
-4.15309e-06
-1.54814e-06
-1.26665e-06
-4.49285e-06
-1.97351e-06
-1.06723e-06
-4.87236e-06
-2.49822e-06
-9.00664e-07
-5.18898e-06
-2.9896e-06
-8.72023e-07
-5.53468e-06
-1.4533e-06
-3.48485e-06
-5.8498e-06
-1.12144e-06
-1.45783e-06
-4.21573e-06
-1.47588e-06
-1.20661e-06
-4.56976e-06
-1.89073e-06
-9.51828e-07
-4.94919e-06
-2.37025e-06
-7.24698e-07
-5.28939e-06
-2.817e-06
-6.79038e-07
-5.64694e-06
-1.19965e-06
-3.27788e-06
-5.88535e-06
-1.0257e-06
-1.48871e-06
-4.18585e-06
-1.35677e-06
-1.19882e-06
-4.55578e-06
-1.72917e-06
-9.18833e-07
-4.9249e-06
-2.12151e-06
-6.94291e-07
-5.29122e-06
-2.48634e-06
-6.40448e-07
-5.63569e-06
-1.09539e-06
-2.89322e-06
-5.81596e-06
-9.28195e-07
-1.53071e-06
-4.05839e-06
-1.22779e-06
-1.24662e-06
-4.43818e-06
-1.54888e-06
-9.72589e-07
-4.80326e-06
-1.83018e-06
-8.06638e-07
-5.18492e-06
-2.07786e-06
-7.75417e-07
-5.52121e-06
-1.14978e-06
-2.39677e-06
-5.71096e-06
-8.21275e-07
-1.57179e-06
-3.84674e-06
-1.08894e-06
-1.32804e-06
-4.22249e-06
-1.32345e-06
-1.11015e-06
-4.59547e-06
-1.50936e-06
-1.01307e-06
-4.97228e-06
-1.68869e-06
-1.01393e-06
-5.31709e-06
-1.3468e-06
-1.89554e-06
-5.54245e-06
-6.59665e-07
-1.61423e-06
-3.54157e-06
-8.83921e-07
-1.4365e-06
-3.907e-06
-1.05577e-06
-1.29458e-06
-4.27856e-06
-1.21154e-06
-1.24762e-06
-4.64235e-06
-1.33894e-06
-1.29956e-06
-4.99934e-06
-1.6221e-06
-1.46296e-06
-5.27135e-06
-4.88268e-07
-1.64151e-06
-3.1422e-06
-6.95816e-07
-1.52651e-06
-3.49803e-06
-8.54418e-07
-1.45741e-06
-3.85586e-06
-9.72232e-07
-1.47427e-06
-4.21013e-06
-1.07237e-06
-1.56783e-06
-4.5652e-06
-1.88565e-06
-1.18842e-06
-4.85054e-06
-3.68874e-07
-1.57925e-06
-2.64951e-06
-6.0499e-07
-1.53334e-06
-3.00073e-06
-7.82818e-07
-1.54436e-06
-3.3423e-06
-9.22203e-07
-1.61871e-06
-3.66941e-06
-1.04779e-06
-1.75115e-06
-4.01124e-06
-2.06492e-06
-1.19086e-06
-4.28938e-06
-3.79279e-07
-1.3615e-06
-2.08285e-06
-7.01227e-07
-1.39355e-06
-2.41559e-06
-9.69465e-07
-1.47759e-06
-2.74286e-06
-1.23015e-06
-1.57146e-06
-3.05433e-06
-1.47096e-06
-1.74453e-06
-3.39088e-06
-2.05732e-06
-1.73366e-06
-3.64892e-06
-2.82675e-06
-1.36425e-06
-2.07651e-06
-2.91032e-06
-1.48296e-06
-2.39327e-06
-2.97041e-06
-1.60447e-06
-2.71495e-06
-2.94591e-06
-1.78136e-06
-3.00801e-06
-2.81523e-06
-2.0743e-06
-3.31345e-06
-2.52754e-06
-2.54634e-06
-3.52614e-06
-3.03726e-06
-1.25355e-06
-2.5842e-06
-3.31406e-06
-1.40889e-06
-2.8928e-06
-3.56183e-06
-1.55324e-06
-3.19243e-06
-3.7301e-06
-1.79449e-06
-3.47427e-06
-3.79597e-06
-2.19134e-06
-3.74844e-06
-2.82438e-06
-3.67013e-06
-3.94813e-06
-3.21985e-06
-1.08294e-06
-3.02844e-06
-3.62238e-06
-1.22172e-06
-3.31877e-06
-4.02307e-06
-1.34988e-06
-3.6076e-06
-4.38218e-06
-1.60316e-06
-3.86581e-06
-4.65639e-06
-2.06695e-06
-4.12751e-06
-2.86069e-06
-4.73736e-06
-4.27483e-06
-3.34539e-06
-8.71499e-07
-3.38719e-06
-3.8454e-06
-9.46744e-07
-3.67386e-06
-4.37932e-06
-1.01109e-06
-3.95023e-06
-4.91799e-06
-1.22084e-06
-4.19037e-06
-5.42314e-06
-1.68087e-06
-4.429e-06
-2.52797e-06
-5.8243e-06
-4.5574e-06
-3.43637e-06
-6.30388e-07
-3.66342e-06
-4.01194e-06
-6.11391e-07
-3.94928e-06
-4.63926e-06
-5.89967e-07
-4.2263e-06
-5.30904e-06
-7.1464e-07
-4.47213e-06
-6.02831e-06
-1.07093e-06
-4.68662e-06
-1.93045e-06
-6.67503e-06
-4.82705e-06
-3.47175e-06
-3.77203e-07
-3.86083e-06
-4.08451e-06
-2.55115e-07
-4.15016e-06
-4.75984e-06
-1.39586e-07
-4.4326e-06
-5.53433e-06
-1.26854e-07
-4.67748e-06
-6.38279e-06
-3.63858e-07
-4.86805e-06
-1.27267e-06
-7.06253e-06
-5.02861e-06
-3.46393e-06
-1.2955e-07
-3.97207e-06
-4.07376e-06
8.28067e-08
-4.27351e-06
-4.7577e-06
2.87708e-07
-4.55379e-06
-5.51876e-06
3.97353e-07
-4.82248e-06
-6.29484e-06
2.35838e-07
-5.03822e-06
-6.72576e-07
-6.92598e-06
-5.1694e-06
-3.40774e-06
9.51063e-08
-4.00302e-06
-3.95957e-06
3.5727e-07
-4.31339e-06
-4.55399e-06
5.99483e-07
-4.61178e-06
-5.17596e-06
7.48101e-07
-4.92608e-06
-5.81246e-06
6.38136e-07
-5.14982e-06
-2.3746e-07
-6.33717e-06
-5.24956e-06
-3.30669e-06
2.73385e-07
-3.94891e-06
-3.78135e-06
5.44232e-07
-4.26527e-06
-4.23837e-06
7.60495e-07
-4.59694e-06
-4.64252e-06
8.61373e-07
-4.94683e-06
-5.08492e-06
7.77774e-07
-5.20369e-06
-5.74989e-08
-5.43206e-06
-5.3156e-06
-3.15951e-06
3.79351e-07
-3.79602e-06
-3.50205e-06
5.97175e-07
-4.12667e-06
-3.79221e-06
7.48639e-07
-4.48329e-06
-4.05261e-06
7.97074e-07
-4.83985e-06
-4.24179e-06
6.43507e-07
-5.16005e-06
-1.62602e-07
-4.38227e-06
-5.31199e-06
-2.96239e-06
4.03445e-07
-3.54771e-06
-3.17846e-06
5.25857e-07
-3.89355e-06
-3.33169e-06
5.91226e-07
-4.26021e-06
-3.42433e-06
5.53386e-07
-4.63398e-06
-3.4181e-06
3.0855e-07
-4.98742e-06
-4.70849e-07
-3.41662e-06
-5.20298e-06
-2.72641e-06
3.50362e-07
-3.20066e-06
-2.86093e-06
3.85578e-07
-3.55023e-06
-2.93165e-06
3.51696e-07
-3.91832e-06
-2.91224e-06
2.01264e-07
-4.27591e-06
-2.8029e-06
-1.42252e-07
-4.64255e-06
-9.03907e-07
-2.71425e-06
-4.91346e-06
-2.5092e-06
2.87794e-07
-2.76095e-06
-2.61642e-06
2.42382e-07
-3.11443e-06
-2.65581e-06
9.61861e-08
-3.47792e-06
-2.63854e-06
-1.38555e-07
-3.82212e-06
-2.58023e-06
-5.48437e-07
-4.19032e-06
-1.27708e-06
-2.55816e-06
-4.50607e-06
-2.37786e-06
3.1118e-07
-2.19869e-06
-2.53542e-06
1.91336e-07
-2.55096e-06
-2.66764e-06
-1.59397e-08
-2.90993e-06
-2.77886e-06
-2.9555e-07
-3.24236e-06
-2.89459e-06
-7.25025e-07
-3.61783e-06
-1.40205e-06
-3.05031e-06
-3.95436e-06
-2.1309e-06
7.19466e-07
-2.20453e-06
-2.66442e-06
5.17139e-07
-2.54986e-06
-3.16672e-06
2.50776e-07
-2.90601e-06
-3.55038e-06
-1.62588e-07
-3.23226e-06
-3.76669e-06
-7.77987e-07
-3.60426e-06
-1.70867e-06
-3.70157e-06
-3.93039e-06
-2.19179e-06
1.15986e-06
-2.77042e-06
-2.8716e-06
9.58408e-07
-3.11878e-06
-3.52915e-06
6.49541e-07
-3.46039e-06
-4.1201e-06
1.65324e-07
-3.79381e-06
-4.58027e-06
-5.85885e-07
-4.14089e-06
-1.78247e-06
-4.71026e-06
-4.48102e-06
-2.2607e-06
1.59733e-06
-3.25978e-06
-3.00509e-06
1.44302e-06
-3.62306e-06
-3.74971e-06
1.11987e-06
-3.96399e-06
-4.49252e-06
6.4442e-07
-4.30876e-06
-5.15825e-06
-1.61483e-07
-4.66279e-06
-1.53601e-06
-5.54254e-06
-4.98278e-06
-2.23682e-06
1.99799e-06
-3.67078e-06
-2.97305e-06
1.92444e-06
-4.04802e-06
-3.76837e-06
1.64705e-06
-4.3956e-06
-4.66381e-06
1.30635e-06
-4.76045e-06
-5.50581e-06
4.76937e-07
-5.1239e-06
-1.13002e-06
-5.98508e-06
-5.3839e-06
-2.14493e-06
2.33669e-06
-3.99932e-06
-2.84821e-06
2.35834e-06
-4.39826e-06
-3.67736e-06
2.2022e-06
-4.77742e-06
-4.59961e-06
2.01984e-06
-5.15988e-06
-5.44479e-06
1.15403e-06
-5.49923e-06
-6.71273e-07
-5.90864e-06
-5.63469e-06
-1.97119e-06
2.58532e-06
-4.23893e-06
-2.61324e-06
2.7186e-06
-4.65719e-06
-3.40946e-06
2.71711e-06
-5.07194e-06
-4.18185e-06
2.57985e-06
-5.46005e-06
-4.9127e-06
1.73454e-06
-5.7853e-06
-2.48774e-07
-5.33749e-06
-5.73674e-06
-1.76142e-06
2.7217e-06
-4.39278e-06
-2.27587e-06
2.93794e-06
-4.82876e-06
-2.87367e-06
3.02778e-06
-5.27614e-06
-3.42631e-06
2.89007e-06
-5.66872e-06
-3.92501e-06
2.08388e-06
-5.99024e-06
4.50483e-08
-4.21121e-06
-5.82642e-06
-1.5281e-06
2.72019e-06
-4.44619e-06
-1.84594e-06
2.94956e-06
-4.89954e-06
-2.13099e-06
3.01897e-06
-5.37228e-06
-2.41588e-06
2.88919e-06
-5.77291e-06
-2.62247e-06
2.10776e-06
-6.12459e-06
1.3695e-07
-2.74966e-06
-5.96786e-06
-1.27911e-06
2.55153e-06
-4.40596e-06
-1.35134e-06
2.72226e-06
-4.87136e-06
-1.37432e-06
2.73596e-06
-5.34093e-06
-1.3337e-06
2.53433e-06
-5.77353e-06
-1.27274e-06
1.77334e-06
-6.1467e-06
-4.23485e-08
-1.24183e-06
-6.09717e-06
-1.00409e-06
2.21916e-06
-4.25416e-06
-8.69438e-07
2.29445e-06
-4.7132e-06
-6.72912e-07
2.22538e-06
-5.1882e-06
-3.9561e-07
1.91926e-06
-5.62819e-06
-1.39702e-07
1.15376e-06
-6.01284e-06
-4.80118e-07
1.8637e-08
-6.11128e-06
-7.39651e-07
1.77038e-06
-3.98489e-06
-4.39346e-07
1.72859e-06
-4.43004e-06
-9.28684e-08
1.5789e-06
-4.89499e-06
2.93971e-07
1.19412e-06
-5.33773e-06
6.61937e-07
4.34581e-07
-5.74674e-06
-9.96711e-07
8.47573e-07
-5.96628e-06
-5.27576e-07
1.27854e-06
-3.58548e-06
-1.53658e-07
1.13127e-06
-4.00103e-06
2.72908e-07
8.83261e-07
-4.46174e-06
7.03014e-07
4.72384e-07
-4.91328e-06
1.02548e-06
-2.09295e-07
-5.34636e-06
-1.40357e-06
1.12031e-06
-5.69614e-06
-2.8201e-07
7.9296e-07
-3.09654e-06
5.60615e-08
6.02886e-07
-3.5008e-06
3.88739e-07
3.24623e-07
-3.96251e-06
7.24843e-07
-9.93295e-08
-4.38268e-06
9.65292e-07
-7.01462e-07
-4.85094e-06
-1.64204e-06
9.58954e-07
-5.27732e-06
-1.82366e-07
4.54495e-07
-2.4525e-06
2.09383e-08
2.6121e-07
-2.85835e-06
1.75546e-07
7.384e-09
-3.29822e-06
2.71509e-07
-3.67627e-07
-3.70228e-06
2.81031e-07
-8.90289e-07
-4.18459e-06
-1.65774e-06
1.17187e-07
-4.61939e-06
1.68006e-06
-6.00291e-07
-4.24683e-06
1.97026e-06
-5.59159e-07
-4.74241e-06
2.31541e-06
-6.56641e-07
-5.2272e-06
2.68424e-06
-9.69132e-07
-5.68878e-06
3.00769e-06
-1.59774e-06
-6.14197e-06
-2.84166e-06
-6.37219e-06
1.83251e-06
-1.0511e-06
-3.74825e-06
2.13772e-06
-1.08425e-06
-4.21744e-06
2.45188e-06
-1.22306e-06
-4.67604e-06
2.74075e-06
-1.52449e-06
-5.11547e-06
2.91455e-06
-2.05065e-06
-5.55659e-06
-3.00292e-06
-5.85502e-06
1.93499e-06
-1.37436e-06
-3.14861e-06
2.12678e-06
-1.44797e-06
-3.57802e-06
2.309e-06
-1.58813e-06
-4.01276e-06
2.44955e-06
-1.85152e-06
-4.40929e-06
2.46715e-06
-2.26242e-06
-4.83169e-06
-2.95599e-06
-5.15876e-06
1.86079e-06
-2.4672e-06
1.85698e-06
-2.8786e-06
1.85665e-06
-3.25594e-06
1.79896e-06
-3.63714e-06
1.62208e-06
-4.04364e-06
-4.37657e-06
1.58565e-07
6.34819e-07
-2.46225e-06
-1.4191e-07
4.26145e-07
-2.86532e-06
-4.57855e-07
1.72008e-07
-3.29861e-06
-7.02812e-07
-2.68257e-07
-3.71068e-06
-8.52173e-07
-8.94829e-07
-4.19408e-06
-1.83148e-06
-8.42931e-07
-4.60722e-06
1.71837e-07
8.46061e-07
-3.08218e-06
-2.09931e-07
6.53848e-07
-3.4996e-06
-6.54959e-07
4.53444e-07
-3.92803e-06
-1.10311e-06
2.21084e-08
-4.36988e-06
-1.56183e-06
-6.10836e-07
-4.86664e-06
-1.65866e-06
-1.90691e-06
-5.30765e-06
8.82932e-08
1.06607e-06
-3.61134e-06
-3.77491e-07
9.39239e-07
-4.0528e-06
-9.03635e-07
8.01609e-07
-4.49266e-06
-1.45982e-06
3.88295e-07
-4.96134e-06
-2.10523e-06
-1.6573e-07
-5.47626e-06
-1.37083e-06
-2.58164e-06
-5.91838e-06
1.63088e-07
1.22917e-06
-4.04146e-06
-3.20963e-07
1.21814e-06
-4.49672e-06
-8.59217e-07
1.13082e-06
-4.94667e-06
-1.50785e-06
8.02474e-07
-5.4326e-06
-2.20541e-06
3.03863e-07
-5.95966e-06
-1.03973e-06
-2.62137e-06
-6.42092e-06
2.67089e-07
1.29762e-06
-4.35228e-06
-1.43166e-07
1.39979e-06
-4.83107e-06
-6.46974e-07
1.36828e-06
-5.29785e-06
-1.29417e-06
1.18726e-06
-5.8335e-06
-1.87945e-06
6.60124e-07
-6.33169e-06
-7.99528e-07
-2.20603e-06
-6.61533e-06
4.27412e-07
1.25233e-06
-4.56582e-06
1.27117e-07
1.4314e-06
-5.04038e-06
-3.12131e-07
1.48301e-06
-5.53277e-06
-8.52791e-07
1.44054e-06
-6.09136e-06
-1.34107e-06
9.05846e-07
-6.51552e-06
-6.63241e-07
-1.58535e-06
-6.62253e-06
6.18249e-07
1.08701e-06
-4.66611e-06
4.16816e-07
1.31647e-06
-5.14287e-06
9.81499e-08
1.44736e-06
-5.67196e-06
-1.98943e-07
1.4356e-06
-6.19949e-06
-5.31064e-07
9.5068e-07
-6.57971e-06
-6.28925e-07
-7.13885e-07
-6.61787e-06
8.24952e-07
8.14142e-07
-4.65017e-06
7.36065e-07
1.05138e-06
-5.14058e-06
6.19984e-07
1.18779e-06
-5.6649e-06
5.43051e-07
1.14392e-06
-6.15093e-06
4.58179e-07
7.02976e-07
-6.54398e-06
-7.64195e-07
4.03802e-07
-6.61851e-06
1.00671e-06
4.57613e-07
-4.52563e-06
1.05886e-06
6.54971e-07
-5.01892e-06
1.1596e-06
7.26134e-07
-5.52089e-06
1.26937e-06
6.57456e-07
-6.00659e-06
1.38843e-06
2.22193e-07
-6.41868e-06
-1.06283e-06
1.43712e-06
-6.55195e-06
1.20146e-06
2.67487e-08
-4.29297e-06
1.38784e-06
1.54922e-07
-4.77761e-06
1.60098e-06
1.79875e-07
-5.27029e-06
1.85735e-06
5.19478e-08
-5.73037e-06
2.09334e-06
-3.76078e-07
-6.15602e-06
-1.48413e-06
2.24584e-06
-6.36496e-06
1.36556e-06
-4.2142e-07
-3.95046e-06
1.61303e-06
-3.71039e-07
-4.41422e-06
1.91066e-06
-4.06166e-07
-4.88524e-06
2.24639e-06
-5.91784e-07
-5.32381e-06
2.55662e-06
-1.00451e-06
-5.75295e-06
-1.9105e-06
2.73507e-06
-6.04431e-06
1.49659e-06
-8.26063e-07
-3.49364e-06
1.75005e-06
-8.45288e-07
-3.93977e-06
2.03925e-06
-9.33499e-07
-4.37581e-06
2.33392e-06
-1.14666e-06
-4.78375e-06
2.59636e-06
-1.52787e-06
-5.21311e-06
-2.23645e-06
2.68854e-06
-5.53712e-06
1.59978e-06
-1.12871e-06
-2.94379e-06
1.76755e-06
-1.18293e-06
-3.35393e-06
1.94087e-06
-1.29159e-06
-3.76609e-06
2.10275e-06
-1.49413e-06
-4.14894e-06
2.19621e-06
-1.81628e-06
-4.54419e-06
-2.37045e-06
2.16472e-06
-4.88683e-06
1.55376e-06
-2.31455e-06
1.55255e-06
-2.7021e-06
1.56604e-06
-3.06766e-06
1.55916e-06
-3.44169e-06
1.48482e-06
-3.82405e-06
1.31394e-06
-4.1673e-06
1.71052e-07
-1.23228e-05
1.22077e-05
-1.28277e-05
7.05902e-07
-2.21098e-05
2.18643e-05
-1.31897e-05
2.87948e-06
-3.50605e-05
3.41827e-05
-8.59317e-06
7.62141e-06
-5.19706e-05
4.82926e-05
5.14664e-06
-7.58604e-05
6.95089e-05
2.08133e-05
-1.6335e-06
-1.2019e-05
-1.2505e-05
-1.12838e-06
-2.18311e-05
-1.18728e-05
1.59925e-06
-3.56593e-05
-4.3717e-06
6.02955e-06
-5.52828e-05
1.0266e-05
-7.93581e-05
2.50902e-05
-3.06705e-06
-1.12749e-05
-1.20108e-05
-2.35607e-06
-2.11952e-05
-9.8316e-06
1.15041e-06
-3.66361e-05
-4.98156e-07
6.06236e-06
-5.83209e-05
1.28737e-05
-8.15297e-05
2.69206e-05
-4.07808e-06
-1.01037e-05
-1.13103e-05
-3.00076e-06
-2.04959e-05
-7.61717e-06
1.08942e-06
-3.77484e-05
2.25419e-06
6.82925e-06
-6.12377e-05
1.48813e-05
-8.53906e-05
2.57114e-05
-4.36622e-06
-8.93188e-06
-1.04472e-05
-2.97524e-06
-1.98463e-05
-5.87034e-06
9.90729e-07
-3.83127e-05
3.68381e-06
5.86295e-06
-6.29014e-05
1.61864e-05
-8.78097e-05
2.64568e-05
-4.16575e-06
-7.87724e-06
-9.78383e-06
-2.73064e-06
-1.92694e-05
-4.90322e-06
4.4936e-07
-3.8107e-05
3.91194e-06
3.14928e-06
-6.21801e-05
1.68956e-05
-8.62153e-05
2.96078e-05
-3.69456e-06
-7.12454e-06
-9.35913e-06
-2.41201e-06
-1.88565e-05
-4.88414e-06
-1.41664e-07
-3.73778e-05
3.28772e-06
8.18518e-07
-6.02178e-05
1.69477e-05
-8.22932e-05
3.2732e-05
-3.02332e-06
-6.81465e-06
-9.27093e-06
-1.80578e-06
-1.87713e-05
-5.42645e-06
2.73834e-07
-3.70337e-05
1.50558e-06
1.8553e-06
-5.87866e-05
1.3929e-05
1.31464e-07
-7.9171e-05
3.05853e-05
-9.72923e-05
3.85249e-05
-2.2906e-06
-6.94396e-06
-9.4817e-06
-1.38747e-06
-1.87694e-05
-6.36276e-06
-4.11627e-08
-3.63714e-05
-5.26287e-07
9.67175e-07
-5.68738e-05
1.16182e-05
-1.59651e-06
-7.53256e-05
3.02336e-05
-9.34378e-05
4.16914e-05
-1.80719e-06
-7.32311e-06
-1.00223e-05
-1.67738e-06
-1.84285e-05
-7.9706e-06
-1.69675e-06
-3.44923e-05
-3.20992e-06
-2.10379e-06
-5.30304e-05
8.82514e-06
-5.68512e-06
-7.00434e-05
2.96889e-05
-8.73302e-05
4.60684e-05
-1.42294e-06
-7.90127e-06
-1.06368e-05
-1.80736e-06
-1.78985e-05
-9.65325e-06
-2.65399e-06
-3.20462e-05
-5.70418e-06
-4.15142e-06
-4.87267e-05
6.24043e-06
-8.58893e-06
-6.47729e-05
2.8449e-05
-1.78727e-05
-8.11323e-05
4.97562e-05
-9.19114e-05
5.94325e-05
-1.17206e-06
-8.58254e-06
-1.12081e-05
-1.57253e-06
-1.7544e-05
-1.11051e-05
-2.42864e-06
-2.99344e-05
-8.24265e-06
-3.88383e-06
-4.48175e-05
2.05614e-06
-7.45571e-06
-5.98277e-05
2.24393e-05
-1.54592e-05
-7.54387e-05
4.56172e-05
-2.84674e-05
-8.45283e-05
6.31901e-05
-2.13479e-05
7.36692e-05
-2.18218e-05
-2.06275e-05
-2.05052e-05
-9.83258e-07
-9.39908e-06
-1.15016e-05
-1.0088e-06
-1.77074e-05
-1.19391e-05
-1.17e-06
-2.89554e-05
-9.94384e-06
-1.63572e-06
-4.2244e-05
-4.80547e-07
-3.03875e-06
-5.70414e-05
1.87253e-05
-4.59692e-06
-7.50802e-05
3.85244e-05
-5.06273e-06
-2.16813e-05
5.92575e-05
5.82199e-07
-3.94553e-06
3.98262e-07
-2.1236e-05
-2.1244e-05
-2.11051e-05
-1.01198e-05
-1.86709e-05
1.96424e-05
-1.21562e-06
-1.04263e-05
-1.1495e-05
-6.41638e-07
-1.85352e-05
-1.22342e-05
3.84049e-07
-2.95294e-05
-1.06705e-05
2.50008e-06
-4.27834e-05
-1.98662e-06
5.73718e-06
-6.00293e-05
1.50401e-05
1.73518e-06
-8.22991e-05
2.97766e-05
4.0114e-06
2.28146e-06
4.03592e-06
3.46524e-06
-2.3776e-05
1.06642e-05
1.31194e-05
-2.91543e-05
1.66331e-05
2.13856e-05
-6.19276e-06
-2.01759e-06
-1.13586e-05
-1.12186e-05
-9.97988e-07
-1.97215e-05
-1.19839e-05
1.07026e-06
-3.10606e-05
-9.71702e-06
4.5045e-06
-4.48058e-05
2.7426e-07
8.44079e-06
-6.43221e-05
1.62599e-05
2.47552e-06
-8.75996e-05
3.10287e-05
2.70362e-06
2.85827e-06
3.25554e-06
2.54065e-05
2.66671e-06
1.0413e-05
-2.63439e-05
2.40815e-05
1.12287e-05
-2.36026e-05
-2.22079e-06
-3.36175e-06
-1.19232e-05
-1.07799e-05
-2.29637e-06
-2.06426e-05
-1.08905e-05
1.69509e-07
-3.2383e-05
-6.68796e-06
3.79793e-06
-4.71145e-05
5.20404e-06
6.39302e-06
-6.75116e-05
1.90375e-05
6.40901e-07
-8.82099e-05
3.21132e-05
9.59771e-07
1.23134e-06
1.63806e-06
2.66821e-05
-2.07579e-07
-2.64887e-05
1.05203e-05
2.29457e-05
-2.61062e-05
1.20319e-05
1.01075e-06
-4.76065e-06
-1.19146e-05
-1.01938e-05
-3.53978e-06
-2.11035e-05
-9.14863e-06
-4.12215e-07
-3.3882e-05
-2.97145e-06
3.93149e-06
-5.07595e-05
8.63456e-06
7.0847e-06
-7.09221e-05
1.98673e-05
-2.11075e-07
-8.93036e-05
3.20393e-05
2.55303e-06
6.70273e-07
3.10331e-06
2.59052e-05
-1.72983e-06
-2.50143e-05
1.09753e-05
2.96144e-05
-1.44523e-05
-2.40077e-05
1.7885e-05
5.11421e-06
-6.40151e-06
-1.09919e-05
-9.47087e-06
-5.22239e-06
-2.0978e-05
-6.86149e-06
-1.68955e-06
-3.55045e-05
1.22535e-06
3.91749e-06
-5.51592e-05
1.21165e-05
9.90318e-06
-7.66533e-05
2.28757e-05
2.76503e-06
-9.57542e-05
2.98556e-05
4.99841e-06
2.84889e-06
4.45553e-06
2.51994e-05
3.58361e-06
-2.62379e-05
8.01417e-06
2.41997e-05
2.95438e-06
-2.42057e-05
8.43757e-06
-3.48935e-06
-7.56853e-06
-9.48106e-06
-8.53276e-06
-6.41256e-06
-2.04481e-05
-4.5597e-06
-2.92533e-06
-3.68629e-05
4.48086e-06
2.16703e-06
-5.85312e-05
1.55367e-05
6.81915e-06
-8.0768e-05
2.55058e-05
2.60833e-06
-0.00010061
3.11446e-05
2.88952e-06
2.1495e-06
2.70898e-06
2.75092e-05
3.55363e-06
-2.88651e-05
7.61705e-06
3.15396e-05
-2.80959e-05
7.82403e-06
-4.42544e-06
-7.90033e-06
-7.88592e-06
-7.79828e-06
-6.81224e-06
-1.98203e-05
-2.93075e-06
-3.77696e-06
-3.75379e-05
5.85871e-06
-7.79406e-07
-5.9149e-05
1.74874e-05
8.39124e-08
-8.06931e-05
3.02211e-05
-6.74592e-07
-9.9415e-05
3.7934e-05
-7.86847e-07
-5.12438e-07
-1.46526e-07
2.90947e-05
-1.12257e-06
-2.90166e-05
9.14053e-06
2.54343e-05
-2.85527e-05