/*--------------------------------*- C++ -*----------------------------------*\
| =========                 |                                                 |
| \\      /  F ield         | OpenFOAM: The Open Source CFD Toolbox           |
|  \\    /   O peration     | Version:  v2106                                 |
|   \\  /    A nd           | Website:  www.openfoam.com                      |
|    \\/     M anipulation  |                                                 |
\*---------------------------------------------------------------------------*/
FoamFile
{
    version     2.0;
    format      ascii;
    arch        "LSB;label=32;scalar=64";
    class       volScalarField;
    location    "0.0002";
    object      epsilon;
}
// * * * * * * * * * * * * * * * * * * * * * * * * * * * * * * * * * * * * * //

dimensions      [0 2 -3 0 0 0 0];

internalField   nonuniform List<scalar> 
17920
(
1.20051e-08
1.20038e-08
1.20037e-08
1.20025e-08
1.20023e-08
1.20011e-08
1.20007e-08
1.19996e-08
1.19992e-08
1.19981e-08
1.19975e-08
1.19964e-08
1.19959e-08
1.19948e-08
1.19941e-08
1.1993e-08
1.19923e-08
1.19913e-08
1.19904e-08
1.19895e-08
1.19885e-08
1.19877e-08
1.19866e-08
1.19858e-08
1.19846e-08
1.19839e-08
1.19828e-08
1.19821e-08
1.19965e-08
1.19962e-08
1.19958e-08
1.19954e-08
1.1995e-08
1.19945e-08
1.19939e-08
1.19933e-08
1.19926e-08
1.19919e-08
1.19912e-08
1.19904e-08
1.19897e-08
1.19888e-08
1.19948e-08
1.19946e-08
1.19943e-08
1.19939e-08
1.19934e-08
1.19929e-08
1.19923e-08
1.19917e-08
1.1991e-08
1.19903e-08
1.19896e-08
1.19888e-08
1.19881e-08
1.19872e-08
1.19932e-08
1.1993e-08
1.19926e-08
1.19922e-08
1.19918e-08
1.19913e-08
1.19907e-08
1.19901e-08
1.19894e-08
1.19888e-08
1.19881e-08
1.19873e-08
1.19866e-08
1.19858e-08
1.19915e-08
1.19913e-08
1.1991e-08
1.19906e-08
1.19901e-08
1.19896e-08
1.1989e-08
1.19884e-08
1.19878e-08
1.19871e-08
1.19864e-08
1.19857e-08
1.1985e-08
1.19842e-08
1.19899e-08
1.19897e-08
1.19893e-08
1.19889e-08
1.19884e-08
1.19879e-08
1.19873e-08
1.19867e-08
1.19861e-08
1.19854e-08
1.19848e-08
1.19841e-08
1.19834e-08
1.19826e-08
1.19882e-08
1.19879e-08
1.19875e-08
1.19871e-08
1.19866e-08
1.19861e-08
1.19855e-08
1.1985e-08
1.19843e-08
1.19837e-08
1.19831e-08
1.19824e-08
1.19817e-08
1.1981e-08
1.19865e-08
1.19862e-08
1.19858e-08
1.19853e-08
1.19848e-08
1.19843e-08
1.19837e-08
1.19832e-08
1.19826e-08
1.1982e-08
1.19813e-08
1.19807e-08
1.198e-08
1.19794e-08
1.19848e-08
1.19844e-08
1.1984e-08
1.19835e-08
1.1983e-08
1.19825e-08
1.19819e-08
1.19814e-08
1.19808e-08
1.19802e-08
1.19796e-08
1.19789e-08
1.19783e-08
1.19777e-08
1.1983e-08
1.19826e-08
1.19821e-08
1.19817e-08
1.19812e-08
1.19807e-08
1.19801e-08
1.19796e-08
1.1979e-08
1.19784e-08
1.19778e-08
1.19772e-08
1.19766e-08
1.1976e-08
1.19812e-08
1.19807e-08
1.19803e-08
1.19798e-08
1.19793e-08
1.19788e-08
1.19783e-08
1.19777e-08
1.19771e-08
1.19766e-08
1.1976e-08
1.19754e-08
1.19748e-08
1.19743e-08
1.19795e-08
1.19789e-08
1.19785e-08
1.1978e-08
1.19775e-08
1.1977e-08
1.19764e-08
1.19759e-08
1.19753e-08
1.19747e-08
1.19742e-08
1.19736e-08
1.1973e-08
1.19727e-08
1.19776e-08
1.1977e-08
1.19766e-08
1.19761e-08
1.19756e-08
1.19751e-08
1.19746e-08
1.1974e-08
1.19735e-08
1.19729e-08
1.19724e-08
1.19719e-08
1.19713e-08
1.19709e-08
1.19759e-08
1.19753e-08
1.19749e-08
1.19744e-08
1.19738e-08
1.19733e-08
1.19728e-08
1.19722e-08
1.19716e-08
1.19711e-08
1.19705e-08
1.19701e-08
1.19695e-08
1.19693e-08
1.1974e-08
1.19734e-08
1.19729e-08
1.19725e-08
1.1972e-08
1.19715e-08
1.19709e-08
1.19704e-08
1.19698e-08
1.19693e-08
1.19688e-08
1.19683e-08
1.19678e-08
1.19675e-08
1.19695e-08
1.19695e-08
1.19695e-08
1.19695e-08
1.19694e-08
1.19694e-08
1.19693e-08
1.19692e-08
1.1969e-08
1.19688e-08
1.19686e-08
1.19684e-08
1.19681e-08
1.19678e-08
1.19682e-08
1.19683e-08
1.19683e-08
1.19682e-08
1.19682e-08
1.19681e-08
1.1968e-08
1.19679e-08
1.19677e-08
1.19676e-08
1.19673e-08
1.1967e-08
1.19668e-08
1.19664e-08
1.1967e-08
1.19671e-08
1.1967e-08
1.1967e-08
1.19669e-08
1.19669e-08
1.19667e-08
1.19666e-08
1.19665e-08
1.19663e-08
1.19661e-08
1.19658e-08
1.19656e-08
1.19652e-08
1.19657e-08
1.19658e-08
1.19657e-08
1.19657e-08
1.19656e-08
1.19655e-08
1.19654e-08
1.19653e-08
1.19652e-08
1.1965e-08
1.19648e-08
1.19645e-08
1.19643e-08
1.1964e-08
1.19644e-08
1.19645e-08
1.19644e-08
1.19644e-08
1.19643e-08
1.19642e-08
1.19641e-08
1.1964e-08
1.19638e-08
1.19637e-08
1.19635e-08
1.19633e-08
1.1963e-08
1.19627e-08
1.19631e-08
1.19631e-08
1.19631e-08
1.1963e-08
1.1963e-08
1.19629e-08
1.19628e-08
1.19626e-08
1.19625e-08
1.19623e-08
1.19622e-08
1.1962e-08
1.19618e-08
1.19615e-08
1.19618e-08
1.19618e-08
1.19617e-08
1.19617e-08
1.19616e-08
1.19615e-08
1.19614e-08
1.19613e-08
1.19611e-08
1.1961e-08
1.19608e-08
1.19607e-08
1.19605e-08
1.19603e-08
1.19605e-08
1.19604e-08
1.19604e-08
1.19603e-08
1.19602e-08
1.19601e-08
1.196e-08
1.19599e-08
1.19598e-08
1.19597e-08
1.19595e-08
1.19594e-08
1.19592e-08
1.1959e-08
1.19591e-08
1.1959e-08
1.1959e-08
1.19589e-08
1.19589e-08
1.19588e-08
1.19587e-08
1.19586e-08
1.19584e-08
1.19583e-08
1.19582e-08
1.1958e-08
1.19579e-08
1.19578e-08
1.19578e-08
1.19576e-08
1.19576e-08
1.19575e-08
1.19575e-08
1.19574e-08
1.19573e-08
1.19572e-08
1.19571e-08
1.1957e-08
1.19568e-08
1.19567e-08
1.19565e-08
1.19565e-08
1.19564e-08
1.19562e-08
1.19562e-08
1.19561e-08
1.19561e-08
1.1956e-08
1.19559e-08
1.19558e-08
1.19557e-08
1.19556e-08
1.19555e-08
1.19554e-08
1.19552e-08
1.19553e-08
1.19551e-08
1.19549e-08
1.19548e-08
1.19548e-08
1.19547e-08
1.19546e-08
1.19546e-08
1.19545e-08
1.19544e-08
1.19543e-08
1.19542e-08
1.19541e-08
1.19539e-08
1.19541e-08
1.19538e-08
1.19535e-08
1.19535e-08
1.19534e-08
1.19534e-08
1.19533e-08
1.19532e-08
1.19531e-08
1.1953e-08
1.19529e-08
1.19529e-08
1.19528e-08
1.19527e-08
1.19529e-08
1.19524e-08
1.19522e-08
1.19521e-08
1.19521e-08
1.1952e-08
1.19519e-08
1.19519e-08
1.19518e-08
1.19517e-08
1.19516e-08
1.19516e-08
1.19515e-08
1.19514e-08
1.19515e-08
1.19387e-08
1.19389e-08
1.19392e-08
1.19395e-08
1.19398e-08
1.19401e-08
1.19404e-08
1.19407e-08
1.1941e-08
1.19412e-08
1.19415e-08
1.19417e-08
1.19419e-08
1.1942e-08
1.1938e-08
1.19383e-08
1.19386e-08
1.19389e-08
1.19392e-08
1.19395e-08
1.19398e-08
1.19401e-08
1.19403e-08
1.19406e-08
1.19408e-08
1.1941e-08
1.19411e-08
1.19412e-08
1.19374e-08
1.19377e-08
1.1938e-08
1.19383e-08
1.19386e-08
1.19389e-08
1.19391e-08
1.19394e-08
1.19397e-08
1.19399e-08
1.19401e-08
1.19403e-08
1.19405e-08
1.19405e-08
1.19367e-08
1.19371e-08
1.19373e-08
1.19376e-08
1.19379e-08
1.19382e-08
1.19385e-08
1.19387e-08
1.1939e-08
1.19392e-08
1.19394e-08
1.19396e-08
1.19398e-08
1.19399e-08
1.19361e-08
1.19364e-08
1.19367e-08
1.1937e-08
1.19372e-08
1.19375e-08
1.19378e-08
1.19381e-08
1.19383e-08
1.19385e-08
1.19388e-08
1.1939e-08
1.19391e-08
1.19392e-08
1.19354e-08
1.19357e-08
1.1936e-08
1.19363e-08
1.19366e-08
1.19368e-08
1.19371e-08
1.19374e-08
1.19376e-08
1.19379e-08
1.19381e-08
1.19383e-08
1.19385e-08
1.19386e-08
1.19347e-08
1.1935e-08
1.19353e-08
1.19356e-08
1.19359e-08
1.19361e-08
1.19364e-08
1.19367e-08
1.19369e-08
1.19372e-08
1.19374e-08
1.19376e-08
1.19378e-08
1.19379e-08
1.1934e-08
1.19343e-08
1.19346e-08
1.19349e-08
1.19352e-08
1.19354e-08
1.19357e-08
1.1936e-08
1.19362e-08
1.19365e-08
1.19367e-08
1.19369e-08
1.19371e-08
1.19373e-08
1.19333e-08
1.19335e-08
1.19339e-08
1.19341e-08
1.19344e-08
1.19347e-08
1.1935e-08
1.19353e-08
1.19355e-08
1.19358e-08
1.1936e-08
1.19362e-08
1.19364e-08
1.19367e-08
1.19326e-08
1.19328e-08
1.19331e-08
1.19334e-08
1.19337e-08
1.1934e-08
1.19343e-08
1.19346e-08
1.19348e-08
1.19351e-08
1.19353e-08
1.19356e-08
1.19358e-08
1.1936e-08
1.19318e-08
1.19321e-08
1.19324e-08
1.19327e-08
1.1933e-08
1.19333e-08
1.19336e-08
1.19338e-08
1.19341e-08
1.19344e-08
1.19346e-08
1.19349e-08
1.19351e-08
1.19354e-08
1.19311e-08
1.19313e-08
1.19317e-08
1.1932e-08
1.19323e-08
1.19326e-08
1.19328e-08
1.19331e-08
1.19334e-08
1.19337e-08
1.1934e-08
1.19342e-08
1.19345e-08
1.19348e-08
1.19304e-08
1.19307e-08
1.1931e-08
1.19313e-08
1.19316e-08
1.19318e-08
1.19321e-08
1.19324e-08
1.19327e-08
1.1933e-08
1.19333e-08
1.19335e-08
1.19338e-08
1.19342e-08
1.19298e-08
1.19299e-08
1.19303e-08
1.19306e-08
1.19308e-08
1.19311e-08
1.19314e-08
1.19317e-08
1.1932e-08
1.19323e-08
1.19326e-08
1.19328e-08
1.19331e-08
1.19334e-08
1.1907e-08
1.19074e-08
1.19079e-08
1.19083e-08
1.19088e-08
1.19093e-08
1.19098e-08
1.19102e-08
1.19107e-08
1.19112e-08
1.19117e-08
1.19122e-08
1.19126e-08
1.1913e-08
1.19069e-08
1.19074e-08
1.19078e-08
1.19083e-08
1.19088e-08
1.19092e-08
1.19097e-08
1.19102e-08
1.19107e-08
1.19112e-08
1.19116e-08
1.19121e-08
1.19125e-08
1.19129e-08
1.19069e-08
1.19073e-08
1.19078e-08
1.19083e-08
1.19087e-08
1.19092e-08
1.19097e-08
1.19102e-08
1.19107e-08
1.19111e-08
1.19116e-08
1.1912e-08
1.19125e-08
1.19128e-08
1.19068e-08
1.19073e-08
1.19077e-08
1.19082e-08
1.19087e-08
1.19092e-08
1.19097e-08
1.19102e-08
1.19106e-08
1.19111e-08
1.19115e-08
1.1912e-08
1.19124e-08
1.19127e-08
1.19068e-08
1.19072e-08
1.19077e-08
1.19082e-08
1.19087e-08
1.19092e-08
1.19096e-08
1.19101e-08
1.19106e-08
1.1911e-08
1.19115e-08
1.19119e-08
1.19123e-08
1.19127e-08
1.19067e-08
1.19072e-08
1.19077e-08
1.19081e-08
1.19086e-08
1.19091e-08
1.19096e-08
1.19101e-08
1.19105e-08
1.1911e-08
1.19114e-08
1.19119e-08
1.19123e-08
1.19126e-08
1.19066e-08
1.19071e-08
1.19076e-08
1.19081e-08
1.19086e-08
1.19091e-08
1.19095e-08
1.191e-08
1.19105e-08
1.19109e-08
1.19114e-08
1.19118e-08
1.19122e-08
1.19126e-08
1.19066e-08
1.1907e-08
1.19075e-08
1.1908e-08
1.19085e-08
1.1909e-08
1.19095e-08
1.191e-08
1.19104e-08
1.19109e-08
1.19113e-08
1.19117e-08
1.19121e-08
1.19125e-08
1.19065e-08
1.19069e-08
1.19074e-08
1.19079e-08
1.19084e-08
1.19089e-08
1.19094e-08
1.19099e-08
1.19103e-08
1.19108e-08
1.19112e-08
1.19117e-08
1.1912e-08
1.19124e-08
1.19064e-08
1.19068e-08
1.19073e-08
1.19078e-08
1.19083e-08
1.19088e-08
1.19093e-08
1.19098e-08
1.19103e-08
1.19107e-08
1.19111e-08
1.19116e-08
1.1912e-08
1.19124e-08
1.19063e-08
1.19067e-08
1.19072e-08
1.19077e-08
1.19082e-08
1.19087e-08
1.19092e-08
1.19097e-08
1.19101e-08
1.19106e-08
1.19111e-08
1.19115e-08
1.19119e-08
1.19123e-08
1.19061e-08
1.19066e-08
1.19071e-08
1.19076e-08
1.19081e-08
1.19086e-08
1.19091e-08
1.19096e-08
1.191e-08
1.19105e-08
1.1911e-08
1.19114e-08
1.19118e-08
1.19123e-08
1.1906e-08
1.19065e-08
1.1907e-08
1.19075e-08
1.1908e-08
1.19085e-08
1.1909e-08
1.19094e-08
1.19099e-08
1.19104e-08
1.19109e-08
1.19113e-08
1.19118e-08
1.19122e-08
1.19059e-08
1.19064e-08
1.19069e-08
1.19074e-08
1.19078e-08
1.19083e-08
1.19088e-08
1.19093e-08
1.19098e-08
1.19103e-08
1.19107e-08
1.19112e-08
1.19117e-08
1.19121e-08
1.18763e-08
1.18767e-08
1.18771e-08
1.18775e-08
1.1878e-08
1.18784e-08
1.18789e-08
1.18794e-08
1.18799e-08
1.18804e-08
1.18809e-08
1.18814e-08
1.18819e-08
1.18824e-08
1.18766e-08
1.18769e-08
1.18774e-08
1.18778e-08
1.18783e-08
1.18788e-08
1.18793e-08
1.18798e-08
1.18803e-08
1.18808e-08
1.18813e-08
1.18818e-08
1.18822e-08
1.18827e-08
1.18769e-08
1.18773e-08
1.18778e-08
1.18782e-08
1.18787e-08
1.18792e-08
1.18797e-08
1.18802e-08
1.18806e-08
1.18811e-08
1.18816e-08
1.18821e-08
1.18826e-08
1.18831e-08
1.18772e-08
1.18776e-08
1.18781e-08
1.18786e-08
1.18791e-08
1.18796e-08
1.18801e-08
1.18805e-08
1.1881e-08
1.18815e-08
1.1882e-08
1.18825e-08
1.1883e-08
1.18834e-08
1.18776e-08
1.1878e-08
1.18785e-08
1.1879e-08
1.18794e-08
1.18799e-08
1.18804e-08
1.18809e-08
1.18814e-08
1.18819e-08
1.18824e-08
1.18828e-08
1.18833e-08
1.18838e-08
1.18779e-08
1.18784e-08
1.18788e-08
1.18793e-08
1.18798e-08
1.18803e-08
1.18808e-08
1.18813e-08
1.18818e-08
1.18823e-08
1.18827e-08
1.18832e-08
1.18837e-08
1.18841e-08
1.18782e-08
1.18787e-08
1.18792e-08
1.18797e-08
1.18802e-08
1.18807e-08
1.18812e-08
1.18817e-08
1.18821e-08
1.18826e-08
1.18831e-08
1.18836e-08
1.1884e-08
1.18844e-08
1.18786e-08
1.18791e-08
1.18795e-08
1.188e-08
1.18805e-08
1.1881e-08
1.18815e-08
1.1882e-08
1.18825e-08
1.1883e-08
1.18835e-08
1.18839e-08
1.18844e-08
1.18848e-08
1.18789e-08
1.18794e-08
1.18799e-08
1.18804e-08
1.18809e-08
1.18814e-08
1.18819e-08
1.18824e-08
1.18829e-08
1.18833e-08
1.18838e-08
1.18843e-08
1.18847e-08
1.18851e-08
1.18792e-08
1.18797e-08
1.18802e-08
1.18807e-08
1.18812e-08
1.18817e-08
1.18822e-08
1.18827e-08
1.18832e-08
1.18837e-08
1.18841e-08
1.18846e-08
1.1885e-08
1.18854e-08
1.18795e-08
1.188e-08
1.18805e-08
1.1881e-08
1.18815e-08
1.1882e-08
1.18825e-08
1.1883e-08
1.18835e-08
1.1884e-08
1.18845e-08
1.18849e-08
1.18854e-08
1.18858e-08
1.18798e-08
1.18803e-08
1.18808e-08
1.18813e-08
1.18818e-08
1.18823e-08
1.18828e-08
1.18834e-08
1.18838e-08
1.18843e-08
1.18848e-08
1.18852e-08
1.18857e-08
1.18861e-08
1.18802e-08
1.18807e-08
1.18811e-08
1.18816e-08
1.18821e-08
1.18827e-08
1.18832e-08
1.18837e-08
1.18842e-08
1.18846e-08
1.18851e-08
1.18856e-08
1.1886e-08
1.18865e-08
1.18805e-08
1.1881e-08
1.18814e-08
1.18819e-08
1.18824e-08
1.1883e-08
1.18835e-08
1.1884e-08
1.18844e-08
1.18849e-08
1.18854e-08
1.18859e-08
1.18863e-08
1.18868e-08
1.18473e-08
1.18475e-08
1.18478e-08
1.18481e-08
1.18484e-08
1.18487e-08
1.18491e-08
1.18494e-08
1.18498e-08
1.18501e-08
1.18505e-08
1.18509e-08
1.18513e-08
1.18518e-08
1.18477e-08
1.18479e-08
1.18482e-08
1.18485e-08
1.18489e-08
1.18492e-08
1.18496e-08
1.18499e-08
1.18503e-08
1.18507e-08
1.1851e-08
1.18514e-08
1.18518e-08
1.18523e-08
1.18481e-08
1.18484e-08
1.18487e-08
1.1849e-08
1.18494e-08
1.18497e-08
1.185e-08
1.18504e-08
1.18508e-08
1.18511e-08
1.18515e-08
1.18519e-08
1.18523e-08
1.18528e-08
1.18486e-08
1.18488e-08
1.18492e-08
1.18495e-08
1.18498e-08
1.18502e-08
1.18505e-08
1.18509e-08
1.18513e-08
1.18516e-08
1.1852e-08
1.18524e-08
1.18528e-08
1.18533e-08
1.1849e-08
1.18493e-08
1.18497e-08
1.185e-08
1.18503e-08
1.18507e-08
1.1851e-08
1.18514e-08
1.18518e-08
1.18521e-08
1.18525e-08
1.18529e-08
1.18533e-08
1.18537e-08
1.18495e-08
1.18498e-08
1.18501e-08
1.18505e-08
1.18508e-08
1.18512e-08
1.18515e-08
1.18519e-08
1.18523e-08
1.18527e-08
1.1853e-08
1.18534e-08
1.18538e-08
1.18542e-08
1.185e-08
1.18503e-08
1.18506e-08
1.1851e-08
1.18513e-08
1.18517e-08
1.1852e-08
1.18524e-08
1.18528e-08
1.18532e-08
1.18535e-08
1.18539e-08
1.18543e-08
1.18547e-08
1.18505e-08
1.18508e-08
1.18511e-08
1.18515e-08
1.18518e-08
1.18522e-08
1.18526e-08
1.18529e-08
1.18533e-08
1.18537e-08
1.1854e-08
1.18544e-08
1.18548e-08
1.18552e-08
1.1851e-08
1.18513e-08
1.18516e-08
1.1852e-08
1.18523e-08
1.18527e-08
1.18531e-08
1.18534e-08
1.18538e-08
1.18542e-08
1.18546e-08
1.18549e-08
1.18553e-08
1.18556e-08
1.18515e-08
1.18518e-08
1.18522e-08
1.18525e-08
1.18529e-08
1.18532e-08
1.18536e-08
1.1854e-08
1.18543e-08
1.18547e-08
1.18551e-08
1.18554e-08
1.18558e-08
1.18561e-08
1.1852e-08
1.18523e-08
1.18527e-08
1.1853e-08
1.18534e-08
1.18537e-08
1.18541e-08
1.18545e-08
1.18549e-08
1.18552e-08
1.18556e-08
1.18559e-08
1.18563e-08
1.18566e-08
1.18525e-08
1.18529e-08
1.18532e-08
1.18535e-08
1.18539e-08
1.18543e-08
1.18546e-08
1.1855e-08
1.18554e-08
1.18557e-08
1.18561e-08
1.18564e-08
1.18568e-08
1.18571e-08
1.1853e-08
1.18534e-08
1.18537e-08
1.1854e-08
1.18544e-08
1.18548e-08
1.18552e-08
1.18555e-08
1.18559e-08
1.18563e-08
1.18566e-08
1.1857e-08
1.18573e-08
1.18577e-08
1.18535e-08
1.18539e-08
1.18542e-08
1.18546e-08
1.18549e-08
1.18553e-08
1.18557e-08
1.1856e-08
1.18564e-08
1.18568e-08
1.18571e-08
1.18575e-08
1.18578e-08
1.18582e-08
1.18205e-08
1.18205e-08
1.18206e-08
1.18208e-08
1.18209e-08
1.18211e-08
1.18212e-08
1.18214e-08
1.18216e-08
1.18217e-08
1.18219e-08
1.18222e-08
1.18224e-08
1.18227e-08
1.18208e-08
1.18209e-08
1.1821e-08
1.18211e-08
1.18212e-08
1.18214e-08
1.18216e-08
1.18217e-08
1.18219e-08
1.18221e-08
1.18224e-08
1.18226e-08
1.18228e-08
1.18232e-08
1.18211e-08
1.18212e-08
1.18213e-08
1.18215e-08
1.18216e-08
1.18218e-08
1.18219e-08
1.18221e-08
1.18223e-08
1.18225e-08
1.18227e-08
1.1823e-08
1.18232e-08
1.18235e-08
1.18215e-08
1.18216e-08
1.18217e-08
1.18218e-08
1.1822e-08
1.18221e-08
1.18223e-08
1.18225e-08
1.18227e-08
1.18229e-08
1.18231e-08
1.18234e-08
1.18237e-08
1.1824e-08
1.18219e-08
1.1822e-08
1.18221e-08
1.18222e-08
1.18224e-08
1.18225e-08
1.18227e-08
1.18229e-08
1.18231e-08
1.18233e-08
1.18235e-08
1.18238e-08
1.18241e-08
1.18243e-08
1.18223e-08
1.18224e-08
1.18225e-08
1.18226e-08
1.18228e-08
1.18229e-08
1.18231e-08
1.18233e-08
1.18235e-08
1.18237e-08
1.1824e-08
1.18242e-08
1.18245e-08
1.18248e-08
1.18227e-08
1.18228e-08
1.18229e-08
1.18231e-08
1.18232e-08
1.18234e-08
1.18235e-08
1.18237e-08
1.18239e-08
1.18242e-08
1.18244e-08
1.18246e-08
1.18249e-08
1.18252e-08
1.18231e-08
1.18233e-08
1.18234e-08
1.18235e-08
1.18237e-08
1.18238e-08
1.1824e-08
1.18242e-08
1.18244e-08
1.18246e-08
1.18248e-08
1.18251e-08
1.18253e-08
1.18256e-08
1.18236e-08
1.18237e-08
1.18238e-08
1.1824e-08
1.18241e-08
1.18243e-08
1.18245e-08
1.18246e-08
1.18249e-08
1.18251e-08
1.18253e-08
1.18255e-08
1.18258e-08
1.1826e-08
1.1824e-08
1.18242e-08
1.18243e-08
1.18244e-08
1.18246e-08
1.18248e-08
1.18249e-08
1.18251e-08
1.18253e-08
1.18255e-08
1.18258e-08
1.1826e-08
1.18262e-08
1.18264e-08
1.18245e-08
1.18247e-08
1.18248e-08
1.18249e-08
1.18251e-08
1.18253e-08
1.18254e-08
1.18256e-08
1.18258e-08
1.1826e-08
1.18262e-08
1.18265e-08
1.18267e-08
1.18269e-08
1.1825e-08
1.18252e-08
1.18253e-08
1.18254e-08
1.18256e-08
1.18258e-08
1.18259e-08
1.18261e-08
1.18263e-08
1.18265e-08
1.18267e-08
1.18269e-08
1.18272e-08
1.18273e-08
1.18255e-08
1.18256e-08
1.18258e-08
1.18259e-08
1.18261e-08
1.18263e-08
1.18265e-08
1.18267e-08
1.18268e-08
1.1827e-08
1.18272e-08
1.18274e-08
1.18276e-08
1.18278e-08
1.1826e-08
1.18262e-08
1.18263e-08
1.18265e-08
1.18266e-08
1.18268e-08
1.1827e-08
1.18272e-08
1.18274e-08
1.18275e-08
1.18277e-08
1.18279e-08
1.18281e-08
1.18284e-08
1.17959e-08
1.17959e-08
1.17959e-08
1.17959e-08
1.17959e-08
1.17959e-08
1.17959e-08
1.17959e-08
1.1796e-08
1.1796e-08
1.17961e-08
1.17961e-08
1.17962e-08
1.17963e-08
1.17961e-08
1.1796e-08
1.1796e-08
1.1796e-08
1.1796e-08
1.1796e-08
1.17961e-08
1.17961e-08
1.17961e-08
1.17962e-08
1.17963e-08
1.17963e-08
1.17964e-08
1.17966e-08
1.17963e-08
1.17962e-08
1.17962e-08
1.17962e-08
1.17962e-08
1.17962e-08
1.17962e-08
1.17963e-08
1.17963e-08
1.17964e-08
1.17965e-08
1.17965e-08
1.17966e-08
1.17968e-08
1.17965e-08
1.17964e-08
1.17964e-08
1.17964e-08
1.17964e-08
1.17964e-08
1.17964e-08
1.17965e-08
1.17965e-08
1.17966e-08
1.17967e-08
1.17968e-08
1.17969e-08
1.1797e-08
1.17967e-08
1.17967e-08
1.17966e-08
1.17966e-08
1.17966e-08
1.17966e-08
1.17966e-08
1.17967e-08
1.17967e-08
1.17968e-08
1.17969e-08
1.1797e-08
1.17971e-08
1.17973e-08
1.17969e-08
1.17969e-08
1.17969e-08
1.17969e-08
1.17968e-08
1.17969e-08
1.17969e-08
1.17969e-08
1.1797e-08
1.1797e-08
1.17971e-08
1.17972e-08
1.17974e-08
1.17975e-08
1.17972e-08
1.17972e-08
1.17971e-08
1.17971e-08
1.17971e-08
1.17971e-08
1.17971e-08
1.17972e-08
1.17972e-08
1.17973e-08
1.17974e-08
1.17975e-08
1.17976e-08
1.17977e-08
1.17975e-08
1.17974e-08
1.17974e-08
1.17974e-08
1.17974e-08
1.17974e-08
1.17974e-08
1.17974e-08
1.17975e-08
1.17976e-08
1.17977e-08
1.17978e-08
1.17979e-08
1.1798e-08
1.17978e-08
1.17977e-08
1.17977e-08
1.17977e-08
1.17977e-08
1.17977e-08
1.17977e-08
1.17977e-08
1.17978e-08
1.17979e-08
1.17979e-08
1.1798e-08
1.17982e-08
1.17983e-08
1.17981e-08
1.17981e-08
1.1798e-08
1.1798e-08
1.1798e-08
1.1798e-08
1.1798e-08
1.17981e-08
1.17981e-08
1.17982e-08
1.17982e-08
1.17983e-08
1.17984e-08
1.17985e-08
1.17984e-08
1.17984e-08
1.17983e-08
1.17983e-08
1.17983e-08
1.17983e-08
1.17984e-08
1.17984e-08
1.17984e-08
1.17985e-08
1.17986e-08
1.17986e-08
1.17987e-08
1.17988e-08
1.17987e-08
1.17987e-08
1.17987e-08
1.17987e-08
1.17987e-08
1.17987e-08
1.17987e-08
1.17987e-08
1.17988e-08
1.17988e-08
1.17989e-08
1.1799e-08
1.17991e-08
1.17991e-08
1.17991e-08
1.17991e-08
1.1799e-08
1.1799e-08
1.1799e-08
1.1799e-08
1.17991e-08
1.17991e-08
1.17991e-08
1.17992e-08
1.17992e-08
1.17993e-08
1.17994e-08
1.17994e-08
1.17995e-08
1.17994e-08
1.17994e-08
1.17994e-08
1.17994e-08
1.17994e-08
1.17994e-08
1.17995e-08
1.17995e-08
1.17995e-08
1.17996e-08
1.17996e-08
1.17997e-08
1.17998e-08
1.17736e-08
1.17735e-08
1.17734e-08
1.17734e-08
1.17733e-08
1.17733e-08
1.17732e-08
1.17732e-08
1.17732e-08
1.17731e-08
1.17731e-08
1.1773e-08
1.1773e-08
1.1773e-08
1.17736e-08
1.17736e-08
1.17735e-08
1.17734e-08
1.17734e-08
1.17733e-08
1.17733e-08
1.17732e-08
1.17732e-08
1.17732e-08
1.17731e-08
1.17731e-08
1.17731e-08
1.17731e-08
1.17737e-08
1.17736e-08
1.17736e-08
1.17735e-08
1.17734e-08
1.17734e-08
1.17733e-08
1.17733e-08
1.17732e-08
1.17732e-08
1.17732e-08
1.17732e-08
1.17731e-08
1.17731e-08
1.17738e-08
1.17737e-08
1.17736e-08
1.17736e-08
1.17735e-08
1.17734e-08
1.17734e-08
1.17733e-08
1.17733e-08
1.17733e-08
1.17732e-08
1.17732e-08
1.17732e-08
1.17732e-08
1.17739e-08
1.17738e-08
1.17737e-08
1.17736e-08
1.17736e-08
1.17735e-08
1.17735e-08
1.17734e-08
1.17734e-08
1.17733e-08
1.17733e-08
1.17733e-08
1.17733e-08
1.17733e-08
1.1774e-08
1.17739e-08
1.17738e-08
1.17737e-08
1.17737e-08
1.17736e-08
1.17735e-08
1.17735e-08
1.17735e-08
1.17734e-08
1.17734e-08
1.17734e-08
1.17734e-08
1.17734e-08
1.17741e-08
1.1774e-08
1.17739e-08
1.17738e-08
1.17738e-08
1.17737e-08
1.17736e-08
1.17736e-08
1.17736e-08
1.17735e-08
1.17735e-08
1.17735e-08
1.17735e-08
1.17735e-08
1.17742e-08
1.17741e-08
1.1774e-08
1.17739e-08
1.17739e-08
1.17738e-08
1.17737e-08
1.17737e-08
1.17737e-08
1.17736e-08
1.17736e-08
1.17736e-08
1.17736e-08
1.17736e-08
1.17743e-08
1.17742e-08
1.17741e-08
1.1774e-08
1.1774e-08
1.17739e-08
1.17739e-08
1.17738e-08
1.17738e-08
1.17737e-08
1.17737e-08
1.17737e-08
1.17737e-08
1.17737e-08
1.17744e-08
1.17743e-08
1.17743e-08
1.17742e-08
1.17741e-08
1.1774e-08
1.1774e-08
1.17739e-08
1.17739e-08
1.17739e-08
1.17738e-08
1.17738e-08
1.17738e-08
1.17738e-08
1.17745e-08
1.17745e-08
1.17744e-08
1.17743e-08
1.17742e-08
1.17742e-08
1.17741e-08
1.17741e-08
1.1774e-08
1.1774e-08
1.1774e-08
1.17739e-08
1.17739e-08
1.17739e-08
1.17747e-08
1.17746e-08
1.17745e-08
1.17745e-08
1.17744e-08
1.17743e-08
1.17743e-08
1.17742e-08
1.17742e-08
1.17741e-08
1.17741e-08
1.17741e-08
1.17741e-08
1.1774e-08
1.17748e-08
1.17748e-08
1.17747e-08
1.17746e-08
1.17745e-08
1.17745e-08
1.17744e-08
1.17743e-08
1.17743e-08
1.17743e-08
1.17742e-08
1.17742e-08
1.17742e-08
1.17742e-08
1.1775e-08
1.17749e-08
1.17748e-08
1.17748e-08
1.17747e-08
1.17746e-08
1.17746e-08
1.17745e-08
1.17745e-08
1.17744e-08
1.17744e-08
1.17743e-08
1.17743e-08
1.17743e-08
1.17533e-08
1.17533e-08
1.17532e-08
1.17531e-08
1.17531e-08
1.17531e-08
1.1753e-08
1.17529e-08
1.17529e-08
1.17528e-08
1.17527e-08
1.17526e-08
1.17526e-08
1.17525e-08
1.17533e-08
1.17533e-08
1.17532e-08
1.17532e-08
1.17531e-08
1.17531e-08
1.1753e-08
1.17529e-08
1.17529e-08
1.17528e-08
1.17527e-08
1.17526e-08
1.17526e-08
1.17525e-08
1.17533e-08
1.17533e-08
1.17532e-08
1.17532e-08
1.17531e-08
1.17531e-08
1.1753e-08
1.17529e-08
1.17529e-08
1.17528e-08
1.17527e-08
1.17526e-08
1.17525e-08
1.17524e-08
1.17534e-08
1.17533e-08
1.17533e-08
1.17532e-08
1.17531e-08
1.17531e-08
1.1753e-08
1.1753e-08
1.17529e-08
1.17528e-08
1.17527e-08
1.17526e-08
1.17525e-08
1.17524e-08
1.17534e-08
1.17533e-08
1.17533e-08
1.17532e-08
1.17532e-08
1.17531e-08
1.1753e-08
1.1753e-08
1.17529e-08
1.17528e-08
1.17527e-08
1.17526e-08
1.17525e-08
1.17525e-08
1.17534e-08
1.17533e-08
1.17533e-08
1.17532e-08
1.17532e-08
1.17531e-08
1.1753e-08
1.1753e-08
1.17529e-08
1.17528e-08
1.17527e-08
1.17526e-08
1.17525e-08
1.17525e-08
1.17534e-08
1.17533e-08
1.17533e-08
1.17532e-08
1.17532e-08
1.17531e-08
1.1753e-08
1.1753e-08
1.17529e-08
1.17528e-08
1.17527e-08
1.17526e-08
1.17526e-08
1.17525e-08
1.17534e-08
1.17533e-08
1.17533e-08
1.17532e-08
1.17531e-08
1.17531e-08
1.1753e-08
1.1753e-08
1.17529e-08
1.17528e-08
1.17527e-08
1.17526e-08
1.17526e-08
1.17525e-08
1.17534e-08
1.17533e-08
1.17533e-08
1.17532e-08
1.17531e-08
1.17531e-08
1.1753e-08
1.17529e-08
1.17529e-08
1.17528e-08
1.17527e-08
1.17526e-08
1.17525e-08
1.17525e-08
1.17533e-08
1.17533e-08
1.17532e-08
1.17532e-08
1.17531e-08
1.17531e-08
1.1753e-08
1.17529e-08
1.17529e-08
1.17528e-08
1.17527e-08
1.17526e-08
1.17525e-08
1.17525e-08
1.17533e-08
1.17533e-08
1.17532e-08
1.17532e-08
1.17531e-08
1.17531e-08
1.1753e-08
1.17529e-08
1.17528e-08
1.17528e-08
1.17527e-08
1.17526e-08
1.17525e-08
1.17525e-08
1.17533e-08
1.17533e-08
1.17532e-08
1.17532e-08
1.17531e-08
1.1753e-08
1.1753e-08
1.17529e-08
1.17528e-08
1.17527e-08
1.17527e-08
1.17526e-08
1.17525e-08
1.17524e-08
1.17533e-08
1.17533e-08
1.17532e-08
1.17531e-08
1.17531e-08
1.1753e-08
1.17529e-08
1.17529e-08
1.17528e-08
1.17527e-08
1.17526e-08
1.17526e-08
1.17525e-08
1.17524e-08
1.17533e-08
1.17532e-08
1.17532e-08
1.17531e-08
1.17531e-08
1.1753e-08
1.17529e-08
1.17528e-08
1.17528e-08
1.17527e-08
1.17526e-08
1.17525e-08
1.17525e-08
1.17524e-08
1.17348e-08
1.17348e-08
1.17348e-08
1.17348e-08
1.17348e-08
1.17348e-08
1.17347e-08
1.17347e-08
1.17346e-08
1.17346e-08
1.17345e-08
1.17344e-08
1.17343e-08
1.17342e-08
1.17348e-08
1.17348e-08
1.17348e-08
1.17348e-08
1.17348e-08
1.17348e-08
1.17348e-08
1.17347e-08
1.17347e-08
1.17346e-08
1.17345e-08
1.17344e-08
1.17343e-08
1.17341e-08
1.17349e-08
1.17349e-08
1.17349e-08
1.17349e-08
1.17349e-08
1.17348e-08
1.17348e-08
1.17347e-08
1.17347e-08
1.17346e-08
1.17345e-08
1.17344e-08
1.17343e-08
1.17341e-08
1.17349e-08
1.17349e-08
1.17349e-08
1.17349e-08
1.17349e-08
1.17348e-08
1.17348e-08
1.17348e-08
1.17347e-08
1.17346e-08
1.17345e-08
1.17344e-08
1.17343e-08
1.17341e-08
1.17349e-08
1.17349e-08
1.17349e-08
1.17349e-08
1.17349e-08
1.17349e-08
1.17348e-08
1.17348e-08
1.17347e-08
1.17346e-08
1.17345e-08
1.17344e-08
1.17343e-08
1.17341e-08
1.17348e-08
1.17349e-08
1.17349e-08
1.17349e-08
1.17349e-08
1.17348e-08
1.17348e-08
1.17347e-08
1.17347e-08
1.17346e-08
1.17345e-08
1.17344e-08
1.17343e-08
1.17341e-08
1.17348e-08
1.17348e-08
1.17348e-08
1.17348e-08
1.17348e-08
1.17348e-08
1.17348e-08
1.17347e-08
1.17346e-08
1.17346e-08
1.17345e-08
1.17343e-08
1.17342e-08
1.17341e-08
1.17348e-08
1.17348e-08
1.17348e-08
1.17348e-08
1.17348e-08
1.17348e-08
1.17347e-08
1.17347e-08
1.17346e-08
1.17345e-08
1.17344e-08
1.17343e-08
1.17342e-08
1.17341e-08
1.17347e-08
1.17347e-08
1.17347e-08
1.17347e-08
1.17347e-08
1.17347e-08
1.17347e-08
1.17346e-08
1.17345e-08
1.17345e-08
1.17344e-08
1.17343e-08
1.17341e-08
1.1734e-08
1.17346e-08
1.17347e-08
1.17347e-08
1.17347e-08
1.17347e-08
1.17346e-08
1.17346e-08
1.17345e-08
1.17345e-08
1.17344e-08
1.17343e-08
1.17342e-08
1.17341e-08
1.1734e-08
1.17346e-08
1.17346e-08
1.17346e-08
1.17346e-08
1.17346e-08
1.17345e-08
1.17345e-08
1.17344e-08
1.17344e-08
1.17343e-08
1.17342e-08
1.17341e-08
1.1734e-08
1.17339e-08
1.17345e-08
1.17345e-08
1.17345e-08
1.17345e-08
1.17345e-08
1.17344e-08
1.17344e-08
1.17343e-08
1.17343e-08
1.17342e-08
1.17341e-08
1.1734e-08
1.17339e-08
1.17338e-08
1.17344e-08
1.17344e-08
1.17344e-08
1.17344e-08
1.17344e-08
1.17343e-08
1.17343e-08
1.17342e-08
1.17342e-08
1.17341e-08
1.1734e-08
1.17339e-08
1.17338e-08
1.17337e-08
1.17343e-08
1.17343e-08
1.17343e-08
1.17343e-08
1.17342e-08
1.17342e-08
1.17342e-08
1.17341e-08
1.1734e-08
1.1734e-08
1.17339e-08
1.17338e-08
1.17337e-08
1.17336e-08
1.17179e-08
1.17179e-08
1.1718e-08
1.1718e-08
1.1718e-08
1.1718e-08
1.1718e-08
1.1718e-08
1.1718e-08
1.17179e-08
1.17179e-08
1.17178e-08
1.17177e-08
1.17175e-08
1.17179e-08
1.1718e-08
1.1718e-08
1.17181e-08
1.17181e-08
1.17181e-08
1.17181e-08
1.17181e-08
1.17181e-08
1.1718e-08
1.17179e-08
1.17178e-08
1.17177e-08
1.17176e-08
1.1718e-08
1.1718e-08
1.17181e-08
1.17181e-08
1.17182e-08
1.17182e-08
1.17182e-08
1.17182e-08
1.17181e-08
1.17181e-08
1.1718e-08
1.17179e-08
1.17178e-08
1.17176e-08
1.1718e-08
1.17181e-08
1.17181e-08
1.17182e-08
1.17182e-08
1.17182e-08
1.17182e-08
1.17182e-08
1.17182e-08
1.17181e-08
1.1718e-08
1.17179e-08
1.17178e-08
1.17176e-08
1.1718e-08
1.17181e-08
1.17182e-08
1.17182e-08
1.17182e-08
1.17183e-08
1.17183e-08
1.17182e-08
1.17182e-08
1.17181e-08
1.1718e-08
1.17179e-08
1.17178e-08
1.17177e-08
1.1718e-08
1.17181e-08
1.17182e-08
1.17182e-08
1.17183e-08
1.17183e-08
1.17183e-08
1.17182e-08
1.17182e-08
1.17181e-08
1.1718e-08
1.17179e-08
1.17178e-08
1.17177e-08
1.1718e-08
1.17181e-08
1.17182e-08
1.17182e-08
1.17182e-08
1.17183e-08
1.17182e-08
1.17182e-08
1.17182e-08
1.17181e-08
1.1718e-08
1.17179e-08
1.17178e-08
1.17176e-08
1.1718e-08
1.1718e-08
1.17181e-08
1.17182e-08
1.17182e-08
1.17182e-08
1.17182e-08
1.17182e-08
1.17181e-08
1.17181e-08
1.1718e-08
1.17179e-08
1.17178e-08
1.17176e-08
1.17179e-08
1.1718e-08
1.17181e-08
1.17181e-08
1.17181e-08
1.17182e-08
1.17181e-08
1.17181e-08
1.17181e-08
1.1718e-08
1.17179e-08
1.17178e-08
1.17177e-08
1.17176e-08
1.17178e-08
1.17179e-08
1.1718e-08
1.1718e-08
1.17181e-08
1.17181e-08
1.17181e-08
1.1718e-08
1.1718e-08
1.17179e-08
1.17178e-08
1.17177e-08
1.17176e-08
1.17175e-08
1.17177e-08
1.17178e-08
1.17179e-08
1.17179e-08
1.1718e-08
1.1718e-08
1.1718e-08
1.17179e-08
1.17179e-08
1.17178e-08
1.17177e-08
1.17177e-08
1.17175e-08
1.17174e-08
1.17176e-08
1.17177e-08
1.17178e-08
1.17178e-08
1.17178e-08
1.17179e-08
1.17179e-08
1.17178e-08
1.17178e-08
1.17177e-08
1.17176e-08
1.17175e-08
1.17174e-08
1.17173e-08
1.17175e-08
1.17176e-08
1.17176e-08
1.17177e-08
1.17177e-08
1.17177e-08
1.17177e-08
1.17177e-08
1.17176e-08
1.17176e-08
1.17175e-08
1.17174e-08
1.17173e-08
1.17172e-08
1.17174e-08
1.17174e-08
1.17175e-08
1.17175e-08
1.17176e-08
1.17176e-08
1.17176e-08
1.17175e-08
1.17175e-08
1.17174e-08
1.17174e-08
1.17173e-08
1.17172e-08
1.17171e-08
1.17023e-08
1.17023e-08
1.17024e-08
1.17025e-08
1.17025e-08
1.17026e-08
1.17026e-08
1.17026e-08
1.17026e-08
1.17025e-08
1.17025e-08
1.17024e-08
1.17023e-08
1.17022e-08
1.17023e-08
1.17024e-08
1.17025e-08
1.17026e-08
1.17027e-08
1.17027e-08
1.17027e-08
1.17027e-08
1.17027e-08
1.17026e-08
1.17026e-08
1.17025e-08
1.17024e-08
1.17023e-08
1.17024e-08
1.17025e-08
1.17026e-08
1.17027e-08
1.17028e-08
1.17028e-08
1.17028e-08
1.17028e-08
1.17028e-08
1.17027e-08
1.17027e-08
1.17026e-08
1.17025e-08
1.17024e-08
1.17025e-08
1.17026e-08
1.17027e-08
1.17028e-08
1.17028e-08
1.17029e-08
1.17029e-08
1.17029e-08
1.17028e-08
1.17028e-08
1.17027e-08
1.17027e-08
1.17025e-08
1.17024e-08
1.17025e-08
1.17026e-08
1.17027e-08
1.17028e-08
1.17029e-08
1.17029e-08
1.17029e-08
1.17029e-08
1.17029e-08