/*--------------------------------*- C++ -*----------------------------------*\
| =========                 |                                                 |
| \\      /  F ield         | OpenFOAM: The Open Source CFD Toolbox           |
|  \\    /   O peration     | Version:  v2106                                 |
|   \\  /    A nd           | Website:  www.openfoam.com                      |
|    \\/     M anipulation  |                                                 |
\*---------------------------------------------------------------------------*/
FoamFile
{
    version     2.0;
    format      ascii;
    arch        "LSB;label=32;scalar=64";
    class       volScalarField;
    location    "0.0002";
    object      k;
}
// * * * * * * * * * * * * * * * * * * * * * * * * * * * * * * * * * * * * * //

dimensions      [0 2 -2 0 0 0 0];

internalField   nonuniform List<scalar> 
17920
(
2.1835e-12
2.18334e-12
2.18332e-12
2.18317e-12
2.18314e-12
2.183e-12
2.18295e-12
2.18281e-12
2.18275e-12
2.18261e-12
2.18255e-12
2.1824e-12
2.18233e-12
2.18219e-12
2.18211e-12
2.18198e-12
2.18188e-12
2.18175e-12
2.18164e-12
2.18153e-12
2.1814e-12
2.1813e-12
2.18116e-12
2.18106e-12
2.18091e-12
2.18082e-12
2.18067e-12
2.18059e-12
2.18227e-12
2.18222e-12
2.18217e-12
2.18212e-12
2.18207e-12
2.18201e-12
2.18194e-12
2.18186e-12
2.18178e-12
2.18169e-12
2.18159e-12
2.1815e-12
2.1814e-12
2.18129e-12
2.18205e-12
2.18202e-12
2.18198e-12
2.18193e-12
2.18187e-12
2.18181e-12
2.18174e-12
2.18166e-12
2.18157e-12
2.18148e-12
2.18139e-12
2.18129e-12
2.1812e-12
2.18109e-12
2.18184e-12
2.18182e-12
2.18177e-12
2.18172e-12
2.18167e-12
2.1816e-12
2.18153e-12
2.18145e-12
2.18137e-12
2.18129e-12
2.1812e-12
2.1811e-12
2.18102e-12
2.18091e-12
2.18163e-12
2.18161e-12
2.18156e-12
2.18151e-12
2.18146e-12
2.18139e-12
2.18132e-12
2.18124e-12
2.18116e-12
2.18108e-12
2.18099e-12
2.1809e-12
2.18081e-12
2.18071e-12
2.18143e-12
2.1814e-12
2.18135e-12
2.1813e-12
2.18124e-12
2.18117e-12
2.1811e-12
2.18102e-12
2.18095e-12
2.18086e-12
2.18078e-12
2.18069e-12
2.18061e-12
2.18051e-12
2.18121e-12
2.18118e-12
2.18113e-12
2.18107e-12
2.18101e-12
2.18095e-12
2.18088e-12
2.1808e-12
2.18073e-12
2.18065e-12
2.18057e-12
2.18048e-12
2.1804e-12
2.18031e-12
2.181e-12
2.18096e-12
2.1809e-12
2.18085e-12
2.18079e-12
2.18072e-12
2.18065e-12
2.18058e-12
2.1805e-12
2.18043e-12
2.18035e-12
2.18027e-12
2.18019e-12
2.1801e-12
2.18078e-12
2.18073e-12
2.18068e-12
2.18062e-12
2.18056e-12
2.18049e-12
2.18042e-12
2.18035e-12
2.18028e-12
2.1802e-12
2.18012e-12
2.18005e-12
2.17997e-12
2.17989e-12
2.18056e-12
2.1805e-12
2.18045e-12
2.18039e-12
2.18033e-12
2.18026e-12
2.18019e-12
2.18012e-12
2.18005e-12
2.17997e-12
2.1799e-12
2.17982e-12
2.17975e-12
2.17968e-12
2.18033e-12
2.18027e-12
2.18021e-12
2.18015e-12
2.18009e-12
2.18003e-12
2.17996e-12
2.17989e-12
2.17982e-12
2.17974e-12
2.17967e-12
2.1796e-12
2.17952e-12
2.17946e-12
2.18011e-12
2.18004e-12
2.17998e-12
2.17992e-12
2.17986e-12
2.1798e-12
2.17973e-12
2.17966e-12
2.17958e-12
2.17951e-12
2.17944e-12
2.17937e-12
2.1793e-12
2.17925e-12
2.17987e-12
2.1798e-12
2.17975e-12
2.17969e-12
2.17963e-12
2.17956e-12
2.17949e-12
2.17942e-12
2.17935e-12
2.17928e-12
2.17921e-12
2.17915e-12
2.17907e-12
2.17903e-12
2.17966e-12
2.17958e-12
2.17952e-12
2.17946e-12
2.1794e-12
2.17933e-12
2.17926e-12
2.17919e-12
2.17912e-12
2.17905e-12
2.17898e-12
2.17892e-12
2.17885e-12
2.17882e-12
2.17941e-12
2.17934e-12
2.17928e-12
2.17922e-12
2.17916e-12
2.1791e-12
2.17903e-12
2.17896e-12
2.17889e-12
2.17882e-12
2.17876e-12
2.1787e-12
2.17864e-12
2.1786e-12
2.17871e-12
2.17871e-12
2.1787e-12
2.1787e-12
2.1787e-12
2.17869e-12
2.17868e-12
2.17867e-12
2.17865e-12
2.17862e-12
2.1786e-12
2.17856e-12
2.17853e-12
2.1785e-12
2.17854e-12
2.17855e-12
2.17855e-12
2.17855e-12
2.17854e-12
2.17853e-12
2.17852e-12
2.17851e-12
2.17849e-12
2.17846e-12
2.17843e-12
2.1784e-12
2.17837e-12
2.17832e-12
2.17839e-12
2.1784e-12
2.17839e-12
2.17839e-12
2.17838e-12
2.17837e-12
2.17836e-12
2.17834e-12
2.17832e-12
2.1783e-12
2.17828e-12
2.17824e-12
2.17821e-12
2.17817e-12
2.17823e-12
2.17823e-12
2.17823e-12
2.17822e-12
2.17822e-12
2.17821e-12
2.17819e-12
2.17818e-12
2.17816e-12
2.17814e-12
2.17811e-12
2.17808e-12
2.17805e-12
2.17801e-12
2.17807e-12
2.17807e-12
2.17806e-12
2.17806e-12
2.17805e-12
2.17804e-12
2.17803e-12
2.17801e-12
2.17799e-12
2.17797e-12
2.17795e-12
2.17792e-12
2.17789e-12
2.17785e-12
2.1779e-12
2.1779e-12
2.1779e-12
2.17789e-12
2.17788e-12
2.17787e-12
2.17786e-12
2.17784e-12
2.17782e-12
2.1778e-12
2.17778e-12
2.17776e-12
2.17773e-12
2.1777e-12
2.17773e-12
2.17773e-12
2.17773e-12
2.17772e-12
2.17771e-12
2.1777e-12
2.17769e-12
2.17767e-12
2.17765e-12
2.17763e-12
2.17761e-12
2.17759e-12
2.17757e-12
2.17754e-12
2.17756e-12
2.17756e-12
2.17755e-12
2.17755e-12
2.17754e-12
2.17753e-12
2.17751e-12
2.1775e-12
2.17748e-12
2.17747e-12
2.17745e-12
2.17743e-12
2.1774e-12
2.17738e-12
2.17739e-12
2.17738e-12
2.17738e-12
2.17737e-12
2.17736e-12
2.17735e-12
2.17734e-12
2.17733e-12
2.17731e-12
2.1773e-12
2.17728e-12
2.17726e-12
2.17724e-12
2.17723e-12
2.17722e-12
2.1772e-12
2.1772e-12
2.17719e-12
2.17719e-12
2.17718e-12
2.17717e-12
2.17715e-12
2.17714e-12
2.17713e-12
2.17711e-12
2.17709e-12
2.17707e-12
2.17707e-12
2.17705e-12
2.17703e-12
2.17703e-12
2.17702e-12
2.17701e-12
2.177e-12
2.17699e-12
2.17698e-12
2.17697e-12
2.17696e-12
2.17694e-12
2.17693e-12
2.17691e-12
2.17692e-12
2.17688e-12
2.17685e-12
2.17685e-12
2.17684e-12
2.17684e-12
2.17683e-12
2.17682e-12
2.17681e-12
2.1768e-12
2.17679e-12
2.17677e-12
2.17676e-12
2.17674e-12
2.17676e-12
2.17672e-12
2.17669e-12
2.17669e-12
2.17668e-12
2.17667e-12
2.17666e-12
2.17665e-12
2.17664e-12
2.17663e-12
2.17662e-12
2.17661e-12
2.1766e-12
2.17659e-12
2.17661e-12
2.17655e-12
2.17652e-12
2.17651e-12
2.1765e-12
2.1765e-12
2.17649e-12
2.17648e-12
2.17647e-12
2.17646e-12
2.17645e-12
2.17644e-12
2.17643e-12
2.17643e-12
2.17644e-12
2.17467e-12
2.1747e-12
2.17474e-12
2.17478e-12
2.17482e-12
2.17486e-12
2.1749e-12
2.17493e-12
2.17497e-12
2.175e-12
2.17503e-12
2.17505e-12
2.17508e-12
2.1751e-12
2.17459e-12
2.17463e-12
2.17466e-12
2.1747e-12
2.17474e-12
2.17478e-12
2.17482e-12
2.17485e-12
2.17488e-12
2.17491e-12
2.17494e-12
2.17496e-12
2.17499e-12
2.17499e-12
2.17451e-12
2.17455e-12
2.17458e-12
2.17462e-12
2.17466e-12
2.1747e-12
2.17473e-12
2.17477e-12
2.1748e-12
2.17483e-12
2.17486e-12
2.17488e-12
2.1749e-12
2.17491e-12
2.17443e-12
2.17447e-12
2.1745e-12
2.17454e-12
2.17458e-12
2.17461e-12
2.17465e-12
2.17468e-12
2.17472e-12
2.17474e-12
2.17477e-12
2.17479e-12
2.17482e-12
2.17483e-12
2.17434e-12
2.17438e-12
2.17442e-12
2.17446e-12
2.17449e-12
2.17453e-12
2.17456e-12
2.1746e-12
2.17463e-12
2.17466e-12
2.17469e-12
2.17471e-12
2.17473e-12
2.17475e-12
2.17426e-12
2.1743e-12
2.17433e-12
2.17437e-12
2.17441e-12
2.17444e-12
2.17448e-12
2.17451e-12
2.17454e-12
2.17457e-12
2.1746e-12
2.17463e-12
2.17465e-12
2.17466e-12
2.17417e-12
2.17421e-12
2.17424e-12
2.17428e-12
2.17432e-12
2.17435e-12
2.17439e-12
2.17442e-12
2.17446e-12
2.17449e-12
2.17451e-12
2.17454e-12
2.17456e-12
2.17458e-12
2.17408e-12
2.17412e-12
2.17416e-12
2.17419e-12
2.17423e-12
2.17427e-12
2.1743e-12
2.17434e-12
2.17437e-12
2.1744e-12
2.17443e-12
2.17446e-12
2.17448e-12
2.1745e-12
2.17399e-12
2.17403e-12
2.17407e-12
2.1741e-12
2.17414e-12
2.17418e-12
2.17421e-12
2.17425e-12
2.17428e-12
2.17431e-12
2.17434e-12
2.17437e-12
2.17439e-12
2.17442e-12
2.1739e-12
2.17393e-12
2.17397e-12
2.17401e-12
2.17405e-12
2.17409e-12
2.17412e-12
2.17416e-12
2.17419e-12
2.17422e-12
2.17425e-12
2.17429e-12
2.17431e-12
2.17434e-12
2.17381e-12
2.17384e-12
2.17388e-12
2.17392e-12
2.17396e-12
2.174e-12
2.17403e-12
2.17407e-12
2.1741e-12
2.17413e-12
2.17417e-12
2.1742e-12
2.17423e-12
2.17427e-12
2.17372e-12
2.17375e-12
2.17379e-12
2.17383e-12
2.17387e-12
2.1739e-12
2.17394e-12
2.17398e-12
2.17401e-12
2.17405e-12
2.17408e-12
2.17412e-12
2.17414e-12
2.17418e-12
2.17363e-12
2.17366e-12
2.1737e-12
2.17374e-12
2.17378e-12
2.17381e-12
2.17385e-12
2.17389e-12
2.17392e-12
2.17396e-12
2.17399e-12
2.17403e-12
2.17407e-12
2.17411e-12
2.17355e-12
2.17357e-12
2.17361e-12
2.17365e-12
2.17369e-12
2.17372e-12
2.17376e-12
2.1738e-12
2.17383e-12
2.17387e-12
2.17391e-12
2.17394e-12
2.17398e-12
2.17402e-12
2.17054e-12
2.17059e-12
2.17065e-12
2.17071e-12
2.17077e-12
2.17083e-12
2.17089e-12
2.17095e-12
2.17101e-12
2.17107e-12
2.17113e-12
2.17119e-12
2.17125e-12
2.1713e-12
2.17053e-12
2.17058e-12
2.17064e-12
2.1707e-12
2.17076e-12
2.17082e-12
2.17089e-12
2.17095e-12
2.17101e-12
2.17107e-12
2.17113e-12
2.17118e-12
2.17124e-12
2.17129e-12
2.17052e-12
2.17058e-12
2.17064e-12
2.1707e-12
2.17076e-12
2.17082e-12
2.17088e-12
2.17094e-12
2.171e-12
2.17106e-12
2.17112e-12
2.17118e-12
2.17123e-12
2.17128e-12
2.17052e-12
2.17057e-12
2.17063e-12
2.17069e-12
2.17076e-12
2.17082e-12
2.17088e-12
2.17094e-12
2.171e-12
2.17106e-12
2.17111e-12
2.17117e-12
2.17122e-12
2.17127e-12
2.17051e-12
2.17057e-12
2.17063e-12
2.17069e-12
2.17075e-12
2.17081e-12
2.17088e-12
2.17094e-12
2.171e-12
2.17105e-12
2.17111e-12
2.17116e-12
2.17121e-12
2.17126e-12
2.1705e-12
2.17056e-12
2.17062e-12
2.17068e-12
2.17075e-12
2.17081e-12
2.17087e-12
2.17093e-12
2.17099e-12
2.17105e-12
2.1711e-12
2.17116e-12
2.17121e-12
2.17125e-12
2.17049e-12
2.17055e-12
2.17061e-12
2.17068e-12
2.17074e-12
2.1708e-12
2.17086e-12
2.17092e-12
2.17098e-12
2.17104e-12
2.17109e-12
2.17115e-12
2.1712e-12
2.17124e-12
2.17048e-12
2.17054e-12
2.17061e-12
2.17067e-12
2.17073e-12
2.17079e-12
2.17085e-12
2.17092e-12
2.17097e-12
2.17103e-12
2.17109e-12
2.17114e-12
2.17119e-12
2.17124e-12
2.17047e-12
2.17053e-12
2.17059e-12
2.17066e-12
2.17072e-12
2.17078e-12
2.17084e-12
2.17091e-12
2.17096e-12
2.17102e-12
2.17108e-12
2.17113e-12
2.17118e-12
2.17123e-12
2.17046e-12
2.17052e-12
2.17058e-12
2.17065e-12
2.17071e-12
2.17077e-12
2.17083e-12
2.17089e-12
2.17095e-12
2.17101e-12
2.17107e-12
2.17112e-12
2.17117e-12
2.17122e-12
2.17045e-12
2.17051e-12
2.17057e-12
2.17063e-12
2.17069e-12
2.17076e-12
2.17082e-12
2.17088e-12
2.17094e-12
2.171e-12
2.17106e-12
2.17111e-12
2.17116e-12
2.17122e-12
2.17043e-12
2.17049e-12
2.17055e-12
2.17062e-12
2.17068e-12
2.17074e-12
2.17081e-12
2.17087e-12
2.17093e-12
2.17099e-12
2.17104e-12
2.1711e-12
2.17115e-12
2.17121e-12
2.17042e-12
2.17048e-12
2.17054e-12
2.1706e-12
2.17066e-12
2.17073e-12
2.17079e-12
2.17085e-12
2.17091e-12
2.17097e-12
2.17103e-12
2.17109e-12
2.17115e-12
2.17121e-12
2.1704e-12
2.17046e-12
2.17053e-12
2.17059e-12
2.17065e-12
2.17071e-12
2.17077e-12
2.17083e-12
2.1709e-12
2.17096e-12
2.17102e-12
2.17107e-12
2.17113e-12
2.17119e-12
2.16653e-12
2.16658e-12
2.16663e-12
2.16669e-12
2.16674e-12
2.1668e-12
2.16686e-12
2.16692e-12
2.16699e-12
2.16705e-12
2.16711e-12
2.16718e-12
2.16724e-12
2.16731e-12
2.16656e-12
2.16661e-12
2.16667e-12
2.16673e-12
2.16679e-12
2.16685e-12
2.16691e-12
2.16697e-12
2.16704e-12
2.1671e-12
2.16716e-12
2.16722e-12
2.16729e-12
2.16735e-12
2.16661e-12
2.16666e-12
2.16672e-12
2.16678e-12
2.16684e-12
2.1669e-12
2.16696e-12
2.16702e-12
2.16708e-12
2.16715e-12
2.16721e-12
2.16727e-12
2.16733e-12
2.16739e-12
2.16665e-12
2.1667e-12
2.16676e-12
2.16682e-12
2.16688e-12
2.16695e-12
2.16701e-12
2.16707e-12
2.16713e-12
2.1672e-12
2.16726e-12
2.16732e-12
2.16738e-12
2.16744e-12
2.16669e-12
2.16675e-12
2.16681e-12
2.16687e-12
2.16693e-12
2.16699e-12
2.16706e-12
2.16712e-12
2.16718e-12
2.16724e-12
2.1673e-12
2.16736e-12
2.16742e-12
2.16748e-12
2.16674e-12
2.16679e-12
2.16685e-12
2.16692e-12
2.16698e-12
2.16704e-12
2.1671e-12
2.16717e-12
2.16723e-12
2.16729e-12
2.16735e-12
2.16741e-12
2.16747e-12
2.16752e-12
2.16678e-12
2.16684e-12
2.1669e-12
2.16696e-12
2.16702e-12
2.16709e-12
2.16715e-12
2.16721e-12
2.16728e-12
2.16734e-12
2.1674e-12
2.16745e-12
2.16751e-12
2.16756e-12
2.16682e-12
2.16688e-12
2.16694e-12
2.16701e-12
2.16707e-12
2.16713e-12
2.1672e-12
2.16726e-12
2.16732e-12
2.16738e-12
2.16744e-12
2.1675e-12
2.16756e-12
2.16761e-12
2.16686e-12
2.16693e-12
2.16699e-12
2.16705e-12
2.16711e-12
2.16718e-12
2.16724e-12
2.1673e-12
2.16737e-12
2.16743e-12
2.16748e-12
2.16754e-12
2.1676e-12
2.16765e-12
2.1669e-12
2.16697e-12
2.16703e-12
2.16709e-12
2.16716e-12
2.16722e-12
2.16728e-12
2.16735e-12
2.16741e-12
2.16747e-12
2.16753e-12
2.16759e-12
2.16764e-12
2.16769e-12
2.16694e-12
2.16701e-12
2.16707e-12
2.16713e-12
2.1672e-12
2.16726e-12
2.16733e-12
2.16739e-12
2.16745e-12
2.16751e-12
2.16757e-12
2.16763e-12
2.16768e-12
2.16774e-12
2.16698e-12
2.16705e-12
2.16711e-12
2.16717e-12
2.16724e-12
2.1673e-12
2.16737e-12
2.16743e-12
2.16749e-12
2.16755e-12
2.16761e-12
2.16767e-12
2.16773e-12
2.16778e-12
2.16702e-12
2.16709e-12
2.16715e-12
2.16721e-12
2.16728e-12
2.16734e-12
2.1674e-12
2.16747e-12
2.16753e-12
2.16759e-12
2.16765e-12
2.16771e-12
2.16777e-12
2.16783e-12
2.16706e-12
2.16713e-12
2.16719e-12
2.16725e-12
2.16731e-12
2.16738e-12
2.16744e-12
2.16751e-12
2.16757e-12
2.16763e-12
2.16769e-12
2.16775e-12
2.16781e-12
2.16787e-12
2.16275e-12
2.16278e-12
2.16281e-12
2.16285e-12
2.16289e-12
2.16293e-12
2.16297e-12
2.16302e-12
2.16306e-12
2.16311e-12
2.16316e-12
2.16321e-12
2.16326e-12
2.16332e-12
2.1628e-12
2.16283e-12
2.16287e-12
2.16291e-12
2.16295e-12
2.16299e-12
2.16303e-12
2.16308e-12
2.16313e-12
2.16317e-12
2.16322e-12
2.16327e-12
2.16332e-12
2.16338e-12
2.16285e-12
2.16289e-12
2.16293e-12
2.16297e-12
2.16301e-12
2.16305e-12
2.1631e-12
2.16314e-12
2.16319e-12
2.16323e-12
2.16328e-12
2.16333e-12
2.16338e-12
2.16344e-12
2.16291e-12
2.16294e-12
2.16299e-12
2.16303e-12
2.16307e-12
2.16311e-12
2.16316e-12
2.1632e-12
2.16325e-12
2.1633e-12
2.16335e-12
2.1634e-12
2.16345e-12
2.1635e-12
2.16297e-12
2.163e-12
2.16305e-12
2.16309e-12
2.16313e-12
2.16318e-12
2.16322e-12
2.16327e-12
2.16332e-12
2.16336e-12
2.16341e-12
2.16346e-12
2.16351e-12
2.16356e-12
2.16303e-12
2.16307e-12
2.16311e-12
2.16315e-12
2.1632e-12
2.16324e-12
2.16329e-12
2.16333e-12
2.16338e-12
2.16343e-12
2.16348e-12
2.16353e-12
2.16357e-12
2.16362e-12
2.16309e-12
2.16313e-12
2.16317e-12
2.16322e-12
2.16326e-12
2.1633e-12
2.16335e-12
2.1634e-12
2.16344e-12
2.16349e-12
2.16354e-12
2.16359e-12
2.16364e-12
2.16368e-12
2.16315e-12
2.16319e-12
2.16324e-12
2.16328e-12
2.16332e-12
2.16337e-12
2.16342e-12
2.16346e-12
2.16351e-12
2.16356e-12
2.16361e-12
2.16365e-12
2.1637e-12
2.16375e-12
2.16322e-12
2.16326e-12
2.1633e-12
2.16335e-12
2.16339e-12
2.16344e-12
2.16348e-12
2.16353e-12
2.16358e-12
2.16362e-12
2.16367e-12
2.16372e-12
2.16376e-12
2.16381e-12
2.16328e-12
2.16332e-12
2.16337e-12
2.16341e-12
2.16346e-12
2.1635e-12
2.16355e-12
2.16359e-12
2.16364e-12
2.16369e-12
2.16373e-12
2.16378e-12
2.16383e-12
2.16387e-12
2.16334e-12
2.16339e-12
2.16343e-12
2.16348e-12
2.16352e-12
2.16357e-12
2.16361e-12
2.16366e-12
2.16371e-12
2.16375e-12
2.1638e-12
2.16384e-12
2.16389e-12
2.16393e-12
2.16341e-12
2.16345e-12
2.1635e-12
2.16354e-12
2.16359e-12
2.16363e-12
2.16368e-12
2.16373e-12
2.16377e-12
2.16382e-12
2.16387e-12
2.16391e-12
2.16395e-12
2.164e-12
2.16347e-12
2.16352e-12
2.16356e-12
2.1636e-12
2.16365e-12
2.1637e-12
2.16375e-12
2.16379e-12
2.16384e-12
2.16389e-12
2.16393e-12
2.16397e-12
2.16402e-12
2.16406e-12
2.16354e-12
2.16358e-12
2.16362e-12
2.16367e-12
2.16372e-12
2.16376e-12
2.16381e-12
2.16386e-12
2.16391e-12
2.16395e-12
2.16399e-12
2.16404e-12
2.16409e-12
2.16414e-12
2.15924e-12
2.15925e-12
2.15927e-12
2.15928e-12
2.1593e-12
2.15932e-12
2.15934e-12
2.15936e-12
2.15938e-12
2.15941e-12
2.15943e-12
2.15946e-12
2.15949e-12
2.15953e-12
2.15928e-12
2.15929e-12
2.15931e-12
2.15933e-12
2.15934e-12
2.15936e-12
2.15938e-12
2.15941e-12
2.15943e-12
2.15946e-12
2.15948e-12
2.15951e-12
2.15955e-12
2.15959e-12
2.15933e-12
2.15934e-12
2.15935e-12
2.15937e-12
2.15939e-12
2.15941e-12
2.15943e-12
2.15945e-12
2.15948e-12
2.1595e-12
2.15953e-12
2.15956e-12
2.1596e-12
2.15963e-12
2.15937e-12
2.15939e-12
2.1594e-12
2.15942e-12
2.15944e-12
2.15946e-12
2.15948e-12
2.1595e-12
2.15953e-12
2.15956e-12
2.15958e-12
2.15962e-12
2.15965e-12
2.15969e-12
2.15942e-12
2.15944e-12
2.15945e-12
2.15947e-12
2.15949e-12
2.15951e-12
2.15953e-12
2.15955e-12
2.15958e-12
2.15961e-12
2.15964e-12
2.15967e-12
2.1597e-12
2.15974e-12
2.15948e-12
2.15949e-12
2.1595e-12
2.15952e-12
2.15954e-12
2.15956e-12
2.15958e-12
2.15961e-12
2.15963e-12
2.15966e-12
2.15969e-12
2.15972e-12
2.15975e-12
2.15979e-12
2.15953e-12
2.15954e-12
2.15956e-12
2.15958e-12
2.15959e-12
2.15961e-12
2.15964e-12
2.15966e-12
2.15969e-12
2.15971e-12
2.15974e-12
2.15977e-12
2.15981e-12
2.15984e-12
2.15958e-12
2.1596e-12
2.15961e-12
2.15963e-12
2.15965e-12
2.15967e-12
2.15969e-12
2.15972e-12
2.15974e-12
2.15977e-12
2.1598e-12
2.15983e-12
2.15986e-12
2.15989e-12
2.15964e-12
2.15966e-12
2.15967e-12
2.15969e-12
2.15971e-12
2.15973e-12
2.15975e-12
2.15978e-12
2.1598e-12
2.15983e-12
2.15986e-12
2.15989e-12
2.15992e-12
2.15995e-12
2.1597e-12
2.15972e-12
2.15973e-12
2.15975e-12
2.15977e-12
2.15979e-12
2.15981e-12
2.15984e-12
2.15986e-12
2.15989e-12
2.15992e-12
2.15995e-12
2.15998e-12
2.16e-12
2.15976e-12
2.15978e-12
2.15979e-12
2.15981e-12
2.15983e-12
2.15985e-12
2.15988e-12
2.1599e-12
2.15993e-12
2.15995e-12
2.15998e-12
2.16e-12
2.16003e-12
2.16006e-12
2.15982e-12
2.15984e-12
2.15986e-12
2.15988e-12
2.1599e-12
2.15992e-12
2.15994e-12
2.15997e-12
2.15999e-12
2.16001e-12
2.16004e-12
2.16007e-12
2.16009e-12
2.16012e-12
2.15988e-12
2.1599e-12
2.15992e-12
2.15994e-12
2.15996e-12
2.15998e-12
2.16001e-12
2.16003e-12
2.16005e-12
2.16008e-12
2.1601e-12
2.16013e-12
2.16015e-12
2.16018e-12
2.15995e-12
2.15997e-12
2.15999e-12
2.16001e-12
2.16003e-12
2.16005e-12
2.16007e-12
2.1601e-12
2.16012e-12
2.16014e-12
2.16017e-12
2.16019e-12
2.16022e-12
2.16025e-12
2.15603e-12
2.15603e-12
2.15603e-12
2.15603e-12
2.15603e-12
2.15603e-12
2.15603e-12
2.15604e-12
2.15604e-12
2.15605e-12
2.15605e-12
2.15606e-12
2.15607e-12
2.15609e-12
2.15606e-12
2.15605e-12
2.15605e-12
2.15605e-12
2.15605e-12
2.15605e-12
2.15606e-12
2.15606e-12
2.15606e-12
2.15607e-12
2.15608e-12
2.15609e-12
2.1561e-12
2.15612e-12
2.15608e-12
2.15607e-12
2.15607e-12
2.15607e-12
2.15607e-12
2.15607e-12
2.15608e-12
2.15608e-12
2.15609e-12
2.1561e-12
2.15611e-12
2.15612e-12
2.15613e-12
2.15615e-12
2.15611e-12
2.1561e-12
2.1561e-12
2.1561e-12
2.1561e-12
2.1561e-12
2.1561e-12
2.15611e-12
2.15611e-12
2.15612e-12
2.15613e-12
2.15614e-12
2.15616e-12
2.15618e-12
2.15614e-12
2.15613e-12
2.15613e-12
2.15613e-12
2.15613e-12
2.15613e-12
2.15613e-12
2.15614e-12
2.15614e-12
2.15615e-12
2.15616e-12
2.15617e-12
2.15619e-12
2.15621e-12
2.15617e-12
2.15616e-12
2.15616e-12
2.15616e-12
2.15616e-12
2.15616e-12
2.15616e-12
2.15616e-12
2.15617e-12
2.15618e-12
2.15619e-12
2.1562e-12
2.15622e-12
2.15624e-12
2.1562e-12
2.1562e-12
2.15619e-12
2.15619e-12
2.15619e-12
2.15619e-12
2.15619e-12
2.1562e-12
2.1562e-12
2.15621e-12
2.15622e-12
2.15624e-12
2.15625e-12
2.15627e-12
2.15624e-12
2.15623e-12
2.15623e-12
2.15622e-12
2.15622e-12
2.15622e-12
2.15623e-12
2.15623e-12
2.15624e-12
2.15625e-12
2.15626e-12
2.15627e-12
2.15629e-12
2.1563e-12
2.15627e-12
2.15627e-12
2.15626e-12
2.15626e-12
2.15626e-12
2.15626e-12
2.15626e-12
2.15627e-12
2.15628e-12
2.15628e-12
2.1563e-12
2.15631e-12
2.15632e-12
2.15634e-12
2.15631e-12
2.15631e-12
2.1563e-12
2.1563e-12
2.1563e-12
2.1563e-12
2.1563e-12
2.15631e-12
2.15632e-12
2.15632e-12
2.15633e-12
2.15634e-12
2.15636e-12
2.15637e-12
2.15635e-12
2.15635e-12
2.15635e-12
2.15634e-12
2.15634e-12
2.15634e-12
2.15635e-12
2.15635e-12
2.15636e-12
2.15636e-12
2.15637e-12
2.15638e-12
2.1564e-12
2.1564e-12
2.15639e-12
2.15639e-12
2.15639e-12
2.15639e-12
2.15639e-12
2.15639e-12
2.15639e-12
2.15639e-12
2.1564e-12
2.15641e-12
2.15642e-12
2.15642e-12
2.15643e-12
2.15644e-12
2.15644e-12
2.15644e-12
2.15643e-12
2.15643e-12
2.15643e-12
2.15643e-12
2.15644e-12
2.15644e-12
2.15644e-12
2.15645e-12
2.15646e-12
2.15647e-12
2.15647e-12
2.15648e-12
2.15649e-12
2.15648e-12
2.15648e-12
2.15648e-12
2.15648e-12
2.15648e-12
2.15648e-12
2.15649e-12
2.15649e-12
2.1565e-12
2.1565e-12
2.15651e-12
2.15652e-12
2.15652e-12
2.15312e-12
2.15311e-12
2.1531e-12
2.15309e-12
2.15309e-12
2.15308e-12
2.15307e-12
2.15307e-12
2.15306e-12
2.15306e-12
2.15305e-12
2.15305e-12
2.15304e-12
2.15304e-12
2.15312e-12
2.15311e-12
2.15311e-12
2.1531e-12
2.15309e-12
2.15308e-12
2.15308e-12
2.15307e-12
2.15307e-12
2.15306e-12
2.15306e-12
2.15305e-12
2.15305e-12
2.15305e-12
2.15313e-12
2.15312e-12
2.15311e-12
2.15311e-12
2.1531e-12
2.15309e-12
2.15308e-12
2.15308e-12
2.15307e-12
2.15307e-12
2.15306e-12
2.15306e-12
2.15306e-12
2.15306e-12
2.15314e-12
2.15313e-12
2.15312e-12
2.15311e-12
2.15311e-12
2.1531e-12
2.15309e-12
2.15309e-12
2.15308e-12
2.15308e-12
2.15307e-12
2.15307e-12
2.15307e-12
2.15307e-12
2.15315e-12
2.15314e-12
2.15313e-12
2.15312e-12
2.15312e-12
2.15311e-12
2.1531e-12
2.1531e-12
2.15309e-12
2.15309e-12
2.15308e-12
2.15308e-12
2.15308e-12
2.15308e-12
2.15316e-12
2.15315e-12
2.15314e-12
2.15313e-12
2.15313e-12
2.15312e-12
2.15311e-12
2.15311e-12
2.1531e-12
2.1531e-12
2.15309e-12
2.15309e-12
2.15309e-12
2.15309e-12
2.15318e-12
2.15317e-12
2.15316e-12
2.15315e-12
2.15314e-12
2.15313e-12
2.15312e-12
2.15312e-12
2.15311e-12
2.15311e-12
2.15311e-12
2.1531e-12
2.1531e-12
2.1531e-12
2.15319e-12
2.15318e-12
2.15317e-12
2.15316e-12
2.15315e-12
2.15314e-12
2.15314e-12
2.15313e-12
2.15313e-12
2.15312e-12
2.15312e-12
2.15312e-12
2.15312e-12
2.15312e-12
2.15321e-12
2.1532e-12
2.15318e-12
2.15318e-12
2.15317e-12
2.15316e-12
2.15315e-12
2.15314e-12
2.15314e-12
2.15314e-12
2.15313e-12
2.15313e-12
2.15313e-12
2.15313e-12
2.15322e-12
2.15321e-12
2.1532e-12
2.15319e-12
2.15318e-12
2.15317e-12
2.15317e-12
2.15316e-12
2.15316e-12
2.15315e-12
2.15315e-12
2.15315e-12
2.15315e-12
2.15314e-12
2.15324e-12
2.15323e-12
2.15322e-12
2.15321e-12
2.1532e-12
2.15319e-12
2.15318e-12
2.15318e-12
2.15317e-12
2.15317e-12
2.15316e-12
2.15316e-12
2.15316e-12
2.15316e-12
2.15326e-12
2.15325e-12
2.15324e-12
2.15323e-12
2.15322e-12
2.15321e-12
2.1532e-12
2.15319e-12
2.15319e-12
2.15318e-12
2.15318e-12
2.15318e-12
2.15318e-12
2.15317e-12
2.15327e-12
2.15326e-12
2.15326e-12
2.15325e-12
2.15324e-12
2.15323e-12
2.15322e-12
2.15321e-12
2.15321e-12
2.1532e-12
2.1532e-12
2.15319e-12
2.15319e-12
2.15319e-12
2.1533e-12
2.15328e-12
2.15327e-12
2.15326e-12
2.15326e-12
2.15325e-12
2.15324e-12
2.15323e-12
2.15323e-12
2.15322e-12
2.15321e-12
2.15321e-12
2.15321e-12
2.15321e-12
2.15046e-12
2.15045e-12
2.15045e-12
2.15044e-12
2.15044e-12
2.15043e-12
2.15042e-12
2.15041e-12
2.15041e-12
2.1504e-12
2.15039e-12
2.15038e-12
2.15037e-12
2.15035e-12
2.15046e-12
2.15046e-12
2.15045e-12
2.15044e-12
2.15044e-12
2.15043e-12
2.15042e-12
2.15041e-12
2.15041e-12
2.1504e-12
2.15039e-12
2.15038e-12
2.15036e-12
2.15035e-12
2.15046e-12
2.15046e-12
2.15045e-12
2.15045e-12
2.15044e-12
2.15043e-12
2.15042e-12
2.15042e-12
2.15041e-12
2.1504e-12
2.15039e-12
2.15038e-12
2.15036e-12
2.15035e-12
2.15047e-12
2.15046e-12
2.15045e-12
2.15045e-12
2.15044e-12
2.15043e-12
2.15042e-12
2.15042e-12
2.15041e-12
2.1504e-12
2.15039e-12
2.15038e-12
2.15036e-12
2.15035e-12
2.15047e-12
2.15046e-12
2.15046e-12
2.15045e-12
2.15044e-12
2.15043e-12
2.15043e-12
2.15042e-12
2.15041e-12
2.1504e-12
2.15039e-12
2.15038e-12
2.15036e-12
2.15035e-12
2.15047e-12
2.15046e-12
2.15046e-12
2.15045e-12
2.15044e-12
2.15043e-12
2.15043e-12
2.15042e-12
2.15041e-12
2.1504e-12
2.15039e-12
2.15038e-12
2.15036e-12
2.15035e-12
2.15047e-12
2.15046e-12
2.15046e-12
2.15045e-12
2.15044e-12
2.15043e-12
2.15043e-12
2.15042e-12
2.15041e-12
2.1504e-12
2.15039e-12
2.15038e-12
2.15036e-12
2.15035e-12
2.15047e-12
2.15046e-12
2.15046e-12
2.15045e-12
2.15044e-12
2.15043e-12
2.15042e-12
2.15042e-12
2.15041e-12
2.1504e-12
2.15039e-12
2.15038e-12
2.15036e-12
2.15035e-12
2.15047e-12
2.15046e-12
2.15045e-12
2.15045e-12
2.15044e-12
2.15043e-12
2.15042e-12
2.15042e-12
2.15041e-12
2.1504e-12
2.15039e-12
2.15038e-12
2.15036e-12
2.15035e-12
2.15047e-12
2.15046e-12
2.15045e-12
2.15045e-12
2.15044e-12
2.15043e-12
2.15042e-12
2.15041e-12
2.1504e-12
2.15039e-12
2.15038e-12
2.15037e-12
2.15036e-12
2.15035e-12
2.15046e-12
2.15046e-12
2.15045e-12
2.15044e-12
2.15044e-12
2.15043e-12
2.15042e-12
2.15041e-12
2.1504e-12
2.15039e-12
2.15038e-12
2.15037e-12
2.15036e-12
2.15035e-12
2.15046e-12
2.15046e-12
2.15045e-12
2.15044e-12
2.15043e-12
2.15043e-12
2.15042e-12
2.15041e-12
2.1504e-12
2.15039e-12
2.15038e-12
2.15037e-12
2.15036e-12
2.15035e-12
2.15046e-12
2.15046e-12
2.15045e-12
2.15044e-12
2.15043e-12
2.15042e-12
2.15041e-12
2.15041e-12
2.1504e-12
2.15039e-12
2.15038e-12
2.15037e-12
2.15036e-12
2.15035e-12
2.15046e-12
2.15045e-12
2.15044e-12
2.15044e-12
2.15043e-12
2.15042e-12
2.15041e-12
2.1504e-12
2.15039e-12
2.15038e-12
2.15037e-12
2.15036e-12
2.15035e-12
2.15035e-12
2.14804e-12
2.14804e-12
2.14804e-12
2.14803e-12
2.14803e-12
2.14803e-12
2.14803e-12
2.14802e-12
2.14801e-12
2.14801e-12
2.148e-12
2.14798e-12
2.14797e-12
2.14795e-12
2.14804e-12
2.14804e-12
2.14804e-12
2.14804e-12
2.14804e-12
2.14804e-12
2.14803e-12
2.14802e-12
2.14802e-12
2.14801e-12
2.148e-12
2.14798e-12
2.14797e-12
2.14795e-12
2.14804e-12
2.14804e-12
2.14804e-12
2.14804e-12
2.14804e-12
2.14804e-12
2.14803e-12
2.14803e-12
2.14802e-12
2.14801e-12
2.148e-12
2.14798e-12
2.14797e-12
2.14795e-12
2.14804e-12
2.14805e-12
2.14805e-12
2.14805e-12
2.14805e-12
2.14804e-12
2.14804e-12
2.14803e-12
2.14802e-12
2.14801e-12
2.148e-12
2.14799e-12
2.14797e-12
2.14795e-12
2.14804e-12
2.14805e-12
2.14805e-12
2.14805e-12
2.14805e-12
2.14804e-12
2.14804e-12
2.14803e-12
2.14802e-12
2.14801e-12
2.148e-12
2.14798e-12
2.14797e-12
2.14795e-12
2.14804e-12
2.14804e-12
2.14805e-12
2.14805e-12
2.14804e-12
2.14804e-12
2.14804e-12
2.14803e-12
2.14802e-12
2.14801e-12
2.148e-12
2.14798e-12
2.14797e-12
2.14795e-12
2.14804e-12
2.14804e-12
2.14804e-12
2.14804e-12
2.14804e-12
2.14804e-12
2.14803e-12
2.14802e-12
2.14802e-12
2.148e-12
2.14799e-12
2.14798e-12
2.14796e-12
2.14795e-12
2.14803e-12
2.14803e-12
2.14804e-12
2.14804e-12
2.14803e-12
2.14803e-12
2.14803e-12
2.14802e-12
2.14801e-12
2.148e-12
2.14799e-12
2.14797e-12
2.14796e-12
2.14794e-12
2.14802e-12
2.14803e-12
2.14803e-12
2.14803e-12
2.14803e-12
2.14802e-12
2.14802e-12
2.14801e-12
2.148e-12
2.14799e-12
2.14798e-12
2.14797e-12
2.14795e-12
2.14794e-12
2.14801e-12
2.14802e-12
2.14802e-12
2.14802e-12
2.14802e-12
2.14801e-12
2.14801e-12
2.148e-12
2.14799e-12
2.14798e-12
2.14797e-12
2.14796e-12
2.14794e-12
2.14793e-12
2.148e-12
2.14801e-12
2.14801e-12
2.14801e-12
2.14801e-12
2.148e-12
2.148e-12
2.14799e-12
2.14798e-12
2.14797e-12
2.14796e-12
2.14795e-12
2.14793e-12
2.14792e-12
2.14799e-12
2.14799e-12
2.148e-12
2.148e-12
2.14799e-12
2.14799e-12
2.14798e-12
2.14798e-12
2.14797e-12
2.14796e-12
2.14795e-12
2.14794e-12
2.14792e-12
2.14791e-12
2.14798e-12
2.14798e-12
2.14798e-12
2.14798e-12
2.14798e-12
2.14798e-12
2.14797e-12
2.14796e-12
2.14795e-12
2.14794e-12
2.14793e-12
2.14792e-12
2.14791e-12
2.1479e-12
2.14797e-12
2.14797e-12
2.14797e-12
2.14797e-12
2.14796e-12
2.14796e-12
2.14795e-12
2.14795e-12
2.14794e-12
2.14793e-12
2.14792e-12
2.14791e-12
2.1479e-12
2.14788e-12
2.14581e-12
2.14582e-12
2.14583e-12
2.14583e-12
2.14583e-12
2.14584e-12
2.14584e-12
2.14583e-12
2.14583e-12
2.14582e-12
2.14581e-12
2.1458e-12
2.14579e-12
2.14577e-12
2.14582e-12
2.14583e-12
2.14584e-12
2.14584e-12
2.14585e-12
2.14585e-12
2.14585e-12
2.14584e-12
2.14584e-12
2.14583e-12
2.14582e-12
2.14581e-12
2.14579e-12
2.14578e-12
2.14583e-12
2.14584e-12
2.14584e-12
2.14585e-12
2.14585e-12
2.14586e-12
2.14586e-12
2.14585e-12
2.14585e-12
2.14584e-12
2.14583e-12
2.14581e-12
2.1458e-12
2.14578e-12
2.14583e-12
2.14584e-12
2.14585e-12
2.14586e-12
2.14586e-12
2.14586e-12
2.14586e-12
2.14586e-12
2.14585e-12
2.14584e-12
2.14583e-12
2.14582e-12
2.1458e-12
2.14579e-12
2.14584e-12
2.14584e-12
2.14585e-12
2.14586e-12
2.14586e-12
2.14587e-12
2.14586e-12
2.14586e-12
2.14585e-12
2.14585e-12
2.14584e-12
2.14582e-12
2.14581e-12
2.14579e-12
2.14583e-12
2.14585e-12
2.14585e-12
2.14586e-12
2.14586e-12
2.14587e-12
2.14587e-12
2.14586e-12
2.14586e-12
2.14585e-12
2.14584e-12
2.14582e-12
2.14581e-12
2.14579e-12
2.14583e-12
2.14584e-12
2.14585e-12
2.14586e-12
2.14586e-12
2.14586e-12
2.14586e-12
2.14586e-12
2.14585e-12
2.14584e-12
2.14583e-12
2.14582e-12
2.1458e-12
2.14579e-12
2.14583e-12
2.14584e-12
2.14585e-12
2.14585e-12
2.14586e-12
2.14586e-12
2.14586e-12
2.14585e-12
2.14585e-12
2.14584e-12
2.14583e-12
2.14582e-12
2.1458e-12
2.14578e-12
2.14582e-12
2.14583e-12
2.14584e-12
2.14585e-12
2.14585e-12
2.14585e-12
2.14585e-12
2.14585e-12
2.14584e-12
2.14583e-12
2.14582e-12
2.14581e-12
2.14579e-12
2.14578e-12
2.14581e-12
2.14582e-12
2.14583e-12
2.14584e-12
2.14584e-12
2.14584e-12
2.14584e-12
2.14584e-12
2.14583e-12
2.14582e-12
2.14581e-12
2.1458e-12
2.14578e-12
2.14577e-12
2.1458e-12
2.14581e-12
2.14582e-12
2.14582e-12
2.14583e-12
2.14583e-12
2.14583e-12
2.14582e-12
2.14582e-12
2.14581e-12
2.1458e-12
2.14579e-12
2.14577e-12
2.14576e-12
2.14578e-12
2.14579e-12
2.1458e-12
2.14581e-12
2.14581e-12
2.14581e-12
2.14581e-12
2.14581e-12
2.1458e-12
2.1458e-12
2.14579e-12
2.14577e-12
2.14576e-12
2.14575e-12
2.14577e-12
2.14578e-12
2.14579e-12
2.14579e-12
2.14579e-12
2.1458e-12
2.1458e-12
2.14579e-12
2.14579e-12
2.14578e-12
2.14577e-12
2.14576e-12
2.14574e-12
2.14573e-12
2.14575e-12
2.14576e-12
2.14577e-12
2.14577e-12
2.14578e-12
2.14578e-12
2.14578e-12
2.14577e-12
2.14577e-12
2.14576e-12
2.14575e-12
2.14574e-12
2.14573e-12
2.14572e-12
2.14377e-12
2.14378e-12
2.14379e-12
2.1438e-12
2.1438e-12
2.14381e-12
2.14381e-12
2.14381e-12
2.14381e-12
2.1438e-12
2.1438e-12
2.14379e-12
2.14377e-12
2.14376e-12
2.14378e-12
2.14379e-12
2.1438e-12
2.14381e-12
2.14382e-12
2.14382e-12
2.14382e-12
2.14382e-12
2.14382e-12
2.14382e-12
2.14381e-12
2.1438e-12
2.14379e-12
2.14377e-12
2.14379e-12
2.1438e-12
2.14381e-12
2.14382e-12
2.14383e-12
2.14383e-12
2.14384e-12
2.14384e-12
2.14383e-12
2.14383e-12
2.14382e-12
2.14381e-12
2.14379e-12
2.14378e-12
2.1438e-12
2.14381e-12
2.14382e-12
2.14383e-12
2.14384e-12
2.14384e-12
2.14385e-12
2.14384e-12
2.14384e-12
2.14384e-12
2.14383e-12
2.14382e-12
2.1438e-12
2.14379e-12
2.1438e-12
2.14381e-12
2.14383e-12
2.14384e-12
2.14384e-12
2.14385e-12
2.14385e-12
2.14385e-12
2.14385e-12
2.14384e-12
2.14383e-12