/*--------------------------------*- C++ -*----------------------------------*\
| =========                 |                                                 |
| \\      /  F ield         | OpenFOAM: The Open Source CFD Toolbox           |
|  \\    /   O peration     | Version:  v2106                                 |
|   \\  /    A nd           | Website:  www.openfoam.com                      |
|    \\/     M anipulation  |                                                 |
\*---------------------------------------------------------------------------*/
FoamFile
{
    version     2.0;
    format      ascii;
    arch        "LSB;label=32;scalar=64";
    class       volScalarField;
    location    "0.0002";
    object      p;
}
// * * * * * * * * * * * * * * * * * * * * * * * * * * * * * * * * * * * * * //

dimensions      [1 -1 -2 0 0 0 0];

internalField   nonuniform List<scalar> 
17920
(
236124
236089
236084
236051
236047
236014
236004
235972
235962
235931
235917
235886
235870
235840
235821
235792
235770
235744
235718
235694
235666
235644
235612
235592
235558
235540
235506
235488
235751
235744
235734
235723
235711
235697
235682
235665
235647
235628
235608
235587
235566
235541
235704
235701
235691
235681
235669
235655
235640
235623
235604
235585
235565
235543
235523
235498
235661
235659
235648
235638
235625
235611
235595
235579
235561
235542
235523
235503
235483
235460
235616
235613
235602
235592
235580
235566
235550
235533
235516
235498
235479
235459
235440
235418
235572
235567
235557
235546
235533
235519
235503
235487
235470
235452
235434
235415
235396
235375
235527
235520
235509
235498
235485
235471
235455
235440
235423
235405
235387
235369
235351
235331
235481
235472
235461
235449
235436
235422
235407
235391
235375
235358
235340
235322
235305
235286
235433
235423
235412
235400
235386
235372
235357
235342
235326
235309
235292
235275
235257
235240
235386
235374
235362
235350
235336
235322
235307
235292
235276
235260
235243
235227
235210
235195
235337
235323
235312
235299
235286
235272
235257
235242
235226
235210
235194
235178
235161
235148
235289
235273
235262
235249
235235
235221
235206
235191
235175
235160
235144
235129
235112
235102
235239
235222
235211
235198
235184
235170
235156
235140
235125
235109
235094
235080
235063
235055
235192
235175
235162
235149
235135
235120
235105
235090
235074
235059
235044
235030
235015
235010
235140
235124
235110
235097
235083
235069
235055
235040
235024
235009
234995
234981
234968
234961
234884
234886
234885
234885
234884
234882
234880
234877
234872
234867
234861
234854
234846
234839
234849
234852
234852
234851
234850
234849
234846
234843
234839
234834
234827
234820
234812
234803
234817
234820
234818
234818
234816
234814
234812
234808
234804
234799
234793
234786
234779
234770
234783
234785
234784
234783
234782
234780
234777
234773
234769
234765
234759
234752
234746
234736
234749
234750
234749
234748
234746
234744
234741
234738
234734
234729
234724
234718
234712
234703
234714
234714
234713
234712
234710
234708
234705
234702
234698
234693
234689
234683
234677
234670
234678
234678
234677
234676
234674
234671
234669
234665
234662
234658
234653
234648
234643
234637
234641
234640
234640
234639
234637
234634
234632
234629
234625
234621
234617
234613
234607
234603
234605
234603
234602
234601
234599
234597
234595
234592
234589
234585
234581
234577
234572
234570
234569
234565
234565
234563
234562
234560
234557
234555
234552
234548
234545
234541
234536
234536
234533
234528
234527
234525
234524
234522
234520
234518
234515
234512
234508
234505
234501
234503
234496
234490
234490
234488
234487
234485
234483
234480
234478
234475
234472
234469
234465
234468
234461
234454
234453
234452
234450
234448
234446
234444
234441
234439
234436
234434
234431
234436
234423
234418
234416
234415
234413
234411
234409
234407
234405
234403
234401
234398
234396
234399
233922
233931
233939
233947
233956
233964
233972
233980
233987
233994
233999
234005
234010
234013
233906
233915
233922
233931
233939
233948
233956
233963
233970
233977
233982
233987
233992
233994
233890
233899
233906
233914
233922
233930
233938
233946
233953
233959
233965
233970
233974
233976
233873
233882
233889
233898
233905
233913
233921
233928
233935
233941
233947
233952
233956
233958
233856
233865
233872
233880
233888
233895
233903
233910
233917
233924
233929
233934
233939
233941
233838
233846
233854
233862
233870
233878
233885
233892
233899
233905
233911
233916
233921
233924
233819
233827
233835
233843
233851
233859
233867
233874
233881
233887
233893
233898
233903
233907
233800
233808
233816
233825
233833
233840
233848
233855
233862
233869
233875
233880
233885
233890
233781
233789
233797
233805
233814
233821
233829
233836
233843
233850
233856
233862
233867
233873
233762
233769
233778
233786
233794
233802
233810
233817
233824
233831
233838
233844
233849
233856
233742
233750
233759
233767
233775
233783
233790
233798
233805
233812
233819
233826
233832
233839
233723
233730
233739
233747
233755
233763
233771
233779
233786
233793
233801
233807
233814
233822
233704
233711
233719
233727
233735
233744
233751
233759
233767
233775
233782
233789
233796
233805
233686
233693
233701
233709
233716
233724
233732
233739
233747
233755
233762
233770
233778
233786
232951
232963
232975
232988
233000
233013
233026
233039
233052
233065
233077
233089
233101
233112
232949
232962
232974
232986
232999
233013
233026
233039
233052
233065
233077
233089
233100
233111
232949
232961
232974
232986
232999
233012
233026
233039
233051
233064
233076
233088
233098
233109
232948
232961
232973
232986
232999
233012
233025
233038
233051
233063
233075
233086
233097
233107
232947
232960
232972
232985
232999
233012
233025
233038
233050
233062
233074
233085
233096
233106
232946
232958
232971
232984
232998
233011
233024
233037
233049
233061
233073
233084
233094
233104
232944
232957
232970
232983
232996
233010
233023
233036
233048
233060
233072
233083
233093
233103
232942
232955
232968
232981
232995
233008
233021
233034
233047
233059
233070
233081
233092
233101
232939
232953
232966
232979
232993
233006
233019
233032
233045
233057
233068
233079
233090
233100
232937
232950
232963
232977
232990
233004
233017
233030
233042
233054
233066
233077
233088
233098
232934
232947
232960
232974
232987
233001
233014
233027
233040
233052
233064
233075
233087
233097
232931
232944
232957
232971
232984
232998
233011
233024
233037
233049
233061
233073
233084
233095
232928
232941
232953
232967
232980
232994
233007
233021
233034
233047
233059
233071
233082
233094
232925
232939
232952
232965
232978
232991
233004
233017
233029
233042
233055
233067
233079
233092
232015
232025
232037
232048
232060
232073
232085
232098
232111
232124
232138
232151
232164
232178
232023
232033
232045
232057
232070
232083
232096
232109
232122
232136
232149
232162
232175
232188
232033
232043
232055
232068
232081
232093
232107
232120
232133
232146
232158
232171
232184
232197
232041
232053
232065
232078
232091
232104
232117
232130
232143
232156
232169
232182
232194
232207
232051
232062
232075
232088
232101
232114
232127
232140
232153
232166
232179
232191
232203
232216
232060
232072
232085
232098
232111
232124
232138
232151
232164
232177
232189
232201
232213
232225
232069
232081
232094
232108
232121
232134
232148
232161
232174
232186
232199
232211
232223
232234
232078
232091
232104
232117
232131
232144
232157
232171
232184
232196
232209
232221
232232
232243
232087
232100
232113
232126
232140
232153
232167
232180
232193
232206
232218
232230
232242
232252
232096
232109
232122
232136
232149
232162
232176
232189
232202
232215
232227
232239
232251
232261
232104
232118
232130
232144
232157
232171
232185
232198
232211
232224
232236
232248
232260
232270
232113
232126
232139
232153
232166
232180
232193
232206
232219
232232
232245
232256
232269
232279
232120
232134
232147
232160
232174
232188
232201
232215
232228
232241
232253
232265
232277
232289
232129
232143
232156
232169
232182
232196
232209
232222
232236
232248
232261
232273
232286
232298
231134
231140
231148
231156
231164
231173
231181
231191
231200
231210
231220
231230
231241
231253
231145
231151
231160
231168
231176
231185
231194
231204
231214
231224
231234
231245
231255
231267
231157
231164
231172
231180
231189
231198
231208
231217
231227
231237
231247
231257
231268
231280
231169
231176
231185
231193
231202
231211
231221
231230
231240
231250
231261
231271
231281
231293
231181
231189
231198
231206
231215
231225
231234
231244
231254
231264
231274
231284
231294
231306
231194
231202
231211
231220
231229
231238
231248
231257
231267
231277
231287
231298
231308
231319
231207
231215
231224
231233
231242
231252
231261
231271
231281
231291
231301
231311
231321
231331
231220
231229
231238
231247
231256
231265
231275
231285
231295
231305
231315
231324
231335
231344
231233
231242
231251
231260
231270
231279
231289
231299
231309
231318
231328
231338
231348
231357
231247
231256
231265
231274
231283
231293
231303
231313
231322
231332
231342
231351
231361
231370
231260
231270
231278
231288
231297
231307
231317
231327
231336
231346
231356
231365
231375
231382
231274
231283
231292
231302
231311
231321
231331
231341
231350
231360
231369
231378
231388
231396
231287
231296
231305
231315
231325
231335
231345
231355
231364
231374
231383
231392
231401
231410
231301
231311
231320
231329
231339
231349
231358
231368
231378
231387
231396
231406
231415
231425
230318
230320
230324
230327
230330
230334
230338
230343
230347
230352
230358
230364
230370
230378
230327
230329
230332
230336
230339
230343
230348
230352
230357
230363
230369
230375
230382
230390
230336
230338
230342
230345
230349
230353
230357
230362
230367
230373
230379
230385
230392
230400
230346
230348
230352
230355
230359
230363
230368
230372
230378
230383
230390
230396
230403
230411
230356
230359
230362
230365
230369
230374
230378
230383
230388
230394
230400
230407
230414
230422
230367
230370
230373
230376
230380
230385
230389
230394
230399
230405
230411
230418
230425
230432
230378
230381
230384
230388
230392
230396
230401
230405
230411
230417
230423
230429
230436
230443
230390
230393
230396
230400
230404
230408
230412
230417
230423
230428
230435
230441
230448
230454
230402
230405
230408
230412
230416
230420
230425
230430
230435
230441
230447
230453
230459
230465
230414
230418
230421
230425
230429
230433
230438
230443
230448
230453
230459
230465
230471
230477
230427
230431
230434
230438
230442
230446
230451
230456
230461
230466
230472
230477
230484
230488
230440
230444
230447
230451
230455
230460
230464
230469
230474
230479
230485
230490
230496
230500
230453
230457
230460
230465
230469
230474
230478
230483
230488
230493
230498
230503
230509
230513
230467
230471
230474
230478
230483
230487
230492
230497
230502
230507
230511
230516
230522
230527
229570
229570
229569
229570
229570
229570
229570
229571
229572
229573
229574
229576
229578
229581
229575
229574
229574
229574
229574
229574
229575
229576
229577
229578
229580
229582
229584
229588
229580
229579
229579
229579
229579
229579
229579
229580
229581
229583
229585
229587
229590
229593
229586
229585
229584
229584
229584
229584
229585
229586
229587
229589
229591
229593
229596
229600
229592
229591
229590
229590
229590
229590
229590
229591
229593
229594
229597
229599
229602
229606
229598
229597
229596
229596
229596
229596
229596
229597
229599
229601
229603
229606
229609
229612
229605
229604
229603
229603
229603
229603
229603
229604
229606
229607
229610
229612
229615
229619
229613
229612
229611
229610
229610
229610
229610
229611
229613
229615
229617
229619
229622
229626
229620
229620
229619
229618
229618
229618
229618
229619
229620
229622
229624
229627
229630
229633
229628
229628
229627
229626
229626
229626
229627
229627
229629
229630
229632
229635
229637
229640
229636
229636
229635
229635
229635
229635
229635
229636
229637
229639
229641
229643
229645
229647
229645
229645
229644
229644
229644
229644
229644
229645
229646
229648
229649
229651
229654
229655
229654
229654
229654
229654
229653
229654
229654
229655
229656
229657
229659
229660
229662
229663
229664
229664
229663
229663
229663
229663
229664
229664
229665
229666
229668
229669
229671
229671
228888
228887
228885
228884
228883
228881
228880
228879
228878
228876
228875
228874
228873
228872
228890
228889
228887
228885
228884
228882
228881
228880
228879
228878
228877
228876
228875
228874
228892
228890
228888
228887
228885
228884
228882
228881
228880
228879
228878
228877
228877
228876
228894
228892
228890
228889
228887
228885
228884
228883
228882
228881
228880
228879
228879
228878
228897
228894
228892
228891
228889
228887
228886
228885
228884
228883
228882
228881
228881
228881
228899
228897
228895
228893
228891
228889
228888
228887
228886
228885
228884
228883
228883
228883
228902
228900
228897
228895
228894
228892
228890
228889
228888
228887
228887
228886
228886
228886
228905
228902
228900
228898
228896
228895
228893
228892
228891
228890
228889
228889
228889
228888
228908
228906
228903
228901
228899
228898
228896
228895
228894
228893
228892
228892
228891
228891
228911
228909
228907
228904
228903
228901
228899
228898
228897
228896
228895
228895
228894
228894
228914
228912
228910
228908
228906
228904
228903
228901
228900
228899
228898
228898
228897
228897
228918
228916
228914
228912
228910
228908
228906
228905
228904
228903
228902
228901
228901
228900
228922
228920
228918
228916
228914
228912
228910
228909
228907
228906
228905
228904
228904
228903
228926
228923
228921
228919
228918
228916
228914
228913
228911
228910
228909
228908
228907
228906
228267
228266
228265
228263
228262
228261
228259
228258
228256
228254
228252
228250
228247
228244
228268
228267
228266
228264
228263
228261
228260
228258
228256
228254
228252
228250
228247
228244
228268
228267
228266
228265
228263
228262
228260
228258
228256
228254
228252
228250
228247
228244
228269
228268
228266
228265
228264
228262
228260
228259
228257
228254
228252
228250
228247
228244
228269
228268
228267
228265
228264
228262
228261
228259
228257
228255
228252
228250
228247
228244
228269
228268
228267
228265
228264
228262
228261
228259
228257
228255
228252
228250
228247
228245
228269
228268
228267
228265
228264
228262
228261
228259
228257
228254
228252
228250
228247
228245
228269
228268
228267
228265
228264
228262
228260
228259
228256
228254
228252
228250
228247
228245
228269
228268
228266
228265
228263
228262
228260
228258
228256
228254
228252
228249
228247
228245
228268
228267
228266
228265
228263
228261
228260
228258
228256
228254
228251
228249
228247
228244
228268
228267
228265
228264
228262
228261
228259
228257
228255
228253
228251
228249
228246
228244
228267
228266
228265
228263
228262
228260
228258
228256
228254
228252
228250
228248
228246
228244
228267
228266
228264
228263
228261
228259
228258
228256
228254
228251
228249
228247
228245
228243
228266
228265
228263
228262
228260
228259
228257
228255
228253
228251
228248
228246
228244
228242
227698
227698
227698
227698
227698
227698
227697
227696
227694
227692
227690
227687
227684
227681
227699
227700
227700
227700
227700
227699
227698
227697
227695
227693
227690
227688
227685
227681
227700
227700
227701
227701
227700
227700
227699
227697
227696
227693
227691
227688
227685
227681
227700
227701
227701
227701
227701
227700
227699
227698
227696
227694
227691
227688
227685
227681
227700
227701
227701
227702
227701
227701
227700
227698
227696
227694
227691
227688
227685
227681
227700
227700
227701
227701
227701
227700
227699
227698
227696
227693
227691
227688
227684
227680
227699
227700
227700
227700
227700
227700
227698
227697
227695
227693
227690
227687
227683
227680
227697
227698
227699
227699
227699
227698
227697
227696
227694
227691
227689
227686
227682
227679
227696
227697
227697
227697
227697
227697
227696
227694
227692
227690
227687
227684
227681
227677
227694
227695
227695
227695
227695
227695
227694
227692
227690
227688
227685
227682
227679
227676
227692
227692
227693
227693
227693
227692
227691
227690
227688
227685
227683
227680
227677
227674
227689
227690
227690
227690
227690
227689
227688
227687
227685
227683
227680
227677
227674
227671
227686
227687
227687
227687
227687
227686
227685
227683
227681
227679
227677
227674
227671
227669
227683
227683
227684
227684
227683
227682
227681
227680
227678
227676
227673
227671
227668
227666
227175
227176
227178
227179
227180
227181
227181
227180
227179
227178
227176
227173
227170
227166
227177
227179
227180
227182
227183
227183
227183
227182
227181
227180
227177
227175
227172
227168
227178
227180
227182
227184
227185
227185
227185
227184
227183
227181
227179
227176
227173
227169
227180
227182
227184
227185
227186
227186
227186
227186
227184
227182
227180
227177
227174
227170
227180
227182
227184
227186
227187
227187
227187
227186
227185
227183
227181
227178
227174
227170
227180
227183
227185
227186
227187
227188
227187
227187
227185
227183
227181
227178
227174
227170
227180
227182
227184
227186
227187
227187
227187
227186
227185
227183
227181
227178
227174
227170
227178
227181
227183
227185
227186
227186
227186
227185
227184
227182
227180
227177
227173
227169
227177
227179
227182
227183
227184
227185
227184
227184
227182
227180
227178
227175
227172
227168
227175
227177
227179
227181
227182
227182
227182
227181
227180
227178
227176
227173
227170
227166
227172
227175
227177
227178
227179
227180
227179
227179
227177
227176
227173
227170
227167
227164
227169
227171
227173
227175
227176
227176
227176
227175
227174
227172
227170
227167
227164
227161
227166
227168
227170
227171
227172
227172
227172
227171
227170
227168
227166
227164
227161
227158
227162
227164
227166
227167
227168
227168
227168
227167
227166
227164
227162
227160
227157
227154
226692
226694
226697
226699
226700
226701
226702
226702
226701
226700
226699
226696
226694
226691
226694
226697
226700
226702
226703
226704
226705
226705
226704
226703
226701
226699
226696
226693
226697
226700
226702
226704
226706
226707
226708
226708
226707
226706
226704
226702
226699
226695
226699
226702
226704
226707
226708
226709
226710
226710
226709
226708
226706
226704
226701
226697
226700
226703
226706
226708
226710
226711
226711
226711
226711
226709
226707
226705
226702
226698
226701
226704
226707
226709
226711
226712
226712
226712
226711
226710
226708
226706
226703
226699
226701
226704
226707
226709
226711
226712
226713
226713
226712
226711
226709
226706
226703
226699
226700
226704
226707
226709
226711
226712
226712
226712
226711
226710
226708
226706
226703
226699
226699
226703
226706
226708
226710
226711
226711
226711
226710
226709
226707
226705
226702
226698
226698
226701
226704
226706
226708
226709
226710
226710
226709
226708
226706
226703
226700
226697
226696
226699
226702
226704
226706
226707
226707
226707
226707
226705
226704
226701
226698
226695
226693
226696
226699
226701
226703
226704
226705
226704
226704
226703
226701
226699
226696
226693
226690
226693
226696
226698
226700
226701
226701
226701
226700
226699
226697
226695
226693
226690
226687
226690
226692
226694
226696
226697
226697
226697
226696
226695
226694
226692
226689
226686
226243
226246
226248
226250
226252
226253
226254
226254
226254
226253
226252
226250
226248
226246
226246
226249
226251
226253
226255
226256
226257
226257
226257
226256
226255
226253
226251
226249
226248
226251
226254
226256
226258
226259
226260
226260
226260
226259
226258
226256
226254
226251
226250
226253
226256
226258
226260
226261
226262
226262
226262
226261
226260
226258
226256
226253
226252
226255
226258
226260
226262
226263
226264
226264
226264
226263
226262
226260
226257
226255
226253
226256
226259
226261
226263
226264
226265
226266
226265
226264
226263
226261
226259
226256
226253
226257
226260
226262
226264
226265
226266
226266
226266
226265
226264
226262
226259
226256
226254
226257
226260
226262
226264
226265
226266
226266
226266
226265
226264
226262
226259
226256
226253
226257
226259
226262
226264
226265
226266
226266
226266
226265
226263
226262
226259
226256
226252
226256
226258
226261
226263
226264
226265
226265
226265
226264
226263
226261
226258
226255
226251
226254
226257
226259
226261
226262
226263
226264
226263
226262
226261
226259
226257
226254
226249
226252
226255
226257
226259
226260
226261
226262
226261
226261
226259
226257
226255
226252
226247
226250
226253
226255
226257
226258
226259
226259
226259
226258
226257
226255
226253
226250
226244
226247
226250
226252
226254
226255
226255
226256
226256
226255
226254
226252
226250
226248
225823
225826
225828
225829
225830
225831
225832
225832
225832
225831
225830
225829
225828
225826
225825
225828
225830
225831
225833
225834
225834
225835
225834
225834
225833
225832
225830
225829
225827
225830
225832
225834
225835
225836
225837
225837
225837
225836
225835
225834
225832
225831
225829
225831
225834
225835
225837
225838
225838
225839
225838
225838
225837
225836
225834
225833
225830
225833
225835
225837
225838
225839
225840
225840
225840
225839
225839
225837
225836
225834
225831
225834
225836
225838
225839
225840
225841
225841
225841
225841
225840
225838
225837
225835
225832
225834
225837
225838
225840
225841
225842
225842
225842
225841
225840
225839
225837
225835
225832
225835
225837
225839
225840
225841
225842
225842
225842
225842
225841
225839
225838
225835
225832
225835
225837
225839
225840
225841
225842
225842
225842
225841
225841
225839
225837
225835
225832
225834
225836
225838
225840
225841
225841
225842
225842
225841
225840
225839
225837
225835
225831
225833
225835
225837
225839
225840
225840
225841
225841
225840
225839
225838
225836
225834
225830
225832
225834
225836
225837
225838
225839
225840
225839
225839
225838
225837
225835
225833
225828
225830
225832
225834
225836
225837
225837
225838
225838
225837
225837
225835
225834
225831
225826
225829
225830
225832
225834
225835
225835
225836
225836
225836
225835
225834
225832
225830
225428
225430
225431
225432
225433
225433
225433
225433
225433
225433
225432
225432
225431
225430
225430
225431
225432
225433
225434
225434
225435
225435
225434
225434
225434
225433
225432
225432
225431
225432
225433
225434
225435
225435
225436
225436
225435
225435
225435
225434
225433
225433
225432
225433
225434
225435
225436
225436
225436
225436
225436
225436
225436
225435
225434
225434
225432
225434
225435
225436
225436
225437
225437
225437
225437
225437
225436
225436
225435
225434
225433
225434
225435
225436
225437
225437
225438
225438
225438
225437
225437
225436
225436
225435
225433
225435
225435
225436
225437
225438
225438
225438
225438
225438
225437
225437
225436
225435
225434
225435
225436
225437
225437
225438
225438
225438
225438
225438
225437
225437
225436
225435
225434
225435
225436
225436
225437
225438
225438
225438
225438
225438
225437
225437
225436
225435
225433
225434
225435
225436
225437
225437
225438
225438
225438
225438
225437
225436
225436
225434
225433
225434
225435
225436
225436
225437
225437
225438
225438
225437
225437
225436
225435
225434
225432
225433
225434
225435
225436
225436
225437
225437
225437
225437
225436
225436
225435
225433
225431
225432
225433
225434
225435
225436
225436
225436
225436
225436
225436
225435
225434
225433
225430
225431
225432
225433
225434
225435
225435
225435
225436
225435
225435
225434
225433
225432
225058
225059
225059
225059
225059
225059
225058
225058
225058
225058
225058
225058
225058
225058
225058
225058
225058
225058
225058
225058
225058
225058
225058
225058
225058
225058
225058
225058
225058
225058
225058
225058
225058
225058
225058
225058
225058
225058
225058
225058
225058
225058
225058
225058
225058
225058
225058
225058
225058
225058
225058
225058
225058
225058
225058
225058
225058
225058
225058
225058
225058
225058
225057
225057
225057
225057
225058
225058
225058
225058
225058
225058
225058
225058
225057
225057
225057
225057
225057
225057
225057
225058
225058
225058
225058
225058
225058
225057
225057
225057
225057
225057
225057
225057
225057
225057
225058
225058
225058
225058
225057
225057
225057
225057
225057
225057
225057
225057
225057
225057
225057
225058
225058
225058
225057
225057
225057
225057
225057
225057
225057
225057
225057
225057
225057
225057
225058
225058
225057
225057
225057
225057
225057
225057
225057
225057
225057
225057
225057
225057
225058
225057
225057
225057
225057
225057
225057
225057
225057
225057
225057
225057
225057
225057
225057
225057
225057
225057
225057
225057
225057
225057
225057
225057
225057
225057
225057
225057
225057
225057
225057
225057
225057
225057
225057
225057
225057
225057
225057
225057
225057
225057
225057
225057
225057
225057
225057
225057
225057
225057
225057
225057
225057
225057
225057
225057
224713
224712
224711
224710
224710
224710
224709
224709
224709
224709
224710
224710
224711
224711
224712
224711
224710
224709
224709
224708
224708
224708
224708
224708
224708
224709
224709
224710
224711
224710
224709
224708
224708
224707
224707
224707
224707
224707
224707
224708
224709
224709
224710
224709
224708
224707
224707
224706
224706
224706
224706
224706
224706
224707
224708
224709
224709
224708
224707
224706
224706
224705
224705
224705
224705
224705
224706
224706
224707
224708
224709
224708
224707
224706
224705
224705
224704
224704
224704
224705
224705
224706
224707
224707
224709
224707
224706
224705
224705
224704
224704
224704
224704
224704
224705
224705
224706
224707
224708
224707
224706
224705
224704
224704
224704
224703
224703
224704
224704
224705
224706
224707
224708
224707
224706
224705
224704
224704
224703
224703
224703
224704
224704
224705
224706
224707
224708
224707
224706
224705
224704
224704
224704
224703
224703
224704
224704
224705
224706
224707
224708
224707
224706
224705
224705
224704
224704
224704
224704
224704
224704
224705
224706
224707
224709
224707
224707
224706
224705
224705
224704
224704
224704
224704
224705
224705
224706
224707
224709
224708
224707
224706
224706
224705
224705
224705
224705
224705
224705
224706
224707
224708
224710
224709
224708
224707
224707
224706
224706
224706
224706
224706
224706
224707
224707
224708
236150
236154
236161
236163
236164
236164
236112
236106
236106
236103
236100
236094
235790
235819
235844
235868
235890
235911
235781
235819
235853
235886
235916
235944
235777
235822
235863
235902
235938
235971
235769
235820
235865
235909
235949
235986
235760
235813
235862
235909
235951
235990
235747
235802
235853
235900
235944
235984
235731
235786
235836
235883
235926
235965
235714
235765
235814
235858
235899
235935
235693
235741
235785
235825
235862
235895
235671
235712
235751
235786
235817
235845
235647
235680
235713
235741
235766
235788
235622
235647
235672
235693
235711
235727
235594
235611
235628
235641
235652
235662
235569
235574
235583
235589
235593
235595
234912
234929
234946
234962
234977
234991
234912
234937
234961
234983
235003
235022
234917
234948
234977
235004
235028
235050
234920
234956
234989
235020
235048
235074
234922
234961
234999
235033
235065
235093
234921
234964
235004
235041
235075
235106
234920
234963
235005
235044
235080
235112
234916
234960
235001
235040
235077
235110
234911
234953
234993
235031
235066
235099
234904
234943
234980
235015
235048
235079
234895
234930
234962
234993
235022
235049
234885
234914
234941
234966
234990
235013
234872
234895
234915
234935
234952
234969
234864
234877
234890
234902
234913
234922
233933
233937
233942
233947
233951
233954
233943
233950
233957
233964
233969
233974
233953
233963
233973
233982
233989
233995
233963
233976
233989
234000
234010
234018
233972
233989
234005
234019
234030
234040
233982
234002
234020
234036
234051
234063
233992
234013
234033
234052
234069
234084
234000
234023
234045
234065
234085
234103
234008
234031
234054
234076
234097
234118
234014
234038
234061
234083
234105
234126
234020
234042
234064
234086
234107
234128
234024
234045
234064
234084
234104
234123
234026
234044
234061
234078
234095
234111
234030
234045
234057
234070
234082
234094
232947
232938
232932
232924
232918
232912
232960
232951
232943
232936
232929
232922
232971
232963
232956
232948
232941
232934
232984
232976
232970
232963
232956
232949
232997
232991
232986
232980
232974
232967
233011
233007
233003
232998
232993
232987
233025
233023
233020
233018
233015
233011
233039
233039
233039
233038
233037
233036
233053
233055
233057
233058
233060
233061
233067
233071
233075
233079
233083
233086
233080
233086
233092
233098
233104
233110
233094
233101
233107
233115
233123
233131
233105
233113
233121
233130
233138
233147
233118
233127
233134
233142
233151
233159
232003
231987
231974
231961
231949
231938
232014
231996
231982
231967
231954
231941
232023
232005
231990
231975
231961
231947
232034
232016
232001
231985
231969
231955
232046
232028
232012
231996
231980
231965
232059
232042
232025
232009
231994
231978
232072
232056
232040
232025
232009
231994
232085
232071
232057
232042
232028
232013
232099
232087
232075
232062
232049
232036
232114
232104
232094
232083
232073
232063
232128
232122
232114
232106
232099
232092
232143
232139
232134
232130
232126
232122
232159
232157
232155
232154
232153
232152
232174
232175
232175
232177
232179
232181
231122
231107
231094
231081
231069
231057
231128
231112
231098
231084
231071
231059
231134
231117
231102
231088
231074
231061
231141
231124
231108
231092
231078
231064
231149
231131
231114
231098
231083
231068
231157
231139
231121
231105
231089
231074
231166
231148
231130
231113
231097
231081
231175
231158
231141
231124
231107
231091
231185
231169
231153
231137
231120
231104
231196
231181
231167
231152
231137
231121
231207
231195
231182
231169
231157
231143
231218
231209
231199
231189
231179
231168
231232
231225
231218
231211
231204
231196
231245
231241
231236
231232
231229
231226
230310
230300
230292
230284
230275
230267
230312
230302
230293
230284
230276
230267
230314
230304
230294
230285
230276
230268
230317
230306
230296
230286
230277
230269
230320
230308
230298
230287
230278
230270
230324
230311
230300
230289
230280
230270
230327
230315
230303
230292
230282
230271
230332
230319
230308
230296
230285
230274
230336
230325
230313
230301
230290
230277
230342
230331
230319
230308
230296
230284
230348
230338
230327
230316
230305
230293
230354
230346
230337
230327
230317
230306
230362
230355
230348
230340
230332
230323
230370
230365
230360
230354
230349
230344