/*--------------------------------*- C++ -*----------------------------------*\
| =========                 |                                                 |
| \\      /  F ield         | OpenFOAM: The Open Source CFD Toolbox           |
|  \\    /   O peration     | Version:  v2106                                 |
|   \\  /    A nd           | Website:  www.openfoam.com                      |
|    \\/     M anipulation  |                                                 |
\*---------------------------------------------------------------------------*/
FoamFile
{
    version     2.0;
    format      ascii;
    arch        "LSB;label=32;scalar=64";
    class       volScalarField;
    location    "0.000186";
    object      rho;
}
// * * * * * * * * * * * * * * * * * * * * * * * * * * * * * * * * * * * * * //

dimensions      [1 -3 0 0 0 0 0];

internalField   nonuniform List<scalar> 
17924
(
2.72302
2.72381
2.72456
2.72525
2.71665
2.71726
2.71788
2.71848
2.71907
2.71964
2.72021
2.71751
2.718
2.71862
2.71921
2.7198
2.72037
2.72094
2.7184
2.71887
2.71946
2.72001
2.72058
2.72113
2.72168
2.71925
2.71969
2.72023
2.72076
2.72131
2.72185
2.72239
2.72007
2.7205
2.72101
2.72151
2.72203
2.72256
2.72309
2.72088
2.72127
2.72175
2.72222
2.72273
2.72324
2.72377
2.72162
2.722
2.72244
2.72289
2.72338
2.72389
2.72442
2.72234
2.7227
2.72311
2.72354
2.72402
2.72452
2.72505
2.72298
2.72333
2.72372
2.72415
2.72461
2.72512
2.72565
2.72359
2.72395
2.72431
2.72473
2.72519
2.7257
2.72625
2.72413
2.7245
2.72483
2.72526
2.72572
2.72625
2.72681
2.72463
2.72501
2.72533
2.72577
2.72624
2.72679
2.72737
2.72506
2.72545
2.72577
2.72622
2.72671
2.72728
2.72791
2.72542
2.72581
2.72614
2.72663
2.72715
2.72776
2.72841
2.70922
2.70954
2.70997
2.71043
2.71094
2.71149
2.71206
2.71266
2.71326
2.71387
2.71448
2.71508
2.71565
2.71626
2.71023
2.71044
2.71085
2.71127
2.71175
2.71228
2.71285
2.71344
2.71405
2.71467
2.71528
2.7159
2.71648
2.71714
2.71121
2.7114
2.71178
2.71216
2.71261
2.71311
2.71365
2.71422
2.71482
2.71543
2.71604
2.71667
2.71725
2.71791
2.71216
2.71233
2.71268
2.71303
2.71346
2.71394
2.71447
2.71504
2.71564
2.71626
2.71688
2.71751
2.7181
2.71876
2.71307
2.71325
2.71357
2.71391
2.71433
2.71479
2.71531
2.71587
2.71647
2.71708
2.71771
2.71835
2.71896
2.71962
2.71399
2.71417
2.71446
2.71479
2.7152
2.71566
2.71618
2.71674
2.71734
2.71797
2.7186
2.71925
2.71988
2.72053
2.71486
2.71505
2.71533
2.71567
2.71607
2.71654
2.71706
2.71763
2.71824
2.71887
2.71952
2.72017
2.72082
2.72146
2.71573
2.71594
2.71621
2.71656
2.71697
2.71745
2.71799
2.71856
2.71919
2.71983
2.72049
2.72115
2.72182
2.72245
2.71654
2.71677
2.71705
2.71743
2.71786
2.71837
2.71892
2.71952
2.72016
2.72082
2.7215
2.72216
2.72285
2.72346
2.71734
2.71761
2.71792
2.71832
2.71879
2.71932
2.7199
2.72052
2.72119
2.72186
2.72256
2.72323
2.72394
2.72453
2.71807
2.71839
2.71873
2.71918
2.71969
2.72026
2.72088
2.72154
2.72224
2.72293
2.72366
2.72434
2.72507
2.72563
2.7188
2.71918
2.71957
2.72007
2.72062
2.72124
2.7219
2.72259
2.7233
2.72402
2.72475
2.72545
2.7262
2.72677
2.71946
2.7199
2.72034
2.72089
2.7215
2.72218
2.72289
2.72363
2.72439
2.72515
2.72591
2.72663
2.72738
2.72796
2.72011
2.72063
2.72114
2.72177
2.72243
2.72315
2.72389
2.72465
2.72543
2.7262
2.72696
2.72771
2.72847
2.72918
2.70278
2.70278
2.703
2.70328
2.70364
2.70407
2.70456
2.7051
2.70567
2.70627
2.70688
2.7075
2.70807
2.7087
2.70387
2.70378
2.70398
2.70422
2.70456
2.70498
2.70545
2.70598
2.70655
2.70715
2.70776
2.70837
2.70895
2.70961
2.70488
2.70479
2.70497
2.70521
2.70554
2.70594
2.70639
2.70689
2.70744
2.70802
2.70862
2.70923
2.7098
2.71045
2.70589
2.70583
2.706
2.70623
2.70655
2.70693
2.70738
2.70788
2.70842
2.70899
2.70958
2.71019
2.71076
2.71141
2.70686
2.70687
2.70703
2.70727
2.70759
2.70797
2.70842
2.70891
2.70943
2.71
2.71058
2.71119
2.71176
2.7124
2.70785
2.70793
2.7081
2.70835
2.70867
2.70906
2.70951
2.71
2.71053
2.71109
2.71167
2.71227
2.71286
2.71348
2.70885
2.70897
2.70916
2.70944
2.70979
2.71019
2.71064
2.71113
2.71166
2.71222
2.7128
2.7134
2.71399
2.71459
2.70986
2.71003
2.71026
2.71057
2.71093
2.71135
2.71182
2.71232
2.71286
2.71342
2.71401
2.7146
2.71521
2.71577
2.71085
2.71108
2.71134
2.71169
2.71209
2.71254
2.71302
2.71354
2.71409
2.71466
2.71525
2.71583
2.71644
2.71698
2.71185
2.71214
2.71245
2.71284
2.71327
2.71375
2.71426
2.7148
2.71537
2.71594
2.71654
2.71711
2.71774
2.71823
2.7128
2.71315
2.71352
2.71396
2.71444
2.71496
2.71551
2.71608
2.71666
2.71724
2.71786
2.71842
2.71905
2.71949
2.71377
2.7142
2.71462
2.71512
2.71565
2.7162
2.71678
2.71737
2.71797
2.71856
2.71918
2.71974
2.72038
2.7208
2.71464
2.71515
2.71564
2.7162
2.71679
2.7174
2.71803
2.71865
2.71929
2.7199
2.72053
2.72111
2.72174
2.72214
2.71559
2.71619
2.71674
2.71736
2.71799
2.71864
2.71929
2.71993
2.72057
2.72119
2.72181
2.72238
2.723
2.7235
2.69922
2.69905
2.69905
2.69913
2.69928
2.69949
2.69974
2.70005
2.70039
2.70077
2.70119
2.70164
2.70208
2.70258
2.70023
2.7
2.70002
2.70009
2.70024
2.70044
2.70069
2.70099
2.70133
2.7017
2.7021
2.70254
2.70296
2.70347
2.70115
2.70095
2.70099
2.70109
2.70123
2.70144
2.70168
2.70197
2.70229
2.70265
2.70303
2.70345
2.70385
2.70435
2.7021
2.70197
2.70201
2.70212
2.70227
2.70248
2.70272
2.70301
2.70333
2.70369
2.70406
2.70447
2.70486
2.70533
2.70305
2.70299
2.70305
2.70317
2.70334
2.70356
2.70381
2.7041
2.70441
2.70476
2.70513
2.70552
2.70591
2.70636
2.70404
2.70404
2.70413
2.70426
2.70445
2.70467
2.70493
2.70523
2.70555
2.7059
2.70626
2.70665
2.70704
2.70746
2.70501
2.70508
2.7052
2.70537
2.70557
2.70582
2.70609
2.7064
2.70673
2.70707
2.70743
2.70781
2.7082
2.7086
2.70601
2.70614
2.7063
2.7065
2.70673
2.70699
2.70728
2.7076
2.70794
2.70828
2.70865
2.70902
2.70942
2.70978
2.70701
2.70719
2.70739
2.70763
2.70789
2.70818
2.70849
2.70882
2.70917
2.70951
2.70988
2.71025
2.71065
2.71098
2.70802
2.70827
2.7085
2.70877
2.70906
2.70938
2.70972
2.71006
2.71042
2.71077
2.71114
2.71151
2.71192
2.71221
2.70901
2.70931
2.70958
2.7099
2.71024
2.71059
2.71095
2.71131
2.71168
2.71204
2.71241
2.71276
2.71318
2.71343
2.71003
2.71039
2.7107
2.71106
2.71143
2.71181
2.71219
2.71257
2.71295
2.71331
2.7137
2.71405
2.71448
2.7147
2.711
2.71139
2.71177
2.71218
2.71259
2.713
2.71342
2.71383
2.71422
2.7146
2.71499
2.71534
2.71576
2.71597
2.71207
2.7125
2.71292
2.71335
2.7138
2.71423
2.71466
2.71508
2.71548
2.71587
2.71625
2.71661
2.71701
2.71728
2.69821
2.69797
2.69786
2.69778
2.69773
2.69772
2.69773
2.69778
2.69787
2.69799
2.69814
2.69832
2.69853
2.69876
2.69899
2.69877
2.69867
2.6986
2.69856
2.69855
2.69856
2.69862
2.6987
2.69882
2.69896
2.69913
2.69931
2.69955
2.69974
2.69954
2.69947
2.69942
2.6994
2.6994
2.69942
2.69947
2.69955
2.69966
2.69979
2.69994
2.7001
2.70034
2.70052
2.70036
2.70032
2.70028
2.70027
2.70028
2.70031
2.70037
2.70045
2.70055
2.70067
2.70082
2.70096
2.70118
2.70129
2.70119
2.70117
2.70116
2.70116
2.70119
2.70123
2.70129
2.70136
2.70147
2.70158
2.70172
2.70185
2.70205
2.70209
2.70204
2.70205
2.70205
2.70207
2.70211
2.70216
2.70223
2.70231
2.70241
2.70253
2.70265
2.70279
2.70295
2.70289
2.70288
2.70292
2.70295
2.70299
2.70305
2.70311
2.70319
2.70327
2.70337
2.70348
2.70361
2.70374
2.70387
2.70371
2.70375
2.7038
2.70386
2.70392
2.70399
2.70407
2.70416
2.70426
2.70436
2.70447
2.7046
2.70473
2.70483
2.70454
2.70462
2.70469
2.70478
2.70487
2.70496
2.70505
2.70515
2.70525
2.70536
2.70548
2.70561
2.70575
2.7058
2.7054
2.70551
2.7056
2.70571
2.70582
2.70593
2.70604
2.70615
2.70626
2.70638
2.70652
2.70664
2.70679
2.70681
2.70626
2.7064
2.70651
2.70666
2.70679
2.70692
2.70705
2.70716
2.70729
2.70742
2.70756
2.70768
2.70782
2.70781
2.70716
2.70732
2.70746
2.70762
2.70777
2.70792
2.70806
2.70819
2.70833
2.70847
2.70862
2.70874
2.70889
2.70886
2.70804
2.70822
2.70839
2.70858
2.70876
2.70893
2.70908
2.70923
2.70938
2.70952
2.70966
2.70978
2.70993
2.7099
2.70903
2.70919
2.7094
2.70959
2.70978
2.70995
2.71012
2.71028
2.71043
2.71058
2.71072
2.71085
2.71101
2.71103
2.69831
2.69808
2.69791
2.69775
2.69759
2.69744
2.69731
2.6972
2.69711
2.69703
2.69697
2.69694
2.69693
2.69697
2.6989
2.69867
2.69851
2.69835
2.6982
2.69806
2.69793
2.69781
2.69772
2.69763
2.69756
2.69751
2.69747
2.69755
2.69942
2.69921
2.69907
2.69893
2.69879
2.69866
2.69855
2.69843
2.69833
2.69824
2.69815
2.69808
2.69802
2.69809
2.69995
2.69978
2.69966
2.69953
2.69941
2.69928
2.69917
2.69905
2.69895
2.69885
2.69876
2.69868
2.69861
2.69865
2.70048
2.70034
2.70024
2.70012
2.70002
2.6999
2.69979
2.69969
2.69958
2.69949
2.69939
2.69931
2.69922
2.69923
2.70103
2.70092
2.70084
2.70074
2.70064
2.70054
2.70043
2.70033
2.70023
2.70013
2.70003
2.69995
2.69985
2.69981
2.70159
2.70151
2.70144
2.70135
2.70127
2.70118
2.70108
2.70098
2.70088
2.70078
2.70068
2.70059
2.70049
2.70042
2.70218
2.70212
2.70206
2.70199
2.70191
2.70183
2.70174
2.70164
2.70154
2.70144
2.70134
2.70124
2.70114
2.70104
2.70277
2.70274
2.70269
2.70263
2.70256
2.70249
2.7024
2.70231
2.70221
2.70211
2.70201
2.7019
2.70181
2.70169
2.70339
2.70338
2.70334
2.70329
2.70323
2.70316
2.70308
2.70299
2.7029
2.70279
2.7027
2.70258
2.70249
2.70236
2.70403
2.70404
2.704
2.70397
2.70391
2.70385
2.70377
2.70368
2.70359
2.70349
2.70339
2.70327
2.7032
2.70307
2.7047
2.70472
2.70469
2.70466
2.70461
2.70455
2.70448
2.7044
2.70431
2.70421
2.70411
2.704
2.70394
2.7038
2.70538
2.70541
2.70539
2.70537
2.70533
2.70527
2.7052
2.70511
2.70503
2.70492
2.70483
2.70472
2.70466
2.70451
2.70618
2.70612
2.7061
2.70608
2.70604
2.70599
2.70593
2.70585
2.70577
2.70567
2.70558
2.70549
2.70544
2.70533
2.69872
2.69848
2.69828
2.69806
2.69785
2.69764
2.69743
2.69722
2.69702
2.69682
2.69663
2.69645
2.69628
2.69611
2.69904
2.69881
2.69863
2.69842
2.69822
2.698
2.69779
2.69757
2.69737
2.69715
2.69696
2.69677
2.69659
2.69642
2.69933
2.69912
2.69895
2.69875
2.69855
2.69835
2.69814
2.69793
2.69772
2.69751
2.6973
2.6971
2.6969
2.69673
2.69964
2.69945
2.69929
2.6991
2.6989
2.6987
2.69849
2.69828
2.69807
2.69785
2.69764
2.69743
2.69721
2.69703
2.69995
2.69978
2.69962
2.69944
2.69925
2.69905
2.69885
2.69863
2.69842
2.6982
2.69798
2.69776
2.69753
2.69734
2.70027
2.70012
2.69996
2.69979
2.6996
2.6994
2.6992
2.69898
2.69876
2.69854
2.69831
2.69808
2.69786
2.69764
2.7006
2.70046
2.70031
2.70014
2.69996
2.69976
2.69956
2.69934
2.69912
2.69889
2.69865
2.69842
2.69818
2.69795
2.70095
2.70083
2.70068
2.70051
2.70033
2.70013
2.69992
2.6997
2.69947
2.69923
2.69899
2.69875
2.69851
2.69826
2.70132
2.7012
2.70104
2.70088
2.70069
2.7005
2.70029
2.70007
2.69983
2.69959
2.69935
2.69909
2.69885
2.69858
2.70169
2.70157
2.70142
2.70126
2.70107
2.70088
2.70066
2.70043
2.70019
2.69995
2.69969
2.69943
2.69918
2.6989
2.70208
2.70196
2.7018
2.70164
2.70145
2.70125
2.70103
2.7008
2.70056
2.70031
2.70005
2.69978
2.69952
2.69923
2.70248
2.70236
2.7022
2.70203
2.70184
2.70163
2.70141
2.70117
2.70092
2.70066
2.7004
2.70012
2.69987
2.69956
2.70291
2.7028
2.70263
2.70245
2.70224
2.70202
2.70179
2.70155
2.70129
2.70102
2.70075
2.70046
2.70021
2.69992
2.70341
2.70321
2.70302
2.70284
2.70264
2.70242
2.70218
2.70194
2.70168
2.70142
2.70116
2.70088
2.70062
2.70033
2.69898
2.69873
2.69852
2.69828
2.69804
2.69778
2.69752
2.69724
2.69697
2.69668
2.69642
2.69612
2.69586
2.69556
2.69906
2.69883
2.69863
2.69841
2.69817
2.69791
2.69764
2.69736
2.69709
2.69679
2.69651
2.69622
2.69595
2.69566
2.69914
2.69893
2.69874
2.69851
2.69828
2.69802
2.69776
2.69748
2.6972
2.69691
2.69663
2.69634
2.69606
2.69577
2.69924
2.69906
2.69886
2.69863
2.6984
2.69814
2.69788
2.6976
2.69732
2.69702
2.69674
2.69644
2.69615
2.69586
2.69936
2.69918
2.69898
2.69876
2.69852
2.69826
2.69799
2.69771
2.69743
2.69713
2.69683
2.69653
2.69623
2.69592
2.69947
2.6993
2.6991
2.69887
2.69863
2.69837
2.6981
2.69782
2.69752
2.69722
2.69691
2.6966
2.69629
2.69598
2.69959
2.69942
2.69921
2.69899
2.69874
2.69848
2.6982
2.69791
2.69761
2.6973
2.69699
2.69667
2.69635
2.69603
2.69972
2.69954
2.69933
2.6991
2.69884
2.69858
2.69829
2.69799
2.69768
2.69737
2.69704
2.69672
2.69639
2.69606
2.69985
2.69966
2.69944
2.6992
2.69894
2.69867
2.69837
2.69807
2.69775
2.69743
2.6971
2.69676
2.69642
2.69609
2.69998
2.69978
2.69955
2.6993
2.69903
2.69875
2.69845
2.69814
2.69781
2.69748
2.69714
2.6968
2.69645
2.69611
2.70012
2.69991
2.69966
2.69941
2.69912
2.69883
2.69852
2.69821
2.69787
2.69753
2.69718
2.69683
2.69647
2.69612
2.70026
2.70003
2.69978
2.69951
2.69922
2.69891
2.6986
2.69827
2.69792
2.69757
2.69721
2.69686
2.69649
2.69613
2.7004
2.70016
2.69989
2.69961
2.6993
2.69898
2.69866
2.69833
2.69798
2.69762
2.69726
2.69689
2.69651
2.69612
2.70055
2.70026
2.69999
2.69969
2.69939
2.69906
2.69873
2.69839
2.69804
2.69768
2.69732
2.69695
2.69658
2.69619
2.69869
2.69847
2.69826
2.69801
2.69775
2.69747
2.69717
2.69686
2.69654
2.69619
2.69587
2.69552
2.69519
2.6948
2.69862
2.69841
2.6982
2.69796
2.6977
2.69741
2.69711
2.6968
2.69647
2.69613
2.69579
2.69543
2.6951
2.69473
2.69852
2.69833
2.69812
2.69787
2.69761
2.69733
2.69703
2.69671
2.69639
2.69604
2.6957
2.69534
2.69501
2.69464
2.69843
2.69825
2.69802
2.69778
2.69751
2.69723
2.69693
2.69661
2.69628
2.69594
2.6956
2.69524
2.6949
2.69454
2.69833
2.69815
2.69792
2.69768
2.69741
2.69712
2.69682
2.6965
2.69616
2.69582
2.69547
2.69511
2.69477
2.6944
2.69824
2.69805
2.69781
2.69756
2.69729
2.697
2.69669
2.69636
2.69602
2.69567
2.69532
2.69496
2.69461
2.69424
2.69814
2.69794
2.6977
2.69745
2.69716
2.69686
2.69654
2.69621
2.69587
2.69552
2.69516
2.6948
2.69443
2.69407
2.69804
2.69782
2.69757
2.69731
2.69702
2.69671
2.69638
2.69605
2.6957
2.69534
2.69498
2.69461
2.69424
2.69387
2.69794
2.69771
2.69745
2.69717
2.69687
2.69655
2.69622
2.69587
2.69551
2.69515
2.69478
2.69441
2.69403
2.69366
2.69783
2.69757
2.6973
2.69701
2.6967
2.69637
2.69603
2.69568
2.69532
2.69495
2.69457
2.6942
2.6938
2.69344
2.69772
2.69744
2.69716
2.69686
2.69653
2.6962
2.69584
2.69548
2.69511
2.69473
2.69434
2.69396
2.69356
2.69321
2.6976
2.6973
2.697
2.69668
2.69635
2.696
2.69564
2.69528
2.6949
2.69451
2.69412
2.69373
2.69332
2.69296
2.69748
2.69715
2.69684
2.69651
2.69617
2.69581
2.69544
2.69506
2.69466
2.69427
2.69387
2.69347
2.69306
2.69269
2.69734
2.69699
2.69667
2.69632
2.69597
2.6956
2.69522
2.69484
2.69445
2.69406
2.69366
2.69327
2.69286
2.69246
2.69747
2.69727
2.69706
2.69681
2.69655
2.69626
2.69596
2.69563
2.69528
2.69492
2.69456
2.69416
2.69381
2.69339
2.69719
2.69701
2.69679
2.69656
2.69629
2.69601
2.6957
2.69537
2.69502
2.69465
2.69428
2.6939
2.69353
2.69313
2.6969
2.69673
2.69651
2.69627
2.69601
2.69572
2.69542
2.69509
2.69475
2.69438
2.69402
2.69363
2.69327
2.69287
2.69662
2.69645
2.69622
2.69598
2.69571
2.69543
2.69512
2.69479
2.69444
2.69408
2.69372
2.69334
2.69298
2.69259
2.69634
2.69616
2.69592
2.69568
2.6954
2.69511
2.6948
2.69447
2.69413
2.69377
2.69341
2.69304
2.69268
2.69229
2.69605
2.69585
2.69561
2.69536
2.69508
2.69478
2.69447
2.69414
2.69379
2.69344
2.69308
2.6927
2.69234
2.69196
2.69576
2.69555
2.69529
2.69503
2.69474
2.69444
2.69412
2.69379
2.69344
2.69309
2.69272
2.69236
2.69199
2.69162
2.69545
2.69522
2.69496
2.69468
2.69439
2.69408
2.69376
2.69342
2.69307
2.69271
2.69235
2.69198
2.69161
2.69124
2.69514
2.69489
2.69462
2.69434
2.69403
2.69371
2.69338
2.69304
2.69268
2.69233
2.69196
2.69159
2.69122
2.69087
2.69482
2.69454
2.69426
2.69396
2.69365
2.69333
2.69299
2.69265
2.69229
2.69193
2.69155
2.69119
2.6908
2.69046
2.6945
2.6942
2.69391
2.6936
2.69328
2.69294
2.6926
2.69224
2.69187
2.69151
2.69113
2.69076
2.69037
2.69005
2.69415
2.69382
2.69353
2.69321
2.69288
2.69254
2.69219
2.69183
2.69146
2.69109
2.69071
2.69034
2.68994
2.68963
2.69382
2.69348
2.69316
2.69283
2.69249
2.69214
2.69177
2.6914
2.69102
2.69064
2.69025
2.68987
2.68947
2.68916
2.69343
2.69307
2.69275
2.69241
2.69206
2.6917
2.69134
2.69097
2.69059
2.69022
2.68983
2.68946
2.68907
2.68873
2.69466
2.69448
2.69428
2.69407
2.69384
2.69359
2.69332
2.69303
2.69272
2.69239
2.69205
2.69169
2.69134
2.69094
2.69422
2.69408
2.69388
2.69368
2.69344
2.69319
2.69291
2.69261
2.6923
2.69196
2.69162
2.69126
2.69091
2.69054
2.6938
2.69367
2.69345
2.69325
2.69301
2.69276
2.69248
2.69219
2.69188
2.69156
2.69123
2.69088
2.69053
2.69017
2.69338
2.69324
2.69302
2.69281
2.69257
2.69232
2.69204
2.69175
2.69144
2.69112
2.69079
2.69044
2.69011
2.68975
2.69296
2.6928
2.69258
2.69237
2.69212
2.69186
2.69159
2.6913
2.69099
2.69067
2.69035
2.69001
2.68969
2.68934
2.69253
2.69236
2.69213
2.6919
2.69165
2.69139
2.69112
2.69083
2.69052
2.69021
2.68989
2.68955
2.68923
2.68889
2.69211
2.69191
2.69168
2.69144
2.69118
2.69092
2.69064
2.69034
2.69004
2.68973
2.68941
2.68909
2.68877
2.68844
2.69166
2.69144
2.6912
2.69096
2.6907
2.69043
2.69014
2.68985
2.68955
2.68924
2.68892
2.68861
2.68828
2.68796
2.69121
2.69097
2.69073
2.69047
2.69021
2.68993
2.68964
2.68935
2.68904
2.68873
2.68842
2.68811
2.68779
2.68749
2.69074
2.69048
2.69023
2.68997
2.6897
2.68942
2.68913
2.68883
2.68853
2.68822
2.6879
2.68759
2.68727
2.68699
2.69028
2.69
2.68975
2.68947
2.68919
2.68891
2.68861
2.68831
2.688
2.68769
2.68737
2.68706
2.68674
2.68649
2.68978
2.68948
2.68922
2.68894
2.68866
2.68838
2.68808
2.68778
2.68747
2.68716
2.68684
2.68653
2.68621
2.68597
2.68931
2.689
2.68873
2.68844
2.68815
2.68785
2.68755
2.68724
2.68692
2.6866
2.68627
2.68597
2.68565
2.68542
2.68875
2.68845
2.68817
2.68789
2.6876
2.6873
2.687
2.68669
2.68638
2.68606
2.68575
2.68544
2.68513
2.68489
2.69006
2.68994
2.68978
2.68963
2.68946
2.68928
2.68909
2.68888
2.68866
2.68843
2.68818
2.68792
2.68766
2.68737
2.68957
2.68948
2.68932
2.68917
2.689
2.68882
2.68862
2.68841
2.68818
2.68794
2.68769
2.68743
2.68717
2.68688
2.6891
2.68902
2.68885
2.68869
2.68852
2.68833
2.68813
2.68793
2.6877
2.68747
2.68723
2.68698
2.68673
2.68645
2.68863
2.68854
2.68837
2.68821
2.68803
2.68784
2.68764
2.68743
2.68721
2.68698
2.68674
2.68649
2.68625
2.68598
2.68817
2.68806
2.68788
2.68771
2.68753
2.68734
2.68714
2.68693
2.68672
2.68649
2.68626
2.68601
2.68578
2.68552
2.6877
2.68756
2.68738
2.68721
2.68703
2.68684
2.68664
2.68643
2.68621
2.68599
2.68576
2.68552
2.68529
2.68504
2.68722
2.68706
2.68688
2.6867
2.68652
2.68632
2.68612
2.68591
2.6857
2.68548
2.68525
2.68502
2.68479
2.68456
2.68672
2.68655
2.68637
2.68618
2.686
2.6858
2.6856
2.68539
2.68518
2.68496
2.68474
2.68451
2.68429
2.68406
2.68622
2.68603
2.68585
2.68566
2.68547
2.68527
2.68507
2.68486
2.68465
2.68443
2.68421
2.684
2.68378
2.68358
2.6857
2.6855
2.68532
2.68513
2.68494
2.68474
2.68454
2.68433
2.68412
2.6839
2.68368
2.68347
2.68325
2.68308
2.6852
2.68498
2.6848
2.6846
2.6844
2.6842
2.684
2.68379
2.68358
2.68337
2.68315
2.68294
2.68273
2.68258
2.68466
2.68443
2.68425
2.68405
2.68386
2.68366
2.68345
2.68324
2.68303
2.68283
2.68261
2.68241
2.6822
2.68207
2.68414
2.68392
2.68372
2.68353
2.68332
2.68312
2.68291
2.68269
2.68248
2.68227
2.68206
2.68187
2.68166
2.68155
2.68354
2.68335
2.68315
2.68296
2.68276
2.68256
2.68236
2.68215
2.68194
2.68174
2.68153
2.68134
2.68114
2.68102
2.68402
2.68395
2.68385
2.68377
2.68369
2.68361
2.68352
2.68343
2.68333
2.68322
2.6831
2.68298
2.68286
2.68275
2.68357
2.68353
2.68343
2.68335
2.68327
2.68318
2.68309
2.68299
2.68289
2.68277
2.68265
2.68252
2.6824
2.68226
2.68315
2.68311
2.683
2.68292
2.68283
2.68274
2.68265
2.68255
2.68244
2.68233
2.68222
2.68209
2.68197
2.68183
2.68272
2.68267
2.68257
2.68248
2.68239
2.6823
2.68221
2.68211
2.682
2.68189
2.68177
2.68165
2.68154
2.68139
2.6823
2.68224
2.68213
2.68204
2.68195
2.68186
2.68176
2.68166
2.68155
2.68144
2.68133
2.68122
2.68111
2.68097
2.68186
2.68179
2.68169
2.6816
2.6815
2.68141
2.68131
2.68121
2.68111
2.681
2.68089
2.68078
2.68067
2.68054
2.68143
2.68134
2.68124
2.68114
2.68105
2.68095
2.68086
2.68076
2.68066
2.68055
2.68045
2.68034
2.68024
2.68012
2.68098
2.68088
2.68078
2.68069
2.68059
2.6805
2.6804
2.6803
2.6802
2.6801
2.68
2.6799
2.6798
2.6797
2.68053
2.68042
2.68032
2.68023
2.68013
2.68004
2.67994
2.67985
2.67975
2.67965
2.67956
2.67946
2.67936
2.67928
2.68007
2.67995
2.67986
2.67976
2.67967
2.67958
2.67948
2.67939
2.6793
2.6792
2.6791
2.67901
2.67892
2.67887
2.67961
2.67948
2.6794
2.6793
2.67921
2.67912
2.67903
2.67893
2.67884
2.67875
2.67865
2.67857
2.67848
2.67846
2.67915
2.67901
2.67893
2.67883
2.67874
2.67866
2.67857
2.67848
2.67839
2.6783
2.67821
2.67812
2.67804
2.67804
2.6787
2.67856
2.67847
2.67838
2.67829
2.6782
2.67811
2.67802
2.67794
2.67785
2.67777
2.67769
2.67762
2.67764
2.6782
2.67809
2.67799
2.67791
2.67783
2.67774
2.67766
2.67757
2.67749
2.67742
2.67734
2.67726
2.6772
2.67721
2.67707
2.67706
2.67704
2.67703
2.67703
2.67705
2.67706
2.67708
2.67709
2.67711
2.67713
2.67715
2.67718
2.67721
2.67672
2.67674
2.67673
2.67672
2.67672
2.67673
2.67674
2.67676
2.67677
2.67679
2.6768
2.67682
2.67684
2.67682
2.67642
2.67644
2.67642
2.67641
2.6764
2.67641
2.67642
2.67643
2.67645
2.67646
2.67647
2.67648
2.6765
2.67648
2.67611
2.67611
2.6761
2.67609
2.67609
2.67609
2.6761
2.67611
2.67612
2.67614
2.67615
2.67616
2.67617
2.67615
2.6758
2.6758
2.67578
2.67577
2.67577
2.67577
2.67578
2.67579
2.6758
2.67581
2.67583
2.67584
2.67585
2.67584
2.67548
2.67548
2.67546
2.67545
2.67545
2.67545
2.67546
2.67547
2.67548
2.67549
2.67551
2.67552
2.67554
2.67553
2.67516
2.67515
2.67514
2.67513
2.67513
2.67513
2.67514
2.67515
2.67516
2.67518
2.67519
2.67521
2.67523
2.67524
2.67483
2.67482
2.67481
2.67481
2.67481
2.67481
2.67482
2.67483
2.67485
2.67486
2.67488
2.6749
2.67492
2.67495
2.6745
2.67449
2.67448
2.67448
2.67449
2.67449
2.6745
2.67452
2.67453
2.67455
2.67458
2.6746
2.67462
2.67466
2.67418
2.67415
2.67416
2.67416
2.67417
2.67418
2.67419
2.6742
2.67422
2.67425
2.67427
2.6743
2.67433
2.67438
2.67386
2.67383
2.67383
2.67384
2.67385
2.67386
2.67388
2.6739
2.67392
2.67395
2.67397
2.67401
2.67404
2.6741
2.67354
2.6735
2.67351
2.67352
2.67353
2.67355
2.67357
2.67359
2.67362
2.67365
2.67368
2.67372
2.67376
2.67383
2.67324
2.67319
2.6732
2.67321
2.67323
2.67325
2.67327
2.6733
2.67333
2.67336
2.6734
2.67345
2.67349
2.67357
2.67292
2.67289
2.6729
2.67291
2.67293
2.67295
2.67297
2.67301
2.67304
2.67308
2.67313
2.67318
2.67324
2.67331
2.66969
2.66974
2.66979
2.66985
2.66992
2.67
2.67009
2.67019
2.67029
2.6704
2.67051
2.67064
2.67077
2.67092
2.66952
2.66957
2.66962
2.66968
2.66976
2.66984
2.66993
2.67002
2.67013
2.67024
2.67035
2.67047
2.67058
2.6707
2.66935
2.66941
2.66946
2.66952
2.66959
2.66967
2.66976
2.66985
2.66995
2.67006
2.67017
2.67028
2.6704
2.67051
2.66918
2.66924
2.66929
2.66936
2.66943
2.66951
2.66959
2.66969
2.66979
2.66989
2.67
2.67011
2.67023
2.67033
2.66901
2.66907
2.66913
2.66919
2.66926
2.66934
2.66943
2.66952
2.66962
2.66973
2.66984
2.66995
2.67006
2.67017
2.66885
2.66891
2.66896
2.66903
2.6691
2.66918
2.66927
2.66936
2.66946
2.66956
2.66967
2.66978
2.6699
2.67001
2.66868
2.66874
2.6688
2.66886
2.66894
2.66902
2.66911
2.6692
2.6693
2.6694
2.66951
2.66963
2.66974
2.66985
2.66851
2.66857
2.66863
2.6687
2.66878
2.66886
2.66895
2.66905
2.66915
2.66925
2.66936
2.66947
2.66959
2.6697
2.66835
2.66841
2.66847
2.66855
2.66863
2.66871
2.6688
2.6689
2.669
2.6691
2.66922
2.66933
2.66945
2.66957
2.66819
2.66825
2.66832
2.66839
2.66848
2.66856
2.66865
2.66875
2.66886
2.66896
2.66908
2.66919
2.66931
2.66944
2.66804
2.6681
2.66817
2.66825
2.66833
2.66842
2.66852
2.66862
2.66872
2.66883
2.66895
2.66907
2.66919
2.66932
2.6679
2.66796
2.66803
2.66811
2.66819
2.66828
2.66838
2.66849
2.66859
2.66871
2.66882
2.66895
2.66907
2.66921
2.66776
2.66782
2.66789
2.66798
2.66806
2.66816
2.66826
2.66837
2.66848
2.6686
2.66872
2.66885
2.66897
2.66912
2.66764
2.6677
2.66777
2.66785
2.66794
2.66804
2.66814
2.66825
2.66836
2.66848
2.66861
2.66875
2.66888
2.66904
2.66221
2.6623
2.6624
2.6625
2.66261
2.66272
2.66285
2.66298
2.66313
2.66328
2.66344
2.6636
2.66376
2.66395
2.66217
2.66227
2.66236
2.66247
2.66258
2.66269
2.66282
2.66296
2.6631
2.66326
2.66342
2.66359
2.66376
2.66394
2.66214
2.66224
2.66233
2.66244
2.66255
2.66266
2.66279
2.66293
2.66307
2.66323
2.66339
2.66356
2.66373
2.66391
2.66211
2.66221
2.66231
2.66241
2.66252
2.66264
2.66277
2.66291
2.66305
2.6632
2.66336
2.66353
2.6637
2.66387
2.66209
2.66219
2.66229
2.66239
2.6625
2.66262
2.66275
2.66289
2.66303
2.66318
2.66334
2.6635
2.66367
2.66384
2.66207
2.66217
2.66227
2.66237
2.66249
2.66261
2.66274
2.66287
2.66302
2.66317
2.66332
2.66349
2.66365
2.66382
2.66206
2.66215
2.66225
2.66236
2.66248
2.6626
2.66273
2.66286
2.66301
2.66316
2.66331
2.66347
2.66364
2.6638
2.66204
2.66214
2.66224
2.66235
2.66247
2.66259
2.66272
2.66286
2.663
2.66315
2.66331
2.66347
2.66363
2.66379
2.66204
2.66214
2.66224
2.66235
2.66247
2.66259
2.66272
2.66286
2.66301
2.66315
2.66331
2.66346
2.66363
2.66378
2.66204
2.66214
2.66224
2.66235
2.66247
2.6626
2.66273
2.66287
2.66301
2.66316
2.66332
2.66347
2.66364
2.66379
2.66205
2.66214
2.66225
2.66236
2.66248
2.66261
2.66274
2.66289
2.66303
2.66318
2.66333
2.66349
2.66365
2.6638
2.66206
2.66216
2.66227
2.66238
2.6625
2.66263
2.66276
2.66291
2.66305
2.6632
2.66336
2.66351
2.66368
2.66383
2.66207
2.66218
2.66228
2.6624
2.66252
2.66265
2.66279
2.66294
2.66309
2.66324
2.6634
2.66356
2.66372
2.66388
2.6621
2.66221
2.66231
2.66244
2.66256
2.66269
2.66282
2.66297
2.66311
2.66327
2.66342
2.66359
2.66375
2.66393
2.65482
2.65492
2.65503
2.65513
2.65524
2.65536
2.65548
2.65561
2.65575
2.65589
2.65604
2.6562
2.65635
2.65653
2.65488
2.65497
2.65508
2.65519
2.65531
2.65543
2.65556
2.65569
2.65583
2.65598
2.65613
2.65629
2.65645
2.65663
2.65495
2.65505
2.65515
2.65526
2.65538
2.6555
2.65563
2.65576
2.6559
2.65605
2.6562
2.65637
2.65653
2.6567
2.65502
2.65512
2.65523
2.65534
2.65546
2.65558
2.65571
2.65585
2.65599
2.65614
2.65629
2.65645
2.65662
2.65679
2.6551
2.6552
2.65531
2.65542
2.65554
2.65566
2.65579
2.65593
2.65607
2.65622
2.65637
2.65653
2.6567
2.65687
2.65519
2.65529
2.6554
2.65551
2.65563
2.65575
2.65588
2.65602
2.65616
2.65631
2.65646
2.65662
2.65679
2.65696
2.65528
2.65538
2.65549
2.6556
2.65572
2.65585
2.65598
2.65611
2.65625
2.6564
2.65656
2.65671
2.65687
2.65704
2.65538
2.65548
2.65559
2.6557
2.65582
2.65594
2.65608
2.65621
2.65635
2.6565
2.65665
2.65681
2.65697
2.65712
2.65548
2.65559
2.65569
2.65581
2.65592
2.65605
2.65618
2.65632
2.65646
2.6566
2.65676
2.65691
2.65707
2.65721
2.65559
2.65569
2.6558
2.65591
2.65603
2.65616
2.65629
2.65643
2.65657
2.65671
2.65686
2.65701
2.65717
2.65731
2.6557
2.6558
2.65591
2.65603
2.65615
2.65627
2.65641
2.65654
2.65668
2.65683
2.65697
2.65712
2.65727
2.65741
2.65581
2.65592
2.65603
2.65614
2.65627
2.65639
2.65653
2.65666
2.6568
2.65694
2.65709
2.65723
2.65738
2.65752
2.65592
2.65603
2.65614
2.65626
2.65638
2.65652
2.65665
2.65679
2.65693
2.65707
2.65721
2.65735
2.6575
2.65763
2.65604
2.65616
2.65627
2.6564
2.65652
2.65665
2.65678
2.65691
2.65705
2.65719
2.65733
2.65747
2.65762
2.65777
2.64767
2.64774
2.64784
2.64792
2.64801
2.64811
2.6482
2.6483
2.64839
2.64849
2.6486
2.6487
2.64881
2.64893
2.64778
2.64785
2.64794
2.64803
2.64813
2.64822
2.64832
2.64842
2.64852
2.64863
2.64874
2.64885
2.64896
2.64908
2.6479
2.64797
2.64806
2.64815
2.64825
2.64835
2.64845
2.64855
2.64865
2.64875
2.64886
2.64897
2.64909
2.64921
2.64802
2.6481
2.64819
2.64828
2.64837
2.64847
2.64857
2.64868
2.64878
2.64889
2.649
2.64911
2.64923
2.64936
2.64815
2.64823
2.64832
2.64841
2.64851
2.6486
2.6487
2.64881
2.64891
2.64902
2.64913
2.64925
2.64936
2.64949
2.64828
2.64836
2.64845
2.64854
2.64864
2.64874
2.64884
2.64894
2.64905
2.64916
2.64927
2.64939
2.6495
2.64962
2.64842
2.6485
2.64859
2.64868
2.64878
2.64887
2.64898
2.64908
2.64919
2.6493
2.64941
2.64952
2.64964
2.64975
2.64856
2.64864
2.64873
2.64882
2.64892
2.64902
2.64912
2.64922
2.64933
2.64944
2.64955
2.64966
2.64978
2.64989
2.6487
2.64879
2.64887
2.64897
2.64906
2.64916
2.64926
2.64937
2.64947
2.64958
2.64969
2.6498
2.64991
2.65002
2.64884
2.64894
2.64902
2.64911
2.64921
2.64931
2.64941
2.64951
2.64962
2.64972
2.64983
2.64994
2.65005
2.65015
2.64899
2.64908
2.64917
2.64926
2.64936
2.64946
2.64956
2.64966
2.64976
2.64987
2.64997
2.65008
2.65018
2.65027
2.64914
2.64923
2.64932
2.64942
2.64951
2.64961
2.64971
2.64981
2.64991
2.65001
2.65012
2.65022
2.65032
2.65041
2.64928
2.64938
2.64946
2.64956
2.64966
2.64976
2.64986
2.64996
2.65006
2.65016
2.65026
2.65036
2.65045
2.65054
2.64944
2.64954
2.64963
2.64973
2.64982
2.64992
2.65002
2.65011
2.65021
2.6503
2.6504
2.65049
2.65059
2.65069
2.64093
2.64096
2.64102
2.64108
2.64114
2.64119
2.64125
2.6413
2.64135
2.6414
2.64144
2.64149
2.64104
2.64108
2.64114
2.64119
2.64125
2.64131
2.64137
2.64142
2.64148
2.64153
2.64158
2.64163
2.64116
2.6412
2.64126
2.64132
2.64138
2.64144
2.64149
2.64155
2.6416
2.64165
2.64171
2.64175
2.64128
2.64133
2.64139
2.64144
2.6415
2.64156
2.64162
2.64168
2.64173
2.64179
2.64184
2.64189
2.6414
2.64145
2.64151
2.64157
2.64163
2.64169
2.64175
2.64181
2.64186
2.64192
2.64197
2.64202
2.64153
2.64158
2.64164
2.6417
2.64176
2.64182
2.64188
2.64193
2.64199
2.64204
2.6421
2.64215
2.64165
2.64171
2.64177
2.64183
2.64189
2.64195
2.64201
2.64206
2.64212
2.64217
2.64223
2.64228
2.64177
2.64183
2.64189
2.64195
2.64201
2.64207
2.64213
2.64219
2.64225
2.6423
2.64236
2.64241
2.6419
2.64196
2.64202
2.64208
2.64214
2.6422
2.64226
2.64232
2.64237
2.64243
2.64248
2.64253
2.64202
2.64209
2.64215
2.64221
2.64227
2.64233
2.64239
2.64244
2.6425
2.64255
2.6426
2.64265
2.64215
2.64222
2.64228
2.64234
2.6424
2.64246
2.64251
2.64257
2.64262
2.64268
2.64273
2.64277
2.64228
2.64235
2.6424
2.64247
2.64253
2.64258
2.64264
2.64269
2.64274
2.64279
2.64284
2.64289
2.6424
2.64247
2.64253
2.64259
2.64265
2.64271
2.64276
2.64282
2.64286
2.64291
2.64296
2.643
2.64254
2.64261
2.64267
2.64273
2.64278
2.64284
2.64289
2.64294
2.64298
2.64302
2.64306
2.6431
2.72218
2.72118
2.7204
2.71956
2.71884
2.71812
2.72308
2.72207
2.72128
2.72042
2.71968
2.71897
2.72376
2.72275
2.72195
2.72113
2.72045
2.71983
2.72444
2.72345
2.72264
2.72184
2.72118
2.72062
2.71565
2.71459
2.71369
2.71269
2.71177
2.71086
2.71638
2.71525
2.71427
2.71318
2.71217
2.71114
2.71694
2.71578
2.71477
2.71369
2.71271
2.71175
2.71755
2.71639
2.71537
2.71433
2.71339
2.7125
2.71815
2.71703
2.71603
2.71504
2.71414
2.71334
2.71875
2.71769
2.71673
2.71579
2.71494
2.71418
2.71934
2.71837
2.71744
2.71656
2.71576
2.71504
2.70818
2.70723
2.70633
2.70541
2.70457
2.70367
2.70861
2.70752
2.70652
2.70545
2.70437
2.70325
2.70897
2.70776
2.70664
2.70547
2.70432
2.70318