/*--------------------------------*- C++ -*----------------------------------*\
| =========                 |                                                 |
| \\      /  F ield         | OpenFOAM: The Open Source CFD Toolbox           |
|  \\    /   O peration     | Version:  v2106                                 |
|   \\  /    A nd           | Website:  www.openfoam.com                      |
|    \\/     M anipulation  |                                                 |
\*---------------------------------------------------------------------------*/
FoamFile
{
    version     2.0;
    format      ascii;
    arch        "LSB;label=32;scalar=64";
    class       volScalarField;
    location    "0.000208";
    object      k;
}
// * * * * * * * * * * * * * * * * * * * * * * * * * * * * * * * * * * * * * //

dimensions      [0 2 -2 0 0 0 0];

internalField   nonuniform List<scalar> 
18109
(
0.16202
0.124413
0.0942639
0.0727689
0.0586593
0.0518535
0.0525659
0.0802555
0.0613916
0.0461728
0.0348346
0.0270619
0.0227461
0.0218885
0.0394405
0.0288846
0.021361
0.0157463
0.0118502
0.00955984
0.00883536
0.019309
0.0130403
0.00933491
0.00668911
0.00488324
0.0038071
0.00341806
0.00943931
0.00568236
0.00385436
0.00266389
0.00188579
0.00142815
0.00125994
0.00473049
0.00244025
0.00151365
0.000994545
0.000681019
0.000503215
0.000442496
0.00264083
0.00110754
0.000584377
0.000351762
0.00023039
0.000166687
0.000149576
0.00188991
0.000628473
0.000249421
0.00012384
7.41575e-05
5.24936e-05
5.04636e-05
0.145958
0.113035
0.0859902
0.0660916
0.0524369
0.0449188
0.0435827
0.0496548
0.0657129
0.0948809
0.139803
0.202776
0.291092
0.417493
0.0702044
0.0546231
0.0413089
0.0311493
0.0239691
0.0196852
0.0182848
0.0202517
0.027015
0.0409917
0.0650951
0.102335
0.158783
0.244428
0.0330644
0.0250653
0.0187026
0.0138132
0.0103411
0.00819997
0.00736546
0.00800566
0.0108325
0.0173235
0.0297759
0.0512348
0.086836
0.145496
0.0152844
0.0109692
0.00798618
0.00575071
0.00418957
0.00322285
0.00282619
0.00305675
0.00427059
0.00731831
0.0137952
0.026318
0.049293
0.0909246
0.00694581
0.00459029
0.00321314
0.00224279
0.00158941
0.00119088
0.00102997
0.00113238
0.00168803
0.00319742
0.00673681
0.0143642
0.029823
0.0603816
0.00320217
0.00186548
0.00122226
0.00081902
0.000563951
0.000413285
0.000357364
0.000413883
0.00069358
0.00150657
0.00358863
0.00850297
0.019344
0.0422885
0.00166188
0.00078358
0.000449801
0.000281787
0.000187324
0.000134931
0.000119578
0.00015536
0.000312342
0.000794261
0.00211965
0.00547474
0.0133733
0.0309607
0.00116038
0.000405185
0.000175941
9.44271e-05
5.88413e-05
4.19087e-05
4.01694e-05
6.47174e-05
0.000163229
0.000478304
0.00139174
0.00382484
0.00983263
0.0237235
0.00117256
0.000320368
9.34964e-05
3.54602e-05
1.88886e-05
1.36664e-05
1.5972e-05
3.46316e-05
0.000105411
0.000337734
0.00103444
0.00295263
0.00783982
0.0194353
0.0015013
0.000368909
8.40909e-05
2.28299e-05
1.11101e-05
1.01633e-05
1.48074e-05
3.30319e-05
9.66361e-05
0.000303565
0.000926438
0.00265551
0.00710636
0.0177699
0.00209913
0.000505343
0.000115339
3.72623e-05
2.67741e-05
3.1124e-05
4.32206e-05
7.26442e-05
0.000155927
0.000403268
0.00111232
0.00302265
0.00784228
0.0191951
0.00306722
0.000787285
0.000221225
0.000108033
0.000100394
0.000122229
0.000163271
0.000239069
0.000403541
0.00081274
0.00186604
0.00450932
0.0108428
0.0250786
0.00473079
0.00144741
0.000550672
0.000354429
0.000355559
0.000433738
0.00057168
0.000799882
0.00121083
0.00205998
0.00396132
0.00828839
0.0179337
0.0381797
0.00800445
0.00319311
0.00154772
0.0011177
0.00113142
0.0013699
0.00179469
0.00246679
0.00354934
0.00547014
0.00916298
0.0166337
0.0319441
0.0618801
0.324952
0.520386
0.824358
1.3009
2.07491
3.41783
0.297928
0.484009
0.776937
1.23538
1.96681
3.1833
0.221102
0.384601
0.655021
1.10147
1.85863
3.20885
0.168792
0.312968
0.565143
1.00737
1.81692
3.40559
0.132705
0.262472
0.506294
0.971446
1.91046
3.95755
0.109373
0.231996
0.483169
1.01319
2.20144
5.02241
0.0987481
0.225947
0.512136
1.17431
2.78163
6.70116
0.101127
0.247369
0.600525
1.46453
3.60885
8.77611
0.118818
0.300307
0.748536
1.85008
4.52084
10.6499
0.155363
0.385933
0.941349
2.26427
5.33819
11.9114
0.212414
0.494612
1.13691
2.58685
5.76057
11.9906
0.290783
0.619826
1.31288
2.76984
5.74707
11.1581
0.390291
0.751724
1.45033
2.81044
5.39343
9.79997
0.519197
0.902076
1.58208
2.8082
4.95909
8.39483
0.698495
1.10062
1.75484
2.82589
4.52583
7.06075
0.474881
0.73918
1.27971
2.21231
3.67146
5.7472
0.317363
0.539845
0.992937
1.74907
2.924
4.76699
0.222436
0.415789
0.787551
1.40502
2.41139
4.20532
0.163416
0.324612
0.62457
1.13518
2.01776
3.76856
0.122758
0.252954
0.496274
0.9288
1.72571
3.4915
0.0929449
0.196778
0.395762
0.765286
1.48019
3.18088
0.071157
0.154375
0.319239
0.638378
1.28956
2.95906
0.0558852
0.12386
0.262975
0.542404
1.13827
2.76851
0.0462987
0.10415
0.225661
0.477229
1.03734
2.69801
0.0421328
0.0948502
0.206637
0.44186
0.980649
2.63531
0.0441697
0.0970089
0.207344
0.437856
0.966907
2.55556
0.0542338
0.112254
0.228012
0.461277
0.977302
2.39477
0.0753956
0.143034
0.268941
0.507801
1.00137
2.21384
0.109815
0.189127
0.325631
0.565569
1.01859
1.98411
0.0988327
0.156975
0.260937
0.45556
0.82979
1.59337
0.0650735
0.117367
0.211251
0.391442
0.737012
1.43141
0.0406873
0.08521
0.170732
0.336409
0.652118
1.28747
0.0264371
0.0625957
0.13516
0.277376
0.554063
1.13191
0.0178872
0.0457442
0.103907
0.222279
0.462903
0.99222
0.0123198
0.032819
0.0776841
0.173704
0.378635
0.852063
0.00857468
0.023324
0.0573593
0.134526
0.308405
0.729545
0.00601904
0.0165501
0.0421705
0.103801
0.250319
0.623622
0.00441078
0.0122292
0.0321279
0.0825841
0.209114
0.552186
0.00366084
0.0102449
0.0273126
0.0718111
0.187778
0.522269
0.00390481
0.0109793
0.0288149
0.0745464
0.19403
0.545685
0.00545111
0.0150533
0.0382083
0.0940885
0.231255
0.612134
0.00851992
0.0221254
0.0547953
0.12824
0.290643
0.694074
0.0132446
0.0312193
0.0744776
0.166088
0.351041
0.765979
0.0377909
0.106369
0.287644
0.730024
1.73467
3.85158
0.0652784
0.161433
0.385436
0.869183
1.84736
3.68503
0.112254
0.241037
0.502655
1.00665
1.93362
3.54257
0.193612
0.360111
0.654566
1.16659
2.04071
3.49283
0.0202029
0.0482494
0.106899
0.221834
0.438381
0.884088
0.0144358
0.0387082
0.091307
0.196576
0.411311
0.881457
0.0101902
0.0293777
0.0730702
0.165097
0.363867
0.837608
0.00715649
0.0215691
0.0564052
0.135922
0.324121
0.821333
0.00511064
0.0159242
0.043986
0.115303
0.307147
0.889315
0.0039241
0.0126919
0.037697
0.110191
0.332403
1.06493
0.00362847
0.0122513
0.0398224
0.129551
0.42736
1.41805
0.00452356
0.0156779
0.053932
0.182637
0.604229
1.92467
0.00744016
0.0252131
0.0849537
0.275405
0.851106
2.48042
0.014011
0.0441873
0.13705
0.403293
1.11774
2.89763
0.026909
0.0764948
0.212112
0.554636
1.36007
3.11183
0.0503567
0.126426
0.309565
0.717272
1.56419
3.18815
0.0925006
0.202393
0.432831
0.887974
1.73889
3.22364
0.167934
0.318245
0.591308
1.07446
1.90449
3.2617
5.12863
19.7881
56.7831
49.3818
34.9002
5.63175
22.77
61.9224
48.6529
33.9657
6.73939
27.2135
65.4658
47.5554
33.9588
8.76756
33.3458
67.4195
47.1921
34.6293
11.9088
40.7596
67.3229
46.2919
34.7991
15.8
47.2832
64.9238
44.8198
34.7639
19.8261
51
62.3767
43.5556
35.1692
22.393
50.6169
60.3685
43.9206
36.461
37.4595
23.2117
47.9607
59.0103
45.3346
37.763
39.2727
21.6849
42.4573
56.6422
46.2019
38.2997
40.7757
18.8388
36.2164
54.5749
47.2499
38.4457
41.602
51.7722
15.5403
29.9381
53.0234
49.4332
38.9362
40.2882
58.3314
78.816
12.441
24.5294
53.1787
53.2725
40.669
37.4963
56.4874
136.404
10.0277
21.3507
56.945
59.4153
44.8416
37.1794
42.3947
104.979
8.71077
21.3345
63.4377
65.7453
48.8632
38.0324
40.3732
103.503
8.26344
22.5644
71.9465
69.9052
49.4823
38.5638
41.2382
89.2065
8.24001
25.505
81.4992
72.0486
50.2716
40.2821
42.1153
77.5864
8.35803
30.425
90.8785
75.4794
52.7875
42.5325
40.5715
60.9828
8.48031
36.8412
96.4488
76.4949
52.3619
42.0151
38.7173
51.1315
8.61857
42.4108
94.4083
73.231
48.8349
40.3603
37.5534
45.0963
9.0826
46.069
89.076
68.7813
46.3461
40.3832
39.4518
41.4106
9.62099
46.4884
84.0026
67.9234
47.1545
42.3702
43.8961
39.7114
10.0133
43.5458
77.3336
68.2468
47.9873
43.8456
9.76361
37.4813
67.2839
66.8621
48.7978
44.518
8.80886
29.885
54.9223
64.0431
49.5055
44.9577
7.62106
22.8496
43.0059
61.364
51.261
43.9855
6.57324
17.5661
34.6575
59.4593
55.0471
43.0379
5.66778
14.1484
30.9431
61.6203
61.9655
4.93397
12.0559
30.8984
69.2036
69.5525
4.40635
10.7632
33.6394
78.8555
72.3256
3.97496
10.0399
39.8667
88.7212
72.726
3.57231
9.85459
50.6184
101.385
76.069
3.21759
10.1261
63.7904
109.951
74.5242
2.88217
10.925
74.0248
107.63
66.4984
2.61599
12.2182
77.3226
98.0813
59.7035
2.44525
13.5124
74.3907
89.267
56.8895
2.40922
14.226
65.5099
80.7329
54.513
2.49263
13.829
52.2474
70.5099
50.648
2.68457
12.8169
40.3083
60.8737
47.6228
2.91747
11.6047
31.6666
53.0203
45.8127
3.1075
10.5532
27.112
49.2913
44.9653
3.19817
9.81138
26.5013
50.959
45.9464
3.18132
9.40255
29.4676
56.2302
46.8901
3.07182
9.41298
36.0111
61.2183
44.871
2.93758
10.0474
46.9873
64.8367
42.8854
2.85309
11.4495
61.7078
67.7559
42.3147
3.0206
13.6453
76.9078
67.7075
40.0995
3.56389
16.4739
85.0553
63.4085
36.4548
4.53819
19.8541
83.4725
57.778
33.7917
5.67717
22.9173
76.9888
54.6296
33.2487
6.53568
23.8082
69.8433
52.6702
33.0754
6.67484
22.0175
61.3896
50.1135
32.6166
6.26457
19.1758
53.9764
48.1547
32.4419
5.67551
17.0298
48.7423
46.8901
32.8083
5.22525
16.7432
47.6254
46.7741
33.7497
5.02659
17.8504
51.0231
48.1109
34.7503
0.133523
0.10361
0.0791212
0.0607592
0.047911
0.0404167
0.0382539
0.0421882
0.0545472
0.0785163
0.117426
0.174131
0.256803
0.377422
0.0624694
0.0489017
0.0370817
0.0279879
0.0214963
0.017505
0.0159898
0.0172433
0.0224897
0.0339156
0.0545361
0.0875883
0.139404
0.219603
0.0283842
0.0218667
0.0163606
0.0121023
0.00906912
0.00716607
0.00637249
0.00678342
0.00900289
0.0143204
0.0249187
0.0438098
0.0761327
0.130758
0.0125362
0.00928924
0.00679819
0.00490827
0.00358911
0.00276178
0.00240977
0.00256634
0.00353473
0.00605083
0.0115768
0.0225874
0.0434126
0.0823088
0.0053863
0.0037532
0.00265755
0.00186434
0.00132991
0.00100003
0.000863957
0.000940029
0.00139151
0.00265289
0.00569973
0.0124471
0.0265329
0.0552801
0.00232339
0.00145857
0.00097923
0.000663043
0.000461181
0.000340245
0.000294934
0.000339968
0.000571537
0.00126159
0.00307775
0.00747273
0.0174416
0.0392044
0.00112633
0.000575196
0.000345851
0.000221704
0.000149814
0.000109043
9.72914e-05
0.000126911
0.000259317
0.000675363
0.00184888
0.00488956
0.0122392
0.0290875
0.000756892
0.000272652
0.000126122
7.13273e-05
4.59365e-05
3.33146e-05
3.23901e-05
5.30958e-05
0.000137561
0.000413889
0.00123447
0.00347041
0.00913424
0.0225885
0.000772269
0.00020047
5.94745e-05
2.46254e-05
1.42584e-05
1.07806e-05
1.2949e-05
2.88157e-05
9.01879e-05
0.000296389
0.000929957
0.00271605
0.00738377
0.0187412
0.00101431
0.00022588
4.85812e-05
1.43605e-05
8.45312e-06
8.47283e-06
1.25264e-05
2.80251e-05
8.32949e-05
0.00026785
0.000838314
0.00246348
0.0067549
0.0172823
0.00145554
0.000314554
6.83282e-05
2.58132e-05
2.24328e-05
2.74311e-05
3.80581e-05
6.32658e-05
0.000135555
0.000356103
0.00100685
0.00281033
0.00747747
0.0187186
0.00219575
0.000514839
0.000146883
8.47313e-05
8.76053e-05
0.00010966
0.000146551
0.000212888
0.000356644
0.000721807
0.00168798
0.00418278
0.0103136
0.0243874
0.00354912
0.00103432
0.00041192
0.00029599
0.000315762
0.000393279
0.000519594
0.00072372
0.00108821
0.0018504
0.00359526
0.00767295
0.016993
0.0369587
0.00639507
0.0025111
0.00125058
0.000965902
0.00101895
0.00125587
0.00165103
0.00226369
0.0032403
0.00498246
0.00838031
0.0154088
0.0301606
0.0596018
0.118444
0.0911149
0.0696093
0.0532688
0.0417661
0.0343775
0.0311631
0.0318287
0.0381522
0.0529174
0.0806394
0.125717
0.197507
0.307837
0.0516254
0.039915
0.0302547
0.0227988
0.0175039
0.0140661
0.0124815
0.0126155
0.0153466
0.0222227
0.0361874
0.0609039
0.103028
0.172057
0.0218119
0.0165485
0.0123423
0.00911316
0.00685002
0.00538639
0.00470455
0.00474177
0.00591581
0.00906955
0.0160145
0.0295353
0.0547329
0.100785
0.00887234
0.0064863
0.00471929
0.00339888
0.00250203
0.00192942
0.00166736
0.0016938
0.00221205
0.00369317
0.00725943
0.0149666
0.0309359
0.0638098
0.00345956
0.00239926
0.00168889
0.00118213
0.000852483
0.000646247
0.000556082
0.000579871
0.000824411
0.00156988
0.00354252
0.00827445
0.019133
0.0437291
0.00132938
0.000843179
0.000566199
0.000383491
0.000270931
0.000202498
0.000175431
0.000194852
0.000322811
0.000738788
0.00193837
0.00508426
0.0129217
0.0318621
0.000575681
0.000295881
0.000180001
0.000116312
8.03408e-05
5.95066e-05
5.32294e-05
6.80422e-05
0.000143641
0.000403312
0.00120451
0.00345529
0.0094171
0.0244534
0.000377813
0.000125627
5.78325e-05
3.34938e-05
2.23535e-05
1.66131e-05
1.63563e-05
2.74756e-05
7.75866e-05
0.000257124
0.000839656
0.00256336
0.00733675
0.0197284
0.000417572
9.02805e-05
2.38198e-05
1.01132e-05
6.3768e-06
5.11942e-06
6.41015e-06
1.5274e-05
5.30237e-05
0.000192545
0.000662166
0.00210516
0.00621764
0.017073
0.000602601
0.00010872
1.91268e-05
6.03637e-06
4.6756e-06
5.31489e-06
7.76804e-06
1.68307e-05
5.19851e-05
0.000181732
0.000623055
0.00199797
0.00593965
0.0163348
0.00094393
0.000167381
3.19674e-05
1.51657e-05
1.63831e-05
2.10907e-05
2.86459e-05
4.51438e-05
9.37425e-05
0.00025586
0.00078163
0.00237353
0.0068124
0.0181931
0.00155962
0.000312399
8.67669e-05
5.99815e-05
6.90454e-05
8.93325e-05
0.000118759
0.000167995
0.0002725
0.000553684
0.0013602
0.00362191
0.00957596
0.0240118
0.00275966
0.000727862
0.000289927
0.000229999
0.000259919
0.000332075
0.000438926
0.00060332
0.000888462
0.00150234
0.00299205
0.00673565
0.0158699
0.0364474
0.00532964
0.00202331
0.000994535
0.000807184
0.000875808
0.0010988
0.00144667
0.0019692
0.00278221
0.00425128
0.00720702
0.0136671
0.0280499
0.0582321
0.106887
0.0810622
0.0613792
0.0465479
0.0364163
0.0296457
0.026394
0.0257552
0.0292846
0.0388545
0.0589211
0.0943396
0.155866
0.255353
0.0430443
0.0324067
0.0243779
0.0182395
0.0140386
0.0112269
0.00989276
0.00963045
0.0111634
0.0154337
0.0249376
0.0429703
0.0764682
0.135307
0.0168307
0.0122518
0.0090568
0.00664333
0.00502419
0.00394047
0.00344024
0.00335928
0.00401695
0.00589528
0.0103753
0.0196987
0.0388528
0.0778572
0.00630026
0.00436817
0.00314917
0.00225127
0.00166997
0.00128304
0.00111107
0.00109608
0.00137969
0.00222597
0.00443223
0.00957961
0.0215223
0.0495644
0.00225199
0.00146765
0.00102427
0.000709892
0.000515471
0.000387518
0.000333693
0.000337585
0.000466883
0.00088176
0.00208104
0.005236
0.0134258
0.0346872
0.000800462
0.000469391
0.000311748
0.000208343
0.000147807
0.000108653
9.37214e-05
0.000101001
0.000167172
0.000398641
0.00113532
0.0032811
0.00934172
0.0260203
0.000341634
0.000153274
9.00607e-05
5.70555e-05
3.93815e-05
2.83455e-05
2.50727e-05
3.167e-05
7.10243e-05
0.000219613
0.000729714
0.00233451
0.00714324
0.0208238
0.000253291
6.72297e-05
2.68298e-05
1.48161e-05
9.80346e-06
6.99083e-06
6.82236e-06
1.20665e-05
3.88069e-05
0.000145987
0.000536188
0.0018358
0.00588567
0.0176132
0.000320554
5.69167e-05
1.14071e-05
4.18455e-06
2.64955e-06
2.13519e-06
2.75056e-06
7.12692e-06
2.82468e-05
0.000117016
0.000455173
0.00162587
0.00534198
0.0161204
0.000506985
7.99296e-05
1.11851e-05
3.26656e-06
2.96529e-06
3.66836e-06
5.19465e-06
1.02832e-05
3.17551e-05
0.000121782
0.000467471
0.00166963
0.00544576
0.0161849
0.000861908
0.000139113
2.30516e-05
1.1285e-05
1.31604e-05
1.75245e-05
2.36036e-05
3.53353e-05
6.96082e-05
0.000194992
0.000645897
0.00214459
0.00663762
0.0188263
0.00155457
0.000289011
7.23629e-05
5.01204e-05
5.91076e-05
7.8123e-05
0.000104169
0.000145052
0.000228613
0.00046451
0.00119568
0.00341526
0.00964229
0.025463
0.00291331
0.000720374
0.000266778
0.000208416
0.000234347
0.000301938
0.000399529
0.000546088
0.000793322
0.00133705
0.00272437
0.00645704
0.0161425
0.0389599
0.0056212
0.00212277
0.00100197
0.000792505
0.000836084
0.00104407
0.00136777
0.00185372
0.00260175
0.00397024
0.00677566
0.0131926
0.0282548
0.0615224
0.084197
0.0626627
0.0469492
0.0354376
0.0281074
0.0230016
0.0205407
0.0196859
0.0217212
0.0276395
0.0413377
0.0669901
0.117016
0.201273
0.0310788
0.0224884
0.0167311
0.0124973
0.00980536
0.00792702
0.00703859
0.00677711
0.00764656
0.0101781
0.0163219
0.0286742
0.0543924
0.104387
0.011149
0.00757544
0.00552584
0.00405527
0.00313886
0.0025004
0.00221053
0.0021467
0.00249992
0.00354969
0.00629576
0.0124578
0.0269546
0.0614711
0.00381374
0.00238487
0.00168843
0.0012097
0.000921852
0.000722084
0.000635875
0.000625276
0.00076458
0.00120723
0.00249911
0.00586608
0.0149974
0.0403008
0.00125276
0.000701467
0.000476136
0.000331085
0.000247884
0.000190535
0.000167341
0.000168568
0.000227101
0.00043624
0.00113068
0.00324037
0.00968459
0.0292144
0.00044267
0.000200211
0.000124271
8.29346e-05
6.08628e-05
4.5889e-05
4.04334e-05
4.33509e-05
7.22033e-05
0.000189694
0.000627397
0.00212297
0.0070694
0.022701
0.000237024
6.83806e-05
3.14946e-05
1.90846e-05
1.36061e-05
1.00851e-05
9.13166e-06
1.17719e-05
2.94372e-05
0.000109038
0.000431317
0.00162152
0.00574688
0.0190061
0.000251403
4.63574e-05
1.02759e-05
4.26239e-06
2.80617e-06
2.0777e-06
2.12325e-06
4.2818e-06
1.71669e-05
7.91726e-05
0.000344774
0.00137252
0.00501203
0.0167109
0.000374232
5.97572e-05
7.54585e-06
1.41261e-06
8.24663e-07
7.77482e-07
1.07874e-06
3.06333e-06
1.44602e-05
7.16704e-05
0.000325477
0.00132834
0.00486751
0.0160229
0.00063321
0.000101019
1.17056e-05
2.27865e-06
2.0759e-06
2.69252e-06
3.63393e-06
6.44476e-06
1.96735e-05
8.40587e-05
0.000365765
0.00145801
0.00518849
0.0164893
0.00112162
0.000189624
2.67113e-05
9.68892e-06
1.08755e-05
1.44307e-05
1.89842e-05
2.71283e-05
5.14279e-05
0.000149973
0.000544625
0.00198024
0.00658454
0.0197068
0.00204677
0.000392631
8.11649e-05
4.54651e-05
5.12459e-05
6.70792e-05
8.80656e-05
0.000120109
0.000184965
0.000378636
0.00103252
0.00318993
0.00966527
0.0269181
0.00370318
0.000906542
0.000294482
0.000202187
0.000214982
0.000271727
0.000353255
0.000476371
0.000682242
0.0011465
0.00240038
0.00604337
0.0161808
0.0412749
0.00659112
0.00249861
0.00114645
0.000834483
0.000821925
0.000996165
0.00127425
0.00170385
0.00236755
0.00360319
0.00618778
0.0124104
0.0278925
0.0642372
0.0409742
0.0291156
0.0214203
0.0162344
0.0134073
0.0114519
0.0107297
0.0105652
0.0116718
0.0144465
0.0214193
0.0350613
0.0654595
0.121387
0.013718
0.00913188
0.00657372
0.00488035
0.00398722
0.00339043
0.00319681
0.00320293
0.00365623
0.00479002
0.00770074
0.0140045
0.0292892
0.0648588
0.00449048
0.00266778
0.0018612
0.00134549
0.00108175
0.000909413
0.000860033
0.000877642
0.00104593
0.00149101
0.00273012
0.00589327
0.014836
0.040713
0.0014476
0.000728132
0.000484294
0.000339159
0.000267132
0.000220762
0.000208702
0.00021754
0.00027717
0.000458879
0.00104493
0.00286121
0.00878482
0.0281329
0.000491432
0.000190522
0.000115624
7.7816e-05
5.98328e-05
4.83911e-05
4.56722e-05
4.94386e-05
7.28409e-05
0.000161939
0.000502791
0.00174509
0.00621604
0.0217501
0.000235722
5.85656e-05
2.63639e-05
1.62213e-05
1.20807e-05
9.54426e-06
9.06573e-06
1.09501e-05
2.28255e-05
7.82552e-05
0.00031906
0.00128855
0.00496972
0.0180204
0.000206194
3.54354e-05
7.59737e-06
3.19039e-06
2.1884e-06
1.69034e-06
1.69905e-06
2.93713e-06
1.09956e-05
5.34816e-05
0.000253154
0.00110459
0.00442291
0.0161653
0.000286508
4.55929e-05
5.51034e-06
8.35636e-07
3.86535e-07
3.01903e-07
3.94663e-07
1.36563e-06
7.94036e-06
4.51262e-05
0.000228707
0.00103379
0.0041763
0.0150643
0.000460387
7.5226e-05
8.20258e-06
7.43835e-07
2.7411e-07
3.13917e-07
4.65966e-07
1.42907e-06
7.96124e-06
4.62945e-05
0.000239734
0.00108883
0.00433336
0.0151802
0.000799198
0.000138017
1.59116e-05
2.01178e-06
1.43488e-06
1.88104e-06
2.45394e-06
4.02401e-06
1.23526e-05
5.88992e-05
0.000286787
0.0012515
0.00477213
0.0159525
0.00143155
0.000265214
3.60914e-05
8.35669e-06
8.07858e-06
1.06985e-05
1.38284e-05
1.90852e-05
3.56147e-05
0.000110917
0.000444644
0.00175506
0.00621138
0.0194662
0.00259731
0.000536701
9.96533e-05
3.94714e-05
4.01536e-05
5.19344e-05
6.71315e-05
8.96359e-05
0.000135501
0.00028363
0.000833945
0.00279949
0.00907303
0.0265397
0.00459277
0.00115094
0.000332396
0.000185817
0.000181289
0.000223076
0.000283828
0.000376435
0.0005322
0.000898343
0.00196234
0.0052951
0.0151766
0.0409612
0.00765491
0.0028584
0.00129891
0.000841877
0.000758341
0.000880064
0.00108921
0.00143112
0.00196988
0.003003
0.00523832
0.0108937
0.0257932
0.063207
0.00950265
0.00632141
0.00458521
0.00348511
0.00299545
0.00267795
0.0026723
0.00276963
0.00318301
0.00397347
0.00596163
0.0102108
0.0208529
0.0439787
0.0028633
0.00171738
0.00120464
0.000886686
0.000742935
0.000655028
0.000654364
0.000690896
0.000822816
0.00110379
0.00185216
0.00372945
0.00903902
0.0238653
0.000888233
0.000436388
0.00028987
0.000206013
0.000167481
0.000144525
0.000143635
0.00015414
0.000192433
0.000290612
0.000597211
0.001561
0.00481582
0.0158406
0.000312461
0.00010805
6.35972e-05
4.32877e-05
3.40675e-05
2.86421e-05
2.81866e-05
3.08628e-05
4.22836e-05
8.18557e-05
0.000236479
0.000831465
0.00311085
0.0115824
0.000153399
3.22728e-05
1.32663e-05
8.16302e-06
6.18143e-06
5.05592e-06
4.93343e-06
5.73928e-06
1.03146e-05
3.23087e-05
0.000135214
0.000584719
0.00244603
0.00973481
0.000130999
2.00393e-05
3.75559e-06
1.44803e-06
9.89303e-07
7.86714e-07
7.8281e-07
1.18001e-06
3.95816e-06
1.99711e-05
0.000102324
0.000487226
0.00214781
0.00875282
0.000159891
2.44051e-05
2.89201e-06
3.73409e-07
1.44664e-07
1.0915e-07
1.31164e-07
4.26122e-07
2.66182e-06
1.66249e-05
9.266e-05
0.000463015
0.0020897
0.00851512
0.000240326
3.86354e-05
4.32893e-06
3.27492e-07
4.17786e-08
3.25522e-08
5.93475e-08
3.2241e-07
2.40939e-06
1.61309e-05
9.3658e-05
0.0004773
0.00214747
0.00854636
0.00038306
6.48113e-05
7.47706e-06
5.86421e-07
1.40012e-07
1.64206e-07
2.21851e-07
5.31965e-07
2.90785e-06
1.88144e-05
0.000109261
0.000551059
0.00241419
0.00924444
0.000645772
0.000114614
1.42184e-05
1.56977e-06
8.80687e-07
1.14407e-06
1.4468e-06
2.10867e-06
5.64837e-06
2.74499e-05
0.000145335
0.000692115
0.00286834
0.0103845
0.00112088
0.000210055
3.00969e-05
5.96726e-06
5.15396e-06
6.78193e-06
8.61497e-06
1.13536e-05
1.94735e-05
5.82964e-05
0.000244624
0.00103874
0.00397299
0.0134534
0.00203887
0.000418941
8.053e-05
2.85091e-05
2.70957e-05
3.45599e-05
4.39291e-05
5.7128e-05
8.27544e-05
0.000165752
0.000490475
0.00173098
0.0059771
0.0187823
0.00373269
0.000914279
0.00027072
0.000143447
0.000133136
0.000159802
0.000198391
0.000257506
0.000355651
0.000585301
0.0012683
0.00351335
0.0105612
0.0305282
0.00671515
0.00245892
0.00115031
0.000721117
0.000616045
0.000689027
0.000822305
0.00105621
0.00142998
0.0021515
0.00371253
0.00772021
0.0186832
0.0487102
0.000846267
0.000533922
0.000382275
0.000286426
0.000243642
0.00021983
0.000225583
0.00024679
0.000302815
0.000403866
0.000648406
0.00121303
0.00271313
0.00658617
0.000233842
0.000127912
8.82173e-05
6.41248e-05
5.24953e-05
4.5854e-05
4.61339e-05
5.06457e-05
6.39874e-05
9.32765e-05
0.000176068
0.000415962
0.00118266
0.00365237
7.38079e-05
2.91292e-05
1.8292e-05
1.28661e-05
1.01808e-05
8.60712e-06
8.45993e-06
9.29398e-06
1.23882e-05
2.1818e-05
5.68443e-05
0.000189192
0.000695839
0.00259306
3.51692e-05
7.87882e-06
3.51799e-06
2.27234e-06
1.73775e-06
1.42773e-06
1.37479e-06
1.54511e-06
2.47933e-06
6.83815e-06
2.75182e-05
0.000119185
0.000503281
0.00203962
2.95306e-05
4.53287e-06
8.97717e-07
3.68701e-07
2.55899e-07
2.0466e-07
1.97312e-07
2.65051e-07
7.7052e-07
3.80277e-06
1.98858e-05
9.66211e-05
0.000436981
0.00186924
3.69031e-05
5.48641e-06
6.63344e-07
8.90543e-08
3.37333e-08
2.50679e-08
2.75498e-08
7.64311e-08
4.69503e-07
3.01781e-06
1.72519e-05
8.85797e-05
0.000418654
0.00184531
5.3001e-05
8.21447e-06
9.20886e-07
7.18441e-08
7.12739e-09
3.82051e-09
7.54355e-09
5.04692e-08
4.06351e-07
2.82003e-06
1.69478e-05
9.08681e-05
0.000442704
0.00197106
8.31291e-05
1.32903e-05
1.47943e-06
1.07152e-07
1.22638e-08
1.09729e-08
1.62342e-08
5.86481e-08
4.17365e-07
2.96329e-06
1.84889e-05
0.000101803
0.0004992
0.00218844
0.000132604
2.18417e-05
2.48106e-06
2.07551e-07
7.05626e-08
8.74376e-08
1.09136e-07
1.72768e-07
6.23986e-07
3.82742e-06
2.34985e-05
0.00012824
0.000615133
0.00260279
0.000219493
3.73628e-05
4.59118e-06
6.18655e-07
4.57002e-07
6.03357e-07
7.49899e-07
9.63195e-07
1.77891e-06
6.69409e-06
3.49085e-05
0.000176965
0.000799859
0.00319489
0.000371715
6.72025e-05
1.01676e-05
2.7309e-06
2.71243e-06
3.57063e-06
4.47972e-06
5.61583e-06
8.03099e-06
1.80111e-05
6.67349e-05
0.000289293
0.00119079
0.00442551
0.000689378
0.000143266
3.26741e-05
1.49033e-05
1.49038e-05
1.87739e-05
2.34701e-05
2.95696e-05
3.9375e-05
6.54326e-05
0.000161539
0.000540821
0.00192998
0.00653887
0.00136251
0.000384276
0.000149749
9.33444e-05
8.6392e-05
0.000100041
0.000118877
0.000148741
0.000194263
0.0002872
0.00052929
0.00130598
0.00381322
0.0114999
0.00305166
0.00132026
0.000729102
0.00051647
0.000455514
0.000498055
0.000568899
0.000701301
0.00090232
0.00127546
0.00198966
0.00366313
0.00795121
0.020144
5.09144e-05
3.18217e-05
2.28551e-05
1.71351e-05
1.40082e-05
1.222e-05
1.20994e-05
1.31394e-05
1.62449e-05
2.28156e-05
3.97909e-05
8.45642e-05
0.000215284
0.000593091
1.31722e-05
6.74926e-06
4.6453e-06
3.4103e-06
2.715e-06
2.30221e-06
2.22164e-06
2.37357e-06
2.97354e-06
4.67287e-06
1.03954e-05
3.03093e-05
0.000101685
0.000351318
4.90052e-06
1.49183e-06
8.30078e-07
5.79267e-07
4.50736e-07
3.74956e-07
3.55618e-07
3.7928e-07
5.22285e-07
1.15706e-06
4.07742e-06
1.67513e-05
6.84785e-05
0.000267075
3.90841e-06
6.84744e-07
1.75034e-07
8.68109e-08
6.28701e-08
5.14334e-08
4.86909e-08
5.67827e-08
1.22008e-07
5.16615e-07
2.61476e-06
1.24576e-05
5.43706e-05
0.000220899
4.96054e-06
7.8863e-07
1.08353e-07
1.83607e-08
7.73818e-09
5.84356e-09
5.93286e-09
1.19011e-08
6.14332e-08
3.86003e-07
2.1818e-06
1.08732e-05
4.91258e-05
0.000207445
7.3047e-06
1.16498e-06
1.41171e-07
1.33313e-08
1.52642e-09
6.37311e-10
1.01708e-09
6.1097e-09
4.88104e-08
3.36597e-07
1.97627e-06
1.02014e-05
4.79195e-05
0.000210413
1.11507e-05
1.78279e-06
2.05561e-07
1.68127e-08
1.36538e-09
5.63297e-10
9.86736e-10
5.58674e-09
4.49143e-08
3.18982e-07
1.94567e-06
1.04939e-05
5.14494e-05
0.000233376
1.75345e-05
2.79754e-06
3.11852e-07
2.48389e-08
4.25984e-09
4.25977e-09
5.34637e-09
1.0216e-08
4.97583e-08
3.35853e-07
2.11463e-06
1.18694e-05
5.99354e-05
0.000274861
2.74992e-05
4.40269e-06
4.90698e-07
4.92777e-08
2.53985e-08
3.24545e-08
3.94804e-08
5.00111e-08
1.02797e-07
4.67351e-07
2.75618e-06
1.54195e-05
7.75156e-05
0.000349414
4.36161e-05
7.14931e-06
8.79156e-07
1.67622e-07
1.60985e-07
2.13808e-07
2.62188e-07
3.14624e-07
4.36607e-07
1.05368e-06
4.57278e-06
2.30082e-05
0.000108971
0.000466495
7.20797e-05
1.29778e-05
2.24892e-06
8.94558e-07
9.89395e-07
1.29001e-06
1.58835e-06
1.92635e-06
2.44453e-06
4.0143e-06
1.09211e-05
4.27965e-05
0.000177982
0.000697476
0.000129627
3.02295e-05
9.26499e-06
5.66503e-06
6.05385e-06
7.5675e-06
9.25569e-06
1.13579e-05
1.4201e-05
1.99887e-05
3.7035e-05
0.000100205
0.000332151
0.00113468
0.000258898
8.85009e-05
4.25909e-05
3.08629e-05
3.09481e-05
3.64915e-05
4.36787e-05
5.37953e-05
6.76999e-05
9.17862e-05
0.000142621
0.00028525
0.000727392
0.00212234
0.00063271
0.000312667
0.000192676
0.000151526
0.000145457
0.000162431
0.000187321
0.000228334
0.000286791
0.000384778
0.000553905
0.000905133
0.00172702
0.00405006
3.82021e-06
2.36413e-06
1.69622e-06
1.27103e-06
1.01483e-06
8.59635e-07
8.1257e-07
8.39964e-07
9.83649e-07
1.38489e-06
2.61088e-06
6.39375e-06
1.85774e-05
5.76318e-05
9.8683e-07
4.46463e-07
2.94581e-07
2.14798e-07
1.68743e-07
1.41156e-07
1.31714e-07
1.34209e-07
1.60171e-07
2.68598e-07
7.25227e-07
2.57379e-06
9.76534e-06
3.64137e-05
5.34606e-07
1.24324e-07
4.94187e-08
3.05546e-08
2.31213e-08
1.91908e-08
1.78779e-08
1.86913e-08
2.7715e-08
8.18423e-08
3.66159e-07
1.68791e-06
7.25508e-06
2.8933e-05
6.3348e-07
1.10901e-07
1.93273e-08
5.03431e-09
2.70873e-09
2.1313e-09
2.03312e-09
2.73066e-09
8.84149e-09
4.92479e-08
2.73917e-07
1.35367e-06
5.98717e-06
2.42589e-05
9.16537e-07
1.56105e-07
2.2107e-08
2.79882e-09
4.633e-10
2.10848e-10
2.36956e-10
8.44888e-10
5.95781e-09
4.04821e-08
2.36188e-07
1.19495e-06
5.39647e-06
2.24066e-05
1.35897e-06
2.24187e-07
2.94074e-08
3.15076e-09
3.02847e-10
5.47743e-11
8.40556e-11
5.99071e-10
4.97962e-09
3.51942e-08
2.10791e-07
1.09736e-06
5.12208e-06
2.20558e-05
2.02999e-06
3.22602e-07
3.9245e-08
3.81056e-09
4.15032e-10
1.8981e-10
2.39109e-10
7.0255e-10
4.63093e-09
3.24768e-08
2.00134e-07
1.08423e-06
5.29413e-06
2.38246e-05
3.05208e-06
4.67934e-07
5.34272e-08
5.20369e-09
1.35558e-09
1.42679e-09
1.70891e-09
2.30552e-09
6.22805e-09
3.42715e-08
2.09913e-07
1.18038e-06
6.00666e-06
2.79456e-05
4.54162e-06
6.78792e-07
7.63574e-08
1.07569e-08
7.86565e-09
1.01206e-08
1.22143e-08
1.43615e-08
2.0447e-08
5.66636e-08
2.80263e-07
1.53012e-06
7.80279e-06
3.63083e-05
6.85896e-06
1.04177e-06
1.36623e-07
4.16791e-08
4.74215e-08
6.27404e-08
7.65634e-08
8.99413e-08
1.10259e-07
1.82053e-07
5.51768e-07
2.48077e-06
1.16819e-05
5.16099e-05
1.08223e-05
1.93015e-06
4.22226e-07
2.49704e-07
3.04665e-07
3.98325e-07
4.90167e-07
5.87606e-07
7.08141e-07
9.59741e-07
1.82031e-06
5.54188e-06
2.12358e-05
8.32817e-05
1.91676e-05
4.87711e-06
1.8333e-06
1.35501e-06
1.57536e-06
2.00857e-06
2.47843e-06
3.01193e-06
3.6563e-06
4.70759e-06
7.14716e-06
1.52505e-05
4.43579e-05
0.000147296
3.96984e-05
1.55501e-05
8.26811e-06
6.60248e-06
7.18753e-06
8.76586e-06
1.06683e-05
1.30231e-05
1.59716e-05
2.0441e-05
2.84412e-05
4.82776e-05
0.000106814
0.000294219
0.000102244
5.48839e-05
3.51188e-05
2.93728e-05
3.03334e-05
3.51797e-05
4.16346e-05
5.04984e-05
6.22412e-05
8.01163e-05
0.000108244
0.000161716
0.000278841
0.000606484
4.71378e-07
2.79497e-07
1.97725e-07
1.46841e-07
1.16047e-07
9.78635e-08
9.13091e-08
9.20698e-08
1.03108e-07
1.42292e-07
2.81359e-07
7.63229e-07
2.43432e-06
8.10133e-06
1.38299e-07
5.24513e-08
3.1129e-08
2.18917e-08
1.69847e-08
1.4244e-08
1.32473e-08
1.33155e-08
1.5606e-08
2.79173e-08
8.73826e-08
3.48639e-07
1.41291e-06
5.44946e-06
1.08869e-07
2.28647e-08
6.30482e-09
2.93785e-09
2.03655e-09
1.68253e-09
1.57656e-09
1.68621e-09
2.82966e-09
1.03078e-08
5.17879e-08