/*--------------------------------*- C++ -*----------------------------------*\
| =========                 |                                                 |
| \\      /  F ield         | OpenFOAM: The Open Source CFD Toolbox           |
|  \\    /   O peration     | Version:  v2106                                 |
|   \\  /    A nd           | Website:  www.openfoam.com                      |
|    \\/     M anipulation  |                                                 |
\*---------------------------------------------------------------------------*/
FoamFile
{
    version     2.0;
    format      ascii;
    arch        "LSB;label=32;scalar=64";
    class       volVectorField;
    location    "0.00013";
    object      U;
}
// * * * * * * * * * * * * * * * * * * * * * * * * * * * * * * * * * * * * * //

dimensions      [0 1 -1 0 0 0 0];

internalField   nonuniform List<vector> 
17927
(
(0.00912688 0.00912657 -0.3698)
(0.00772103 0.00911154 -0.369386)
(0.0065083 0.00956098 -0.3687)
(0.00510348 0.0096423 -0.368191)
(0.00368946 0.00979613 -0.367783)
(0.00223103 0.00983311 -0.367567)
(0.00073808 0.00984913 -0.367482)
(0.00910757 0.00771586 -0.369388)
(0.00784454 0.00784069 -0.36891)
(0.00669648 0.00819563 -0.368168)
(0.00534273 0.00832967 -0.367606)
(0.00391608 0.0084886 -0.367112)
(0.00239366 0.00857538 -0.366787)
(0.000793713 0.00862379 -0.366645)
(0.00955836 0.00650096 -0.368703)
(0.00820072 0.00668871 -0.368169)
(0.00697103 0.00696237 -0.367334)
(0.00551157 0.00707228 -0.366809)
(0.00400712 0.00718055 -0.366337)
(0.00243019 0.00723567 -0.366051)
(0.000801809 0.00727048 -0.365924)
(0.00963941 0.00509531 -0.368194)
(0.00833447 0.00533377 -0.367607)
(0.00708092 0.00550237 -0.36681)
(0.00563311 0.00562437 -0.366267)
(0.00410864 0.00570616 -0.365796)
(0.00250038 0.00576049 -0.365485)
(0.000824605 0.00579083 -0.365344)
(0.00979307 0.00368301 -0.367785)
(0.00849355 0.00390976 -0.36711)
(0.00718947 0.00400182 -0.366335)
(0.00571484 0.0041044 -0.365793)
(0.00416419 0.00416061 -0.365325)
(0.00253225 0.00420038 -0.365015)
(0.000834023 0.00422143 -0.364872)
(0.00983081 0.00222711 -0.367567)
(0.00858349 0.00239085 -0.366783)
(0.00724685 0.0024284 -0.366051)
(0.00577131 0.00249973 -0.365486)
(0.00420511 0.00253218 -0.365023)
(0.00255901 0.0025588 -0.364699)
(0.000841657 0.00257137 -0.364551)
(0.00984475 0.000735852 -0.367484)
(0.00862973 0.000793877 -0.366641)
(0.00728046 0.000805037 -0.365919)
(0.00580138 0.000830303 -0.365338)
(0.00422652 0.000841705 -0.364869)
(0.00257223 0.000851079 -0.364538)
(0.000845414 0.00085395 -0.36439)
(0.00984593 -0.000736304 -0.367482)
(0.00862936 -0.000790901 -0.366641)
(0.00727997 -0.000798691 -0.365917)
(0.00579977 -0.000821946 -0.365336)
(0.00422446 -0.000831292 -0.364868)
(0.00257063 -0.000839377 -0.364537)
(0.000844077 -0.000846163 -0.364389)
(0.00983607 -0.00222773 -0.367565)
(0.00858815 -0.00238883 -0.366782)
(0.00725293 -0.00242491 -0.366045)
(0.00577492 -0.00249504 -0.36548)
(0.00420592 -0.00252681 -0.365015)
(0.00255753 -0.00255311 -0.36469)
(0.000837037 -0.0025698 -0.364541)
(0.0114583 0.0114566 -0.398324)
(0.00973844 0.011475 -0.397882)
(0.00820408 0.0120053 -0.397076)
(0.00643049 0.0121226 -0.396493)
(0.00464258 0.0123281 -0.396021)
(0.00279992 0.012383 -0.395789)
(0.000934467 0.0124082 -0.395709)
(-0.000938269 0.0124088 -0.39571)
(-0.00280206 0.0123842 -0.395791)
(-0.00464295 0.0123301 -0.396023)
(-0.00642924 0.0121238 -0.396496)
(-0.00820271 0.0120061 -0.397079)
(-0.00973706 0.0114731 -0.397885)
(-0.0114593 0.0114541 -0.398328)
(0.011474 0.00973228 -0.397882)
(0.009899 0.00989486 -0.397328)
(0.00842043 0.0103323 -0.396479)
(0.00670783 0.0105009 -0.395858)
(0.00491522 0.0106949 -0.395307)
(0.00300359 0.010794 -0.394955)
(0.00100898 0.0108501 -0.394812)
(-0.00101096 0.0108509 -0.394812)
(-0.00300507 0.0107963 -0.394956)
(-0.00491544 0.0106976 -0.39531)
(-0.00670758 0.0105038 -0.395862)
(-0.00842041 0.0103346 -0.396484)
(-0.00990074 0.0098953 -0.397332)
(-0.0114784 0.00973117 -0.397885)
(0.0120063 0.00819662 -0.397076)
(0.0103384 0.00841392 -0.396479)
(0.0087603 0.00875307 -0.395544)
(0.00691945 0.00889335 -0.394994)
(0.0050283 0.00902805 -0.394495)
(0.00304791 0.0090929 -0.394215)
(0.00102079 0.00913685 -0.394103)
(-0.00102183 0.00913775 -0.394103)
(-0.00304866 0.00909533 -0.394217)
(-0.00502777 0.00903071 -0.394498)
(-0.00691884 0.00889594 -0.394998)
(-0.00876029 0.00875564 -0.395547)
(-0.0103402 0.00841564 -0.396481)
(-0.012011 0.00819775 -0.397078)
(0.0121241 0.00642286 -0.396493)
(0.0105081 0.00670137 -0.395857)
(0.00890086 0.00691355 -0.394994)
(0.00707406 0.00706887 -0.394452)
(0.00515491 0.00716743 -0.393988)
(0.00313607 0.00722932 -0.393697)
(0.00105254 0.00726693 -0.393579)
(-0.00105363 0.00726775 -0.39358)
(-0.00313681 0.00723092 -0.393699)
(-0.0051542 0.00716903 -0.393992)
(-0.0070733 0.00707017 -0.394456)
(-0.00890081 0.00691494 -0.394998)
(-0.0105105 0.00670267 -0.39586)
(-0.0121296 0.00642362 -0.396496)
(0.012331 0.00463718 -0.39602)
(0.0107041 0.00491157 -0.395304)
(0.00903724 0.00502602 -0.394492)
(0.00717325 0.00515432 -0.393985)
(0.00522 0.00521975 -0.393554)
(0.00317183 0.00526272 -0.393291)
(0.00106495 0.00528948 -0.393185)
(-0.00106607 0.0052901 -0.393186)
(-0.00317249 0.00526299 -0.393293)
(-0.00521926 0.00521955 -0.393559)
(-0.00717235 0.0051532 -0.39399)
(-0.00903721 0.00502478 -0.394496)
(-0.0107066 0.00491023 -0.395306)
(-0.0123369 0.00463618 -0.396022)
(0.0123872 0.0027977 -0.395785)
(0.0108062 0.00300347 -0.39495)
(0.00910463 0.003049 -0.394214)
(0.00723685 0.00313864 -0.393699)
(0.00526366 0.00317501 -0.393299)
(0.00319901 0.00320233 -0.393044)
(0.00107438 0.00321897 -0.392945)
(-0.00107702 0.00321942 -0.392944)
(-0.00320071 0.00320144 -0.393043)
(-0.00526356 0.00317339 -0.393299)
(-0.00723593 0.00313583 -0.393699)
(-0.00910444 0.00304554 -0.394214)
(-0.0108077 0.0029992 -0.394951)
(-0.012393 0.00279429 -0.395786)
(0.0124108 0.000935216 -0.395708)
(0.0108592 0.00101134 -0.394809)
(0.00914634 0.00102467 -0.394099)
(0.00727259 0.00105803 -0.393576)
(0.00528912 0.00107151 -0.393185)
(0.00321523 0.00108187 -0.392934)
(0.00108056 0.0010872 -0.392836)
(-0.00108264 0.00108677 -0.392837)
(-0.0032167 0.0010781 -0.392935)
(-0.00528959 0.0010659 -0.393187)
(-0.00727251 0.00105091 -0.393579)
(-0.00914741 0.00101664 -0.394102)
(-0.0108621 0.00100303 -0.39481)
(-0.0124161 0.000928393 -0.395707)
(0.0124124 -0.000934641 -0.395707)
(0.01086 -0.00100728 -0.394809)
(0.00914702 -0.00101774 -0.394098)
(0.00727259 -0.00104854 -0.393576)
(0.00528869 -0.00105986 -0.393186)
(0.00321477 -0.00106903 -0.392935)
(0.00108002 -0.00107688 -0.392837)
(-0.00108285 -0.00107745 -0.392837)
(-0.00321734 -0.00107346 -0.392935)
(-0.00529093 -0.00106626 -0.393186)
(-0.00727452 -0.00105621 -0.393578)
(-0.00914945 -0.00102614 -0.3941)
(-0.0108628 -0.00101541 -0.39481)
(-0.0124167 -0.000942481 -0.395706)
(0.0123928 -0.00279813 -0.395785)
(0.0108115 -0.00300117 -0.394952)
(0.00911034 -0.0030447 -0.394215)
(0.0072414 -0.00313233 -0.393699)
(0.00526625 -0.00316729 -0.393298)
(0.00319944 -0.0031939 -0.393042)
(0.00107184 -0.00321328 -0.392941)
(-0.00108131 -0.00321409 -0.392941)
(-0.00320741 -0.00319917 -0.393041)
(-0.00527216 -0.00317492 -0.393297)
(-0.00724505 -0.0031418 -0.393697)
(-0.00911226 -0.00305507 -0.394211)
(-0.0108114 -0.00301051 -0.39495)
(-0.0123923 -0.00280679 -0.395785)
(0.0123376 -0.00464019 -0.39602)
(0.0107116 -0.00491376 -0.395306)
(0.00904477 -0.0050271 -0.394495)
(0.00717905 -0.00515357 -0.393989)
(0.00522321 -0.00521814 -0.393559)
(0.00317187 -0.00526062 -0.393296)
(0.0010609 -0.00529024 -0.393188)
(-0.00107294 -0.00529114 -0.393188)
(-0.00318226 -0.00526595 -0.393295)
(-0.00523163 -0.00522569 -0.393555)
(-0.00718452 -0.00516255 -0.393986)
(-0.00904665 -0.00503628 -0.394493)
(-0.0107102 -0.00492141 -0.395305)
(-0.0123346 -0.00464665 -0.396021)
(0.01213 -0.00642802 -0.396493)
(0.0105148 -0.00670802 -0.395858)
(0.00890803 -0.0069208 -0.394995)
(0.00707984 -0.00707573 -0.394453)
(0.00515805 -0.00717447 -0.393989)
(0.00313542 -0.00723579 -0.393701)
(0.00104761 -0.00727579 -0.39358)
(-0.0010618 -0.00727674 -0.393578)
(-0.00314789 -0.0072407 -0.393698)
(-0.00516768 -0.00718017 -0.393986)
(-0.00708517 -0.00708166 -0.394452)
(-0.00890905 -0.00692646 -0.394994)
(-0.0105115 -0.006712 -0.395859)
(-0.0121245 -0.00643012 -0.396497)
(0.0120104 -0.00820121 -0.397078)
(0.0103429 -0.00842137 -0.39648)
(0.00876551 -0.00876365 -0.395545)
(0.00692363 -0.00890537 -0.394996)
(0.00503028 -0.00904211 -0.394495)
(0.00304645 -0.00910798 -0.394216)
(0.00101518 -0.00915338 -0.394099)
(-0.00103074 -0.00915359 -0.394098)
(-0.00305959 -0.00911033 -0.394215)
(-0.00504031 -0.00904439 -0.394493)
(-0.00692917 -0.00890719 -0.394995)
(-0.00876551 -0.0087638 -0.395546)
(-0.0103371 -0.00841833 -0.396483)
(-0.012003 -0.00819787 -0.397083)
(0.0114758 -0.0097346 -0.397884)
(0.00990054 -0.00990096 -0.39733)
(0.00842319 -0.0103432 -0.39648)
(0.00671064 -0.0105149 -0.395858)
(0.004916 -0.0107117 -0.395305)
(0.00300121 -0.010812 -0.394955)
(0.0010032 -0.0108678 -0.394809)
(-0.00101902 -0.0108675 -0.394808)
(-0.00301426 -0.0108119 -0.394954)
(-0.00492517 -0.01071 -0.395305)
(-0.00671464 -0.0105112 -0.395859)
(-0.00842041 -0.0103367 -0.396483)
(-0.00989278 -0.00989172 -0.397335)
(-0.011467 -0.00972224 -0.397892)
(0.0114557 -0.0114565 -0.398328)
(0.00973458 -0.011478 -0.397885)
(0.00820356 -0.0120125 -0.397078)
(0.0064298 -0.0121322 -0.396494)
(0.00464093 -0.0123403 -0.39602)
(0.00279677 -0.012397 -0.395788)
(0.000929473 -0.0124215 -0.395705)
(-0.00094436 -0.0124206 -0.395705)
(-0.00280883 -0.012393 -0.395788)
(-0.0046488 -0.0123343 -0.396021)
(-0.00643184 -0.0121235 -0.396497)
(-0.00819986 -0.0120018 -0.397083)
(-0.00972267 -0.0114648 -0.397893)
(-0.011441 -0.0114388 -0.398333)
(0.0142433 0.0142439 -0.426987)
(0.0120829 0.0142724 -0.426476)
(0.0101215 0.0148269 -0.425478)
(0.0078847 0.0148659 -0.424784)
(0.00566492 0.0150415 -0.424212)
(0.00340244 0.015044 -0.423954)
(0.0011428 0.0150448 -0.423879)
(-0.00114875 0.0150461 -0.423879)
(-0.00340678 0.015045 -0.423955)
(-0.00566729 0.0150432 -0.424213)
(-0.00788497 0.0148662 -0.424786)
(-0.0101206 0.0148266 -0.425481)
(-0.0120821 0.0142698 -0.426479)
(-0.0142445 0.0142397 -0.426992)
(0.0142712 0.0120793 -0.426476)
(0.0122082 0.0122064 -0.425792)
(0.0102779 0.0126308 -0.424779)
(0.00812465 0.0127499 -0.424062)
(0.00591803 0.012906 -0.423423)
(0.00360105 0.0129596 -0.423034)
(0.00122268 0.012991 -0.422894)
(-0.00122741 0.0129919 -0.422894)
(-0.00360511 0.0129607 -0.423036)
(-0.00592061 0.0129072 -0.423426)
(-0.00812611 0.0127507 -0.424065)
(-0.0102787 0.0126314 -0.424783)
(-0.01221 0.0122056 -0.425796)
(-0.0142752 0.012078 -0.426481)
(0.0148281 0.0101155 -0.425478)
(0.0126341 0.0102739 -0.424779)
(0.0105925 0.0105885 -0.423688)
(0.0083002 0.0106722 -0.423108)
(0.00598981 0.0107596 -0.422573)
(0.00361158 0.0107763 -0.422311)
(0.00122625 0.0107989 -0.422227)
(-0.00123042 0.0108 -0.422227)
(-0.00361516 0.0107778 -0.422312)
(-0.00599187 0.0107609 -0.422576)
(-0.00830126 0.0106733 -0.423112)
(-0.0105928 0.0105899 -0.423693)
(-0.0126354 0.0102753 -0.424782)
(-0.0148319 0.010117 -0.425482)
(0.0148699 0.00787832 -0.424783)
(0.0127552 0.00812098 -0.42406)
(0.0106765 0.00829746 -0.423108)
(0.00840834 0.00840636 -0.422579)
(0.00607837 0.00845477 -0.422141)
(0.00367526 0.00846977 -0.421899)
(0.00125444 0.00848766 -0.421832)
(-0.00125865 0.00848892 -0.421832)
(-0.00367885 0.00847131 -0.421901)
(-0.00608041 0.00845618 -0.422145)
(-0.0084094 0.00840749 -0.422583)
(-0.0106769 0.00829883 -0.423113)
(-0.0127565 0.00812226 -0.424065)
(-0.0148735 0.00788011 -0.424788)
(0.0150483 0.00566056 -0.424209)
(0.0129135 0.00591639 -0.423421)
(0.0107653 0.00598944 -0.422571)
(0.00845739 0.00607938 -0.422139)
(0.00609909 0.00610003 -0.421789)
(0.00367914 0.00610229 -0.42163)
(0.00125942 0.00611385 -0.421605)
(-0.00126349 0.006115 -0.421606)
(-0.00368239 0.00610327 -0.421632)
(-0.00610079 0.00610085 -0.421793)
(-0.00845826 0.00607985 -0.422143)
(-0.0107657 0.00598997 -0.422576)
(-0.0129146 0.00591667 -0.423425)
(-0.0150512 0.0056615 -0.424214)
(0.0150526 0.00340102 -0.423949)
(0.0129698 0.00360195 -0.423031)
(0.0107844 0.00361359 -0.422311)
(0.00847413 0.00367857 -0.421902)
(0.00610242 0.00368283 -0.421637)
(0.00367745 0.00368097 -0.421534)
(0.00126181 0.0036885 -0.421543)
(-0.00126629 0.00368928 -0.421543)
(-0.00368069 0.0036809 -0.421534)
(-0.00610386 0.00368266 -0.421638)
(-0.00847457 0.00367802 -0.421903)
(-0.0107847 0.00361299 -0.422312)
(-0.0129704 0.00360087 -0.423034)
(-0.0150558 0.00340031 -0.423952)
(0.0150513 0.0011449 -0.423876)
(0.012998 0.00122586 -0.422892)
(0.0108039 0.0012303 -0.422225)
(0.00848905 0.00125946 -0.421829)
(0.00611162 0.00126486 -0.421606)
(0.00368371 0.00126752 -0.421535)
(0.00126691 0.0012717 -0.421546)
(-0.00126985 0.0012717 -0.421546)
(-0.00368599 0.00126533 -0.421536)
(-0.00611306 0.00126192 -0.421609)
(-0.00849006 0.00125553 -0.421835)
(-0.0108054 0.00122562 -0.422229)
(-0.0129998 0.00122084 -0.422896)
(-0.0150547 0.00114017 -0.423878)
(0.0150524 -0.00114502 -0.423876)
(0.012999 -0.00122395 -0.422893)
(0.0108053 -0.00122666 -0.422225)
(0.00849014 -0.00125417 -0.42183)
(0.00611236 -0.00125802 -0.421607)
(0.00368412 -0.00125926 -0.421536)
(0.00126673 -0.00126501 -0.421547)
(-0.00126995 -0.00126483 -0.421547)
(-0.00368698 -0.0012608 -0.421537)
(-0.00611487 -0.00125994 -0.421609)
(-0.00849241 -0.00125712 -0.421834)
(-0.0108077 -0.00123106 -0.422228)
(-0.0130016 -0.00122945 -0.422895)
(-0.0150567 -0.00115168 -0.423877)
(0.0150563 -0.00340261 -0.423949)
(0.0129731 -0.00360162 -0.423034)
(0.0107881 -0.00361188 -0.422314)
(0.00847733 -0.00367527 -0.421905)
(0.00610463 -0.00367834 -0.42164)
(0.00367838 -0.00367521 -0.421536)
(0.00126084 -0.00368441 -0.421544)
(-0.00126822 -0.0036848 -0.421544)
(-0.00368484 -0.00367822 -0.421536)
(-0.00610997 -0.00368247 -0.421639)
(-0.0084816 -0.00368108 -0.421903)
(-0.0107913 -0.00361929 -0.422312)
(-0.0129748 -0.00360966 -0.423034)
(-0.0150583 -0.00341139 -0.42395)
(0.0150533 -0.00566448 -0.42421)
(0.0129183 -0.00591924 -0.423424)
(0.0107704 -0.00599137 -0.422575)
(0.00846158 -0.0060796 -0.422145)
(0.00610189 -0.00609928 -0.421796)
(0.00368027 -0.00610048 -0.421638)
(0.00125816 -0.00611382 -0.421612)
(-0.0012665 -0.00611467 -0.421611)
(-0.00368818 -0.00610447 -0.421637)
(-0.00610922 -0.00610464 -0.421793)
(-0.00846746 -0.00608624 -0.422143)
(-0.0107746 -0.00599904 -0.422575)
(-0.0129205 -0.00592678 -0.423424)
(-0.0150551 -0.00567261 -0.424211)
(0.0148747 -0.00788373 -0.424784)
(0.0127595 -0.00812703 -0.424063)
(0.0106812 -0.0083035 -0.423111)
(0.00841254 -0.00841136 -0.422584)
(0.00608159 -0.00845964 -0.422145)
(0.00367671 -0.00847419 -0.421906)
(0.00125307 -0.00849372 -0.421835)
(-0.00126279 -0.00849454 -0.421834)
(-0.00368595 -0.00847789 -0.421904)
(-0.00608992 -0.0084642 -0.422144)
(-0.00841931 -0.00841682 -0.422583)
(-0.0106858 -0.00830968 -0.423111)
(-0.0127609 -0.00813221 -0.424064)
(-0.0148751 -0.00788838 -0.424786)
(0.0148318 -0.0101223 -0.42548)
(0.0126375 -0.0102823 -0.424781)
(0.0105971 -0.0105972 -0.423692)
(0.00830422 -0.0106809 -0.423113)
(0.00599263 -0.0107691 -0.422577)
(0.00361283 -0.0107865 -0.422316)
(0.00122446 -0.0108104 -0.422228)
(-0.00123562 -0.0108108 -0.422227)
(-0.00362323 -0.0107889 -0.422316)
(-0.00600219 -0.0107724 -0.422575)
(-0.00831183 -0.0106842 -0.423111)
(-0.0106019 -0.0106007 -0.423691)
(-0.0126373 -0.0102844 -0.424781)
(-0.0148297 -0.0101226 -0.425483)
(0.0142711 -0.012083 -0.426478)
(0.0122102 -0.0122133 -0.425794)
(0.010282 -0.0126396 -0.424781)
(0.00812785 -0.0127609 -0.424065)
(0.00592043 -0.0129184 -0.423426)
(0.00360195 -0.0129726 -0.423039)
(0.00122068 -0.0130043 -0.422895)
(-0.0012327 -0.0130046 -0.422894)
(-0.00361301 -0.0129736 -0.423037)
(-0.00593007 -0.0129194 -0.423424)
(-0.00813468 -0.0127604 -0.424064)
(-0.0102857 -0.0126371 -0.424781)
(-0.0122078 -0.0122078 -0.425795)
(-0.0142655 -0.0120745 -0.426483)
(0.0142414 -0.0142445 -0.426992)
(0.0120814 -0.0142753 -0.426481)
(0.0101228 -0.0148352 -0.425482)
(0.00788541 -0.0148783 -0.424786)
(0.00566575 -0.0150554 -0.424212)
(0.00340245 -0.0150586 -0.423954)
(0.00114047 -0.0150593 -0.423876)
(-0.00115338 -0.0150595 -0.423875)
(-0.0034137 -0.0150578 -0.423953)
(-0.0056753 -0.0150551 -0.42421)
(-0.0078907 -0.0148757 -0.424785)
(-0.0101236 -0.0148296 -0.425483)
(-0.0120746 -0.0142643 -0.426484)
(-0.0142306 -0.0142296 -0.426993)
(0.0184063 0.0184066 -0.454751)
(0.0155358 0.0183819 -0.45411)
(0.0128993 0.0188926 -0.452793)
(0.00999159 0.0187617 -0.451917)
(0.0071312 0.0188416 -0.451184)
(0.00425932 0.0187413 -0.45087)
(0.00143236 0.018685 -0.450787)
(-0.0014396 0.0186874 -0.450787)
(-0.00426487 0.0187416 -0.45087)
(-0.00713582 0.0188423 -0.451183)
(-0.00999469 0.0187604 -0.451917)
(-0.0129015 0.0188918 -0.452794)
(-0.0155375 0.0183797 -0.454111)
(-0.0184098 0.0184025 -0.454754)
(0.0183821 0.015532 -0.45411)
(0.0155448 0.0155436 -0.453207)
(0.0129216 0.0158996 -0.451909)
(0.0101193 0.0158738 -0.45099)
(0.00730314 0.0159185 -0.450183)
(0.00441093 0.0158731 -0.449709)
(0.00150123 0.0158475 -0.449555)
(-0.00150806 0.0158488 -0.449555)
(-0.00441682 0.0158729 -0.449709)
(-0.00730819 0.0159185 -0.450183)
(-0.0101235 0.0158724 -0.450991)
(-0.0129251 0.0158987 -0.451911)
(-0.0155486 0.0155418 -0.453209)
(-0.0183864 0.0155306 -0.454113)
(0.0188957 0.0128949 -0.452793)
(0.0159023 0.0129192 -0.451909)
(0.0131476 0.0131447 -0.450534)
(0.0101797 0.0130728 -0.449836)
(0.00726963 0.0130313 -0.44919)
(0.00434548 0.0129404 -0.44891)
(0.0014821 0.0129051 -0.448848)
(-0.00148858 0.0129061 -0.448848)
(-0.00435132 0.0129408 -0.448911)
(-0.00727445 0.0130318 -0.449191)
(-0.0101835 0.0130724 -0.449837)
(-0.0131502 0.0131448 -0.450536)
(-0.0159052 0.0129192 -0.451911)
(-0.0188989 0.0128958 -0.452795)
(0.0187659 0.00998708 -0.451915)
(0.0158775 0.0101171 -0.450989)
(0.0130756 0.0101778 -0.449835)
(0.0101507 0.0101496 -0.449252)
(0.00724928 0.0100749 -0.448783)
(0.0043381 0.00999292 -0.448566)
(0.00149032 0.00996058 -0.44855)
(-0.00149692 0.00996167 -0.44855)
(-0.00434412 0.00999372 -0.448567)
(-0.00725424 0.0100758 -0.448784)
(-0.0101548 0.01015 -0.449254)
(-0.0130788 0.0101787 -0.449838)
(-0.0158801 0.0101178 -0.450992)
(-0.0187695 0.00998896 -0.451918)
(0.0188499 0.00712812 -0.45118)
(0.0159249 0.00730224 -0.450181)
(0.0130359 0.00726927 -0.449189)
(0.010077 0.00725011 -0.448781)
(0.00717126 0.00717173 -0.448472)
(0.00427747 0.00709927 -0.448403)
(0.00147686 0.00707317 -0.448468)
(-0.00148339 0.00707416 -0.448468)
(-0.00428334 0.00709985 -0.448405)
(-0.00717602 0.00717242 -0.448474)
(-0.0100808 0.00725051 -0.448784)
(-0.0130385 0.00727008 -0.449192)
(-0.0159266 0.00730298 -0.450185)
(-0.0188522 0.00712949 -0.451183)
(0.0187497 0.00425764 -0.450865)
(0.0158804 0.00441135 -0.449707)
(0.0129462 0.00434663 -0.448911)
(0.00999629 0.00434058 -0.448568)
(0.0070997 0.00428042 -0.448409)
(0.00422718 0.00423023 -0.44845)
(0.00146525 0.00421332 -0.448587)
(-0.00147177 0.00421401 -0.448586)
(-0.00423283 0.00423019 -0.448451)
(-0.00710404 0.0042805 -0.44841)
(-0.0099995 0.00434057 -0.448569)
(-0.0129486 0.00434691 -0.448912)
(-0.015882 0.00441151 -0.449709)
(-0.018753 0.00425782 -0.450867)
(0.0186923 0.00143351 -0.450784)
(0.0158525 0.0015034 -0.449553)
(0.012908 0.00148451 -0.448846)
(0.00996116 0.00149333 -0.448548)
(0.00707159 0.00148016 -0.448468)
(0.00420934 0.00146893 -0.44858)
(0.0014633 0.00146637 -0.448723)
(-0.0014678 0.00146673 -0.448724)
(-0.00421364 0.00146814 -0.448581)
(-0.00707575 0.0014791 -0.44847)
(-0.00996508 0.00149154 -0.448552)
(-0.0129116 0.00148192 -0.44885)
(-0.015855 0.00150013 -0.449557)
(-0.0186953 0.00142981 -0.450786)
(0.0186922 -0.00143631 -0.450784)
(0.0158527 -0.0015058 -0.449554)
(0.0129088 -0.00148652 -0.448847)
(0.00996211 -0.00149449 -0.448548)
(0.00707251 -0.00148059 -0.448469)
(0.00421002 -0.00146786 -0.448581)
(0.00146328 -0.00146671 -0.448724)
(-0.00146785 -0.00146623 -0.448724)
(-0.00421444 -0.0014682 -0.448582)
(-0.00707697 -0.00148093 -0.448471)
(-0.00996649 -0.00149569 -0.448552)
(-0.0129129 -0.00148886 -0.44885)
(-0.0158561 -0.00150928 -0.449558)
(-0.0186968 -0.00144169 -0.450786)
(0.0187509 -0.00426167 -0.450864)
(0.0158813 -0.00441503 -0.449708)
(0.012948 -0.00434986 -0.448913)
(0.00999831 -0.00434265 -0.448571)
(0.00710143 -0.00428175 -0.448412)
(0.00422834 -0.00423005 -0.448453)
(0.00146473 -0.00421461 -0.448588)
(-0.00147242 -0.00421463 -0.448589)
(-0.00423558 -0.00423145 -0.448454)
(-0.00710814 -0.00428367 -0.448411)
(-0.0100044 -0.00434596 -0.44857)
(-0.0129533 -0.00435496 -0.448913)
(-0.0158852 -0.00442133 -0.449709)
(-0.0187553 -0.004269 -0.450865)
(0.0188516 -0.00713407 -0.451179)
(0.0159261 -0.00730774 -0.450183)
(0.0130383 -0.00727424 -0.449191)
(0.0100797 -0.00725377 -0.448785)
(0.00717362 -0.00717476 -0.448476)
(0.00427917 -0.00710111 -0.448409)
(0.00147646 -0.00707658 -0.448473)
(-0.00148454 -0.00707709 -0.448472)
(-0.00428712 -0.00710364 -0.448408)
(-0.00718149 -0.00717808 -0.448475)
(-0.0100871 -0.0072581 -0.448785)
(-0.013045 -0.00728002 -0.449192)
(-0.015931 -0.00731421 -0.450184)
(-0.0188566 -0.00714116 -0.451179)
(0.0187678 -0.00999464 -0.451914)
(0.0158793 -0.010124 -0.450991)
(0.0130782 -0.0101844 -0.449837)
(0.0101533 -0.0101556 -0.449255)
(0.00725188 -0.0100809 -0.448786)
(0.00434021 -0.0099982 -0.44857)
(0.00149003 -0.00996714 -0.448552)
(-0.00149876 -0.00996778 -0.448552)
(-0.00434898 -0.0100009 -0.448571)
(-0.0072608 -0.0100844 -0.448786)
(-0.0101619 -0.0101599 -0.449256)
(-0.0130859 -0.0101893 -0.449838)
(-0.0158845 -0.0101288 -0.450992)
(-0.0187724 -0.00999935 -0.451915)
(0.0188981 -0.0129038 -0.452792)
(0.0159042 -0.0129268 -0.45191)
(0.0131499 -0.0131528 -0.450536)
(0.0101822 -0.0130813 -0.449839)
(0.00727252 -0.01304 -0.449193)
(0.00434787 -0.0129485 -0.448915)
(0.00148161 -0.012914 -0.448849)
(-0.00149155 -0.0129146 -0.448849)
(-0.00435784 -0.0129508 -0.448915)
(-0.00728259 -0.0130432 -0.449192)
(-0.0101911 -0.0130848 -0.449838)
(-0.0131571 -0.0131561 -0.450535)
(-0.0159081 -0.0129286 -0.45191)
(-0.0189014 -0.0129052 -0.452792)
(0.0183829 -0.0155397 -0.45411)
(0.0155464 -0.0155524 -0.453207)
(0.0129234 -0.0159092 -0.45191)
(0.0101219 -0.0158833 -0.450993)
(0.00730667 -0.0159282 -0.450185)
(0.00441368 -0.015882 -0.449713)
(0.00150073 -0.015857 -0.449557)
(-0.00151162 -0.0158577 -0.449556)
(-0.00442429 -0.0158831 -0.449712)
(-0.00731717 -0.0159297 -0.450184)
(-0.0101308 -0.0158842 -0.450992)
(-0.0129293 -0.0159088 -0.451909)
(-0.0155479 -0.0155491 -0.453206)
(-0.0183828 -0.0155328 -0.454111)
(0.0184048 -0.0184112 -0.454753)
(0.0155346 -0.0183886 -0.454113)
(0.012902 -0.0189038 -0.452794)
(0.00999456 -0.0187737 -0.451916)
(0.007134 -0.0188556 -0.451181)
(0.00426089 -0.018754 -0.450868)
(0.00143117 -0.0186978 -0.450784)
(-0.00144321 -0.0186989 -0.450784)
(-0.00427166 -0.0187541 -0.450867)
(-0.00714418 -0.0188564 -0.451178)
(-0.0100024 -0.018774 -0.451913)
(-0.0129067 -0.0189034 -0.452793)
(-0.0155316 -0.0183833 -0.454113)
(-0.0183979 -0.0183985 -0.454752)
(0.0231393 0.0231402 -0.481802)
(0.0193829 0.0229947 -0.480821)
(0.016022 0.0235105 -0.478907)
(0.0123538 0.0231359 -0.477575)
(0.0087691 0.0230869 -0.476491)
(0.00521658 0.0228466 -0.476017)
(0.00174863 0.0226964 -0.47589)
(-0.0017538 0.0226985 -0.475889)
(-0.00522116 0.0228461 -0.476015)
(-0.00877408 0.0230863 -0.476489)
(-0.0123586 0.0231345 -0.477573)
(-0.0160265 0.0235113 -0.478905)
(-0.0193853 0.0229916 -0.480821)
(-0.0231436 0.0231371 -0.481802)
(0.0229928 0.0193795 -0.480824)
(0.0192602 0.0192586 -0.479374)
(0.0158632 0.0195179 -0.477524)
(0.012325 0.0192799 -0.476191)
(0.00884017 0.0191975 -0.475007)
(0.00531234 0.0190527 -0.474299)
(0.00179985 0.0189614 -0.474061)
(-0.00180556 0.0189628 -0.47406)
(-0.0053175 0.0190513 -0.474299)
(-0.00884577 0.0191964 -0.475005)
(-0.0123308 0.0192771 -0.47619)
(-0.0158683 0.019516 -0.477524)
(-0.0192643 0.0192568 -0.479373)
(-0.0229976 0.0193782 -0.480822)
(0.0235156 0.016021 -0.478906)
(0.0195195 0.0158626 -0.477525)
(0.0159756 0.0159748 -0.475567)
(0.0122534 0.0156992 -0.474476)
(0.00868427 0.0155142 -0.473492)
(0.00515248 0.0153108 -0.473042)
(0.00174716 0.0152084 -0.472931)
(-0.00175288 0.0152094 -0.47293)
(-0.0051579 0.0153101 -0.473041)
(-0.0086898 0.0155134 -0.473491)
(-0.0122587 0.015697 -0.474475)
(-0.0159798 0.0159732 -0.475566)
(-0.019523 0.0158611 -0.477523)
(-0.0235174 0.0160202 -0.478906)
(0.0231402 0.0123534 -0.477572)
(0.0192817 0.0123258 -0.47619)
(0.0156996 0.0122539 -0.474475)
(0.012042 0.0120433 -0.473561)
(0.00852734 0.0118313 -0.472826)
(0.00506141 0.0116622 -0.472484)
(0.00172866 0.011581 -0.472445)
(-0.00173493 0.0115819 -0.472445)
(-0.0050675 0.0116619 -0.472483)
(-0.00853343 0.0118311 -0.472825)
(-0.0120479 0.0120419 -0.473561)
(-0.0157046 0.0122532 -0.474475)
(-0.0192855 0.0123246 -0.47619)
(-0.0231433 0.0123534 -0.477573)
(0.0230923 0.0087691 -0.476486)
(0.0192011 0.00884163 -0.475004)
(0.0155162 0.00868564 -0.47349)
(0.0118313 0.00852963 -0.472824)
(0.00834801 0.00834958 -0.472305)
(0.00494482 0.00822364 -0.472147)
(0.00169946 0.00816572 -0.472187)
(-0.00170599 0.00816651 -0.472187)
(-0.00495115 0.00822361 -0.472147)
(-0.00835412 0.00834965 -0.472305)
(-0.0118368 0.008529 -0.472824)
(-0.0155205 0.00868543 -0.47349)
(-0.0192036 0.00884087 -0.475005)
(-0.0230946 0.00876906 -0.476487)
(0.0228517 0.00521611 -0.476011)
(0.0190562 0.00531348 -0.474297)
(0.0153132 0.00515375 -0.473042)
(0.0116626 0.00506384 -0.472486)
(0.00822223 0.00494752 -0.472152)
(0.00486841 0.00487168 -0.472095)
(0.00168078 0.00483374 -0.47222)
(-0.00168721 0.0048344 -0.47222)
(-0.00487467 0.00487169 -0.472094)
(-0.00822824 0.0049478 -0.47215)
(-0.011668 0.00506383 -0.472484)
(-0.0153178 0.00515377 -0.473041)
(-0.0190593 0.00531279 -0.474298)
(-0.0228552 0.00521508 -0.47601)
(0.0227012 0.00174891 -0.475885)
(0.0189643 0.00180098 -0.474057)
(0.0152095 0.00174821 -0.472928)
(0.0115802 0.00173042 -0.472442)
(0.00816359 0.00170181 -0.472186)
(0.00483031 0.00168409 -0.472214)
(0.00167222 0.00167482 -0.472363)
(-0.00167705 0.00167508 -0.472363)
(-0.00483532 0.00168331 -0.472214)
(-0.00816906 0.00170105 -0.472186)
(-0.0115857 0.00172925 -0.472444)
(-0.0152146 0.00174637 -0.472929)
(-0.0189678 0.0017984 -0.47406)
(-0.0227052 0.00174557 -0.475886)
(0.0227001 -0.00175085 -0.475885)
(0.0189635 -0.00180407 -0.474058)
(0.0152094 -0.00175206 -0.472928)
(0.0115805 -0.00173388 -0.472443)
(0.00816417 -0.00170477 -0.472186)
(0.00483089 -0.0016854 -0.472214)
(0.0016723 -0.00167709 -0.472363)
(-0.00167684 -0.0016765 -0.472363)
(-0.00483571 -0.00168495 -0.472214)
(-0.00816974 -0.00170427 -0.472186)
(-0.0115864 -0.00173388 -0.472444)
(-0.0152153 -0.00175281 -0.47293)
(-0.0189685 -0.00180547 -0.47406)
(-0.0227064 -0.00175391 -0.475885)
(0.0228509 -0.00521924 -0.476009)
(0.0190553 -0.00531717 -0.474297)
(0.0153136 -0.00515775 -0.473042)
(0.0116639 -0.00506729 -0.472487)
(0.00822387 -0.00495058 -0.472153)
(0.0048698 -0.00487336 -0.472096)
(0.00168047 -0.00483641 -0.472221)
(-0.00168734 -0.00483644 -0.47222)
(-0.00487682 -0.00487425 -0.472095)
(-0.00823132 -0.00495192 -0.472151)
(-0.0116713 -0.00506929 -0.472485)
(-0.0153204 -0.00516081 -0.47304)
(-0.0190603 -0.0053202 -0.474297)
(-0.0228558 -0.00522253 -0.476007)
(0.023091 -0.00877387 -0.476485)
(0.0192 -0.00884631 -0.475004)
(0.0155168 -0.00869003 -0.47349)
(0.0118331 -0.00853345 -0.472825)
(0.00835034 -0.00835305 -0.472306)
(0.00494683 -0.00822617 -0.472149)
(0.00169901 -0.00816941 -0.472188)
(-0.00170647 -0.00816995 -0.472187)
(-0.00495439 -0.00822797 -0.472148)
(-0.00835832 -0.00835551 -0.472305)
(-0.011841 -0.00853614 -0.472825)
(-0.0155241 -0.00869381 -0.473489)
(-0.0192053 -0.00884978 -0.475004)
(-0.0230955 -0.00877723 -0.476482)
(0.0231388 -0.0123599 -0.477571)
(0.0192808 -0.0123317 -0.47619)
(0.0157003 -0.0122589 -0.474475)
(0.0120438 -0.012048 -0.473562)
(0.00852989 -0.0118357 -0.472826)
(0.00506358 -0.0116661 -0.472485)
(0.00172808 -0.0115862 -0.472444)
(-0.00173593 -0.0115871 -0.472444)
(-0.00507169 -0.0116682 -0.472485)
(-0.00853856 -0.0118388 -0.472826)
(-0.0120523 -0.0120507 -0.473561)
(-0.0157078 -0.0122621 -0.474475)
(-0.0192856 -0.0123341 -0.476189)
(-0.0231427 -0.0123609 -0.477568)
(0.0235156 -0.0160286 -0.478904)
(0.019519 -0.0158696 -0.477524)
(0.0159762 -0.0159808 -0.475566)
(0.0122555 -0.0157055 -0.474475)
(0.00868733 -0.0155201 -0.473491)
(0.00515465 -0.0153162 -0.473043)
(0.00174617 -0.0152152 -0.472929)
(-0.00175519 -0.0152162 -0.472929)
(-0.00516372 -0.0153181 -0.473042)
(-0.00869653 -0.0155229 -0.47349)
(-0.0122637 -0.0157074 -0.474475)
(-0.0159831 -0.0159832 -0.475565)
(-0.019522 -0.0158699 -0.477522)
(-0.0235187 -0.0160278 -0.4789)
(0.0229898 -0.0193868 -0.480822)
(0.0192595 -0.0192666 -0.479371)
(0.0158642 -0.0195252 -0.477522)
(0.0123277 -0.0192866 -0.47619)
(0.00884374 -0.0192032 -0.475006)
(0.00531444 -0.0190575 -0.4743)
(0.0017987 -0.0189682 -0.47406)
(-0.00180845 -0.0189695 -0.474059)
(-0.0053239 -0.0190585 -0.4743)
(-0.00885335 -0.0192044 -0.475005)
(-0.0123363 -0.0192862 -0.476189)
(-0.0158696 -0.0195242 -0.477522)
(-0.0192607 -0.0192635 -0.479369)
(-0.0229857 -0.0193808 -0.480819)
(0.0231373 -0.0231445 -0.481801)
(0.0193805 -0.0229967 -0.480823)
(0.0160249 -0.0235214 -0.478905)
(0.0123582 -0.0231463 -0.47757)
(0.00877266 -0.0230965 -0.476484)
(0.00521691 -0.0228554 -0.47601)
(0.00174627 -0.0227069 -0.475883)
(-0.00175677 -0.0227084 -0.475883)
(-0.00522645 -0.0228548 -0.47601)
(-0.00878162 -0.0230957 -0.476483)
(-0.0123651 -0.0231452 -0.477568)
(-0.0160293 -0.0235236 -0.478902)
(-0.0193774 -0.0229865 -0.480822)
(-0.0231313 -0.0231342 -0.481798)
(0.0313862 0.0313836 -0.505755)
(0.0261214 0.0308829 -0.504567)
(0.0214527 0.0312992 -0.502018)
(0.0165735 0.0308718 -0.499941)
(0.0117292 0.0307232 -0.498353)
(0.00696 0.0303579 -0.497613)
(0.00230482 0.0301126 -0.497422)
(-0.00230674 0.0301142 -0.497422)
(-0.00696269 0.0303565 -0.497613)
(-0.0117335 0.0307219 -0.498351)
(-0.0165792 0.0308701 -0.49994)
(-0.021459 0.0312986 -0.502017)
(-0.0261267 0.0308831 -0.504566)