/*--------------------------------*- C++ -*----------------------------------*\
| =========                 |                                                 |
| \\      /  F ield         | OpenFOAM: The Open Source CFD Toolbox           |
|  \\    /   O peration     | Version:  v2106                                 |
|   \\  /    A nd           | Website:  www.openfoam.com                      |
|    \\/     M anipulation  |                                                 |
\*---------------------------------------------------------------------------*/
FoamFile
{
    version     2.0;
    format      ascii;
    arch        "LSB;label=32;scalar=64";
    class       volScalarField;
    location    "0.000193";
    object      alphat;
}
// * * * * * * * * * * * * * * * * * * * * * * * * * * * * * * * * * * * * * //

dimensions      [1 -1 -1 0 0 0 0];

internalField   nonuniform List<scalar> 
144746
(
0.000106862
8.56605e-05
6.49862e-05
4.64926e-05
3.7027e-05
3.73913e-05
5.01849e-05
7.61421e-05
0.00011177
0.000145306
0.000160869
0.000152031
0.000134512
0.00012086
0.000114988
8.69463e-05
5.92224e-05
3.71305e-05
2.56129e-05
2.22381e-05
2.7499e-05
4.25583e-05
6.69151e-05
9.57313e-05
0.000119788
0.000127155
0.000116869
0.000106235
0.000112688
7.77386e-05
4.71769e-05
2.66735e-05
1.68158e-05
1.30137e-05
1.4567e-05
2.25475e-05
3.76843e-05
5.80067e-05
7.86131e-05
9.47187e-05
9.55564e-05
9.25231e-05
9.4265e-05
5.72296e-05
3.11308e-05
1.65468e-05
9.9311e-06
7.24598e-06
7.58689e-06
1.1738e-05
2.08668e-05
3.44058e-05
4.93563e-05
6.28659e-05
7.02352e-05
7.50786e-05
6.54243e-05
3.49297e-05
1.75105e-05
8.83182e-06
5.12387e-06
3.69996e-06
3.9031e-06
6.29383e-06
1.19726e-05
2.11383e-05
3.21132e-05
4.23414e-05
5.1502e-05
6.2132e-05
3.85384e-05
1.83912e-05
8.40958e-06
4.00611e-06
2.27875e-06
1.71825e-06
2.03278e-06
3.67711e-06
7.53352e-06
1.40937e-05
2.25131e-05
3.08985e-05
3.97275e-05
5.48611e-05
2.03713e-05
8.64664e-06
3.59124e-06
1.61553e-06
9.21779e-07
7.99094e-07
1.20816e-06
2.54102e-06
5.47305e-06
1.05023e-05
1.72431e-05
2.4638e-05
3.47009e-05
5.76221e-05
1.09275e-05
4.22943e-06
1.64327e-06
7.29023e-07
4.51684e-07
5.11543e-07
9.82414e-07
2.20245e-06
4.68843e-06
8.84632e-06
1.4561e-05
2.17508e-05
3.5754e-05
7.01808e-05
7.88844e-06
3.074e-06
1.28934e-06
6.69034e-07
4.90849e-07
6.11788e-07
1.13106e-06
2.33237e-06
4.62052e-06
8.33765e-06
1.36673e-05
2.25024e-05
4.47953e-05
9.15582e-05
9.27024e-06
3.90876e-06
1.93074e-06
1.22041e-06
9.77313e-07
1.08735e-06
1.64339e-06
2.88114e-06
5.15132e-06
8.88462e-06
1.51393e-05
2.90614e-05
6.28597e-05
0.000114931
1.66303e-05
7.69103e-06
3.84164e-06
2.63324e-06
2.18486e-06
2.207e-06
2.78905e-06
4.15884e-06
6.7382e-06
1.14414e-05
2.08411e-05
4.3928e-05
8.50985e-05
0.000130721
3.42759e-05
2.14939e-05
1.14367e-05
6.43332e-06
4.88539e-06
4.61953e-06
5.23422e-06
6.94277e-06
1.03714e-05
1.73323e-05
3.23724e-05
6.40144e-05
0.000102613
0.00013501
5.84976e-05
4.67769e-05
3.09114e-05
1.78415e-05
1.13997e-05
9.4795e-06
9.85112e-06
1.20769e-05
1.68176e-05
2.66055e-05
4.61197e-05
7.83911e-05
0.000108053
0.000129537
8.16738e-05
7.55559e-05
6.11298e-05
4.29983e-05
2.83976e-05
2.04871e-05
1.82881e-05
2.0187e-05
2.58032e-05
3.72358e-05
5.69708e-05
8.35073e-05
0.000104429
0.000120455
8.68832e-05
6.65821e-05
4.88986e-05
3.48222e-05
2.75641e-05
2.66482e-05
3.36626e-05
4.89305e-05
7.093e-05
9.48976e-05
0.000114804
0.00012476
0.0001234
0.000118274
8.43199e-05
6.13101e-05
4.15495e-05
2.69753e-05
1.93499e-05
1.67409e-05
1.97358e-05
2.91551e-05
4.48545e-05
6.40507e-05
8.22674e-05
9.60491e-05
9.9894e-05
9.87398e-05
7.43997e-05
5.06357e-05
3.16281e-05
1.91645e-05
1.2811e-05
1.01781e-05
1.11256e-05
1.64955e-05
2.70401e-05
4.1393e-05
5.64262e-05
6.90478e-05
7.76329e-05
8.11623e-05
5.71818e-05
3.57058e-05
2.09622e-05
1.20832e-05
7.67913e-06
5.79355e-06
6.02497e-06
9.0255e-06
1.58452e-05
2.61192e-05
3.76761e-05
4.79986e-05
5.60498e-05
6.2991e-05
3.8019e-05
2.18857e-05
1.19223e-05
6.53161e-06
4.01456e-06
2.98975e-06
3.13822e-06
4.93641e-06
9.33225e-06
1.65653e-05
2.53997e-05
3.3995e-05
4.13977e-05
5.0414e-05
2.20691e-05
1.14672e-05
5.75941e-06
3.00354e-06
1.81159e-06
1.39224e-06
1.61756e-06
2.86354e-06
5.86065e-06
1.10405e-05
1.78724e-05
2.51469e-05
3.21645e-05
4.21995e-05
1.14804e-05
5.25831e-06
2.41196e-06
1.1975e-06
7.24014e-07
6.25389e-07
9.17357e-07
1.9156e-06
4.16531e-06
8.09511e-06
1.35498e-05
1.98654e-05
2.7036e-05
3.9717e-05
6.1762e-06
2.46755e-06
1.01298e-06
4.75724e-07
3.04324e-07
3.46064e-07
6.81079e-07
1.58223e-06
3.46797e-06
6.70385e-06
1.13181e-05
1.71274e-05
2.54165e-05
4.30163e-05
4.64873e-06
1.74838e-06
6.91364e-07
3.37092e-07
2.48575e-07
3.43286e-07
7.13226e-07
1.59747e-06
3.338e-06
6.25314e-06
1.05358e-05
1.66833e-05
2.80917e-05
5.27652e-05
5.74136e-06
2.26566e-06
1.01349e-06
5.93413e-07
4.75522e-07
5.7846e-07
9.85996e-07
1.91153e-06
3.66822e-06
6.61541e-06
1.12895e-05
1.93414e-05
3.66478e-05
6.68972e-05
1.03243e-05
4.41192e-06
2.09839e-06
1.38136e-06
1.13858e-06
1.20844e-06
1.66832e-06
2.72738e-06
4.74535e-06
8.28781e-06
1.44978e-05
2.68817e-05
4.99352e-05
8.21406e-05
2.19654e-05
1.2359e-05
6.14544e-06
3.44709e-06
2.69583e-06
2.64516e-06
3.18901e-06
4.54934e-06
7.18936e-06
1.20595e-05
2.129e-05
3.86904e-05
6.50749e-05
9.62622e-05
4.00089e-05
2.82553e-05
1.69427e-05
9.31942e-06
6.2184e-06
5.58511e-06
6.17565e-06
8.00204e-06
1.15915e-05
1.82663e-05
3.05408e-05
5.18305e-05
7.90729e-05
0.000106054
5.97598e-05
4.87252e-05
3.52923e-05
2.28022e-05
1.47789e-05
1.15555e-05
1.14622e-05
1.36031e-05
1.80892e-05
2.62235e-05
4.03538e-05
6.35273e-05
8.91848e-05
0.000111715
5.85223e-05
4.37772e-05
3.25146e-05
2.42136e-05
1.99746e-05
1.86835e-05
2.10792e-05
2.72961e-05
3.72849e-05
4.96912e-05
6.35269e-05
7.82692e-05
9.47888e-05
0.000110225
4.74936e-05
3.45848e-05
2.46365e-05
1.74051e-05
1.3449e-05
1.17484e-05
1.26897e-05
1.67677e-05
2.44239e-05
3.48883e-05
4.71603e-05
6.00982e-05
7.30747e-05
8.53277e-05
3.57977e-05
2.54651e-05
1.74062e-05
1.17215e-05
8.5729e-06
7.08985e-06
7.3438e-06
9.86507e-06
1.54509e-05
2.37937e-05
3.39564e-05
4.4879e-05
5.55789e-05
6.63274e-05
2.49262e-05
1.7012e-05
1.10218e-05
7.07921e-06
4.94931e-06
3.94927e-06
4.01491e-06
5.55666e-06
9.42147e-06
1.57488e-05
2.38216e-05
3.27267e-05
4.15778e-05
5.08722e-05
1.60307e-05
1.01207e-05
6.10749e-06
3.72981e-06
2.51619e-06
1.98133e-06
2.05986e-06
3.0626e-06
5.67292e-06
1.02658e-05
1.65326e-05
2.38096e-05
3.14581e-05
4.02674e-05
9.52431e-06
5.32534e-06
2.9301e-06
1.69466e-06
1.1144e-06
8.93896e-07
1.02158e-06
1.74079e-06
3.55703e-06
6.88709e-06
1.17326e-05
1.7748e-05
2.45743e-05
3.29902e-05
5.42015e-06
2.56649e-06
1.24373e-06
6.70507e-07
4.34498e-07
3.80402e-07
5.42853e-07
1.12352e-06
2.49731e-06
5.04307e-06
8.92752e-06
1.40616e-05
2.03775e-05
2.87838e-05
3.4211e-06
1.33246e-06
5.35305e-07
2.54751e-07
1.65839e-07
1.85342e-07
3.69543e-07
8.96664e-07
2.06379e-06
4.19801e-06
7.5245e-06
1.21407e-05
1.82678e-05
2.72028e-05
2.92494e-06
1.01772e-06
3.55054e-07
1.52156e-07
1.05987e-07
1.54821e-07
3.59538e-07
8.87855e-07
1.99958e-06
3.98588e-06
7.09329e-06
1.15832e-05
1.80658e-05
2.83883e-05
3.60027e-06
1.29835e-06
4.94422e-07
2.48766e-07
1.90409e-07
2.49044e-07
4.82141e-07
1.05546e-06
2.22287e-06
4.26902e-06
7.50508e-06
1.24162e-05
2.00037e-05
3.24384e-05
5.91891e-06
2.3911e-06
1.04055e-06
6.17582e-07
4.94333e-07
5.48087e-07
8.2822e-07
1.50865e-06
2.8722e-06
5.25462e-06
9.1242e-06
1.5156e-05
2.44505e-05
3.9392e-05
1.14829e-05
5.8405e-06
2.81453e-06
1.6132e-06
1.272e-06
1.29313e-06
1.65643e-06
2.55197e-06
4.32001e-06
7.40472e-06
1.24266e-05
2.00984e-05
3.1726e-05
5.11551e-05
2.07527e-05
1.27751e-05
7.19624e-06
4.1276e-06
3.04242e-06
2.93217e-06
3.41909e-06
4.65349e-06
7.01798e-06
1.11051e-05
1.77005e-05
2.77705e-05
4.38632e-05
6.53481e-05
3.24766e-05
2.27263e-05
1.49699e-05
9.52994e-06
6.83598e-06
6.17929e-06
6.72973e-06
8.36013e-06
1.14115e-05
1.65858e-05
2.49239e-05
3.89504e-05
6.09115e-05
8.24947e-05
0.000116672
0.000127796
0.000142847
0.00016162
0.000182287
0.000236917
0.000103815
0.000117706
0.000138264
0.000164426
0.000195913
0.000263036
9.44141e-05
0.00011222
0.000138102
0.000168093
0.000207534
0.000284818
8.55337e-05
0.000111588
0.000143638
0.00017314
0.000214878
0.000302182
8.23097e-05
0.000118576
0.000156009
0.000181217
0.000218699
0.000315679
8.7067e-05
0.000135057
0.000172966
0.000189146
0.000217844
0.000324887
0.000102662
0.000156971
0.000186452
0.000191851
0.000212288
0.000331225
0.000124731
0.000174542
0.000189568
0.000187175
0.000202792
0.000333975
0.000144764
0.000179642
0.0001819
0.000177909
0.000192213
0.000332176
0.000154014
0.000172153
0.000169763
0.000169036
0.000182712
0.000324991
0.000150892
0.000159111
0.000159174
0.000162055
0.000174656
0.000312598
0.000141739
0.000146617
0.000149854
0.000156211
0.000169715
0.000294144
0.00013134
0.000136008
0.000141938
0.000151941
0.000167582
0.000270006
0.000121733
0.000127433
0.000136042
0.000150437
0.000169115
0.000241096
0.000116912
0.000128666
0.000141102
0.000157461
0.000176551
0.000219492
9.90204e-05
0.00011309
0.000132395
0.000156591
0.000188652
0.00024423
8.53808e-05
0.000102233
0.000127988
0.000158405
0.000199299
0.000265402
7.2039e-05
9.39392e-05
0.000127715
0.000162913
0.000206585
0.00028242
6.37393e-05
9.17796e-05
0.000134177
0.000171965
0.000210951
0.000294973
6.07111e-05
9.76436e-05
0.000147657
0.00018258
0.000211002
0.000304285
6.52534e-05
0.000110493
0.000163419
0.000190254
0.000207143
0.000310753
7.58082e-05
0.000126111
0.000174864
0.000191334
0.000199069
0.000313062
8.96793e-05
0.000138607
0.000177167
0.000185532
0.000189363
0.00031075
0.000102499
0.000143439
0.000171483
0.000177442
0.000181931
0.000303301
0.000110787
0.000141257
0.000163101
0.000171139
0.000177906
0.000291304
0.000114759
0.000136849
0.000155955
0.000167005
0.00017658
0.000273592
0.000117654
0.000134025
0.000150906
0.000164044
0.000176657
0.000250823
0.000118414
0.000132697
0.000146844
0.000161018
0.000177405
0.000223654
0.00012436
0.000142514
0.00015522
0.000163339
0.000174567
0.000192361
9.75662e-05
0.000116804
0.000137015
0.000156111
0.000180705
0.000215869
7.94088e-05
9.95667e-05
0.000124719
0.000151985
0.000187375
0.000238334
6.34074e-05
8.47086e-05
0.000114905
0.000150514
0.000194329
0.000257541
5.27701e-05
7.53084e-05
0.000110252
0.000153177
0.000200779
0.000272739
4.53996e-05
6.99745e-05
0.000111548
0.000160957
0.000203488
0.000282041
4.22136e-05
7.00647e-05
0.00011908
0.000169656
0.000204567
0.000288286
4.25617e-05
7.50464e-05
0.000128911
0.00017802
0.000204061
0.000291032
4.62101e-05
8.28644e-05
0.00013794
0.000183182
0.000201169
0.00029077
5.27515e-05
9.02647e-05
0.000143256
0.000184108
0.000197605
0.000285498
6.0502e-05
9.58025e-05
0.000145236
0.00018392
0.000197685
0.000275695
6.81666e-05
0.000100728
0.000146603
0.000184837
0.00020084
0.00025974
7.96558e-05
0.000109371
0.000150923
0.000185974
0.000203556
0.000237912
9.32141e-05
0.000122988
0.000157996
0.000183772
0.000201618
0.000210257
0.000113861
0.000122808
0.000135345
0.000154397
0.000176404
0.000246226
9.8303e-05
0.000107628
0.000125272
0.000151955
0.000186446
0.000273188
8.32845e-05
9.36145e-05
0.000116161
0.000149368
0.000194184
0.000295641
6.48048e-05
7.95963e-05
0.000108999
0.000147681
0.000198683
0.000312432
4.94098e-05
6.89562e-05
0.000105501
0.000150004
0.000201583
0.000324407
3.97852e-05
6.49559e-05
0.000108451
0.00015617
0.000202922
0.000330406
3.64802e-05
6.83731e-05
0.000118407
0.00016465
0.000202546
0.000332159
3.93466e-05
7.92235e-05
0.000132762
0.000172003
0.000198795
0.000330269
4.87026e-05
9.42217e-05
0.000144074
0.000172762
0.000190536
0.000325358
6.27611e-05
0.000106907
0.000146739
0.000166415
0.000179937
0.000317185
7.70321e-05
0.000112588
0.00014117
0.000156289
0.000169421
0.000304937
8.69468e-05
0.000111659
0.000131524
0.000144657
0.000160143
0.000288261
9.07478e-05
0.000106375
0.000120294
0.000132963
0.000152785
0.000265661
8.87595e-05
9.92957e-05
0.000109774
0.00012331
0.000147507
0.000236613
0.000115099
0.000130217
0.000144302
0.000161235
0.000181199
0.000228627
9.18625e-05
0.000106902
0.00012666
0.000151456
0.000186477
0.000253868
7.13493e-05
8.66731e-05
0.000110796
0.000142699
0.000188329
0.000275039
5.1136e-05
6.74758e-05
9.61291e-05
0.00013543
0.000188145
0.000290016
3.72666e-05
5.41018e-05
8.50407e-05
0.000130896
0.00018774
0.000300252
2.85167e-05
4.60618e-05
7.98037e-05
0.000130541
0.000187965
0.000305673
2.39594e-05
4.32967e-05
8.13093e-05
0.000134639
0.00018725
0.000307153
2.30003e-05
4.60929e-05
8.91811e-05
0.000141463
0.000184641
0.000304748
2.62827e-05
5.39301e-05
9.9496e-05
0.000146058
0.000178702
0.000299594
3.38498e-05
6.37147e-05
0.000106439
0.000144848
0.00017041
0.000291286
4.40885e-05
7.18674e-05
0.000107465
0.000138924
0.000163271
0.000280328
5.44117e-05
7.71604e-05
0.000104829
0.000131204
0.00015836
0.000264706
6.27701e-05
7.99215e-05
0.000100979
0.000123781
0.000154995
0.000244279
6.74381e-05
8.11758e-05
9.7979e-05
0.000118699
0.000152075
0.000217463
0.000105513
0.000132509
0.000158438
0.0001792
0.000199094
0.000212136
7.5842e-05
9.92681e-05
0.000128103
0.000159073
0.000194249
0.000235937
5.30032e-05
7.39287e-05
0.000103507
0.000140963
0.000186765
0.00025608
3.58205e-05
5.30478e-05
8.26925e-05
0.00012525
0.000179659
0.000270627
2.56903e-05
4.02575e-05
6.71366e-05
0.000111796
0.000174151
0.000280553
1.92871e-05
3.23492e-05
5.71216e-05
0.000102124
0.000169041
0.00028385
1.53939e-05
2.75487e-05
5.15076e-05
9.68189e-05
0.000163192
0.000282234
1.33886e-05
2.54207e-05
5.01442e-05
9.57065e-05
0.000157823
0.000276235
1.31105e-05
2.59862e-05
5.25544e-05
9.73127e-05
0.000152247
0.000268162
1.48888e-05
2.88665e-05
5.62454e-05
9.83355e-05
0.000146854
0.000259945
1.88398e-05
3.3034e-05
5.91911e-05
9.77855e-05
0.000144538
0.000251878
2.44294e-05
3.78577e-05
6.1541e-05
9.6969e-05
0.000146523
0.000240905
3.09817e-05
4.35166e-05
6.52438e-05
9.86279e-05
0.000151128
0.000223713
3.76067e-05
5.0287e-05
7.17255e-05
0.000104315
0.000155625
0.000198593
0.000234873
0.0001636
0.00013926
0.000125234
0.000116628
0.00011007
0.000266155
0.000170791
0.000150926
0.000139888
0.00013083
0.000122238
0.000292264
0.000184656
0.00016816
0.000157352
0.000143967
0.000128219
0.000313855
0.000204773
0.000187829
0.000172588
0.000148622
0.000121063
0.000331155
0.000225799
0.000203445
0.000176877
0.000136681
9.80802e-05
0.000342884
0.000243654
0.000206171
0.000162022
0.000108752
6.75798e-05
0.000349053
0.000250011
0.000188962
0.00013006
7.62409e-05
4.18489e-05
0.000350345
0.000241159
0.000158463
9.62349e-05
5.13545e-05
2.57822e-05
0.000345375
0.000221988
0.000130199
7.31816e-05
3.84085e-05
1.91429e-05
0.000334287
0.0001995
0.000112349
6.40011e-05
3.63902e-05
1.99575e-05
0.000317137
0.000179441
0.000105109
6.55532e-05
4.31187e-05
2.8224e-05
0.000296246
0.00016612
0.000106048
7.45185e-05
5.66283e-05
4.40594e-05
0.000271093
0.000157327
0.00011222
8.77875e-05
7.35166e-05
6.27476e-05
0.000243386
0.000151233
0.000120135
0.000103183
9.25513e-05
8.26051e-05
0.00021577
0.000162902
0.000133162
0.000115585
0.000102119
9.13662e-05
0.000245632
0.000168302
0.000140384
0.000122379
0.000105723
9.23848e-05
0.000272234
0.000179703
0.00015187
0.000130417
0.000106419
8.67664e-05
0.000293326
0.00019525
0.000164996
0.000135027
9.99949e-05
7.37902e-05
0.000309397
0.000213678
0.000173062
0.000129539
8.45076e-05
5.5279e-05
0.000321619
0.000230664
0.000168385
0.000111383
6.34823e-05
3.69915e-05
0.000328855
0.000236303
0.000149508
8.63332e-05
4.40591e-05
2.27686e-05
0.000329434
0.000228598
0.000125167
6.45453e-05
3.08405e-05
1.44688e-05
0.000323051
0.000212086
0.000105476
5.16217e-05
2.48657e-05
1.15772e-05
0.000311032
0.000192696
9.4884e-05
4.83767e-05
2.55474e-05
1.30126e-05
0.000293412
0.000175267
9.30951e-05
5.29089e-05
3.22086e-05
1.92692e-05
0.000272886
0.000163266
9.7896e-05
6.38305e-05
4.47926e-05
3.17172e-05
0.000248693
0.000156926
0.000107151
7.8808e-05
6.13016e-05
4.82579e-05
0.000222804
0.000155328
0.000118784
9.66431e-05
8.11645e-05
6.76432e-05
0.000188529
0.000164136
0.000129696
9.96764e-05
7.64999e-05
6.04062e-05
0.00021727
0.0001678
0.000126391
9.21802e-05
6.68717e-05
5.10059e-05
0.000241766
0.000172652
0.000124989
8.68574e-05
5.8006e-05
4.13385e-05
0.000261996
0.000181922
0.000124342
8.12539e-05
4.9356e-05
3.20115e-05
0.000278018
0.000192774
0.000122509
7.31871e-05
4.01346e-05
2.33551e-05
0.000291723
0.000201174
0.000116654
6.26223e-05
3.11984e-05
1.61801e-05
0.000301628
0.000203982
0.000106802
5.1601e-05
2.37755e-05
1.10506e-05
0.000305392
0.000200449
9.63128e-05
4.34068e-05
1.91483e-05
8.25512e-06
0.000300933
0.000190117
8.81449e-05
3.92605e-05
1.74875e-05
7.51215e-06
0.000288412
0.000176379
8.43885e-05
3.94992e-05
1.88475e-05
8.68863e-06
0.000269987
0.000164956
8.4779e-05
4.35331e-05
2.33651e-05
1.22803e-05
0.00024809
0.000158463
9.07226e-05
5.26376e-05
3.20806e-05
1.95257e-05
0.000224484
0.00015783
0.00010068
6.51744e-05
4.39897e-05
3.0038e-05
0.000200108
0.000161951
0.000114049
8.12014e-05
5.91642e-05
4.34251e-05
0.000232924
0.000175257
0.000155561
0.000139143
0.000128276
0.000122216
0.000262333
0.00017671
0.000158354
0.000144981
0.0001377
0.000134349
0.000287738
0.000185158
0.000168027
0.000157272
0.000152607
0.000150462
0.000308766
0.000199685
0.000182804
0.000174629
0.000171793
0.000167143
0.0003251
0.00021865
0.000201528
0.000195314
0.000188957
0.000172674
0.000336318
0.000239073
0.000220816
0.000210988
0.000189599
0.000154136
0.00034111
0.000256291
0.000229966
0.00020605
0.000164857
0.000118101
0.000339565
0.000264254
0.000218434
0.000176201
0.000125992
8.28639e-05
0.00033482
0.000260402
0.000190437
0.000138787
9.29516e-05
6.01862e-05
0.000325632
0.000244282
0.000163138
0.000112239
7.56346e-05
5.23234e-05
0.000310268
0.000221407
0.000145521
0.000100562
7.21656e-05
5.56792e-05
0.000290569
0.000199754
0.000137077
0.000100174
7.88031e-05
6.76012e-05
0.000266285
0.000181987
0.000135598
0.000107236
9.10459e-05
8.20433e-05
0.000239147
0.000168903
0.000137982
0.000118749
0.000107487
9.97618e-05
0.000216364
0.000170963
0.00015333
0.000140363
0.000130528
0.000121793
0.000245519
0.000172411
0.000157464
0.000146837
0.000136957
0.000128511
0.000271666
0.000179886
0.000166976
0.00015802
0.000146169
0.000133287
0.000294365
0.000193022
0.000181902
0.000173371
0.000156138
0.00013442
0.000311864
0.000211175
0.000200246
0.000187919
0.000158517
0.000123067
0.000322931
0.000233532
0.000216126
0.000191289
0.00014406
0.000101672
0.000325877
0.00025233
0.000216916
0.00017317
0.000116862
7.57013e-05
0.000324234
0.000260967
0.000196553
0.000139993
8.76615e-05
5.40877e-05
0.000317451
0.000256348
0.000167283
0.000108424
6.65191e-05
4.15128e-05
0.000305903
0.000240531
0.000144453
9.04707e-05
5.75511e-05
3.87541e-05
0.000288801
0.000218393
0.000132467
8.53329e-05
5.85277e-05
4.33471e-05
0.000267662
0.000196738
0.000128254
8.94914e-05
6.75089e-05
5.48323e-05
0.00024404
0.00017865
0.000129293
9.91628e-05
8.09594e-05
6.93639e-05
0.000218432
0.000167214
0.000134205
0.000113108
9.91425e-05
8.78903e-05
0.000191698
0.000174209
0.000164921
0.000154784
0.000136295
0.000115022
0.000220884
0.000179391
0.000170291
0.000152719
0.000126909
0.000103834
0.000247329
0.00018664
0.000175803
0.00015341
0.000119252
9.12716e-05
0.000269777
0.000198019
0.000183718
0.000154271
0.00011327
8.14067e-05
0.00028471
0.000212277
0.000189283
0.000151044
0.000103802
6.92659e-05
0.000293728
0.000227176
0.000187981
0.000139133
8.95732e-05
5.58977e-05
0.000297623
0.000235717
0.000174738
0.000118967
7.27271e-05
4.3261e-05
0.000297113
0.000233715
0.000154946
9.79499e-05
5.83464e-05
3.42101e-05
0.000289887
0.000224674
0.000137241
8.24794e-05
4.90496e-05
2.95215e-05
0.000276514
0.000210442
0.000126068
7.5733e-05
4.64844e-05
2.96082e-05
0.000257871
0.000194539
0.000121037
7.56745e-05
4.9093e-05
3.34526e-05
0.0002362
0.000181452
0.000121829
8.24555e-05
5.76783e-05
4.21596e-05
0.000212403
0.000171978
0.000126576
9.29008e-05
6.97002e-05
5.38683e-05
0.000188149
0.000167317
0.000135812
0.000108653
8.71137e-05
7.01558e-05
2.52491e-05
1.91622e-05
1.5e-05
1.22371e-05
1.12494e-05
1.09937e-05
1.15692e-05
1.28692e-05
1.54052e-05
1.92888e-05
2.47134e-05
3.18069e-05
4.36782e-05
6.47575e-05
1.50801e-05
1.15802e-05
8.9617e-06
7.17844e-06
6.46787e-06
6.23736e-06
6.49267e-06
7.20205e-06
8.82699e-06
1.17434e-05
1.63027e-05
2.29774e-05
3.37899e-05
5.06821e-05
8.98578e-06
6.6608e-06
5.01139e-06
3.93557e-06
3.49989e-06
3.34637e-06
3.46722e-06
3.89432e-06
5.00875e-06
7.2551e-06
1.10772e-05
1.69438e-05
2.59198e-05
3.90526e-05
5.3852e-06
3.59526e-06
2.55395e-06
1.9601e-06
1.72901e-06
1.6477e-06
1.72098e-06
2.01513e-06
2.8341e-06
4.59146e-06
7.73678e-06
1.26675e-05
1.99949e-05
3.03755e-05
3.28074e-06
1.82336e-06
1.17154e-06
8.71473e-07
7.64231e-07
7.31913e-07
7.91673e-07
1.0191e-06
1.64875e-06
3.02766e-06
5.56745e-06
9.64619e-06
1.56935e-05
2.43076e-05
2.09322e-06
9.01571e-07
4.88926e-07
3.4428e-07
2.99759e-07
2.94642e-07
3.50922e-07
5.40554e-07
1.04491e-06
2.14822e-06
4.21522e-06
7.61636e-06
1.27641e-05
2.01967e-05
1.47185e-06
4.81659e-07
1.98632e-07
1.23268e-07
1.05798e-07
1.13696e-07
1.69644e-07
3.40617e-07
7.75389e-07
1.71459e-06
3.4815e-06
6.43668e-06
1.09953e-05
1.77091e-05
1.2227e-06
3.30041e-07
9.68634e-08
4.48493e-08
3.73749e-08
5.16071e-08
1.10397e-07
2.7934e-07
6.92109e-07
1.56367e-06
3.18515e-06
5.89815e-06
1.01066e-05
1.63632e-05
1.20491e-06
3.12075e-07
7.87437e-08
2.77788e-08
2.26221e-08
4.11772e-08
1.07152e-07
2.88817e-07
7.17274e-07
1.59626e-06
3.19462e-06
5.82723e-06
9.87974e-06
1.59135e-05
1.39917e-06
3.89292e-07
1.14779e-07
5.07316e-08
4.31054e-08
6.61547e-08
1.45137e-07
3.53492e-07
8.26229e-07
1.76345e-06
3.41342e-06
6.06091e-06
1.00783e-05
1.60562e-05
1.89427e-06
6.16378e-07
2.44735e-07
1.45688e-07
1.27431e-07
1.56011e-07
2.57067e-07
5.09372e-07
1.05307e-06
2.08752e-06
3.83736e-06
6.57521e-06
1.06895e-05
1.68134e-05
3.09926e-06
1.22161e-06
6.07389e-07
4.23989e-07
3.75136e-07
4.08163e-07
5.46902e-07
8.72139e-07
1.52557e-06
2.70614e-06
4.62585e-06
7.54418e-06
1.18433e-05
1.8148e-05
5.41464e-06
2.57412e-06
1.48318e-06
1.12623e-06
1.01122e-06
1.0442e-06
1.24584e-06
1.69685e-06
2.53898e-06
3.98554e-06
6.26827e-06
9.63264e-06
1.4436e-05
2.13345e-05
9.02778e-06
5.0415e-06
3.26479e-06
2.63212e-06
2.42435e-06
2.47174e-06
2.79088e-06
3.47839e-06
4.70064e-06
6.70658e-06
9.77187e-06
1.41895e-05
2.06673e-05
3.0281e-05
1.26383e-05
9.95252e-06
8.24679e-06
7.13401e-06
6.94159e-06
7.07396e-06
7.52811e-06
8.24558e-06
9.54282e-06
1.1691e-05
1.49751e-05
1.93874e-05
2.62086e-05
3.90892e-05
7.07299e-06
5.52656e-06
4.53069e-06
3.88714e-06
3.76158e-06
3.82366e-06
4.06022e-06
4.45607e-06
5.24871e-06
6.73395e-06
9.27913e-06
1.31637e-05
1.95277e-05
3.083e-05
4.00933e-06
2.91038e-06
2.31383e-06
1.96948e-06
1.90645e-06
1.93796e-06
2.06096e-06
2.29172e-06
2.81453e-06
3.90515e-06
5.9541e-06
9.38435e-06
1.50603e-05
2.44385e-05
2.34112e-06
1.45474e-06
1.08255e-06
9.09894e-07
8.82631e-07
8.99983e-07
9.67809e-07
1.11704e-06
1.4921e-06
2.33285e-06
4.00699e-06
6.96193e-06
1.18459e-05
1.95406e-05
1.44359e-06
7.06718e-07
4.63876e-07
3.78855e-07
3.67227e-07
3.77917e-07
4.20945e-07
5.30876e-07
8.2045e-07
1.49061e-06
2.86268e-06
5.35557e-06
9.4984e-06
1.59552e-05
9.74624e-07
3.56549e-07
1.87119e-07
1.42354e-07
1.36797e-07
1.44784e-07
1.7715e-07
2.67639e-07
5.06778e-07
1.06345e-06
2.21247e-06
4.32894e-06
7.87105e-06
1.34261e-05
7.41985e-07
2.09623e-07
7.80478e-08
4.96035e-08
4.6519e-08
5.39644e-08
8.27763e-08
1.66092e-07
3.82879e-07
8.81607e-07
1.90156e-06
3.77638e-06
6.92185e-06
1.18737e-05
6.52641e-07
1.60293e-07
4.20985e-08
1.84069e-08
1.63842e-08
2.45275e-08
5.42055e-08
1.3988e-07
3.57474e-07
8.45423e-07
1.81909e-06
3.57671e-06
6.49406e-06
1.10563e-05
6.55556e-07
1.58748e-07
3.72459e-08
1.24804e-08
1.06807e-08
2.05464e-08
5.47942e-08
1.51315e-07
3.88805e-07
9.0333e-07
1.89592e-06
3.63654e-06
6.46248e-06
1.0821e-05
7.43053e-07
1.94736e-07
5.50648e-08
2.44986e-08
2.18836e-08
3.45451e-08
7.72897e-08
1.92852e-07
4.65811e-07
1.03419e-06
2.09031e-06
3.88086e-06
6.71224e-06
1.10085e-05
9.34945e-07
2.93907e-07
1.19389e-07
7.39623e-08
6.73077e-08
8.41506e-08
1.41015e-07
2.85428e-07
6.08214e-07
1.25068e-06
2.39903e-06
4.283e-06
7.19862e-06
1.15583e-05
1.3887e-06
5.6032e-07
3.08648e-07
2.26552e-07
2.05783e-07
2.27421e-07
3.08608e-07
4.98467e-07
8.91041e-07
1.6302e-06
2.8969e-06
4.90254e-06
7.94541e-06
1.24288e-05
2.3121e-06
1.18231e-06
7.84008e-07
6.29568e-07
5.75271e-07
6.01074e-07
7.24148e-07
9.9108e-07
1.49459e-06
2.38294e-06
3.83639e-06
6.05795e-06
9.31954e-06
1.40217e-05
3.94579e-06
2.42633e-06
1.79038e-06
1.53141e-06
1.43209e-06
1.4734e-06
1.67683e-06
2.09214e-06
2.81643e-06
4.01009e-06
5.84689e-06
8.51229e-06
1.22497e-05
1.7348e-05
6.02394e-06
4.79915e-06
4.11662e-06
3.76826e-06
3.83419e-06
4.05278e-06
4.42339e-06
4.94053e-06
5.75087e-06
7.03107e-06
9.06266e-06
1.19848e-05
1.63445e-05
2.37431e-05
3.23195e-06
2.49049e-06
2.10812e-06
1.92331e-06
1.96193e-06
2.07848e-06
2.27299e-06
2.5523e-06
3.03148e-06
3.8758e-06
5.35337e-06
7.71182e-06
1.15442e-05
1.82195e-05
1.74112e-06
1.21739e-06
9.96895e-07
9.07715e-07
9.31669e-07
9.91671e-07
1.09097e-06
1.24327e-06
1.54107e-06
2.1342e-06
3.27287e-06
5.26339e-06
8.66309e-06
1.45158e-05
9.78604e-07
5.68454e-07
4.32997e-07
3.90695e-07
4.03104e-07
4.32109e-07
4.82895e-07
5.7232e-07
7.72476e-07
1.21382e-06
2.12171e-06
3.8107e-06
6.76961e-06
1.17704e-05
6.0074e-07
2.65096e-07
1.7413e-07
1.52198e-07
1.57096e-07
1.70666e-07
1.98493e-07
2.58001e-07
4.04916e-07
7.49509e-07
1.48847e-06
2.91716e-06
5.46316e-06
9.74873e-06
4.18713e-07
1.35463e-07
6.75825e-08
5.39277e-08
5.51622e-08
6.20044e-08
7.98064e-08
1.25363e-07
2.43982e-07
5.29723e-07
1.1531e-06
2.38035e-06
4.58956e-06
8.31929e-06
3.3563e-07
8.55951e-08
2.87093e-08
1.80605e-08
1.79419e-08
2.23975e-08
3.66787e-08
7.73954e-08
1.8552e-07
4.45988e-07
1.0107e-06
2.11855e-06
4.1075e-06
7.45329e-06
3.08989e-07
7.1057e-08
1.6966e-08
6.80212e-09
6.33293e-09
1.0445e-08
2.47687e-08
6.6958e-08
1.78109e-07
4.40159e-07
9.93534e-07
2.05463e-06
3.92706e-06
7.02741e-06
3.20894e-07
7.38059e-08
1.63283e-08
5.23507e-09
4.69584e-09
9.56924e-09
2.64661e-08
7.54901e-08
2.01011e-07
4.86342e-07
1.06609e-06
2.13986e-06
3.98445e-06
6.96911e-06
3.67507e-07
9.17556e-08
2.52554e-08
1.15628e-08
1.08551e-08
1.74186e-08
3.94412e-08
1.00564e-07
2.50351e-07
5.76129e-07
1.21102e-06
2.34294e-06
4.23039e-06
7.20953e-06
4.55566e-07
1.4076e-07
5.83822e-08
3.75306e-08
3.53463e-08
4.48537e-08
7.56571e-08
1.55228e-07
3.39074e-07
7.19932e-07
1.4331e-06
2.66023e-06
4.64953e-06
7.71574e-06
6.54741e-07
2.78736e-07
1.61657e-07
1.21402e-07
1.12689e-07
1.26741e-07
1.73842e-07
2.83694e-07
5.16792e-07
9.71535e-07
1.7868e-06
3.14118e-06
5.27737e-06
8.4905e-06
1.09385e-06
6.18873e-07
4.3397e-07
3.52406e-07
3.26086e-07
3.46455e-07
4.24086e-07
5.87978e-07
9.00599e-07
1.46556e-06
2.42487e-06
3.95913e-06
6.29916e-06
9.74545e-06
1.9785e-06
1.33937e-06
1.03799e-06
8.92861e-07
8.3931e-07
8.73977e-07
1.01086e-06
1.27925e-06
1.74185e-06
2.50417e-06
3.70322e-06
5.50876e-06
8.12935e-06
1.18548e-05
3.02754e-06
2.34589e-06
1.97263e-06
1.82449e-06
1.88846e-06
2.06707e-06
2.36553e-06
2.78408e-06
3.39805e-06
4.31765e-06
5.6991e-06
7.70715e-06
1.06992e-05
1.54544e-05
1.53231e-06
1.13837e-06
9.40047e-07
8.66131e-07
9.02935e-07
9.93945e-07
1.1425e-06
1.35674e-06
1.69709e-06
2.26578e-06
3.22071e-06
4.75554e-06
7.23169e-06
1.13939e-05
7.79503e-07
5.18504e-07
4.12266e-07
3.79309e-07
3.99522e-07
4.43623e-07
5.14664e-07
6.23013e-07
8.1675e-07
1.18614e-06
1.88294e-06
3.11648e-06
5.23894e-06
8.90371e-06
4.2061e-07
2.27037e-07
1.66346e-07
1.51767e-07
1.61334e-07
1.81157e-07
2.14328e-07
2.71396e-07
3.89867e-07
6.45364e-07
1.17383e-06
2.17938e-06
3.9891e-06
7.154e-06
2.54372e-07
1.0159e-07
6.27123e-08
5.52434e-08
5.89616e-08
6.74328e-08
8.35697e-08
1.17075e-07
1.97027e-07
3.84969e-07
7.97586e-07
1.62365e-06
3.16243e-06
5.8951e-06
1.78105e-07
5.2061e-08
2.34774e-08
1.84909e-08
1.95836e-08
2.3371e-08
3.24786e-08
5.55765e-08
1.1613e-07
2.65394e-07
6.03712e-07
1.30213e-06
2.63267e-06
5.02081e-06
1.45597e-07
3.46644e-08
1.02966e-08
6.00269e-09
6.1393e-09
8.31375e-09
1.50159e-08
3.44534e-08
8.7622e-08
2.20592e-07
5.23491e-07
1.1527e-06
2.35574e-06
4.50986e-06
1.38872e-07
3.06656e-08
6.72395e-09
2.36512e-09
2.23788e-09
4.11478e-09
1.06583e-08
3.05389e-08
8.49818e-08
2.19247e-07
5.18901e-07
1.12965e-06
2.27811e-06
4.29893e-06
1.49896e-07
3.29548e-08
6.92833e-09
2.15642e-09
2.01456e-09
4.24926e-09
1.20813e-08
3.55909e-08
9.8334e-08
2.48095e-07
5.7024e-07
1.20413e-06
2.36144e-06
4.34383e-06
1.76719e-07
4.17673e-08
1.13286e-08
5.48741e-09
5.41696e-09
8.61016e-09
1.92711e-08
4.97862e-08
1.27699e-07
3.0566e-07
6.72036e-07
1.36379e-06
2.58526e-06
4.61502e-06
2.2666e-07
6.78824e-08
2.86849e-08
1.92894e-08
1.88967e-08
2.41294e-08
4.02005e-08
8.2412e-08
1.83388e-07
4.02188e-07
8.33078e-07
1.61479e-06
2.95048e-06
5.10159e-06
3.44451e-07
1.47078e-07
8.61146e-08
6.57567e-08
6.28737e-08
7.22674e-08
9.96563e-08
1.62861e-07
2.99823e-07
5.76955e-07
1.09654e-06
2.00344e-06
3.50273e-06
5.83895e-06
6.21755e-07
3.54018e-07
2.45366e-07
1.98722e-07
1.87573e-07
2.04834e-07
2.56085e-07
3.60258e-07
5.5913e-07
9.26764e-07
1.57531e-06
2.66013e-06
4.38663e-06
6.98969e-06
1.20749e-06
8.11827e-07
6.15677e-07
5.22504e-07
4.95898e-07
5.29209e-07
6.29172e-07
8.15993e-07
1.13312e-06
1.65746e-06
2.50335e-06
3.82565e-06
5.82587e-06
8.73414e-06
1.73344e-06
1.2815e-06
1.0094e-06
8.8877e-07
8.97721e-07
9.96612e-07
1.19312e-06
1.49658e-06
1.96356e-06
2.67058e-06
3.72089e-06
5.25407e-06
7.4972e-06
1.08876e-05
8.23746e-07
5.79388e-07
4.46836e-07
3.92082e-07
3.98775e-07
4.45157e-07
5.35232e-07
6.78858e-07
9.19608e-07
1.32877e-06
2.01469e-06
3.12377e-06
4.87925e-06
7.72242e-06
3.928e-07
2.44119e-07
1.80586e-07
1.58402e-07
1.63077e-07
1.83928e-07
2.23806e-07
2.91293e-07
4.18439e-07
6.65629e-07
1.13464e-06
1.97209e-06
3.40296e-06
5.84059e-06
1.99918e-07
9.90395e-08
6.69413e-08
5.82452e-08
6.07223e-08
6.95107e-08
8.68805e-08
1.19965e-07
1.92008e-07
3.50894e-07
6.83883e-07
1.32688e-06
2.49273e-06
4.54803e-06
1.16217e-07
4.20134e-08
2.33925e-08
1.95061e-08
2.04864e-08
2.40647e-08
3.20132e-08
5.00796e-08
9.5173e-08
2.04126e-07