/*--------------------------------*- C++ -*----------------------------------*\
| =========                 |                                                 |
| \\      /  F ield         | OpenFOAM: The Open Source CFD Toolbox           |
|  \\    /   O peration     | Version:  v2106                                 |
|   \\  /    A nd           | Website:  www.openfoam.com                      |
|    \\/     M anipulation  |                                                 |
\*---------------------------------------------------------------------------*/
FoamFile
{
    version     2.0;
    format      ascii;
    arch        "LSB;label=32;scalar=64";
    class       volScalarField;
    location    "0.000183";
    object      nut;
}
// * * * * * * * * * * * * * * * * * * * * * * * * * * * * * * * * * * * * * //

dimensions      [0 2 -1 0 0 0 0];

internalField   nonuniform List<scalar> 
17924
(
3.62167e-17
3.61898e-17
3.61861e-17
3.61874e-17
3.6147e-17
3.61453e-17
3.61464e-17
3.61478e-17
3.61496e-17
3.61519e-17
3.61546e-17
3.61574e-17
3.6152e-17
3.61519e-17
3.61527e-17
3.61542e-17
3.61562e-17
3.61587e-17
3.61708e-17
3.61593e-17
3.61575e-17
3.6158e-17
3.61594e-17
3.61614e-17
3.61637e-17
3.61862e-17
3.6167e-17
3.61633e-17
3.61634e-17
3.61648e-17
3.61668e-17
3.61691e-17
3.62004e-17
3.61744e-17
3.6169e-17
3.61689e-17
3.61704e-17
3.61724e-17
3.61747e-17
3.62112e-17
3.6181e-17
3.61748e-17
3.61747e-17
3.61762e-17
3.61782e-17
3.61806e-17
3.62193e-17
3.61868e-17
3.61805e-17
3.61806e-17
3.61822e-17
3.61843e-17
3.61867e-17
3.62256e-17
3.61922e-17
3.61862e-17
3.61867e-17
3.61884e-17
3.61906e-17
3.61931e-17
3.62302e-17
3.61972e-17
3.61919e-17
3.61928e-17
3.61947e-17
3.61971e-17
3.61996e-17
3.62335e-17
3.62023e-17
3.61978e-17
3.61989e-17
3.62011e-17
3.62037e-17
3.62064e-17
3.62348e-17
3.6207e-17
3.62035e-17
3.62051e-17
3.62076e-17
3.62103e-17
3.62132e-17
3.62347e-17
3.62116e-17
3.62095e-17
3.62116e-17
3.62145e-17
3.62176e-17
3.62207e-17
3.62336e-17
3.62158e-17
3.62157e-17
3.62191e-17
3.62233e-17
3.62273e-17
3.62309e-17
3.62369e-17
3.62224e-17
3.62253e-17
3.62331e-17
3.62423e-17
3.62501e-17
3.62548e-17
3.61206e-17
3.61202e-17
3.61207e-17
3.61213e-17
3.61223e-17
3.61236e-17
3.61251e-17
3.6127e-17
3.61291e-17
3.61314e-17
3.61339e-17
3.61364e-17
3.61386e-17
3.61408e-17
3.61271e-17
3.6126e-17
3.61263e-17
3.61267e-17
3.61276e-17
3.61288e-17
3.61303e-17
3.61321e-17
3.61342e-17
3.61365e-17
3.61389e-17
3.61415e-17
3.61437e-17
3.61464e-17
3.61332e-17
3.61315e-17
3.61317e-17
3.61322e-17
3.61331e-17
3.61344e-17
3.61359e-17
3.61377e-17
3.61397e-17
3.61418e-17
3.61441e-17
3.61465e-17
3.61489e-17
3.61516e-17
3.61393e-17
3.61372e-17
3.61373e-17
3.61379e-17
3.61389e-17
3.61402e-17
3.61418e-17
3.61436e-17
3.61455e-17
3.61476e-17
3.61498e-17
3.61521e-17
3.61544e-17
3.6157e-17
3.61451e-17
3.61428e-17
3.61429e-17
3.61437e-17
3.61448e-17
3.61463e-17
3.61478e-17
3.61496e-17
3.61516e-17
3.61536e-17
3.61557e-17
3.61579e-17
3.61601e-17
3.61625e-17
3.61508e-17
3.61486e-17
3.61488e-17
3.61497e-17
3.6151e-17
3.61525e-17
3.61541e-17
3.6156e-17
3.61579e-17
3.61599e-17
3.6162e-17
3.61642e-17
3.61663e-17
3.61686e-17
3.61563e-17
3.61544e-17
3.61547e-17
3.61559e-17
3.61572e-17
3.61589e-17
3.61606e-17
3.61625e-17
3.61644e-17
3.61664e-17
3.61685e-17
3.61706e-17
3.61727e-17
3.61748e-17
3.61618e-17
3.61601e-17
3.61608e-17
3.61621e-17
3.61636e-17
3.61653e-17
3.61671e-17
3.61691e-17
3.6171e-17
3.6173e-17
3.61751e-17
3.61772e-17
3.61793e-17
3.61813e-17
3.61671e-17
3.61659e-17
3.61668e-17
3.61684e-17
3.61701e-17
3.61719e-17
3.61738e-17
3.61758e-17
3.61777e-17
3.61797e-17
3.61818e-17
3.61838e-17
3.61859e-17
3.61878e-17
3.61726e-17
3.61718e-17
3.61729e-17
3.61747e-17
3.61765e-17
3.61785e-17
3.61804e-17
3.61825e-17
3.61845e-17
3.61865e-17
3.61886e-17
3.61906e-17
3.61928e-17
3.61946e-17
3.6178e-17
3.61776e-17
3.6179e-17
3.61809e-17
3.6183e-17
3.6185e-17
3.61871e-17
3.61892e-17
3.61913e-17
3.61933e-17
3.61954e-17
3.61975e-17
3.61998e-17
3.62015e-17
3.61832e-17
3.61834e-17
3.61852e-17
3.61873e-17
3.61894e-17
3.61916e-17
3.61938e-17
3.61959e-17
3.6198e-17
3.62001e-17
3.62023e-17
3.62045e-17
3.62067e-17
3.62083e-17
3.61876e-17
3.61886e-17
3.6191e-17
3.61933e-17
3.61958e-17
3.61982e-17
3.62006e-17
3.62028e-17
3.62049e-17
3.6207e-17
3.62092e-17
3.62114e-17
3.62134e-17
3.62147e-17
3.6192e-17
3.6194e-17
3.6197e-17
3.62e-17
3.6203e-17
3.62058e-17
3.62083e-17
3.62104e-17
3.62124e-17
3.62143e-17
3.62162e-17
3.6218e-17
3.62195e-17
3.62206e-17
3.61121e-17
3.61112e-17
3.6111e-17
3.61108e-17
3.61108e-17
3.61109e-17
3.61112e-17
3.61118e-17
3.61125e-17
3.61134e-17
3.61145e-17
3.61157e-17
3.61169e-17
3.61177e-17
3.6117e-17
3.61162e-17
3.6116e-17
3.61157e-17
3.61157e-17
3.61158e-17
3.61161e-17
3.61166e-17
3.61174e-17
3.61183e-17
3.61193e-17
3.61205e-17
3.61215e-17
3.61228e-17
3.61217e-17
3.61208e-17
3.61206e-17
3.61205e-17
3.61206e-17
3.61208e-17
3.61212e-17
3.61218e-17
3.61224e-17
3.61233e-17
3.61242e-17
3.61252e-17
3.61263e-17
3.61276e-17
3.61263e-17
3.61255e-17
3.61255e-17
3.61255e-17
3.61256e-17
3.6126e-17
3.61264e-17
3.6127e-17
3.61277e-17
3.61285e-17
3.61293e-17
3.61303e-17
3.61312e-17
3.61325e-17
3.61306e-17
3.61301e-17
3.61303e-17
3.61305e-17
3.61308e-17
3.61312e-17
3.61317e-17
3.61324e-17
3.61331e-17
3.61338e-17
3.61346e-17
3.61355e-17
3.61363e-17
3.61375e-17
3.61352e-17
3.6135e-17
3.61353e-17
3.61356e-17
3.6136e-17
3.61366e-17
3.61372e-17
3.61378e-17
3.61385e-17
3.61393e-17
3.61401e-17
3.61409e-17
3.61417e-17
3.61427e-17
3.61396e-17
3.61398e-17
3.61403e-17
3.61408e-17
3.61413e-17
3.6142e-17
3.61426e-17
3.61433e-17
3.6144e-17
3.61448e-17
3.61456e-17
3.61464e-17
3.61472e-17
3.6148e-17
3.61443e-17
3.61447e-17
3.61454e-17
3.6146e-17
3.61467e-17
3.61474e-17
3.61481e-17
3.61489e-17
3.61496e-17
3.61504e-17
3.61512e-17
3.6152e-17
3.61529e-17
3.61535e-17
3.6149e-17
3.61497e-17
3.61504e-17
3.61513e-17
3.61521e-17
3.61529e-17
3.61537e-17
3.61545e-17
3.61552e-17
3.61561e-17
3.61569e-17
3.61576e-17
3.61585e-17
3.6159e-17
3.61539e-17
3.61547e-17
3.61556e-17
3.61566e-17
3.61575e-17
3.61583e-17
3.61592e-17
3.61601e-17
3.61609e-17
3.61618e-17
3.61627e-17
3.61634e-17
3.61643e-17
3.61648e-17
3.61589e-17
3.61598e-17
3.61608e-17
3.61619e-17
3.61629e-17
3.61638e-17
3.61648e-17
3.61657e-17
3.61666e-17
3.61675e-17
3.61684e-17
3.61692e-17
3.61702e-17
3.61705e-17
3.6164e-17
3.61651e-17
3.61662e-17
3.61673e-17
3.61684e-17
3.61694e-17
3.61704e-17
3.61714e-17
3.61723e-17
3.61733e-17
3.61742e-17
3.61751e-17
3.61762e-17
3.61764e-17
3.61687e-17
3.61699e-17
3.61713e-17
3.61726e-17
3.61737e-17
3.61749e-17
3.6176e-17
3.6177e-17
3.6178e-17
3.6179e-17
3.618e-17
3.61809e-17
3.61818e-17
3.6182e-17
3.61732e-17
3.61749e-17
3.61766e-17
3.61781e-17
3.61794e-17
3.61806e-17
3.61817e-17
3.61827e-17
3.61837e-17
3.61847e-17
3.61856e-17
3.61864e-17
3.61871e-17
3.61875e-17
3.61114e-17
3.61108e-17
3.61102e-17
3.61095e-17
3.61089e-17
3.61082e-17
3.61077e-17
3.61072e-17
3.61069e-17
3.61067e-17
3.61066e-17
3.61065e-17
3.61065e-17
3.61065e-17
3.61154e-17
3.61145e-17
3.6114e-17
3.61133e-17
3.61126e-17
3.61119e-17
3.61114e-17
3.6111e-17
3.61106e-17
3.61104e-17
3.61103e-17
3.61102e-17
3.611e-17
3.61105e-17
3.61188e-17
3.61179e-17
3.61174e-17
3.61168e-17
3.61162e-17
3.61157e-17
3.61153e-17
3.61148e-17
3.61145e-17
3.61142e-17
3.61139e-17
3.61138e-17
3.61136e-17
3.6114e-17
3.61222e-17
3.61214e-17
3.6121e-17
3.61204e-17
3.61199e-17
3.61195e-17
3.61191e-17
3.61187e-17
3.61183e-17
3.6118e-17
3.61176e-17
3.61174e-17
3.61172e-17
3.61176e-17
3.61252e-17
3.61246e-17
3.61244e-17
3.6124e-17
3.61236e-17
3.61232e-17
3.61229e-17
3.61225e-17
3.61222e-17
3.61218e-17
3.61214e-17
3.61211e-17
3.61208e-17
3.6121e-17
3.61284e-17
3.61281e-17
3.6128e-17
3.61276e-17
3.61273e-17
3.6127e-17
3.61267e-17
3.61263e-17
3.6126e-17
3.61257e-17
3.61253e-17
3.6125e-17
3.61246e-17
3.61245e-17
3.61317e-17
3.61316e-17
3.61315e-17
3.61313e-17
3.61311e-17
3.61308e-17
3.61305e-17
3.61302e-17
3.61299e-17
3.61295e-17
3.61292e-17
3.61288e-17
3.61284e-17
3.61282e-17
3.61351e-17
3.61352e-17
3.61351e-17
3.6135e-17
3.61348e-17
3.61346e-17
3.61344e-17
3.61341e-17
3.61338e-17
3.61334e-17
3.61331e-17
3.61327e-17
3.61324e-17
3.61319e-17
3.61386e-17
3.61388e-17
3.61388e-17
3.61388e-17
3.61387e-17
3.61385e-17
3.61383e-17
3.6138e-17
3.61377e-17
3.61374e-17
3.61371e-17
3.61366e-17
3.61363e-17
3.61358e-17
3.61424e-17
3.61425e-17
3.61426e-17
3.61427e-17
3.61426e-17
3.61424e-17
3.61422e-17
3.6142e-17
3.61417e-17
3.61414e-17
3.61411e-17
3.61406e-17
3.61405e-17
3.614e-17
3.61462e-17
3.61464e-17
3.61465e-17
3.61466e-17
3.61466e-17
3.61464e-17
3.61463e-17
3.6146e-17
3.61458e-17
3.61455e-17
3.61452e-17
3.61448e-17
3.61447e-17
3.61442e-17
3.61501e-17
3.61504e-17
3.61505e-17
3.61506e-17
3.61506e-17
3.61505e-17
3.61503e-17
3.61501e-17
3.61499e-17
3.61496e-17
3.61494e-17
3.61491e-17
3.61491e-17
3.61486e-17
3.61539e-17
3.61542e-17
3.61545e-17
3.61546e-17
3.61546e-17
3.61546e-17
3.61545e-17
3.61543e-17
3.6154e-17
3.61538e-17
3.61536e-17
3.61534e-17
3.61532e-17
3.61525e-17
3.61577e-17
3.61581e-17
3.61585e-17
3.61588e-17
3.61588e-17
3.61588e-17
3.61587e-17
3.61585e-17
3.61583e-17
3.6158e-17
3.61577e-17
3.61576e-17
3.61573e-17
3.61568e-17
3.61136e-17
3.61128e-17
3.61121e-17
3.61112e-17
3.61103e-17
3.61093e-17
3.61083e-17
3.61072e-17
3.61063e-17
3.61053e-17
3.61045e-17
3.61036e-17
3.61026e-17
3.61015e-17
3.61162e-17
3.61152e-17
3.61146e-17
3.61136e-17
3.61126e-17
3.61115e-17
3.61105e-17
3.61095e-17
3.61085e-17
3.61076e-17
3.61067e-17
3.61058e-17
3.61048e-17
3.61041e-17
3.61182e-17
3.61173e-17
3.61166e-17
3.61157e-17
3.61147e-17
3.61137e-17
3.61128e-17
3.61118e-17
3.61108e-17
3.61099e-17
3.61089e-17
3.6108e-17
3.6107e-17
3.61063e-17
3.61204e-17
3.61194e-17
3.61188e-17
3.61178e-17
3.61169e-17
3.6116e-17
3.6115e-17
3.61141e-17
3.61131e-17
3.61121e-17
3.61111e-17
3.61101e-17
3.61091e-17
3.61084e-17
3.61222e-17
3.61215e-17
3.61208e-17
3.612e-17
3.61191e-17
3.61182e-17
3.61173e-17
3.61163e-17
3.61153e-17
3.61143e-17
3.61133e-17
3.61122e-17
3.61112e-17
3.61103e-17
3.61243e-17
3.61236e-17
3.6123e-17
3.61222e-17
3.61214e-17
3.61204e-17
3.61195e-17
3.61185e-17
3.61175e-17
3.61165e-17
3.61155e-17
3.61144e-17
3.61132e-17
3.61123e-17
3.61263e-17
3.61258e-17
3.61252e-17
3.61244e-17
3.61236e-17
3.61227e-17
3.61218e-17
3.61208e-17
3.61198e-17
3.61187e-17
3.61176e-17
3.61165e-17
3.61154e-17
3.61143e-17
3.61285e-17
3.6128e-17
3.61274e-17
3.61267e-17
3.61259e-17
3.6125e-17
3.6124e-17
3.6123e-17
3.6122e-17
3.61209e-17
3.61198e-17
3.61187e-17
3.61175e-17
3.61163e-17
3.61308e-17
3.61303e-17
3.61297e-17
3.6129e-17
3.61282e-17
3.61273e-17
3.61263e-17
3.61253e-17
3.61243e-17
3.61232e-17
3.61221e-17
3.61209e-17
3.61197e-17
3.61185e-17
3.61332e-17
3.61327e-17
3.61321e-17
3.61314e-17
3.61306e-17
3.61297e-17
3.61287e-17
3.61276e-17
3.61265e-17
3.61254e-17
3.61243e-17
3.61231e-17
3.6122e-17
3.61207e-17
3.61356e-17
3.61352e-17
3.61345e-17
3.61338e-17
3.6133e-17
3.6132e-17
3.6131e-17
3.613e-17
3.61289e-17
3.61278e-17
3.61266e-17
3.61254e-17
3.61243e-17
3.6123e-17
3.61382e-17
3.61377e-17
3.61371e-17
3.61363e-17
3.61354e-17
3.61345e-17
3.61335e-17
3.61324e-17
3.61313e-17
3.61301e-17
3.6129e-17
3.61277e-17
3.61267e-17
3.61253e-17
3.61407e-17
3.61402e-17
3.61396e-17
3.61389e-17
3.6138e-17
3.6137e-17
3.61359e-17
3.61348e-17
3.61337e-17
3.61325e-17
3.61314e-17
3.61301e-17
3.6129e-17
3.61275e-17
3.61433e-17
3.61428e-17
3.61421e-17
3.61414e-17
3.61405e-17
3.61395e-17
3.61385e-17
3.61374e-17
3.61363e-17
3.61351e-17
3.61339e-17
3.61326e-17
3.61313e-17
3.61299e-17
3.61156e-17
3.61147e-17
3.61139e-17
3.61129e-17
3.61117e-17
3.61105e-17
3.61092e-17
3.61078e-17
3.61065e-17
3.61051e-17
3.61037e-17
3.61023e-17
3.61008e-17
3.60991e-17
3.61168e-17
3.61158e-17
3.61151e-17
3.61139e-17
3.61128e-17
3.61115e-17
3.61101e-17
3.61088e-17
3.61074e-17
3.6106e-17
3.61046e-17
3.61032e-17
3.61018e-17
3.61003e-17
3.61177e-17
3.61167e-17
3.61159e-17
3.61147e-17
3.61136e-17
3.61123e-17
3.61111e-17
3.61097e-17
3.61084e-17
3.6107e-17
3.61056e-17
3.61042e-17
3.61028e-17
3.61013e-17
3.61187e-17
3.61177e-17
3.61168e-17
3.61156e-17
3.61145e-17
3.61132e-17
3.61119e-17
3.61106e-17
3.61092e-17
3.61078e-17
3.61064e-17
3.6105e-17
3.61036e-17
3.61022e-17
3.61195e-17
3.61186e-17
3.61177e-17
3.61166e-17
3.61154e-17
3.61141e-17
3.61129e-17
3.61115e-17
3.61101e-17
3.61086e-17
3.61072e-17
3.61057e-17
3.61043e-17
3.61029e-17
3.61204e-17
3.61195e-17
3.61186e-17
3.61175e-17
3.61163e-17
3.6115e-17
3.61137e-17
3.61123e-17
3.61109e-17
3.61094e-17
3.6108e-17
3.61064e-17
3.61049e-17
3.61034e-17
3.61213e-17
3.61205e-17
3.61195e-17
3.61184e-17
3.61172e-17
3.61159e-17
3.61146e-17
3.61132e-17
3.61117e-17
3.61102e-17
3.61087e-17
3.61071e-17
3.61056e-17
3.6104e-17
3.61223e-17
3.61215e-17
3.61205e-17
3.61194e-17
3.61182e-17
3.61168e-17
3.61154e-17
3.6114e-17
3.61125e-17
3.61109e-17
3.61094e-17
3.61078e-17
3.61062e-17
3.61046e-17
3.61234e-17
3.61226e-17
3.61215e-17
3.61204e-17
3.61191e-17
3.61177e-17
3.61163e-17
3.61148e-17
3.61132e-17
3.61117e-17
3.61101e-17
3.61084e-17
3.61068e-17
3.61051e-17
3.61246e-17
3.61237e-17
3.61226e-17
3.61214e-17
3.612e-17
3.61186e-17
3.61171e-17
3.61156e-17
3.6114e-17
3.61124e-17
3.61108e-17
3.61091e-17
3.61075e-17
3.61058e-17
3.61257e-17
3.61248e-17
3.61236e-17
3.61223e-17
3.61209e-17
3.61194e-17
3.61179e-17
3.61164e-17
3.61147e-17
3.61131e-17
3.61115e-17
3.61098e-17
3.61081e-17
3.61063e-17
3.61268e-17
3.61258e-17
3.61246e-17
3.61234e-17
3.61219e-17
3.61204e-17
3.61188e-17
3.61171e-17
3.61155e-17
3.61138e-17
3.61122e-17
3.61104e-17
3.61087e-17
3.61068e-17
3.61278e-17
3.61268e-17
3.61256e-17
3.61243e-17
3.61228e-17
3.61212e-17
3.61196e-17
3.6118e-17
3.61163e-17
3.61146e-17
3.61129e-17
3.61111e-17
3.61092e-17
3.61071e-17
3.61289e-17
3.61278e-17
3.61266e-17
3.61252e-17
3.61237e-17
3.61221e-17
3.61205e-17
3.61189e-17
3.61172e-17
3.61154e-17
3.61136e-17
3.61117e-17
3.61097e-17
3.61076e-17
3.61156e-17
3.61148e-17
3.61139e-17
3.61127e-17
3.61115e-17
3.61101e-17
3.61085e-17
3.61069e-17
3.61053e-17
3.61036e-17
3.61019e-17
3.61001e-17
3.60983e-17
3.60961e-17
3.61158e-17
3.61149e-17
3.6114e-17
3.61127e-17
3.61114e-17
3.61099e-17
3.61084e-17
3.61068e-17
3.61051e-17
3.61034e-17
3.61017e-17
3.60999e-17
3.60982e-17
3.60963e-17
3.61157e-17
3.61147e-17
3.61138e-17
3.61125e-17
3.61112e-17
3.61097e-17
3.61082e-17
3.61066e-17
3.6105e-17
3.61033e-17
3.61016e-17
3.60998e-17
3.60981e-17
3.60963e-17
3.61156e-17
3.61146e-17
3.61136e-17
3.61122e-17
3.61109e-17
3.61094e-17
3.6108e-17
3.61064e-17
3.61047e-17
3.61031e-17
3.61014e-17
3.60996e-17
3.60979e-17
3.60961e-17
3.61153e-17
3.61144e-17
3.61133e-17
3.6112e-17
3.61106e-17
3.61092e-17
3.61077e-17
3.6106e-17
3.61044e-17
3.61027e-17
3.6101e-17
3.60992e-17
3.60974e-17
3.60956e-17
3.61151e-17
3.61141e-17
3.6113e-17
3.61117e-17
3.61103e-17
3.61088e-17
3.61073e-17
3.61056e-17
3.6104e-17
3.61022e-17
3.61005e-17
3.60987e-17
3.60969e-17
3.60951e-17
3.61149e-17
3.61139e-17
3.61127e-17
3.61114e-17
3.611e-17
3.61085e-17
3.61069e-17
3.61052e-17
3.61035e-17
3.61017e-17
3.61e-17
3.60981e-17
3.60963e-17
3.60944e-17
3.61148e-17
3.61137e-17
3.61125e-17
3.61111e-17
3.61096e-17
3.6108e-17
3.61064e-17
3.61047e-17
3.6103e-17
3.61012e-17
3.60994e-17
3.60975e-17
3.60957e-17
3.60938e-17
3.61147e-17
3.61135e-17
3.61122e-17
3.61108e-17
3.61092e-17
3.61076e-17
3.61059e-17
3.61042e-17
3.61024e-17
3.61006e-17
3.60987e-17
3.60968e-17
3.60949e-17
3.60931e-17
3.61145e-17
3.61133e-17
3.61119e-17
3.61104e-17
3.61088e-17
3.61071e-17
3.61054e-17
3.61036e-17
3.61018e-17
3.60999e-17
3.6098e-17
3.60962e-17
3.60942e-17
3.60923e-17
3.61144e-17
3.61131e-17
3.61116e-17
3.61101e-17
3.61084e-17
3.61066e-17
3.61048e-17
3.6103e-17
3.61011e-17
3.60992e-17
3.60973e-17
3.60954e-17
3.60934e-17
3.60915e-17
3.61142e-17
3.61128e-17
3.61112e-17
3.61096e-17
3.61079e-17
3.61061e-17
3.61042e-17
3.61024e-17
3.61004e-17
3.60985e-17
3.60965e-17
3.60946e-17
3.60925e-17
3.60906e-17
3.61138e-17
3.61123e-17
3.61108e-17
3.61091e-17
3.61073e-17
3.61055e-17
3.61036e-17
3.61017e-17
3.60997e-17
3.60977e-17
3.60957e-17
3.60937e-17
3.60915e-17
3.60894e-17
3.61134e-17
3.61119e-17
3.61103e-17
3.61086e-17
3.61068e-17
3.61049e-17
3.6103e-17
3.6101e-17
3.60991e-17
3.60971e-17
3.6095e-17
3.60929e-17
3.60906e-17
3.60885e-17
3.61119e-17
3.6111e-17
3.61101e-17
3.61088e-17
3.61075e-17
3.6106e-17
3.61043e-17
3.61026e-17
3.61008e-17
3.60989e-17
3.6097e-17
3.60949e-17
3.60929e-17
3.60905e-17
3.6111e-17
3.611e-17
3.61091e-17
3.61077e-17
3.61063e-17
3.61048e-17
3.61031e-17
3.61014e-17
3.60996e-17
3.60977e-17
3.60958e-17
3.60938e-17
3.60919e-17
3.60897e-17
3.61098e-17
3.61089e-17
3.61078e-17
3.61064e-17
3.6105e-17
3.61035e-17
3.61019e-17
3.61002e-17
3.60984e-17
3.60965e-17
3.60947e-17
3.60927e-17
3.60908e-17
3.60887e-17
3.61086e-17
3.61076e-17
3.61065e-17
3.61051e-17
3.61037e-17
3.61022e-17
3.61006e-17
3.60989e-17
3.60971e-17
3.60952e-17
3.60934e-17
3.60914e-17
3.60895e-17
3.60876e-17
3.61073e-17
3.61063e-17
3.61051e-17
3.61038e-17
3.61023e-17
3.61008e-17
3.60992e-17
3.60975e-17
3.60957e-17
3.60938e-17
3.6092e-17
3.609e-17
3.60881e-17
3.60862e-17
3.6106e-17
3.61049e-17
3.61037e-17
3.61024e-17
3.61009e-17
3.60993e-17
3.60977e-17
3.6096e-17
3.60942e-17
3.60923e-17
3.60905e-17
3.60885e-17
3.60866e-17
3.60846e-17
3.61047e-17
3.61036e-17
3.61024e-17
3.6101e-17
3.60995e-17
3.60979e-17
3.60962e-17
3.60945e-17
3.60927e-17
3.60908e-17
3.60889e-17
3.6087e-17
3.6085e-17
3.6083e-17
3.61035e-17
3.61023e-17
3.61009e-17
3.60995e-17
3.60979e-17
3.60963e-17
3.60946e-17
3.60928e-17
3.6091e-17
3.60891e-17
3.60872e-17
3.60853e-17
3.60833e-17
3.60814e-17
3.61022e-17
3.61009e-17
3.60995e-17
3.6098e-17
3.60964e-17
3.60947e-17
3.6093e-17
3.60912e-17
3.60893e-17
3.60874e-17
3.60855e-17
3.60835e-17
3.60815e-17
3.60796e-17
3.61009e-17
3.60995e-17
3.6098e-17
3.60965e-17
3.60948e-17
3.60931e-17
3.60913e-17
3.60894e-17
3.60875e-17
3.60856e-17
3.60837e-17
3.60817e-17
3.60796e-17
3.60778e-17
3.60997e-17
3.60981e-17
3.60965e-17
3.60949e-17
3.60932e-17
3.60914e-17
3.60895e-17
3.60876e-17
3.60857e-17
3.60837e-17
3.60817e-17
3.60797e-17
3.60777e-17
3.60759e-17
3.60981e-17
3.60965e-17
3.60949e-17
3.60932e-17
3.60914e-17
3.60896e-17
3.60877e-17
3.60858e-17
3.60838e-17
3.60818e-17
3.60798e-17
3.60778e-17
3.60757e-17
3.60739e-17
3.60966e-17
3.60949e-17
3.60933e-17
3.60915e-17
3.60897e-17
3.60878e-17
3.60858e-17
3.60838e-17
3.60818e-17
3.60797e-17
3.60776e-17
3.60756e-17
3.60734e-17
3.60715e-17
3.60948e-17
3.60931e-17
3.60914e-17
3.60896e-17
3.60878e-17
3.60859e-17
3.60839e-17
3.60819e-17
3.60799e-17
3.60779e-17
3.60757e-17
3.60736e-17
3.60714e-17
3.60694e-17
3.6101e-17
3.61002e-17
3.60992e-17
3.6098e-17
3.60967e-17
3.60953e-17
3.60938e-17
3.60922e-17
3.60904e-17
3.60886e-17
3.60867e-17
3.60847e-17
3.60827e-17
3.60803e-17
3.60992e-17
3.60983e-17
3.60973e-17
3.6096e-17
3.60947e-17
3.60933e-17
3.60917e-17
3.60901e-17
3.60883e-17
3.60865e-17
3.60846e-17
3.60827e-17
3.60807e-17
3.60786e-17
3.60971e-17
3.60963e-17
3.60951e-17
3.60939e-17
3.60926e-17
3.60912e-17
3.60897e-17
3.6088e-17
3.60863e-17
3.60845e-17
3.60827e-17
3.60808e-17
3.60789e-17
3.60769e-17
3.60951e-17
3.60942e-17
3.6093e-17
3.60918e-17
3.60904e-17
3.6089e-17
3.60875e-17
3.60859e-17
3.60841e-17
3.60824e-17
3.60805e-17
3.60786e-17
3.60768e-17
3.60749e-17
3.6093e-17
3.6092e-17
3.60908e-17
3.60896e-17
3.60882e-17
3.60868e-17
3.60853e-17
3.60836e-17
3.60819e-17
3.60802e-17
3.60784e-17
3.60765e-17
3.60747e-17
3.60728e-17
3.60909e-17
3.60898e-17
3.60886e-17
3.60873e-17
3.6086e-17
3.60845e-17
3.6083e-17
3.60813e-17
3.60796e-17
3.60779e-17
3.60761e-17
3.60742e-17
3.60724e-17
3.60705e-17
3.60888e-17
3.60877e-17
3.60864e-17
3.60851e-17
3.60837e-17
3.60822e-17
3.60806e-17
3.6079e-17
3.60773e-17
3.60755e-17
3.60738e-17
3.60719e-17
3.60701e-17
3.60682e-17
3.60866e-17
3.60854e-17
3.60841e-17
3.60827e-17
3.60813e-17
3.60798e-17
3.60782e-17
3.60765e-17
3.60748e-17
3.60731e-17
3.60713e-17
3.60695e-17
3.60676e-17
3.60658e-17
3.60844e-17
3.60831e-17
3.60818e-17
3.60804e-17
3.60789e-17
3.60773e-17
3.60757e-17
3.6074e-17
3.60723e-17
3.60706e-17
3.60688e-17
3.6067e-17
3.60651e-17
3.60634e-17
3.60822e-17
3.60808e-17
3.60794e-17
3.60779e-17
3.60764e-17
3.60748e-17
3.60732e-17
3.60715e-17
3.60697e-17
3.6068e-17
3.60661e-17
3.60643e-17
3.60625e-17
3.60608e-17
3.608e-17
3.60784e-17
3.6077e-17
3.60754e-17
3.60739e-17
3.60722e-17
3.60706e-17
3.60688e-17
3.60671e-17
3.60653e-17
3.60634e-17
3.60616e-17
3.60597e-17
3.60582e-17
3.60775e-17
3.60759e-17
3.60744e-17
3.60728e-17
3.60712e-17
3.60695e-17
3.60679e-17
3.60661e-17
3.60643e-17
3.60626e-17
3.60607e-17
3.60589e-17
3.6057e-17
3.60555e-17
3.60751e-17
3.60734e-17
3.60719e-17
3.60703e-17
3.60686e-17
3.60669e-17
3.60651e-17
3.60633e-17
3.60615e-17
3.60596e-17
3.60577e-17
3.6056e-17
3.60541e-17
3.60526e-17
3.60722e-17
3.60706e-17
3.6069e-17
3.60674e-17
3.60657e-17
3.60641e-17
3.60623e-17
3.60606e-17
3.60588e-17
3.60569e-17
3.60551e-17
3.60532e-17
3.60513e-17
3.60497e-17
3.60814e-17
3.60806e-17
3.60797e-17
3.60787e-17
3.60777e-17
3.60766e-17
3.60754e-17
3.60742e-17
3.60728e-17
3.60714e-17
3.60699e-17
3.60683e-17
3.60667e-17
3.60647e-17
3.6079e-17
3.60783e-17
3.60773e-17
3.60763e-17
3.60752e-17
3.60741e-17
3.60729e-17
3.60716e-17
3.60702e-17
3.60688e-17
3.60673e-17
3.60657e-17
3.60641e-17
3.60623e-17
3.60765e-17
3.60758e-17
3.60748e-17
3.60737e-17
3.60727e-17
3.60715e-17
3.60703e-17
3.60691e-17
3.60677e-17
3.60663e-17
3.60648e-17
3.60633e-17
3.60618e-17
3.60601e-17
3.6074e-17
3.60733e-17
3.60722e-17
3.60712e-17
3.60701e-17
3.60689e-17
3.60677e-17
3.60664e-17
3.60651e-17
3.60636e-17
3.60622e-17
3.60607e-17
3.60591e-17
3.60576e-17
3.60715e-17
3.60707e-17
3.60696e-17
3.60686e-17
3.60674e-17
3.60663e-17
3.60651e-17
3.60638e-17
3.60624e-17
3.6061e-17
3.60596e-17
3.60581e-17
3.60566e-17
3.60551e-17
3.6069e-17
3.6068e-17
3.6067e-17
3.60659e-17
3.60648e-17
3.60636e-17
3.60623e-17
3.6061e-17
3.60597e-17
3.60583e-17
3.60569e-17
3.60554e-17
3.60539e-17
3.60524e-17
3.60664e-17
3.60654e-17
3.60643e-17
3.60632e-17
3.60621e-17
3.60608e-17
3.60596e-17
3.60583e-17
3.60569e-17
3.60556e-17
3.60542e-17
3.60527e-17
3.60513e-17
3.60498e-17
3.60637e-17
3.60626e-17
3.60616e-17
3.60604e-17
3.60593e-17
3.6058e-17
3.60568e-17
3.60555e-17
3.60541e-17
3.60527e-17
3.60513e-17
3.60499e-17
3.60485e-17
3.60471e-17
3.6061e-17
3.60599e-17
3.60588e-17
3.60576e-17
3.60564e-17
3.60552e-17
3.60539e-17
3.60526e-17
3.60512e-17
3.60499e-17
3.60485e-17
3.60471e-17
3.60457e-17
3.60444e-17
3.60582e-17
3.6057e-17
3.60559e-17
3.60547e-17
3.60535e-17
3.60523e-17
3.6051e-17
3.60497e-17
3.60483e-17
3.6047e-17
3.60456e-17
3.60442e-17
3.60428e-17
3.60416e-17
3.60555e-17
3.60542e-17
3.60531e-17
3.60518e-17
3.60506e-17
3.60493e-17
3.6048e-17
3.60467e-17
3.60453e-17
3.6044e-17
3.60426e-17
3.60413e-17
3.60399e-17
3.60389e-17
3.60525e-17
3.60512e-17
3.605e-17
3.60488e-17
3.60476e-17
3.60463e-17
3.6045e-17
3.60437e-17
3.60423e-17
3.6041e-17
3.60396e-17
3.60383e-17
3.6037e-17
3.6036e-17
3.60497e-17
3.60484e-17
3.60472e-17
3.60459e-17
3.60446e-17
3.60433e-17
3.60419e-17
3.60406e-17
3.60392e-17
3.60379e-17
3.60365e-17
3.60353e-17
3.6034e-17
3.60331e-17
3.60464e-17
3.60452e-17
3.60439e-17
3.60427e-17
3.60414e-17
3.60402e-17
3.60389e-17
3.60376e-17
3.60363e-17
3.6035e-17
3.60336e-17
3.60323e-17
3.6031e-17
3.60301e-17
3.60538e-17
3.60532e-17
3.60525e-17
3.60518e-17
3.60512e-17
3.60506e-17
3.60499e-17
3.60492e-17
3.60485e-17
3.60477e-17
3.60468e-17
3.60459e-17
3.6045e-17
3.6044e-17
3.60513e-17
3.60509e-17
3.60501e-17
3.60494e-17
3.60488e-17
3.60481e-17
3.60474e-17
3.60466e-17
3.60458e-17
3.6045e-17
3.60441e-17
3.60432e-17
3.60423e-17
3.60412e-17
3.60488e-17
3.60484e-17
3.60476e-17
3.60469e-17
3.60462e-17
3.60455e-17
3.60448e-17
3.6044e-17
3.60433e-17
3.60424e-17
3.60416e-17
3.60407e-17
3.60398e-17
3.60388e-17
3.60464e-17
3.60458e-17
3.60451e-17
3.60444e-17
3.60437e-17
3.6043e-17
3.60422e-17
3.60414e-17
3.60406e-17
3.60398e-17
3.60389e-17
3.60381e-17
3.60372e-17
3.60362e-17
3.60439e-17
3.60433e-17
3.60425e-17
3.60418e-17
3.60411e-17
3.60404e-17
3.60396e-17
3.60388e-17
3.6038e-17
3.60372e-17
3.60364e-17
3.60355e-17
3.60347e-17
3.60337e-17
3.60413e-17
3.60407e-17
3.60399e-17
3.60392e-17
3.60385e-17
3.60377e-17
3.6037e-17
3.60362e-17
3.60354e-17
3.60346e-17
3.60337e-17
3.60329e-17
3.60321e-17
3.60312e-17
3.60388e-17
3.6038e-17
3.60373e-17
3.60366e-17
3.60358e-17
3.60351e-17
3.60343e-17
3.60335e-17
3.60327e-17
3.60319e-17
3.60311e-17
3.60303e-17
3.60295e-17
3.60287e-17
3.60361e-17
3.60353e-17
3.60346e-17
3.60338e-17
3.60331e-17
3.60324e-17
3.60316e-17
3.60308e-17
3.603e-17
3.60293e-17
3.60285e-17
3.60277e-17
3.60269e-17
3.60261e-17
3.60334e-17
3.60326e-17
3.60319e-17
3.60311e-17
3.60304e-17
3.60296e-17
3.60289e-17
3.60281e-17
3.60273e-17
3.60266e-17
3.60258e-17
3.60251e-17
3.60243e-17
3.60236e-17
3.60307e-17
3.60298e-17
3.60291e-17
3.60283e-17
3.60276e-17
3.60269e-17
3.60261e-17
3.60254e-17
3.60246e-17
3.60239e-17
3.60231e-17
3.60224e-17
3.60217e-17
3.60211e-17
3.6028e-17
3.60271e-17
3.60263e-17
3.60256e-17
3.60249e-17
3.60241e-17
3.60234e-17
3.60227e-17
3.60219e-17
3.60212e-17
3.60205e-17
3.60198e-17
3.60191e-17
3.60187e-17
3.60251e-17
3.60242e-17
3.60235e-17
3.60228e-17
3.60221e-17
3.60214e-17
3.60206e-17
3.60199e-17
3.60192e-17
3.60185e-17
3.60178e-17
3.60172e-17
3.60165e-17
3.60162e-17
3.60225e-17
3.60216e-17
3.60209e-17
3.60201e-17
3.60194e-17
3.60186e-17
3.60179e-17
3.60172e-17
3.60165e-17
3.60158e-17
3.60151e-17
3.60146e-17
3.60141e-17
3.60139e-17
3.60195e-17
3.60187e-17
3.6018e-17
3.60172e-17
3.60165e-17
3.60158e-17
3.60152e-17
3.60145e-17
3.60139e-17
3.60132e-17
3.60126e-17
3.6012e-17
3.60115e-17
3.60114e-17
3.60206e-17
3.60203e-17
3.60199e-17
3.60197e-17
3.60195e-17
3.60194e-17
3.60192e-17
3.60191e-17
3.6019e-17
3.60189e-17
3.60189e-17
3.60188e-17
3.60187e-17
3.60186e-17
3.60185e-17
3.60183e-17
3.6018e-17
3.60177e-17
3.60175e-17
3.60173e-17
3.60171e-17
3.6017e-17
3.60168e-17
3.60167e-17
3.60166e-17
3.60164e-17
3.60163e-17
3.60161e-17
3.60163e-17
3.60162e-17
3.60159e-17
3.60156e-17
3.60154e-17
3.60152e-17
3.6015e-17
3.60148e-17
3.60147e-17
3.60145e-17
3.60144e-17
3.60142e-17
3.60142e-17
3.60139e-17
3.60142e-17
3.60141e-17
3.60138e-17
3.60136e-17
3.60133e-17
3.60131e-17
3.60129e-17
3.60127e-17
3.60125e-17
3.60124e-17
3.60122e-17
3.60121e-17
3.6012e-17
3.60117e-17
3.60122e-17
3.6012e-17
3.60117e-17
3.60115e-17
3.60112e-17
3.6011e-17
3.60108e-17
3.60106e-17
3.60104e-17
3.60103e-17
3.60101e-17
3.601e-17
3.60098e-17
3.60096e-17
3.60101e-17
3.60098e-17
3.60096e-17
3.60093e-17
3.60091e-17
3.60088e-17
3.60086e-17
3.60085e-17
3.60083e-17
3.60081e-17
3.6008e-17
3.60079e-17
3.60077e-17
3.60076e-17
3.6008e-17
3.60077e-17
3.60074e-17
3.60072e-17
3.60069e-17
3.60067e-17
3.60065e-17
3.60064e-17
3.60062e-17
3.60061e-17
3.60059e-17
3.60058e-17
3.60057e-17
3.60056e-17
3.60059e-17
3.60055e-17
3.60052e-17
3.6005e-17
3.60048e-17
3.60046e-17
3.60044e-17
3.60043e-17
3.60041e-17
3.6004e-17
3.60039e-17
3.60038e-17
3.60037e-17
3.60036e-17
3.60037e-17
3.60033e-17
3.60031e-17
3.60028e-17
3.60026e-17
3.60025e-17
3.60023e-17
3.60022e-17
3.6002e-17
3.60019e-17
3.60019e-17
3.60018e-17
3.60017e-17
3.60018e-17
3.60015e-17
3.60011e-17
3.60009e-17
3.60007e-17
3.60005e-17
3.60003e-17
3.60002e-17
3.60001e-17
3.6e-17
3.59999e-17
3.59999e-17
3.59999e-17
3.59998e-17
3.59999e-17
3.59995e-17
3.5999e-17
3.59988e-17
3.59986e-17
3.59984e-17
3.59983e-17
3.59981e-17
3.5998e-17
3.5998e-17
3.59979e-17
3.59979e-17
3.5998e-17
3.5998e-17
3.59982e-17
3.59974e-17
3.59969e-17
3.59967e-17
3.59965e-17
3.59963e-17
3.59962e-17
3.59961e-17
3.5996e-17
3.5996e-17
3.5996e-17
3.5996e-17
3.59961e-17
3.59961e-17
3.59964e-17
3.59954e-17
3.59949e-17
3.59947e-17
3.59945e-17
3.59943e-17
3.59942e-17
3.59941e-17
3.59941e-17
3.5994e-17
3.59941e-17
3.59942e-17
3.59943e-17
3.59945e-17
3.59948e-17
3.59932e-17
3.59928e-17
3.59926e-17
3.59924e-17
3.59923e-17
3.59922e-17
3.59922e-17
3.59922e-17
3.59922e-17
3.59923e-17
3.59924e-17
3.59925e-17
3.59927e-17
3.5993e-17
3.59843e-17
3.59843e-17
3.59844e-17
3.59845e-17
3.59848e-17
3.59851e-17
3.59854e-17
3.59858e-17
3.59862e-17
3.59867e-17
3.59873e-17
3.59878e-17
3.59885e-17
3.59891e-17
3.59828e-17
3.59829e-17
3.5983e-17
3.59832e-17
3.59834e-17
3.59837e-17
3.5984e-17
3.59844e-17
3.59848e-17
3.59853e-17
3.59858e-17
3.59863e-17
3.59869e-17
3.59873e-17
3.59814e-17
3.59816e-17
3.59816e-17
3.59818e-17
3.59821e-17
3.59824e-17
3.59827e-17
3.5983e-17
3.59834e-17
3.59839e-17
3.59844e-17
3.59848e-17
3.59854e-17
3.59858e-17
3.598e-17
3.59802e-17
3.59803e-17
3.59805e-17
3.59807e-17
3.5981e-17
3.59813e-17
3.59817e-17
3.59821e-17
3.59825e-17
3.5983e-17
3.59834e-17
3.5984e-17
3.59844e-17
3.59787e-17
3.59788e-17
3.59789e-17
3.59792e-17
3.59794e-17
3.59797e-17
3.598e-17
3.59803e-17
3.59807e-17
3.59811e-17
3.59816e-17
3.59821e-17
3.59826e-17
3.5983e-17
3.59774e-17
3.59775e-17
3.59776e-17
3.59778e-17
3.59781e-17
3.59783e-17
3.59786e-17
3.5979e-17
3.59794e-17
3.59798e-17
3.59803e-17
3.59808e-17
3.59813e-17
3.59817e-17
3.5976e-17
3.59761e-17
3.59763e-17
3.59765e-17
3.59767e-17
3.5977e-17
3.59773e-17
3.59777e-17
3.59781e-17
3.59785e-17
3.5979e-17
3.59795e-17
3.598e-17
3.59805e-17
3.59747e-17
3.59748e-17
3.5975e-17
3.59752e-17
3.59754e-17
3.59757e-17
3.59761e-17
3.59764e-17
3.59769e-17
3.59773e-17
3.59778e-17
3.59783e-17
3.59788e-17
3.59794e-17
3.59734e-17
3.59735e-17
3.59737e-17
3.59739e-17
3.59742e-17
3.59745e-17
3.59748e-17
3.59752e-17
3.59757e-17
3.59761e-17
3.59766e-17
3.59772e-17
3.59777e-17
3.59783e-17
3.59721e-17
3.59722e-17
3.59724e-17
3.59727e-17
3.59729e-17
3.59733e-17
3.59736e-17
3.5974e-17
3.59745e-17
3.5975e-17
3.59755e-17
3.59761e-17
3.59766e-17
3.59773e-17
3.59709e-17
3.5971e-17
3.59712e-17
3.59715e-17
3.59718e-17
3.59721e-17
3.59725e-17
3.59729e-17
3.59734e-17
3.59739e-17
3.59745e-17
3.59751e-17
3.59756e-17
3.59763e-17
3.59698e-17
3.59698e-17
3.59701e-17
3.59703e-17
3.59706e-17
3.5971e-17
3.59714e-17
3.59719e-17
3.59724e-17
3.59729e-17
3.59735e-17
3.59741e-17
3.59747e-17
3.59754e-17
3.59687e-17
3.59687e-17
3.5969e-17
3.59693e-17
3.59696e-17
3.597e-17
3.59704e-17
3.59709e-17
3.59714e-17
3.5972e-17
3.59726e-17
3.59732e-17
3.59739e-17
3.59747e-17
3.59676e-17
3.59676e-17
3.59679e-17
3.59682e-17
3.59686e-17
3.5969e-17