/*--------------------------------*- C++ -*----------------------------------*\
| =========                 |                                                 |
| \\      /  F ield         | OpenFOAM: The Open Source CFD Toolbox           |
|  \\    /   O peration     | Version:  v2106                                 |
|   \\  /    A nd           | Website:  www.openfoam.com                      |
|    \\/     M anipulation  |                                                 |
\*---------------------------------------------------------------------------*/
FoamFile
{
    version     2.0;
    format      ascii;
    arch        "LSB;label=32;scalar=64";
    class       volScalarField;
    location    "0.000203";
    object      p;
}
// * * * * * * * * * * * * * * * * * * * * * * * * * * * * * * * * * * * * * //

dimensions      [1 -1 -2 0 0 0 0];

internalField   nonuniform List<scalar> 
17920
(
236438
236405
236418
236385
236399
236366
236378
236345
236356
236323
236332
236299
236307
236273
236280
236245
236251
236217
236221
236188
236189
236157
236158
236126
236125
236092
236096
236062
236471
236449
236426
236404
236379
236354
236326
236298
236268
236236
236205
236171
236141
236106
236436
236418
236396
236374
236350
236324
236296
236267
236237
236205
236173
236140
236109
236075
236402
236386
236363
236341
236317
236291
236264
236235
236206
236174
236143
236109
236078
236045
236367
236351
236329
236307
236283
236257
236230
236201
236171
236140
236108
236075
236044
236011
236332
236316
236294
236272
236247
236221
236194
236165
236136
236105
236073
236041
236010
235977
236295
236278
236256
236234
236210
236184
236156
236128
236098
236067
236035
236003
235972
235939
236258
236240
236218
236196
236171
236145
236117
236088
236058
236027
235996
235964
235932
235900
236219
236200
236178
236155
236130
236104
236076
236047
236017
235986
235954
235922
235890
235859
236180
236159
236137
236113
236088
236062
236033
236004
235974
235943
235911
235879
235847
235817
236139
236116
236094
236070
236044
236017
235989
235960
235929
235898
235866
235835
235802
235773
236100
236074
236052
236026
236000
235973
235944
235914
235883
235852
235819
235788
235755
235729
236057
236029
236006
235980
235953
235926
235897
235867
235836
235805
235773
235742
235709
235683
236017
235986
235962
235936
235908
235880
235850
235819
235787
235756
235723
235692
235660
235635
235970
235940
235914
235887
235859
235831
235801
235771
235740
235709
235678
235647
235615
235590
235929
235916
235901
235886
235869
235850
235829
235807
235783
235758
235731
235704
235678
235648
235885
235876
235861
235847
235830
235811
235791
235768
235744
235718
235692
235664
235639
235610
235844
235836
235820
235805
235788
235770
235749
235727
235704
235679
235654
235627
235602
235574
235801
235792
235777
235762
235745
235727
235707
235685
235661
235637
235612
235586
235561
235534
235758
235749
235733
235718
235701
235682
235662
235640
235617
235594
235569
235544
235520
235494
235713
235703
235688
235672
235655
235636
235616
235594
235572
235548
235525
235500
235476
235451
235669
235657
235641
235625
235608
235589
235568
235547
235525
235502
235479
235455
235431
235407
235622
235609
235594
235577
235559
235540
235520
235499
235477
235454
235431
235408
235384
235361
235576
235561
235545
235528
235510
235491
235470
235449
235427
235405
235382
235359
235336
235315
235528
235511
235496
235478
235460
235440
235420
235399
235377
235355
235332
235310
235287
235268
235481
235462
235446
235428
235410
235390
235369
235348
235326
235304
235282
235260
235237
235221
235431
235410
235395
235377
235358
235338
235317
235296
235275
235253
235231
235210
235187
235173
235384
235363
235346
235327
235307
235287
235266
235244
235223
235201
235179
235159
235136
235124
235332
235311
235292
235274
235254
235234
235214
235193
235172
235151
235129
235109
235088
235074
235159
235158
235152
235147
235140
235131
235122
235111
235098
235085
235070
235055
235040
235023
235117
235119
235115
235109
235102
235094
235084
235073
235061
235047
235033
235018
235003
234985
235080
235082
235077
235071
235063
235055
235045
235035
235023
235010
234996
234982
234968
234951
235041
235042
235037
235031
235023
235015
235006
234995
234983
234971
234958
234943
234931
234914
235002
235001
234996
234990
234982
234974
234965
234954
234943
234931
234918
234905
234893
234877
234963
234960
234954
234948
234940
234932
234923
234913
234902
234890
234878
234865
234853
234839
234923
234918
234912
234905
234898
234889
234880
234870
234860
234849
234837
234825
234813
234800
234881
234876
234869
234862
234855
234846
234837
234828
234817
234806
234795
234784
234772
234761
234840
234833
234827
234819
234811
234803
234794
234784
234774
234764
234753
234742
234731
234722
234798
234789
234783
234775
234767
234759
234750
234740
234730
234720
234710
234700
234689
234681
234756
234746
234739
234732
234724
234715
234706
234697
234687
234677
234667
234657
234647
234642
234714
234702
234695
234688
234680
234671
234662
234653
234643
234634
234623
234614
234604
234602
234673
234660
234653
234645
234636
234628
234619
234609
234600
234590
234580
234572
234563
234563
234627
234616
234608
234601
234593
234584
234575
234566
234557
234548
234538
234529
234522
234521
234237
234242
234246
234251
234254
234258
234260
234261
234262
234261
234260
234258
234256
234253
234211
234217
234221
234226
234230
234233
234235
234236
234237
234236
234235
234233
234231
234226
234187
234193
234196
234201
234204
234207
234209
234210
234211
234210
234210
234208
234206
234202
234161
234167
234171
234175
234178
234181
234183
234184
234184
234184
234184
234182
234181
234177
234135
234141
234144
234148
234151
234154
234156
234157
234158
234158
234158
234156
234156
234152
234109
234114
234117
234121
234124
234126
234128
234130
234131
234131
234131
234130
234130
234127
234082
234086
234090
234093
234096
234099
234101
234102
234103
234104
234104
234104
234104
234102
234055
234058
234062
234065
234068
234070
234073
234074
234076
234076
234077
234077
234077
234076
234027
234030
234034
234037
234040
234042
234044
234046
234048
234049
234050
234050
234050
234051
234000
234001
234005
234008
234011
234014
234016
234018
234020
234021
234022
234023
234023
234025
233972
233973
233977
233980
233983
233985
233988
233990
233992
233993
233995
233996
233996
234000
233945
233944
233948
233951
233954
233957
233959
233962
233964
233966
233967
233969
233969
233973
233918
233916
233920
233923
233926
233929
233931
233934
233936
233938
233940
233941
233942
233948
233889
233889
233892
233896
233898
233901
233903
233906
233908
233910
233912
233914
233916
233919
233257
233268
233279
233290
233301
233311
233321
233331
233341
233350
233358
233366
233373
233380
233249
233261
233271
233282
233293
233304
233314
233324
233333
233342
233350
233358
233365
233372
233241
233253
233263
233274
233285
233295
233305
233315
233325
233334
233342
233350
233357
233363
233233
233244
233255
233266
233276
233287
233297
233306
233316
233325
233333
233341
233348
233354
233224
233235
233246
233257
233267
233278
233288
233297
233307
233315
233324
233331
233339
233344
233215
233226
233237
233247
233258
233268
233278
233288
233297
233306
233314
233322
233329
233335
233205
233216
233227
233238
233248
233259
233269
233278
233288
233296
233305
233313
233320
233326
233195
233206
233217
233228
233238
233249
233259
233268
233278
233287
233295
233303
233310
233317
233185
233195
233206
233217
233228
233238
233248
233258
233268
233277
233285
233293
233301
233308
233174
233184
233195
233206
233217
233227
233238
233248
233257
233266
233275
233283
233291
233299
233163
233173
233184
233195
233206
233216
233227
233237
233246
233256
233264
233273
233281
233289
233151
233162
233173
233184
233194
233205
233215
233226
233235
233245
233254
233262
233270
233280
233140
233150
233161
233172
233183
233194
233204
233215
233225
233234
233243
233252
233260
233270
233129
233140
233151
233162
233172
233183
233193
233203
233212
233222
233231
233240
233249
233259
232294
232306
232319
232331
232344
232357
232370
232382
232395
232408
232420
232432
232444
232456
232299
232311
232323
232336
232349
232363
232376
232389
232402
232414
232426
232438
232449
232461
232305
232317
232330
232343
232356
232369
232382
232395
232407
232420
232432
232443
232454
232465
232310
232322
232335
232348
232362
232375
232388
232401
232413
232426
232437
232449
232459
232470
232315
232328
232341
232354
232367
232380
232394
232406
232419
232431
232442
232454
232464
232474
232319
232333
232346
232359
232373
232386
232399
232412
232424
232436
232448
232459
232469
232479
232324
232337
232351
232364
232378
232391
232404
232417
232429
232441
232452
232463
232473
232483
232328
232341
232355
232368
232382
232395
232408
232421
232434
232445
232457
232468
232478
232487
232331
232345
232358
232372
232386
232399
232412
232425
232438
232449
232461
232472
232482
232491
232334
232348
232362
232376
232389
232403
232416
232429
232441
232453
232465
232475
232486
232495
232337
232351
232364
232378
232392
232406
232419
232432
232444
232456
232468
232479
232490
232499
232339
232353
232367
232381
232395
232408
232421
232435
232447
232459
232471
232482
232493
232503
232341
232355
232368
232383
232396
232410
232424
232437
232450
232462
232474
232485
232496
232507
232344
232359
232371
232386
232399
232412
232425
232438
232451
232463
232475
232487
232499
232510
231383
231392
231402
231412
231422
231433
231444
231455
231466
231477
231488
231499
231510
231522
231394
231403
231413
231423
231434
231445
231457
231468
231479
231490
231501
231512
231523
231535
231406
231415
231426
231436
231447
231458
231470
231481
231492
231503
231513
231524
231534
231546
231418
231427
231438
231449
231460
231471
231482
231494
231505
231516
231526
231537
231547
231558
231429
231439
231450
231461
231473
231484
231495
231506
231517
231528
231539
231549
231559
231570
231441
231451
231463
231474
231485
231497
231508
231519
231530
231541
231552
231562
231572
231581
231452
231463
231475
231486
231498
231509
231520
231532
231543
231553
231564
231574
231584
231593
231464
231475
231486
231498
231510
231521
231532
231544
231555
231565
231576
231586
231596
231604
231475
231487
231498
231510
231521
231533
231544
231556
231567
231577
231588
231597
231607
231615
231486
231498
231509
231521
231533
231544
231556
231567
231578
231589
231599
231609
231619
231627
231496
231508
231520
231532
231544
231555
231567
231578
231589
231600
231610
231620
231630
231638
231507
231519
231530
231543
231554
231566
231577
231589
231600
231611
231621
231631
231641
231649
231517
231529
231540
231553
231564
231576
231588
231599
231611
231622
231632
231642
231652
231661
231528
231540
231552
231564
231575
231587
231598
231609
231620
231631
231642
231652
231663
231673
230537
230542
230547
230553
230558
230564
230570
230577
230584
230591
230598
230605
230613
230622
230548
230552
230558
230564
230570
230576
230582
230589
230596
230603
230611
230619
230626
230636
230559
230563
230569
230575
230581
230588
230594
230601
230608
230615
230623
230630
230638
230647
230570
230575
230581
230587
230593
230600
230607
230614
230621
230628
230636
230643
230651
230659
230582
230587
230593
230599
230606
230612
230619
230626
230633
230641
230648
230655
230663
230671
230594
230599
230605
230612
230618
230625
230632
230639
230646
230653
230661
230668
230676
230683
230606
230612
230618
230624
230631
230638
230645
230652
230659
230666
230673
230681
230688
230695
230618
230625
230631
230637
230644
230651
230658
230665
230672
230679
230686
230693
230701
230708
230631
230638
230644
230650
230657
230664
230671
230678
230685
230692
230699
230706
230713
230720
230644
230650
230656
230663
230670
230677
230684
230691
230698
230705
230712
230719
230726
230732
230656
230663
230669
230676
230683
230690
230697
230704
230711
230718
230725
230731
230739
230744
230669
230676
230682
230689
230696
230703
230710
230717
230724
230731
230738
230744
230751
230756
230681
230688
230695
230702
230709
230716
230723
230730
230737
230744
230751
230757
230764
230769
230695
230702
230708
230715
230722
230729
230736
230743
230750
230756
230763
230770
230777
230784
229760
229761
229762
229763
229765
229766
229768
229770
229773
229776
229779
229782
229786
229791
229768
229767
229769
229770
229771
229773
229775
229777
229780
229783
229787
229791
229795
229800
229774
229774
229775
229777
229778
229780
229782
229784
229787
229790
229794
229798
229802
229808
229782
229782
229783
229784
229786
229787
229789
229792
229795
229798
229802
229806
229811
229816
229789
229789
229791
229792
229793
229795
229797
229800
229803
229806
229810
229814
229819
229824
229797
229798
229799
229800
229802
229804
229806
229808
229811
229815
229819
229823
229827
229832
229806
229807
229808
229809
229811
229812
229815
229817
229820
229824
229827
229831
229836
229841
229815
229816
229817
229818
229820
229822
229824
229826
229829
229833
229836
229840
229845
229849
229825
229826
229827
229828
229830
229832
229834
229836
229839
229842
229846
229850
229854
229858
229835
229836
229837
229838
229840
229842
229844
229846
229849
229852
229856
229859
229864
229867
229845
229847
229848
229849
229850
229852
229854
229857
229860
229863
229866
229869
229873
229876
229855
229857
229858
229860
229861
229863
229865
229868
229870
229873
229876
229879
229883
229885
229866
229868
229869
229870
229872
229874
229876
229879
229882
229884
229887
229890
229893
229895
229878
229879
229880
229881
229883
229885
229888
229890
229893
229895
229898
229901
229904
229907
229053
229051
229050
229048
229047
229046
229045
229045
229044
229044
229044
229045
229045
229046
229055
229053
229052
229050
229049
229048
229047
229047
229046
229046
229047
229047
229049
229050
229058
229056
229054
229052
229051
229050
229049
229049
229049
229049
229049
229050
229052
229053
229061
229059
229057
229055
229054
229053
229052
229051
229051
229052
229052
229053
229055
229057
229064
229062
229060
229058
229057
229056
229055
229054
229054
229055
229055
229057
229058
229060
229068
229066
229064
229062
229060
229059
229058
229058
229058
229058
229059
229060
229062
229064
229072
229070
229068
229066
229064
229063
229062
229062
229062
229062
229063
229064
229066
229068
229077
229075
229073
229071
229069
229068
229067
229066
229066
229067
229067
229069
229070
229072
229082
229080
229078
229076
229074
229073
229072
229071
229071
229071
229072
229073
229075
229076
229088
229086
229083
229081
229080
229078
229077
229077
229077
229077
229077
229078
229080
229081
229093
229091
229089
229087
229085
229084
229083
229083
229082
229082
229083
229084
229085
229086
229099
229097
229095
229093
229092
229090
229089
229089
229088
229088
229089
229089
229090
229091
229105
229104
229102
229100
229098
229097
229096
229095
229095
229095
229095
229095
229096
229096
229112
229110
229108
229106
229105
229104
229103
229102
229102
229101
229101
229101
229102
229101
228409
228408
228406
228404
228402
228401
228399
228398
228396
228394
228393
228391
228390
228388
228410
228408
228406
228404
228402
228400
228399
228397
228395
228394
228392
228391
228390
228389
228410
228408
228406
228404
228402
228400
228398
228397
228395
228394
228392
228391
228390
228389
228410
228408
228406
228404
228402
228400
228398
228397
228395
228394
228392
228391
228390
228389
228411
228409
228406
228404
228402
228400
228398
228397
228395
228394
228393
228391
228391
228390
228412
228409
228407
228405
228402
228400
228399
228397
228395
228394
228393
228392
228391
228390
228413
228410
228408
228405
228403
228401
228399
228397
228396
228395
228393
228393
228392
228391
228414
228411
228408
228406
228404
228402
228400
228398
228397
228395
228394
228393
228393
228392
228415
228412
228410
228407
228405
228403
228401
228399
228398
228396
228395
228394
228394
228393
228416
228414
228411
228409
228406
228404
228402
228400
228399
228397
228396
228395
228395
228394
228418
228415
228413
228410
228408
228406
228404
228402
228400
228399
228398
228397
228396
228395
228419
228417
228414
228412
228409
228407
228405
228403
228402
228400
228399
228398
228397
228396
228421
228419
228416
228414
228411
228409
228407
228405
228403
228402
228401
228399
228398
228397
228423
228420
228418
228415
228413
228411
228409
228407
228405
228404
228402
228401
228400
228398
227825
227824
227824
227823
227822
227821
227819
227818
227816
227815
227813
227810
227808
227805
227825
227825
227824
227823
227822
227821
227819
227818
227816
227814
227812
227810
227808
227805
227825
227825
227824
227823
227822
227820
227819
227817
227816
227814
227812
227809
227807
227804
227825
227824
227823
227822
227821
227820
227819
227817
227815
227813
227811
227809
227806
227804
227825
227824
227823
227822
227821
227819
227818
227816
227815
227813
227811
227808
227806
227803
227824
227823
227822
227821
227820
227819
227817
227816
227814
227812
227810
227808
227805
227803
227823
227822
227821
227820
227819
227818
227816
227815
227813
227811
227809
227807
227804
227802
227822
227821
227821
227819
227818
227817
227815
227814
227812
227810
227808
227806
227803
227801
227821
227820
227819
227818
227817
227816
227814
227813
227811
227809
227807
227805
227802
227800
227820
227819
227818
227817
227816
227815
227813
227811
227810
227808
227806
227804
227801
227799
227819
227818
227817
227816
227815
227813
227812
227810
227808
227806
227804
227802
227800
227798
227817
227817
227816
227814
227813
227812
227810
227808
227807
227805
227803
227801
227799
227797
227816
227815
227814
227813
227812
227810
227808
227807
227805
227803
227801
227799
227797
227795
227815
227814
227812
227811
227810
227808
227807
227805
227803
227801
227799
227797
227795
227794
227292
227293
227294
227294
227295
227295
227294
227293
227292
227291
227289
227287
227284
227281
227294
227295
227295
227296
227296
227296
227295
227295
227293
227292
227290
227287
227285
227281
227295
227296
227296
227297
227297
227297
227296
227296
227294
227292
227290
227288
227285
227281
227295
227296
227297
227298
227298
227298
227297
227296
227295
227293
227291
227288
227285
227281
227295
227296
227297
227298
227298
227298
227297
227296
227295
227293
227291
227288
227285
227281
227294
227296
227297
227297
227298
227298
227297
227296
227295
227293
227290
227288
227284
227281
227293
227295
227296
227297
227297
227297
227296
227295
227294
227292
227289
227287
227284
227280
227292
227294
227295
227295
227296
227296
227295
227294
227293
227291
227288
227286
227283
227279
227291
227292
227293
227294
227294
227294
227293
227292
227291
227289
227287
227284
227281
227278
227289
227290
227291
227292
227292
227292
227291
227290
227289
227287
227285
227282
227279
227276
227286
227287
227288
227289
227289
227289
227289
227288
227286
227284
227282
227280
227277
227274
227284
227285
227286
227286
227287
227286
227286
227285
227283
227282
227280
227277
227274
227272
227281
227282
227283
227283
227283
227283
227282
227281
227280
227278
227276
227274
227272
227269
227278
227279
227279
227280
227280
227280
227279
227278
227276
227275
227273
227271
227268
227266
226804
226806
226808
226810
226811
226812
226812
226812
226811
226810
226809
226806
226804
226800
226806
226809
226811
226812
226814
226814
226815
226815
226814
226813
226811
226808
226806
226802
226808
226811
226813
226815
226816
226817
226817
226817
226816
226815
226813
226810
226807
226804
226810
226812
226815
226816
226818
226818
226819
226818
226818
226816
226814
226812
226809
226805
226810
226813
226816
226817
226819
226820
226820
226820
226819
226817
226815
226813
226809
226806
226811
226814
226816
226818
226819
226820
226821
226820
226819
226818
226816
226813
226810
226806
226811
226814
226816
226818
226819
226820
226821
226820
226819
226818
226816
226813
226810
226806
226810
226813
226815
226817
226819
226820
226820
226820
226819
226817
226815
226812
226809
226806
226809
226811
226814
226816
226817
226818
226819
226818
226817
226816
226814
226811
226808
226805
226807
226810
226812
226814
226816
226816
226817
226816
226815
226814
226812
226810
226807
226803
226805
226807
226810
226812
226813
226814
226814
226814
226813
226812
226810
226807
226804
226801
226802
226804
226807
226809
226810
226811
226811
226811
226810
226809
226807
226804
226802
226799
226799
226801
226804
226805
226807
226807
226808
226807
226806
226805
226803
226801
226799
226796
226795
226798
226800
226802
226803
226803
226804
226803
226802
226801
226799
226797
226795
226792
226352
226355
226358
226360
226362
226363
226363
226364
226363
226362
226361
226359
226357
226354
226355
226358
226361
226363
226365
226366
226367
226367
226367
226366
226364
226362
226360
226357
226358
226361
226364
226366
226368
226369
226370
226370
226370
226369
226367
226365
226362
226359
226360
226363
226366
226368
226370
226371
226372
226372
226372
226371
226369
226367
226364
226361
226361
226365
226368
226370
226372
226373
226374
226374
226374
226373
226371
226369
226366
226363
226362
226366
226369
226371
226373
226374
226375
226375
226375
226374
226372
226370
226367
226364
226363
226366
226370
226372
226374
226375
226376
226376
226375
226374
226373
226370
226368
226364
226363
226366
226369
226372
226374
226375
226376
226376
226375
226374
226373
226371
226368
226364
226362
226366
226369
226371
226373
226374
226375
226375
226375
226374
226372
226370
226367
226364
226361
226365
226368
226370
226372
226373
226374
226374
226374
226373
226371
226369
226366
226363
226359
226363
226366
226368
226370
226371
226372
226372
226372
226371
226369
226367
226364
226361
226357
226360
226363
226366
226368
226369
226370
226370
226369
226368
226367
226365
226362
226359
226354
226358
226360
226363
226365
226366
226367
226367
226366
226365
226364
226362
226359
226357
226351
226355
226357
226360
226361
226362
226363
226363
226363
226362
226360
226359
226356
226354
225931
225934
225936
225938
225940
225941
225941
225942
225941
225941
225940
225938
225936
225934
225934
225936
225939
225941
225943
225944
225945
225945
225945
225944
225943
225941
225939
225937
225936
225939
225942
225944
225945
225947
225947
225948
225947
225947
225946
225944
225942
225940
225938
225941
225944
225946
225948
225949
225950
225950
225950
225949
225948
225946
225944
225942
225940
225943
225946
225948
225950
225951
225952
225952
225952
225951
225950
225948
225946
225943
225941
225944
225947
225949
225951
225952
225953
225953
225953
225952
225951
225949
225947
225944
225942
225945
225948
225950
225952
225953
225954
225954
225954
225953
225952
225950
225948
225945
225942
225945
225948
225950
225952
225953
225954
225954
225954
225953
225952
225950
225948
225945
225942
225945
225948
225950
225952
225953
225954
225954
225954
225953
225952
225950
225948
225945
225941
225944
225947
225949
225951
225952
225953
225954
225953
225953
225951
225950
225947
225945
225940
225943
225946
225948
225950
225951
225952
225952
225952
225951
225950
225948
225946
225944
225939
225942
225944
225946
225948
225949
225950
225951
225950
225950
225949
225947
225945
225942
225937
225939
225942
225944
225946
225947
225948
225948
225948
225948
225946
225945
225943
225940
225934
225937
225939
225942
225943
225944
225945
225946
225946
225945
225944
225942
225940
225938
225534
225536
225538
225540
225541
225541
225542
225542
225541
225541
225540
225539
225538
225536
225536
225538
225540
225541
225543
225543
225544
225544
225544
225543
225543
225541
225540
225539
225538
225540
225542
225543
225544
225545
225546
225546
225546
225545
225545
225544
225542
225541
225539
225541
225543
225545
225546
225547
225547
225547
225547
225547
225546
225545
225544
225542
225540
225543
225544
225546
225547
225548
225549
225549
225549
225548
225547
225546
225545
225543
225541
225544
225545
225547
225548
225549
225550
225550
225550
225549
225548
225547
225546
225544
225542
225544
225546
225548
225549
225550
225550
225550
225550
225550
225549
225548
225546
225545
225542
225545
225546
225548
225549
225550
225551
225551
225551
225550
225549
225548
225547
225545
225543
225545
225546
225548
225549
225550
225550
225551
225551
225550
225549
225548
225547
225545
225542
225544
225546
225547
225549
225550
225550
225550
225550
225550
225549
225548
225546
225544
225542
225544
225545
225547
225548
225549
225549
225550
225550
225549
225548
225547
225546
225544
225541
225542
225544
225546
225547
225548
225548
225549
225549
225548
225548
225546
225545
225543
225539
225541
225543
225544
225545
225546
225547
225547
225547
225547
225546
225545
225544
225542
225537
225539
225541
225542
225544
225545
225545
225546
225546
225546
225545
225544
225542
225540
225160
225161
225162
225162
225162
225163
225163
225163
225162
225162
225162
225161
225161
225160
225160
225161
225162
225163
225163
225163
225164
225163
225163
225163
225163
225162
225162
225162
225161
225162
225163
225163
225164
225164
225164
225164
225164
225164
225163
225163
225163
225162
225162
225162
225163
225164
225164
225164
225165
225165
225165
225164
225164
225164
225163
225163
225162
225163
225164
225164
225165
225165
225165
225165
225165
225165
225165
225164
225164
225163
225162
225163
225164
225164
225165
225165
225165
225165
225165
225165
225165
225165
225164
225164
225163
225164
225164
225165
225165
225165
225166
225166
225166
225165
225165
225165
225164
225164
225163
225164
225164
225165
225165
225165
225166
225166
225166
225165
225165
225165
225164
225164
225163
225164
225164
225165
225165
225165
225166
225166
225166
225165
225165
225165
225164
225163
225163
225163
225164
225165
225165
225165
225165
225166
225166
225165
225165
225165
225164
225163
225163
225163
225164
225164
225165
225165
225165
225165
225165
225165
225165
225164
225164
225163
225162
225163
225163
225164
225164
225165
225165
225165
225165
225165
225165
225164
225163
225162
225162
225162
225163
225163
225164
225164
225164
225165
225165
225165
225164
225164
225163
225162
225160
225161
225162
225162
225163
225163
225164
225164
225164
225164
225164
225163
225163
225161
236445
236436
236430
236423
236416
236410
236411
236397
236390
236381
236374
236367
236501
236532
236557
236583
236606
236629
236479
236516
236547
236579
236607
236635
236462
236501
236536
236571
236603
236633
236440
236482
236518
236555
236587
236618
236416
236458
236495
236531
236562
236591
236389
236430
236466
236499
236528
236554
236361
236398
236431
236460
236485
236507
236330
236362
236391
236415
236436
236453
236298
236324
236347
236366
236382
236394
236264
236283
236301
236314
236325
236332
236230
236241
236254
236261
236266
236269
236194
236198
236205
236207
236208
236208
236160
236157
236158
236156
236153
236148
236122
236112
236108
236102
236096
236089
235966
235997
236024
236049
236071
236093
235952
235991
236025
236059
236090
236119
235943
235989
236028
236068
236103
236137
235930
235980
236024
236066
236105
236141
235914
235966
236012
236056
236096
236133
235896
235947
235993
236037
236076
236112
235874
235923
235968
236009
236046
236079
235850
235895
235937
235973
236007
236036
235824
235863
235900
235932
235960
235984
235796
235828
235860
235885
235908
235927
235766
235790
235815
235835
235851
235864
235735
235751
235769
235782
235793
235800
235704
235711
235722
235728
235732
235734
235673
235670
235673
235673
235672
235670
235193
235216
235237
235256
235273
235289
235189
235220
235249
235276
235300
235322
235189
235227
235262
235294
235323
235350
235187
235229
235268
235305
235339
235369
235182
235228
235270
235310
235347
235380
235175
235222
235266
235307
235345
235380
235165
235213
235257
235298
235336
235371
235153
235199
235242
235282
235319
235351
235139
235182
235222
235259
235293
235323
235124
235162
235198
235230
235260
235286
235106
235138
235169
235196
235220
235242
235087
235112
235136
235157
235176
235192
235066
235084
235101
235115
235127
235137
235048
235056
235065
235072
235077
235081
234256
234265
234276
234285
234293
234300
234262
234277
234292
234306
234317
234327
234270
234289
234308
234325
234340
234352
234276
234300
234322
234342
234360
234375
234281
234308
234333
234357
234377
234396
234286
234315
234343
234369
234392
234413
234289
234320
234350
234377
234403
234426
234291
234323
234354
234382
234409
234433
234291
234323
234353
234382
234409
234433
234289
234320
234349
234377
234403
234426
234286
234314
234340
234366
234389
234411
234282
234306
234328
234350
234370
234388
234276
234295
234312
234329
234344
234358
234273
234285
234296
234307
234316
234325
233259
233256
233254
233252
233249
233246
233271
233270
233268
233266
233264
233261
233282
233283
233282
233281
233279
233277
233295
233296
233297
233297
233296
233295
233306
233310
233313
233315
233315
233315
233318
233324
233329
233333
233336
233337
233330
233338
233346
233352
233357
233361
233341
233351
233361
233370
233378
233384
233351
233363
233375
233386
233396
233405
233361
233374
233387
233399
233412
233423
233370
233383
233396
233409
233422
233435
233378
233391
233403
233416
233428
233441
233384
233396
233407
233418
233429
233440
233390
233401
233409
233418
233427
233435
232285
232271
232260
232249
232239
232229
232297
232282
232270
232257
232245
232234
232308
232293
232280
232266
232253
232241
232321
232306
232292
232278
232264
232250
232334
232320
232306
232292
232278
232264
232347
232335
232322
232309
232295
232282
232361
232350
232339
232327
232315
232303
232375
232366
232357
232347
232338
232328
232388
232382
232375
232368
232362
232355
232402
232398
232394
232389
232386
232381
232416
232414
232412
232410
232409
232408
232429
232430
232429
232430
232431
232432
232442
232444
232446
232448
232451
232454
232456
232458
232461
232465
232468
232472
231371
231353
231340
231326
231314
231302
231379
231361
231345
231329
231315
231302
231387
231368
231351
231334
231319
231303
231396
231377
231359
231341
231324
231307
231406
231387
231368
231349
231331
231314
231417
231397
231378
231360
231341
231323
231428
231409
231390
231372
231354
231336
231439
231421
231404
231386
231369
231352
231451
231435
231419
231402
231387
231371
231463
231449
231435
231421
231408
231394
231475
231465
231453
231442
231431
231419
231488
231480
231472
231464
231456
231447
231502
231497
231491
231486
231481
231476
231515
231512
231509
231507
231506
231504