/*--------------------------------*- C++ -*----------------------------------*\
| =========                 |                                                 |
| \\      /  F ield         | OpenFOAM: The Open Source CFD Toolbox           |
|  \\    /   O peration     | Version:  v2106                                 |
|   \\  /    A nd           | Website:  www.openfoam.com                      |
|    \\/     M anipulation  |                                                 |
\*---------------------------------------------------------------------------*/
FoamFile
{
    version     2.0;
    format      ascii;
    arch        "LSB;label=32;scalar=64";
    class       volScalarField;
    location    "0.000203";
    object      T;
}
// * * * * * * * * * * * * * * * * * * * * * * * * * * * * * * * * * * * * * //

dimensions      [0 0 0 1 0 0 0];

internalField   nonuniform List<scalar> 
17920
(
306.252
306.24
306.245
306.233
306.238
306.226
306.23
306.218
306.222
306.21
306.213
306.201
306.204
306.191
306.194
306.181
306.183
306.171
306.172
306.16
306.16
306.148
306.149
306.137
306.136
306.124
306.126
306.113
306.265
306.257
306.248
306.24
306.231
306.221
306.211
306.201
306.189
306.178
306.166
306.154
306.142
306.129
306.252
306.245
306.237
306.229
306.22
306.21
306.2
306.189
306.178
306.166
306.154
306.142
306.131
306.118
306.239
306.233
306.225
306.217
306.208
306.198
306.188
306.177
306.166
306.155
306.143
306.131
306.119
306.107
306.226
306.22
306.212
306.204
306.195
306.186
306.175
306.165
306.154
306.142
306.13
306.118
306.107
306.094
306.213
306.207
306.199
306.191
306.182
306.172
306.162
306.151
306.14
306.129
306.117
306.105
306.094
306.081
306.2
306.193
306.185
306.177
306.168
306.158
306.148
306.137
306.126
306.115
306.103
306.091
306.08
306.067
306.186
306.179
306.171
306.163
306.153
306.144
306.134
306.123
306.112
306.1
306.089
306.077
306.065
306.053
306.171
306.164
306.156
306.148
306.138
306.129
306.118
306.108
306.096
306.085
306.073
306.061
306.049
306.038
306.157
306.149
306.141
306.132
306.123
306.113
306.102
306.092
306.08
306.069
306.057
306.045
306.033
306.022
306.142
306.133
306.125
306.116
306.106
306.096
306.086
306.075
306.064
306.052
306.04
306.029
306.016
306.006
306.127
306.118
306.109
306.1
306.09
306.08
306.069
306.058
306.047
306.035
306.023
306.011
305.999
305.989
306.111
306.101
306.092
306.083
306.073
306.063
306.052
306.041
306.029
306.018
306.006
305.994
305.982
305.972
306.096
306.085
306.076
306.066
306.056
306.045
306.034
306.023
306.011
305.999
305.987
305.976
305.964
305.955
306.079
306.068
306.058
306.048
306.038
306.027
306.016
306.005
305.994
305.982
305.97
305.959
305.947
305.938
306.064
306.059
306.053
306.048
306.041
306.034
306.027
306.018
306.01
306
305.99
305.98
305.971
305.959
306.047
306.044
306.039
306.033
306.027
306.02
306.012
306.004
305.995
305.985
305.976
305.965
305.956
305.945
306.032
306.029
306.023
306.018
306.011
306.005
305.997
305.989
305.98
305.971
305.961
305.952
305.942
305.932
306.016
306.013
306.007
306.002
305.995
305.989
305.981
305.973
305.964
305.955
305.946
305.936
305.927
305.917
306
305.997
305.991
305.985
305.979
305.972
305.964
305.956
305.948
305.939
305.93
305.921
305.912
305.902
305.984
305.98
305.974
305.968
305.962
305.955
305.947
305.939
305.931
305.922
305.913
305.904
305.895
305.886
305.967
305.963
305.957
305.951
305.944
305.937
305.93
305.922
305.914
305.905
305.896
305.887
305.879
305.87
305.95
305.945
305.939
305.933
305.926
305.919
305.912
305.904
305.896
305.887
305.879
305.87
305.861
305.853
305.933
305.927
305.921
305.915
305.908
305.901
305.893
305.885
305.877
305.869
305.86
305.852
305.843
305.836
305.915
305.909
305.903
305.896
305.889
305.882
305.875
305.867
305.859
305.85
305.842
305.834
305.825
305.818
305.897
305.89
305.884
305.878
305.871
305.863
305.856
305.848
305.84
305.831
305.823
305.815
305.807
305.801
305.879
305.871
305.865
305.858
305.851
305.844
305.836
305.829
305.821
305.813
305.804
305.796
305.788
305.783
305.861
305.853
305.847
305.84
305.833
305.825
305.817
305.809
305.801
305.793
305.785
305.777
305.769
305.764
305.842
305.834
305.827
305.82
305.813
305.805
305.798
305.79
305.782
305.774
305.766
305.759
305.751
305.746
305.777
305.777
305.775
305.773
305.77
305.767
305.764
305.759
305.755
305.75
305.744
305.739
305.733
305.727
305.762
305.763
305.761
305.759
305.756
305.753
305.75
305.746
305.741
305.736
305.731
305.725
305.719
305.713
305.748
305.749
305.747
305.745
305.742
305.739
305.735
305.731
305.727
305.722
305.717
305.711
305.706
305.7
305.733
305.734
305.732
305.73
305.727
305.724
305.72
305.716
305.712
305.707
305.702
305.697
305.692
305.686
305.719
305.719
305.717
305.714
305.712
305.709
305.705
305.701
305.697
305.693
305.688
305.683
305.678
305.673
305.704
305.703
305.701
305.699
305.696
305.693
305.69
305.686
305.682
305.677
305.673
305.668
305.664
305.658
305.69
305.688
305.685
305.683
305.68
305.677
305.674
305.67
305.666
305.662
305.658
305.653
305.649
305.644
305.674
305.672
305.67
305.667
305.664
305.661
305.658
305.654
305.65
305.646
305.642
305.638
305.633
305.629
305.659
305.656
305.654
305.651
305.648
305.645
305.641
305.638
305.634
305.63
305.626
305.622
305.618
305.615
305.643
305.64
305.637
305.635
305.632
305.628
305.625
305.622
305.618
305.614
305.61
305.606
305.602
305.6
305.627
305.624
305.621
305.618
305.615
305.612
305.609
305.605
305.602
305.598
305.594
305.591
305.587
305.585
305.612
305.607
305.605
305.602
305.599
305.596
305.592
305.589
305.585
305.582
305.578
305.575
305.571
305.57
305.596
305.591
305.589
305.586
305.583
305.579
305.576
305.573
305.569
305.566
305.562
305.559
305.555
305.555
305.579
305.575
305.572
305.569
305.566
305.563
305.56
305.557
305.553
305.55
305.546
305.543
305.54
305.54
305.434
305.436
305.437
305.439
305.44
305.441
305.442
305.443
305.443
305.443
305.442
305.442
305.441
305.44
305.424
305.426
305.428
305.43
305.431
305.432
305.433
305.433
305.434
305.433
305.433
305.432
305.431
305.43
305.415
305.417
305.419
305.42
305.422
305.423
305.423
305.424
305.424
305.424
305.424
305.423
305.422
305.421
305.405
305.408
305.409
305.411
305.412
305.413
305.414
305.414
305.414
305.414
305.414
305.413
305.413
305.411
305.396
305.398
305.399
305.401
305.402
305.403
305.403
305.404
305.404
305.404
305.404
305.404
305.403
305.402
305.386
305.388
305.389
305.39
305.392
305.392
305.393
305.394
305.394
305.394
305.394
305.394
305.394
305.393
305.376
305.378
305.379
305.38
305.381
305.382
305.383
305.383
305.384
305.384
305.384
305.384
305.384
305.383
305.366
305.367
305.368
305.37
305.371
305.372
305.372
305.373
305.373
305.374
305.374
305.374
305.374
305.374
305.355
305.357
305.358
305.359
305.36
305.361
305.362
305.363
305.363
305.364
305.364
305.364
305.364
305.364
305.345
305.346
305.347
305.348
305.349
305.35
305.351
305.352
305.353
305.353
305.354
305.354
305.354
305.355
305.335
305.335
305.337
305.338
305.339
305.34
305.341
305.341
305.342
305.343
305.343
305.344
305.344
305.345
305.325
305.324
305.326
305.327
305.328
305.329
305.33
305.331
305.332
305.332
305.333
305.334
305.334
305.335
305.315
305.314
305.315
305.316
305.318
305.319
305.32
305.321
305.321
305.322
305.323
305.323
305.324
305.326
305.304
305.304
305.305
305.306
305.307
305.308
305.309
305.31
305.311
305.312
305.312
305.313
305.314
305.315
305.067
305.072
305.076
305.08
305.084
305.088
305.092
305.095
305.099
305.102
305.105
305.108
305.111
305.114
305.064
305.069
305.073
305.077
305.081
305.085
305.089
305.092
305.096
305.099
305.102
305.105
305.108
305.11
305.061
305.066
305.07
305.074
305.078
305.082
305.085
305.089
305.093
305.096
305.099
305.102
305.105
305.107
305.058
305.063
305.067
305.071
305.075
305.079
305.082
305.086
305.089
305.093
305.096
305.099
305.101
305.104
305.055
305.059
305.063
305.067
305.071
305.075
305.079
305.083
305.086
305.089
305.092
305.095
305.098
305.1
305.052
305.056
305.06
305.064
305.068
305.072
305.075
305.079
305.082
305.086
305.089
305.092
305.094
305.097
305.048
305.052
305.056
305.06
305.064
305.068
305.072
305.075
305.079
305.082
305.085
305.088
305.091
305.093
305.044
305.048
305.052
305.056
305.06
305.064
305.068
305.072
305.075
305.079
305.082
305.085
305.087
305.09
305.04
305.044
305.048
305.052
305.056
305.06
305.064
305.068
305.071
305.075
305.078
305.081
305.084
305.086
305.036
305.04
305.044
305.048
305.052
305.056
305.06
305.064
305.067
305.071
305.074
305.077
305.08
305.083
305.032
305.036
305.04
305.044
305.048
305.052
305.056
305.06
305.063
305.067
305.07
305.073
305.076
305.08
305.028
305.032
305.036
305.04
305.044
305.048
305.052
305.056
305.059
305.063
305.066
305.069
305.072
305.076
305.024
305.028
305.031
305.036
305.04
305.044
305.048
305.052
305.055
305.059
305.062
305.066
305.069
305.072
305.02
305.024
305.028
305.032
305.036
305.04
305.043
305.047
305.051
305.054
305.058
305.061
305.065
305.068
304.706
304.711
304.716
304.72
304.725
304.73
304.735
304.739
304.744
304.749
304.754
304.758
304.763
304.767
304.708
304.713
304.717
304.722
304.727
304.732
304.737
304.742
304.747
304.751
304.756
304.76
304.765
304.769
304.71
304.715
304.72
304.725
304.73
304.734
304.739
304.744
304.749
304.754
304.758
304.762
304.766
304.771
304.712
304.717
304.722
304.727
304.732
304.737
304.742
304.746
304.751
304.756
304.76
304.764
304.768
304.772
304.714
304.719
304.724
304.729
304.734
304.739
304.744
304.749
304.753
304.758
304.762
304.766
304.77
304.774
304.716
304.721
304.726
304.731
304.736
304.741
304.746
304.751
304.755
304.76
304.764
304.768
304.772
304.776
304.717
304.723
304.728
304.733
304.738
304.743
304.748
304.752
304.757
304.761
304.766
304.77
304.774
304.777
304.719
304.724
304.729
304.734
304.739
304.744
304.749
304.754
304.759
304.763
304.767
304.772
304.775
304.779
304.72
304.725
304.73
304.736
304.741
304.746
304.751
304.756
304.76
304.765
304.769
304.773
304.777
304.78
304.721
304.727
304.732
304.737
304.742
304.747
304.752
304.757
304.762
304.766
304.77
304.774
304.778
304.782
304.722
304.728
304.733
304.738
304.743
304.748
304.753
304.758
304.763
304.767
304.772
304.776
304.78
304.783
304.723
304.729
304.734
304.739
304.744
304.749
304.754
304.759
304.764
304.768
304.773
304.777
304.781
304.785
304.724
304.729
304.734
304.74
304.745
304.75
304.755
304.76
304.765
304.769
304.774
304.778
304.782
304.786
304.725
304.731
304.735
304.741
304.746
304.751
304.756
304.761
304.765
304.77
304.774
304.779
304.783
304.787
304.364
304.367
304.371
304.375
304.379
304.383
304.387
304.391
304.395
304.399
304.403
304.407
304.412
304.416
304.368
304.371
304.375
304.379
304.383
304.387
304.391
304.396
304.4
304.404
304.408
304.412
304.416
304.421
304.372
304.376
304.38
304.384
304.388
304.392
304.396
304.401
304.405
304.409
304.413
304.417
304.421
304.425
304.377
304.38
304.384
304.388
304.393
304.397
304.401
304.405
304.41
304.414
304.418
304.422
304.426
304.43
304.381
304.385
304.389
304.393
304.398
304.402
304.406
304.41
304.414
304.418
304.422
304.426
304.43
304.434
304.385
304.389
304.394
304.398
304.402
304.407
304.411
304.415
304.419
304.423
304.427
304.431
304.435
304.438
304.39
304.394
304.398
304.403
304.407
304.411
304.415
304.42
304.424
304.428
304.432
304.436
304.439
304.443
304.394
304.398
304.403
304.407
304.411
304.416
304.42
304.424
304.428
304.432
304.436
304.44
304.444
304.447
304.398
304.403
304.407
304.411
304.416
304.42
304.424
304.429
304.433
304.437
304.441
304.444
304.448
304.451
304.402
304.407
304.411
304.416
304.42
304.424
304.429
304.433
304.437
304.441
304.445
304.449
304.453
304.456
304.406
304.411
304.415
304.42
304.424
304.429
304.433
304.437
304.441
304.445
304.449
304.453
304.457
304.46
304.411
304.415
304.419
304.424
304.428
304.433
304.437
304.441
304.445
304.449
304.453
304.457
304.461
304.464
304.414
304.419
304.423
304.428
304.432
304.437
304.441
304.445
304.449
304.454
304.458
304.461
304.465
304.468
304.418
304.423
304.427
304.432
304.436
304.44
304.445
304.449
304.453
304.457
304.461
304.465
304.469
304.473
304.045
304.046
304.049
304.051
304.053
304.055
304.057
304.06
304.062
304.065
304.068
304.071
304.074
304.077
304.049
304.05
304.053
304.055
304.057
304.059
304.062
304.064
304.067
304.07
304.073
304.076
304.079
304.082
304.053
304.055
304.057
304.059
304.062
304.064
304.066
304.069
304.072
304.074
304.077
304.08
304.083
304.086
304.057
304.059
304.061
304.064
304.066
304.069
304.071
304.074
304.076
304.079
304.082
304.085
304.088
304.091
304.062
304.064
304.066
304.068
304.071
304.073
304.076
304.078
304.081
304.084
304.087
304.089
304.092
304.095
304.066
304.068
304.071
304.073
304.075
304.078
304.081
304.083
304.086
304.089
304.091
304.094
304.097
304.1
304.071
304.073
304.075
304.078
304.08
304.083
304.085
304.088
304.091
304.094
304.096
304.099
304.102
304.105
304.075
304.078
304.08
304.083
304.085
304.088
304.09
304.093
304.096
304.098
304.101
304.104
304.107
304.109
304.08
304.083
304.085
304.088
304.09
304.093
304.095
304.098
304.101
304.103
304.106
304.109
304.111
304.114
304.085
304.088
304.09
304.092
304.095
304.098
304.1
304.103
304.105
304.108
304.111
304.113
304.116
304.118
304.09
304.092
304.095
304.097
304.1
304.102
304.105
304.108
304.11
304.113
304.116
304.118
304.121
304.123
304.095
304.097
304.1
304.102
304.105
304.107
304.11
304.113
304.115
304.118
304.121
304.123
304.126
304.128
304.099
304.102
304.104
304.107
304.11
304.112
304.115
304.118
304.12
304.123
304.125
304.128
304.13
304.132
304.104
304.107
304.109
304.112
304.115
304.117
304.12
304.122
304.125
304.128
304.13
304.133
304.135
304.138
303.751
303.752
303.752
303.752
303.753
303.754
303.754
303.755
303.756
303.757
303.758
303.759
303.761
303.763
303.754
303.754
303.754
303.755
303.755
303.756
303.757
303.758
303.759
303.76
303.761
303.763
303.764
303.766
303.756
303.756
303.757
303.757
303.758
303.759
303.759
303.76
303.761
303.763
303.764
303.765
303.767
303.769
303.759
303.759
303.76
303.76
303.761
303.761
303.762
303.763
303.764
303.766
303.767
303.769
303.77
303.772
303.762
303.762
303.763
303.763
303.764
303.764
303.765
303.766
303.767
303.769
303.77
303.772
303.773
303.775
303.765
303.765
303.766
303.766
303.767
303.768
303.768
303.769
303.77
303.772
303.773
303.775
303.777
303.778
303.769
303.769
303.769
303.77
303.77
303.771
303.772
303.773
303.774
303.775
303.777
303.778
303.78
303.782
303.772
303.772
303.773
303.773
303.774
303.774
303.775
303.776
303.777
303.779
303.78
303.782
303.783
303.785
303.776
303.776
303.776
303.777
303.777
303.778
303.779
303.78
303.781
303.782
303.784
303.785
303.787
303.788
303.779
303.78
303.78
303.781
303.781
303.782
303.783
303.784
303.785
303.786
303.787
303.789
303.79
303.792
303.783
303.784
303.784
303.785
303.785
303.786
303.787
303.788
303.789
303.79
303.791
303.792
303.794
303.795
303.787
303.788
303.788
303.789
303.789
303.79
303.791
303.792
303.793
303.794
303.795
303.796
303.798
303.799
303.791
303.792
303.792
303.793
303.794
303.794
303.795
303.796
303.797
303.798
303.799
303.8
303.801
303.802
303.796
303.796
303.796
303.797
303.798
303.799
303.799
303.8
303.801
303.802
303.803
303.804
303.805
303.807
303.483
303.482
303.482
303.481
303.481
303.481
303.48
303.48
303.48
303.48
303.48
303.48
303.48
303.481
303.484
303.483
303.483
303.482
303.482
303.481
303.481
303.481
303.481
303.481
303.481
303.481
303.482
303.482
303.485
303.484
303.484
303.483
303.483
303.482
303.482
303.482
303.482
303.482
303.482
303.482
303.483
303.483
303.486
303.485
303.485
303.484
303.484
303.483
303.483
303.483
303.483
303.483
303.483
303.483
303.484
303.485
303.487
303.487
303.486
303.485
303.485
303.484
303.484
303.484
303.484
303.484
303.484
303.485
303.485
303.486
303.489
303.488
303.487
303.487
303.486
303.486
303.485
303.485
303.485
303.485
303.486
303.486
303.487
303.487
303.491
303.49
303.489
303.488
303.488
303.487
303.487
303.487
303.487
303.487
303.487
303.487
303.488
303.489
303.492
303.491
303.491
303.49
303.489
303.489
303.488
303.488
303.488
303.488
303.489
303.489
303.49
303.49
303.494
303.493
303.493
303.492
303.491
303.491
303.49
303.49
303.49
303.49
303.49
303.491
303.492
303.492
303.496
303.496
303.495
303.494
303.493
303.493
303.492
303.492
303.492
303.492
303.492
303.493
303.493
303.494
303.498
303.498
303.497
303.496
303.496
303.495
303.495
303.494
303.494
303.494
303.495
303.495
303.495
303.496
303.501
303.5
303.499
303.498
303.498
303.497
303.497
303.497
303.497
303.497
303.497
303.497
303.497
303.497
303.503
303.502
303.502
303.501
303.5
303.5
303.5
303.499
303.499
303.499
303.499
303.499
303.5
303.499
303.506
303.505
303.504
303.503
303.503
303.502
303.502
303.502
303.502
303.502
303.501
303.502
303.502
303.502
303.239
303.238
303.237
303.237
303.236
303.236
303.235
303.234
303.234
303.233
303.233
303.232
303.231
303.231
303.239
303.238
303.238
303.237
303.236
303.235
303.235
303.234
303.234
303.233
303.232
303.232
303.231
303.231
303.239
303.238
303.238
303.237
303.236
303.235
303.235
303.234
303.233
303.233
303.232
303.232
303.231
303.231
303.239
303.238
303.238
303.237
303.236
303.235
303.235
303.234
303.233
303.233
303.232
303.232
303.232
303.231
303.24
303.239
303.238
303.237
303.236
303.235
303.235
303.234
303.233
303.233
303.232
303.232
303.232
303.231
303.24
303.239
303.238
303.237
303.236
303.235
303.235
303.234
303.234
303.233
303.233
303.232
303.232
303.232
303.24
303.239
303.238
303.237
303.236
303.236
303.235
303.234
303.234
303.233
303.233
303.232
303.232
303.232
303.24
303.239
303.239
303.238
303.237
303.236
303.235
303.235
303.234
303.234
303.233
303.233
303.232
303.232
303.241
303.24
303.239
303.238
303.237
303.236
303.236
303.235
303.234
303.234
303.233
303.233
303.233
303.233
303.241
303.24
303.239
303.239
303.238
303.237
303.236
303.235
303.235
303.234
303.234
303.234
303.233
303.233
303.242
303.241
303.24
303.239
303.238
303.237
303.237
303.236
303.235
303.235
303.234
303.234
303.234
303.233
303.243
303.242
303.241
303.24
303.239
303.238
303.237
303.237
303.236
303.235
303.235
303.234
303.234
303.234
303.243
303.242
303.241
303.241
303.24
303.239
303.238
303.237
303.237
303.236
303.236
303.235
303.235
303.234
303.244
303.243
303.242
303.241
303.24
303.239
303.239
303.238
303.237
303.237
303.236
303.236
303.235
303.235
303.017
303.016
303.016
303.016
303.015
303.015
303.014
303.014
303.013
303.013
303.012
303.011
303.01
303.009
303.017
303.016
303.016
303.016
303.015
303.015
303.014
303.014
303.013
303.012
303.012
303.011
303.01
303.009
303.017
303.016
303.016
303.016
303.015
303.015
303.014
303.014
303.013
303.012
303.012
303.011
303.01
303.009
303.017
303.016
303.016
303.016
303.015
303.015
303.014
303.014
303.013
303.012
303.011
303.01
303.01
303.008
303.016
303.016
303.016
303.015
303.015
303.014
303.014
303.013
303.013
303.012
303.011
303.01
303.009
303.008
303.016
303.016
303.016
303.015
303.015
303.014
303.014
303.013
303.012
303.012
303.011
303.01
303.009
303.008
303.016
303.016
303.015
303.015
303.014
303.014
303.013
303.013
303.012
303.011
303.01
303.01
303.009
303.008
303.016
303.015
303.015
303.014
303.014
303.013
303.013
303.012
303.012
303.011
303.01
303.009
303.008
303.007
303.015
303.015
303.014
303.014
303.014
303.013
303.012
303.012
303.011
303.01
303.01
303.009
303.008
303.007
303.015
303.014
303.014
303.014
303.013
303.013
303.012
303.011
303.011
303.01
303.009
303.008
303.008
303.007
303.014
303.014
303.014
303.013
303.013
303.012
303.011
303.011
303.01
303.009
303.009
303.008
303.007
303.006
303.014
303.013
303.013
303.013
303.012
303.011
303.011
303.01
303.01
303.009
303.008
303.007
303.007
303.006
303.013
303.013
303.012
303.012
303.011
303.011
303.01
303.01
303.009
303.008
303.007
303.007
303.006
303.005
303.013
303.012
303.012
303.011
303.011
303.01
303.01
303.009
303.008
303.008
303.007
303.006
303.005
303.005
302.814
302.814
302.814
302.814
302.814
302.814
302.814
302.814
302.814
302.813
302.812
302.811
302.81
302.809
302.814
302.815
302.815
302.815
302.815
302.815
302.815
302.814
302.814
302.813
302.813
302.812
302.811
302.809
302.814
302.815
302.815
302.815
302.815
302.815
302.815
302.815
302.814
302.814
302.813
302.812
302.811
302.809
302.815
302.815
302.815
302.816
302.816
302.816
302.815
302.815
302.814
302.814
302.813
302.812
302.811
302.809
302.815
302.815
302.815
302.816
302.816
302.816
302.815
302.815
302.815
302.814
302.813
302.812
302.811
302.809
302.814
302.815
302.815
302.816
302.816
302.816
302.815
302.815
302.814
302.814
302.813
302.812
302.811
302.809
302.814
302.815
302.815
302.815
302.815
302.815
302.815
302.815
302.814
302.813
302.813
302.811
302.81
302.809
302.814
302.814
302.814
302.815
302.815
302.815
302.815
302.814
302.814
302.813
302.812
302.811
302.81
302.809
302.813
302.813
302.814
302.814
302.814
302.814
302.814
302.814
302.813
302.812
302.811
302.81
302.809
302.808
302.812
302.813
302.813
302.813
302.813
302.813
302.813
302.813
302.812
302.812
302.811
302.81
302.809
302.807
302.811
302.812
302.812
302.812
302.812
302.812
302.812
302.812
302.811
302.811
302.81
302.809
302.808
302.807
302.81
302.811
302.811
302.811
302.811
302.811
302.811
302.811
302.81
302.81
302.809
302.808
302.807
302.806
302.809
302.81
302.81
302.81
302.81
302.81
302.81
302.809
302.809
302.808
302.808
302.807
302.806
302.805
302.808
302.808
302.809
302.809
302.809
302.809
302.808
302.808
302.808
302.807
302.806
302.805
302.804
302.804
302.627
302.628
302.629
302.629
302.63
302.63
302.63
302.63
302.63
302.63
302.629
302.628
302.627
302.626
302.628
302.629
302.63
302.63
302.631
302.631
302.631
302.631
302.631
302.63
302.63
302.629
302.628
302.626
302.629
302.63
302.631
302.631
302.632
302.632
302.632
302.632
302.632
302.631
302.631
302.63
302.628
302.627
302.629
302.63
302.631
302.632
302.632
302.633
302.633
302.633
302.632
302.632
302.631
302.63
302.629
302.628
302.63
302.631
302.632
302.632
302.633
302.633
302.633
302.633
302.633
302.632
302.631
302.63
302.629
302.628
302.63
302.631
302.632
302.633
302.633
302.633
302.634
302.633
302.633
302.632
302.632
302.631
302.629
302.628
302.63
302.631
302.632
302.633
302.633
302.633
302.634
302.633
302.633
302.632
302.632
302.631
302.629
302.628
302.629
302.631
302.632
302.632
302.633
302.633
302.633
302.633
302.633
302.632
302.631
302.63
302.629
302.628
302.629
302.63
302.631
302.632
302.632
302.633
302.633
302.633
302.632
302.632
302.631
302.63
302.629
302.628
302.628
302.629
302.63
302.631
302.632
302.632
302.632
302.632
302.632
302.631
302.63
302.629
302.628
302.627
302.627
302.628
302.629
302.63
302.631
302.631
302.631
302.631
302.631
302.63
302.629
302.628
302.627
302.626
302.626
302.627
302.628
302.629
302.63
302.63
302.63
302.63
302.629
302.629
302.628
302.627
302.626
302.625
302.625
302.626
302.627
302.628
302.628
302.629
302.629
302.628
302.628
302.628
302.627
302.626
302.625
302.624
302.624
302.625
302.626
302.626
302.627
302.627
302.627
302.627
302.627
302.626
302.625
302.625
302.624
302.623
302.455
302.456
302.457
302.457
302.458
302.459
302.459
302.459
302.459
302.458
302.458
302.457
302.456
302.455
302.456
302.457
302.458
302.459
302.459
302.46
302.46
302.46
302.46
302.46
302.459
302.458
302.457
302.456
302.457
302.458
302.459
302.46
302.461
302.461
302.461
302.461
302.461
302.461
302.46
302.459
302.458
302.457
302.457
302.459
302.46
302.461
302.461
302.462
302.462
302.462
302.462
302.462
302.461
302.46
302.459
302.458
302.458
302.459
302.46
302.461
302.462
302.463
302.463
302.463
302.463
302.462
302.462
302.461
302.46
302.459
302.458
302.46
302.461
302.462
302.463
302.463
302.463
302.463
302.463
302.463
302.462
302.461
302.46
302.459
302.459
302.46
302.461
302.462
302.463
302.463
302.464
302.464
302.463
302.463
302.462
302.462
302.46
302.459
302.459
302.46
302.461
302.462
302.463
302.463
302.464
302.464
302.463
302.463
302.462
302.462
302.46
302.459
302.458
302.46
302.461
302.462
302.463
302.463
302.463
302.463
302.463
302.463
302.462
302.461
302.46
302.459
302.458
302.459
302.46
302.461
302.462
302.463
302.463
302.463
302.463
302.462
302.462
302.461
302.46
302.459
302.457
302.459
302.46
302.461
302.461
302.462
302.462
302.462
302.462
302.462
302.461
302.46
302.459
302.458
302.456
302.458
302.459
302.46
302.46
302.461
302.461
302.461
302.461
302.461
302.46
302.459
302.458
302.457
302.455
302.457
302.458
302.459
302.459
302.46
302.46
302.46
302.46
302.46
302.459
302.458
302.457
302.456
302.454
302.455
302.456
302.457
302.458
302.458
302.459
302.459
302.459
302.458
302.458
302.457
302.456
302.455
302.293
302.294
302.295
302.296
302.297
302.297
302.297
302.297
302.297
302.297
302.297
302.296
302.295
302.294
302.294
302.295
302.296
302.297
302.298
302.298
302.299
302.299
302.299
302.298
302.298
302.297
302.296
302.296
302.295
302.296
302.297
302.298
302.299
302.299
302.3
302.3
302.3
302.299
302.299
302.298
302.297
302.297
302.296
302.297
302.298
302.299
302.3
302.3
302.3
302.301
302.3
302.3
302.3
302.299
302.298
302.297
302.297
302.298
302.299
302.3
302.3
302.301
302.301
302.301
302.301
302.301
302.3
302.3
302.299
302.298
302.297
302.298
302.299
302.3
302.301
302.301
302.302
302.302
302.302
302.301
302.301
302.3
302.299
302.298
302.297
302.299
302.3
302.301
302.301
302.302
302.302
302.302
302.302
302.302
302.301
302.301
302.3
302.299
302.298
302.299
302.3
302.301
302.301
302.302
302.302
302.302
302.302
302.302
302.301
302.301
302.3
302.299
302.298
302.299
302.3
302.301
302.301
302.302
302.302
302.302
302.302
302.302
302.301
302.301
302.3
302.299
302.297
302.298
302.299
302.3
302.301
302.301
302.302
302.302
302.302
302.302
302.301
302.3
302.3
302.299
302.297
302.298
302.299
302.3
302.301
302.301
302.301
302.301
302.301
302.301
302.301
302.3
302.299
302.298
302.296
302.297
302.298
302.299
302.3
302.3
302.301
302.301
302.301
302.3
302.3
302.299
302.299
302.298
302.295
302.297
302.297
302.298
302.299
302.299
302.3
302.3
302.3
302.3
302.299
302.299
302.298
302.297
302.295
302.296
302.297
302.297
302.298
302.298
302.299
302.299
302.299
302.299
302.298
302.298
302.297
302.296
302.141
302.142
302.143
302.143
302.144
302.144
302.144
302.144
302.144
302.144
302.144
302.143
302.143
302.142
302.142
302.143
302.143
302.144
302.144
302.145
302.145
302.145
302.145
302.145
302.144
302.144
302.144
302.143
302.143
302.143
302.144
302.145
302.145
302.145
302.146
302.146
302.146
302.145
302.145
302.145
302.144
302.144
302.143
302.144
302.145
302.145
302.146
302.146
302.146
302.146
302.146
302.146
302.146
302.145
302.145
302.144
302.144
302.144
302.145
302.146
302.146
302.147
302.147
302.147
302.147
302.147
302.146
302.146
302.145
302.145
302.144
302.145
302.146
302.146
302.147
302.147
302.147
302.147
302.147
302.147
302.147
302.146
302.146
302.145
302.144
302.145
302.146
302.146
302.147
302.147
302.147
302.147
302.147
302.147
302.147
302.146
302.146
302.145
302.144
302.145
302.146
302.146
302.147
302.147
302.147
302.148
302.148
302.147
302.147
302.147
302.146
302.145
302.144
302.145
302.146
302.146
302.147
302.147
302.147
302.148
302.148
302.147
302.147
302.147
302.146
302.145
302.144
302.145
302.146
302.146
302.147
302.147
302.147
302.147
302.147
302.147
302.147
302.146
302.146
302.145
302.144
302.145
302.145
302.146
302.146
302.147
302.147
302.147
302.147
302.147
302.147
302.146
302.146
302.145
302.144
302.144
302.145
302.146
302.146
302.146
302.147
302.147
302.147
302.147
302.146
302.146
302.145
302.145
302.143
302.144
302.144
302.145
302.146
302.146
302.146
302.146
302.146
302.146
302.146
302.145
302.145
302.144
302.142
302.143
302.144
302.144
302.145
302.145
302.145
302.146
302.146
302.146
302.145
302.145
302.144
302.144
301.997
301.998
301.998
301.998
301.999
301.999
301.999
301.999
301.999
301.998
301.998
301.998
301.998
301.998
301.998
301.998
301.998
301.999
301.999
301.999
301.999
301.999
301.999
301.999
301.999
301.999
301.998
301.998
301.998
301.998
301.999
301.999
301.999
301.999
301.999
301.999
301.999
301.999
301.999
301.999
301.999
301.999
301.998
301.999
301.999
301.999
301.999
301.999
301.999
301.999
301.999
301.999
301.999
301.999
301.999
301.999
301.998
301.999
301.999
301.999
301.999
301.999
302
302
302
301.999
301.999
301.999
301.999
301.999
301.999
301.999
301.999
301.999
301.999
302
302
302
302
302
302
301.999
301.999
301.999
301.999
301.999
301.999
301.999
302
302
302
302
302
302
302
301.999
301.999
301.999
301.999
301.999
301.999
301.999
302
302
302
302
302
302
302
301.999
301.999
301.999
301.999
301.999
301.999
301.999
302
302
302
302
302
302
302
301.999
301.999
301.999
301.999
301.999
301.999
301.999
302
302
302
302
302
302
302
301.999
301.999
301.999
301.999
301.999
301.999
301.999
301.999
302
302
302
302
302
301.999
301.999
301.999
301.999
301.998
301.999
301.999
301.999
301.999
301.999
301.999
302
302
301.999
301.999
301.999
301.999
301.999
301.998
301.998
301.999
301.999
301.999
301.999
301.999
301.999
301.999
301.999
301.999
301.999
301.999
301.998
301.998
301.998
301.998
301.999
301.999
301.999
301.999
301.999
301.999
301.999
301.999
301.999
301.999
301.998
306.255
306.252
306.25
306.247
306.245
306.242
306.242
306.237
306.235
306.232
306.229
306.226
306.276
306.287
306.297
306.307
306.315
306.324
306.268
306.281
306.293
306.305
306.315
306.326
306.261
306.276
306.289
306.302
306.314
306.325
306.253
306.269
306.282
306.296
306.308
306.32
306.244
306.26
306.274
306.287
306.299
306.31
306.235
306.25
306.263
306.275
306.286
306.296
306.224
306.238
306.25
306.261
306.27
306.278
306.213
306.225
306.235
306.244
306.252
306.258
306.201
306.21
306.219
306.226
306.232
306.236
306.188
306.195
306.202
306.207
306.211
306.213
306.176
306.18
306.184
306.187
306.189
306.19
306.162
306.163
306.166
306.167
306.167
306.167
306.15
306.148
306.149
306.148
306.147
306.145
306.135
306.132
306.13
306.128
306.126
306.123
306.078
306.089
306.099
306.108
306.117
306.125
306.072
306.087
306.1
306.112
306.124
306.134
306.069
306.086
306.101
306.115
306.129
306.141
306.064
306.083
306.099
306.115
306.129
306.142
306.058
306.077
306.095
306.111
306.126
306.14
306.051
306.07
306.088
306.104
306.118
306.132
306.043
306.062
306.078
306.093
306.107
306.119
306.035
306.051
306.067
306.08
306.093
306.103
306.025
306.039
306.053
306.065
306.075
306.084
306.014
306.026
306.038
306.048