/*--------------------------------*- C++ -*----------------------------------*\
| =========                 |                                                 |
| \\      /  F ield         | OpenFOAM: The Open Source CFD Toolbox           |
|  \\    /   O peration     | Version:  v2106                                 |
|   \\  /    A nd           | Website:  www.openfoam.com                      |
|    \\/     M anipulation  |                                                 |
\*---------------------------------------------------------------------------*/
FoamFile
{
    version     2.0;
    format      ascii;
    arch        "LSB;label=32;scalar=64";
    class       volScalarField;
    location    "0.000203";
    object      Ttot;
}
// * * * * * * * * * * * * * * * * * * * * * * * * * * * * * * * * * * * * * //

dimensions      [0 0 0 1 0 0 0];

internalField   nonuniform List<scalar> 
17920
(
306.439
306.426
306.431
306.419
306.424
306.411
306.416
306.403
306.407
306.394
306.398
306.385
306.388
306.374
306.377
306.364
306.366
306.353
306.354
306.341
306.341
306.329
306.329
306.317
306.316
306.303
306.305
306.292
306.449
306.44
306.432
306.423
306.413
306.403
306.393
306.381
306.37
306.357
306.345
306.332
306.32
306.307
306.435
306.428
306.42
306.411
306.401
306.391
306.381
306.369
306.358
306.345
306.333
306.32
306.308
306.295
306.422
306.415
306.407
306.398
306.389
306.379
306.368
306.357
306.345
306.333
306.321
306.308
306.296
306.283
306.408
306.402
306.393
306.385
306.375
306.365
306.355
306.344
306.332
306.32
306.308
306.295
306.283
306.27
306.395
306.388
306.38
306.371
306.361
306.351
306.341
306.33
306.318
306.306
306.294
306.281
306.269
306.256
306.38
306.373
306.365
306.356
306.347
306.337
306.326
306.315
306.303
306.291
306.279
306.267
306.254
306.242
306.366
306.359
306.35
306.341
306.332
306.321
306.311
306.3
306.288
306.276
306.264
306.251
306.239
306.226
306.35
306.343
306.334
306.325
306.316
306.305
306.295
306.283
306.272
306.26
306.247
306.235
306.223
306.21
306.335
306.327
306.318
306.309
306.299
306.289
306.278
306.267
306.255
306.243
306.23
306.218
306.206
306.194
306.319
306.31
306.302
306.292
306.282
306.272
306.261
306.249
306.237
306.226
306.213
306.201
306.188
306.177
306.304
306.294
306.285
306.275
306.265
306.254
306.243
306.232
306.219
306.207
306.195
306.183
306.17
306.159
306.287
306.276
306.267
306.257
306.247
306.236
306.225
306.213
306.201
306.189
306.177
306.165
306.152
306.142
306.271
306.259
306.25
306.24
306.229
306.218
306.206
306.195
306.182
306.17
306.157
306.145
306.132
306.123
306.253
306.241
306.231
306.221
306.21
306.199
306.187
306.176
306.164
306.152
306.139
306.128
306.115
306.105
306.235
306.23
306.224
306.218
306.211
306.204
306.196
306.187
306.178
306.168
306.158
306.147
306.137
306.126
306.218
306.214
306.208
306.203
306.196
306.189
306.181
306.172
306.163
306.153
306.143
306.132
306.122
306.111
306.202
306.198
306.192
306.186
306.18
306.173
306.165
306.156
306.147
306.138
306.128
306.117
306.108
306.097
306.185
306.181
306.175
306.17
306.163
306.156
306.148
306.14
306.131
306.121
306.112
306.101
306.092
306.081
306.168
306.164
306.158
306.152
306.146
306.139
306.131
306.122
306.114
306.104
306.095
306.085
306.076
306.066
306.151
306.147
306.141
306.135
306.128
306.121
306.113
306.104
306.096
306.087
306.078
306.068
306.059
306.049
306.133
306.129
306.123
306.116
306.11
306.102
306.094
306.086
306.077
306.069
306.06
306.05
306.041
306.032
306.115
306.11
306.104
306.098
306.091
306.083
306.075
306.067
306.059
306.05
306.041
306.032
306.023
306.014
306.097
306.091
306.085
306.079
306.072
306.064
306.056
306.048
306.039
306.031
306.022
306.013
306.004
305.996
306.078
306.072
306.066
306.059
306.052
306.044
306.037
306.028
306.02
306.011
306.002
305.994
305.985
305.978
306.06
306.053
306.047
306.04
306.032
306.025
306.017
306.008
306
305.992
305.983
305.975
305.966
305.959
306.041
306.033
306.026
306.019
306.012
306.005
305.997
305.988
305.98
305.972
305.963
305.955
305.946
305.94
306.022
306.014
306.007
306
305.993
305.985
305.977
305.968
305.96
305.952
305.943
305.935
305.926
305.921
306.002
305.994
305.987
305.98
305.972
305.964
305.956
305.948
305.94
305.932
305.924
305.916
305.907
305.902
305.932
305.932
305.93
305.927
305.925
305.921
305.918
305.913
305.909
305.904
305.898
305.892
305.886
305.88
305.916
305.917
305.915
305.913
305.91
305.907
305.903
305.899
305.894
305.889
305.883
305.878
305.872
305.865
305.902
305.902
305.9
305.898
305.895
305.892
305.888
305.884
305.879
305.874
305.869
305.863
305.858
305.851
305.886
305.886
305.884
305.882
305.879
305.876
305.873
305.869
305.864
305.859
305.854
305.849
305.844
305.837
305.871
305.871
305.869
305.866
305.863
305.86
305.857
305.853
305.848
305.844
305.839
305.834
305.829
305.823
305.856
305.855
305.852
305.85
305.847
305.844
305.84
305.836
305.832
305.828
305.823
305.818
305.813
305.808
305.84
305.838
305.836
305.833
305.831
305.827
305.824
305.82
305.816
305.812
305.807
305.802
305.798
305.793
305.824
305.822
305.819
305.817
305.814
305.811
305.807
305.803
305.799
305.795
305.791
305.786
305.782
305.778
305.808
305.805
305.803
305.8
305.797
305.794
305.79
305.786
305.783
305.778
305.774
305.77
305.766
305.762
305.791
305.788
305.786
305.783
305.78
305.777
305.773
305.769
305.766
305.762
305.758
305.754
305.75
305.747
305.775
305.771
305.769
305.766
305.763
305.759
305.756
305.752
305.749
305.745
305.741
305.737
305.733
305.732
305.759
305.754
305.752
305.749
305.746
305.742
305.739
305.735
305.732
305.728
305.724
305.721
305.717
305.716
305.743
305.738
305.735
305.732
305.729
305.725
305.722
305.718
305.715
305.711
305.707
305.704
305.701
305.701
305.725
305.721
305.718
305.715
305.712
305.709
305.705
305.702
305.698
305.695
305.691
305.688
305.685
305.684
305.571
305.573
305.574
305.576
305.577
305.579
305.58
305.58
305.58
305.58
305.58
305.579
305.578
305.577
305.56
305.563
305.564
305.566
305.568
305.569
305.57
305.57
305.571
305.571
305.57
305.569
305.569
305.567
305.551
305.553
305.555
305.557
305.558
305.559
305.56
305.56
305.561
305.56
305.56
305.56
305.559
305.557
305.541
305.543
305.545
305.547
305.548
305.549
305.55
305.55
305.55
305.55
305.55
305.55
305.549
305.548
305.531
305.533
305.535
305.536
305.537
305.538
305.539
305.54
305.54
305.54
305.54
305.54
305.539
305.538
305.521
305.523
305.524
305.526
305.527
305.528
305.528
305.529
305.529
305.53
305.53
305.529
305.529
305.528
305.51
305.512
305.513
305.515
305.516
305.517
305.518
305.518
305.519
305.519
305.519
305.519
305.519
305.518
305.5
305.501
305.503
305.504
305.505
305.506
305.507
305.507
305.508
305.508
305.509
305.509
305.509
305.509
305.489
305.49
305.492
305.493
305.494
305.495
305.496
305.497
305.497
305.498
305.498
305.498
305.498
305.499
305.478
305.479
305.481
305.482
305.483
305.484
305.485
305.486
305.486
305.487
305.487
305.488
305.488
305.489
305.468
305.468
305.469
305.471
305.472
305.473
305.474
305.475
305.475
305.476
305.477
305.477
305.477
305.479
305.457
305.457
305.458
305.46
305.461
305.462
305.463
305.464
305.465
305.465
305.466
305.467
305.467
305.469
305.446
305.446
305.447
305.449
305.45
305.451
305.452
305.453
305.454
305.455
305.455
305.456
305.457
305.459
305.435
305.435
305.437
305.438
305.439
305.44
305.441
305.442
305.443
305.444
305.445
305.445
305.446
305.448
305.186
305.191
305.195
305.199
305.204
305.208
305.212
305.216
305.219
305.223
305.226
305.229
305.232
305.235
305.183
305.188
305.192
305.196
305.201
305.205
305.209
305.213
305.216
305.22
305.223
305.226
305.229
305.231
305.18
305.185
305.189
305.193
305.197
305.201
305.205
305.209
305.213
305.217
305.22
305.223
305.226
305.228
305.177
305.182
305.186
305.19
305.194
305.198
305.202
305.206
305.21
305.213
305.216
305.219
305.222
305.224
305.174
305.178
305.182
305.187
305.191
305.195
305.199
305.202
305.206
305.21
305.213
305.216
305.219
305.221
305.17
305.174
305.179
305.183
305.187
305.191
305.195
305.199
305.202
305.206
305.209
305.212
305.215
305.217
305.166
305.171
305.175
305.179
305.183
305.187
305.191
305.195
305.199
305.202
305.205
305.209
305.211
305.214
305.163
305.167
305.171
305.175
305.179
305.184
305.187
305.191
305.195
305.198
305.202
305.205
305.208
305.21
305.158
305.163
305.167
305.171
305.175
305.179
305.183
305.187
305.191
305.195
305.198
305.201
305.204
305.207
305.154
305.158
305.163
305.167
305.171
305.175
305.179
305.183
305.187
305.191
305.194
305.197
305.2
305.203
305.15
305.154
305.158
305.163
305.167
305.171
305.175
305.179
305.183
305.186
305.19
305.193
305.196
305.2
305.146
305.15
305.154
305.158
305.162
305.167
305.171
305.175
305.179
305.182
305.186
305.189
305.192
305.196
305.141
305.145
305.15
305.154
305.158
305.162
305.166
305.17
305.174
305.178
305.182
305.185
305.188
305.192
305.137
305.141
305.145
305.15
305.154
305.158
305.162
305.166
305.17
305.173
305.177
305.181
305.184
305.188
304.809
304.814
304.819
304.824
304.829
304.834
304.839
304.844
304.849
304.854
304.858
304.863
304.868
304.872
304.811
304.816
304.821
304.826
304.831
304.836
304.841
304.846
304.851
304.856
304.861
304.866
304.87
304.874
304.813
304.818
304.823
304.828
304.833
304.838
304.844
304.849
304.854
304.858
304.863
304.868
304.872
304.876
304.815
304.82
304.825
304.83
304.836
304.841
304.846
304.851
304.856
304.861
304.865
304.87
304.874
304.878
304.817
304.822
304.828
304.833
304.838
304.843
304.848
304.853
304.858
304.863
304.867
304.872
304.876
304.88
304.819
304.824
304.83
304.835
304.84
304.845
304.85
304.855
304.86
304.865
304.869
304.874
304.878
304.881
304.821
304.826
304.831
304.837
304.842
304.847
304.852
304.857
304.862
304.867
304.871
304.875
304.879
304.883
304.822
304.828
304.833
304.838
304.844
304.849
304.854
304.859
304.864
304.869
304.873
304.877
304.881
304.885
304.824
304.829
304.834
304.84
304.845
304.85
304.856
304.861
304.865
304.87
304.875
304.879
304.883
304.886
304.825
304.83
304.836
304.841
304.847
304.852
304.857
304.862
304.867
304.872
304.876
304.88
304.884
304.888
304.826
304.832
304.837
304.842
304.848
304.853
304.858
304.863
304.868
304.873
304.877
304.882
304.886
304.89
304.827
304.833
304.838
304.843
304.849
304.854
304.859
304.864
304.869
304.874
304.879
304.883
304.887
304.891
304.828
304.833
304.839
304.844
304.85
304.855
304.86
304.865
304.87
304.875
304.88
304.884
304.888
304.893
304.829
304.835
304.84
304.845
304.85
304.856
304.861
304.866
304.871
304.876
304.88
304.885
304.89
304.894
304.452
304.456
304.46
304.464
304.468
304.472
304.476
304.48
304.485
304.489
304.493
304.498
304.502
304.506
304.457
304.46
304.464
304.468
304.472
304.477
304.481
304.485
304.49
304.494
304.498
304.503
304.507
304.511
304.461
304.465
304.469
304.473
304.477
304.482
304.486
304.49
304.495
304.499
304.503
304.507
304.511
304.516
304.466
304.469
304.474
304.478
304.482
304.487
304.491
304.496
304.5
304.504
304.508
304.512
304.516
304.521
304.47
304.474
304.479
304.483
304.487
304.492
304.496
304.501
304.505
304.509
304.513
304.517
304.521
304.525
304.475
304.479
304.483
304.488
304.492
304.497
304.501
304.506
304.51
304.514
304.518
304.522
304.526
304.53
304.479
304.484
304.488
304.493
304.497
304.502
304.506
304.51
304.515
304.519
304.523
304.527
304.531
304.534
304.484
304.488
304.493
304.497
304.502
304.506
304.511
304.515
304.519
304.524
304.528
304.532
304.535
304.539
304.488
304.493
304.497
304.502
304.506
304.511
304.515
304.52
304.524
304.528
304.532
304.536
304.54
304.543
304.493
304.497
304.502
304.506
304.511
304.515
304.52
304.524
304.529
304.533
304.537
304.541
304.544
304.548
304.497
304.501
304.506
304.511
304.515
304.52
304.524
304.529
304.533
304.537
304.541
304.545
304.549
304.552
304.501
304.506
304.51
304.515
304.519
304.524
304.528
304.533
304.537
304.541
304.545
304.549
304.553
304.556
304.505
304.51
304.514
304.519
304.523
304.528
304.532
304.537
304.541
304.546
304.55
304.554
304.557
304.561
304.509
304.514
304.518
304.523
304.527
304.532
304.536
304.541
304.545
304.549
304.553
304.558
304.562
304.566
304.121
304.123
304.125
304.127
304.129
304.132
304.134
304.136
304.139
304.142
304.145
304.148
304.151
304.154
304.125
304.127
304.129
304.131
304.134
304.136
304.139
304.141
304.144
304.147
304.15
304.153
304.156
304.159
304.129
304.131
304.133
304.136
304.138
304.141
304.143
304.146
304.149
304.151
304.154
304.157
304.16
304.164
304.134
304.136
304.138
304.14
304.143
304.145
304.148
304.151
304.154
304.156
304.159
304.162
304.165
304.169
304.138
304.14
304.143
304.145
304.148
304.15
304.153
304.156
304.158
304.161
304.164
304.167
304.17
304.173
304.143
304.145
304.148
304.15
304.153
304.155
304.158
304.161
304.163
304.166
304.169
304.172
304.175
304.178
304.148
304.15
304.153
304.155
304.158
304.16
304.163
304.166
304.169
304.171
304.174
304.177
304.18
304.183
304.153
304.155
304.158
304.16
304.163
304.165
304.168
304.171
304.174
304.176
304.179
304.182
304.185
304.187
304.158
304.16
304.163
304.165
304.168
304.17
304.173
304.176
304.179
304.181
304.184
304.187
304.19
304.192
304.163
304.165
304.168
304.17
304.173
304.176
304.178
304.181
304.184
304.186
304.189
304.192
304.195
304.197
304.167
304.17
304.173
304.175
304.178
304.181
304.183
304.186
304.189
304.192
304.194
304.197
304.2
304.202
304.173
304.175
304.178
304.18
304.183
304.186
304.188
304.191
304.194
304.197
304.199
304.202
304.205
304.207
304.177
304.18
304.182
304.185
304.188
304.191
304.194
304.196
304.199
304.202
304.204
304.207
304.209
304.212
304.183
304.185
304.188
304.19
304.193
304.196
304.199
304.201
304.204
304.207
304.209
304.212
304.215
304.217
303.817
303.817
303.817
303.818
303.818
303.819
303.82
303.821
303.821
303.823
303.824
303.825
303.827
303.828
303.819
303.819
303.82
303.82
303.821
303.822
303.822
303.823
303.824
303.825
303.827
303.828
303.83
303.832
303.822
303.822
303.822
303.823
303.824
303.824
303.825
303.826
303.827
303.828
303.83
303.831
303.833
303.835
303.825
303.825
303.825
303.826
303.827
303.827
303.828
303.829
303.83
303.831
303.833
303.834
303.836
303.838
303.828
303.828
303.828
303.829
303.83
303.83
303.831
303.832
303.833
303.835
303.836
303.838
303.839
303.841
303.831
303.831
303.832
303.832
303.833
303.834
303.834
303.835
303.837
303.838
303.839
303.841
303.843
303.845
303.835
303.835
303.835
303.836
303.836
303.837
303.838
303.839
303.84
303.841
303.843
303.844
303.846
303.848
303.838
303.839
303.839
303.839
303.84
303.841
303.841
303.842
303.844
303.845
303.846
303.848
303.85
303.851
303.842
303.842
303.843
303.843
303.844
303.844
303.845
303.846
303.847
303.849
303.85
303.852
303.853
303.855
303.846
303.846
303.847
303.847
303.848
303.848
303.849
303.85
303.851
303.853
303.854
303.855
303.857
303.858
303.85
303.85
303.851
303.851
303.852
303.853
303.853
303.854
303.855
303.857
303.858
303.859
303.861
303.862
303.854
303.854
303.855
303.855
303.856
303.857
303.858
303.859
303.86
303.861
303.862
303.863
303.865
303.865
303.858
303.858
303.859
303.86
303.86
303.861
303.862
303.863
303.864
303.865
303.866
303.867
303.868
303.869
303.862
303.863
303.863
303.864
303.865
303.865
303.866
303.867
303.868
303.869
303.87
303.871
303.873
303.874
303.539
303.539
303.538
303.538
303.537
303.537
303.537
303.536
303.536
303.536
303.536
303.536
303.536
303.537
303.54
303.54
303.539
303.538
303.538
303.538
303.537
303.537
303.537
303.537
303.537
303.537
303.538
303.538
303.541
303.541
303.54
303.539
303.539
303.538
303.538
303.538
303.538
303.538
303.538
303.538
303.539
303.54
303.543
303.542
303.541
303.54
303.54
303.539
303.539
303.539
303.539
303.539
303.539
303.54
303.54
303.541
303.544
303.543
303.542
303.542
303.541
303.541
303.54
303.54
303.54
303.54
303.54
303.541
303.542
303.542
303.545
303.545
303.544
303.543
303.542
303.542
303.542
303.541
303.541
303.542
303.542
303.542
303.543
303.544
303.547
303.546
303.545
303.545
303.544
303.544
303.543
303.543
303.543
303.543
303.543
303.544
303.545
303.545
303.549
303.548
303.547
303.546
303.546
303.545
303.545
303.545
303.545
303.545
303.545
303.546
303.546
303.547
303.551
303.55
303.549
303.548
303.548
303.547
303.547
303.547
303.547
303.547
303.547
303.547
303.548
303.549
303.553
303.552
303.551
303.551
303.55
303.549
303.549
303.549
303.549
303.549
303.549
303.549
303.55
303.55
303.555
303.554
303.554
303.553
303.552
303.552
303.551
303.551
303.551
303.551
303.551
303.551
303.552
303.552
303.558
303.557
303.556
303.555
303.555
303.554
303.554
303.553
303.553
303.553
303.553
303.554
303.554
303.554
303.56
303.559
303.558
303.558
303.557
303.557
303.556
303.556
303.556
303.556
303.556
303.556
303.556
303.556
303.563
303.562
303.561
303.56
303.56
303.559
303.559
303.559
303.558
303.558
303.558
303.558
303.559
303.558
303.287
303.287
303.286
303.285
303.285
303.284
303.283
303.283
303.282
303.281
303.281
303.28
303.28
303.279
303.288
303.287
303.286
303.285
303.285
303.284
303.283
303.283
303.282
303.281
303.281
303.28
303.28
303.279
303.288
303.287
303.286
303.285
303.284
303.284
303.283
303.282
303.282
303.281
303.281
303.28
303.28
303.279
303.288
303.287
303.286
303.285
303.284
303.284
303.283
303.282
303.282
303.281
303.281
303.28
303.28
303.279
303.288
303.287
303.286
303.285
303.285
303.284
303.283
303.282
303.282
303.281
303.281
303.28
303.28
303.28
303.288
303.287
303.286
303.286
303.285
303.284
303.283
303.283
303.282
303.281
303.281
303.281
303.28
303.28
303.289
303.288
303.287
303.286
303.285
303.284
303.283
303.283
303.282
303.282
303.281
303.281
303.281
303.28
303.289
303.288
303.287
303.286
303.285
303.284
303.284
303.283
303.282
303.282
303.281
303.281
303.281
303.281
303.29
303.288
303.287
303.287
303.286
303.285
303.284
303.283
303.283
303.282
303.282
303.281
303.281
303.281
303.29
303.289
303.288
303.287
303.286
303.285
303.285
303.284
303.283
303.283
303.282
303.282
303.282
303.281
303.291
303.29
303.289
303.288
303.287
303.286
303.285
303.284
303.284
303.283
303.283
303.282
303.282
303.282
303.291
303.29
303.289
303.288
303.287
303.287
303.286
303.285
303.284
303.284
303.283
303.283
303.283
303.282
303.292
303.291
303.29
303.289
303.288
303.287
303.286
303.286
303.285
303.284
303.284
303.283
303.283
303.283
303.293
303.292
303.291
303.29
303.289
303.288
303.287
303.286
303.286
303.285
303.285
303.284
303.284
303.283
303.058
303.058
303.058
303.058
303.057
303.057
303.056
303.056
303.055
303.054
303.054
303.053
303.052
303.051
303.059
303.058
303.058
303.058
303.057
303.057
303.056
303.056
303.055
303.054
303.053
303.053
303.052
303.05
303.059
303.058
303.058
303.058
303.057
303.057
303.056
303.056
303.055
303.054
303.053
303.052
303.051
303.05
303.059
303.058
303.058
303.058
303.057
303.057
303.056
303.055
303.055
303.054
303.053
303.052
303.051
303.05
303.058
303.058
303.058
303.057
303.057
303.056
303.056
303.055
303.054
303.054
303.053
303.052
303.051
303.05
303.058
303.058
303.057
303.057
303.057
303.056
303.055
303.055
303.054
303.053
303.053
303.052
303.051
303.05
303.058
303.057
303.057
303.057
303.056
303.056
303.055
303.055
303.054
303.053
303.052
303.051
303.05
303.049
303.057
303.057
303.057
303.056
303.056
303.055
303.055
303.054
303.053
303.053
303.052
303.051
303.05
303.049
303.057
303.057
303.056
303.056
303.055
303.055
303.054
303.054
303.053
303.052
303.051
303.051
303.05
303.049
303.057
303.056
303.056
303.055
303.055
303.054
303.054
303.053
303.052
303.052
303.051
303.05
303.049
303.048
303.056
303.056
303.055
303.055
303.054
303.054
303.053
303.053
303.052
303.051
303.05
303.05
303.049
303.048
303.055
303.055
303.055
303.054
303.054
303.053
303.053
303.052
303.051
303.051
303.05
303.049
303.048
303.047
303.055
303.055
303.054
303.054
303.053
303.053
303.052
303.051
303.051
303.05
303.049
303.048
303.048
303.047
303.054
303.054
303.054
303.053
303.053
303.052
303.051
303.051
303.05
303.049
303.048
303.048
303.047
303.046
302.85
302.85
302.851
302.851
302.851
302.851
302.851
302.85
302.85
302.849
302.849
302.848
302.847
302.845
302.85
302.851
302.851
302.851
302.851
302.851
302.851
302.851
302.85
302.85
302.849
302.848
302.847
302.845
302.851
302.851
302.851
302.852
302.852
302.852
302.851
302.851
302.851
302.85
302.849
302.848
302.847
302.846
302.851
302.851
302.852
302.852
302.852
302.852
302.852
302.851
302.851
302.85
302.849
302.848
302.847
302.846
302.851
302.851
302.852
302.852
302.852
302.852
302.852
302.851
302.851
302.85
302.849
302.848
302.847
302.846
302.851
302.851
302.852
302.852
302.852
302.852
302.852
302.851
302.851
302.85
302.849
302.848
302.847
302.845
302.85
302.851
302.851
302.852
302.852
302.852
302.851
302.851
302.85
302.85
302.849
302.848
302.846
302.845
302.85
302.85
302.851
302.851
302.851
302.851
302.851
302.85
302.85
302.849
302.848
302.847
302.846
302.845
302.849
302.85
302.85
302.85
302.851
302.85
302.85
302.85
302.849
302.849
302.848
302.847
302.845
302.844
302.848
302.849
302.849
302.85
302.85
302.85
302.849
302.849
302.848
302.848
302.847
302.846
302.845
302.844
302.847
302.848
302.848
302.849
302.849
302.849
302.848
302.848
302.847
302.847
302.846
302.845
302.844
302.843
302.846
302.847
302.847
302.848
302.848
302.848
302.847
302.847
302.846
302.846
302.845
302.844
302.843
302.842
302.845
302.846
302.846
302.846
302.846
302.846
302.846
302.846
302.845
302.844
302.844
302.843
302.842
302.841
302.844
302.844
302.845
302.845
302.845
302.845
302.845
302.844
302.844
302.843
302.842
302.841
302.84
302.84
302.659
302.66
302.66
302.661
302.661
302.662
302.662
302.662
302.662
302.661
302.66
302.66
302.659
302.657
302.66
302.661
302.661
302.662
302.662
302.663
302.663
302.663
302.662
302.662
302.661
302.66
302.659
302.658
302.66
302.661
302.662
302.663
302.663
302.664
302.664
302.664
302.663
302.663
302.662
302.661
302.66
302.659
302.661
302.662
302.663
302.663
302.664
302.664
302.664
302.664
302.664
302.663
302.663
302.662
302.66
302.659
302.661
302.662
302.663
302.664
302.664
302.665
302.665
302.665
302.664
302.664
302.663
302.662
302.661
302.659
302.661
302.662
302.663
302.664
302.665
302.665
302.665
302.665
302.665
302.664
302.663
302.662
302.661
302.66
302.661
302.662
302.663
302.664
302.665
302.665
302.665
302.665
302.665
302.664
302.663
302.662
302.661
302.66
302.661
302.662
302.663
302.664
302.664
302.665
302.665
302.665
302.664
302.664
302.663
302.662
302.661
302.659
302.66
302.662
302.663
302.663
302.664
302.664
302.664
302.664
302.664
302.663
302.662
302.662
302.66
302.659
302.66
302.661
302.662
302.663
302.663
302.664
302.664
302.663
302.663
302.663
302.662
302.661
302.66
302.658
302.659
302.66
302.661
302.662
302.662
302.663
302.663
302.663
302.662
302.662
302.661
302.66
302.659
302.658
302.658
302.659
302.66
302.661
302.661
302.661
302.661
302.661
302.661
302.66
302.66
302.659
302.658
302.657
302.657
302.658
302.658
302.659
302.66
302.66
302.66
302.66
302.66
302.659
302.658
302.658
302.657
302.655
302.655
302.656
302.657
302.658
302.658
302.658
302.659
302.658
302.658
302.658
302.657
302.656
302.655
302.654
302.482
302.483
302.484
302.485
302.485
302.486
302.486
302.486
302.486
302.486
302.485
302.485
302.484
302.483
302.483
302.484
302.485
302.486
302.487
302.487
302.488
302.488
302.487
302.487
302.487
302.486
302.485
302.484
302.484
302.485
302.486
302.487
302.488
302.488
302.489
302.489
302.489
302.488
302.488
302.487
302.486
302.485
302.485
302.486
302.487
302.488
302.489
302.489
302.49
302.49
302.489
302.489
302.488
302.488
302.487
302.485
302.485
302.487
302.488
302.489
302.49
302.49
302.49
302.49
302.49
302.49
302.489
302.488
302.487
302.486
302.486
302.487
302.488
302.489
302.49
302.491
302.491
302.491
302.491
302.49
302.49
302.489
302.488
302.486
302.486
302.487
302.489
302.49
302.49
302.491
302.491
302.491
302.491
302.49
302.49
302.489
302.488
302.487
302.486
302.487
302.489
302.49
302.49
302.491
302.491
302.491
302.491
302.49
302.49
302.489
302.488
302.487
302.486
302.487
302.488
302.489
302.49
302.491
302.491
302.491
302.491
302.49
302.49
302.489
302.488
302.486
302.485
302.487
302.488
302.489
302.49
302.49
302.49
302.49
302.49
302.49
302.489
302.488
302.487
302.486
302.485
302.486
302.487
302.488
302.489
302.489
302.49
302.49
302.489
302.489
302.488
302.488
302.487
302.485
302.484
302.485
302.486
302.487
302.488
302.488
302.489
302.489
302.489
302.488
302.488
302.487
302.486
302.485
302.483
302.484
302.485
302.486
302.487
302.487
302.487
302.487
302.487
302.487
302.486
302.486
302.485
302.484
302.482
302.483
302.484
302.485
302.485
302.486
302.486
302.486
302.486
302.486
302.485
302.484
302.483
302.482
302.317
302.318
302.319
302.32
302.32
302.321
302.321
302.321
302.321
302.321
302.32
302.32
302.319
302.318
302.318
302.319
302.32
302.321
302.322
302.322
302.322
302.322
302.322
302.322
302.322
302.321
302.32
302.319
302.319
302.32
302.321
302.322
302.323
302.323
302.323
302.324
302.323
302.323
302.323
302.322
302.321
302.32
302.32
302.321
302.322
302.323
302.324
302.324
302.324
302.324
302.324
302.324
302.324
302.323
302.322
302.321
302.32
302.322
302.323
302.324
302.324
302.325
302.325
302.325
302.325
302.325
302.324
302.324
302.323
302.322
302.321
302.322
302.323
302.324
302.325
302.325
302.326
302.326
302.326
302.325
302.325
302.324
302.323
302.322
302.321
302.322
302.324
302.324
302.325
302.326
302.326
302.326
302.326
302.326
302.325
302.324
302.324
302.323
302.321
302.323
302.324
302.325
302.325
302.326
302.326
302.326
302.326
302.326
302.325
302.325
302.324
302.323
302.321
302.323
302.324
302.324
302.325
302.326
302.326
302.326
302.326
302.326
302.325
302.325
302.324
302.323
302.321
302.322
302.323
302.324
302.325
302.325
302.326
302.326
302.326
302.325
302.325
302.324
302.323
302.322
302.321
302.322
302.323
302.324
302.324
302.325
302.325
302.325
302.325
302.325
302.325
302.324
302.323
302.322
302.32
302.321
302.322
302.323
302.324
302.324
302.325
302.325
302.325
302.324
302.324
302.323
302.322
302.321
302.319
302.32
302.321
302.322
302.323
302.323
302.324
302.324
302.324
302.323
302.323
302.322
302.322
302.321
302.318
302.319
302.32
302.321
302.322
302.322
302.323
302.323
302.323
302.322
302.322
302.321
302.321
302.32
302.162
302.163
302.163
302.164
302.164
302.165
302.165
302.165
302.165
302.164
302.164
302.164
302.163
302.163
302.163
302.163
302.164
302.165
302.165
302.165
302.166
302.166
302.166
302.165
302.165
302.165
302.164
302.164
302.163
302.164
302.165
302.165
302.166
302.166
302.166
302.166
302.166
302.166
302.166
302.165
302.165
302.164
302.164
302.165
302.165
302.166
302.166
302.167
302.167
302.167
302.167
302.167
302.166
302.166
302.166
302.165
302.164
302.165
302.166
302.166
302.167
302.167
302.167
302.167
302.167
302.167
302.167
302.167
302.166
302.165
302.165
302.165
302.166
302.167
302.167
302.168
302.168
302.168
302.168
302.168
302.167
302.167
302.166
302.166
302.165
302.166
302.166
302.167
302.167
302.168
302.168
302.168
302.168
302.168
302.168
302.167
302.167
302.166
302.165
302.166
302.167
302.167
302.168
302.168
302.168
302.168
302.168
302.168
302.168
302.167
302.167
302.166
302.165
302.166
302.167
302.167
302.168
302.168
302.168
302.168
302.168
302.168
302.168
302.167
302.167
302.166
302.165
302.166
302.166
302.167
302.167
302.168
302.168
302.168
302.168
302.168
302.168
302.167
302.167
302.166
302.165
302.165
302.166
302.167
302.167
302.168
302.168
302.168
302.168
302.168
302.167
302.167
302.166
302.166
302.164
302.165
302.166
302.166
302.167
302.167
302.167
302.167
302.167
302.167
302.167
302.167
302.166
302.165
302.164
302.164
302.165
302.166
302.166
302.167
302.167
302.167
302.167
302.167
302.167
302.166
302.165
302.165
302.163
302.164
302.164
302.165
302.165
302.166
302.166
302.166
302.166
302.166
302.166
302.166
302.165
302.164
302.015
302.016
302.016
302.016
302.016
302.017
302.017
302.016
302.016
302.016
302.016
302.016
302.016
302.016
302.016
302.016
302.016
302.017
302.017
302.017
302.017
302.017
302.017
302.017
302.017
302.016
302.016
302.016
302.016
302.016
302.017
302.017
302.017
302.017
302.017
302.017
302.017
302.017
302.017
302.017
302.017
302.016
302.016
302.016
302.017
302.017
302.017
302.017
302.017
302.017
302.017
302.017
302.017
302.017
302.017
302.017
302.016
302.017
302.017
302.017
302.017
302.017
302.017
302.017
302.017
302.017
302.017
302.017
302.017
302.017
302.016
302.017
302.017
302.017
302.017
302.017
302.018
302.018
302.018
302.017
302.017
302.017
302.017
302.017
302.017
302.017
302.017
302.017
302.017
302.018
302.018
302.018
302.018
302.018
302.017
302.017
302.017
302.017
302.017
302.017
302.017
302.017
302.017
302.018
302.018
302.018
302.018
302.018
302.017
302.017
302.017
302.017
302.017
302.017
302.017
302.017
302.017
302.018
302.018
302.018
302.018
302.018
302.017
302.017
302.017
302.017
302.017
302.017
302.017
302.017
302.017
302.018
302.018
302.018
302.018
302.018
302.017
302.017
302.017
302.017
302.016
302.017
302.017
302.017
302.017
302.017
302.017
302.018
302.018
302.017
302.017
302.017
302.017
302.017
302.016
302.016
302.017
302.017
302.017
302.017
302.017
302.017
302.017
302.017
302.017
302.017
302.017
302.016
302.016
302.016
302.016
302.017
302.017
302.017
302.017
302.017
302.017
302.017
302.017
302.017
302.017
302.016
302.016
302.016
302.016
302.016
302.017
302.017
302.017
302.017
302.017
302.017
302.017
302.017
302.017
302.016
306.442
306.438
306.436
306.434
306.431
306.429
306.428
306.423
306.421
306.418
306.415
306.412
306.46
306.472
306.482
306.493
306.501
306.51
306.452
306.466
306.478
306.491
306.502
306.513
306.445
306.461
306.474
306.488
306.5
306.512
306.437
306.453
306.467
306.482
306.494
306.506
306.427
306.444
306.458
306.472
306.485
306.496
306.417
306.433
306.447
306.46
306.471
306.482
306.406
306.421
306.433
306.445
306.455
306.463
306.394
306.407
306.418
306.427
306.436
306.443
306.382
306.392
306.401
306.408
306.415
306.42
306.369
306.376
306.383
306.388
306.393
306.395
306.355
306.36
306.365
306.368
306.37
306.371
306.341
306.343
306.346
306.347
306.347
306.347
306.328
306.327
306.327
306.327
306.326
306.324
306.313
306.309
306.308
306.306
306.304
306.301
306.249
306.261
306.272
306.281
306.29
306.299
306.244
306.259
306.272
306.285
306.297
306.309
306.24
306.258
306.273
306.289
306.303
306.316
306.235
306.255
306.272
306.288
306.303
306.317
306.229
306.249
306.267
306.284
306.3
306.315