/*--------------------------------*- C++ -*----------------------------------*\
| =========                 |                                                 |
| \\      /  F ield         | OpenFOAM: The Open Source CFD Toolbox           |
|  \\    /   O peration     | Version:  v2106                                 |
|   \\  /    A nd           | Website:  www.openfoam.com                      |
|    \\/     M anipulation  |                                                 |
\*---------------------------------------------------------------------------*/
FoamFile
{
    version     2.0;
    format      ascii;
    arch        "LSB;label=32;scalar=64";
    class       volVectorField;
    location    "0.000147";
    object      U;
}
// * * * * * * * * * * * * * * * * * * * * * * * * * * * * * * * * * * * * * //

dimensions      [0 1 -1 0 0 0 0];

internalField   nonuniform List<vector> 
18265
(
(7.4068e-05 7.40687e-05 -0.00911538)
(6.07624e-05 7.16444e-05 -0.00911286)
(4.92547e-05 7.35159e-05 -0.00910855)
(3.79127e-05 7.22468e-05 -0.0091052)
(2.68299e-05 7.20523e-05 -0.00910305)
(1.60627e-05 7.15182e-05 -0.00910183)
(5.17301e-06 7.12081e-05 -0.00910153)
(-5.17136e-06 7.12079e-05 -0.00910153)
(-1.60618e-05 7.15181e-05 -0.00910183)
(-2.68295e-05 7.20525e-05 -0.00910305)
(-3.7913e-05 7.22469e-05 -0.0091052)
(-4.92564e-05 7.35169e-05 -0.00910855)
(-6.07653e-05 7.16477e-05 -0.00911286)
(-7.40733e-05 7.40748e-05 -0.00911538)
(7.16439e-05 6.07624e-05 -0.00911286)
(5.99964e-05 5.99963e-05 -0.00911052)
(4.95713e-05 6.11464e-05 -0.00910599)
(3.87835e-05 6.03828e-05 -0.00910254)
(2.7797e-05 6.03323e-05 -0.00909981)
(1.67773e-05 6.01259e-05 -0.00909769)
(5.41807e-06 6.00513e-05 -0.00909695)
(-5.41667e-06 6.00515e-05 -0.00909695)
(-1.67766e-05 6.01261e-05 -0.00909769)
(-2.7797e-05 6.03327e-05 -0.00909981)
(-3.87845e-05 6.03835e-05 -0.00910254)
(-4.95737e-05 6.11482e-05 -0.00910599)
(-5.99993e-05 5.99997e-05 -0.00911051)
(-7.16471e-05 6.07673e-05 -0.00911286)
(7.35149e-05 4.92541e-05 -0.00910855)
(6.11464e-05 4.95707e-05 -0.00910599)
(5.03736e-05 5.0373e-05 -0.00910089)
(3.90788e-05 4.97776e-05 -0.00909784)
(2.7874e-05 4.96344e-05 -0.00909527)
(1.67169e-05 4.93258e-05 -0.00909352)
(5.38178e-06 4.92425e-05 -0.0090929)
(-5.38027e-06 4.92429e-05 -0.0090929)
(-1.67158e-05 4.93262e-05 -0.00909351)
(-2.78735e-05 4.96351e-05 -0.00909527)
(-3.90793e-05 4.97789e-05 -0.00909784)
(-5.03754e-05 5.0375e-05 -0.00910088)
(-6.11493e-05 4.95735e-05 -0.00910599)
(-7.35194e-05 4.92556e-05 -0.00910855)
(7.22456e-05 3.79116e-05 -0.0091052)
(6.03825e-05 3.87825e-05 -0.00910254)
(4.97781e-05 3.90778e-05 -0.00909784)
(3.87452e-05 3.87443e-05 -0.00909487)
(2.77195e-05 3.85873e-05 -0.00909241)
(1.66587e-05 3.8354e-05 -0.00909067)
(5.36867e-06 3.82961e-05 -0.00909006)
(-5.36732e-06 3.82967e-05 -0.00909006)
(-1.66576e-05 3.83546e-05 -0.00909067)
(-2.77188e-05 3.85883e-05 -0.00909241)
(-3.87453e-05 3.87459e-05 -0.00909487)
(-4.97793e-05 3.90803e-05 -0.00909784)
(-6.03846e-05 3.87855e-05 -0.00910253)
(-7.22503e-05 3.79126e-05 -0.00910519)
(7.20517e-05 2.68289e-05 -0.00910306)
(6.03323e-05 2.7796e-05 -0.00909981)
(4.96351e-05 2.78729e-05 -0.00909527)
(3.85883e-05 2.77183e-05 -0.00909241)
(2.75978e-05 2.75967e-05 -0.00909)
(1.65733e-05 2.74288e-05 -0.00908834)
(5.34021e-06 2.73887e-05 -0.00908773)
(-5.33809e-06 2.73892e-05 -0.00908773)
(-1.65712e-05 2.74292e-05 -0.00908834)
(-2.75957e-05 2.75975e-05 -0.00909)
(-3.85859e-05 2.77195e-05 -0.00909241)
(-4.96323e-05 2.78745e-05 -0.00909527)
(-6.03286e-05 2.77973e-05 -0.00909981)
(-7.20467e-05 2.68292e-05 -0.00910305)
(7.1517e-05 1.60619e-05 -0.00910184)
(6.01256e-05 1.67763e-05 -0.00909769)
(4.93262e-05 1.67158e-05 -0.00909352)
(3.8355e-05 1.66575e-05 -0.00909067)
(2.74299e-05 1.65721e-05 -0.00908834)
(1.64751e-05 1.64739e-05 -0.00908668)
(5.30915e-06 1.6449e-05 -0.00908607)
(-5.30705e-06 1.64495e-05 -0.00908607)
(-1.64732e-05 1.64742e-05 -0.00908668)
(-2.74284e-05 1.65728e-05 -0.00908834)
(-3.8354e-05 1.66584e-05 -0.00909067)
(-4.93263e-05 1.67169e-05 -0.00909351)
(-6.01266e-05 1.6777e-05 -0.00909769)
(-7.15213e-05 1.60623e-05 -0.00910183)
(7.12067e-05 5.17182e-06 -0.00910153)
(6.0051e-05 5.41682e-06 -0.00909696)
(4.92429e-05 5.38065e-06 -0.0090929)
(3.82971e-05 5.36755e-06 -0.00909006)
(2.739e-05 5.33906e-06 -0.00908773)
(1.64503e-05 5.30795e-06 -0.00908607)
(5.30151e-06 5.30032e-06 -0.00908547)
(-5.29923e-06 5.30076e-06 -0.00908547)
(-1.64481e-05 5.30836e-06 -0.00908607)
(-2.73879e-05 5.33975e-06 -0.00908773)
(-3.82953e-05 5.36845e-06 -0.00909006)
(-4.92416e-05 5.38174e-06 -0.0090929)
(-6.005e-05 5.41799e-06 -0.00909695)
(-7.12085e-05 5.17316e-06 -0.00910152)
(7.1207e-05 -5.17236e-06 -0.00910153)
(6.00512e-05 -5.41778e-06 -0.00909696)
(4.92432e-05 -5.38129e-06 -0.0090929)
(3.82975e-05 -5.36835e-06 -0.00909006)
(2.73903e-05 -5.33907e-06 -0.00908773)
(1.64506e-05 -5.30811e-06 -0.00908607)
(5.3018e-06 -5.30024e-06 -0.00908547)
(-5.29902e-06 -5.29994e-06 -0.00908547)
(-1.64479e-05 -5.30798e-06 -0.00908607)
(-2.73876e-05 -5.33886e-06 -0.00908773)
(-3.82948e-05 -5.36795e-06 -0.00909006)
(-4.92409e-05 -5.38077e-06 -0.0090929)
(-6.00489e-05 -5.4167e-06 -0.00909695)
(-7.1207e-05 -5.17101e-06 -0.00910152)
(7.15171e-05 -1.60627e-05 -0.00910184)
(6.01259e-05 -1.67775e-05 -0.00909769)
(4.93266e-05 -1.67166e-05 -0.00909352)
(3.83554e-05 -1.66585e-05 -0.00909067)
(2.74303e-05 -1.65721e-05 -0.00908834)
(1.64754e-05 -1.64741e-05 -0.00908668)
(5.30938e-06 -1.6449e-05 -0.00908607)
(-5.30701e-06 -1.64488e-05 -0.00908607)
(-1.64731e-05 -1.64741e-05 -0.00908668)
(-2.74283e-05 -1.6572e-05 -0.00908833)
(-3.8354e-05 -1.66583e-05 -0.00909067)
(-4.93261e-05 -1.67163e-05 -0.00909351)
(-6.01261e-05 -1.67762e-05 -0.00909769)
(-7.15203e-05 -1.60606e-05 -0.00910183)
(7.20515e-05 -2.68301e-05 -0.00910306)
(6.03324e-05 -2.77977e-05 -0.00909981)
(4.96356e-05 -2.78742e-05 -0.00909527)
(3.85892e-05 -2.77197e-05 -0.00909241)
(2.75986e-05 -2.75965e-05 -0.00909)
(1.65739e-05 -2.74293e-05 -0.00908834)
(5.34079e-06 -2.73887e-05 -0.00908773)
(-5.33787e-06 -2.73886e-05 -0.00908773)
(-1.6571e-05 -2.74293e-05 -0.00908834)
(-2.75956e-05 -2.75966e-05 -0.00909)
(-3.85859e-05 -2.77197e-05 -0.00909241)
(-4.96317e-05 -2.78743e-05 -0.00909527)
(-6.03273e-05 -2.7797e-05 -0.00909981)
(-7.20447e-05 -2.68277e-05 -0.00910305)
(7.22458e-05 -3.79134e-05 -0.0091052)
(6.0383e-05 -3.87851e-05 -0.00910254)
(4.97791e-05 -3.90797e-05 -0.00909784)
(3.87466e-05 -3.87461e-05 -0.00909487)
(2.77205e-05 -3.85867e-05 -0.00909241)
(1.66595e-05 -3.8355e-05 -0.00909067)
(5.3694e-06 -3.82961e-05 -0.00909006)
(-5.36706e-06 -3.8296e-05 -0.00909006)
(-1.66573e-05 -3.83551e-05 -0.00909067)
(-2.77188e-05 -3.85871e-05 -0.00909241)
(-3.87456e-05 -3.87467e-05 -0.00909487)
(-4.97791e-05 -3.90809e-05 -0.00909784)
(-6.03837e-05 -3.87859e-05 -0.00910253)
(-7.22486e-05 -3.79115e-05 -0.00910519)
(7.35157e-05 -4.92563e-05 -0.00910855)
(6.11475e-05 -4.9574e-05 -0.00910599)
(5.03751e-05 -5.03757e-05 -0.00910089)
(3.90809e-05 -4.97802e-05 -0.00909784)
(2.78753e-05 -4.96331e-05 -0.00909527)
(1.67179e-05 -4.93274e-05 -0.00909351)
(5.38267e-06 -4.92424e-05 -0.0090929)
(-5.37993e-06 -4.92424e-05 -0.0090929)
(-1.67153e-05 -4.93273e-05 -0.00909351)
(-2.78733e-05 -4.96333e-05 -0.00909527)
(-3.90796e-05 -4.97802e-05 -0.00909784)
(-5.0375e-05 -5.03765e-05 -0.00910088)
(-6.1148e-05 -4.95746e-05 -0.00910599)
(-7.35176e-05 -4.92551e-05 -0.00910855)
(7.16458e-05 -6.07648e-05 -0.00911287)
(5.99983e-05 -5.99996e-05 -0.00911052)
(4.95728e-05 -6.11494e-05 -0.00910599)
(3.87856e-05 -6.03854e-05 -0.00910254)
(2.77978e-05 -6.03291e-05 -0.00909981)
(1.67777e-05 -6.01278e-05 -0.00909769)
(5.41879e-06 -6.00508e-05 -0.00909695)
(-5.41603e-06 -6.00508e-05 -0.00909695)
(-1.67754e-05 -6.01274e-05 -0.00909769)
(-2.77962e-05 -6.03291e-05 -0.00909981)
(-3.8785e-05 -6.03848e-05 -0.00910253)
(-4.95738e-05 -6.11496e-05 -0.00910599)
(-5.99995e-05 -6.00004e-05 -0.00911051)
(-7.16471e-05 -6.07666e-05 -0.00911286)
(7.40734e-05 -7.40726e-05 -0.00911538)
(6.07659e-05 -7.16474e-05 -0.00911287)
(4.92549e-05 -7.35198e-05 -0.00910856)
(3.79125e-05 -7.22512e-05 -0.0091052)
(2.68294e-05 -7.20471e-05 -0.00910305)
(1.60628e-05 -7.15224e-05 -0.00910183)
(5.17381e-06 -7.12093e-05 -0.00910152)
(-5.17047e-06 -7.12091e-05 -0.00910152)
(-1.606e-05 -7.15218e-05 -0.00910183)
(-2.68271e-05 -7.20467e-05 -0.00910305)
(-3.79105e-05 -7.22497e-05 -0.00910519)
(-4.92541e-05 -7.35189e-05 -0.00910855)
(-6.07656e-05 -7.16483e-05 -0.00911286)
(-7.40745e-05 -7.40762e-05 -0.00911538)
(9.29756e-05 9.29751e-05 -0.0114531)
(7.64539e-05 8.99854e-05 -0.0114503)
(6.19494e-05 9.22785e-05 -0.0114453)
(4.76926e-05 9.07079e-05 -0.0114414)
(3.37499e-05 9.04331e-05 -0.0114389)
(2.02031e-05 8.98016e-05 -0.0114375)
(6.52163e-06 8.94163e-05 -0.0114372)
(-6.52032e-06 8.94168e-05 -0.0114372)
(-2.02017e-05 8.98022e-05 -0.0114375)
(-3.37486e-05 9.04349e-05 -0.0114389)
(-4.76912e-05 9.07103e-05 -0.0114414)
(-6.19476e-05 9.22817e-05 -0.0114453)
(-7.64524e-05 8.99869e-05 -0.0114503)
(-9.29723e-05 9.29749e-05 -0.0114531)
(8.99859e-05 7.64524e-05 -0.0114503)
(7.54377e-05 7.54365e-05 -0.0114476)
(6.2242e-05 7.68598e-05 -0.0114424)
(4.86849e-05 7.58724e-05 -0.0114384)
(3.48751e-05 7.5762e-05 -0.0114353)
(2.10403e-05 7.54892e-05 -0.0114328)
(6.81107e-06 7.5375e-05 -0.0114319)
(-6.809e-06 7.53756e-05 -0.0114319)
(-2.10383e-05 7.54901e-05 -0.0114328)
(-3.48726e-05 7.57634e-05 -0.0114353)
(-4.86819e-05 7.58745e-05 -0.0114384)
(-6.22381e-05 7.68623e-05 -0.0114424)
(-7.54344e-05 7.54386e-05 -0.0114476)
(-8.9983e-05 7.64537e-05 -0.0114503)
(9.22797e-05 6.19483e-05 -0.0114453)
(7.68611e-05 6.22406e-05 -0.0114424)
(6.32445e-05 6.32432e-05 -0.0114364)
(4.90738e-05 6.24738e-05 -0.0114329)
(3.49943e-05 6.22812e-05 -0.0114299)
(2.09866e-05 6.18995e-05 -0.0114279)
(6.77353e-06 6.17862e-05 -0.0114272)
(-6.77091e-06 6.17868e-05 -0.0114272)
(-2.09838e-05 6.19002e-05 -0.0114279)
(-3.49909e-05 6.2282e-05 -0.0114299)
(-4.90694e-05 6.24748e-05 -0.0114329)
(-6.32388e-05 6.32444e-05 -0.0114364)
(-7.68549e-05 6.2242e-05 -0.0114424)
(-9.22722e-05 6.19533e-05 -0.0114453)
(9.07081e-05 4.76915e-05 -0.0114414)
(7.58734e-05 4.86837e-05 -0.0114384)
(6.24751e-05 4.90726e-05 -0.0114329)
(4.86189e-05 4.86178e-05 -0.0114295)
(3.47668e-05 4.84145e-05 -0.0114267)
(2.08897e-05 4.81179e-05 -0.0114246)
(6.7492e-06 4.8037e-05 -0.0114239)
(-6.74633e-06 4.80375e-05 -0.0114239)
(-2.08868e-05 4.81182e-05 -0.0114246)
(-3.47636e-05 4.8415e-05 -0.0114267)
(-4.86155e-05 4.86181e-05 -0.0114295)
(-6.24715e-05 4.90733e-05 -0.0114329)
(-7.58702e-05 4.86843e-05 -0.0114384)
(-9.07048e-05 4.76978e-05 -0.0114414)
(9.04344e-05 3.3749e-05 -0.0114389)
(7.57633e-05 3.48741e-05 -0.0114353)
(6.22826e-05 3.49934e-05 -0.0114299)
(4.84157e-05 3.47659e-05 -0.0114266)
(3.46142e-05 3.46132e-05 -0.0114239)
(2.07841e-05 3.43992e-05 -0.0114219)
(6.71373e-06 3.43443e-05 -0.0114212)
(-6.71105e-06 3.4345e-05 -0.0114212)
(-2.07815e-05 3.43997e-05 -0.0114219)
(-3.46117e-05 3.4614e-05 -0.0114239)
(-4.84137e-05 3.47668e-05 -0.0114267)
(-6.22816e-05 3.4995e-05 -0.0114299)
(-7.57638e-05 3.48763e-05 -0.0114353)
(-9.04386e-05 3.37543e-05 -0.0114389)
(8.98019e-05 2.0202e-05 -0.0114375)
(7.54904e-05 2.10393e-05 -0.0114328)
(6.19009e-05 2.09858e-05 -0.0114279)
(4.81191e-05 2.08889e-05 -0.0114246)
(3.44003e-05 2.07834e-05 -0.0114219)
(2.06577e-05 2.06569e-05 -0.01142)
(6.67375e-06 2.06231e-05 -0.0114193)
(-6.66997e-06 2.06236e-05 -0.0114193)
(-2.06537e-05 2.06573e-05 -0.01142)
(-3.43958e-05 2.07841e-05 -0.0114219)
(-4.8114e-05 2.089e-05 -0.0114246)
(-6.18949e-05 2.09875e-05 -0.0114279)
(-7.54832e-05 2.1042e-05 -0.0114328)
(-8.9794e-05 2.02056e-05 -0.0114375)
(8.94173e-05 6.52017e-06 -0.0114372)
(7.53764e-05 6.80973e-06 -0.0114319)
(6.17877e-05 6.77246e-06 -0.0114272)
(4.80384e-05 6.74823e-06 -0.0114239)
(3.43455e-05 6.71287e-06 -0.0114212)
(2.06239e-05 6.67289e-06 -0.0114193)
(6.66308e-06 6.66229e-06 -0.0114186)
(-6.65975e-06 6.66287e-06 -0.0114186)
(-2.06205e-05 6.67344e-06 -0.0114193)
(-3.43419e-05 6.71376e-06 -0.0114212)
(-4.80347e-05 6.74954e-06 -0.0114239)
(-6.1784e-05 6.77422e-06 -0.0114272)
(-7.53726e-05 6.81224e-06 -0.0114319)
(-8.94137e-05 6.52319e-06 -0.0114372)
(8.94182e-05 -6.52155e-06 -0.0114372)
(7.53771e-05 -6.81002e-06 -0.0114319)
(6.17883e-05 -6.77157e-06 -0.0114272)
(4.80388e-05 -6.74688e-06 -0.0114239)
(3.43459e-05 -6.71142e-06 -0.0114212)
(2.06243e-05 -6.67044e-06 -0.0114193)
(6.66336e-06 -6.6601e-06 -0.0114186)
(-6.6594e-06 -6.65962e-06 -0.0114186)
(-2.06201e-05 -6.67001e-06 -0.0114193)
(-3.43415e-05 -6.71067e-06 -0.0114212)
(-4.80341e-05 -6.74572e-06 -0.0114239)
(-6.17832e-05 -6.77013e-06 -0.0114272)
(-7.53717e-05 -6.808e-06 -0.0114319)
(-8.94122e-05 -6.51896e-06 -0.0114372)
(8.9804e-05 -2.02031e-05 -0.0114375)
(7.54918e-05 -2.10396e-05 -0.0114328)
(6.19019e-05 -2.09849e-05 -0.0114279)
(4.81197e-05 -2.08878e-05 -0.0114246)
(3.44009e-05 -2.07823e-05 -0.0114219)
(2.06581e-05 -2.06545e-05 -0.01142)
(6.674e-06 -2.06212e-05 -0.0114193)
(-6.66957e-06 -2.06207e-05 -0.0114193)
(-2.06534e-05 -2.0654e-05 -0.01142)
(-3.43955e-05 -2.07815e-05 -0.0114219)
(-4.81135e-05 -2.08865e-05 -0.0114246)
(-6.18945e-05 -2.09835e-05 -0.0114279)
(-7.54831e-05 -2.10379e-05 -0.0114328)
(-8.97939e-05 -2.02015e-05 -0.0114375)
(9.04364e-05 -3.37502e-05 -0.0114389)
(7.57653e-05 -3.48744e-05 -0.0114353)
(6.22841e-05 -3.49923e-05 -0.0114299)
(4.84168e-05 -3.4765e-05 -0.0114266)
(3.46154e-05 -3.46129e-05 -0.0114239)
(2.07851e-05 -3.4397e-05 -0.0114219)
(6.71437e-06 -3.43429e-05 -0.0114212)
(-6.71015e-06 -3.43425e-05 -0.0114212)
(-2.07808e-05 -3.43965e-05 -0.0114219)
(-3.4611e-05 -3.46121e-05 -0.0114239)
(-4.84127e-05 -3.47636e-05 -0.0114266)
(-6.22806e-05 -3.49908e-05 -0.0114299)
(-7.57631e-05 -3.4872e-05 -0.0114353)
(-9.04376e-05 -3.375e-05 -0.0114389)
(9.07122e-05 -4.76932e-05 -0.0114414)
(7.58763e-05 -4.8684e-05 -0.0114384)
(6.24768e-05 -4.90712e-05 -0.0114329)
(4.86199e-05 -4.86174e-05 -0.0114295)
(3.47682e-05 -4.84154e-05 -0.0114266)
(2.0891e-05 -4.81158e-05 -0.0114246)
(6.75003e-06 -4.80362e-05 -0.0114239)
(-6.74511e-06 -4.80358e-05 -0.0114239)
(-2.08858e-05 -4.81151e-05 -0.0114246)
(-3.47626e-05 -4.84143e-05 -0.0114266)
(-4.86138e-05 -4.86153e-05 -0.0114295)
(-6.24701e-05 -4.90686e-05 -0.0114329)
(-7.58697e-05 -4.86799e-05 -0.0114384)
(-9.07048e-05 -4.76937e-05 -0.0114414)
(9.22831e-05 -6.19496e-05 -0.0114453)
(7.6864e-05 -6.22405e-05 -0.0114424)
(6.32464e-05 -6.32411e-05 -0.0114364)
(4.90751e-05 -6.2474e-05 -0.0114329)
(3.49965e-05 -6.22839e-05 -0.0114299)
(2.09886e-05 -6.18973e-05 -0.0114279)
(6.7747e-06 -6.17861e-05 -0.0114272)
(-6.7693e-06 -6.17858e-05 -0.0114272)
(-2.09827e-05 -6.18967e-05 -0.0114279)
(-3.49897e-05 -6.2283e-05 -0.0114299)
(-4.9067e-05 -6.24723e-05 -0.0114329)
(-6.32365e-05 -6.32389e-05 -0.0114364)
(-7.68533e-05 -6.22372e-05 -0.0114424)
(-9.22706e-05 -6.19492e-05 -0.0114453)
(8.99878e-05 -7.64543e-05 -0.0114503)
(7.54396e-05 -7.54369e-05 -0.0114476)
(6.22435e-05 -7.68573e-05 -0.0114424)
(4.86857e-05 -7.5873e-05 -0.0114384)
(3.48775e-05 -7.57665e-05 -0.0114353)
(2.1043e-05 -7.54863e-05 -0.0114328)
(6.81273e-06 -7.53752e-05 -0.0114319)
(-6.80719e-06 -7.5375e-05 -0.0114319)
(-2.10373e-05 -7.54859e-05 -0.0114328)
(-3.48713e-05 -7.57663e-05 -0.0114353)
(-4.86787e-05 -7.58723e-05 -0.0114384)
(-6.22355e-05 -7.68564e-05 -0.0114424)
(-7.54321e-05 -7.54343e-05 -0.0114476)
(-8.99804e-05 -7.64499e-05 -0.0114503)
(9.29764e-05 -9.29747e-05 -0.0114531)
(7.64548e-05 -8.99859e-05 -0.0114503)
(6.19546e-05 -9.22752e-05 -0.0114453)
(4.76989e-05 -9.07083e-05 -0.0114414)
(3.37551e-05 -9.04418e-05 -0.0114389)
(2.02065e-05 -8.97978e-05 -0.0114375)
(6.52386e-06 -8.94168e-05 -0.0114372)
(-6.51806e-06 -8.94162e-05 -0.0114372)
(-2.02009e-05 -8.97969e-05 -0.0114375)
(-3.37495e-05 -9.04414e-05 -0.0114389)
(-4.76927e-05 -9.07074e-05 -0.0114414)
(-6.19475e-05 -9.2274e-05 -0.0114453)
(-7.64472e-05 -8.99828e-05 -0.0114503)
(-9.29659e-05 -9.29688e-05 -0.0114531)
(0.000114712 0.000114711 -0.0141776)
(9.45281e-05 0.000111126 -0.0141745)
(7.65734e-05 0.000113869 -0.0141688)
(5.89751e-05 0.000111972 -0.0141642)
(4.17363e-05 0.000111613 -0.0141614)
(2.49799e-05 0.00011084 -0.0141599)
(8.07532e-06 0.000110377 -0.0141595)
(-8.0801e-06 0.000110378 -0.0141595)
(-2.49834e-05 0.000110841 -0.0141599)
(-4.17388e-05 0.000111614 -0.0141615)
(-5.89767e-05 0.000111972 -0.0141643)
(-7.65741e-05 0.000113869 -0.0141688)
(-9.45287e-05 0.000111128 -0.0141745)
(-0.000114714 0.000114714 -0.0141776)
(0.000111128 9.45285e-05 -0.0141745)
(9.32254e-05 9.32253e-05 -0.0141715)
(7.68082e-05 9.49446e-05 -0.0141655)
(6.00624e-05 9.37109e-05 -0.0141608)
(4.30039e-05 9.35326e-05 -0.0141573)
(2.59321e-05 9.31626e-05 -0.0141544)
(8.4064e-06 9.30041e-05 -0.0141534)
(-8.41009e-06 9.30049e-05 -0.0141534)
(-2.59351e-05 9.31629e-05 -0.0141544)
(-4.30061e-05 9.35333e-05 -0.0141573)
(-6.00637e-05 9.37111e-05 -0.0141608)
(-7.68087e-05 9.49452e-05 -0.0141655)
(-9.32252e-05 9.32274e-05 -0.0141715)
(-0.000111126 9.45342e-05 -0.0141745)
(0.00011387 7.65742e-05 -0.0141688)
(9.49444e-05 7.68092e-05 -0.0141655)
(7.8032e-05 7.80331e-05 -0.0141586)
(6.0562e-05 7.70696e-05 -0.0141545)
(4.3179e-05 7.68239e-05 -0.0141511)
(2.5894e-05 7.63474e-05 -0.0141487)
(8.37018e-06 7.62007e-05 -0.0141479)
(-8.37438e-06 7.62015e-05 -0.0141479)
(-2.58982e-05 7.63482e-05 -0.0141487)
(-4.3183e-05 7.68254e-05 -0.0141511)
(-6.0566e-05 7.70712e-05 -0.0141545)
(-7.80364e-05 7.80359e-05 -0.0141586)
(-9.49486e-05 7.6813e-05 -0.0141655)
(-0.000113876 7.65792e-05 -0.0141688)
(0.000111973 5.89761e-05 -0.0141642)
(9.37108e-05 6.00637e-05 -0.0141608)
(7.70683e-05 6.05635e-05 -0.0141545)
(5.99643e-05 5.99661e-05 -0.0141505)
(4.28593e-05 5.97137e-05 -0.0141473)
(2.57452e-05 5.93385e-05 -0.0141449)
(8.32985e-06 5.92325e-05 -0.0141441)
(-8.33219e-06 5.92333e-05 -0.0141441)
(-2.57472e-05 5.93395e-05 -0.0141449)
(-4.28603e-05 5.97155e-05 -0.0141473)
(-5.99639e-05 5.99686e-05 -0.0141505)
(-7.7066e-05 6.05673e-05 -0.0141545)
(-9.37062e-05 6.00693e-05 -0.0141608)
(-0.000111965 5.89808e-05 -0.0141643)
(0.000111615 4.17371e-05 -0.0141614)
(9.35333e-05 4.30052e-05 -0.0141572)
(7.68232e-05 4.31806e-05 -0.0141511)
(5.97122e-05 4.28612e-05 -0.0141473)
(4.26735e-05 4.26754e-05 -0.0141441)
(2.56178e-05 4.24048e-05 -0.0141418)
(8.2868e-06 4.23336e-05 -0.014141)
(-8.28932e-06 4.23344e-05 -0.014141)
(-2.56201e-05 4.24058e-05 -0.0141418)
(-4.26751e-05 4.26771e-05 -0.0141441)
(-5.97129e-05 4.28638e-05 -0.0141473)
(-7.68226e-05 4.31844e-05 -0.0141511)
(-9.35307e-05 4.30102e-05 -0.0141573)
(-0.00011161 4.17434e-05 -0.0141615)
(0.000110842 2.49806e-05 -0.0141598)
(9.31634e-05 2.59334e-05 -0.0141544)
(7.63468e-05 2.58956e-05 -0.0141487)
(5.93371e-05 2.57471e-05 -0.0141449)
(4.2403e-05 2.56198e-05 -0.0141418)
(2.54568e-05 2.54586e-05 -0.0141396)
(8.23527e-06 2.54151e-05 -0.0141388)
(-8.23682e-06 2.5416e-05 -0.0141388)
(-2.54581e-05 2.54597e-05 -0.0141396)
(-4.24038e-05 2.56217e-05 -0.0141418)
(-5.9337e-05 2.57499e-05 -0.0141449)
(-7.63456e-05 2.58995e-05 -0.0141487)
(-9.31604e-05 2.59382e-05 -0.0141544)
(-0.000110838 2.49867e-05 -0.0141599)
(0.000110379 8.07538e-06 -0.0141595)
(9.30052e-05 8.40672e-06 -0.0141534)
(7.62005e-05 8.37092e-06 -0.0141479)
(5.92313e-05 8.33081e-06 -0.0141441)
(4.23319e-05 8.28801e-06 -0.014141)
(2.54133e-05 8.23643e-06 -0.0141388)
(8.22167e-06 8.22286e-06 -0.014138)
(-8.22272e-06 8.22366e-06 -0.014138)
(-2.5414e-05 8.23739e-06 -0.0141388)
(-4.23319e-05 8.28964e-06 -0.014141)
(-5.92301e-05 8.3333e-06 -0.0141441)
(-7.61978e-05 8.37438e-06 -0.0141479)
(-9.30006e-05 8.41157e-06 -0.0141534)
(-0.000110374 8.0814e-06 -0.0141595)
(0.000110381 -8.07982e-06 -0.0141595)
(9.30062e-05 -8.40976e-06 -0.0141534)
(7.62014e-05 -8.37373e-06 -0.0141479)
(5.9232e-05 -8.3315e-06 -0.0141441)
(4.23325e-05 -8.28842e-06 -0.014141)
(2.54139e-05 -8.23597e-06 -0.0141388)
(8.22216e-06 -8.22174e-06 -0.014138)
(-8.22208e-06 -8.22077e-06 -0.014138)
(-2.54134e-05 -8.23447e-06 -0.0141388)
(-4.23311e-05 -8.28596e-06 -0.014141)
(-5.92292e-05 -8.32805e-06 -0.0141441)
(-7.61966e-05 -8.36952e-06 -0.0141479)
(-9.2999e-05 -8.40441e-06 -0.0141534)
(-0.000110372 -8.07367e-06 -0.0141595)
(0.000110844 -2.49845e-05 -0.0141598)
(9.31646e-05 -2.59362e-05 -0.0141544)
(7.63483e-05 -2.58987e-05 -0.0141487)
(5.93385e-05 -2.57477e-05 -0.0141449)
(4.24042e-05 -2.56203e-05 -0.0141418)
(2.5458e-05 -2.54583e-05 -0.0141396)
(8.23614e-06 -2.54141e-05 -0.0141388)
(-8.23561e-06 -2.54132e-05 -0.0141388)
(-2.54571e-05 -2.5457e-05 -0.0141396)
(-4.24027e-05 -2.56181e-05 -0.0141418)
(-5.93359e-05 -2.57447e-05 -0.0141449)
(-7.63442e-05 -2.58952e-05 -0.0141487)
(-9.31586e-05 -2.59315e-05 -0.0141544)
(-0.000110837 -2.49796e-05 -0.0141599)
(0.000111617 -4.17407e-05 -0.0141614)
(9.35353e-05 -4.3008e-05 -0.0141573)
(7.68258e-05 -4.31843e-05 -0.0141511)
(5.97148e-05 -4.28615e-05 -0.0141473)
(4.26758e-05 -4.2676e-05 -0.0141441)
(2.56202e-05 -4.24046e-05 -0.0141418)
(8.28858e-06 -4.23324e-05 -0.014141)
(-8.28702e-06 -4.23315e-05 -0.014141)
(-2.56183e-05 -4.24031e-05 -0.0141418)
(-4.26731e-05 -4.26735e-05 -0.0141441)
(-5.9711e-05 -4.28581e-05 -0.0141473)
(-7.68204e-05 -4.31805e-05 -0.0141511)
(-9.3528e-05 -4.30032e-05 -0.0141573)
(-0.000111607 -4.17356e-05 -0.0141615)
(0.000111976 -5.89795e-05 -0.0141642)
(9.37135e-05 -6.00666e-05 -0.0141608)
(7.70721e-05 -6.05681e-05 -0.0141545)
(5.99682e-05 -5.99659e-05 -0.0141505)
(4.28627e-05 -5.97144e-05 -0.0141473)
(2.57486e-05 -5.93385e-05 -0.0141449)
(8.33234e-06 -5.92312e-05 -0.0141441)
(-8.32898e-06 -5.92302e-05 -0.0141441)
(-2.57447e-05 -5.93368e-05 -0.0141449)
(-4.28577e-05 -5.97119e-05 -0.0141473)
(-5.99617e-05 -5.99624e-05 -0.0141505)
(-7.70634e-05 -6.05643e-05 -0.0141545)
(-9.37023e-05 -6.00623e-05 -0.0141608)
(-0.000111961 -5.89727e-05 -0.0141643)
(0.000113873 -7.65777e-05 -0.0141688)
(9.49479e-05 -7.68122e-05 -0.0141655)
(7.80371e-05 -7.80393e-05 -0.0141586)
(6.05673e-05 -7.70685e-05 -0.0141545)
(4.31836e-05 -7.68245e-05 -0.0141511)
(2.58984e-05 -7.63474e-05 -0.0141487)
(8.37355e-06 -7.61992e-05 -0.0141479)
(-8.37015e-06 -7.61981e-05 -0.0141479)
(-2.5895e-05 -7.63455e-05 -0.0141487)
(-4.31799e-05 -7.68216e-05 -0.0141511)
(-6.05634e-05 -7.70642e-05 -0.0141545)
(-7.80335e-05 -7.80343e-05 -0.0141586)
(-9.49439e-05 -7.68067e-05 -0.0141655)
(-0.000113869 -7.65718e-05 -0.0141688)
(0.000111132 -9.45329e-05 -0.0141745)
(9.32299e-05 -9.32291e-05 -0.0141715)
(7.68144e-05 -9.4952e-05 -0.0141655)
(6.00694e-05 -9.3709e-05 -0.0141608)
(4.30096e-05 -9.35331e-05 -0.0141573)
(2.59374e-05 -9.31624e-05 -0.0141544)
(8.41063e-06 -9.30022e-05 -0.0141534)
(-8.40474e-06 -9.30008e-05 -0.0141534)
(-2.59313e-05 -9.31602e-05 -0.0141544)
(-4.30028e-05 -9.35293e-05 -0.0141573)
(-6.00618e-05 -9.37035e-05 -0.0141608)
(-7.68062e-05 -9.49448e-05 -0.0141655)
(-9.32214e-05 -9.3222e-05 -0.0141715)
(-0.000111122 -9.45279e-05 -0.0141745)
(0.000114719 -0.000114718 -0.0141776)
(9.45373e-05 -0.00011113 -0.0141745)
(7.65809e-05 -0.000113879 -0.0141688)
(5.8981e-05 -0.000111968 -0.0141643)
(4.17429e-05 -0.000111613 -0.0141614)
(2.49862e-05 -0.000110841 -0.0141599)
(8.08055e-06 -0.000110376 -0.0141595)
(-8.07373e-06 -0.000110374 -0.0141595)
(-2.49793e-05 -0.000110838 -0.0141599)
(-4.17351e-05 -0.000111609 -0.0141614)
(-5.89723e-05 -0.000111962 -0.0141643)
(-7.65712e-05 -0.000113871 -0.0141688)
(-9.45271e-05 -0.000111123 -0.0141745)
(-0.000114709 -0.00011471 -0.0141776)
(0.000139733 0.000139736 -0.0173193)
(0.000115349 0.000135499 -0.0173157)
(9.34245e-05 0.000138774 -0.0173093)
(7.19949e-05 0.000136495 -0.0173039)
(5.09649e-05 0.000136049 -0.0173007)
(3.05043e-05 0.000135126 -0.0172989)
(9.86741e-06 0.000134567 -0.0172984)
(-9.88268e-06 0.00013457 -0.0172984)
(-3.0518e-05 0.000135126 -0.0172989)
(-5.09773e-05 0.000136051 -0.0173007)
(-7.20045e-05 0.000136496 -0.0173039)
(-9.34308e-05 0.000138775 -0.0173093)
(-0.000115351 0.000135498 -0.0173158)
(-0.000139733 0.000139733 -0.0173193)
(0.000135498 0.000115354 -0.0173157)
(0.00011374 0.000113745 -0.0173122)
(9.36117e-05 0.000115817 -0.0173054)
(7.32008e-05 0.000114307 -0.0172999)
(5.23958e-05 0.000114071 -0.0172958)
(3.15846e-05 0.000113606 -0.0172924)
(1.02429e-05 0.000113398 -0.0172913)
(-1.02576e-05 0.0001134 -0.0172913)
(-3.15978e-05 0.000113607 -0.0172924)
(-5.24076e-05 0.000114073 -0.0172958)
(-7.32097e-05 0.000114308 -0.0172999)
(-9.36165e-05 0.000115818 -0.0173054)
(-0.000113741 0.000113745 -0.0173122)
(-0.000135494 0.000115353 -0.0173158)
(0.000138771 9.34301e-05 -0.0173093)
(0.000115813 9.36181e-05 -0.0173054)
(9.50999e-05 9.5106e-05 -0.0172973)
(7.38333e-05 9.39234e-05 -0.0172925)
(5.26403e-05 9.3635e-05 -0.0172886)
(3.15695e-05 9.30635e-05 -0.0172858)
(1.02111e-05 9.28797e-05 -0.0172848)
(-1.0224e-05 9.28811e-05 -0.0172848)
(-3.15816e-05 9.30643e-05 -0.0172858)
(-5.26513e-05 9.36365e-05 -0.0172886)
(-7.38419e-05 9.39242e-05 -0.0172925)
(-9.51051e-05 9.51062e-05 -0.0172974)
(-0.000115814 9.36171e-05 -0.0173054)
(-0.000138765 9.34317e-05 -0.0173093)
(0.000136493 7.20002e-05 -0.0173039)
(0.000114302 7.32072e-05 -0.0172999)
(9.39169e-05 7.38397e-05 -0.0172925)
(7.30735e-05 7.30801e-05 -0.0172878)
(5.22143e-05 7.27874e-05 -0.0172841)
(3.13597e-05 7.23342e-05 -0.0172813)
(1.01499e-05 7.22017e-05 -0.0172804)
(-1.01633e-05 7.2203e-05 -0.0172804)
(-3.13731e-05 7.23359e-05 -0.0172813)
(-5.22278e-05 7.27901e-05 -0.0172841)
(-7.30873e-05 7.30831e-05 -0.0172878)
(-9.39315e-05 7.38427e-05 -0.0172925)
(-0.000114318 7.32103e-05 -0.0172999)
(-0.000136511 7.20044e-05 -0.0173039)
(0.000136048 5.09699e-05 -0.0173007)
(0.000114067 5.24016e-05 -0.0172958)
(9.3629e-05 5.26462e-05 -0.0172886)
(7.27808e-05 5.22201e-05 -0.0172841)
(5.20021e-05 5.20079e-05 -0.0172804)
(3.12152e-05 5.16809e-05 -0.0172777)
(1.01014e-05 5.15931e-05 -0.0172768)
(-1.01116e-05 5.15945e-05 -0.0172768)
(-3.12249e-05 5.16831e-05 -0.0172777)
(-5.20106e-05 5.20114e-05 -0.0172804)
(-7.27874e-05 5.22245e-05 -0.0172841)
(-9.36324e-05 5.26511e-05 -0.0172886)
(-0.000114067 5.24078e-05 -0.0172958)
(-0.000136041 5.09757e-05 -0.0173007)
(0.000135125 3.05085e-05 -0.0172988)
(0.000113602 3.15892e-05 -0.0172924)
(9.30572e-05 3.15741e-05 -0.0172858)
(7.23276e-05 3.13641e-05 -0.0172813)
(5.16752e-05 3.12195e-05 -0.0172777)
(3.10195e-05 3.10235e-05 -0.0172751)
(1.00379e-05 3.09704e-05 -0.0172742)
(-1.00474e-05 3.09719e-05 -0.0172742)
(-3.1029e-05 3.10261e-05 -0.0172751)
(-5.16844e-05 3.12235e-05 -0.0172777)
(-7.23361e-05 3.13693e-05 -0.0172813)
(-9.30644e-05 3.158e-05 -0.0172858)
(-0.000113607 3.15963e-05 -0.0172924)
(-0.000135125 3.05162e-05 -0.0172989)
(0.000134566 9.86994e-06 -0.0172984)
(0.000113394 1.02458e-05 -0.0172913)
(9.28733e-05 1.02141e-05 -0.0172848)
(7.21949e-05 1.01529e-05 -0.0172804)
(5.15873e-05 1.01044e-05 -0.0172768)
(3.09664e-05 1.00406e-05 -0.0172742)
(1.00214e-05 1.0024e-05 -0.0172732)
(-1.00291e-05 1.00254e-05 -0.0172732)
(-3.09742e-05 1.0043e-05 -0.0172742)
(-5.1595e-05 1.01082e-05 -0.0172768)
(-7.22024e-05 1.01581e-05 -0.0172804)
(-9.28799e-05 1.02206e-05 -0.0172849)
(-0.000113399 1.02541e-05 -0.0172913)
(-0.000134568 9.87985e-06 -0.0172984)
(0.000134569 -9.8819e-06 -0.0172984)
(0.000113395 -1.02572e-05 -0.0172913)
(9.28743e-05 -1.02237e-05 -0.0172848)
(7.21958e-05 -1.01633e-05 -0.0172804)
(5.15882e-05 -1.01118e-05 -0.0172768)
(3.09675e-05 -1.00478e-05 -0.0172742)
(1.00224e-05 -1.00297e-05 -0.0172732)
(-1.00276e-05 -1.00278e-05 -0.0172732)
(-3.09727e-05 -1.00441e-05 -0.0172742)
(-5.15934e-05 -1.01057e-05 -0.0172768)
(-7.22006e-05 -1.0155e-05 -0.0172804)
(-9.28778e-05 -1.02136e-05 -0.0172849)
(-0.000113397 -1.02452e-05 -0.0172913)
(-0.000134565 -9.86937e-06 -0.0172984)
(0.000135126 -3.05184e-05 -0.0172988)
(0.000113603 -3.15985e-05 -0.0172924)
(9.30579e-05 -3.1582e-05 -0.0172858)
(7.23289e-05 -3.13736e-05 -0.0172813)
(5.16769e-05 -3.12253e-05 -0.0172777)
(3.10217e-05 -3.10295e-05 -0.0172751)
(1.004e-05 -3.0975e-05 -0.0172742)
(-1.00439e-05 -3.09732e-05 -0.0172742)
(-3.10257e-05 -3.10263e-05 -0.0172751)
(-5.1681e-05 -3.12199e-05 -0.0172777)
(-7.23328e-05 -3.1366e-05 -0.0172814)
(-9.30608e-05 -3.15725e-05 -0.0172858)
(-0.000113604 -3.15875e-05 -0.0172924)
(-0.000135122 -3.05064e-05 -0.0172989)
(0.00013605 -5.0978e-05 -0.0173007)
(0.000114069 -5.24084e-05 -0.0172958)
(9.36301e-05 -5.26514e-05 -0.0172886)
(7.27832e-05 -5.22279e-05 -0.0172841)
(5.20053e-05 -5.20106e-05 -0.0172804)
(3.12192e-05 -5.16844e-05 -0.0172777)
(1.01055e-05 -5.15951e-05 -0.0172768)
(-1.01058e-05 -5.15933e-05 -0.0172768)
(-3.12193e-05 -5.16812e-05 -0.0172777)
(-5.2005e-05 -5.20052e-05 -0.0172804)
(-7.27818e-05 -5.22205e-05 -0.0172841)
(-9.36265e-05 -5.26419e-05 -0.0172886)
(-0.000114062 -5.23975e-05 -0.0172958)
(-0.000136037 -5.09652e-05 -0.0173007)
(0.000136496 -7.20056e-05 -0.0173039)
(0.000114305 -7.32103e-05 -0.0172999)
(9.39184e-05 -7.38414e-05 -0.0172925)
(7.30766e-05 -7.30864e-05 -0.0172878)
(5.22186e-05 -7.2786e-05 -0.0172841)
(3.1365e-05 -7.23346e-05 -0.0172814)
(1.01557e-05 -7.22008e-05 -0.0172804)
(-1.01555e-05 -7.2199e-05 -0.0172804)
(-3.13655e-05 -7.23316e-05 -0.0172814)
(-5.22202e-05 -7.27808e-05 -0.0172841)
(-7.30798e-05 -7.30788e-05 -0.0172878)
(-9.39236e-05 -7.38313e-05 -0.0172925)
(-0.000114313 -7.31976e-05 -0.0172999)
(-0.000136506 -7.19921e-05 -0.0173039)
(0.000138775 -9.34315e-05 -0.0173093)
(0.000115816 -9.36162e-05 -0.0173054)
(9.5101e-05 -9.51034e-05 -0.0172974)
(7.38368e-05 -9.39291e-05 -0.0172925)
(5.26456e-05 -9.3629e-05 -0.0172886)
(3.1576e-05 -9.30608e-05 -0.0172858)
(1.02185e-05 -9.28759e-05 -0.0172849)
(-1.02146e-05 -9.2874e-05 -0.0172849)
(-3.15722e-05 -9.30574e-05 -0.0172858)
(-5.26418e-05 -9.36234e-05 -0.0172886)
(-7.38321e-05 -9.39205e-05 -0.0172925)
(-9.50945e-05 -9.50918e-05 -0.0172974)
(-0.000115806 -9.36014e-05 -0.0173054)
(-0.000138759 -9.34171e-05 -0.0173093)
(0.000135499 -0.000115352 -0.0173157)
(0.000113743 -0.000113741 -0.0173122)
(9.36129e-05 -0.000115811 -0.0173054)
(7.32052e-05 -0.000114315 -0.0172999)
(5.24029e-05 -0.000114062 -0.0172958)
(3.15925e-05 -0.000113602 -0.0172924)
(1.02519e-05 -0.000113393 -0.0172913)
(-1.02466e-05 -0.000113391 -0.0172913)
(-3.15876e-05 -0.000113599 -0.0172924)
(-5.23979e-05 -0.000114057 -0.0172958)