/*--------------------------------*- C++ -*----------------------------------*\
| =========                 |                                                 |
| \\      /  F ield         | OpenFOAM: The Open Source CFD Toolbox           |
|  \\    /   O peration     | Version:  v2106                                 |
|   \\  /    A nd           | Website:  www.openfoam.com                      |
|    \\/     M anipulation  |                                                 |
\*---------------------------------------------------------------------------*/
FoamFile
{
    version     2.0;
    format      ascii;
    arch        "LSB;label=32;scalar=64";
    class       volScalarField;
    location    "0.000158";
    object      alphat;
}
// * * * * * * * * * * * * * * * * * * * * * * * * * * * * * * * * * * * * * //

dimensions      [1 -1 -1 0 0 0 0];

internalField   nonuniform List<scalar> 
17924
(
9.82818e-17
9.82971e-17
9.83102e-17
9.83231e-17
9.79631e-17
9.79843e-17
9.80035e-17
9.80212e-17
9.80378e-17
9.80533e-17
9.80679e-17
9.79644e-17
9.79843e-17
9.80034e-17
9.80219e-17
9.80395e-17
9.80558e-17
9.8071e-17
9.79665e-17
9.79866e-17
9.80059e-17
9.80242e-17
9.80417e-17
9.80578e-17
9.8073e-17
9.79669e-17
9.79868e-17
9.8006e-17
9.80242e-17
9.80416e-17
9.80579e-17
9.80733e-17
9.7967e-17
9.79867e-17
9.80058e-17
9.80239e-17
9.80412e-17
9.80573e-17
9.80727e-17
9.79653e-17
9.79849e-17
9.80039e-17
9.80219e-17
9.80391e-17
9.80554e-17
9.80708e-17
9.79633e-17
9.79829e-17
9.80016e-17
9.80196e-17
9.80366e-17
9.80527e-17
9.8068e-17
9.79606e-17
9.79799e-17
9.79985e-17
9.80163e-17
9.80331e-17
9.80492e-17
9.80645e-17
9.79578e-17
9.79766e-17
9.79949e-17
9.80124e-17
9.80291e-17
9.8045e-17
9.80601e-17
9.79544e-17
9.79727e-17
9.79906e-17
9.80078e-17
9.80243e-17
9.80401e-17
9.80551e-17
9.79507e-17
9.79684e-17
9.79859e-17
9.80029e-17
9.8019e-17
9.80346e-17
9.80493e-17
9.7946e-17
9.79636e-17
9.79809e-17
9.79976e-17
9.80133e-17
9.80286e-17
9.8043e-17
9.79419e-17
9.79598e-17
9.79765e-17
9.7993e-17
9.8008e-17
9.80229e-17
9.80368e-17
9.79412e-17
9.79578e-17
9.79735e-17
9.79892e-17
9.80034e-17
9.80175e-17
9.80307e-17
9.76025e-17
9.7621e-17
9.76396e-17
9.76573e-17
9.76746e-17
9.7691e-17
9.77066e-17
9.77213e-17
9.77351e-17
9.77478e-17
9.77595e-17
9.77702e-17
9.77803e-17
9.77912e-17
9.76146e-17
9.76324e-17
9.76519e-17
9.76702e-17
9.76883e-17
9.77053e-17
9.77217e-17
9.77371e-17
9.77514e-17
9.77647e-17
9.77769e-17
9.77881e-17
9.77985e-17
9.781e-17
9.76288e-17
9.7647e-17
9.76668e-17
9.76851e-17
9.77033e-17
9.77203e-17
9.77367e-17
9.7752e-17
9.77664e-17
9.77797e-17
9.77921e-17
9.78035e-17
9.7814e-17
9.78248e-17
9.76408e-17
9.76595e-17
9.76795e-17
9.76981e-17
9.77166e-17
9.7734e-17
9.77508e-17
9.77664e-17
9.77812e-17
9.77949e-17
9.78075e-17
9.78191e-17
9.78299e-17
9.78408e-17
9.76529e-17
9.76723e-17
9.76924e-17
9.77113e-17
9.77299e-17
9.77474e-17
9.77642e-17
9.77799e-17
9.77946e-17
9.78084e-17
9.78211e-17
9.78328e-17
9.78438e-17
9.78543e-17
9.7664e-17
9.7684e-17
9.77041e-17
9.77232e-17
9.77419e-17
9.77596e-17
9.77766e-17
9.77925e-17
9.78075e-17
9.78214e-17
9.78343e-17
9.78462e-17
9.78572e-17
9.78675e-17
9.76746e-17
9.76951e-17
9.77152e-17
9.77345e-17
9.77531e-17
9.77709e-17
9.77878e-17
9.78038e-17
9.78187e-17
9.78326e-17
9.78455e-17
9.78575e-17
9.78686e-17
9.78787e-17
9.76846e-17
9.77053e-17
9.77252e-17
9.77446e-17
9.77631e-17
9.7781e-17
9.77979e-17
9.78139e-17
9.78288e-17
9.78427e-17
9.78557e-17
9.78677e-17
9.78788e-17
9.7889e-17
9.76938e-17
9.77144e-17
9.77341e-17
9.77536e-17
9.7772e-17
9.77898e-17
9.78065e-17
9.78224e-17
9.78372e-17
9.7851e-17
9.78639e-17
9.78758e-17
9.7887e-17
9.78973e-17
9.77024e-17
9.77228e-17
9.77422e-17
9.77615e-17
9.77797e-17
9.77973e-17
9.78139e-17
9.78296e-17
9.78443e-17
9.78579e-17
9.78707e-17
9.78825e-17
9.78937e-17
9.7904e-17
9.77103e-17
9.77304e-17
9.77494e-17
9.77684e-17
9.77863e-17
9.78037e-17
9.782e-17
9.78354e-17
9.78498e-17
9.78632e-17
9.78758e-17
9.78876e-17
9.78988e-17
9.79092e-17
9.77175e-17
9.77372e-17
9.77559e-17
9.77745e-17
9.7792e-17
9.78091e-17
9.78251e-17
9.78402e-17
9.78544e-17
9.78675e-17
9.78799e-17
9.78915e-17
9.79023e-17
9.79126e-17
9.77244e-17
9.77439e-17
9.7762e-17
9.77802e-17
9.77972e-17
9.78137e-17
9.78292e-17
9.7844e-17
9.78578e-17
9.78707e-17
9.78828e-17
9.78941e-17
9.79045e-17
9.79152e-17
9.77317e-17
9.77515e-17
9.77683e-17
9.77859e-17
9.7802e-17
9.78179e-17
9.78328e-17
9.7847e-17
9.78604e-17
9.78729e-17
9.78846e-17
9.78954e-17
9.79057e-17
9.79158e-17
9.72191e-17
9.72315e-17
9.72456e-17
9.72592e-17
9.72729e-17
9.72863e-17
9.72993e-17
9.7312e-17
9.73241e-17
9.73356e-17
9.73465e-17
9.73566e-17
9.73664e-17
9.73763e-17
9.72351e-17
9.72476e-17
9.72623e-17
9.72764e-17
9.72909e-17
9.73048e-17
9.73186e-17
9.73317e-17
9.73444e-17
9.73563e-17
9.73675e-17
9.73782e-17
9.73879e-17
9.73992e-17
9.72534e-17
9.72665e-17
9.72818e-17
9.72961e-17
9.73107e-17
9.73248e-17
9.73386e-17
9.73518e-17
9.73644e-17
9.73764e-17
9.73876e-17
9.73983e-17
9.7408e-17
9.7419e-17
9.72709e-17
9.72847e-17
9.73003e-17
9.7315e-17
9.73301e-17
9.73446e-17
9.73587e-17
9.73723e-17
9.73852e-17
9.73975e-17
9.74089e-17
9.74197e-17
9.74295e-17
9.74401e-17
9.72888e-17
9.73036e-17
9.73195e-17
9.73347e-17
9.735e-17
9.73647e-17
9.7379e-17
9.73926e-17
9.74056e-17
9.74179e-17
9.74294e-17
9.74402e-17
9.74501e-17
9.746e-17
9.73066e-17
9.73222e-17
9.73383e-17
9.73539e-17
9.73694e-17
9.73843e-17
9.73988e-17
9.74127e-17
9.74259e-17
9.74383e-17
9.74499e-17
9.74607e-17
9.74707e-17
9.74802e-17
9.73242e-17
9.73406e-17
9.73569e-17
9.73727e-17
9.73883e-17
9.74034e-17
9.7418e-17
9.74319e-17
9.74452e-17
9.74575e-17
9.74692e-17
9.74799e-17
9.74899e-17
9.7499e-17
9.73418e-17
9.73586e-17
9.73748e-17
9.73909e-17
9.74065e-17
9.74217e-17
9.74363e-17
9.74503e-17
9.74635e-17
9.74759e-17
9.74875e-17
9.74982e-17
9.75083e-17
9.75172e-17
9.73587e-17
9.73757e-17
9.73919e-17
9.74081e-17
9.74237e-17
9.74389e-17
9.74535e-17
9.74674e-17
9.74805e-17
9.74927e-17
9.75042e-17
9.75148e-17
9.75249e-17
9.75337e-17
9.73754e-17
9.73924e-17
9.74085e-17
9.74247e-17
9.74402e-17
9.74553e-17
9.74697e-17
9.74835e-17
9.74964e-17
9.75084e-17
9.75197e-17
9.75301e-17
9.75402e-17
9.7549e-17
9.73912e-17
9.74081e-17
9.74241e-17
9.74403e-17
9.74555e-17
9.74706e-17
9.74848e-17
9.74983e-17
9.7511e-17
9.75228e-17
9.75339e-17
9.75441e-17
9.75542e-17
9.75628e-17
9.7407e-17
9.74238e-17
9.74395e-17
9.74554e-17
9.74704e-17
9.74851e-17
9.74989e-17
9.75121e-17
9.75244e-17
9.75359e-17
9.75467e-17
9.75568e-17
9.75669e-17
9.75757e-17
9.74214e-17
9.74381e-17
9.74536e-17
9.74692e-17
9.74839e-17
9.74982e-17
9.75118e-17
9.75247e-17
9.75368e-17
9.7548e-17
9.75587e-17
9.75686e-17
9.75783e-17
9.75876e-17
9.74368e-17
9.74532e-17
9.74681e-17
9.74832e-17
9.74973e-17
9.75109e-17
9.75238e-17
9.75361e-17
9.75477e-17
9.75586e-17
9.75689e-17
9.75787e-17
9.75883e-17
9.75976e-17
9.68451e-17
9.68514e-17
9.68599e-17
9.68683e-17
9.6877e-17
9.68858e-17
9.68945e-17
9.69031e-17
9.69114e-17
9.69195e-17
9.69273e-17
9.69348e-17
9.69423e-17
9.69502e-17
9.68604e-17
9.6867e-17
9.68759e-17
9.68844e-17
9.68934e-17
9.69025e-17
9.69116e-17
9.69205e-17
9.69291e-17
9.69374e-17
9.69453e-17
9.69532e-17
9.69605e-17
9.69693e-17
9.68773e-17
9.68843e-17
9.68936e-17
9.69023e-17
9.69115e-17
9.69206e-17
9.69297e-17
9.69385e-17
9.69471e-17
9.69553e-17
9.69632e-17
9.6971e-17
9.69782e-17
9.69869e-17
9.68944e-17
9.6902e-17
9.69115e-17
9.69204e-17
9.69298e-17
9.69391e-17
9.69484e-17
9.69574e-17
9.69662e-17
9.69746e-17
9.69827e-17
9.69905e-17
9.69978e-17
9.70059e-17
9.69119e-17
9.69203e-17
9.69299e-17
9.69392e-17
9.69487e-17
9.69581e-17
9.69675e-17
9.69766e-17
9.69854e-17
9.69939e-17
9.7002e-17
9.70098e-17
9.70171e-17
9.70246e-17
9.69299e-17
9.69389e-17
9.69485e-17
9.69581e-17
9.69677e-17
9.69773e-17
9.69867e-17
9.69959e-17
9.70049e-17
9.70134e-17
9.70216e-17
9.70294e-17
9.70368e-17
9.70439e-17
9.69479e-17
9.69575e-17
9.69672e-17
9.69769e-17
9.69867e-17
9.69963e-17
9.70059e-17
9.70151e-17
9.70241e-17
9.70326e-17
9.70408e-17
9.70485e-17
9.7056e-17
9.70627e-17
9.69662e-17
9.69762e-17
9.69859e-17
9.69958e-17
9.70055e-17
9.70152e-17
9.70248e-17
9.7034e-17
9.70429e-17
9.70514e-17
9.70596e-17
9.70674e-17
9.7075e-17
9.70815e-17
9.69844e-17
9.69947e-17
9.70043e-17
9.70143e-17
9.70241e-17
9.70338e-17
9.70433e-17
9.70525e-17
9.70613e-17
9.70698e-17
9.70779e-17
9.70856e-17
9.70932e-17
9.70995e-17
9.70027e-17
9.70132e-17
9.70228e-17
9.70328e-17
9.70425e-17
9.70522e-17
9.70616e-17
9.70706e-17
9.70793e-17
9.70877e-17
9.70957e-17
9.71033e-17
9.7111e-17
9.71173e-17
9.70204e-17
9.70311e-17
9.70407e-17
9.70508e-17
9.70605e-17
9.70701e-17
9.70793e-17
9.70883e-17
9.70969e-17
9.71051e-17
9.7113e-17
9.71204e-17
9.71281e-17
9.71341e-17
9.70386e-17
9.70492e-17
9.70587e-17
9.70687e-17
9.70782e-17
9.70876e-17
9.70966e-17
9.71054e-17
9.71138e-17
9.71219e-17
9.71296e-17
9.71369e-17
9.71447e-17
9.71508e-17
9.70552e-17
9.7066e-17
9.70754e-17
9.70853e-17
9.70948e-17
9.71041e-17
9.71131e-17
9.71218e-17
9.71301e-17
9.7138e-17
9.71456e-17
9.71529e-17
9.71604e-17
9.71668e-17
9.70735e-17
9.70833e-17
9.70927e-17
9.71022e-17
9.71114e-17
9.71202e-17
9.71289e-17
9.71372e-17
9.71451e-17
9.71527e-17
9.71601e-17
9.71673e-17
9.71749e-17
9.7183e-17
9.65014e-17
9.65035e-17
9.65073e-17
9.65114e-17
9.65156e-17
9.65199e-17
9.65241e-17
9.65284e-17
9.65324e-17
9.65364e-17
9.65403e-17
9.65444e-17
9.65484e-17
9.65533e-17
9.65138e-17
9.65158e-17
9.65199e-17
9.65238e-17
9.65279e-17
9.65322e-17
9.65365e-17
9.65408e-17
9.65449e-17
9.6549e-17
9.6553e-17
9.65571e-17
9.65609e-17
9.65662e-17
9.65265e-17
9.65287e-17
9.65331e-17
9.6537e-17
9.65411e-17
9.65453e-17
9.65495e-17
9.65537e-17
9.65577e-17
9.65617e-17
9.65656e-17
9.65695e-17
9.65732e-17
9.65782e-17
9.65398e-17
9.65423e-17
9.65465e-17
9.65504e-17
9.65545e-17
9.65586e-17
9.65628e-17
9.6567e-17
9.65711e-17
9.65751e-17
9.65791e-17
9.6583e-17
9.65867e-17
9.65913e-17
9.65531e-17
9.6556e-17
9.65602e-17
9.65642e-17
9.65682e-17
9.65723e-17
9.65765e-17
9.65806e-17
9.65847e-17
9.65887e-17
9.65927e-17
9.65964e-17
9.66002e-17
9.66044e-17
9.65669e-17
9.65702e-17
9.65741e-17
9.65781e-17
9.65821e-17
9.65862e-17
9.65903e-17
9.65945e-17
9.65986e-17
9.66026e-17
9.66065e-17
9.66103e-17
9.66141e-17
9.66179e-17
9.65807e-17
9.65843e-17
9.65882e-17
9.65922e-17
9.65962e-17
9.66003e-17
9.66044e-17
9.66084e-17
9.66125e-17
9.66165e-17
9.66204e-17
9.66242e-17
9.6628e-17
9.66314e-17
9.65948e-17
9.65988e-17
9.66024e-17
9.66064e-17
9.66104e-17
9.66145e-17
9.66186e-17
9.66226e-17
9.66266e-17
9.66305e-17
9.66345e-17
9.66383e-17
9.66421e-17
9.66453e-17
9.6609e-17
9.66132e-17
9.66168e-17
9.66208e-17
9.66249e-17
9.66289e-17
9.6633e-17
9.66369e-17
9.66409e-17
9.66448e-17
9.66487e-17
9.66525e-17
9.66562e-17
9.66591e-17
9.66234e-17
9.66278e-17
9.66313e-17
9.66353e-17
9.66394e-17
9.66434e-17
9.66474e-17
9.66514e-17
9.66553e-17
9.66593e-17
9.66631e-17
9.66668e-17
9.66705e-17
9.66732e-17
9.66376e-17
9.66422e-17
9.66456e-17
9.66498e-17
9.66539e-17
9.66579e-17
9.6662e-17
9.66659e-17
9.66699e-17
9.66737e-17
9.66775e-17
9.66811e-17
9.66847e-17
9.66872e-17
9.66521e-17
9.66565e-17
9.666e-17
9.66642e-17
9.66683e-17
9.66723e-17
9.66763e-17
9.66803e-17
9.66842e-17
9.66881e-17
9.66918e-17
9.66954e-17
9.66991e-17
9.67017e-17
9.66658e-17
9.66701e-17
9.66739e-17
9.66781e-17
9.66823e-17
9.66863e-17
9.66904e-17
9.66944e-17
9.66983e-17
9.67021e-17
9.67058e-17
9.67094e-17
9.6713e-17
9.67158e-17
9.66808e-17
9.66843e-17
9.66879e-17
9.66919e-17
9.6696e-17
9.67e-17
9.6704e-17
9.67079e-17
9.67117e-17
9.67155e-17
9.67191e-17
9.67228e-17
9.67269e-17
9.67312e-17
9.61855e-17
9.61856e-17
9.61865e-17
9.61876e-17
9.61886e-17
9.61894e-17
9.61902e-17
9.61909e-17
9.61916e-17
9.61922e-17
9.61928e-17
9.61934e-17
9.61941e-17
9.61957e-17
9.61943e-17
9.6194e-17
9.61949e-17
9.61957e-17
9.61966e-17
9.61974e-17
9.61981e-17
9.61987e-17
9.61993e-17
9.61999e-17
9.62004e-17
9.62011e-17
9.62016e-17
9.6203e-17
9.62026e-17
9.62022e-17
9.62031e-17
9.62039e-17
9.62047e-17
9.62054e-17
9.6206e-17
9.62065e-17
9.6207e-17
9.62075e-17
9.62079e-17
9.62085e-17
9.62089e-17
9.62101e-17
9.62112e-17
9.62108e-17
9.62115e-17
9.62122e-17
9.62129e-17
9.62134e-17
9.62139e-17
9.62144e-17
9.62148e-17
9.62152e-17
9.62155e-17
9.6216e-17
9.62164e-17
9.62174e-17
9.62194e-17
9.62192e-17
9.62198e-17
9.62204e-17
9.62209e-17
9.62214e-17
9.62218e-17
9.62222e-17
9.62225e-17
9.62229e-17
9.62232e-17
9.62236e-17
9.62238e-17
9.62246e-17
9.62278e-17
9.62277e-17
9.62282e-17
9.62286e-17
9.62291e-17
9.62294e-17
9.62298e-17
9.62301e-17
9.62304e-17
9.62306e-17
9.62309e-17
9.62312e-17
9.62313e-17
9.62318e-17
9.62361e-17
9.62362e-17
9.62366e-17
9.62369e-17
9.62373e-17
9.62375e-17
9.62378e-17
9.6238e-17
9.62383e-17
9.62385e-17
9.62387e-17
9.62389e-17
9.6239e-17
9.62391e-17
9.62444e-17
9.62448e-17
9.6245e-17
9.62453e-17
9.62456e-17
9.62458e-17
9.6246e-17
9.62462e-17
9.62464e-17
9.62466e-17
9.62467e-17
9.62468e-17
9.62469e-17
9.62467e-17
9.62528e-17
9.62533e-17
9.62535e-17
9.62538e-17
9.6254e-17
9.62542e-17
9.62544e-17
9.62546e-17
9.62547e-17
9.62548e-17
9.6255e-17
9.6255e-17
9.62551e-17
9.62546e-17
9.6261e-17
9.62617e-17
9.62619e-17
9.62622e-17
9.62625e-17
9.62626e-17
9.62629e-17
9.6263e-17
9.62632e-17
9.62633e-17
9.62634e-17
9.62633e-17
9.62635e-17
9.62629e-17
9.62691e-17
9.627e-17
9.62702e-17
9.62706e-17
9.62709e-17
9.62711e-17
9.62713e-17
9.62715e-17
9.62717e-17
9.62718e-17
9.62719e-17
9.62718e-17
9.62721e-17
9.62714e-17
9.62772e-17
9.62782e-17
9.62784e-17
9.62788e-17
9.62791e-17
9.62794e-17
9.62797e-17
9.628e-17
9.62803e-17
9.62804e-17
9.62806e-17
9.62805e-17
9.62808e-17
9.62802e-17
9.6285e-17
9.6286e-17
9.62864e-17
9.62868e-17
9.62872e-17
9.62876e-17
9.6288e-17
9.62884e-17
9.62887e-17
9.62889e-17
9.62891e-17
9.62891e-17
9.62894e-17
9.62887e-17
9.62932e-17
9.62938e-17
9.6294e-17
9.62944e-17
9.6295e-17
9.62955e-17
9.62961e-17
9.62966e-17
9.6297e-17
9.62973e-17
9.62977e-17
9.6298e-17
9.62983e-17
9.62982e-17
9.58821e-17
9.58817e-17
9.58811e-17
9.58805e-17
9.58796e-17
9.58785e-17
9.58772e-17
9.58759e-17
9.58745e-17
9.5873e-17
9.58714e-17
9.58698e-17
9.58679e-17
9.58663e-17
9.58875e-17
9.58865e-17
9.58859e-17
9.58851e-17
9.58842e-17
9.5883e-17
9.58817e-17
9.58803e-17
9.58787e-17
9.58771e-17
9.58754e-17
9.58737e-17
9.58717e-17
9.587e-17
9.5892e-17
9.58909e-17
9.58904e-17
9.58896e-17
9.58886e-17
9.58873e-17
9.5886e-17
9.58845e-17
9.58829e-17
9.58812e-17
9.58793e-17
9.58775e-17
9.58754e-17
9.58736e-17
9.58964e-17
9.58954e-17
9.58947e-17
9.58938e-17
9.58927e-17
9.58914e-17
9.589e-17
9.58884e-17
9.58867e-17
9.58849e-17
9.5883e-17
9.5881e-17
9.58788e-17
9.58768e-17
9.59005e-17
9.58996e-17
9.58988e-17
9.58978e-17
9.58966e-17
9.58952e-17
9.58937e-17
9.58921e-17
9.58903e-17
9.58885e-17
9.58865e-17
9.58844e-17
9.58821e-17
9.58799e-17
9.59045e-17
9.59035e-17
9.59027e-17
9.59016e-17
9.59004e-17
9.58989e-17
9.58974e-17
9.58956e-17
9.58938e-17
9.58919e-17
9.58898e-17
9.58876e-17
9.58852e-17
9.58829e-17
9.59082e-17
9.59073e-17
9.59064e-17
9.59052e-17
9.59039e-17
9.59025e-17
9.59008e-17
9.58991e-17
9.58972e-17
9.58952e-17
9.58931e-17
9.58908e-17
9.58883e-17
9.58858e-17
9.59118e-17
9.59109e-17
9.59099e-17
9.59087e-17
9.59074e-17
9.59059e-17
9.59042e-17
9.59024e-17
9.59005e-17
9.58985e-17
9.58963e-17
9.58939e-17
9.58915e-17
9.58888e-17
9.59151e-17
9.59142e-17
9.59132e-17
9.5912e-17
9.59107e-17
9.59092e-17
9.59075e-17
9.59057e-17
9.59038e-17
9.59017e-17
9.58995e-17
9.58971e-17
9.58946e-17
9.58918e-17
9.59182e-17
9.59173e-17
9.59162e-17
9.59151e-17
9.59137e-17
9.59123e-17
9.59106e-17
9.59089e-17
9.5907e-17
9.59049e-17
9.59027e-17
9.59003e-17
9.58978e-17
9.58948e-17
9.59209e-17
9.59201e-17
9.59191e-17
9.59179e-17
9.59166e-17
9.59151e-17
9.59136e-17
9.59119e-17
9.591e-17
9.5908e-17
9.59059e-17
9.59034e-17
9.59009e-17
9.58978e-17
9.59234e-17
9.59226e-17
9.59216e-17
9.59204e-17
9.59192e-17
9.59178e-17
9.59164e-17
9.59147e-17
9.59129e-17
9.5911e-17
9.59089e-17
9.59064e-17
9.59041e-17
9.59008e-17
9.59257e-17
9.5925e-17
9.5924e-17
9.59228e-17
9.59217e-17
9.59204e-17
9.5919e-17
9.59175e-17
9.59158e-17
9.59139e-17
9.59119e-17
9.59095e-17
9.59073e-17
9.5904e-17
9.59275e-17
9.59268e-17
9.59258e-17
9.59249e-17
9.59239e-17
9.59228e-17
9.59216e-17
9.59202e-17
9.59187e-17
9.5917e-17
9.59151e-17
9.59129e-17
9.59106e-17
9.59075e-17
9.55783e-17
9.55776e-17
9.55765e-17
9.55752e-17
9.55737e-17
9.5572e-17
9.557e-17
9.55679e-17
9.55657e-17
9.55632e-17
9.55607e-17
9.55578e-17
9.55549e-17
9.55517e-17
9.55807e-17
9.55797e-17
9.55787e-17
9.55775e-17
9.5576e-17
9.55743e-17
9.55723e-17
9.55701e-17
9.55677e-17
9.55651e-17
9.55624e-17
9.55593e-17
9.55563e-17
9.55531e-17
9.55825e-17
9.55816e-17
9.55807e-17
9.55794e-17
9.55779e-17
9.55762e-17
9.55742e-17
9.5572e-17
9.55696e-17
9.5567e-17
9.55642e-17
9.55611e-17
9.55579e-17
9.55546e-17
9.55842e-17
9.55833e-17
9.55823e-17
9.55811e-17
9.55796e-17
9.55778e-17
9.55758e-17
9.55736e-17
9.55711e-17
9.55684e-17
9.55656e-17
9.55625e-17
9.55592e-17
9.55558e-17
9.55855e-17
9.55846e-17
9.55837e-17
9.55824e-17
9.55809e-17
9.55791e-17
9.55771e-17
9.55749e-17
9.55724e-17
9.55697e-17
9.55667e-17
9.55636e-17
9.55602e-17
9.55568e-17
9.55866e-17
9.55857e-17
9.55848e-17
9.55835e-17
9.5582e-17
9.55802e-17
9.55782e-17
9.55759e-17
9.55734e-17
9.55706e-17
9.55676e-17
9.55644e-17
9.5561e-17
9.55574e-17
9.55873e-17
9.55865e-17
9.55855e-17
9.55842e-17
9.55827e-17
9.55809e-17
9.55789e-17
9.55766e-17
9.5574e-17
9.55712e-17
9.55682e-17
9.5565e-17
9.55615e-17
9.55579e-17
9.55877e-17
9.55868e-17
9.55858e-17
9.55846e-17
9.5583e-17
9.55812e-17
9.55792e-17
9.55769e-17
9.55744e-17
9.55716e-17
9.55686e-17
9.55653e-17
9.55618e-17
9.55582e-17
9.55877e-17
9.55869e-17
9.55859e-17
9.55846e-17
9.55831e-17
9.55813e-17
9.55793e-17
9.5577e-17
9.55745e-17
9.55717e-17
9.55687e-17
9.55654e-17
9.55619e-17
9.55583e-17
9.55875e-17
9.55866e-17
9.55856e-17
9.55843e-17
9.55829e-17
9.55811e-17
9.55791e-17
9.55769e-17
9.55744e-17
9.55716e-17
9.55686e-17
9.55654e-17
9.55618e-17
9.55582e-17
9.55869e-17
9.5586e-17
9.5585e-17
9.55837e-17
9.55823e-17
9.55806e-17
9.55787e-17
9.55765e-17
9.5574e-17
9.55713e-17
9.55683e-17
9.55651e-17
9.55616e-17
9.55579e-17
9.5586e-17
9.5585e-17
9.5584e-17
9.55828e-17
9.55814e-17
9.55798e-17
9.5578e-17
9.55758e-17
9.55734e-17
9.55708e-17
9.55678e-17
9.55646e-17
9.55611e-17
9.55574e-17
9.5585e-17
9.5584e-17
9.5583e-17
9.55818e-17
9.55804e-17
9.55788e-17
9.55771e-17
9.5575e-17
9.55727e-17
9.557e-17
9.55671e-17
9.55639e-17
9.55606e-17
9.55568e-17
9.55833e-17
9.55825e-17
9.55815e-17
9.55805e-17
9.55792e-17
9.55777e-17
9.5576e-17
9.55741e-17
9.55719e-17
9.55695e-17
9.55668e-17
9.55637e-17
9.55604e-17
9.55568e-17
9.52716e-17
9.52707e-17
9.52695e-17
9.52683e-17
9.52669e-17
9.52653e-17
9.52635e-17
9.52616e-17
9.52595e-17
9.52571e-17
9.52547e-17
9.5252e-17
9.52494e-17
9.5246e-17
9.5272e-17
9.5271e-17
9.52701e-17
9.52689e-17
9.52676e-17
9.52661e-17
9.52643e-17
9.52623e-17
9.52601e-17
9.52576e-17
9.52549e-17
9.52521e-17
9.52492e-17
9.52464e-17
9.52722e-17
9.52713e-17
9.52705e-17
9.52694e-17
9.5268e-17
9.52665e-17
9.52648e-17
9.52628e-17
9.52606e-17
9.52581e-17
9.52554e-17
9.52525e-17
9.52496e-17
9.52466e-17
9.52721e-17
9.52714e-17
9.52706e-17
9.52695e-17
9.52683e-17
9.52668e-17
9.5265e-17
9.5263e-17
9.52608e-17
9.52583e-17
9.52556e-17
9.52527e-17
9.52498e-17
9.52468e-17
9.52719e-17
9.52713e-17
9.52705e-17
9.52695e-17
9.52682e-17
9.52668e-17
9.5265e-17
9.5263e-17
9.52608e-17
9.52583e-17
9.52556e-17
9.52527e-17
9.52497e-17
9.52466e-17
9.52714e-17
9.52709e-17
9.52701e-17
9.52691e-17
9.52679e-17
9.52665e-17
9.52648e-17
9.52628e-17
9.52605e-17
9.52581e-17
9.52554e-17
9.52525e-17
9.52494e-17
9.52463e-17
9.52706e-17
9.52701e-17
9.52694e-17
9.52685e-17
9.52673e-17
9.52658e-17
9.52641e-17
9.52622e-17
9.526e-17
9.52575e-17
9.52548e-17
9.52519e-17
9.52489e-17
9.52458e-17
9.52696e-17
9.52691e-17
9.52684e-17
9.52675e-17
9.52663e-17
9.52649e-17
9.52632e-17
9.52613e-17
9.52591e-17
9.52566e-17
9.5254e-17
9.52511e-17
9.52481e-17
9.5245e-17
9.52683e-17
9.52678e-17
9.52671e-17
9.52662e-17
9.5265e-17
9.52636e-17
9.5262e-17
9.52601e-17
9.52579e-17
9.52555e-17
9.52528e-17
9.525e-17
9.5247e-17
9.5244e-17
9.52667e-17
9.52662e-17
9.52655e-17
9.52646e-17
9.52635e-17
9.52621e-17
9.52605e-17
9.52586e-17
9.52565e-17
9.52541e-17
9.52514e-17
9.52487e-17
9.52457e-17
9.52427e-17
9.5265e-17
9.52643e-17
9.52637e-17
9.52628e-17
9.52617e-17
9.52603e-17
9.52588e-17
9.52569e-17
9.52548e-17
9.52524e-17
9.52498e-17
9.52471e-17
9.52441e-17
9.52413e-17
9.5263e-17
9.52623e-17
9.52617e-17
9.52608e-17
9.52597e-17
9.52584e-17
9.52568e-17
9.5255e-17
9.52529e-17
9.52506e-17
9.5248e-17
9.52453e-17
9.52424e-17
9.52396e-17
9.52611e-17
9.52602e-17
9.52596e-17
9.52587e-17
9.52577e-17
9.52564e-17
9.52548e-17
9.5253e-17
9.52509e-17
9.52486e-17
9.5246e-17
9.52433e-17
9.52406e-17
9.52378e-17
9.52586e-17
9.5258e-17
9.52574e-17
9.52565e-17
9.52555e-17
9.52542e-17
9.52527e-17
9.52509e-17
9.52489e-17
9.52467e-17
9.52443e-17
9.52417e-17
9.52389e-17
9.5236e-17
9.49717e-17
9.49704e-17
9.49692e-17
9.49681e-17
9.49669e-17
9.49657e-17
9.49644e-17
9.49631e-17
9.49617e-17
9.49603e-17
9.49588e-17
9.49573e-17
9.49558e-17
9.49542e-17
9.49708e-17
9.49696e-17
9.49686e-17
9.49676e-17
9.49665e-17
9.49653e-17
9.4964e-17
9.49626e-17
9.49612e-17
9.49597e-17
9.49581e-17
9.49565e-17
9.4955e-17
9.49536e-17
9.49699e-17
9.49689e-17
9.49679e-17
9.49669e-17
9.49658e-17
9.49647e-17
9.49634e-17
9.49621e-17
9.49607e-17
9.49592e-17
9.49576e-17
9.4956e-17
9.49545e-17
9.4953e-17
9.4969e-17
9.49682e-17
9.49672e-17
9.49662e-17
9.49652e-17
9.49641e-17
9.49629e-17
9.49615e-17
9.49601e-17
9.49586e-17
9.4957e-17
9.49554e-17
9.49539e-17
9.49524e-17
9.49681e-17
9.49673e-17
9.49664e-17
9.49655e-17
9.49645e-17
9.49634e-17
9.49622e-17
9.49609e-17
9.49595e-17
9.49579e-17
9.49564e-17
9.49547e-17
9.49533e-17
9.49517e-17
9.4967e-17
9.49663e-17
9.49655e-17
9.49646e-17
9.49636e-17
9.49626e-17
9.49614e-17
9.49601e-17
9.49587e-17
9.49572e-17
9.49556e-17
9.4954e-17
9.49525e-17
9.49509e-17
9.49659e-17
9.49652e-17
9.49644e-17
9.49636e-17
9.49626e-17
9.49616e-17
9.49605e-17
9.49592e-17
9.49578e-17
9.49563e-17
9.49547e-17
9.49531e-17
9.49516e-17
9.49501e-17
9.49646e-17
9.4964e-17
9.49632e-17
9.49624e-17
9.49615e-17
9.49605e-17
9.49594e-17
9.49581e-17
9.49567e-17
9.49553e-17
9.49537e-17
9.49522e-17
9.49507e-17
9.49491e-17
9.49633e-17
9.49627e-17
9.49619e-17
9.49612e-17
9.49603e-17
9.49593e-17
9.49582e-17
9.49569e-17
9.49556e-17
9.49541e-17
9.49526e-17
9.49511e-17
9.49496e-17
9.49481e-17
9.4962e-17
9.49613e-17
9.49606e-17
9.49598e-17
9.49589e-17
9.49579e-17
9.49568e-17
9.49556e-17
9.49543e-17
9.49529e-17
9.49514e-17
9.49499e-17
9.49484e-17
9.49471e-17
9.49607e-17
9.49599e-17
9.49592e-17
9.49584e-17
9.49575e-17
9.49566e-17
9.49555e-17
9.49543e-17
9.4953e-17
9.49516e-17
9.49501e-17
9.49486e-17
9.49472e-17
9.49459e-17
9.49594e-17
9.49585e-17
9.49579e-17
9.4957e-17
9.49562e-17
9.49552e-17
9.49541e-17
9.49529e-17
9.49516e-17
9.49502e-17
9.49488e-17
9.49474e-17
9.49459e-17
9.49447e-17
9.49582e-17
9.49572e-17
9.49566e-17
9.49557e-17
9.49549e-17
9.49539e-17
9.49528e-17
9.49515e-17
9.49502e-17
9.49488e-17
9.49474e-17
9.4946e-17
9.49446e-17
9.49434e-17
9.4957e-17
9.49562e-17
9.49554e-17
9.49545e-17
9.49535e-17
9.49525e-17
9.49513e-17
9.49501e-17
9.49488e-17
9.49475e-17
9.49462e-17
9.49448e-17
9.49435e-17
9.4942e-17
9.46929e-17
9.46911e-17
9.46896e-17
9.46883e-17
9.46872e-17
9.46863e-17
9.46855e-17
9.46848e-17
9.46843e-17
9.4684e-17
9.46839e-17
9.46838e-17
9.46839e-17
9.46843e-17
9.46911e-17
9.46895e-17
9.46881e-17
9.46869e-17
9.46858e-17
9.46848e-17
9.4684e-17
9.46833e-17
9.46828e-17
9.46825e-17
9.46824e-17
9.46823e-17
9.46823e-17
9.46826e-17
9.46896e-17
9.46881e-17
9.46867e-17
9.46854e-17
9.46843e-17
9.46834e-17
9.46826e-17
9.46819e-17
9.46814e-17
9.46811e-17
9.4681e-17
9.4681e-17
9.46811e-17
9.46813e-17
9.46883e-17
9.46868e-17
9.46854e-17
9.46841e-17
9.4683e-17
9.46821e-17
9.46813e-17
9.46807e-17
9.46802e-17
9.46799e-17
9.46798e-17
9.46798e-17
9.468e-17
9.46801e-17
9.46871e-17
9.46857e-17
9.46842e-17
9.4683e-17
9.46819e-17
9.46809e-17
9.46802e-17
9.46795e-17
9.46791e-17
9.46788e-17
9.46787e-17
9.46787e-17
9.46789e-17
9.46791e-17
9.4686e-17
9.46846e-17
9.46832e-17
9.4682e-17
9.46809e-17
9.468e-17
9.46792e-17
9.46785e-17
9.46781e-17
9.46778e-17
9.46777e-17
9.46777e-17
9.4678e-17
9.46782e-17
9.4685e-17
9.46836e-17
9.46823e-17
9.46811e-17
9.468e-17
9.46791e-17
9.46783e-17
9.46777e-17
9.46772e-17
9.4677e-17
9.46769e-17
9.46769e-17
9.46772e-17
9.46775e-17
9.46842e-17
9.46828e-17
9.46815e-17
9.46803e-17
9.46793e-17
9.46784e-17
9.46776e-17
9.4677e-17
9.46765e-17
9.46763e-17
9.46762e-17
9.46762e-17
9.46765e-17
9.46768e-17
9.46835e-17
9.46822e-17
9.46809e-17
9.46798e-17
9.46787e-17
9.46778e-17
9.46771e-17
9.46765e-17
9.4676e-17
9.46758e-17
9.46757e-17
9.46757e-17
9.4676e-17
9.46763e-17
9.4683e-17
9.46818e-17
9.46805e-17
9.46794e-17
9.46784e-17
9.46775e-17
9.46768e-17
9.46761e-17
9.46757e-17
9.46754e-17
9.46753e-17
9.46754e-17
9.46756e-17
9.4676e-17
9.46829e-17
9.46816e-17
9.46803e-17
9.46792e-17
9.46782e-17
9.46773e-17
9.46766e-17
9.4676e-17
9.46755e-17
9.46753e-17
9.46752e-17
9.46752e-17
9.46754e-17
9.46758e-17
9.46829e-17
9.46816e-17
9.46803e-17
9.46792e-17
9.46782e-17
9.46773e-17
9.46765e-17
9.46759e-17
9.46755e-17
9.46752e-17
9.46751e-17
9.46751e-17
9.46754e-17
9.46758e-17
9.46831e-17
9.46817e-17
9.46805e-17
9.46794e-17
9.46784e-17
9.46775e-17
9.46767e-17
9.46761e-17
9.46756e-17
9.46753e-17
9.46752e-17
9.46752e-17
9.46753e-17
9.46758e-17
9.46837e-17
9.46821e-17
9.46808e-17
9.46796e-17
9.46786e-17
9.46777e-17
9.46769e-17
9.46763e-17
9.46757e-17
9.46754e-17
9.46753e-17
9.46753e-17
9.46756e-17
9.4676e-17
9.44446e-17
9.44423e-17
9.44405e-17
9.4439e-17
9.44379e-17
9.44371e-17
9.44366e-17
9.44365e-17
9.44367e-17
9.44371e-17
9.44378e-17
9.44388e-17
9.44399e-17
9.44414e-17
9.44425e-17
9.44404e-17
9.44386e-17
9.44371e-17
9.44359e-17
9.4435e-17
9.44345e-17
9.44343e-17
9.44345e-17
9.4435e-17
9.44358e-17
9.44367e-17
9.44378e-17
9.44391e-17
9.44407e-17
9.44387e-17
9.44368e-17
9.44352e-17
9.44339e-17
9.4433e-17
9.44324e-17
9.44323e-17
9.44325e-17
9.4433e-17
9.44338e-17
9.44349e-17
9.44362e-17
9.44374e-17
9.44391e-17
9.44371e-17
9.44352e-17
9.44336e-17
9.44323e-17
9.44313e-17
9.44308e-17
9.44306e-17
9.44308e-17
9.44314e-17
9.44322e-17
9.44333e-17
9.44347e-17
9.4436e-17
9.44379e-17
9.44359e-17
9.44339e-17
9.44322e-17
9.44309e-17
9.443e-17
9.44294e-17
9.44292e-17
9.44294e-17
9.443e-17
9.44309e-17
9.4432e-17
9.44335e-17
9.44349e-17
9.44369e-17
9.44348e-17
9.44329e-17
9.44312e-17
9.44299e-17
9.44289e-17
9.44283e-17
9.44282e-17
9.44284e-17
9.4429e-17
9.44299e-17
9.4431e-17
9.44325e-17
9.44341e-17
9.44362e-17
9.44341e-17
9.44322e-17
9.44305e-17
9.44292e-17
9.44283e-17
9.44277e-17
9.44275e-17
9.44277e-17
9.44283e-17
9.44292e-17
9.44304e-17
9.44319e-17
9.44335e-17
9.44359e-17
9.44338e-17
9.44319e-17
9.44303e-17
9.44289e-17
9.4428e-17
9.44274e-17
9.44272e-17
9.44274e-17
9.4428e-17
9.44289e-17
9.44301e-17
9.44317e-17
9.44333e-17
9.44358e-17
9.44339e-17
9.4432e-17
9.44304e-17
9.44291e-17
9.44282e-17
9.44276e-17
9.44274e-17
9.44276e-17
9.44281e-17
9.44291e-17
9.44303e-17
9.44318e-17
9.44334e-17
9.44362e-17
9.44343e-17
9.44324e-17
9.44309e-17
9.44296e-17
9.44287e-17
9.44281e-17
9.44279e-17
9.44281e-17
9.44286e-17
9.44295e-17
9.44307e-17
9.44322e-17
9.44338e-17
9.44368e-17
9.4435e-17
9.44332e-17
9.44317e-17
9.44305e-17
9.44296e-17
9.4429e-17
9.44287e-17
9.44289e-17
9.44294e-17
9.44302e-17
9.44314e-17
9.44328e-17
9.44344e-17
9.44378e-17
9.44361e-17
9.44343e-17
9.44329e-17
9.44316e-17
9.44307e-17
9.44301e-17
9.44299e-17
9.443e-17
9.44304e-17
9.44312e-17
9.44323e-17
9.44337e-17
9.44353e-17
9.44391e-17
9.44373e-17
9.44358e-17
9.44343e-17
9.44332e-17
9.44322e-17
9.44316e-17
9.44313e-17
9.44314e-17
9.44318e-17
9.44325e-17
9.44335e-17
9.44348e-17
9.44364e-17
9.4441e-17
9.44389e-17
9.44373e-17
9.44359e-17
9.44347e-17
9.44338e-17
9.44332e-17
9.44329e-17
9.44328e-17
9.44332e-17
9.44338e-17
9.44348e-17
9.4436e-17
9.44378e-17
9.42272e-17
9.4225e-17
9.42233e-17
9.42219e-17
9.4221e-17
9.42203e-17
9.422e-17
9.422e-17
9.42203e-17
9.42209e-17
9.42218e-17
9.4223e-17
9.42243e-17
9.42258e-17
9.42253e-17
9.42234e-17
9.42217e-17
9.42202e-17
9.42191e-17
9.42183e-17
9.42179e-17
9.42179e-17
9.42183e-17
9.42189e-17
9.42199e-17
9.4221e-17
9.42223e-17
9.42237e-17
9.42237e-17
9.42218e-17
9.42199e-17
9.42184e-17
9.42173e-17
9.42165e-17
9.42161e-17
9.4216e-17
9.42164e-17
9.4217e-17
9.4218e-17
9.42192e-17
9.42207e-17
9.42221e-17
9.42224e-17
9.42204e-17
9.42185e-17
9.4217e-17
9.42158e-17
9.4215e-17
9.42145e-17
9.42145e-17
9.42148e-17
9.42155e-17
9.42165e-17
9.42178e-17
9.42193e-17
9.42208e-17
9.42213e-17
9.42193e-17
9.42174e-17
9.42158e-17
9.42146e-17
9.42138e-17
9.42133e-17
9.42132e-17
9.42136e-17
9.42143e-17
9.42153e-17
9.42166e-17
9.42182e-17
9.42199e-17
9.42206e-17
9.42185e-17
9.42166e-17
9.4215e-17
9.42138e-17
9.42129e-17
9.42125e-17
9.42124e-17
9.42128e-17
9.42135e-17
9.42146e-17
9.42159e-17
9.42175e-17
9.42193e-17
9.42201e-17
9.4218e-17
9.42161e-17
9.42146e-17
9.42133e-17
9.42125e-17
9.4212e-17
9.42119e-17
9.42123e-17
9.4213e-17
9.42141e-17
9.42155e-17
9.42172e-17
9.4219e-17
9.422e-17
9.4218e-17
9.42161e-17
9.42145e-17
9.42133e-17
9.42125e-17
9.4212e-17
9.42119e-17
9.42123e-17
9.4213e-17
9.42141e-17
9.42155e-17
9.42172e-17
9.42191e-17
9.42203e-17
9.42183e-17
9.42165e-17
9.42149e-17
9.42137e-17
9.42129e-17
9.42124e-17
9.42123e-17
9.42127e-17
9.42134e-17
9.42145e-17
9.42159e-17
9.42176e-17
9.42195e-17
9.42209e-17
9.4219e-17
9.42172e-17
9.42157e-17
9.42145e-17
9.42136e-17
9.42132e-17
9.42131e-17
9.42134e-17
9.42141e-17
9.42152e-17
9.42165e-17
9.42183e-17
9.42201e-17
9.42218e-17
9.422e-17
9.42182e-17
9.42168e-17
9.42156e-17
9.42148e-17
9.42143e-17
9.42142e-17
9.42145e-17
9.42152e-17
9.42162e-17
9.42175e-17
9.42192e-17
9.42209e-17
9.4223e-17
9.42214e-17
9.42196e-17
9.42182e-17
9.4217e-17
9.42162e-17
9.42157e-17
9.42156e-17
9.42159e-17
9.42165e-17
9.42175e-17
9.42187e-17
9.42204e-17
9.42221e-17
9.42246e-17
9.4223e-17
9.42214e-17
9.422e-17
9.42188e-17
9.4218e-17
9.42175e-17
9.42173e-17
9.42175e-17
9.42181e-17
9.4219e-17
9.42202e-17
9.42217e-17
9.42234e-17
9.42266e-17
9.42247e-17
9.42231e-17
9.42218e-17
9.42207e-17
9.42199e-17
9.42194e-17