/*--------------------------------*- C++ -*----------------------------------*\
| =========                 |                                                 |
| \\      /  F ield         | OpenFOAM: The Open Source CFD Toolbox           |
|  \\    /   O peration     | Version:  v2106                                 |
|   \\  /    A nd           | Website:  www.openfoam.com                      |
|    \\/     M anipulation  |                                                 |
\*---------------------------------------------------------------------------*/
FoamFile
{
    version     2.0;
    format      ascii;
    arch        "LSB;label=32;scalar=64";
    class       surfaceScalarField;
    location    "0.000158";
    object      phi;
}
// * * * * * * * * * * * * * * * * * * * * * * * * * * * * * * * * * * * * * //

dimensions      [1 0 -1 0 0 0 0];

internalField   nonuniform List<scalar> 
52222
(
-1.68622e-07
1.71267e-06
3.45544e-07
1.68682e-07
-1.67946e-07
1.71522e-06
3.47691e-07
-1.67211e-07
1.71868e-06
3.52757e-07
1.72267e-06
3.53891e-07
-1.06739e-07
-3.4336e-07
1.64896e-06
3.33241e-07
1.0349e-07
-1.07234e-07
-3.42118e-07
1.65193e-06
3.29948e-07
-1.08703e-07
-3.47561e-07
1.65613e-06
3.35984e-07
-1.09584e-07
-3.47449e-07
1.66038e-06
3.35956e-07
-1.10148e-07
-3.49866e-07
1.6646e-06
3.39279e-07
-1.10019e-07
-3.50315e-07
1.66843e-06
3.40178e-07
-3.5158e-07
1.67193e-06
3.41871e-07
-1.05846e-07
-3.48791e-07
1.65081e-06
1.00479e-07
-1.08684e-07
-3.50108e-07
1.65413e-06
-1.11905e-07
-3.544e-07
1.65889e-06
-1.13103e-07
-3.55686e-07
1.66357e-06
-1.14031e-07
-3.57794e-07
1.66821e-06
-1.14187e-07
-3.58347e-07
1.67218e-06
-3.59523e-07
1.67588e-06
-1.10357e-07
-3.52958e-07
1.65371e-06
1.05772e-07
-1.12316e-07
-3.56777e-07
1.65764e-06
-1.14377e-07
-3.60225e-07
1.66292e-06
-1.14392e-07
-3.62894e-07
1.66748e-06
-1.14186e-07
-3.64442e-07
1.67221e-06
-1.12935e-07
-3.65239e-07
1.67603e-06
-3.65818e-07
1.67967e-06
-1.12089e-07
-3.56634e-07
1.65783e-06
1.08778e-07
-1.14071e-07
-3.61341e-07
1.66173e-06
-1.15826e-07
-3.64253e-07
1.66688e-06
-1.16138e-07
-3.67674e-07
1.67121e-06
-1.16305e-07
-3.6838e-07
1.67573e-06
-1.1542e-07
-3.69344e-07
1.67945e-06
-3.69675e-07
1.68313e-06
-1.16024e-07
-3.59643e-07
1.6622e-06
1.13636e-07
-1.16713e-07
-3.65346e-07
1.666e-06
-1.17241e-07
-3.67476e-07
1.67098e-06
-1.16847e-07
-3.70964e-07
1.67512e-06
-1.16224e-07
-3.70856e-07
1.67942e-06
-1.14749e-07
-3.71859e-07
1.683e-06
-3.71758e-07
1.68652e-06
-1.16205e-07
-3.61773e-07
1.66601e-06
1.14746e-07
-1.16407e-07
-3.68074e-07
1.66966e-06
-1.17067e-07
-3.68693e-07
1.67423e-06
-1.1728e-07
-3.71676e-07
1.67827e-06
-1.16965e-07
-3.71012e-07
1.68237e-06
-1.15793e-07
-3.71925e-07
1.68601e-06
-3.71507e-07
1.68957e-06
-1.1763e-07
-3.63001e-07
1.66914e-06
1.17298e-07
-1.17464e-07
-3.68993e-07
1.67307e-06
-1.17669e-07
-3.68212e-07
1.67741e-06
-1.17536e-07
-3.70527e-07
1.68146e-06
-1.16657e-07
-3.69616e-07
1.68538e-06
-1.15099e-07
-3.70273e-07
1.689e-06
-3.69573e-07
1.69244e-06
-1.16827e-07
-3.63163e-07
1.67154e-06
1.17166e-07
-1.17443e-07
-3.67307e-07
1.67581e-06
-1.17638e-07
-3.65964e-07
1.67982e-06
-1.1763e-07
-3.67449e-07
1.68397e-06
-1.1663e-07
-3.66577e-07
1.68782e-06
-1.15033e-07
-3.66891e-07
1.69156e-06
-3.66074e-07
1.69502e-06
-1.18661e-07
-3.6161e-07
1.67409e-06
1.18898e-07
-1.1932e-07
-3.63941e-07
1.67851e-06
-1.18879e-07
-3.62729e-07
1.68242e-06
-1.18162e-07
-3.63475e-07
1.68663e-06
-1.16507e-07
-3.62651e-07
1.69037e-06
-1.14414e-07
-3.62498e-07
1.69409e-06
-3.61539e-07
1.69744e-06
-1.19092e-07
-3.58306e-07
1.67643e-06
1.19349e-07
-1.19372e-07
-3.59197e-07
1.68076e-06
-1.18542e-07
-3.58204e-07
1.68448e-06
-1.17504e-07
-3.58297e-07
1.68872e-06
-1.15585e-07
-3.5758e-07
1.69242e-06
-1.13279e-07
-3.56947e-07
1.6962e-06
-3.55854e-07
1.69955e-06
-1.19968e-07
-3.53131e-07
1.67945e-06
1.20143e-07
-1.19872e-07
-3.53374e-07
1.6837e-06
-1.18734e-07
-3.52665e-07
1.68718e-06
-1.17301e-07
-3.52335e-07
1.69128e-06
-1.14985e-07
-3.51709e-07
1.69477e-06
-1.12224e-07
-3.50611e-07
1.69839e-06
-3.49311e-07
1.70157e-06
-1.18764e-07
-3.46881e-07
1.68159e-06
1.19122e-07
-1.17968e-07
-3.47821e-07
1.68577e-06
-1.16586e-07
-3.46936e-07
1.6891e-06
-1.14877e-07
-3.46033e-07
1.69313e-06
-1.12434e-07
-3.45092e-07
1.69654e-06
-1.09592e-07
-3.43355e-07
1.7001e-06
-3.4158e-07
1.7033e-06
-1.16449e-07
-3.4119e-07
1.68397e-06
1.17629e-07
-1.14164e-07
-3.43632e-07
1.68834e-06
-1.12774e-07
-3.40889e-07
1.69181e-06
-1.11332e-07
-3.38784e-07
1.69579e-06
-1.09545e-07
-3.37034e-07
1.699e-06
-1.07442e-07
-3.3455e-07
1.70222e-06
-3.32368e-07
1.70504e-06
-1.16196e-07
1.68391e-06
-3.3987e-07
1.22899e-07
-1.10472e-07
1.68796e-06
-3.40185e-07
-1.08564e-07
1.69174e-06
-3.32563e-07
-1.06286e-07
1.69588e-06
-3.30057e-07
-1.04321e-07
1.69923e-06
-3.27602e-07
-1.02134e-07
1.70274e-06
-3.2473e-07
1.70603e-06
-3.22235e-07
-3.78575e-08
-2.81245e-07
1.57452e-06
2.72204e-07
3.34545e-08
-4.06573e-08
-2.80906e-07
1.57701e-06
2.69344e-07
-4.5084e-08
-2.84389e-07
1.58064e-06
2.74317e-07
-4.82599e-08
-2.8422e-07
1.58404e-06
2.73179e-07
-5.13212e-08
-2.86094e-07
1.58759e-06
2.75247e-07
-5.3949e-08
-2.86131e-07
1.59088e-06
2.75194e-07
-5.61652e-08
-2.86674e-07
1.594e-06
2.75657e-07
-5.79041e-08
-2.86257e-07
1.59692e-06
2.75068e-07
-5.89976e-08
-2.85764e-07
1.59966e-06
2.74196e-07
-5.96652e-08
-2.85225e-07
1.60222e-06
2.73583e-07
-5.96953e-08
-2.82998e-07
1.60465e-06
2.71087e-07
-5.99499e-08
-2.83058e-07
1.60699e-06
2.71619e-07
-5.99318e-08
-2.81653e-07
1.60924e-06
2.70266e-07
-2.83446e-07
1.6099e-06
2.74906e-07
-6.28127e-08
-3.72538e-08
-2.87643e-07
1.5775e-06
3.14108e-08
-4.20678e-08
-2.89284e-07
1.58061e-06
-4.73685e-08
-2.92533e-07
1.58499e-06
-5.06044e-08
-2.94077e-07
1.5888e-06
-5.37047e-08
-2.95583e-07
1.59261e-06
-5.61892e-08
-2.95797e-07
1.59599e-06
-5.82328e-08
-2.9632e-07
1.59921e-06
-5.9685e-08
-2.96138e-07
1.60212e-06
-6.04875e-08
-2.95994e-07
1.60487e-06
-6.07167e-08
-2.95697e-07
1.60734e-06
-5.99576e-08
-2.94124e-07
1.60974e-06
-5.9856e-08
-2.93322e-07
1.61181e-06
-6.05206e-08
-2.90804e-07
1.61397e-06
-2.89689e-07
1.61436e-06
-6.40009e-08
-4.22269e-08
-2.94816e-07
1.58222e-06
3.79127e-08
-4.52998e-08
-2.98136e-07
1.58564e-06
-4.87358e-08
-3.01e-07
1.59036e-06
-5.08831e-08
-3.03445e-07
1.59413e-06
-5.30722e-08
-3.04275e-07
1.598e-06
-5.47078e-08
-3.0459e-07
1.60132e-06
-5.61814e-08
-3.04809e-07
1.60456e-06
-5.73543e-08
-3.04631e-07
1.60749e-06
-5.80817e-08
-3.04601e-07
1.61028e-06
-5.84319e-08
-3.04374e-07
1.6128e-06
-5.78145e-08
-3.03422e-07
1.61533e-06
-5.76705e-08
-3.01976e-07
1.61736e-06
-5.80908e-08
-2.98672e-07
1.61951e-06
-2.96991e-07
1.61987e-06
-5.88643e-08
-4.29667e-08
-3.00786e-07
1.58786e-06
3.89242e-08
-4.61649e-08
-3.05152e-07
1.59117e-06
-4.94649e-08
-3.07731e-07
1.59574e-06
-5.20092e-08
-3.10536e-07
1.5994e-06
-5.44604e-08
-3.10833e-07
1.6032e-06
-5.62169e-08
-3.11392e-07
1.60652e-06
-5.75533e-08
-3.11491e-07
1.60982e-06
-5.8334e-08
-3.11443e-07
1.61284e-06
-5.8632e-08
-3.11454e-07
1.61572e-06
-5.86323e-08
-3.11176e-07
1.61834e-06
-5.78513e-08
-3.10632e-07
1.62095e-06
-5.73634e-08
-3.08678e-07
1.62314e-06
-5.68399e-08
-3.05195e-07
1.62544e-06
-3.0252e-07
1.62607e-06
-5.73816e-08
-4.60969e-08
-3.0589e-07
1.59362e-06
4.29032e-08
-4.80736e-08
-3.11357e-07
1.59676e-06
-5.04153e-08
-3.1322e-07
1.60113e-06
-5.24538e-08
-3.15932e-07
1.60474e-06
-5.43429e-08
-3.15776e-07
1.60844e-06
-5.57191e-08
-3.16426e-07
1.61176e-06
-5.67916e-08
-3.16338e-07
1.61505e-06
-5.74661e-08
-3.16283e-07
1.6181e-06
-5.78369e-08
-3.1618e-07
1.621e-06
-5.79833e-08
-3.15759e-07
1.62367e-06
-5.7526e-08
-3.15447e-07
1.62627e-06
-5.70359e-08
-3.13288e-07
1.62859e-06
-5.56739e-08
-3.1046e-07
1.63097e-06
-3.06913e-07
1.63184e-06
-5.53657e-08
-4.61415e-08
-3.09852e-07
1.59896e-06
4.36297e-08
-4.77832e-08
-3.15976e-07
1.60206e-06
-5.02905e-08
-3.1664e-07
1.60616e-06
-5.27106e-08
-3.19067e-07
1.6098e-06
-5.47284e-08
-3.18765e-07
1.61346e-06
-5.61992e-08
-3.1948e-07
1.61684e-06
-5.72232e-08
-3.19292e-07
1.62016e-06
-5.78183e-08
-3.19177e-07
1.62327e-06
-5.81394e-08
-3.18884e-07
1.62621e-06
-5.83065e-08
-3.18217e-07
1.62894e-06
-5.81097e-08
-3.17911e-07
1.63152e-06
-5.74985e-08
-3.15901e-07
1.63393e-06
-5.53812e-08
-3.1438e-07
1.63622e-06
-3.09883e-07
1.63746e-06
-5.44816e-08
-4.73051e-08
-3.12964e-07
1.60369e-06
4.57054e-08
-4.87792e-08
-3.18844e-07
1.60707e-06
-5.09741e-08
-3.18455e-07
1.61103e-06
-5.31072e-08
-3.20531e-07
1.61475e-06
-5.4721e-08
-3.20262e-07
1.61836e-06
-5.58812e-08
-3.20948e-07
1.62178e-06
-5.66338e-08
-3.2069e-07
1.62508e-06
-5.70361e-08
-3.20465e-07
1.62819e-06
-5.72401e-08
-3.19971e-07
1.63112e-06
-5.73384e-08
-3.19037e-07
1.63384e-06
-5.73668e-08
-3.18526e-07
1.63637e-06
-5.69005e-08
-3.16734e-07
1.63884e-06
-5.50313e-08
-3.16429e-07
1.64094e-06
-3.11653e-07
1.64263e-06
-5.36865e-08
-4.71682e-08
-3.15042e-07
1.60806e-06
4.60118e-08
-4.91657e-08
-3.196e-07
1.61178e-06
-5.12851e-08
-3.18854e-07
1.61557e-06
-5.3382e-08
-3.20479e-07
1.6194e-06
-5.48296e-08
-3.20373e-07
1.623e-06
-5.58628e-08
-3.20927e-07
1.6265e-06
-5.64445e-08
-3.2064e-07
1.6298e-06
-5.66926e-08
-3.20255e-07
1.63293e-06
-5.67213e-08
-3.19586e-07
1.63587e-06
-5.66376e-08
-3.1839e-07
1.63859e-06
-5.65577e-08
-3.17647e-07
1.64111e-06
-5.60343e-08
-3.16076e-07
1.6436e-06
-5.49078e-08
-3.16209e-07
1.64549e-06
-3.1189e-07
1.64762e-06
-5.34437e-08
-4.89787e-08
-3.15344e-07
1.61236e-06
4.76079e-08
-5.11296e-08
-3.1858e-07
1.61627e-06
-5.27291e-08
-3.18142e-07
1.62001e-06
-5.42358e-08
-3.19336e-07
1.62392e-06
-5.51383e-08
-3.19392e-07
1.62751e-06
-5.57285e-08
-3.19728e-07
1.63102e-06
-5.59243e-08
-3.19425e-07
1.63429e-06
-5.58384e-08
-3.18872e-07
1.63739e-06
-5.55413e-08
-3.18084e-07
1.64029e-06
-5.50695e-08
-3.16716e-07
1.64297e-06
-5.45825e-08
-3.15803e-07
1.64546e-06
-5.36288e-08
-3.14501e-07
1.64803e-06
-5.28137e-08
-3.1435e-07
1.64984e-06
-3.10467e-07
1.6524e-06
-5.17278e-08
-5.01713e-08
-3.14048e-07
1.6166e-06
4.86598e-08
-5.1974e-08
-3.16425e-07
1.6205e-06
-5.31689e-08
-3.16389e-07
1.62413e-06
-5.42986e-08
-3.1711e-07
1.62812e-06
-5.48546e-08
-3.17305e-07
1.63168e-06
-5.51763e-08
-3.17323e-07
1.63524e-06
-5.51318e-08
-3.16983e-07
1.6385e-06
-5.48853e-08
-3.16188e-07
1.64159e-06
-5.44936e-08
-3.15236e-07
1.64446e-06
-5.39455e-08
-3.13681e-07
1.64711e-06
-5.34046e-08
-3.12551e-07
1.64958e-06
-5.21893e-08
-3.1171e-07
1.65224e-06
-5.12606e-08
-3.11096e-07
1.65411e-06
-3.07723e-07
1.65689e-06
-5.01084e-08
-5.20971e-08
-3.11243e-07
1.62136e-06
5.05404e-08
-5.35877e-08
-3.12998e-07
1.62516e-06
-5.43543e-08
-3.13443e-07
1.62856e-06
-5.50041e-08
-3.13759e-07
1.63244e-06
-5.50812e-08
-3.14123e-07
1.63589e-06
-5.49695e-08
-3.13814e-07
1.63935e-06
-5.45384e-08
-3.13449e-07
1.64251e-06
-5.39467e-08
-3.12464e-07
1.64549e-06
-5.32416e-08
-3.11398e-07
1.64827e-06
-5.22907e-08
-3.0979e-07
1.65083e-06
-5.14215e-08
-3.08391e-07
1.65325e-06
-4.97385e-08
-3.08135e-07
1.6561e-06
-4.85523e-08
-3.0677e-07
1.65824e-06
-3.03979e-07
1.66143e-06
-4.72773e-08
-5.16133e-08
-3.07297e-07
1.62554e-06
5.02961e-08
-5.26888e-08
-3.08603e-07
1.62923e-06
-5.3158e-08
-3.09395e-07
1.63246e-06
-5.36154e-08
-3.09187e-07
1.63628e-06
-5.35611e-08
-3.09638e-07
1.63965e-06
-5.34189e-08
-3.08917e-07
1.64304e-06
-5.30936e-08
-3.08393e-07
1.6462e-06
-5.2716e-08
-3.07111e-07
1.64918e-06
-5.23134e-08
-3.05827e-07
1.652e-06
-5.17229e-08
-3.04126e-07
1.65459e-06
-5.12849e-08
-3.02422e-07
1.65702e-06
-4.99682e-08
-3.02865e-07
1.65983e-06
-4.8437e-08
-3.01417e-07
1.66204e-06
-2.99876e-07
1.66533e-06
-4.62623e-08
-5.09149e-08
-3.03118e-07
1.62993e-06
5.05602e-08
-5.15358e-08
-3.03567e-07
1.63373e-06
-5.20508e-08
-3.04036e-07
1.63696e-06
-5.26731e-08
-3.02942e-07
1.64058e-06
-5.29433e-08
-3.03274e-07
1.64372e-06
-5.30857e-08
-3.02237e-07
1.6468e-06
-5.30199e-08
-3.01674e-07
1.64967e-06
-5.26937e-08
-3.00431e-07
1.65235e-06
-5.21063e-08
-2.99233e-07
1.65496e-06
-5.12351e-08
-2.9758e-07
1.6574e-06
-5.07256e-08
-2.95362e-07
1.65978e-06
-5.04511e-08
-2.95418e-07
1.66255e-06
-4.9341e-08
-2.94211e-07
1.6651e-06
-2.96365e-07
1.6682e-06
-4.53563e-08
-5.15128e-08
1.63127e-06
-3.00245e-07
5.4103e-08
-4.8714e-08
1.63544e-06
-3.00588e-07
-4.91213e-08
1.63905e-06
-2.97631e-07
-4.95661e-08
1.6428e-06
-2.95932e-07
-5.00014e-08
1.64618e-06
-2.95739e-07
-5.03477e-08
1.64947e-06
-2.94447e-07
-5.05532e-08
1.65269e-06
-2.93702e-07
-5.02943e-08
1.65567e-06
-2.92468e-07
-4.96451e-08
1.65855e-06
-2.91289e-07
-4.88549e-08
1.66113e-06
-2.89403e-07
-4.85537e-08
1.6636e-06
-2.86496e-07
-4.99442e-08
1.66593e-06
-2.84963e-07
-5.30153e-08
1.66756e-06
-2.82351e-07
1.66869e-06
-5.43929e-08
-2.86684e-07
1.71637e-08
-2.0022e-07
1.49522e-06
1.9287e-07
-2.15528e-08
1.32053e-08
-1.99204e-07
1.49703e-06
1.90321e-07
8.10405e-09
-2.01128e-07
1.49951e-06
1.93032e-07
4.399e-09
-2.00374e-07
1.50155e-06
1.90904e-07
5.51793e-10
-2.00916e-07
1.50379e-06
1.91685e-07
-3.16711e-09
-2.00135e-07
1.50595e-06
1.90842e-07
-6.76757e-09
-1.99766e-07
1.50806e-06
1.90399e-07
-1.01579e-08
-1.98782e-07
1.51012e-06
1.89286e-07
-1.31727e-08
-1.97795e-07
1.51214e-06
1.87989e-07
-1.59076e-08
-1.96707e-07
1.51406e-06
1.86747e-07
-1.81888e-08
-1.94352e-07
1.51591e-06
1.84072e-07
-2.0781e-08
-1.93541e-07
1.51774e-06
1.83801e-07
-2.28376e-08
-1.91348e-07
1.51958e-06
1.81356e-07
-1.92828e-07
1.52011e-06
1.84991e-07
-2.70076e-08
1.91417e-08
-2.05814e-07
1.49866e-06
-2.5067e-08
1.3861e-08
-2.06422e-07
1.50105e-06
8.34191e-09
-2.08368e-07
1.50405e-06
4.5428e-09
-2.0908e-07
1.50623e-06
6.14512e-10
-2.09318e-07
1.50862e-06
-3.00803e-09
-2.0879e-07
1.51084e-06
-6.57142e-09
-2.08466e-07
1.51303e-06
-9.96716e-09
-2.07651e-07
1.51514e-06
-1.30846e-08
-2.06928e-07
1.51721e-06
-1.58722e-08
-2.06154e-07
1.51913e-06
-1.78437e-08
-2.04534e-07
1.521e-06
-2.01663e-08
-2.03258e-07
1.52266e-06
-2.28758e-08
-2.00421e-07
1.52446e-06
-1.99794e-07
1.52491e-06
-2.78421e-08
1.51402e-08
-2.1282e-07
1.50358e-06
-1.91656e-08
1.16643e-08
-2.14726e-07
1.50604e-06
7.82087e-09
-2.16393e-07
1.50923e-06
4.7566e-09
-2.17638e-07
1.51139e-06
1.41379e-09
-2.17369e-07
1.5138e-06
-1.77753e-09
-2.1692e-07
1.51599e-06
-4.97621e-09
-2.16514e-07
1.51821e-06
-7.99054e-09
-2.15842e-07
1.52033e-06
-1.07543e-08
-2.1531e-07
1.52241e-06
-1.33124e-08
-2.14717e-07
1.52435e-06
-1.51516e-08
-2.13659e-07
1.52626e-06
-1.72141e-08
-2.12136e-07
1.52796e-06
-1.95565e-08
-2.08878e-07
1.52982e-06
-2.07289e-07
1.53037e-06
-2.30516e-08
1.56665e-08
-2.18605e-07
1.50921e-06
-1.9813e-08
1.21115e-08
-2.21657e-07
1.51139e-06
8.29343e-09
-2.23096e-07
1.51438e-06
4.77235e-09
-2.2451e-07
1.51657e-06
1.23905e-09
-2.24075e-07
1.519e-06
-1.97709e-09
-2.23894e-07
1.52124e-06
-5.05234e-09
-2.23544e-07
1.52352e-06
-7.89419e-09
-2.23043e-07
1.5257e-06
-1.05471e-08
-2.22626e-07
1.52782e-06
-1.30748e-08
-2.22116e-07
1.52982e-06
-1.50086e-08
-2.21453e-07
1.53176e-06
-1.70148e-08
-2.19788e-07
1.53358e-06
-1.86869e-08
-2.16712e-07
1.53553e-06
-2.1415e-07
1.53625e-06
-2.14573e-08
1.43308e-08
-2.23953e-07
1.51482e-06
-1.76102e-08
1.15417e-08
-2.28013e-07
1.51681e-06
8.2612e-09
-2.29013e-07
1.51965e-06
4.94963e-09
-2.30373e-07
1.52191e-06
1.66439e-09
-2.29879e-07
1.52434e-06
-1.41098e-09
-2.29863e-07
1.52662e-06
-4.36275e-09
-2.29544e-07
1.52893e-06
-7.11456e-09
-2.29161e-07
1.53114e-06
-9.74649e-09
-2.28789e-07
1.53328e-06
-1.23038e-08
-2.28291e-07
1.5353e-06
-1.44971e-08
-2.27784e-07
1.53723e-06
-1.66277e-08
-2.26039e-07
1.5391e-06
-1.78231e-08
-2.23683e-07
1.54105e-06
-2.20705e-07
1.54195e-06
-1.95913e-08
1.49303e-08
-2.28633e-07
1.52021e-06
-1.76017e-08
1.23167e-08
-2.33267e-07
1.52222e-06
8.85889e-09
-2.33539e-07
1.5249e-06
5.2796e-09
-2.34821e-07
1.52727e-06
1.91355e-09
-2.34511e-07
1.52971e-06
-1.22504e-09
-2.34677e-07
1.53204e-06
-4.1759e-09
-2.34459e-07
1.53438e-06
-6.93476e-09
-2.34177e-07
1.53661e-06
-9.60262e-09
-2.33823e-07
1.53879e-06
-1.22318e-08
-2.33285e-07
1.54082e-06
-1.46188e-08
-2.32854e-07
1.54276e-06
-1.66149e-08
-2.3133e-07
1.54465e-06
-1.72755e-08
-2.30113e-07
1.5465e-06
-2.26489e-07
1.54763e-06
-1.86405e-08
1.44989e-08
-2.32808e-07
1.52524e-06
-1.65511e-08
1.19314e-08
-2.37397e-07
1.5275e-06
8.65828e-09
-2.37107e-07
1.53012e-06
5.25738e-09
-2.38323e-07
1.5326e-06
2.08755e-09
-2.38255e-07
1.53505e-06
-9.02852e-10
-2.38578e-07
1.53742e-06
-3.7268e-09
-2.38483e-07
1.53977e-06
-6.38305e-09
-2.38294e-07
1.54202e-06
-8.95545e-09
-2.37971e-07
1.54421e-06
-1.14924e-08
-2.37383e-07
1.54625e-06
-1.39444e-08
-2.36939e-07
1.54818e-06
-1.59112e-08
-2.35703e-07
1.55007e-06
-1.67173e-08
-2.35509e-07
1.55178e-06
-2.31455e-07
1.55314e-06
-1.78059e-08
1.45328e-08
-2.36225e-07
1.5302e-06
-1.63641e-08
1.17043e-08
-2.40202e-07
1.53277e-06
8.49059e-09
-2.39707e-07
1.5353e-06
5.15313e-09
-2.40843e-07
1.53788e-06
2.08889e-09
-2.41075e-07
1.54034e-06
-8.18589e-10
-2.4154e-07
1.54276e-06
-3.5553e-09
-2.416e-07
1.54511e-06
-6.135e-09
-2.41495e-07
1.54737e-06
-8.61374e-09
-2.4122e-07
1.54956e-06
-1.10284e-08
-2.40585e-07
1.55158e-06
-1.33754e-08
-2.40144e-07
1.55352e-06
-1.52175e-08
-2.39202e-07
1.5554e-06
-1.64812e-08
-2.39535e-07
1.55697e-06
-2.35621e-07
1.55857e-06
-1.72862e-08
1.33129e-08
-2.3825e-07
1.53515e-06
-1.54341e-08
1.02864e-08
-2.41662e-07
1.5379e-06
7.42938e-09
-2.41473e-07
1.54038e-06
4.47576e-09
-2.4254e-07
1.54306e-06
1.75045e-09
-2.43054e-07
1.54553e-06
-8.86399e-10
-2.43618e-07
1.54798e-06
-3.39318e-09
-2.4384e-07
1.55033e-06
-5.76507e-09
-2.43831e-07
1.55259e-06
-8.02163e-09
-2.43653e-07
1.55477e-06
-1.0139e-08
-2.43051e-07
1.55677e-06
-1.21752e-08
-2.42652e-07
1.55869e-06
-1.36721e-08
-2.41978e-07
1.56057e-06
-1.51061e-08
-2.42313e-07
1.56206e-06
-2.38718e-07
1.56394e-06
-1.58097e-08
1.2097e-08
-2.38952e-07
1.54015e-06
-1.43803e-08
9.23188e-09
-2.42127e-07
1.54295e-06
6.69219e-09
-2.42386e-07
1.54536e-06
4.00113e-09
-2.43312e-07
1.54812e-06
1.51399e-09
-2.44087e-07
1.5506e-06
-9.39666e-10
-2.44671e-07
1.55307e-06
-3.26807e-09
-2.45036e-07
1.55542e-06
-5.5013e-09
-2.4508e-07
1.55766e-06
-7.65074e-09
-2.44972e-07
1.55981e-06
-9.65863e-09
-2.44389e-07
1.56175e-06
-1.16125e-08
-2.43986e-07
1.56363e-06
-1.28388e-08
-2.43696e-07
1.56553e-06
-1.41708e-08
-2.43806e-07
1.56703e-06
-2.40812e-07
1.5692e-06
-1.46028e-08
9.9283e-09
-2.38249e-07
1.54549e-06
-1.21694e-08
7.27894e-09
-2.41274e-07
1.5482e-06
5.16408e-09
-2.42151e-07
1.55041e-06
2.89347e-09
-2.42967e-07
1.55313e-06
8.11583e-10
-2.44043e-07
1.55559e-06
-1.3219e-09
-2.4459e-07
1.55805e-06
-3.35744e-09
-2.45102e-07
1.56037e-06
-5.33319e-09
-2.45227e-07
1.56256e-06
-7.22688e-09
-2.45249e-07
1.56467e-06
-8.88394e-09
-2.44806e-07
1.56655e-06
-1.04478e-08
-2.44445e-07
1.56838e-06
-1.10386e-08
-2.44693e-07
1.57036e-06
-1.19803e-08
-2.44267e-07
1.57203e-06
-2.41996e-07
1.57467e-06
-1.21002e-08
9.65235e-09
-2.36398e-07
1.55056e-06
-1.16757e-08
7.29609e-09
-2.39328e-07
1.55322e-06
5.43771e-09
-2.40801e-07
1.5553e-06
3.14324e-09
-2.41257e-07
1.558e-06
1.08283e-09
-2.42683e-07
1.56042e-06
-1.10326e-09
-2.43101e-07
1.56284e-06
-3.19165e-09
-2.43709e-07
1.56513e-06
-5.26372e-09
-2.43824e-07
1.56728e-06
-7.30352e-09
-2.43857e-07
1.56936e-06
-9.1653e-09
-2.43435e-07
1.57119e-06
-1.10281e-08
-2.42977e-07
1.57299e-06
-1.18332e-08
-2.43906e-07
1.57499e-06
-1.26431e-08
-2.43362e-07
1.57684e-06
-2.42938e-07
1.57984e-06
-1.17413e-08
8.85302e-09
-2.34333e-07
1.55576e-06
-9.94342e-09
6.6531e-09
-2.36298e-07
1.55848e-06
4.77703e-09
-2.37949e-07
1.56048e-06
2.33277e-09
-2.37844e-07
1.56297e-06
1.87276e-10
-2.39659e-07
1.56524e-06
-1.98792e-09
-2.40119e-07
1.56748e-06
-4.03709e-09
-2.40954e-07
1.56966e-06
-6.05674e-09
-2.41216e-07
1.57169e-06
-7.99478e-09
-2.41385e-07
1.57368e-06
-9.66437e-09
-2.41111e-07
1.57543e-06
-1.13638e-08
-2.4052e-07
1.57724e-06
-1.2417e-08
-2.4176e-07
1.57928e-06
-1.32169e-08
-2.41239e-07
1.58135e-06
-2.44108e-07
1.58434e-06
-1.10984e-08
1.0214e-08
1.55883e-06
-2.3419e-07
-9.2221e-09
8.15965e-09
1.56167e-06
-2.3305e-07
5.94878e-09
1.56423e-06
-2.34256e-07
3.23871e-09
1.56677e-06
-2.33555e-07
6.42543e-10
1.56922e-06
-2.35409e-07
-1.79257e-09
1.57152e-06
-2.35933e-07
-3.96501e-09
1.57381e-06
-2.36861e-07
-5.90389e-09
1.5759e-06
-2.37214e-07
-7.67713e-09
1.57798e-06
-2.37411e-07
-9.38728e-09
1.57982e-06
-2.3704e-07
-1.14708e-08
1.58172e-06
-2.35971e-07
-1.42746e-08
1.58359e-06
-2.36335e-07
-1.79259e-08
1.58526e-06
-2.35114e-07
1.5864e-06
-1.85775e-08
-2.40884e-07
5.07367e-08
-1.21403e-07
1.41889e-06
1.17336e-07
-5.53295e-08
4.68042e-08
-1.19265e-07
1.41985e-06
1.13843e-07
4.26557e-08
-1.20341e-07
1.42109e-06
1.14993e-07
3.96429e-08
-1.19198e-07
1.42192e-06
1.12659e-07
3.62353e-08
-1.18746e-07
1.42286e-06
1.12647e-07
3.27124e-08
-1.17622e-07
1.42388e-06
1.11562e-07
2.90339e-08
-1.16723e-07
1.42489e-06
1.10651e-07
2.52796e-08
-1.15542e-07
1.42591e-06
1.09355e-07
2.15877e-08
-1.14362e-07
1.42696e-06
1.07944e-07
1.81039e-08
-1.1319e-07
1.42791e-06
1.06483e-07
1.49367e-08
-1.11227e-07
1.42885e-06
1.0415e-07
1.14498e-08
-1.09869e-07
1.42978e-06
1.03172e-07
7.98612e-09
-1.07375e-07
1.43083e-06
1.00773e-07
-1.0864e-07
1.43112e-06
1.03544e-07
2.70371e-09
5.33435e-08
-1.24727e-07
1.42216e-06
-5.88392e-08
4.89892e-08
-1.24246e-07
1.4235e-06
4.47309e-08
-1.25145e-07
1.42478e-06
4.14078e-08
-1.24971e-07
1.42557e-06
3.7875e-08
-1.24312e-07
1.42661e-06
3.43654e-08
-1.23324e-07
1.42765e-06
3.0662e-08
-1.22438e-07
1.42871e-06
2.68047e-08
-1.21335e-07
1.42974e-06
2.28897e-08
-1.203e-07
1.4308e-06
1.90616e-08
-1.19382e-07
1.43178e-06
1.56826e-08
-1.17996e-07
1.43277e-06
1.2246e-08
-1.16757e-07
1.43371e-06
8.50133e-09
-1.13893e-07
1.43476e-06
-1.13614e-07
1.43503e-06
2.70339e-09
5.10509e-08
-1.29325e-07
1.42621e-06
-5.503e-08
4.7917e-08
-1.30072e-07
1.42743e-06
4.47963e-08
-1.30624e-07
1.42876e-06
4.19149e-08
-1.30759e-07
1.42953e-06
3.86981e-08
-1.29795e-07
1.43057e-06
3.53701e-08
-1.2882e-07
1.43158e-06
3.18676e-08
-1.27954e-07
1.43263e-06
2.82992e-08
-1.27015e-07
1.43366e-06
2.4735e-08
-1.26191e-07
1.43471e-06
2.1249e-08
-1.25512e-07
1.43569e-06
1.81482e-08
-1.2453e-07
1.43664e-06
1.49221e-08
-1.23307e-07
1.4376e-06
1.17616e-08
-1.20387e-07
1.43867e-06
-1.18877e-07
1.43907e-06
6.82219e-09
5.24601e-08
-1.33284e-07
1.43068e-06
-5.63082e-08
4.92661e-08
-1.35175e-07
1.43163e-06
4.60549e-08
-1.35489e-07
1.43278e-06
4.27515e-08
-1.35646e-07
1.43359e-06
3.93886e-08
-1.34748e-07
1.43465e-06
3.60589e-08
-1.33985e-07
1.43568e-06
3.2638e-08
-1.33264e-07
1.43675e-06
2.91309e-08
-1.32499e-07
1.43779e-06
2.5522e-08
-1.31807e-07
1.43885e-06
2.18475e-08
-1.31203e-07
1.43985e-06
1.84298e-08
-1.30441e-07
1.44081e-06
1.49069e-08
-1.29162e-07
1.44183e-06
1.1886e-08
-1.26558e-07
1.44295e-06
-1.24674e-07
1.44348e-06
7.80177e-09
5.27717e-08
-1.37312e-07
1.43496e-06
-5.57023e-08
4.98569e-08
-1.39897e-07
1.4358e-06
4.67489e-08
-1.40031e-07
1.43692e-06
4.3458e-08
-1.40182e-07
1.4378e-06
4.01181e-08
-1.39441e-07
1.43887e-06
3.67722e-08
-1.38896e-07
1.4399e-06
3.3338e-08
-1.38348e-07
1.44098e-06
2.98338e-08
-1.37781e-07
1.44202e-06
2.62423e-08
-1.3724e-07
1.44309e-06
2.25988e-08
-1.36698e-07
1.4441e-06
1.91205e-08
-1.36056e-07
1.44506e-06
1.56191e-08
-1.34744e-07
1.44607e-06
1.29158e-08
-1.32741e-07
1.44713e-06
-1.30725e-07
1.44781e-06
9.53344e-09
5.39289e-08
-1.41192e-07
1.43925e-06
-5.63395e-08
5.11065e-08
-1.44142e-07
1.44012e-06
4.77552e-08
-1.43938e-07
1.44117e-06
4.42649e-08
-1.44176e-07
1.44211e-06
4.08125e-08
-1.43751e-07
1.44318e-06
3.7372e-08
-1.4349e-07
1.44422e-06
3.38829e-08
-1.43179e-07
1.4453e-06
3.03357e-08
-1.4282e-07
1.44635e-06
2.66913e-08
-1.42427e-07
1.44743e-06
2.29541e-08
-1.41921e-07
1.44843e-06
1.93141e-08
-1.41401e-07
1.44941e-06
1.59031e-08
-1.40278e-07
1.4504e-06
1.35013e-08
-1.39152e-07
1.45143e-06
-1.36586e-07
1.45216e-06
1.02647e-08
5.41029e-08
-1.44848e-07
1.44339e-06
-5.6274e-08
5.1353e-08
-1.47933e-07
1.44442e-06
4.80611e-08
-1.475e-07
1.44546e-06
4.46331e-08
-1.4788e-07
1.44645e-06
4.12073e-08
-1.47796e-07
1.44752e-06
3.77657e-08
-1.47828e-07
1.44857e-06
3.4287e-08
-1.47766e-07
1.44966e-06
3.0785e-08
-1.47622e-07
1.45071e-06
2.72213e-08
-1.474e-07
1.4518e-06
2.35675e-08
-1.46959e-07
1.45279e-06
1.99365e-08
-1.46561e-07
1.45378e-06
1.66443e-08
-1.45715e-07
1.45475e-06
1.41921e-08
-1.45421e-07
1.45574e-06
-1.42365e-07
1.45647e-06
1.12669e-08
5.42573e-08
-1.48055e-07
1.44767e-06
-5.65173e-08
5.14883e-08
-1.51173e-07
1.44883e-06
4.81791e-08
-1.50589e-07
1.44983e-06
4.47467e-08
-1.51146e-07
1.45087e-06
4.13156e-08
-1.51434e-07
1.45193e-06
3.7872e-08
-1.51783e-07
1.45298e-06
3.4422e-08
-1.5199e-07
1.45407e-06
3.09824e-08
-1.52066e-07
1.45512e-06
2.75087e-08
-1.5203e-07
1.45621e-06
2.39564e-08
-1.51692e-07
1.45719e-06
2.04183e-08
-1.51469e-07
1.45819e-06
1.72523e-08
-1.50928e-07
1.45913e-06
1.45526e-08
-1.51243e-07
1.46011e-06
-1.48008e-07
1.46085e-06
1.19395e-08
5.36231e-08
-1.50398e-07
1.45199e-06
-5.6262e-08
5.0781e-08
-1.53701e-07
1.45321e-06
4.76363e-08
-1.53265e-07
1.45418e-06
4.43539e-08
-1.53995e-07
1.45528e-06
4.10505e-08
-1.54632e-07
1.45634e-06
3.77163e-08
-1.55269e-07
1.45741e-06
3.43795e-08
-1.55733e-07
1.4585e-06
3.10718e-08
-1.56037e-07
1.45955e-06
2.7754e-08
-1.56209e-07
1.46064e-06
2.44027e-08
-1.56036e-07
1.46161e-06
2.10543e-08
-1.56003e-07
1.46261e-06
1.81248e-08
-1.55778e-07
1.46352e-06
1.52595e-08
-1.56367e-07
1.46448e-06
-1.53256e-07
1.46529e-06
1.29753e-08
5.27231e-08
-1.5194e-07
1.45638e-06
-5.55917e-08
4.99102e-08
-1.55584e-07
1.4576e-06
4.6913e-08
-1.55463e-07
1.45854e-06
4.37237e-08
-1.56287e-07
1.45969e-06
4.05233e-08
-1.57246e-07
1.46077e-06
3.72945e-08
-1.5813e-07
1.46184e-06
3.40924e-08
-1.58851e-07
1.46292e-06
3.09213e-08
-1.59384e-07
1.46397e-06
2.77331e-08
-1.59765e-07
1.46504e-06
2.45138e-08
-1.59763e-07
1.46599e-06
2.12733e-08
-1.59897e-07
1.46697e-06
1.85667e-08
-1.60039e-07
1.46786e-06
1.56902e-08
-1.60657e-07
1.46882e-06
-1.58039e-07
1.4698e-06
1.38672e-08
5.10968e-08
-1.52638e-07
1.46091e-06
-5.39179e-08
4.82964e-08
-1.56489e-07
1.46205e-06
4.56032e-08
-1.57e-07
1.46289e-06
4.26965e-08
-1.57954e-07
1.46407e-06
3.9734e-08
-1.59216e-07
1.46515e-06
3.66848e-08
-1.60283e-07
1.46625e-06
3.36621e-08
-1.61254e-07
1.46733e-06
3.06596e-08
-1.62032e-07
1.46837e-06
2.76469e-08
-1.62658e-07
1.46943e-06
2.46569e-08
-1.62883e-07
1.47036e-06
2.16765e-08
-1.63198e-07
1.47134e-06
1.94183e-08
-1.63776e-07
1.47222e-06
1.68586e-08
-1.64173e-07
1.47323e-06
-1.62268e-07
1.47456e-06
1.57184e-08
5.05571e-08
-1.53114e-07
1.46538e-06
-5.28883e-08
4.78879e-08
-1.56785e-07
1.46651e-06
4.52396e-08
-1.57833e-07
1.46729e-06
4.21483e-08
-1.58701e-07
1.46847e-06
3.90842e-08
-1.60336e-07
1.46955e-06
3.59627e-08
-1.6156e-07
1.47064e-06
3.29322e-08
-1.62776e-07
1.47171e-06
2.99177e-08
-1.63762e-07
1.47272e-06
2.68758e-08
-1.64578e-07
1.47376e-06
2.38444e-08
-1.64955e-07
1.47465e-06
2.07892e-08
-1.65336e-07
1.4756e-06
1.86015e-08
-1.66421e-07
1.47647e-06
1.63029e-08
-1.66678e-07
1.47759e-06
-1.66366e-07
1.47934e-06
1.62021e-08
4.94907e-08
-1.54273e-07
1.46997e-06
-5.0272e-08
4.66572e-08
-1.56156e-07
1.47118e-06
4.39791e-08
-1.5762e-07
1.47175e-06
4.08294e-08
-1.58368e-07
1.47282e-06
3.7824e-08
-1.60519e-07
1.47385e-06
3.47741e-08
-1.61987e-07
1.47491e-06
3.18016e-08
-1.63488e-07
1.47598e-06
2.88139e-08
-1.64711e-07
1.47698e-06
2.58166e-08
-1.65761e-07
1.478e-06
2.28945e-08
-1.66364e-07
1.47886e-06
1.9978e-08
-1.66817e-07
1.47982e-06
1.79093e-08
-1.68364e-07
1.48075e-06
1.62762e-08
-1.68949e-07
1.48206e-06
-1.71654e-07
1.484e-06
1.79772e-08
5.21919e-08
1.47337e-06
-1.56054e-07
-5.24529e-08
4.73558e-08
1.47463e-06
-1.53744e-07
4.3585e-08
1.47564e-06
-1.56258e-07
3.96154e-08
1.47675e-06
-1.57053e-07
3.61723e-08
1.47782e-06
-1.59842e-07
3.2997e-08
1.47888e-06
-1.61681e-07
3.00699e-08
1.47994e-06
-1.63464e-07
2.72472e-08
1.48095e-06
-1.64882e-07
2.44996e-08
1.48197e-06
-1.6606e-07
2.18099e-08
1.48283e-06
-1.66715e-07
1.88517e-08
1.48377e-06
-1.66834e-07
1.55339e-08
1.4847e-06
-1.678e-07
1.12848e-08
1.48589e-06
-1.67627e-07
1.48697e-06
1.04826e-08
-1.74331e-07
6.4328e-08
-5.80415e-08
1.34845e-06
5.67419e-08
-6.88362e-08
6.15139e-08
-5.5613e-08
1.34858e-06
5.27358e-08
5.8645e-08
-5.62634e-08
1.34872e-06
5.3529e-08
5.62754e-08
-5.53763e-08
1.34879e-06
5.19337e-08
5.3497e-08
-5.46402e-08
1.34883e-06
5.14962e-08
5.05343e-08
-5.37504e-08
1.34897e-06
5.06099e-08
4.73473e-08
-5.29503e-08
1.34912e-06
4.98104e-08
4.3992e-08
-5.204e-08
1.34926e-06
4.87929e-08
4.05515e-08
-5.1098e-08
1.34944e-06
4.76447e-08
3.72502e-08
-5.02907e-08
1.34953e-06
4.64459e-08
3.41455e-08
-4.89652e-08
1.34961e-06
4.47169e-08
3.10249e-08
-4.76877e-08
1.34967e-06
4.33761e-08
2.75607e-08
-4.52013e-08
1.34979e-06
4.1297e-08
-4.63007e-08
1.34998e-06
4.38392e-08
2.19803e-08
6.60174e-08
-5.89747e-08
1.35103e-06
-7.10228e-08
6.31934e-08
-5.83576e-08
1.35128e-06
6.05983e-08
-5.88876e-08
1.35118e-06
5.81122e-08
-5.8467e-08
1.35124e-06
5.53998e-08
-5.76277e-08
1.35129e-06
5.25149e-08
-5.67367e-08
1.35141e-06
4.93756e-08
-5.58678e-08
1.35153e-06
4.59684e-08
-5.49345e-08
1.35162e-06
4.23301e-08
-5.40193e-08
1.35173e-06
3.85734e-08
-5.33392e-08
1.35179e-06
3.4899e-08
-5.23055e-08
1.35189e-06
3.13497e-08
-5.13938e-08
1.35207e-06
2.78814e-08
-4.88973e-08
1.35221e-06
-4.8499e-08
1.35246e-06
2.20659e-08
6.50491e-08
-6.11867e-08
1.35375e-06
-6.85207e-08
6.29387e-08
-6.16574e-08
1.3539e-06
6.09604e-08
-6.20171e-08
1.35385e-06
5.86711e-08
-6.16724e-08
1.35387e-06
5.60216e-08
-6.06441e-08
1.3539e-06
5.31485e-08
-5.97327e-08
1.35397e-06
5.00958e-08
-5.88909e-08
1.35406e-06
4.68933e-08
-5.80777e-08
1.35415e-06
4.35772e-08
-5.73331e-08
1.35428e-06
4.01732e-08
-5.68162e-08
1.35437e-06
3.68228e-08
-5.60192e-08
1.35442e-06
3.33171e-08
-5.51444e-08
1.35458e-06
3.01748e-08
-5.27414e-08
1.35458e-06
-5.17295e-08
1.35489e-06
2.55359e-08
6.66849e-08
-6.33328e-08
1.35664e-06
-6.97616e-08
6.44292e-08
-6.4599e-08
1.35666e-06
6.21219e-08
-6.47848e-08
1.35654e-06
5.94888e-08
-6.44874e-08
1.3565e-06
5.67607e-08
-6.36037e-08
1.35654e-06
5.39461e-08
-6.28587e-08
1.35659e-06
5.10056e-08
-6.21478e-08
1.35666e-06
4.78755e-08
-6.14491e-08
1.35673e-06
4.45449e-08
-6.07935e-08
1.35684e-06
4.10012e-08
-6.02733e-08
1.35691e-06
3.74306e-08
-5.95895e-08
1.35697e-06
3.37015e-08
-5.86945e-08
1.35712e-06
3.05087e-08
-5.66601e-08
1.35714e-06
-5.53675e-08
1.35754e-06
2.61947e-08
6.76413e-08