/*--------------------------------*- C++ -*----------------------------------*\
| =========                 |                                                 |
| \\      /  F ield         | OpenFOAM: The Open Source CFD Toolbox           |
|  \\    /   O peration     | Version:  v2106                                 |
|   \\  /    A nd           | Website:  www.openfoam.com                      |
|    \\/     M anipulation  |                                                 |
\*---------------------------------------------------------------------------*/
FoamFile
{
    version     2.0;
    format      ascii;
    arch        "LSB;label=32;scalar=64";
    class       volScalarField;
    location    "0.00012";
    object      epsilon;
}
// * * * * * * * * * * * * * * * * * * * * * * * * * * * * * * * * * * * * * //

dimensions      [0 2 -3 0 0 0 0];

internalField   nonuniform List<scalar> 
18109
(
0.500501
0.123984
0.21062
0.723027
2.06886
4.50632
7.58866
1.38935
0.266246
0.0600624
0.0693948
0.203069
0.499992
0.953004
4.04131
0.779255
0.131269
0.0235991
0.0180674
0.0443521
0.0959732
9.28315
1.80986
0.31226
0.0477567
0.00723796
0.00374515
0.00763042
15.8809
3.17507
0.553219
0.0839344
0.0110223
0.00138032
0.000562604
19.8997
3.90863
0.66325
0.0970853
0.012177
0.00129832
0.000133096
19.213
3.54443
0.565754
0.0778714
0.00917136
0.000912351
7.57979e-05
15.0832
2.55116
0.373232
0.0471161
0.00509763
0.000466449
3.54848e-05
0.0911455
0.0180206
0.0238838
0.0905901
0.290432
0.702065
1.27253
1.76206
1.89795
1.58899
1.00691
0.495555
0.17957
0.0513178
0.271797
0.0470789
0.00874274
0.00776289
0.0243148
0.0652538
0.132437
0.204304
0.242417
0.22025
0.146624
0.0723284
0.0246117
0.0064578
0.828781
0.146303
0.0228258
0.0035043
0.00194255
0.00481262
0.0109044
0.0188046
0.0246168
0.024226
0.0168667
0.00832931
0.00273142
0.000681287
1.99972
0.355025
0.055162
0.00749667
0.000953676
0.000358167
0.00070252
0.00135214
0.00195199
0.00209329
0.00153896
0.000770943
0.000247829
6.55425e-05
3.50963
0.622829
0.0950932
0.0125142
0.00140711
0.000145169
4.36712e-05
7.38741e-05
0.000117387
0.000138533
0.000108651
5.58519e-05
1.8454e-05
5.03811e-05
4.34675
0.744784
0.108939
0.013607
0.0014417
0.000129075
1.07443e-05
3.46424e-06
5.18366e-06
6.79028e-06
5.83034e-06
3.19543e-06
3.269e-06
0.000280234
4.04927
0.646375
0.0883504
0.0103107
0.00102005
8.49435e-05
5.94921e-06
4.50214e-07
2.12823e-07
2.79056e-07
2.69158e-07
2.51194e-07
1.1552e-05
0.00102417
2.98859
0.438279
0.0551492
0.0059348
0.00054295
4.19184e-05
2.73491e-06
1.83838e-07
4.90334e-08
4.55579e-08
4.78283e-08
4.61469e-07
4.14695e-05
0.00242486
1.80907
0.245229
0.0285544
0.00284153
0.000240278
1.71644e-05
1.05961e-06
9.00763e-08
4.16925e-08
3.96639e-08
4.92746e-08
1.44201e-06
9.79509e-05
0.00381367
0.90464
0.114807
0.0124043
0.00113464
8.76071e-05
5.8376e-06
4.32917e-07
9.06265e-08
5.17028e-08
4.21575e-08
6.83281e-08
2.95277e-06
0.000148859
0.00409656
0.37471
0.0449938
0.00453602
0.000388134
3.3104e-05
7.24704e-06
3.70398e-06
1.65743e-06
5.7629e-07
1.66611e-07
9.7349e-08
3.05107e-06
0.000126717
0.00288224
0.135919
0.0154519
0.00147963
0.000192585
0.000142858
0.000141277
9.6135e-05
4.62323e-05
1.65014e-05
4.28382e-06
8.77735e-07
1.69794e-06
5.90456e-05
0.00119276
0.0424732
0.00470398
0.0009175
0.0013955
0.00237105
0.00256756
0.00184401
0.000944032
0.000360667
0.0001014
2.15682e-05
3.84485e-06
1.55711e-05
0.000308767
0.0148331
0.00362017
0.00727222
0.0186787
0.0321809
0.0357052
0.0267615
0.0145688
0.00596406
0.0018207
0.000423254
7.55845e-05
1.4745e-05
0.000116306
0.733923
1.91957
5.34437
15.657
46.9539
135.952
0.133228
0.361039
1.00489
2.94269
9.22514
29.5435
0.0534982
0.355971
2.10469
10.5499
44.9932
164.799
0.24646
1.77819
10.4068
50.4131
206.639
714.928
0.945965
6.98593
40.5526
188.132
713.659
2236.21
2.78849
20.4108
115.773
514.086
1818.84
5188.45
6.10667
42.9376
232.922
979.448
3235.08
8537.47
9.90144
65.4034
334.373
1325.88
4126.36
10303.4
12.2128
74.7436
360.744
1363.9
4067.46
9820.74
11.7909
66.2158
302.137
1101.35
3193.49
7556.32
8.99438
45.7211
196.671
696.396
2003.93
4732.78
5.38229
24.785
103.752
369.471
1068.47
2518.36
2.61402
11.1527
45.4201
159.405
461.971
1092.45
1.02892
3.95471
15.3763
51.4912
149.007
349.903
0.319856
1.07489
3.67717
10.6619
29.5103
65.7796
0.0429222
0.128396
0.411768
1.12747
3.10678
6.66645
0.00433934
0.0131365
0.0399419
0.110543
0.365741
1.70496
0.000369129
0.00145117
0.0153313
0.195279
1.92856
14.7129
0.000286783
0.00776842
0.136917
1.65488
14.3294
93.8291
0.0021763
0.0537673
0.824073
8.73509
66.5403
378.791
0.0111452
0.245126
3.33376
30.9555
206.383
1021.05
0.0349308
0.699471
8.77051
74.6112
446.854
1937.49
0.0696605
1.23386
14.0329
109.409
598.675
2363.16
0.0920082
1.42565
14.7311
106.597
547.936
2040.67
0.0795436
1.06535
10.0686
68.8818
341.601
1237.83
0.0445513
0.516
4.50436
29.4258
143.403
525.172
0.0171773
0.167517
1.3488
8.77091
44.711
170.017
0.00441997
0.0373922
0.272304
1.63832
8.4198
33.4058
0.000828945
0.00614708
0.0394443
0.203894
0.927527
3.44447
0.000461633
0.00206119
0.00891915
0.0367442
0.147245
0.577461
0.000203902
0.00196753
0.0163343
0.118208
0.735701
4.00636
0.00123947
0.0133534
0.118764
0.888337
5.52851
29.1893
0.00631986
0.070852
0.641971
4.77134
28.8548
144.176
0.0251383
0.283169
2.53991
18.3113
105.334
488.347
0.0767094
0.844742
7.32365
50.328
272.088
1160.47
0.176681
1.8686
15.4543
100.257
503.633
1955.41
0.308641
3.07794
23.9653
145.286
673.074
2373.01
0.400334
3.71493
26.7507
149.282
635.625
2068.67
0.359508
3.06446
20.0837
102.092
402.886
1251.97
0.21537
1.67615
9.90081
45.6434
168.737
508.161
0.0882416
0.619723
3.26666
13.6318
47.1844
137.511
0.0292473
0.181703
0.850473
3.1899
9.98956
26.2878
0.0200436
0.0930381
0.369467
1.25675
3.71591
9.82771
41.2111
143.302
430.145
1100.89
2412.2
4622.53
18.3709
60.8181
179.53
450.414
990.552
1889.79
6.61898
19.7494
53.2686
126.4
271.102
515.537
2.06814
5.70871
14.4127
32.5407
66.4132
116.852
0.109427
0.431247
1.60661
5.53706
17.4987
50.5241
0.32961
1.55776
6.63738
25.0984
84.3807
252.356
0.997547
5.18613
23.5341
92.1873
314.085
932.055
2.63071
14.4913
67.8396
267.701
897.816
2561.16
6.08423
34.4685
162.681
632.76
2033.03
5409.52
11.4509
64.1055
295.57
1106.55
3364.71
8394.05
17.4613
93.0153
407.709
1446.66
4161.4
9878.5
21.7109
107.56
442.886
1488.02
4080.98
9343
21.6452
98.671
380.797
1218.46
3221.66
7199.18
16.8694
70.7759
255.919
782.673
2013.75
4416.37
9.8481
38.8596
133.88
395.124
1005.65
2235.16
4.1859
15.545
52.0441
149.052
385.524
851.013
1.44088
4.80433
14.5403
38.6416
94.0359
207.478
0.429414
1.31253
3.65466
9.08646
20.5037
39.5828
92.4175
437.382
1463.53
3606.88
6942.31
523.502
2157.21
6334.18
14273.8
26161.1
2099.9
7418.15
19365.4
40808.6
73467.8
5874.1
17987.7
42607.5
84946.5
148049
12215.3
32295.1
70892
135439
225984
18623.2
45415.2
96548.1
185544
298457
21636.4
52565.7
116181
229501
350642
20453.8
51582
124145
252384
363170
324753
15565.7
39986.4
105374
229631
332030
290614
9500.2
22914.2
59344.5
155890
265967
257954
4991.22
11186.1
21999.8
65310.1
175114
223770
164888
2131.48
4331.66
7171.83
13125.5
60886.7
150371
166565
108403
644.637
1171.78
1843.49
2568.14
3655.64
24820.8
108386
254014
116.872
220.896
360.524
479.787
524.542
496.956
350.549
1226.65
12.82
33.6093
103.449
304.914
720.044
1270.36
295.729
1359.45
10.589
91.5837
488.066
1702.84
4053.07
6934.34
2196.62
3109.55
88.7118
611.024
2656.36
7977.43
17555.9
30315.5
26601
39314.4
474.599
2625.38
9555.82
25316.5
52110
90332.4
150637
170618
1634.97
7414.32
22910.9
53694.1
100339
159384
264355
180415
3793.32
14352.5
38406.1
80967.7
138957
199841
255775
214127
6217
20094.3
49112.7
100422
172532
237836
258140
371284
6995.16
21731.5
53631
115406
207299
279599
293827
254290
5811.16
18549.8
49933.3
118337
224245
297757
3463.98
11383.8
33116.5
93781
202164
279044
1492.57
4930.05
13597.8
47188
139832
235224
494.358
1612.32
3810.12
8626.48
51165.5
148993
100.958
340.15
817.692
1505.26
2623.43
23206.6
10.5699
42.6638
114.973
213.988
301.696
2.28507
15.6838
77.368
261.44
624.079
18.9811
122.122
539.844
1700.78
3868.58
130.575
727.562
2820.48
7998.14
17205.9
594.582
2859.84
9720.3
24974.5
50929.1
1823.75
7542.91
22421
51745
96315
3886.61
13826.2
36254.9
75851.8
130829
5872.09
18491.6
44930.4
91949.4
159067
6519.92
19540.9
47489.1
102590
185112
5372.29
16330.2
42343.4
100491
191538
3151.19
9625.53
26953.9
74587.6
164043
1235.72
3820.33
10709.7
35371.9
106057
317.573
1063.09
2676.73
7038.9
36679.3
54.5197
203.705
541.093
1081.3
2315.1
23.9817
97.4959
306.631
725.2
1325.44
132.875
519.833
1531.07
3513.88
6526.33
676.14
2412.31
6552.3
14204.2
25681.5
2428.21
7810.58
19553
40489.2
72732
6280.33
18113.3
41932.6
82894
144666
12117.8
31302.8
67871.2
129497
217358
17696
42466.4
90573.5
174776
282845
20190.8
48329.9
106738
211844
326398
18841.6
46507.9
110595
226713
332196
14141.2
35537.5
90207.7
199839
300538
8381.09
19888.8
49549.1
131845
238978
4135.25
8684.89
17643.2
53207.9
150032
1461.15
2916.33
5166.39
10899.8
50101
358.424
739.729
1273.98
1938.11
3799.78
65.0664
184.524
457.457
948.601
1647.5
0.00727836
0.00118255
0.000971147
0.00394316
0.0143756
0.0393447
0.0796426
0.120523
0.138268
0.119677
0.0763917
0.0373515
0.0135351
0.00394965
0.0238352
0.00372573
0.000573855
0.000326871
0.00106542
0.00321023
0.00723607
0.0121849
0.0154359
0.0145921
0.00986638
0.00487216
0.00169385
0.000465415
0.0746162
0.0119036
0.00168584
0.000224018
8.49538e-05
0.000211888
0.000528081
0.000990283
0.00138301
0.00142145
0.00100862
0.000501592
0.000170979
4.54324e-05
0.181665
0.0289723
0.00405428
0.000496273
5.53665e-05
1.56524e-05
3.08276e-05
6.38987e-05
9.7986e-05
0.000109682
8.21614e-05
4.16617e-05
1.41194e-05
3.77803e-06
0.315341
0.0496723
0.00675654
0.0007947
8.02607e-05
7.38216e-06
1.87896e-06
3.23587e-06
5.4059e-06
6.62218e-06
5.27622e-06
2.777e-06
9.79472e-07
8.94374e-07
0.375656
0.0565943
0.00732018
0.000813908
7.73818e-05
6.31255e-06
5.0945e-07
1.78175e-07
2.57986e-07
3.36536e-07
2.96199e-07
1.79255e-07
1.30002e-07
4.69797e-06
0.327956
0.0459177
0.00554297
0.000575897
5.12258e-05
3.9133e-06
2.86019e-07
5.33823e-08
4.42199e-08
4.7149e-08
4.66346e-08
4.43878e-08
3.09848e-07
2.13268e-05
0.221852
0.0286096
0.00319454
0.000307919
2.55091e-05
1.83572e-06
1.44517e-07
4.24596e-08
3.73575e-08
3.72167e-08
3.72533e-08
4.7268e-08
1.15383e-06
6.45187e-05
0.121983
0.0146343
0.00152226
0.000136651
1.0559e-05
7.28436e-07
7.55187e-08
3.88435e-08
3.70867e-08
3.69901e-08
3.71859e-08
7.28511e-08
2.97565e-06
0.000127698
0.0552597
0.00624168
0.000605994
5.03366e-05
3.59587e-06
2.53722e-07
4.9602e-08
3.81834e-08
3.72449e-08
3.70467e-08
3.76674e-08
1.16793e-07
4.95101e-06
0.000162998
0.0207958
0.00223085
0.000203148
1.58676e-05
1.23008e-06
2.39782e-07
1.26386e-07
7.35544e-08
4.83739e-08
3.95526e-08
3.83783e-08
1.27865e-07
4.58587e-06
0.000123562
0.00682131
0.000695725
6.04234e-05
7.26889e-06
5.11101e-06
4.70956e-06
2.98311e-06
1.34853e-06
4.69419e-07
1.40344e-07
5.6179e-08
9.15032e-08
2.33709e-06
5.41363e-05
0.00193225
0.000193295
3.81142e-05
6.324e-05
0.000104204
0.000105658
7.02613e-05
3.31178e-05
1.16056e-05
3.01085e-06
6.15531e-07
1.35903e-07
6.93878e-07
1.4824e-05
0.00064425
0.000166028
0.000389801
0.00102456
0.00172159
0.0017972
0.00124561
0.000620188
0.00023016
6.34355e-05
1.33171e-05
2.16698e-06
4.77939e-07
5.04804e-06
0.000606587
8.67022e-05
3.87979e-05
0.000153577
0.000635315
0.00197999
0.00454458
0.00772406
0.0097658
0.00905608
0.00601399
0.00299095
0.00110128
0.000330506
0.00213475
0.000305712
4.11082e-05
1.42806e-05
4.5064e-05
0.000152767
0.000387164
0.000726962
0.00101106
0.00102548
0.000722151
0.000364232
0.00013029
3.7211e-05
0.00669874
0.000980401
0.000127306
1.51186e-05
4.032e-06
9.72939e-06
2.68904e-05
5.57793e-05
8.50564e-05
9.37434e-05
6.92764e-05
3.53321e-05
1.24614e-05
3.47613e-06
0.0159171
0.00232559
0.000298233
3.34945e-05
3.41124e-06
7.93877e-07
1.55269e-06
3.47769e-06
5.76073e-06
6.88235e-06
5.35961e-06
2.80374e-06
1.0028e-06
3.00172e-07
0.0264093
0.00379393
0.00047222
5.09687e-05
4.77594e-06
4.34122e-07
1.26765e-07
2.04127e-07
3.40128e-07
4.31905e-07
3.61284e-07
2.09386e-07
9.67861e-08
6.73089e-08
0.0293311
0.00402301
0.000476295
4.87546e-05
4.32122e-06
3.59984e-07
5.86866e-08
4.30072e-08
4.81343e-08
5.33579e-08
5.12605e-08
4.42736e-08
4.01693e-08
1.76192e-07
0.0233407
0.00299021
0.000331966
3.1942e-05
2.67491e-06
2.23143e-07
4.7085e-08
3.6434e-08
3.60694e-08
3.62457e-08
3.62055e-08
3.60208e-08
4.5958e-08
7.99929e-07
0.014181
0.00168776
0.000174895
1.57696e-05
1.257e-06
1.17159e-07
4.03508e-08
3.59303e-08
3.57008e-08
3.56789e-08
3.56647e-08
3.60443e-08
8.19635e-08
2.73699e-06
0.00700841
0.000782014
7.60452e-05
6.44782e-06
5.02213e-07
6.4877e-08
3.7296e-08
3.57967e-08
3.57071e-08
3.56836e-08
3.56735e-08
3.71577e-08
1.69096e-07
6.19346e-06
0.00286629
0.000302169
2.75304e-05
2.19022e-06
1.8065e-07
4.41879e-08
3.62135e-08
3.57792e-08
3.5731e-08
3.57058e-08
3.57133e-08
3.92386e-08
2.77683e-07
8.88838e-06
0.000980959
9.81811e-05
8.43102e-06
6.54622e-07
7.91821e-08
4.19172e-08
3.81233e-08
3.66492e-08
3.60046e-08
3.5784e-08
3.57606e-08
4.00247e-08
2.75315e-07
7.30328e-06
0.000291942
2.78322e-05
2.31184e-06
3.06805e-07
2.26815e-07
1.99449e-07
1.30808e-07
7.46202e-08
4.74868e-08
3.83294e-08
3.61894e-08
3.83789e-08
1.62485e-07
3.38499e-06
7.56358e-05
7.15243e-06
1.66886e-06
3.05864e-06
4.79034e-06
4.48533e-06
2.74214e-06
1.19575e-06
4.03312e-07
1.21735e-07
5.09472e-08
3.8532e-08
7.26297e-08
9.60123e-07
2.54463e-05
7.81421e-06
2.20876e-05
5.79794e-05
9.23426e-05
8.84991e-05
5.57503e-05
2.50779e-05
8.39034e-06
2.11012e-06
4.26785e-07
9.23176e-08
5.14174e-08
3.05017e-07
4.46047e-05
5.85383e-06
1.56513e-06
5.31875e-06
2.44255e-05
8.52796e-05
0.000219226
0.000415693
0.000578567
0.00057756
0.000401634
0.000204804
7.73001e-05
2.39274e-05
0.000162887
2.15994e-05
2.65064e-06
6.33004e-07
1.72603e-06
6.37075e-06
1.78484e-05
3.70147e-05
5.63872e-05
6.15178e-05
4.5383e-05
2.36119e-05
8.74442e-06
2.60628e-06
0.000505381
6.83661e-05
8.21336e-06
9.14546e-07
2.07965e-07
4.27743e-07
1.2263e-06
2.74585e-06
4.53979e-06
5.3644e-06
4.16326e-06
2.21277e-06
8.27228e-07
2.61986e-07
0.00115473
0.000155929
1.84814e-05
1.94268e-06
2.10881e-07
6.76319e-08
1.0076e-07
1.96912e-07
3.26524e-07
4.07764e-07
3.38425e-07
1.98201e-07
9.37626e-08
5.14677e-08
0.0018051
0.000239036
2.74885e-05
2.77041e-06
2.70712e-07
5.32398e-08
3.88692e-08
4.27252e-08
5.00699e-08
5.58573e-08
5.28677e-08
4.47589e-08
3.84383e-08
3.63184e-08
0.00185024
0.000233963
2.56488e-05
2.46507e-06
2.33933e-07
4.90234e-08
3.58932e-08
3.52725e-08
3.55478e-08
3.58421e-08
3.57479e-08
3.53711e-08
3.51123e-08
3.96687e-08
0.0013365
0.000158808
1.64267e-05
1.50473e-06
1.4878e-07
4.25691e-08
3.54019e-08
3.49842e-08
3.49629e-08
3.49616e-08
3.49477e-08
3.49263e-08
3.53093e-08
6.41067e-08
0.000732442
8.16145e-05
7.96313e-06
7.0568e-07
8.40547e-08
3.80876e-08
3.51517e-08
3.49805e-08
3.49601e-08
3.49466e-08
3.49329e-08
3.49379e-08
3.69158e-08
1.51079e-07
0.000328049
3.45084e-05
3.19474e-06
2.86965e-07
5.23788e-08
3.60453e-08
3.50566e-08
3.49934e-08
3.4977e-08
3.49626e-08
3.49487e-08
3.5006e-08
4.12533e-08
3.33074e-07
0.000122234
1.2179e-05
1.07914e-06
1.12691e-07
4.00208e-08
3.53113e-08
3.50366e-08
3.50098e-08
3.49946e-08
3.498e-08
3.49665e-08
3.51307e-08
4.74578e-08
5.13428e-07
3.82804e-05
3.64108e-06
3.26993e-07
5.55289e-08
3.64187e-08
3.52187e-08
3.50949e-08
3.50453e-08
3.50168e-08
3.49979e-08
3.49841e-08
3.51986e-08
4.82995e-08
4.63875e-07
1.04377e-05
9.68671e-07
1.07868e-07
4.40334e-08
4.15811e-08
4.02461e-08
3.78205e-08
3.60771e-08
3.53125e-08
3.50697e-08
3.50069e-08
3.5128e-08
4.23884e-08
2.46143e-07
2.51762e-06
2.58213e-07
9.95786e-08
1.6545e-07
2.29068e-07
2.01799e-07
1.27605e-07
7.10957e-08
4.54034e-08
3.72383e-08
3.53663e-08
3.50822e-08
3.71482e-08
9.38997e-08
9.34786e-07
3.71891e-07
1.1352e-06
2.89897e-06
4.32951e-06
3.79586e-06
2.18463e-06
9.08969e-07
2.98489e-07
9.44026e-08
4.51606e-08
3.63446e-08
3.5637e-08
4.99536e-08
2.81186e-06
3.70275e-07
9.41629e-08
1.97397e-07
8.60537e-07
3.22866e-06
9.12864e-06
1.91054e-05
2.9125e-05
3.12783e-05
2.28169e-05
1.19511e-05
4.6092e-06
1.47896e-06
1.03247e-05
1.299e-06
1.75141e-07
5.81086e-08
9.09982e-08
2.64651e-07
7.4421e-07
1.65029e-06
2.7204e-06
3.18155e-06
2.47054e-06
1.33893e-06
5.27148e-07
1.8346e-07
3.12949e-05
3.95397e-06
4.68596e-07
7.7459e-08
4.13228e-08
4.86092e-08
8.05151e-08
1.48195e-07
2.39363e-07
2.94096e-07
2.45762e-07
1.4957e-07
7.74343e-08
4.71757e-08
6.82721e-05
8.58309e-06
9.71943e-07
1.24372e-07
4.22922e-08
3.58842e-08
3.71321e-08
4.12076e-08
4.73739e-08
5.20082e-08
4.94783e-08
4.28651e-08
3.76565e-08
3.54795e-08
9.99888e-05
1.22999e-05
1.34158e-06
1.55499e-07
4.43595e-08
3.5375e-08
3.48147e-08
3.49695e-08
3.52943e-08
3.55858e-08
3.54812e-08
3.5104e-08
3.47908e-08
3.46686e-08
9.42403e-05
1.10892e-05
1.16068e-06
1.34231e-07
4.23047e-08
3.51918e-08
3.47114e-08
3.46826e-08
3.4686e-08
3.4691e-08
3.46787e-08
3.46519e-08
3.46294e-08
3.47654e-08
6.18842e-05
6.89479e-06
6.9687e-07
9.0311e-08
3.87473e-08
3.49527e-08
3.47027e-08
3.46794e-08
3.46687e-08
3.46587e-08
3.46476e-08
3.4636e-08
3.46406e-08
3.56545e-08
3.08237e-05
3.26366e-06
3.30071e-07
5.82587e-08
3.63436e-08
3.48075e-08
3.47048e-08
3.46889e-08
3.46773e-08
3.46656e-08
3.46537e-08
3.46431e-08
3.4713e-08
3.91892e-08
1.26257e-05
1.28619e-06
1.43128e-07
4.29109e-08
3.5265e-08
3.47515e-08
3.47115e-08
3.46986e-08
3.46867e-08
3.46743e-08
3.46619e-08
3.46535e-08
3.49176e-08
4.76984e-08
4.3267e-06
4.38282e-07
6.7615e-08
3.70732e-08
3.48848e-08
3.4739e-08
3.472e-08
3.47076e-08
3.46955e-08
3.4683e-08
3.46705e-08
3.46675e-08
3.52479e-08
5.79531e-08
1.26495e-06
1.44606e-07
4.32094e-08
3.53272e-08
3.47888e-08
3.4745e-08
3.47299e-08
3.47167e-08
3.4704e-08
3.46914e-08
3.4679e-08
3.46792e-08
3.53472e-08
5.74943e-08
3.41624e-07
6.08751e-08
3.67348e-08
3.5042e-08
3.49707e-08
3.49032e-08
3.48117e-08
3.47493e-08
3.47176e-08
3.47e-08
3.46871e-08
3.46836e-08
3.50722e-08
4.67613e-08
1.02526e-07
4.07407e-08
3.72612e-08
4.00246e-08
4.19923e-08
4.04241e-08
3.76122e-08
3.57488e-08
3.49858e-08
3.47596e-08
3.47031e-08
3.46871e-08
3.47926e-08
3.81154e-08
6.38036e-08
4.94434e-08
8.67498e-08
1.62579e-07
2.12273e-07
1.76203e-07
1.08103e-07
6.17836e-08
4.21238e-08
3.62332e-08
3.49379e-08
3.47185e-08
3.47076e-08
3.5465e-08
1.79754e-07
5.09027e-08
3.67455e-08
3.88965e-08
5.83514e-08
1.35177e-07
3.48683e-07
7.58139e-07
1.24143e-06
1.43236e-06
1.10869e-06
6.14179e-07
2.62219e-07
1.07717e-07
5.73402e-07
9.63659e-08
4.09154e-08
3.53859e-08
3.61462e-08
4.15457e-08
5.80421e-08
9.29323e-08
1.40241e-07
1.67979e-07
1.43574e-07
9.4997e-08
5.79887e-08
4.17388e-08
1.62548e-06
2.20593e-07
5.3718e-08
3.63068e-08
3.47787e-08
3.49635e-08
3.60038e-08
3.84573e-08
4.21973e-08
4.49748e-08
4.35057e-08
3.9588e-08
3.64455e-08
3.50704e-08
3.33944e-06
4.2063e-07
7.39648e-08
3.80712e-08
3.48377e-08
3.45926e-08
3.46231e-08
3.47557e-08
3.49856e-08
3.51884e-08
3.51158e-08
3.48523e-08
3.4628e-08
3.45264e-08
4.54946e-06
5.5072e-07
8.58055e-08
3.89855e-08
3.48967e-08
3.45815e-08
3.45555e-08
3.45522e-08
3.45556e-08
3.45592e-08
3.45486e-08
3.45263e-08
3.45056e-08
3.44928e-08
3.93423e-06
4.61812e-07
7.52428e-08
3.79416e-08
3.48133e-08
3.45793e-08
3.45567e-08
3.45472e-08
3.45384e-08
3.45296e-08
3.45205e-08
3.4511e-08
3.45023e-08
3.44988e-08
2.36416e-06
2.77051e-07
5.65601e-08
3.63186e-08
3.46962e-08
3.45762e-08
3.45606e-08
3.4551e-08
3.45416e-08
3.45322e-08
3.45229e-08
3.45139e-08
3.45065e-08
3.45317e-08
1.09423e-06
1.39543e-07
4.36519e-08
3.52712e-08
3.46269e-08
3.45765e-08
3.45651e-08
3.45556e-08
3.45461e-08
3.45365e-08
3.45271e-08
3.45183e-08
3.45135e-08
3.46624e-08
4.32497e-07
7.20705e-08
3.76708e-08
3.48139e-08
3.46003e-08
3.45788e-08
3.45691e-08
3.45597e-08
3.45503e-08
3.45408e-08
3.45314e-08
3.45226e-08
3.45256e-08
3.50113e-08
1.59159e-07
4.57203e-08
3.54644e-08
3.46568e-08
3.45942e-08
3.45822e-08
3.45729e-08
3.45635e-08
3.45542e-08
3.45448e-08
3.45356e-08
3.45272e-08
3.45445e-08
3.55073e-08
6.73976e-08
3.73979e-08
3.48138e-08
3.4616e-08
3.45954e-08
3.45857e-08
3.45763e-08
3.45668e-08
3.45575e-08
3.45482e-08
3.45392e-08
3.45313e-08
3.45548e-08
3.55817e-08
4.21542e-08
3.52299e-08
3.46583e-08
3.46138e-08
3.46039e-08
3.45927e-08
3.45808e-08
3.45699e-08
3.45602e-08
3.45511e-08
3.45424e-08
3.45346e-08
3.45468e-08
3.51284e-08
3.61726e-08
3.47616e-08
3.47095e-08
3.48067e-08
3.48478e-08
3.47668e-08
3.46625e-08
3.45984e-08
3.45691e-08
3.4555e-08
3.45454e-08
3.45374e-08
3.4536e-08
3.47016e-08
3.55043e-08
3.52556e-08
3.69329e-08
3.98322e-08
4.11448e-08
3.9317e-08
3.68109e-08
3.53216e-08
3.47513e-08
3.45913e-08
3.45529e-08
3.45404e-08
3.45334e-08
3.45632e-08
4.0718e-08
3.51391e-08
3.45534e-08
3.45751e-08
3.50444e-08
3.70911e-08
4.3388e-08
5.69387e-08
7.54115e-08
8.57529e-08
7.61887e-08
5.77855e-08
4.38485e-08
3.75087e-08
5.74964e-08
3.69593e-08
3.47191e-08
3.45035e-08
3.45106e-08
3.46427e-08
3.50995e-08
3.61814e-08
3.78519e-08
3.90853e-08
3.84596e-08
3.67479e-08
3.53474e-08
3.47047e-08
1.00277e-07
4.16906e-08
3.51756e-08
3.45379e-08
3.44804e-08
3.44779e-08
3.44992e-08
3.45647e-08
3.46818e-08
3.47853e-08
3.47483e-08
3.46114e-08
3.44918e-08
3.44345e-08
1.64365e-07
4.86774e-08
3.58361e-08
3.45928e-08
3.44836e-08
3.44699e-08
3.44639e-08
3.44606e-08
3.44605e-08
3.44608e-08
3.44528e-08
3.4438e-08
3.4424e-08
3.44148e-08
1.99662e-07
5.21337e-08
3.6122e-08
3.46134e-08
3.44853e-08
3.447e-08
3.44626e-08
3.44553e-08
3.44482e-08
3.44412e-08
3.44341e-08
3.44269e-08
3.44203e-08
3.44145e-08
1.65132e-07
4.78966e-08
3.5683e-08
3.45752e-08
3.44828e-08
3.44702e-08
3.44628e-08
3.44554e-08
3.44479e-08
3.44405e-08
3.44334e-08
3.44269e-08
3.4421e-08
3.44156e-08
1.05684e-07
4.14641e-08
3.5083e-08
3.45272e-08
3.44796e-08
3.44701e-08
3.44628e-08
3.44554e-08
3.4448e-08
3.44407e-08
3.44338e-08
3.44275e-08
3.44219e-08
3.44176e-08
6.42377e-08
3.72779e-08
3.47161e-08
3.44994e-08
3.44779e-08
3.44701e-08
3.44628e-08
3.44554e-08
3.44481e-08
3.4441e-08
3.44343e-08
3.44282e-08
3.44229e-08
3.44227e-08
4.47977e-08
3.54137e-08
3.4561e-08
3.44884e-08
3.44772e-08
3.44699e-08
3.44626e-08
3.44553e-08
3.44482e-08
3.44413e-08
3.44348e-08
3.44288e-08
3.44239e-08
3.44359e-08
3.74733e-08
3.47481e-08
3.45089e-08
3.44851e-08
3.44772e-08
3.44699e-08
3.44626e-08
3.44553e-08
3.44483e-08
3.44416e-08
3.44353e-08
3.44295e-08
3.44253e-08
3.44571e-08
3.52243e-08
3.45556e-08
3.44952e-08
3.44848e-08
3.44775e-08
3.44701e-08
3.44627e-08
3.44555e-08
3.44485e-08
3.4442e-08
3.44359e-08
3.44303e-08
3.44266e-08
3.44644e-08
3.46577e-08
3.45101e-08
3.44928e-08
3.44852e-08
3.4478e-08
3.44704e-08
3.44629e-08
3.44557e-08
3.44489e-08
3.44425e-08
3.44366e-08
3.44312e-08
3.44272e-08
3.44485e-08
3.45339e-08
3.45015e-08
3.44956e-08
3.44922e-08
3.44859e-08
3.44758e-08
3.44655e-08
3.44568e-08
3.44495e-08
3.4443e-08
3.44373e-08
3.44321e-08
3.44277e-08
3.4431e-08
3.45314e-08
3.45243e-08
3.45845e-08
3.46752e-08
3.46929e-08
3.46105e-08
3.45233e-08
3.4475e-08
3.44545e-08
3.44451e-08
3.44389e-08
3.44336e-08
3.44285e-08
3.44251e-08
3.46217e-08
3.4421e-08
3.43989e-08
3.43953e-08
3.44012e-08
3.44421e-08
3.45905e-08
3.49523e-08
3.55193e-08
3.59276e-08
3.57133e-08
3.51427e-08
3.46767e-08
3.44544e-08
3.52094e-08
3.44811e-08
3.4404e-08
3.43939e-08
3.43901e-08
3.43886e-08
3.43946e-08
3.44174e-08
3.44609e-08
3.44993e-08
3.4484e-08
3.44296e-08
3.43809e-08
3.43559e-08
3.66365e-08
3.46294e-08
3.44172e-08
3.43945e-08
3.4389e-08
3.43845e-08
3.43803e-08
3.43771e-08
3.43754e-08
3.43739e-08
3.43688e-08
3.43605e-08
3.43527e-08
3.43471e-08
3.85925e-08
3.4829e-08
3.44344e-08
3.43952e-08
3.43883e-08
3.43834e-08
3.43786e-08
3.43737e-08
3.43688e-08
3.43641e-08
3.43594e-08
3.43547e-08
3.43504e-08
3.43465e-08
3.93622e-08
3.4896e-08
3.44386e-08
3.43946e-08
3.43872e-08
3.43823e-08
3.43774e-08
3.43724e-08
3.43674e-08
3.43626e-08
3.4358e-08
3.43538e-08
3.43499e-08
3.43463e-08
3.79983e-08
3.47455e-08
3.44237e-08
3.43925e-08
3.4386e-08
3.43811e-08
3.43762e-08
3.43712e-08
3.43663e-08
3.43615e-08
3.43571e-08
3.43531e-08
3.43494e-08
3.4346e-08
3.61967e-08
3.45639e-08
3.44071e-08
3.43902e-08
3.43847e-08
3.43798e-08
3.43749e-08
3.437e-08
3.43652e-08
3.43606e-08
3.43563e-08
3.43523e-08
3.43489e-08
3.43457e-08
3.50936e-08
3.44588e-08
3.43977e-08
3.43886e-08
3.43835e-08
3.43786e-08
3.43737e-08
3.43688e-08
3.43641e-08
3.43597e-08
3.43556e-08
3.43518e-08
3.43484e-08
3.43455e-08
3.46233e-08
3.44157e-08
3.43936e-08
3.43874e-08
3.43824e-08
3.43774e-08
3.43725e-08
3.43677e-08
3.43632e-08
3.43589e-08
3.43549e-08
3.43513e-08
3.4348e-08
3.43456e-08
3.44609e-08
3.44015e-08
3.43921e-08
3.43867e-08
3.43816e-08
3.43765e-08
3.43716e-08
3.43669e-08
3.43624e-08
3.43583e-08
3.43544e-08
3.43509e-08
3.43478e-08
3.43462e-08
3.44148e-08
3.43974e-08
3.43914e-08
3.43862e-08
3.4381e-08
3.43759e-08
3.43709e-08
3.43662e-08
3.43619e-08
3.43579e-08
3.43542e-08
3.43508e-08
3.43478e-08
3.43465e-08
3.4404e-08
3.43964e-08
3.43912e-08
3.43859e-08
3.43807e-08
3.43755e-08
3.43705e-08
3.43659e-08
3.43617e-08
3.43577e-08
3.43541e-08
3.43508e-08
3.43478e-08
3.4346e-08
3.44014e-08
3.4396e-08
3.43912e-08
3.4386e-08
3.43808e-08
3.43755e-08
3.43705e-08
3.43659e-08
3.43616e-08
3.43578e-08
3.43543e-08
3.43511e-08
3.43482e-08
3.43456e-08
3.4402e-08
3.43966e-08
3.4394e-08
3.43917e-08
3.43868e-08
3.43791e-08
3.4372e-08
3.43665e-08
3.43622e-08
3.43584e-08
3.4355e-08
3.43517e-08
3.43485e-08
3.43454e-08
3.43227e-08
3.43147e-08
3.43121e-08
3.43098e-08
3.43074e-08
3.43054e-08
3.43056e-08
3.43108e-08
3.43225e-08
3.43324e-08
3.43262e-08
3.43082e-08
3.42921e-08
3.4283e-08
3.43398e-08
3.43163e-08
3.4312e-08
3.43093e-08
3.43067e-08
3.43038e-08
3.4301e-08
3.42985e-08
3.42966e-08
3.42947e-08
3.42916e-08
3.42873e-08
3.42832e-08
3.428e-08
3.43797e-08
3.43199e-08
3.43118e-08
3.43087e-08
3.43059e-08
3.4303e-08
3.42999e-08
3.42969e-08
3.42939e-08
3.42909e-08
3.4288e-08
3.4285e-08
3.42823e-08
3.42797e-08
3.44293e-08
3.43243e-08
3.43117e-08
3.43081e-08
3.43051e-08
3.43021e-08
3.4299e-08
3.42959e-08
3.42929e-08
3.42899e-08
3.42871e-08
3.42844e-08
3.42819e-08
3.42795e-08
3.44406e-08
3.43246e-08
3.4311e-08
3.43073e-08
3.43042e-08
3.43012e-08
3.42981e-08
3.4295e-08
3.4292e-08
3.42891e-08
3.42864e-08
3.42838e-08
3.42814e-08
3.42791e-08
3.43985e-08
3.43199e-08
3.431e-08
3.43064e-08
3.43033e-08
3.43002e-08
3.42971e-08
3.42941e-08
3.42911e-08
3.42883e-08
3.42857e-08
3.42832e-08
3.42809e-08
3.42786e-08
3.43531e-08
3.43151e-08
3.43089e-08
3.43055e-08
3.43024e-08
3.42992e-08
3.42962e-08
3.42932e-08
3.42903e-08
3.42876e-08
3.4285e-08
3.42826e-08
3.42803e-08
3.42781e-08
3.43282e-08
3.43124e-08
3.43081e-08
3.43048e-08
3.43016e-08
3.42984e-08
3.42954e-08
3.42924e-08
3.42896e-08
3.42869e-08
3.42844e-08
3.4282e-08
3.42798e-08
3.42777e-08
3.43183e-08
3.43111e-08
3.43075e-08
3.43041e-08
3.43009e-08
3.42977e-08
3.42946e-08
3.42917e-08
3.4289e-08
3.42864e-08
3.42839e-08
3.42816e-08
3.42794e-08
3.42773e-08
3.43149e-08
3.43105e-08
3.4307e-08
3.43036e-08
3.43003e-08
3.42971e-08
3.42941e-08
3.42912e-08
3.42885e-08
3.42859e-08
3.42835e-08
3.42813e-08
3.42791e-08
3.42771e-08
3.43136e-08
3.43099e-08
3.43065e-08
3.43031e-08
3.42999e-08
3.42967e-08
3.42937e-08
3.42909e-08
3.42882e-08
3.42858e-08
3.42834e-08
3.42812e-08
3.4279e-08
3.42769e-08
3.4313e-08
3.43096e-08
3.43062e-08
3.43029e-08
3.42996e-08
3.42965e-08
3.42935e-08
3.42907e-08
3.42881e-08
3.42857e-08
3.42834e-08
3.42811e-08
3.4279e-08
3.42768e-08
3.43125e-08
3.43092e-08
3.4306e-08
3.43027e-08
3.42995e-08
3.42964e-08
3.42935e-08
3.42908e-08
3.42883e-08
3.42859e-08
3.42836e-08
3.42813e-08
3.4279e-08
3.42767e-08
3.43123e-08
3.43088e-08
3.43059e-08
3.43028e-08
3.42998e-08
3.42966e-08
3.42937e-08
3.42909e-08
3.42884e-08
3.4286e-08
3.42837e-08
3.42816e-08
3.42794e-08
3.4277e-08
3.42395e-08
3.42376e-08
3.4236e-08
3.42343e-08
3.42326e-08
3.42308e-08
3.4229e-08
3.42273e-08
3.42257e-08
3.42242e-08
3.42223e-08
3.42201e-08
3.4218e-08
3.42163e-08
3.42399e-08
3.42377e-08
3.4236e-08
3.42342e-08
3.42324e-08
3.42306e-08
3.42287e-08
3.42268e-08
3.4225e-08
3.42232e-08
3.42213e-08
3.42195e-08
3.42178e-08
3.42162e-08
3.42409e-08
3.42377e-08
3.42358e-08
3.4234e-08
3.42322e-08
3.42303e-08
3.42284e-08
3.42266e-08
3.42247e-08
3.42229e-08
3.42211e-08
3.42194e-08
3.42178e-08
3.42161e-08
3.42419e-08
3.42377e-08
3.42357e-08
3.42338e-08
3.42319e-08
3.423e-08
3.42282e-08
3.42263e-08
3.42245e-08
3.42227e-08
3.4221e-08
3.42193e-08
3.42177e-08
3.42161e-08
3.42419e-08
3.42375e-08
3.42354e-08
3.42335e-08
3.42317e-08
3.42298e-08
3.42279e-08
3.42261e-08
3.42243e-08
3.42226e-08
3.42209e-08
3.42192e-08
3.42176e-08
3.4216e-08
3.42408e-08
3.42373e-08
3.42352e-08
3.42333e-08
3.42314e-08
3.42296e-08
3.42277e-08
3.42259e-08
3.42242e-08
3.42224e-08
3.42208e-08
3.42191e-08
3.42175e-08
3.42158e-08
3.42398e-08
3.42371e-08
3.42351e-08
3.42331e-08
3.42312e-08
3.42294e-08
3.42275e-08
3.42258e-08
3.4224e-08
3.42223e-08
3.42206e-08
3.4219e-08
3.42174e-08
3.42157e-08
3.42393e-08
3.4237e-08
3.42349e-08
3.4233e-08
3.42311e-08
3.42292e-08
3.42274e-08
3.42257e-08
3.42239e-08
3.42222e-08
3.42206e-08
3.42189e-08
3.42173e-08
3.42155e-08
3.4239e-08
3.42368e-08
3.42348e-08
3.42329e-08
3.4231e-08
3.42292e-08
3.42274e-08
3.42256e-08
3.42239e-08
3.42222e-08
3.42206e-08
3.42189e-08
3.42172e-08
3.42155e-08
3.42388e-08
3.42367e-08
3.42347e-08
3.42328e-08
3.42309e-08
3.42291e-08
3.42274e-08
3.42257e-08
3.4224e-08
3.42223e-08
3.42206e-08
3.42189e-08
3.42172e-08
3.42154e-08
3.42385e-08
3.42365e-08
3.42346e-08
3.42327e-08
3.42309e-08
3.42291e-08
3.42274e-08
3.42257e-08
3.42241e-08
3.42224e-08
3.42207e-08
3.4219e-08
3.42172e-08
3.42154e-08
3.42381e-08
3.42363e-08
3.42344e-08
3.42326e-08
3.42309e-08
3.42291e-08
3.42275e-08
3.42258e-08
3.42242e-08
3.42225e-08
3.42208e-08
3.4219e-08
3.42173e-08
3.42153e-08
3.42378e-08
3.4236e-08
3.42343e-08
3.42325e-08
3.42308e-08
3.42292e-08
3.42276e-08
3.4226e-08
3.42243e-08
3.42227e-08
3.42209e-08
3.42191e-08
3.42172e-08
3.42153e-08
3.42375e-08
3.42357e-08
3.42341e-08
3.42325e-08
3.42309e-08
3.42292e-08
3.42276e-08
3.4226e-08
3.42244e-08
3.42228e-08
3.42211e-08
3.42193e-08
3.42175e-08
3.42156e-08
3.4173e-08
3.41717e-08
3.41706e-08
3.41694e-08
3.41682e-08
3.4167e-08
3.41658e-08
3.41646e-08
3.41634e-08