/*--------------------------------*- C++ -*----------------------------------*\
| =========                 |                                                 |
| \\      /  F ield         | OpenFOAM: The Open Source CFD Toolbox           |
|  \\    /   O peration     | Version:  v2106                                 |
|   \\  /    A nd           | Website:  www.openfoam.com                      |
|    \\/     M anipulation  |                                                 |
\*---------------------------------------------------------------------------*/
FoamFile
{
    version     2.0;
    format      ascii;
    arch        "LSB;label=32;scalar=64";
    class       volVectorField;
    location    "0.000164";
    object      U;
}
// * * * * * * * * * * * * * * * * * * * * * * * * * * * * * * * * * * * * * //

dimensions      [0 1 -1 0 0 0 0];

internalField   nonuniform List<vector> 
18273
(
(-39.3724 31.5079 -118.014)
(-37.519 22.9133 -118.131)
(-32.6975 16.62 -117.396)
(-29.3745 11.3413 -117.52)
(-25.6685 8.64303 -115.22)
(-22.9787 5.73957 -113.098)
(-20.9453 2.57375 -110.8)
(-20.4122 -1.73889 -108.974)
(-21.4597 -6.79195 -108.021)
(-23.8501 -12.4236 -108.14)
(-27.4944 -18.6334 -109.066)
(-31.2546 -25.4679 -111.543)
(-35.0081 -32.3268 -114.068)
(-38.0494 -39.023 -115.443)
(-33.7626 28.1522 -113.828)
(-30.6912 20.396 -115.683)
(-25.6074 13.4692 -115.168)
(-22.5843 8.2758 -116.626)
(-19.2388 5.54233 -116.021)
(-16.8802 3.59121 -115.591)
(-15.4232 1.60393 -114.38)
(-15.3072 -1.32052 -113.232)
(-16.5319 -5.09844 -112.591)
(-18.8215 -9.76266 -112.681)
(-22.1628 -15.3344 -113.139)
(-25.3878 -22.3608 -114.839)
(-28.8892 -30.2381 -115.944)
(-31.7598 -38.0985 -114.821)
(-28.9376 22.8248 -110.205)
(-25.2782 15.5147 -113.433)
(-20.4464 9.78723 -113.115)
(-17.866 5.45673 -114.706)
(-15.3544 3.1474 -114.839)
(-13.6069 1.94942 -115.237)
(-12.584 0.79031 -114.615)
(-12.5301 -1.00862 -113.928)
(-13.3509 -3.52128 -113.456)
(-15.128 -6.971 -113.587)
(-17.6414 -11.8486 -113.962)
(-20.3319 -18.3662 -114.872)
(-23.4339 -26.1066 -115.436)
(-26.2298 -34.8157 -113.414)
(-23.8922 19.2316 -106.514)
(-21.028 12.2348 -110.434)
(-17.1623 6.95681 -111.167)
(-15.115 3.4201 -112.803)
(-13.4957 1.53375 -113.188)
(-12.3499 0.850248 -113.713)
(-11.5829 0.28368 -113.604)
(-11.524 -0.761358 -113.519)
(-12.0979 -2.47441 -113.896)
(-13.1175 -5.34021 -114.494)
(-14.9228 -9.68068 -115.391)
(-16.8217 -15.9236 -116.088)
(-19.288 -23.6635 -115.989)
(-21.3191 -32.3937 -111.651)
(-20.0188 15.9173 -104.107)
(-17.9328 9.32046 -108.881)
(-15.233 4.75209 -110.162)
(-13.7667 2.13602 -111.435)
(-12.7958 0.765041 -111.72)
(-12.1709 0.235408 -112.172)
(-11.6118 0.0410966 -112.383)
(-11.4634 -0.58962 -112.714)
(-11.8206 -1.73058 -113.438)
(-12.383 -4.03206 -114.272)
(-13.6074 -7.7376 -115.154)
(-15.0601 -13.3916 -115.347)
(-17.0563 -21.0439 -113.613)
(-18.9667 -29.8393 -107.066)
(-16.0565 14.5925 -102.18)
(-15.2011 7.72696 -107.675)
(-13.9558 3.47515 -109.674)
(-13.2949 1.35816 -110.565)
(-12.7392 0.367231 -110.714)
(-12.3915 -0.037394 -110.964)
(-12.0192 -0.0825135 -111.291)
(-11.864 -0.502353 -111.858)
(-11.9896 -1.41349 -112.708)
(-12.2808 -3.25143 -113.653)
(-12.8123 -6.51048 -114.36)
(-13.4702 -11.8991 -113.525)
(-14.6136 -19.5541 -110.177)
(-15.4749 -28.3113 -102.155)
(-11.6012 15.429 -101.323)
(-12.0709 7.92253 -107.599)
(-12.3712 3.64198 -109.778)
(-12.5429 1.53009 -110)
(-12.5828 0.553963 -109.965)
(-12.5933 0.119389 -110.057)
(-12.41 -0.0444337 -110.448)
(-12.2151 -0.339645 -111.119)
(-12.1288 -1.1704 -111.969)
(-12.0403 -2.93087 -112.743)
(-11.8523 -6.12079 -112.936)
(-11.5511 -11.2939 -111.058)
(-11.3128 -18.7899 -106.548)
(-10.7729 -27.4392 -97.8016)
(-6.4697 17.8228 -100.846)
(-8.51452 9.84676 -107.617)
(-10.4659 5.12947 -109.594)
(-11.7215 2.67583 -109.352)
(-12.2993 1.31906 -109.281)
(-12.5295 0.598119 -109.291)
(-12.3966 0.166409 -109.774)
(-12.0686 -0.24066 -110.49)
(-11.6694 -1.19496 -111.243)
(-11.0958 -3.17702 -111.646)
(-9.9583 -6.63828 -111.198)
(-8.5037 -12.0262 -108.371)
(-6.50423 -19.7481 -103.353)
(-4.25198 -28.5738 -95.0199)
(-0.943884 22.2437 -101.135)
(-4.35522 13.4744 -107.962)
(-7.72559 7.84914 -109.157)
(-9.86719 4.58589 -108.527)
(-11.0936 2.55352 -108.483)
(-11.6602 1.32066 -108.546)
(-11.6072 0.468793 -109.252)
(-11.1067 -0.33041 -110.131)
(-10.1676 -1.6088 -110.8)
(-8.83598 -4.06257 -110.474)
(-6.53688 -8.15557 -109.336)
(-3.86219 -14.2615 -105.892)
(-0.150407 -22.5469 -101.192)
(3.49066 -31.4869 -94.0297)
(6.03136 27.3023 -100.832)
(1.33743 17.9701 -107.317)
(-3.3647 11.6337 -107.775)
(-6.4356 7.29986 -106.702)
(-8.50765 4.3469 -106.728)
(-9.55066 2.29781 -107.102)
(-9.62469 0.752838 -108.174)
(-8.83657 -0.737733 -109.255)
(-7.1301 -2.63594 -109.867)
(-4.83591 -5.90203 -109.138)
(-1.19334 -10.7471 -107.765)
(2.68082 -17.4439 -104.133)
(7.84383 -26.0768 -100.851)
(12.1726 -35.3022 -95.4395)
(13.2051 33.9926 -101.837)
(8.12433 24.2227 -107.383)
(3.05666 16.8567 -106.929)
(-0.782055 11.4972 -104.554)
(-3.62006 7.18815 -103.948)
(-5.23532 3.89679 -104.308)
(-5.44609 1.24097 -105.725)
(-4.27403 -1.3189 -107.139)
(-1.79952 -4.21882 -108.208)
(1.51119 -8.60023 -107.721)
(6.12331 -14.4069 -106.915)
(10.601 -21.9531 -103.766)
(16.491 -30.7388 -102.527)
(20.8296 -39.7663 -98.4213)
(22.3331 39.8043 -102.24)
(17.7383 29.4412 -105.52)
(12.2678 21.7169 -104.437)
(7.63619 15.7769 -101.135)
(4.13069 10.389 -99.4331)
(1.83692 5.8651 -98.8656)
(1.41574 1.69185 -100.023)
(2.93862 -2.43841 -101.507)
(6.03295 -6.67768 -103.428)
(10.2024 -12.1949 -104.117)
(15.4442 -18.3268 -105.094)
(19.8623 -26.1991 -103.023)
(25.8263 -34.6599 -103.312)
(29.3168 -43.408 -100.47)
(32.5154 44.8316 -101.068)
(28.3072 36.3718 -105.718)
(22.7576 28.6489 -104.759)
(18.2837 21.8036 -99.6361)
(14.6649 14.9931 -94.7234)
(12.0129 8.73365 -91.3907)
(11.0795 2.60176 -90.5528)
(12.38 -3.47459 -90.8824)
(15.4885 -9.55488 -92.7666)
(19.7352 -16.4269 -94.1045)
(25.36 -22.452 -96.9315)
(29.4045 -30.7724 -97.0578)
(35.0357 -38.6555 -98.822)
(37.0365 -47.2659 -98.2598)
(43.2838 47.6552 -102.263)
(39.8995 40.0029 -105.133)
(34.668 33.1792 -102.728)
(30.7644 26.0827 -96.4449)
(26.9113 19.0411 -89.1919)
(24.1535 11.7789 -82.8776)
(23.0055 3.92757 -78.9249)
(23.5959 -3.91641 -76.6043)
(26.2735 -11.5082 -76.9976)
(29.6562 -19.4603 -77.9459)
(34.5685 -25.7371 -81.7842)
(39.0913 -33.5401 -84.4974)
(42.5225 -41.2618 -87.993)
(43.4216 -49.4115 -89.1461)
(-41.126 33.0448 -122.47)
(-38.1795 24.2991 -121.916)
(-33.0835 17.9671 -120.706)
(-29.4516 12.74 -120.244)
(-25.1492 10.3608 -117.497)
(-22.3302 6.40337 -114.69)
(-20.6648 1.94811 -112.282)
(-20.7265 -2.96688 -110.923)
(-22.5457 -8.12056 -110.69)
(-25.8914 -13.9149 -111.992)
(-30.302 -20.6022 -114.521)
(-35.0319 -27.6841 -118.187)
(-39.496 -34.8606 -121.18)
(-43.1405 -42.6354 -121.679)
(-34.5825 28.7437 -119.091)
(-30.6756 20.5812 -120.463)
(-25.1828 14.2008 -120.029)
(-21.8608 9.36316 -120.782)
(-18.1624 7.02984 -119.906)
(-15.7958 4.48398 -118.435)
(-14.7916 1.57696 -116.776)
(-15.3186 -1.88635 -115.761)
(-17.244 -5.89574 -115.626)
(-20.1833 -10.6013 -116.273)
(-24.2596 -16.1559 -118.407)
(-28.2304 -23.1984 -121.397)
(-32.0345 -31.6062 -122.856)
(-35.7028 -40.5436 -120.652)
(-29.5379 22.7938 -115.863)
(-25.0667 15.5722 -118.319)
(-20.1758 10.3615 -117.763)
(-17.286 6.36506 -118.756)
(-14.5498 4.36629 -118.631)
(-12.7458 2.85045 -118.293)
(-12.1254 1.10793 -117.457)
(-12.5147 -1.12659 -116.893)
(-13.8956 -3.75296 -116.739)
(-16.3512 -7.09188 -117.188)
(-19.4428 -11.7965 -118.792)
(-22.7794 -18.1982 -121.048)
(-26.3294 -26.3563 -122.079)
(-29.5051 -36.4026 -118.581)
(-24.4768 18.5653 -112.524)
(-20.9515 11.966 -115.394)
(-17.1284 7.2378 -115.612)
(-14.8918 4.0244 -116.654)
(-13.1513 2.40428 -116.824)
(-11.9391 1.62549 -117.044)
(-11.4142 0.765163 -116.791)
(-11.7386 -0.451209 -116.819)
(-12.6391 -2.2726 -117.291)
(-14.2335 -4.99965 -118.147)
(-16.4238 -9.0436 -119.874)
(-18.9876 -14.9294 -121.815)
(-21.7909 -22.9922 -121.795)
(-24.3892 -32.9303 -115.992)
(-20.9262 14.5983 -110.837)
(-18.0873 8.69234 -113.875)
(-15.3089 4.80716 -114.551)
(-13.7236 2.49323 -115.332)
(-12.6974 1.3593 -115.435)
(-12.0692 0.878786 -115.756)
(-11.6465 0.515302 -115.91)
(-11.8159 -0.139126 -116.274)
(-12.4706 -1.30978 -116.957)
(-13.5288 -3.43585 -117.941)
(-15.2685 -6.6054 -119.7)
(-17.3713 -11.7218 -120.99)
(-19.6242 -19.434 -119.314)
(-21.6474 -29.393 -111.241)
(-17.2519 12.5407 -109.747)
(-15.6162 6.57907 -113.088)
(-14.1763 3.16112 -114.241)
(-13.3593 1.42566 -114.747)
(-12.7756 0.669644 -114.728)
(-12.441 0.381505 -114.848)
(-12.2005 0.260281 -115.105)
(-12.2898 -0.0779894 -115.62)
(-12.7406 -0.845881 -116.412)
(-13.4048 -2.41918 -117.504)
(-14.386 -4.99919 -119.06)
(-15.3533 -9.8074 -119.285)
(-16.1209 -17.494 -116.06)
(-16.5374 -27.5723 -106.923)
(-13.0264 12.7096 -109.296)
(-12.7486 6.14386 -113.187)
(-12.7248 2.75039 -114.406)
(-12.7055 1.13575 -114.463)
(-12.6118 0.438748 -114.295)
(-12.6535 0.224905 -114.277)
(-12.6227 0.143963 -114.534)
(-12.6379 -0.0152972 -115.109)
(-12.8084 -0.629855 -115.899)
(-13.0357 -2.01311 -116.811)
(-13.1401 -4.52845 -117.927)
(-12.7384 -9.32523 -117.121)
(-11.6293 -17.0386 -112.841)
(-10.4174 -27.0835 -103.264)
(-8.20358 14.6577 -109.056)
(-9.48579 7.45022 -113.813)
(-10.9517 3.5964 -114.398)
(-11.9544 1.75241 -114.16)
(-12.3253 0.742865 -113.929)
(-12.5734 0.331402 -113.82)
(-12.6134 0.105323 -114.161)
(-12.5442 -0.151478 -114.754)
(-12.4299 -0.805794 -115.515)
(-12.1818 -2.39868 -116.113)
(-11.1784 -5.30672 -116.745)
(-9.33364 -10.4603 -114.972)
(-6.2195 -18.4703 -110.367)
(-3.226 -28.5665 -101.544)
(-2.94024 18.8092 -109.195)
(-5.65905 10.4217 -114.842)
(-8.59007 5.59661 -115.089)
(-10.3611 3.00193 -113.957)
(-11.3585 1.45553 -113.641)
(-11.9305 0.644218 -113.519)
(-12.0964 0.085328 -114.021)
(-11.8668 -0.487437 -114.72)
(-11.2907 -1.46442 -115.451)
(-10.1561 -3.46525 -115.954)
(-7.86244 -7.04774 -115.822)
(-4.66219 -13.193 -113.681)
(0.337232 -21.6388 -109.621)
(4.91383 -31.4647 -102.015)
(3.83409 23.7637 -108.996)
(-0.411699 14.6505 -115.378)
(-4.88187 9.00633 -115.345)
(-7.51089 5.22824 -113.811)
(-9.27734 2.7572 -113.057)
(-10.3386 1.26935 -113.007)
(-10.6147 0.203931 -113.716)
(-10.0128 -0.872976 -114.653)
(-8.71334 -2.49078 -115.71)
(-6.48743 -5.41263 -115.994)
(-2.76587 -9.9248 -115.587)
(1.66705 -16.8177 -113.128)
(8.1227 -25.55 -110.489)
(13.6764 -35.1122 -104.052)
(10.3655 31.1537 -109.558)
(5.45241 21.1146 -116.124)
(0.55779 13.9634 -115.932)
(-2.85028 8.94609 -113.761)
(-5.35314 5.23644 -112.723)
(-6.91034 2.50785 -112.548)
(-7.32568 0.232161 -113.533)
(-6.39696 -1.99714 -114.755)
(-4.16968 -4.46343 -115.991)
(-0.813894 -8.37677 -116.263)
(4.29362 -13.5794 -115.967)
(9.30829 -21.353 -113.63)
(16.4001 -30.3145 -112.564)
(22.0784 -39.6797 -107.036)
(19.4014 37.8013 -108.908)
(14.755 26.6017 -114.444)
(9.08884 19.0621 -114.729)
(4.62718 13.4306 -112.436)
(1.2441 8.69159 -110.978)
(-0.906737 4.78667 -110.518)
(-1.45056 1.17317 -111.247)
(-0.111399 -2.54461 -112.351)
(3.03014 -6.61067 -113.744)
(7.41279 -11.8714 -114.507)
(13.4009 -17.5976 -115.182)
(18.6726 -25.5346 -112.946)
(25.7586 -34.4149 -112.859)
(30.6583 -43.7805 -108.395)
(29.9668 44.1071 -106.491)
(25.2543 34.6868 -114.138)
(18.8058 26.9693 -115.425)
(13.8822 20.3929 -112.216)
(10.2946 14.2552 -108.842)
(7.93452 8.6241 -106.357)
(7.38533 2.90116 -105.433)
(8.88605 -3.00527 -105.258)
(12.5078 -9.14976 -105.916)
(17.2282 -15.9412 -106.407)
(23.8986 -21.7334 -107.902)
(29.0496 -29.863 -106.508)
(35.6802 -38.4766 -106.782)
(38.9074 -48.3899 -105.17)
(41.8087 48.3601 -107.12)
(37.4688 39.8751 -112.683)
(30.7261 33.0411 -112.643)
(25.8839 25.9259 -108.838)
(21.9117 19.3105 -104.225)
(19.472 12.8563 -99.7789)
(19.0364 5.87899 -96.2263)
(20.4846 -1.5206 -93.1869)
(24.0701 -9.26719 -91.6296)
(28.1548 -17.5203 -90.5171)
(34.4146 -24.1432 -92.1949)
(40.0964 -32.1106 -92.6627)
(44.8117 -40.7924 -93.6048)
(46.8581 -50.3438 -94.4145)
(-42.0119 43.1339 -121.409)
(-37.6073 34.2079 -120.522)
(-30.6197 29.1862 -118.567)
(-26.0333 24.0468 -117.099)
(-20.9537 21.1713 -114.268)
(-18.1626 15.3908 -111.933)
(-16.861 8.26957 -110.867)
(-17.6546 0.770481 -110.62)
(-20.9308 -6.86213 -111.415)
(-26.426 -14.0649 -112.831)
(-33.4503 -20.7407 -115.436)
(-40.8132 -27.8593 -119.145)
(-49.3637 -35.2387 -122.069)
(-57.5198 -43.88 -122.107)
(-34.885 34.3798 -118.862)
(-29.3832 26.6711 -120.077)
(-22.5919 22.1462 -119.201)
(-18.4273 18.0882 -118.629)
(-14.4776 15.9994 -117)
(-12.2096 12.3139 -115.335)
(-11.8167 7.48376 -114.152)
(-13.1624 2.10881 -113.477)
(-16.7018 -3.17878 -114.3)
(-21.5782 -8.95893 -115.915)
(-27.3643 -15.2554 -118.598)
(-34.4224 -21.6569 -122.138)
(-41.918 -29.8881 -123.701)
(-48.9994 -40.041 -121.508)
(-29.5609 25.9231 -115.633)
(-24.3261 19.2408 -117.677)
(-18.4591 15.8287 -116.752)
(-14.876 12.7561 -116.821)
(-11.965 11.3844 -115.968)
(-10.2481 9.31657 -115.233)
(-10.6506 6.5699 -114.422)
(-12.1344 3.29892 -114.109)
(-14.5904 -0.412608 -114.464)
(-18.799 -4.35757 -115.714)
(-24.0613 -9.06133 -118.135)
(-30.6106 -14.6272 -120.848)
(-37.3373 -22.641 -122.289)
(-44.0747 -33.3783 -118.557)
(-25.2606 19.4131 -112.49)
(-21.0689 13.4574 -114.621)
(-16.6064 10.5843 -114.484)
(-13.8671 8.71961 -114.403)
(-12.0212 7.91086 -114.088)
(-10.8976 6.97116 -113.952)
(-10.9679 5.56146 -113.727)
(-12.3476 3.80359 -113.825)
(-14.4382 1.43357 -114.537)
(-17.6548 -1.23024 -115.848)
(-21.9147 -4.67784 -118.104)
(-27.3176 -9.6271 -120.382)
(-33.3706 -17.3868 -120.464)
(-39.1764 -28.0719 -115.397)
(-22.2552 13.5554 -111.093)
(-18.6702 8.93614 -112.877)
(-15.6181 6.79329 -112.721)
(-13.8308 5.73933 -112.628)
(-12.8017 5.44176 -112.501)
(-12.219 5.21005 -112.601)
(-12.2649 4.56637 -112.742)
(-13.1758 3.63596 -113.209)
(-15.0251 2.3282 -113.771)
(-17.7367 0.781387 -115.09)
(-21.3557 -1.37998 -117.166)
(-26.0229 -5.34702 -118.719)
(-31.0384 -12.3723 -117.985)
(-35.6526 -22.6044 -111.605)
(-19.4252 8.93165 -110.453)
(-16.5929 5.54751 -112.22)
(-14.7375 3.92489 -112.042)
(-13.6868 3.46117 -111.843)
(-13.2778 3.51243 -111.648)
(-13.1849 3.60486 -111.668)
(-13.4472 3.43688 -111.891)
(-14.2277 3.31616 -112.414)
(-15.6235 2.84066 -113.203)
(-17.5348 2.04197 -114.553)
(-20.1448 0.813388 -116.339)
(-23.4179 -2.42066 -117.296)
(-26.4447 -9.06721 -115.737)
(-28.7306 -19.5809 -109.006)
(-15.45 6.38505 -110.403)
(-14.5084 2.99157 -111.969)
(-13.6951 1.88442 -112.003)
(-13.334 1.82038 -111.684)
(-13.4163 2.12075 -111.427)
(-13.7196 2.37311 -111.262)
(-14.2285 2.50605 -111.529)
(-14.9472 2.69051 -111.92)
(-15.8809 2.59672 -112.835)
(-17.0606 2.36022 -114.194)
(-18.5268 1.60918 -115.635)
(-19.7957 -1.35128 -116.204)
(-20.2398 -7.794 -114.268)
(-19.9889 -18.5161 -107.779)
(-10.3808 6.17862 -110.53)
(-11.4313 2.19498 -112.705)
(-12.0821 0.843534 -112.575)
(-12.6276 0.81818 -111.895)
(-13.2373 1.26632 -111.413)
(-13.9546 1.54116 -111.169)
(-14.6604 1.79872 -111.477)
(-15.3924 1.88829 -111.889)
(-15.9159 1.89595 -112.88)
(-16.3957 1.75625 -114.103)
(-16.5086 0.688257 -115.266)
(-15.564 -2.29176 -115.398)
(-13.2314 -8.65392 -113.706)
(-10.4391 -19.3154 -108.209)
(-4.29456 8.64965 -110.984)
(-7.45221 3.21517 -114.017)
(-10.0798 1.20079 -113.761)
(-11.7211 0.856418 -112.661)
(-12.896 1.04478 -111.883)
(-13.8588 1.13638 -111.561)
(-14.7095 1.22915 -111.882)
(-15.3634 1.01578 -112.375)
(-15.6135 0.799656 -113.349)
(-15.2021 0.320423 -114.576)
(-13.7191 -1.37911 -115.448)
(-11.101 -5.62963 -115.857)
(-6.02013 -12.5481 -114.826)
(-0.996495 -23.3269 -110.132)
(3.04331 12.8359 -111.526)
(-2.46472 6.22554 -115.613)
(-7.22748 3.53736 -115.031)
(-10.2221 2.46127 -113.431)
(-12.1447 1.9138 -112.415)
(-13.4994 1.4385 -112.245)
(-14.4457 1.02076 -112.64)
(-14.8776 0.28085 -113.295)
(-14.5807 -0.59203 -114.369)
(-13.0579 -1.99013 -115.515)
(-10.1782 -4.99936 -116.49)
(-5.72308 -10.6103 -116.864)
(1.61205 -18.223 -116.937)
(8.26748 -29.2491 -112.285)
(9.52152 20.6933 -112.61)
(3.0801 11.9116 -117.241)
(-2.95779 7.4507 -116.685)
(-7.07573 4.78612 -114.814)
(-10.0729 3.2023 -113.619)
(-12.227 2.34305 -113.049)
(-13.5252 1.11502 -113.547)
(-13.7194 -0.588484 -114.424)
(-12.632 -2.69118 -115.69)
(-9.90867 -5.56459 -117.079)
(-5.26897 -9.81541 -118.244)
(0.274614 -17.343 -118.577)
(9.1984 -25.8431 -119.391)
(16.9217 -36.9694 -114.573)
(19.5346 27.8054 -112.094)
(12.5977 17.0544 -116.76)
(4.72565 12.019 -117.235)
(-1.35522 8.63313 -115.551)
(-6.0439 6.2588 -114.19)
(-9.27471 4.06708 -113.781)
(-10.988 1.47422 -114.009)
(-10.8498 -1.79586 -114.923)
(-8.77081 -5.7173 -116.183)
(-4.72333 -10.4337 -117.734)
(1.54415 -15.8705 -119.382)
(7.99647 -24.7979 -119.008)
(17.3503 -34.6595 -119.892)
(25.2572 -45.789 -114.942)
(31.2138 36.7636 -110.369)
(23.0355 26.6127 -117.166)
(13.3338 20.5012 -118.687)
(6.17018 15.2007 -116.629)
(0.592932 10.8169 -114.689)
(-3.56455 7.01023 -113.26)
(-5.55562 2.43918 -112.718)
(-5.02142 -3.05482 -112.916)
(-1.96122 -9.43264 -113.472)
(3.19161 -16.4177 -114.437)
(10.9779 -22.8271 -115.994)
(18.0238 -32.451 -114.806)
(27.6566 -42.6832 -114.797)
(33.6383 -54.4504 -112.033)
(44.7416 42.8528 -110.886)
(36.3433 33.7482 -115.77)
(25.9635 27.3765 -116.524)
(18.1419 20.7379 -114.718)
(10.8752 16.1316 -112.757)
(5.95039 10.9371 -110.758)
(3.97979 4.58733 -108.694)
(4.87175 -2.91145 -106.582)
(8.88247 -11.3942 -105.027)
(14.3383 -20.6079 -103.6)
(23.14 -28.171 -104.444)
(31.0503 -37.9948 -103.927)
(39.0314 -48.5141 -102.909)
(43.1476 -60.2284 -103.204)
(-39.0917 -44.8275 -111.979)
(-41.2897 -48.5956 -109.354)
(-42.8649 -51.8224 -103.844)
(-46.1042 -52.62 -94.4277)
(-47.3935 -54.697 -76.3617)
(-35.7104 -36.7675 -38.8961)
(-33.9256 -43.2343 -109.579)
(-38.1325 -47.2811 -106.151)
(-38.3483 -51.3742 -99.1445)
(-40.7803 -53.7703 -88.326)
(-41.1439 -59.0017 -71.2987)
(-35.9079 -45.2761 -35.4659)
(-28.5173 -43.2385 -107.986)
(-33.1538 -49.8052 -101.883)
(-34.7451 -56.1001 -93.2991)
(-36.3353 -60.4231 -81.6815)
(-35.8073 -64.7477 -63.9828)
(-30.488 -51.0712 -29.9637)
(-24.4418 -40.8892 -103.41)
(-27.8491 -49.2777 -93.7206)
(-30.4918 -56.5759 -82.309)
(-31.0872 -64.2342 -70.05)
(-31.9646 -68.7394 -52.7728)
(-23.935 -58.6298 -22.4511)
(-21.5895 -40.0694 -96.7036)
(-23.2387 -50.8125 -84.2391)
(-25.7503 -60.1189 -71.1182)
(-24.0576 -70.0039 -59.5807)
(-26.3568 -73.9982 -43.687)
(-14.6034 -66.3541 -19.3153)
(-17.3534 -39.4112 -90.5362)
(-17.4839 -51.5333 -76.481)
(-19.2425 -63.2511 -63.1872)
(-16.337 -74.6432 -52.775)
(-18.5273 -79.7084 -39.5929)
(-4.26048 -72.0059 -21.236)
(-10.6644 -39.8465 -86.6658)
(-8.79084 -53.6239 -73.5541)
(-9.57125 -67.4983 -62.6459)
(-5.7523 -79.0562 -55.3483)
(-7.80848 -83.9926 -43.8176)
(5.81089 -75.3608 -24.8934)
(-1.85945 -41.432 -86.4059)
(2.42456 -55.0796 -76.9587)
(2.64914 -69.3333 -69.64)
(6.38077 -80.1451 -64.0977)
(3.62988 -84.9246 -53.2096)
(15.2018 -74.9361 -31.394)
(7.80125 -43.9359 -89.6135)
(13.8072 -56.0982 -84.9602)
(14.6881 -69.1783 -80.9983)
(17.5718 -79.1466 -75.8508)
(14.056 -83.7339 -64.6603)
(23.546 -71.3738 -38.742)
(17.44 -46.6249 -94.8076)
(24.1484 -56.4672 -93.1003)
(25.3871 -67.4392 -91.1324)
(27.473 -76.11 -85.5921)
(23.3995 -80.7924 -74.152)
(30.3065 -66.6056 -45.0935)
(26.1335 -49.2976 -99.4206)
(32.4722 -56.4915 -98.518)
(33.8713 -64.7181 -96.9671)
(35.4763 -71.444 -91.2032)
(31.9576 -76.2396 -79.9188)
(35.6586 -60.6336 -49.4988)
(34.1517 -51.0932 -100.609)
(39.3537 -55.7873 -99.4895)
(40.7986 -61.3606 -97.4374)
(42.2081 -66.377 -91.9772)
(40.509 -70.7525 -80.6757)
(38.8088 -52.8844 -50.6163)
(41.116 -52.362 -96.187)
(45.2023 -55.1128 -95.1363)
(46.6212 -58.2141 -91.599)
(48.6649 -62.1412 -85.7385)
(49.058 -65.5228 -73.7062)
(39.3279 -46.2978 -45.4556)
(46.5465 -51.495 -88.1268)
(49.62 -54.1571 -86.0754)
(51.4141 -56.4226 -80.9247)
(55.0674 -60.1618 -74.6076)
(55.4206 -60.8991 -61.5471)
(39.6919 -41.0461 -35.8536)
(-44.1531 -49.5299 -115.072)
(-47.0624 -55.1541 -108.785)
(-48.3655 -59.4243 -99.6881)
(-53.3367 -59.7417 -87.7407)
(-54.8366 -64.1037 -69.5295)
(-46.9381 -43.3108 -33.5384)
(-37.5538 -47.0538 -112.429)
(-42.7348 -52.587 -104.407)
(-43.3747 -57.6522 -93.1133)
(-47.6053 -60.1315 -79.5544)
(-48.042 -66.9392 -62.5421)
(-46.3575 -54.4488 -28.0671)
(-31.6888 -46.4979 -108.85)
(-37.4059 -54.5282 -97.3843)
(-39.6271 -61.8439 -84.2847)
(-42.9917 -67.1652 -70.4358)
(-42.3753 -71.9764 -52.7142)
(-39.1329 -63.2839 -19.7632)
(-27.9569 -42.9945 -102.93)
(-32.3287 -53.5244 -87.7881)
(-35.0056 -62.3047 -71.8141)
(-36.6095 -71.5934 -56.8995)
(-38.0567 -75.2071 -38.667)
(-31.9443 -74.0058 -12.3739)
(-23.8818 -41.5917 -96.0646)
(-26.978 -55.2642 -78.6682)
(-29.5921 -66.9661 -60.8084)
(-28.651 -79.1727 -45.2484)
(-30.6619 -81.8457 -26.9909)
(-25.4716 -84.7397 -15.3799)
(-17.3156 -40.4757 -91.3028)
(-18.8831 -55.7164 -72.9419)
(-20.8984 -71.1788 -55.132)
(-18.96 -86.1041 -40.5278)
(-20.8185 -90.872 -25.9354)
(-14.2048 -92.1495 -19.7144)
(-9.0464 -41.0287 -89.0241)
(-8.03988 -57.0695 -72.4783)
(-9.26694 -75.0709 -58.5924)
(-6.10716 -91.0619 -47.986)
(-9.7138 -97.5486 -35.2411)
(2.12951 -96.6581 -21.9286)
(0.719045 -42.7318 -90.9704)
(4.72441 -57.7148 -78.1818)
(4.64881 -75.8662 -69.0822)
(8.61928 -91.4942 -60.6591)
(3.96745 -99.0412 -48.4429)
(15.3074 -96.5267 -30.2789)
(10.5888 -45.3941 -96.359)
(17.2264 -58.7396 -88.0209)
(17.9901 -75.6084 -82.3852)
(21.6477 -90.1995 -74.547)
(16.1733 -97.9216 -62.2126)
(27.047 -91.8343 -38.136)
(20.2867 -47.7281 -102.121)
(28.1654 -58.6444 -97.3718)
(29.5954 -72.7788 -93.0342)
(32.9223 -85.4877 -84.6359)
(27.5657 -93.7635 -71.7372)
(37.2281 -85.1193 -43.3963)
(28.6856 -50.5378 -106.644)
(36.6449 -58.4967 -103.193)
(38.7953 -69.3861 -98.6137)
(41.988 -79.1313 -89.2945)
(38.2946 -87.6603 -76.1465)
(44.7833 -75.3238 -45.2915)
(36.9856 -52.8808 -106.776)
(44.0207 -58.2483 -103.218)
(46.6093 -65.608 -97.5628)
(49.2491 -72.8529 -88.105)
(48.6054 -80.9489 -74.6019)
(47.6771 -64.5973 -42.3906)
(44.6353 -53.9848 -100.614)
(50.1071 -57.928 -96.4202)
(52.2575 -62.1335 -88.9873)
(54.9046 -68.2461 -79.4237)
(56.7109 -74.4373 -65.2541)
(47.3244 -56.5357 -34.5432)
(50.6813 -53.4715 -90.259)
(54.297 -57.317 -84.591)
(56.2179 -60.3126 -75.8489)
(60.5449 -65.8456 -66.7036)
(62.2904 -69.0883 -51.6564)
(48.5275 -51.4021 -22.8054)
(-60.0207 -52.934 -116.316)
(-63.6714 -60.8306 -110.658)
(-63.8863 -68.7133 -103.081)
(-68.8571 -71.8694 -92.9262)
(-69.6023 -77.7773 -81.0841)
(-72.9793 -56.8512 -56.2272)
(-53.6288 -48.9253 -113.607)
(-60.1775 -56.9025 -106.787)
(-60.8978 -65.3066 -96.331)
(-64.8793 -70.626 -84.7475)
(-63.2224 -78.5243 -74.7896)
(-68.2104 -66.7177 -50.0792)
(-48.2502 -45.7801 -109.337)
(-55.7463 -56.6616 -98.2533)
(-56.9939 -68.1776 -85.3414)
(-60.9973 -76.0476 -72.8737)
(-56.9106 -84.4415 -62.7731)
(-60.5811 -77.7708 -38.4207)
(-44.35 -40.4321 -103.689)
(-50.3237 -53.4036 -88.2149)
(-51.25 -67.173 -71.2215)
(-53.5443 -79.2907 -56.0058)
(-48.1976 -89.0395 -44.3971)
(-49.4612 -91.0039 -26.3677)
(-38.2936 -36.8717 -97.6993)
(-42.5695 -53.2797 -78.7627)
(-42.2543 -71.1527 -59.5256)
(-42.2643 -87.5826 -42.9367)
(-38.5027 -96.4147 -28.5352)
(-34.9708 -103.369 -23.0493)
(-28.9603 -34.9791 -94.5045)
(-30.5489 -53.3742 -74.029)
(-28.9595 -74.5739 -54.8059)
(-27.4657 -94.199 -38.8869)
(-25.5335 -105.054 -24.3231)
(-19.7413 -111.718 -19.4528)
(-17.5436 -34.9254 -94.9808)
(-15.4901 -54.5997 -76.0726)
(-13.4533 -77.9801 -59.1193)
(-10.9731 -99.5506 -44.7345)
(-10.8205 -111.486 -30.2222)
(-3.4895 -116.438 -24.4873)
(-5.21384 -35.8702 -99.2277)
(0.662637 -54.8743 -84.2537)
(2.99586 -78.0831 -70.7426)
(6.08966 -100.198 -57.983)
(4.77937 -113.743 -43.0746)
(11.7503 -118.475 -35.6684)
(6.71642 -39.3132 -105.223)
(15.9134 -55.8169 -94.1294)
(18.1342 -77.8054 -84.9529)
(21.9625 -98.9468 -73.1061)
(19.7707 -114.123 -57.5611)
(25.1996 -117.638 -46.1697)
(17.697 -43.9571 -110.392)
(28.3267 -56.7177 -102.294)
(30.9183 -75.1973 -96.0884)
(35.6098 -93.6178 -85.7199)
(33.4267 -110.606 -71.6481)
(39.1282 -114.79 -51.0189)
(26.6799 -49.765 -113.81)
(37.1076 -58.7405 -107.521)
(40.6187 -73.1525 -102.155)
(46.3823 -88.1384 -92.7998)
(45.9904 -104.044 -80.99)
(51.286 -106.698 -52.7173)
(34.7985 -56.1616 -112.785)
(44.291 -61.9606 -107.765)
(48.9039 -72.0046 -101.986)
(54.5789 -83.2371 -93.2041)
(56.8597 -96.4627 -82.9117)
(57.7699 -94.2582 -52.6916)
(42.6477 -60.2438 -107.41)
(50.1987 -64.7538 -102.449)
(55.4043 -70.8169 -94.825)
(60.5892 -79.2497 -85.9592)
(65.1988 -88.1925 -75.4032)
(58.5263 -82.9198 -46.9971)
(49.3947 -61.8665 -98.1072)
(54.8912 -66.583 -92.1064)
(60.0002 -69.9956 -82.6731)
(65.4327 -77.0333 -73.83)
(70.6845 -81.7728 -61.5537)
(61.584 -77.4515 -34.1656)
(49.4013 -50.5776 -78.4268)
(55.1591 -53.8477 -75.5154)
(57.798 -54.5327 -68.4423)
(62.9767 -56.7353 -62.6451)
(61.3556 -56.7869 -50.2394)
(43.3853 -37.8245 -26.7667)
(47.2389 -42.377 -74.7019)
(54.9469 -46.927 -66.5765)
(60.5032 -47.9266 -57.512)
(66.7686 -49.5281 -52.8009)
(65.8331 -52.311 -43.6255)
(57.0993 -35.7206 -24.3222)
(48.1029 -36.3374 -68.8051)
(58.896 -40.7681 -58.1598)
(65.8786 -43.1683 -48.2116)
(70.8613 -43.459 -43.3089)
(68.5589 -45.1548 -37.1489)
(68.4689 -29.3474 -25.6342)
(43.9497 -30.0851 -63.8255)
(57.3358 -34.2771 -50.8114)
(67.7992 -36.6232 -40.8284)
(74.3682 -36.7595 -36.3567)
(74.882 -36.7351 -32.2609)
(77.0956 -26.4917 -30.3269)
(42.4377 -22.2211 -59.9495)
(58.8331 -25.5893 -47.2798)
(72.6727 -27.255 -39.5493)
(80.4936 -26.7985 -36.5273)
(82.0101 -26.1854 -34.3281)
(83.1166 -22.6848 -35.34)
(40.325 -13.2603 -59.8212)
(59.2422 -14.8124 -49.3057)
(75.9852 -15.7154 -44.7997)
(85.0686 -15.063 -43.102)
(86.1473 -14.7539 -41.9372)
(85.7048 -10.3408 -43.0377)
(39.6577 -3.71244 -63.3321)
(60.1867 -3.36156 -58.1555)
(77.9123 -4.22584 -57.0988)
(87.238 -3.61317 -55.8601)
(88.0033 -4.22569 -53.5219)
(86.0464 5.36701 -51.8929)
(39.6432 6.25619 -70.1882)
(59.1541 9.16281 -69.6993)
(76.4329 8.14575 -71.1305)
(86.303 8.74242 -69.9353)
(87.6585 6.8887 -66.6799)
(84.7912 16.9473 -60.8216)
(40.5886 15.7746 -79.7362)
(58.1403 19.9718 -82.9276)
(74.2381 19.3804 -84.802)
(84.1842 20.0775 -83.3506)
(86.3904 17.2395 -78.9472)
(80.5391 27.9625 -66.2054)
(41.7038 24.3638 -90.1431)
(56.2883 29.444 -94.0782)
(70.4143 29.6696 -94.7875)
(80.0444 30.5891 -92.4573)
(83.2259 27.0347 -87.2956)
(74.404 36.0241 -70.7733)
(43.884 31.6272 -98.9123)
(55.2876 37.4105 -101.379)
(66.4967 38.0506 -100.737)
(75.1255 39.0729 -97.4952)
(79.0986 35.8277 -91.1858)
(65.0525 42.1381 -71.0289)
(45.8586 38.5866 -103.477)
(53.9269 43.6754 -104.318)
(61.8507 44.8729 -101.611)
(69.5489 46.4422 -97.5844)
(74.6366 44.9298 -88.7026)
(56.8571 45.0162 -64.2818)
(47.5756 45.29 -102.495)
(53.0594 49.3518 -101.819)
(57.7412 50.6052 -96.4577)
(64.7211 53.3734 -90.5336)
(70.0309 53.0799 -79.2067)
(49.6983 45.4278 -53.8544)
(47.5898 50.7009 -97.6027)
(52.334 53.8091 -93.8835)
(55.6191 55.3832 -86.2569)
(60.8227 59.7337 -78.9857)
(64.4987 58.6107 -66.0997)
(42.4222 46.008 -41.0229)
(52.1902 -51.6769 -79.602)
(58.4682 -56.006 -72.401)
(61.505 -57.5013 -62.3111)
(67.9188 -60.8574 -54.107)
(66.8148 -63.3048 -39.8985)
(54.2394 -47.682 -12.4491)
(50.3963 -42.9072 -77.1946)
(57.4396 -48.2231 -64.7563)
(63.0423 -50.3163 -52.3617)
(70.5379 -51.9788 -43.948)
(69.5243 -56.6059 -32.3698)
(68.5961 -44.8718 -11.6821)
(49.8398 -35.3116 -73.8882)
(60.1133 -40.7242 -57.8397)
(68.4103 -44.9307 -44.0712)
(75.8762 -45.5495 -34.63)
(75.3995 -48.4626 -25.6396)
(78.9225 -39.9988 -15.6976)
(44.572 -28.5717 -71.1634)
(57.6306 -32.9342 -52.3729)
(70.0071 -36.9073 -38.0896)
(80.0684 -37.8662 -28.8841)
(84.1191 -39.0359 -22.8299)
(86.8789 -36.1638 -22.4537)
(41.8339 -19.8692 -69.6878)
(58.6223 -22.6186 -51.0635)
(74.4839 -26.4177 -38.6572)
(86.9342 -26.7634 -31.9056)
(92.4168 -28.1987 -26.4895)
(95.6955 -25.5445 -26.3295)
(38.6339 -10.3648 -72.3671)
(57.6268 -10.3819 -55.7622)
(76.3401 -13.5325 -45.7231)
(90.9466 -13.1377 -40.6127)
(97.5942 -15.6028 -35.4382)
(100.668 -12.8365 -35.7147)
(36.6618 -0.312772 -77.9611)
(57.5725 2.19049 -66.2637)
(78.1011 -0.771563 -59.3718)
(93.6626 0.225169 -54.7197)
(100.329 -3.20995 -48.9174)
(102.527 -0.55084 -48.4786)
(35.4292 9.73388 -85.929)
(55.5101 14.6693 -79.3395)
(75.9861 12.4947 -74.9391)
(92.2213 13.9454 -70.1685)
(99.5801 9.42835 -62.8037)
(100.892 12.5854 -59.1071)
(35.6109 18.9899 -94.9845)
(54.3394 25.114 -92.8473)
(73.8642 24.1767 -89.4218)
(89.6564 26.3462 -83.8596)
(97.4273 20.2793 -76.5353)
(97.116 28.6378 -62.8571)
(36.6404 26.8039 -103.41)
(52.4163 33.9628 -102.936)
(69.4405 34.4674 -99.0402)
(83.6856 37.605 -91.8728)
(91.9837 31.7349 -84.1031)
(89.3917 39.9845 -66.6877)
(39.4249 33.2799 -109.378)
(51.8734 41.0233 -108.502)
(65.7201 42.5119 -103.939)
(77.8387 46.2174 -95.5191)
(86.4663 42.1008 -86.4342)
(76.7793 47.961 -63.1061)
(42.6692 40.1457 -110.851)
(51.9363 47.0134 -109.301)
(61.6924 49.0862 -103.235)
(71.9555 52.5167 -94.3187)
(81.197 51.1878 -81.8534)
(66.4206 52.039 -52.2122)
(45.2968 46.6778 -107.205)
(52.3514 52.1851 -104.272)
(58.3416 53.8353 -95.494)
(67.2388 57.7987 -85.3277)
(75.5222 58.3143 -70.78)
(56.7655 51.8396 -40.1429)
(46.242 52.3178 -100.38)
(52.3196 55.9539 -93.7903)
(56.9085 57.3917 -82.6577)
(63.3444 63.2258 -72.123)
(69.7761 62.2702 -56.4241)
(50.7288 53.4388 -25.9191)
(50.5022 -60.7778 -88.7139)
(59.5468 -64.5194 -80.5817)
(65.2493 -65.2979 -69.2729)
(71.9004 -69.6863 -60.1697)
(74.4741 -70.8967 -47.1828)
(67.9228 -70.6274 -23.9071)
(46.7406 -51.3636 -86.1796)
(55.8077 -57.7731 -73.0982)
(63.7751 -58.1848 -57.7914)
(73.3715 -60.6879 -45.8619)
(76.3481 -61.9853 -32.3399)
(79.6001 -60.8396 -24.4562)
(43.2167 -42.0746 -85.3927)
(56.1533 -48.4539 -66.6922)
(68.2854 -50.6782 -48.5579)
(79.1124 -53.0048 -34.8725)
(84.1207 -53.7665 -24.261)
(88.5376 -50.6499 -20.8226)
(35.1617 -34.3158 -83.8341)
(50.7689 -39.4141 -61.8307)
(66.7633 -41.893 -42.3937)
(81.8644 -43.2935 -28.697)
(91.6966 -44.9773 -19.4197)
(97.67 -40.7663 -17.2482)
(29.1068 -24.6056 -83.9019)
(48.1976 -27.4115 -61.0107)
(68.9249 -30.8667 -42.0712)
(88.1453 -31.4489 -29.7581)
(99.7786 -33.6436 -19.8655)
(106.35 -28.4491 -17.0849)
(24.0063 -14.2129 -87.7727)
(43.8768 -14.1807 -65.8448)
(68.0212 -17.1805 -48.4892)
(90.9418 -16.5718 -37.4691)