/*--------------------------------*- C++ -*----------------------------------*\
| =========                 |                                                 |
| \\      /  F ield         | OpenFOAM: The Open Source CFD Toolbox           |
|  \\    /   O peration     | Version:  v2106                                 |
|   \\  /    A nd           | Website:  www.openfoam.com                      |
|    \\/     M anipulation  |                                                 |
\*---------------------------------------------------------------------------*/
FoamFile
{
    version     2.0;
    format      ascii;
    arch        "LSB;label=32;scalar=64";
    class       volScalarField;
    location    "0.000195";
    object      epsilon;
}
// * * * * * * * * * * * * * * * * * * * * * * * * * * * * * * * * * * * * * //

dimensions      [0 2 -3 0 0 0 0];

internalField   nonuniform List<scalar> 
144746
(
141848
100703
73133.9
51183.7
44704.3
53730
84618.3
142231
221001
287974
298077
253611
211272
191137
154101
101548
63037.8
36654.6
26116.1
26131
38442.8
66110.3
109883
159722
195687
197090
168156
155869
156936
93320.5
49778.1
25367.7
15663.2
13111.1
17160
29715.6
51864.6
80583.7
108367
130684
128815
134294
135099
69177.7
33000.9
15936.7
9134.12
6794.17
7870.63
13495.7
24856.1
40794.2
57409.4
71788.1
82723.5
102916
93516.5
42820.3
19091.5
8804.74
4819.06
3402.73
3725.87
6449.59
12632.3
22099.8
32712.1
42234.6
54787.3
84127.3
54411.3
22773.3
9402.05
4137.52
2209.18
1572.91
1809.69
3363.4
7055.89
13178.4
20743.5
28622
40368.7
76125.2
27654.2
10473.2
3981.4
1675.94
894.203
698.074
970.957
2051.99
4542.32
8842.16
14655.4
21855.6
36203.8
90194.3
13256.2
4521.66
1588.65
652.731
369.901
367.353
672.652
1559.27
3469.46
6783.99
11641.8
19170.7
41035.3
125102
7588.81
2468.38
860.87
390.448
266.362
331.512
656.543
1466.62
3111.61
5985.71
10711.4
21013.8
58843.8
179773
7536.88
2616.37
1030.33
582.449
454.874
524.706
865.296
1676.44
3299.42
6320.83
12466.8
30366.6
93669.6
234553
14193.8
5738.5
2271.31
1338.75
1078.27
1111.82
1492.19
2442.4
4432.08
8622.68
18789.7
52298.4
137289
259393
34168.6
20580
9908.11
4494.99
2855.5
2596.99
3055.46
4388.5
7295.25
14009.3
32053.9
85096.2
168403
251713
66888.3
53963.5
34643.5
17851.2
9337.26
6535.89
6470.24
8295.6
12592.2
22688
48075
105109
167614
225537
105096
100267
81909
55376.7
33113.2
20316.6
15465.4
16108.5
21375.7
34498.6
62329.6
110537
154237
200239
127403
82812.2
56400.4
38731.9
32678
35977.3
51779.3
80785.7
120553
162587
197544
218049
225308
230767
115755
70989.3
43659.4
26710.6
19662
19006.1
25881.4
41621.8
65916
94583.4
121014
142666
152964
163370
99262.3
57495.6
32284.4
18280.9
12093.5
10226.6
12733.7
20784.9
35037.6
53508.9
72437.4
89177.7
104610
122742
74867.7
40898.8
21774
11666.4
7154.69
5490.69
6230.98
10188.6
18409.6
30125.8
42806.2
54146.6
64600.9
85061.6
49577.1
25663.4
12817.7
6526.2
3808.65
2778.91
3020.17
5056.2
9810.61
17282.3
25991
34504.6
43539.4
64314
28885.7
13848.8
6438.91
3126.19
1771.29
1287.77
1457.63
2637.86
5520.91
10413.8
16691
23627.3
32155.9
52190.2
14760.1
6375.91
2751.65
1283.52
721.75
560.175
749.358
1557.17
3478.23
6881.35
11650.3
17672.8
26677.5
51500.8
7122.85
2699.9
1062.78
477.588
278.297
265.801
476.439
1125.72
2576.41
5177.67
9108.12
14843.9
25966.5
61297.9
4234.54
1428.89
509.467
227.535
151.965
195.935
421.203
1010.46
2257
4509
8230.5
14838.4
31238.8
82734.8
4484.89
1521.34
557.732
287.497
219.273
275.419
517.466
1114.75
2358.09
4706.67
9122.75
18593
45100.7
111729
8419.44
3202.94
1221.44
688.328
542.246
583.964
867.179
1581.64
3108.34
6191.59
12586.7
28178.4
66503.1
140481
20718
11060.7
4905.6
2192.81
1471.17
1414.61
1788.37
2800.43
4980.22
9526.8
19626.7
43877.4
92209.8
167148
44302.9
30592.6
17400.1
8286.62
4384.65
3450.03
3810.43
5268.82
8403.25
14889.6
29086.3
61249.4
115809
188048
77331.3
61820.4
43565.1
26079.7
14531.2
9339.94
8252.55
9815.5
13938.2
22368.9
39968.7
78010.2
136057
206305
98835.9
61842.6
42278.4
30109.6
25421.2
25090.2
30467.7
41074.3
56577
75390.6
98684.1
132570
190120
263481
68156.8
42646.8
27804.6
18695.3
14559.5
13396.6
15743.8
22086.3
32786.3
47013.4
65134.4
88844.7
121096
161856
46162.2
29266.3
18434.4
11743.8
8474.52
7236.48
8114.21
11680.6
18738.8
29031.3
42128
58396.7
78541.1
107340
30332.3
19094.7
11528.4
6987.23
4740.08
3805.15
4085.18
6037.82
10496.7
17567.2
26773.5
37889.7
51190.4
71564.9
19048.9
11393.4
6493.83
3744.38
2418.96
1866.27
1974.5
3063.55
5807.86
10532.6
16965.7
24888.6
34733.9
51412.9
11244.7
6081.98
3210.1
1756.81
1094.48
835.775
923.452
1580.66
3293.73
6444.93
11041.2
17046.5
25058.6
39342.4
6263.9
2924.67
1389.57
716.407
436.148
346.859
446.156
899.885
2050.22
4252.17
7699.85
12584.9
19768
33226.1
3622.99
1392.14
563.125
264.469
159.74
148.972
259.157
624.746
1499.98
3195.56
6004.51
10338.8
17429.1
31715.8
2644.98
855.376
283.154
115.529
72.3678
92.0799
210.94
548.182
1316.37
2805.04
5391.15
9755.09
17688.8
34276.8
2928.71
937.184
300.19
126.403
87.3624
115.947
247.314
598.23
1380.91
2921.13
5748.81
10892.6
20717.5
40956.9
4855.69
1776.48
634.478
306.29
223.711
249.109
408.987
835.624
1791.36
3721.6
7388.01
14156.1
26607.7
52031.2
10395.2
4921.24
2089.19
954.617
645.077
640.807
865.799
1475.6
2821.95
5526.31
10625.5
19736.6
36421.3
72436.6
21661
12542.4
6519.9
3133.77
1835.46
1629.06
1948.39
2858.72
4775.53
8529.59
15561.7
28365
54422.3
102852
40539.2
26260.1
15993.3
8932.84
5211.04
4004.3
4240.44
5509.77
8130.3
13116.5
22515.5
42414.6
87383.8
149981
191977
224031
265052
351759
675241
2.6841e+06
166657
206405
250729
308132
526098
2.11113e+06
155151
209320
264900
302010
446065
1.74548e+06
145327
228135
298756
310797
399408
1.50786e+06
150268
269568
347826
325109
370957
1.36148e+06
175726
336943
396871
331203
354002
1.28892e+06
230161
405429
415586
319711
341409
1.28174e+06
295147
437467
393208
298171
337497
1.32665e+06
338401
414913
347928
282242
348435
1.4122e+06
334683
357550
308403
281519
370013
1.54702e+06
295504
301435
288027
288824
398915
1.73573e+06
255170
264481
274400
298318
438672
1.9855e+06
223714
240477
264793
308962
491697
2.32089e+06
203792
227390
259090
325377
569290
2.79889e+06
245813
291432
323068
364238
560182
2.16276e+06
184147
238594
295989
338132
457893
1.71562e+06
151062
214796
297237
346757
414608
1.4331e+06
121322
200822
315371
369894
400791
1.24567e+06
107075
206915
355054
401879
401914
1.11919e+06
105609
237610
410494
429374
393109
1.05765e+06
123358
284389
457099
436969
379403
1.04766e+06
153252
327611
471026
423688
366352
1.07805e+06
185237
345936
446572
400524
369098
1.14317e+06
206055
331114
405621
387770
392026
1.25264e+06
209738
300293
373253
391982
429977
1.41269e+06
209146
280339
359725
405771
476188
1.62674e+06
217784
279396
357606
415500
521943
1.91033e+06
231149
293735
357132
411724
567001
2.3034e+06
344878
439980
490086
483759
567114
1.52141e+06
216468
303554
387964
431116
507523
1.24404e+06
155564
237518
338303
413394
486519
1.07876e+06
110692
188273
305220
414813
482534
969387
86112.4
161851
295068
430925
485482
889273
70166.5
147071
306033
459368
485118
833709
64003.3
147340
335539
485962
489738
820841
64914.7
161762
367658
509914
497137
851988
72041.6
180371
388600
521090
509563
923985
83776
192507
389275
525882
539500
1.03595e+06
95019.3
196142
382211
543828
597154
1.19749e+06
108022
204256
389563
578768
667225
1.40404e+06
137653
236726
420630
607701
719642
1.64744e+06
183846
302349
473394
606882
729551
1.94331e+06
185132
218452
264099
362607
695779
2.95842e+06
141355
171747
223252
302684
529199
2.31902e+06
109339
139098
201387
281343
441202
1.88732e+06
74550.2
111342
189873
274874
397353
1.59395e+06
52159.2
95615.2
188757
280635
374984
1.39419e+06
41287.4
95957.4
204166
295592
366267
1.26118e+06
40860.2
110832
233471
310980
356305
1.19121e+06
49864.6
138491
265483
317801
342943
1.18411e+06
68102.9
167980
278659
306925
331406
1.23482e+06
91307.7
184326
266847
285892
330955
1.3585e+06
111141
181358
239491
264781
344945
1.55495e+06
121768
168792
211025
245831
371963
1.83464e+06
122428
152273
185265
231297
410412
2.21827e+06
117188
140699
170993
230593
459330
2.68057e+06
224836
287139
343302
409621
625470
2.43833e+06
141241
192800
264122
343680
504261
1.91478e+06
91000.7
134264
213041
308433
439832
1.55458e+06
54271.2
89217.8
173076
287894
414722
1.29639e+06
35424.1
66860.6
148877
274371
404834
1.11532e+06
25511.4
56976.8
142558
273832
395293
999714
21740
57475.8
153453
282781
380942
934225
23176.8
67773.1
175557
292975
364776
917277
30375.5
84749.8
195053
292152
347254
947576
42902.1
100750
198588
277758
341211
1.03833e+06
57881.6
109640
187570
259628
358289
1.20118e+06
71907.3
113213
173360
244319
395713
1.43639e+06
82860.9
114952
164041
238647
440892
1.72976e+06
90023.5
119784
167033
248725
485872
2.11773e+06
229708
341983
464693
560343
719425
1.96974e+06
118534
190120
300301
427145
596841
1.54932e+06
62613.8
112104
206577
342941
515415
1.25313e+06
34816.3
63780.4
141813
284262
469488
1.03763e+06
22196.3
43159.4
104065
237232
439365
880032
15299.2
32419.9
83476.9
206848
406358
758988
11612.6
27071.7
74957.8
191357
373394
676834
10219.8
26109.2
76020.6
186134
347627
634274
11002.4
28949.9
83088.8
185955
327120
636606
14304.4
34438.7
88983.3
182859
324632
700149
20084.4
40873.1
91208.7
179977
354269
838015
27843.9
48142.1
93792.5
184824
413293
1.04737e+06
37164.5
57735.5
103893
207007
485828
1.30538e+06
48066.4
73064.2
129270
252617
551482
1.59823e+06
2.68677e+06
534993
275184
203401
169475
148273
2.26904e+06
473042
263444
209456
181107
162347
1.93337e+06
436069
270344
231004
202982
175851
1.68923e+06
420753
291344
261884
222142
175249
1.53778e+06
425737
324592
290791
219575
147601
1.44704e+06
458056
353228
289239
182067
102276
1.40649e+06
495063
345388
240381
126622
61091.9
1.41799e+06
506896
295669
171957
78945.3
34083.9
1.48206e+06
485791
237618
118873
50724.4
21081.2
1.57899e+06
456323
197979
92843.5
41374.8
18650.6
1.72468e+06
424875
181458
89222.2
46438.1
26000.1
1.95626e+06
414608
183258
102173
64120.3
44739.4
2.32057e+06
470678
208507
128341
91297.3
70745.6
2.90031e+06
570667
257933
170968
131993
106470
2.11231e+06
543987
312533
230962
175979
138152
1.77812e+06
493184
294475
216439
162823
129163
1.55428e+06
458416
287030
215163
156715
117538
1.38274e+06
441041
293521
222866
148897
100049
1.2569e+06
444400
309886
223841
128667
75420.1
1.19488e+06
476926
312888
199792
98171.8
50654.9
1.18094e+06
509089
288239
155743
66877.2
30315.2
1.19797e+06
520394
245526
112040
43528.6
17437.6
1.24145e+06
508274
206083
82699.2
30740.1
11653.3
1.31529e+06
475519
184343
72203.7
28145.2
11455.7
1.41876e+06
444434
180751
76922.1
34897.1
17132
1.58161e+06
434578
193820
96418.6
52703.6
31675.3
1.84164e+06
457412
223480
128323
80953.2
55199.3
2.26684e+06
551320
277528
178793
125783
91918.3
1.51757e+06
563990
392882
253299
159441
102479
1.31487e+06
531444
347276
198891
115589
73563.3
1.16001e+06
493425
300801
163635
88850.8
54371.9
1.03189e+06
469477
265078
142545
72127.2
40560.2
943734
455074
243763
125243
58166
29285.2
911681
450590
228252
107369
45366.3
20192.7
928053
454034
212636
89275.1
34296.4
13488.5
976767
463073
198999
75707.2
26764.8
9428.73
1.03724e+06
469157
190124
68421.8
23071.1
7716.79
1.0957e+06
459619
188412
68408.7
23573.6
8238.94
1.15522e+06
450526
192072
74346.2
28552.5
11531.5
1.23953e+06
457754
210802
92352.4
41557.5
20031.2
1.38413e+06
505305
247720
121926
63136.9
35249
1.64827e+06
621962
317791
173202
99706.5
60982.6
2.57636e+06
545771
301728
239327
211755
193325
2.16769e+06
470829
277719
232258
214611
206243
1.88536e+06
426968
269407
237830
231433
233767
1.6839e+06
404467
272445
257284
268628
279992
1.54432e+06
404569
291797
302518
329780
327237
1.45572e+06
420380
334965
370495
381520
322344
1.39716e+06
457935
390315
417607
365704
251713
1.36975e+06
503653
413965
386374
280649
165358
1.40477e+06
536095
378683
298006
188979
104759
1.50592e+06
540282
319172
218261
131891
76941.2
1.65765e+06
536165
280491
177466
110436
72069.1
1.89086e+06
534819
264948
168213
113929
84813.4
2.255e+06
559434
274648
180723
132543
105028
2.82805e+06
660395
319173
216763
169632
140417
2.0773e+06
490783
341779
314535
284485
244939
1.76301e+06
446087
334020
306925
270894
237569
1.56142e+06
414771
327941
305646
267722
231575
1.42414e+06
395318
330515
323255
285717
236830
1.33154e+06
391183
352460
365055
311074
227778
1.26628e+06
412909
397108
408661
305472
196226
1.20703e+06
463425
438063
402958
257989
145945
1.18691e+06
522253
426122
332829
189464
98850.7
1.20861e+06
565676
367682
245284
132086
68015.5
1.26996e+06
573114
311202
187486
102174
56434.3
1.36842e+06
560912
286246
167026
96492.9
58272.6
1.52428e+06
554483
285847
175325
111438
74863.8
1.77638e+06
549810
301967
200776
139517
100644
2.19009e+06
626199
347101
250013
191119
146567
1.51014e+06
539878
502260
486898
396822
283061
1.33206e+06
521740
503077
428252
309588
213762
1.21796e+06
496571
478471
385727
251881
163501
1.12805e+06
473804
456573
363981
228276
140796
1.04966e+06
457719
441876
351345
210827
120418
984595
458759
433459
326357
184863
98263.3
947280
483140
406626
277868
149862
75799.9
948997
493184
360567
224002
118184
58554
968102
511185
321387
184805
96676.4
48225.1
999142
522412
303698
169965
89954.9
46577.9
1.04595e+06
526552
304719
172421
94447.1
51549.6
1.12719e+06
532806
324868
195727
115084
68027.8
1.2661e+06
561813
360887
233358
148076
94224.9
1.5115e+06
637732
429610
304830
211722
143907
48180.4
31153.1
22150.2
17022.7
15506.8
15023.9
15822.8
17616.8
21228.2
26885.6
35180.8
47284.8
75399.9
145597
22751.3
15432.2
10994.8
8364.56
7456.07
7180.2
7555.21
8483.8
10503.4
13991.9
19633.5
29079.1
50060.5
94951.2
11365.6
7695.81
5446
4096.14
3583.67
3411.96
3564.72
4048.52
5239.93
7549.69
11607.1
18767
33145.4
61437.6
6145.64
3831.05
2608.51
1925.75
1660.17
1564.75
1629.09
1900.79
2654.01
4265.27
7289.55
12664.8
22614.9
41093.6
3578.28
1881.55
1174.94
841.378
716.633
672.213
709.523
884.172
1395.98
2556.97
4834.88
8926.38
16123.8
29135.5
2246.25
922.261
493.001
335.058
281.741
266.417
297.461
425.816
797.984
1663.39
3408.94
6595.82
12179.9
22176.2
1543.08
478.3
198.972
121.78
100.436
99.2924
129.45
235.797
531.46
1219.88
2626.3
5234.19
9863.1
18249.4
1223.07
298.919
87.9527
42.5516
33.8001
39.0007
70.1507
168.806
430.708
1030.72
2252.23
4529.96
8613.63
16088.1
1120.88
246.809
55.7465
18.9567
14.1814
22.5006
56.4824
157.346
414.473
988.582
2138.82
4270.6
8095.31
15113
1213.72
276.934
64.4629
22.0546
16.566
27.0346
66.4594
177.756
450.359
1040.48
2194.41
4299.25
8041.45
14876
1557.58
409.992
123.724
58.4074
46.1987
58.1379
107.174
239.214
547.565
1191.07
2410.75
4585.12
8397.63
15292.5
2611.44
827.493
314.559
181.443
148.418
160.049
227.179
399.968
778.516
1530.71
2900.4
5261.37
9277.47
16347.5
4979.27
1905.82
848.78
535.459
449.092
457.009
559.595
812.472
1328.89
2305.42
4030.42
6925.15
11734.2
19831.2
9738.46
4246.93
2117.51
1412.82
1215.26
1226.09
1410.22
1837.54
2665.43
4179.27
6806.83
11244.2
19428.7
34377.8
20875.7
14284.9
11015.1
9162.59
8917.2
9028.22
9536.36
10361.3
12025.7
14926.9
19735.7
26711.7
39529.7
72520.6
9257.74
6537.74
5072.29
4216.41
4067.14
4128.3
4380.28
4806.09
5695.51
7358.43
10293.1
15032.9
24621.5
48384.7
4481.42
3026.75
2321.57
1925.96
1847.49
1870.36
1981.89
2194.4
2688.03
3711.07
5686.68
9249.97
16524.1
32927.5
2392.49
1410.99
1028.62
844.846
807.388
815.313
865.395
979.131
1278.73
1965.59
3403.34
6195.09
11776.3
23210.1
1413.4
665.599
433.703
346.62
329.435
332.967
359.295
430.962
635.041
1134.12
2232.33
4451.35
8802.6
17247.5
934.856
329.824
175.003
131.346
123.357
126.043
143.641
197.259
352.267
741.219
1615.8
3412.47
6895.3
13483.5
693.485
184.832
71.1362
46.2529
42.3538
45.2864
60.0964
106.733
238.995
569.689
1311.53
2832.58
5753.46
11203.6
582.447
128.034
33.7315
16.1451
14.0092
17.5303
32.3168
78.3597
204.991
514.194
1192.68
2558.22
5138.94
9885.15
541.774
112.057
23.4926
7.61288
6.0837
10.4503
27.0597
77.198
210.223
523.781
1188.89
2488.64
4890.43
9237.72
563.328
123.506
27.9767
9.63318
7.68796
13.2131
33.4286
91.7572
239.956
575.109
1259.17
2551.97
4883.47
9042.12
653.731
169.231
53.4816
26.9376
22.2995
28.98
55.0244
126.164
297.333
666.942
1392.41
2720.57
5067.54
9204.57
939.963
308.213
136.728
87.8174
74.1313
80.8533
116.562
208.944
415.991
838.623
1632.78
3036.12
5461.5
9681.51
1582.09
658.884
366.194
267.819
232.202
236.703
289.975
421.185
692.356
1212.14
2144.31
3734.62
6392.19
10855
2884.26
1438.58
910.177
721.671
651.641
659.645
755.142
973.47
1390.6
2144.02
3431.81
5558.38
9047.57
14498.8
7114.79
5354.31
4556.37
4212.98
4386.03
4690.3
5128.87
5702.09
6616.69
8103.54
10674.4
14834.1
21931.2
36934.4
3220.57
2412.14
2041.52
1877.78
1943.82
2077.84
2277.63
2551.67
3017.74
3836.46
5333.81
7916.2
12728.5
23360.4
1556.5
1080.63
892.291
817.409
845.708
903.861
991.449
1118.76
1361.54
1842.52
2804.91
4628.69
8264.21
16220.9
825.689
482.201
373.307
338.436
350.423
375.199
413.983
476.862
615.647
928.363
1612.99
3019.41
5915.64
12040.1
493.837
219.657
148.523
130.763
135.1
145.47
163.844
199.88
290.841
516.36
1041.85
2177.65
4542.17
9394.17
337.231
108.516
57.2064
46.8082
47.9045
52.4067
62.5564
87.5387
156.328
335.291
764.386
1712.02
3681.79
7633.87
260.799
63.4276
22.9301
15.719
15.6912
18.0983
25.3464
46.4737
106.735
264.748
642.729
1473.48
3176.93
6517.46
224.945
46.7097
11.362
5.37294
5.05964
6.96801
13.79
35.0252
95.3043
250.087
610.508
1381.88
2922.8
5861
212.776
43.0715
8.65557
2.71245
2.3458
4.47023
12.274
36.4067
102.925
267.326
634.63
1390.35
2850.09
5551.51
222.224
48.8378
11.1745
4.02376
3.4629
6.2403
16.2148
45.7237
123.441
306.707
697.689
1468.23
2906.5
5496.61
255.728
68.8177
23.3605
12.5181
10.7996
14.4458
28.0091
65.647
159.02
367.994
794.376
1602.53
3067.06
5648.08
348.497
128.833
64.7008
43.555
37.4011
41.5074
61.0419
111.721
227.965
472.374
948.001
1817.04
3351.35
6006.74
563.513
285.075
183.33
139.22
121.33
124.456
154.428
228.024
382.309
683.891
1239.98
2220.15
3902.02
6766.19
1030.96
645.803
474.165
390.929
353.468
357.277
410.564
532.554
765.163
1183.55
1905.36
3118.11
5139.26
8486.31
2714.33
2109.32
1834.4
1775.69
1923.6
2185.86
2573.77
3071.42
3754.57
4730.16
6244.35
8743.56
13153.7
21581.2
1223.51
927.271
791.903
757.076
816.599
924.172
1085.15
1301.78
1623.36
2131.76
2991.01
4492.29
7291.14
12948.4
580.632
398.922
328.486
311.6
337.234
382.188
448.548
541.501
694.189
970.674
1498.62
2512.17
4536.73
8815.82
303.568
169.784
129.35
121.227
131.945
150.35
177.636
219.022
297.677
463.861
823.167
1578.54
3168.58
6577.67
180.901
74.3489
48.4433
44.0027
48.022
55.2622
66.7876
87.3604
134.07
246.936
514.372
1114.07
2416
5202.59
123.06
36.0665
17.7624
14.866
16.132
18.9607
24.4123
36.8077
69.7185
156.301
371.763
871.467
1968.96
4291.91
94.2337
21.2969
7.01586
4.77055
5.05327
6.33654
9.71853
19.3576
47.2737
123.033
313.38
756.174
1720.69
3719.51
81.2643
16.2578
3.66075
1.62253
1.61443
2.49497
5.50059
15.0475
43.1549
118.588
303.972
724.844
1617.36
3409.98
79.0686
15.7305
3.06452
0.925733
0.858974
1.81315
5.30187
16.4414
48.4347
131.332
326.927
753.231
1623.92
3310.52
87.363
18.9547
4.41203
1.70258
1.58233
2.90547
7.59966
21.8889
61.0555
157.851
375.494
828.244
1716.98
3378.74
108.676
29.567
10.5611
5.9694
5.38934
7.35437
14.2688
33.7182
83.5935
200.136
449.663
946.066
1885.59
3587.97
162.134
62.6147
32.5305
22.1415
19.4355
22.196
33.2647
61.6399
128.002
272.473
565.762
1125.14
2150.04
3957.92
289.27
153.428
98.8924
74.0839
64.9381
68.2893
87.3012
132.274
226.717
415.427
775.986
1436.29
2609.35
4632.77
574.466
371.441
269.327
216.941
195.042
200.068
236.083
315.191
464.441
734.342
1211.58
2040.96
3470.02
5888.16
1361.8
1020.4
835.475
778.567
838.611
992.419
1257.97
1634.88
2169.14
2919.36
4017.88
5786.66
8837.37
14345.8
599.043
433.018
345.416
316.786
338.621
396.838
497.863
647.857
879.862
1244.54
1837.84
2859.74
4713.03
8260.66
273.819
176.667
134.895
122.525
131.371
153.974
192.725
252.417
354.283
537.832
879.586
1528.86
2798.75
5399.89
136.403
70.54
49.458
44.3493
47.9169
56.5495
71.4225
96.0707
144.232
245.602
462.171
917.197
1870.99
3911.12
76.7673
28.9202
17.189
14.9107
16.2062
19.3941
25.2455
36.4896
62.5322
125.867
276.866
620.439
1378.05
3031.03
49.5762
13.3646
5.91635
4.67618
5.06996
6.25274
8.82211
14.999
31.8151
77.0905
192.603
468.777
1095.47
2467.79
37.2069
7.9038
2.30898
1.41709
1.49712
2.01737
3.50856
7.96417
21.3533
59.0949
157.792
397.578
944.175
2128.68
33.1455
6.41011
1.31281
0.489709
0.479465
0.837957
2.12556
6.40068
19.5539
56.5206
151.965
380.207
890.664
1969.97
34.9726
6.77028
1.25536
0.349245
0.327593
0.735271
2.25965
7.3131
22.4857
63.7586
166.496
403.372
915.266
1961.34
42.4109
8.90635
2.04966
0.830483
0.805685
1.4285
3.60917
10.4069
29.7983
80.0769
199.429
462.222
1007.58
2080.66
57.9071
15.3944
5.50155
3.20758
3.01132
4.10048
7.66864
17.6956
44.1578
108.724
254.261
559.829
1168.61
2321.09
94.9769
35.9804
18.2402
12.3867
11.2
13.1889
19.8181
36.2297
74.967
162.051
346.858
716.585
1424.69
2716.52
184.033
94.4373
58.0978
42.6141
38.0095
41.5944
55.0134
84.7529
146.435
271.698
519.148
989.605
1855.18
3380.49
387.041
239.317
164.345
128.288
115.839
122.926
151.501
209.8
317.048
511.13
861.465
1488.1
2595.25
4492.49
885.412
632.166
474.997
401.717
401.305
465.409
608.327
844.678
1223.09
1798.18
2656.07
4003.46
6257.15
10132.2
373.137
256.425
186.828
154.675
152.733
175.443
227.236
316.488
470.988
732.923
1170.53
1918.1
3242.12
5673.89
160.117
98.2543
68.2409
55.6336
54.9984
63.3745
82.4228
116.578
181.173
305.311
542.245
992.531
1858.36
3588.38
73.3753
36.2917
23.1311
18.5283
18.4738
21.5631
28.5987
42.2187
71.3581
135.867
276.682
574.577
1195.2
2511.78
37.6589
13.6237
7.38081
5.70157
5.74105
6.86516
9.55689
15.5567
30.5067
68.3189
160.433
372.998
845.087
1883.63
22.7754
5.88945
2.3598
1.6395
1.6558
2.08159
3.24864
6.41045
15.5012
40.8576
107.299
269.933
647.084
1493.11
17.1913
3.53799
0.920614
0.468346
0.458994
0.658646
1.33053
3.49974
10.319
30.315
84.5452
221.031
543.473
1268.77
16.6172
3.15367
0.590082
0.172739
0.153349
0.301828
0.87732
2.88516
9.34121
28.3334
79.6631
208.129
508.901
1174.8
19.5026
3.67007
0.645576
0.167734
0.152581
0.334601
1.02846
3.4086
10.8621
32.1231
87.7743
222.886
530.276
1190.72
25.8326
5.20444
1.16711
0.496682
0.493672
0.809184
1.8729
5.22963
15.1376
42.0109
109.077
264.813
605.509
1310.33
38.0868
9.68394
3.37814
2.03016
1.98102
2.65433
4.63582
10.0732
24.6511
61.5813
148.797
341.594
745.441
1545.05
66.7336
24.0149
11.6785
7.96447
7.4837
9.05167
13.3934
23.5556
47.3496
102.153
223.045
476.068
982.12
1937.37
136.034
65.6281
38.2221
27.688
25.4525
29.0874
39.36
60.6018
103.6
191.643
370.082
720.697
1387
2586.67
296.141
171.492
110.832
84.472
77.6804
86.1036
110.475
157.032
240.217
390.113
663.711
1163.22
2065.15
3627.5
695.583
486.561
344.756
265.009
235.554
248.631
311.617
441.723
682.487
1092.8
1749.73
2788.54
4496.03
7357.45
281.499
190.005
130.247
97.4545
85.1627
88.9888
111.102
159.171
254.621
433.643
753.354
1312.39
2295.22
4067.24
113.245
69.0719
45.0713
32.9037
28.5588
29.9296
37.8759
56.0688
95.4577
178.058
344.711
670.265
1296.5
2534.01
47.1925
23.7557
14.302
10.1528
8.81115
9.37834
12.3101
19.5829
37.2742
79.3315
175.086
382.692
818.261
1740.1
21.7915
8.17104
4.22939
2.86632
2.49487
2.74704
3.90979
7.16399
16.18
40.2325
100.711
243.384
564.397
1275.55
12.4428
3.30219
1.26221
0.754817
0.655044
0.778833
1.3171
3.04493
8.39613
23.9433
65.8696
170.993
419.795
987.534
9.78
2.03458
0.493887
0.204194
0.168715
0.243511
0.567873
1.72314
5.55211
17.2284
49.9878
135.051
342.088
820.941
10.4597
1.98545
0.351355
0.0833667
0.0610369
0.125588
0.401961
1.42134
4.85807
15.4326
45.2698
123.073
312.657
748.674
13.4614
2.48881
0.422701
0.107246
0.092282
0.179794
0.515573
1.70345
5.58543
17.1947
49.1073
130.439
324.477
760.662
19.0221
3.71506
0.815221
0.363038
0.364716
0.544994
1.10583
2.86246
8.18979
23.2591
62.7098
159.049
380.468
860.618
29.5852
7.21658
2.45637
1.5222
1.53199
2.00956
3.23648
6.43079
14.9833
37.2807
92.1373
219.175
497.582
1072.54
53.8447
18.389
8.64088
5.97889
5.82475
7.16269
10.329
17.2388
33.007
69.7482
153.216
334.74
711.776
1446.54
112.368
51.1881
28.5948
20.763
19.7321
23.3064
31.7765
48.2267
80.4681
146.338
281.936
555.696
1091.14
2074.08
248.867
136.234
83.9569
63.4581
59.8939
68.9292
90.6692
130.113
198.558
320.859
544.934
959.685
1724.05
3064.46
614.003
429.972
296.439
213.841
170.71
158.297
177.925
240.688
377.957
642.565
1111.67
1902.62
3219.91
5427.03
240.823
163.301
108.835
76.1246
59.4659
54.5029
61.4527
85.1754
140.351
255.149
478.354
895.02
1648.08
3022.19
91.9101
57.1366
36.2911
24.5947
18.9188
17.3295
19.9996
29.3229
52.7967
106.689
223.217
464.195
943.64
1907.06
35.2759
18.629
10.9963
7.18877
5.46829
5.07416
6.19285
10.1475
21.1225
49.2154
116.671
269.728
601.293
1315.24
14.7861
5.9696
3.07653
1.90539
1.43631
1.38488
1.90937
3.8053
9.59502
25.8887
68.5042
172.754
414.225
958.747
8.02118
2.25993
0.8663
0.468941
0.347881
0.370863
0.652419
1.70451
5.17201
15.6441
44.822
120.388
304.382
732.82
6.57972
1.40051
0.3323
0.120942
0.0836575
0.115093
0.29684
0.996341
3.41811
11.0719
33.2965
93.0074
242.901
598.245
7.64119
1.44993
0.248512
0.0529062
0.0328814
0.0656803
0.218741
0.808995
2.88326
9.5364
29.109
82.2218
216.376
534.101
10.5143
1.9139
0.31681
0.0811979
0.0684518
0.118085
0.304701
0.978143
3.26427
10.4115
30.9766
85.6919
221.331
536.279
15.5962
2.96517
0.638864
0.296397
0.302509
0.425881
0.770032
1.81835
5.05101
14.5247
40.3584
106.066
262.738
613.59
25.2048
5.91049
1.97384
1.26119
1.3027
1.69027
2.5687
4.71161
10.3615
25.3431
63.2869
154.163
359.856
797.326
46.858
15.257
7.01259
4.95609
4.97278
6.18069
8.73587
13.9656
25.5168
52.4458
114.686
253.628
550.356
1143.39
98.7214
42.9141
23.3783
17.2009
16.823
20.2773
27.6392
41.2664
67.1666
119.689
228.695
452.944
901.845
1741.45
220.637
115.838
69.268
52.6288
50.959
60.1043
79.9047
114.558
173.297
277.309
468.017
824.66
1494.34
2685.9
563.702
398.636
272.35
189.494
140.411
116.928
117.382
147.035
225.521
392.576
717.81
1316.23
2359.69
4143.79
216.236
148.235
97.8573
65.8771
47.6103
39.1076
39.5865
51.5497
84.5933
159.565
317.061
633.416
1236.53
2378.5
79.548
50.5193
31.8427
20.6942
14.6454
11.9796
12.505
17.6267
32.5411
69.5327
154.916
342.534
735.031
1552.96
28.7953
15.9064
9.38136
5.85797
4.0719
3.36483
3.77846
6.18798
13.6291
33.8772
85.0369
206.899
482.117
1091.84
11.2188
4.85596
2.53812
1.4989
1.02514
0.883092
1.16479
2.43763
6.58733
18.7654
51.8374
135.909
337.341
802.09
5.83891
1.74056
0.685439
0.355093
0.23765
0.231127
0.414554
1.16534
3.73113
11.7064
34.5915
95.752
248.899
612.435
4.94361
1.06579
0.253595
0.0883919
0.0551322
0.0729579
0.200035
0.707921
2.50946
8.34448
25.7469
73.8098
197.403
495.338
6.07794
1.14131
0.191216
0.0392191
0.0229123
0.0447088
0.150942
0.570333
2.08034
7.05562
22.1181
64.1259
172.721
433.997
8.76498
1.56193
0.25161
0.065447
0.0560291
0.0913148
0.220221
0.68991
2.32211
7.57431
23.146
65.7063
173.56
427.938
13.4984
2.48598
0.522542
0.249943
0.260615
0.359084
0.611841
1.36202
3.6922
10.6718
30.2059
81.1422
205.153
487.169
22.4315
5.03216
1.64541
1.07993
1.14078
1.47879
2.18554
3.82938
8.09484
19.4937
48.879
120.731
286.574
644.873
42.2935
13.0955
5.91007
4.27312
4.39028
5.50031
7.69327
11.9914
21.2304
42.6782
92.8056
206.766
455.057
960.796
89.4657
37.2158
19.9013
14.914
14.9395
18.2315
24.8004
36.5765
58.4227
102.35
194.19
386.332
778.918
1527.49
200.358
101.918
59.6643
45.9173
45.5038
54.5236
72.7244
103.772
155.509
246.403
413.322
729.097
1333.76
2430.37
100339
171772
284310
426654
557588
584013
61986.8
115642
210202
349817
510805
595187
45308.7
91158.7
177606
315455
490895
613495
35495.2
75941.3
157120
294476
480578
628875
32957.6
72017.7
150691
284472
468785
629426
31746.5
69687.1
145164
273454
448080
604897
33094.4
71686.5
147245
271914
431956
568826
36394.6
78014.5
157821
286076
435590
541799
42920
90776.2
181735
324572
475095
540961
52827.2
109752
218955
388510
550509
567288
66153
133796
267168
472220
632847
586466
81642.6
160789
322124
564575
687714
579425
110158
208001
401839
660223
708913
561727
181804
329249
536995
710138
672304
552840
49074.4
91618.5
168308
291413
457206
648021
31210.2
62783.1
126083
241889
420086
641646
24273.4
52076.1
111452
226232
408123
637408
20354.7
46316.4
104565
219814
402251
631026
20011.8
46519.9
105532
219160
395355
614240
19962.3
46304
103810
211871
378662
583060
20723
47279.8
103497
206654
365658
553726
22110.1
49339.1
105516
208074
366293
539832
25135.4
54682.6
115192
227108
397180
554187
30416.5
64767.7
136166
272335
469874
603608
39138.5
81516.9
171936
344756
573690
658141
51128.9
103759
218655
433210
671023
683453
69305.5
134647
279468
532597
730864
680859
112056
209315
390510
631116
731063
670140
16711.8
32051
62826
124295
239176
434049
11937
24338.7
51362.5
110806
231921
444669
10224.6
22188.1
49786.1
113094
242920
462220
9560.07
22046.7
52253.1
122514
262176
480906
10048.4
24038.7
58085.1
134953
279353
488006
10682.7
25861.8
62268.4
141032
282339
477470
11534.1
27663.2
65182
143121
279204
462203
12596.7
29498.4
67297.7
143695
276234
450938
14291.3
32343.9
71380.5
149470
285986
458275
17017.3
37079
79821.4
166744
319983
495141
21707
45591.6
96859.6
203064
384063
557679
29292.9
59429.7
124847
258273
467210
623572
41533.1
80348.6
163348
326672
548786
669986
66242.2
122050
230614
413179
607581
692284
6210.11
11617.8
22644.3
46658.9
102634
234985
4727.06
9562.68
20097.3
44847.2
106747
259135
4184.34
9099.28
20526
49064
121527
292634
4146.99
9719.64
23645.6
59640
148624
337179
4565.82
11338.7
28946.9
74242.5
179978
378064
5227.44
13410.2
34815.2
88002.8
203684
399367
6138.37
15789.2
40340.2
98360.9
216735
403332
7208.98
18090.3
44465.6
103709
219269
395040
8572.62
20572.3
48119
107354
220070
388744
10383.9
23508.3
52163.7
112156
226474
394942
13095.9
27888.7
59379.8
125124
251678
428942
17617.1
35625.3
73862
153321
302823
492713
25482.6
48811.2
97516.3
197146
373309
568928
40562.3
73559
138230
260549
441374
616883
3107.72
5696.62
10724
21345.5
47093.8
117844
2301.41
4596.08
9361.56
20349.7
49817.3
138174
1933.79
4196.73
9343.64
22359.4
59324.9
169377
1858.79