/*--------------------------------*- C++ -*----------------------------------*\
| =========                 |                                                 |
| \\      /  F ield         | OpenFOAM: The Open Source CFD Toolbox           |
|  \\    /   O peration     | Version:  v2106                                 |
|   \\  /    A nd           | Website:  www.openfoam.com                      |
|    \\/     M anipulation  |                                                 |
\*---------------------------------------------------------------------------*/
FoamFile
{
    version     2.0;
    format      ascii;
    arch        "LSB;label=32;scalar=64";
    class       volScalarField;
    location    "0.000195";
    object      p;
}
// * * * * * * * * * * * * * * * * * * * * * * * * * * * * * * * * * * * * * //

dimensions      [1 -1 -2 0 0 0 0];

internalField   nonuniform List<scalar> 
144746
(
195794
195846
195436
195200
195093
194823
194651
194287
193880
193448
193030
192929
192830
193482
195432
195578
195458
195359
195259
195059
194884
194554
194165
193733
193335
193210
193072
193773
195754
195807
195730
195616
195523
195350
195176
194867
194504
194088
193664
193386
193165
193490
195967
196021
196006
195918
195811
195659
195463
195193
194863
194494
194105
193799
193579
193666
196394
196392
196347
196245
196116
195955
195764
195522
195207
194857
194481
194171
193970
193964
196763
196723
196654
196551
196419
196253
196064
195832
195529
195200
194866
194569
194355
194268
197095
197015
196921
196809
196688
196532
196339
196113
195828
195511
195171
194875
194644
194506
197380
197257
197142
197024
196902
196742
196570
196344
196057
195756
195442
195142
194841
194617
197551
197422
197308
197201
197090
196940
196757
196535
196246
195928
195571
195211
194882
194636
197733
197601
197488
197365
197244
197095
196909
196682
196401
196074
195712
195332
194962
194655
197793
197677
197571
197464
197345
197202
197018
196785
196507
196168
195789
195376
195003
194639
197999
197796
197717
197571
197447
197281
197105
196876
196599
196259
195905
195524
195239
194856
198233
197821
197771
197637
197500
197340
197171
196947
196662
196313
195938
195530
195277
194848
198261
197673
197761
197633
197558
197383
197252
197052
196776
196463
196140
195951
196126
195760
196387
196594
196446
196430
196326
196344
196230
196012
195691
195362
194934
194704
194293
194639
196513
196645
196611
196621
196542
196510
196401
196199
195903
195594
195240
195031
194753
195032
196832
196889
196832
196812
196729
196693
196584
196401
196139
195839
195496
195236
194967
194984
196979
197000
196993
196964
196909
196852
196762
196613
196394
196144
195856
195602
195355
195261
197238
197211
197140
197086
197053
197007
196936
196816
196638
196433
196181
195950
195750
195658
197382
197339
197289
197255
197218
197174
197108
197000
196855
196690
196501
196295
196124
196040
197552
197525
197455
197424
197376
197321
197251
197152
197027
196882
196710
196567
196430
196310
197658
197643
197572
197539
197491
197434
197360
197265
197156
197019
196854
196687
196518
196411
197733
197751
197704
197661
197602
197532
197449
197344
197230
197089
196917
196741
196558
196415
197849
197835
197810
197760
197702
197619
197519
197397
197264
197107
196905
196706
196503
196323
197915
197931
197906
197868
197798
197707
197579
197435
197271
197087
196873
196654
196419
196182
198087
198024
198021
197963
197878
197769
197624
197450
197265
197057
196828
196610
196403
196151
198241
198077
198107
198049
197979
197863
197694
197507
197269
197013
196752
196502
196289
195920
198299
198070
198153
198101
198027
197930
197757
197579
197313
197008
196747
196613
196605
196467
196161
196544
196565
196412
196419
196313
196147
195890
195543
195143
194703
194325
193877
193757
196753
196967
197024
196880
196834
196671
196477
196219
195900
195579
195246
194961
194592
194526
197211
197381
197356
197242
197164
196987
196782
196533
196259
195977
195652
195348
194989
194794
197648
197740
197671
197608
197494
197323
197113
196864
196594
196318
196023
195740
195419
195155
198034
198035
198008
197917
197805
197628
197420
197174
196912
196645
196358
196097
195827
195601
198364
198351
198334
198242
198116
197931
197715
197467
197209
196953
196678
196431
196201
196062
198673
198673
198655
198556
198423
198229
198005
197754
197495
197247
196983
196764
196567
196441
198989
199010
198976
198871
198727
198520
198282
198021
197756
197506
197244
197039
196877
196778
199283
199312
199273
199162
199012
198797
198548
198273
197997
197736
197475
197268
197120
197005
199557
199606
199562
199443
199278
199053
198792
198503
198217
197949
197689
197469
197298
197163
199784
199847
199817
199691
199514
199286
199017
198722
198424
198133
197890
197647
197435
197221
200001
200025
200031
199909
199727
199491
199209
198904
198591
198289
198065
197826
197607
197306
200210
200202
200207
200102
199928
199688
199399
199089
198762
198463
198189
197914
197697
197261
200195
200231
200287
200210
200048
199842
199554
199254
198915
198635
198374
198230
198077
197694
195047
196217
196405
197207
197431
199397
193106
194258
194919
196396
196916
199216
193397
194408
194980
196509
197031
199430
193621
194296
194810
196261
196789
199332
194001
194537
195065
196478
197026
199536
194251
194651
195176
196463
197175
199227
194431
194828
195307
196569
197312
199396
194546
194886
195342
196522
197255
199530
194570
194889
195372
196644
197391
199805
194580
194900
195496
196843
197561
200018
194687
195145
195747
197090
197819
200024
194887
195249
195885
197271
197999
200063
195319
195834
196427
197712
198349
200192
194878
195492
196481
198099
198848
200263
195774
196606
196539
197002
196799
198175
194202
194853
195196
196246
196251
198497
194712
195184
195491
196610
196676
198817
195091
195348
195590
196639
196764
199048
195607
195826
196042
197117
197241
199419
195959
196119
196287
197254
197336
199348
196208
196419
196551
197429
197486
199447
196326
196522
196605
197365
197335
199309
196315
196481
196540
197261
197148
199382
196222
196275
196307
197074
196956
199316
196096
196079
196167
196938
196985
199110
196046
195944
196006
196762
197023
198945
196001
196015
196130
196861
197199
199065
194948
195046
195434
196887
197517
198757
194782
195260
195052
194625
194590
194277
193588
193549
193454
193904
193842
195100
194165
193959
193880
194552
194674
196324
194756
194445
194331
194850
194907
196429
195369
195119
195063
195628
195716
197995
195910
195754
195701
196254
196375
198591
196302
196288
196318
196964
197162
199423
196663
196682
196729
197325
197558
199818
196899
196918
196972
197519
197679
200288
197034
196996
197030
197499
197668
200332
197099
196981
197022
197482
197718
200196
197273
197014
196990
197338
197608
199519
197415
197080
197078
197460
197768
199323
196324
196125
196136
196774
197516
198985
196947
198003
198102
198838
199124
200422
195172
196270
196662
198042
198313
200578
195694
196556
196823
198178
198258
200979
196052
196554
196756
197942
198121
200669
196510
196859
197090
198203
198318
200816
196839
197090
197265
198242
198386
200547
197136
197342
197485
198428
198580
200681
197315
197471
197611
198483
198686
200476
197447
197624
197748
198547
198697
200776
197545
197652
197751
198572
198860
200910
197638
197783
197944
198676
199034
200876
197729
197771
197936
198593
198921
201245
197956
198153
198352
199009
199373
200591
197421
197636
198133
199204
199799
200410
197257
197883
197767
198248
198189
199094
195792
196368
196323
197239
197131
199144
196244
196561
196491
197487
197233
199818
196576
196690
196600
197344
197254
199516
196969
197043
197033
197773
197718
199687
197329
197441
197463
198126
198087
199456
197659
197774
197759
198425
198277
199787
197798
197957
197994
198636
198523
199772
198005
198130
198157
198707
198547
200062
198068
198158
198229
198689
198544
200175
198139
198228
198331
198743
198793
200037
198163
198243
198315
198639
198794
199480
198230
198270
198330
198567
198744
199658
197621
197563
197637
198051
198394
199235
198531
198918
198824
198871
198596
199250
197516
197765
197605
198035
197926
198962
197891
198001
197822
198367
198221
199720
198239
198301
198138
198631
198630
200314
198675
198766
198781
199400
199544
201199
199041
199297
199430
200029
200200
201464
199450
199697
199961
200628
200797
202250
199811
200127
200380
201087
201188
202381
200086
200425
200638
201316
201435
202467
200268
200563
200693
201228
201432
202313
200400
200586
200689
200944
201138
201735
200473
200525
200584
200594
200608
200697
200525
200369
200351
200214
200154
199973
199825
199576
199443
199186
199115
198652
199020
198233
197679
196485
195711
195280
199174
198040
197544
196802
196362
196092
199257
198163
197541
196613
196087
195914
200346
198013
197663
196805
196298
196120
200351
198215
197730
196885
196564
196459
200324
198601
198278
197358
197031
196859
200209
199001
198542
197684
197401
197199
200597
199232
198884
198034
197791
197512
200626
199225
198992
198157
197945
197670
200931
199397
199135
198311
198155
197868
201097
199202
199132
198334
198202
197865
201621
199104
199361
198584
198453
197939
201064
199389
199386
198609
198427
197708
201003
200187
200187
199699
199677
198881
197810
197005
196437
195714
195487
195772
198393
197491
197184
196782
196645
196819
198313
197515
197266
196964
196821
196915
198971
197855
197636
197253
197074
197111
199096
197824
197721
197404
197253
197300
199072
198237
198002
197596
197435
197449
199060
198324
197970
197641
197555
197568
199286
198421
198023
197679
197638
197668
199278
198434
198111
197724
197681
197697
199499
198580
198241
197826
197847
197845
199377
198467
198282
197862
197871
197823
199640
198560
198463
198023
198075
197938
199368
198466
198427
198029
198105
197812
199516
198991
199112
198975
199078
198680
190495
192718
192655
193409
193977
195170
191641
193931
194365
195382
195891
196809
192152
194381
194940
196027
196473
197210
193425
195140
195736
196644
196993
197638
194404
195786
196330
197122
197416
197946
195185
196433
196856
197615
197866
198265
195697
196874
197256
198012
198276
198573
195999
197251
197550
198340
198635
198896
196058
197481
197762
198581
198943
199187
196259
197712
197975
198787
199212
199434
196444
197844
198175
198965
199412
199631
196834
198245
198578
199260
199649
199823
197514
198688
198935
199480
199835
199908
198517
199417
199917
200388
200629
200580
198883
197614
196826
195252
194083
193312
198838
197169
196338
195047
194232
193675
198820
196897
195976
194608
193738
193243
198760
196595
195772
194521
193668
193200
198803
196446
195583
194367
193718
193475
198666
196493
195693
194611
194072
193825
198562
196552
195758
194783
194356
194178
198657
196604
196105
195076
194714
194518
198683
196585
196292
195211
194963
194676
198906
196923
196510
195312
195124
194941
198753
196748
196552
195465
195354
195053
199184
197245
197106
195981
195789
195218
199444
196992
197144
196176
195909
195160
199459
198300
198240
197690
197642
196835
197594
196481
195916
194441
193790
193695
197735
196148
195846
195013
194675
194683
197952
195835
195484
194759
194553
194694
198057
195865
195716
194996
194792
194908
198154
195994
195860
195241
195153
195278
198119
196377
196234
195689
195545
195584
197774
196663
196520
195998
195861
195888
198058
196982
196785
196182
196088
196080
198143
196906
196720
196131
196174
196190
198185
196834
196678
196019
196054
196124
197897
196512
196496
195953
196101
196205
198006
196662
196649
196050
196072
196096
198209
196634
196667
196040
196005
195891
198220
197496
197529
197381
197492
197028
193030
192957
191845
191267
191091
192122
193121
193354
192567
192737
192967
193837
192836
193176
192618
192856
193182
194060
193615
193410
193154
193305
193626
194389
193581
193740
193477
193789
194112
194792
193426
194229
193989
194353
194610
195186
193225
194393
194214
194758
195010
195536
193312
194285
194241
194948
195286
195792
192928
193976
194070
194878
195361
195921
192648
193766
193908
194762
195333
195952
192003
193365
193692
194600
195237
195886
191759
193265
193679
194606
195249
195859
191136
193149
193573
194564
195207
195718
191076
193378
194318
195598
196137
196466
199537
199407
198973
198587
198269
197851
197477
197060
196652
196214
195756
195297
194887
194734
199686
199477
199117
198803
198451
198051
197667
197252
196852
196455
196054
195712
195415
195274
199789
199548
199233
198945
198622
198255
197879
197488
197106
196734
196383
196090
195763
195504
199875
199652
199390
199113
198814
198476
198116
197740
197370
197012
196691
196390
196089
195776
200019
199803
199571
199310
199024
198703
198359
197999
197651
197308
197006
196708
196394
196061
200213
200003
199787
199534
199257
198946
198612
198258
197920
197584
197287
197001
196713
196390
200435
200238
200037
199790
199514
199202
198867
198513
198178
197846
197553
197276
197009
196720
200705
200518
200320
200067
199782
199459
199115
198755
198414
198081
197785
197510
197257
196991
200965
200790
200592
200336
200040
199704
199349
198980
198632
198296
197998
197717
197475
197224
201284
201089
200868
200593
200278
199929
199562
199187
198831
198492
198190
197895
197651
197403
201567
201356
201118
200825
200490
200130
199756
199376
199013
198668
198357
198042
197788
197527
201886
201616
201356
201049
200696
200326
199942
199555
199175
198813
198478
198182
197919
197680
202184
201913
201613
201281
200903
200515
200111
199708
199310
198922
198557
198252
198034
197725
202446
202166
201832
201494
201107
200720
200323
199918
199521
199150
198828
198553
198353
197933
201043
200620
200191
199667
199250
198772
198304
197830
197368
196920
196468
196034
195585
195327
201018
200610
200206
199768
199363
198915
198450
197978
197517
197091
196689
196326
195947
195675
201010
200620
200264
199867
199473
199052
198615
198178
197751
197348
196971
196608
196225
195938
201088
200700
200370
200007
199635
199238
198818
198397
197990
197602
197247
196889
196491
196137
201208
200836
200521
200173
199811
199426
199025
198624
198238
197864
197515
197164
196790
196410
201386
201038
200734
200398
200041
199660
199266
198871
198488
198118
197765
197416
197056
196685
201599
201286
200990
200659
200301
199913
199515
199115
198726
198354
197998
197655
197317
196965
201855
201567
201271
200936
200568
200168
199757
199345
198945
198567
198208
197869
197544
197215
202122
201847
201547
201199
200818
200402
199976
199551
199141
198758
198397
198062
197744
197435
202419
202125
201802
201436
201038
200609
200173
199740
199322
198932
198565
198224
197909
197606
202704
202385
202033
201643
201225
200787
200345
199906
199483
199084
198715
198360
198045
197715
203020
202644
202248
201837
201401
200957
200513
200072
199641
199230
198844
198474
198163
197814
203306
202924
202495
202063
201601
201137
200677
200220
199777
199353
198952
198592
198273
197898
203642
203208
202716
202262
201789
201326
200872
200417
199962
199535
199138
198808
198473
198045
203094
202539
202013
201436
200912
200367
199794
199216
198662
198134
197637
197140
196667
196296
203016
202421
201913
201395
200892
200369
199811
199243
198689
198162
197688
197263
196873
196498
202884
202322
201842
201356
200872
200375
199852
199320
198799
198296
197837
197417
197008
196671
202870
202341
201873
201405
200931
200445
199943
199434
198934
198446
197992
197573
197161
196781
202925
202435
201982
201525
201058
200575
200082
199583
199095
198619
198169
197754
197344
196946
203042
202588
202151
201700
201230
200743
200248
199751
199264
198794
198349
197936
197523
197127
203204
202785
202359
201907
201431
200933
200430
199929
199438
198968
198528
198117
197709
197317
203390
202990
202568
202112
201626
201117
200604
200096
199602
199134
198699
198295
197901
197512
203582
203188
202762
202298
201802
201280
200756
200243
199750
199287
198860
198466
198089
197715
203766
203351
202905
202431
201928
201406
200884
200376
199890
199432
199009
198620
198253
197891
203951
203508
203032
202539
202025
201501
200985
200483
200003
199547
199130
198745
198383
198017
204132
203635
203130
202622
202102
201585
201080
200588
200118
199664
199242
198845
198466
198084
204363
203847
203317
202780
202235
201698
201176
200671
200195
199734
199304
198894
198524
198097
204572
203985
203415
202877
202342
201816
201300
200794
200307
199835
199398
198980
198572
198135
204514
203925
203337
202762
202190
201608
201017
200422
199825
199237
198655
198094
197564
197094
204451
203829
203221
202645
202090
201528
200952
200365
199770
199183
198613
198100
197629
197211
204296
203702
203118
202562
202014
201464
200904
200341
199778
199221
198681
198185
197722
197317
204282
203698
203126
202571
202021
201471
200920
200369
199823
199280
198756
198271
197817
197411
204309
203754
203201
202648
202095
201541
200988
200438
199900
199367
198854
198376
197922
197494
204385
203861
203321
202767
202209
201649
201092
200538
199999
199470
198965
198489
198030
197582
204491
203986
203460
202905
202341
201773
201208
200649
200109
199583
199083
198610
198149
197692
204610
204108
203586
203029
202460
201885
201316
200755
200215
199695
199199
198730
198270
197808
204721
204214
203685
203123
202551
201973
201403
200843
200305
199793
199306
198845
198395
197934
204808
204281
203740
203173
202600
202026
201463
200915
200389
199887
199409
198956
198514
198062
204882
204339
203783
203208
202628
202056
201497
200960
200448
199957
199485
199043
198612
198174
204943
204361
203788
203213
202643
202086
201542
201017
200515
200028
199558
199121
198680
198239
205080
204461
203869
203280
202700
202136
201588
201059
200558
200065
199607
199158
198727
198249
205162
204461
203844
203274
202722
202186
201662
201142
200636
200132
199664
199202
198755
198268
205873
205156
204475
203841
203232
202641
202052
201467
200886
200302
199721
199090
198480
197915
205743
205081
204396
203750
203129
202533
201953
201378
200802
200212
199624
199017
198464
197974
205588
204944
204277
203651
203046
202468
201902
201335
200774
200202
199625
199050
198512
198018
205538
204921
204281
203661
203053
202469
201902
201340
200782
200213
199643
199085
198557
198071
205525
204936
204310
203697
203091
202505
201937
201373
200816
200249
199685
199135
198609
198114
205565
204991
204377
203760
203152
202561
201990
201423
200862
200298
199736
199192
198657
198154
205609
205034
204438
203819
203209
202614
202039
201471
200908
200347
199784
199240
198700
198188
205653
205071
204469
203848
203240
202646
202070
201503
200938
200384
199821
199277
198737
198212
205669
205076
204471
203849
203240
202648
202073
201509
200946
200398
199844
199307
198777
198252
205645
205037
204430
203814
203213
202628
202059
201501
200945
200402
199861
199335
198815
198300
205606
204991
204381
203770
203175
202595
202030
201479
200930
200393
199864
199356
198854
198352
205543
204912
204310
203711
203131
202562
202010
201470
200932
200399
199876
199378
198885
198378
205541
204900
204301
203705
203125
202554
201997
201454
200923
200391
199888
199395
198916
198393
205503
204807
204202
203635
203093
202557
202025
201484
200951
200417
199928
199425
198924
198408
206918
206194
205466
204775
204117
203496
202912
202336
201773
201206
200619
200030
199363
198723
206776
206144
205436
204741
204059
203418
202818
202242
201678
201107
200514
199923
199267
198683
206607
205976
205294
204625
203976
203367
202788
202219
201660
201093
200504
199907
199277
198705
206528
205919
205263
204605
203967
203365
202792
202230
201674
201105
200511
199905
199290
198709
206494
205887
205246
204602
203972
203377
202811
202255
201700
201131
200535
199928
199315
198738
206486
205890
205241
204589
203968
203382
202826
202278
201725
201156
200555
199945
199330
198751
206486
205853
205206
204563
203949
203369
202820
202280
201730
201163
200559
199947
199329
198741
206425
205782
205139
204503
203904
203335
202790
202251
201700
201135
200532
199922
199306
198711
206317
205665
205035
204414
203831
203273
202731
202191
201637
201072
200471
199868
199258
198663
206157
205510
204899
204300
203737
203191
202653
202109
201547
200975
200379
199786
199191
198607
206003
205368
204773
204191
203638
203095
202552
202000
201432
200856
200272
199694
199115
198550
205837
205219
204651
204090
203549
203010
202467
201912
201341
200761
200185
199619
199057
198497
205750
205157
204601
204044
203498
202944
202391
201828
201260
200683
200122
199569
199027
198470
205639
205015
204473
203951
203445
202910
202363
201798
201229
200651
200110
199559
199014
198438
207679
207014
206306
205606
204925
204277
203677
203104
202548
201991
201421
200833
200240
199568
207522
206927
206260
205570
204886
204226
203600
203012
202447
201888
201317
200722
200125
199455
207387
206796
206139
205468
204810
204179
203574
202993
202428
201865
201291
200692
200080
199452
207305
206717
206079
205422
204780
204165
203574
203000
202439
201874
201289
200680
200045
199417
207250
206653
206020
205382
204747
204146
203570
203012
202460
201895
201303
200683
200039
199410
207196
206595
205951
205294
204679
204096
203545
203008
202468
201908
201310
200681
200029
199392
207114
206464
205816
205190
204591
204028
203497
202977
202448
201893
201292
200658
200000
199356
206937
206284
205653
205043
204471
203933
203420
202909
202382
201828
201224
200589
199933
199289
206698
206052
205451
204870
204330
203812
203308
202797
202264
201703
201100
200471
199821
199176
206423
205797
205231
204687
204181
203681
203177
202655
202105
201530
200922
200304
199668
199035
206192
205589
205049
204531
204040
203541
203023
202477
201904
201314
200709
200104
199488
198882
205991
205420
204905
204400
203915
203408
202878
202314
201722
201119
200514
199918
199316
198727
205901
205355
204842
204321
203818
203284
202731
202150
201553
200952
200361
199776
199197
198605
205746
205197
204721
204228
203736
203189
202626
202039
201446
200847
200274
199695
199130
198491
208232
207690
207067
206411
205749
205088
204460
203860
203281
202704
202128
201544
200996
200328
208104
207579
206985
206342
205687
205028
204383
203753
203153
202578
202010
201422
200848
200215
208002
207475
206882
206248
205611
204971
204338
203721
203119
202535
201958
201372
200784
200166
207910
207370
206784
206168
205553
204935
204315
203707
203109
202525
201940
201341
200724
200087
207810
207257
206677
206081
205480
204880
204284
203695
203111
202529
201938
201326
200690
200052
207687
207121
206530
205933
205353
204784
204222
203665
203105
202532
201937
201313
200663
200013
207492
206898
206316
205746
205194
204659
204136
203614
203074
202512
201916
201284
200626
199961
207214
206623
206063
205520
205004
204504
204012
203514
202991
202438
201844
201211
200553
199882
206891
206315
205789
205282
204803
204332
203858
203368
202847
202295
201704
201079
200426
199764
206562
206010
205520
205050
204603
204149
203678
203180
202647
202086
201496
200882
200242
199587
206302
205769
205299
204846
204410
203950
203460
202936
202380
201807
201219
200619
199991
199362
206093
205579
205118
204661
204217
203737
203225
202678
202100
201514
200923
200332
199724
199113
205981
205464
204987
204503
204030
203519
202981
202412
201825
201236
200652
200070
199468
198865
205771
205267
204825
204341
203854
203326
202775
202202
201616
201028
200451
199861
199293
198648
208675
208263
207739
207157
206546
205915
205289
204669
204063
203462
202860
202247
201684
200991
208584
208127
207616
207039
206436
205804
205164
204512
203868
203256
202666
202062
201495
200853
208480
208010
207487
206916
206325
205703
205065
204417
203774
203151
202548
201953
201374
200749
208347
207859
207337
206781
206211
205610
204984
204343
203697
203074
202465
201861
201254
200628
208182
207684
207169
206631
206080
205501
204898
204281
203646
203025
202410
201793
201165
200543
207982
207474
206953
206423
205893
205347
204781
204199
203591
202984
202366
201737
201096
200465
207705
207188
206681
206178
205675
205165
204643
204101
203524
202932
202317
201681
201032
200390
207384
206870
206379
205897
205426
204952
204466
203954
203407
202834
202229
201597
200952
200306
207046
206542
206073
205616
205173
204726
204262
203768
203238
202678
202086
201465
200832
200198
206720
206228
205778
205344
204919
204483
204023
203534
203012
202462
201884
201282
200667
200039
206449
205957
205517
205087
204662
204218
203746
203246
202718
202173
201609
201031
200428
199816
206199
205713
205278
204838
204403
203937
203448
202935
202399
201856
201302
200741
200149
199550
206019
205503
205058
204597
204141
203651
203137
202606
202063
201523
200978
200426
199841
199241
205730
205222
204799
204334
203880
203385
202868
202334
201791
201254
200712
200152
199579
198918
200373
201128
201714
202199
203640
205353
199120
199334
199414
199937
201715
203915
198816
198830
198723
199028
200433
202743
198305
198145
197850
197956
199238
201370
197985
197708
197308
197234
198348
200172
197555
197225
196800
196555
197504
198880
197197
196852
196477
196111
196854
197705
196787
196437
196146
195731
196256
196655
196365
195950
195760
195407
195855
195957
195907
195380
195236
194995
195612
195987
195464
194849
194671
194542
195332
196226
195074
194351
194087
194043
195084
196313
194849
194066
193773
193731
194979
196102
193295
192282
192070
192469
194032
195403
201860
202767
203622
204388
205042
206361
200655
201151
201592
202509
203717
205349
200263
200605
200996
201708
202756
204298
199647
199799
199975
200483
201422
202796
199197
199204
199230
199509
200205
201336
198666
198542
198456
198557
199016
199936
198164
197970
197861
197883
198192
198926
197649
197421
197337
197311
197541
198185
197167
196918
196884
196839
197018
197555
196695
196379
196384
196292
196531
197089
196270
195826
195819
195640
195946
196658
195854
195272
195138
194941
195310
196176
195601
194887
194629
194463
194993
195977
194291
193361
193050
193161
193928
195213
203840
204824
205780
206684
207419
208369
202791
203451
204141
205045
206145
207494
202357
202987
203621
204372
205254
206466
201628
202130
202526
203114
203843
204902
201010
201390
201565
201963
202465
203297
200345
200579
200533
200745
201036
201666
199700
199806
199638
199739
199895
200362
199093
199076
198899
198941
199023
199335
198535
198419
198332
198358
198473
198680
197999
197803
197814
197826
198009
198244
197515
197237
197315
197267
197558
197982
197048
196654
196692
196509
196775
197311
196750
196147
196075
195815
196105
196736
195639
194928
194677
194521
194819
195560
205195
205865
206519
207364
208011
208821
204343
205018
205614
206474
207337
208396
203844
204492
205134
205903
206682
207651
203153
203691
204234
204855
205504
206282
202501
202913
203276
203667
204058
204584
201800
202054
202191
202333
202465
202772
201093
201226
201170
201132
201090
201213
200399
200437
200267
200148
200014
200001
199746
199700
199501
199379
199243
199173
199136
198989
198825
198688
198590
198506
198560
198316
198218
198035
198076
198109
198005
197619
197557
197304
197405
197564
197553
197027
196951
196614
196709
196907
196674
196082
195865
195583
195680
195930
206375
206918
207452
208069
208570
209157
205594
206239
206773
207476
208155
209040
205000
205632
206232
206971
207669
208525
204290
204891
205475
206176
206827
207570
203610
204127
204630
205195
205643
206174
202920
203294
203649
203975
204161
204432
202234
202455
202645
202701
202676
202728
201554
201647
201664
201513
201389
201215
200889
200897
200771
200559
200365
200065
200256
200175
199993
199730
199468
199109
199634
199485
199286
199003
198808
198535
199042
198734
198563
198228
198110
197979
198483
198027
197896
197576
197597
197621
197603
197039
196820
196463
196478
196569
207342
207830
208308
208793
209184
209583
206613
207181
207690
208291
208838
209498
205959
206535
207115
207765
208390
209113
205212
205793
206394
207076
207740
208478
204486
205040
205604
206239
206793
207391
203780
204245
204706
205198
205527
205930
203104
203434
203756
204038
204154
204331
202451
202628
202800
202847
202796
202807
201816
201867
201904
201734
201651
201478
201185
201160
201067
200833
200627
200254
200590
200460
200316
200018
199797
199437
199954
199725
199534
199191
198939
198634
199343
198973
198780
198474
198367
198243
198496
197987
197784
197444
197374
197368
208040
208459
208900
209346
209695
210025
207404
207893
208375
208919
209393
209896
206750
207253
207795
208388
208937
209528
206008
206521
207092
207741
208379
209070
205272
205770
206344
207008
207664
208335
204558
205013
205532
206130
206679
207207
203884
204248
204666
205136
205499
205837
203239
203487
203767
204049
204169
204344
202620
202753
202892
202973
202930
202957
202008
202020
202052
201912
201779
201585
201420
201341
201227
201001
200859
200552
200788
200595
200453
200178
199944
199542
200193
199903
199703
199405
199223
198951
199426
198965
198717
198377
198175
198063
208487
208825
209178
209570
209880
210189
207994
208406
208826
209297
209694
210136
207411
207847
208324
208862
209343
209854
206738
207187
207696
208290
208882
209480
206046
206478
207002
207634
208275
208919
205354
205760
206263
206876
207485
208132
204677
205025
205470
205994
206508
207059
204018
204288
204634
205006
205349
205701
203383
203567
203783
203980
204154
204355
202751
202826
202920
202959
202967
202947
202158
202154
202130
201975
201873
201739
201551
201407
201300
201086
200976
200686
200950
200745
200576
200325
200218
199950
200262
199896
199631
199336
199147
198962
208822
209057
209263
209485
209693
209954
208484
208803
209102
209404
209709
210089
207991
208361
208733
209150
209560
209982
207420
207822
208260
208761
209262
209747
206806
207198
207672
208236
208788
209293
206174
206547
207014
207594
208181
208781
205527
205861
206288
206815
207358
207927
204872
205152
205509
205921
206344
206768
204228
204440
204687
204946
205189
205484
203563
203690
203813
203912
204023
204130
202930
202978
203009
202938
202835
202680
202289
202204
202111
201898
201752
201564
201673
201503
201354
201100
200956
200747
200993
200671
200423
200103
199921
199708
195569
195750
195738
195196
195590
195537
194581
194431
194232
194057
194875
194967
194877
194495
194283
194026
194956
194739
195255
194766
194527
194167
194981
194277
195685
195190
194953
194522
195105
194002
196077
195651
195442
195000
195293
193947
196460
196119
195983
195634