/*--------------------------------*- C++ -*----------------------------------*\
| =========                 |                                                 |
| \\      /  F ield         | OpenFOAM: The Open Source CFD Toolbox           |
|  \\    /   O peration     | Version:  v2106                                 |
|   \\  /    A nd           | Website:  www.openfoam.com                      |
|    \\/     M anipulation  |                                                 |
\*---------------------------------------------------------------------------*/
FoamFile
{
    version     2.0;
    format      ascii;
    arch        "LSB;label=32;scalar=64";
    class       volScalarField;
    location    "0.000195";
    object      rho;
}
// * * * * * * * * * * * * * * * * * * * * * * * * * * * * * * * * * * * * * //

dimensions      [1 -3 0 0 0 0 0];

internalField   nonuniform List<scalar> 
144746
(
2.35935
2.35917
2.35467
2.35093
2.34793
2.34357
2.34037
2.3358
2.33134
2.328
2.32619
2.32748
2.32786
2.33494
2.35611
2.35658
2.35392
2.35089
2.34774
2.34391
2.34066
2.33635
2.33196
2.32849
2.32701
2.32867
2.32951
2.33716
2.35838
2.35732
2.35449
2.3511
2.34802
2.34454
2.34139
2.33735
2.33314
2.32953
2.32754
2.32783
2.32854
2.33423
2.35858
2.35673
2.35422
2.35119
2.34826
2.34523
2.34209
2.33852
2.33469
2.3314
2.32942
2.32922
2.33018
2.33445
2.36023
2.35736
2.35456
2.35165
2.34883
2.346
2.34311
2.33994
2.3364
2.33335
2.33136
2.33092
2.33201
2.33544
2.36173
2.35831
2.35534
2.35259
2.34996
2.3473
2.34461
2.34164
2.33834
2.3356
2.33395
2.33355
2.33443
2.33697
2.36385
2.36003
2.35679
2.35396
2.3515
2.34903
2.34645
2.34366
2.34062
2.33807
2.33642
2.33602
2.33672
2.33858
2.36658
2.36242
2.35887
2.35579
2.35318
2.35068
2.34839
2.34573
2.34281
2.34053
2.3391
2.33867
2.33872
2.3396
2.36896
2.36472
2.36107
2.35787
2.35515
2.35262
2.35023
2.34771
2.34494
2.34263
2.34088
2.33989
2.33966
2.34017
2.3718
2.36747
2.36366
2.36008
2.35707
2.35442
2.35194
2.34941
2.34682
2.34456
2.34288
2.34186
2.34139
2.3413
2.37427
2.37
2.36592
2.36211
2.3588
2.35605
2.35352
2.35093
2.34847
2.34626
2.34467
2.34366
2.34344
2.34284
2.37865
2.3738
2.3696
2.365
2.36122
2.35802
2.35548
2.35294
2.35056
2.34853
2.34745
2.34706
2.34775
2.34667
2.38268
2.3768
2.37316
2.36848
2.36428
2.36087
2.35832
2.35581
2.35337
2.35138
2.35033
2.34981
2.35051
2.34809
2.38391
2.37734
2.37627
2.37227
2.36868
2.36501
2.36277
2.36046
2.35804
2.35639
2.35571
2.35648
2.35962
2.35744
2.36511
2.36616
2.36385
2.36216
2.35971
2.35857
2.35672
2.35424
2.3514
2.34948
2.3479
2.34857
2.34675
2.35096
2.36543
2.36514
2.36327
2.3617
2.35945
2.35788
2.35609
2.35374
2.35114
2.34951
2.34863
2.3496
2.3494
2.35331
2.3662
2.36475
2.36243
2.36067
2.35859
2.35721
2.35555
2.35344
2.35111
2.34943
2.34846
2.34885
2.34912
2.35203
2.36477
2.36269
2.36084
2.35922
2.35771
2.35644
2.35511
2.35338
2.35138
2.35001
2.34932
2.34966
2.35036
2.35282
2.36422
2.36171
2.35958
2.35806
2.35703
2.35607
2.35504
2.35361
2.35199
2.35091
2.35036
2.35076
2.35188
2.35435
2.36323
2.36078
2.35912
2.35805
2.35719
2.3564
2.35549
2.35424
2.35292
2.35213
2.35197
2.3524
2.35369
2.35615
2.36339
2.36133
2.3597
2.35881
2.35799
2.35718
2.35629
2.35516
2.35404
2.35339
2.3533
2.35419
2.35574
2.3578
2.36406
2.36218
2.36056
2.3597
2.35895
2.35816
2.35723
2.35617
2.35523
2.35467
2.35464
2.35533
2.35662
2.35872
2.36516
2.36346
2.36192
2.36092
2.36006
2.35922
2.35823
2.35708
2.35617
2.35563
2.3556
2.35626
2.35744
2.35921
2.36713
2.3649
2.36329
2.36205
2.36116
2.36021
2.35909
2.35784
2.35685
2.35633
2.35622
2.35686
2.35799
2.35938
2.36939
2.36703
2.36491
2.36344
2.3623
2.36122
2.3599
2.3586
2.35752
2.35703
2.35712
2.3579
2.35894
2.35969
2.37319
2.36978
2.36732
2.36517
2.36361
2.36227
2.36084
2.35946
2.35845
2.35806
2.35837
2.35947
2.36089
2.36122
2.37663
2.37258
2.37021
2.36764
2.36582
2.36424
2.36258
2.36122
2.36004
2.35957
2.35984
2.36064
2.3616
2.36045
2.37872
2.37499
2.3736
2.371
2.36875
2.36707
2.3653
2.36404
2.36282
2.36223
2.36256
2.36385
2.36535
2.36587
2.3605
2.36231
2.36139
2.35919
2.35864
2.35736
2.35582
2.35391
2.35171
2.34966
2.34797
2.34729
2.34586
2.34604
2.36346
2.36275
2.36194
2.36015
2.35935
2.35773
2.35611
2.35427
2.35232
2.35099
2.35027
2.35043
2.34961
2.35105
2.36386
2.36312
2.36178
2.36033
2.35947
2.35797
2.35643
2.35476
2.35323
2.35215
2.35133
2.35118
2.35069
2.3519
2.36461
2.36358
2.36216
2.3613
2.36031
2.35903
2.35754
2.35585
2.35425
2.35302
2.35227
2.35222
2.35226
2.35321
2.36568
2.36434
2.36357
2.36271
2.36193
2.36072
2.35924
2.35746
2.35571
2.35427
2.35334
2.35335
2.3538
2.35504
2.36709
2.36611
2.36572
2.36502
2.36428
2.36306
2.36148
2.35956
2.35761
2.356
2.3549
2.35481
2.35541
2.35726
2.36906
2.36852
2.36829
2.36765
2.36697
2.3657
2.36402
2.36197
2.35988
2.35816
2.35693
2.35685
2.35755
2.35942
2.37171
2.37139
2.37107
2.37044
2.36971
2.36835
2.36651
2.36431
2.36211
2.36029
2.35899
2.35889
2.35982
2.36201
2.37459
2.3742
2.37371
2.37295
2.37215
2.37074
2.3688
2.36647
2.36415
2.36224
2.36098
2.36092
2.36212
2.36437
2.37761
2.3771
2.37631
2.37531
2.37429
2.37277
2.37075
2.36834
2.36599
2.36415
2.36307
2.36305
2.36422
2.36648
2.38056
2.37974
2.37874
2.37745
2.37612
2.37452
2.37247
2.3701
2.3678
2.366
2.36528
2.36529
2.36636
2.36811
2.38381
2.38211
2.38103
2.37953
2.37788
2.37608
2.37395
2.37164
2.36945
2.36782
2.36753
2.36793
2.36924
2.37014
2.38709
2.38488
2.38333
2.38166
2.3799
2.37792
2.3757
2.37345
2.37138
2.3701
2.36978
2.37018
2.37135
2.37054
2.38845
2.38701
2.38563
2.38385
2.38193
2.37996
2.37762
2.37551
2.3736
2.37295
2.37307
2.37443
2.37542
2.37464
2.35106
2.36417
2.36967
2.38172
2.38753
2.40623
2.33411
2.34771
2.35853
2.3761
2.38494
2.40704
2.33649
2.34986
2.36018
2.37808
2.38689
2.41004
2.33793
2.34902
2.35887
2.37598
2.3849
2.4093
2.34006
2.35016
2.35997
2.37673
2.38583
2.40992
2.34094
2.34944
2.35874
2.37399
2.3843
2.40439
2.34153
2.34925
2.35727
2.37125
2.38072
2.40053
2.34204
2.34836
2.35542
2.36759
2.37517
2.39541
2.34221
2.34766
2.35436
2.36654
2.37278
2.39321
2.3428
2.34777
2.35536
2.36793
2.37305
2.39344
2.34504
2.35099
2.35863
2.37122
2.37637
2.3944
2.34866
2.35385
2.3618
2.37539
2.3817
2.39911
2.35369
2.36079
2.36923
2.38298
2.39068
2.40741
2.35142
2.35961
2.37266
2.39099
2.40093
2.41459
2.36256
2.3726
2.37459
2.38187
2.38229
2.39486
2.34889
2.35785
2.36497
2.37753
2.38051
2.40101
2.35267
2.36096
2.36852
2.38274
2.38645
2.40611
2.35493
2.36197
2.36951
2.38355
2.3883
2.4093
2.35784
2.36483
2.37213
2.3864
2.39125
2.41149
2.35934
2.36559
2.37202
2.38498
2.38943
2.40828
2.36056
2.36673
2.37203
2.383
2.38644
2.40461
2.36136
2.36671
2.37052
2.37901
2.38027
2.39791
2.36146
2.36584
2.36854
2.37563
2.37488
2.39397
2.36124
2.36408
2.36603
2.37294
2.37135
2.39098
2.36126
2.36309
2.3653
2.3721
2.37139
2.38866
2.36214
2.363
2.36486
2.37181
2.37363
2.38963
2.3629
2.3648
2.3673
2.37502
2.37938
2.39592
2.35454
2.35739
2.36278
2.37827
2.38652
2.39809
2.35622
2.36292
2.36309
2.3623
2.36538
2.36465
2.34583
2.34826
2.35079
2.35912
2.36329
2.37726
2.34986
2.35176
2.35549
2.36706
2.37398
2.39172
2.3534
2.35504
2.35946
2.37084
2.37783
2.39456
2.3568
2.35926
2.36465
2.37705
2.38469
2.40807
2.35972
2.36305
2.36852
2.38084
2.38873
2.41133
2.36199
2.3665
2.37228
2.38452
2.39219
2.4147
2.36491
2.36952
2.37454
2.3847
2.39117
2.41302
2.36744
2.37173
2.37563
2.38346
2.38743
2.4115
2.36939
2.37279
2.3754
2.38085
2.38349
2.40708
2.37084
2.37289
2.37494
2.37952
2.38183
2.40295
2.37316
2.3734
2.37458
2.37807
2.38076
2.39712
2.37475
2.374
2.37538
2.37974
2.38398
2.3982
2.36534
2.3659
2.36778
2.37495
2.38399
2.39819
2.37054
2.38388
2.38936
2.40153
2.40802
2.42091
2.35458
2.36923
2.37936
2.39742
2.40451
2.42644
2.35822
2.37215
2.38244
2.40147
2.40725
2.43335
2.36007
2.37189
2.38225
2.4006
2.40779
2.43222
2.3627
2.37406
2.38548
2.40377
2.41074
2.43483
2.36475
2.37565
2.38696
2.40453
2.41187
2.43287
2.36735
2.37765
2.38831
2.40525
2.41248
2.43288
2.36935
2.37866
2.38829
2.40356
2.41059
2.42827
2.3714
2.38006
2.38793
2.40069
2.40622
2.42614
2.37391
2.38063
2.38619
2.39699
2.40265
2.42183
2.37672
2.382
2.38637
2.39481
2.4002
2.41714
2.37909
2.38193
2.38512
2.39218
2.39691
2.41807
2.3818
2.38521
2.38831
2.39532
2.39994
2.41127
2.37776
2.3809
2.38655
2.39744
2.40362
2.40931
2.37424
2.38291
2.38488
2.3931
2.39542
2.40457
2.36124
2.37013
2.37487
2.38755
2.39018
2.40902
2.36395
2.37178
2.37783
2.39299
2.39492
2.41881
2.36498
2.37185
2.37883
2.39293
2.39738
2.41848
2.36612
2.37325
2.38189
2.39728
2.40274
2.42158
2.36725
2.37513
2.38477
2.40031
2.40634
2.42001
2.369
2.37711
2.38652
2.40184
2.40662
2.42151
2.36996
2.3784
2.38767
2.40167
2.4058
2.41827
2.37211
2.37993
2.38784
2.39911
2.40143
2.41582
2.37359
2.38035
2.38679
2.3951
2.39632
2.41116
2.37559
2.38104
2.38577
2.39197
2.3942
2.40556
2.37731
2.38137
2.38437
2.38882
2.3915
2.39807
2.37917
2.38182
2.38397
2.38722
2.38983
2.39817
2.37467
2.37599
2.37798
2.38263
2.38651
2.39375
2.38275
2.38916
2.39147
2.39571
2.39628
2.40373
2.37319
2.37874
2.3817
2.39043
2.394
2.40523
2.37444
2.37959
2.38357
2.39511
2.40001
2.41587
2.37479
2.37983
2.38512
2.39815
2.40579
2.42398
2.37592
2.38125
2.38885
2.40445
2.41451
2.4328
2.37695
2.38363
2.39272
2.40895
2.41978
2.43491
2.37909
2.38564
2.396
2.41272
2.42322
2.43963
2.38169
2.38891
2.39898
2.41495
2.42358
2.43696
2.38425
2.39186
2.40104
2.41504
2.42185
2.43281
2.38635
2.39364
2.40118
2.41197
2.41757
2.42626
2.38828
2.39434
2.40045
2.40688
2.4108
2.41646
2.39015
2.39431
2.39869
2.40134
2.40243
2.40334
2.39211
2.3934
2.39573
2.39587
2.39562
2.39376
2.38694
2.38677
2.38736
2.38619
2.38627
2.38229
2.38707
2.38131
2.37801
2.36787
2.35993
2.35535
2.38967
2.38059
2.37728
2.37069
2.3658
2.36239
2.3943
2.38481
2.37889
2.36965
2.36375
2.36099
2.41015
2.38863
2.38307
2.3731
2.36626
2.36238
2.41692
2.3963
2.38788
2.37628
2.36935
2.36442
2.42188
2.40465
2.39679
2.3827
2.3739
2.36689
2.42379
2.41118
2.40187
2.38715
2.37732
2.36929
2.42767
2.41391
2.40565
2.39067
2.38086
2.37216
2.42699
2.41298
2.40572
2.3911
2.38235
2.37428
2.42735
2.41203
2.40502
2.39164
2.38449
2.37698
2.42465
2.40668
2.4026
2.39126
2.38554
2.37841
2.42543
2.40237
2.40268
2.39302
2.38833
2.38078
2.41789
2.40228
2.40071
2.3921
2.3881
2.37997
2.41539
2.4074
2.4064
2.40068
2.39918
2.39062
2.37228
2.3668
2.36386
2.35894
2.35735
2.36019
2.37808
2.37182
2.37131
2.36878
2.36749
2.36878
2.38131
2.37554
2.37463
2.37196
2.36952
2.36866
2.39439
2.38472
2.38179
2.37644
2.37185
2.36883
2.40307
2.39101
2.38685
2.37948
2.37288
2.36842
2.40841
2.39935
2.39231
2.38187
2.37341
2.36768
2.41111
2.40251
2.39332
2.38207
2.37325
2.36721
2.41345
2.40354
2.39355
2.38162
2.37318
2.36757
2.41195
2.40214
2.39274
2.3809
2.37324
2.36815
2.41047
2.40009
2.39133
2.38078
2.37482
2.37026
2.40478
2.39508
2.38915
2.3804
2.37583
2.37163
2.40274
2.3923
2.38874
2.38159
2.37882
2.37474
2.39684
2.38867
2.38689
2.38172
2.38015
2.37537
2.39631
2.39182
2.39219
2.38956
2.38903
2.3835
2.30592
2.3267
2.32805
2.3365
2.34315
2.35357
2.31594
2.3377
2.3445
2.35483
2.35934
2.36605
2.32447
2.34578
2.35349
2.36285
2.36356
2.36653
2.34359
2.35927
2.36433
2.36938
2.36702
2.36778
2.361
2.37178
2.37254
2.37345
2.36907
2.36808
2.37449
2.38241
2.37895
2.3766
2.37076
2.36884
2.38305
2.38885
2.38243
2.37813
2.37227
2.37021
2.38713
2.39248
2.38356
2.37907
2.37418
2.37257
2.38669
2.39269
2.38314
2.37968
2.37652
2.3754
2.38492
2.3911
2.38235
2.38058
2.37912
2.37823
2.38128
2.38774
2.38155
2.38174
2.38166
2.38107
2.37918
2.38695
2.38311
2.38436
2.38496
2.38433
2.37936
2.38661
2.38486
2.38696
2.38799
2.38666
2.38354
2.38987
2.39254
2.39517
2.3955
2.39319
2.39658
2.38427
2.37447
2.35709
2.34298
2.33413
2.38903
2.3743
2.36591
2.35265
2.34292
2.33599
2.38295
2.36692
2.35932
2.34662
2.33716
2.33108
2.38007
2.36226
2.356
2.34461
2.33531
2.32923
2.38124
2.36129
2.35421
2.34259
2.33473
2.33037
2.38377
2.36459
2.35648
2.34519
2.3378
2.33309
2.38834
2.36938
2.35941
2.34812
2.34146
2.33704
2.39306
2.37333
2.36513
2.35274
2.34613
2.34133
2.39508
2.37488
2.36845
2.35546
2.34974
2.34421
2.39698
2.37784
2.37069
2.35689
2.35215
2.34811
2.39441
2.37542
2.37058
2.35824
2.35476
2.35054
2.39608
2.37813
2.37479
2.36267
2.35913
2.35323
2.39452
2.37323
2.37429
2.36506
2.36107
2.35354
2.39155
2.38241
2.38325
2.37852
2.37694
2.36875
2.38512
2.37531
2.36942
2.35421
2.34683
2.34426
2.38041
2.36729
2.36526
2.35712
2.35258
2.35137
2.37741
2.36042
2.35879
2.35237
2.34938
2.3495
2.37681
2.3592
2.35942
2.35301
2.34978
2.34926
2.37916
2.36125
2.36074
2.35466
2.35197
2.35084
2.38344
2.36781
2.36542
2.35905
2.35533
2.35287
2.386
2.37498
2.37077
2.36303
2.35854
2.35568
2.39244
2.3815
2.37571
2.36583
2.36112
2.3579
2.3949
2.38233
2.37615
2.36601
2.36244
2.35955
2.39487
2.38135
2.3755
2.36507
2.36184
2.35991
2.39005
2.37649
2.37248
2.364
2.36262
2.36168
2.38639
2.37365
2.37122
2.36399
2.36263
2.3618
2.38166
2.36803
2.36811
2.36251
2.36185
2.36079
2.37698
2.3718
2.37352
2.37328
2.37446
2.3707
2.3474
2.34631
2.33519
2.32889
2.32631
2.33379
2.34297
2.34534
2.33856
2.3397
2.34105
2.34725
2.33665
2.34014
2.33565
2.3378
2.3403
2.34671
2.34229
2.34114
2.3393
2.34055
2.34264
2.34753
2.34425
2.34563
2.34335
2.34524
2.34615
2.3494
2.34791
2.35369
2.35003
2.35105
2.35012
2.35168
2.35234
2.35991
2.35446
2.35525
2.35327
2.35399
2.35779
2.36268
2.35655
2.35713
2.35531
2.35585
2.3565
2.36157
2.3555
2.35629
2.35565
2.35694
2.35352
2.359
2.35307
2.35438
2.35514
2.35744
2.3451
2.35268
2.34864
2.35148
2.35411
2.3574
2.33671
2.34634
2.34479
2.34988
2.35408
2.35795
2.3219
2.33778
2.33969
2.34794
2.35358
2.35739
2.31309
2.33361
2.34332
2.35596
2.36135
2.36402
2.38406
2.38184
2.37713
2.37338
2.37058
2.36716
2.36429
2.36122
2.35855
2.35612
2.35411
2.3527
2.35198
2.35229
2.38327
2.37931
2.37523
2.37234
2.36959
2.36659
2.36377
2.36075
2.35797
2.35551
2.3536
2.35289
2.35294
2.35441
2.38142
2.37747
2.37402
2.37153
2.36918
2.36658
2.3639
2.3611
2.35838
2.35588
2.35398
2.35327
2.35302
2.35431
2.38015
2.37693
2.37421
2.37196
2.36986
2.36748
2.36488
2.3621
2.35933
2.35671
2.35475
2.35372
2.35368
2.3546
2.38026
2.37757
2.37537
2.37345
2.37152
2.36925
2.36667
2.36385
2.36101
2.35826
2.35622
2.35499
2.35466
2.35517
2.38142
2.37915
2.37738
2.37567
2.37387
2.37165
2.36906
2.3661
2.36312
2.36019
2.35799
2.35665
2.35628
2.3565
2.3832
2.38125
2.3798
2.37825
2.37652
2.37428
2.3716
2.36851
2.36541
2.36237
2.36005
2.35861
2.35819
2.35842
2.38556
2.38376
2.38239
2.38087
2.3791
2.37679
2.37398
2.37076
2.36755
2.36444
2.36201
2.36048
2.36005
2.3604
2.38793
2.38617
2.38474
2.38317
2.38132
2.3789
2.37598
2.37265
2.36935
2.36623
2.3638
2.36226
2.362
2.36261
2.39092
2.38883
2.38701
2.38517
2.3831
2.38054
2.37752
2.37415
2.37082
2.36774
2.3654
2.36391
2.36383
2.36465
2.39378
2.39125
2.38899
2.38682
2.38448
2.38179
2.3787
2.37534
2.37205
2.36907
2.36685
2.36545
2.36552
2.36644
2.3971
2.39364
2.39089
2.38838
2.38577
2.38294
2.37978
2.37643
2.37314
2.37022
2.36806
2.36712
2.36735
2.36871
2.40044
2.39662
2.39328
2.39026
2.38725
2.38416
2.38081
2.3774
2.37414
2.37127
2.36918
2.36842
2.36919
2.36988
2.40355
2.3997
2.39587
2.39249
2.3891
2.38585
2.38255
2.37925
2.37618
2.37373
2.3724
2.37214
2.37285
2.37225
2.39263
2.3882
2.38397
2.37934
2.37592
2.3721
2.36839
2.36466
2.36115
2.35808
2.35558
2.35407
2.35298
2.35296
2.39108
2.38609
2.38207
2.37841
2.3753
2.37187
2.36824
2.36449
2.36077
2.35742
2.35459
2.35278
2.35181
2.35276
2.38976
2.38513
2.38159
2.37832
2.37534
2.37214
2.36875
2.36526
2.36171
2.35826
2.35515
2.35274
2.35148
2.35272
2.38961
2.38534
2.38225
2.37932
2.37649
2.37344
2.37011
2.36665
2.36312
2.35959
2.35639
2.3537
2.35208
2.35249
2.39021
2.38639
2.38373
2.38109
2.37835
2.37533
2.37202
2.36854
2.36498
2.3614
2.35811
2.35534
2.3536
2.3533
2.39162
2.38827
2.38593
2.38353
2.38089
2.37786
2.3745
2.37092
2.36722
2.36351
2.36008
2.35722
2.35533
2.35466
2.39342
2.39056
2.38845
2.38621
2.38363
2.38056
2.37712
2.37338
2.36951
2.36569
2.36216
2.35927
2.3574
2.35657
2.39558
2.39302
2.39098
2.38879
2.38621
2.38308
2.37952
2.37564
2.37163
2.36773
2.36417
2.36131
2.35946
2.35867
2.39783
2.39536
2.39327
2.39101
2.38836
2.38513
2.38146
2.37747
2.37338
2.36949
2.36599
2.36324
2.3615
2.36088
2.40039
2.39766
2.39529
2.39282
2.38999
2.38664
2.38288
2.37886
2.37479
2.37095
2.36755
2.36491
2.36334
2.36287
2.40295
2.3998
2.39701
2.39422
2.39116
2.38768
2.38387
2.37985
2.37584
2.3721
2.36886
2.36634
2.36496
2.36442
2.40588
2.40197
2.39857
2.39548
2.39216
2.38857
2.38473
2.38076
2.37683
2.37318
2.37004
2.36759
2.36647
2.36606
2.40869
2.40446
2.40057
2.39711
2.39342
2.38958
2.3856
2.38158
2.37769
2.37417
2.37118
2.36906
2.36804
2.36756
2.41209
2.40734
2.40268
2.39871
2.39473
2.39084
2.38697
2.38308
2.37929
2.37593
2.37323
2.37165
2.37059
2.36962
2.40762
2.40238
2.39772
2.39283
2.38855
2.38419
2.3796
2.37492
2.37041
2.36621
2.36263
2.35967
2.35754
2.35634
2.40622
2.40023
2.39576
2.39148
2.38744
2.38327
2.37884
2.37426
2.36968
2.36522
2.36122
2.35795
2.35589
2.35538
2.40459
2.3991
2.39491
2.39092
2.38701
2.383
2.37878
2.37445
2.37007
2.36563
2.3614
2.35772
2.35518
2.35496
2.40422
2.3993
2.39534
2.39154
2.38769
2.3837
2.37954
2.37527
2.37091
2.36643
2.36207
2.35822
2.35543
2.35441
2.40464
2.40029
2.39666
2.39305
2.38928
2.38527
2.38108
2.37672
2.37228
2.36772
2.36328
2.35938
2.35636
2.35477
2.40567
2.40183
2.39852
2.39509
2.39136
2.38731
2.38303
2.37856
2.37395
2.36929
2.3648
2.36082
2.35761
2.3557
2.40707
2.40365
2.40057
2.39726
2.39356
2.38946
2.38509
2.38049
2.37575
2.371
2.36648
2.36248
2.35921
2.3571
2.40859
2.4054
2.40241
2.39916
2.39548
2.39135
2.3869
2.38222
2.37742
2.37266
2.3682
2.36427
2.36108
2.35887
2.41014
2.407
2.40398
2.4007
2.39698
2.39278
2.38827
2.38357
2.3788
2.37414
2.36983
2.3661
2.36309
2.36096
2.41167
2.40829
2.40505
2.40165
2.39786
2.39364
2.38916
2.38454
2.37989
2.3754
2.37129
2.36777
2.36499
2.36301
2.41328
2.40953
2.40593
2.40228
2.39831
2.39404
2.38959
2.38506
2.38057
2.37625
2.37239
2.3691
2.36655
2.36468
2.41492
2.41051
2.4065
2.40261
2.39851
2.39422
2.38984
2.38544
2.38115
2.37704
2.37334
2.37012
2.36758
2.36585
2.41701
2.41225
2.40789
2.40362
2.39918
2.39464
2.3901
2.38562
2.3814
2.37742
2.37386
2.37072
2.36836
2.3665
2.41895
2.41357
2.40868
2.40417
2.39968
2.3952
2.39073
2.38633
2.38216
2.37822
2.37475
2.37179
2.36938
2.36745
2.41864
2.4134
2.40833
2.40347
2.39877
2.39408
2.38936
2.38461
2.37976
2.37491
2.37017
2.36585
2.36209
2.35936
2.41777
2.41204
2.40685
2.40202
2.3974
2.39281
2.3882
2.38354
2.37877
2.37389
2.36894
2.3644
2.36061
2.35858
2.41628
2.41095
2.406
2.40136
2.39677
2.3922
2.38766
2.38312
2.37853
2.3738
2.36893
2.36431
2.3604
2.35819
2.41617
2.41118
2.40647
2.40187
2.39724
2.39259
2.38798
2.38341
2.37879
2.37401
2.36912
2.36451
2.36056
2.35801
2.41644
2.41191
2.40752
2.40306
2.39845
2.39373
2.389
2.38427
2.37954
2.37466
2.36973
2.36509
2.36104
2.35806
2.41713
2.41299
2.40886
2.40451
2.39995
2.39524
2.39045
2.38557
2.38067
2.37566
2.37067
2.36595
2.36175
2.35843
2.41802
2.41413
2.41021
2.40595
2.40144
2.39672
2.39189
2.38692
2.38193
2.37683
2.3718
2.36704
2.36276
2.35928
2.41895
2.41513
2.41131
2.40711
2.40263
2.39792
2.39307
2.38809
2.38306
2.37798
2.37297
2.36826
2.364
2.36042
2.41982
2.41595
2.41208
2.40788
2.40341
2.39871
2.39387
2.38892
2.38392
2.37893
2.37407
2.36954
2.36544
2.36186
2.42051
2.41643
2.41241
2.40814
2.40367
2.39901
2.39423
2.38939
2.38453
2.37973
2.37509
2.37078
2.36691
2.36348
2.42115
2.41681
2.41258
2.40818
2.40361
2.39894
2.39419
2.38944
2.38477
2.38019
2.37578
2.37178
2.36817
2.36501
2.42172
2.4169
2.41239
2.40788
2.40331
2.3987
2.39404
2.38942
2.38493
2.38053
2.37633
2.37255
2.36902
2.36601
2.42294
2.41769
2.4129
2.40813
2.40335
2.39857
2.39383
2.38919
2.38477
2.38048
2.37658
2.37288
2.36955
2.3664
2.42364
2.41768
2.41258
2.40784
2.40314
2.3985
2.39395
2.38943
2.38507
2.38079
2.37693
2.3733
2.37004
2.36687
2.42976
2.42347
2.41759
2.41221
2.40717
2.40242
2.39775
2.39313
2.38848
2.38369
2.37879
2.37345
2.36831
2.36411
2.42854
2.42271
2.41689
2.41141
2.40614
2.40119
2.39651
2.39198
2.38745
2.38268
2.37767
2.3722
2.36723
2.36358
2.42725
2.42174
2.41615
2.41085
2.40566
2.40075
2.39609
2.39155
2.38706
2.38237
2.37734
2.37205
2.36709
2.36317
2.42695
2.4219
2.41666
2.41147
2.40626
2.40124
2.39645
2.39177
2.38716
2.38231
2.3772
2.37196
2.36701
2.36298
2.42693
2.42226
2.41729
2.41227
2.40716
2.40215
2.39727
2.39244
2.38764
2.38264
2.37742
2.37213
2.36712
2.36289
2.42729
2.42284
2.41806
2.41312
2.4081
2.40312
2.39823
2.39332
2.38836
2.38321
2.37786
2.37252
2.36736
2.36301
2.42763
2.42322
2.41866
2.41378
2.40883
2.40388
2.399
2.39408
2.38905
2.38382
2.37836
2.37295
2.36773
2.36327
2.42793
2.42349
2.41893
2.41409
2.4092
2.40431
2.39946
2.39455
2.38948
2.38427
2.37878
2.37337
2.36819
2.36363
2.42799
2.42348
2.41891
2.41409
2.40922
2.40436
2.39952
2.39465
2.38959
2.38445
2.37908
2.37382
2.36882
2.36432
2.42771
2.42305
2.41846
2.41369
2.4089
2.40411
2.39933
2.3945
2.38951
2.38446
2.37931
2.3743
2.36956
2.36525
2.42735
2.42254
2.41784
2.41308
2.40834
2.40359
2.39884
2.39406
2.38917
2.38426
2.37937
2.3747
2.37028
2.3662
2.42684
2.42178
2.41702
2.41225
2.40756
2.40286
2.3982
2.39352
2.38879
2.38404
2.37936
2.37497
2.37077
2.36677
2.42691
2.4216
2.41674
2.41184
2.40703
2.40222
2.39746
2.39276
2.38814
2.38352
2.37921
2.37504
2.37109
2.36707
2.42662
2.42078
2.41575
2.41102
2.40637
2.40173
2.39713
2.39245
2.38787
2.38334
2.37928
2.3752
2.37123
2.36734
2.43846
2.4321
2.42579
2.41988
2.41439
2.40934
2.40471
2.4002
2.39577
2.39121
2.38628
2.38113
2.37521
2.36982
2.43731
2.43188
2.42586
2.41991
2.41405
2.40865
2.40373
2.39917
2.39475
2.39019
2.38522
2.38001
2.37407
2.36905
2.43602
2.43077
2.42508
2.41937
2.41376
2.40853
2.40368
2.39905
2.39456
2.38996
2.38495
2.3796
2.37382
2.36873
2.43551
2.43061
2.42526
2.41973
2.41426
2.40906
2.40417
2.39945
2.39483
2.39005
2.38486
2.37931
2.37353
2.36825
2.43532
2.43054
2.42541
2.42011
2.4148
2.40971
2.40486
2.4001
2.39535
2.3904
2.38503
2.37932
2.37344
2.36814
2.43527
2.43063
2.42551
2.42022
2.41507
2.41012
2.40538
2.40068
2.39589
2.3908
2.38525
2.37938
2.37344
2.36809
2.43522
2.43031
2.42525
2.4201
2.41506
2.41021
2.40557
2.40095
2.39615
2.39102
2.38534
2.3794
2.37341
2.368
2.43462
2.42966
2.42467
2.41963
2.41476
2.41004
2.40546
2.40086
2.39603
2.39088
2.38517
2.37923
2.3733
2.36791
2.43361
2.42861
2.42377
2.41888
2.41416
2.40956
2.40503
2.40042
2.39554
2.39037
2.38469
2.37888
2.37313
2.36787
2.43219
2.42724
2.42256
2.41785
2.41331
2.40882
2.40433
2.39969
2.39475
2.38953
2.38396
2.37838
2.37292
2.36787
2.43083
2.42595
2.42134
2.41673
2.41226
2.4078
2.40327
2.39856
2.39359
2.38842
2.38309
2.37781
2.37264
2.36784
2.42944
2.42457
2.42008
2.41555
2.41115
2.40669
2.40214
2.39739
2.39243
2.38734
2.38225
2.37726
2.37237
2.36766
2.42878
2.42392
2.41938
2.41478
2.41024
2.4056
2.40091
2.3961
2.3912
2.38621
2.3814
2.3767
2.37211
2.3675
2.42791
2.42266
2.41812
2.41371
2.40937
2.40476
2.40006
2.39522
2.39035
2.38544
2.38092
2.37638
2.37192
2.36728
2.44493
2.43913
2.43296
2.42692
2.42115
2.41581
2.411
2.40648
2.40213
2.39772
2.39301
2.38789
2.38255
2.37658
2.44369
2.43864
2.43297
2.42705
2.42117
2.41556
2.41036
2.40559
2.40112
2.39668
2.39198
2.38683
2.38141
2.3754
2.44274
2.43788
2.43241
2.4267
2.42104
2.41561
2.41049
2.40568
2.40107
2.39648
2.39166
2.38639
2.38076
2.375
2.44223
2.43751
2.4323
2.4268
2.42133
2.41605
2.41098
2.40612
2.40142
2.39668
2.39163
2.38612
2.38018
2.3743
2.44185
2.43714
2.43206
2.4268
2.42146
2.41633
2.4114
2.40664
2.40194
2.39707
2.3918
2.38605
2.37991
2.37396
2.4414
2.43669
2.43158
2.42623
2.42111
2.41618
2.41149
2.40691
2.40229
2.39737
2.39194
2.38599
2.3797
2.37365
2.44063
2.43556
2.43045
2.42539
2.42044
2.41573
2.41125
2.40683
2.40228
2.39737
2.39183
2.38577
2.3794
2.37335
2.43905
2.43399
2.42906
2.42416
2.41947
2.41497
2.41067
2.40636
2.40182
2.39687
2.39126
2.38517
2.37888
2.37294
2.43696
2.432
2.42734
2.42271
2.41829
2.41399
2.40977
2.40545
2.40084
2.3958
2.39019
2.38423
2.37811
2.3723
2.43458
2.4298
2.42544
2.42112
2.41699
2.41287
2.40867
2.40426
2.39948
2.39431
2.38871
2.38294
2.3771
2.37153
2.43258
2.42798
2.42378
2.41964
2.41565
2.41155
2.40724
2.40263
2.39766
2.39243
2.38695
2.38144
2.37591
2.37065
2.43087
2.42642
2.42234
2.41824
2.41427
2.41008
2.40566
2.4009
2.39581
2.39056
2.38523
2.37997
2.37469
2.36961
2.43014
2.42569
2.42149
2.41718
2.41299
2.40852
2.40386
2.39893
2.39384
2.38868
2.38361
2.37862
2.37367
2.36861
2.42888
2.42427
2.42027
2.41608
2.41184
2.40716
2.40235
2.39734
2.39228
2.3872
2.38238
2.37759
2.37293
2.36763
2.44967
2.44495
2.43952
2.43383
2.42817
2.42266
2.41754
2.41274
2.40815
2.40357
2.39888
2.3939
2.38898
2.38294
2.44868
2.44425
2.4392
2.43368
2.42807
2.42248
2.41708
2.41189
2.40703
2.40241
2.39777
2.39277
2.38762
2.3818
2.44802
2.44371
2.43877
2.43342
2.42798
2.42251
2.41713
2.41196
2.40697
2.40217
2.39735
2.39224
2.38685
2.38105
2.44743
2.44312
2.43833
2.4332
2.428
2.42271
2.41741
2.41225
2.40721
2.4023
2.39728
2.39192
2.38614
2.38009
2.44667
2.44231
2.43765
2.43275
2.42771
2.42262
2.41752
2.41251
2.40754
2.40257
2.39737
2.39176
2.38569
2.37956
2.4456
2.44118
2.43648
2.43163
2.42679
2.42198
2.41722
2.41249
2.40772
2.40277
2.39745
2.39162
2.38535
2.37911
2.44388
2.43927
2.43468
2.43007
2.42549
2.42099
2.41658
2.41217
2.40759
2.40269
2.39729
2.39133
2.38498
2.37866
2.44146
2.43692
2.43254
2.42816
2.4239
2.4197
2.41557
2.41139
2.40694
2.40208
2.39666
2.39067
2.38437
2.37811
2.43869
2.4343
2.43023
2.42616
2.42221
2.41827
2.41431
2.41019
2.40573
2.40085
2.39543
2.38955
2.3834
2.37737
2.43587
2.4317
2.42792
2.42416
2.4205
2.41673
2.41281
2.40862
2.40404
2.39906
2.39367
2.38796
2.38207
2.37622
2.43363
2.42959
2.42594
2.4223
2.41874
2.41495
2.41089
2.4065
2.40172
2.39667
2.39136
2.3859
2.38024
2.3747
2.43184
2.42786
2.42419
2.42048
2.41683
2.41287
2.40863
2.40404
2.39911
2.39403
2.38882
2.38359
2.37822
2.37289
2.43089
2.42671
2.4228
2.41878
2.41482
2.41054
2.40603
2.40124
2.39626
2.39123
2.38623
2.38125
2.37609
2.37088
2.42913
2.42492
2.42119
2.41705
2.41287
2.40834
2.40364
2.39875
2.39377
2.3888
2.38397
2.37908
2.37437
2.36893
2.45348
2.44989
2.44532
2.44026
2.43502
2.42972
2.42456
2.41953
2.41467
2.40984
2.40494
2.39979
2.39482
2.3886
2.45279
2.44896
2.44462
2.43968
2.43453
2.42918
2.4238
2.41839
2.4131
2.40813
2.40329
2.39819
2.39315
2.38722
2.45212
2.4483
2.44397
2.43916
2.43414
2.42885
2.42343
2.41796
2.4126
2.40743
2.40239
2.39725
2.39198
2.38606
2.45117
2.44729
2.44305
2.43844
2.43364
2.42852
2.42318
2.41773
2.41227
2.40703
2.40183
2.39647
2.39082
2.38479
2.44984
2.44594
2.44182
2.43741
2.4328
2.42789
2.42275
2.4175
2.41212
2.40684
2.4015
2.3959
2.38994
2.3839
2.44812
2.44418
2.44006
2.43575
2.43133
2.42671
2.42191
2.41699
2.41185
2.40665
2.40121
2.3954
2.38926
2.38313
2.44572
2.44175
2.43777
2.43369
2.4295
2.4252
2.4208
2.41623
2.41136
2.40627
2.40079
2.39487
2.38865
2.38248
2.44296
2.43906
2.43523
2.43132
2.4274
2.42341
2.41932
2.41502
2.4104
2.40544
2.4
2.3941
2.38794
2.38185
2.44007
2.43628
2.43264
2.42895
2.42526
2.42151
2.41762
2.41348
2.40897
2.40409
2.39873
2.39295
2.38698
2.38113
2.43729
2.4336
2.43011
2.42662
2.4231
2.41947
2.41564
2.41154
2.40708
2.40225
2.39702
2.39145
2.38575
2.38008
2.43497
2.43123
2.42779
2.42432
2.42083
2.41717
2.41326
2.40907
2.40457
2.39979
2.39472
2.38946
2.38398
2.37853
2.43282
2.42904
2.42557
2.42198
2.41839
2.41455
2.41051
2.40623
2.40169
2.39699
2.39211
2.38711
2.38185
2.37656
2.43126
2.42711
2.42345
2.41959
2.41578
2.41169
2.40739
2.40294
2.39836
2.39377
2.3891
2.38436
2.37931
2.37406
2.42877
2.42455
2.421
2.41703
2.41312
2.40888
2.40446
2.39992
2.39532
2.39081
2.38629
2.38163
2.37684
2.37121
2.39305
2.40114
2.40659
2.40942
2.42108
2.43921
2.38218
2.38573
2.38753
2.39242
2.41037
2.43705
2.37876
2.38131
2.38252
2.38821
2.40659
2.43746
2.37397
2.37543
2.37603
2.38207
2.40243
2.43399
2.37108
2.37195
2.37266
2.37862
2.3988
2.42785
2.3675
2.36832
2.36976
2.3749
2.3932
2.41683
2.36479
2.36591
2.36837
2.37221
2.38703
2.40382
2.36196
2.36341
2.36661
2.36889
2.37954
2.3896
2.3595
2.36055
2.364
2.36488
2.37205
2.37683
2.3572
2.35702
2.35961
2.35941
2.36549
2.37004
2.35526
2.35368
2.35452
2.35406
2.36073
2.36828
2.35406
2.3507
2.34978
2.34955
2.35824
2.36896
2.35458
2.34999
2.34841
2.34826
2.35957
2.37102
2.3426
2.33541
2.33473
2.33896
2.35506
2.37169
2.40179
2.41205
2.42158
2.42894
2.4351
2.44921
2.39126
2.39806
2.40415
2.41371
2.42689
2.44651
2.38725
2.39286
2.39885
2.40819
2.42269
2.44568
2.38166
2.38568
2.39028
2.3993
2.41558
2.44033
2.3778
2.38067
2.38462
2.39308
2.40919
2.43269
2.37342
2.37539
2.37915
2.38727
2.40182
2.4219
2.36944
2.3712
2.37559
2.3837
2.39605
2.41171
2.36555
2.36758
2.37293
2.38055
2.39035
2.40219
2.36229
2.36484
2.37099
2.37748
2.38435
2.3924
2.35969
2.36225
2.36846
2.3727
2.37745
2.38358
2.35808
2.35968
2.36487
2.36624
2.36965
2.37631
2.35698
2.3568
2.35958
2.35944
2.36249
2.37063
2.3575
2.35514
2.35562
2.35502
2.35968
2.36976
2.34781
2.3426
2.34214
2.34414
2.3522
2.36666
2.41601
2.42686
2.43768
2.44733
2.45499
2.46517
2.40683
2.41502
2.42358
2.43349
2.44518
2.46055
2.40271
2.41061
2.41865
2.42788
2.43926
2.45691
2.39635
2.40302
2.40912
2.4176
2.42959
2.44949
2.39117
2.3967
2.40112
2.40889
2.42091
2.441
2.38571
2.38999
2.39287
2.4001
2.41168
2.42993
2.38046
2.3838
2.38618
2.39342
2.40416
2.41915
2.37555
2.3782
2.38125
2.38865
2.39808
2.40909
2.37121
2.37357
2.37818
2.38562
2.39394
2.40142
2.36741
2.36979
2.37578
2.38261
2.38979
2.39571
2.36463
2.36694
2.37362
2.37884
2.38512
2.3915
2.36267
2.36424
2.37007
2.37271
2.37734
2.38406
2.36279
2.36215
2.3661
2.36657
2.37059
2.37799
2.35476
2.35282
2.35435
2.35546
2.35963
2.36859
2.42587
2.43352
2.44142
2.45083
2.45832
2.46723
2.41856
2.42633
2.43372
2.44318
2.45243
2.46399
2.41406
2.42163
2.42938
2.43818
2.44728
2.45974
2.40811
2.4147
2.42159
2.42931
2.43822
2.45176
2.40269
2.40813
2.41349
2.41964
2.42772
2.44184
2.39697
2.40099
2.40448
2.40909
2.41644
2.43025
2.39125
2.39417
2.39618
2.39999
2.40693
2.41914
2.3856
2.38773
2.38911
2.39302
2.39967
2.40959
2.38024
2.38183
2.38354
2.38817
2.39482
2.40267
2.37531
2.37645
2.37919
2.38431
2.39095
2.39728
2.37104
2.37191
2.37595
2.38091
2.38796
2.39386
2.36752
2.3678
2.37256
2.37655
2.38282
2.38851
2.36538
2.36492
2.36952