/*--------------------------------*- C++ -*----------------------------------*\
| =========                 |                                                 |
| \\      /  F ield         | OpenFOAM: The Open Source CFD Toolbox           |
|  \\    /   O peration     | Version:  v2106                                 |
|   \\  /    A nd           | Website:  www.openfoam.com                      |
|    \\/     M anipulation  |                                                 |
\*---------------------------------------------------------------------------*/
FoamFile
{
    version     2.0;
    format      ascii;
    arch        "LSB;label=32;scalar=64";
    class       volScalarField;
    location    "0.000126";
    object      epsilon;
}
// * * * * * * * * * * * * * * * * * * * * * * * * * * * * * * * * * * * * * //

dimensions      [0 2 -3 0 0 0 0];

internalField   nonuniform List<scalar> 
18273
(
2383.38
2052.54
2468.6
2943.42
3588.68
4247.28
4761.96
5061.36
5145.66
4958.43
4363.23
3407
2512.48
1818.8
2724.87
1696.38
1439.34
1462.61
1675.49
1985.4
2286.31
2508.75
2635.52
2621.74
2299.44
1713.3
1192.19
811.805
3677.26
2031.28
1168.24
778.345
681.842
738.295
851.626
965.132
1061.17
1111.6
977.513
718.118
524.626
490.199
4887.39
2735.23
1364.23
626.501
318.875
231.402
236.097
272.136
319.059
359.283
320.165
251.043
247.498
390.812
5859.42
3399.67
1673.58
690.39
248.04
92.1051
53.262
53.823
67.5276
83.6992
79.2866
84.4876
162.369
410.204
6225.42
3639.86
1785.24
720.334
237.251
64.1806
16.3533
7.68861
9.09812
12.9837
17.4518
48.4497
184.082
569.22
6157.76
3516.09
1664.13
644.858
200.813
49.0786
9.16679
1.49068
0.718882
1.58709
9.40705
60.716
269.937
837.331
5853.64
3236.81
1476.35
542.166
157.56
35.4884
6.06745
0.809673
0.136317
1.05686
14.2905
95.2479
398.362
1164.21
5303.87
2848.38
1259.93
448.544
127.629
29.721
6.59179
1.91086
0.813621
2.31202
24.1653
143.617
548.929
1488.67
4535.86
2364.69
1026.78
373.859
120.931
42.7627
20.1961
11.0314
5.99881
6.1385
32.7526
171.527
621.812
1634.35
3662.3
1886.83
841.819
357.565
178.97
118.265
84.548
54.9617
32.3431
22.4632
44.5764
168.849
573.872
1525.18
2890.02
1526.78
780.166
484.514
407.537
368.302
297.889
208.068
129.959
82.6098
83.8484
167.047
449.434
1202.71
2268.96
1312.79
923.228
912.213
1000.69
984.583
829.364
609.455
403.349
256.343
198.244
227.428
349.505
831.378
1952.8
1450.79
1522.53
1921.05
2217.6
2177.3
1860.33
1429.78
1004.46
660.387
462.293
415.826
381.199
621.171
5150.38
5336.3
6631.74
8013.12
9406.7
10436.7
10901
10812.4
10265.7
9327.15
7806.31
5796.69
4041.57
2765.77
4773.03
3614.41
3587.15
3970.21
4569.59
5165.06
5560.84
5679.89
5552.64
5174.59
4286.09
3017.31
1963.62
1303.7
6220.65
3772.09
2477.94
1914.81
1825.07
1966.72
2144.91
2262.79
2304.57
2251.98
1860.51
1298.96
929.112
969.934
8669.54
5158.52
2757.56
1380.45
777.405
599.714
598.143
645.285
698.637
732.107
613.633
469.659
507.789
942.019
10895.8
6709.64
3498.9
1531.29
584.351
228.546
132.121
124.698
143.759
166.633
151.746
178.439
418.094
1151.71
12161.6
7559.32
3932.37
1681.8
583.234
164.159
41.6125
17.1184
17.9109
24.6364
37.562
133.214
539.222
1633.44
12708.7
7753.16
3908.89
1598.34
521.45
132.755
25.5041
3.89799
1.33232
3.48904
27.7497
182.4
778.999
2278.89
12903.6
7674.06
3732.44
1449.2
441.858
103.753
18.4534
2.60108
0.454423
3.25985
42.4156
269.929
1069.06
2931.38
12551.3
7224.96
3404.8
1277.15
380.453
92.5682
21.8483
6.9783
3.11006
6.67835
63.7461
364.052
1330.37
3421.3
11516.9
6384.6
2926.27
1104.79
365.29
131.908
65.4373
38.2685
21.5753
18.3767
79.4631
394.91
1374.77
3456.84
9895.14
5314.13
2432.44
1025
500.505
335.867
254.144
177.007
109.155
70.605
109.139
365.056
1175.88
3002.17
8019.31
4287.52
2134.34
1239.93
1021.54
961.855
830.501
623.546
412.47
259.072
221.508
360.921
870.11
2208.57
6283.01
3510.15
2232.62
2052.11
2294.05
2386.44
2152.86
1703.25
1203.49
783.932
552.656
525.576
680.345
1436.87
5269.22
3444.09
3143.27
3885.91
4702.48
4917.2
4507.78
3730.93
2814.67
1944.43
1316.75
1018.17
823.148
1086.1
12761.6
14283.2
17431
20407.1
22519.6
23243.4
22610.3
20949.1
18692.8
16046.8
12741
9047.62
5951.6
3998.34
9055.3
8399.43
9225.74
10522.5
11752
12508.9
12543.2
11856.4
10715.8
9290.72
7173.01
4758.45
2957.91
2201.59
9982.98
6893.91
5248.08
4655.98
4687.61
4927.61
5051.52
4912.22
4581.96
4112.56
3126.42
2093.87
1594.23
2133.52
14167.7
8921.43
5045.64
2766.51
1762.65
1462.48
1422.86
1416.62
1392.67
1326.04
1027.28
810.759
1108.75
2497.87
18564
11997.8
6456.19
2913.83
1156.99
484.115
292.393
260.447
270.404
289.189
259.157
393.78
1160.83
3318.27
21634.4
14131
7600.87
3335.49
1174.9
330.785
81.7762
31.1795
30.1739
41.2453
84.9134
391.721
1580.34
4541.37
23597.3
15250.9
7985.16
3348.03
1104.47
279.18
52.0392
7.21845
1.99552
8.5179
86.1252
547.464
2176.54
5893.66
25336.4
16102.9
8180.13
3265.97
1007.59
234.575
40.8035
5.82131
1.18812
10.2707
124.546
740.145
2731.1
6943.77
26315.2
16232.4
8008.06
3078.05
923.994
224.602
54.879
19.6578
9.49461
18.6698
164.31
886.59
3057.53
7392.98
26003.7
15380
7343.27
2813.18
920.102
330.395
172.189
108.263
64.1625
50.5971
187.141
872.813
2884.77
6900.54
24081.4
13605.3
6342.23
2614.38
1211.14
812.84
648.72
482.137
314.217
200.679
259.069
757.54
2284.9
5581.7
20668.4
11336.4
5473.68
2905.96
2280.46
2211.12
2023.13
1622.91
1143.66
739.838
572.061
761.025
1606.73
3814.61
16777.9
9247
5242.32
4266.13
4768.13
5209.3
4991.05
4222.94
3197.6
2200.57
1515.28
1239.95
1337.18
2386.88
14249.7
8495.98
6414.65
7340.02
9197.91
10175.2
9918.97
8787.32
7131.45
5282.41
3672.82
2624.32
1925.02
2008.09
1609.18
2613.64
5039.71
14519.2
194924
105923
683.846
1073.24
2071.53
6073.64
99004.9
53811.1
691.204
1161.36
2099.8
5031.71
69907.2
30162.7
764.165
1404.19
2539.61
5305.33
57089.3
19147.2
961.394
1919.27
3525.07
6790.16
54569
14256.7
1387.7
2796.47
5095.28
9340.53
59957.7
12541.8
1973.09
3874.91
6920.45
12423.5
71159.7
12758.9
2603.26
4904.85
8558.55
15372.2
85231.3
14515.2
3160.16
5688.45
9750.28
17872.9
101304
17908.2
3410.27
5917.03
10117.3
19246.3
117252
23141.6
3254.4
5530.45
9511.95
19094.2
132761
30764.4
2685.63
4568.02
7998
17371
145128
43115.8
1890.29
3357.66
6266.03
15312.6
163469
66370.7
1191.97
2406.33
5234.37
15563.6
211567
116419
2411.37
3606.14
6288.99
14269.4
121101
64295.8
1312.9
2057.88
3533.4
7268.03
62652.5
32438.8
1578.8
2649.63
4383.48
7580.37
48301.9
19664.8
1985.71
3616.39
6041.95
9682.89
44988.7
14808
2696.01
5132.13
8622.96
13350
49109.3
13818.2
3768.22
7095.72
11796.8
17749
58080.1
14954.5
4995.49
9110.64
14853.9
22002.3
68962.3
17195.6
6092.48
10649
17003.4
25422.5
80006.3
19881.8
6815
11399.5
17977.7
27769.8
91484.8
23082.9
6834.72
11047.6
17416.6
28025.9
100576
26364.9
6138.17
9726.26
15413.2
25931.3
106390
29782.4
4779.58
7557.19
12154.9
21747.2
110028
34971.6
3140.6
5170.18
8773.87
17332.2
116453
46202.6
1852.98
3343.65
6468.86
14889.4
134737
71507.7
3756.11
4995.48
7193.28
10897.1
19723.1
29156.7
3025.09
4701.66
7051.42
9893.6
14492.3
20395
4067.45
6704.91
10001
13340.4
17117
21601.3
5490.9
9521.89
14239.4
18631.7
22676.9
27335.1
7453.54
13071.4
19295
24751.9
29374.3
34552.1
9725.16
16707.1
24087
30289.6
35285
40107.8
11868.2
19703.5
27670.8
34226.5
39670.3
42223.7
13277.6
21233.6
29265.8
36430.5
43673.9
41670.8
13692.9
21118.3
28960.6
36933.6
48484.5
39513.2
12813.6
19156.8
26495.4
34388.5
50989.2
35247.1
10846.5
15786.9
21999.9
28836.5
48244
29845.5
7938.71
11388.7
16148.1
21185.1
39779.2
25398.6
4894.12
7150.46
10479.5
14229.7
29657
24796.9
2870.56
4392.55
6873.96
9993.02
23269.5
30705.3
736.639
1342.23
2963.53
9635.95
167824
110869
607.981
994.755
1882.76
5336.15
94683.2
55069.7
787.345
1290.3
2247.18
5148.64
70697.9
30769.6
976.166
1729.77
2993.73
5997.9
60511.1
19763.9
1430.53
2600.07
4445.33
8170.73
60479.2
15035.7
2072.83
3736.39
6288.56
11113.1
67142.1
13464.8
2796.38
4916.03
8130.88
14133.9
78651.5
13672.8
3506.95
5962.86
9703.64
16830.7
92163.2
15214.8
4064.19
6711.47
10823.3
19122.2
107300
18334
4246.1
6873.87
11093.8
20287.3
123945
23094.3
3827.55
6179.97
10090.4
19695.7
139869
29952.6
2955.93
4807.29
8117.56
17738.1
154815
40784.5
2263.98
3703.8
6529.4
16302.2
175927
63098.3
2187.69
3730.92
6961.85
18673.4
237460
111661
1401.71
2288.54
4266.73
10228.5
101140
64625.9
1418.2
2212.58
3625.27
7103.66
59807
32636.9
1979.27
3187.98
5019.84
8586.04
49380.7
20320.8
2754.06
4690.66
7391.82
11741.3
48787.4
16148.8
3994.24
6860.55
10729.1
16373.9
55040.1
15852.9
5429.77
9180.02
14149.2
21078.2
64568.8
17296.1
6791.28
11159.4
16929.6
24926.7
75165.7
19319.6
7902.31
12557.1
18785.1
27741.4
85364.5
21541.2
8543.78
13181.5
19557.2
29433.1
96200.7
23839.5
8373.33
12622.2
18670.8
28865.2
104459
25981.9
7116.31
10635.9
15764.7
25631.5
108206
28061.3
5320.38
7924.41
12015.9
21122.5
109952
31990.6
4415.09
6552.81
10019.6
18779.4
119926
43589.1
5274.64
8010.52
12152.9
21898.2
151487
70716.8
2976.98
4235.65
6186.78
9143.54
16216.1
27741.2
3615.43
5373.5
7634.48
10245.8
14375.8
20814.3
5280.27
8192.65
11600.8
15099.7
18678.7
23807.2
7545.52
12121.2
17233.7
22170.7
26355.2
32099.9
10357.8
16541.9
23209
29270.6
34223.6
40600
13017.7
20301.5
27770.6
34328.8
39460
44369.9
15084.4
22834.1
30439.6
37289.8
43041.9
44409.4
16360.7
24049.8
31451.2
38933.5
47023.1
42200.9
16599.2
23706.3
30594.6
38624.6
50611.6
37968.8
15323.6
21198.9
27010
34176.1
48706.9
31532.8
12316
16630.2
20981.1
26621.6
41013.5
25203.3
9194.29
12158.1
15265.4
19393.6
30454.9
22095.1
9048.27
11899.3
14743.4
18028
25884.8
27276.1
13264
17093.9
20657.4
23345.2
30394
45336.3
109013
277183
30819.9
12220.1
6506.18
3514.61
67730.4
224720
28112.9
12486
7549.29
4780.41
44900.5
195047
28861.8
14459.7
9302.24
6324.25
32238.8
177272
31285.8
16973.8
11204.1
7859.91
24214.4
162047
33060.1
19049.8
12820.5
9010.61
18788.9
146790
33187
20263.1
13707.5
9477.62
15193.2
132419
32206.8
20660.8
14001.1
9544.27
13528.3
119601
30451.8
20156.8
13859.9
9309.5
13322.9
108850
28538.1
18657.9
12956.2
8688.35
14818.7
101851
25529.7
16399.9
11398.1
7662.83
19195.7
100685
21615.3
13490.5
9384.19
6325.76
29210.3
108832
18026.8
10605.6
7427.4
5006.35
51488.8
135221
16319.9
8639.38
5839.98
3920.58
104220
216950
20309.9
8798.24
5328.96
3339.11
72433.8
186323
33137.9
17052.1
10481
6258.87
50663.8
162116
31583.2
16886.2
11138.7
7516.15
38835.4
150986
34106.1
19764.7
13850.6
10123.6
32500.4
144020
38454.1
24087.5
17357.1
13069.7
28784.8
136208
42720.4
28188.6
20621.2
15582.1
25906.8
125423
45014.5
31475.2
23085.3
17208.6
23563.5
112976
45358.7
33667.1
24841.9
18281.1
21980.3
102537
45218.3
34882.1
26347
18974.5
20828.7
97096.2
44266.9
34404.8
26482.7
19002.3
20371.5
92242.4
42560.2
32573.7
25314.3
18084.6
21359.9
87989.6
38499.6
28997.8
22695.3
16122
25254.7
86083.6
32585.5
24054.5
19122.9
13430.4
36092.4
95182.8
28354.7
19463
15332.2
10693.6
65319.9
138290
29809.5
18006.7
13471.8
9205.99
47446.4
36383.2
25829.8
22227.1
17421.1
12723.8
32119.3
37618.6
23806.9
19440.3
15243.2
11615.7
27120.8
46757.5
26692.1
22055.7
18098.9
14799.9
28462.5
56903.7
33113.8
27945.3
23563.4
19750.4
32616.4
61724.6
39743.6
34367.5
29226.5
24355.8
38010.5
59697.8
44971.7
39623
33958.9
27978.9
43666
53920.7
47463.7
42921.1
37890.5
31021
49830.2
49027.9
47734.9
45668
41371.3
33800.7
56824.1
47816.1
48856.3
48089
44185.3
36029.8
64137.4
49230
50968.2
49855.9
45673.6
37023.6
69500.7
49952.4
51390.3
49113.8
44486.5
35797.9
67204.6
45700.8
46752.3
43690.2
39830.6
31855.4
58792.9
37549.6
37335.6
35132.4
32873.2
26572.5
56517.5
33203.7
30477.3
28888.7
27259.3
22886.9
116405
261240
26954.8
10822.4
5422.15
2954.64
72547.4
213832
26236.4
11904.7
6891.54
4333.71
47800.2
187469
27542.6
13714.8
8579.29
5714.09
33569.3
167615
29937.4
16092.3
10370.6
7031.98
24822.9
152190
31820.1
18203.6
11895.6
8026.75
18733.5
137621
32508.6
19588.2
12901
8564
14662.6
124093
31625.6
20151.1
13268.4
8613.04
12528
111374
29695.6
19767.8
13018.3
8296.96
12223.4
100864
27112.1
18061.6
12062.6
7594.98
13717.3
93780.9
23633.5
15295.9
10332.2
6526.24
18109.8
94316.9
19619.4
12345.2
8309.92
5301.29
27981.1
106762
16846.3
10008.8
6730.97
4333.58
49348
135121
16048.1
8182.43
5196.92
3260.26
98597
228449
24175.3
10267.4
5706.66
3232.4
76309.9
173920
25572.8
12491.9
6901.01
4155.76
54565.7
161493
28964.9
15713.2
9943.87
6667.56
41957.9
150320
32705.5
19298.2
13096
9266
34373.1
138880
37234.3
23512.5
16369.2
11828.7
29419.1
127009
41295.2
27626.2
19535.1
14055.4
25278.6
116024
43650.9
30709.8
22144.3
15819.2
21822.6
105807
43613
32752.7
24022.2
16978.4
19568.2
97252
43180.4
34180.1
25298.9
17550.2
18063.3
92742.3
41946.3
33810.7
25351.5
17304.7
17467.1
87584.5
39551.5
31104.2
23522.3
16019.5
18504.7
82923.4
35100.5
26876.3
20385.3
13806.1
22807.5
83672.3
30044.9
22453.6
17068.9
11463.7
34013.4
96163.1
26941.6
18530.3
13763
9030.14
62954.8
151501
31946.7
19309.7
13190
8222.78
35004.5
35814.2
14564.2
11055
7604.37
5449.68
30670.4
49986.5
21410.1
17044
12602.4
9528.58
30068.2
60403.1
28250.9
23246
17827.9
13948.8
32005
64091.9
34617.3
29492.7
23135.4
18314.9
35527
60989.2
40230.6
35479.8
28551
22379
39815.9
54155.9
44055
40045.8
33533.6
26216.3
44313
48669.2
45474.7
42810.7
37753.8
29586.2
49375.5
45677.6
45706.6
45256
41073
32463.4
55105.3
45340.9
46776.8
46992.2
43014.8
34223.5
60411.4
46094.8
47682.6
47160.6
42852.8
34068.2
62508.7
44978.1
46176.6
44738.6
40155.6
31647.2
59147.9
40777.4
41312.5
39552.9
35464.9
27690.6
53597.2
35355.3
34671.3
32758.7
29806.2
23174.3
54664.2
34035.4
30506
28505.9
25955.8
20805.5
30708.9
33255.3
38906.5
43134.3
44439.5
42847.7
39138.1
34206.4
29023.8
24110.4
18855.1
13331.2
8634.46
5991.76
18072.6
18017.6
20030.6
22253.2
23438.9
23235.7
21726.7
19232.8
16428.3
13712
10336
6868.48
4379.11
4042.12
15779.2
11635.8
9617.92
9022.78
9035.23
9023.39
8651.93
7843.09
6896.59
5934.56
4414.55
2979.61
2636.58
4623.23
20995.8
13025.9
7405.45
4294.33
2967.39
2528.44
2368.43
2202.77
2042.68
1861.6
1421.62
1211.99
2192.18
5886.58
27378.2
17179.8
9053.84
4058.52
1642.8
729.619
462.051
397.864
392.035
393.439
361.946
713.565
2560.22
7756.05
32295.9
20801.6
11021.9
4748.05
1643.57
460.32
116.171
43.7543
38.9426
52.7083
143.351
793.856
3379.44
9898.85
36651.7
23449
12128.2
4988.54
1609.07
399.693
73.8536
10.012
2.35633
14.202
163.293
1072.19
4341.66
11892.4
41604.4
26347.9
13266.5
5197.27
1559.87
354.309
60.6849
8.63032
1.81177
18.2977
222.624
1347.47
5053.96
13003.6
46053.2
28599
13988.7
5273.71
1524.7
353.68
83.4727
30.5132
15.4295
31.309
274.734
1510.36
5306.39
13037.5
48804.5
29364.6
13916.4
5144.21
1573.52
521.519
268.55
176.801
110.702
87.0784
302.253
1419.45
4786.46
11637
48471.9
27957.6
12877.3
4935.05
2021.37
1275.05
1046
822.648
570.982
378.107
444.194
1224.65
3731.68
9170.88
44402.3
24594.4
11441.9
5324.77
3677.04
3544.87
3384.2
2885.91
2173.63
1507.97
1140.71
1336.28
2639.89
6106.53
37495.6
20497.9
10549.2
7267.28
7693.88
8585.11
8603.65
7757.66
6294.32
4712.33
3351.37
2554.16
2461.48
3864.76
33486.2
18546.2
11712.9
11887.3
14993.8
17107.3
17429.9
16407.8
14257.7
11460.7
8442.73
5977.45
4193.46
3758.16
31140.3
33696
38557.6
41860.4
42313.7
40138
36216.5
31337.5
26386.9
21986.5
17232.6
12069.1
7689.94
5301.4
17432.6
17120.4
18457
20004.7
20682
20219.6
18717.1
16471.1
14035.9
11808.5
8964.85
5930.14
3723.52
3573.08
14397.4
10223.9
8157.86
7504.73
7432.82
7362.42
7008.25
6329.66
5562.13
4827.86
3627.18
2438.06
2140.98
4047.87
19183.1
11294
6135.94
3432.55
2319.11
1958.36
1827
1696.24
1572.7
1444.53
1110.16
948.166
1805
5227.31
24987.1
14953.3
7567.15
3283.09
1289.61
555.66
344.614
294.784
290.351
293.221
272.733
568.995
2168.68
6899.78
29293.2
17962.6
9139.29
3819.28
1297.26
358.425
87.9437
31.3024
27.5321
38.1787
113.654
654.332
2861.6
8715.88
33190.9
20168.3
9979.31
3978.08
1261.95
311.824
57.5087
7.65317
1.6918
11.6617
133.951
881.178
3648.52
10392.5
37800.3
22648.2
10880.2
4124.88
1217.79
275.91
47.6347
7.01715
1.641
15.2623
179.66
1092.76
4210.21
11303.9
42056.5
24654.9
11492.5
4185.92
1187.59
275.368
67.0725
25.9602
13.4384
25.2291
215.372
1202.94
4374.53
11252.4
44927.8
25553.5
11540.2
4105.14
1224.54
408.224
217.877
147.418
92.7952
69.8691
230.469
1109.23
3900.85
9950.53
45003.6
24660.9
10818.3
3956.43
1572.99
1006.95
844.618
672.62
467.713
305.308
335.927
928.424
2980.42
7705.56
42010.3
22200.1
9771.32
4277.67
2897.03
2844.23
2749.08
2353.82
1772.68
1229.89
901.835
1003.98
2041.74
4949.58
36179.3
18918.8
9064.01
5867.89
6240.72
7084.64
7150.73
6436.08
5206.21
3915.82
2780.55
2049.78
1910.21
2976.58
32511
17219.2
10005.2
9830.48
12650.5
14664.6
15011
14055.4
12140.9
9786.53
7274.43
5145.06
3541.7
2958.06
14723.1
16319.4
19447.9
22313.7
23566.4
23117
21357.7
18797.1
15940.5
13308.8
10337.7
6997.09
4339.44
2784.62
7987.2
7279.44
7826.16
8892.87
9718.64
9940.82
9512.26
8603.05
7461.62
6374.89
4881
3153.97
1815.06
1388.58
7847.3
4760.99
3318.98
2915.91
2984.16
3107.11
3085.74
2897.99
2617.99
2333.04
1771.44
1138.37
799.422
1407.79
11655.6
6263.82
3052.07
1488.91
894.353
735.363
708.467
689.354
662.396
629.131
482.402
362.196
592.691
2014.98
15609.5
8645.28
4064.02
1630.52
580.081
218.419
123.646
107.317
109.73
114.487
99.6568
182.069
771.139
2920.27
18203.1
10267
4833.86
1890.24
606.639
158.217
35.3198
11.0502
9.66077
13.3573
34.9305
219.993
1109.55
3921.1
20550.6
11350.6
5139.06
1901.78
569.909
135.019
24.1301
3.11612
0.604288
3.27795
42.0917
315.979
1493.08
4891.24
23004.9
12404.9
5395.21
1881.31
521.326
112.782
18.7808
2.63891
0.528507
4.26445
59.001
406.651
1771.53
5417.11
24924.2
13047.4
5451.04
1806.3
475.713
104.377
24.5821
9.23581
4.51634
7.24504
72.5269
459.08
1876.04
5446.76
25709.9
12982.2
5212.74
1670.68
461.631
151.613
82.7321
54.907
32.9968
21.3083
75.8094
424.85
1683.14
4802.22
24640.7
11913.6
4612.94
1521.92
594.807
404.175
343.203
265.454
176.604
103.172
103.616
337.075
1263.38
3645.14
21621
10099.8
3941.35
1640.43
1204.92
1243.66
1195.02
992.969
717.481
459.834
297.473
320.466
802.206
2247.74
17667.5
8190.27
3579.09
2456.27
2873.92
3348.96
3351.74
2939.85
2289.42
1624.61
1053.29
677.784
630.249
1182.13
15074.1
7224.66
4156.08
4605.82
6340.76
7498.97
7651.25
7029.39
5875.63
4534.75
3160.22
2018.36
1232.45
1002.52
4361.64
4896.95
6385.12
7789.5
8678.32
8882.06
8450.26
7578.56
6473.94
5356.46
4026.76
2522.2
1422.61
934.593
2413.96
1900.61
2066.24
2477.95
2880.03
3093.39
3070.36
2857.79
2528.21
2169.92
1628.81
975.404
498.461
340.807
3016.75
1538.02
896.473
710.879
731.701
791.316
818.351
798.449
744.758
674.934
506.006
300.325
176.861
301.672
4979.73
2385.84
1025.12
426.538
214.148
160.351
156.052
158.708
159.868
156.28
118.809
78.4915
112.436
463.508
6957.94
3447.73
1458.33
528.574
167.267
52.4852
24.4357
20.5354
22.2065
24.5283
20.7614
31.3124
152.675
729.56
8248.8
4114.6
1731.24
612.697
180.066
43.1304
8.56767
2.1919
1.85601
2.60078
5.37446
37.1881
235.764
1051.48
9241.09
4446.77
1778.72
591.305
161.898
35.5954
5.99623
0.739226
0.126244
0.395293
5.82823
55.9164
333.33
1373.94
10116.2
4686.88
1777.78
551.199
138.541
27.6603
4.29973
0.556374
0.0926394
0.437439
8.44657
74.5536
406.521
1550.1
10611.3
4713.67
1698.54
495.731
117.231
23.3361
4.98253
1.72422
0.787527
0.847897
10.6431
85.9812
436.682
1565.08
10508.8
4462.97
1533.63
429.261
105.693
32.138
17.0222
10.887
6.19424
3.33379
11.1975
79.231
388.247
1355.2
9582.55
3870.67
1276.79
368.785
135.467
93.16
78.2272
58.0536
36.5611
19.3685
16.3395
59.8693
277.52
974.271
7988.2
3112.88
1037.35
399.202
307.295
324.896
306.478
243.959
167.169
98.5868
57.1305
56.3255
164.504
561.75
6209.93
2409.12
934.244
671.66
842.549
994.943
978.823
825.782
611.456
403.17
241.814
141.236
125.405
274.951
5111.06
2087.68
1186.24
1471.22
2125.62
2552.9
2579.87
2299.31
1835.37
1332.43
867.772
515.181
291.71
236.493
910.088
1068.82
1629.61
2204.07
2658.13
2859.76
2797.46
2533.57
2152.46
1725.32
1232.79
710.235
336.646
208.473
578.662
372.826
413.169
544.544
695.011
793.724
818.741
779.661
693.862
581.019
416.752
227.942
98.5591
59.8292
923.166
392.944
187.107
132.85
141.817
163.299
177.528
179.371
169.224
150.379
107.971
57.8235
27.4037
42.7795
1735.13
721.163
268.41
94.3602
39.4821
27.3521
27.562
29.3079
29.9203
28.7391
21.1699
11.9939
13.8699
74.0998
2626.04
1133.36
420.534
134.253
37.0412
9.67895
3.72255
3.03871
3.43971
3.82349
3.07615
3.45353
20.0873
133.502
3231.73
1401.47
517.288
161.576
42.0873
8.93811
1.54995
0.327458
0.257202
0.34352
0.517304
3.92468
34.8112
212.817
3653.13
1517.18
530.65
155.943
37.9899
7.46144
1.1303
0.126286
0.017938
0.0276802
0.44092
6.20684
51.5659
288.213
3946.33
1560.86
514.272
140.565
31.459
5.61927
0.777011
0.0843499
0.0100009
0.018066
0.643407
8.42894
63.4512
324.502
4024.4
1508.58
468.264
119.664
24.9375
4.27882
0.717766
0.191377
0.0781906
0.0476627
0.791878
9.54524
66.6618
318.322
3818.11
1354.75
397.298
95.9766
19.9305
4.79054
2.17209
1.32737
0.724469
0.33082
0.81567
8.37157
56.1759
259.27
3279.8
1094.93
304.266
73.4976
21.9177
13.8502
11.6271
8.51522
5.15461
2.55205
1.50411
5.72166
36.0853
167.132
2539.37
807.148
222.347
70.9927
52.0964
57.391
55.1776
43.4341
28.6592
15.8417
7.76536
5.74373
18.3979
83.0862
1777.65
557.922
180.989
126.437
171.457
213.516
214.468
179.093
128.171
78.6869
42.4323
21.2882
14.9357
36.4537
1338.98
450.792
245.326
337.44
528.525
669.159
691.448
610.886
472.379
320.398
191.445
102.094
50.1153
37.2248
138.317
165.648
301.576
466.372
630.787
734.63
757.439
708.266
601.976
466.122
312.885
167.341
66.2325
32.927
118.176
56.9656
57.8489
84.439
123.466
157.453
176.717
177.646
159.522
128.813
86.6227
44.02
15.547
7.70775
247.168
88.2496
32.4784
18.0364
19.5102
25.5325
31.2202
33.7646
32.0977
27.1949
18.5113
9.02846
3.3552
4.75292
533.26
190.858
61.1389
17.9662
5.8798
3.62137
3.98815
4.53814
4.66531
4.32566
3.04719
1.49977
1.34952
9.56059
877.54
328.599
106.413
29.8618
7.23801
1.60429
0.505266
0.407429
0.470038
0.496873
0.37759
0.309734
2.11374
19.8261
1119.5
420.207
135.771
37.5424
8.77009
1.69645
0.270837
0.0498215
0.0329493
0.0391908
0.0423444
0.308424
4.06124
34.862
1276.34
456.641
140.032
36.6266
8.06413
1.45841
0.208891
0.0228621
0.00277446
0.0020195
0.0191003
0.480524
6.15655
48.9715
1349.53
454.006
130.312
31.6699
6.42404
1.06192
0.138791
0.0141619
0.00135825
0.000319048
0.0227922
0.60632
7.23647
53.5709
1314.69
411.621
109.77
24.7136
4.62921
0.71684
0.101731
0.0211303
0.00790048
0.00299596
0.023537
0.611948
6.93595
48.6224
1172.91
340.603
84.011
17.4867
3.13366
0.616909
0.243962
0.149362
0.0831569
0.0359637
0.0284315
0.475157
5.21154
35.3856
932.008
249.915
56.9602
11.3872
2.81832
1.71819
1.51394
1.14453
0.697302
0.333458
0.131703
0.294619
2.88242
19.621
657.127
165.783
36.568
9.67268
7.27613
8.68909
8.77766
7.06034
4.61696
2.43349
1.01894
0.459697
1.22048
7.88508
403.329
99.8277
26.4133
19.4134
29.9496
39.9777
41.839
35.3796
24.7926
14.3434
6.75674
2.80075
1.31207
2.88669
270.129
73.3455
39.8387
66.0321
114.727
154.63
165.822
147.266
110.645
69.9357
37.0556
17.0939
6.96635
4.13478
16.9417
21.7386
47.3843
80.9979
116.101
137.919
141.966
132.003
112.549
88.1579
59.315
31.0391
11.3389
4.15856
16.8637
6.65413
6.58386
10.3744
15.9794
20.8343
23.8254
24.6972
23.1927
19.7074
13.6455
6.90608
2.25207
0.781998
47.0228
14.4492
4.36931
1.85863
1.7686
2.33687
3.01338
3.51708
3.69378
3.44252
2.46006
1.20815
0.380177
0.347796
122.141
37.4952
10.3395
2.57436
0.634752
0.263421
0.272406
0.360932
0.443897
0.461805
0.34567
0.167201
0.0925989
0.738032
216.631
69.4517
19.3452
4.67541
0.967947
0.173586
0.037556
0.0281579
0.0386542
0.0457422
0.0366885
0.0220159
0.122403
1.74052
285.546
89.6634
24.4908
5.75693
1.14548
0.188914
0.0254393
0.00372385
0.00242777
0.00316432
0.00297969
0.0126789
0.256736
3.37815
328.175
96.0912
24.4903
5.37507
0.999213
0.153509
0.0188445
0.00179143
0.000197677
0.000147244
0.000517088
0.0206816
0.428116
5.13025
346.625
93.4226
21.8272
4.37423
0.739854
0.103131
0.0114984
0.00100243
7.62947e-05
1.20289e-05
0.000494551
0.0280048
0.542037
5.92544
335.268
82.9521
17.687
3.22197
0.493908
0.0630134
0.00719344
0.00113835
0.000350981
0.000115908
0.000456263
0.0282029
0.532115
5.46519
291.733
66.7697
13.0547
2.1665
0.308407
0.0470782
0.0156383
0.00885394
0.00449556
0.00173817
0.000771993
0.0202626
0.385173
3.82141
221.118
46.6286
8.3933
1.30949
0.247585
0.138288
0.119742
0.0855094
0.0476486
0.0204867
0.00695698
0.0107968
0.185178
1.86011
146.559
29.0978
5.00018
0.9893
0.70201
0.881374
0.879933
0.670669
0.403399
0.192845
0.0730695
0.025345
0.0604891
0.580428
81.9626
15.855
3.13588
2.06706
3.62214
5.11791
5.32498
4.29582
2.7933
1.48257
0.634927
0.230898
0.0829907
0.15157
50.0742
10.4835
4.65728
8.71773
17.3493
24.9355
26.8406
22.9564
16.1838
9.49161
4.58307
1.8911
0.671209
0.308824
19.5205
15.679
11.2604
6.70952
3.07866
0.962724
0.278133
2.60501
2.33424
1.82949
1.13623
0.509956
0.143859
0.0392901
0.263095
0.271549
0.236541
0.154047
0.0682728
0.0183274
0.0179223
0.0200187
0.0244189
0.0240566
0.0166993
0.00742401
0.00357665
0.0481977
0.00122839
0.00164244
0.00186839
0.00141829
0.000737332
0.00509066
0.123813
0.000175581
8.64491e-05
0.000106693
9.15839e-05
0.000255569
0.0104209
0.242568
9.78702e-05
8.53139e-06
4.608e-06
5.24226e-06
0.00031919
0.0156531
0.349393
5.60735e-05
3.6085e-06
4.40912e-07
8.10755e-07
0.000309445
0.0160267
0.346489
77.8351
15.4426
2.64291
0.387105
0.0479937
0.00498214
0.000447735
4.95291e-05
1.27078e-05
4.29625e-06
1.8395e-06
0.000213942
0.0120862
0.255785
67.3285
12.2818
1.92584
0.257312
0.0292433
0.003216
0.000719686
0.000380398
0.000201864
8.171e-05
2.60916e-05
0.000120921
0.00657463
0.137643
49.4645
8.47031
1.21915
0.15113
0.0199988
0.00782735
0.00658845
0.00488208
0.00284588
0.0012637
0.000431451
0.000166289
0.00245387
0.0500482
30.9456
5.1091
0.714605
0.105202
0.0541465
0.0646398
0.065999
0.0522945
0.0325897
0.0158463
0.00598259
0.00186681
0.00109656
0.01226
16.1229
2.65428
0.438455
0.243858
0.378349
0.520295
0.553058
0.46185
0.307235
0.163149
0.0682404
0.0238076
0.00720537
0.00703562
9.07338
1.69811
0.755589
1.37697
2.5403
3.53968
3.87463
3.40053
2.41447
1.39213
0.644635
0.247576
0.0795457
0.0316911
50211.8
58705.1
63356.3
61949.1
51209.9
32282.6
52449.7
64494.5
72274
73356.9
65848.3
47189
59914.4
73486.1
81291.1
82629.7
76731.3
59573.4
63990.6
77205.5
84445
84795.9
78323.2
61239.6
63856.3
76278.2
81720.8
79843.3
71290.8
54335.3
60041.6
70947.8
74951
72056.2
63370.8
48096.7
54074.7
63598.8
67198.7
65101.3
57618.8
43283
47222.9
55558.6
59407.5
59188.2
53962
40301.5
40499.5
47721.7
51976.1
53532.9
50654.6
37109.8
34051.4
40079.9
44189.8
46715.7
45602.7
31654.3
27870.9
32527.6
36075.5
38989.8
38401.1
24211.5
21209.9
24869.2
27963.8
30499.3
28839.7
16015.3
14249.5
17045
19693.7
21592.6
18784.7
9091.79
7972.39
10198.2
12650.5
14748.9
12861.2
6088.43
52699.2
63628.1
69760.6
71954.4
72579.2
74573.8
55499.9
70856.7
81793.1
87922.4
91474
95120.9
62903
80713.8
92506.1
98352.1
101182
104160
66464.7
84230.2
95204.7
99734.9
100854
102686
65318.8
82557
91766.1
94378.5
93713.4
94846.9
60500.8
75901.9
83582.5
85098.6
83589.6
83995.1
53751.8
66959.3
73588.2
74775.6
73102.2
73178.5
46336.9
57515.5
63348.9
64843.7
63129
62363.8
39279.5
48604.8
53965.9
55522.2
53157.6
50657.7
33142.6
40454.9
45026.3
45862.9
42725.9
38574
27131.1
32706
36176.5
36224.7
32672.7
27446.3
20366.1
24514.5
27105.3
26425.1
22692.2
17627.1
13430.1
16139.8
17470
16478.3
13796.1
10599.4
7079.92
8901.4
10039.1
10228.3
9902.09
9237.26
28165.6
36640.5
43118.2
48069.1
52824.7
58475.3
31130.5
43703.1
54456.4
62969.5
70139
77234.6
37085.7
52545.5
65007.6
73691.7
79983.5
86147.5
41416.2
58323.6
70036.8
76654.6
80527
85050.3
42160.8
59003.8
69441.7
73587
75098.2
77906.7
40018
55420.3
64314.3
67017.9
66808.7
68270.5
36125.3
49556.9
57175.1
59358.6
58458
59013.7
31414.3
42825.1
49468.1
51792.6
50687.1
50175.7
26610.5
36168.6
42152.3
44570.1
43012.5
40903.1
22378.1
30066.3
35141
37415.2
35169
31551.3
18128.1
23794.8
28181
29751
26898.6
22511.6
13220.2
17315.3
20869.9
21311.8
18239.4
14262.2
8600.6
11086.9
12908.6
12364.8
10170
8076.54
4207.08
5395.82
6135.14
6227.97
6214.73
6556.97
10384.3
16358.5
23063.4
29651.1
35576.5
41010.8
12123.2
20974.4
31314.2
41199.5
49555.5
56410.3
15700
26981
39221.7
50195.2
58763.1
64803.7
18320
31509.3
44405.2
54453.3
60897.6
64569.1
19436.1
33235.4
45553.7
53715.6
57676.6
59545.7
19038.2
32000.8
42962.9
49313.8
51883.4
53155.7
17514.6
29012.8
38470.1
43768.1
45745.1
46891.2
15368.6
25218.8
33319.9
38112.5
39930.6
40646
12959.2
21136.7
28030.8
32351
33853.3
33763.9
10648.1
17025.9
22801
26583.7
27824.7
26869
8216.41
12744.3
17198.9
20436.6
21428.1
19968.3
5541.52
8409.88
11598.6
14000.2
14536.6
12918.9
3275.46
4910.37
6758.78
7915.32
7951.95
6869.11
1549.93
2307.66
3067.36
3591.78
4014.68
4470.12
2722.43
5463
9760.36
15422.5
21837.3
28329.6
3569.56
7958.96
15158.5
24492.1
34359.4
43602.3
5368.98
11865.1
21509.6
33072
44810.4
54853.2
6847.43
15162.2
26699.9
39201.3
50437.4
58735.6
7696.11
16756.7
28885.4
40622.9
50324.4
56875.2
7805.22
16678.9
28061
38081.6
46123.6
52291
7279.85
15248.1
24939.4
33491.6
40236
46461.8
6339.42
13042.4
21118.3
28236.8
33856.2
39370.7
5218.54
10524.7
17042.2
22905.8
27348.3
31071.4
4089
7977.92
12958.3
17758.2
21136.3
23375.6
2963.43
5589.56
9014.53
12516.8
15173
16741.1
1812.33
3318.4
5372.17
7666.29
9632.98
10645
913.002
1638.38
2717.89
3936.39
5077.26
5499.69
389.294
703.214
1169.03
1677.7
2242.7
2726.52
500.029
1301.17
3024.94
6163.82
10970.4
17256.9
763.37
2265.52
5638.73
11823.2
20782.7
31323.7
1387.59
4115.13
9752.72
18969.9
31290.2
45004
2007.97
6005.51
13892.3
25705.5
39942.9
54298.7
2482.51
7255.22
16211.6
28930.8
43112.2
57433.2
2655.1
7503.73
16226.5
28371.6
41156.7
55056.9
2535.59
6920
14619.1
24803
35788.6
48454.9
2215.37
5826.46
12065.8
20265.4
29043.1
39358.8
1783.98
4517.27
9235.97
15558.1
22249.6
29286.8
1333.99
3257.27
6580.09
11171.6
16148.3
20689.9
908.345
2129.87
4251.69
7222
10514.1
13558.6
501.018
1126.24
2244.69
3866.31
5786.71
7629.74
212.887
460.846
933.474
1636.86
2557.52
3400.9
75.0496
158.098
318.729
562.757
940.713
1352.43
77.0319
256.091
772.765
1994.33
4422.78
8476.48
137.263
533.461
1732.74
4601.51
10135.4
18665.8
298.038
1171.41
3637.17
9008.24
18306.3
31443.5
480.663
1927.7
5863.95
13978.3
26813.3
43419.2
636.482
2515.12