/*--------------------------------*- C++ -*----------------------------------*\
| =========                 |                                                 |
| \\      /  F ield         | OpenFOAM: The Open Source CFD Toolbox           |
|  \\    /   O peration     | Version:  v2106                                 |
|   \\  /    A nd           | Website:  www.openfoam.com                      |
|    \\/     M anipulation  |                                                 |
\*---------------------------------------------------------------------------*/
FoamFile
{
    version     2.0;
    format      ascii;
    arch        "LSB;label=32;scalar=64";
    class       volScalarField;
    location    "0.000195";
    object      k;
}
// * * * * * * * * * * * * * * * * * * * * * * * * * * * * * * * * * * * * * //

dimensions      [0 2 -2 0 0 0 0];

internalField   nonuniform List<scalar> 
17924
(
2.38255e-12
2.29034e-12
2.27133e-12
2.26781e-12
2.27807e-12
2.26788e-12
2.26576e-12
2.26532e-12
2.26528e-12
2.26538e-12
2.26557e-12
2.2837e-12
2.26904e-12
2.26558e-12
2.26479e-12
2.26458e-12
2.26451e-12
2.2645e-12
2.29863e-12
2.27247e-12
2.26603e-12
2.26457e-12
2.2642e-12
2.26409e-12
2.26404e-12
2.31913e-12
2.27708e-12
2.26669e-12
2.26438e-12
2.26386e-12
2.26372e-12
2.26366e-12
2.3409e-12
2.28155e-12
2.26723e-12
2.26416e-12
2.2635e-12
2.26335e-12
2.26328e-12
2.36115e-12
2.28504e-12
2.26748e-12
2.26389e-12
2.26318e-12
2.26302e-12
2.26295e-12
2.38121e-12
2.28802e-12
2.26755e-12
2.26361e-12
2.26287e-12
2.26271e-12
2.26264e-12
2.40176e-12
2.29078e-12
2.26757e-12
2.26335e-12
2.26261e-12
2.26246e-12
2.26238e-12
2.42154e-12
2.2933e-12
2.26761e-12
2.26317e-12
2.26245e-12
2.26231e-12
2.26225e-12
2.44059e-12
2.29578e-12
2.2678e-12
2.2632e-12
2.26258e-12
2.26256e-12
2.26259e-12
2.45722e-12
2.29856e-12
2.26862e-12
2.26411e-12
2.26404e-12
2.26461e-12
2.26507e-12
2.48157e-12
2.30621e-12
2.27267e-12
2.26891e-12
2.27129e-12
2.27459e-12
2.27703e-12
2.55956e-12
2.33659e-12
2.29014e-12
2.28955e-12
2.30203e-12
2.31679e-12
2.32754e-12
2.85541e-12
2.44961e-12
2.35707e-12
2.36875e-12
2.41908e-12
2.47742e-12
2.51997e-12
2.26617e-12
2.26522e-12
2.26504e-12
2.26499e-12
2.26496e-12
2.26497e-12
2.265e-12
2.26506e-12
2.26513e-12
2.2652e-12
2.26527e-12
2.26531e-12
2.26537e-12
2.2654e-12
2.26668e-12
2.2652e-12
2.26482e-12
2.26471e-12
2.26464e-12
2.26462e-12
2.26463e-12
2.26466e-12
2.26471e-12
2.2648e-12
2.2649e-12
2.26497e-12
2.26504e-12
2.26512e-12
2.26818e-12
2.26537e-12
2.26463e-12
2.26443e-12
2.26435e-12
2.26432e-12
2.26432e-12
2.26435e-12
2.26441e-12
2.26449e-12
2.26458e-12
2.26467e-12
2.26478e-12
2.26488e-12
2.27024e-12
2.26563e-12
2.26444e-12
2.26416e-12
2.26407e-12
2.26405e-12
2.26404e-12
2.26406e-12
2.2641e-12
2.26416e-12
2.26424e-12
2.26431e-12
2.26442e-12
2.26455e-12
2.27239e-12
2.26585e-12
2.26423e-12
2.26387e-12
2.26377e-12
2.26375e-12
2.26375e-12
2.26377e-12
2.2638e-12
2.26386e-12
2.26393e-12
2.26399e-12
2.26409e-12
2.26423e-12
2.27429e-12
2.26596e-12
2.26401e-12
2.26361e-12
2.26351e-12
2.26349e-12
2.26347e-12
2.26348e-12
2.2635e-12
2.26355e-12
2.26361e-12
2.26368e-12
2.26376e-12
2.26391e-12
2.27613e-12
2.26604e-12
2.2638e-12
2.26336e-12
2.26325e-12
2.26323e-12
2.26321e-12
2.26321e-12
2.26323e-12
2.26328e-12
2.26333e-12
2.26341e-12
2.26347e-12
2.26364e-12
2.27796e-12
2.2661e-12
2.2636e-12
2.26314e-12
2.26303e-12
2.263e-12
2.26298e-12
2.26298e-12
2.26299e-12
2.26303e-12
2.26307e-12
2.26315e-12
2.26321e-12
2.26339e-12
2.27969e-12
2.26615e-12
2.26344e-12
2.26296e-12
2.26285e-12
2.26281e-12
2.26278e-12
2.26278e-12
2.26278e-12
2.26281e-12
2.26285e-12
2.26293e-12
2.263e-12
2.26317e-12
2.28133e-12
2.26623e-12
2.26332e-12
2.26283e-12
2.26273e-12
2.26269e-12
2.26266e-12
2.26265e-12
2.26264e-12
2.26266e-12
2.26269e-12
2.26278e-12
2.26284e-12
2.26302e-12
2.28264e-12
2.26634e-12
2.2633e-12
2.26281e-12
2.26275e-12
2.26275e-12
2.26275e-12
2.26274e-12
2.26272e-12
2.26272e-12
2.26274e-12
2.26281e-12
2.26285e-12
2.26306e-12
2.28435e-12
2.26682e-12
2.26357e-12
2.26315e-12
2.2633e-12
2.26352e-12
2.26367e-12
2.26372e-12
2.26368e-12
2.26361e-12
2.26355e-12
2.26354e-12
2.26348e-12
2.26375e-12
2.29022e-12
2.26913e-12
2.26496e-12
2.26487e-12
2.26592e-12
2.26713e-12
2.26798e-12
2.2683e-12
2.26825e-12
2.26796e-12
2.26755e-12
2.2672e-12
2.2668e-12
2.26713e-12
2.31441e-12
2.27829e-12
2.27053e-12
2.27177e-12
2.27632e-12
2.28146e-12
2.28503e-12
2.28662e-12
2.28662e-12
2.28553e-12
2.28385e-12
2.28225e-12
2.28061e-12
2.28072e-12
2.26428e-12
2.26439e-12
2.26452e-12
2.26461e-12
2.26467e-12
2.26473e-12
2.26479e-12
2.26486e-12
2.26495e-12
2.26504e-12
2.26513e-12
2.26521e-12
2.26526e-12
2.2652e-12
2.26427e-12
2.26433e-12
2.2644e-12
2.26447e-12
2.26452e-12
2.26457e-12
2.26464e-12
2.26471e-12
2.2648e-12
2.2649e-12
2.26501e-12
2.26509e-12
2.26515e-12
2.26516e-12
2.26435e-12
2.26424e-12
2.26424e-12
2.2643e-12
2.26434e-12
2.2644e-12
2.26446e-12
2.26454e-12
2.26463e-12
2.26474e-12
2.26485e-12
2.26495e-12
2.26505e-12
2.2651e-12
2.26441e-12
2.2641e-12
2.26406e-12
2.26411e-12
2.26417e-12
2.26423e-12
2.2643e-12
2.26438e-12
2.26446e-12
2.26455e-12
2.26465e-12
2.26473e-12
2.26484e-12
2.26491e-12
2.26444e-12
2.26394e-12
2.26386e-12
2.26391e-12
2.26397e-12
2.26404e-12
2.26411e-12
2.26419e-12
2.26428e-12
2.26436e-12
2.26445e-12
2.26453e-12
2.26462e-12
2.2647e-12
2.26445e-12
2.26377e-12
2.26367e-12
2.26373e-12
2.26379e-12
2.26387e-12
2.26393e-12
2.26401e-12
2.26408e-12
2.26417e-12
2.26425e-12
2.26433e-12
2.2644e-12
2.26449e-12
2.26448e-12
2.26363e-12
2.26351e-12
2.26356e-12
2.26362e-12
2.26369e-12
2.26376e-12
2.26383e-12
2.2639e-12
2.26398e-12
2.26406e-12
2.26414e-12
2.2642e-12
2.26431e-12
2.26452e-12
2.26351e-12
2.26336e-12
2.26342e-12
2.26347e-12
2.26354e-12
2.2636e-12
2.26366e-12
2.26372e-12
2.26379e-12
2.26386e-12
2.26394e-12
2.264e-12
2.26412e-12
2.26458e-12
2.26341e-12
2.26325e-12
2.2633e-12
2.26335e-12
2.26341e-12
2.26345e-12
2.2635e-12
2.26355e-12
2.26361e-12
2.26367e-12
2.26376e-12
2.26382e-12
2.26394e-12
2.26468e-12
2.26335e-12
2.26317e-12
2.26321e-12
2.26325e-12
2.26329e-12
2.26332e-12
2.26336e-12
2.26339e-12
2.26345e-12
2.2635e-12
2.26359e-12
2.26366e-12
2.26377e-12
2.26477e-12
2.26332e-12
2.26313e-12
2.26315e-12
2.26318e-12
2.2632e-12
2.26322e-12
2.26324e-12
2.26326e-12
2.26331e-12
2.26336e-12
2.26346e-12
2.2635e-12
2.26362e-12
2.26486e-12
2.2633e-12
2.26312e-12
2.26313e-12
2.26316e-12
2.26318e-12
2.2632e-12
2.2632e-12
2.26321e-12
2.26324e-12
2.26328e-12
2.26335e-12
2.26335e-12
2.26343e-12
2.26522e-12
2.26343e-12
2.2632e-12
2.26322e-12
2.26332e-12
2.2634e-12
2.26345e-12
2.26345e-12
2.26344e-12
2.26342e-12
2.26342e-12
2.26342e-12
2.26333e-12
2.26332e-12
2.267e-12
2.26408e-12
2.26362e-12
2.26376e-12
2.26414e-12
2.26453e-12
2.26479e-12
2.26486e-12
2.26481e-12
2.26466e-12
2.26448e-12
2.26426e-12
2.264e-12
2.26389e-12
2.26266e-12
2.26303e-12
2.26332e-12
2.26355e-12
2.26373e-12
2.26388e-12
2.26402e-12
2.26414e-12
2.26426e-12
2.26437e-12
2.26449e-12
2.26458e-12
2.26463e-12
2.26459e-12
2.26277e-12
2.2631e-12
2.26335e-12
2.26356e-12
2.26373e-12
2.26389e-12
2.26404e-12
2.26418e-12
2.26432e-12
2.26445e-12
2.26459e-12
2.26468e-12
2.26475e-12
2.26478e-12
2.26281e-12
2.2631e-12
2.26333e-12
2.26354e-12
2.26372e-12
2.26389e-12
2.26405e-12
2.2642e-12
2.26434e-12
2.26448e-12
2.26462e-12
2.26472e-12
2.26483e-12
2.2649e-12
2.2628e-12
2.26305e-12
2.26328e-12
2.2635e-12
2.26369e-12
2.26387e-12
2.26404e-12
2.26419e-12
2.26433e-12
2.26447e-12
2.2646e-12
2.2647e-12
2.26481e-12
2.26491e-12
2.26276e-12
2.263e-12
2.26323e-12
2.26345e-12
2.26365e-12
2.26383e-12
2.264e-12
2.26415e-12
2.2643e-12
2.26443e-12
2.26456e-12
2.26465e-12
2.26476e-12
2.26485e-12
2.26271e-12
2.26294e-12
2.26317e-12
2.26339e-12
2.26359e-12
2.26378e-12
2.26395e-12
2.2641e-12
2.26424e-12
2.26437e-12
2.26449e-12
2.26459e-12
2.26467e-12
2.26477e-12
2.2627e-12
2.26292e-12
2.26314e-12
2.26336e-12
2.26355e-12
2.26373e-12
2.26389e-12
2.26404e-12
2.26417e-12
2.26429e-12
2.2644e-12
2.26451e-12
2.26458e-12
2.26469e-12
2.2627e-12
2.26289e-12
2.2631e-12
2.26332e-12
2.2635e-12
2.26367e-12
2.26382e-12
2.26396e-12
2.26407e-12
2.26419e-12
2.2643e-12
2.2644e-12
2.26448e-12
2.26459e-12
2.26273e-12
2.26289e-12
2.26309e-12
2.2633e-12
2.26346e-12
2.26362e-12
2.26374e-12
2.26386e-12
2.26396e-12
2.26408e-12
2.26417e-12
2.26429e-12
2.26436e-12
2.26448e-12
2.26279e-12
2.26289e-12
2.26308e-12
2.26327e-12
2.26341e-12
2.26354e-12
2.26365e-12
2.26376e-12
2.26385e-12
2.26396e-12
2.26405e-12
2.26417e-12
2.26424e-12
2.26436e-12
2.26287e-12
2.26292e-12
2.26309e-12
2.26324e-12
2.26336e-12
2.26347e-12
2.26356e-12
2.26365e-12
2.26373e-12
2.26382e-12
2.26392e-12
2.26404e-12
2.26411e-12
2.26423e-12
2.2629e-12
2.26292e-12
2.26308e-12
2.26321e-12
2.26331e-12
2.2634e-12
2.26347e-12
2.26354e-12
2.26361e-12
2.26369e-12
2.26377e-12
2.26389e-12
2.26393e-12
2.26402e-12
2.26292e-12
2.26291e-12
2.26307e-12
2.26317e-12
2.26326e-12
2.26332e-12
2.26337e-12
2.26342e-12
2.26347e-12
2.26353e-12
2.26361e-12
2.26368e-12
2.26366e-12
2.26368e-12
2.26302e-12
2.26292e-12
2.26306e-12
2.26315e-12
2.26325e-12
2.26332e-12
2.26337e-12
2.2634e-12
2.26343e-12
2.26345e-12
2.26347e-12
2.26344e-12
2.26336e-12
2.2633e-12
2.26013e-12
2.26061e-12
2.26103e-12
2.26137e-12
2.26165e-12
2.26189e-12
2.26211e-12
2.2623e-12
2.26247e-12
2.26262e-12
2.26277e-12
2.26288e-12
2.26296e-12
2.26297e-12
2.26038e-12
2.26082e-12
2.2612e-12
2.26153e-12
2.26182e-12
2.26208e-12
2.26231e-12
2.26252e-12
2.26271e-12
2.26289e-12
2.26307e-12
2.26319e-12
2.26329e-12
2.26338e-12
2.26059e-12
2.261e-12
2.26137e-12
2.26169e-12
2.26199e-12
2.26226e-12
2.26251e-12
2.26274e-12
2.26295e-12
2.26313e-12
2.26332e-12
2.26345e-12
2.26358e-12
2.26369e-12
2.26073e-12
2.26112e-12
2.26149e-12
2.26182e-12
2.26213e-12
2.26242e-12
2.26268e-12
2.26291e-12
2.26313e-12
2.26332e-12
2.2635e-12
2.26364e-12
2.26378e-12
2.26391e-12
2.26085e-12
2.26124e-12
2.26162e-12
2.26196e-12
2.26227e-12
2.26256e-12
2.26283e-12
2.26306e-12
2.26328e-12
2.26347e-12
2.26365e-12
2.26379e-12
2.26393e-12
2.26405e-12
2.26096e-12
2.26136e-12
2.26173e-12
2.26207e-12
2.26238e-12
2.26267e-12
2.26294e-12
2.26318e-12
2.2634e-12
2.26359e-12
2.26376e-12
2.26391e-12
2.26404e-12
2.26416e-12
2.2611e-12
2.2615e-12
2.26185e-12
2.26219e-12
2.26249e-12
2.26278e-12
2.26303e-12
2.26326e-12
2.26347e-12
2.26366e-12
2.26383e-12
2.26398e-12
2.2641e-12
2.26423e-12
2.26123e-12
2.26162e-12
2.26195e-12
2.26228e-12
2.26257e-12
2.26285e-12
2.26309e-12
2.26331e-12
2.26351e-12
2.2637e-12
2.26386e-12
2.26401e-12
2.26413e-12
2.26428e-12
2.26138e-12
2.26174e-12
2.26206e-12
2.26237e-12
2.26264e-12
2.26289e-12
2.26312e-12
2.26333e-12
2.26351e-12
2.26369e-12
2.26385e-12
2.26402e-12
2.26414e-12
2.2643e-12
2.26153e-12
2.26184e-12
2.26213e-12
2.26242e-12
2.26267e-12
2.26291e-12
2.26312e-12
2.26332e-12
2.26349e-12
2.26367e-12
2.26382e-12
2.264e-12
2.26412e-12
2.26429e-12
2.26167e-12
2.26193e-12
2.2622e-12
2.26246e-12
2.26269e-12
2.2629e-12
2.26309e-12
2.26327e-12
2.26343e-12
2.2636e-12
2.26376e-12
2.26394e-12
2.26406e-12
2.26425e-12
2.26176e-12
2.26198e-12
2.26224e-12
2.26247e-12
2.26267e-12
2.26286e-12
2.26303e-12
2.26319e-12
2.26335e-12
2.26351e-12
2.26367e-12
2.26385e-12
2.26395e-12
2.2641e-12
2.26179e-12
2.26199e-12
2.26224e-12
2.26244e-12
2.26262e-12
2.26278e-12
2.26292e-12
2.26307e-12
2.26321e-12
2.26336e-12
2.26351e-12
2.26367e-12
2.26374e-12
2.26383e-12
2.26178e-12
2.26196e-12
2.26221e-12
2.26238e-12
2.26254e-12
2.26268e-12
2.26282e-12
2.26295e-12
2.26308e-12
2.26321e-12
2.26333e-12
2.2634e-12
2.26342e-12
2.26345e-12
2.25662e-12
2.25711e-12
2.25756e-12
2.25795e-12
2.2583e-12
2.2586e-12
2.25889e-12
2.25914e-12
2.25936e-12
2.25957e-12
2.25977e-12
2.25993e-12
2.26007e-12
2.26013e-12
2.257e-12
2.25743e-12
2.25787e-12
2.25825e-12
2.25861e-12
2.25894e-12
2.25924e-12
2.25951e-12
2.25976e-12
2.25999e-12
2.26022e-12
2.26041e-12
2.26057e-12
2.26073e-12
2.25738e-12
2.25779e-12
2.25821e-12
2.25859e-12
2.25895e-12
2.25929e-12
2.2596e-12
2.25989e-12
2.26015e-12
2.2604e-12
2.26063e-12
2.26083e-12
2.26101e-12
2.2612e-12
2.25768e-12
2.25808e-12
2.25851e-12
2.25889e-12
2.25927e-12
2.25961e-12
2.25994e-12
2.26023e-12
2.26051e-12
2.26076e-12
2.261e-12
2.2612e-12
2.26141e-12
2.26161e-12
2.25797e-12
2.25838e-12
2.25881e-12
2.2592e-12
2.25957e-12
2.25992e-12
2.26026e-12
2.26056e-12
2.26083e-12
2.26109e-12
2.26133e-12
2.26154e-12
2.26175e-12
2.26193e-12
2.25826e-12
2.25868e-12
2.25909e-12
2.25948e-12
2.25985e-12
2.26021e-12
2.26054e-12
2.26084e-12
2.26112e-12
2.26139e-12
2.26163e-12
2.26185e-12
2.26205e-12
2.26224e-12
2.25856e-12
2.25898e-12
2.25937e-12
2.25975e-12
2.26012e-12
2.26046e-12
2.26079e-12
2.26109e-12
2.26137e-12
2.26164e-12
2.26189e-12
2.26211e-12
2.26232e-12
2.26252e-12
2.25884e-12
2.25924e-12
2.25962e-12
2.25999e-12
2.26034e-12
2.26069e-12
2.261e-12
2.26131e-12
2.26159e-12
2.26185e-12
2.2621e-12
2.26234e-12
2.26254e-12
2.26276e-12
2.25911e-12
2.25949e-12
2.25985e-12
2.26021e-12
2.26055e-12
2.26088e-12
2.26118e-12
2.26148e-12
2.26175e-12
2.26202e-12
2.26227e-12
2.26252e-12
2.26273e-12
2.26297e-12
2.25937e-12
2.25971e-12
2.26005e-12
2.26039e-12
2.26071e-12
2.26103e-12
2.26132e-12
2.26161e-12
2.26188e-12
2.26215e-12
2.2624e-12
2.26267e-12
2.26289e-12
2.26315e-12
2.25961e-12
2.25991e-12
2.26022e-12
2.26055e-12
2.26085e-12
2.26115e-12
2.26143e-12
2.26171e-12
2.26197e-12
2.26224e-12
2.2625e-12
2.26279e-12
2.26303e-12
2.26331e-12
2.25978e-12
2.26006e-12
2.26035e-12
2.26065e-12
2.26094e-12
2.26122e-12
2.26149e-12
2.26177e-12
2.26203e-12
2.2623e-12
2.26258e-12
2.26288e-12
2.26311e-12
2.26338e-12
2.25989e-12
2.26015e-12
2.26044e-12
2.26072e-12
2.26099e-12
2.26125e-12
2.26152e-12
2.26177e-12
2.26204e-12
2.26231e-12
2.26259e-12
2.26288e-12
2.26307e-12
2.26329e-12
2.25992e-12
2.26018e-12
2.26048e-12
2.26073e-12
2.26099e-12
2.26125e-12
2.26152e-12
2.26178e-12
2.26205e-12
2.26231e-12
2.26257e-12
2.26279e-12
2.26295e-12
2.26314e-12
2.2527e-12
2.2531e-12
2.25349e-12
2.25385e-12
2.25419e-12
2.25451e-12
2.25482e-12
2.25511e-12
2.25538e-12
2.25565e-12
2.25591e-12
2.25615e-12
2.25636e-12
2.2565e-12
2.25321e-12
2.25354e-12
2.25393e-12
2.25428e-12
2.25462e-12
2.25495e-12
2.25527e-12
2.25558e-12
2.25587e-12
2.25616e-12
2.25644e-12
2.2567e-12
2.25693e-12
2.25717e-12
2.25372e-12
2.25403e-12
2.2544e-12
2.25474e-12
2.25509e-12
2.25541e-12
2.25574e-12
2.25605e-12
2.25636e-12
2.25665e-12
2.25694e-12
2.25721e-12
2.25746e-12
2.25772e-12
2.25416e-12
2.25446e-12
2.25484e-12
2.25518e-12
2.25553e-12
2.25586e-12
2.2562e-12
2.25652e-12
2.25683e-12
2.25713e-12
2.25743e-12
2.2577e-12
2.25797e-12
2.25825e-12
2.25459e-12
2.25491e-12
2.25528e-12
2.25562e-12
2.25597e-12
2.25631e-12
2.25665e-12
2.25697e-12
2.25729e-12
2.2576e-12
2.2579e-12
2.25818e-12
2.25846e-12
2.25872e-12
2.25503e-12
2.25536e-12
2.25571e-12
2.25605e-12
2.2564e-12
2.25674e-12
2.25708e-12
2.25742e-12
2.25774e-12
2.25806e-12
2.25837e-12
2.25866e-12
2.25894e-12
2.2592e-12
2.25546e-12
2.25579e-12
2.25613e-12
2.25647e-12
2.25681e-12
2.25716e-12
2.2575e-12
2.25784e-12
2.25817e-12
2.25849e-12
2.25881e-12
2.25911e-12
2.2594e-12
2.25967e-12
2.25588e-12
2.25621e-12
2.25653e-12
2.25687e-12
2.25721e-12
2.25755e-12
2.25789e-12
2.25824e-12
2.25857e-12
2.25891e-12
2.25923e-12
2.25955e-12
2.25984e-12
2.26013e-12
2.25627e-12
2.25659e-12
2.2569e-12
2.25724e-12
2.25758e-12
2.25792e-12
2.25827e-12
2.25861e-12
2.25895e-12
2.25929e-12
2.25962e-12
2.25995e-12
2.26025e-12
2.26056e-12
2.25665e-12
2.25696e-12
2.25726e-12
2.2576e-12
2.25792e-12
2.25827e-12
2.25862e-12
2.25897e-12
2.25931e-12
2.25965e-12
2.25999e-12
2.26034e-12
2.26066e-12
2.26098e-12
2.25702e-12
2.2573e-12
2.25759e-12
2.25792e-12
2.25825e-12
2.25859e-12
2.25894e-12
2.25929e-12
2.25964e-12
2.25999e-12
2.26034e-12
2.26071e-12
2.26105e-12
2.26139e-12
2.25734e-12
2.25761e-12
2.2579e-12
2.25822e-12
2.25855e-12
2.25889e-12
2.25923e-12
2.25959e-12
2.25994e-12
2.2603e-12
2.26067e-12
2.26105e-12
2.26139e-12
2.26174e-12
2.25758e-12
2.25786e-12
2.25817e-12
2.25848e-12
2.25881e-12
2.25915e-12
2.2595e-12
2.25985e-12
2.26022e-12
2.26059e-12
2.26097e-12
2.26136e-12
2.26167e-12
2.26199e-12
2.25776e-12
2.25805e-12
2.25838e-12
2.2587e-12
2.25904e-12
2.25938e-12
2.25974e-12
2.2601e-12
2.26048e-12
2.26085e-12
2.26122e-12
2.26157e-12
2.26186e-12
2.26216e-12
2.24955e-12
2.24973e-12
2.24997e-12
2.25021e-12
2.25046e-12
2.25072e-12
2.251e-12
2.25128e-12
2.25156e-12
2.25184e-12
2.25212e-12
2.25239e-12
2.25263e-12
2.25284e-12
2.25014e-12
2.25027e-12
2.2505e-12
2.25071e-12
2.25095e-12
2.25121e-12
2.25149e-12
2.25178e-12
2.25207e-12
2.25237e-12
2.25266e-12
2.25295e-12
2.2532e-12
2.25348e-12
2.25068e-12
2.25081e-12
2.25103e-12
2.25123e-12
2.25148e-12
2.25174e-12
2.25202e-12
2.2523e-12
2.25259e-12
2.25289e-12
2.25318e-12
2.25347e-12
2.25374e-12
2.25403e-12
2.2512e-12
2.25133e-12
2.25156e-12
2.25176e-12
2.25201e-12
2.25227e-12
2.25255e-12
2.25284e-12
2.25313e-12
2.25343e-12
2.25373e-12
2.25402e-12
2.2543e-12
2.2546e-12
2.25169e-12
2.25185e-12
2.25207e-12
2.25229e-12
2.25254e-12
2.25281e-12
2.25309e-12
2.25338e-12
2.25368e-12
2.25398e-12
2.25428e-12
2.25458e-12
2.25486e-12
2.25516e-12
2.25221e-12
2.25239e-12
2.2526e-12
2.25283e-12
2.25308e-12
2.25335e-12
2.25364e-12
2.25394e-12
2.25424e-12
2.25455e-12
2.25486e-12
2.25516e-12
2.25545e-12
2.25574e-12
2.25272e-12
2.25291e-12
2.25313e-12
2.25336e-12
2.25362e-12
2.2539e-12
2.25419e-12
2.2545e-12
2.25481e-12
2.25512e-12
2.25544e-12
2.25575e-12
2.25605e-12
2.25633e-12
2.25323e-12
2.25343e-12
2.25365e-12
2.2539e-12
2.25416e-12
2.25445e-12
2.25475e-12
2.25506e-12
2.25538e-12
2.2557e-12
2.25602e-12
2.25634e-12
2.25665e-12
2.25694e-12
2.25372e-12
2.25393e-12
2.25416e-12
2.25442e-12
2.25469e-12
2.25499e-12
2.25529e-12
2.25561e-12
2.25594e-12
2.25627e-12
2.2566e-12
2.25693e-12
2.25725e-12
2.25755e-12
2.25422e-12
2.25443e-12
2.25466e-12
2.25494e-12
2.25522e-12
2.25552e-12
2.25584e-12
2.25616e-12
2.2565e-12
2.25684e-12
2.25718e-12
2.25752e-12
2.25786e-12
2.25816e-12
2.25469e-12
2.25491e-12
2.25515e-12
2.25543e-12
2.25573e-12
2.25604e-12
2.25637e-12
2.25671e-12
2.25705e-12
2.2574e-12
2.25776e-12
2.25811e-12
2.25847e-12
2.25878e-12
2.25516e-12
2.25538e-12
2.25563e-12
2.25592e-12
2.25623e-12
2.25655e-12
2.25688e-12
2.25723e-12
2.25759e-12
2.25794e-12
2.25831e-12
2.25869e-12
2.25905e-12
2.25937e-12
2.25554e-12
2.25578e-12
2.25607e-12
2.25637e-12
2.25669e-12
2.25703e-12
2.25738e-12
2.25774e-12
2.25811e-12
2.25848e-12
2.25886e-12
2.25925e-12
2.2596e-12
2.2599e-12
2.25589e-12
2.25616e-12
2.25649e-12
2.25681e-12
2.25715e-12
2.25749e-12
2.25786e-12
2.25822e-12
2.2586e-12
2.25898e-12
2.25935e-12
2.25971e-12
2.26003e-12
2.26034e-12
2.24786e-12
2.24786e-12
2.24793e-12
2.24803e-12
2.24816e-12
2.2483e-12
2.24847e-12
2.24866e-12
2.24886e-12
2.24908e-12
2.2493e-12
2.24953e-12
2.24973e-12
2.24993e-12
2.24843e-12
2.24838e-12
2.24845e-12
2.24853e-12
2.24864e-12
2.24878e-12
2.24895e-12
2.24914e-12
2.24934e-12
2.24957e-12
2.24979e-12
2.25003e-12
2.25023e-12
2.25047e-12
2.24893e-12
2.24888e-12
2.24895e-12
2.24904e-12
2.24915e-12
2.2493e-12
2.24946e-12
2.24965e-12
2.24985e-12
2.25006e-12
2.25028e-12
2.25051e-12
2.25072e-12
2.25097e-12
2.24943e-12
2.24939e-12
2.24947e-12
2.24956e-12
2.24968e-12
2.24983e-12
2.25e-12
2.25018e-12
2.25038e-12
2.2506e-12
2.25082e-12
2.25105e-12
2.25126e-12
2.25151e-12
2.2499e-12
2.2499e-12
2.24999e-12
2.25009e-12
2.25022e-12
2.25037e-12
2.25055e-12
2.25073e-12
2.25094e-12
2.25115e-12
2.25137e-12
2.25159e-12
2.25181e-12
2.25205e-12
2.2504e-12
2.25045e-12
2.25053e-12
2.25065e-12
2.25078e-12
2.25094e-12
2.25111e-12
2.25131e-12
2.25151e-12
2.25173e-12
2.25196e-12
2.25218e-12
2.25241e-12
2.25264e-12
2.2509e-12
2.25098e-12
2.25108e-12
2.2512e-12
2.25134e-12
2.25151e-12
2.25169e-12
2.2519e-12
2.25211e-12
2.25233e-12
2.25256e-12
2.25279e-12
2.25302e-12
2.25324e-12
2.25143e-12
2.25153e-12
2.25163e-12
2.25177e-12
2.25192e-12
2.2521e-12
2.25229e-12
2.2525e-12
2.25272e-12
2.25294e-12
2.25318e-12
2.25341e-12
2.25365e-12
2.25387e-12
2.25194e-12
2.25206e-12
2.25217e-12
2.25233e-12
2.2525e-12
2.25269e-12
2.25289e-12
2.25311e-12
2.25334e-12
2.25357e-12
2.25381e-12
2.25405e-12
2.25429e-12
2.25451e-12
2.25247e-12
2.25259e-12
2.25272e-12
2.2529e-12
2.25308e-12
2.25328e-12
2.2535e-12
2.25373e-12
2.25396e-12
2.2542e-12
2.25445e-12
2.2547e-12
2.25496e-12
2.25517e-12
2.25298e-12
2.25312e-12
2.25326e-12
2.25345e-12
2.25366e-12
2.25388e-12
2.25411e-12
2.25435e-12
2.2546e-12
2.25484e-12
2.2551e-12
2.25536e-12
2.25563e-12
2.25585e-12
2.2535e-12
2.25365e-12
2.25382e-12
2.25402e-12
2.25424e-12
2.25447e-12
2.25472e-12
2.25497e-12
2.25522e-12
2.25548e-12
2.25576e-12
2.25603e-12
2.25631e-12
2.25653e-12
2.25395e-12
2.25412e-12
2.25433e-12
2.25456e-12
2.2548e-12
2.25505e-12
2.25532e-12
2.25558e-12
2.25585e-12
2.25613e-12
2.25641e-12
2.2567e-12
2.25697e-12
2.25718e-12
2.2544e-12
2.2546e-12
2.25486e-12
2.2551e-12
2.25537e-12
2.25563e-12
2.25591e-12
2.25619e-12
2.25647e-12
2.25675e-12
2.25703e-12
2.2573e-12
2.25756e-12
2.25777e-12
2.24746e-12
2.24737e-12
2.24734e-12
2.24733e-12
2.24734e-12
2.24737e-12
2.24742e-12
2.2475e-12
2.24758e-12
2.24769e-12
2.24781e-12
2.24794e-12
2.24805e-12
2.24817e-12
2.2479e-12
2.2478e-12
2.24777e-12
2.24775e-12
2.24775e-12
2.24777e-12
2.24782e-12
2.24789e-12
2.24798e-12
2.24809e-12
2.2482e-12
2.24833e-12
2.24844e-12
2.24858e-12
2.2483e-12
2.2482e-12
2.24818e-12
2.24816e-12
2.24817e-12
2.24819e-12
2.24824e-12
2.24832e-12
2.2484e-12
2.2485e-12
2.2486e-12
2.24873e-12
2.24883e-12
2.24897e-12
2.24871e-12
2.24863e-12
2.24861e-12
2.2486e-12
2.24861e-12
2.24864e-12
2.24869e-12
2.24876e-12
2.24884e-12
2.24894e-12
2.24904e-12
2.24915e-12
2.24926e-12
2.2494e-12
2.24911e-12
2.24905e-12
2.24904e-12
2.24904e-12
2.24906e-12
2.24909e-12
2.24915e-12
2.24922e-12
2.2493e-12
2.24939e-12
2.2495e-12
2.2496e-12
2.24971e-12
2.24984e-12
2.24954e-12
2.2495e-12
2.2495e-12
2.24951e-12
2.24953e-12
2.24957e-12
2.24962e-12
2.2497e-12
2.24978e-12
2.24988e-12
2.24998e-12
2.25008e-12
2.25019e-12
2.25031e-12
2.24997e-12
2.24995e-12
2.24996e-12
2.24998e-12
2.25001e-12
2.25006e-12
2.25012e-12
2.25019e-12
2.25028e-12
2.25038e-12
2.25048e-12
2.25059e-12
2.2507e-12
2.2508e-12
2.2504e-12
2.25041e-12
2.25043e-12
2.25046e-12
2.2505e-12
2.25056e-12
2.25063e-12
2.25071e-12
2.2508e-12
2.2509e-12
2.25101e-12
2.25112e-12
2.25123e-12
2.25133e-12
2.25083e-12
2.25087e-12
2.2509e-12
2.25095e-12
2.251e-12
2.25107e-12
2.25115e-12
2.25124e-12
2.25134e-12
2.25144e-12
2.25155e-12
2.25166e-12
2.25178e-12
2.25187e-12
2.25129e-12
2.25134e-12
2.25139e-12
2.25145e-12
2.25152e-12
2.2516e-12
2.25168e-12
2.25178e-12
2.25189e-12
2.252e-12
2.25212e-12
2.25223e-12
2.25236e-12
2.25244e-12
2.25174e-12
2.25181e-12
2.25188e-12
2.25196e-12
2.25204e-12
2.25213e-12
2.25223e-12
2.25234e-12
2.25246e-12
2.25258e-12
2.2527e-12
2.25282e-12
2.25296e-12
2.25303e-12
2.25222e-12
2.25231e-12
2.25238e-12
2.25247e-12
2.25257e-12
2.25267e-12
2.25279e-12
2.25291e-12
2.25304e-12
2.25317e-12
2.2533e-12
2.25342e-12
2.25357e-12
2.25363e-12
2.25267e-12
2.25277e-12
2.25287e-12
2.25298e-12
2.2531e-12
2.25322e-12
2.25335e-12
2.25348e-12
2.25362e-12
2.25377e-12
2.2539e-12
2.25403e-12
2.25418e-12
2.25423e-12
2.25313e-12
2.25324e-12
2.25338e-12
2.25351e-12
2.25365e-12
2.25378e-12
2.25392e-12
2.25406e-12
2.25421e-12
2.25436e-12
2.25449e-12
2.25462e-12
2.25476e-12
2.25484e-12
2.24777e-12
2.24765e-12
2.24757e-12
2.24749e-12
2.24744e-12
2.24739e-12
2.24735e-12
2.24733e-12
2.24733e-12
2.24733e-12
2.24734e-12
2.24737e-12
2.24738e-12
2.24742e-12
2.24809e-12
2.24796e-12
2.24788e-12
2.24779e-12
2.24773e-12
2.24767e-12
2.24764e-12
2.24761e-12
2.2476e-12
2.2476e-12
2.24761e-12
2.24763e-12
2.24763e-12
2.24769e-12
2.24837e-12
2.24824e-12
2.24817e-12
2.24808e-12
2.24802e-12
2.24797e-12
2.24794e-12
2.24791e-12
2.24789e-12
2.24788e-12
2.24788e-12
2.2479e-12
2.2479e-12
2.24796e-12
2.24866e-12
2.24854e-12
2.24847e-12
2.24839e-12
2.24833e-12
2.24828e-12
2.24824e-12
2.24821e-12
2.24819e-12
2.24818e-12
2.24818e-12
2.24819e-12
2.24819e-12
2.24824e-12
2.24894e-12
2.24884e-12
2.24877e-12
2.2487e-12
2.24865e-12
2.2486e-12
2.24856e-12
2.24854e-12
2.24852e-12
2.2485e-12
2.2485e-12
2.2485e-12
2.2485e-12
2.24853e-12
2.24924e-12
2.24915e-12
2.24909e-12
2.24903e-12
2.24898e-12
2.24893e-12
2.2489e-12
2.24887e-12
2.24885e-12
2.24884e-12
2.24883e-12
2.24883e-12
2.24882e-12
2.24883e-12
2.24955e-12
2.24948e-12
2.24942e-12
2.24937e-12
2.24932e-12
2.24928e-12
2.24925e-12
2.24922e-12
2.2492e-12
2.24919e-12
2.24918e-12
2.24917e-12
2.24916e-12
2.24916e-12
2.24987e-12
2.24981e-12
2.24976e-12
2.24972e-12
2.24968e-12
2.24964e-12
2.24961e-12
2.24959e-12
2.24957e-12
2.24956e-12
2.24955e-12
2.24953e-12
2.24953e-12
2.24951e-12
2.25019e-12
2.25015e-12
2.25011e-12
2.25008e-12
2.25004e-12
2.25001e-12
2.24999e-12
2.24997e-12
2.24995e-12
2.24994e-12
2.24993e-12
2.24991e-12
2.24991e-12
2.24989e-12
2.25053e-12
2.25051e-12
2.25048e-12
2.25045e-12
2.25042e-12
2.2504e-12
2.25038e-12
2.25036e-12
2.25035e-12
2.25034e-12
2.25033e-12
2.25031e-12
2.25032e-12
2.2503e-12
2.25087e-12
2.25088e-12
2.25085e-12
2.25084e-12
2.25082e-12
2.2508e-12
2.25079e-12
2.25078e-12
2.25077e-12
2.25076e-12
2.25075e-12
2.25073e-12
2.25075e-12
2.25072e-12
2.25124e-12
2.25126e-12
2.25124e-12
2.25124e-12
2.25122e-12
2.25121e-12
2.25121e-12
2.2512e-12
2.2512e-12
2.25119e-12
2.25119e-12
2.25118e-12
2.25121e-12
2.25116e-12
2.25161e-12
2.25164e-12
2.25163e-12
2.25164e-12
2.25164e-12
2.25164e-12
2.25164e-12
2.25164e-12
2.25164e-12
2.25164e-12
2.25163e-12
2.25163e-12
2.25165e-12
2.2516e-12
2.25201e-12
2.25202e-12
2.25204e-12
2.25205e-12
2.25207e-12
2.25208e-12
2.25209e-12
2.25209e-12
2.2521e-12
2.25209e-12
2.25209e-12
2.25209e-12
2.2521e-12
2.25207e-12
2.24834e-12
2.24821e-12
2.2481e-12
2.248e-12
2.2479e-12
2.24781e-12
2.24772e-12
2.24763e-12
2.24756e-12
2.24749e-12
2.24743e-12
2.24737e-12
2.24731e-12
2.24725e-12
2.24854e-12
2.24841e-12
2.2483e-12
2.24818e-12
2.24808e-12
2.24797e-12
2.24788e-12
2.24779e-12
2.24772e-12
2.24764e-12
2.24758e-12
2.24752e-12
2.24744e-12
2.2474e-12
2.2487e-12
2.24857e-12
2.24846e-12
2.24835e-12
2.24825e-12
2.24815e-12
2.24806e-12
2.24797e-12
2.24789e-12
2.24781e-12
2.24774e-12
2.24767e-12
2.24759e-12
2.24755e-12
2.24888e-12
2.24874e-12
2.24865e-12
2.24853e-12
2.24843e-12
2.24833e-12
2.24824e-12
2.24815e-12
2.24806e-12
2.24798e-12
2.2479e-12
2.24783e-12
2.24775e-12
2.2477e-12
2.24904e-12
2.24892e-12
2.24882e-12
2.24871e-12
2.24862e-12
2.24852e-12
2.24843e-12
2.24833e-12
2.24825e-12
2.24816e-12
2.24808e-12
2.248e-12
2.24792e-12
2.24785e-12
2.24922e-12
2.2491e-12
2.24901e-12
2.24891e-12
2.24881e-12
2.24871e-12
2.24862e-12
2.24853e-12
2.24844e-12
2.24835e-12
2.24826e-12
2.24818e-12
2.24809e-12
2.24801e-12
2.2494e-12
2.2493e-12
2.24921e-12
2.24911e-12
2.24901e-12
2.24892e-12
2.24883e-12
2.24873e-12
2.24864e-12
2.24855e-12
2.24846e-12
2.24837e-12
2.24828e-12
2.24819e-12
2.2496e-12
2.24951e-12
2.24942e-12
2.24932e-12
2.24923e-12
2.24913e-12
2.24904e-12
2.24895e-12
2.24885e-12
2.24876e-12
2.24867e-12
2.24857e-12
2.24848e-12
2.24838e-12
2.2498e-12
2.24972e-12
2.24963e-12
2.24954e-12
2.24945e-12
2.24936e-12
2.24926e-12
2.24917e-12
2.24908e-12
2.24898e-12
2.24889e-12
2.24879e-12
2.24869e-12
2.24858e-12
2.25002e-12
2.24995e-12
2.24986e-12
2.24978e-12
2.24968e-12
2.24959e-12
2.2495e-12
2.2494e-12
2.24931e-12
2.24921e-12
2.24912e-12
2.24901e-12
2.24891e-12
2.2488e-12
2.25024e-12
2.25018e-12
2.25009e-12
2.25001e-12
2.24992e-12
2.24983e-12
2.24974e-12
2.24965e-12
2.24955e-12
2.24945e-12
2.24935e-12
2.24924e-12
2.24914e-12
2.24902e-12
2.25047e-12
2.25042e-12
2.25034e-12
2.25026e-12
2.25017e-12
2.25008e-12
2.24999e-12
2.2499e-12
2.2498e-12
2.24969e-12
2.24959e-12
2.24947e-12
2.24938e-12
2.24925e-12
2.25071e-12
2.25066e-12
2.25059e-12
2.25052e-12
2.25043e-12
2.25034e-12
2.25025e-12
2.25015e-12
2.25005e-12
2.24994e-12
2.24984e-12
2.24972e-12
2.24962e-12
2.24948e-12
2.25097e-12
2.25091e-12
2.25084e-12
2.25077e-12
2.25069e-12
2.25061e-12
2.25052e-12
2.25042e-12
2.25032e-12
2.25021e-12
2.2501e-12
2.24998e-12
2.24986e-12
2.24973e-12
2.24891e-12
2.24877e-12
2.24866e-12
2.24854e-12
2.24841e-12
2.24829e-12
2.24817e-12
2.24804e-12
2.24792e-12
2.2478e-12
2.24768e-12
2.24756e-12
2.24745e-12
2.24732e-12
2.24899e-12
2.24885e-12
2.24874e-12
2.24861e-12
2.24848e-12
2.24835e-12
2.24823e-12
2.2481e-12
2.24798e-12
2.24785e-12
2.24774e-12
2.24762e-12
2.2475e-12
2.24738e-12
2.24905e-12
2.24891e-12
2.2488e-12
2.24867e-12
2.24855e-12
2.24842e-12
2.2483e-12
2.24817e-12
2.24804e-12
2.24792e-12
2.2478e-12
2.24767e-12
2.24755e-12
2.24744e-12
2.24912e-12
2.24899e-12
2.24888e-12
2.24874e-12
2.24862e-12
2.24849e-12
2.24837e-12
2.24824e-12
2.24811e-12
2.24798e-12
2.24786e-12
2.24773e-12
2.2476e-12
2.24749e-12
2.24918e-12
2.24906e-12
2.24895e-12
2.24882e-12
2.2487e-12
2.24857e-12
2.24844e-12
2.24831e-12
2.24818e-12
2.24805e-12
2.24792e-12
2.24778e-12
2.24765e-12
2.24752e-12
2.24925e-12
2.24913e-12
2.24902e-12
2.2489e-12
2.24878e-12
2.24865e-12
2.24852e-12
2.24838e-12
2.24825e-12
2.24811e-12
2.24798e-12
2.24784e-12
2.2477e-12
2.24756e-12
2.24932e-12
2.24921e-12
2.2491e-12
2.24898e-12
2.24885e-12
2.24873e-12
2.2486e-12
2.24846e-12
2.24832e-12
2.24818e-12
2.24804e-12
2.24789e-12
2.24775e-12
2.2476e-12
2.2494e-12
2.24929e-12
2.24918e-12
2.24906e-12
2.24893e-12
2.2488e-12
2.24867e-12
2.24853e-12
2.24839e-12
2.24825e-12
2.2481e-12
2.24795e-12
2.2478e-12
2.24765e-12
2.24948e-12
2.24938e-12
2.24926e-12
2.24914e-12
2.24901e-12
2.24888e-12
2.24875e-12
2.24861e-12
2.24846e-12
2.24832e-12
2.24816e-12
2.24801e-12
2.24785e-12
2.24769e-12
2.24957e-12
2.24947e-12
2.24935e-12
2.24923e-12
2.2491e-12
2.24897e-12
2.24883e-12
2.24868e-12
2.24853e-12
2.24838e-12
2.24823e-12
2.24807e-12
2.24791e-12
2.24774e-12
2.24966e-12
2.24956e-12
2.24944e-12
2.24932e-12
2.24918e-12
2.24905e-12
2.2489e-12
2.24876e-12
2.24861e-12
2.24845e-12
2.24829e-12
2.24812e-12
2.24796e-12
2.24779e-12
2.24975e-12
2.24965e-12
2.24953e-12
2.24941e-12
2.24927e-12
2.24913e-12
2.24898e-12
2.24883e-12
2.24868e-12
2.24852e-12
2.24835e-12
2.24818e-12
2.24801e-12
2.24783e-12
2.24984e-12
2.24974e-12
2.24962e-12
2.24949e-12
2.24935e-12
2.24921e-12
2.24906e-12
2.24891e-12
2.24875e-12
2.24859e-12
2.24841e-12
2.24824e-12
2.24806e-12
2.24786e-12
2.24992e-12
2.24982e-12
2.2497e-12
2.24957e-12
2.24944e-12
2.24929e-12
2.24914e-12
2.24899e-12