/*--------------------------------*- C++ -*----------------------------------*\
| =========                 |                                                 |
| \\      /  F ield         | OpenFOAM: The Open Source CFD Toolbox           |
|  \\    /   O peration     | Version:  v2106                                 |
|   \\  /    A nd           | Website:  www.openfoam.com                      |
|    \\/     M anipulation  |                                                 |
\*---------------------------------------------------------------------------*/
FoamFile
{
    version     2.0;
    format      ascii;
    arch        "LSB;label=32;scalar=64";
    class       volVectorField;
    location    "0.000138";
    object      U;
}
// * * * * * * * * * * * * * * * * * * * * * * * * * * * * * * * * * * * * * //

dimensions      [0 1 -1 0 0 0 0];

internalField   nonuniform List<vector> 
17920
(
(0.0169974 -0.0164871 3.09629)
(0.0210294 -0.0170666 3.09446)
(0.017262 -0.0129235 3.0981)
(0.0209168 -0.0129488 3.09672)
(0.0176074 -0.0104083 3.10069)
(0.0215941 -0.0100155 3.09908)
(0.0175017 -0.00744486 3.10266)
(0.0212114 -0.00715539 3.10092)
(0.0175058 -0.00454742 3.10447)
(0.0210021 -0.00433913 3.10236)
(0.0175512 -0.00158673 3.10574)
(0.0208362 -0.00152441 3.10344)
(0.0176428 0.00129226 3.10666)
(0.020799 0.00131801 3.10417)
(0.0176783 0.00423347 3.10708)
(0.0208171 0.00422377 3.10458)
(0.0176955 0.00683025 3.10693)
(0.0208708 0.00688468 3.10458)
(0.0177428 0.00985957 3.10635)
(0.021056 0.0097746 3.10414)
(0.0177363 0.0127848 3.10516)
(0.0212299 0.0125758 3.10331)
(0.017776 0.0157788 3.10377)
(0.0215261 0.0154131 3.10215)
(0.0174139 0.018514 3.10181)
(0.0208511 0.0182938 3.10039)
(0.0174095 0.0220377 3.10056)
(0.0213881 0.0222413 3.09866)
(-0.00994634 -0.00683811 2.81028)
(-0.00728419 -0.00692234 2.81151)
(-0.00533032 -0.00690686 2.8126)
(-0.00353604 -0.00658953 2.81343)
(-0.00179815 -0.00629136 2.81414)
(-7.03532e-05 -0.00619758 2.81462)
(0.00160995 -0.00618391 2.81493)
(0.00323447 -0.00632289 2.81503)
(0.00476871 -0.00657858 2.81493)
(0.00635752 -0.0068917 2.81463)
(0.00784589 -0.00730267 2.81406)
(0.00926809 -0.00776967 2.81334)
(0.010832 -0.00775161 2.81234)
(0.0130837 -0.00809008 2.81132)
(-0.00976205 -0.00459161 2.81189)
(-0.00718284 -0.00459518 2.81254)
(-0.00533524 -0.00447409 2.81385)
(-0.00335607 -0.00434331 2.81478)
(-0.00158411 -0.0041859 2.81572)
(0.00010849 -0.0041687 2.81633)
(0.0016453 -0.00420091 2.81677)
(0.00308104 -0.00432548 2.81689)
(0.00445251 -0.0045303 2.81668)
(0.00596478 -0.00471935 2.81623)
(0.0075072 -0.00495741 2.81542)
(0.00922045 -0.00517905 2.81453)
(0.0108709 -0.00532458 2.81337)
(0.0131735 -0.00556543 2.81277)
(-0.00984362 -0.00295844 2.81323)
(-0.00714252 -0.00300103 2.81407)
(-0.00534937 -0.00295456 2.8156)
(-0.00341459 -0.00280486 2.8165)
(-0.00172601 -0.00259757 2.81743)
(-4.98874e-05 -0.00249092 2.81798)
(0.00153763 -0.00241167 2.81833)
(0.00304216 -0.00247778 2.81842)
(0.00449533 -0.00268905 2.81826)
(0.00602026 -0.00291458 2.8179)
(0.00750158 -0.00319846 2.81712)
(0.00916541 -0.0034572 2.81632)
(0.0106983 -0.00353598 2.81495)
(0.0130176 -0.00358551 2.81409)
(-0.00935393 -0.00156274 2.81429)
(-0.00690807 -0.00128088 2.81528)
(-0.00516349 -0.00124089 2.81679)
(-0.00331679 -0.00112475 2.81775)
(-0.00168849 -0.000977439 2.81871)
(-7.08085e-05 -0.000913698 2.81932)
(0.00147772 -0.000865062 2.81969)
(0.00294007 -0.000919729 2.81979)
(0.00438349 -0.00106692 2.81961)
(0.00589455 -0.00119764 2.81919)
(0.00736767 -0.00138029 2.81838)
(0.00899228 -0.00154379 2.81755)
(0.0104867 -0.00157722 2.81619)
(0.0126135 -0.00180569 2.8152)
(-0.00893449 -0.000108821 2.81512)
(-0.00668682 0.000273227 2.81643)
(-0.00491757 0.00024101 2.81793)
(-0.00316105 0.000346151 2.81894)
(-0.00158411 0.000470386 2.81986)
(-3.17106e-05 0.000537577 2.82046)
(0.00146884 0.000598809 2.8208)
(0.00288038 0.000567045 2.8209)
(0.00428395 0.000454184 2.82074)
(0.00574808 0.000355595 2.82032)
(0.00719328 0.000226353 2.81956)
(0.00876909 0.000131876 2.8187)
(0.0103001 0.000195866 2.81734)
(0.012292 -5.36358e-05 2.81609)
(-0.00862993 0.00139383 2.81576)
(-0.00653423 0.00179539 2.81725)
(-0.00472063 0.00176408 2.81866)
(-0.00304684 0.00185481 2.81974)
(-0.00150124 0.00193172 2.82066)
(-4.84284e-06 0.00197006 2.82129)
(0.00145917 0.00200982 2.82163)
(0.0028323 0.00199046 2.82174)
(0.00421526 0.00192644 2.82157)
(0.00565419 0.00188499 2.82112)
(0.0070947 0.00182772 2.82036)
(0.00864329 0.0017994 2.81946)
(0.0102586 0.00188489 2.81817)
(0.0121767 0.00166112 2.81679)
(-0.00841652 0.00295082 2.81618)
(-0.00640465 0.00323202 2.81784)
(-0.00455035 0.00324365 2.8192)
(-0.00293586 0.00332454 2.82033)
(-0.00141438 0.00336442 2.82124)
(3.93709e-05 0.00338519 2.82189)
(0.00147463 0.00340805 2.82222)
(0.00281982 0.00339833 2.82233)
(0.0041849 0.00336917 2.82216)
(0.00560826 0.00336368 2.8217)
(0.00704994 0.00335769 2.82096)
(0.0085851 0.00337148 2.82001)
(0.010292 0.00342492 2.81878)
(0.0121831 0.00334244 2.81729)
(-0.00831095 0.00455902 2.81647)
(-0.00632128 0.00468258 2.81816)
(-0.00448974 0.00475225 2.81953)
(-0.0029027 0.00482622 2.82068)
(-0.00140385 0.00482038 2.8216)
(3.29359e-05 0.0048163 2.82226)
(0.00146025 0.00481109 2.82259)
(0.00280249 0.00480687 2.8227)
(0.00416969 0.00481188 2.82253)
(0.00559877 0.00484098 2.82207)
(0.00704517 0.0048841 2.82131)
(0.00859072 0.00491097 2.82036)
(0.0103412 0.00490005 2.81913)
(0.0122521 0.004993 2.81763)
(-0.00828105 0.00613375 2.81652)
(-0.00626064 0.00608896 2.8181)
(-0.00451687 0.00622568 2.81956)
(-0.00291491 0.00626922 2.82069)
(-0.00142756 0.00621956 2.82162)
(1.87792e-05 0.0061771 2.82227)
(0.00145518 0.00613762 2.82261)
(0.00281438 0.00612937 2.82271)
(0.00420608 0.00615855 2.82254)
(0.00566868 0.00622549 2.82209)
(0.00714115 0.00631516 2.82132)
(0.00873258 0.00637044 2.8204)
(0.0104638 0.00630934 2.81912)
(0.0124198 0.00659428 2.81773)
(-0.00837598 0.00778799 2.8163)
(-0.00631292 0.00765002 2.8178)
(-0.00466207 0.00778552 2.81935)
(-0.00303172 0.00779498 2.82047)
(-0.00153815 0.00768242 2.82142)
(-5.24281e-05 0.00760429 2.82204)
(0.00141894 0.00752831 2.82238)
(0.00282515 0.00751257 2.82248)
(0.00426862 0.00755869 2.82232)
(0.00579254 0.00764902 2.82189)
(0.00731037 0.00778513 2.8211)
(0.00897226 0.00783886 2.82021)
(0.0106762 0.00776481 2.81886)
(0.0126995 0.00811169 2.81758)
(-0.00860145 0.00950609 2.8159)
(-0.00645661 0.00936147 2.81722)
(-0.00485941 0.00944974 2.8188)
(-0.00317995 0.0094032 2.8199)
(-0.00165816 0.00923101 2.82089)
(-0.000125184 0.00911028 2.82152)
(0.00138344 0.00899898 2.82186)
(0.00282644 0.00896535 2.82196)
(0.00432069 0.00901653 2.82177)
(0.00590416 0.00912957 2.82133)
(0.00747677 0.00930612 2.82049)
(0.00922018 0.00938219 2.81961)
(0.0109036 0.00937047 2.81823)
(0.0130577 0.00966516 2.81716)
(-0.00880237 0.0112536 2.81528)
(-0.00654407 0.0112215 2.81657)
(-0.00499789 0.0112735 2.81821)
(-0.00329439 0.0111451 2.8193)
(-0.00175269 0.0108978 2.82027)
(-0.000198659 0.0107195 2.82086)
(0.00131414 0.0105622 2.82116)
(0.00276409 0.010507 2.82125)
(0.00428672 0.0105714 2.82109)
(0.00592676 0.0107053 2.82066)
(0.00757469 0.0109294 2.81984)
(0.00940636 0.0110465 2.81896)
(0.0110849 0.0110887 2.8175)
(0.0134606 0.0111397 2.81658)
(-0.00881514 0.013191 2.81461)
(-0.00667782 0.0130776 2.81568)
(-0.00503798 0.0130491 2.81704)
(-0.00332924 0.0128366 2.81814)
(-0.00172708 0.0125933 2.81912)
(-0.000172021 0.0124457 2.81978)
(0.00130297 0.0123203 2.82014)
(0.00268098 0.0122255 2.82021)
(0.00416803 0.0121977 2.81996)
(0.00581112 0.0122607 2.81947)
(0.00753751 0.0124611 2.81865)
(0.00942443 0.0126125 2.81775)
(0.0111988 0.0127675 2.81652)
(0.0134956 0.0127514 2.8158)
(-0.00886767 0.0157095 2.81369)
(-0.00673374 0.0154835 2.81528)
(-0.00502202 0.0155309 2.81645)
(-0.00357294 0.0150802 2.81741)
(-0.00206157 0.0146703 2.81812)
(-0.000502546 0.0144155 2.81862)
(0.00109707 0.0142438 2.81884)
(0.00263902 0.0141308 2.81891)
(0.00427869 0.0141292 2.8188)
(0.00597683 0.01421 2.8184)
(0.00769849 0.0144938 2.81778)
(0.0094503 0.0147967 2.81697)
(0.0113662 0.0149388 2.81603)
(0.0137591 0.0148942 2.81488)
(-0.00628756 -0.0023147 2.5395)
(-0.00456239 -0.00271636 2.53994)
(-0.00318751 -0.00230111 2.53999)
(-0.00182208 -0.0019866 2.54001)
(-0.00047288 -0.00166903 2.54007)
(0.000847225 -0.00161075 2.54004)
(0.00208203 -0.00161841 2.54002)
(0.0032509 -0.00178016 2.54001)
(0.00439143 -0.00203632 2.54005)
(0.00552354 -0.00234025 2.5401)
(0.00658211 -0.00279004 2.54009)
(0.00755697 -0.00326007 2.54011)
(0.00844076 -0.00375191 2.54013)
(0.0095759 -0.00371511 2.53993)
(-0.00646025 -0.00116511 2.54008)
(-0.00445416 -0.0010918 2.53971)
(-0.00284949 -0.000837582 2.5399)
(-0.00135988 -0.000623069 2.53999)
(-5.67166e-05 -0.000318598 2.54024)
(0.00112784 -0.000212242 2.54037)
(0.00215826 -0.000176446 2.54052)
(0.00309682 -0.000304915 2.54054)
(0.0039971 -0.000550529 2.54049)
(0.00494684 -0.000836747 2.54039)
(0.0059493 -0.00122829 2.54017)
(0.00710588 -0.00153259 2.54005)
(0.00839329 -0.00182796 2.53997)
(0.00996281 -0.00204343 2.54042)
(-0.0060174 -0.000212084 2.54025)
(-0.00423229 0.000205206 2.53996)
(-0.00273936 0.000371917 2.54046)
(-0.00140148 0.000607354 2.54051)
(-0.000193977 0.000867283 2.54074)
(0.000955277 0.000996062 2.54078)
(0.00202269 0.00106933 2.54082)
(0.00303599 0.00099232 2.54085)
(0.00401644 0.000797699 2.54088)
(0.00499131 0.000548462 2.54091)
(0.00596144 0.000216771 2.54075)
(0.00697853 -0.000101443 2.54075)
(0.00813683 -0.000276233 2.54041)
(0.00945653 -0.000712392 2.54067)
(-0.00551733 0.000769323 2.54036)
(-0.00394079 0.00142979 2.54022)
(-0.00247643 0.00148575 2.54065)
(-0.00120722 0.00171071 2.54068)
(-5.64963e-05 0.0019156 2.54093)
(0.00101571 0.00204086 2.54102)
(0.00200117 0.00211146 2.5411)
(0.00293125 0.00205993 2.54114)
(0.00384384 0.00191489 2.54115)
(0.00476993 0.00172438 2.54113)
(0.00572713 0.00149479 2.54098)
(0.00672006 0.00124461 2.54102)
(0.00786695 0.00120845 2.54074)
(0.00905813 0.000653387 2.54088)
(-0.0050171 0.00183359 2.54051)
(-0.00352112 0.0025086 2.54062)
(-0.00214176 0.00249691 2.54101)
(-0.000982562 0.00271575 2.54107)
(7.90207e-05 0.00287475 2.54127)
(0.0010683 0.00298855 2.54136)
(0.00199336 0.00305671 2.54141)
(0.00287225 0.00302859 2.54145)
(0.00373644 0.00292815 2.54149)
(0.00460381 0.00278838 2.54148)
(0.00550573 0.00264006 2.54138)
(0.00644362 0.00245525 2.5414)
(0.00753501 0.00252468 2.54112)
(0.00871876 0.00201293 2.54106)
(-0.00473144 0.00293616 2.54063)
(-0.00325241 0.00352244 2.5409)
(-0.00190674 0.00350372 2.54118)
(-0.000797288 0.00368125 2.54128)
(0.000211519 0.00378579 2.54147)
(0.00113755 0.00386914 2.54158)
(0.00200234 0.00391949 2.54164)
(0.00282398 0.00390503 2.54169)
(0.00364091 0.00384729 2.54172)
(0.00447287 0.00376827 2.5417)
(0.00535397 0.00369916 2.54161)
(0.00629841 0.00360004 2.5416)
(0.00740364 0.00371227 2.5414)
(0.00864891 0.0033272 2.54119)
(-0.00449275 0.00401133 2.54076)
(-0.00302269 0.00441741 2.54117)
(-0.00171737 0.00445928 2.54137)
(-0.00064877 0.0045865 2.54151)
(0.000314159 0.00465372 2.54169)
(0.00119458 0.00470126 2.54181)
(0.00202133 0.00473136 2.54186)
(0.00281043 0.00472499 2.54191)
(0.00360235 0.00470043 2.54195)
(0.00441486 0.00467658 2.54192)
(0.00528194 0.00466056 2.54183)
(0.00623388 0.00463713 2.54179)
(0.00736627 0.00472127 2.54165)
(0.00867429 0.00454315 2.54133)
(-0.00433558 0.00511681 2.54097)
(-0.00288509 0.00530189 2.54139)
(-0.00162396 0.00541673 2.54159)
(-0.00058466 0.00548243 2.54174)
(0.000348169 0.00550792 2.54192)
(0.00120537 0.00550913 2.54205)
(0.00201604 0.00551098 2.5421)
(0.00279553 0.00550711 2.54215)
(0.003585 0.00551033 2.54219)
(0.00439887 0.00554083 2.54215)
(0.00526923 0.0055716 2.54205)
(0.00623184 0.005612 2.54201)
(0.00740067 0.00562071 2.54184)
(0.0087494 0.00569044 2.54151)
(-0.00424118 0.00627815 2.54116)
(-0.00283031 0.00623741 2.54144)
(-0.00161173 0.00641444 2.54175)
(-0.000586405 0.00642304 2.54186)
(0.000334421 0.00639649 2.54206)
(0.0011908 0.00634701 2.54218)
(0.00200772 0.00631292 2.54224)
(0.00280344 0.00630518 2.54229)
(0.00361776 0.00632859 2.54232)
(0.00446355 0.00640624 2.54229)
(0.00536815 0.00648263 2.54216)
(0.00636297 0.00656888 2.54215)
(0.00756245 0.00649249 2.54188)
(0.00890531 0.00680712 2.54168)
(-0.00425326 0.00750907 2.54131)
(-0.00290419 0.00727446 2.54146)
(-0.00172991 0.00745608 2.54191)
(-0.000708541 0.00740442 2.542)
(0.000221865 0.00729836 2.54221)
(0.00110949 0.00719376 2.54232)
(0.00196818 0.00711501 2.54238)
(0.00281777 0.00709551 2.54243)
(0.00368906 0.00713085 2.54247)
(0.00459282 0.00724564 2.54245)
(0.00554996 0.00738126 2.5423)
(0.00659123 0.00750951 2.54231)
(0.00781449 0.00741665 2.54192)
(0.00913597 0.00791705 2.54182)
(-0.00445007 0.0087642 2.54142)
(-0.00312171 0.00843364 2.54141)
(-0.0019339 0.00856359 2.54188)
(-0.000873768 0.00846772 2.54198)
(9.37329e-05 0.00827267 2.54225)
(0.00102857 0.00811774 2.54237)
(0.00192157 0.00799129 2.54243)
(0.00281068 0.00795185 2.54248)
(0.00373277 0.00799407 2.5425)
(0.0047112 0.00813516 2.54245)
(0.00574934 0.00832587 2.54225)
(0.00688548 0.00846538 2.54223)
(0.00816991 0.00841405 2.54181)
(0.00953093 0.00896969 2.54187)
(-0.00462492 0.0100526 2.54147)
(-0.00325398 0.00977549 2.54142)
(-0.00211075 0.00976806 2.54198)
(-0.00105041 0.00959398 2.54214)
(-7.9908e-05 0.00928996 2.54242)
(0.000892129 0.00909237 2.54252)
(0.00182442 0.00892958 2.54255)
(0.00276724 0.00886412 2.5426)
(0.00374821 0.00889436 2.54266)
(0.00479566 0.00903536 2.54263)
(0.00589736 0.00928105 2.54241)
(0.00710028 0.00945791 2.54232)
(0.00839343 0.00954217 2.54179)
(0.00990435 0.00994479 2.54196)
(-0.00493424 0.0113504 2.54166)
(-0.00346138 0.0112569 2.54148)
(-0.00222987 0.0111353 2.54168)
(-0.00107173 0.0109236 2.54191)
(-3.97421e-05 0.0105335 2.54222)
(0.0009341 0.0103068 2.5424)
(0.00179493 0.0101029 2.54253)
(0.00265118 0.00998895 2.54257)
(0.0035749 0.00998931 2.54251)
(0.00464006 0.0101035 2.54241)
(0.00583203 0.0103934 2.54219)
(0.00717905 0.0105697 2.54205)
(0.00862334 0.0107739 2.54178)
(0.0103366 0.0108174 2.5421)
(-0.00454965 0.0129252 2.5414)
(-0.00352353 0.0130869 2.54199)
(-0.00262172 0.0127027 2.54208)
(-0.0016627 0.012274 2.54219)
(-0.000634187 0.0118154 2.54228)
(0.000448135 0.0116052 2.54232)
(0.00150872 0.0114254 2.54232)
(0.00260336 0.0112841 2.54238)
(0.00375521 0.0112168 2.54249)
(0.00498601 0.0112389 2.5425)
(0.00625262 0.011515 2.54243)
(0.00752293 0.0117845 2.54236)
(0.00873445 0.0122028 2.54232)
(0.0102413 0.0118821 2.54199)
(-0.00684613 -0.00309621 2.28596)
(-0.0054483 -0.00352368 2.28544)
(-0.00413388 -0.00302547 2.28473)
(-0.00262613 -0.00278239 2.2841)
(-0.00108198 -0.0025699 2.28364)
(0.000421466 -0.00255012 2.28323)
(0.00185233 -0.00256629 2.28299)
(0.00325942 -0.00268381 2.28288)
(0.00463572 -0.00283697 2.28297)
(0.00598604 -0.00303519 2.28323)
(0.00733182 -0.00332269 2.28356)
(0.0086237 -0.00363357 2.2841)
(0.00969357 -0.0041284 2.28485)
(0.0106099 -0.00393254 2.28558)
(-0.00722289 -0.00204095 2.28543)
(-0.00552654 -0.00204256 2.28399)
(-0.00371173 -0.00182606 2.28344)
(-0.00212213 -0.00156689 2.2829)
(-0.000632276 -0.00125097 2.28264)
(0.000721845 -0.00106996 2.28241)
(0.00196073 -0.000966506 2.28232)
(0.00319863 -0.00105036 2.28226)
(0.00434942 -0.00124738 2.28229)
(0.00551363 -0.00153734 2.28241)
(0.00674823 -0.00188938 2.28258)
(0.00806739 -0.00222403 2.283)
(0.00960538 -0.00248787 2.28356)
(0.0109801 -0.00258742 2.28499)
(-0.0067096 -0.00103492 2.28463)
(-0.00529816 -0.000436096 2.28335)
(-0.00358185 -0.000278877 2.28308)
(-0.00218119 -5.84115e-06 2.28248)
(-0.000765338 0.000235882 2.28217)
(0.000572458 0.000363199 2.28182)
(0.00185006 0.000421279 2.28162)
(0.00317184 0.000362343 2.28157)
(0.00438039 0.00024 2.2817)
(0.00558009 4.82325e-05 2.28198)
(0.00680545 -0.000219453 2.28226)
(0.00797638 -0.000535539 2.2828)
(0.00940345 -0.00071116 2.28315)
(0.0104492 -0.00128369 2.28435)
(-0.00636049 0.000249726 2.28398)
(-0.00500246 0.000983039 2.28286)
(-0.00330836 0.000973532 2.28248)
(-0.00195716 0.00122635 2.28182)
(-0.000594654 0.00142709 2.28151)
(0.000671768 0.00157294 2.2812)
(0.00185725 0.00165201 2.28104)
(0.0031032 0.00161745 2.281)
(0.00422706 0.00151284 2.28112)
(0.00537217 0.00133503 2.28137)
(0.00656192 0.00113519 2.28167)
(0.0076971 0.000879043 2.28228)
(0.00910336 0.000898936 2.28274)
(0.0101441 0.000256339 2.28383)
(-0.00598112 0.00159372 2.28355)
(-0.00457562 0.00230511 2.28265)
(-0.00299496 0.00226073 2.28219)
(-0.00173113 0.00249398 2.28153)
(-0.000459982 0.00264281 2.28116)
(0.000734321 0.00276052 2.28084)
(0.00185927 0.00282376 2.28065)
(0.00306704 0.00280571 2.28063)
(0.00414025 0.00273939 2.28076)
(0.00523389 0.002614 2.28104)
(0.00635986 0.00248819 2.28138)
(0.00744163 0.00229251 2.28201)
(0.00877144 0.0023937 2.28251)
(0.0099233 0.00179221 2.28339)
(-0.00579162 0.00294691 2.28323)
(-0.00427974 0.00353163 2.28247)
(-0.00278577 0.0034924 2.28187)
(-0.00154304 0.00367734 2.28124)
(-0.000329903 0.00378137 2.28084)
(0.000810633 0.00387073 2.28053)
(0.001876 0.00392103 2.28035)
(0.00303408 0.00391455 2.28033)
(0.0040567 0.00387692 2.28047)
(0.00511493 0.00379811 2.28074)
(0.00620855 0.00373234 2.28111)
(0.00730248 0.00360881 2.28171)
(0.00859064 0.00373058 2.28231)
(0.00990713 0.00326734 2.28305)
(-0.00563528 0.00426918 2.28306)
(-0.00403844 0.00467181 2.28242)
(-0.00262613 0.00470403 2.28172)
(-0.0013983 0.00482484 2.28112)
(-0.000233937 0.00489529 2.2807)
(0.000869678 0.00494758 2.2804)
(0.00189816 0.0049788 2.2802)
(0.00302738 0.00497697 2.28019)
(0.00402237 0.00496244 2.28033)
(0.00505998 0.00493104 2.2806)
(0.00613119 0.00490649 2.28097)
(0.00723509 0.00485314 2.28155)
(0.00849587 0.00491716 2.28221)
(0.00992237 0.00466103 2.28285)
(-0.00550214 0.00563156 2.28311)
(-0.00392051 0.00586151 2.28246)
(-0.00253731 0.00598206 2.28176)
(-0.00133168 0.00603754 2.28116)
(-0.000192076 0.0060759 2.28074)
(0.000890172 0.006087 2.28044)
(0.00189995 0.00609747 2.28025)
(0.00301664 0.00609548 2.28023)
(0.00400321 0.00609593 2.28038)
(0.00503598 0.00610879 2.28064)
(0.00610541 0.0061181 2.281)
(0.00720667 0.00613113 2.28157)
(0.00848715 0.00610685 2.2822)
(0.00992791 0.0060565 2.28282)
(-0.00535923 0.00696042 2.28331)
(-0.00388176 0.0069761 2.28253)
(-0.00249347 0.00717132 2.28192)
(-0.00132422 0.00716193 2.28128)
(-0.000190563 0.00715727 2.28088)
(0.000886635 0.00712067 2.28057)
(0.00189708 0.00710301 2.28039)
(0.00302004 0.00709598 2.28037)
(0.00402029 0.00710981 2.28051)
(0.00507144 0.00716598 2.28077)
(0.00616702 0.0072124 2.28111)
(0.00727101 0.00727876 2.2817)
(0.00860688 0.00716545 2.28221)
(0.00997646 0.00735409 2.28294)
(-0.00531273 0.00836801 2.28361)
(-0.00398889 0.00818224 2.28269)
(-0.0025677 0.0083936 2.28224)
(-0.00142987 0.0083263 2.28157)
(-0.000276143 0.00825756 2.28119)
(0.000823362 0.00817349 2.28088)
(0.0018683 0.00812286 2.2807)
(0.00303015 0.00810453 2.28069)
(0.00407523 0.00812386 2.28083)
(0.00517043 0.00821281 2.28109)
(0.00631512 0.00830436 2.2814)
(0.00743379 0.0084104 2.28201)
(0.00883337 0.00826112 2.28237)
(0.0100983 0.00864838 2.28319)
(-0.00538047 0.00978509 2.284)
(-0.00416276 0.00948796 2.28293)
(-0.00270548 0.00967184 2.28253)
(-0.00154945 0.00956103 2.28188)
(-0.000362667 0.00940999 2.28156)
(0.000767455 0.00927363 2.28128)
(0.00183587 0.00918202 2.28111)
(0.00302291 0.00915041 2.28109)
(0.00410318 0.00917715 2.28121)
(0.0052538 0.00930198 2.28144)
(0.0064639 0.00944604 2.28168)
(0.00764928 0.00958298 2.28226)
(0.00911249 0.00944396 2.28255)
(0.0103258 0.00994738 2.28349)
(-0.00547328 0.0111958 2.28449)
(-0.0043176 0.0109075 2.28335)
(-0.00288577 0.0109376 2.28306)
(-0.00172187 0.010777 2.28248)
(-0.000525527 0.0105323 2.2822)
(0.000638622 0.010373 2.2819)
(0.00175625 0.0102652 2.28171)
(0.00299882 0.010213 2.2817)
(0.00413528 0.0102065 2.28187)
(0.0053433 0.0103243 2.28211)
(0.00660436 0.0105168 2.28232)
(0.00784999 0.0106941 2.2828)
(0.00933033 0.0106931 2.28296)
(0.0105369 0.0111871 2.28398)
(-0.00575483 0.0124233 2.28524)
(-0.00441595 0.0125296 2.28392)
(-0.00295697 0.0124639 2.28332)
(-0.00164488 0.0122779 2.28287)
(-0.000420698 0.0119256 2.28265)
(0.000723809 0.0116933 2.28247)
(0.00174906 0.0115146 2.28237)
(0.0028785 0.0114408 2.28237)
(0.00393547 0.011456 2.28243)
(0.00514008 0.0116007 2.28257)
(0.00646596 0.0118439 2.28274)
(0.00788461 0.0120349 2.28313)
(0.00948136 0.0121428 2.28349)
(0.0109073 0.0121869 2.28475)
(-0.0052976 0.0136967 2.28579)
(-0.00439071 0.0140818 2.28528)
(-0.00350424 0.0137134 2.28447)
(-0.00229169 0.0134452 2.2839)
(-0.00102733 0.0131275 2.2835)
(0.000262042 0.0130125 2.2832)
(0.00149953 0.0129171 2.28301)
(0.00282974 0.0128141 2.28304)
(0.00411488 0.0127059 2.28325)
(0.00549745 0.0126796 2.28352)
(0.0069174 0.0128256 2.28383)
(0.00832442 0.013002 2.28428)
(0.0095115 0.0133779 2.28491)
(0.0106304 0.0130456 2.28555)
(-0.00991369 -0.00704898 2.05207)
(-0.00856514 -0.00749577 2.05088)
(-0.00679316 -0.0071727 2.04993)
(-0.0048204 -0.00703381 2.04914)
(-0.00279455 -0.00693943 2.04854)
(-0.000800794 -0.00690674 2.04801)
(0.00116424 -0.00689232 2.04769)
(0.00308758 -0.00691782 2.04751)
(0.00508881 -0.0069692 2.04756)
(0.0069985 -0.00705144 2.04781)
(0.00895074 -0.00714782 2.04816)
(0.0108693 -0.00729685 2.04868)
(0.0126316 -0.00747824 2.04955)
(0.0139546 -0.00705928 2.05077)
(-0.0105032 -0.00567344 2.05077)
(-0.00865392 -0.00561424 2.04891)
(-0.00644245 -0.00554567 2.04818)
(-0.00443779 -0.00532666 2.04748)
(-0.00246894 -0.00511049 2.04705)
(-0.000577475 -0.00493638 2.04666)
(0.00128422 -0.00482952 2.04646)
(0.00313294 -0.00484741 2.04632)
(0.0050018 -0.0049393 2.04633)
(0.00679105 -0.0051254 2.04649)
(0.00863216 -0.00531215 2.04676)
(0.0104982 -0.00554519 2.04723)
(0.0125171 -0.00559884 2.04787)
(0.014346 -0.00572598 2.0495)
(-0.0101869 -0.00398173 2.04957)
(-0.00855635 -0.00344055 2.048)
(-0.00643924 -0.00344354 2.04743)
(-0.00455273 -0.0032365 2.04662)
(-0.00260109 -0.00308231 2.04609)
(-0.000686434 -0.00297186 2.04558)
(0.0012314 -0.00291629 2.04529)
(0.00316243 -0.00293479 2.04516)
(0.00507956 -0.00298014 2.04525)
(0.00691511 -0.00309518 2.04557)
(0.00877241 -0.00322957 2.04594)
(0.010568 -0.00343844 2.04658)
(0.0125217 -0.00344941 2.04709)
(0.01403 -0.0039679 2.04854)
(-0.0100338 -0.00203757 2.04869)
(-0.00833619 -0.00147113 2.04722)
(-0.00624044 -0.0015852 2.0465)
(-0.00438326 -0.00140137 2.04562)
(-0.00246975 -0.00126781 2.04507)
(-0.000602114 -0.00114896 2.04458)
(0.00125514 -0.00108389 2.04432)
(0.00313843 -0.00109411 2.0442)
(0.00499328 -0.00113755 2.04428)
(0.00679078 -0.00125589 2.04458)
(0.00861164 -0.00136574 2.04499)
(0.0103717 -0.00154581 2.0457)
(0.0122958 -0.00142989 2.04636)
(0.0138354 -0.00198049 2.04774)
(-0.00987176 -7.47414e-05 2.04801)
(-0.00806516 0.000437483 2.0467)
(-0.00605122 0.000329914 2.04587)
(-0.00423374 0.000490085 2.04497)
(-0.00237198 0.00058949 2.04436)
(-0.000547387 0.000682228 2.04385)
(0.00127101 0.000731782 2.04357)
(0.00313 0.000727506 2.04345)
(0.00494708 0.000701013 2.04356)
(0.00671024 0.00061282 2.04389)
(0.00848687 0.000538905 2.04434)
(0.0102092 0.00039359 2.04509)
(0.0120731 0.000527333 2.04583)
(0.0137408 1.95445e-05 2.04702)
(-0.00978776 0.00185912 2.04747)
(-0.00785797 0.00226629 2.04627)
(-0.00591253 0.00219797 2.0453)
(-0.00410075 0.00232217 2.0444)
(-0.00227468 0.00239488 2.04376)
(-0.000484699 0.0024667 2.04324)
(0.00129167 0.00250738 2.04295)
(0.0031146 0.00250895 2.04285)
(0.00489065 0.00249271 2.04296)
(0.00662467 0.00242894 2.0433)
(0.00837488 0.00238207 2.04377)
(0.0100968 0.00227671 2.04452)
(0.011918 0.00237966 2.04537)
(0.0137303 0.00198155 2.04642)
(-0.00970891 0.00376362 2.04712)
(-0.00770011 0.00406368 2.04601)
(-0.00581125 0.00407121 2.04494)
(-0.0040042 0.00415395 2.04405)
(-0.00220546 0.00420639 2.0434)
(-0.000436597 0.00425247 2.04288)
(0.00131492 0.00428158 2.04258)
(0.00311589 0.00428508 2.04247)
(0.00486835 0.0042771 2.04259)
(0.0065836 0.00424116 2.04293)
(0.00831484 0.00421258 2.04341)
(0.0100339 0.0041464 2.04414)
(0.0118242 0.00416787 2.04505)
(0.0137138 0.00389785 2.04601)
(-0.00963434 0.00564531 2.04699)
(-0.00761963 0.00583282 2.04586)
(-0.00574262 0.00592211 2.04479)
(-0.00395159 0.00596025 2.04389)
(-0.00216727 0.00599292 2.04323)
(-0.000412645 0.00600945 2.04271)
(0.00132316 0.00602418 2.04241)
(0.0031084 0.00602598 2.0423)
(0.00484615 0.00602435 2.04242)
(0.00654727 0.00601732 2.04275)
(0.00826748 0.0060041 2.04323)
(0.00997194 0.00597096 2.04397)
(0.0117642 0.00589029 2.04484)
(0.0136531 0.00576357 2.04582)
(-0.00954834 0.00758108 2.04704)
(-0.00760587 0.00767049 2.04581)
(-0.00570739 0.00784779 2.0448)
(-0.00393618 0.00785222 2.04387)
(-0.00215321 0.00786341 2.04322)
(-0.000403214 0.00784813 2.0427)
(0.00132939 0.00784697 2.0424)
(0.00311182 0.00784531 2.04229)
(0.00484998 0.00785111 2.0424)
(0.00655155 0.00787843 2.04274)
(0.00827598 0.007889 2.04319)
(0.00996802 0.00789453 2.04395)
(0.0117872 0.00773146 2.04472)
(0.0136024 0.00769952 2.0458)
(-0.00949802 0.00946032 2.04725)
(-0.00768429 0.009417 2.04591)
(-0.00574861 0.00964259 2.04504)
(-0.00400093 0.00961549 2.04408)
(-0.00220242 0.00959375 2.04346)
(-0.000439211 0.00954791 2.04294)
(0.00131349 0.00952848 2.04265)
(0.00311862 0.009519 2.04254)
(0.00488265 0.0095281 2.04266)
(0.00660851 0.00958101 2.04299)
(0.00836006 0.00961677 2.0434)
(0.0100524 0.00964815 2.04416)
(0.0119045 0.00942933 2.0448)
(0.0136049 0.00955679 2.04594)
(-0.00948245 0.011371 2.04756)
(-0.00775521 0.0112239 2.04612)
(-0.00579677 0.0114629 2.04533)
(-0.00404441 0.0114024 2.04439)
(-0.0022312 0.0113382 2.04382)
(-0.000455302 0.0112633 2.04333)
(0.0013053 0.0112254 2.04305)
(0.00312255 0.0112086 2.04295)
(0.00489625 0.0112222 2.04304)
(0.0066437 0.0112998 2.04333)
(0.00841889 0.0113626 2.04369)
(0.010134 0.0114226 2.04441)
(0.0120132 0.0111823 2.04497)
(0.0136457 0.011441 2.04618)
(-0.00952722 0.0132529 2.04797)
(-0.00786884 0.0130711 2.0465)
(-0.00590663 0.0132467 2.04584)
(-0.00414864 0.0131506 2.04499)
(-0.00232406 0.013038 2.04446)
(-0.000528399 0.0129502 2.04397)
(0.00126115 0.0129042 2.04369)
(0.00311145 0.0128757 2.0436)
(0.00491049 0.0128765 2.04372)
(0.00668522 0.0129578 2.04402)
(0.0084898 0.0130505 2.04433)
(0.0102388 0.0131483 2.04495)
(0.01214 0.01296 2.04536)
(0.0137304 0.013306 2.04655)
(-0.00956255 0.0149746 2.04873)
(-0.00775994 0.0150604 2.04702)
(-0.00579114 0.015175 2.0462)
(-0.00395598 0.015055 2.04549)
(-0.00214901 0.0148713 2.04505)
(-0.000405653 0.0147284 2.04469)
(0.00128659 0.0146416 2.04448)
(0.00303824 0.0146145 2.04439)
(0.00472949 0.0146385 2.04443)
(0.00645941 0.0147545 2.04462)
(0.00826663 0.0148776 2.04488)
(0.0100968 0.0150009 2.04537)
(0.0120493 0.0148674 2.04587)
(0.0137713 0.0150236 2.04731)
(-0.00905548 0.0163042 2.04979)
(-0.00786938 0.0168989 2.0485)
(-0.00629876 0.0167539 2.04739)
(-0.00444133 0.0166347 2.04667)
(-0.00255296 0.0165251 2.04611)
(-0.000683812 0.0164976 2.04562)
(0.0011412 0.0164759 2.04533)
(0.00301918 0.0164465 2.04529)
(0.00482849 0.0163786 2.04547)
(0.00668252 0.0163526 2.04581)
(0.00858322 0.0163836 2.04617)
(0.0104544 0.016491 2.04665)
(0.0121612 0.0165847 2.04737)
(0.0133578 0.0162526 2.04858)
(-0.0135432 -0.0116454 1.83756)
(-0.0117917 -0.0120207 1.83634)
(-0.00949854 -0.0120371 1.83572)
(-0.00707028 -0.0119613 1.83519)
(-0.00459029 -0.0119472 1.83474)
(-0.0021282 -0.0119115 1.8343)
(0.000314797 -0.0118668 1.834)
(0.00274624 -0.0118519 1.83382)
(0.00522886 -0.0117982 1.83379)
(0.00772158 -0.0117585 1.83387)
(0.0102396 -0.0117006 1.834)
(0.0127513 -0.0117348 1.83417)
(0.0151579 -0.0115674 1.83461)
(0.0171935 -0.0110972 1.83556)
(-0.0141087 -0.00972956 1.83611)
(-0.0118198 -0.0095917 1.83479)
(-0.00933887 -0.00976373 1.8343)
(-0.00692055 -0.00964736 1.83378)
(-0.00447579 -0.00955293 1.83343)
(-0.00203809 -0.00943234 1.8331)
(0.000412465 -0.00933874 1.83289)
(0.00284425 -0.00932278 1.83272)
(0.00536693 -0.00931855 1.83264)
(0.00778754 -0.0093727 1.83267)
(0.0102316 -0.00938691 1.83278)
(0.0126663 -0.00947732 1.833)
(0.0151049 -0.00924539 1.83334)
(0.017527 -0.00940759 1.83423)
(-0.0141042 -0.00731096 1.83522)
(-0.0119697 -0.00701965 1.83407)
(-0.00949889 -0.00718899 1.83361)
(-0.00709302 -0.00708722 1.83298)
(-0.00461107 -0.00702216 1.83255)
(-0.00211986 -0.00694566 1.83211)
(0.000400835 -0.00689326 1.83184)
(0.00290658 -0.00688288 1.83167)
(0.00550595 -0.0068618 1.83166)
(0.00798059 -0.00689638 1.8318)
(0.0104648 -0.00691055 1.83199)
(0.0129065 -0.00700398 1.83234)
(0.0153606 -0.00681909 1.83262)
(0.017562 -0.00713849 1.83351)
(-0.0140632 -0.00475985 1.83453)
(-0.0118702 -0.00452413 1.83337)
(-0.00941048 -0.00471556 1.83279)
(-0.00701401 -0.00463348 1.83209)
(-0.00454389 -0.00457876 1.83162)
(-0.00206936 -0.00450689 1.83119)
(0.000429509 -0.00446015 1.83093)
(0.00291486 -0.00445257 1.83077)
(0.00549622 -0.00444437 1.83075)
(0.00795036 -0.00449216 1.83088)
(0.0104076 -0.00451098 1.8311)
(0.012816 -0.00459927 1.83153)
(0.0152463 -0.00440518 1.83192)
(0.0174478 -0.00470034 1.83287)
(-0.0140783 -0.00220659 1.83392)
(-0.0117863 -0.00202462 1.83285)
(-0.00934818 -0.00218412 1.83217)
(-0.00695413 -0.00211898 1.83143)
(-0.00449672 -0.00208044 1.83093)
(-0.00203639 -0.00202924 1.83046)
(0.000450106 -0.0019989 1.83019)
(0.00292674 -0.00199515 1.83003)
(0.00549521 -0.00198964 1.83002)
(0.00793246 -0.0020299 1.83018)
(0.0103663 -0.00204573 1.83044)
(0.0127544 -0.00212379 1.83091)
(0.0151628 -0.00197353 1.83138)
(0.017447 -0.00223389 1.83219)
(-0.0141069 0.00029744 1.83335)
(-0.0117126 0.000444507 1.83236)
(-0.00929299 0.000330833 1.83157)
(-0.00689298 0.000378374 1.83082)
(-0.00444799 0.00040524 1.83029)
(-0.00200279 0.00044176 1.82981)
(0.000465326 0.000463649 1.82954)
(0.00292403 0.000466042 1.82938)
(0.00547258 0.000466709 1.82938)
(0.0078914 0.000430714 1.82955)
(0.0103061 0.000413666 1.82983)
(0.012684 0.000343228 1.83031)
(0.0150722 0.00043095 1.83087)
(0.0174405 0.00020513 1.83159)
(-0.0141265 0.00273869 1.83294)
(-0.0116604 0.00288441 1.83201)
(-0.00925302 0.00283861 1.83114)
(-0.00684913 0.0028707 1.83039)
(-0.00441362 0.00289029 1.82983)
(-0.00197633 0.00291282 1.82936)
(0.000481614 0.00292849 1.82907)
(0.00292942 0.00292987 1.82891)