/*--------------------------------*- C++ -*----------------------------------*\
| =========                 |                                                 |
| \\      /  F ield         | OpenFOAM: The Open Source CFD Toolbox           |
|  \\    /   O peration     | Version:  v2106                                 |
|   \\  /    A nd           | Website:  www.openfoam.com                      |
|    \\/     M anipulation  |                                                 |
\*---------------------------------------------------------------------------*/
FoamFile
{
    version     2.0;
    format      ascii;
    arch        "LSB;label=32;scalar=64";
    class       volScalarField;
    location    "0.000211";
    object      T;
}
// * * * * * * * * * * * * * * * * * * * * * * * * * * * * * * * * * * * * * //

dimensions      [0 0 0 1 0 0 0];

internalField   nonuniform List<scalar> 
17924
(
308.16
308.12
308.083
308.045
308.358
308.326
308.293
308.258
308.223
308.186
308.149
308.328
308.302
308.269
308.237
308.203
308.167
308.132
308.301
308.277
308.246
308.215
308.182
308.149
308.115
308.277
308.254
308.225
308.196
308.164
308.132
308.099
308.256
308.233
308.205
308.177
308.147
308.116
308.084
308.235
308.212
308.186
308.159
308.13
308.1
308.069
308.216
308.193
308.168
308.142
308.113
308.084
308.054
308.198
308.175
308.15
308.124
308.096
308.067
308.038
308.18
308.157
308.133
308.107
308.08
308.051
308.021
308.163
308.14
308.116
308.09
308.062
308.032
308.002
308.147
308.122
308.099
308.072
308.044
308.013
307.982
308.131
308.105
308.081
308.053
308.024
307.993
307.961
308.114
308.087
308.062
308.033
308.003
307.971
307.938
308.096
308.068
308.042
308.012
307.981
307.948
307.914
308.528
308.503
308.475
308.446
308.417
308.386
308.356
308.326
308.296
308.268
308.241
308.215
308.192
308.166
308.485
308.465
308.437
308.409
308.38
308.35
308.321
308.292
308.265
308.238
308.213
308.189
308.169
308.147
308.445
308.425
308.397
308.371
308.342
308.314
308.287
308.26
308.235
308.21
308.187
308.166
308.147
308.128
308.407
308.387
308.36
308.334
308.307
308.28
308.254
308.229
308.205
308.183
308.161
308.142
308.125
308.108
308.371
308.35
308.324
308.299
308.273
308.247
308.223
308.199
308.177
308.156
308.136
308.118
308.103
308.087
308.337
308.315
308.29
308.266
308.24
308.216
308.192
308.169
308.148
308.127
308.109
308.092
308.078
308.064
308.306
308.283
308.258
308.234
308.209
308.185
308.162
308.14
308.119
308.099
308.082
308.065
308.052
308.039
308.276
308.253
308.229
308.204
308.18
308.156
308.132
308.11
308.09
308.07
308.053
308.037
308.023
308.011
308.249
308.225
308.201
308.176
308.152
308.127
308.104
308.081
308.06
308.041
308.023
308.007
307.993
307.981
308.223
308.198
308.174
308.149
308.124
308.099
308.075
308.052
308.03
308.01
307.991
307.975
307.96
307.95
308.199
308.174
308.149
308.123
308.097
308.071
308.046
308.022
307.999
307.978
307.958
307.942
307.926
307.917
308.175
308.149
308.124
308.098
308.07
308.043
308.017
307.991
307.968
307.945
307.924
307.907
307.889
307.881
308.154
308.127
308.101
308.073
308.045
308.016
307.988
307.961
307.935
307.911
307.888
307.869
307.851
307.842
308.132
308.102
308.076
308.047
308.017
307.988
307.959
307.93
307.903
307.877
307.854
307.833
307.814
307.801
308.636
308.619
308.598
308.577
308.556
308.534
308.512
308.489
308.466
308.443
308.421
308.4
308.381
308.357
308.591
308.577
308.556
308.535
308.514
308.492
308.47
308.448
308.427
308.406
308.385
308.366
308.349
308.33
308.547
308.534
308.512
308.492
308.47
308.449
308.429
308.408
308.389
308.369
308.351
308.334
308.319
308.303
308.505
308.491
308.468
308.449
308.428
308.407
308.387
308.368
308.35
308.332
308.316
308.301
308.288
308.275
308.465
308.449
308.426
308.407
308.386
308.366
308.347
308.329
308.312
308.296
308.282
308.269
308.258
308.246
308.426
308.408
308.385
308.365
308.345
308.325
308.307
308.29
308.274
308.259
308.246
308.235
308.225
308.216
308.389
308.369
308.347
308.327
308.306
308.286
308.268
308.251
308.236
308.223
308.211
308.2
308.193
308.185
308.353
308.332
308.31
308.289
308.268
308.248
308.23
308.214
308.199
308.186
308.174
308.165
308.158
308.152
308.32
308.298
308.275
308.254
308.232
308.212
308.193
308.177
308.162
308.149
308.138
308.128
308.122
308.117
308.288
308.264
308.242
308.219
308.197
308.177
308.157
308.14
308.124
308.111
308.1
308.091
308.084
308.081
308.258
308.234
308.21
308.187
308.164
308.143
308.122
308.104
308.087
308.073
308.061
308.052
308.045
308.045
308.228
308.203
308.179
308.155
308.131
308.108
308.087
308.068
308.051
308.035
308.022
308.012
308.004
308.006
308.202
308.176
308.151
308.126
308.1
308.076
308.054
308.033
308.014
307.997
307.982
307.971
307.962
307.965
308.174
308.148
308.122
308.095
308.069
308.043
308.02
307.998
307.977
307.959
307.943
307.93
307.921
307.92
308.681
308.67
308.655
308.642
308.628
308.613
308.597
308.58
308.563
308.545
308.526
308.507
308.49
308.466
308.636
308.629
308.613
308.6
308.586
308.571
308.555
308.539
308.522
308.505
308.487
308.47
308.453
308.433
308.594
308.587
308.571
308.557
308.543
308.528
308.513
308.497
308.481
308.465
308.45
308.434
308.419
308.402
308.553
308.544
308.528
308.514
308.499
308.484
308.47
308.455
308.44
308.425
308.411
308.397
308.384
308.37
308.513
308.502
308.485
308.471
308.456
308.441
308.427
308.413
308.399
308.385
308.373
308.361
308.35
308.338
308.472
308.46
308.443
308.428
308.413
308.398
308.384
308.37
308.357
308.345
308.334
308.324
308.315
308.306
308.434
308.419
308.402
308.387
308.371
308.356
308.342
308.329
308.317
308.306
308.296
308.287
308.28
308.274
308.396
308.379
308.362
308.346
308.33
308.315
308.301
308.288
308.276
308.266
308.258
308.25
308.245
308.24
308.359
308.341
308.323
308.306
308.29
308.274
308.26
308.248
308.237
308.227
308.219
308.213
308.209
308.207
308.322
308.303
308.285
308.267
308.25
308.234
308.22
308.208
308.197
308.188
308.181
308.175
308.172
308.172
308.288
308.268
308.249
308.231
308.213
308.196
308.181
308.169
308.158
308.149
308.142
308.137
308.134
308.138
308.254
308.232
308.213
308.194
308.175
308.158
308.143
308.13
308.119
308.11
308.103
308.098
308.095
308.102
308.224
308.201
308.18
308.16
308.141
308.122
308.106
308.092
308.08
308.07
308.063
308.058
308.055
308.065
308.191
308.168
308.146
308.124
308.104
308.086
308.069
308.054
308.041
308.031
308.023
308.017
308.014
308.023
308.683
308.679
308.67
308.661
308.651
308.64
308.629
308.616
308.603
308.588
308.572
308.555
308.54
308.518
308.641
308.64
308.63
308.621
308.611
308.6
308.588
308.575
308.561
308.547
308.531
308.515
308.5
308.48
308.602
308.601
308.589
308.58
308.569
308.558
308.546
308.533
308.52
308.506
308.492
308.477
308.462
308.445
308.563
308.559
308.547
308.537
308.526
308.515
308.503
308.49
308.478
308.465
308.451
308.438
308.424
308.409
308.524
308.517
308.505
308.495
308.484
308.472
308.46
308.448
308.436
308.424
308.411
308.399
308.387
308.374
308.484
308.475
308.463
308.452
308.44
308.428
308.417
308.405
308.393
308.382
308.371
308.36
308.35
308.339
308.444
308.434
308.421
308.41
308.398
308.386
308.374
308.363
308.352
308.342
308.332
308.323
308.314
308.306
308.404
308.392
308.379
308.367
308.355
308.343
308.332
308.321
308.311
308.302
308.293
308.285
308.278
308.272
308.365
308.352
308.339
308.326
308.313
308.301
308.29
308.28
308.271
308.262
308.255
308.249
308.244
308.24
308.326
308.311
308.298
308.284
308.272
308.26
308.249
308.239
308.231
308.224
308.218
308.213
308.209
308.208
308.288
308.272
308.259
308.245
308.232
308.219
308.209
308.199
308.192
308.185
308.181
308.177
308.175
308.177
308.25
308.233
308.219
308.205
308.192
308.179
308.169
308.16
308.153
308.147
308.144
308.141
308.14
308.145
308.214
308.197
308.183
308.168
308.154
308.141
308.13
308.121
308.114
308.109
308.107
308.105
308.105
308.114
308.177
308.159
308.144
308.128
308.114
308.102
308.091
308.082
308.076
308.072
308.069
308.068
308.069
308.079
308.647
308.647
308.643
308.638
308.632
308.625
308.617
308.608
308.597
308.586
308.573
308.558
308.544
308.526
308.61
308.612
308.607
308.602
308.595
308.587
308.578
308.569
308.558
308.546
308.532
308.518
308.503
308.485
308.575
308.576
308.57
308.564
308.556
308.548
308.539
308.529
308.518
308.506
308.493
308.479
308.465
308.448
308.538
308.538
308.531
308.524
308.516
308.507
308.497
308.487
308.476
308.464
308.452
308.438
308.425
308.409
308.501
308.498
308.491
308.484
308.475
308.466
308.456
308.446
308.435
308.424
308.411
308.399
308.386
308.372
308.463
308.458
308.45
308.442
308.433
308.423
308.414
308.403
308.393
308.382
308.371
308.359
308.347
308.335
308.424
308.417
308.409
308.4
308.391
308.381
308.371
308.361
308.351
308.341
308.331
308.321
308.31
308.299
308.384
308.375
308.367
308.357
308.348
308.338
308.329
308.32
308.31
308.301
308.292
308.283
308.273
308.265
308.344
308.334
308.325
308.315
308.306
308.296
308.287
308.278
308.27
308.261
308.254
308.246
308.238
308.232
308.303
308.292
308.283
308.272
308.263
308.254
308.245
308.237
308.23
308.223
308.216
308.21
308.204
308.2
308.262
308.251
308.242
308.231
308.221
308.212
308.204
308.197
308.191
308.185
308.18
308.175
308.171
308.171
308.22
308.209
308.199
308.188
308.179
308.171
308.164
308.157
308.152
308.148
308.145
308.141
308.139
308.141
308.18
308.169
308.159
308.148
308.138
308.13
308.124
308.119
308.115
308.112
308.11
308.108
308.108
308.112
308.138
308.127
308.116
308.106
308.096
308.089
308.084
308.08
308.078
308.076
308.076
308.076
308.077
308.084
308.563
308.564
308.565
308.564
308.562
308.558
308.554
308.548
308.541
308.533
308.523
308.512
308.501
308.487
308.53
308.533
308.533
308.531
308.529
308.525
308.519
308.513
308.505
308.496
308.486
308.474
308.462
308.446
308.499
308.502
308.5
308.498
308.495
308.49
308.484
308.477
308.469
308.46
308.449
308.437
308.425
308.409
308.466
308.467
308.466
308.463
308.459
308.453
308.447
308.44
308.431
308.422
308.411
308.399
308.386
308.37
308.432
308.433
308.43
308.426
308.421
308.416
308.409
308.401
308.393
308.383
308.372
308.361
308.348
308.333
308.397
308.396
308.392
308.388
308.383
308.377
308.37
308.362
308.353
308.344
308.333
308.322
308.309
308.296
308.361
308.358
308.354
308.349
308.344
308.337
308.33
308.323
308.314
308.305
308.295
308.284
308.272
308.26
308.322
308.318
308.314
308.309
308.303
308.297
308.29
308.283
308.275
308.266
308.257
308.247
308.236
308.225
308.284
308.278
308.274
308.268
308.262
308.256
308.25
308.243
308.235
308.228
308.219
308.211
308.201
308.192
308.243
308.237
308.232
308.226
308.221
308.215
308.209
308.203
308.197
308.19
308.183
308.175
308.167
308.16
308.202
308.195
308.191
308.184
308.179
308.174
308.169
308.164
308.158
308.153
308.147
308.142
308.135
308.131
308.16
308.152
308.148
308.142
308.137
308.133
308.129
308.125
308.121
308.117
308.113
308.109
308.104
308.103
308.119
308.11
308.106
308.1
308.096
308.092
308.089
308.087
308.085
308.082
308.08
308.078
308.076
308.077
308.074
308.066
308.061
308.057
308.054
308.051
308.05
308.049
308.049
308.049
308.049
308.048
308.048
308.05
308.442
308.442
308.442
308.442
308.441
308.44
308.437
308.434
308.43
308.426
308.419
308.413
308.405
308.398
308.41
308.413
308.412
308.412
308.411
308.409
308.406
308.403
308.398
308.392
308.385
308.377
308.368
308.357
308.381
308.383
308.382
308.381
308.379
308.377
308.374
308.37
308.365
308.359
308.352
308.343
308.334
308.321
308.35
308.352
308.35
308.349
308.347
308.345
308.341
308.337
308.332
308.325
308.317
308.308
308.297
308.284
308.319
308.32
308.318
308.316
308.314
308.311
308.308
308.303
308.297
308.29
308.282
308.273
308.262
308.249
308.287
308.286
308.284
308.282
308.28
308.277
308.273
308.268
308.262
308.255
308.247
308.237
308.226
308.213
308.254
308.251
308.249
308.247
308.244
308.241
308.237
308.233
308.227
308.22
308.211
308.202
308.191
308.178
308.219
308.215
308.213
308.21
308.208
308.205
308.201
308.196
308.191
308.184
308.176
308.167
308.156
308.144
308.183
308.178
308.175
308.173
308.171
308.168
308.164
308.16
308.155
308.149
308.141
308.133
308.122
308.113
308.145
308.139
308.137
308.134
308.132
308.13
308.127
308.123
308.119
308.114
308.107
308.1
308.09
308.081
308.107
308.1
308.097
308.095
308.094
308.092
308.09
308.087
308.084
308.079
308.074
308.068
308.059
308.052
308.067
308.059
308.057
308.056
308.055
308.054
308.053
308.051
308.049
308.045
308.041
308.037
308.03
308.025
308.027
308.019
308.017
308.016
308.016
308.016
308.016
308.015
308.015
308.013
308.011
308.008
308.003
308.001
307.982
307.977
307.976
307.976
307.977
307.978
307.979
307.981
307.982
307.982
307.982
307.98
307.978
307.976
308.302
308.3
308.296
308.295
308.294
308.293
308.291
308.29
308.289
308.287
308.285
308.282
308.28
308.278
308.269
308.27
308.266
308.265
308.263
308.262
308.261
308.259
308.257
308.255
308.252
308.248
308.243
308.238
308.239
308.24
308.236
308.235
308.233
308.231
308.23
308.228
308.225
308.222
308.219
308.214
308.209
308.203
308.209
308.209
308.205
308.204
308.202
308.2
308.199
308.196
308.194
308.19
308.186
308.181
308.175
308.166
308.179
308.178
308.174
308.172
308.171
308.169
308.167
308.165
308.162
308.158
308.153
308.147
308.141
308.132
308.148
308.146
308.143
308.141
308.139
308.137
308.136
308.133
308.13
308.126
308.121
308.115
308.107
308.097
308.117
308.114
308.111
308.108
308.107
308.105
308.104
308.101
308.098
308.094
308.088
308.082
308.074
308.064
308.085
308.08
308.078
308.076
308.074
308.073
308.071
308.069
308.066
308.062
308.056
308.05
308.041
308.032
308.052
308.046
308.044
308.042
308.041
308.04
308.039
308.037
308.034
308.03
308.025
308.019
308.009
308.001
308.017
308.011
308.01
308.008
308.008
308.007
308.006
308.005
308.002
307.999
307.993
307.988
307.978
307.971
307.983
307.976
307.975
307.974
307.974
307.974
307.974
307.973
307.971
307.968
307.964
307.958
307.95
307.943
307.947
307.94
307.939
307.939
307.94
307.941
307.942
307.942
307.94
307.938
307.934
307.93
307.922
307.916
307.912
307.905
307.905
307.905
307.907
307.908
307.91
307.911
307.911
307.91
307.908
307.904
307.898
307.893
307.874
307.869
307.87
307.871
307.874
307.877
307.879
307.881
307.883
307.883
307.882
307.879
307.874
307.87
308.152
308.147
308.142
308.14
308.138
308.137
308.137
308.138
308.139
308.141
308.142
308.144
308.147
308.151
308.119
308.117
308.112
308.109
308.107
308.106
308.106
308.107
308.107
308.108
308.109
308.11
308.111
308.11
308.089
308.087
308.082
308.079
308.077
308.075
308.075
308.075
308.076
308.076
308.076
308.076
308.077
308.075
308.059
308.057
308.052
308.049
308.047
308.045
308.045
308.045
308.045
308.045
308.044
308.044
308.043
308.04
308.03
308.027
308.022
308.019
308.017
308.016
308.015
308.015
308.015
308.014
308.013
308.012
308.011
308.007
308.001
307.997
307.992
307.989
307.987
307.986
307.986
307.985
307.985
307.984
307.982
307.981
307.978
307.974
307.971
307.967
307.963
307.96
307.958
307.957
307.957
307.956
307.956
307.954
307.952
307.95
307.947
307.943
307.941
307.936
307.933
307.931
307.93
307.929
307.928
307.928
307.927
307.925
307.923
307.921
307.916
307.912
307.912
307.906
307.904
307.902
307.901
307.901
307.9
307.9
307.899
307.897
307.895
307.892
307.887
307.882
307.881
307.877
307.875
307.873
307.873
307.873
307.873
307.872
307.871
307.87
307.867
307.864
307.858
307.853
307.852
307.847
307.846
307.845
307.845
307.846
307.846
307.846
307.845
307.844
307.841
307.838
307.831
307.826
307.823
307.818
307.818
307.818
307.819
307.82
307.82
307.821
307.82
307.818
307.815
307.812
307.805
307.801
307.794
307.789
307.79
307.791
307.793
307.794
307.796
307.797
307.796
307.795
307.793
307.789
307.783
307.778
307.766
307.761
307.763
307.765
307.768
307.77
307.772
307.773
307.774
307.773
307.77
307.767
307.761
307.756
307.989
307.985
307.98
307.979
307.978
307.979
307.981
307.984
307.988
307.992
307.997
308.003
308.01
308.017
307.958
307.957
307.952
307.951
307.95
307.951
307.952
307.955
307.958
307.962
307.967
307.971
307.978
307.981
307.931
307.929
307.925
307.923
307.922
307.923
307.924
307.926
307.929
307.932
307.936
307.94
307.947
307.948
307.903
307.901
307.897
307.896
307.895
307.895
307.896
307.898
307.901
307.904
307.907
307.911
307.916
307.916
307.877
307.874
307.871
307.869
307.868
307.869
307.869
307.871
307.873
307.876
307.879
307.882
307.886
307.886
307.851
307.848
307.845
307.843
307.843
307.843
307.844
307.845
307.847
307.849
307.852
307.854
307.857
307.857
307.825
307.822
307.819
307.818
307.818
307.818
307.819
307.82
307.822
307.823
307.825
307.827
307.829
307.83
307.8
307.797
307.795
307.794
307.794
307.794
307.795
307.796
307.797
307.799
307.8
307.801
307.802
307.803
307.776
307.773
307.771
307.771
307.771
307.771
307.772
307.773
307.774
307.775
307.775
307.776
307.775
307.776
307.752
307.75
307.749
307.749
307.749
307.75
307.751
307.751
307.752
307.752
307.752
307.752
307.75
307.751
307.729
307.727
307.727
307.728
307.728
307.729
307.73
307.731
307.731
307.731
307.73
307.729
307.727
307.727
307.708
307.706
307.707
307.708
307.709
307.71
307.711
307.711
307.711
307.71
307.709
307.707
307.704
307.704
307.688
307.686
307.688
307.689
307.691
307.692
307.693
307.694
307.693
307.692
307.69
307.688
307.684
307.683
307.669
307.667
307.67
307.672
307.674
307.676
307.677
307.677
307.676
307.674
307.672
307.668
307.664
307.66
307.805
307.806
307.805
307.807
307.81
307.813
307.818
307.823
307.829
307.836
307.844
307.852
307.862
307.872
307.781
307.783
307.783
307.785
307.787
307.791
307.795
307.801
307.807
307.813
307.821
307.828
307.837
307.843
307.76
307.762
307.762
307.763
307.766
307.769
307.773
307.778
307.783
307.79
307.797
307.804
307.812
307.818
307.739
307.74
307.74
307.742
307.745
307.748
307.752
307.757
307.762
307.767
307.774
307.781
307.789
307.793
307.718
307.72
307.72
307.722
307.724
307.728
307.731
307.736
307.74
307.746
307.752
307.758
307.766
307.771
307.698
307.7
307.701
307.703
307.705
307.708
307.712
307.716
307.72
307.725
307.731
307.737
307.743
307.749
307.679
307.681
307.682
307.685
307.687
307.69
307.693
307.697
307.701
307.706
307.711
307.716
307.722
307.727
307.661
307.663
307.665
307.667
307.67
307.672
307.675
307.679
307.683
307.687
307.691
307.696
307.701
307.706
307.644
307.646
307.649
307.651
307.653
307.656
307.659
307.662
307.665
307.668
307.672
307.676
307.68
307.686
307.628
307.63
307.633
307.636
307.638
307.641
307.644
307.646
307.649
307.651
307.654
307.658
307.661
307.666
307.613
307.616
307.619
307.622
307.624
307.627
307.629
307.631
307.633
307.635
307.637
307.64
307.642
307.646
307.601
307.603
307.607
307.609
307.612
307.614
307.616
307.618
307.619
307.62
307.622
307.623
307.624
307.627
307.588
307.591
307.595
307.598
307.601
307.603
307.605
307.606
307.606
307.607
307.607
307.608
307.608
307.611
307.579
307.581
307.586
307.589
307.591
307.593
307.594
307.594
307.594
307.594
307.593
307.592
307.591
307.591
307.592
307.6
307.607
307.614
307.622
307.629
307.637
307.646
307.655
307.664
307.673
307.684
307.695
307.707
307.579
307.587
307.594
307.602
307.61
307.618
307.626
307.635
307.643
307.653
307.662
307.672
307.683
307.692
307.568
307.577
307.584
307.592
307.599
307.606
307.614
307.622
307.631
307.64
307.649
307.659
307.669
307.679
307.557
307.566
307.573
307.581
307.588
307.595
307.603
307.61
307.619
307.627
307.637
307.646
307.657
307.666
307.546
307.555
307.562
307.57
307.576
307.584
307.591
307.599
307.607
307.615
307.624
307.634
307.643
307.653
307.535
307.544
307.551
307.559
307.566
307.573
307.58
307.588
307.595
307.603
307.612
307.621
307.63
307.64
307.526
307.534
307.541
307.549
307.556
307.563
307.57
307.577
307.584
307.591
307.6
307.608
307.617
307.627
307.516
307.525
307.533
307.54
307.547
307.553
307.56
307.566
307.573
307.58
307.588
307.596
307.604
307.614
307.508
307.516
307.524
307.531
307.538
307.544
307.55
307.557
307.563
307.57
307.577
307.584
307.592
307.601
307.5
307.508
307.517
307.523
307.53
307.536
307.542
307.547
307.553
307.559
307.566
307.573
307.58
307.588
307.493
307.501
307.509
307.516
307.523
307.528
307.534
307.539
307.544
307.549
307.555
307.561
307.567
307.575
307.488
307.496
307.504
307.511
307.517
307.522
307.527
307.531
307.535
307.54
307.545
307.55
307.555
307.562
307.483
307.491
307.499
307.506
307.511
307.516
307.52
307.524
307.527
307.531
307.535
307.539
307.543
307.55
307.484
307.491
307.497
307.503
307.507
307.511
307.514
307.517
307.519
307.521
307.524
307.527
307.531
307.535
307.346
307.362
307.377
307.391
307.404
307.417
307.429
307.44
307.452
307.465
307.477
307.49
307.502
307.516
307.346
307.363
307.377
307.392
307.405
307.419
307.431
307.444
307.456
307.468
307.481
307.493
307.506
307.519
307.348
307.364
307.38
307.394
307.408
307.42
307.433
307.445
307.457
307.469
307.482
307.494
307.507
307.52
307.349
307.365
307.381
307.395
307.409
307.422
307.434
307.446
307.458
307.47
307.483
307.495
307.507
307.521
307.351
307.367
307.382
307.396
307.41
307.422
307.435
307.446
307.458
307.47
307.482
307.494
307.506
307.519
307.351
307.367
307.382
307.396
307.41
307.422
307.435
307.446
307.458
307.47
307.482
307.493
307.506
307.518
307.352
307.368
307.383
307.397
307.41
307.422
307.434
307.446
307.457
307.468
307.48
307.492
307.504
307.516
307.353
307.369
307.384
307.397
307.41
307.422
307.434
307.445
307.456
307.467
307.478
307.49
307.501
307.513
307.354
307.37
307.384
307.398
307.41
307.422
307.433
307.444
307.454
307.465
307.476
307.487
307.498
307.509
307.356
307.371
307.385
307.398
307.41
307.421
307.432
307.442
307.452
307.462
307.473
307.483
307.494
307.505
307.359
307.373
307.387
307.399
307.41
307.421
307.431
307.44
307.45
307.459
307.469
307.479
307.489
307.5
307.362
307.375
307.388
307.4
307.411
307.42
307.43
307.438
307.447
307.456
307.465
307.474
307.484
307.495
307.365
307.378
307.39
307.401
307.411
307.42
307.428
307.436
307.444
307.452
307.46
307.469
307.478
307.488
307.371
307.383
307.394
307.403
307.412
307.419
307.426
307.433
307.44
307.447
307.455
307.463
307.471
307.481
307.073
307.095
307.116
307.135
307.153
307.171
307.187
307.203
307.219
307.233
307.248
307.262
307.276
307.293
307.087
307.107
307.13
307.149
307.169
307.187
307.205
307.221
307.237
307.253
307.268
307.282
307.297
307.314
307.103
307.124
307.146
307.166
307.186
307.204
307.221
307.238
307.253
307.269
307.284
307.298
307.312
307.329
307.117
307.138
307.16
307.18
307.2
307.218
307.236
307.253
307.269
307.284
307.299
307.314
307.329
307.345
307.131
307.152
307.175
307.195
307.214
307.232
307.25
307.266
307.282
307.298
307.313
307.327
307.342
307.357
307.144
307.166
307.187
307.207
307.227
307.245
307.263
307.279
307.295
307.31
307.325
307.34
307.354
307.369
307.156
307.179
307.2
307.22
307.239
307.257
307.274
307.29
307.306
307.321
307.336
307.35
307.365
307.379
307.169
307.191
307.212
307.231
307.25
307.268
307.285
307.301
307.316
307.331
307.346
307.36
307.374
307.388
307.181
307.203
307.223
307.242
307.26
307.277
307.294
307.309
307.324
307.339
307.353
307.368
307.382
307.396
307.194
307.215
307.234
307.253
307.27
307.286
307.302
307.317
307.332
307.346
307.36
307.374
307.388
307.402
307.206
307.226
307.244
307.262
307.278
307.295
307.31
307.324
307.338
307.352
307.366
307.38
307.394
307.408
307.218
307.237
307.254
307.271
307.287
307.302
307.316
307.33
307.344
307.357
307.37
307.384
307.397
307.412
307.231
307.248
307.264
307.28
307.294
307.308
307.322
307.335
307.348
307.361
307.374
307.387
307.4
307.414
307.244
307.26
307.274
307.288
307.301
307.314
307.326
307.339
307.351
307.363
307.376
307.389
307.401
307.417
306.807
306.827
306.85
306.87
306.891
306.91
306.928
306.946
306.962
306.978
306.993
307.008
307.023
307.039
306.831
306.85
306.874
306.896
306.917
306.937
306.957
306.976
306.993
307.01
307.026
307.042
307.057
307.075
306.857
306.878
306.902
306.924
306.945
306.966
306.985
307.004
307.021
307.038
307.054
307.07
307.085
307.103
306.882
306.903
306.927
306.949
306.971
306.992
307.012
307.031
307.049
307.067
307.083
307.1
307.115
307.133
306.907
306.929
306.953
306.975
306.997
307.018
307.038
307.057
307.075
307.093
307.109
307.126
307.141
307.158
306.931
306.954
306.978
307
307.022
307.043
307.063
307.082
307.1
307.118
307.135
307.151
307.167
307.184
306.955
306.978
307.002
307.024
307.045
307.066
307.086
307.105
307.123
307.141
307.158
307.174
307.19
307.206
306.979
307.002
307.025
307.046
307.068
307.088
307.108
307.126
307.145
307.162
307.179
307.196
307.212
307.228
307.002
307.025
307.046
307.068
307.088
307.108
307.128
307.146
307.165
307.182
307.199
307.216
307.232
307.248
307.024
307.047
307.067
307.088
307.108
307.128
307.147
307.165
307.183
307.2
307.217
307.234
307.251
307.266
307.046
307.068
307.087
307.107
307.127
307.146
307.164
307.182
307.2
307.217
307.234
307.25
307.267
307.283
307.067
307.088
307.106
307.126
307.144
307.163
307.181
307.198
307.215
307.232
307.249
307.265
307.282
307.299
307.087
307.107
307.124
307.143
307.16
307.178
307.196
307.213
307.23
307.246
307.263
307.279
307.296
307.314
307.108
307.126
307.142
307.159
307.176
307.193
307.209
307.226
307.242
307.258
307.275
307.292
307.309
307.328
306.588
306.601
306.619
306.635
306.652
306.668
306.684
306.699
306.713
306.728
306.741
306.754
306.767
306.78
306.617
306.63
306.648
306.666
306.684
306.7
306.717
306.733
306.749
306.764
306.779
306.793
306.807
306.823
306.648
306.662
306.681
306.699
306.717
306.734
306.751
306.767
306.783
306.799
306.814
306.828
306.842
306.859
306.678
306.694
306.713
306.73
306.749
306.766
306.784
306.801
306.818
306.834
306.849
306.865
306.879
306.896
306.709
306.725
306.744
306.762
306.781
306.799
306.817
306.834
306.851
306.868
306.884
306.899
306.914
306.93
306.74
306.757
306.776
306.794
306.813
306.831
306.849
306.867
306.884
306.901
306.918
306.934
306.949
306.964
306.771
306.789
306.807
306.825
306.844
306.862
306.88
306.898
306.916
306.933
306.95
306.966
306.982
306.997
306.802
306.82
306.838
306.856
306.874
306.893
306.911
306.929
306.947
306.964
306.981
306.998
307.014
307.029
306.831
306.849
306.867
306.885
306.903
306.922
306.94
306.958
306.976
306.994
307.011
307.027
307.044
307.059
306.861
306.879
306.896
306.914
306.932
306.95
306.968
306.986
307.004
307.022
307.039
307.056
307.073
307.088
306.888
306.906
306.923
306.941
306.959
306.977
306.995
307.013
307.031
307.049
307.067
307.083
307.101
307.115
306.916
306.934
306.95
306.968
306.985
307.003
307.021
307.039
307.057
307.074
307.092
307.109
307.127
307.142
306.941
306.959
306.974
306.992
307.009
307.027
307.045
307.063
307.081
307.099
307.117
307.135
307.153
307.169
306.968
306.984
307
307.016
307.033
307.05
307.068
307.086
307.103
307.121
307.139
307.157
307.176
307.195
306.438
306.441
306.45
306.459
306.468
306.478
306.488
306.498
306.507
306.517
306.526
306.535
306.544
306.554
306.467
306.47
306.479
306.487
306.497
306.508
306.518
306.529
306.539
306.549
306.559
306.57
306.579
306.591
306.496
306.5
306.509
306.518
306.528
306.539
306.549
306.56
306.571
306.582
306.592
306.603
306.613
306.625
306.525
306.531
306.54
306.549
306.559
306.57
306.581
306.593
306.604
306.615
306.626
306.638
306.648
306.661
306.555
306.561
306.571
306.58
306.591
306.602
306.614
306.626
306.637
306.649
306.661
306.673
306.684
306.696
306.586
306.593
306.602
306.613
306.624
306.635
306.647
306.659
306.671
306.684
306.696
306.708
306.72
306.732
306.616
306.625
306.634
306.645
306.656
306.668
306.68
306.692
306.705
306.718
306.731
306.743
306.756
306.767
306.647
306.657
306.666
306.677
306.688
306.7
306.713
306.726
306.739
306.752
306.765
306.778
306.792
306.803
306.678
306.688
306.697
306.709
306.72
306.733
306.746
306.759
306.772
306.786
306.799
306.813
306.827
306.838
306.709
306.719
306.728
306.74
306.752
306.765
306.778
306.792
306.805
306.819
306.833
306.847
306.862
306.872
306.739
306.749
306.758
306.77
306.783
306.796
306.81
306.824
306.838
306.852
306.867
306.88
306.895
306.906
306.769
306.779
306.789
306.801
306.814
306.827
306.841
306.855
306.869
306.884
306.899
306.913
306.929
306.94
306.796
306.806
306.817
306.829
306.843
306.857
306.871
306.886
306.901
306.916
306.931
306.946
306.962
306.973
306.826
306.835
306.846
306.859
306.872
306.886
306.901
306.915
306.93
306.945
306.961
306.976
306.992
307.007
306.348
306.345
306.346
306.347
306.348
306.351
306.353
306.356
306.36
306.364
306.367
306.372
306.372
306.367
306.368
306.369
306.37
306.373
306.376
306.379
306.383
306.387
306.391
306.396
306.393
306.39
306.391
306.392
306.394
306.396
306.399
306.403
306.407
306.411
306.415
306.421
306.417
306.415
306.416
306.417
306.418
306.421
306.424
306.428
306.432
306.437
306.442
306.447
306.442
306.44
306.441
306.442
306.444
306.447
306.45
306.455
306.459
306.464
306.469
306.475
306.468
306.466
306.467
306.468
306.471
306.474
306.477
306.482
306.487
306.492
306.498
306.504
306.493
306.493
306.494
306.495
306.498
306.501
306.505
306.51
306.516
306.522
306.528
306.534
306.519
306.52
306.521
306.523
306.526
306.53
306.534
306.54
306.545
306.552
306.558
306.565
306.545
306.547
306.549
306.551
306.555
306.559
306.564
306.569
306.576
306.583
306.59
306.597
306.572
306.575
306.576
306.58
306.584
306.588
306.594
306.6
306.607
306.614
306.622
306.629
306.598
306.602
306.604
306.608
306.613
306.618
306.624
306.631
306.638
306.646
306.654
306.661
306.625
306.63
306.632
306.637
306.642
306.648
306.655
306.662
306.67
306.678
306.687
306.694
306.651
306.656
306.66
306.665
306.671
306.678
306.685
306.693
306.702
306.71
306.719
306.727
306.681
306.684
306.689
306.694
306.7
306.707
306.715
306.724
306.733
306.742
306.751
306.76
308.178
308.208
308.236
308.271
308.305
308.341
308.136
308.167
308.198
308.239
308.279
308.324
308.099
308.127
308.158
308.199
308.243
308.292
308.057
308.081
308.11
308.149
308.192
308.242
308.389
308.423
308.455
308.491
308.522
308.553
308.357
308.399
308.437
308.479
308.517
308.555
308.327
308.371
308.414
308.461
308.507
308.551
308.292
308.337
308.382
308.433
308.482
308.531
308.255
308.299
308.343
308.395
308.446
308.496
308.215
308.255
308.297
308.345
308.393
308.441
308.174
308.207
308.244
308.284
308.327
308.37
308.564
308.597
308.627
308.655
308.679
308.701
308.541
308.585
308.62
308.655
308.686
308.714
308.519
308.569
308.612
308.654
308.69
308.722
308.492
308.546