/*--------------------------------*- C++ -*----------------------------------*\
| =========                 |                                                 |
| \\      /  F ield         | OpenFOAM: The Open Source CFD Toolbox           |
|  \\    /   O peration     | Version:  v2106                                 |
|   \\  /    A nd           | Website:  www.openfoam.com                      |
|    \\/     M anipulation  |                                                 |
\*---------------------------------------------------------------------------*/
FoamFile
{
    version     2.0;
    format      ascii;
    arch        "LSB;label=32;scalar=64";
    class       volScalarField;
    location    "0.000198";
    object      k;
}
// * * * * * * * * * * * * * * * * * * * * * * * * * * * * * * * * * * * * * //

dimensions      [0 2 -2 0 0 0 0];

internalField   nonuniform List<scalar> 
18273
(
6.85858
5.11521
3.90122
3.00909
2.82458
3.40749
4.9768
7.51744
10.4586
12.6331
12.9941
11.7796
10.6761
10.1968
6.94005
4.89537
3.31124
2.16527
1.68708
1.72413
2.3975
3.77917
5.74809
7.74326
9.11688
9.31365
8.5484
8.45636
6.85607
4.51485
2.71293
1.56415
1.05187
0.910262
1.14184
1.82679
2.97386
4.35531
5.6032
6.60192
6.64711
7.13918
6.07612
3.547
1.94025
1.05444
0.650667
0.500771
0.56292
0.892226
1.53528
2.40133
3.27873
4.00009
4.5538
5.59403
4.53123
2.41415
1.22707
0.629891
0.366898
0.265565
0.281075
0.447498
0.81982
1.37855
2.00062
2.54613
3.16552
4.5617
2.94049
1.42623
0.668237
0.323889
0.181446
0.129672
0.14011
0.236445
0.466228
0.843656
1.30847
1.78132
2.37913
3.94715
1.68459
0.733956
0.314777
0.144247
0.0791181
0.0592319
0.073218
0.140197
0.297234
0.568759
0.9337
1.36175
2.0348
4.2209
0.904917
0.351022
0.137152
0.0598189
0.0332978
0.0292331
0.0465206
0.101592
0.222922
0.434885
0.739687
1.15805
2.06141
5.19106
0.541705
0.19467
0.0724137
0.0322268
0.020186
0.0224318
0.0418822
0.0927637
0.197956
0.380976
0.663681
1.15722
2.56336
6.75443
0.488897
0.183785
0.0743417
0.0392597
0.0287951
0.0322712
0.0532486
0.104373
0.206511
0.388552
0.711322
1.44934
3.65844
8.3712
0.757245
0.333751
0.145031
0.0834945
0.0645527
0.0655561
0.0883226
0.145492
0.261488
0.485098
0.949374
2.1929
5.13309
9.39673
1.56668
0.954293
0.492002
0.2477
0.163724
0.148137
0.172733
0.245671
0.399185
0.720622
1.46576
3.35551
6.43643
9.7675
2.89265
2.2589
1.47683
0.81828
0.470105
0.351074
0.353545
0.447372
0.659303
1.11494
2.13705
4.30424
6.96528
9.62542
4.45557
4.00386
3.19457
2.21133
1.40743
0.943476
0.778652
0.835472
1.09076
1.6639
2.79986
4.8196
6.98462
9.17114
5.97241
4.18457
3.06273
2.31052
2.07235
2.27662
3.03473
4.27594
5.77565
7.20924
8.47076
9.54926
10.3961
11.1216
5.11988
3.45883
2.34647
1.59854
1.26837
1.24654
1.59396
2.3312
3.3893
4.55799
5.63774
6.62876
7.42749
8.2341
4.29533
2.78719
1.77071
1.12397
0.804438
0.70254
0.83103
1.23304
1.92187
2.79265
3.67949
4.49272
5.29385
6.24906
3.32969
2.08171
1.25137
0.747693
0.495018
0.39506
0.43293
0.643516
1.07042
1.67314
2.33916
2.9633
3.51048
4.52874
2.37335
1.40296
0.790753
0.445934
0.278645
0.210313
0.220451
0.333408
0.595453
1.00722
1.49949
1.99285
2.48102
3.47264
1.54113
0.837947
0.437193
0.232484
0.139065
0.102626
0.10905
0.175859
0.34109
0.62303
0.99208
1.40265
1.86798
2.77307
0.90327
0.439566
0.210007
0.105407
0.0612253
0.0462041
0.0546733
0.10059
0.212801
0.414038
0.699298
1.05351
1.52322
2.55375
0.501396
0.212948
0.0914302
0.0430517
0.0248059
0.0210217
0.0316852
0.0687432
0.154211
0.309903
0.544718
0.86841
1.38879
2.72072
0.318126
0.118533
0.0451087
0.0198997
0.0120657
0.0130981
0.0253126
0.0593445
0.133191
0.267458
0.481522
0.817639
1.48476
3.26471
0.30653
0.112002
0.0419848
0.0198157
0.0136858
0.0160861
0.0296457
0.0642597
0.136788
0.270136
0.499566
0.918445
1.87609
4.07528
0.47424
0.19547
0.0794933
0.0421286
0.0311522
0.032571
0.0480118
0.0876106
0.170597
0.328719
0.623469
1.23444
2.54061
4.98155
0.975645
0.527582
0.250868
0.12305
0.0824569
0.0771106
0.0954956
0.147055
0.255873
0.469726
0.895798
1.78779
3.43275
5.99733
1.88519
1.27532
0.748587
0.391656
0.228569
0.184353
0.200566
0.270519
0.419233
0.712427
1.29715
2.47997
4.49739
7.12226
3.11217
2.39606
1.6871
1.06248
0.647944
0.457843
0.4247
0.502586
0.694442
1.06931
1.79023
3.22656
5.54459
8.16478
4.59511
3.16451
2.32251
1.78256
1.57114
1.56572
1.80724
2.2571
2.88251
3.56974
4.37128
5.54962
7.80672
10.9515
3.05337
2.13093
1.52024
1.11493
0.921198
0.869441
0.979736
1.25428
1.69782
2.26087
2.97058
3.91516
5.34912
7.28966
2.05058
1.44614
1.00661
0.705457
0.546798
0.485859
0.527806
0.687778
0.993623
1.43194
1.99887
2.7299
3.69184
5.03868
1.39456
0.960575
0.64251
0.429194
0.314083
0.264501
0.277425
0.368509
0.572385
0.896501
1.33039
1.87237
2.55084
3.52001
0.93953
0.604029
0.380083
0.240664
0.167374
0.135284
0.139262
0.191891
0.324348
0.554838
0.879226
1.29187
1.80597
2.58255
0.61464
0.35293
0.203424
0.121038
0.080416
0.0634583
0.0664334
0.0989482
0.185277
0.346621
0.588814
0.912388
1.33465
1.9963
0.391871
0.192907
0.0983746
0.0540993
0.0344224
0.0272751
0.0312175
0.0538807
0.113259
0.229373
0.415207
0.6803
1.05223
1.66158
0.26144
0.106765
0.0457024
0.0222306
0.0134449
0.011408
0.0163116
0.0346741
0.0802901
0.170883
0.323092
0.554691
0.905839
1.51733
0.205607
0.0718354
0.0251565
0.0101921
0.00580946
0.00598508
0.0116276
0.0287469
0.0689935
0.148509
0.286149
0.507727
0.869626
1.53225
0.214196
0.0730513
0.0240498
0.00926413
0.00547933
0.00635188
0.0127796
0.0306952
0.071341
0.15111
0.292354
0.530061
0.937186
1.69508
0.298404
0.114119
0.0421613
0.0188682
0.0124241
0.0129812
0.0206584
0.0417597
0.0887805
0.181039
0.346799
0.630073
1.11183
2.00939
0.528836
0.249153
0.110476
0.0531353
0.0347732
0.0328473
0.0427404
0.0708536
0.132189
0.25124
0.464038
0.821588
1.42166
2.57111
0.962355
0.545447
0.291806
0.153452
0.0960369
0.0832388
0.0956246
0.135405
0.219155
0.378292
0.661452
1.14374
2.00834
3.48202
1.63459
1.03776
0.644099
0.386703
0.248874
0.200811
0.20985
0.264847
0.379225
0.590753
0.967505
1.6798
3.12589
5.11069
10.6928
12.4654
14.3357
16.9093
23.8331
54.3429
9.43629
11.7978
14.1977
16.3834
22.0185
50.7767
8.60525
11.8313
14.8836
16.5656
20.8041
48.198
7.93555
12.4992
16.2049
16.8854
19.8297
46.4316
7.85363
13.937
17.8415
17.1813
19.0051
45.5035
8.51217
15.9884
19.1004
17.0708
18.2837
45.423
10.0383
17.6156
19.1537
16.4041
17.5727
46.0666
11.7914
18.0641
18.0533
15.6008
17.2213
47.0432
12.8816
17.0258
16.4437
15.0996
17.3086
48.309
12.7632
15.1565
15.1083
14.8837
17.5725
49.797
11.823
13.3524
14.1063
14.7915
18.0049
51.4053
10.8687
12.0858
13.3069
14.7206
18.6536
52.9077
10.13
11.2549
12.7234
14.6991
19.5562
54.49
9.60573
10.7994
12.3854
14.9118
20.9311
56.3255
12.1026
14.2434
15.9337
17.4757
21.8045
47.1641
9.40428
12.0211
14.8854
17.0204
20.6304
44.3289
7.70809
10.784
14.7738
17.4552
20.1058
42.3379
6.2618
10.0042
15.2976
18.2257
19.8536
40.7909
5.41697
9.94021
16.4304
19.1229
19.657
39.7255
5.06808
10.6009
17.823
19.7426
19.2274
39.3976
5.39269
11.6066
18.6455
19.6808
18.6527
39.654
6.09823
12.4737
18.5758
19.0881
18.3106
40.3582
6.88589
12.6842
17.589
18.3083
18.4276
41.5437
7.44215
12.1194
16.2798
17.8423
18.9749
43.1413
7.67153
11.2691
15.1881
17.7158
19.8132
44.9168
7.91594
10.8319
14.6105
17.6979
20.6558
46.6088
8.5568
11.0433
14.4434
17.5056
21.297
48.1693
9.25878
11.6925
14.4388
17.0211
21.8266
49.6305
14.269
17.8139
20.0396
20.3985
22.5218
37.6749
9.7196
13.0899
16.4395
18.7227
21.8097
36.1097
7.10477
10.3129
14.3049
17.9602
21.5912
35.2312
5.17651
8.27597
12.9187
17.8356
21.3595
34.4526
4.02687
7.01077
12.2074
18.0809
21.4397
33.6219
3.27708
6.22342
12.1356
18.7097
21.5259
33.1285
2.88073
5.96592
12.6489
19.2583
21.6982
33.4376
2.7823
6.20212
13.2
19.6458
21.8389
34.4813
2.92446
6.5718
13.4544
19.6592
22.1015
36.1567
3.21926
6.77235
13.2087
19.5266
22.8631
38.325
3.53701
6.74603
12.787
19.6689
24.1597
40.6445
3.93588
6.89195
12.7642
20.049
25.2993
42.5294
4.8718
7.81995
13.4562
20.2586
25.6643
43.673
6.24754
9.66025
14.9293
20.0627
25.0823
44.1326
8.91574
10.4826
12.5662
15.9338
23.4732
58.3473
6.85349
8.38105
10.895
14.3568
21.0663
54.0189
5.15201
6.71161
9.75164
13.5965
19.4921
50.3831
3.5434
5.34167
8.99161
13.1734
18.4365
47.4153
2.55713
4.54998
8.66439
13.1065
17.6046
45.0426
2.0421
4.41084
8.99746
13.3847
17.1013
43.218
1.94113
4.78361
9.71897
13.62
16.5322
42.3115
2.1985
5.53203
10.4193
13.5698
15.9246
42.3944
2.77714
6.29664
10.5789
13.0472
15.4281
43.5402
3.53507
6.71017
10.0996
12.2633
15.2441
45.7241
4.23666
6.6835
9.26061
11.4326
15.4288
48.3347
4.72551
6.46452
8.44809
10.7265
15.9463
51.1591
4.96012
6.19907
7.8561
10.3483
16.8424
54.0206
4.9979
6.11157
7.77589
10.6527
18.1012
55.9084
9.28981
11.7214
14.1642
16.8589
22.7612
51.2751
6.1314
8.19728
11.096
14.5746
20.3958
47.3952
3.97701
5.74833
8.86945
13.0204
18.8154
43.9167
2.50799
3.94818
7.14206
11.9359
17.9058
40.7474
1.71228
3.03964
6.13667
11.1295
17.1681
38.051
1.26699
2.58665
5.78074
10.8459
16.3966
36.034
1.06856
2.50081
5.9148
10.8125
15.6885
34.9448
1.07399
2.72338
6.30531
10.8079
15.1268
34.7369
1.28755
3.1359
6.64722
10.6238
14.5841
35.4633
1.68671
3.54137
6.63376
10.1649
14.6098
37.4887
2.18927
3.82659
6.3783
9.68883
15.301
40.2515
2.70022
4.04534
6.16461
9.44544
16.4741
42.9736
3.17408
4.31514
6.26739
9.72789
17.9569
45.3769
3.59201
4.78955
6.92158
10.7496
19.6432
47.6576
7.54425
11.0569
15.1685
19.0669
24.4034
44.1802
4.41934
6.81166
10.4258
15.0023
21.3223
40.4958
2.4878
4.21994
7.31353
12.1218
19.1007
37.0426
1.52592
2.61722
5.14474
9.99922
17.6205
33.8193
1.0231
1.87807
3.93142
8.29915
15.9333
30.9469
0.73
1.45457
3.23581
7.23438
14.3455
28.3624
0.566572
1.22315
2.88962
6.59844
13.0815
26.5439
0.496127
1.14352
2.80385
6.27521
12.2106
25.7119
0.509271
1.18648
2.87124
6.12108
11.73
26.0776
0.614051
1.31663
2.94328
6.00479
11.9284
27.8871
0.806246
1.50077
3.01152
6.04293
12.9458
30.9455
1.07657
1.75146
3.20549
6.48594
14.7486
34.3738
1.42677
2.14705
3.76121
7.63453
17.0443
37.2667
1.90093
2.86422
5.01123
9.70314
19.2626
39.3647
55.4515
21.1473
13.4758
10.3324
8.42193
7.25317
54.0414
19.4727
12.6583
10.0311
8.4063
7.41299
52.8632
18.8061
12.7508
10.4911
8.88491
7.6499
50.6934
18.6271
13.5014
11.4606
9.45093
7.57649
49.1269
19.0262
14.68
12.4994
9.48165
6.66047
48.0546
20.2305
15.9085
12.7762
8.40844
5.06129
47.651
21.9353
16.1758
11.4838
6.51584
3.3762
47.9984
23.1798
14.9293
9.12734
4.54573
2.09081
49.0132
23.4009
12.9599
6.90042
3.15228
1.36692
50.1964
22.7867
11.2586
5.56086
2.54941
1.15841
51.4578
21.8331
10.429
5.22014
2.65397
1.41802
53.102
20.8316
10.2665
5.66986
3.37546
2.19693
55.429
20.1622
10.7605
6.69431
4.55388
3.35687
58.8327
21.2172
11.9973
8.27545
6.21041
4.87259
47.4074
22.539
14.8301
11.0054
8.22329
6.40613
45.985
20.9378
13.7229
9.82977
7.17838
5.63736
44.8996
20.1642
13.1446
9.29065
6.57488
4.96121
43.8101
19.7999
13.0396
9.23659
6.16769
4.25999
42.6139
19.911
13.3758
9.22285
5.52093
3.42195
41.925
20.7762
13.6046
8.60562
4.60926
2.53495
41.9786
22.0476
13.1211
7.35223
3.51893
1.71302
42.6221
23.0532
11.9996
5.89801
2.56419
1.11175
43.5846
23.4048
10.7858
4.76135
1.95877
0.7947
44.6296
22.9156
9.9568
4.24985
1.778
0.748559
45.527
21.9573
9.71949
4.35854
2.02018
0.97493
46.4853
21.0723
10.0679
5.08276
2.73831
1.57765
47.8002
20.7288
10.8946
6.26565
3.86494
2.54527
49.8966
22.1672
12.509
8.04873
5.50552
3.92579
38.6798
23.6364
17.0393
11.34
7.29364
4.71653
38.1729
22.7554
15.3206
8.96721
5.20983
3.31105
37.5563
21.6096
13.5782
7.38444
4.03925
2.46186
36.6513
20.6339
12.0734
6.43356
3.34694
1.89818
35.6322
20.0258
11.0264
5.72633
2.81838
1.45932
35.1647
19.7799
10.3559
5.11583
2.356
1.10043
35.5888
19.9837
9.88455
4.54382
1.94284
0.819388
36.8081
20.5369
9.5995
4.11763
1.64859
0.637264
38.3426
21.1598
9.47994
3.88091
1.4941
0.552316
39.6009
21.3076
9.48842
3.88
1.50887
0.570818
40.1914
20.7948
9.5813
4.08233
1.69875
0.709045
40.2825
20.2629
10.0422
4.68992
2.1977
1.0589
40.2594
20.5617
10.9251
5.64552
2.99146
1.65457
40.7756
21.9601
12.5863
7.17123
4.20579
2.5674
52.7446
20.7947
15.0983
12.9962
11.608
10.5389
51.6909
19.1035
14.1697
12.4874
11.4571
10.7753
50.7217
18.2547
13.93
12.6444
11.9693
11.5757
50.0242
18.0467
14.2089
13.415
13.223
13.023
49.4401
18.5272
14.9938
14.9364
15.3331
14.5812
48.9958
19.4043
16.4974
17.3506
17.4246
14.7496
48.5187
20.8638
18.6581
19.6178
17.7158
12.6809
47.9569
22.7316
20.4403
19.7784
15.3172
9.38009
47.7285
24.6059
20.4368
17.2252
11.6243
6.53976
48.6019
25.7053
18.5587
13.6667
8.57463
4.91977
49.9772
26.1227
16.7372
11.2858
7.08503
4.43699
51.7112
25.8944
15.574
10.3637
6.93314
4.87588
54.0519
24.8059
15.176
10.5107
7.59711
5.79029
57.4493
24.9872
15.6872
11.5431
8.99559
7.30368
45.5703
20.0925
16.5454
15.3671
13.7079
11.8249
44.7511
19.1441
16.2051
14.8583
12.9194
11.1795
44.1861
18.5578
16.1395
14.7124
12.4738
10.5092
43.9179
18.3244
16.3794
15.2138
12.8397
10.4066
43.8208
18.5296
17.131
16.5358
13.6974
9.96559
43.7393
19.3635
18.5916
18.1272
13.7445
9.04883
43.2895
21.1467
20.2723
18.4693
12.5268
7.41136
42.773
23.3049
20.7929
16.7544
10.2585
5.5986
42.8651
25.5025
19.4152
13.7188
7.8881
4.19678
43.4746
26.7786
17.2279
11.0672
6.31499
3.53289
44.2624
26.9597
15.8938
9.7808
5.80118
3.5182
45.1666
26.53
15.4828
9.81275
6.29781
4.19449
46.4899
25.4541
15.6888
10.6586
7.43046
5.33317
48.6567
25.7402
16.7211
12.4175
9.45153
7.22993
37.2516
22.0529
20.9913
19.8395
16.1105
11.8674
37.1538
21.9011
21.1488
17.8491
12.9728
9.10051
37.369
21.7044
20.7857
16.4667
10.8304
7.09924
37.5974
21.6077
20.4772
15.721
10.0096
6.322
37.5765
21.6102
20.0816
15.3075
9.5146
5.64975
37.1681
21.8888
19.7682
14.6057
8.72653
4.87897
36.7059
22.9308
18.9985
13.1433
7.52956
4.02701
36.7694
23.6094
17.6272
11.3523
6.34288
3.32907
37.1176
24.2554
16.2527
9.86203
5.45174
2.87191
37.4179
24.7398
15.4664
9.16243
5.1084
2.77561
37.5062
24.8222
15.3223
9.14584
5.24432
2.98046
37.5565
24.4961
15.8226
9.93532
6.07504
3.70292
37.8567
24.5323
16.8342
11.295
7.42339
4.85632
38.7955
25.761
18.8215
13.7521
9.79149
6.81899
2.43226
1.68644
1.25089
1.0012
0.929622
0.916349
0.963907
1.05603
1.22817
1.48577
1.84298
2.2755
3.14927
5.41343
1.19869
0.84962
0.634296
0.506645
0.464226
0.458698
0.485629
0.537367
0.636373
0.796021
1.03904
1.38238
2.08589
3.72914
0.631309
0.430729
0.319354
0.253916
0.230311
0.226941
0.240186
0.267816
0.325483
0.429167
0.60312
0.881643
1.41563
2.53167
0.364686
0.22272
0.157457
0.123036
0.110527
0.108449
0.114611
0.129493
0.164633
0.235773
0.366804
0.591966
1.00253
1.7681
0.230459
0.117842
0.0749438
0.056262
0.0499088
0.0488056
0.0518747
0.0606625
0.0838038
0.135104
0.236236
0.417928
0.737579
1.29967
0.15955
0.0652053
0.0345086
0.0239406
0.0207858
0.0203394
0.022205
0.0281808
0.0447801
0.0834777
0.162943
0.309973
0.566743
1.00702
0.120858
0.0395264
0.016036
0.00954406
0.00792977
0.00786676
0.0093172
0.0140511
0.0271955
0.058324
0.123368
0.2458
0.460915
0.82898
0.102562
0.0283576
0.0084928
0.00379082
0.00283883
0.00298515
0.00435484
0.00868535
0.0203775
0.0477877
0.104838
0.212437
0.402155
0.728108
0.0963251
0.0246677
0.006015
0.00186645
0.00113723
0.00140704
0.00288128
0.00735505
0.0190147
0.045656
0.0999923
0.201104
0.378146
0.681298
0.101748
0.026386
0.0063399
0.00179915
0.00100688
0.00136782
0.00311218
0.0081811
0.0208771
0.0489137
0.104401
0.205144
0.378602
0.672707
0.118723
0.0335085
0.00952492
0.00362194
0.00242478
0.00283735
0.00505772
0.0112156
0.0259053
0.057076
0.116645
0.221637
0.398639
0.69487
0.168695
0.0548871
0.0197074
0.00995686
0.00750828
0.00781641
0.0108618
0.0189399
0.0369751
0.0733215
0.139947
0.253329
0.439341
0.744697
0.270311
0.104818
0.0466123
0.0279338
0.0223211
0.0221047
0.0265952
0.0381241
0.0619346
0.107196
0.186859
0.318289
0.527792
0.860138
0.458203
0.206357
0.107296
0.0713749
0.0595733
0.0585577
0.0661696
0.0848902
0.120979
0.185981
0.295753
0.473075
0.764078
1.21368
1.20025
0.854024
0.666164
0.564741
0.550631
0.563657
0.601799
0.659844
0.761394
0.921973
1.16418
1.47746
1.93781
3.00833
0.571899
0.40628
0.317394
0.268847
0.260826
0.269313
0.290603
0.323042
0.37985
0.473861
0.624595
0.839283
1.19503
1.99906
0.297765
0.195709
0.149916
0.126695
0.122656
0.127029
0.137563
0.154336
0.185613
0.242148
0.341427
0.501676
0.788314
1.39225
0.170939
0.0964596
0.0692944
0.0577472
0.0557884
0.0578305
0.0627928
0.0713517
0.0891558
0.125234
0.195359
0.321427
0.555135
1.01504
0.108546
0.0495194
0.0311664
0.0249537
0.0239388
0.0248461
0.0272304
0.0319256
0.0429921
0.0679093
0.120409
0.221955
0.412913
0.771685
0.0768328
0.0276051
0.0138957
0.0101496
0.00954293
0.00994339
0.0112076
0.0141801
0.0219116
0.0405749
0.0818203
0.164918
0.322202
0.610259
0.0602486
0.0176067
0.00653726
0.0039427
0.00352239
0.00372601
0.00454554
0.00681073
0.0130007
0.0283635
0.0628499
0.133281
0.266591
0.507358
0.0524524
0.0134306
0.00367808
0.00157472
0.00123934
0.00138762
0.0020777
0.00415567
0.00986696
0.0239471
0.0551867
0.11835
0.236675
0.447564
0.0495598
0.0121201
0.00279128
0.000814554
0.000502921
0.000658482
0.00138496
0.00359994
0.0095611
0.0238465
0.0545948
0.115092
0.226061
0.420451
0.0510374
0.0128276
0.00298058
0.000822821
0.00047144
0.000667694
0.00155335
0.00417196
0.0109564
0.0265778
0.0589035
0.120261
0.229826
0.417965
0.0560576
0.0154683
0.00436813
0.001702
0.00119185
0.00143953
0.0026183
0.00592424
0.0140497
0.0319164
0.0674225
0.132447
0.245493
0.435777
0.0714572
0.0232393
0.00886802
0.00485213
0.00383202
0.00408357
0.00577673
0.0102476
0.020461
0.0416624
0.0819539
0.153062
0.273272
0.471503
0.103403
0.0417243
0.0210028
0.0140646
0.0117658
0.0118715
0.0144931
0.0210448
0.0347228
0.0611944
0.108995
0.190241
0.322873
0.535349
0.166486
0.0823592
0.0497438
0.0371986
0.0324885
0.0324408
0.0370697
0.0479412
0.0686277
0.105636
0.168387
0.270249
0.430657
0.672228
0.49305
0.369384
0.306529
0.279303
0.287186
0.309366
0.344976
0.3938
0.464921
0.567856
0.721974
0.941129
1.26342
1.84445
0.239895
0.175881
0.144077
0.129875
0.132344
0.142815
0.160347
0.185521
0.223959
0.283026
0.37634
0.517131
0.741274
1.15981
0.124911
0.0834476
0.0661107
0.0590207
0.0599475
0.0647567
0.0729334
0.0851412
0.105192
0.139159
0.197982
0.29589
0.465557
0.791453
0.0713485
0.0399371
0.0292844
0.0256721
0.0260544
0.0282095
0.031918
0.0377519
0.048406
0.0688775
0.108521
0.18167
0.317206
0.57833
0.0455729
0.01993
0.0125603
0.0105405
0.0106507
0.0115824
0.013266
0.016194
0.022323
0.035708
0.0643244
0.121617
0.232484
0.445377
0.0325223
0.0109504
0.00536983
0.00407653
0.00404936
0.00443932
0.00524509
0.00690701
0.0109122
0.0205681
0.0426094
0.0890526
0.181157
0.357147
0.0257152
0.00703856
0.00247648
0.00151645
0.00143217
0.00160217
0.00205588
0.00320678
0.0062851
0.0141068
0.0324572
0.071924
0.150781
0.300326
0.0223954
0.00547038
0.00141495
0.000591475
0.00048776
0.000582723
0.000924737
0.00193265
0.0047484
0.0119543
0.0287464
0.0645776
0.135449
0.267842
0.0212142
0.00505513
0.00111972
0.000313967
0.000200367
0.00028365
0.000632404
0.00170968
0.00470006
0.0121705
0.0290557
0.0640576
0.131608
0.254912
0.0218806
0.00543428
0.0012402
0.000345723
0.00021306
0.000317782
0.000754641
0.00207054
0.00559281
0.0140374
0.0323321
0.0687748
0.136876
0.257856
0.0240782
0.00666516
0.00191618
0.00079363
0.000596859
0.000744758
0.00136177
0.00310567
0.00751299
0.017561
0.0383818
0.0782117
0.150264
0.274831
0.0297258
0.010113
0.00415688
0.00243778
0.00201725
0.00221494
0.00317871
0.00568514
0.0115123
0.0239687
0.0485415
0.0936885
0.172727
0.305686
0.0420032
0.018835
0.0105158
0.00743253
0.00640334
0.00662995
0.00827319
0.0122106
0.0204559
0.0367035
0.0669393
0.120224
0.210258
0.357602
0.0684519
0.0391725
0.0261942
0.0204362
0.0182085
0.0185509
0.0216701
0.0285744
0.0415365
0.0646869
0.104575
0.171025
0.278777
0.448231
0.226168
0.172648
0.143063
0.132211
0.138569
0.156755
0.1875
0.229838
0.287162
0.36434
0.470829
0.624385
0.857957
1.24871
0.109344
0.081139
0.0657701
0.0594141
0.0612941
0.0688031
0.0823148
0.102217
0.131352
0.174145
0.23791
0.335061
0.490491
0.759527
0.0556384
0.0372378
0.0289737
0.0257521
0.0264477
0.0296316
0.0354428
0.044392
0.0586043
0.081856
0.120531
0.185257
0.296825
0.499971
0.031095
0.0170501
0.0121792
0.0105932
0.0108929
0.0122485
0.0147089
0.0186801
0.0256754
0.0387315
0.0634406
0.109353
0.19456
0.355968
0.0194967
0.00813209
0.00493469
0.00410036
0.00421394
0.00477603
0.00581446
0.00764127
0.011335
0.0192597
0.0361396
0.0704531
0.137974
0.269307
0.0136313
0.00431264
0.00200311
0.00149797
0.00151933
0.00174445
0.00219961
0.00313491
0.00534949
0.0106968
0.0230947
0.049933
0.104892
0.21346
0.0105516
0.00272691
0.000897235
0.000531624
0.000512774
0.000605396
0.000837212
0.00142361
0.00300697
0.00711967
0.017083
0.0393662
0.0859045
0.178242
0.00909443
0.00213516
0.000519836
0.000203907
0.000169821
0.000217682
0.000379025
0.000862025
0.00225229
0.00594072
0.0149175
0.0350204
0.0768941
0.159211
0.00875614
0.00202698
0.000429865
0.000114308
7.42249e-05
0.000114541
0.000275551
0.000786072
0.0022565
0.0060882
0.0151843
0.0350705
0.0756095
0.153554
0.0094231
0.00226705
0.000504674
0.000145866
9.96217e-05
0.000153023
0.000361659
0.00100327
0.00278303
0.00723924
0.0173918
0.0387438
0.080871
0.159455
0.0110081
0.00296162
0.000861332
0.00038714
0.000317928
0.000405721
0.000726183
0.00163132
0.00398092
0.00955624
0.0216761
0.0460905
0.0925429
0.176317
0.0145074
0.00492705
0.0020933
0.00129058
0.00112568
0.00128115
0.00185049
0.0032797
0.00663223
0.0140219
0.0292263
0.0584951
0.112115
0.20542
0.0221728
0.0101618
0.00575601
0.00412294
0.00366423
0.0039483
0.00507439
0.00759115
0.0127976
0.0232238
0.0432787
0.0800306
0.144634
0.252971
0.0391254
0.0228282
0.0151556
0.0117542
0.0106484
0.0112392
0.0136296
0.0184916
0.0273874
0.0432838
0.0712623
0.119334
0.199839
0.329421
0.132284
0.0987436
0.0777837
0.0683519
0.0696849
0.0803499
0.101523
0.133496
0.179047
0.241427
0.326156
0.446517
0.625591
0.908485
0.0624831
0.0453609
0.0348499
0.0298011
0.0296698
0.0335551
0.0419832
0.0557575
0.077345
0.11009
0.158928
0.233433
0.350111
0.54185
0.0305123
0.0199574
0.014685
0.0123131
0.0121531
0.0136456
0.0169967
0.0227584
0.0326398
0.0494437
0.0776373
0.125017
0.205293
0.345669
0.0161045
0.00860755
0.00581932
0.00476772
0.00470528
0.00529646
0.00662863
0.009037
0.0136164
0.0224928
0.0394795
0.0712228
0.129611
0.238109
0.00944523
0.00381545
0.00220015
0.00172378
0.00170244
0.001936
0.00247012
0.00352099
0.00579462
0.0108428
0.0217512
0.0441721
0.0884273
0.174516
0.0062144
0.00188364
0.00083202
0.000586943
0.000573801
0.00066512
0.000889948
0.00140066
0.0026773
0.0058629
0.0134072
0.0300668
0.0647468
0.134418
0.00466586
0.00114875
0.000355586
0.000195818
0.000181993
0.000219834
0.000330562
0.000633008
0.00148654
0.00378425
0.0095266
0.0227744
0.0512988
0.109723
0.00410003
0.00091931
0.000209266
7.36485e-05
5.81875e-05
7.85466e-05
0.000153407
0.000389761
0.00109924
0.00306104
0.00803783
0.0196653
0.0449552
0.0969087
0.004213
0.00092948
0.000185623
4.56199e-05
2.89592e-05
4.72875e-05
0.000121604
0.000366076
0.00109988
0.00310007
0.00808414
0.0195463
0.044157
0.0939955
0.00489793
0.0011139
0.000238156
7.19231e-05
5.39895e-05
8.12561e-05
0.000182037
0.000496924
0.00140198
0.00377114
0.009449
0.0220536
0.0483353
0.100082
0.00615207
0.00157216
0.000454302
0.000219991
0.00019532
0.000249887
0.000422911
0.00090185
0.00216978
0.00529619
0.0124288
0.0275793
0.057988
0.115633
0.00868642
0.00285549
0.00121195
0.000775467
0.000713996
0.000839336
0.0012002
0.00205408
0.00404731
0.00855308
0.0182109
0.0377075
0.0751551
0.143033
0.014247
0.00635526
0.00352189
0.00254231
0.00235067
0.00264908
0.00348624
0.00521423
0.00870107
0.0157438
0.0296819
0.0561811
0.10455
0.187989
0.0267198
0.015051
0.00962176
0.00739943
0.00688608
0.00760271
0.00958686
0.0133191
0.0199351
0.0317081
0.0527397
0.0898087
0.153568
0.258161
0.0960749
0.0701292
0.0522191
0.0423351
0.0396687
0.0435208
0.0549895
0.0755263
0.108673
0.157965
0.227224
0.325071
0.467803
0.684752
0.0438041
0.0312572
0.0227051
0.0178813
0.0162926
0.0174431
0.0217111
0.030026
0.044768
0.0691931
0.107363
0.16609
0.257426
0.403004
0.0201642
0.0131283
0.00915129
0.00703736
0.00632645
0.00671072
0.00832503
0.0116604
0.0181044
0.0300355
0.0510522
0.0869803
0.147805
0.252328
0.00977425
0.00530315
0.00342486
0.00256357
0.00229437
0.00244134
0.00306198
0.00442006
0.00731227
0.0133565
0.0254382
0.0485064
0.0911256
0.169831
0.00519282
0.00215532
0.00120795
0.000864429
0.000772215
0.000833206
0.00107899
0.0016641
0.00306567
0.00637451
0.0137891
0.0293782
0.0604642
0.121166
0.00316729
0.000972456
0.000422799
0.000273157
0.000241514
0.000268211
0.000373059
0.000655461
0.00142135
0.00342568
0.008324
0.0194059
0.042885
0.0907315
0.00234852
0.000569789
0.000170813
8.51941e-05
7.13907e-05
8.44129e-05
0.000137549
0.000301667
0.000793116
0.00217058
0.00572696
0.014176
0.0328671
0.0721535
0.00218661
0.000474405
0.000102255
3.16205e-05
2.21308e-05
3.0469e-05
6.68437e-05
0.000190196
0.000578224
0.00169689
0.00464898
0.0118151
0.0280007
0.0625193
0.00244895
0.000514997
9.73691e-05
2.24412e-05
1.37713e-05
2.24173e-05
5.86689e-05
0.000182577
0.000570277
0.00167566
0.00456124
0.0115167
0.0271658
0.0603507
0.00306558
0.000656762
0.000135536
4.37613e-05
3.57997e-05
5.10801e-05
0.000103127
0.00026616
0.000749294
0.00206969
0.00539059
0.013149
0.0301749
0.0654153
0.00409835
0.000988872
0.000283459
0.000148306
0.00014104
0.000179344
0.000282128
0.00055354
0.00127577
0.00311594
0.00750113
0.0172869
0.0379311
0.0789647
0.00612214
0.00191993
0.000807249
0.000538321
0.000523374
0.000631299
0.000884497
0.00143917
0.00270446
0.00561058
0.012051
0.0256148
0.0528293
0.104102
0.0105816
0.00450236
0.00242856
0.00178233
0.00172405
0.0020217
0.00269208
0.00397548
0.00647758
0.0115335
0.0217386
0.0417442
0.0795075
0.146383
0.0206828
0.0110611
0.00679432
0.00522971
0.00504129
0.00581192
0.00753668
0.0105876
0.0158262
0.0250798
0.0417259
0.0716044
0.124265
0.212124
0.0797171
0.0577282
0.0415348
0.0315126
0.0267317
0.026497
0.0313971
0.0430427
0.0649356
0.101421
0.156621
0.236185
0.352615
0.526774
0.03532
0.0251813
0.0176773
0.0130185
0.0107279
0.0103553
0.0120531
0.0166035
0.0259587
0.043211
0.0723326
0.11885
0.192039
0.308241
0.0154
0.0102252
0.00690719
0.0049469
0.00400016
0.00381353
0.00443238
0.00622966
0.0102457
0.0184422
0.0339593
0.0617391
0.109602
0.192246
0.00683871
0.00391983
0.00248156
0.00172172
0.00137461
0.00131011
0.00155032
0.00228733
0.00409349
0.0082034
0.0169365
0.0343612
0.0672811
0.128586
0.0032561
0.00147402
0.000829897
0.000549745
0.000434196
0.000419031
0.00052049
0.000847768
0.00173551
0.00398056
0.0092569
0.0207713
0.0442957
0.0907946
0.00182977
0.000606828
0.000271703
0.000163238
0.000126618
0.000126463
0.000174711
0.000338979
0.000828647
0.00217788
0.00559988
0.0135921
0.0309569
0.0669355
0.0013574
0.000338377
0.000102976
4.7808e-05
3.48858e-05
3.79165e-05
6.50978e-05
0.000162266
0.000472424
0.00137774
0.00379434
0.00971568
0.0231835
0.052136
0.00135563
0.000290348
6.1078e-05
1.73425e-05
1.05269e-05
1.39686e-05
3.34331e-05
0.00010469
0.000339694
0.00104466
0.00297557
0.00783299
0.0191817
0.0441301
0.00164562
0.000333888
6.08871e-05
1.38063e-05
8.45807e-06
1.29893e-05
3.25267e-05
0.000101656
0.000326876
0.000997274
0.00282551
0.00742407
0.0182033
0.0419473
0.00218881
0.000447609
9.05741e-05
3.17215e-05
2.7913e-05
3.78855e-05
6.80166e-05
0.0001608
0.000442232
0.00124214
0.00334545
0.00848897
0.0202884
0.0457582
0.00308176
0.000710426
0.000203865
0.000114844
0.000115281
0.000145911
0.000215463
0.000386659
0.00083733
0.00201277
0.00491785
0.0116773
0.0265413
0.0572811
0.00481319
0.00144822
0.000607048
0.000422994
0.000430465
0.00052867
0.000726357
0.00112626
0.00200641
0.00403582
0.00864136
0.0186712
0.0395168
0.0800898
0.00862087
0.00351365
0.00186497
0.00140385
0.00141431
0.00170587
0.00227901
0.00331001
0.00524627
0.00912763
0.0170509
0.0329546
0.0638374
0.119826
0.0173241
0.00885812
0.00529564
0.00412594
0.00411727
0.00490103
0.00645331
0.00907734
0.0134535
0.0211045
0.0348961
0.0599736
0.105178
0.181943
0.0254556
0.0386881
0.0637224
0.105647
0.170192
0.267244
0.413216
0.00970954
0.0153201
0.0268787
0.0482747
0.0850482
0.145124
0.24242
0.00359136
0.00604562
0.0115632
0.0228775
0.0445842
0.0836852
0.152957
0.00130774
0.00245679
0.00529367
0.0117268
0.0253301
0.0521707
0.103539
0.000490802
0.00108394
0.00268022
0.00662128
0.015625
0.0347302
0.0734709
0.000204611
0.000544522
0.00152278
0.00409699
0.0103331
0.02433
0.0540226
0.000103197
0.000321281
0.000978866
0.00278948
0.00737003
0.0180993
0.0416969
6.80549e-05
0.000230309
0.000732521
0.00215299
0.00584309
0.0147225
0.0347088
0.00119245
0.000234151
4.14915e-05
9.63501e-06
6.23773e-06
9.17022e-06
2.16186e-05
6.65863e-05
0.000217658
0.000683213
0.00199939
0.00542597
0.0137111
0.0324336
0.00166306
0.000326121
6.51532e-05
2.49246e-05
2.34858e-05
3.11906e-05
5.17396e-05
0.000113227
0.000302314
0.000856239
0.00236436
0.00618144
0.0152141
0.0352383
0.00244618
0.000540965
0.000156535
9.48121e-05
9.95725e-05
0.000126386
0.000180125
0.000303925
0.000623963
0.00146997
0.00361477
0.00875371
0.0203796
0.045057
0.00397046
0.00115009
0.000484925
0.000353936
0.000374019
0.000465695
0.000632924
0.0009511
0.00162746
0.00318203
0.00676271
0.0147443
0.0317595
0.0656914
0.00731581
0.00287736
0.00152063
0.00118058
0.00123049
0.00151204
0.00202152
0.00289874
0.00449503
0.00766271
0.0141772
0.0274906
0.0539353
0.102879
0.0150666
0.0074427
0.00438476
0.00348462
0.00358353
0.00435635
0.00577628
0.00810233
0.0118942
0.0184597
0.0303171
0.0521345
0.0922696
0.161713
4.85388
7.90238
12.525
18.5445
25.2803
30.5158
3.24215
5.72716
9.8537
15.8418
23.411
30.5223
2.45458
4.65452
8.53253
14.5325
22.6826
31.167
1.99368
4.00096
7.7224
13.7603
22.3115
31.7504
1.87556
3.82344
7.46175
13.3969
21.9167
31.83
1.8276
3.73105
7.2807
13.0525
21.2866
31.0494
1.89316
3.82603
7.38567
13.1174
21.0442
30.0947
2.04616
4.09446
7.84018
13.8484
21.6461
29.4259
2.34386
4.64107
8.83922
15.4973
23.4002
29.4126
2.78098
5.41425
10.2583
17.8103
25.7085
29.5679
3.33964
6.31658
11.8599
20.2332
27.2339
28.9419
3.91396
7.16948
13.3966
22.3248
27.5454
27.7976
4.78065
8.48059
15.376
24.0599
27.0334
26.9282
7.13509
12.12