/*--------------------------------*- C++ -*----------------------------------*\
| =========                 |                                                 |
| \\      /  F ield         | OpenFOAM: The Open Source CFD Toolbox           |
|  \\    /   O peration     | Version:  v2106                                 |
|   \\  /    A nd           | Website:  www.openfoam.com                      |
|    \\/     M anipulation  |                                                 |
\*---------------------------------------------------------------------------*/
FoamFile
{
    version     2.0;
    format      ascii;
    arch        "LSB;label=32;scalar=64";
    class       volScalarField;
    location    "0.000198";
    object      nut;
}
// * * * * * * * * * * * * * * * * * * * * * * * * * * * * * * * * * * * * * //

dimensions      [0 2 -1 0 0 0 0];

internalField   nonuniform List<scalar> 
18273
(
3.46877e-05
2.76369e-05
2.16883e-05
1.70153e-05
1.55026e-05
1.76189e-05
2.41785e-05
3.47242e-05
4.67453e-05
5.59806e-05
5.89998e-05
5.53506e-05
5.07229e-05
4.81687e-05
3.56035e-05
2.70667e-05
1.92569e-05
1.31157e-05
1.0137e-05
9.86102e-06
1.28373e-05
1.92331e-05
2.8266e-05
3.74905e-05
4.42516e-05
4.58719e-05
4.29982e-05
4.16826e-05
3.52227e-05
2.51241e-05
1.61717e-05
9.86405e-06
6.73807e-06
5.6691e-06
6.67791e-06
1.01331e-05
1.60099e-05
2.3121e-05
2.96407e-05
3.46377e-05
3.4911e-05
3.56916e-05
3.13396e-05
2.00265e-05
1.17741e-05
6.77054e-06
4.30375e-06
3.29475e-06
3.53149e-06
5.30792e-06
8.88928e-06
1.37901e-05
1.88634e-05
2.30875e-05
2.57177e-05
2.89157e-05
2.37584e-05
1.37999e-05
7.51946e-06
4.07921e-06
2.46241e-06
1.80112e-06
1.85392e-06
2.81645e-06
5.02897e-06
8.41095e-06
1.22637e-05
1.56691e-05
1.8873e-05
2.39181e-05
1.57942e-05
8.27529e-06
4.1385e-06
2.11386e-06
1.22881e-06
8.95573e-07
9.56886e-07
1.55794e-06
3.00183e-06
5.40128e-06
8.40199e-06
1.13888e-05
1.45456e-05
2.06535e-05
9.33872e-06
4.36e-06
1.98492e-06
9.5378e-07
5.41878e-07
4.15986e-07
5.14489e-07
9.61433e-07
1.99924e-06
3.79625e-06
6.21148e-06
8.90056e-06
1.23433e-05
2.0892e-05
5.2538e-06
2.17655e-06
8.99345e-07
4.08905e-07
2.34925e-07
2.12033e-07
3.38235e-07
7.24594e-07
1.56196e-06
3.01154e-06
5.05284e-06
7.60588e-06
1.19577e-05
2.40542e-05
3.37226e-06
1.30452e-06
5.18406e-07
2.41396e-07
1.55267e-07
1.73899e-07
3.18756e-07
6.88496e-07
1.438e-06
2.71211e-06
4.57777e-06
7.39108e-06
1.3827e-05
2.9746e-05
3.21932e-06
1.31154e-06
5.7721e-07
3.19583e-07
2.37183e-07
2.62766e-07
4.20882e-07
7.98511e-07
1.53152e-06
2.77702e-06
4.7844e-06
8.67916e-06
1.83893e-05
3.61182e-05
4.85266e-06
2.27329e-06
1.08331e-06
6.65575e-07
5.228e-07
5.27559e-07
6.95695e-07
1.10876e-06
1.9121e-06
3.35633e-06
6.0445e-06
1.21771e-05
2.47106e-05
4.10716e-05
9.28901e-06
5.76577e-06
3.1095e-06
1.71486e-06
1.22884e-06
1.13798e-06
1.31018e-06
1.80673e-06
2.81094e-06
4.77148e-06
8.82725e-06
1.75848e-05
3.06641e-05
4.38372e-05
1.60526e-05
1.25068e-05
8.28339e-06
4.83272e-06
3.03881e-06
2.46192e-06
2.54477e-06
3.16296e-06
4.48888e-06
7.16284e-06
1.25508e-05
2.2561e-05
3.41053e-05
4.44307e-05
2.33463e-05
2.07843e-05
1.65137e-05
1.16476e-05
7.76916e-06
5.62408e-06
5.00568e-06
5.52654e-06
7.09776e-06
1.02999e-05
1.61e-05
2.54101e-05
3.48463e-05
4.30966e-05
2.82351e-05
2.153e-05
1.64739e-05
1.27786e-05
1.13205e-05
1.19926e-05
1.52515e-05
2.07373e-05
2.74197e-05
3.37953e-05
3.92092e-05
4.32272e-05
4.54252e-05
4.70038e-05
2.53681e-05
1.87509e-05
1.34391e-05
9.50589e-06
7.53677e-06
7.16838e-06
8.69873e-06
1.22117e-05
1.7346e-05
2.30375e-05
2.82889e-05
3.27411e-05
3.57371e-05
3.79699e-05
2.20387e-05
1.55848e-05
1.05067e-05
6.97033e-06
5.06308e-06
4.33967e-06
4.88038e-06
6.90833e-06
1.05053e-05
1.5108e-05
1.98005e-05
2.39107e-05
2.74635e-05
3.04575e-05
1.75575e-05
1.18304e-05
7.54657e-06
4.72883e-06
3.21521e-06
2.56103e-06
2.69743e-06
3.81703e-06
6.1812e-06
9.5884e-06
1.34008e-05
1.6934e-05
1.97725e-05
2.35125e-05
1.28019e-05
8.06414e-06
4.81113e-06
2.84772e-06
1.83952e-06
1.40409e-06
1.43567e-06
2.07464e-06
3.60493e-06
6.05629e-06
9.03926e-06
1.20177e-05
1.47022e-05
1.87057e-05
8.49923e-06
4.88074e-06
2.68403e-06
1.49575e-06
9.27443e-07
6.98186e-07
7.33614e-07
1.14006e-06
2.15594e-06
3.91007e-06
6.23664e-06
8.79278e-06
1.13944e-05
1.52974e-05
5.12632e-06
2.61701e-06
1.30928e-06
6.85418e-07
4.12378e-07
3.19267e-07
3.77764e-07
6.77194e-07
1.40262e-06
2.70548e-06
4.55632e-06
6.78637e-06
9.39273e-06
1.38446e-05
2.98188e-06
1.32287e-06
5.89648e-07
2.86789e-07
1.70365e-07
1.48778e-07
2.25656e-07
4.80807e-07
1.05916e-06
2.10277e-06
3.6535e-06
5.67578e-06
8.45597e-06
1.40815e-05
2.02703e-06
7.95092e-07
3.1464e-07
1.42536e-07
8.85496e-08
9.81267e-08
1.88054e-07
4.31552e-07
9.49167e-07
1.86976e-06
3.27948e-06
5.29578e-06
8.66309e-06
1.60233e-05
2.04605e-06
7.98031e-07
3.1926e-07
1.57303e-07
1.10542e-07
1.2874e-07
2.29882e-07
4.82449e-07
9.97002e-07
1.90424e-06
3.35553e-06
5.7095e-06
1.03012e-05
1.92577e-05
3.08143e-06
1.34373e-06
5.91378e-07
3.33315e-07
2.51594e-07
2.61637e-07
3.75429e-07
6.59911e-07
1.23242e-06
2.25953e-06
4.0154e-06
7.24588e-06
1.32844e-05
2.31742e-05
5.86865e-06
3.2619e-06
1.62889e-06
8.75055e-07
6.28725e-07
5.9614e-07
7.25031e-07
1.07748e-06
1.79174e-06
3.11334e-06
5.5266e-06
9.99713e-06
1.73444e-05
2.76109e-05
1.04837e-05
7.19096e-06
4.3262e-06
2.41277e-06
1.55804e-06
1.34027e-06
1.46432e-06
1.92262e-06
2.86211e-06
4.62098e-06
7.84632e-06
1.36001e-05
2.23612e-05
3.23448e-05
1.60446e-05
1.2534e-05
8.9529e-06
5.84781e-06
3.82825e-06
2.96318e-06
2.9053e-06
3.44058e-06
4.62111e-06
6.80534e-06
1.06692e-05
1.74457e-05
2.70181e-05
3.63101e-05
2.01571e-05
1.51216e-05
1.16864e-05
9.29453e-06
8.25391e-06
8.18916e-06
9.28261e-06
1.13843e-05
1.43389e-05
1.75761e-05
2.11146e-05
2.54397e-05
3.26077e-05
4.20834e-05
1.44958e-05
1.09554e-05
8.26282e-06
6.29598e-06
5.25987e-06
4.93288e-06
5.42235e-06
6.75919e-06
8.97872e-06
1.1798e-05
1.51916e-05
1.91924e-05
2.4596e-05
3.14077e-05
1.0435e-05
7.84942e-06
5.76249e-06
4.20709e-06
3.3226e-06
2.94797e-06
3.11976e-06
3.92578e-06
5.52766e-06
7.84456e-06
1.07745e-05
1.42756e-05
1.84711e-05
2.36893e-05
7.45213e-06
5.3949e-06
3.78916e-06
2.64058e-06
1.98427e-06
1.68304e-06
1.72818e-06
2.20711e-06
3.32342e-06
5.12564e-06
7.52536e-06
1.0405e-05
1.3756e-05
1.78756e-05
5.18778e-06
3.47049e-06
2.2802e-06
1.50587e-06
1.08132e-06
8.87915e-07
9.02345e-07
1.19629e-06
1.95659e-06
3.29879e-06
5.19547e-06
7.55809e-06
1.0325e-05
1.38686e-05
3.48495e-06
2.06902e-06
1.23721e-06
7.65907e-07
5.26765e-07
4.25114e-07
4.43237e-07
6.38478e-07
1.15942e-06
2.14025e-06
3.61942e-06
5.5648e-06
7.95173e-06
1.11321e-05
2.2888e-06
1.16159e-06
6.09688e-07
3.46656e-07
2.28086e-07
1.85658e-07
2.13323e-07
3.59122e-07
7.36079e-07
1.47144e-06
2.64596e-06
4.28634e-06
6.43368e-06
9.44101e-06
1.58632e-06
6.71889e-07
2.93821e-07
1.45944e-07
9.06403e-08
7.92502e-08
1.14426e-07
2.39145e-07
5.42697e-07
1.13832e-06
2.12519e-06
3.576e-06
5.59945e-06
8.61103e-06
1.30095e-06
4.81127e-07
1.73823e-07
7.14416e-08
4.13738e-08
4.36753e-08
8.47564e-08
2.05642e-07
4.83733e-07
1.0216e-06
1.9248e-06
3.30079e-06
5.33244e-06
8.54449e-06
1.38535e-06
5.08209e-07
1.77612e-07
7.17002e-08
4.3528e-08
5.01393e-08
9.7562e-08
2.2698e-07
5.13132e-07
1.05601e-06
1.96939e-06
3.39431e-06
5.59127e-06
9.19192e-06
1.90063e-06
7.74981e-07
3.06272e-07
1.46805e-07
1.0046e-07
1.04747e-07
1.6121e-07
3.12744e-07
6.38897e-07
1.24891e-06
2.2758e-06
3.89423e-06
6.40936e-06
1.05786e-05
3.17822e-06
1.56821e-06
7.32069e-07
3.82318e-07
2.68022e-07
2.573e-07
3.27727e-07
5.22068e-07
9.30178e-07
1.68255e-06
2.94028e-06
4.89558e-06
7.90171e-06
1.29585e-05
5.38068e-06
3.16822e-06
1.76044e-06
9.95935e-07
6.86454e-07
6.22773e-07
7.10039e-07
9.73931e-07
1.511e-06
2.48364e-06
4.10304e-06
6.63564e-06
1.06708e-05
1.66657e-05
8.38355e-06
5.56701e-06
3.59213e-06
2.2933e-06
1.61786e-06
1.40953e-06
1.49988e-06
1.85828e-06
2.57257e-06
3.83441e-06
5.92971e-06
9.46e-06
1.54873e-05
2.26007e-05
4.98343e-05
5.67772e-05
6.4455e-05
7.13332e-05
7.6837e-05
9.89752e-05
4.48141e-05
5.40311e-05
6.47144e-05
7.43917e-05
8.34207e-05
0.000109582
4.05039e-05
5.27301e-05
6.62756e-05
7.6853e-05
8.81465e-05
0.000118857
3.68379e-05
5.34764e-05
6.97572e-05
7.86872e-05
9.03067e-05
0.000126679
3.5409e-05
5.69706e-05
7.45951e-05
8.0147e-05
9.00517e-05
0.000133158
3.67832e-05
6.29107e-05
7.88867e-05
8.02539e-05
8.77135e-05
0.000138354
4.14183e-05
6.82222e-05
7.98475e-05
7.81299e-05
8.4111e-05
0.000142048
4.74443e-05
7.07956e-05
7.71688e-05
7.47035e-05
8.03463e-05
0.000143542
5.21237e-05
6.916e-05
7.23036e-05
7.14042e-05
7.7168e-05
0.000142681
5.34657e-05
6.44962e-05
6.74299e-05
6.86199e-05
7.44919e-05
0.000139304
5.19824e-05
5.91343e-05
6.30845e-05
6.62057e-05
7.24491e-05
0.000133299
4.95478e-05
5.46515e-05
5.92506e-05
6.41245e-05
7.11336e-05
0.000124538
4.71536e-05
5.12419e-05
5.63227e-05
6.26536e-05
7.05141e-05
0.000113528
4.49243e-05
4.89983e-05
5.46404e-05
6.23593e-05
7.09533e-05
0.000100774
4.97807e-05
5.68983e-05
6.40319e-05
7.10571e-05
7.68899e-05
9.2207e-05
4.14655e-05
5.01817e-05
6.09366e-05
7.15571e-05
8.25442e-05
0.000102387
3.4962e-05
4.52303e-05
5.95409e-05
7.29268e-05
8.64494e-05
0.000111393
2.91704e-05
4.16223e-05
5.99563e-05
7.49934e-05
8.81045e-05
0.000118727
2.5401e-05
4.0407e-05
6.24611e-05
7.76266e-05
8.79981e-05
0.000124408
2.35195e-05
4.17683e-05
6.6362e-05
7.97239e-05
8.64438e-05
0.000128834
2.41165e-05
4.46687e-05
6.91665e-05
7.98072e-05
8.37537e-05
0.00013177
2.63954e-05
4.77892e-05
6.98503e-05
7.80471e-05
8.09389e-05
0.000132935
2.94589e-05
4.94695e-05
6.78828e-05
7.51161e-05
7.87903e-05
0.000132302
3.22365e-05
4.89545e-05
6.4402e-05
7.24386e-05
7.75728e-05
0.000129658
3.41206e-05
4.72147e-05
6.08508e-05
7.0368e-05
7.71327e-05
0.000124609
3.56769e-05
4.60249e-05
5.83157e-05
6.86656e-05
7.68413e-05
0.000116898
3.80699e-05
4.63679e-05
5.70354e-05
6.70317e-05
7.62731e-05
0.000106746
4.01811e-05
4.77862e-05
5.66109e-05
6.54619e-05
7.5712e-05
9.45951e-05
5.15392e-05
6.14631e-05
6.89577e-05
7.32784e-05
7.81078e-05
8.24372e-05
3.94609e-05
4.96407e-05
6.01854e-05
6.96387e-05
8.05008e-05
9.24328e-05
3.08579e-05
4.09781e-05
5.36407e-05
6.72323e-05
8.25485e-05
0.000101633
2.38886e-05
3.40427e-05
4.87864e-05
6.62173e-05
8.35297e-05
0.00010912
1.9292e-05
2.93714e-05
4.58627e-05
6.63896e-05
8.4242e-05
0.000114445
1.61706e-05
2.63911e-05
4.50445e-05
6.80798e-05
8.43572e-05
0.000118137
1.43954e-05
2.52839e-05
4.62388e-05
6.96012e-05
8.43453e-05
0.000121008
1.38462e-05
2.59259e-05
4.78399e-05
7.08105e-05
8.3866e-05
0.000122889
1.43607e-05
2.72415e-05
4.89886e-05
7.08973e-05
8.30676e-05
0.000123442
1.56154e-05
2.82655e-05
4.88468e-05
7.00403e-05
8.2974e-05
0.000122225
1.71696e-05
2.86835e-05
4.78654e-05
6.92657e-05
8.39767e-05
0.00011855
1.89209e-05
2.93558e-05
4.74012e-05
6.88215e-05
8.46258e-05
0.000111672
2.22675e-05
3.20735e-05
4.88044e-05
6.83434e-05
8.37761e-05
0.000101647
2.67551e-05
3.72666e-05
5.25034e-05
6.77256e-05
8.1451e-05
8.92075e-05
4.22432e-05
4.76646e-05
5.51049e-05
6.45679e-05
7.37884e-05
0.000102563
3.47157e-05
4.03743e-05
5.00477e-05
6.29359e-05
7.7761e-05
0.000113025
2.73111e-05
3.34197e-05
4.53219e-05
6.11552e-05
8.00261e-05
0.000121509
1.99566e-05
2.73064e-05
4.16191e-05
5.96053e-05
8.05193e-05
0.000127988
1.49239e-05
2.32703e-05
3.95541e-05
5.91169e-05
7.97902e-05
0.000132443
1.19875e-05
2.19061e-05
4.01841e-05
6.00085e-05
7.83355e-05
0.000134903
1.09912e-05
2.28181e-05
4.25625e-05
6.10185e-05
7.62872e-05
0.000136086
1.17633e-05
2.55555e-05
4.53588e-05
6.11882e-05
7.34985e-05
0.00013623
1.42015e-05
2.88301e-05
4.6613e-05
5.95218e-05
7.01274e-05
0.000135442
1.77215e-05
3.11589e-05
4.56114e-05
5.64495e-05
6.67936e-05
0.000133492
2.12705e-05
3.19415e-05
4.3067e-05
5.27343e-05
6.40041e-05
0.000129275
2.39966e-05
3.17479e-05
4.02162e-05
4.91428e-05
6.19749e-05
0.000122488
2.55481e-05
3.10497e-05
3.78506e-05
4.65473e-05
6.10781e-05
0.000113067
2.59168e-05
3.05453e-05
3.69026e-05
4.60764e-05
6.14725e-05
0.000100427
4.00646e-05
4.78164e-05
5.61255e-05
6.53597e-05
7.63675e-05
9.61414e-05
2.99129e-05
3.70954e-05
4.71103e-05
5.98065e-05
7.69003e-05
0.000105855
2.13087e-05
2.80404e-05
3.91279e-05
5.46467e-05
7.60895e-05
0.000113423
1.4572e-05
2.07385e-05
3.24541e-05
5.04332e-05
7.42631e-05
0.000118621
1.04381e-05
1.64145e-05
2.82011e-05
4.72981e-05
7.1854e-05
0.000121697
7.93249e-06
1.39386e-05
2.629e-05
4.60468e-05
6.94693e-05
0.000123142
6.63781e-06
1.30395e-05
2.62802e-05
4.58685e-05
6.72236e-05
0.000123634
6.35591e-06
1.35765e-05
2.7541e-05
4.60644e-05
6.51293e-05
0.000123278
7.14506e-06
1.51579e-05
2.90047e-05
4.57377e-05
6.25869e-05
0.000122201
8.94154e-06
1.7019e-05
2.94844e-05
4.43226e-05
6.08461e-05
0.000120849
1.1367e-05
1.86061e-05
2.91102e-05
4.24966e-05
6.03893e-05
0.000117956
1.39228e-05
1.99321e-05
2.86851e-05
4.10968e-05
6.10723e-05
0.000112249
1.63044e-05
2.13014e-05
2.90882e-05
4.11928e-05
6.27798e-05
0.000103618
1.8272e-05
2.31542e-05
3.10764e-05
4.36396e-05
6.55453e-05
9.27173e-05
3.06297e-05
4.14569e-05
5.38088e-05
6.61442e-05
7.9545e-05
8.9248e-05
2.11311e-05
2.96894e-05
4.14844e-05
5.62461e-05
7.49698e-05
9.78389e-05
1.36131e-05
2.06696e-05
3.15015e-05
4.7635e-05
7.03919e-05
0.000104141
9.11618e-06
1.42736e-05
2.38211e-05
4.06173e-05
6.63362e-05
0.000108023
6.44526e-06
1.07773e-05
1.90511e-05
3.47712e-05
6.12776e-05
0.000109694
4.77427e-06
8.59787e-06
1.60849e-05
3.09585e-05
5.64009e-05
0.000109191
3.78358e-06
7.28288e-06
1.43789e-05
2.85626e-05
5.24237e-05
0.000107695
3.28817e-06
6.66816e-06
1.36998e-05
2.73018e-05
4.94871e-05
0.000106013
3.22546e-06
6.66178e-06
1.37503e-05
2.67161e-05
4.74425e-05
0.000104751
3.64501e-06
7.13627e-06
1.40224e-05
2.63029e-05
4.68462e-05
0.000104206
4.53872e-06
7.93781e-06
1.44008e-05
2.62607e-05
4.82688e-05
0.000103415
5.84198e-06
9.06937e-06
1.52306e-05
2.73087e-05
5.19663e-05
0.000100392
7.51369e-06
1.07668e-05
1.72353e-05
3.04861e-05
5.7422e-05
9.3913e-05
9.63391e-06
1.35751e-05
2.14627e-05
3.66482e-05
6.3264e-05
8.42888e-05
0.000100005
7.12031e-05
5.69556e-05
4.72955e-05
4.05552e-05
3.63152e-05
0.00011307
6.98157e-05
5.59003e-05
4.75937e-05
4.17321e-05
3.78391e-05
0.000124504
7.18399e-05
5.85568e-05
5.09258e-05
4.45566e-05
3.92154e-05
0.000132385
7.58879e-05
6.36798e-05
5.56845e-05
4.69374e-05
3.85247e-05
0.000138358
8.17877e-05
6.97613e-05
5.96426e-05
4.62864e-05
3.37498e-05
0.000142282
8.91972e-05
7.46577e-05
5.96404e-05
4.07583e-05
2.5899e-05
0.000144435
9.6286e-05
7.48501e-05
5.33533e-05
3.19723e-05
1.77152e-05
0.000144962
0.000100148
6.89942e-05
4.31899e-05
2.30647e-05
1.14414e-05
0.000143692
9.9606e-05
6.04349e-05
3.38265e-05
1.6833e-05
7.93869e-06
0.000139852
9.48304e-05
5.29993e-05
2.82365e-05
1.42831e-05
7.09597e-06
0.000133374
8.74298e-05
4.88707e-05
2.6895e-05
1.50817e-05
8.69922e-06
0.000124783
7.92592e-05
4.72597e-05
2.88191e-05
1.86661e-05
1.28495e-05
0.000114519
7.21091e-05
4.75618e-05
3.27908e-05
2.40427e-05
1.86369e-05
0.000103013
6.68151e-05
4.90038e-05
3.79206e-05
3.05488e-05
2.52598e-05
9.24719e-05
7.59801e-05
5.80094e-05
4.54617e-05
3.6062e-05
2.98659e-05
0.000104309
7.40353e-05
5.52612e-05
4.24561e-05
3.32244e-05
2.75286e-05
0.000114736
7.47754e-05
5.50637e-05
4.18148e-05
3.16543e-05
2.50787e-05
0.000123058
7.71138e-05
5.66873e-05
4.24211e-05
3.0168e-05
2.19382e-05
0.000128853
8.09302e-05
5.92451e-05
4.23828e-05
2.71842e-05
1.78568e-05
0.00013289
8.63659e-05
6.05082e-05
3.95479e-05
2.28794e-05
1.34328e-05
0.000135556
9.17226e-05
5.84987e-05
3.41709e-05
1.78003e-05
9.30931e-06
0.000136593
9.49016e-05
5.37338e-05
2.80199e-05
1.33689e-05
6.29164e-06
0.000135497
9.49081e-05
4.84273e-05
2.31842e-05
1.06036e-05
4.74352e-06
0.000131871
9.1516e-05
4.45286e-05
2.09614e-05
9.88904e-06
4.63804e-06
0.000125459
8.58178e-05
4.29479e-05
2.14114e-05
1.11957e-05
5.97731e-06
0.000116757
7.94763e-05
4.3479e-05
2.43239e-05
1.45705e-05
9.12946e-06
0.000106355
7.40927e-05
4.53778e-05
2.88099e-05
1.94745e-05
1.37852e-05
9.48701e-05
7.0997e-05
4.85781e-05
3.45785e-05
2.56504e-05
1.95542e-05
8.35645e-05
8.10411e-05
6.0909e-05
4.24721e-05
2.92603e-05
2.06093e-05
9.50695e-05
8.02805e-05
5.57538e-05
3.53103e-05
2.25113e-05
1.55813e-05
0.000104967
7.87542e-05
5.1364e-05
3.0744e-05
1.86089e-05
1.23052e-05
0.00011259
7.74985e-05
4.79107e-05
2.80476e-05
1.60975e-05
9.86225e-06
0.000117858
7.73724e-05
4.56878e-05
2.58561e-05
1.39421e-05
7.77914e-06
0.000121731
7.84396e-05
4.41812e-05
2.36446e-05
1.18743e-05
5.98735e-06
0.000124831
8.0451e-05
4.27689e-05
2.12964e-05
9.94077e-06
4.55407e-06
0.000126942
8.25671e-05
4.15111e-05
1.93524e-05
8.52054e-06
3.62226e-06
0.000127091
8.36809e-05
4.0483e-05
1.81057e-05
7.75672e-06
3.20554e-06
0.00012423
8.2417e-05
3.97311e-05
1.78274e-05
7.80467e-06
3.3432e-06
0.000117901
7.86593e-05
3.93812e-05
1.85068e-05
8.71847e-06
4.11944e-06
0.000108725
7.43462e-05
4.02999e-05
2.07642e-05
1.09337e-05
5.8843e-06
9.76472e-05
7.12764e-05
4.2267e-05
2.41152e-05
1.41989e-05
8.63419e-06
8.57983e-05
6.98307e-05
4.55058e-05
2.86294e-05
1.84832e-05
1.22881e-05
9.7506e-05
7.26939e-05
6.63124e-05
5.95957e-05
5.37964e-05
4.96365e-05
0.000110569
7.14387e-05
6.43394e-05
5.84873e-05
5.42161e-05
5.15151e-05
0.000121928
7.25626e-05
6.53486e-05
6.06245e-05
5.76457e-05
5.56786e-05
0.000131485
7.59307e-05
6.8879e-05
6.54705e-05
6.36657e-05
6.14292e-05
0.000138794
8.17863e-05
7.45515e-05
7.26357e-05
7.13877e-05
6.5763e-05
0.000143681
8.89637e-05
8.21386e-05
8.12734e-05
7.68743e-05
6.39604e-05
0.000145774
9.7097e-05
9.01314e-05
8.71687e-05
7.52574e-05
5.4738e-05
0.000144932
0.000104695
9.47961e-05
8.51192e-05
6.50654e-05
4.18163e-05
0.000141817
0.000110221
9.25491e-05
7.45552e-05
5.11994e-05
3.08266e-05
0.000137614
0.000111623
8.42536e-05
6.13758e-05
3.99761e-05
2.46488e-05
0.000131437
0.00010744
7.61887e-05
5.26836e-05
3.46918e-05
2.32307e-05
0.000123132
9.88386e-05
6.99234e-05
4.90915e-05
3.44878e-05
2.56437e-05
0.000113081
8.84452e-05
6.58087e-05
4.89901e-05
3.72634e-05
2.99295e-05
0.000101787
7.84518e-05
6.30554e-05
5.10083e-05
4.19637e-05
3.57308e-05
9.06335e-05
7.38902e-05
6.74244e-05
6.15804e-05
5.52986e-05
4.94143e-05
0.000102869
7.31576e-05
6.65535e-05
6.07569e-05
5.41097e-05
4.84506e-05
0.000113792
7.40395e-05
6.78305e-05
6.20902e-05
5.44271e-05
4.74022e-05
0.000123181
7.66466e-05
7.10441e-05
6.57404e-05
5.68741e-05
4.7378e-05
0.000130641
8.11895e-05
7.6181e-05
7.12793e-05
5.96033e-05
4.48608e-05
0.000135726
8.77498e-05
8.27747e-05
7.60507e-05
5.83486e-05
4.02954e-05
0.000137672
9.60814e-05
8.82576e-05
7.54171e-05
5.26846e-05
3.32666e-05
0.00013685
0.000103638
8.85526e-05
6.82086e-05
4.3814e-05
2.58576e-05
0.000134376
0.000109182
8.24694e-05
5.72755e-05
3.4909e-05
2.02132e-05
0.00013015
0.000110534
7.3934e-05
4.79049e-05
2.90565e-05
1.76332e-05
0.000123698
0.000106884
6.81923e-05
4.33054e-05
2.72676e-05
1.78637e-05
0.000115082
9.9738e-05
6.5183e-05
4.31561e-05
2.92535e-05
2.08873e-05
0.000104881
9.06578e-05
6.38454e-05
4.5602e-05
3.34717e-05
2.56051e-05
9.36829e-05
8.24496e-05
6.3847e-05
5.01472e-05
3.9901e-05
3.2249e-05
8.19722e-05
7.81862e-05
7.38008e-05
6.7952e-05
5.70008e-05
4.52329e-05
9.37502e-05
7.93651e-05
7.44671e-05
6.37411e-05
4.94204e-05
3.75861e-05
0.000104656
8.10962e-05
7.51697e-05
6.16518e-05
4.43269e-05
3.16305e-05
0.000113986
8.36661e-05
7.6612e-05
6.0835e-05
4.22659e-05
2.89154e-05
0.000120996
8.69788e-05
7.75192e-05
6.01901e-05
4.04245e-05
2.6022e-05
0.000125144
9.09808e-05
7.7782e-05
5.7943e-05
3.72245e-05
2.26016e-05
0.000126792
9.62048e-05
7.56551e-05
5.29935e-05
3.25499e-05
1.88818e-05
0.000126901
9.91396e-05
7.12554e-05
4.68327e-05
2.7898e-05
1.5833e-05
0.00012507
0.000100098
6.65394e-05
4.14689e-05
2.43009e-05
1.38259e-05
0.000120774
9.89465e-05
6.31342e-05
3.85279e-05
2.2729e-05
1.33471e-05
0.000113899
9.56201e-05
6.14697e-05
3.79757e-05
2.30754e-05
1.42031e-05
0.000104978
9.07204e-05
6.16856e-05
4.0182e-05
2.59676e-05
1.70645e-05
9.4685e-05
8.61534e-05
6.32544e-05
4.41376e-05
3.05516e-05
2.13978e-05
8.36929e-05
8.35476e-05
6.67885e-05
5.0517e-05
3.75473e-05
2.77654e-05
1.01818e-05
7.61893e-06
5.95788e-06
4.95786e-06
4.68333e-06
4.70512e-06
5.01437e-06
5.53445e-06
6.40773e-06
7.64196e-06
9.28235e-06
1.11674e-05
1.44224e-05
2.17018e-05
5.54975e-06
4.21283e-06
3.3144e-06
2.74757e-06
2.55793e-06
2.56175e-06
2.73358e-06
3.03615e-06
3.57624e-06
4.42084e-06
5.66852e-06
7.33587e-06
1.02841e-05
1.6287e-05
3.21008e-06
2.3248e-06
1.80318e-06
1.48276e-06
1.36709e-06
1.36281e-06
1.45041e-06
1.61857e-06
1.95135e-06
2.54022e-06
3.50863e-06
4.97867e-06
7.48287e-06
1.20794e-05
1.99282e-06
1.28293e-06
9.40715e-07
7.57428e-07
6.92789e-07
6.88505e-07
7.32306e-07
8.2726e-07
1.04063e-06
1.4672e-06
2.23939e-06
3.50689e-06
5.6118e-06
9.1153e-06
1.32281e-06
7.10848e-07
4.65467e-07
3.58839e-07
3.24669e-07
3.22385e-07
3.45773e-07
4.04432e-07
5.51435e-07
8.72276e-07
1.49303e-06
2.56454e-06
4.31785e-06
7.10848e-06
9.4362e-07
4.07018e-07
2.2079e-07
1.56522e-07
1.38671e-07
1.38153e-07
1.52695e-07
1.93923e-07
3.03365e-07
5.53494e-07
1.0562e-06
1.95305e-06
3.42809e-06
5.74313e-06
7.27975e-07
2.54389e-07
1.05926e-07
6.38012e-08
5.39118e-08
5.45803e-08
6.56683e-08
9.90268e-08
1.88295e-07
3.94952e-07
8.16338e-07
1.58211e-06
2.8566e-06
4.8647e-06
6.23956e-07
1.87827e-07
5.86905e-08
2.6204e-08
1.97096e-08
2.11794e-08
3.14448e-08
6.24688e-08
1.43843e-07
3.30064e-07
7.07284e-07
1.39373e-06
2.54197e-06
4.36125e-06
5.91527e-07
1.67927e-07
4.3988e-08
1.38532e-08
8.33278e-09
1.04442e-08
2.14771e-08
5.40791e-08
1.37021e-07
3.21889e-07
6.87965e-07
1.34385e-06
2.4318e-06
4.14896e-06
6.2982e-07
1.83085e-07
4.82957e-08
1.4633e-08
8.35844e-09
1.1081e-08
2.42622e-08
6.18693e-08
1.5402e-07
3.5239e-07
7.32756e-07
1.39568e-06
2.47385e-06
4.15657e-06
7.40176e-07
2.34443e-07
7.34346e-08
3.01613e-08
2.10131e-08
2.4285e-08
4.13067e-08
8.76653e-08
1.95906e-07
4.19646e-07
8.33209e-07
1.53094e-06
2.63974e-06
4.34652e-06
1.02489e-06
3.73448e-07
1.48238e-07
8.07787e-08
6.33172e-08
6.64153e-08
9.02065e-08
1.51347e-07
2.84599e-07
5.46079e-07
1.00952e-06
1.76363e-06
2.93047e-06
4.69724e-06
1.56145e-06
6.7808e-07
3.35478e-07
2.17644e-07
1.80409e-07
1.80811e-07
2.16135e-07
3.02725e-07
4.76153e-07
7.96196e-07
1.33958e-06
2.194e-06
3.47448e-06
5.36062e-06
2.44176e-06
1.24842e-06
7.31858e-07
5.30902e-07
4.5967e-07
4.56373e-07
5.14394e-07
6.50675e-07
9.0385e-07
1.34253e-06
2.04957e-06
3.1187e-06
4.69827e-06
6.88573e-06
5.35768e-06
4.09691e-06
3.33179e-06
2.9009e-06
2.8531e-06
2.96254e-06
3.20913e-06
3.56724e-06
4.13306e-06
4.96375e-06
6.13008e-06
7.55957e-06
9.5188e-06
1.3426e-05
2.86462e-06
2.16935e-06
1.75837e-06
1.5224e-06
1.48462e-06
1.54509e-06
1.68279e-06
1.88946e-06
2.22908e-06
2.76592e-06
3.58542e-06
4.69982e-06
6.39402e-06
9.6828e-06
1.63478e-06
1.14053e-06
8.99354e-07
7.73209e-07
7.52044e-07
7.83454e-07
8.54712e-07
9.66746e-07
1.16571e-06
1.51404e-06
2.10452e-06
3.0165e-06
4.50769e-06
7.24937e-06
1.00224e-06
5.98844e-07
4.39653e-07
3.713e-07
3.60752e-07
3.76491e-07
4.12177e-07
4.72383e-07
5.9194e-07
8.27284e-07
1.27036e-06
2.03118e-06
3.32839e-06
5.60194e-06
6.64017e-07
3.21039e-07
2.05564e-07
1.66214e-07
1.60548e-07
1.68095e-07
1.86184e-07
2.2057e-07
2.97852e-07
4.66499e-07
8.1024e-07
1.44488e-06
2.55399e-06
4.44471e-06
4.80769e-07
1.84485e-07
9.45111e-08
6.93553e-08
6.56412e-08
6.9146e-08
7.90154e-08
1.01202e-07
1.56366e-07
2.85235e-07
5.6049e-07
1.09082e-06
2.03328e-06
3.62318e-06
3.81484e-07
1.20622e-07
4.59865e-08
2.76039e-08
2.47092e-08
2.64765e-08
3.28695e-08
4.97999e-08
9.43502e-08
2.01503e-07
4.34151e-07
8.89935e-07
1.70664e-06
3.08054e-06
3.34836e-07
9.42131e-08
2.70822e-08
1.14516e-08
8.89262e-09
1.00923e-08
1.54025e-08
3.08873e-08
7.21933e-08
1.71141e-07
3.83791e-07
7.97476e-07
1.53541e-06
2.76955e-06
3.21174e-07
8.74123e-08
2.16766e-08
6.3879e-09
3.82162e-09
5.01259e-09
1.05686e-08
2.71173e-08
7.05717e-08
1.71975e-07
3.83665e-07
7.85212e-07
1.48878e-06
2.64951e-06
3.38474e-07
9.51653e-08
2.41059e-08
7.03913e-09
4.06451e-09
5.54599e-09
1.23463e-08
3.21059e-08
8.22037e-08
1.9469e-07
4.20661e-07
8.34538e-07
1.54101e-06
2.68383e-06
3.83195e-07
1.17599e-07
3.59617e-08
1.48474e-08
1.07288e-08
1.27136e-08
2.18952e-08
4.72024e-08
1.08173e-07
2.39061e-07
4.91752e-07
9.38219e-07
1.67952e-06
2.85224e-06
4.92248e-07
1.765e-07
7.21161e-08
4.12469e-08
3.36143e-08
3.61284e-08
4.98053e-08
8.46367e-08
1.62418e-07
3.20137e-07
6.11526e-07
1.10749e-06
1.90718e-06
3.14232e-06
7.01795e-07
3.10737e-07
1.66392e-07
1.15378e-07
9.89789e-08
1.01519e-07
1.2367e-07
1.75688e-07
2.80774e-07
4.78845e-07
8.26292e-07
1.39504e-06
2.27894e-06
3.60624e-06
1.08347e-06
5.92571e-07
3.81036e-07
2.93604e-07
2.60943e-07
2.63969e-07
3.03195e-07
3.89379e-07
5.4689e-07
8.18977e-07
1.26395e-06
1.95365e-06
2.97445e-06
4.42018e-06
2.6485e-06
2.06454e-06
1.72139e-06
1.55772e-06
1.58073e-06
1.69949e-06
1.90621e-06
2.19999e-06
2.62186e-06
3.21367e-06
4.03994e-06
5.12201e-06
6.59475e-06
8.97865e-06
1.42679e-06
1.08121e-06
8.86427e-07
7.91502e-07
7.95104e-07
8.53663e-07
9.6104e-07
1.12123e-06
1.36526e-06
1.73452e-06
2.29125e-06
3.07879e-06
4.23719e-06
6.17647e-06
7.98921e-07
5.50266e-07
4.34624e-07
3.83914e-07
3.84984e-07
4.13918e-07
4.67404e-07
5.50147e-07
6.86195e-07
9.14222e-07
1.2956e-06
1.89716e-06
2.85955e-06
4.51543e-06
4.77171e-07
2.76528e-07
2.01704e-07
1.74808e-07
1.755e-07
1.89474e-07
2.15344e-07
2.5738e-07
3.3407e-07
4.79317e-07
7.51166e-07
1.22701e-06
2.04108e-06
3.45385e-06
3.11326e-07
1.42625e-07
8.95073e-08
7.41326e-08
7.41963e-08
8.06265e-08
9.30259e-08
1.15181e-07
1.61159e-07
2.59227e-07
4.6092e-07
8.43435e-07
1.53007e-06
2.73063e-06
2.24078e-07
8.02539e-08
3.94274e-08
2.94012e-08
2.89078e-08
3.17332e-08
3.79139e-08
5.0843e-08
8.13962e-08
1.52734e-07
3.08965e-07
6.21388e-07
1.20095e-06
2.22264e-06
1.78599e-07
5.27673e-08
1.88639e-08
1.1229e-08
1.04321e-08
1.17083e-08
1.52665e-08
2.42487e-08
4.76203e-08
1.05002e-07
2.34421e-07
4.99953e-07
1.00096e-06
1.88876e-06
1.58138e-07
4.21985e-08
1.13579e-08
4.57801e-09
3.64126e-09
4.36538e-09
7.05083e-09
1.48238e-08
3.59351e-08
8.82964e-08
2.06092e-07
4.47312e-07
9.01726e-07
1.70322e-06
1.54572e-07
4.04232e-08
9.51374e-09
2.64477e-09
1.59436e-09
2.22779e-09
4.9467e-09
1.31755e-08
3.54549e-08
8.95932e-08
2.08162e-07
4.45177e-07
8.83551e-07
1.64432e-06
1.66155e-07
4.49515e-08
1.09141e-08
3.15366e-09
1.92723e-09
2.72288e-09
6.12142e-09
1.61879e-08
4.25498e-08
1.04187e-07
2.33917e-07
4.83891e-07
9.33199e-07
1.69449e-06
1.90244e-07
5.62608e-08
1.68909e-08
7.2494e-09
5.59761e-09
6.80405e-09
1.16621e-08
2.5158e-08
5.86023e-08
1.33113e-07
2.83387e-07
5.61913e-07
1.0471e-06
1.84694e-06
2.39328e-07
8.49641e-08
3.57245e-08
2.152e-08
1.84206e-08
2.04047e-08
2.83518e-08
4.81961e-08
9.32911e-08
1.87576e-07
3.6883e-07
6.916e-07
1.2352e-06
2.10397e-06
3.37367e-07
1.55064e-07
8.75883e-08
6.31171e-08
5.60152e-08
5.92992e-08
7.38253e-08
1.0615e-07
1.71437e-07
2.96798e-07
5.2397e-07
9.11364e-07
1.53877e-06
2.50887e-06
5.39337e-07
3.13929e-07
2.11353e-07
1.66808e-07
1.51693e-07
1.57854e-07
1.86403e-07
2.4461e-07
3.49008e-07
5.29132e-07
8.29506e-07
1.31056e-06
2.05066e-06
3.14085e-06
1.45059e-06
1.11749e-06
9.07399e-07
8.10653e-07
8.20329e-07
9.06123e-07
1.07084e-06
1.31348e-06
1.6534e-06
2.1184e-06
2.74179e-06
3.57194e-06
4.71946e-06
6.45395e-06
7.57975e-07
5.66248e-07
4.49888e-07
3.93861e-07
3.93299e-07
4.31538e-07
5.09915e-07
6.32629e-07
8.1845e-07
1.09651e-06
1.50439e-06
2.09029e-06
2.94949e-06
4.29662e-06
4.04936e-07
2.73866e-07
2.09028e-07
1.80455e-07
1.79985e-07
1.97745e-07
2.34264e-07
2.93714e-07
3.91246e-07
5.53571e-07
8.20418e-07
1.24603e-06
1.9227e-06
3.03703e-06
2.31393e-07
1.29908e-07
9.12493e-08
7.71953e-08
7.72911e-08
8.55049e-08
1.02108e-07
1.30396e-07
1.81764e-07
2.78613e-07
4.58689e-07
7.77335e-07
1.32344e-06
2.25856e-06
1.459e-07
6.3465e-08
3.80581e-08
3.07457e-08
3.08093e-08
3.44526e-08
4.19008e-08
5.57219e-08
8.43065e-08
1.45393e-07
2.71674e-07
5.14873e-07
9.57772e-07
1.7413e-06
1.02553e-07
3.43835e-08
1.58998e-08
1.15015e-08
1.13624e-08
1.29061e-08
1.63497e-08
2.37442e-08
4.13451e-08
8.29648e-08
1.75692e-07
3.65608e-07
7.27991e-07
1.38695e-06
8.08396e-08
2.2404e-08
7.4289e-09
4.19784e-09
3.91158e-09
4.58066e-09
6.40949e-09
1.11246e-08
2.36633e-08
5.52196e-08
1.28556e-07
2.84448e-07
5.90915e-07
1.15858e-06
7.22416e-08
1.83044e-08
4.58598e-09
1.69595e-09
1.33033e-09
1.69148e-09
2.98435e-09
6.82243e-09
1.75912e-08
4.52612e-08
1.10135e-07
2.49248e-07
5.24906e-07
1.03731e-06
7.29406e-08
1.81372e-08
4.01919e-09
1.04328e-09
6.2617e-10
9.35668e-10
2.21498e-09
6.19552e-09
1.73751e-08
4.56905e-08
1.10773e-07
2.47933e-07
5.16167e-07
1.0084e-06
8.1636e-08
2.07501e-08
4.79597e-09
1.41591e-09
9.52797e-10
1.36447e-09
3.00638e-09
7.97415e-09
2.14507e-08
5.43524e-08
1.272e-07
2.75554e-07
5.57805e-07
1.06292e-06
9.6944e-08
2.69109e-08
7.9577e-09
3.68475e-09
3.11592e-09
3.85223e-09
6.39826e-09
1.34604e-08
3.14336e-08
7.31156e-08
1.61379e-07
3.33966e-07
6.51325e-07
1.20097e-06
1.26427e-07
4.33199e-08
1.85033e-08
1.1785e-08
1.07262e-08
1.229e-08
1.70547e-08
2.84844e-08
5.46599e-08
1.11093e-07
2.24338e-07
4.36102e-07
8.10787e-07
1.43501e-06
1.88489e-07
8.61494e-08
4.89782e-08
3.60799e-08
3.34029e-08
3.68924e-08
4.70479e-08
6.80566e-08
1.09864e-07
1.91381e-07
3.44119e-07
6.15486e-07
1.07432e-06
1.80609e-06
3.23045e-07
1.87516e-07
1.2465e-07
9.8525e-08
9.2148e-08
1.00021e-07
1.2254e-07
1.64666e-07
2.38074e-07
3.64642e-07
5.80149e-07
9.36414e-07
1.50452e-06
2.36418e-06
9.37455e-07
7.02328e-07
5.41503e-07
4.57077e-07
4.43335e-07
4.88613e-07
5.98115e-07
7.76994e-07
1.04353e-06
1.42041e-06
1.93063e-06
2.61564e-06
3.54983e-06
4.89189e-06
4.68415e-07
3.41472e-07
2.57686e-07
2.1288e-07
2.02919e-07
2.20557e-07
2.68103e-07
3.51752e-07
4.8858e-07
7.02594e-07
1.02273e-06
1.49099e-06
2.16951e-06
3.1863e-06
2.36491e-07
1.5635e-07
1.13395e-07
9.22334e-08
8.75906e-08
9.50519e-08
1.15635e-07
1.53545e-07
2.21307e-07
3.39812e-07
5.39338e-07
8.63205e-07
1.37424e-06
2.18831e-06
1.2655e-07
6.9341e-08
4.63994e-08
3.69729e-08
3.52233e-08
3.84923e-08
4.73226e-08
6.44005e-08
9.82109e-08
1.65173e-07
2.92783e-07
5.22444e-07
9.15689e-07
1.57889e-06
7.46816e-08
3.1431e-08
1.80115e-08
1.3725e-08
1.31063e-08
1.45225e-08
1.8316e-08
2.62927e-08
4.41485e-08
8.41e-08
1.68793e-07
3.34947e-07