/*--------------------------------*- C++ -*----------------------------------*\
| =========                 |                                                 |
| \\      /  F ield         | OpenFOAM: The Open Source CFD Toolbox           |
|  \\    /   O peration     | Version:  v2106                                 |
|   \\  /    A nd           | Website:  www.openfoam.com                      |
|    \\/     M anipulation  |                                                 |
\*---------------------------------------------------------------------------*/
FoamFile
{
    version     2.0;
    format      ascii;
    arch        "LSB;label=32;scalar=64";
    class       volVectorField;
    location    "0.000198";
    object      U;
}
// * * * * * * * * * * * * * * * * * * * * * * * * * * * * * * * * * * * * * //

dimensions      [0 1 -1 0 0 0 0];

internalField   nonuniform List<vector> 
18273
(
(-19.1065 27.4671 -108.114)
(-17.0422 19.9517 -109.493)
(-13.7084 14.5105 -111.841)
(-12.2887 11.3209 -114.229)
(-11.213 10.0017 -115.065)
(-10.7306 9.16604 -114.265)
(-10.9355 8.81049 -111.558)
(-11.3767 7.78106 -106.158)
(-12.5786 5.48207 -98.6653)
(-13.855 1.56609 -90.7335)
(-16.9022 -3.51106 -84.2324)
(-20.5015 -11.04 -80.9283)
(-27.1852 -18.9237 -80.1882)
(-32.5881 -29.7449 -83.3122)
(-11.8314 23.4646 -106.039)
(-9.21377 18.3995 -109.714)
(-5.8692 14.0098 -111.997)
(-4.90389 11.1645 -114.404)
(-4.0581 10.0353 -115.467)
(-3.64817 9.63974 -115.556)
(-3.64197 9.63677 -114.743)
(-4.01708 9.17748 -112.061)
(-5.13896 7.5814 -107.331)
(-6.65371 4.42272 -101.263)
(-9.3943 -0.295519 -95.2148)
(-12.4464 -7.21378 -90.525)
(-18.3496 -14.8156 -86.9631)
(-20.4168 -26.6998 -85.4102)
(-6.58609 19.0137 -107.662)
(-4.16448 14.8256 -111.871)
(-1.12713 11.9943 -113.609)
(-0.132062 10.358 -115.256)
(0.495333 9.77491 -115.864)
(0.821245 9.8126 -116.018)
(0.91777 9.93708 -115.665)
(0.74446 10.0491 -114.258)
(-0.000897244 9.25269 -111.455)
(-0.966609 7.15656 -107.202)
(-2.9722 3.76254 -102.093)
(-5.1754 -1.51381 -96.7408)
(-9.59544 -8.88117 -92.7147)
(-11.2747 -20.9703 -91.5219)
(-1.5645 16.8144 -109.891)
(0.174978 13.2181 -113.726)
(1.99536 11.0806 -115.228)
(2.67782 10.0629 -116.069)
(3.1009 9.84817 -116.326)
(3.34142 9.96839 -116.247)
(3.37814 10.2178 -115.827)
(3.38737 10.5226 -114.83)
(3.03217 10.1237 -113.051)
(2.54286 8.55206 -110.378)
(1.21031 5.67691 -106.916)
(-0.116635 1.02818 -102.777)
(-2.95289 -6.23878 -99.3802)
(-4.30977 -17.5794 -97.8213)
(1.57057 14.9091 -112.951)
(2.85637 11.9423 -115.708)
(3.75997 10.4358 -116.57)
(4.14473 9.89716 -116.774)
(4.39455 9.87326 -116.61)
(4.51803 10.0051 -116.241)
(4.54613 10.3624 -115.679)
(4.65559 10.7087 -114.803)
(4.55467 10.5477 -113.483)
(4.41304 9.47434 -111.668)
(3.66737 7.2834 -109.289)
(2.95122 3.33312 -106.476)
(0.898362 -3.30867 -104.103)
(-0.596126 -13.8854 -102.144)
(3.45089 14.1588 -115.914)
(4.24913 11.4745 -117.465)
(4.62106 10.2831 -117.636)
(4.81677 9.91744 -117.269)
(4.86717 9.87749 -116.76)
(4.93201 10.0929 -116.145)
(4.97783 10.4481 -115.434)
(5.14282 10.7549 -114.591)
(5.13512 10.6573 -113.5)
(5.16078 9.83336 -112.173)
(4.7082 8.01386 -110.593)
(4.33209 4.56877 -108.725)
(2.84073 -1.39071 -106.948)
(1.83797 -11.0406 -104.057)
(4.24911 13.5456 -118.129)
(4.73887 11.1528 -118.642)
(4.90782 10.1362 -118.266)
(4.99231 9.89784 -117.608)
(4.96167 9.95272 -116.868)
(5.02845 10.1191 -116.063)
(5.07602 10.4068 -115.229)
(5.24243 10.6738 -114.365)
(5.23729 10.6488 -113.389)
(5.28413 10.0321 -112.298)
(5.02001 8.52925 -111.086)
(4.76186 5.50764 -109.74)
(3.79346 0.0386202 -108.063)
(3.41611 -8.98887 -104.215)
(4.60322 13.39 -119.303)
(4.86603 11.0008 -119.145)
(4.89109 9.99299 -118.506)
(4.98596 9.79678 -117.73)
(4.97744 9.90191 -116.915)
(5.03853 10.064 -116.034)
(5.06101 10.2863 -115.123)
(5.18002 10.5236 -114.204)
(5.20609 10.5745 -113.256)
(5.17159 10.1237 -112.232)
(4.97417 8.8242 -111.165)
(4.98289 6.06606 -109.957)
(4.59244 0.8792 -108.047)
(4.46661 -7.56585 -102.865)
(4.66968 13.0375 -119.551)
(4.80928 10.728 -119.131)
(4.79571 9.73904 -118.445)
(4.92615 9.57694 -117.681)
(4.99632 9.73741 -116.897)
(5.07791 9.93277 -116.034)
(5.08283 10.1307 -115.095)
(5.11244 10.3382 -114.111)
(5.10653 10.463 -113.122)
(5.04478 10.0925 -112.099)
(5.02758 8.86481 -111.046)
(5.21423 6.22262 -109.689)
(5.34077 1.15045 -107.154)
(5.7298 -6.86981 -100.638)
(5.08848 12.9878 -119.439)
(5.09152 10.5472 -118.927)
(4.95176 9.50953 -118.304)
(4.96866 9.3208 -117.584)
(5.04072 9.49195 -116.876)
(5.12113 9.71924 -116.074)
(5.1327 9.95753 -115.152)
(5.1086 10.1435 -114.101)
(5.05084 10.3116 -113.006)
(4.94897 9.94592 -111.871)
(5.11962 8.57161 -110.754)
(5.63505 5.70803 -109.066)
(6.69062 0.598977 -105.712)
(7.80341 -6.83589 -98.0548)
(5.90893 13.4085 -118.443)
(5.86017 10.7033 -118.134)
(5.43594 9.50665 -117.901)
(5.27345 9.13309 -117.425)
(5.23257 9.24132 -116.869)
(5.21469 9.48482 -116.167)
(5.24903 9.74683 -115.271)
(5.23327 9.97079 -114.186)
(5.18294 10.1351 -112.963)
(5.13586 9.66004 -111.598)
(5.6335 7.96282 -110.176)
(6.55385 4.62595 -107.725)
(8.77247 -1.00815 -103.714)
(10.52 -8.34089 -95.4354)
(8.5706 13.9607 -116.851)
(8.02734 10.8894 -116.873)
(6.78371 9.77325 -117.302)
(6.09109 9.2444 -117.142)
(5.74996 9.15718 -116.743)
(5.61307 9.2579 -116.186)
(5.65402 9.51121 -115.412)
(5.72145 9.78594 -114.328)
(5.80217 9.96809 -112.931)
(5.95715 9.29235 -111.161)
(6.89163 7.11458 -109.06)
(8.24141 3.07814 -105.556)
(12.0466 -3.01338 -101.284)
(14.7526 -10.5366 -93.5616)
(12.7199 16.3456 -115.004)
(11.3731 12.7897 -115.502)
(8.92275 11.2531 -116.417)
(7.8299 9.85945 -116.595)
(7.09222 9.26589 -116.516)
(6.71114 9.1143 -116.139)
(6.71789 9.1028 -115.496)
(6.96475 9.28568 -114.455)
(7.36962 9.37907 -112.858)
(7.94468 8.38174 -110.588)
(9.19069 5.44447 -107.606)
(10.4543 -0.0230155 -103.207)
(14.7987 -7.7587 -98.5848)
(18.3389 -16.3732 -92.5533)
(18.3726 18.6817 -115.05)
(15.7971 14.7644 -114.236)
(12.4447 12.8715 -114.602)
(10.9649 10.789 -114.804)
(9.90726 9.75283 -115.21)
(9.38845 9.22801 -115.288)
(9.44671 8.85923 -115.112)
(9.96548 8.68544 -114.541)
(10.9019 8.6265 -113.215)
(12.4057 7.54234 -110.883)
(14.5476 4.68991 -107.1)
(16.8628 -1.42557 -101.85)
(22.1551 -9.89581 -96.5608)
(25.7744 -21.491 -94.7528)
(-11.3415 24.2857 -112.526)
(-8.79847 18.9922 -113.7)
(-6.57404 15.6227 -115.773)
(-5.54325 14.0421 -117.215)
(-5.65479 13.344 -117.56)
(-6.34316 13.1967 -117.199)
(-7.07645 12.9327 -115.364)
(-8.23848 12.124 -111.848)
(-9.44693 10.2936 -107.021)
(-10.3317 6.95019 -101.723)
(-12.459 2.38622 -96.8737)
(-14.933 -4.49935 -93.8956)
(-21.2677 -11.4171 -92.1707)
(-26.3193 -21.3613 -93.307)
(-5.71132 21.1011 -111.802)
(-3.18392 18.1566 -114.334)
(-1.05266 15.6588 -115.711)
(-0.312433 14.2449 -116.931)
(-0.356234 13.6832 -117.332)
(-0.773932 13.6534 -117.28)
(-1.31265 13.771 -116.509)
(-2.23387 13.4873 -114.715)
(-3.44536 12.2535 -111.896)
(-4.70466 9.72521 -108.319)
(-6.93612 5.87398 -104.663)
(-8.89102 0.148445 -101.388)
(-13.9767 -5.90529 -98.2549)
(-15.7768 -15.9766 -94.442)
(-1.44368 18.2162 -112.746)
(0.354121 15.8334 -115.257)
(2.15271 14.4689 -116.068)
(2.74216 13.8948 -116.712)
(2.6791 13.6781 -116.841)
(2.37693 13.7623 -116.789)
(1.97605 14.0806 -116.386)
(1.34792 14.1699 -115.397)
(0.508175 13.4969 -113.751)
(-0.476323 11.9706 -111.314)
(-2.17084 9.39167 -108.418)
(-3.92034 5.3597 -105.081)
(-7.35989 -0.140452 -101.977)
(-8.40851 -10.2548 -99.616)
(2.23533 16.8329 -113.519)
(3.33456 14.946 -115.685)
(4.21477 13.9541 -116.356)
(4.41935 13.7158 -116.633)
(4.2981 13.6063 -116.617)
(4.00231 13.7517 -116.412)
(3.64974 14.0876 -116.003)
(3.25008 14.2869 -115.272)
(2.73918 13.9199 -114.2)
(2.14048 12.8911 -112.669)
(1.06151 10.9412 -110.825)
(-0.110964 7.66432 -108.478)
(-2.18744 2.3857 -106.174)
(-2.99385 -6.89642 -104.549)
(4.57672 15.9124 -114.771)
(5.17183 14.267 -116.206)
(5.42361 13.6352 -116.576)
(5.29865 13.3871 -116.491)
(5.01699 13.4001 -116.289)
(4.70756 13.6154 -115.914)
(4.37293 13.9009 -115.456)
(4.135 14.0813 -114.833)
(3.81556 13.8931 -114.045)
(3.47157 13.1753 -113.016)
(2.85746 11.7229 -111.771)
(2.14175 9.05977 -110.34)
(0.734684 4.29134 -108.996)
(-0.311706 -4.19994 -107.797)
(5.98262 15.4889 -115.37)
(6.18534 13.9921 -116.152)
(5.99514 13.3878 -116.231)
(5.65268 13.2569 -115.995)
(5.22252 13.3205 -115.745)
(4.87317 13.4422 -115.33)
(4.57028 13.5955 -114.875)
(4.43559 13.6699 -114.314)
(4.2385 13.5255 -113.665)
(4.04165 13.0175 -112.881)
(3.5053 11.8531 -112.094)
(3.10231 9.54385 -111.192)
(2.03631 5.30513 -110.455)
(1.18506 -2.32327 -109.085)
(6.20052 14.619 -115.527)
(6.34688 13.4079 -115.826)
(6.05101 13.0001 -115.656)
(5.68791 13.0157 -115.344)
(5.24014 13.0779 -115.11)
(4.89916 13.1237 -114.741)
(4.57634 13.1565 -114.378)
(4.46174 13.1416 -113.876)
(4.28684 13.0155 -113.29)
(4.16096 12.6353 -112.609)
(3.71125 11.6989 -111.98)
(3.24077 9.71764 -111.394)
(2.45526 5.88055 -110.824)
(2.06663 -1.19903 -109.146)
(5.70444 13.7132 -115.598)
(5.96592 12.6633 -115.481)
(5.83712 12.412 -115.063)
(5.63273 12.5531 -114.665)
(5.27382 12.712 -114.4)
(4.95875 12.7629 -114.065)
(4.58746 12.7408 -113.825)
(4.38487 12.6693 -113.406)
(4.15516 12.5414 -112.87)
(4.02911 12.2375 -112.237)
(3.66404 11.417 -111.728)
(3.3562 9.63162 -111.242)
(2.76177 6.00851 -110.569)
(2.5912 -0.678384 -108.218)
(5.26224 12.6828 -115.616)
(5.48831 11.6989 -115.123)
(5.52358 11.5649 -114.509)
(5.50051 11.8199 -114.02)
(5.3195 12.136 -113.696)
(5.05156 12.2872 -113.393)
(4.65777 12.3035 -113.267)
(4.35476 12.2127 -112.964)
(4.04156 12.0707 -112.519)
(3.85223 11.7736 -111.907)
(3.51777 10.9883 -111.377)
(3.37907 9.24115 -110.875)
(3.12898 5.68816 -109.94)
(3.40534 -0.548224 -106.735)
(5.44405 11.6901 -115.475)
(5.36625 10.6304 -114.785)
(5.40775 10.4965 -114.073)
(5.42241 10.8327 -113.516)
(5.40255 11.2924 -113.148)
(5.18306 11.6372 -112.857)
(4.77241 11.8446 -112.739)
(4.33406 11.8307 -112.535)
(3.92009 11.702 -112.158)
(3.65467 11.3809 -111.54)
(3.38422 10.5107 -110.899)
(3.51751 8.68587 -110.125)
(3.90471 5.10634 -108.791)
(4.77243 -0.703587 -104.871)
(6.19596 11.0535 -114.698)
(5.97913 9.7102 -114.308)
(5.71857 9.48571 -113.696)
(5.53103 9.77195 -113.153)
(5.48267 10.2993 -112.757)
(5.25819 10.8428 -112.507)
(4.89794 11.2988 -112.322)
(4.37649 11.483 -112.137)
(3.89433 11.3966 -111.777)
(3.61714 10.9421 -111.139)
(3.57985 9.73226 -110.424)
(4.05612 7.47959 -109.261)
(5.41924 3.60275 -107.547)
(6.80776 -2.02945 -102.967)
(8.14088 11.1097 -113.705)
(7.46184 9.28679 -113.765)
(6.51987 8.76808 -113.565)
(5.93299 8.80215 -113.03)
(5.60985 9.26249 -112.553)
(5.31645 9.93352 -112.276)
(5.00236 10.5794 -112.067)
(4.59066 10.9891 -111.822)
(4.16383 10.9947 -111.41)
(4.02967 10.4252 -110.674)
(4.35621 8.90934 -109.556)
(5.24582 6.1093 -107.811)
(7.87137 2.00194 -105.889)
(10.1974 -3.70577 -101.357)
(11.1814 12.4711 -112.412)
(9.78218 10.1581 -113.266)
(7.97056 9.02025 -113.473)
(6.99696 8.26552 -113.108)
(6.22447 8.3659 -112.677)
(5.71018 8.92391 -112.362)
(5.35078 9.60068 -112.123)
(5.09355 10.1224 -111.825)
(5.01219 10.2839 -111.206)
(5.08297 9.60191 -110.211)
(5.56272 7.53192 -108.643)
(6.34919 3.62149 -106.396)
(9.61457 -1.7871 -104.15)
(13.4676 -8.38653 -100.477)
(15.0485 14.5518 -112.555)
(12.8405 11.5115 -112.715)
(10.3949 9.83867 -112.764)
(9.07833 8.43391 -112.512)
(7.97957 8.05662 -112.268)
(7.3178 8.21499 -112.205)
(6.96221 8.67994 -112.095)
(6.86516 9.12362 -111.838)
(7.19027 9.40462 -111.331)
(7.73783 8.87559 -110.236)
(8.74294 6.91419 -108.069)
(10.2805 2.54987 -104.666)
(14.3443 -3.99524 -101.093)
(19.0897 -12.7556 -100.976)
(1.22767 24.3458 -114.52)
(4.26335 21.4635 -114.845)
(5.94868 19.653 -114.293)
(6.01035 18.6617 -113.483)
(5.1525 18.2679 -113.059)
(3.99601 18.3783 -112.206)
(2.63329 18.9033 -111.359)
(1.31229 19.1155 -110.204)
(-0.0832338 18.8996 -108.805)
(-1.15926 17.408 -106.835)
(-2.75392 15.0682 -104.123)
(-5.05021 10.7612 -101.652)
(-10.4254 5.7151 -99.3621)
(-16.8053 -1.62973 -98.9028)
(4.45693 20.1317 -115.357)
(6.85498 19.1798 -114.363)
(8.2842 18.623 -113.796)
(8.28646 18.1326 -113.108)
(7.55041 18.0494 -112.53)
(6.52653 18.2268 -111.661)
(5.32385 18.8433 -110.946)
(4.1656 19.3306 -110.103)
(2.90899 19.414 -109.3)
(1.79652 18.4586 -108.198)
(0.0370745 16.7884 -106.879)
(-1.95636 13.7643 -105.23)
(-6.28714 10.5885 -103.081)
(-10.0234 4.8236 -98.2781)
(7.08979 17.7253 -114.567)
(8.36147 17.1968 -113.772)
(9.119 17.3715 -113.104)
(9.02687 17.3344 -112.333)
(8.38169 17.6264 -111.684)
(7.48964 17.9547 -110.877)
(6.45061 18.5629 -110.263)
(5.4418 19.0867 -109.63)
(4.28336 19.4194 -109.198)
(3.10363 19.2683 -108.333)
(1.62609 18.4472 -107.175)
(-0.117848 16.6997 -105.544)
(-3.14044 14.6493 -103.405)
(-4.54011 9.33077 -99.7642)
(8.65245 16.2428 -113.56)
(9.33309 16.0792 -112.885)
(9.4211 16.3567 -112.263)
(9.07299 16.5121 -111.584)
(8.44918 16.9297 -110.955)
(7.67195 17.3044 -110.197)
(6.78287 17.8792 -109.604)
(5.92352 18.4361 -109.021)
(4.96598 18.9625 -108.656)
(3.98219 19.1816 -108.015)
(2.8167 18.892 -107.21)
(1.58483 17.8407 -105.921)
(-0.184347 15.9013 -104.225)
(-0.939079 11.2551 -101.815)
(9.60455 15.265 -112.742)
(9.74831 15.1259 -112.061)
(9.43738 15.4066 -111.523)
(8.96875 15.7591 -110.835)
(8.27077 16.2062 -110.235)
(7.57298 16.5914 -109.509)
(6.7778 17.0784 -108.965)
(6.04708 17.5625 -108.466)
(5.30054 18.1066 -108.176)
(4.55967 18.4812 -107.703)
(3.69634 18.4967 -107.094)
(2.74921 17.8622 -106.157)
(1.57815 16.1407 -104.886)
(0.773728 11.9722 -103.246)
(10.0621 14.3288 -112.055)
(10.0204 14.2417 -111.37)
(9.50184 14.5801 -110.82)
(8.92493 14.9923 -110.11)
(8.19185 15.412 -109.552)
(7.50067 15.738 -108.907)
(6.78256 16.1477 -108.399)
(6.11284 16.5459 -107.93)
(5.46505 17.0615 -107.618)
(4.87485 17.4957 -107.2)
(4.16584 17.6253 -106.742)
(3.39143 17.1665 -106.037)
(2.42318 15.6647 -105.111)
(1.27292 12.0797 -103.844)
(10.2189 13.3517 -111.47)
(10.0572 13.3882 -110.721)
(9.52368 13.8561 -110.094)
(8.95765 14.2853 -109.364)
(8.21148 14.6124 -108.896)
(7.53713 14.8362 -108.326)
(6.82124 15.1375 -107.906)
(6.14256 15.4285 -107.462)
(5.47444 15.8631 -107.118)
(4.90103 16.3027 -106.688)
(4.24221 16.5122 -106.258)
(3.49967 16.1705 -105.667)
(2.60083 14.8567 -104.919)
(1.44003 11.6989 -103.855)
(10.363 12.2522 -111.334)
(10.1569 12.4378 -110.392)
(9.67125 13.024 -109.578)
(9.17582 13.5024 -108.767)
(8.4392 13.7967 -108.298)
(7.7384 13.9276 -107.751)
(6.95993 14.1399 -107.383)
(6.18774 14.3353 -106.947)
(5.40281 14.687 -106.559)
(4.70839 15.0985 -106.095)
(3.97327 15.3311 -105.662)
(3.17294 15.0852 -105.093)
(2.25782 13.9444 -104.452)
(1.28552 11.0737 -103.556)
(10.3625 11.0746 -111.149)
(10.1225 11.4018 -110.044)
(9.71727 12.0597 -109.084)
(9.34367 12.6058 -108.217)
(8.69464 12.9591 -107.671)
(7.98255 13.045 -107.145)
(7.14502 13.1998 -106.82)
(6.25213 13.3188 -106.424)
(5.29639 13.5887 -106.045)
(4.39293 13.9426 -105.569)
(3.51324 14.14 -105.099)
(2.62278 13.9159 -104.521)
(1.68799 12.8794 -103.906)
(0.962869 10.2398 -102.998)
(10.654 9.8648 -110.958)
(10.3075 10.2481 -109.795)
(9.93492 10.9164 -108.746)
(9.545 11.5313 -107.833)
(8.98143 11.996 -107.138)
(8.23318 12.1475 -106.574)
(7.31471 12.3201 -106.233)
(6.27008 12.4152 -105.879)
(5.10452 12.6392 -105.536)
(3.94833 12.9365 -105.077)
(2.93502 13.0311 -104.524)
(2.06243 12.7538 -103.843)
(1.29202 11.6573 -103.239)
(0.960061 9.11386 -102.246)
(11.0535 8.6982 -110.487)
(10.5588 9.11408 -109.285)
(10.1315 9.76533 -108.164)
(9.59011 10.3957 -107.247)
(9.08467 10.9571 -106.49)
(8.28757 11.2389 -105.95)
(7.28229 11.4956 -105.606)
(6.08977 11.6374 -105.324)
(4.76082 11.8649 -105.053)
(3.45689 12.0435 -104.684)
(2.42048 11.843 -104.161)
(1.74299 11.3107 -103.469)
(1.62753 10.0677 -102.76)
(1.48294 7.46217 -101.49)
(11.8873 7.84419 -110.093)
(10.9363 8.12066 -108.828)
(10.0486 8.61641 -107.689)
(9.42171 9.18011 -106.702)
(8.82639 9.7994 -105.934)
(8.0551 10.2728 -105.349)
(7.0395 10.6854 -105)
(5.80367 10.9387 -104.764)
(4.45435 11.147 -104.555)
(3.15847 11.0708 -104.248)
(2.23793 10.4929 -103.667)
(1.96024 9.57354 -102.91)
(2.81958 8.21736 -102.41)
(3.13655 5.45649 -100.723)
(13.1194 8.03106 -109.632)
(11.661 7.7671 -108.384)
(10.3088 7.6868 -107.263)
(9.31465 8.01433 -106.249)
(8.5567 8.59963 -105.41)
(7.74239 9.17701 -104.805)
(6.78551 9.73315 -104.446)
(5.60901 10.0853 -104.294)
(4.35283 10.2813 -104.168)
(3.14059 9.97664 -103.937)
(2.31356 9.02165 -103.304)
(2.11475 7.41402 -102.501)
(3.70534 5.24253 -102.094)
(5.17153 1.79139 -100.448)
(14.6759 9.38748 -109.574)
(12.5542 7.6399 -108.792)
(10.9229 7.00172 -107.287)
(9.45698 6.9978 -106.122)
(8.38145 7.39736 -105.175)
(7.42145 7.95195 -104.599)
(6.51061 8.5294 -104.208)
(5.50358 8.9438 -104.063)
(4.48786 9.11203 -104.019)
(3.5597 8.6487 -103.824)
(3.13897 7.58131 -102.902)
(3.42286 5.37543 -101.605)
(5.86395 2.21721 -100.633)
(8.88243 -2.38271 -101.147)
(-36.1884 -40.362 -79.6255)
(-40.0233 -49.1491 -76.2824)
(-44.1233 -54.9842 -70.6733)
(-47.1207 -58.8753 -68.2336)
(-49.4836 -58.3892 -67.0468)
(-49.2593 -58.9234 -66.9584)
(-26.5824 -37.3442 -79.9033)
(-33.1275 -47.5114 -76.1294)
(-36.9734 -54.8816 -69.3916)
(-39.3221 -60.4373 -67.132)
(-41.7653 -61.3069 -65.5728)
(-41.3426 -62.177 -65.6684)
(-17.3866 -35.565 -87.1518)
(-23.9128 -48.9835 -80.4453)
(-29.2566 -57.8263 -71.1477)
(-31.4913 -64.1868 -66.3812)
(-33.9027 -64.7259 -63.6868)
(-33.4074 -65.1675 -63.5608)
(-9.68268 -31.5619 -92.112)
(-14.706 -46.243 -82.2479)
(-20.6285 -56.7272 -70.2524)
(-22.9477 -64.3949 -63.049)
(-25.6864 -65.9793 -59.91)
(-25.0593 -66.5765 -59.7887)
(-5.02366 -28.2221 -95.5639)
(-7.95387 -43.9944 -82.9975)
(-13.087 -55.9724 -68.2549)
(-15.0728 -64.8156 -59.2827)
(-17.8645 -67.1102 -55.7461)
(-17.2859 -67.6554 -55.7503)
(-1.39598 -24.8899 -95.4017)
(-3.56425 -40.578 -79.9803)
(-7.88085 -53.3377 -63.3567)
(-9.20193 -63.2234 -53.7129)
(-11.1496 -66.8714 -50.4434)
(-10.2899 -67.9341 -50.9917)
(1.26109 -22.2285 -93.4449)
(0.11435 -37.7721 -76.0094)
(-2.81145 -51.4567 -58.9417)
(-2.69772 -62.7408 -50.011)
(-4.25994 -67.7124 -46.8353)
(-2.52376 -69.3177 -47.4339)
(3.10425 -20.047 -90.4497)
(3.36892 -35.2326 -72.3005)
(2.24368 -49.9626 -56.1956)
(4.16369 -62.1562 -49.1798)
(3.4523 -67.829 -47.3136)
(5.89473 -68.8775 -48.4483)
(5.45044 -18.7653 -87.2772)
(7.34242 -33.5913 -69.9891)
(8.11563 -49.224 -56.6779)
(11.3526 -61.7852 -52.7079)
(11.0802 -67.7478 -51.8777)
(13.5763 -68.4438 -53.3045)
(8.94072 -18.2254 -85.0281)
(12.7004 -32.7502 -70.5774)
(14.6717 -48.7978 -60.6927)
(18.9176 -61.0084 -58.3265)
(18.9788 -66.9411 -57.3884)
(21.2405 -67.3829 -58.5172)
(13.7315 -19.2361 -84.5611)
(19.0441 -32.337 -73.982)
(21.8279 -47.5781 -66.981)
(26.5057 -59.3402 -65.243)
(26.8479 -65.2734 -63.4008)
(28.7948 -65.7251 -63.7402)
(19.8838 -21.0259 -85.7758)
(26.059 -32.1117 -78.5551)
(29.1133 -45.6892 -73.9164)
(34.2518 -56.4585 -72.3275)
(34.9036 -62.6669 -69.6949)
(36.9298 -63.4037 -69.1788)
(26.2819 -22.5779 -88.3709)
(31.6714 -31.1564 -84.0805)
(35.6488 -42.8806 -80.3751)
(41.7644 -52.6848 -78.8348)
(42.8297 -58.8291 -76.1503)
(44.4808 -59.0562 -74.1534)
(32.7992 -25.7202 -88.7921)
(37.9153 -33.6568 -86.9732)
(43.2652 -42.4573 -84.1175)
(48.662 -48.4786 -83.8301)
(49.2566 -53.2188 -82.7243)
(52.3116 -53.5923 -76.7338)
(-30.8958 -29.7876 -85.4935)
(-33.954 -41.768 -79.693)
(-39.4751 -51.2471 -70.0859)
(-43.8021 -59.2232 -64.1616)
(-48.4391 -59.6858 -59.6791)
(-49.6164 -61.1671 -58.1128)
(-21.9859 -26.5067 -87.6938)
(-27.2951 -39.4854 -81.7237)
(-32.3747 -50.566 -71.7587)
(-35.4905 -59.8089 -64.6748)
(-40.3284 -61.9882 -59.6496)
(-40.9807 -64.0589 -57.8551)
(-14.2249 -24.4853 -95.4721)
(-19.4513 -40.3301 -87.8822)
(-25.4196 -53.1273 -75.6524)
(-27.5384 -63.254 -65.6565)
(-32.4297 -65.1873 -58.9084)
(-32.4772 -67.1251 -56.0251)
(-7.70628 -20.5721 -100.281)
(-11.373 -37.4112 -91.1282)
(-17.1568 -51.7324 -76.7635)
(-18.625 -62.641 -63.5943)
(-23.919 -65.6886 -55.6629)
(-23.9769 -68.0492 -53.2659)
(-3.97195 -17.7672 -103.488)
(-5.57283 -35.2612 -92.914)
(-9.95706 -50.6083 -76.2693)
(-10.4578 -62.3729 -61.1052)
(-15.6281 -66.332 -52.3679)
(-15.7955 -68.3792 -49.9736)
(-1.21235 -15.2763 -103.78)
(-1.61296 -32.1809 -91.2588)
(-4.75291 -47.4307 -72.8725)
(-4.25694 -59.3257 -56.5712)
(-8.368 -64.6846 -47.6876)
(-8.44595 -67.4099 -46.0747)
(0.724412 -13.4391 -102.634)
(1.52247 -29.3271 -88.5481)
(-0.0672532 -44.3922 -69.4546)
(2.02553 -56.9569 -53.2824)
(-1.23578 -63.5922 -44.2616)
(-0.706403 -66.7768 -42.5985)
(1.91129 -11.9717 -100.52)
(3.92892 -26.309 -85.5242)
(3.87723 -41.052 -66.8053)
(7.78016 -54.0287 -51.9889)
(5.77147 -61.7072 -43.8439)
(7.16038 -64.7632 -42.4344)
(3.48152 -10.7866 -98.1222)
(6.97623 -23.6625 -83.1651)
(8.50388 -38.475 -65.8866)
(13.8119 -52.0762 -53.4925)
(12.609 -60.6018 -46.9898)
(14.3719 -63.3185 -46.2126)
(6.2432 -9.96946 -96.1504)
(11.2315 -21.5563 -82.5497)
(13.987 -36.5807 -67.6314)
(19.9124 -50.5676 -57.1469)
(19.433 -59.5006 -51.2192)
(21.3237 -61.9531 -50.3246)
(10.2883 -10.4078 -95.2271)
(16.309 -20.2741 -83.9223)
(19.8277 -34.5163 -71.5617)
(25.8979 -48.5443 -62.35)
(26.2445 -58.038 -56.194)
(28.1206 -60.3717 -54.3476)
(15.2827 -11.562 -95.5898)
(21.6657 -19.8219 -86.4622)
(25.8247 -32.7921 -76.183)
(32.2425 -46.4437 -68.0856)
(33.4749 -56.3312 -61.6819)
(35.4781 -58.6135 -58.8556)
(20.587 -12.904 -95.4788)
(26.4275 -19.5052 -88.4417)
(30.8598 -30.695 -80.0705)
(38.3441 -43.2838 -73.63)
(40.6511 -53.3219 -67.7634)
(42.7851 -55.5574 -63.2341)
(24.9148 -15.9209 -94.4406)
(30.5471 -22.7533 -88.4781)
(36.8635 -32.7149 -81.2242)
(45.1425 -41.1061 -77.5064)
(46.6929 -49.0029 -74.4111)
(50.5541 -51.5698 -65.5299)
(-22.0768 -6.79147 -91.0505)
(-25.6503 -18.3046 -83.9461)
(-31.4712 -34.2148 -75.0764)
(-39.6147 -48.5056 -65.1676)
(-46.4676 -55.8568 -56.4778)
(-49.1493 -57.9688 -52.0294)
(-15.8115 -2.37293 -91.033)
(-20.8928 -15.1939 -84.6382)
(-26.7827 -31.4698 -76.0594)
(-32.1206 -47.1595 -66.7641)
(-39.0022 -55.6699 -57.3396)
(-40.4871 -60.3339 -52.1127)
(-9.42963 -0.481427 -95.271)
(-14.8301 -14.9342 -89.3398)
(-21.404 -32.465 -80.7018)
(-25.4241 -49.4912 -70.15)
(-31.6071 -58.4735 -58.0565)
(-31.9766 -63.9945 -49.1354)
(-4.73621 2.15687 -98.5802)
(-8.74257 -12.5952 -92.9451)
(-14.6604 -30.992 -83.3737)
(-17.15 -48.7262 -69.0215)
(-22.5686 -58.7121 -54.7799)
(-22.6933 -63.9909 -47.5058)
(-2.205 3.4728 -100.881)
(-4.71312 -11.2457 -95.6032)
(-9.05362 -30.0332 -85.1404)
(-9.76392 -48.255 -68.9344)
(-14.3122 -58.7864 -53.0105)
(-13.4722 -63.9069 -45.2072)
(-0.86186 4.19864 -101.644)
(-2.26375 -9.98124 -96.526)
(-4.64851 -28.1509 -84.9932)
(-3.9076 -45.4734 -67.4538)
(-6.84923 -56.3339 -50.9973)
(-5.74914 -61.3497 -43.0795)
(-0.175124 4.33636 -101.688)
(-0.628572 -9.0234 -96.2203)
(-1.40687 -26.0481 -83.6188)
(0.829508 -42.3465 -65.254)
(-0.665234 -53.4447 -48.5287)
(1.22566 -58.7963 -40.7043)
(0.21893 4.15157 -101.268)
(0.394219 -8.13708 -94.9129)
(0.688878 -23.6326 -81.4261)
(4.23677 -38.7693 -63.0651)
(4.4123 -50.2145 -46.9795)
(7.19024 -55.7034 -39.4827)
(0.470095 3.83525 -100.457)
(1.24298 -7.11325 -93.1927)
(2.39279 -21.1824 -79.2191)
(7.5817 -35.8456 -61.7078)
(9.36829 -48.1984 -47.2395)
(13.1902 -53.7908 -40.9063)
(1.36802 3.28453 -99.4541)
(2.86552 -6.15816 -91.6685)
(5.14458 -19.2086 -78.0598)
(11.5812 -33.9342 -62.0947)
(14.4868 -47.2329 -49.6824)
(18.7157 -52.2324 -44.0981)
(3.26153 2.10352 -98.8497)
(5.64708 -5.65318 -91.1573)
(8.89022 -17.7414 -78.8315)
(15.9751 -32.3377 -64.4366)
(20.1456 -46.0666 -52.8492)
(24.341 -51.1333 -47.429)
(6.04956 0.239681 -98.8917)
(9.35726 -5.86796 -91.8979)
(13.3639 -17.0856 -81.0463)
(21.1167 -31.4216 -68.0749)
(26.3777 -45.0407 -57.2308)
(30.4758 -49.7357 -51.8876)
(9.29809 -2.22394 -98.7948)
(13.261 -6.66975 -92.8056)
(17.6156 -16.2737 -83.5788)
(25.8856 -29.4789 -72.3476)
(32.2587 -42.6422 -62.5376)
(36.4159 -47.1909 -57.0912)
(12.3484 -5.87115 -98.149)
(15.8897 -10.6193 -92.6201)
(22.4494 -18.978 -84.0585)
(32.2263 -30.1857 -74.7585)
(39.0415 -40.521 -66.647)
(42.125 -43.6674 -61.9155)
(32.9653 -26.5669 -90.9697)
(41.6099 -31.6522 -91.6542)
(49.4512 -37.1653 -87.404)
(54.9467 -41.8008 -85.8097)
(54.9595 -45.7384 -83.2961)
(56.1906 -47.2619 -82.4036)
(29.6333 -16.617 -92.27)
(38.9788 -24.2037 -92.4775)
(48.2736 -29.5486 -88.2571)
(55.253 -33.107 -87.5913)
(56.5013 -37.401 -86.3143)
(58.4586 -37.9761 -86.8855)
(27.594 -7.35002 -99.6515)
(39.7742 -14.8889 -98.4362)
(50.2636 -21.9391 -92.7109)
(58.212 -25.563 -90.1896)
(58.9439 -29.5625 -88.0526)
(59.7214 -29.4468 -88.0788)
(23.5742 -0.0450202 -105.15)
(36.2176 -5.66269 -102.079)
(47.5707 -13.2831 -95.0794)
(57.1079 -16.9974 -90.2431)
(59.0407 -21.8599 -86.7903)
(60.5548 -22.1166 -86.8163)
(20.7735 3.82434 -109.64)
(33.5156 0.265159 -105.773)
(45.4748 -6.52176 -97.795)
(55.982 -9.21162 -91.3263)
(58.7925 -14.2796 -86.5696)
(60.9344 -14.3969 -85.5663)
(18.2201 6.01329 -111.61)
(30.0961 3.85129 -106.845)
(42.0935 -1.51792 -97.7144)
(53.1896 -2.82622 -89.6815)
(57.3729 -7.39186 -84.1442)
(59.9751 -7.2677 -83.3323)
(16.6442 6.9475 -112.578)
(27.8437 6.36546 -106.935)
(39.9471 2.58509 -96.8076)
(51.3398 2.6886 -88.1861)
(56.253 -1.08936 -82.5596)
(58.7916 -0.250473 -81.6744)
(15.6655 7.81362 -112.388)
(26.0909 7.99159 -105.617)
(37.714 5.34994 -95.2829)
(48.8625 6.92305 -87.1222)
(54.8052 4.46976 -81.6123)
(57.2609 6.54577 -80.2504)
(15.1769 8.69787 -111.728)
(24.7133 9.83691 -104.524)
(36.1154 8.48878 -94.6558)
(47.2289 11.202 -87.6148)
(53.7159 9.7611 -83.2134)
(55.7966 12.0672 -82.7474)
(15.3941 10.2632 -111.195)
(23.975 12.4437 -104.507)
(34.8441 12.2139 -96.2715)
(45.4553 15.3214 -90.5879)
(52.3915 14.6187 -86.3588)
(54.4777 17.3185 -85.3884)
(16.3139 12.429 -111.351)
(23.4619 15.2772 -106.107)
(32.8704 15.7709 -99.7894)
(42.8001 19.5921 -95.124)
(50.8068 20.1202 -90.2792)
(53.5579 23.7445 -88.1794)
(17.5826 15.3941 -111.672)
(23.3832 18.7984 -107.733)
(31.8202 20.4129 -103.196)
(41.2162 25.1249 -99.8293)
(49.6843 26.3639 -94.8674)
(51.8263 30.9943 -90.835)
(18.8655 18.5857 -112.185)
(23.3851 21.5868 -110.046)
(30.1778 23.5577 -106.925)
(37.6872 28.6486 -104.999)
(46.631 30.5839 -102.052)
(49.7785 40.9112 -91.132)
(20.743 21.7078 -111.738)
(25.1437 24.9453 -110.518)
(31.241 28.8286 -107.877)
(36.4839 35.328 -107.243)
(44.1826 38.9488 -104.811)
(47.1673 49.2449 -92.8677)
(23.0503 -17.4443 -94.9351)
(32.0937 -22.1594 -90.4734)
(42.262 -29.0821 -83.4858)
(51.5158 -35.6333 -78.7809)
(53.3537 -42.2975 -74.2279)
(54.6368 -44.7047 -71.9193)
(19.3628 -9.42794 -96.2125)
(28.8154 -15.5727 -92.7234)
(39.7768 -22.2101 -85.7377)
(50.537 -27.4465 -81.6636)
(53.9356 -34.3112 -78.1018)
(57.0666 -35.9816 -77.4241)
(17.7838 -2.03982 -102.282)
(28.6479 -7.89905 -98.958)
(40.6861 -15.3537 -91.6517)
(52.8451 -20.0384 -85.8424)
(56.4165 -27.109 -80.944)
(59.1278 -27.6344 -79.0853)
(15.0156 3.37766 -106.532)
(25.6144 -0.861449 -103.074)
(37.8247 -7.83594 -95.7834)
(50.5901 -11.7846 -88.1475)
(56.2167 -19.5216 -81.3154)
(60.0339 -20.2646 -77.5615)
(13.3542 6.01487 -109.38)
(23.6347 3.30245 -106.155)
(35.6758 -2.61449 -99.0346)
(48.453 -4.818 -90.882)
(54.6822 -12.2817 -82.4597)
(61.4466 -12.2883 -75.7815)
(12.0667 7.10611 -110.465)
(21.4132 5.40667 -107.274)
(32.8476 1.01633 -99.6953)
(45.4089 0.804959 -90.2094)
(53.2582 -5.3331 -81.0978)
(59.634 -4.91428 -75.2194)
(11.3988 7.36648 -110.784)
(20.2069 6.83035 -107.318)
(31.2203 3.85535 -99.0844)
(43.1884 5.3205 -89.5375)
(51.1011 0.0528314 -80.7393)
(58.0365 2.33387 -73.9645)
(11.3018 7.47667 -110.759)
(19.3667 7.51557 -106.6)
(29.2981 5.55226 -98.5263)
(39.8143 7.94415 -90.2446)
(47.9921 4.12572 -82.306)
(56.441 9.25912 -72.0264)
(11.5426 7.50965 -110.7)
(18.6034 8.2126 -105.911)
(27.5255 7.08966 -97.894)
(37.1832 10.6623 -89.8414)
(46.243 8.95421 -82.2178)
(53.4611 14.4949 -74.9533)
(12.0198 8.06108 -110.545)
(17.9954 9.47939 -105.852)
(25.9956 9.31166 -98.8533)
(34.9685 13.4012 -91.8568)
(44.7992 12.8139 -84.9997)
(51.7053 20.436 -76.7018)
(12.9896 9.24474 -110.814)
(17.7885 11.2244 -106.729)
(24.6436 11.8084 -101.126)
(32.8499 16.0671 -95.1358)
(43.5633 16.981 -88.8548)
(50.7838 26.9357 -77.7175)
(14.0927 11.2719 -111.015)
(17.8622 13.7388 -107.809)
(23.8147 15.2633 -103.418)
(31.4617 19.9622 -98.4841)
(42.6668 22.6613 -92.7153)
(50.235 33.8214 -78.2994)
(15.1697 13.8673 -110.775)
(17.937 16.6635 -108.688)
(22.9646 18.8358 -105.274)
(29.9032 24.2465 -101.382)
(41.0914 28.8633 -96.4811)
(48.583 40.8723 -79.1755)
(17.0295 16.3757 -110.078)
(19.9564 19.4624 -108.445)
(25.1163 23.1287 -105.033)
(31.1937 30.3347 -101.758)
(41.0781 36.7323 -98.0863)
(46.7174 48.0853 -79.3702)
(10.1728 -7.66379 -98.0876)
(15.141 -11.9378 -93.0742)
(25.0301 -17.8802 -85.8188)
(36.8788 -25.8863 -77.3201)
(43.9966 -34.2434 -69.9008)
(46.484 -37.7513 -65.809)
(7.23397 -2.88637 -98.1946)
(12.0362 -8.10127 -94.1675)
(21.8594 -13.2319 -87.8411)
(34.4835 -19.9352 -81.2706)
(42.9991 -28.3726 -74.3882)
(47.967 -30.9968 -70.1091)
(6.64485 1.90937 -100.448)
(11.8978 -3.25802 -97.9294)
(21.9702 -8.628 -93.0863)
(35.3153 -14.4742 -87.1652)
(44.2757 -23.7652 -79.6353)
(53.6188 -25.2143 -69.4065)
(5.7455 5.09606 -102.195)
(11.0228 1.07741 -100.654)
(20.4975 -4.03754 -96.9731)
(33.3742 -8.87563 -91.2778)
(43.8759 -18.1481 -83.2883)
(56.1104 -18.8042 -67.6823)
(5.54608 6.50204 -103.318)
(10.7097 3.71042 -102.115)
(19.5736 -0.708307 -99.2179)
(32.1309 -3.80894 -93.7058)
(43.6736 -11.804 -84.781)
(57.0977 -10.9324 -67.6181)
(5.92765 7.12157 -103.624)
(10.5266 4.97803 -102.683)
(18.8666 1.61294 -99.9541)
(30.9666 0.440507 -94.4425)
(42.9487 -6.07516 -85.6937)
(55.9747 -3.14505 -68.5302)
(6.62468 7.15477 -103.674)
(10.8972 5.75688 -102.8)
(18.8471 3.29842 -100.365)
(30.0704 3.6465 -95.2013)
(41.7531 -1.3803 -87.0935)
(53.4974 3.4556 -68.7351)
(7.48158 6.82467 -103.834)
(11.4569 6.0378 -103.22)
(18.7866 4.57711 -100.772)
(28.8412 5.74853 -95.9047)
(40.3164 2.44679 -88.4476)
(50.9465 8.71293 -69.3671)
(8.46354 6.45717 -104.296)
(12.1234 6.31433 -103.748)
(18.8146 5.80072 -100.962)
(27.9156 7.53681 -96.146)
(39.4154 6.26986 -89.1956)
(49.4334 12.9533 -70.2396)
(9.62599 6.31411 -105.008)
(12.8742 6.84649 -104.573)
(18.7828 7.08714 -101.793)