/*--------------------------------*- C++ -*----------------------------------*\
| =========                 |                                                 |
| \\      /  F ield         | OpenFOAM: The Open Source CFD Toolbox           |
|  \\    /   O peration     | Version:  v2106                                 |
|   \\  /    A nd           | Website:  www.openfoam.com                      |
|    \\/     M anipulation  |                                                 |
\*---------------------------------------------------------------------------*/
FoamFile
{
    version     2.0;
    format      ascii;
    arch        "LSB;label=32;scalar=64";
    class       volScalarField;
    location    "0.000204";
    object      rho;
}
// * * * * * * * * * * * * * * * * * * * * * * * * * * * * * * * * * * * * * //

dimensions      [1 -3 0 0 0 0 0];

internalField   nonuniform List<scalar> 
18273
(
2.34786
2.34811
2.34507
2.34266
2.33968
2.33739
2.3345
2.33176
2.32958
2.32935
2.33039
2.33354
2.33487
2.34202
2.34613
2.3473
2.34559
2.34413
2.34172
2.33954
2.3369
2.3341
2.33181
2.33113
2.33183
2.33475
2.33722
2.3433
2.34912
2.3494
2.34774
2.34632
2.34415
2.34204
2.33962
2.33698
2.33461
2.33331
2.33321
2.33474
2.33636
2.34104
2.35119
2.35122
2.34994
2.34867
2.34666
2.34477
2.34268
2.34026
2.33787
2.33635
2.33566
2.3361
2.33723
2.34037
2.35429
2.35347
2.35228
2.35107
2.34917
2.34734
2.34539
2.34327
2.34119
2.3395
2.33843
2.3382
2.33882
2.34082
2.3568
2.35578
2.35466
2.35361
2.35182
2.35016
2.34831
2.34632
2.34433
2.34273
2.34161
2.34106
2.3413
2.34234
2.35946
2.35842
2.35738
2.35622
2.35469
2.35309
2.35136
2.34945
2.34749
2.34583
2.34465
2.34405
2.3441
2.34477
2.36251
2.36131
2.36027
2.35911
2.35783
2.3564
2.35481
2.35298
2.35098
2.34925
2.34798
2.34735
2.3473
2.34755
2.36578
2.36415
2.36293
2.36182
2.36074
2.35961
2.35825
2.35655
2.35455
2.35273
2.35139
2.35066
2.35047
2.35057
2.36893
2.36691
2.36544
2.36437
2.36342
2.36246
2.36138
2.35985
2.35794
2.35615
2.35488
2.35415
2.35403
2.35375
2.37261
2.37025
2.36836
2.36703
2.36602
2.36512
2.36412
2.36272
2.36093
2.3592
2.35815
2.35774
2.35794
2.35787
2.37663
2.3735
2.37147
2.36981
2.36872
2.36766
2.36669
2.36531
2.36377
2.36238
2.36189
2.36203
2.36286
2.36259
2.3802
2.37656
2.37456
2.37275
2.37145
2.37028
2.36934
2.36802
2.36669
2.36569
2.36584
2.36635
2.36733
2.36601
2.38192
2.37807
2.37737
2.37582
2.37462
2.37327
2.37239
2.37122
2.3703
2.36988
2.37085
2.37293
2.37551
2.37543
2.34145
2.34581
2.34523
2.34551
2.34521
2.34519
2.34442
2.34338
2.34252
2.34272
2.34357
2.34538
2.34554
2.35056
2.34366
2.34632
2.34612
2.3465
2.34637
2.34629
2.34573
2.34489
2.34438
2.34474
2.34579
2.34806
2.34959
2.35412
2.34714
2.34889
2.34794
2.34802
2.34798
2.34766
2.34718
2.34647
2.34604
2.34603
2.34664
2.34824
2.34987
2.35353
2.3503
2.35077
2.34991
2.34974
2.34964
2.34942
2.34898
2.34832
2.34779
2.34761
2.34806
2.34918
2.35077
2.35366
2.35303
2.35242
2.35185
2.35153
2.35147
2.35123
2.35083
2.35017
2.34971
2.34939
2.34946
2.35039
2.35175
2.35425
2.35506
2.35406
2.35346
2.35351
2.35358
2.3535
2.35311
2.3525
2.35181
2.35136
2.35131
2.35183
2.35315
2.35516
2.35651
2.35559
2.35536
2.35557
2.35571
2.3557
2.35542
2.35484
2.35415
2.35355
2.3533
2.35382
2.35469
2.35666
2.35812
2.35731
2.35721
2.35754
2.35771
2.35785
2.35766
2.35712
2.35644
2.3558
2.35555
2.35556
2.35679
2.35829
2.35965
2.35895
2.35883
2.35915
2.35937
2.35954
2.35949
2.35911
2.35856
2.35802
2.35786
2.35789
2.359
2.36024
2.3615
2.36074
2.36058
2.36076
2.36095
2.36107
2.36106
2.36084
2.36046
2.36007
2.36007
2.36027
2.36137
2.36256
2.3637
2.36255
2.36218
2.36217
2.36222
2.36237
2.36237
2.36224
2.36201
2.36191
2.36225
2.36291
2.364
2.36525
2.36629
2.36483
2.36408
2.36377
2.36381
2.36392
2.36392
2.36372
2.36354
2.36375
2.36442
2.36563
2.36697
2.36786
2.36878
2.36702
2.36623
2.36562
2.36544
2.36545
2.36543
2.36526
2.36512
2.36554
2.36651
2.36808
2.36975
2.36937
2.37004
2.36885
2.36882
2.36823
2.36789
2.3677
2.36769
2.36746
2.36747
2.36793
2.36962
2.37186
2.37425
2.37455
2.32733
2.33504
2.3366
2.33853
2.33998
2.3412
2.34171
2.34168
2.3416
2.34187
2.34266
2.34405
2.34459
2.34887
2.33407
2.33792
2.34017
2.342
2.34344
2.34461
2.34528
2.3457
2.34605
2.34657
2.34802
2.3501
2.3519
2.35659
2.34124
2.34339
2.34473
2.34612
2.34737
2.34843
2.3491
2.34961
2.35
2.3507
2.3518
2.3532
2.35496
2.35918
2.34733
2.34841
2.34973
2.3511
2.35239
2.35331
2.3539
2.35431
2.35452
2.35459
2.35538
2.35687
2.3583
2.36165
2.35271
2.35355
2.35496
2.35635
2.35766
2.35851
2.35902
2.35919
2.35907
2.35893
2.35904
2.3598
2.36123
2.36387
2.35746
2.35847
2.3602
2.36178
2.36313
2.36395
2.36434
2.36425
2.36386
2.3634
2.36318
2.36336
2.36437
2.36668
2.36146
2.36284
2.36483
2.36661
2.36803
2.36895
2.3693
2.36907
2.36846
2.3678
2.36729
2.36712
2.36784
2.36977
2.36562
2.36725
2.36929
2.37115
2.37255
2.37354
2.37385
2.37356
2.37288
2.37212
2.37147
2.37113
2.37163
2.37338
2.36917
2.37092
2.37292
2.37483
2.37629
2.37735
2.37772
2.37751
2.3769
2.37618
2.37551
2.37515
2.37558
2.37718
2.37266
2.37433
2.37616
2.37803
2.37948
2.3806
2.38102
2.38097
2.38057
2.37998
2.37942
2.37911
2.37958
2.38105
2.37562
2.37735
2.37904
2.38078
2.38217
2.38325
2.38376
2.38385
2.38367
2.38335
2.38308
2.38297
2.38352
2.38457
2.37821
2.38006
2.38183
2.3834
2.38459
2.38558
2.38611
2.38637
2.38635
2.38634
2.38641
2.3866
2.38748
2.38796
2.38009
2.38218
2.38378
2.38521
2.38625
2.3872
2.38787
2.38846
2.38882
2.38925
2.38973
2.39073
2.39137
2.3908
2.3802
2.38356
2.38603
2.38789
2.3891
2.39006
2.39075
2.39131
2.39171
2.39235
2.39327
2.39513
2.39668
2.39519
2.35686
2.36862
2.37341
2.383
2.38663
2.40348
2.3418
2.35411
2.36332
2.37749
2.38464
2.40077
2.34312
2.35394
2.36244
2.37631
2.38499
2.40128
2.34263
2.35098
2.35863
2.37195
2.38133
2.39681
2.34331
2.35005
2.35672
2.36905
2.3782
2.39481
2.34427
2.3495
2.35494
2.36602
2.37419
2.39078
2.34597
2.35004
2.35448
2.36478
2.37165
2.38992
2.34815
2.35138
2.35572
2.36632
2.3731
2.39224
2.35101
2.35431
2.35854
2.36933
2.37635
2.39517
2.35458
2.35833
2.36258
2.37386
2.38077
2.3991
2.35984
2.36507
2.36979
2.38046
2.38609
2.40651
2.36509
2.37038
2.37632
2.38811
2.39466
2.40592
2.37086
2.37763
2.38487
2.39633
2.40349
2.41223
2.3684
2.37649
2.38667
2.40284
2.41096
2.41747
2.36293
2.374
2.37707
2.38323
2.38224
2.39701
2.35229
2.36087
2.36749
2.37925
2.38281
2.39681
2.35519
2.36312
2.36952
2.38206
2.38501
2.40311
2.35613
2.36239
2.36837
2.38044
2.38479
2.40056
2.35747
2.36341
2.36931
2.38112
2.38573
2.40071
2.35845
2.36421
2.36976
2.38001
2.38409
2.39618
2.35977
2.36538
2.37009
2.37882
2.38071
2.39517
2.3613
2.36633
2.36999
2.37739
2.37813
2.39378
2.36298
2.36719
2.37042
2.37758
2.37883
2.39457
2.36504
2.36867
2.37139
2.37825
2.38068
2.39568
2.36751
2.37114
2.37379
2.38009
2.38277
2.39933
2.37018
2.37336
2.37613
2.38447
2.38722
2.39788
2.37274
2.37638
2.38108
2.38977
2.39393
2.40233
2.36791
2.37266
2.37865
2.38961
2.39754
2.40449
2.36068
2.365
2.37142
2.37457
2.37392
2.38396
2.3552
2.36059
2.3655
2.37496
2.37919
2.38906
2.36016
2.36497
2.37039
2.38171
2.38675
2.40586
2.364
2.3681
2.37373
2.3845
2.39114
2.41025
2.36734
2.37196
2.37878
2.39064
2.3978
2.41596
2.37046
2.37601
2.38366
2.39465
2.40127
2.41446
2.37382
2.3797
2.38731
2.39712
2.40343
2.41616
2.37735
2.38326
2.38998
2.39817
2.40318
2.41809
2.38099
2.38677
2.39211
2.3991
2.40318
2.41738
2.38438
2.38933
2.39372
2.39999
2.40315
2.41308
2.38743
2.39174
2.39567
2.40126
2.40425
2.41038
2.39071
2.39381
2.39719
2.40242
2.40621
2.41261
2.39487
2.39642
2.40104
2.40756
2.41163
2.416
2.39255
2.39524
2.39944
2.40706
2.41453
2.4188
2.38652
2.39818
2.40348
2.41413
2.41805
2.42505
2.37452
2.38715
2.39511
2.40865
2.41202
2.42504
2.3762
2.38783
2.39588
2.41037
2.41352
2.43231
2.37557
2.38565
2.39405
2.40804
2.41244
2.42967
2.37547
2.38465
2.39358
2.40718
2.41277
2.42869
2.37548
2.38399
2.39257
2.4059
2.41278
2.42185
2.37603
2.38397
2.39156
2.40372
2.40922
2.41626
2.37682
2.38381
2.39017
2.40017
2.40416
2.41082
2.37769
2.38422
2.3895
2.39763
2.40064
2.40739
2.37872
2.38426
2.38893
2.39537
2.39764
2.40452
2.37982
2.3842
2.38862
2.3941
2.39663
2.40371
2.38129
2.38451
2.38848
2.3932
2.39603
2.40175
2.38295
2.38552
2.38909
2.3938
2.39719
2.40309
2.37795
2.38013
2.38438
2.39113
2.39497
2.40043
2.38326
2.39146
2.39549
2.40399
2.40681
2.4098
2.37391
2.38256
2.38812
2.39919
2.40268
2.40898
2.37406
2.38203
2.38787
2.39952
2.4017
2.41595
2.37273
2.37997
2.38664
2.39894
2.40443
2.41344
2.37159
2.37828
2.38599
2.3986
2.40624
2.41309
2.37118
2.37771
2.38552
2.39672
2.40468
2.40999
2.37108
2.37751
2.38492
2.39486
2.4017
2.40721
2.37131
2.37765
2.38434
2.39232
2.39735
2.40062
2.37126
2.37715
2.38335
2.38954
2.39299
2.39583
2.37149
2.37664
2.38197
2.3859
2.38825
2.39012
2.37178
2.37558
2.38011
2.38281
2.38508
2.38731
2.37247
2.37451
2.37814
2.38033
2.38253
2.38414
2.3735
2.37347
2.37657
2.37921
2.38309
2.38615
2.3672
2.36687
2.36999
2.37468
2.38045
2.38305
2.40372
2.40963
2.41396
2.42121
2.42539
2.43038
2.39864
2.40484
2.40902
2.41817
2.42324
2.42835
2.39826
2.40409
2.40862
2.41839
2.42366
2.42935
2.39695
2.40246
2.40734
2.41687
2.42314
2.42851
2.39589
2.40102
2.40653
2.41534
2.42202
2.42641
2.39507
2.40002
2.4059
2.41321
2.41835
2.41999
2.39447
2.39944
2.40492
2.41002
2.41293
2.41167
2.39347
2.39817
2.40226
2.40478
2.40489
2.40077
2.39232
2.39623
2.39826
2.39825
2.39551
2.38765
2.39088
2.39334
2.39382
2.39027
2.38455
2.3732
2.38921
2.38986
2.38831
2.38161
2.37493
2.36015
2.38699
2.3856
2.38257
2.37385
2.36724
2.35065
2.38456
2.38024
2.37714
2.36886
2.36527
2.3501
2.37728
2.36994
2.36566
2.36056
2.36249
2.34833
2.37306
2.36467
2.35911
2.35006
2.34483
2.34238
2.37777
2.36545
2.36116
2.35565
2.3525
2.35125
2.37413
2.36119
2.35859
2.35369
2.35144
2.35119
2.37735
2.35925
2.35822
2.35443
2.35297
2.35276
2.38238
2.36074
2.35963
2.35665
2.35587
2.35563
2.38296
2.37161
2.36767
2.36271
2.36039
2.35878
2.38772
2.37927
2.37609
2.36945
2.36562
2.36194
2.39792
2.38993
2.38556
2.37676
2.37093
2.36521
2.40402
2.39608
2.39186
2.38216
2.37557
2.36869
2.41018
2.40097
2.39694
2.38647
2.37962
2.37222
2.41133
2.40227
2.3994
2.38909
2.38298
2.37559
2.41357
2.40368
2.40156
2.39167
2.38672
2.37905
2.40817
2.39899
2.39861
2.39069
2.38752
2.38053
2.41208
2.40188
2.40261
2.39767
2.39457
2.38783
2.35608
2.34938
2.34175
2.33359
2.331
2.33515
2.3596
2.35081
2.34676
2.34333
2.34275
2.34745
2.35411
2.34616
2.34529
2.34465
2.34514
2.34917
2.35684
2.34898
2.34937
2.34948
2.34981
2.35239
2.36054
2.35497
2.35504
2.35507
2.35442
2.35508
2.36712
2.36279
2.36209
2.36134
2.35909
2.35761
2.37524
2.37078
2.36846
2.36605
2.36216
2.35902
2.38451
2.37887
2.37538
2.37022
2.36476
2.36042
2.39004
2.38482
2.37995
2.37286
2.36649
2.36181
2.39585
2.38969
2.38395
2.37528
2.36866
2.3635
2.39745
2.39133
2.38612
2.37705
2.37086
2.36559
2.39924
2.39252
2.38743
2.3783
2.37279
2.36742
2.39286
2.38848
2.38438
2.37676
2.37326
2.36876
2.39621
2.39056
2.38763
2.38284
2.3787
2.37427
2.28443
2.29918
2.29308
2.29704
2.30141
2.316
2.28495
2.30293
2.30371
2.31423
2.32062
2.33479
2.27769
2.30024
2.30589
2.32108
2.3284
2.3406
2.28398
2.30709
2.31608
2.33139
2.33776
2.34697
2.29714
2.3188
2.32812
2.34151
2.34609
2.3523
2.31659
2.33413
2.34111
2.35117
2.35368
2.35691
2.33558
2.34894
2.35291
2.35883
2.35977
2.36064
2.3527
2.36271
2.3635
2.36539
2.36509
2.36491
2.36524
2.37258
2.37141
2.37074
2.36934
2.36839
2.37345
2.37938
2.37694
2.3751
2.37322
2.37196
2.37603
2.38235
2.37904
2.37722
2.37572
2.37475
2.3747
2.38287
2.37883
2.37807
2.37734
2.37703
2.36889
2.3788
2.3743
2.37607
2.37763
2.37786
2.36224
2.37495
2.37348
2.37688
2.37858
2.38021
2.39779
2.3842
2.37553
2.35875
2.34633
2.33749
2.39299
2.38029
2.37112
2.35739
2.34728
2.34081
2.38958
2.37241
2.36345
2.34951
2.34093
2.33576
2.38431
2.36583
2.35763
2.34439
2.3368
2.33219
2.37929
2.35963
2.3511
2.33851
2.33255
2.32905
2.37554
2.35644
2.34796
2.33639
2.33085
2.3284
2.37338
2.35457
2.34605
2.33623
2.33253
2.33034
2.3717
2.3562
2.34805
2.33894
2.33542
2.33318
2.37301
2.35774
2.35076
2.34191
2.33887
2.33637
2.37655
2.36098
2.35587
2.34651
2.34318
2.33914
2.37868
2.36353
2.35946
2.34929
2.34598
2.34192
2.38451
2.36566
2.36237
2.353
2.35048
2.34464
2.38031
2.36259
2.36319
2.35502
2.35214
2.34543
2.38458
2.37235
2.3729
2.36674
2.36445
2.35561
2.38511
2.37505
2.36646
2.35211
2.34363
2.34067
2.38003
2.36876
2.36354
2.35493
2.34943
2.34956
2.37361
2.36007
2.35562
2.34864
2.34528
2.34619
2.36961
2.35421
2.35123
2.34507
2.34274
2.34342
2.36554
2.34858
2.3466
2.3413
2.3404
2.34145
2.36298
2.3469
2.34548
2.34073
2.34052
2.34128
2.36119
2.34732
2.34651
2.34246
2.34227
2.34241
2.36148
2.35029
2.34931
2.34502
2.34433
2.34367
2.36075
2.35402
2.35283
2.34762
2.34614
2.34475
2.36925
2.35962
2.35687
2.34965
2.34767
2.34512
2.37028
2.35826
2.35673
2.34929
2.34691
2.345
2.37381
2.36091
2.35762
2.34927
2.34654
2.34424
2.3673
2.35783
2.3551
2.34639
2.34385
2.34199
2.37075
2.36056
2.36023
2.35537
2.3531
2.34791
2.36169
2.35791
2.34585
2.33693
2.33272
2.33589
2.34941
2.35033
2.34316
2.34205
2.3403
2.3459
2.33728
2.33899
2.3338
2.3356
2.33636
2.34229
2.33272
2.33301
2.32996
2.33155
2.33374
2.33941
2.331
2.32873
2.3269
2.32856
2.33217
2.33775
2.33434
2.33013
2.3284
2.32925
2.33254
2.33744
2.33671
2.33177
2.33026
2.33094
2.33375
2.33788
2.33587
2.33434
2.33156
2.33272
2.33506
2.33854
2.33406
2.33447
2.33145
2.3332
2.33513
2.33835
2.33412
2.33374
2.3315
2.33326
2.33439
2.33737
2.32911
2.33054
2.32855
2.33007
2.33149
2.33522
2.326
2.32919
2.32545
2.32651
2.32733
2.33138
2.31269
2.32173
2.3175
2.32044
2.3229
2.32674
2.30657
2.31651
2.31636
2.32311
2.32522
2.32892
2.33936
2.34186
2.34282
2.34365
2.34452
2.34502
2.34527
2.34527
2.34543
2.34543
2.34567
2.34601
2.34559
2.34827
2.34571
2.34692
2.34737
2.34811
2.34874
2.34919
2.34953
2.3497
2.34991
2.34986
2.35007
2.35088
2.3517
2.35527
2.35257
2.35282
2.35286
2.35342
2.35399
2.3544
2.35475
2.35488
2.35493
2.35471
2.35454
2.35498
2.35546
2.35877
2.35881
2.35843
2.35877
2.35933
2.35986
2.36017
2.36041
2.36036
2.36013
2.35969
2.35926
2.35919
2.35994
2.36277
2.36438
2.36407
2.36485
2.36549
2.36602
2.3663
2.36635
2.36608
2.36551
2.36479
2.36407
2.36373
2.36398
2.36598
2.3696
2.36962
2.37059
2.37137
2.37198
2.37226
2.37215
2.37166
2.37085
2.36991
2.36904
2.36854
2.36874
2.37017
2.37436
2.37486
2.37592
2.37684
2.37755
2.37786
2.37764
2.37696
2.37599
2.37493
2.37392
2.37335
2.37341
2.37424
2.37951
2.38004
2.38095
2.38192
2.38262
2.38292
2.38262
2.38186
2.38081
2.37967
2.37862
2.37802
2.37802
2.3784
2.38418
2.38464
2.38543
2.38645
2.38717
2.38746
2.38714
2.38638
2.38534
2.38417
2.38314
2.38252
2.38249
2.38261
2.38923
2.38947
2.38998
2.39082
2.39142
2.39164
2.39127
2.39053
2.38951
2.38837
2.38743
2.38688
2.38686
2.38686
2.39335
2.3936
2.39404
2.39469
2.39512
2.39529
2.39495
2.39428
2.39338
2.39237
2.39158
2.3911
2.39121
2.39127
2.39854
2.39835
2.39851
2.39877
2.39886
2.39884
2.39847
2.39782
2.397
2.39618
2.39557
2.39516
2.39558
2.39579
2.40145
2.40184
2.40179
2.40194
2.40188
2.40172
2.40136
2.40089
2.40031
2.39977
2.39954
2.39947
2.40015
2.40049
2.40707
2.40733
2.40731
2.40708
2.40647
2.40575
2.40497
2.40426
2.40368
2.40324
2.40338
2.40383
2.40492
2.40575
2.34715
2.34678
2.34663
2.34609
2.34621
2.34615
2.34612
2.3458
2.34538
2.34492
2.34468
2.34493
2.34479
2.34558
2.35416
2.35305
2.35231
2.35186
2.3518
2.35164
2.35153
2.35126
2.35086
2.35041
2.35007
2.35022
2.35026
2.35197
2.36072
2.3596
2.35887
2.35834
2.35809
2.35786
2.35767
2.35732
2.35677
2.35614
2.35552
2.35532
2.35515
2.35672
2.36686
2.3658
2.36539
2.36499
2.36476
2.36454
2.36424
2.36373
2.36299
2.36215
2.36127
2.36071
2.36027
2.3617
2.37237
2.37159
2.37157
2.37144
2.37133
2.37111
2.3707
2.37004
2.36913
2.36811
2.36705
2.36622
2.36568
2.3664
2.37769
2.3772
2.37739
2.37752
2.37757
2.37742
2.37695
2.37617
2.37513
2.37399
2.37279
2.37186
2.37119
2.37154
2.38294
2.38263
2.38286
2.3832
2.38339
2.38331
2.3828
2.38193
2.3808
2.37958
2.37827
2.37729
2.37657
2.37654
2.38839
2.3881
2.38828
2.38871
2.38893
2.38883
2.38827
2.38733
2.38613
2.38481
2.38344
2.38238
2.38165
2.38144
2.39379
2.39344
2.39358
2.39396
2.39416
2.39401
2.39339
2.3924
2.39116
2.38974
2.38837
2.38723
2.38653
2.38621
2.39962
2.39908
2.399
2.39914
2.39918
2.39889
2.39818
2.39713
2.39584
2.39439
2.39305
2.3919
2.39127
2.39088
2.40484
2.40432
2.40403
2.40394
2.40375
2.40333
2.40255
2.40145
2.40015
2.39872
2.39747
2.39639
2.39595
2.39552
2.41067
2.40989
2.40926
2.40876
2.40822
2.40754
2.4066
2.40542
2.40413
2.40277
2.40164
2.40065
2.40056
2.40021
2.41476
2.41427
2.41349
2.41283
2.41205
2.41116
2.41012
2.40893
2.40774
2.40657
2.40574
2.40502
2.4052
2.40502
2.42146
2.42088
2.41964
2.4183
2.41679
2.41534
2.4139
2.41253
2.41134
2.41036
2.40986
2.40969
2.41017
2.41037
2.36152
2.35891
2.35721
2.35481
2.35358
2.35233
2.35135
2.35028
2.34907
2.3479
2.34696
2.3464
2.346
2.34551
2.36784
2.36491
2.36292
2.3609
2.35963
2.35844
2.35738
2.35629
2.35507
2.35391
2.35288
2.35222
2.35143
2.35188
2.37287
2.37043
2.36885
2.36725
2.36613
2.36503
2.36392
2.36278
2.3615
2.36022
2.35889
2.35786
2.35664
2.35729
2.3778
2.37584
2.3747
2.37357
2.37266
2.37167
2.37057
2.36939
2.36805
2.36664
2.36513
2.36381
2.36242
2.36198
2.38269
2.38117
2.38045
2.37971
2.37899
2.37812
2.37704
2.37583
2.37443
2.37293
2.37126
2.36972
2.36815
2.36732
2.38789
2.38664
2.3861
2.38564
2.38507
2.38429
2.38324
2.38199
2.38051
2.3789
2.37713
2.37544
2.37382
2.37281
2.3934
2.39232
2.39183
2.39151
2.39101
2.39026
2.38918
2.38785
2.38626
2.38455
2.38269
2.38094
2.37935
2.37823
2.39927
2.39834
2.39775
2.39739
2.39684
2.39602
2.39485
2.39341
2.3917
2.38983
2.38793
2.38613
2.38463
2.38353
2.40527
2.40442
2.40369
2.40318
2.40249
2.40153
2.40025
2.39867
2.39686
2.39487
2.39295
2.39112
2.38971
2.38859
2.41154
2.41065
2.40966
2.40887
2.40792
2.40674
2.40528
2.40356
2.40167
2.39962
2.39772
2.39588
2.39452
2.39334
2.41727
2.41631
2.41513
2.41405
2.41284
2.41144
2.40982
2.40799
2.40606
2.40401
2.40219
2.40037
2.39909
2.39787
2.42323
2.42202
2.42047
2.41895
2.41737
2.41566
2.41384
2.41189
2.40995
2.40794
2.40624
2.40454
2.40345
2.40234
2.42853
2.42688
2.4251
2.42324
2.42138
2.4194
2.41739
2.41534
2.41338
2.41145
2.40996
2.40844
2.40761
2.40672
2.43501
2.43288
2.43051
2.42786
2.4254
2.42301
2.42075
2.41862
2.41669
2.41496
2.41374
2.4126
2.41209
2.41155
2.37198
2.36882
2.36616
2.36313
2.36092
2.35876
2.35675
2.3546
2.35248
2.35035
2.34858
2.34723
2.34648
2.34572
2.37656
2.37327
2.37101
2.3686
2.36671
2.36474
2.36276
2.36065
2.35855
2.3565
2.35475
2.35334
2.35223
2.35215
2.3803
2.37764
2.37593
2.37411
2.37253
2.3708
2.36897
2.36702
2.36505
2.36305
2.36114
2.35947
2.35805
2.35769
2.38468
2.38237
2.3811
2.37971
2.3784
2.37691
2.37526
2.37346
2.3716
2.36966
2.36766
2.36583
2.36413
2.36297
2.38972
2.38769
2.38664
2.3855
2.38434
2.38299
2.38145
2.37977
2.37797
2.37605
2.37395
2.37193
2.36992
2.3684
2.39535
2.39352
2.3925
2.39146
2.39035
2.38905
2.38755
2.3859
2.38408
2.3821
2.37989
2.37771
2.37553
2.37374
2.40148
2.39982
2.39867
2.39759
2.39639
2.39503
2.39348
2.39177
2.38986
2.38775
2.38544
2.38311
2.38084
2.37891
2.4079
2.40635
2.40498
2.40376
2.40237
2.40085
2.39915
2.39729
2.39524
2.39297
2.39056
2.38815
2.38586
2.38388
2.41426
2.41279
2.4112
2.40978
2.40815
2.40642
2.40452
2.40247
2.40026
2.39785
2.3954
2.39295
2.39068
2.38869
2.42051
2.41904
2.41715
2.41547
2.41355
2.41155
2.40943
2.4072
2.40487
2.40239
2.39995
2.39746
2.39523
2.39327
2.42624
2.42464
2.42252
2.42057
2.4184
2.41617
2.41385
2.41145
2.40905
2.40655
2.40415
2.40165
2.39953
2.39764
2.43176
2.4299
2.42741
2.4251
2.42261
2.42013
2.41763
2.41516
2.41276
2.41032
2.40798
2.40552
2.4036
2.40188
2.43701
2.43476
2.43201
2.4293
2.42649
2.42371
2.42101
2.4184
2.41595
2.41353
2.41134
2.40905
2.40738
2.40586
2.4423
2.43976
2.43648
2.43317
2.42997
2.42693
2.42408
2.42144
2.41905
2.41675
2.41474
2.41273
2.41131
2.41004
2.37834
2.37522
2.37274
2.36979
2.36723
2.36461
2.36199
2.35928
2.35653
2.35373
2.35123
2.34883
2.34731
2.34613
2.382
2.37872
2.37674
2.37445
2.37239
2.3701
2.36769
2.36509
2.36242
2.35975
2.35736
2.35502
2.35328
2.35247
2.3856
2.38262
2.38108
2.37928
2.37758
2.37563
2.37349
2.37118
2.36874
2.36623
2.3638
2.36141
2.35933
2.35797
2.39028
2.38754
2.38619
2.38464
2.38314
2.38142
2.3795
2.37739
2.37516
2.37276
2.37026
2.3679
2.36551
2.36374
2.39591
2.39344
2.39202
2.39049
2.38898
2.38732
2.38551
2.38353
2.38143
2.3791
2.37658
2.37401
2.37134
2.3693
2.40229
2.39997
2.39833
2.39669
2.39507
2.39336
2.39154
2.38959
2.38749
2.38514
2.38251
2.37974
2.37688
2.3745
2.40892
2.4068
2.4049
2.40307
2.40121
2.39934
2.39741
2.39538
2.39318
2.39072
2.38793
2.38497
2.38198
2.37936
2.41549
2.41349
2.41134
2.4093
2.40718
2.4051
2.40298
2.40078
2.39842
2.39578
2.39282
2.38969
2.38663
2.38387
2.42169
2.41976
2.41739
2.41515
2.4128
2.41051
2.40817
2.40576
2.40319
2.40037
2.39726
2.39402
2.39096
2.38816
2.42733
2.4254
2.42279
2.42038
2.41781
2.41532
2.41278
2.41019
2.40747
2.4045
2.40131
2.39805
2.395
2.39224
2.43239
2.43034
2.42755
2.42499
2.42226
2.4196
2.41688
2.4141
2.41124
2.40818
2.405
2.40182
2.39887
2.39612
2.43693
2.43472
2.43166
2.4289
2.42597
2.42316
2.42031
2.41746
2.41457
2.41153
2.40842
2.40532
2.40251
2.3999
2.44172
2.43909
2.43581
2.43272
2.42953
2.42647
2.4234
2.42036
2.41736
2.41434
2.41139
2.40842
2.40586
2.40348
2.44597
2.44318
2.43944
2.43602
2.43257
2.42934
2.42616
2.42312
2.42014
2.41721
2.41437
2.41158
2.40918
2.40712
2.38256
2.37951
2.37726
2.37461
2.37217
2.36948
2.36672
2.36383
2.36085
2.35769
2.35469
2.35125
2.34869
2.34674
2.38609
2.38277
2.38089
2.37874
2.37672
2.3744
2.37194
2.36925
2.36636
2.36329
2.3603
2.35714
2.35444
2.3525
2.39015
2.38687
2.38523
2.38336
2.3816
2.37962
2.37741
2.37497
2.37228
2.36938
2.36637
2.3634
2.36045
2.35826
2.39547
2.39241
2.39073
2.38888
2.38715
2.38525
2.38317
2.3809
2.37836
2.37556
2.37255
2.36956
2.36648
2.36404
2.40149
2.39874
2.39684
2.39487
2.39299
2.39104
2.38899
2.38678
2.38435
2.38161
2.37858
2.37545
2.37214
2.36958
2.40808
2.40546
2.4033
2.40113
2.39903
2.39694
2.3948
2.39257
2.39014
2.38736
2.38425
2.38094
2.3775
2.37462
2.41446
2.4121
2.40967
2.40728
2.40491
2.40263
2.40035
2.39802
2.3955
2.39262
2.38936
2.38587
2.38234
2.37922
2.42066
2.41827
2.41559
2.413
2.41041
2.40794
2.4055
2.40302
2.40034
2.3973
2.39387
2.39023
2.38663
2.38338
2.42617
2.42375
2.42085
2.41815
2.41539
2.41279
2.41017
2.40751
2.40464
2.40142
2.39784
2.39411
2.39053
2.38726
2.43096
2.42847
2.42538
2.4226
2.41974
2.41704
2.41429
2.41148
2.40845
2.40508
2.4014
2.39767
2.39413
2.39088
2.43528
2.43263
2.42942
2.42659
2.42364
2.42085
2.41795
2.41495
2.41178
2.40829
2.40462
2.40097
2.39751
2.39425
2.43909
2.43638
2.433
2.43009
2.42703
2.42414
2.42112
2.41804
2.41478
2.41125
2.40761
2.404
2.40066
2.39754
2.44345
2.44046
2.43695
2.4338
2.43052
2.42738
2.4241
2.42077
2.41733
2.41376
2.41026
2.40674
2.40369
2.40069
2.4474
2.44422
2.44041
2.43706
2.43361
2.43031
2.42688
2.42343
2.41992
2.41635
2.41285
2.4095
2.40653
2.40394
2.38626
2.38312
2.38097
2.37853
2.37631
2.37388
2.37137
2.36869
2.36588
2.36274
2.35945
2.35534
2.35195
2.34876
2.39013
2.3867
2.38486
2.38268
2.38069
2.3785
2.37623
2.37374
2.37094
2.3678
2.3644
2.36067
2.357
2.35396
2.39446
2.39116
2.38934
2.38734
2.38552
2.38356
2.38141
2.37901
2.37628
2.37319
2.36975
2.36618
2.3624
2.35933
2.39999
2.39702
2.39505
2.39302
2.39109
2.38904
2.38685
2.38445
2.38172
2.37862
2.37516
2.37159
2.36777
2.36481
2.40568
2.40314
2.40114
2.39887
2.39674
2.39455
2.39225
2.38979
2.38703
2.38392
2.38046
2.37684
2.37301
2.36998
2.41206
2.40952
2.40711
2.40476
2.40241
2.40002
2.39756
2.39498
2.39215
2.38897
2.38545
2.38173
2.37789
2.37467
2.4179
2.4155
2.41296
2.41036
2.40772
2.40513
2.40252
2.39981
2.39688
2.3936
2.38998
2.38614
2.3823
2.37889
2.4236
2.42108
2.41821
2.41541
2.41257
2.40983
2.40706
2.40424
2.40118
2.39777
2.39402
2.39009
2.38627
2.38272
2.4285
2.42587
2.42279
2.41991
2.41696
2.41412
2.41123
2.40827
2.40506
2.40148
2.39762
2.39365
2.38987
2.38634
2.43274
2.43002
2.42677
2.42389
2.42089
2.41802
2.41504
2.41194
2.40857
2.40484
2.40092
2.39694
2.39322
2.38975
2.43665
2.43383
2.43049
2.42764
2.4246
2.42166
2.41852
2.41524
2.4117
2.40786
2.4039
2.4
2.39639
2.39294
2.44008
2.43734
2.43394
2.43108
2.42798
2.42496
2.42168
2.41825
2.41459
2.41066
2.40669
2.40281
2.39927
2.39591
2.44431
2.4414
2.4379
2.43481
2.43147
2.42817
2.4246
2.42088
2.41702
2.41301
2.40912
2.40532
2.40206
2.3987
2.44816
2.44504
2.44136
2.43808
2.43457
2.43103
2.42722
2.42335
2.41938
2.41535
2.41149
2.4078
2.40459
2.4016
2.37372
2.37117
2.36827
2.36503
2.36085
2.35721
2.35322
2.37828
2.37568
2.37271
2.36931
2.36545
2.36132
2.35762
2.38295
2.38028
2.37723
2.37372
2.36992
2.36568
2.36207
2.38765
2.38485
2.38167
2.37807
2.37423
2.37003
2.36654
2.3922
2.38927
2.38599
2.38232
2.37844
2.37433
2.37086
2.39662
2.39356
2.39016
2.38643
2.38249
2.37846
2.37491
2.40075
2.39758
2.39409
2.39029
2.38631
2.38233
2.37868
2.40464
2.40135
2.39775
2.39388
2.38985
2.38593
2.38221
2.42891
2.42623
2.4232
2.42041
2.41746
2.41454
2.41149
2.40831
2.40489
2.40115
2.3972
2.39314
2.38931
2.38562
2.43293
2.43026
2.42714
2.42436
2.42135
2.41836
2.41516
2.41182
2.40823
2.40434
2.40034
2.39629
2.39255
2.38896
2.4368
2.43416
2.43097
2.42821
2.42515
2.42203
2.41864
2.41507
2.41127
2.40723
2.4032
2.39924
2.39565
2.39212
2.4402
2.43773
2.43456
2.43185
2.42873
2.42548
2.42187
2.41807
2.41407
2.40991
2.40588
2.402
2.39855
2.39504
2.44449
2.44192
2.43864
2.4356
2.43219
2.4286
2.42468
2.42059
2.4164
2.41216
2.40819
2.40442
2.4012
2.39763
2.44828
2.44526
2.44173
2.43848
2.43493
2.43115
2.42707
2.42283
2.41856
2.41435
2.41045
2.40678
2.40357
2.40033
2.34106
2.34262
2.34271
2.34592
2.36067
2.37875
2.33483
2.33254
2.33163
2.33526
2.35228
2.37195
2.33764
2.33452
2.33375
2.33619
2.34957
2.36669
2.33934
2.33585
2.33422
2.33409
2.34346
2.35611
2.34062
2.33721
2.33506
2.33379
2.33974
2.34728
2.34107
2.33734
2.33451
2.33249
2.33621
2.33985
2.34121
2.33721
2.33405
2.33192
2.33477
2.33646
2.34089
2.33639
2.33294
2.3308
2.33345
2.33911
2.34086
2.33592
2.33252
2.33059
2.33368
2.34257
2.34081
2.33543
2.33177
2.32915
2.33137
2.34048
2.34154
2.33624
2.33287
2.33029
2.33361
2.34247
2.34293
2.33682
2.33412
2.33216
2.33932
2.3477
2.34588
2.34001
2.3397
2.33944
2.35064
2.35569
2.33772
2.33263
2.33391
2.33826
2.35686
2.36376
2.34806
2.3508
2.35065
2.3539
2.36009
2.37388
2.34139
2.34132
2.34072
2.3452
2.35283
2.36862
2.34207
2.34017
2.33976
2.3442
2.35099
2.36533
2.3417
2.33903
2.33828
2.34203
2.34771
2.3607
2.34205
2.33918
2.33848
2.34148
2.34598
2.35715
2.34202
2.33905
2.33816
2.33991
2.34245
2.35112
2.342
2.33884
2.33755
2.33767
2.33808
2.34478
2.34157
2.33782
2.33566
2.33409
2.33334
2.3393
2.34115
2.33671
2.33413
2.33199
2.33149
2.33837
2.3408
2.33568
2.33278
2.33
2.32938
2.33668
2.34116
2.33595
2.33308
2.33027
2.33027
2.33806
2.34154
2.3358
2.3324
2.32973
2.33115
2.33847
2.34371
2.33821
2.33551
2.33343
2.3352
2.34066
2.33667
2.33012
2.32693
2.32716
2.33411
2.3431
2.36186
2.3637
2.36423
2.36593
2.3695
2.37881
2.3547
2.35458
2.3527
2.35394
2.35893
2.37058
2.35235
2.35045
2.34839
2.34976
2.35483
2.36589
2.34942
2.34659
2.34418
2.34596
2.35132
2.36149
2.34826
2.34489
2.34308
2.3449
2.34963
2.35875
2.34716
2.34362
2.34221
2.34357
2.34694
2.35374
2.34632
2.34267
2.34123
2.34175
2.34337
2.34823
2.34531
2.34125
2.33937
2.33873
2.33876
2.34293
2.34429
2.33974
2.33745
2.33622
2.33666
2.34208
2.34336
2.33843
2.33595
2.33428
2.33496
2.34088
2.34317
2.33829
2.33611
2.33421
2.33456
2.34035
2.34294
2.3378
2.33492
2.33203
2.33195
2.33757
2.34433
2.33917
2.33642
2.3335
2.33283
2.33679
2.33821
2.33173
2.32805
2.32586
2.3283
2.33406
2.3716
2.37269
2.37421
2.37544
2.37566
2.37969
2.36545
2.36468
2.36317
2.36267
2.36404
2.37062
2.36198
2.35973
2.35744
2.35624
2.3568
2.36405
2.35789
2.35434
2.35084
2.34947
2.35124
2.35914
2.35526
2.35104
2.34749
2.3467
2.34882
2.3565
2.35286
2.34845
2.34538
2.34505
2.34705
2.35338
2.35086
2.3465
2.34372
2.34335
2.34508
2.34963
2.34882
2.34442
2.34166
2.34078
2.34144
2.34433
2.34689
2.34215
2.33949
2.3382
2.33836
2.34174
2.34509
2.34034
2.33759
2.33586
2.33587
2.34035
2.34419
2.33943
2.33727
2.33587
2.33598
2.33983
2.34362
2.33898
2.33653
2.334
2.33328
2.33705
2.34437
2.34017
2.33786
2.33515
2.33349
2.3359
2.33987
2.33487
2.33153
2.32841
2.32862
2.33268
2.37862
2.37947
2.3807
2.38223
2.38244
2.38438
2.37347
2.3736
2.37273
2.37283
2.37306
2.37638
2.37027
2.36924
2.36753
2.36622
2.3645
2.36832
2.36596
2.36336
2.36032
2.35828
2.35707
2.36238
2.3624
2.3584
2.35452
2.35225
2.35194
2.35794
2.35908
2.35423
2.35017
2.34832
2.34876
2.35444
2.35613
2.35118
2.3474
2.34588
2.34643
2.35177
2.35324
2.34841
2.34489
2.34351
2.34348
2.34698
2.35052
2.34576
2.3424
2.34105
2.34077
2.3434
2.34804
2.34327
2.34036
2.33868
2.33806
2.34088
2.34616
2.34146
2.33917
2.33785
2.33803
2.34112
2.34505
2.34047
2.3384
2.33638
2.33609
2.33929
2.34504
2.34108
2.33945
2.33744
2.33639
2.33774
2.34102
2.33661
2.33425
2.33148
2.33145
2.33439
2.38299
2.3837
2.38427
2.38566
2.3864
2.38802
2.37871
2.37949
2.3796
2.37997
2.38055
2.38332
2.37562
2.37557
2.37496
2.3745
2.37374
2.37562
2.37184
2.37038
2.36856
2.36696
2.36568
2.36843
2.36826
2.36523
2.36194
2.35935
2.35792
2.36225
2.36461
2.36034
2.35626
2.35366
2.35307
2.35806
2.36137
2.35644
2.3523
2.3499
2.34996
2.35582
2.35816
2.35302
2.34911
2.34689
2.3471
2.352
2.35508
2.35007
2.34651
2.34466
2.34425
2.34768
2.35213
2.34716
2.34383
2.34188
2.34077
2.34348
2.34936
2.34444
2.34165
2.34011
2.33996
2.34254
2.34723
2.34255
2.34023
2.33844
2.33823
2.34074
2.34612
2.34199
2.34077
2.33982
2.33968
2.34076
2.34214
2.33823
2.33679
2.33522
2.33554
2.33793
2.38625
2.38686
2.38739
2.38865
2.38924
2.39034
2.38209
2.38284
2.3833
2.38435
2.38526
2.3877
2.37926
2.37943
2.37941
2.38011
2.38046
2.38222
2.37595
2.3751
2.37434
2.37416
2.37386
2.37549
2.3728
2.37064
2.36859
2.36711
2.36606
2.36815
2.36952
2.36598
2.36278
2.36039
2.35901
2.36227
2.36646
2.36194
2.35809
2.35545
2.35425
2.35894
2.36343
2.35831
2.35421
2.35159
2.35122
2.35569
2.36044
2.3551
2.35101
2.34839
2.34814
2.35185
2.35738
2.35211
2.3481
2.34545
2.3444
2.34694
2.35434
2.34906
2.34565
2.34316
2.34245
2.34464
2.35128
2.34631
2.34349
2.34102
2.34031
2.34242