/*--------------------------------*- C++ -*----------------------------------*\
| =========                 |                                                 |
| \\      /  F ield         | OpenFOAM: The Open Source CFD Toolbox           |
|  \\    /   O peration     | Version:  v2106                                 |
|   \\  /    A nd           | Website:  www.openfoam.com                      |
|    \\/     M anipulation  |                                                 |
\*---------------------------------------------------------------------------*/
FoamFile
{
    version     2.0;
    format      ascii;
    arch        "LSB;label=32;scalar=64";
    class       volVectorField;
    location    "0.000204";
    object      U;
}
// * * * * * * * * * * * * * * * * * * * * * * * * * * * * * * * * * * * * * //

dimensions      [0 1 -1 0 0 0 0];

internalField   nonuniform List<vector> 
18273
(
(-17.3043 25.7731 -108.964)
(-14.6839 19.7053 -109.417)
(-11.4923 15.1243 -110.461)
(-9.98257 12.0851 -111.86)
(-8.8466 10.2642 -111.527)
(-8.1752 9.37022 -109.67)
(-7.87475 8.42977 -106.446)
(-7.88974 6.81199 -102.058)
(-8.73567 4.28751 -97.1391)
(-9.75473 0.545582 -92.673)
(-13.2022 -4.0499 -89.5961)
(-16.8632 -11.0822 -88.6061)
(-24.0494 -17.8827 -87.7892)
(-29.6872 -27.6351 -88.6709)
(-10.6231 21.6111 -107.914)
(-7.61982 17.4833 -110.705)
(-4.35547 14.0783 -111.691)
(-3.06413 11.4784 -113.179)
(-2.01139 9.98284 -113.646)
(-1.40425 9.12209 -113.137)
(-1.21739 8.66101 -111.671)
(-1.34781 7.69276 -109.159)
(-2.17358 5.76804 -105.781)
(-3.46072 2.79762 -101.976)
(-6.38168 -0.931701 -98.5031)
(-9.59536 -6.78273 -96.3188)
(-15.7253 -13.0019 -93.5424)
(-18.6783 -23.6743 -89.7309)
(-5.94264 16.7151 -109.083)
(-3.39219 13.5536 -112.202)
(-0.402028 11.4652 -112.984)
(1.01416 10.0313 -114.136)
(1.98099 9.22708 -114.437)
(2.53199 8.85121 -114.398)
(2.73149 8.71054 -113.771)
(2.65686 8.32598 -112.427)
(2.14104 7.3042 -110.282)
(1.07281 5.62573 -107.339)
(-0.800355 3.06355 -103.935)
(-3.40755 -1.16195 -100.61)
(-7.84032 -7.10254 -97.4296)
(-9.8809 -17.9734 -94.674)
(-1.39391 14.1621 -110.354)
(0.381968 11.5822 -113.301)
(2.36542 9.91497 -114.244)
(3.37427 9.10249 -115.118)
(4.05037 8.70635 -115.301)
(4.48301 8.67823 -115.228)
(4.67447 8.66919 -114.775)
(4.71539 8.60375 -113.881)
(4.47499 8.02941 -112.492)
(3.89613 6.86657 -110.528)
(2.71718 4.92212 -108.069)
(1.22301 1.44049 -105.203)
(-1.60536 -4.3233 -102.477)
(-3.1896 -14.303 -100.025)
(1.46067 11.9228 -112.259)
(2.72704 9.79484 -114.695)
(3.90194 8.71654 -115.613)
(4.55725 8.30498 -116.103)
(5.04881 8.24398 -116.133)
(5.35523 8.33306 -115.895)
(5.53841 8.49322 -115.412)
(5.66414 8.62954 -114.645)
(5.65865 8.42698 -113.545)
(5.44368 7.73523 -112.119)
(4.79654 6.38528 -110.327)
(4.00677 3.62293 -108.241)
(2.12098 -1.51917 -106.309)
(0.431521 -10.4952 -103.861)
(3.42615 10.8825 -114.394)
(4.27177 8.9601 -116.199)
(4.79902 8.10164 -116.812)
(5.17662 7.88994 -116.993)
(5.44437 7.90382 -116.86)
(5.59373 8.03245 -116.522)
(5.75454 8.23604 -116.009)
(5.93366 8.44293 -115.323)
(6.0709 8.40008 -114.41)
(6.05149 8.00514 -113.26)
(5.74448 6.96372 -111.905)
(5.35669 4.68622 -110.393)
(4.11757 0.246324 -108.955)
(2.93402 -7.61223 -105.842)
(4.41563 10.0854 -116.376)
(4.96344 8.37323 -117.504)
(5.21193 7.7253 -117.765)
(5.43992 7.59256 -117.684)
(5.53474 7.63766 -117.422)
(5.62841 7.79574 -117.019)
(5.74739 7.96148 -116.488)
(5.95745 8.13224 -115.857)
(6.16018 8.1528 -115.074)
(6.25265 7.96794 -114.113)
(6.12976 7.2296 -112.985)
(5.88417 5.4057 -111.704)
(5.27371 1.54162 -110.247)
(4.37412 -5.34267 -106.682)
(4.95186 9.71267 -117.971)
(5.22212 8.01581 -118.478)
(5.37224 7.40536 -118.442)
(5.51315 7.31171 -118.192)
(5.57459 7.437 -117.849)
(5.65212 7.59126 -117.413)
(5.74495 7.72512 -116.902)
(5.90856 7.84134 -116.317)
(6.0786 7.893 -115.615)
(6.20062 7.81864 -114.768)
(6.22031 7.22863 -113.759)
(6.19534 5.66815 -112.538)
(5.94526 2.25021 -110.917)
(5.59969 -3.76366 -106.585)
(5.1766 9.32133 -119.024)
(5.28845 7.60515 -119.096)
(5.38214 7.00597 -118.862)
(5.50702 6.97279 -118.517)
(5.60079 7.17041 -118.143)
(5.70422 7.36169 -117.71)
(5.775 7.48887 -117.235)
(5.87447 7.56947 -116.698)
(6.00381 7.62434 -116.059)
(6.12009 7.56712 -115.267)
(6.32398 7.01964 -114.295)
(6.5794 5.57738 -113.005)
(6.79498 2.45713 -110.979)
(6.93249 -2.93924 -106.24)
(5.62075 9.04157 -119.572)
(5.57486 7.23952 -119.442)
(5.50039 6.64489 -119.134)
(5.51778 6.64541 -118.754)
(5.6391 6.89596 -118.406)
(5.75648 7.16761 -118.012)
(5.81845 7.34914 -117.568)
(5.82795 7.40143 -117.057)
(5.85634 7.4394 -116.438)
(5.97559 7.33816 -115.642)
(6.3131 6.63785 -114.653)
(6.84806 5.02052 -113.217)
(7.81696 1.87352 -110.958)
(8.64149 -3.12035 -105.96)
(6.64621 9.18068 -119.532)
(6.38332 7.16568 -119.473)
(5.97878 6.46534 -119.282)
(5.74329 6.41126 -118.969)
(5.74934 6.59898 -118.631)
(5.76737 6.93784 -118.32)
(5.79475 7.21254 -117.927)
(5.75482 7.35282 -117.43)
(5.74227 7.33874 -116.782)
(5.89008 7.07457 -115.897)
(6.41078 6.05301 -114.784)
(7.26243 4.03496 -113.035)
(9.16511 0.546763 -110.713)
(10.6546 -4.69203 -105.911)
(8.71814 9.85008 -119.103)
(7.90665 7.48927 -119.146)
(6.84221 6.72557 -119.366)
(6.23451 6.43959 -119.235)
(5.96126 6.50743 -118.972)
(5.85653 6.78679 -118.703)
(5.82174 7.03202 -118.344)
(5.87827 7.23223 -117.868)
(5.96912 7.22179 -117.156)
(6.21007 6.72104 -116.086)
(6.99809 5.28066 -114.637)
(8.31803 2.65769 -112.477)
(11.3446 -1.32591 -110.394)
(13.9496 -6.89908 -105.888)
(11.7983 11.716 -118.549)
(10.0803 9.02206 -118.867)
(8.16823 7.77741 -119.427)
(7.25055 6.86054 -119.374)
(6.7448 6.55907 -119.17)
(6.46507 6.6792 -118.976)
(6.37949 6.70456 -118.675)
(6.53631 6.8539 -118.264)
(6.84191 6.82796 -117.47)
(7.33202 6.16535 -116.105)
(8.33517 4.11953 -114.233)
(9.53225 0.324577 -111.521)
(12.9623 -5.19553 -109.132)
(16.6425 -12.0818 -106.071)
(15.4592 14.209 -118.999)
(13.0424 10.9711 -118.562)
(10.5175 9.08059 -118.906)
(9.29757 7.54565 -118.93)
(8.52582 6.86912 -118.954)
(8.12055 6.72944 -118.819)
(8.09945 6.58847 -118.686)
(8.42255 6.53543 -118.479)
(9.05824 6.36529 -117.814)
(10.1823 5.67384 -116.443)
(11.7706 3.61499 -114.138)
(13.7344 -0.931073 -110.974)
(18.1093 -7.51651 -108.051)
(21.9621 -16.2331 -107.675)
(-10.6348 22.4391 -111.682)
(-7.47678 17.8029 -112.409)
(-4.98551 15.1532 -113.393)
(-3.75663 13.8365 -114.011)
(-3.35429 12.9973 -113.671)
(-3.50649 12.5006 -112.659)
(-3.68539 11.8271 -110.792)
(-3.92628 10.6017 -108.066)
(-4.41878 8.59745 -104.831)
(-4.8951 5.3379 -101.725)
(-7.17137 1.22947 -99.0351)
(-10.0199 -4.92058 -97.6665)
(-16.5906 -10.9739 -96.5873)
(-22.475 -19.7982 -96.9132)
(-4.9282 17.7736 -111.612)
(-1.94385 15.9527 -113.861)
(0.380398 14.4168 -114.239)
(1.3739 13.3336 -114.669)
(1.74678 12.7448 -114.584)
(1.64456 12.5234 -114.112)
(1.41523 12.1828 -113.164)
(1.0232 11.4137 -111.621)
(0.277594 9.90746 -109.625)
(-0.711916 7.43852 -107.402)
(-2.82355 4.09795 -105.303)
(-5.1347 -0.716143 -103.819)
(-10.454 -5.28828 -101.968)
(-13.2844 -13.6473 -97.2662)
(-0.809499 14.2726 -112.792)
(1.06426 12.9548 -114.687)
(2.98369 12.4627 -114.679)
(3.96519 12.288 -114.704)
(4.32962 12.1996 -114.521)
(4.31709 12.1873 -114.225)
(4.12734 12.1438 -113.722)
(3.81645 11.7943 -112.87)
(3.17634 10.9298 -111.664)
(2.29215 9.5063 -109.963)
(0.589335 7.40285 -108.053)
(-1.45175 4.12003 -106.058)
(-5.24222 0.192517 -104.098)
(-6.68389 -8.07256 -101.204)
(2.68368 12.7083 -113.42)
(3.84675 11.8036 -114.772)
(4.83414 11.3709 -114.778)
(5.34225 11.5002 -114.727)
(5.52943 11.6426 -114.556)
(5.48294 11.7584 -114.343)
(5.2795 11.851 -113.991)
(5.05416 11.7762 -113.372)
(4.65305 11.2509 -112.551)
(4.11612 10.31 -111.39)
(2.98825 8.81446 -110.082)
(1.61854 6.34771 -108.491)
(-0.845592 2.64918 -106.919)
(-1.88653 -4.73106 -105.033)
(4.97734 11.5354 -114.002)
(5.58186 10.813 -114.863)
(5.95671 10.7235 -114.928)
(6.06206 10.8336 -114.789)
(6.00486 11.0446 -114.581)
(5.93233 11.2491 -114.198)
(5.71526 11.4375 -113.784)
(5.56419 11.5048 -113.296)
(5.23069 11.2444 -112.81)
(4.89304 10.6634 -112.043)
(4.32547 9.66317 -111.062)
(3.40154 7.8672 -109.959)
(1.75233 4.55241 -108.973)
(0.540094 -2.03205 -107.663)
(6.47428 11.052 -114.423)
(6.68766 10.3608 -114.886)
(6.59282 10.1827 -114.869)
(6.42195 10.2473 -114.703)
(6.18818 10.4881 -114.419)
(5.94815 10.7086 -113.991)
(5.72751 10.9195 -113.574)
(5.62067 11.0268 -113.133)
(5.44586 10.9488 -112.692)
(5.11486 10.6332 -112.226)
(4.70212 9.91372 -111.66)
(4.19918 8.46547 -110.951)
(2.97642 5.65794 -110.352)
(2.03553 -0.081824 -108.876)
(7.11938 10.3787 -114.484)
(7.06073 9.70413 -114.746)
(6.84142 9.56425 -114.626)
(6.55472 9.71681 -114.373)
(6.22136 9.99466 -114.041)
(5.91784 10.2088 -113.618)
(5.63448 10.379 -113.264)
(5.48598 10.4719 -112.898)
(5.37249 10.4896 -112.538)
(5.15502 10.37 -112.155)
(4.787 9.88132 -111.788)
(4.3531 8.7513 -111.331)
(3.64563 6.26099 -110.897)
(2.89446 1.25667 -109.317)
(7.07659 9.68777 -114.742)
(6.99848 8.98997 -114.742)
(6.86277 8.89346 -114.443)
(6.5735 9.10727 -114.134)
(6.29548 9.41732 -113.739)
(5.98197 9.63455 -113.33)
(5.65127 9.78958 -112.998)
(5.41257 9.86216 -112.658)
(5.23839 9.9396 -112.325)
(5.01672 9.95682 -112.013)
(4.75312 9.62086 -111.72)
(4.54802 8.69362 -111.317)
(3.96675 6.51093 -110.967)
(3.66103 2.13199 -109.039)
(6.81762 8.93724 -114.96)
(6.79031 8.1812 -114.718)
(6.75526 8.1151 -114.279)
(6.54907 8.40336 -113.87)
(6.34383 8.76308 -113.419)
(6.0664 9.03095 -113.008)
(5.71004 9.20906 -112.714)
(5.3782 9.27499 -112.434)
(5.09563 9.36669 -112.153)
(4.8224 9.41939 -111.891)
(4.60966 9.15405 -111.615)
(4.60226 8.34439 -111.269)
(4.38198 6.34719 -110.741)
(4.50321 2.51611 -108.515)
(6.91772 8.11492 -115.206)
(6.79221 7.31967 -114.837)
(6.74226 7.28313 -114.298)
(6.59062 7.6131 -113.801)
(6.44003 8.01034 -113.301)
(6.20248 8.35696 -112.873)
(5.84546 8.61911 -112.545)
(5.39669 8.73516 -112.291)
(4.97537 8.83705 -112.022)
(4.59377 8.84729 -111.762)
(4.42299 8.52259 -111.439)
(4.65169 7.69924 -111.026)
(4.97596 5.77536 -110.329)
(5.54071 2.30861 -107.97)
(7.59375 7.46144 -115.148)
(7.18838 6.56678 -114.8)
(6.85971 6.51164 -114.243)
(6.62956 6.82446 -113.691)
(6.49349 7.21866 -113.141)
(6.21457 7.64381 -112.725)
(5.85441 8.00785 -112.382)
(5.34396 8.23545 -112.156)
(4.82842 8.35311 -111.943)
(4.40657 8.24488 -111.707)
(4.29662 7.73896 -111.37)
(4.70661 6.61565 -110.862)
(5.79698 4.58325 -109.96)
(6.7339 1.07339 -107.51)
(8.92952 7.48683 -114.921)
(8.05729 6.26552 -114.786)
(7.18908 6.01642 -114.371)
(6.63531 6.09493 -113.807)
(6.36154 6.43304 -113.269)
(6.13422 6.88913 -112.837)
(5.80342 7.33612 -112.49)
(5.38523 7.67231 -112.181)
(4.8904 7.79845 -111.897)
(4.49087 7.55005 -111.578)
(4.61931 6.82158 -111.08)
(5.34031 5.25965 -110.379)
(7.32119 3.01358 -109.521)
(9.01624 -0.676515 -107.064)
(10.8859 8.64975 -114.636)
(9.31551 7.03766 -114.757)
(7.91648 6.12862 -114.545)
(7.12228 5.56657 -114.039)
(6.59202 5.59679 -113.444)
(6.21836 5.95454 -112.968)
(5.89189 6.41189 -112.6)
(5.57312 6.82602 -112.348)
(5.26788 6.98088 -112.001)
(4.99447 6.62377 -111.566)
(5.23318 5.54213 -110.858)
(5.90304 3.21973 -109.855)
(8.42486 -0.0606888 -108.825)
(11.3179 -4.56636 -106.984)
(13.2445 10.641 -114.914)
(11.263 8.06138 -114.791)
(9.42318 6.45209 -114.687)
(8.35953 5.41363 -114.304)
(7.60683 5.06143 -113.818)
(7.10949 5.13741 -113.375)
(6.8309 5.43257 -112.998)
(6.63303 5.77064 -112.714)
(6.60816 5.96947 -112.302)
(6.80413 5.81446 -111.595)
(7.35997 4.5848 -110.462)
(8.50917 1.74322 -108.643)
(11.7446 -2.58904 -107.087)
(15.3103 -8.45307 -107.463)
(0.776162 20.5486 -113.834)
(4.5833 17.7432 -113.956)
(6.52924 15.9769 -112.564)
(7.18422 15.0686 -111.244)
(6.9974 14.7004 -110.23)
(6.53651 14.7816 -109.435)
(6.01429 15.1212 -108.829)
(5.59054 14.9355 -107.963)
(5.01656 14.3828 -106.883)
(4.47842 12.9965 -105.49)
(3.04623 10.8609 -103.533)
(0.798825 7.24118 -101.512)
(-4.36473 3.18208 -99.705)
(-10.4875 -3.36631 -99.8613)
(4.67736 15.1709 -114.895)
(7.38587 14.9438 -113.164)
(9.12717 14.4248 -112.199)
(9.53705 14.114 -111.177)
(9.20113 14.0723 -110.312)
(8.63766 14.2517 -109.512)
(8.02732 14.6335 -108.868)
(7.51339 14.7675 -108.086)
(6.85749 14.5774 -107.302)
(6.266 13.5421 -106.425)
(4.80075 12.0051 -105.48)
(3.06861 9.34973 -104.292)
(-0.985676 6.87593 -103.159)
(-4.88379 2.6715 -99.1613)
(7.78194 12.4416 -114.809)
(8.94169 12.3282 -113.258)
(9.96021 12.6275 -112.097)
(10.1805 12.8732 -110.916)
(9.85407 13.2195 -109.934)
(9.25772 13.4955 -109.114)
(8.66217 13.8735 -108.459)
(8.12885 14.0855 -107.78)
(7.44282 14.1817 -107.183)
(6.59317 13.8316 -106.425)
(5.36351 13.1379 -105.485)
(3.80298 11.6361 -104.291)
(0.673964 10.4587 -103.124)
(-1.2302 7.06002 -99.7452)
(9.69679 11.05 -113.977)
(10.1253 10.9477 -112.656)
(10.2817 11.3809 -111.469)
(10.1245 11.8599 -110.426)
(9.73028 12.3648 -109.616)
(9.17479 12.6716 -108.88)
(8.61558 12.9924 -108.225)
(8.08649 13.2264 -107.573)
(7.48277 13.5146 -106.992)
(6.69217 13.6248 -106.3)
(5.5783 13.3729 -105.575)
(4.28682 12.699 -104.548)
(2.35596 11.7022 -103.406)
(1.22256 8.78284 -101.038)
(10.4409 10.0158 -112.887)
(10.5593 9.99547 -111.771)
(10.2464 10.4584 -110.847)
(9.91432 10.9889 -109.938)
(9.38173 11.5336 -109.244)
(8.89826 11.8355 -108.478)
(8.36338 12.1051 -107.829)
(7.86719 12.3147 -107.213)
(7.29923 12.6797 -106.747)
(6.67288 13.0179 -106.188)
(5.7983 13.0862 -105.55)
(4.75338 12.8566 -104.688)
(3.30671 12.0523 -103.73)
(2.39268 9.49839 -101.933)
(10.7355 9.0784 -112.095)
(10.69 9.10218 -111.157)
(10.2786 9.59615 -110.449)
(9.83384 10.1095 -109.611)
(9.23474 10.6217 -108.95)
(8.75425 10.905 -108.202)
(8.24451 11.1439 -107.562)
(7.73876 11.3176 -106.951)
(7.23612 11.6931 -106.458)
(6.69871 12.1384 -105.974)
(5.94308 12.4154 -105.463)
(5.04207 12.4319 -104.75)
(3.8366 11.7779 -103.937)
(2.72732 9.66944 -102.525)
(10.8453 8.02129 -111.727)
(10.7497 8.11611 -110.824)
(10.3815 8.69924 -110.064)
(9.86947 9.2398 -109.233)
(9.25624 9.72553 -108.584)
(8.74141 9.9698 -107.893)
(8.22516 10.1784 -107.299)
(7.70927 10.3146 -106.713)
(7.20698 10.6566 -106.189)
(6.7084 11.1288 -105.686)
(6.01997 11.5318 -105.222)
(5.2245 11.7225 -104.605)
(4.07428 11.2557 -103.978)
(2.86953 9.57957 -102.757)
(11.2787 7.04416 -111.935)
(11.0672 7.17658 -110.962)
(10.7321 7.82981 -110.064)
(10.1849 8.42893 -109.181)
(9.55621 8.89432 -108.437)
(8.95422 9.08754 -107.719)
(8.37119 9.26022 -107.093)
(7.77309 9.35781 -106.501)
(7.21119 9.64183 -105.934)
(6.65542 10.0947 -105.403)
(5.96812 10.5516 -104.928)
(5.18096 10.8698 -104.391)
(4.09625 10.6042 -103.834)
(2.8794 9.29453 -102.788)
(11.5512 5.90573 -112.031)
(11.254 6.13442 -110.986)
(10.9488 6.8657 -109.966)
(10.4256 7.56355 -109.025)
(9.84134 8.06682 -108.208)
(9.19189 8.24939 -107.493)
(8.56224 8.40532 -106.856)
(7.88223 8.47844 -106.274)
(7.22917 8.70365 -105.7)
(6.56448 9.11247 -105.146)
(5.81219 9.57867 -104.641)
(4.97896 9.98068 -104.184)
(3.94266 9.86812 -103.733)
(2.85969 8.8573 -102.785)
(12.1468 4.9503 -112.266)
(11.6528 5.22112 -111.181)
(11.3021 5.96186 -110.07)
(10.7284 6.70856 -109.081)
(10.1773 7.24912 -108.146)
(9.47902 7.45271 -107.352)
(8.77109 7.60475 -106.654)
(7.98579 7.68032 -106.033)
(7.18477 7.87055 -105.453)
(6.36969 8.23006 -104.872)
(5.53223 8.67536 -104.303)
(4.68757 9.09599 -103.865)
(3.75727 9.00402 -103.544)
(3.00436 8.16623 -102.725)
(12.5727 3.9734 -112.113)
(11.8383 4.32782 -111.054)
(11.3904 5.00523 -109.847)
(10.8869 5.77895 -108.798)
(10.3669 6.38602 -107.848)
(9.67265 6.66946 -107.032)
(8.90093 6.8549 -106.343)
(8.02545 6.95638 -105.747)
(7.05671 7.13886 -105.224)
(6.08695 7.42746 -104.691)
(5.19352 7.77951 -104.168)
(4.4115 8.12162 -103.8)
(3.70208 7.91783 -103.413)
(3.33945 7.05419 -102.672)
(13.1793 3.42233 -112.245)
(12.1265 3.70165 -111.05)
(11.4478 4.13344 -109.72)
(10.8682 4.81363 -108.58)
(10.3094 5.47166 -107.586)
(9.57912 5.85293 -106.715)
(8.75063 6.13388 -105.977)
(7.7909 6.31352 -105.382)
(6.74376 6.52875 -104.853)
(5.70728 6.70059 -104.335)
(4.86678 6.80508 -103.841)
(4.32146 6.84006 -103.531)
(4.19313 6.53833 -103.178)
(4.25674 5.45182 -102.683)
(13.8752 3.70188 -112.34)
(12.3602 3.31505 -111.235)
(11.4124 3.28294 -109.671)
(10.5874 3.80168 -108.328)
(10.0116 4.4897 -107.202)
(9.26208 4.98262 -106.308)
(8.43869 5.38046 -105.547)
(7.44306 5.65767 -104.994)
(6.38161 5.88541 -104.536)
(5.33584 5.8965 -104.153)
(4.54538 5.65359 -103.713)
(4.2672 5.16749 -103.315)
(4.90763 4.55456 -103.088)
(5.42131 2.80975 -102.84)
(14.5769 4.65668 -112.479)
(12.4713 3.4703 -112.118)
(11.4541 2.78767 -110.388)
(10.4192 2.97617 -108.788)
(9.69616 3.55471 -107.449)
(8.85486 4.09801 -106.469)
(8.03151 4.55675 -105.628)
(7.07649 4.88139 -105.005)
(6.07876 5.1029 -104.561)
(5.0908 4.9559 -104.241)
(4.38911 4.33509 -103.711)
(4.29773 3.26457 -103.129)
(5.80771 1.99341 -102.973)
(7.76229 -0.366257 -103.286)
(-33.1657 -35.7348 -81.4083)
(-36.0412 -44.4618 -76.4603)
(-39.9146 -49.9684 -69.9204)
(-42.7041 -53.7841 -66.8641)
(-44.9391 -53.359 -65.4895)
(-44.6489 -53.7427 -65.3186)
(-24.4138 -32.9449 -81.7493)
(-30.3938 -42.759 -75.7996)
(-33.9918 -49.5944 -67.9867)
(-36.073 -54.9025 -64.8752)
(-38.146 -55.8446 -63.3572)
(-37.7335 -56.4466 -63.4109)
(-15.8743 -31.1995 -88.2628)
(-22.1675 -43.5245 -79.3565)
(-27.249 -52.0169 -69.6618)
(-29.4235 -58.0182 -64.918)
(-31.3291 -58.8139 -62.5603)
(-30.7515 -59.2109 -62.3635)
(-8.60553 -26.9252 -92.6861)
(-13.9094 -40.5418 -81.3162)
(-19.6204 -50.811 -69.2889)
(-22.2081 -58.1922 -62.5907)
(-24.3793 -60.0256 -59.9541)
(-23.8467 -60.8213 -60.0093)
(-4.09999 -23.221 -96.2786)
(-7.7093 -37.7319 -83.0959)
(-12.8512 -49.5331 -69.1461)
(-15.0685 -58.5703 -61.2043)
(-17.4283 -61.4238 -58.1841)
(-16.6423 -62.484 -58.3033)
(-0.738387 -19.4402 -97.1013)
(-3.41724 -33.9559 -82.6259)
(-7.5997 -46.8082 -67.8451)
(-8.59452 -57.3203 -59.6511)
(-10.5793 -61.6551 -56.5121)
(-9.43052 -63.2006 -56.8388)
(1.87023 -16.4036 -97.3135)
(0.484402 -30.9334 -82.4618)
(-2.17912 -45.1365 -68.0724)
(-1.7884 -57.1207 -61.1375)
(-3.26508 -62.151 -58.5467)
(-1.66883 -63.3701 -59.2329)
(4.08624 -14.0312 -96.7605)
(4.08983 -28.349 -82.4358)
(3.07005 -43.503 -69.8961)
(4.57899 -55.9177 -64.8724)
(3.52769 -61.2951 -62.9683)
(5.34026 -62.3244 -63.8925)
(6.65727 -12.4745 -96.7835)
(8.24743 -26.6115 -84.5448)
(8.30519 -42.5631 -74.3866)
(10.7573 -55.3205 -70.2533)
(10.129 -60.7963 -67.9777)
(11.9354 -61.427 -68.4708)
(9.91914 -12.265 -97.6973)
(13.2554 -25.5579 -88.0914)
(14.3339 -40.6957 -79.6354)
(17.5047 -53.0327 -75.8806)
(16.8695 -58.9928 -72.7769)
(18.7197 -60.2054 -72.648)
(13.7022 -13.3689 -99.5765)
(18.3971 -24.8561 -92.5193)
(20.1432 -38.6801 -85.6072)
(24.3166 -50.3461 -82.0308)
(23.7922 -56.8196 -78.4087)
(25.9098 -57.7689 -76.608)
(18.4656 -15.3414 -101.066)
(23.7488 -25.0964 -95.8568)
(25.7435 -36.7578 -90.601)
(29.7492 -46.6449 -88.3743)
(29.0383 -53.4528 -86.4375)
(35.2752 -54.7218 -78.437)
(22.8373 -17.1864 -102.786)
(26.838 -24.301 -99.2044)
(29.207 -33.3409 -94.6691)
(34.1626 -41.6529 -92.8702)
(35.4054 -49.1725 -91.8135)
(42.6252 -51.521 -81.5235)
(26.8014 -19.5705 -102.34)
(30.5481 -26.1148 -100.049)
(34.8001 -33.145 -95.5942)
(40.4091 -38.6155 -94.208)
(42.1287 -44.317 -93.5032)
(47.5034 -46.8961 -84.8584)
(-27.1131 -26.44 -87.9174)
(-29.5378 -37.0681 -79.623)
(-34.7758 -46.1343 -69.1892)
(-39.2106 -53.7031 -62.6764)
(-43.9245 -54.0144 -58.8238)
(-44.9149 -55.1278 -57.6049)
(-19.3268 -22.7661 -89.3024)
(-24.1536 -34.5261 -80.9487)
(-28.9171 -44.7882 -70.0881)
(-31.8318 -53.4995 -62.6103)
(-36.5358 -55.6661 -58.1541)
(-37.4636 -57.5388 -57.0519)
(-12.3366 -20.4287 -95.9273)
(-17.1364 -34.6024 -86.4406)
(-22.774 -46.6291 -73.8432)
(-24.9223 -56.179 -64.1467)
(-29.489 -58.1852 -58.6428)
(-29.6237 -59.9366 -57.1103)
(-6.60738 -16.3518 -100.11)
(-10.1407 -31.3097 -90.0597)
(-15.6157 -44.6732 -76.172)
(-17.2603 -55.0424 -64.0222)
(-21.9674 -58.5366 -57.2076)
(-22.2506 -60.5797 -55.5547)
(-3.25335 -13.2804 -103.143)
(-5.2458 -28.5339 -92.7649)
(-9.61132 -42.5662 -77.8959)
(-10.1849 -53.7302 -64.5133)
(-14.5192 -58.4403 -56.4596)
(-14.6459 -60.9988 -54.2393)
(-0.865591 -10.3866 -103.877)
(-2.01394 -24.8145 -93.0816)
(-5.17579 -38.7552 -77.9561)
(-4.41563 -50.2865 -64.08)
(-7.56921 -56.7362 -55.4371)
(-7.51633 -60.1475 -53.1364)
(0.880373 -8.10407 -103.975)
(0.832211 -21.5723 -92.9485)
(-0.993665 -35.5863 -77.8375)
(1.30739 -47.9773 -64.5299)
(-1.00554 -55.287 -56.4556)
(-0.238821 -58.8052 -54.8416)
(2.29072 -6.26845 -103.399)
(3.33074 -18.5728 -92.4548)
(2.76534 -32.514 -78.0483)
(6.25411 -45.6066 -66.2103)
(4.74329 -53.6387 -59.4962)
(6.00317 -56.4978 -58.5605)
(4.06226 -4.92609 -103.01)
(6.09956 -15.9678 -92.9332)
(6.81471 -29.9231 -79.9601)
(10.8834 -43.6494 -69.5534)
(10.0202 -52.3318 -63.3107)
(11.7681 -54.9247 -61.9799)
(6.39916 -4.33919 -102.967)
(9.58392 -14.202 -94.3658)
(11.3723 -27.746 -83.24)
(15.9447 -41.4457 -73.7234)
(15.6239 -50.8392 -67.1013)
(17.6706 -53.7023 -64.8511)
(9.27388 -5.00077 -103.501)
(13.542 -13.3263 -96.4549)
(16.0969 -25.5466 -86.9564)
(21.3648 -38.7303 -78.6033)
(21.342 -48.9988 -71.7407)
(23.9411 -52.2657 -67.7058)
(12.7722 -6.5185 -104.039)
(17.7572 -13.4906 -98.0226)
(20.688 -24.2149 -90.1097)
(26.0755 -35.4864 -83.7278)
(25.1961 -46.0454 -79.0884)
(32.0714 -51.0586 -68.9322)
(16.3893 -8.51006 -103.998)
(20.855 -13.8959 -99.093)
(23.3377 -22.2679 -92.5072)
(29.1309 -31.4674 -87.2459)
(31.1777 -42.62 -83.9347)
(39.3946 -48.3799 -71.5316)
(19.3358 -11.1593 -103.132)
(22.9065 -16.2739 -98.7122)
(27.0426 -23.3344 -92.5331)
(34.1699 -30.0495 -88.5225)
(37.7532 -39.0804 -86.0956)
(45.2032 -44.4277 -74.0295)
(-16.4778 -7.25066 -92.8716)
(-19.4564 -16.1861 -84.0434)
(-25.5076 -29.7215 -74.115)
(-32.3777 -42.4018 -63.4465)
(-39.3976 -48.1644 -55.4407)
(-41.3264 -50.1592 -51.5991)
(-11.0537 -2.4526 -92.8283)
(-15.5403 -12.4653 -84.7599)
(-21.1275 -26.4406 -75.0639)
(-26.0818 -40.1163 -64.8357)
(-32.2648 -47.7316 -56.2322)
(-34.0383 -51.5753 -52.1278)
(-5.71292 -0.460338 -95.8785)
(-10.2745 -11.6748 -88.7933)
(-16.1677 -26.6082 -79.5657)
(-20.2226 -41.601 -68.499)
(-26.0682 -49.4353 -58.1011)
(-26.3094 -53.9772 -53.2233)
(-2.14632 2.18167 -97.7721)
(-5.32618 -9.14513 -91.7697)
(-10.6458 -24.1123 -83.021)
(-13.4039 -39.3248 -70.766)
(-19.1431 -48.6545 -58.964)
(-19.0212 -53.796 -52.8247)
(-0.341634 3.5517 -99.3773)
(-2.34534 -7.47577 -94.1689)
(-6.60427 -21.956 -85.8027)
(-7.90247 -36.7555 -74.1947)
(-13.224 -46.3736 -62.0588)
(-11.0388 -54.7601 -50.3903)
(0.600354 4.46641 -100.165)
(-0.97748 -5.59825 -95.4972)
(-3.91264 -19.1112 -87.1379)
(-3.82058 -33.1214 -75.2567)
(-6.52857 -43.9441 -62.6728)
(-3.7253 -52.92 -50.1071)
(1.04837 5.016 -100.65)
(-0.0260312 -4.06625 -96.1323)
(-1.57198 -16.7568 -87.1281)
(-0.37442 -30.4729 -74.1613)
(-0.93 -41.8758 -61.8839)
(1.44836 -49.4493 -53.8106)
(1.47936 5.32572 -100.822)
(0.843687 -2.89979 -96.4878)
(0.200287 -14.6189 -87.4287)
(2.61812 -28.0881 -74.8546)
(3.19393 -39.7657 -63.4267)
(6.06329 -46.2717 -57.0528)
(2.01128 5.40531 -100.965)
(1.63553 -1.79699 -96.6672)
(1.87046 -12.6121 -88.0124)
(5.27056 -25.6921 -76.58)
(6.58653 -37.8582 -66.3797)
(10.3753 -44.7379 -59.5197)
(2.88319 5.12509 -101.186)
(3.07586 -1.17672 -97.197)
(4.16001 -11.1621 -89.432)
(8.19176 -23.5533 -79.3246)
(10.2533 -35.8058 -69.8943)
(15.16 -43.78 -61.1713)
(4.16893 4.26281 -101.704)
(5.10644 -1.16739 -98.3567)
(6.94159 -10.0842 -91.7223)
(11.3489 -21.5258 -82.7397)
(14.2851 -33.8919 -73.735)
(19.9341 -42.8647 -63.2727)
(5.98925 2.66844 -102.301)
(8.01698 -1.72173 -99.4317)
(10.3506 -9.61728 -93.8709)
(15.1418 -19.7407 -85.8095)
(18.3448 -31.9633 -77.6999)
(24.7279 -41.4903 -66.2202)
(7.8568 0.389652 -103.071)
(10.5939 -2.90796 -100.667)
(12.451 -9.35171 -95.9926)
(17.3131 -17.6047 -89.2526)
(21.4231 -29.6728 -82.9089)
(29.964 -39.4063 -67.4557)
(10.052 -2.67539 -102.846)
(11.7764 -6.07231 -100.716)
(14.7397 -11.1209 -96.3447)
(20.4684 -18.0178 -91.6581)
(26.274 -28.5059 -86.3661)
(35.4026 -37.377 -67.9547)
(25.8167 -20.5065 -103.519)
(32.5066 -24.624 -102.549)
(39.0854 -29.2306 -97.8052)
(45.133 -33.4734 -95.6333)
(46.2232 -37.784 -92.1409)
(47.9198 -39.7086 -90.4488)
(22.8959 -12.8887 -103.924)
(30.2612 -18.8772 -102.88)
(37.8187 -23.3688 -97.742)
(44.6605 -26.5427 -95.9836)
(46.3349 -30.5526 -93.6884)
(48.4116 -31.54 -93.8521)
(21.2171 -5.44611 -108.739)
(30.4244 -11.2488 -107.061)
(38.6688 -17.1957 -101.409)
(46.4295 -20.4062 -98.5488)
(47.942 -24.4459 -95.5527)
(49.8636 -24.5286 -95.1895)
(18.108 0.207159 -112.302)
(27.4159 -4.03405 -109.634)
(36.1014 -10.2653 -103.627)
(44.8147 -13.4897 -99.172)
(47.7601 -18.3923 -94.9577)
(50.5864 -18.2112 -93.2922)
(15.8884 3.0688 -115.249)
(25.0019 0.509492 -112.181)
(33.9775 -4.84447 -105.903)
(43.2819 -7.17969 -100.608)
(46.7074 -12.7055 -95.6785)
(51.9217 -11.5306 -91.6285)
(13.9968 4.5835 -116.446)
(22.3879 3.07584 -112.923)
(31.0144 -1.16923 -106.488)
(40.0781 -2.43623 -101.184)
(44.6165 -7.6474 -96.1485)
(52.4662 -4.63568 -89.0808)
(12.8343 5.3601 -116.927)
(20.5131 4.74356 -113.15)
(28.801 1.54328 -106.704)
(37.8983 1.67123 -101.417)
(43.6739 -2.4916 -95.9443)
(51.6983 2.70434 -88.71)
(12.1325 5.88573 -116.961)
(19.0555 5.83354 -112.885)
(26.8995 3.56855 -106.602)
(35.6558 4.83844 -101.735)
(42.6133 1.85636 -96.7216)
(50.3515 8.92646 -88.9166)
(11.8136 6.46521 -117.032)
(17.8849 6.98881 -113.106)
(25.3791 5.67328 -107.499)
(33.8883 7.91358 -103.135)
(41.8478 6.00564 -98.0824)
(49.6178 13.5941 -90.3942)
(12.1231 7.35273 -117.36)
(17.4454 8.73581 -113.913)
(24.6129 8.28299 -109.261)
(32.7234 11.4031 -105.326)
(41.38 10.3519 -100.122)
(48.817 19.9427 -91.1399)
(12.9671 8.72597 -117.891)
(17.3537 10.9766 -115.131)
(23.8512 11.2284 -111.577)
(31.2396 14.8537 -108.179)
(40.5284 14.7428 -103.201)
(47.4983 26.685 -91.4958)
(14.1764 10.905 -118.068)
(17.5399 13.8859 -115.943)
(23.2523 14.8838 -113.262)
(30.0276 18.9659 -110.443)
(40.0126 20.1294 -106.036)
(46.6346 33.2329 -91.0205)
(15.5411 13.6804 -117.567)
(17.9321 16.8911 -116.372)
(22.4772 18.4203 -113.936)
(28.0996 22.9334 -111.573)
(38.0067 25.6826 -107.712)
(44.7436 39.0114 -90.6381)
(17.4215 16.2796 -116.616)
(20.046 19.2755 -115.828)
(24.3971 21.7181 -112.655)
(28.6191 27.968 -110.698)
(37.6101 32.0428 -106.054)
(42.7151 45.5523 -89.0587)
(17.5208 -12.4943 -103.206)
(23.3002 -15.9792 -99.6408)
(29.9584 -20.7846 -93.6774)
(38.0076 -25.8472 -90.0613)
(41.8547 -32.7042 -85.7971)
(47.8561 -37.3605 -78.5346)
(14.5689 -7.00756 -103.515)
(20.5182 -11.723 -100.631)
(27.8022 -16.1908 -94.6593)
(37.0211 -20.2306 -90.9795)
(42.2672 -26.7223 -86.4213)
(46.5575 -28.8653 -83.3534)
(13.4015 -1.67357 -106.728)
(20.2388 -6.17205 -104.409)
(28.0117 -11.3731 -98.8754)
(38.0267 -14.6473 -94.7793)
(42.9879 -21.8516 -89.425)
(50.1903 -22.2098 -83.9686)
(11.4856 1.953 -109.17)
(18.2114 -1.33728 -107.092)
(26.0654 -6.29883 -102.254)
(35.7276 -9.0635 -97.6353)
(41.4896 -16.6156 -91.9044)
(52.3966 -16.1054 -82.2185)
(10.4673 3.64663 -110.862)
(16.9186 1.56039 -108.876)
(24.4476 -2.58514 -104.601)
(33.6346 -4.46568 -99.9481)
(40.3789 -11.1236 -93.9584)
(53.0333 -8.51765 -81.7384)
(9.79039 4.22414 -111.608)
(15.5758 2.784 -109.659)
(22.3917 -0.303136 -105.696)
(30.7657 -1.16314 -101.013)
(39.0124 -6.10179 -95.0733)
(52.3036 -2.0336 -80.6687)
(9.50741 4.36546 -111.977)
(14.7467 3.39732 -110.019)
(20.9124 1.2666 -106.177)
(28.7652 1.59423 -101.653)
(37.8625 -1.77971 -95.6477)
(50.8783 4.26227 -80.938)
(9.45562 4.2666 -112.321)
(14.0852 3.52567 -110.309)
(19.6103 2.31991 -106.386)
(26.9727 3.64718 -102.016)
(36.7862 2.01369 -96.7784)
(49.0273 9.59783 -80.6186)
(9.55152 4.40033 -112.781)
(13.6034 4.10029 -110.552)
(18.8135 3.71142 -106.66)
(25.7844 5.85312 -102.21)
(36.192 5.69769 -97.239)
(48.2607 14.2616 -81.1838)
(9.99253 4.8355 -113.36)
(13.5476 5.18679 -111.26)
(18.5224 5.46503 -107.93)
(25.1998 8.42601 -103.62)
(35.961 9.63732 -98.6567)
(47.576 19.6276 -80.869)
(10.7173 5.81307 -114.089)
(13.6486 7.02596 -112.216)
(18.5543 7.99381 -109.518)
(24.9253 11.655 -105.293)
(35.8613 14.1676 -100.273)
(46.5719 25.3872 -80.3775)
(11.8323 7.5498 -114.486)
(13.9779 9.76958 -112.86)
(18.7384 11.416 -110.588)
(25.0929 15.7017 -106.345)
(36.3302 19.5744 -101.688)
(46.0241 31.1137 -79.5584)
(13.09 9.95259 -114.248)
(14.4439 12.8992 -113.188)
(18.6524 15.0448 -110.96)
(24.4251 19.9532 -106.94)
(35.1372 25.125 -102.545)
(44.0968 36.6333 -79.0922)
(15.0773 12.2188 -113.484)
(17.0695 15.2221 -112.644)
(21.3045 18.1828 -109.543)
(26.5164 24.5805 -105.543)
(36.1594 31.4643 -101.352)
(42.5789 43.1196 -77.7006)
(8.68566 -4.1708 -102.662)
(11.0045 -6.9162 -100.407)
(15.222 -10.9647 -96.7622)
(22.7008 -15.9056 -92.7155)
(29.7035 -25.1296 -87.5362)
(40.6382 -31.749 -69.0713)
(6.86565 -1.59519 -102.304)
(8.81095 -5.19982 -100.552)
(13.4118 -8.55491 -97.1765)
(21.2108 -12.5881 -93.9849)
(29.4065 -20.6667 -89.2332)
(42.3135 -24.3865 -71.7903)
(6.26413 1.08051 -102.934)
(8.58946 -2.43043 -102.164)
(13.6224 -5.92648 -99.7073)
(22.2077 -9.64829 -97.1469)
(31.5085 -17.4482 -92.5749)
(45.0525 -18.6538 -73.29)
(5.73836 2.7173 -103.729)
(8.3491 0.125293 -103.471)
(13.5685 -2.95756 -101.825)
(22.1024 -6.06057 -99.2599)
(32.1663 -12.946 -94.8086)
(45.4956 -13.5499 -74.5439)
(5.83243 3.48371 -104.427)
(8.46553 1.66193 -104.38)
(13.7128 -0.853446 -103.367)
(22.1419 -3.23767 -100.951)
(33.0189 -8.69952 -96.6641)
(45.6505 -9.41013 -75.5335)
(6.4122 3.7708 -104.795)
(8.78364 2.35757 -105.014)
(13.7997 0.54731 -104.276)
(21.808 -0.947348 -101.836)
(32.9082 -4.47545 -97.996)
(44.8254 -5.90277 -76.2973)
(7.1569 3.63017 -105.177)
(9.27563 2.47098 -105.602)
(14.0982 1.40465 -105.095)
(21.6611 0.713186 -102.576)
(32.7567 -0.890501 -99.0575)
(44.4998 -2.62413 -77.1175)
(7.98422 3.35297 -105.752)
(9.79278 2.3624 -106.332)
(14.371 2.12707 -105.865)
(21.4983 1.95827 -103.223)
(32.4772 2.22654 -100.046)
(43.9048 0.573341 -77.6457)
(8.86042 2.98061 -106.652)
(10.3799 2.34104 -107.393)
(14.5543 2.83215 -106.909)
(21.4883 2.87453 -104.109)
(32.2662 5.53616 -100.782)
(44.2148 2.88015 -78.4077)
(9.93069 2.54736 -107.785)
(11.2113 2.3168 -108.787)
(14.9889 3.2248 -108.444)
(21.5689 3.97551 -105.637)
(31.9014 9.04017 -101.979)