/*--------------------------------*- C++ -*----------------------------------*\
| =========                 |                                                 |
| \\      /  F ield         | OpenFOAM: The Open Source CFD Toolbox           |
|  \\    /   O peration     | Version:  v2106                                 |
|   \\  /    A nd           | Website:  www.openfoam.com                      |
|    \\/     M anipulation  |                                                 |
\*---------------------------------------------------------------------------*/
FoamFile
{
    version     2.0;
    format      ascii;
    arch        "LSB;label=32;scalar=64";
    class       volScalarField;
    location    "0.000155";
    object      alphat;
}
// * * * * * * * * * * * * * * * * * * * * * * * * * * * * * * * * * * * * * //

dimensions      [1 -1 -1 0 0 0 0];

internalField   nonuniform List<scalar> 
144746
(
8.83881e-05
7.3833e-05
5.85379e-05
4.22863e-05
2.8434e-05
1.96405e-05
1.71876e-05
2.02602e-05
2.85463e-05
4.14709e-05
5.76023e-05
7.303e-05
8.28785e-05
8.76421e-05
9.30862e-05
7.71308e-05
5.83236e-05
3.77208e-05
2.14842e-05
1.21603e-05
8.69239e-06
9.74084e-06
1.51651e-05
2.46924e-05
3.72719e-05
5.05148e-05
6.06272e-05
6.68812e-05
9.68301e-05
7.58618e-05
5.16e-05
2.81682e-05
1.31499e-05
6.01723e-06
3.46871e-06
3.81097e-06
7.07006e-06
1.36401e-05
2.30029e-05
3.32756e-05
4.207e-05
4.86845e-05
9.36509e-05
6.50113e-05
3.72883e-05
1.60378e-05
5.93134e-06
2.1683e-06
9.9459e-07
1.18068e-06
2.82973e-06
6.65123e-06
1.288e-05
2.0353e-05
2.74344e-05
3.38514e-05
8.1884e-05
4.85236e-05
2.23502e-05
7.59092e-06
2.8159e-06
9.89103e-07
3.69048e-07
4.21516e-07
1.1593e-06
3.10535e-06
6.81894e-06
1.21732e-05
1.85159e-05
2.57874e-05
6.6118e-05
3.38117e-05
1.37969e-05
6.13176e-06
3.01526e-06
1.18868e-06
4.79751e-07
4.2603e-07
8.18804e-07
1.93417e-06
4.32876e-06
8.57306e-06
1.50579e-05
2.3955e-05
5.25973e-05
2.60678e-05
1.3416e-05
8.485e-06
4.69193e-06
2.14197e-06
1.09823e-06
1.03202e-06
1.52354e-06
2.7653e-06
5.32039e-06
1.00422e-05
1.76994e-05
2.86345e-05
4.45655e-05
2.59194e-05
1.86468e-05
1.33665e-05
8.32366e-06
4.40418e-06
2.62158e-06
2.60068e-06
3.63061e-06
5.814e-06
9.71991e-06
1.62071e-05
2.58436e-05
3.9065e-05
4.28682e-05
3.13627e-05
2.72561e-05
2.14501e-05
1.50162e-05
8.99005e-06
5.68427e-06
5.55114e-06
7.52807e-06
1.12676e-05
1.71337e-05
2.58115e-05
3.76748e-05
5.32914e-05
4.58507e-05
4.0746e-05
3.93817e-05
3.39346e-05
2.64255e-05
1.77581e-05
1.14726e-05
1.01104e-05
1.27914e-05
1.80526e-05
2.5704e-05
3.63655e-05
5.0465e-05
6.84139e-05
5.11764e-05
5.05948e-05
5.33729e-05
5.13822e-05
4.41323e-05
3.33406e-05
2.26553e-05
1.74719e-05
1.89622e-05
2.46736e-05
3.33492e-05
4.55519e-05
6.12464e-05
7.9744e-05
5.91883e-05
6.1493e-05
6.79213e-05
7.13166e-05
6.67603e-05
5.61287e-05
4.24408e-05
3.18459e-05
2.84323e-05
3.16361e-05
3.92843e-05
5.13979e-05
6.68877e-05
8.5379e-05
6.92467e-05
7.2046e-05
8.04433e-05
8.86804e-05
9.01993e-05
8.25544e-05
6.86766e-05
5.42612e-05
4.45921e-05
4.20528e-05
4.57549e-05
5.56179e-05
6.94601e-05
8.74842e-05
8.23911e-05
8.47838e-05
9.25725e-05
0.000101853
0.000108488
0.000105746
9.46744e-05
7.974e-05
6.61558e-05
5.79303e-05
5.64326e-05
6.23842e-05
7.38431e-05
9.0714e-05
7.27016e-05
6.03575e-05
4.83796e-05
3.59205e-05
2.63617e-05
2.18312e-05
2.35705e-05
3.04441e-05
4.09748e-05
5.34422e-05
6.61678e-05
7.57136e-05
7.89185e-05
7.80154e-05
7.85525e-05
6.35649e-05
4.7639e-05
3.11625e-05
1.85627e-05
1.17927e-05
1.0611e-05
1.41569e-05
2.17284e-05
3.19771e-05
4.31563e-05
5.27285e-05
5.7605e-05
5.93002e-05
8.39811e-05
6.38743e-05
4.29e-05
2.34753e-05
1.11597e-05
5.34522e-06
3.78551e-06
5.35803e-06
1.00788e-05
1.77662e-05
2.69937e-05
3.54485e-05
4.10598e-05
4.49006e-05
8.39885e-05
5.68587e-05
3.21788e-05
1.37601e-05
5.00617e-06
1.78676e-06
9.94449e-07
1.66663e-06
4.07422e-06
8.76683e-06
1.54318e-05
2.2302e-05
2.81482e-05
3.40757e-05
7.76994e-05
4.51877e-05
2.02996e-05
6.82686e-06
2.32627e-06
7.56759e-07
3.30701e-07
5.79881e-07
1.66124e-06
4.13189e-06
8.34073e-06
1.39505e-05
2.07915e-05
2.98553e-05
6.77246e-05
3.38355e-05
1.29861e-05
5.34866e-06
2.40653e-06
8.93621e-07
3.90467e-07
4.63477e-07
1.04862e-06
2.53115e-06
5.55586e-06
1.08988e-05
1.94937e-05
3.21173e-05
5.81379e-05
2.70222e-05
1.24349e-05
7.23159e-06
3.77803e-06
1.69842e-06
9.54779e-07
1.04479e-06
1.75997e-06
3.49501e-06
7.09267e-06
1.38076e-05
2.49217e-05
4.09076e-05
5.17681e-05
2.642e-05
1.6948e-05
1.14279e-05
6.92261e-06
3.72853e-06
2.44469e-06
2.69733e-06
4.08845e-06
7.0205e-06
1.24095e-05
2.14374e-05
3.49924e-05
5.35129e-05
4.95789e-05
3.09394e-05
2.45591e-05
1.85523e-05
1.28746e-05
7.9885e-06
5.54015e-06
5.88548e-06
8.374e-06
1.30111e-05
2.04012e-05
3.13312e-05
4.631e-05
6.62078e-05
5.14656e-05
3.92933e-05
3.5223e-05
2.958e-05
2.31696e-05
1.6295e-05
1.14499e-05
1.08039e-05
1.39773e-05
1.99421e-05
2.85482e-05
4.03785e-05
5.58862e-05
7.6326e-05
5.49032e-05
4.76836e-05
4.73791e-05
4.49355e-05
3.92359e-05
3.12689e-05
2.29826e-05
1.88331e-05
2.0511e-05
2.64115e-05
3.5087e-05
4.70389e-05
6.23482e-05
8.12359e-05
6.00568e-05
5.66074e-05
5.99185e-05
6.27422e-05
6.02801e-05
5.36736e-05
4.3809e-05
3.49701e-05
3.15043e-05
3.41062e-05
4.05538e-05
5.0922e-05
6.40761e-05
8.09601e-05
6.58501e-05
6.42184e-05
7.01495e-05
7.79986e-05
8.19865e-05
7.93128e-05
7.1389e-05
6.07268e-05
5.15063e-05
4.75252e-05
4.86998e-05
5.51427e-05
6.47245e-05
7.94548e-05
7.4112e-05
7.36255e-05
8.00898e-05
9.00539e-05
9.98958e-05
0.000103064
9.90298e-05
8.99309e-05
7.85093e-05
6.86666e-05
6.34217e-05
6.43208e-05
6.97556e-05
8.13843e-05
5.99131e-05
4.91656e-05
4.04726e-05
3.20769e-05
2.75051e-05
2.81749e-05
3.43341e-05
4.29173e-05
5.07967e-05
5.63701e-05
6.0617e-05
6.31575e-05
6.31657e-05
6.13408e-05
6.18835e-05
4.79943e-05
3.56586e-05
2.41637e-05
1.61072e-05
1.27413e-05
1.44764e-05
1.99468e-05
2.7244e-05
3.44003e-05
4.08479e-05
4.55588e-05
4.73785e-05
4.82892e-05
6.32653e-05
4.61221e-05
3.03133e-05
1.70721e-05
8.6694e-06
4.81838e-06
4.58139e-06
7.1646e-06
1.21802e-05
1.88504e-05
2.60377e-05
3.21137e-05
3.60391e-05
3.99711e-05
6.21514e-05
4.09535e-05
2.26421e-05
9.78649e-06
3.60727e-06
1.35257e-06
1.02945e-06
2.04461e-06
4.65397e-06
9.11373e-06
1.516e-05
2.10756e-05
2.66563e-05
3.41034e-05
6.01763e-05
3.47434e-05
1.52053e-05
5.19944e-06
1.66353e-06
5.02368e-07
2.67137e-07
6.11895e-07
1.75312e-06
4.19116e-06
8.21265e-06
1.3824e-05
2.17537e-05
3.40204e-05
5.82551e-05
2.91925e-05
1.08047e-05
4.22915e-06
1.66987e-06
5.57427e-07
2.52343e-07
3.79301e-07
9.78155e-07
2.49067e-06
5.71716e-06
1.19336e-05
2.30276e-05
4.03263e-05
5.68465e-05
2.59328e-05
1.07927e-05
5.55441e-06
2.59101e-06
1.08892e-06
6.38828e-07
7.90668e-07
1.51676e-06
3.36949e-06
7.51621e-06
1.58553e-05
3.03828e-05
5.13051e-05
5.73457e-05
2.63034e-05
1.44412e-05
8.69677e-06
4.85744e-06
2.54469e-06
1.77504e-06
2.13242e-06
3.49696e-06
6.54421e-06
1.25774e-05
2.32944e-05
3.9816e-05
6.17557e-05
5.70194e-05
3.06486e-05
2.05464e-05
1.41417e-05
9.31673e-06
5.77508e-06
4.29989e-06
4.91107e-06
7.29959e-06
1.19103e-05
1.96348e-05
3.13935e-05
4.75716e-05
6.7922e-05
5.76906e-05
3.79292e-05
2.90352e-05
2.25021e-05
1.70879e-05
1.22267e-05
9.29081e-06
9.45539e-06
1.25245e-05
1.82119e-05
2.65281e-05
3.77989e-05
5.21387e-05
6.94779e-05
5.93416e-05
4.47612e-05
3.90982e-05
3.40266e-05
2.91134e-05
2.39269e-05
1.91088e-05
1.70995e-05
1.90788e-05
2.45568e-05
3.22312e-05
4.21381e-05
5.4305e-05
6.89903e-05
6.27539e-05
5.26435e-05
5.01519e-05
4.84505e-05
4.53962e-05
4.17741e-05
3.68077e-05
3.19886e-05
3.02034e-05
3.29859e-05
3.83301e-05
4.6179e-05
5.50172e-05
6.69538e-05
6.60875e-05
5.91402e-05
5.9215e-05
6.13012e-05
6.26562e-05
6.24491e-05
6.07474e-05
5.65491e-05
5.12221e-05
4.81962e-05
4.81867e-05
5.18191e-05
5.67908e-05
6.64515e-05
7.18365e-05
6.75979e-05
6.85637e-05
7.25853e-05
7.82261e-05
8.22117e-05
8.45189e-05
8.36861e-05
7.8713e-05
7.14914e-05
6.56026e-05
6.34918e-05
6.3946e-05
6.97917e-05
9.28006e-05
0.000110044
0.000137667
0.000187238
0.000283841
0.000100258
7.24705e-05
8.74931e-05
0.000113303
0.000167357
0.000286736
0.000111574
5.43182e-05
6.69466e-05
8.99644e-05
0.00014445
0.000286064
0.000122068
4.05463e-05
5.27928e-05
7.40868e-05
0.000125306
0.000276419
0.000131166
3.42342e-05
4.75161e-05
6.88828e-05
0.0001163
0.000264351
0.000139132
3.48179e-05
5.04917e-05
7.42312e-05
0.000118582
0.00025041
0.000145854
4.2022e-05
6.09374e-05
8.83235e-05
0.000130026
0.000236598
0.000150806
5.4581e-05
7.65473e-05
0.000106927
0.000146474
0.000223971
0.000153845
6.97204e-05
9.31817e-05
0.000124343
0.000162034
0.000213792
0.000156296
8.35479e-05
0.000106094
0.000136274
0.000172807
0.00020771
0.00015921
9.29284e-05
0.00011306
0.000142021
0.000178971
0.000213718
0.00015888
9.72866e-05
0.000114928
0.000142844
0.00018194
0.000233856
0.000153453
9.79997e-05
0.000113729
0.000141043
0.000184311
0.000261569
0.000141698
9.84788e-05
0.000114136
0.000142878
0.000191932
0.000290652
0.000121042
7.89035e-05
9.21235e-05
0.000114009
0.000156652
0.000242901
0.000117094
6.18617e-05
7.31573e-05
9.29175e-05
0.000134321
0.00022127
0.000127639
4.92799e-05
6.017e-05
7.89646e-05
0.000117775
0.00020702
0.000136125
4.19232e-05
5.53506e-05
7.59351e-05
0.000112958
0.000196014
0.000143943
4.1803e-05
5.92321e-05
8.38424e-05
0.000120879
0.000192875
0.000151329
4.83715e-05
7.13143e-05
0.000102276
0.000140311
0.000195095
0.000157654
6.08441e-05
8.92787e-05
0.000126416
0.000164817
0.00020009
0.00016254
7.56835e-05
0.000107371
0.000147674
0.000187468
0.000206754
0.000166528
8.75913e-05
0.000118743
0.000158629
0.000203136
0.000217893
0.00017147
9.37943e-05
0.000120704
0.000157072
0.000206914
0.000233847
0.000177006
9.44995e-05
0.000115433
0.000146962
0.000197688
0.000251634
0.000179451
9.1357e-05
0.000107295
0.000133891
0.000181893
0.000265684
0.000174608
8.77617e-05
0.000100771
0.000124144
0.000169315
0.000271428
0.000160745
8.71722e-05
0.000100101
0.000123796
0.000168296
0.000273091
0.00013655
6.06423e-05
6.87166e-05
8.07028e-05
0.00010434
0.000151186
0.000119555
5.04735e-05
5.91935e-05
7.23376e-05
9.64489e-05
0.000142572
0.000129146
4.57784e-05
5.69465e-05
7.27005e-05
9.8738e-05
0.000144764
0.000139609
4.53326e-05
6.16556e-05
8.27208e-05
0.000112944
0.000158446
0.000152842
5.12837e-05
7.40726e-05
0.000102474
0.000138401
0.000181292
0.000169182
6.31817e-05
9.31991e-05
0.000129644
0.000170497
0.000206406
0.000186018
7.74516e-05
0.000112588
0.000154585
0.000197823
0.000226109
0.000200372
8.81239e-05
0.000123821
0.000166159
0.000210809
0.000235598
0.000210417
9.06115e-05
0.000121423
0.000159447
0.000207411
0.000236417
0.000215228
8.5583e-05
0.000108491
0.00013888
0.000188224
0.000230419
0.00021287
7.90266e-05
9.35822e-05
0.000115134
0.000157874
0.000218927
0.000201983
7.33614e-05
8.25411e-05
9.78659e-05
0.000130961
0.000202382
0.00018446
7.10591e-05
7.83397e-05
9.11947e-05
0.000118631
0.000187998
0.000161775
7.27537e-05
8.10422e-05
9.51008e-05
0.000121936
0.000181314
0.000136033
9.97669e-05
0.000120906
0.000154383
0.000211194
0.000310514
9.94048e-05
8.4211e-05
0.000104964
0.000138077
0.000197521
0.000305625
0.000110344
7.44702e-05
9.51349e-05
0.000127016
0.000185203
0.00029684
0.000120839
7.18958e-05
9.3478e-05
0.000124254
0.000177986
0.000283341
0.000129846
7.71167e-05
9.99434e-05
0.000129666
0.000178058
0.000271153
0.000136603
8.79567e-05
0.000110934
0.000138888
0.000181878
0.000259772
0.00014159
0.000100417
0.000121188
0.000146359
0.000184632
0.000250061
0.000146863
0.000109756
0.000126431
0.000148963
0.000184446
0.000242277
0.000153543
0.000112956
0.000125753
0.000146836
0.000182191
0.000238993
0.000161589
0.000111131
0.000121648
0.000142181
0.000177784
0.000240866
0.000169633
0.000105933
0.000115583
0.000135951
0.000172876
0.000251802
0.00017212
9.87297e-05
0.000108532
0.000129006
0.000169832
0.000270326
0.000167953
9.19865e-05
0.000102713
0.000124605
0.000171873
0.000295796
0.000156315
8.86531e-05
0.000101739
0.000128201
0.000185301
0.000329097
0.000134672
9.07485e-05
0.000108835
0.000135872
0.000182081
0.000267372
0.000118303
8.19156e-05
0.00010058
0.000127252
0.000169793
0.000243811
0.000131173
7.97091e-05
0.000100523
0.000128013
0.00016697
0.000230611
0.000143511
8.37878e-05
0.000108054
0.000137422
0.000173417
0.000223048
0.000154142
9.36922e-05
0.0001208
0.000151199
0.000184775
0.000221886
0.000163173
0.000105504
0.000132756
0.000162331
0.00019473
0.000223078
0.000172295
0.000114115
0.000137936
0.000164609
0.00019822
0.000227575
0.000182387
0.000116308
0.000134034
0.000156816
0.000193923
0.000236028
0.000192673
0.000111742
0.000123507
0.000142726
0.000182669
0.000245178
0.000201661
0.000103325
0.000111419
0.000128332
0.000166703
0.000248885
0.000207236
9.32607e-05
0.000100318
0.00011618
0.000152729
0.000249286
0.000206403
8.40973e-05
9.14856e-05
0.000107426
0.000144649
0.000251296
0.000196626
7.84658e-05
8.70996e-05
0.000104799
0.000145253
0.00026016
0.000177722
7.85379e-05
8.9744e-05
0.000111882
0.000157998
0.000279596
0.000149295
7.93143e-05
9.28129e-05
0.000110969
0.000139553
0.000180513
0.000128796
7.6998e-05
9.2927e-05
0.000113726
0.000143115
0.000181944
0.000145143
8.03991e-05
9.99941e-05
0.000124143
0.00015506
0.00019128
0.000163997
8.76914e-05
0.000111932
0.000140047
0.000172299
0.000204996
0.000184326
9.76137e-05
0.000125232
0.000155228
0.000187387
0.000215984
0.000204013
0.000105484
0.00013223
0.000160161
0.00019067
0.000216101
0.000221833
0.000107211
0.000128587
0.00015102
0.000179342
0.000206685
0.00023446
0.000102088
0.00011623
0.000131624
0.000157877
0.000193521
0.000239907
9.28846e-05
0.000101157
0.000110921
0.00013508
0.000181093
0.000237344
8.35049e-05
8.86636e-05
9.65206e-05
0.000118205
0.00017082
0.000227435
7.60289e-05
8.04726e-05
8.86115e-05
0.000109489
0.000166123
0.00021287
7.17635e-05
7.65727e-05
8.58858e-05
0.000108164
0.000168851
0.000193724
7.1244e-05
7.74989e-05
8.93024e-05
0.000115115
0.0001784
0.000170664
7.47943e-05
8.39984e-05
0.000100219
0.000131331
0.0001968
0.000144891
0.000124281
0.00026561
0.000156708
0.000118292
0.000100959
9.27843e-05
0.000146266
0.000242209
0.000155191
0.000123601
0.000107275
9.86722e-05
0.000161251
0.000225276
0.000158149
0.000130038
0.000113689
0.000104299
0.000171007
0.000213898
0.000162008
0.000135571
0.000118467
0.000106659
0.000175136
0.000211253
0.000166491
0.000139809
0.000120371
0.000103416
0.000172859
0.000220132
0.000172095
0.000142228
0.000118419
9.48081e-05
0.000167414
0.000235432
0.000177588
0.000142746
0.000112847
8.35277e-05
0.000160439
0.000253849
0.000179808
0.000138698
0.000104254
7.30917e-05
0.00015289
0.000271118
0.000178388
0.000131479
9.52018e-05
6.56339e-05
0.000145238
0.000288959
0.000174815
0.000122798
8.74034e-05
6.16124e-05
0.000136681
0.000305195
0.000173898
0.00011712
8.36123e-05
6.16292e-05
0.000126866
0.000323704
0.000180804
0.000118203
8.5576e-05
6.61213e-05
0.000116023
0.000338912
0.000194939
0.000127256
9.40092e-05
7.52423e-05
0.000104966
0.000358187
0.000215642
0.000144115
0.000108762
8.89767e-05
0.000137308
0.00021784
0.000126589
9.51369e-05
8.17676e-05
7.56121e-05
0.000163517
0.000209596
0.000129357
0.000102288
8.9799e-05
8.29182e-05
0.000182655
0.000208484
0.00013867
0.000112919
9.98456e-05
9.13109e-05
0.000194801
0.000209478
0.000150632
0.000124683
0.000109942
9.78741e-05
0.000200411
0.000211147
0.000163663
0.000136872
0.000118902
0.000100674
0.000200084
0.000213006
0.000177221
0.000148615
0.000125113
9.89875e-05
0.000195771
0.000214628
0.000189201
0.000158845
0.000127389
9.40812e-05
0.000188493
0.000218378
0.000195858
0.00016277
0.000125356
8.79026e-05
0.000179536
0.000224536
0.000195505
0.000159175
0.000118962
8.16697e-05
0.000170033
0.000233208
0.000188409
0.000148873
0.000109334
7.57781e-05
0.00016034
0.000241165
0.000178968
0.000136969
0.000100844
7.28611e-05
0.000149585
0.000254337
0.000172961
0.000128204
9.60304e-05
7.28991e-05
0.000136924
0.000269021
0.00017444
0.000125848
9.61989e-05
7.63761e-05
0.000123938
0.000296473
0.000185814
0.000131423
0.000102192
8.35336e-05
0.000132797
0.000148616
9.68718e-05
7.67049e-05
6.74232e-05
6.20962e-05
0.000158132
0.000140982
9.7535e-05
8.05594e-05
7.20658e-05
6.63169e-05
0.000180844
0.00013847
0.000103375
8.8258e-05
7.90645e-05
7.11467e-05
0.000200316
0.000140474
0.000111552
9.82065e-05
8.76316e-05
7.60662e-05
0.000217072
0.000147916
0.000122576
0.000110015
9.74123e-05
8.09152e-05
0.000229475
0.000161162
0.00013847
0.000123771
0.000107439
8.5161e-05
0.000235885
0.000178877
0.000158226
0.000138693
0.000116653
8.9361e-05
0.000234827
0.000197531
0.000176809
0.000151202
0.000122948
9.19237e-05
0.000226067
0.000212566
0.000188738
0.000157426
0.000124602
9.11358e-05
0.000211866
0.000222463
0.000189226
0.000153911
0.000119373
8.66576e-05
0.000194815
0.000221663
0.000180746
0.000143364
0.000110698
8.23166e-05
0.000175776
0.000216381
0.000169593
0.000131925
0.000102949
7.95726e-05
0.000155862
0.000212097
0.00016133
0.000124232
9.84705e-05
7.92675e-05
0.000137501
0.000217107
0.000158749
0.000121924
9.90032e-05
8.25098e-05
0.000118818
0.000262561
0.000179094
0.00013696
0.00011053
9.53794e-05
0.000141351
0.000239299
0.000177262
0.000139165
0.000111784
9.46956e-05
0.000157421
0.000219579
0.00017656
0.000139665
0.000109454
8.89054e-05
0.000167577
0.000206309
0.00017418
0.000136257
0.000102019
7.73617e-05
0.000171937
0.000202292
0.000168454
0.000127557
8.96059e-05
6.23358e-05
0.000172041
0.000206166
0.000157437
0.000113252
7.45949e-05
4.78341e-05
0.000169555
0.000213998
0.000141426
9.59406e-05
6.04052e-05
3.66644e-05
0.000165684
0.000222657
0.000123673
7.959e-05
4.9743e-05
3.03089e-05
0.000157993
0.000234424
0.000110237
6.80029e-05
4.42794e-05
2.9462e-05
0.000148428
0.000249956
0.00010408
6.2691e-05
4.43719e-05
3.44823e-05
0.000138027
0.000262163
0.000107668
6.52319e-05
5.00305e-05
4.39483e-05
0.000127597
0.000274168
0.000122249
7.63722e-05
6.14094e-05
5.65567e-05
0.000116821
0.000279441
0.000145107
9.57093e-05
7.80125e-05
7.06706e-05
0.000105243
0.000291487
0.000168432
0.000118519
9.71416e-05
8.68716e-05
0.000133489
0.000249123
0.000156743
0.000117258
9.60427e-05
8.42699e-05
0.000156599
0.000251087
0.000168242
0.000127899
0.000103832
8.89393e-05
0.000171606
0.000248357
0.00018538
0.000141413
0.000111281
9.06735e-05
0.000179431
0.000237822
0.000201388
0.000153722
0.000115441
8.71898e-05
0.000181287
0.000224192
0.000209451
0.000159734
0.000113428
7.85767e-05
0.00017962
0.000213643
0.000206278
0.000155238
0.000104576
6.7216e-05
0.000176182
0.00020917
0.000191127
0.000140134
9.07219e-05
5.50248e-05
0.000172147
0.000206834
0.000167818
0.000118582
7.49718e-05
4.42503e-05
0.000166022
0.000204565
0.000142631
9.64452e-05
6.16839e-05
3.75518e-05
0.000158128
0.000203676
0.000121299
8.00262e-05
5.38592e-05
3.64797e-05
0.000149178
0.00020369
0.000109193
7.20015e-05
5.22662e-05
4.06934e-05
0.00013988
0.000209255
0.000108001
7.2009e-05
5.62214e-05
4.8631e-05
0.000130451
0.000215453
0.000118258
8.07969e-05
6.52692e-05
5.82811e-05
0.000120216
0.000231937
0.000135189
9.55571e-05
7.82893e-05
6.98475e-05
0.000130993
0.000158484
0.000103545
8.19429e-05
7.11884e-05
6.45953e-05
0.000158218
0.000172646
0.000115568
9.15323e-05
7.83562e-05
6.95896e-05
0.000182522
0.000192891
0.000139328
0.000107922
8.85188e-05
7.40197e-05
0.000202293
0.000211098
0.000171818
0.000130631
0.00010105
7.78632e-05
0.000214459
0.00022619
0.000201171
0.000154119
0.000113374
8.03651e-05
0.000219082
0.000237114
0.00021785
0.000169816
0.000120991
8.04342e-05
0.000216722
0.000242341
0.000219478
0.000170735
0.000118223
7.46268e-05
0.000209282
0.000238347
0.00020561
0.000155711
0.000105233
6.40667e-05
0.00019659
0.00022381
0.000178981
0.000130609
8.73479e-05
5.26074e-05
0.000180301
0.000203279
0.000148388
0.000105205
7.15625e-05
4.50959e-05
0.000163628
0.000182539
0.000123766
8.72718e-05
6.20787e-05
4.30305e-05
0.000148878
0.000168181
0.000108163
7.72911e-05
5.87196e-05
4.59188e-05
0.000135781
0.000161298
0.000102836
7.53005e-05
6.05267e-05
5.09579e-05
0.000123519
0.000162287
0.000106074
8.02278e-05
6.75439e-05
5.92734e-05
5.75203e-05
4.45469e-05
3.58912e-05
2.88615e-05
2.63972e-05
2.90824e-05
3.57239e-05
4.29036e-05
4.75904e-05
4.87171e-05
4.79428e-05
4.89127e-05
5.19522e-05
5.4384e-05
5.22643e-05
3.72777e-05
2.66168e-05
1.80934e-05
1.2964e-05
1.19253e-05
1.47631e-05
1.97372e-05
2.48828e-05
2.89601e-05
3.20339e-05
3.55845e-05
3.93292e-05
4.29829e-05
4.66871e-05
3.14923e-05
1.93276e-05
1.07062e-05
5.72074e-06
3.8034e-06
4.35821e-06
6.67388e-06
1.02091e-05
1.45556e-05
1.94339e-05
2.4871e-05
3.02199e-05
3.60628e-05
4.42307e-05
2.72348e-05
1.35583e-05
5.59475e-06
2.07468e-06
8.96527e-07
8.73136e-07
1.68362e-06
3.47037e-06
6.50262e-06
1.07437e-05
1.59309e-05
2.20629e-05
3.05092e-05
4.5085e-05
2.49837e-05
9.96525e-06
3.24209e-06
9.70125e-07
2.76895e-07
1.56382e-07
3.8464e-07
1.11076e-06
2.67256e-06
5.45816e-06
1.01058e-05
1.7623e-05
3.01238e-05
4.73216e-05
2.35892e-05
8.3291e-06
2.88365e-06
9.6117e-07
2.74778e-07
1.03946e-07
1.656e-07
4.94731e-07
1.43059e-06
3.70086e-06
8.69309e-06
1.87414e-05
3.56551e-05
4.92502e-05
2.34123e-05
8.55992e-06
3.58477e-06
1.41165e-06
5.22076e-07
2.81612e-07
3.48255e-07
7.33019e-07
1.86715e-06
4.78251e-06
1.14937e-05
2.44808e-05
4.45023e-05
5.02318e-05
2.45286e-05
1.06721e-05
5.42138e-06
2.6559e-06
1.28959e-06
8.80788e-07
1.0427e-06
1.75832e-06
3.60487e-06
7.83552e-06
1.65384e-05
3.13548e-05
5.19165e-05
5.08431e-05
2.73969e-05
1.45723e-05
8.89052e-06
5.31383e-06
3.16174e-06
2.3781e-06
2.69772e-06
4.01899e-06
6.91112e-06
1.24781e-05
2.22107e-05
3.66901e-05
5.52123e-05
5.24536e-05
3.25204e-05
2.05824e-05
1.44529e-05
1.0254e-05
7.15823e-06
5.60388e-06
5.83362e-06
7.74732e-06
1.15548e-05
1.77684e-05
2.70943e-05
3.95839e-05
5.46102e-05
5.52996e-05
3.88002e-05
2.86252e-05
2.23791e-05
1.84283e-05
1.47754e-05
1.21089e-05
1.14065e-05
1.31159e-05
1.7213e-05
2.33207e-05
3.14673e-05
4.14991e-05
5.32086e-05
6.04001e-05
4.74703e-05
3.90738e-05
3.30986e-05
3.01551e-05
2.73408e-05
2.42478e-05
2.18861e-05
2.16863e-05
2.46164e-05
2.97768e-05
3.67979e-05
4.46928e-05
5.46665e-05
6.51118e-05
5.55953e-05
4.95634e-05
4.53996e-05
4.3974e-05
4.3777e-05
4.26223e-05
4.0164e-05
3.74872e-05
3.71396e-05
3.93488e-05
4.42269e-05
4.93393e-05
5.88269e-05
7.32903e-05
6.77756e-05
6.15635e-05
5.76688e-05
5.74717e-05
5.99088e-05
6.24275e-05
6.28578e-05
6.05622e-05
5.71447e-05
5.48447e-05
5.55214e-05
5.71021e-05
6.37792e-05
5.36243e-05
3.8946e-05
2.94983e-05
2.20769e-05
1.86966e-05
1.95831e-05
2.38651e-05
2.94876e-05
3.42726e-05
3.70771e-05
3.79958e-05
3.88926e-05
4.29768e-05
4.9225e-05
4.44525e-05
2.9662e-05
1.98358e-05
1.28034e-05
8.71606e-06
7.59459e-06
9.26084e-06
1.26736e-05
1.6672e-05
2.0439e-05
2.37442e-05
2.73095e-05
3.21521e-05
3.76799e-05
3.76894e-05
2.34442e-05
1.29992e-05
6.73243e-06
3.47896e-06
2.23462e-06
2.50896e-06
3.88845e-06
6.16841e-06
9.26189e-06
1.32101e-05
1.81574e-05
2.39555e-05
3.00516e-05
3.64226e-05
2.04652e-05
9.01911e-06
3.365e-06
1.18799e-06
4.88188e-07
4.46919e-07
8.60484e-07
1.85493e-06
3.74445e-06
6.84395e-06
1.10416e-05
1.63742e-05
2.31211e-05
3.7827e-05
1.93467e-05
7.05873e-06
2.1661e-06
6.2909e-07
1.69626e-07
7.67065e-08
1.79583e-07
5.63311e-07
1.49869e-06
3.34647e-06
6.58622e-06
1.18884e-05
2.06833e-05
3.90521e-05
1.88601e-05
6.30094e-06
2.04151e-06
6.35451e-07
1.71845e-07
5.85653e-08
8.3852e-08
2.57219e-07
7.85647e-07
2.12777e-06
5.17905e-06
1.15858e-05
2.31322e-05
3.90669e-05
1.80361e-05
6.63681e-06
2.46929e-06
8.85961e-07
3.08824e-07
1.60845e-07
1.86342e-07
3.74057e-07
9.64646e-07
2.58427e-06
6.57907e-06
1.49406e-05
2.88712e-05
3.85292e-05
1.83428e-05
8.09659e-06
3.62735e-06
1.62204e-06
7.53125e-07
5.14728e-07
5.84004e-07
9.27582e-07
1.88227e-06
4.27797e-06
9.6979e-06
1.9857e-05
3.49882e-05
3.86706e-05
2.07356e-05
1.07381e-05
5.97053e-06
3.29234e-06
1.88992e-06
1.44025e-06
1.60393e-06
2.29512e-06
3.90439e-06
7.30584e-06
1.39266e-05
2.48076e-05
3.94974e-05
4.10167e-05
2.51474e-05
1.49666e-05
9.9531e-06
6.6367e-06
4.46962e-06
3.53861e-06
3.7171e-06
4.87235e-06
7.24866e-06
1.1461e-05
1.84708e-05
2.87747e-05
4.16413e-05
4.53066e-05
3.09218e-05
2.11202e-05
1.61112e-05
1.26139e-05
9.73382e-06
7.92914e-06
7.62667e-06
8.94082e-06
1.189e-05
1.64726e-05
2.30684e-05
3.18899e-05
4.22328e-05
5.2284e-05
3.95722e-05
3.01052e-05
2.49322e-05
2.20812e-05
1.91747e-05
1.6485e-05
1.48566e-05
1.51706e-05
1.79151e-05
2.24689e-05
2.8557e-05
3.58898e-05
4.43906e-05
5.91527e-05
4.91367e-05
4.09732e-05
3.59204e-05
3.45471e-05
3.30694e-05
3.07377e-05
2.80595e-05
2.61221e-05
2.68713e-05
3.01854e-05
3.57731e-05
4.17763e-05
5.12323e-05
7.10563e-05
6.37322e-05
5.32285e-05
4.77809e-05
4.76208e-05
4.86024e-05
4.84859e-05
4.68583e-05
4.38632e-05
4.17394e-05
4.20536e-05
4.55756e-05
4.92922e-05
5.84641e-05
4.23327e-05
2.85053e-05
2.00742e-05
1.38616e-05
1.05373e-05
9.87421e-06
1.17722e-05
1.52808e-05
1.93757e-05
2.3013e-05
2.57193e-05
2.77387e-05
3.11316e-05
3.79947e-05
3.27213e-05
1.96835e-05
1.1763e-05
7.04979e-06
4.54727e-06
3.6001e-06
4.12622e-06
5.77808e-06
8.25713e-06
1.11683e-05
1.42966e-05
1.76608e-05
2.21846e-05
2.83361e-05
2.8471e-05
1.53188e-05
7.23085e-06
3.32041e-06
1.62923e-06
9.88388e-07
1.03625e-06
1.60358e-06
2.7272e-06
4.51235e-06
7.13905e-06
1.08295e-05
1.57959e-05
2.16023e-05
2.84626e-05
1.39219e-05
5.25883e-06
1.73183e-06
5.644e-07
2.11568e-07
1.71851e-07
3.27367e-07
7.5801e-07
1.69201e-06
3.46569e-06
6.32939e-06
1.0117e-05
1.50928e-05
2.84554e-05
1.32492e-05
4.44662e-06
1.29521e-06
3.69935e-07
9.3762e-08
3.22688e-08
6.6229e-08
2.27907e-07
6.75423e-07
1.66344e-06
3.48759e-06
6.62384e-06
1.16423e-05
2.77642e-05
1.23054e-05
4.19243e-06
1.2797e-06
3.76028e-07
9.61822e-08
2.89762e-08
3.52179e-08
1.09165e-07
3.50452e-07
9.90636e-07
2.46756e-06
5.59735e-06
1.16074e-05
2.60747e-05
1.13917e-05
4.32603e-06
1.47232e-06
4.86928e-07
1.61401e-07
8.17283e-08
8.80705e-08
1.63441e-07
4.1179e-07
1.11159e-06
2.89095e-06
6.88608e-06
1.44963e-05
2.45394e-05
1.1556e-05
5.09933e-06
2.05119e-06
8.4532e-07
3.87071e-07
2.72023e-07
2.97044e-07
4.32791e-07
8.22636e-07
1.85382e-06
4.36437e-06
9.5974e-06
1.87566e-05
2.48357e-05
1.33712e-05
6.61347e-06
3.33379e-06
1.71717e-06
9.93235e-07
7.90608e-07
8.64021e-07
1.15843e-06
1.86079e-06
3.4451e-06
6.85199e-06
1.32116e-05
2.327e-05
2.79004e-05
1.65859e-05
9.28238e-06
5.7489e-06
3.617e-06
2.43404e-06
1.99834e-06
2.10819e-06
2.6662e-06
3.83619e-06
6.05396e-06
1.01981e-05
1.71609e-05
2.71715e-05
3.28448e-05
2.09381e-05
1.36546e-05
9.95824e-06
7.37774e-06
5.54047e-06
4.56039e-06
4.48115e-06
5.27005e-06
6.96758e-06
9.73961e-06
1.42261e-05
2.10139e-05
3.0028e-05
4.04563e-05
2.81502e-05
2.03984e-05
1.68042e-05
1.407e-05
1.15687e-05
9.67e-06
8.81566e-06
9.34457e-06
1.13863e-05
1.46138e-05
1.91752e-05
2.5285e-05
3.28948e-05
4.84285e-05
3.78231e-05
2.97828e-05
2.65562e-05
2.42892e-05
2.16778e-05
1.89295e-05
1.67698e-05
1.59755e-05
1.749e-05
2.08533e-05
2.56826e-05
3.12774e-05
3.85742e-05
6.23406e-05
5.15391e-05
4.09469e-05
3.81146e-05
3.70467e-05
3.54008e-05
3.28424e-05
2.98279e-05
2.71067e-05
2.66269e-05
2.88473e-05
3.3803e-05
3.86452e-05
4.783e-05
2.79754e-05
1.69409e-05
1.0944e-05
7.16026e-06
5.08241e-06
4.23919e-06
4.62532e-06
6.02887e-06
8.30306e-06
1.10392e-05
1.3868e-05
1.64648e-05
1.96738e-05
2.43813e-05
2.26142e-05
1.14201e-05
5.62713e-06
2.99653e-06
1.83033e-06
1.37337e-06
1.4453e-06
1.93537e-06
2.89353e-06
4.33355e-06
6.24198e-06
8.64952e-06
1.21455e-05
1.72518e-05
2.05454e-05
9.02421e-06
3.36015e-06
1.24372e-06
5.44518e-07
3.1853e-07
3.189e-07
4.63317e-07
7.93689e-07
1.4298e-06
2.57021e-06
4.52662e-06
7.76331e-06
1.23657e-05
1.97194e-05
7.98021e-06
2.48657e-06
7.20202e-07
2.12845e-07
6.95307e-08
4.70111e-08
8.13301e-08
1.91803e-07
4.75888e-07
1.13241e-06
2.43871e-06
4.66355e-06
8.04423e-06
1.81874e-05
7.18954e-06
2.21928e-06
6.56829e-07
1.85709e-07
4.4087e-08
1.11277e-08
1.55444e-08
5.66379e-08
1.90335e-07
5.44653e-07
1.34385e-06
2.91096e-06
5.56125e-06
1.63018e-05
6.45839e-06
2.18703e-06
6.70689e-07
1.86149e-07
4.42779e-08
1.11971e-08
9.88399e-09
3.02904e-08
1.07245e-07
3.378e-07
9.24193e-07
2.24228e-06
4.87594e-06
1.43743e-05
6.07048e-06
2.29713e-06
7.22182e-07
2.1447e-07
6.45989e-08
3.02144e-08
2.90904e-08
4.85524e-08
1.22914e-07
3.54357e-07
9.88031e-07
2.52717e-06
5.80908e-06
1.36056e-05
6.48655e-06
2.64898e-06
9.22393e-07
3.33191e-07
1.47162e-07
1.0646e-07
1.10498e-07
1.43693e-07
2.53085e-07
5.75704e-07
1.4554e-06
3.56731e-06
7.92683e-06
1.46509e-05
7.71669e-06
3.31752e-06
1.43024e-06
6.61104e-07
3.92599e-07
3.34785e-07
3.55667e-07
4.33975e-07
6.41255e-07
1.16518e-06
2.46941e-06
5.37876e-06
1.09202e-05
1.76785e-05
9.5301e-06
4.73702e-06
2.55041e-06
1.48212e-06
1.02861e-06
9.0723e-07
9.53772e-07
1.12866e-06
1.52559e-06
2.36253e-06
4.19161e-06
7.91013e-06
1.44108e-05
2.15202e-05
1.21942e-05
7.50591e-06
4.90554e-06
3.36561e-06
2.51952e-06
2.18246e-06
2.20183e-06
2.51957e-06
3.2183e-06
4.46663e-06
6.81508e-06
1.1126e-05
1.80732e-05
2.72712e-05
1.71891e-05
1.24783e-05
9.47922e-06
7.26561e-06
5.71226e-06
4.82155e-06
4.56593e-06
4.95293e-06
6.03689e-06
7.79773e-06
1.0581e-05
1.50443e-05
2.17545e-05
3.41795e-05
2.51675e-05
2.04152e-05
1.72053e-05
1.42725e-05
1.17746e-05
9.88392e-06
8.85095e-06
8.88527e-06
1.02137e-05
1.25565e-05
1.5837e-05
2.01583e-05
2.63341e-05
4.60419e-05
3.6261e-05
3.07944e-05
2.80939e-05
2.50826e-05
2.18327e-05
1.86842e-05
1.62443e-05
1.50379e-05
1.58723e-05
1.85334e-05
2.25922e-05
2.67937e-05
3.30492e-05
1.87162e-05
9.64399e-06
5.13504e-06
2.99616e-06
1.98003e-06
1.54134e-06
1.55942e-06
1.93645e-06
2.75132e-06
4.07265e-06
5.84225e-06
7.86115e-06
1.04356e-05
1.35086e-05
1.58622e-05
6.68075e-06
2.50108e-06
1.02512e-06
5.52025e-07
3.96646e-07
4.07645e-07
5.15837e-07
7.51375e-07
1.20877e-06
1.98443e-06
3.18558e-06
5.19283e-06
8.50405e-06
1.40322e-05
5.26323e-06
1.46916e-06
4.06789e-07
1.41214e-07
7.32791e-08
7.17747e-08
9.95742e-08
1.60557e-07
3.03065e-07
6.35559e-07
1.36812e-06
2.8856e-06
5.60671e-06
1.25169e-05
4.50093e-06
1.18103e-06
3.00217e-07
7.99742e-08
2.09269e-08
9.17757e-09
1.26998e-08
2.98344e-08
8.55473e-08
2.5421e-07
6.93907e-07
1.66228e-06
3.44795e-06
1.05546e-05
3.73135e-06
1.11856e-06
3.1776e-07
8.55445e-08
1.89334e-08
3.58662e-09
2.15451e-09
8.3521e-09
3.53551e-08
1.27895e-07