/*--------------------------------*- C++ -*----------------------------------*\
| =========                 |                                                 |
| \\      /  F ield         | OpenFOAM: The Open Source CFD Toolbox           |
|  \\    /   O peration     | Version:  v2106                                 |
|   \\  /    A nd           | Website:  www.openfoam.com                      |
|    \\/     M anipulation  |                                                 |
\*---------------------------------------------------------------------------*/
FoamFile
{
    version     2.0;
    format      ascii;
    arch        "LSB;label=32;scalar=64";
    class       surfaceScalarField;
    location    "0.000189";
    object      phi;
}
// * * * * * * * * * * * * * * * * * * * * * * * * * * * * * * * * * * * * * //

dimensions      [1 0 -1 0 0 0 0];

internalField   nonuniform List<scalar> 
52246
(
-2.27896e-08
-6.09227e-08
1.50657e-06
5.80851e-08
-6.23565e-08
1.50764e-06
6.16437e-08
-2.62322e-08
-2.40444e-08
-6.33461e-08
1.50903e-06
-6.32014e-08
1.51009e-06
-2.70305e-08
-2.37517e-08
-6.54901e-08
1.511e-06
-6.46256e-08
1.51222e-06
-2.60341e-08
-2.45949e-08
-6.72796e-08
1.51341e-06
-6.58667e-08
1.5147e-06
-2.6573e-08
-2.48419e-08
-6.89801e-08
1.51543e-06
-6.74135e-08
1.51681e-06
-2.62517e-08
-2.51798e-08
-7.04038e-08
1.51762e-06
-6.86516e-08
1.51904e-06
-2.648e-08
-2.50349e-08
-7.16379e-08
1.51966e-06
-6.97075e-08
1.52111e-06
-2.62699e-08
-2.49472e-08
-7.25209e-08
1.52174e-06
-7.04038e-08
1.52327e-06
-2.62129e-08
-2.44044e-08
-7.31191e-08
1.52374e-06
-7.07801e-08
1.52538e-06
-2.57549e-08
-2.36573e-08
-7.34351e-08
1.52577e-06
-7.09222e-08
1.52749e-06
-2.50191e-08
-2.24336e-08
-7.36126e-08
1.5278e-06
-7.10944e-08
1.52963e-06
-2.35018e-08
-2.19056e-08
-7.35539e-08
1.52985e-06
-7.19196e-08
1.53173e-06
-2.20954e-08
-2.12249e-08
-7.36307e-08
1.53204e-06
-7.43146e-08
1.53407e-06
-1.97384e-08
-2.35348e-08
1.53456e-06
-7.08307e-08
1.53597e-06
-2.44119e-08
-7.44648e-08
5.77329e-09
-3.52499e-08
1.40078e-06
3.46716e-08
-7.90755e-09
4.82269e-09
-3.40682e-08
1.40119e-06
3.22035e-08
4.07506e-09
-3.60258e-08
1.40199e-06
3.41266e-08
3.56463e-09
-3.58359e-08
1.40268e-06
3.37902e-08
2.93002e-09
-3.58787e-08
1.40333e-06
3.40777e-08
2.23051e-09
-3.57372e-08
1.40396e-06
3.40396e-08
1.58743e-09
-3.56212e-08
1.40456e-06
3.389e-08
1.04952e-09
-3.54965e-08
1.4052e-06
3.36323e-08
6.5782e-10
-3.54162e-08
1.40586e-06
3.33434e-08
5.17743e-10
-3.54365e-08
1.40645e-06
3.30443e-08
6.57404e-10
-3.52442e-08
1.40701e-06
3.25136e-08
7.82308e-10
-3.5149e-08
1.40746e-06
3.2336e-08
6.87601e-10
-3.37349e-08
1.40812e-06
3.10489e-08
-3.47851e-08
1.4087e-06
3.39739e-08
-1.76011e-09
6.99862e-09
-3.56936e-08
1.40248e-06
-9.26347e-09
5.80878e-09
-3.5656e-08
1.40284e-06
4.61826e-09
-3.73311e-08
1.40354e-06
3.71702e-09
-3.73717e-08
1.4042e-06
3.00514e-09
-3.74659e-08
1.40493e-06
2.43616e-09
-3.73961e-08
1.40564e-06
1.96601e-09
-3.73103e-08
1.40631e-06
1.52426e-09
-3.71941e-08
1.40695e-06
1.08097e-09
-3.71125e-08
1.40761e-06
6.37238e-10
-3.71532e-08
1.40821e-06
2.5423e-10
-3.70706e-08
1.40885e-06
-1.79125e-10
-3.70765e-08
1.40939e-06
-4.60435e-10
-3.59738e-08
1.41021e-06
-3.572e-08
1.41088e-06
-2.60529e-09
4.61374e-09
-3.65902e-08
1.40412e-06
-6.14517e-09
4.05699e-09
-3.75141e-08
1.40443e-06
3.45965e-09
-3.88217e-08
1.40536e-06
3.06724e-09
-3.89928e-08
1.40601e-06
2.72173e-09
-3.89957e-08
1.40677e-06
2.40902e-09
-3.89234e-08
1.40746e-06
2.12561e-09
-3.88368e-08
1.40812e-06
1.86594e-09
-3.8765e-08
1.40878e-06
1.63802e-09
-3.87482e-08
1.40947e-06
1.43828e-09
-3.88708e-08
1.4101e-06
1.23886e-09
-3.88752e-08
1.4107e-06
9.2718e-10
-3.89507e-08
1.41126e-06
6.74907e-10
-3.79837e-08
1.41192e-06
-3.72132e-08
1.41274e-06
-6.20073e-10
4.95959e-09
-3.75677e-08
1.406e-06
-6.11342e-09
4.32552e-09
-3.90528e-08
1.40631e-06
3.63023e-09
-3.99778e-08
1.4072e-06
3.11483e-09
-4.02214e-08
1.40783e-06
2.71671e-09
-4.02056e-08
1.40858e-06
2.40896e-09
-4.01773e-08
1.40928e-06
2.16885e-09
-4.01206e-08
1.40996e-06
1.9366e-09
-4.00614e-08
1.41064e-06
1.67109e-09
-4.00264e-08
1.41133e-06
1.33802e-09
-4.01219e-08
1.41199e-06
9.26069e-10
-4.01414e-08
1.41264e-06
3.59194e-10
-4.02394e-08
1.41326e-06
-4.55252e-12
-3.95139e-08
1.41393e-06
-3.84701e-08
1.41475e-06
-1.19531e-09
4.79999e-09
-3.87834e-08
1.40776e-06
-5.42442e-09
4.20673e-09
-4.037e-08
1.40811e-06
3.5509e-09
-4.09109e-08
1.40902e-06
3.0665e-09
-4.11985e-08
1.40967e-06
2.70623e-09
-4.11703e-08
1.41042e-06
2.42474e-09
-4.11711e-08
1.41112e-06
2.18715e-09
-4.11268e-08
1.4118e-06
1.94779e-09
-4.10836e-08
1.41249e-06
1.67198e-09
-4.1052e-08
1.4132e-06
1.31104e-09
-4.11257e-08
1.41388e-06
8.19531e-10
-4.11245e-08
1.41453e-06
1.55867e-10
-4.12076e-08
1.41518e-06
-2.48013e-10
-4.0791e-08
1.41581e-06
-3.98524e-08
1.41662e-06
-1.02154e-09
4.95824e-09
-4.00343e-08
1.40956e-06
-5.32974e-09
4.4021e-09
-4.15056e-08
1.41005e-06
3.71625e-09
-4.16208e-08
1.41087e-06
3.17968e-09
-4.19118e-08
1.41154e-06
2.77404e-09
-4.18847e-08
1.41227e-06
2.46256e-09
-4.19077e-08
1.41298e-06
2.20664e-09
-4.18772e-08
1.41366e-06
1.93521e-09
-4.18329e-08
1.41435e-06
1.59691e-09
-4.17809e-08
1.41506e-06
1.13807e-09
-4.17927e-08
1.41575e-06
5.59244e-10
-4.17646e-08
1.41642e-06
-1.87209e-10
-4.1803e-08
1.41708e-06
-6.71107e-10
-4.17352e-08
1.41775e-06
-4.08687e-08
1.41848e-06
-1.41455e-09
4.78655e-09
-4.1273e-08
1.41133e-06
-5.05214e-09
4.28646e-09
-4.25011e-08
1.41197e-06
3.67447e-09
-4.22339e-08
1.41272e-06
3.17992e-09
-4.24842e-08
1.41343e-06
2.80408e-09
-4.24499e-08
1.41415e-06
2.50957e-09
-4.24728e-08
1.41487e-06
2.25341e-09
-4.24392e-08
1.41555e-06
1.96813e-09
-4.23803e-08
1.41624e-06
1.60944e-09
-4.23044e-08
1.41696e-06
1.12638e-09
-4.22456e-08
1.41764e-06
5.31258e-10
-4.21902e-08
1.41832e-06
-2.18226e-10
-4.21831e-08
1.41896e-06
-8.283e-10
-4.24004e-08
1.41963e-06
-4.16078e-08
1.4203e-06
-1.54845e-09
4.72376e-09
-4.23663e-08
1.41316e-06
-5.06989e-09
4.24238e-09
-4.33327e-08
1.41392e-06
3.67935e-09
-4.27758e-08
1.41461e-06
3.22346e-09
-4.29511e-08
1.41534e-06
2.86386e-09
-4.29014e-08
1.41605e-06
2.57962e-09
-4.29127e-08
1.41677e-06
2.32219e-09
-4.28631e-08
1.41744e-06
2.02737e-09
-4.27647e-08
1.41814e-06
1.64769e-09
-4.26315e-08
1.41885e-06
1.13145e-09
-4.24689e-08
1.41953e-06
4.92545e-10
-4.23641e-08
1.4202e-06
-2.97636e-10
-4.23076e-08
1.42083e-06
-1.08825e-09
-4.27186e-08
1.42148e-06
-4.1934e-08
1.42214e-06
-1.9245e-09
4.53128e-09
-4.3279e-08
1.41501e-06
-5.02302e-09
4.0582e-09
-4.40339e-08
1.41585e-06
3.56831e-09
-4.33083e-08
1.4165e-06
3.19367e-09
-4.33867e-08
1.41724e-06
2.88731e-09
-4.33079e-08
1.41794e-06
2.63933e-09
-4.32907e-08
1.41866e-06
2.3971e-09
-4.3205e-08
1.41933e-06
2.11812e-09
-4.30488e-08
1.42002e-06
1.7566e-09
-4.28396e-08
1.42072e-06
1.25713e-09
-4.25642e-08
1.42139e-06
6.01412e-10
-4.23843e-08
1.42204e-06
-2.04951e-10
-4.22779e-08
1.42267e-06
-1.16905e-09
-4.27688e-08
1.42326e-06
-4.19062e-08
1.42396e-06
-2.14526e-09
4.39455e-09
-4.40474e-08
1.41684e-06
-5.01833e-09
3.89672e-09
-4.46356e-08
1.41777e-06
3.45838e-09
-4.38595e-08
1.4184e-06
3.16023e-09
-4.38333e-08
1.41915e-06
2.925e-09
-4.37266e-08
1.41986e-06
2.74794e-09
-4.3674e-08
1.42057e-06
2.57207e-09
-4.35433e-08
1.42124e-06
2.35709e-09
-4.33084e-08
1.42192e-06
2.03927e-09
-4.29898e-08
1.42261e-06
1.54993e-09
-4.25742e-08
1.42327e-06
8.59342e-10
-4.22951e-08
1.42388e-06
3.05996e-12
-4.21115e-08
1.42448e-06
-1.13556e-09
-4.25952e-08
1.42501e-06
-4.15884e-08
1.42572e-06
-2.23908e-09
4.37537e-09
-4.46814e-08
1.41869e-06
-5.00244e-09
3.78717e-09
-4.5013e-08
1.41971e-06
3.44797e-09
-4.44087e-08
1.42026e-06
3.27805e-09
-4.43151e-08
1.42103e-06
3.14189e-09
-4.41687e-08
1.42174e-06
3.01291e-09
-4.40348e-08
1.42246e-06
2.84565e-09
-4.38246e-08
1.42313e-06
2.63353e-09
-4.35077e-08
1.42379e-06
2.32898e-09
-4.31051e-08
1.42446e-06
1.8518e-09
-4.2581e-08
1.42508e-06
1.15559e-09
-4.22174e-08
1.42567e-06
3.09171e-10
-4.19505e-08
1.42621e-06
-9.37742e-10
-4.23176e-08
1.42672e-06
-4.11947e-08
1.42743e-06
-1.94797e-09
4.51448e-09
-4.54952e-08
1.42045e-06
-4.91999e-09
3.8656e-09
-4.53041e-08
1.42159e-06
3.60915e-09
-4.50322e-08
1.42211e-06
3.48594e-09
-4.48261e-08
1.42292e-06
3.40186e-09
-4.46348e-08
1.42364e-06
3.31397e-09
-4.43965e-08
1.42435e-06
3.18155e-09
-4.40927e-08
1.425e-06
2.97712e-09
-4.36731e-08
1.42566e-06
2.63921e-09
-4.31635e-08
1.42632e-06
2.09952e-09
-4.25249e-08
1.42692e-06
1.31923e-09
-4.20715e-08
1.42748e-06
3.86707e-10
-4.171e-08
1.42796e-06
-9.79553e-10
-4.19786e-08
1.42841e-06
-4.11435e-08
1.42903e-06
-1.59335e-09
5.04971e-09
-4.67925e-08
1.42252e-06
-4.67955e-09
4.4883e-09
-4.54358e-08
1.42369e-06
4.35501e-09
-4.54842e-08
1.42406e-06
4.28233e-09
-4.51459e-08
1.42481e-06
4.17269e-09
-4.48971e-08
1.42551e-06
3.95103e-09
-4.45256e-08
1.42623e-06
3.60852e-09
-4.41236e-08
1.42689e-06
3.16213e-09
-4.36415e-08
1.42752e-06
2.58367e-09
-4.30846e-08
1.42812e-06
1.83102e-09
-4.24084e-08
1.42864e-06
8.91536e-10
-4.19338e-08
1.42916e-06
-1.51995e-10
-4.15107e-08
1.42958e-06
-1.39484e-09
-4.17587e-08
1.43014e-06
-4.25033e-08
1.43077e-06
-5.18283e-10
6.47843e-09
1.42426e-06
-4.90377e-08
-5.40632e-09
5.55888e-09
1.42523e-06
-4.55023e-08
5.10598e-09
1.42583e-06
-4.58579e-08
4.71366e-09
1.42665e-06
-4.5375e-08
4.45604e-09
1.42737e-06
-4.51146e-08
4.183e-09
1.42805e-06
-4.46301e-08
3.8252e-09
1.42869e-06
-4.4099e-08
3.39804e-09
1.42931e-06
-4.35473e-08
2.88441e-09
1.42995e-06
-4.29392e-08
2.22292e-09
1.43047e-06
-4.21844e-08
1.27522e-09
1.43096e-06
-4.15002e-08
-1.39976e-10
1.43133e-06
-4.06282e-08
-2.95856e-09
1.43189e-06
-3.97339e-08
1.4325e-06
-4.25041e-09
-4.23249e-08
1.2683e-08
-1.44644e-08
1.31575e-06
1.49659e-08
-1.46091e-08
1.22277e-08
-1.37891e-08
1.31577e-06
1.28418e-08
1.1895e-08
-1.521e-08
1.31596e-06
1.43562e-08
1.17092e-08
-1.50371e-08
1.31619e-06
1.41383e-08
1.14613e-08
-1.49079e-08
1.31636e-06
1.41597e-08
1.11893e-08
-1.4678e-08
1.31651e-06
1.39966e-08
1.09662e-08
-1.44101e-08
1.31662e-06
1.36926e-08
1.08086e-08
-1.40894e-08
1.31673e-06
1.32668e-08
1.07427e-08
-1.37582e-08
1.31685e-06
1.27461e-08
1.08763e-08
-1.35346e-08
1.31687e-06
1.21949e-08
1.12506e-08
-1.30954e-08
1.31684e-06
1.1365e-08
1.17354e-08
-1.28236e-08
1.31669e-06
1.07809e-08
1.23112e-08
-1.10107e-08
1.31665e-06
8.70456e-09
-1.16202e-08
1.31669e-06
1.07104e-08
1.11623e-08
1.3617e-08
-1.4034e-08
1.31704e-06
-1.52529e-08
1.30135e-08
-1.436e-08
1.31705e-06
1.24284e-08
-1.56048e-08
1.31717e-06
1.20634e-08
-1.55747e-08
1.31739e-06
1.18636e-08
-1.5505e-08
1.31759e-06
1.17823e-08
-1.53325e-08
1.31778e-06
1.17868e-08
-1.51201e-08
1.31791e-06
1.18201e-08
-1.48469e-08
1.31798e-06
1.18177e-08
-1.45692e-08
1.31802e-06
1.17391e-08
-1.44179e-08
1.31797e-06
1.15732e-08
-1.40565e-08
1.31796e-06
1.12965e-08
-1.38317e-08
1.31783e-06
1.12862e-08
-1.239e-08
1.31788e-06
-1.23846e-08
1.31798e-06
1.03162e-08
1.19357e-08
-1.41449e-08
1.31808e-06
-1.27264e-08
1.17616e-08
-1.50777e-08
1.31808e-06
1.15824e-08
-1.60699e-08
1.31839e-06
1.15675e-08
-1.61216e-08
1.3186e-06
1.16453e-08
-1.60391e-08
1.31884e-06
1.17844e-08
-1.58771e-08
1.31902e-06
1.19815e-08
-1.56993e-08
1.31913e-06
1.22228e-08
-1.55012e-08
1.31922e-06
1.24541e-08
-1.53285e-08
1.31931e-06
1.26161e-08
-1.52944e-08
1.31931e-06
1.27007e-08
-1.50731e-08
1.31927e-06
1.26896e-08
-1.49671e-08
1.31918e-06
1.29242e-08
-1.3841e-08
1.319e-06
-1.33386e-08
1.3192e-06
1.23317e-08
1.21363e-08
-1.43441e-08
1.31931e-06
-1.25527e-08
1.19321e-08
-1.55077e-08
1.31937e-06
1.17179e-08
-1.62377e-08
1.31967e-06
1.16672e-08
-1.63506e-08
1.31984e-06
1.17527e-08
-1.63043e-08
1.32007e-06
1.19422e-08
-1.61937e-08
1.32024e-06
1.22131e-08
-1.60772e-08
1.32037e-06
1.25129e-08
-1.5937e-08
1.32045e-06
1.27535e-08
-1.58097e-08
1.32052e-06
1.28453e-08
-1.58063e-08
1.32053e-06
1.27931e-08
-1.56716e-08
1.32049e-06
1.2562e-08
-1.56125e-08
1.32045e-06
1.26362e-08
-1.48428e-08
1.3203e-06
-1.41862e-08
1.32046e-06
1.20758e-08
1.20257e-08
-1.47641e-08
1.32044e-06
-1.20358e-08
1.1861e-08
-1.57944e-08
1.32057e-06
1.16965e-08
-1.62567e-08
1.32089e-06
1.16891e-08
-1.64095e-08
1.32108e-06
1.1812e-08
-1.63936e-08
1.3213e-06
1.2028e-08
-1.63247e-08
1.32149e-06
1.23008e-08
-1.62504e-08
1.3216e-06
1.25906e-08
-1.61604e-08
1.3217e-06
1.28277e-08
-1.6085e-08
1.32178e-06
1.29176e-08
-1.61106e-08
1.3218e-06
1.28532e-08
-1.60465e-08
1.32177e-06
1.26128e-08
-1.60261e-08
1.32175e-06
1.26167e-08
-1.56301e-08
1.32158e-06
-1.51033e-08
1.32168e-06
1.23321e-08
1.2043e-08
-1.51897e-08
1.32158e-06
-1.18996e-08
1.19404e-08
-1.59621e-08
1.32182e-06
1.18054e-08
-1.61418e-08
1.3221e-06
1.18052e-08
-1.62994e-08
1.3223e-06
1.19202e-08
-1.63058e-08
1.32251e-06
1.21266e-08
-1.62766e-08
1.32269e-06
1.23854e-08
-1.62438e-08
1.32281e-06
1.26445e-08
-1.61906e-08
1.32291e-06
1.28299e-08
-1.61446e-08
1.32298e-06
1.28536e-08
-1.6168e-08
1.32301e-06
1.27362e-08
-1.61572e-08
1.32299e-06
1.24513e-08
-1.61833e-08
1.32296e-06
1.23287e-08
-1.61626e-08
1.32287e-06
-1.58623e-08
1.32282e-06
1.21166e-08
1.18724e-08
-1.56019e-08
1.32271e-06
-1.16898e-08
1.18448e-08
-1.60872e-08
1.32305e-06
1.17885e-08
-1.60057e-08
1.32329e-06
1.18383e-08
-1.61298e-08
1.32351e-06
1.19786e-08
-1.61383e-08
1.32372e-06
1.2193e-08
-1.61321e-08
1.3239e-06
1.24412e-08
-1.61222e-08
1.32402e-06
1.26739e-08
-1.60858e-08
1.32412e-06
1.28263e-08
-1.60515e-08
1.3242e-06
1.28239e-08
-1.60578e-08
1.32423e-06
1.26899e-08
-1.60898e-08
1.32422e-06
1.23997e-08
-1.61841e-08
1.32418e-06
1.21567e-08
-1.64668e-08
1.32412e-06
-1.64086e-08
1.32399e-06
1.19246e-08
1.17499e-08
-1.59164e-08
1.32386e-06
-1.16518e-08
1.17776e-08
-1.61724e-08
1.32424e-06
1.17716e-08
-1.58639e-08
1.32447e-06
1.18635e-08
-1.59322e-08
1.3247e-06
1.20237e-08
-1.59306e-08
1.32491e-06
1.22458e-08
-1.59373e-08
1.32509e-06
1.24875e-08
-1.59335e-08
1.32521e-06
1.26996e-08
-1.58903e-08
1.3253e-06
1.28156e-08
-1.58395e-08
1.32539e-06
1.27629e-08
-1.58025e-08
1.32541e-06
1.25744e-08
-1.58611e-08
1.3254e-06
1.22323e-08
-1.6024e-08
1.32536e-06
1.18682e-08
-1.6543e-08
1.32531e-06
-1.66495e-08
1.32517e-06
1.14852e-08
1.15839e-08
-1.61703e-08
1.32501e-06
-1.15906e-08
1.16726e-08
-1.62839e-08
1.32538e-06
1.1705e-08
-1.57685e-08
1.32563e-06
1.18458e-08
-1.57649e-08
1.32584e-06
1.20333e-08
-1.57355e-08
1.32606e-06
1.22693e-08
-1.57375e-08
1.32624e-06
1.2509e-08
-1.57179e-08
1.32636e-06
1.2709e-08
-1.56503e-08
1.32645e-06
1.27978e-08
-1.5569e-08
1.32653e-06
1.26979e-08
-1.54773e-08
1.32655e-06
1.24504e-08
-1.55448e-08
1.32653e-06
1.20428e-08
-1.57477e-08
1.3265e-06
1.15747e-08
-1.64498e-08
1.32643e-06
-1.65969e-08
1.32634e-06
1.09968e-08
1.14119e-08
-1.63711e-08
1.32612e-06
-1.15611e-08
1.15328e-08
-1.64452e-08
1.3265e-06
1.15854e-08
-1.57529e-08
1.32678e-06
1.17805e-08
-1.56806e-08
1.32698e-06
1.20184e-08
-1.56159e-08
1.32721e-06
1.23039e-08
-1.56039e-08
1.32739e-06
1.25862e-08
-1.55584e-08
1.3275e-06
1.28137e-08
-1.54548e-08
1.32758e-06
1.28956e-08
-1.53267e-08
1.32765e-06
1.27435e-08
-1.51574e-08
1.32767e-06
1.24233e-08
-1.52056e-08
1.32763e-06
1.19213e-08
-1.53836e-08
1.3276e-06
1.13179e-08
-1.62131e-08
1.32749e-06
-1.62606e-08
1.32742e-06
1.04896e-08
1.14673e-08
-1.66352e-08
1.3272e-06
-1.16376e-08
1.15742e-08
-1.66223e-08
1.32762e-06
1.16677e-08
-1.58583e-08
1.32786e-06
1.19157e-08
-1.57182e-08
1.32806e-06
1.21878e-08
-1.55902e-08
1.32829e-06
1.2478e-08
-1.55239e-08
1.32847e-06
1.27352e-08
-1.54217e-08
1.32858e-06
1.2918e-08
-1.52777e-08
1.32865e-06
1.29402e-08
-1.51169e-08
1.3287e-06
1.27118e-08
-1.48785e-08
1.32869e-06
1.2306e-08
-1.48865e-08
1.32865e-06
1.17294e-08
-1.49945e-08
1.32858e-06
1.10029e-08
-1.5893e-08
1.3285e-06
-1.5794e-08
1.32839e-06
1.00344e-08
1.15701e-08
-1.71663e-08
1.32823e-06
-1.16233e-08
1.16404e-08
-1.68445e-08
1.32868e-06
1.17732e-08
-1.61216e-08
1.32893e-06
1.20511e-08
-1.58998e-08
1.32917e-06
1.23402e-08
-1.56933e-08
1.32939e-06
1.26272e-08
-1.55501e-08
1.32956e-06
1.28642e-08
-1.53759e-08
1.32964e-06
1.29925e-08
-1.51754e-08
1.3297e-06
1.29235e-08
-1.49673e-08
1.32976e-06
1.25886e-08
-1.46589e-08
1.32974e-06
1.20786e-08
-1.46148e-08
1.32969e-06
1.14379e-08
-1.46437e-08
1.32957e-06
1.06305e-08
-1.55952e-08
1.32948e-06
-1.5444e-08
1.32925e-06
9.67289e-09
1.26036e-08
-1.81704e-08
1.32943e-06
-1.21579e-08
1.25657e-08
-1.68968e-08
1.3299e-06
1.2684e-08
-1.63355e-08
1.33001e-06
1.29133e-08
-1.60667e-08
1.33022e-06
1.30866e-08
-1.57546e-08
1.33043e-06
1.31699e-08
-1.54812e-08
1.33062e-06
1.31381e-08
-1.52006e-08
1.33071e-06
1.29536e-08
-1.49317e-08
1.33074e-06
1.25574e-08
-1.46761e-08
1.33074e-06
1.19255e-08
-1.4339e-08
1.33066e-06
1.11445e-08
-1.42812e-08
1.33059e-06
1.02618e-08
-1.42466e-08
1.33044e-06
9.28911e-09
-1.52658e-08
1.33045e-06
-1.58549e-08
1.33015e-06
9.02853e-09
1.3729e-08
1.33061e-06
-1.96404e-08
-1.3248e-08
1.30297e-08
1.33092e-06
-1.67175e-08
1.28773e-08
1.3311e-06
-1.65555e-08
1.29287e-08
1.33133e-06
-1.62762e-08
1.302e-08
1.33149e-06
-1.58874e-08
1.30252e-08
1.33158e-06
-1.54532e-08
1.28923e-08
1.33161e-06
-1.50346e-08
1.26268e-08
1.33163e-06
-1.47262e-08
1.22212e-08
1.33167e-06
-1.44919e-08
1.16577e-08
1.33161e-06
-1.41983e-08
1.09288e-08
1.33153e-06
-1.41236e-08
9.97808e-09
1.33133e-06
-1.39622e-08
8.45145e-09
1.33135e-06
-1.46147e-08
1.33107e-06
7.54368e-09
-1.59082e-08
1.33782e-08
-4.256e-10
1.2364e-06
1.11125e-09
-1.47403e-08
1.3336e-08
-1.06141e-10
1.23612e-06
-3.03024e-10
1.32673e-08
-1.11821e-09
1.23604e-06
8.39985e-10
1.32464e-08
-9.42613e-10
1.23601e-06
7.27109e-10
1.31725e-08
-7.24424e-10
1.23592e-06
6.15397e-10
1.30226e-08
-4.78839e-10
1.23579e-06
4.46247e-10
1.28602e-08
-2.44895e-10
1.2356e-06
2.01921e-10
1.27432e-08
5.02398e-11
1.2354e-06
-1.45149e-10
1.2664e-08
3.67448e-10
1.2352e-06
-5.73298e-10
1.26764e-08
5.58815e-10
1.2349e-06
-1.00576e-09
1.28504e-08
9.73429e-10
1.23455e-06
-1.72454e-09
1.31608e-08
1.20969e-09
1.23406e-06
-2.25887e-09
1.37741e-08
3.08429e-09
1.23366e-06
-4.58251e-09
2.48496e-09
1.23329e-06
-3.61759e-09
1.36979e-08
1.40898e-08
2.47163e-10
1.23701e-06
-1.50072e-08
1.39122e-08
-1.69772e-11
1.23677e-06
1.36253e-08
-8.98114e-10
1.23669e-06
1.35219e-08
-8.12657e-10
1.23665e-06
1.35339e-08
-6.55274e-10
1.23658e-06
1.35663e-08
-4.52026e-10
1.23648e-06
1.36458e-08
-2.5954e-10
1.2363e-06
1.3755e-08
-3.90252e-12
1.23604e-06
1.37895e-08
2.61593e-10
1.23575e-06
1.37522e-08
3.79596e-10
1.23535e-06
1.36353e-08
7.33894e-10
1.23496e-06
1.34123e-08
9.30619e-10
1.23444e-06
1.34714e-08
2.40924e-09
1.23402e-06
2.23351e-09
1.23372e-06
1.2762e-08
1.28975e-08
4.47483e-10
1.23757e-06
-1.32238e-08
1.30044e-08
-1.18858e-10
1.23736e-06
1.29934e-08
-8.1554e-10
1.23742e-06
1.31344e-08
-7.9241e-10
1.23738e-06
1.33513e-08
-6.52776e-10
1.23732e-06
1.35605e-08
-4.56919e-10
1.23719e-06
1.38151e-08
-2.89785e-10
1.23698e-06
1.41251e-08
-9.50593e-11
1.23674e-06
1.43833e-08
9.10223e-11
1.23648e-06
1.45623e-08
1.37205e-10
1.23612e-06
1.46892e-08
3.88583e-10
1.2357e-06
1.4719e-08
5.19523e-10
1.23521e-06
1.50068e-08
1.58439e-09
1.23458e-06
1.79432e-09
1.23434e-06
1.456e-08
1.30415e-08
5.92531e-10
1.23821e-06
-1.31402e-08
1.31266e-08
-7.17445e-12
1.23805e-06
1.31136e-08
-5.37322e-10
1.2381e-06
1.32391e-08
-5.72551e-10
1.23801e-06
1.34638e-08
-4.86971e-10
1.23795e-06
1.37163e-08
-3.39089e-10
1.23781e-06
1.40362e-08
-2.22829e-10
1.23761e-06
1.44012e-08
-8.18269e-11
1.23736e-06
1.4685e-08
5.87684e-11
1.23707e-06
1.48407e-08
8.60453e-11
1.2367e-06
1.49168e-08
2.60062e-10
1.23627e-06
1.48356e-08
3.74556e-10
1.23581e-06
1.49538e-08
1.06373e-09
1.23519e-06
1.41371e-09
1.23492e-06
1.46115e-08
1.30341e-08
6.01401e-10
1.23875e-06
-1.28912e-08
1.31452e-08
1.82327e-10
1.23865e-06
1.31726e-08
-1.81945e-10
1.23872e-06
1.33179e-08
-2.51556e-10
1.23864e-06
1.35575e-08
-2.15065e-10
1.23857e-06
1.38229e-08
-1.13193e-10
1.23844e-06
1.41458e-08
-3.78174e-11
1.23822e-06
1.45093e-08
5.75547e-11
1.23797e-06
1.47982e-08
1.50384e-10
1.23768e-06
1.49608e-08
1.59608e-10
1.23732e-06
1.5035e-08
2.59541e-10
1.23688e-06
1.49644e-08
3.37319e-10
1.23645e-06
1.50137e-08
7.07548e-10
1.23582e-06
9.50087e-10
1.23545e-06
1.48902e-08
1.30623e-08
5.98715e-10
1.23924e-06
-1.28223e-08
1.32211e-08
4.28543e-10
1.23922e-06
1.32853e-08
2.38289e-10
1.23927e-06
1.34377e-08
1.68399e-10
1.23919e-06
1.36677e-08
1.69472e-10
1.23912e-06
1.39215e-08
2.23454e-10
1.23898e-06
1.42318e-08
2.56769e-10
1.23876e-06
1.45775e-08
3.12104e-10
1.23851e-06
1.484e-08
3.66446e-10
1.23822e-06
1.49705e-08
3.63183e-10
1.23786e-06
1.50045e-08
3.96996e-10
1.23743e-06
1.49221e-08
4.01249e-10
1.23698e-06
1.49101e-08
5.03322e-10
1.23641e-06
5.01312e-10
1.23592e-06
1.48604e-08
1.29953e-08
5.82574e-10
1.2397e-06
-1.27187e-08
1.32072e-08
6.65465e-10
1.23976e-06
1.33239e-08
6.5293e-10
1.23977e-06
1.35023e-08
6.14794e-10
1.23972e-06
1.37405e-08
6.00209e-10
1.23964e-06
1.39939e-08
6.14058e-10
1.2395e-06
1.42947e-08
6.14516e-10
1.23928e-06
1.46253e-08
6.39563e-10
1.23903e-06
1.48677e-08
6.65435e-10
1.23874e-06
1.49801e-08
6.53088e-10
1.23838e-06
1.49875e-08
6.31413e-10
1.23795e-06
1.49062e-08
5.32088e-10
1.23749e-06
1.48608e-08
4.02013e-10
1.23697e-06
1.23545e-10
1.23642e-06
1.4796e-08
1.29126e-08
6.08866e-10
1.24015e-06
-1.26867e-08
1.31633e-08
8.81813e-10
1.24021e-06
1.33128e-08
1.05008e-09
1.24023e-06
1.35154e-08
1.05782e-09
1.24018e-06
1.37669e-08
1.03972e-09
1.2401e-06
1.40271e-08
1.0185e-09
1.23997e-06
1.43256e-08
9.94326e-10
1.23975e-06
1.46436e-08
9.98544e-10
1.23949e-06
1.48623e-08
1.00827e-09
1.2392e-06
1.49398e-08
1.00029e-09
1.23884e-06
1.49075e-08
9.29744e-10
1.23842e-06
1.47815e-08
7.31476e-10
1.23796e-06
1.4708e-08
3.64376e-10
1.23744e-06
-1.39986e-10
1.23691e-06
1.45456e-08
1.28147e-08
6.57795e-10
1.24058e-06
-1.26513e-08
1.31091e-08
1.03524e-09
1.24059e-06
1.3269e-08
1.40437e-09
1.24065e-06
1.34906e-08
1.45786e-09
1.24058e-06
1.37516e-08
1.44725e-09
1.24051e-06
1.40159e-08
1.39898e-09
1.24037e-06
1.43095e-08
1.35948e-09
1.24015e-06
1.46107e-08
1.34801e-09
1.23989e-06
1.48045e-08
1.34422e-09
1.2396e-06
1.48451e-08
1.34923e-09
1.23924e-06
1.47796e-08
1.22815e-09
1.23881e-06
1.4585e-08
9.72971e-10
1.23838e-06
1.44901e-08
3.5038e-10
1.23782e-06
-2.57244e-10
1.2374e-06
1.41716e-08
1.263e-08
7.79708e-10
1.24095e-06
-1.25963e-08
1.29534e-08
1.12352e-09
1.24093e-06
1.31209e-08
1.69257e-09
1.24104e-06
1.33834e-08
1.76271e-09
1.24096e-06
1.36796e-08
1.76014e-09
1.24089e-06
1.39795e-08
1.68932e-09
1.24075e-06
1.43036e-08
1.63955e-09
1.24053e-06
1.46176e-08
1.61398e-09
1.24026e-06
1.48146e-08
1.59848e-09
1.23997e-06
1.48413e-08
1.62776e-09
1.23961e-06
1.47556e-08
1.46861e-09
1.23917e-06
1.44833e-08
1.22518e-09
1.23875e-06
1.43258e-08
3.67598e-10
1.23816e-06
-1.56063e-10
1.23782e-06
1.37313e-08
1.26893e-08
9.1445e-10
1.24127e-06
-1.27455e-08
1.30218e-08
1.14373e-09
1.24125e-06
1.31911e-08
1.89389e-09
1.24134e-06
1.34652e-08
1.96331e-09
1.24125e-06
1.37441e-08
1.97956e-09
1.24119e-06
1.40275e-08
1.90123e-09
1.24104e-06
1.4328e-08
1.8534e-09
1.24082e-06
1.45856e-08
1.81642e-09
1.24055e-06
1.47273e-08
1.79026e-09
1.24024e-06
1.47027e-08
1.84926e-09
1.23986e-06
1.45636e-08
1.67522e-09
1.23943e-06
1.42174e-08
1.48511e-09
1.23899e-06
1.39955e-08
4.05407e-10
1.23844e-06
9.25842e-11
1.23813e-06
1.31639e-08
1.26241e-08
9.62172e-10
1.2415e-06
-1.2725e-08
1.2977e-08
1.06151e-09
1.24148e-06
1.31787e-08
1.96257e-09
1.24159e-06
1.34864e-08
2.01126e-09
1.24153e-06
1.37526e-08
2.06009e-09
1.24146e-06
1.40063e-08
2.003e-09
1.24131e-06
1.42634e-08
1.97532e-09
1.24106e-06
1.44409e-08
1.93617e-09
1.24078e-06
1.45144e-08
1.90016e-09
1.24049e-06
1.44457e-08
1.98539e-09
1.24012e-06
1.42717e-08
1.8212e-09
1.23969e-06
1.38957e-08
1.70341e-09
1.23922e-06
1.36642e-08
4.0881e-10
1.23866e-06
3.40177e-10
1.23831e-06
1.27094e-08
1.37803e-08
7.40238e-10
1.24185e-06
-1.37887e-08
1.38919e-08
1.14009e-09
1.24181e-06
1.39792e-08
2.07337e-09
1.24177e-06
1.41598e-08
2.081e-09
1.24171e-06
1.42596e-08
2.1853e-09
1.24162e-06
1.43198e-08
2.18369e-09
1.24149e-06
1.43412e-08
2.20411e-09
1.24126e-06
1.42331e-08
2.19885e-09
1.24095e-06
1.39902e-08
2.19168e-09
1.2406e-06
1.36092e-08
2.29944e-09
1.24016e-06
1.31179e-08
2.14659e-09
1.23974e-06
1.24765e-08
2.06995e-09
1.23924e-06
1.2056e-08
5.11889e-10
1.23884e-06
4.02491e-10
1.23847e-06
1.11834e-08
1.40793e-08
1.24227e-06
2.49792e-10
-1.41241e-08
1.37476e-08
1.24211e-06
1.30825e-09
1.37646e-08
1.24212e-06
1.95466e-09
1.38901e-08
1.24205e-06
1.90069e-09
1.39574e-08
1.24189e-06
2.08807e-09
1.39433e-08
1.24167e-06
2.22104e-09
1.38018e-08
1.24138e-06
2.33171e-09
1.35543e-08
1.2411e-06
2.33249e-09
1.32599e-08
1.24082e-06
2.24775e-09
1.2947e-08
1.24047e-06
2.20842e-09
1.264e-08
1.24006e-06
1.89737e-09
1.22919e-08
1.23956e-06
1.71416e-09
1.19283e-08
1.23917e-06
1.14322e-10
1.23876e-06
1.11635e-08
9.89181e-11
1.0937e-08
6.83512e-09
1.16166e-06
-6.54722e-09
-1.14403e-08
1.10725e-08
7.05672e-09
1.16143e-06
-7.3224e-09
1.11048e-08
6.28751e-09
1.16129e-06
-6.36534e-09
1.10986e-08
6.49084e-09
1.16121e-06
-6.50272e-09
1.09915e-08
6.66478e-09
1.16105e-06
-6.57332e-09
1.07738e-08
6.83936e-09
1.16084e-06
-6.65422e-09
1.0482e-08
6.94345e-09
1.16056e-06
-6.71491e-09
1.01559e-08
7.0891e-09
1.16026e-06
-6.85911e-09
9.83556e-09
7.22717e-09
1.15996e-06
-7.04303e-09
9.58945e-09
7.23123e-09
1.15956e-06
-7.18702e-09
9.47304e-09
7.4294e-09
1.15912e-06
-7.59458e-09
9.44468e-09
7.44006e-09
1.15853e-06
-7.7976e-09
9.74067e-09
9.02762e-09
1.15809e-06
-9.85342e-09
8.21789e-09
1.15751e-06
-9.02403e-09
9.89943e-09
1.14999e-08
7.16913e-09
1.16188e-06
-1.18988e-08
1.14246e-08
7.15637e-09
1.16166e-06
1.12384e-08
6.52773e-09
1.16155e-06
1.11565e-08
6.64497e-09
1.16146e-06
1.11068e-08
6.78745e-09
1.16133e-06
1.10518e-08
6.94518e-09
1.16115e-06
1.09708e-08
7.03745e-09
1.1609e-06
1.08576e-08
7.1704e-09
1.16056e-06
1.06979e-08
7.30336e-09
1.16017e-06
1.04892e-08
7.2817e-09
1.15968e-06
1.02152e-08
7.46189e-09
1.15919e-06
9.82119e-09
7.47522e-09
1.15856e-06
9.66712e-09
8.68878e-09
1.15806e-06
8.32043e-09
1.15749e-06
9.0095e-09
1.06006e-08
7.26938e-09
1.16209e-06
-1.07211e-08
1.07169e-08
7.11337e-09
1.16191e-06
1.07386e-08
6.62834e-09
1.16192e-06
1.08175e-08
6.70574e-09
1.16181e-06
1.09139e-08
6.83765e-09
1.16167e-06
1.09904e-08
7.00273e-09
1.16146e-06
1.10401e-08
7.097e-09
1.16116e-06
1.10813e-08
7.20489e-09
1.16082e-06
1.11111e-08
7.30472e-09
1.16046e-06
1.10872e-08
7.26729e-09
1.16001e-06
1.10173e-08
7.40549e-09
1.15948e-06
1.08156e-08
7.43866e-09
1.15888e-06
1.08029e-08
8.30152e-09
1.15819e-06
8.30566e-09
1.15767e-06
1.03755e-08
1.08137e-08
7.34866e-09
1.16233e-06
-1.08317e-08
1.08633e-08
7.21185e-09
1.16217e-06
1.08389e-08
6.84274e-09
1.16216e-06
1.08807e-08
6.86833e-09
1.16202e-06
1.09667e-08
6.96197e-09
1.16188e-06
1.10635e-08
7.0963e-09
1.16167e-06
1.11538e-08
7.1687e-09
1.16138e-06
1.12318e-08
7.25366e-09
1.16103e-06
1.12821e-08
7.33594e-09
1.16064e-06
1.12483e-08
7.31156e-09
1.16017e-06
1.11596e-08
7.41471e-09
1.15963e-06
1.09209e-08
7.48811e-09
1.15906e-06
1.08071e-08
8.05994e-09
1.15837e-06
8.23991e-09
1.15784e-06
1.04678e-08
1.09346e-08
7.35938e-09
1.16248e-06
-1.08398e-08
1.09736e-08
7.35173e-09
1.16237e-06
1.09446e-08
7.08932e-09
1.16237e-06
1.09671e-08
7.08091e-09
1.16223e-06
1.10427e-08
7.13676e-09
1.16208e-06
1.11355e-08
7.23227e-09
1.16186e-06
1.12238e-08
7.2804e-09
1.16156e-06
1.12993e-08
7.34288e-09
1.16121e-06
1.13496e-08
7.40379e-09
1.16082e-06
1.13169e-08
7.39182e-09
1.16035e-06
1.12273e-08
7.45897e-09
1.1598e-06
1.10302e-08
7.53321e-09
1.15924e-06
1.0886e-08
7.88272e-09
1.15854e-06
8.00716e-09
1.15793e-06
1.07252e-08
1.10487e-08
7.34466e-09
1.16253e-06
-1.08869e-08
1.10984e-08
7.51216e-09
1.16249e-06
1.10763e-08
7.3622e-09
1.16246e-06
1.10773e-08
7.34966e-09
1.16232e-06
1.11296e-08
7.37277e-09
1.16216e-06
1.12048e-08
7.42382e-09
1.16195e-06
1.12787e-08
7.44108e-09
1.16164e-06
1.13403e-08
7.47701e-09
1.16129e-06
1.13732e-08
7.5166e-09
1.1609e-06
1.13268e-08
7.51112e-09
1.16043e-06
1.12187e-08
7.54631e-09
1.15988e-06
1.10529e-08
7.56895e-09
1.15931e-06
1.0888e-08
7.75102e-09
1.15865e-06
7.68116e-09
1.15797e-06
1.08041e-08
1.11025e-08
7.3147e-09
1.16256e-06
-1.09093e-08
1.11625e-08
7.67507e-09
1.16257e-06
1.11565e-08
7.64324e-09
1.16252e-06
1.11526e-08
7.649e-09
1.1624e-06
1.11891e-08
7.64526e-09
1.16223e-06
1.12531e-08
7.64858e-09
1.16201e-06
1.13165e-08
7.63328e-09
1.16171e-06
1.13679e-08
7.63837e-09
1.16135e-06
1.13899e-08
7.65332e-09
1.16095e-06
1.13419e-08
7.6431e-09
1.16048e-06
1.12275e-08
7.64941e-09
1.15994e-06
1.10892e-08
7.5829e-09
1.15935e-06
1.0931e-08
7.61847e-09
1.15872e-06
7.308e-09
1.15801e-06
1.0872e-08
1.10882e-08
7.29992e-09
1.16254e-06
-1.09204e-08
1.11585e-08
7.8212e-09
1.16254e-06
1.11575e-08
7.92429e-09
1.16249e-06
1.11571e-08
7.95079e-09
1.16238e-06
1.11951e-08
7.9178e-09
1.16221e-06
1.12622e-08
7.86724e-09
1.162e-06
1.13263e-08
7.81454e-09
1.16169e-06
1.13758e-08
7.78369e-09
1.16133e-06
1.1392e-08
7.77278e-09
1.16093e-06
1.13346e-08
7.75792e-09
1.16046e-06
1.12113e-08
7.73318e-09
1.15992e-06
1.10546e-08
7.58171e-09
1.15934e-06
1.09145e-08
7.43954e-09
1.1587e-06
6.91345e-09
1.15803e-06
1.08382e-08
1.10453e-08
7.28809e-09
1.16249e-06
-1.09292e-08
1.11318e-08
7.89174e-09
1.16243e-06
1.11104e-08
8.15724e-09
1.16242e-06
1.11043e-08
8.18612e-09
1.16228e-06
1.1144e-08
8.12147e-09
1.16212e-06
1.12116e-08
8.01843e-09
1.1619e-06
1.12735e-08
7.92787e-09
1.16159e-06
1.13206e-08
7.85812e-09
1.16123e-06
1.13356e-08
7.81922e-09
1.16083e-06
1.12692e-08
7.80933e-09
1.16036e-06
1.11482e-08
7.74463e-09
1.15981e-06
1.09515e-08
7.55422e-09
1.15926e-06
1.0841e-08
7.17839e-09
1.15858e-06
6.53386e-09
1.15803e-06
1.07128e-08
1.08374e-08
7.37261e-09
1.16236e-06
-1.08511e-08
1.09397e-08
7.91798e-09
1.16225e-06
1.09139e-08
8.33691e-09
1.16229e-06
1.0937e-08
8.3189e-09
1.16213e-06
1.10179e-08
8.20494e-09
1.16198e-06
1.11165e-08
8.06021e-09
1.16176e-06
1.12048e-08
7.94352e-09
1.16145e-06
1.12812e-08
7.8408e-09
1.16109e-06
1.13348e-08
7.771e-09
1.16069e-06
1.13036e-08
7.77113e-09
1.16023e-06
1.12244e-08
7.65492e-09
1.15967e-06
1.09998e-08
7.48214e-09
1.15913e-06
1.08926e-08
6.84706e-09
1.15841e-06
6.28349e-09
1.15796e-06
1.0578e-08
1.08479e-08
7.6037e-09
1.16218e-06
-1.10111e-08
1.09471e-08
7.94636e-09
1.16205e-06
1.09043e-08
8.5465e-09
1.16207e-06
1.09217e-08
8.47591e-09
1.1619e-06
1.09806e-08
8.33901e-09
1.16175e-06
1.10566e-08