/*--------------------------------*- C++ -*----------------------------------*\
| =========                 |                                                 |
| \\      /  F ield         | OpenFOAM: The Open Source CFD Toolbox           |
|  \\    /   O peration     | Version:  v2106                                 |
|   \\  /    A nd           | Website:  www.openfoam.com                      |
|    \\/     M anipulation  |                                                 |
\*---------------------------------------------------------------------------*/
FoamFile
{
    version     2.0;
    format      ascii;
    arch        "LSB;label=32;scalar=64";
    class       volScalarField;
    location    "0.000171";
    object      alphat;
}
// * * * * * * * * * * * * * * * * * * * * * * * * * * * * * * * * * * * * * //

dimensions      [1 -1 -1 0 0 0 0];

internalField   nonuniform List<scalar> 
17924
(
9.85252e-17
9.85194e-17
9.85121e-17
9.85019e-17
9.84923e-17
9.84869e-17
9.84784e-17
9.84683e-17
9.84558e-17
9.84416e-17
9.84254e-17
9.84778e-17
9.84734e-17
9.84646e-17
9.84544e-17
9.84418e-17
9.84278e-17
9.84115e-17
9.84664e-17
9.84613e-17
9.84512e-17
9.84405e-17
9.84276e-17
9.84136e-17
9.83977e-17
9.84555e-17
9.84485e-17
9.8438e-17
9.84271e-17
9.84142e-17
9.84003e-17
9.83844e-17
9.84452e-17
9.84366e-17
9.84256e-17
9.84144e-17
9.84014e-17
9.83873e-17
9.83715e-17
9.84351e-17
9.84251e-17
9.84138e-17
9.84021e-17
9.83888e-17
9.83744e-17
9.83584e-17
9.84258e-17
9.84146e-17
9.84028e-17
9.83905e-17
9.83767e-17
9.83617e-17
9.83453e-17
9.84164e-17
9.84041e-17
9.83916e-17
9.83784e-17
9.83639e-17
9.83483e-17
9.83314e-17
9.84081e-17
9.83947e-17
9.83813e-17
9.8367e-17
9.83515e-17
9.83351e-17
9.83174e-17
9.83986e-17
9.8384e-17
9.83695e-17
9.83541e-17
9.83377e-17
9.83204e-17
9.83021e-17
9.83906e-17
9.83744e-17
9.83587e-17
9.83421e-17
9.83244e-17
9.83059e-17
9.82863e-17
9.83796e-17
9.83622e-17
9.83454e-17
9.83277e-17
9.83089e-17
9.82894e-17
9.8269e-17
9.83683e-17
9.83503e-17
9.83326e-17
9.83137e-17
9.82936e-17
9.82728e-17
9.82508e-17
9.83533e-17
9.83342e-17
9.83158e-17
9.82961e-17
9.82751e-17
9.82534e-17
9.82306e-17
9.84011e-17
9.83939e-17
9.83835e-17
9.83723e-17
9.83593e-17
9.83452e-17
9.83295e-17
9.83122e-17
9.82929e-17
9.82719e-17
9.82491e-17
9.82237e-17
9.81974e-17
9.81665e-17
9.83827e-17
9.83751e-17
9.83638e-17
9.8352e-17
9.83383e-17
9.83236e-17
9.8307e-17
9.82888e-17
9.82685e-17
9.82465e-17
9.82229e-17
9.81971e-17
9.81705e-17
9.81419e-17
9.83645e-17
9.83564e-17
9.83437e-17
9.83309e-17
9.83165e-17
9.83013e-17
9.82843e-17
9.82659e-17
9.82456e-17
9.82236e-17
9.82e-17
9.81746e-17
9.81488e-17
9.81212e-17
9.83459e-17
9.83365e-17
9.8323e-17
9.83097e-17
9.82947e-17
9.82789e-17
9.82613e-17
9.82423e-17
9.82214e-17
9.8199e-17
9.81753e-17
9.815e-17
9.81245e-17
9.80974e-17
9.83268e-17
9.8316e-17
9.83021e-17
9.82881e-17
9.82725e-17
9.82561e-17
9.8238e-17
9.82186e-17
9.81976e-17
9.81751e-17
9.81515e-17
9.81264e-17
9.81012e-17
9.80745e-17
9.83071e-17
9.82949e-17
9.82805e-17
9.82658e-17
9.82496e-17
9.82325e-17
9.82138e-17
9.81939e-17
9.81725e-17
9.81499e-17
9.81262e-17
9.81014e-17
9.80764e-17
9.80503e-17
9.82871e-17
9.82736e-17
9.82587e-17
9.82431e-17
9.82262e-17
9.82083e-17
9.8189e-17
9.81686e-17
9.8147e-17
9.81244e-17
9.81008e-17
9.80764e-17
9.80517e-17
9.80265e-17
9.82653e-17
9.82505e-17
9.82352e-17
9.82187e-17
9.82012e-17
9.81826e-17
9.81629e-17
9.81421e-17
9.81202e-17
9.80975e-17
9.80738e-17
9.80498e-17
9.80252e-17
9.80011e-17
9.82437e-17
9.82277e-17
9.82115e-17
9.81941e-17
9.81758e-17
9.81564e-17
9.8136e-17
9.81146e-17
9.80923e-17
9.80695e-17
9.80458e-17
9.80222e-17
9.7998e-17
9.79754e-17
9.82197e-17
9.82023e-17
9.81855e-17
9.81672e-17
9.81483e-17
9.81282e-17
9.81074e-17
9.80857e-17
9.80632e-17
9.80403e-17
9.80164e-17
9.79932e-17
9.7969e-17
9.7948e-17
9.81962e-17
9.81774e-17
9.81598e-17
9.81404e-17
9.81206e-17
9.80996e-17
9.8078e-17
9.80555e-17
9.80324e-17
9.80091e-17
9.79852e-17
9.79624e-17
9.79385e-17
9.79195e-17
9.81691e-17
9.81491e-17
9.81308e-17
9.81106e-17
9.809e-17
9.80686e-17
9.80465e-17
9.80239e-17
9.80006e-17
9.79774e-17
9.79535e-17
9.79309e-17
9.79067e-17
9.78888e-17
9.81431e-17
9.8122e-17
9.81027e-17
9.80816e-17
9.80599e-17
9.80375e-17
9.80142e-17
9.79905e-17
9.79662e-17
9.79423e-17
9.79181e-17
9.78953e-17
9.78713e-17
9.78543e-17
9.81097e-17
9.8089e-17
9.80689e-17
9.80477e-17
9.80256e-17
9.8003e-17
9.79798e-17
9.79564e-17
9.79324e-17
9.79088e-17
9.7885e-17
9.78622e-17
9.78383e-17
9.78189e-17
9.82392e-17
9.82284e-17
9.8215e-17
9.82023e-17
9.81892e-17
9.8176e-17
9.81621e-17
9.81477e-17
9.81322e-17
9.81159e-17
9.80982e-17
9.80795e-17
9.80591e-17
9.80366e-17
9.82147e-17
9.82043e-17
9.81898e-17
9.81763e-17
9.81621e-17
9.81477e-17
9.81324e-17
9.81164e-17
9.80995e-17
9.80819e-17
9.80631e-17
9.80431e-17
9.80222e-17
9.79993e-17
9.81899e-17
9.81786e-17
9.81628e-17
9.81484e-17
9.81331e-17
9.8118e-17
9.8102e-17
9.80855e-17
9.80681e-17
9.805e-17
9.8031e-17
9.80106e-17
9.79899e-17
9.79677e-17
9.81643e-17
9.81519e-17
9.81355e-17
9.81203e-17
9.81042e-17
9.80881e-17
9.80711e-17
9.80537e-17
9.80354e-17
9.80166e-17
9.7997e-17
9.79761e-17
9.79553e-17
9.79334e-17
9.81376e-17
9.81238e-17
9.8107e-17
9.8091e-17
9.80741e-17
9.80572e-17
9.80396e-17
9.80216e-17
9.80029e-17
9.79837e-17
9.7964e-17
9.79432e-17
9.79224e-17
9.79008e-17
9.81096e-17
9.80944e-17
9.80774e-17
9.80607e-17
9.80432e-17
9.80256e-17
9.80073e-17
9.79887e-17
9.79696e-17
9.795e-17
9.79301e-17
9.79095e-17
9.78888e-17
9.78676e-17
9.80806e-17
9.80642e-17
9.80468e-17
9.80294e-17
9.80114e-17
9.79931e-17
9.79743e-17
9.79553e-17
9.79359e-17
9.79163e-17
9.78964e-17
9.78763e-17
9.78561e-17
9.78359e-17
9.80491e-17
9.80318e-17
9.80144e-17
9.79964e-17
9.79782e-17
9.79594e-17
9.79403e-17
9.7921e-17
9.79015e-17
9.78818e-17
9.7862e-17
9.78423e-17
9.78226e-17
9.78036e-17
9.80171e-17
9.79988e-17
9.79813e-17
9.79628e-17
9.79442e-17
9.7925e-17
9.79057e-17
9.78861e-17
9.78665e-17
9.7847e-17
9.78274e-17
9.78085e-17
9.77896e-17
9.77723e-17
9.79826e-17
9.79636e-17
9.7946e-17
9.79272e-17
9.79085e-17
9.78892e-17
9.78698e-17
9.78503e-17
9.78308e-17
9.78115e-17
9.77922e-17
9.77741e-17
9.77558e-17
9.77405e-17
9.79486e-17
9.79286e-17
9.79109e-17
9.78916e-17
9.78726e-17
9.78529e-17
9.78334e-17
9.78138e-17
9.77944e-17
9.77753e-17
9.77566e-17
9.77395e-17
9.77223e-17
9.77094e-17
9.79114e-17
9.78906e-17
9.7873e-17
9.78536e-17
9.78346e-17
9.7815e-17
9.77957e-17
9.77764e-17
9.77574e-17
9.77389e-17
9.77206e-17
9.77043e-17
9.76878e-17
9.7677e-17
9.78762e-17
9.78549e-17
9.78367e-17
9.7817e-17
9.77973e-17
9.77774e-17
9.77576e-17
9.7738e-17
9.7719e-17
9.77009e-17
9.76833e-17
9.76679e-17
9.76524e-17
9.76434e-17
9.78323e-17
9.78135e-17
9.7795e-17
9.77761e-17
9.77568e-17
9.77376e-17
9.77184e-17
9.76995e-17
9.76813e-17
9.7664e-17
9.76472e-17
9.76322e-17
9.76176e-17
9.76084e-17
9.80123e-17
9.79992e-17
9.79845e-17
9.79719e-17
9.796e-17
9.7949e-17
9.79387e-17
9.79289e-17
9.79194e-17
9.79099e-17
9.79001e-17
9.78905e-17
9.78803e-17
9.78717e-17
9.79815e-17
9.79705e-17
9.79551e-17
9.79417e-17
9.79286e-17
9.79164e-17
9.79047e-17
9.78936e-17
9.78829e-17
9.78723e-17
9.78615e-17
9.78506e-17
9.78401e-17
9.78288e-17
9.79511e-17
9.79391e-17
9.7923e-17
9.79091e-17
9.78952e-17
9.78825e-17
9.78701e-17
9.78583e-17
9.7847e-17
9.78359e-17
9.78249e-17
9.78136e-17
9.78033e-17
9.77915e-17
9.79198e-17
9.79071e-17
9.78907e-17
9.78763e-17
9.78618e-17
9.78483e-17
9.78351e-17
9.78226e-17
9.78107e-17
9.7799e-17
9.77875e-17
9.77759e-17
9.77651e-17
9.77525e-17
9.78879e-17
9.7874e-17
9.78574e-17
9.78425e-17
9.78275e-17
9.78134e-17
9.77998e-17
9.77869e-17
9.77745e-17
9.77626e-17
9.7751e-17
9.77395e-17
9.77287e-17
9.77164e-17
9.78546e-17
9.78397e-17
9.78233e-17
9.7808e-17
9.77927e-17
9.77782e-17
9.77643e-17
9.77511e-17
9.77385e-17
9.77263e-17
9.77147e-17
9.77033e-17
9.76922e-17
9.76805e-17
9.78209e-17
9.7805e-17
9.77887e-17
9.77729e-17
9.77575e-17
9.77428e-17
9.77287e-17
9.77154e-17
9.77027e-17
9.76906e-17
9.7679e-17
9.7668e-17
9.76574e-17
9.76467e-17
9.77854e-17
9.77689e-17
9.7753e-17
9.77372e-17
9.77219e-17
9.77071e-17
9.76931e-17
9.76798e-17
9.76672e-17
9.76552e-17
9.76438e-17
9.76332e-17
9.7623e-17
9.76134e-17
9.77498e-17
9.77327e-17
9.77172e-17
9.77013e-17
9.76862e-17
9.76715e-17
9.76577e-17
9.76445e-17
9.76321e-17
9.76204e-17
9.76096e-17
9.75996e-17
9.759e-17
9.7582e-17
9.77126e-17
9.76954e-17
9.76805e-17
9.76648e-17
9.76501e-17
9.76357e-17
9.76222e-17
9.76093e-17
9.75972e-17
9.7586e-17
9.75757e-17
9.75665e-17
9.75573e-17
9.75509e-17
9.76763e-17
9.76587e-17
9.76443e-17
9.76288e-17
9.76143e-17
9.76003e-17
9.75871e-17
9.75746e-17
9.75629e-17
9.75522e-17
9.75426e-17
9.75344e-17
9.75262e-17
9.75219e-17
9.76384e-17
9.76206e-17
9.76068e-17
9.75918e-17
9.75779e-17
9.75644e-17
9.75519e-17
9.754e-17
9.7529e-17
9.75188e-17
9.75098e-17
9.75023e-17
9.74949e-17
9.74929e-17
9.76024e-17
9.75853e-17
9.75712e-17
9.75564e-17
9.75426e-17
9.75293e-17
9.75171e-17
9.75056e-17
9.74952e-17
9.74857e-17
9.74775e-17
9.74708e-17
9.74649e-17
9.74655e-17
9.75602e-17
9.75461e-17
9.75321e-17
9.75187e-17
9.75057e-17
9.74936e-17
9.74823e-17
9.74717e-17
9.74623e-17
9.74537e-17
9.74461e-17
9.74398e-17
9.74348e-17
9.7436e-17
9.77376e-17
9.77265e-17
9.77144e-17
9.77053e-17
9.76971e-17
9.76902e-17
9.76845e-17
9.76799e-17
9.76764e-17
9.76744e-17
9.76734e-17
9.76727e-17
9.76734e-17
9.76738e-17
9.77042e-17
9.76959e-17
9.76838e-17
9.76741e-17
9.76653e-17
9.76579e-17
9.76517e-17
9.76465e-17
9.76426e-17
9.764e-17
9.76383e-17
9.76364e-17
9.7637e-17
9.76337e-17
9.76722e-17
9.76637e-17
9.76513e-17
9.76414e-17
9.76324e-17
9.76248e-17
9.76182e-17
9.76128e-17
9.76086e-17
9.76056e-17
9.76034e-17
9.76012e-17
9.76022e-17
9.75986e-17
9.76398e-17
9.76308e-17
9.76186e-17
9.76086e-17
9.75994e-17
9.75917e-17
9.75849e-17
9.75793e-17
9.75749e-17
9.75716e-17
9.75691e-17
9.75667e-17
9.7567e-17
9.75634e-17
9.76079e-17
9.7598e-17
9.75859e-17
9.75758e-17
9.75665e-17
9.75586e-17
9.75516e-17
9.75459e-17
9.75414e-17
9.75381e-17
9.75356e-17
9.75336e-17
9.75333e-17
9.75304e-17
9.75753e-17
9.75646e-17
9.75531e-17
9.7543e-17
9.75338e-17
9.75258e-17
9.75188e-17
9.75132e-17
9.75087e-17
9.75054e-17
9.75031e-17
9.75013e-17
9.75004e-17
9.74982e-17
9.75431e-17
9.75318e-17
9.75208e-17
9.75107e-17
9.75016e-17
9.74936e-17
9.74868e-17
9.74812e-17
9.74769e-17
9.74738e-17
9.74717e-17
9.74703e-17
9.74692e-17
9.7468e-17
9.75108e-17
9.74991e-17
9.74885e-17
9.74787e-17
9.747e-17
9.74622e-17
9.74557e-17
9.74504e-17
9.74463e-17
9.74433e-17
9.74413e-17
9.74401e-17
9.7439e-17
9.74388e-17
9.7479e-17
9.74669e-17
9.74568e-17
9.74474e-17
9.74391e-17
9.74318e-17
9.74257e-17
9.74207e-17
9.74169e-17
9.74143e-17
9.74126e-17
9.74118e-17
9.74108e-17
9.74117e-17
9.74471e-17
9.74349e-17
9.74256e-17
9.74167e-17
9.7409e-17
9.74022e-17
9.73965e-17
9.7392e-17
9.73886e-17
9.73862e-17
9.73848e-17
9.73844e-17
9.73837e-17
9.73856e-17
9.74164e-17
9.7404e-17
9.73954e-17
9.7387e-17
9.73798e-17
9.73735e-17
9.73684e-17
9.73644e-17
9.73615e-17
9.73596e-17
9.73587e-17
9.73589e-17
9.73589e-17
9.73618e-17
9.73852e-17
9.73732e-17
9.73655e-17
9.73577e-17
9.73511e-17
9.73454e-17
9.73409e-17
9.73375e-17
9.73352e-17
9.73339e-17
9.73335e-17
9.73342e-17
9.73348e-17
9.73383e-17
9.73556e-17
9.73447e-17
9.73373e-17
9.73298e-17
9.73236e-17
9.73183e-17
9.73144e-17
9.73116e-17
9.73099e-17
9.73093e-17
9.73097e-17
9.73113e-17
9.73131e-17
9.73172e-17
9.73232e-17
9.73149e-17
9.73076e-17
9.73013e-17
9.7296e-17
9.72916e-17
9.72887e-17
9.72867e-17
9.72858e-17
9.72858e-17
9.72867e-17
9.72887e-17
9.72911e-17
9.72947e-17
9.74332e-17
9.74287e-17
9.74234e-17
9.742e-17
9.74176e-17
9.74162e-17
9.74159e-17
9.74167e-17
9.7419e-17
9.74226e-17
9.74275e-17
9.74337e-17
9.74424e-17
9.745e-17
9.74024e-17
9.74013e-17
9.7397e-17
9.73938e-17
9.73912e-17
9.73899e-17
9.73896e-17
9.73907e-17
9.73931e-17
9.73968e-17
9.74017e-17
9.74072e-17
9.7415e-17
9.742e-17
9.73761e-17
9.73747e-17
9.73703e-17
9.73673e-17
9.73646e-17
9.73633e-17
9.73631e-17
9.73642e-17
9.73666e-17
9.73704e-17
9.73752e-17
9.73804e-17
9.73882e-17
9.73928e-17
9.73494e-17
9.73473e-17
9.73434e-17
9.73405e-17
9.73381e-17
9.73372e-17
9.73371e-17
9.73384e-17
9.73409e-17
9.73447e-17
9.73495e-17
9.73546e-17
9.73618e-17
9.73661e-17
9.7324e-17
9.73211e-17
9.73172e-17
9.73144e-17
9.73122e-17
9.73115e-17
9.73116e-17
9.73131e-17
9.73157e-17
9.73195e-17
9.73243e-17
9.73297e-17
9.73364e-17
9.73415e-17
9.72989e-17
9.72954e-17
9.72918e-17
9.72892e-17
9.72874e-17
9.72869e-17
9.72872e-17
9.72888e-17
9.72915e-17
9.72952e-17
9.73001e-17
9.73055e-17
9.73118e-17
9.73175e-17
9.72746e-17
9.72706e-17
9.72672e-17
9.72649e-17
9.72634e-17
9.72631e-17
9.72637e-17
9.72655e-17
9.72683e-17
9.72722e-17
9.7277e-17
9.72826e-17
9.72886e-17
9.72949e-17
9.72507e-17
9.72465e-17
9.72436e-17
9.72416e-17
9.72405e-17
9.72404e-17
9.72413e-17
9.72432e-17
9.72462e-17
9.72502e-17
9.7255e-17
9.72606e-17
9.72663e-17
9.7273e-17
9.72277e-17
9.72234e-17
9.72209e-17
9.72192e-17
9.72185e-17
9.72187e-17
9.72199e-17
9.72222e-17
9.72254e-17
9.72296e-17
9.72344e-17
9.72401e-17
9.72457e-17
9.72527e-17
9.72052e-17
9.72011e-17
9.7199e-17
9.71976e-17
9.71974e-17
9.71979e-17
9.71997e-17
9.72023e-17
9.72058e-17
9.721e-17
9.72149e-17
9.72206e-17
9.72261e-17
9.72333e-17
9.7184e-17
9.71797e-17
9.71779e-17
9.7177e-17
9.71772e-17
9.71783e-17
9.71806e-17
9.71836e-17
9.71874e-17
9.71919e-17
9.7197e-17
9.72028e-17
9.72084e-17
9.72159e-17
9.71636e-17
9.71587e-17
9.71577e-17
9.71572e-17
9.7158e-17
9.71596e-17
9.71623e-17
9.71658e-17
9.717e-17
9.71748e-17
9.718e-17
9.7186e-17
9.71917e-17
9.71992e-17
9.7144e-17
9.71394e-17
9.71388e-17
9.71386e-17
9.71398e-17
9.7142e-17
9.71453e-17
9.71493e-17
9.7154e-17
9.71593e-17
9.71649e-17
9.71713e-17
9.71776e-17
9.71854e-17
9.71239e-17
9.71204e-17
9.71202e-17
9.71206e-17
9.71225e-17
9.71253e-17
9.71291e-17
9.71336e-17
9.71387e-17
9.71445e-17
9.71506e-17
9.71571e-17
9.71637e-17
9.71714e-17
9.711e-17
9.71132e-17
9.7116e-17
9.712e-17
9.71241e-17
9.71286e-17
9.71337e-17
9.71395e-17
9.7146e-17
9.71533e-17
9.71615e-17
9.71711e-17
9.71818e-17
9.71941e-17
9.70925e-17
9.7096e-17
9.70992e-17
9.71037e-17
9.71083e-17
9.71133e-17
9.71188e-17
9.71248e-17
9.71317e-17
9.71394e-17
9.71481e-17
9.71577e-17
9.71678e-17
9.71777e-17
9.70768e-17
9.70806e-17
9.70836e-17
9.70882e-17
9.70926e-17
9.70977e-17
9.71033e-17
9.71097e-17
9.71169e-17
9.71249e-17
9.71337e-17
9.71432e-17
9.71534e-17
9.7163e-17
9.70608e-17
9.7065e-17
9.70684e-17
9.70732e-17
9.70777e-17
9.70829e-17
9.70886e-17
9.7095e-17
9.71023e-17
9.71104e-17
9.71194e-17
9.7129e-17
9.71391e-17
9.71485e-17
9.70459e-17
9.705e-17
9.70535e-17
9.70581e-17
9.70627e-17
9.70681e-17
9.7074e-17
9.70807e-17
9.70881e-17
9.70963e-17
9.71053e-17
9.71149e-17
9.7125e-17
9.71347e-17
9.70314e-17
9.70354e-17
9.70391e-17
9.70438e-17
9.70487e-17
9.70543e-17
9.70604e-17
9.70671e-17
9.70745e-17
9.70826e-17
9.70914e-17
9.71009e-17
9.71108e-17
9.71207e-17
9.70174e-17
9.7021e-17
9.7025e-17
9.70298e-17
9.7035e-17
9.70409e-17
9.70473e-17
9.70542e-17
9.70616e-17
9.70696e-17
9.70783e-17
9.70875e-17
9.70971e-17
9.71072e-17
9.70039e-17
9.70074e-17
9.70118e-17
9.70168e-17
9.70223e-17
9.70284e-17
9.70349e-17
9.70419e-17
9.70494e-17
9.70573e-17
9.70658e-17
9.70747e-17
9.7084e-17
9.70939e-17
9.69912e-17
9.69947e-17
9.69994e-17
9.70045e-17
9.70102e-17
9.70165e-17
9.70232e-17
9.70303e-17
9.70379e-17
9.70458e-17
9.70542e-17
9.70629e-17
9.70718e-17
9.70815e-17
9.69793e-17
9.69827e-17
9.69878e-17
9.6993e-17
9.69989e-17
9.70052e-17
9.70121e-17
9.70194e-17
9.70271e-17
9.70351e-17
9.70433e-17
9.70519e-17
9.70604e-17
9.70699e-17
9.69679e-17
9.69714e-17
9.69766e-17
9.6982e-17
9.69881e-17
9.69947e-17
9.70018e-17
9.70092e-17
9.7017e-17
9.7025e-17
9.70333e-17
9.70419e-17
9.70501e-17
9.70593e-17
9.69571e-17
9.69605e-17
9.69659e-17
9.69715e-17
9.69778e-17
9.69847e-17
9.6992e-17
9.69997e-17
9.70075e-17
9.70157e-17
9.7024e-17
9.70325e-17
9.70405e-17
9.70496e-17
9.69467e-17
9.69505e-17
9.69558e-17
9.69617e-17
9.69683e-17
9.69756e-17
9.69833e-17
9.69913e-17
9.69995e-17
9.70077e-17
9.7016e-17
9.70245e-17
9.70329e-17
9.70417e-17
9.69378e-17
9.69415e-17
9.69472e-17
9.69533e-17
9.69601e-17
9.69675e-17
9.69751e-17
9.69832e-17
9.69914e-17
9.69997e-17
9.7008e-17
9.70165e-17
9.7025e-17
9.70339e-17
9.6772e-17
9.67815e-17
9.67906e-17
9.67996e-17
9.68087e-17
9.68174e-17
9.68261e-17
9.68348e-17
9.68438e-17
9.6853e-17
9.68625e-17
9.68725e-17
9.68824e-17
9.68933e-17
9.67673e-17
9.67774e-17
9.67865e-17
9.6796e-17
9.68052e-17
9.68144e-17
9.68236e-17
9.68327e-17
9.68419e-17
9.68513e-17
9.68611e-17
9.68714e-17
9.68819e-17
9.68928e-17
9.67642e-17
9.6774e-17
9.67831e-17
9.67925e-17
9.68019e-17
9.68111e-17
9.68206e-17
9.68299e-17
9.68392e-17
9.68488e-17
9.68586e-17
9.6869e-17
9.68796e-17
9.68904e-17
9.67607e-17
9.67703e-17
9.67796e-17
9.67892e-17
9.67987e-17
9.68082e-17
9.68178e-17
9.68272e-17
9.68368e-17
9.68464e-17
9.68563e-17
9.68667e-17
9.68772e-17
9.68879e-17
9.67578e-17
9.67671e-17
9.67765e-17
9.67861e-17
9.67957e-17
9.68053e-17
9.6815e-17
9.68245e-17
9.6834e-17
9.68437e-17
9.68536e-17
9.68638e-17
9.68742e-17
9.68849e-17
9.67543e-17
9.67638e-17
9.67733e-17
9.6783e-17
9.67928e-17
9.68025e-17
9.68122e-17
9.68218e-17
9.68314e-17
9.6841e-17
9.68508e-17
9.68609e-17
9.68712e-17
9.68817e-17
9.67512e-17
9.67607e-17
9.67702e-17
9.678e-17
9.67898e-17
9.67996e-17
9.68093e-17
9.6819e-17
9.68285e-17
9.68381e-17
9.68478e-17
9.68576e-17
9.68676e-17
9.68779e-17
9.6748e-17
9.67575e-17
9.67672e-17
9.6777e-17
9.67868e-17
9.67967e-17
9.68064e-17
9.68161e-17
9.68256e-17
9.68351e-17
9.68447e-17
9.68543e-17
9.6864e-17
9.6874e-17
9.67451e-17
9.67545e-17
9.67642e-17
9.6774e-17
9.67838e-17
9.67937e-17
9.68034e-17
9.68131e-17
9.68226e-17
9.6832e-17
9.68415e-17
9.68509e-17
9.68603e-17
9.687e-17
9.67424e-17
9.67516e-17
9.67614e-17
9.67711e-17
9.67809e-17
9.67908e-17
9.68005e-17
9.68101e-17
9.68196e-17
9.6829e-17
9.68383e-17
9.68475e-17
9.68567e-17
9.68661e-17
9.67398e-17
9.67489e-17
9.67586e-17
9.67683e-17
9.67781e-17
9.6788e-17
9.67977e-17
9.68073e-17
9.68167e-17
9.6826e-17
9.68352e-17
9.68443e-17
9.68533e-17
9.68625e-17
9.67373e-17
9.67464e-17
9.6756e-17
9.67657e-17
9.67755e-17
9.67854e-17
9.67951e-17
9.68047e-17
9.6814e-17
9.68232e-17
9.68323e-17
9.68413e-17
9.68501e-17
9.68591e-17
9.67354e-17
9.67447e-17
9.6754e-17
9.67638e-17
9.67735e-17
9.67834e-17
9.67931e-17
9.68027e-17
9.6812e-17
9.68212e-17
9.68301e-17
9.6839e-17
9.68476e-17
9.68566e-17
9.67357e-17
9.67447e-17
9.67541e-17
9.67638e-17
9.67729e-17
9.67823e-17
9.67915e-17
9.6801e-17
9.68101e-17
9.6819e-17
9.68278e-17
9.68364e-17
9.68452e-17
9.68542e-17
9.64175e-17
9.64284e-17
9.64399e-17
9.64507e-17
9.64615e-17
9.64718e-17
9.64818e-17
9.64913e-17
9.65006e-17
9.65094e-17
9.6518e-17
9.65264e-17
9.65345e-17
9.65436e-17
9.64228e-17
9.64339e-17
9.64456e-17
9.64568e-17
9.64681e-17
9.64789e-17
9.64894e-17
9.64994e-17
9.6509e-17
9.65181e-17
9.65269e-17
9.65354e-17
9.65437e-17
9.65527e-17
9.643e-17
9.6441e-17
9.6453e-17
9.64643e-17
9.64758e-17
9.64865e-17
9.6497e-17
9.65069e-17
9.65163e-17
9.65254e-17
9.65342e-17
9.65429e-17
9.65513e-17
9.65601e-17
9.64359e-17
9.64472e-17
9.64593e-17
9.64708e-17
9.64824e-17
9.64933e-17
9.6504e-17
9.65141e-17
9.65238e-17
9.6533e-17
9.65418e-17
9.65506e-17
9.65591e-17
9.65679e-17
9.64421e-17
9.64537e-17
9.64659e-17
9.64775e-17
9.64891e-17
9.65e-17
9.65107e-17
9.65208e-17
9.65304e-17
9.65395e-17
9.65483e-17
9.6557e-17
9.65654e-17
9.65741e-17
9.64476e-17
9.64595e-17
9.64717e-17
9.64834e-17
9.6495e-17
9.6506e-17
9.65168e-17
9.65269e-17
9.65366e-17
9.65458e-17
9.65546e-17
9.65633e-17
9.65717e-17
9.65801e-17
9.64529e-17
9.64651e-17
9.64772e-17
9.6489e-17
9.65005e-17
9.65115e-17
9.65222e-17
9.65323e-17
9.6542e-17
9.65511e-17
9.65599e-17
9.65684e-17
9.65767e-17
9.65849e-17
9.64579e-17
9.64702e-17
9.64822e-17
9.64939e-17
9.65053e-17
9.65164e-17
9.6527e-17
9.65371e-17
9.65468e-17
9.6556e-17
9.65648e-17
9.65732e-17
9.65815e-17
9.65895e-17
9.64627e-17
9.64749e-17
9.64867e-17
9.64985e-17
9.65097e-17
9.65207e-17
9.65312e-17
9.65412e-17
9.65508e-17
9.65599e-17
9.65687e-17
9.65771e-17
9.65853e-17
9.65932e-17
9.64673e-17
9.64794e-17
9.64911e-17
9.65027e-17
9.65138e-17
9.65246e-17
9.65349e-17
9.65449e-17
9.65544e-17
9.65635e-17
9.65722e-17
9.65805e-17
9.65887e-17
9.65964e-17
9.64718e-17
9.64837e-17
9.64952e-17
9.65067e-17
9.65176e-17
9.65283e-17
9.65384e-17
9.65482e-17
9.65576e-17
9.65665e-17
9.65751e-17
9.65833e-17
9.65915e-17
9.65992e-17
9.64763e-17
9.64882e-17
9.64994e-17
9.65108e-17
9.65214e-17
9.65319e-17
9.65418e-17
9.65515e-17
9.65606e-17
9.65693e-17
9.65778e-17
9.65859e-17
9.6594e-17
9.66017e-17
9.64809e-17
9.64926e-17
9.65036e-17
9.65148e-17
9.65252e-17
9.65356e-17
9.65452e-17
9.65546e-17
9.65636e-17
9.65722e-17
9.65804e-17
9.65884e-17
9.65963e-17
9.66042e-17
9.64865e-17
9.64984e-17
9.65087e-17
9.65197e-17
9.65297e-17
9.65396e-17
9.65488e-17
9.65578e-17
9.65663e-17
9.65745e-17
9.65825e-17
9.65903e-17
9.65983e-17
9.66064e-17
9.60523e-17
9.6061e-17
9.60712e-17
9.60808e-17
9.60903e-17
9.60994e-17
9.6108e-17
9.61162e-17
9.61237e-17
9.61307e-17
9.61372e-17
9.61431e-17
9.61486e-17
9.61554e-17
9.60629e-17
9.60719e-17
9.60825e-17
9.60924e-17
9.61024e-17
9.61119e-17
9.6121e-17
9.61294e-17
9.61372e-17
9.61444e-17
9.6151e-17
9.61571e-17
9.61625e-17
9.6169e-17
9.60748e-17
9.60842e-17
9.60952e-17
9.61052e-17
9.61154e-17
9.61248e-17
9.61339e-17
9.61422e-17
9.61499e-17
9.6157e-17
9.61635e-17
9.61696e-17
9.61751e-17
9.61812e-17
9.60857e-17
9.60956e-17
9.61067e-17
9.6117e-17
9.61273e-17
9.61369e-17
9.61462e-17
9.61547e-17
9.61626e-17
9.61698e-17
9.61764e-17
9.61825e-17
9.61881e-17
9.61938e-17
9.60965e-17
9.61071e-17
9.61184e-17
9.61288e-17
9.61391e-17
9.61488e-17
9.6158e-17
9.61665e-17
9.61744e-17
9.61816e-17
9.61882e-17
9.61943e-17
9.62e-17
9.62054e-17
9.6107e-17
9.6118e-17
9.61292e-17
9.61397e-17
9.61501e-17
9.61598e-17
9.6169e-17
9.61776e-17
9.61856e-17
9.6193e-17
9.61997e-17
9.62058e-17
9.62115e-17
9.62169e-17
9.61171e-17
9.61285e-17
9.61396e-17
9.61503e-17
9.61605e-17
9.61702e-17
9.61794e-17
9.6188e-17
9.6196e-17
9.62034e-17
9.62101e-17
9.62163e-17
9.62221e-17
9.62272e-17
9.61269e-17
9.61385e-17
9.61495e-17
9.61602e-17
9.61703e-17
9.618e-17
9.61891e-17
9.61977e-17
9.62057e-17
9.62131e-17
9.62199e-17
9.62262e-17
9.62321e-17
9.62372e-17
9.61363e-17
9.6148e-17
9.61588e-17
9.61695e-17
9.61795e-17
9.61891e-17
9.61981e-17
9.62066e-17
9.62146e-17
9.6222e-17
9.62288e-17
9.62351e-17
9.62411e-17
9.62462e-17
9.61455e-17
9.61571e-17
9.61678e-17
9.61784e-17
9.61882e-17
9.61976e-17
9.62065e-17
9.62149e-17
9.62228e-17
9.62301e-17
9.6237e-17
9.62433e-17
9.62494e-17
9.62546e-17
9.61543e-17
9.61657e-17
9.61762e-17
9.61867e-17
9.61963e-17
9.62057e-17
9.62144e-17
9.62227e-17
9.62304e-17
9.62376e-17
9.62443e-17
9.62506e-17
9.62568e-17
9.62621e-17
9.61631e-17
9.61744e-17
9.61846e-17
9.61949e-17
9.62043e-17
9.62134e-17
9.62219e-17
9.62299e-17
9.62374e-17
9.62444e-17
9.62511e-17
9.62573e-17
9.62635e-17
9.62689e-17
9.61714e-17
9.61825e-17
9.61925e-17
9.62026e-17
9.62118e-17
9.62206e-17
9.62288e-17
9.62366e-17
9.62439e-17
9.62508e-17
9.62573e-17
9.62634e-17
9.62694e-17
9.62752e-17
9.61807e-17
9.61916e-17
9.62011e-17
9.62107e-17
9.62194e-17
9.62278e-17
9.62355e-17
9.62429e-17
9.62498e-17
9.62563e-17
9.62625e-17
9.62686e-17
9.62747e-17
9.62808e-17
9.56947e-17
9.56998e-17
9.57065e-17
9.57127e-17
9.5719e-17
9.57249e-17
9.57306e-17
9.57358e-17
9.57406e-17
9.5745e-17
9.57489e-17
9.57523e-17
9.57553e-17
9.57598e-17
9.57057e-17
9.57111e-17
9.57181e-17
9.57246e-17
9.57312e-17
9.57374e-17
9.57433e-17
9.57487e-17
9.57536e-17
9.57581e-17
9.5762e-17
9.57655e-17
9.57682e-17
9.57725e-17
9.57172e-17
9.57231e-17
9.57305e-17
9.57371e-17
9.57438e-17
9.57501e-17
9.57559e-17
9.57613e-17
9.57662e-17
9.57706e-17
9.57745e-17
9.57779e-17
9.57806e-17
9.57844e-17
9.57284e-17
9.57348e-17
9.57423e-17
9.57491e-17
9.57559e-17
9.57623e-17
9.57683e-17
9.57738e-17
9.57788e-17
9.57832e-17
9.57872e-17
9.57906e-17
9.57935e-17
9.57968e-17
9.57394e-17
9.57464e-17
9.5754e-17
9.5761e-17
9.57679e-17
9.57743e-17
9.57803e-17
9.57858e-17
9.57909e-17
9.57954e-17
9.57994e-17
9.58028e-17
9.58058e-17
9.58086e-17
9.57504e-17
9.57579e-17
9.57655e-17
9.57726e-17
9.57795e-17
9.57859e-17
9.57919e-17
9.57975e-17
9.58026e-17
9.58073e-17
9.58114e-17
9.58149e-17
9.58179e-17
9.58206e-17
9.57611e-17
9.57689e-17
9.57766e-17
9.57838e-17
9.57907e-17
9.57971e-17
9.58032e-17
9.58088e-17
9.5814e-17
9.58186e-17
9.58227e-17
9.58263e-17
9.58294e-17
9.5832e-17
9.57718e-17
9.57799e-17
9.57874e-17
9.57947e-17
9.58015e-17
9.5808e-17
9.5814e-17
9.58197e-17
9.58248e-17
9.58295e-17
9.58336e-17
9.58373e-17
9.58405e-17
9.5843e-17
9.57821e-17
9.57904e-17
9.57978e-17
9.58052e-17
9.5812e-17
9.58184e-17
9.58244e-17
9.583e-17
9.58352e-17
9.58398e-17
9.5844e-17
9.58476e-17
9.5851e-17
9.58534e-17
9.57923e-17
9.58007e-17
9.5808e-17
9.58153e-17
9.5822e-17
9.58284e-17
9.58343e-17
9.58399e-17
9.58449e-17
9.58495e-17
9.58537e-17
9.58574e-17
9.58608e-17
9.58633e-17
9.58021e-17
9.58105e-17
9.58176e-17
9.58249e-17
9.58315e-17
9.58379e-17
9.58437e-17
9.58492e-17
9.58541e-17
9.58586e-17
9.58627e-17
9.58665e-17
9.58699e-17
9.58724e-17
9.58121e-17
9.58202e-17
9.58271e-17
9.58342e-17
9.58407e-17
9.58469e-17
9.58525e-17
9.58578e-17
9.58627e-17
9.58671e-17
9.58712e-17
9.58749e-17
9.58783e-17
9.5881e-17
9.58211e-17
9.58291e-17
9.58359e-17
9.58428e-17
9.58492e-17
9.58551e-17
9.58607e-17
9.58658e-17
9.58705e-17
9.58749e-17
9.58788e-17
9.58825e-17
9.58859e-17
9.58889e-17
9.58312e-17
9.58387e-17
9.58452e-17
9.58516e-17
9.58575e-17
9.58631e-17
9.58683e-17
9.58731e-17
9.58776e-17
9.58818e-17
9.58856e-17
9.58892e-17
9.58929e-17
9.58967e-17
9.53598e-17
9.53618e-17
9.53646e-17
9.53674e-17
9.537e-17
9.53725e-17
9.53749e-17
9.53771e-17
9.53791e-17
9.53809e-17
9.53824e-17
9.53836e-17
9.53847e-17
9.53867e-17
9.53682e-17
9.53702e-17
9.53733e-17
9.53761e-17
9.53789e-17
9.53814e-17
9.53839e-17
9.53862e-17
9.53882e-17
9.539e-17
9.53915e-17
9.53928e-17
9.53936e-17
9.53956e-17
9.53765e-17
9.53787e-17
9.53821e-17
9.53851e-17
9.53878e-17
9.53904e-17
9.53929e-17
9.53952e-17
9.53972e-17
9.5399e-17
9.54004e-17
9.54016e-17
9.54023e-17
9.54041e-17
9.5385e-17
9.53876e-17
9.5391e-17
9.5394e-17
9.53968e-17
9.53994e-17
9.54019e-17
9.54042e-17
9.54062e-17
9.5408e-17
9.54095e-17
9.54107e-17
9.54115e-17
9.54129e-17
9.53933e-17
9.53962e-17
9.53997e-17
9.54028e-17
9.54057e-17
9.54084e-17
9.54109e-17
9.54132e-17
9.54152e-17
9.5417e-17
9.54185e-17
9.54197e-17
9.54205e-17
9.54216e-17
9.54017e-17
9.5405e-17
9.54085e-17
9.54116e-17
9.54145e-17
9.54173e-17
9.54198e-17
9.54221e-17
9.54241e-17
9.54259e-17
9.54274e-17
9.54286e-17
9.54295e-17
9.54303e-17
9.541e-17
9.54136e-17
9.54171e-17
9.54203e-17
9.54233e-17
9.54261e-17
9.54286e-17
9.54309e-17
9.54329e-17
9.54347e-17
9.54362e-17
9.54374e-17
9.54384e-17
9.54389e-17
9.54184e-17
9.54222e-17
9.54256e-17
9.54289e-17
9.54319e-17
9.54347e-17
9.54373e-17
9.54396e-17
9.54416e-17
9.54434e-17
9.54449e-17
9.54461e-17
9.54471e-17
9.54475e-17
9.54265e-17
9.54306e-17
9.5434e-17
9.54373e-17
9.54403e-17
9.54432e-17
9.54458e-17
9.54481e-17
9.54501e-17
9.54518e-17
9.54534e-17
9.54546e-17
9.54556e-17
9.54559e-17
9.54347e-17
9.54389e-17
9.54421e-17
9.54455e-17
9.54485e-17
9.54514e-17
9.54539e-17
9.54562e-17
9.54582e-17
9.546e-17
9.54615e-17
9.54628e-17
9.54638e-17
9.54639e-17
9.54425e-17
9.54468e-17
9.545e-17
9.54534e-17
9.54564e-17
9.54592e-17
9.54618e-17
9.5464e-17
9.5466e-17
9.54678e-17
9.54693e-17
9.54705e-17
9.54716e-17
9.54715e-17
9.54504e-17
9.54546e-17
9.54576e-17
9.54609e-17
9.54639e-17
9.54667e-17
9.54691e-17
9.54714e-17
9.54733e-17
9.54751e-17
9.54766e-17
9.54778e-17
9.54789e-17
9.54788e-17
9.54577e-17
9.54618e-17
9.54648e-17
9.5468e-17
9.54709e-17
9.54736e-17
9.5476e-17
9.54782e-17
9.54801e-17
9.54818e-17
9.54833e-17
9.54845e-17
9.54854e-17
9.54857e-17
9.54656e-17
9.54692e-17
9.5472e-17
9.54749e-17
9.54776e-17
9.54801e-17
9.54824e-17
9.54845e-17
9.54863e-17
9.5488e-17
9.54894e-17
9.54906e-17
9.54918e-17
9.54926e-17
9.5049e-17
9.50492e-17
9.50494e-17
9.50497e-17
9.50498e-17
9.50499e-17
9.50499e-17
9.50499e-17
9.50498e-17
9.50496e-17
9.50493e-17
9.5049e-17
9.50484e-17
9.50483e-17
9.50543e-17
9.50541e-17
9.50544e-17
9.50546e-17
9.50547e-17
9.50548e-17
9.50548e-17
9.50547e-17
9.50546e-17
9.50544e-17
9.50541e-17
9.50537e-17
9.50531e-17
9.50531e-17
9.5059e-17
9.50588e-17
9.50592e-17
9.50595e-17
9.50596e-17
9.50597e-17
9.50596e-17
9.50596e-17
9.50594e-17
9.50592e-17
9.50588e-17
9.50584e-17
9.50577e-17
9.50576e-17
9.50639e-17
9.50638e-17
9.50642e-17
9.50645e-17
9.50646e-17
9.50646e-17
9.50646e-17
9.50645e-17
9.50643e-17
9.5064e-17
9.50636e-17
9.50632e-17
9.50625e-17
9.50622e-17
9.50687e-17
9.50687e-17
9.50692e-17
9.50694e-17
9.50696e-17
9.50696e-17
9.50695e-17
9.50694e-17
9.50692e-17
9.50689e-17
9.50685e-17
9.5068e-17
9.50673e-17
9.50668e-17
9.50736e-17
9.50738e-17
9.50742e-17
9.50744e-17
9.50746e-17
9.50746e-17
9.50745e-17
9.50744e-17
9.50741e-17
9.50738e-17
9.50734e-17
9.50729e-17
9.50721e-17
9.50714e-17
9.50784e-17
9.50788e-17
9.50792e-17
9.50795e-17
9.50796e-17
9.50796e-17
9.50795e-17
9.50794e-17
9.50791e-17
9.50788e-17
9.50783e-17
9.50778e-17
9.5077e-17
9.50761e-17
9.50831e-17
9.50837e-17
9.50841e-17
9.50844e-17
9.50846e-17
9.50846e-17
9.50845e-17
9.50844e-17
9.50841e-17
9.50837e-17
9.50832e-17
9.50826e-17
9.50818e-17
9.50808e-17
9.50878e-17
9.50886e-17
9.5089e-17
9.50893e-17
9.50894e-17
9.50895e-17
9.50894e-17
9.50893e-17
9.5089e-17
9.50886e-17
9.50881e-17
9.50874e-17
9.50867e-17
9.50854e-17
9.50924e-17
9.50933e-17
9.50937e-17
9.5094e-17
9.50942e-17
9.50943e-17
9.50942e-17
9.50941e-17
9.50938e-17
9.50934e-17
9.50928e-17
9.50921e-17
9.50914e-17
9.509e-17
9.50968e-17
9.50978e-17
9.50982e-17
9.50985e-17
9.50987e-17
9.50988e-17
9.50988e-17
9.50987e-17
9.50984e-17
9.5098e-17
9.50975e-17
9.50967e-17
9.50959e-17
9.50944e-17
9.51011e-17
9.51021e-17
9.51024e-17
9.51028e-17
9.5103e-17
9.51031e-17
9.51031e-17
9.5103e-17
9.51027e-17
9.51023e-17
9.51018e-17
9.5101e-17
9.51003e-17
9.50988e-17
9.5105e-17
9.5106e-17
9.51064e-17
9.51068e-17
9.5107e-17
9.51071e-17
9.51072e-17
9.51071e-17
9.51068e-17
9.51064e-17
9.51059e-17
9.51051e-17
9.51044e-17
9.5103e-17
9.51089e-17
9.51097e-17
9.51099e-17
9.51103e-17
9.51105e-17
9.51107e-17
9.51108e-17