/*--------------------------------*- C++ -*----------------------------------*\
| =========                 |                                                 |
| \\      /  F ield         | OpenFOAM: The Open Source CFD Toolbox           |
|  \\    /   O peration     | Version:  v2106                                 |
|   \\  /    A nd           | Website:  www.openfoam.com                      |
|    \\/     M anipulation  |                                                 |
\*---------------------------------------------------------------------------*/
FoamFile
{
    version     2.0;
    format      ascii;
    arch        "LSB;label=32;scalar=64";
    class       volScalarField;
    location    "0.000171";
    object      Ttot;
}
// * * * * * * * * * * * * * * * * * * * * * * * * * * * * * * * * * * * * * //

dimensions      [0 0 0 1 0 0 0];

internalField   nonuniform List<scalar> 
17924
(
307.696
307.691
307.684
307.674
307.66
307.654
307.646
307.636
307.624
307.611
307.596
307.645
307.641
307.632
307.622
307.611
307.597
307.582
307.633
307.628
307.619
307.609
307.597
307.583
307.568
307.621
307.616
307.606
307.596
307.583
307.57
307.555
307.61
307.604
307.594
307.583
307.571
307.557
307.542
307.6
307.592
307.582
307.571
307.558
307.545
307.529
307.591
307.582
307.571
307.559
307.546
307.532
307.516
307.582
307.572
307.56
307.547
307.533
307.519
307.503
307.574
307.562
307.55
307.536
307.521
307.506
307.489
307.564
307.551
307.538
307.523
307.507
307.491
307.474
307.556
307.541
307.527
307.511
307.494
307.477
307.458
307.544
307.529
307.513
307.497
307.479
307.461
307.441
307.534
307.518
307.501
307.483
307.464
307.444
307.423
307.521
307.503
307.485
307.466
307.446
307.425
307.403
307.567
307.559
307.549
307.538
307.526
307.513
307.498
307.481
307.463
307.443
307.421
307.397
307.372
307.344
307.548
307.541
307.529
307.518
307.505
307.492
307.476
307.459
307.439
307.419
307.396
307.372
307.347
307.32
307.53
307.522
307.51
307.498
307.484
307.47
307.454
307.436
307.417
307.396
307.374
307.349
307.325
307.299
307.511
307.503
307.49
307.477
307.463
307.448
307.432
307.413
307.394
307.372
307.35
307.326
307.301
307.275
307.493
307.483
307.47
307.456
307.442
307.426
307.409
307.39
307.37
307.349
307.326
307.303
307.279
307.253
307.474
307.462
307.449
307.435
307.419
307.403
307.385
307.367
307.346
307.325
307.302
307.278
307.255
307.23
307.454
307.442
307.428
307.413
307.397
307.38
307.361
307.342
307.322
307.3
307.278
307.254
307.231
307.207
307.433
307.419
307.405
307.389
307.372
307.355
307.336
307.316
307.296
307.274
307.251
307.229
307.205
307.182
307.412
307.397
307.382
307.365
307.348
307.329
307.31
307.29
307.269
307.247
307.224
307.202
307.179
307.158
307.389
307.372
307.356
307.339
307.321
307.302
307.282
307.262
307.24
307.219
307.196
307.174
307.151
307.131
307.365
307.348
307.331
307.313
307.294
307.274
307.254
307.233
307.211
307.189
307.166
307.144
307.121
307.103
307.339
307.32
307.303
307.284
307.265
307.245
307.224
307.202
307.18
307.158
307.135
307.114
307.09
307.073
307.314
307.295
307.276
307.256
307.236
307.215
307.193
307.17
307.147
307.124
307.101
307.079
307.057
307.041
307.284
307.264
307.244
307.224
307.203
307.181
307.159
307.137
307.114
307.092
307.069
307.048
307.025
307.008
307.406
307.395
307.382
307.37
307.357
307.345
307.332
307.318
307.303
307.288
307.271
307.253
307.234
307.214
307.382
307.372
307.357
307.345
307.331
307.318
307.303
307.288
307.272
307.255
307.238
307.219
307.199
307.178
307.357
307.347
307.332
307.318
307.303
307.289
307.274
307.258
307.242
307.225
307.207
307.187
307.168
307.147
307.332
307.321
307.305
307.291
307.275
307.26
307.244
307.228
307.21
307.192
307.174
307.154
307.134
307.113
307.307
307.294
307.278
307.263
307.247
307.231
307.214
307.197
307.179
307.161
307.142
307.122
307.103
307.082
307.28
307.265
307.249
307.233
307.217
307.2
307.183
307.165
307.147
307.129
307.11
307.09
307.071
307.05
307.252
307.236
307.22
307.203
307.186
307.169
307.151
307.133
307.115
307.096
307.077
307.058
307.039
307.02
307.222
307.205
307.189
307.172
307.154
307.137
307.119
307.1
307.082
307.063
307.044
307.026
307.007
306.989
307.191
307.174
307.157
307.139
307.122
307.103
307.085
307.067
307.048
307.03
307.011
306.993
306.975
306.959
307.158
307.14
307.123
307.105
307.087
307.069
307.051
307.032
307.014
306.996
306.977
306.96
306.943
306.928
307.124
307.106
307.089
307.071
307.053
307.034
307.016
306.997
306.979
306.961
306.943
306.927
306.911
306.898
307.089
307.069
307.053
307.034
307.016
306.998
306.98
306.961
306.943
306.926
306.909
306.893
306.877
306.867
307.055
307.035
307.018
306.999
306.981
306.962
306.943
306.925
306.907
306.89
306.873
306.858
306.843
306.835
307.014
306.996
306.978
306.96
306.942
306.924
306.906
306.888
306.871
306.854
306.838
306.824
306.811
306.802
307.183
307.17
307.156
307.144
307.133
307.123
307.113
307.104
307.095
307.086
307.077
307.068
307.058
307.051
307.153
307.143
307.128
307.115
307.103
307.091
307.08
307.07
307.06
307.05
307.04
307.03
307.02
307.01
307.124
307.112
307.097
307.084
307.071
307.059
307.047
307.036
307.025
307.015
307.004
306.994
306.984
306.973
307.094
307.082
307.066
307.053
307.039
307.026
307.014
307.002
306.991
306.98
306.969
306.958
306.948
306.936
307.063
307.05
307.034
307.02
307.006
306.993
306.98
306.968
306.956
306.945
306.934
306.923
306.913
306.901
307.031
307.017
307.002
306.987
306.973
306.959
306.946
306.934
306.922
306.91
306.899
306.888
306.878
306.867
306.999
306.984
306.968
306.954
306.939
306.925
306.912
306.899
306.887
306.876
306.865
306.855
306.845
306.834
306.965
306.949
306.934
306.919
306.905
306.891
306.878
306.865
306.853
306.842
306.831
306.821
306.812
306.803
306.931
306.915
306.9
306.885
306.871
306.857
306.844
306.832
306.82
306.809
306.799
306.789
306.78
306.773
306.895
306.879
306.865
306.85
306.836
306.823
306.81
306.798
306.786
306.776
306.766
306.757
306.749
306.743
306.86
306.844
306.83
306.816
306.802
306.789
306.776
306.765
306.754
306.744
306.735
306.727
306.719
306.715
306.824
306.807
306.794
306.78
306.767
306.755
306.743
306.732
306.721
306.712
306.703
306.696
306.689
306.687
306.789
306.773
306.76
306.746
306.733
306.721
306.71
306.699
306.689
306.68
306.672
306.666
306.66
306.661
306.75
306.737
306.723
306.711
306.698
306.687
306.676
306.666
306.657
306.649
306.642
306.636
306.632
306.633
306.915
306.905
306.893
306.884
306.877
306.87
306.865
306.861
306.857
306.856
306.855
306.854
306.855
306.856
306.883
306.875
306.863
306.854
306.846
306.839
306.834
306.829
306.825
306.823
306.821
306.82
306.82
306.818
306.853
306.844
306.833
306.823
306.815
306.808
306.802
306.797
306.793
306.79
306.788
306.786
306.787
306.784
306.821
306.813
306.801
306.792
306.783
306.776
306.77
306.765
306.761
306.758
306.755
306.753
306.753
306.75
306.791
306.782
306.77
306.761
306.752
306.745
306.738
306.733
306.729
306.725
306.723
306.721
306.721
306.719
306.76
306.75
306.739
306.73
306.721
306.713
306.707
306.702
306.697
306.694
306.692
306.691
306.69
306.688
306.729
306.719
306.708
306.699
306.69
306.683
306.676
306.671
306.667
306.664
306.662
306.661
306.66
306.659
306.698
306.687
306.677
306.668
306.66
306.653
306.647
306.642
306.638
306.635
306.633
306.632
306.631
306.631
306.668
306.657
306.647
306.638
306.63
306.624
306.618
306.613
306.61
306.607
306.606
306.605
306.604
306.605
306.638
306.626
306.617
306.609
306.602
306.595
306.59
306.586
306.583
306.581
306.579
306.579
306.578
306.58
306.608
306.597
306.588
306.58
306.574
306.568
306.563
306.559
306.557
306.555
306.554
306.555
306.555
306.557
306.578
306.567
306.56
306.553
306.546
306.541
306.537
306.534
306.532
306.531
306.53
306.531
306.532
306.535
306.55
306.54
306.533
306.526
306.52
306.515
306.512
306.509
306.508
306.507
306.508
306.509
306.511
306.515
306.519
306.512
306.505
306.499
306.494
306.49
306.487
306.485
306.484
306.485
306.486
306.488
306.49
306.493
306.619
306.615
306.61
306.607
306.605
306.603
306.603
306.604
306.606
306.61
306.615
306.621
306.629
306.636
306.59
306.589
306.585
306.582
306.579
306.578
306.578
306.579
306.582
306.585
306.59
306.596
306.603
306.608
306.565
306.563
306.559
306.557
306.554
306.553
306.553
306.554
306.557
306.56
306.565
306.57
306.577
306.582
306.539
306.537
306.534
306.531
306.529
306.528
306.528
306.53
306.532
306.536
306.54
306.545
306.552
306.557
306.515
306.512
306.509
306.506
306.504
306.504
306.504
306.505
306.508
306.512
306.516
306.522
306.528
306.533
306.491
306.488
306.485
306.482
306.481
306.48
306.481
306.482
306.485
306.489
306.493
306.499
306.505
306.51
306.468
306.464
306.461
306.459
306.458
306.458
306.458
306.46
306.463
306.467
306.471
306.477
306.482
306.488
306.445
306.441
306.439
306.437
306.436
306.436
306.437
306.439
306.442
306.446
306.45
306.456
306.461
306.468
306.423
306.419
306.417
306.416
306.415
306.415
306.417
306.419
306.422
306.426
306.431
306.436
306.442
306.448
306.402
306.398
306.396
306.395
306.395
306.396
306.397
306.4
306.403
306.407
306.412
306.418
306.423
306.43
306.382
306.378
306.376
306.375
306.376
306.377
306.379
306.382
306.386
306.39
306.395
306.401
306.406
306.413
306.362
306.358
306.357
306.357
306.357
306.359
306.362
306.365
306.369
306.374
306.379
306.384
306.39
306.397
306.343
306.339
306.339
306.339
306.34
306.342
306.345
306.349
306.354
306.359
306.364
306.37
306.377
306.384
306.324
306.321
306.321
306.322
306.324
306.326
306.33
306.334
306.339
306.345
306.351
306.357
306.363
306.371
306.305
306.308
306.311
306.315
306.319
306.324
306.329
306.334
306.34
306.347
306.355
306.364
306.375
306.386
306.289
306.292
306.295
306.3
306.304
306.309
306.314
306.32
306.327
306.334
306.343
306.352
306.361
306.371
306.274
306.277
306.281
306.285
306.289
306.294
306.3
306.306
306.313
306.32
306.329
306.338
306.347
306.357
306.259
306.263
306.266
306.271
306.275
306.28
306.286
306.292
306.299
306.307
306.315
306.324
306.334
306.343
306.245
306.248
306.252
306.256
306.261
306.266
306.272
306.278
306.285
306.293
306.302
306.311
306.321
306.33
306.231
306.235
306.238
306.243
306.248
306.253
306.259
306.265
306.272
306.28
306.289
306.298
306.307
306.317
306.218
306.221
306.225
306.23
306.235
306.24
306.246
306.253
306.26
306.268
306.276
306.285
306.294
306.304
306.205
306.208
306.212
306.217
306.223
306.228
306.235
306.241
306.249
306.256
306.264
306.273
306.282
306.291
306.193
306.196
306.201
306.206
306.211
306.217
306.224
306.23
306.238
306.245
306.253
306.262
306.27
306.279
306.181
306.185
306.19
306.195
306.2
306.206
306.213
306.22
306.227
306.235
306.243
306.251
306.259
306.268
306.17
306.174
306.179
306.184
306.19
306.196
306.203
306.21
306.218
306.225
306.233
306.242
306.249
306.258
306.16
306.164
306.169
306.174
306.18
306.187
306.194
306.201
306.209
306.217
306.225
306.233
306.24
306.249
306.15
306.154
306.159
306.165
306.171
306.178
306.186
306.193
306.201
306.209
306.217
306.225
306.233
306.242
306.142
306.146
306.151
306.157
306.163
306.17
306.178
306.186
306.193
306.201
306.209
306.218
306.226
306.234
305.978
305.987
305.995
306.004
306.013
306.021
306.03
306.038
306.046
306.055
306.064
306.074
306.083
306.094
305.973
305.983
305.992
306.001
306.009
306.018
306.027
306.036
306.045
306.054
306.063
306.073
306.083
306.093
305.97
305.98
305.988
305.997
306.007
306.015
306.024
306.033
306.042
306.051
306.061
306.071
306.081
306.091
305.967
305.976
305.985
305.994
306.004
306.013
306.022
306.031
306.04
306.049
306.059
306.069
306.079
306.089
305.964
305.973
305.982
305.991
306.001
306.01
306.019
306.028
306.037
306.047
306.056
306.066
306.076
306.086
305.961
305.97
305.979
305.989
305.998
306.007
306.017
306.026
306.035
306.044
306.054
306.063
306.073
306.083
305.958
305.967
305.976
305.986
305.995
306.005
306.014
306.023
306.032
306.041
306.051
306.06
306.07
306.079
305.955
305.964
305.974
305.983
305.992
306.002
306.011
306.02
306.03
306.039
306.048
306.057
306.066
306.076
305.952
305.962
305.971
305.98
305.99
305.999
306.008
306.018
306.027
306.036
306.045
306.054
306.063
306.072
305.95
305.959
305.968
305.978
305.987
305.996
306.006
306.015
306.024
306.033
306.042
306.051
306.059
306.068
305.947
305.956
305.965
305.975
305.984
305.994
306.003
306.012
306.021
306.03
306.039
306.047
306.056
306.065
305.945
305.954
305.963
305.973
305.982
305.991
306.001
306.01
306.019
306.027
306.036
306.045
306.053
306.062
305.943
305.952
305.961
305.971
305.98
305.99
305.999
306.008
306.017
306.026
306.034
306.042
306.051
306.059
305.944
305.952
305.961
305.971
305.979
305.988
305.997
306.006
306.015
306.024
306.032
306.04
306.049
306.057
305.634
305.645
305.656
305.666
305.677
305.686
305.696
305.705
305.714
305.722
305.73
305.738
305.746
305.755
305.64
305.65
305.661
305.672
305.683
305.693
305.703
305.713
305.722
305.731
305.739
305.747
305.755
305.764
305.647
305.657
305.669
305.679
305.69
305.701
305.711
305.72
305.729
305.738
305.746
305.754
305.762
305.771
305.652
305.663
305.675
305.685
305.697
305.707
305.717
305.727
305.736
305.745
305.753
305.762
305.77
305.778
305.658
305.669
305.681
305.692
305.703
305.714
305.724
305.733
305.742
305.751
305.759
305.768
305.776
305.784
305.663
305.675
305.686
305.698
305.709
305.719
305.73
305.739
305.748
305.757
305.766
305.774
305.782
305.79
305.669
305.68
305.692
305.703
305.714
305.725
305.735
305.744
305.754
305.762
305.771
305.779
305.787
305.794
305.673
305.685
305.697
305.708
305.719
305.729
305.739
305.749
305.758
305.767
305.775
305.783
305.791
305.799
305.678
305.69
305.701
305.712
305.723
305.733
305.743
305.753
305.762
305.771
305.779
305.787
305.795
305.802
305.682
305.694
305.705
305.716
305.727
305.737
305.747
305.756
305.766
305.774
305.782
305.79
305.798
305.805
305.687
305.698
305.709
305.72
305.73
305.741
305.75
305.76
305.769
305.777
305.785
305.793
305.801
305.808
305.691
305.702
305.713
305.724
305.734
305.744
305.754
305.763
305.771
305.78
305.788
305.796
305.803
305.811
305.695
305.707
305.717
305.728
305.738
305.748
305.757
305.766
305.774
305.783
305.79
305.798
305.805
305.813
305.701
305.712
305.722
305.733
305.742
305.751
305.76
305.769
305.777
305.785
305.792
305.8
305.807
305.815
305.282
305.29
305.3
305.309
305.318
305.327
305.335
305.343
305.35
305.356
305.363
305.368
305.373
305.38
305.292
305.3
305.31
305.32
305.329
305.338
305.347
305.355
305.363
305.369
305.376
305.382
305.387
305.393
305.303
305.312
305.323
305.332
305.342
305.351
305.359
305.367
305.375
305.381
305.388
305.393
305.399
305.404
305.314
305.323
305.334
305.343
305.353
305.362
305.371
305.379
305.387
305.394
305.4
305.406
305.411
305.417
305.324
305.334
305.345
305.355
305.365
305.374
305.382
305.391
305.398
305.405
305.411
305.417
305.422
305.427
305.334
305.344
305.355
305.365
305.375
305.384
305.393
305.401
305.409
305.416
305.422
305.428
305.433
305.438
305.344
305.354
305.365
305.375
305.385
305.394
305.403
305.411
305.419
305.426
305.432
305.438
305.443
305.448
305.353
305.364
305.374
305.385
305.394
305.403
305.412
305.42
305.428
305.435
305.441
305.447
305.453
305.458
305.362
305.373
305.383
305.393
305.403
305.412
305.421
305.429
305.436
305.443
305.45
305.456
305.462
305.466
305.371
305.382
305.392
305.402
305.411
305.42
305.429
305.437
305.444
305.451
305.458
305.464
305.469
305.474
305.379
305.39
305.4
305.41
305.419
305.428
305.436
305.444
305.451
305.458
305.465
305.471
305.477
305.482
305.387
305.398
305.408
305.418
305.427
305.435
305.443
305.451
305.458
305.465
305.471
305.477
305.483
305.488
305.395
305.406
305.415
305.425
305.434
305.442
305.45
305.457
305.464
305.471
305.477
305.483
305.489
305.494
305.404
305.415
305.424
305.433
305.441
305.449
305.456
305.463
305.47
305.476
305.482
305.488
305.494
305.499
304.936
304.941
304.948
304.954
304.96
304.965
304.971
304.975
304.98
304.984
304.988
304.991
304.994
304.998
304.947
304.952
304.959
304.965
304.971
304.977
304.983
304.988
304.992
304.997
305
305.004
305.006
305.01
304.958
304.963
304.97
304.977
304.983
304.989
304.995
305
305.004
305.009
305.012
305.015
305.018
305.022
304.969
304.975
304.982
304.988
304.995
305.001
305.006
305.012
305.016
305.021
305.024
305.028
305.03
305.033
304.979
304.986
304.993
305
305.006
305.012
305.018
305.023
305.028
305.032
305.036
305.039
305.042
305.045
304.99
304.997
305.004
305.011
305.017
305.023
305.029
305.034
305.039
305.044
305.047
305.051
305.054
305.056
305
305.007
305.014
305.021
305.028
305.034
305.04
305.045
305.05
305.054
305.058
305.062
305.065
305.067
305.01
305.018
305.025
305.032
305.038
305.044
305.05
305.055
305.06
305.065
305.069
305.072
305.075
305.077
305.02
305.028
305.035
305.042
305.048
305.054
305.06
305.065
305.07
305.074
305.078
305.082
305.085
305.087
305.029
305.037
305.044
305.051
305.058
305.064
305.069
305.075
305.079
305.084
305.088
305.091
305.094
305.097
305.039
305.047
305.053
305.06
305.067
305.073
305.078
305.083
305.088
305.092
305.096
305.1
305.103
305.105
305.048
305.056
305.062
305.069
305.075
305.081
305.087
305.092
305.096
305.1
305.104
305.108
305.111
305.114
305.057
305.064
305.071
305.077
305.083
305.089
305.094
305.099
305.104
305.108
305.112
305.115
305.118
305.121
305.066
305.073
305.08
305.086
305.091
305.097
305.102
305.106
305.11
305.114
305.118
305.121
305.125
305.128
304.613
304.615
304.617
304.62
304.623
304.625
304.627
304.629
304.631
304.633
304.634
304.636
304.637
304.638
304.621
304.623
304.626
304.629
304.631
304.634
304.636
304.638
304.64
304.642
304.643
304.644
304.645
304.647
304.629
304.631
304.634
304.637
304.64
304.642
304.644
304.647
304.649
304.65
304.652
304.653
304.653
304.655
304.637
304.639
304.643
304.645
304.648
304.651
304.653
304.655
304.657
304.659
304.66
304.661
304.662
304.663
304.645
304.648
304.651
304.654
304.657
304.659
304.662
304.664
304.666
304.667
304.669
304.67
304.671
304.672
304.653
304.656
304.659
304.662
304.665
304.668
304.67
304.672
304.674
304.676
304.677
304.678
304.679
304.68
304.661
304.664
304.667
304.671
304.673
304.676
304.678
304.681
304.682
304.684
304.686
304.687
304.688
304.688
304.669
304.672
304.676
304.679
304.682
304.684
304.687
304.689
304.691
304.692
304.694
304.695
304.696
304.696
304.676
304.68
304.683
304.687
304.69
304.692
304.695
304.697
304.699
304.7
304.702
304.703
304.704
304.704
304.684
304.688
304.691
304.694
304.697
304.7
304.702
304.705
304.707
304.708
304.71
304.711
304.712
304.712
304.692
304.696
304.699
304.702
304.705
304.707
304.71
304.712
304.714
304.716
304.717
304.718
304.719
304.719
304.699
304.703
304.706
304.709
304.712
304.715
304.717
304.719
304.721
304.722
304.724
304.725
304.726
304.726
304.706
304.71
304.713
304.716
304.719
304.721
304.723
304.725
304.727
304.729
304.73
304.731
304.732
304.732
304.713
304.717
304.72
304.722
304.725
304.727
304.729
304.731
304.733
304.735
304.736
304.737
304.738
304.739
304.313
304.313
304.313
304.313
304.313
304.314
304.314
304.313
304.313
304.313
304.313
304.313
304.312
304.312
304.318
304.318
304.318
304.318
304.318
304.318
304.318
304.318
304.318
304.318
304.317
304.317
304.316
304.316
304.322
304.322
304.322
304.323
304.323
304.323
304.323
304.323
304.323
304.322
304.322
304.321
304.321
304.321
304.327
304.327
304.327
304.327
304.327
304.328
304.327
304.327
304.327
304.327
304.327
304.326
304.325
304.325
304.331
304.331
304.332
304.332
304.332
304.332
304.332
304.332
304.332
304.332
304.331
304.331
304.33
304.329
304.336
304.336
304.337
304.337
304.337
304.337
304.337
304.337
304.337
304.336
304.336
304.335
304.335
304.334
304.341
304.341
304.341
304.342
304.342
304.342
304.342
304.342
304.341
304.341
304.34
304.34
304.339
304.338
304.345
304.346
304.346
304.346
304.346
304.346
304.346
304.346
304.346
304.346
304.345
304.344
304.344
304.343
304.35
304.35
304.351
304.351
304.351
304.351
304.351
304.351
304.351
304.35
304.35
304.349
304.348
304.347
304.354
304.355
304.355
304.355
304.356
304.356
304.356
304.355
304.355
304.355
304.354
304.353
304.353
304.351
304.358
304.359
304.359
304.36
304.36
304.36
304.36
304.36
304.36
304.359
304.359
304.358
304.357
304.356
304.362
304.363
304.363
304.364
304.364
304.364
304.364
304.364
304.364
304.363
304.363
304.362
304.361
304.36
304.366
304.367
304.367
304.367
304.368
304.368
304.368
304.368
304.368
304.367
304.367
304.366
304.365
304.364
304.369
304.37
304.37
304.371
304.371
304.371
304.371
304.371
304.371
304.371
304.37
304.369
304.369
304.368
304.028
304.027
304.027
304.026
304.025
304.024
304.023
304.022
304.021
304.02
304.018
304.017
304.016
304.014
304.03
304.03
304.029
304.028
304.027
304.026
304.025
304.024
304.023
304.021
304.02
304.019
304.017
304.016
304.032
304.032
304.031
304.03
304.029
304.028
304.027
304.026
304.025
304.023
304.022
304.02
304.019
304.017
304.034
304.034
304.033
304.032
304.031
304.03
304.029
304.028
304.026
304.025
304.024
304.022
304.021
304.019
304.036
304.036
304.035
304.034
304.033
304.032
304.031
304.029
304.028
304.027
304.025
304.024
304.022
304.02
304.038
304.037
304.037
304.036
304.035
304.033
304.032
304.031
304.03
304.028
304.027
304.025
304.024
304.022
304.04
304.039
304.038
304.037
304.036
304.035
304.034
304.033
304.031
304.03
304.028
304.027
304.025
304.023
304.042
304.041
304.04
304.039
304.038
304.037
304.036
304.034
304.033
304.031
304.03
304.028
304.026
304.025
304.043
304.042
304.041
304.04
304.039
304.038
304.037
304.036
304.034
304.033
304.031
304.03
304.028
304.026
304.044
304.043
304.043
304.042
304.041
304.04
304.038
304.037
304.036
304.034
304.033
304.031
304.029
304.027
304.045
304.045
304.044
304.043
304.042
304.041
304.04
304.038
304.037
304.036
304.034
304.032
304.031
304.028
304.046
304.045
304.045
304.044
304.043
304.042
304.041
304.039
304.038
304.037
304.035
304.034
304.032
304.029
304.047
304.046
304.045
304.045
304.044
304.043
304.042
304.04
304.039
304.038
304.036
304.035
304.033
304.031
304.047
304.046
304.045
304.045
304.044
304.043
304.042
304.041
304.04
304.039
304.037
304.036
304.034
304.031
303.751
303.751
303.751
303.75
303.749
303.748
303.747
303.746
303.744
303.743
303.741
303.739
303.738
303.736
303.753
303.752
303.752
303.751
303.75
303.749
303.748
303.747
303.745
303.743
303.742
303.74
303.738
303.736
303.753
303.753
303.752
303.752
303.751
303.75
303.749
303.747
303.746
303.744
303.742
303.74
303.739
303.736
303.754
303.754
303.753
303.752
303.751
303.75
303.749
303.748
303.746
303.744
303.743
303.741
303.739
303.737
303.754
303.754
303.753
303.753
303.752
303.751
303.749
303.748
303.746
303.745
303.743
303.741
303.739
303.737
303.755
303.754
303.753
303.753
303.752
303.751
303.749
303.748
303.746
303.745
303.743
303.741
303.739
303.737
303.755
303.754
303.753
303.752
303.752
303.75
303.749
303.748
303.746
303.745
303.743
303.741
303.739
303.736
303.754
303.754
303.753
303.752
303.751
303.75
303.749
303.747
303.746
303.744
303.742
303.74
303.738
303.736
303.754
303.753
303.753
303.752
303.751
303.75
303.748
303.747
303.745
303.744
303.742
303.74
303.738
303.735
303.753
303.752
303.752
303.751
303.75
303.749
303.748
303.746
303.745
303.743
303.741
303.739
303.737
303.735
303.752
303.752
303.751
303.75
303.749
303.748
303.747
303.746
303.744
303.742
303.741
303.739
303.736
303.734
303.751
303.75
303.75
303.749
303.748
303.747
303.746
303.745
303.743
303.742
303.74
303.738
303.735
303.733
303.749
303.749
303.748
303.748
303.747
303.746
303.745
303.744
303.742
303.741
303.739
303.737
303.735
303.732
303.748
303.747
303.747
303.746
303.745
303.745
303.744
303.743
303.741
303.74
303.738
303.736
303.734
303.731
303.483
303.483
303.484
303.484
303.483
303.483
303.482
303.481
303.48
303.478
303.477
303.475
303.473
303.471
303.484
303.484
303.484
303.484
303.484
303.483
303.482
303.481
303.48
303.479
303.477
303.475
303.473
303.471
303.484
303.484
303.485
303.484
303.484
303.484
303.483
303.482
303.481
303.479
303.477
303.476
303.474
303.472
303.484
303.485
303.485
303.485
303.484
303.484
303.483
303.482
303.481
303.479
303.478
303.476
303.474
303.472
303.484
303.484
303.484
303.484
303.484
303.483
303.483
303.482
303.48
303.479
303.477
303.476
303.474
303.471
303.484
303.484
303.484
303.484
303.484
303.483
303.482
303.481
303.48
303.479
303.477
303.475
303.473
303.471
303.483
303.483
303.483
303.483
303.483
303.482
303.482
303.481
303.479
303.478
303.476
303.474
303.472
303.47
303.482
303.482
303.482
303.482
303.482
303.481
303.481
303.48
303.478
303.477
303.475
303.473
303.471
303.469
303.481
303.481
303.481
303.481
303.481
303.48
303.479
303.478
303.477
303.476
303.474
303.472
303.47
303.468
303.48
303.48
303.48
303.48
303.479
303.479
303.478
303.477
303.476
303.475
303.473
303.471
303.469
303.467
303.478
303.478
303.478
303.478
303.478
303.477
303.477
303.476
303.474
303.473
303.471
303.469
303.467
303.465
303.476
303.476
303.476
303.476
303.476
303.475
303.475
303.474
303.473
303.471
303.47
303.468
303.466
303.464
303.474
303.474
303.474
303.474
303.474
303.474
303.473
303.472
303.471
303.469
303.468
303.466
303.464
303.462
303.471
303.471
303.472
303.472
303.472
303.471
303.471
303.47
303.469
303.468
303.466
303.464
303.462
303.46
303.228
303.229
303.229
303.23
303.23
303.23
303.229
303.229
303.228
303.227
303.226
303.224
303.223
303.221
303.228
303.229
303.23
303.23
303.23
303.23
303.23
303.229
303.229
303.227
303.226
303.225
303.223
303.222
303.229
303.229
303.23
303.23
303.231
303.231
303.23
303.23
303.229
303.228
303.227
303.225
303.224
303.222
303.229
303.23
303.23
303.23
303.231
303.231
303.23
303.23
303.229
303.228
303.227
303.225
303.224
303.222
303.229
303.229
303.23
303.23
303.231
303.231
303.23
303.23
303.229
303.228
303.227
303.225
303.224
303.222
303.228
303.229
303.23
303.23
303.23
303.23
303.23
303.229
303.229
303.228
303.226
303.225
303.224
303.222
303.228
303.229
303.229
303.229
303.23
303.23
303.229
303.229
303.228
303.227
303.226
303.225
303.223
303.221
303.227
303.228
303.228
303.229
303.229
303.229
303.229
303.228
303.227
303.226
303.225
303.224
303.222
303.22
303.226
303.227
303.227
303.228
303.228
303.228
303.228
303.227
303.226
303.225
303.224
303.223
303.221
303.219
303.225
303.225
303.226
303.226
303.227
303.227
303.226
303.226
303.225
303.224
303.223
303.222
303.22
303.218
303.223
303.224
303.224
303.225
303.225
303.225
303.225
303.224
303.224
303.223
303.221
303.22
303.218
303.217
303.222
303.222
303.223
303.223
303.223
303.223
303.223
303.223
303.222
303.221
303.22
303.219
303.217
303.215
303.22
303.22
303.221
303.221
303.222
303.222
303.221
303.221
303.22
303.219
303.218
303.217
303.215
303.214
303.218
303.218
303.219
303.219
303.22
303.22
303.219
303.219
303.218
303.217
303.216
303.215
303.214
303.212
302.992
302.993
302.993
302.994
302.994
302.994
302.994
302.994
302.993
302.993
302.992
302.992
302.991
302.99
302.993
302.993
302.994
302.994
302.994
302.994
302.994
302.994
302.994
302.993
302.993
302.992
302.991
302.99
302.993
302.993
302.994
302.994
302.994
302.994
302.994
302.994
302.994
302.993
302.993
302.992
302.991
302.99
302.993
302.993
302.994
302.994
302.994
302.995
302.994
302.994
302.994
302.994
302.993
302.992
302.991
302.991
302.993
302.993
302.994
302.994
302.994
302.994
302.994
302.994
302.994
302.994
302.993
302.992
302.991
302.99
302.992
302.993
302.993
302.994
302.994
302.994
302.994
302.994
302.994
302.993
302.993
302.992
302.991
302.99
302.992
302.993
302.993
302.994
302.994
302.994
302.994
302.994
302.994
302.993
302.992
302.992
302.991
302.99
302.992
302.992
302.993
302.993
302.993
302.994
302.994
302.993
302.993
302.993
302.992
302.991
302.991
302.99
302.991
302.992
302.992
302.993
302.993
302.993
302.993
302.993
302.992
302.992
302.991
302.991
302.99
302.989
302.99
302.991
302.991
302.992
302.992
302.992
302.992
302.992
302.992
302.991
302.991
302.99
302.989
302.989
302.99
302.99
302.991
302.991
302.991
302.991
302.991
302.991
302.991
302.99
302.99
302.989
302.988
302.988
302.989
302.989
302.99
302.99
302.99
302.99
302.99
302.99
302.99
302.989
302.989
302.988
302.988
302.987
302.988
302.988
302.989
302.989
302.989
302.989
302.989
302.989
302.989
302.988
302.988
302.987
302.987
302.986
302.987
302.987
302.988
302.988
302.988
302.988
302.988
302.988
302.988
302.987
302.987
302.986
302.986
302.985
302.78
302.78
302.78
302.78
302.78
302.78
302.78
302.78
302.78
302.78
302.78
302.78
302.78
302.78
302.78
302.779
302.779
302.779
302.779
302.779
302.779
302.779
302.779
302.779
302.779
302.779
302.779
302.779
302.779
302.779
302.779
302.779
302.779
302.779
302.779
302.779
302.779
302.779
302.779
302.779
302.779
302.779
302.779
302.779
302.779
302.779
302.779
302.779
302.779
302.779
302.779
302.779
302.778
302.778
302.778
302.778
302.778
302.778
302.778
302.778
302.778
302.778
302.778
302.778
302.778
302.778
302.778
302.778
302.778
302.778
302.778
302.778
302.778
302.778
302.778
302.778
302.778
302.778
302.778
302.778
302.778
302.778
302.778
302.778
302.778
302.778
302.778
302.778
302.778
302.778
302.778
302.778
302.778
302.778
302.778
302.778
302.778
302.778
302.778
302.778
302.778
302.778
302.778
302.778
302.778
302.778
302.778
302.778
302.778
302.778
302.778
302.778
302.778
302.778
302.777
302.777
302.777
302.777
302.778
302.778
302.778
302.778
302.778
302.778
302.778
302.777
302.777
302.777
302.777
302.777
302.777
302.778
302.778
302.778
302.778
302.778
302.777
302.777
302.777
302.777
302.777
302.777
302.777
302.777
302.778
302.778
302.778
302.778
302.777
302.777
302.777
302.777
302.777
302.777
302.777
302.777
302.778
302.778
302.778
302.778
302.777
302.777
302.777
302.777
302.777
302.777
302.777
302.777
307.705
307.713
307.721
307.73
307.738
307.746
307.701
307.713
307.725
307.739
307.752
307.766
307.696
307.71
307.726
307.744
307.761
307.78
307.687
307.703
307.722
307.742
307.762
307.783
307.671
307.681
307.691
307.701
307.709
307.718
307.667
307.681
307.695
307.71
307.724
307.737
307.662
307.68
307.698
307.716
307.734
307.752
307.654
307.674
307.695
307.717
307.738
307.76
307.643
307.664
307.687
307.711
307.736
307.76
307.629
307.651
307.674
307.698
307.723
307.75
307.613
307.633
307.655
307.678
307.702
307.728
307.581
307.595
307.607
307.62
307.63
307.64
307.575
307.593
307.609
307.626
307.639
307.653
307.569
307.591
307.61
307.63
307.648
307.666
307.561
307.586