/*--------------------------------*- C++ -*----------------------------------*\
| =========                 |                                                 |
| \\      /  F ield         | OpenFOAM: The Open Source CFD Toolbox           |
|  \\    /   O peration     | Version:  v2106                                 |
|   \\  /    A nd           | Website:  www.openfoam.com                      |
|    \\/     M anipulation  |                                                 |
\*---------------------------------------------------------------------------*/
FoamFile
{
    version     2.0;
    format      ascii;
    arch        "LSB;label=32;scalar=64";
    class       volScalarField;
    location    "0.000149";
    object      T;
}
// * * * * * * * * * * * * * * * * * * * * * * * * * * * * * * * * * * * * * //

dimensions      [0 0 0 1 0 0 0];

internalField   nonuniform List<scalar> 
18109
(
300.767
301.568
301.8
302.085
302.319
302.488
302.616
301.124
301.612
301.857
302.086
302.292
302.452
302.577
301.428
301.725
301.934
302.127
302.305
302.46
302.582
301.762
301.894
302.051
302.208
302.349
302.485
302.597
302.003
302.079
302.197
302.298
302.418
302.532
302.629
302.197
302.223
302.321
302.401
302.492
302.577
302.655
302.335
302.356
302.427
302.478
302.547
302.609
302.675
302.381
302.418
302.474
302.511
302.567
302.613
302.669
301.944
302.465
302.669
302.935
303.142
303.283
303.392
303.475
303.537
303.568
303.566
303.523
303.45
303.388
302.16
302.487
302.7
302.92
303.107
303.25
303.362
303.444
303.501
303.53
303.546
303.546
303.542
303.54
302.406
302.605
302.78
302.96
303.124
303.264
303.374
303.456
303.518
303.556
303.581
303.597
303.611
303.646
302.653
302.767
302.912
303.042
303.176
303.299
303.401
303.483
303.542
303.585
303.618
303.653
303.689
303.752
302.857
302.927
303.037
303.138
303.247
303.352
303.442
303.519
303.578
303.623
303.657
303.701
303.744
303.829
303.035
303.065
303.16
303.236
303.321
303.401
303.473
303.54
303.594
303.642
303.68
303.731
303.788
303.88
303.156
303.178
303.246
303.301
303.372
303.434
303.496
303.555
303.602
303.649
303.688
303.742
303.802
303.893
303.199
303.229
303.282
303.325
303.388
303.439
303.493
303.544
303.587
303.632
303.671
303.727
303.788
303.895
303.168
303.212
303.251
303.295
303.355
303.407
303.462
303.513
303.554
303.596
303.635
303.688
303.741
303.853
303.065
303.144
303.182
303.24
303.3
303.36
303.423
303.479
303.523
303.561
303.596
303.637
303.681
303.785
302.927
303.027
303.08
303.151
303.221
303.295
303.368
303.433
303.481
303.516
303.543
303.575
303.608
303.694
302.719
302.859
302.951
303.047
303.14
303.241
303.338
303.417
303.466
303.492
303.506
303.518
303.535
303.584
302.506
302.67
302.788
302.93
303.063
303.192
303.304
303.397
303.459
303.491
303.49
303.47
303.474
303.447
301.882
302.281
302.552
302.815
303.017
303.194
303.315
303.405
303.461
303.474
303.471
303.435
303.411
303.332
300.147
299.052
297.525
295.45
293.227
291.222
301.554
300.907
300.008
298.603
296.802
294.852
302.368
301.842
301.113
299.91
298.321
296.705
302.676
302.35
301.849
301.011
299.914
298.838
302.999
302.83
302.577
302.109
301.479
300.951
303.211
303.204
303.201
303.075
302.919
302.845
303.389
303.488
303.642
303.778
303.975
304.309
303.512
303.674
303.933
304.263
304.731
305.336
303.583
303.77
304.081
304.531
305.149
305.873
303.619
303.805
304.109
304.588
305.223
305.95
303.61
303.774
304.048
304.501
305.064
305.625
303.568
303.692
303.907
304.231
304.583
304.814
303.524
303.612
303.738
303.878
303.933
303.776
303.444
303.46
303.468
303.429
303.192
302.573
303.469
303.421
303.317
303.066
302.617
301.675
303.243
303.116
303.013
302.792
302.347
301.443
303.57
303.431
303.337
303.079
302.573
301.754
303.674
303.589
303.559
303.376
302.987
302.394
303.831
303.816
303.849
303.774
303.565
303.255
303.931
304.013
304.122
304.177
304.182
304.192
304.016
304.175
304.369
304.573
304.781
305.05
304.032
304.229
304.484
304.81
305.196
305.672
304.041
304.274
304.572
304.981
305.493
306.083
303.985
304.21
304.51
304.945
305.485
306.094
303.886
304.072
304.335
304.729
305.189
305.645
303.767
303.915
304.12
304.389
304.634
304.765
303.646
303.727
303.797
303.839
303.784
303.491
303.485
303.479
303.431
303.257
302.88
302.132
303.422
303.304
303.135
302.75
302.142
301.157
303.201
303.017
302.801
302.435
301.782
300.949
303.429
303.258
303.034
302.632
301.987
301.16
303.454
303.346
303.223
302.953
302.515
301.948
303.519
303.49
303.463
303.359
303.148
302.883
303.528
303.569
303.662
303.744
303.826
303.945
303.529
303.65
303.83
304.077
304.388
304.756
303.463
303.6
303.833
304.181
304.634
305.11
303.338
303.454
303.693
304.057
304.508
304.866
303.169
303.234
303.416
303.67
303.843
303.804
302.952
302.91
302.886
302.812
302.461
301.574
302.698
302.48
302.134
301.482
300.313
298.414
302.312
301.798
301.035
299.76
297.891
295.425
301.932
301.153
300.053
298.367
296.261
293.895
301.557
300.608
299.344
297.569
295.521
293.433
301.58
301.161
300.336
298.827
296.338
293.049
301.089
300.28
298.876
296.623
293.538
290.024
300.671
299.563
297.815
295.275
292.294
289.253
300.29
299.024
297.169
294.66
291.877
289.368
301.393
300.5
299.334
297.754
295.968
294.218
302.194
301.377
300.319
298.915
297.385
296.027
302.489
301.866
301.059
300.023
298.98
298.206
302.809
302.375
301.839
301.192
300.679
300.431
302.979
302.756
302.524
302.281
302.228
302.432
303.107
303.043
303.052
303.098
303.39
303.892
303.175
303.177
303.307
303.574
304.065
304.61
303.128
303.13
303.293
303.643
304.15
304.573
302.98
302.944
303.081
303.367
303.64
303.688
302.749
302.671
302.658
302.635
302.424
301.653
302.539
302.366
302.133
301.598
300.58
298.733
302.236
301.864
301.276
300.144
298.356
295.8
301.984
301.452
300.588
299.04
296.887
294.288
301.77
301.111
300.078
298.389
296.263
293.934
292.029
289.482
289.083
289.606
288.971
294.821
293.422
293.562
294.251
293.199
297.903
297.269
297.711
298.295
296.668
300.74
300.789
301.251
301.05
297.833
303.144
303.732
304.244
303.051
297.761
305.014
305.774
306.056
303.968
296.723
306.228
306.949
306.962
304.442
296.83
306.751
307.384
307.097
303.688
295.452
284.249
306.713
307.068
305.97
301.29
292.197
281.216
305.903
305.393
302.896
297.042
288.438
278.974
304.295
302.216
297.916
291.543
284.615
278.528
274.539
302.157
298.191
292.587
287.003
282.73
279.645
278.516
277.363
300.17
295.276
289.837
285.55
283.249
282.518
283.712
289.652
299.275
294.635
289.966
286.577
284.963
283.261
282.569
281.059
299.179
295.203
291.73
289.531
288.249
284.57
279.786
274.848
299.795
297.095
295.032
294.18
293.653
290.592
282.816
275.508
301.19
299.644
298.779
298.646
298.215
294.692
289.983
279.471
302.685
302.11
302.058
302.033
300.581
295.567
289.681
282.846
304.235
304.418
304.77
304.482
301.53
293.387
283.481
273.581
305.53
306.122
306.516
305.701
301.298
291.605
279.692
270.864
306.389
307.102
307.376
306.303
301.421
292.028
281.075
269.891
306.837
307.468
307.527
305.862
300.171
290.205
279.469
272.981
306.753
307.122
306.58
303.895
297.509
287.331
305.848
305.466
303.84
299.887
293.588
284.997
304.155
302.331
299.114
294.454
289.376
283.845
301.923
298.415
294.189
289.966
286.423
283.72
299.925
295.609
291.225
287.547
285.362
284.223
298.944
294.969
291.254
288.276
286.328
298.792
295.474
292.96
291.358
289.556
299.482
297.344
296.244
295.913
294.739
300.995
300.014
299.857
300.055
298.466
302.656
302.533
302.723
302.395
299.701
304.218
304.544
304.683
303.466
298.604
305.225
305.567
305.337
303.134
296.006
305.56
305.69
304.743
301.04
293.326
304.951
304.117
301.624
296.339
288.751
302.79
300.297
296.242
290.6
284.25
299.043
294.88
290.52
286.213
282.286
294.77
290.171
287.13
284.679
282.997
291.472
287.26
285.951
285.76
285.691
290.468
286.785
286.059
287.438
288.38
290.611
287.931
287.817
289.319
289.553
292.233
290.798
291.286
292.417
290.896
294.968
294.484
295.282
296.308
293.95
297.866
298.101
298.963
299.267
296.192
300.643
301.301
301.875
300.631
295.522
303.088
303.753
303.739
300.984
292.974
304.616
305.05
304.332
299.885
289.72
305.182
305.279
303.539
297.61
287.587
304.713
303.72
300.207
293.089
283.837
302.691
299.924
294.932
287.853
280.116
299.039
294.461
289.324
284.053
278.928
294.73
289.273
285.42
282.555
280.305
291.38
286.352
284.404
283.889
283.795
290.205
285.745
284.509
285.617
287.038
290.388
286.608
285.703
286.8
288.181
303.527
303.814
303.978
304.168
304.323
304.425
304.523
304.609
304.68
304.739
304.773
304.789
304.768
304.745
303.668
303.861
304
304.156
304.291
304.401
304.497
304.582
304.649
304.702
304.746
304.771
304.804
304.818
303.863
303.969
304.075
304.193
304.311
304.414
304.505
304.588
304.656
304.711
304.757
304.79
304.828
304.864
304.03
304.09
304.172
304.262
304.356
304.449
304.534
304.611
304.673
304.728
304.774
304.815
304.856
304.902
304.175
304.197
304.272
304.336
304.415
304.494
304.57
304.642
304.7
304.754
304.795
304.837
304.878
304.929
304.297
304.294
304.353
304.402
304.47
304.532
304.595
304.658
304.71
304.764
304.803
304.848
304.89
304.95
304.358
304.362
304.404
304.441
304.504
304.557
304.614
304.671
304.719
304.769
304.805
304.851
304.892
304.956
304.368
304.38
304.41
304.444
304.504
304.554
304.61
304.664
304.71
304.759
304.794
304.841
304.88
304.953
304.333
304.35
304.379
304.418
304.477
304.53
304.587
304.642
304.69
304.738
304.774
304.82
304.855
304.934
304.248
304.29
304.318
304.371
304.433
304.495
304.559
304.619
304.669
304.715
304.752
304.794
304.824
304.902
304.125
304.178
304.227
304.297
304.37
304.445
304.517
304.584
304.638
304.683
304.72
304.756
304.784
304.848
303.967
304.046
304.126
304.215
304.311
304.405
304.493
304.568
304.623
304.661
304.693
304.717
304.738
304.788
303.816
303.906
304.016
304.134
304.255
304.368
304.468
304.553
304.614
304.65
304.672
304.68
304.695
304.697
303.459
303.674
303.879
304.062
304.227
304.366
304.468
304.551
304.608
304.64
304.665
304.654
304.64
304.618
305.298
305.413
305.496
305.592
305.67
305.728
305.796
305.865
305.925
305.997
306.054
306.116
306.14
306.181
305.396
305.472
305.522
305.585
305.654
305.712
305.774
305.839
305.894
305.958
306.014
306.078
306.133
306.178
305.529
305.548
305.581
305.628
305.684
305.731
305.783
305.841
305.893
305.956
306.008
306.068
306.114
306.17
305.615
305.611
305.64
305.672
305.717
305.759
305.806
305.855
305.899
305.955
306.002
306.056
306.098
306.153
305.68
305.667
305.697
305.716
305.757
305.793
305.835
305.88
305.92
305.967
306.003
306.048
306.083
306.131
305.712
305.702
305.729
305.746
305.783
305.814
305.852
305.891
305.926
305.969
305.999
306.037
306.067
306.11
305.709
305.71
305.734
305.756
305.796
305.826
305.864
305.9
305.932
305.969
305.993
306.026
306.05
306.091
305.699
305.699
305.717
305.741
305.782
305.816
305.856
305.892
305.924
305.957
305.978
306.009
306.03
306.073
305.652
305.653
305.675
305.707
305.75
305.789
305.831
305.869
305.901
305.935
305.957
305.988
306.007
306.055
305.584
305.591
305.622
305.661
305.708
305.752
305.798
305.839
305.875
305.91
305.935
305.969
305.989
306.043
305.499
305.501
305.547
305.594
305.648
305.699
305.749
305.794
305.834
305.873
305.903
305.939
305.963
306.016
305.392
305.409
305.469
305.527
305.593
305.653
305.709
305.758
305.801
305.843
305.877
305.917
305.946
306.001
305.289
305.331
305.4
305.467
305.539
305.607
305.668
305.723
305.769
305.814
305.851
305.889
305.926
305.964
305.128
305.221
305.338
305.429
305.515
305.589
305.652
305.707
305.754
305.803
305.844
305.875
305.905
305.962
306.486
306.524
306.55
306.585
306.613
306.631
306.664
306.698
306.735
306.792
306.837
306.904
306.931
306.99
306.556
306.566
306.57
306.584
306.601
306.617
306.647
306.679
306.711
306.757
306.796
306.852
306.897
306.949
306.617
306.602
306.609
306.616
306.626
306.635
306.657
306.683
306.711
306.751
306.785
306.833
306.869
306.918
306.65
306.631
306.634
306.638
306.649
306.658
306.675
306.693
306.711
306.741
306.767
306.806
306.84
306.884
306.665
306.649
306.657
306.664
306.679
306.689
306.703
306.715
306.727
306.747
306.763
306.791
306.817
306.853
306.656
306.649
306.664
306.677
306.697
306.708
306.721
306.729
306.736
306.749
306.756
306.774
306.792
306.82
306.646
306.648
306.668
306.685
306.709
306.723
306.736
306.742
306.744
306.749
306.749
306.759
306.77
306.794
306.621
306.63
306.655
306.677
306.704
306.72
306.735
306.739
306.739
306.741
306.737
306.744
306.749
306.771
306.585
306.596
306.626
306.655
306.683
306.701
306.716
306.721
306.72
306.722
306.718
306.725
306.728
306.752
306.55
306.557
306.59
306.62
306.649
306.667
306.683
306.689
306.692
306.696
306.695
306.708
306.713
306.744
306.496
306.501
306.539
306.567
306.596
306.614
306.629
306.639
306.647
306.658
306.665
306.685
306.697
306.733
306.439
306.448
306.485
306.513
306.54
306.558
306.575
306.588
306.602
306.619
306.636
306.666
306.689
306.736
306.39
306.403
306.434
306.457
306.48
306.498
306.517
306.535
306.556
306.583
306.61
306.649
306.683
306.731
306.315
306.353
306.395
306.417
306.444
306.462
306.482
306.502
306.526
306.557
306.59
306.634
306.67
306.742
307.179
307.15
307.134
307.127
307.131
307.136
307.154
307.177
307.205
307.246
307.284
307.335
307.371
307.416
307.164
307.136
307.115
307.105
307.104
307.106
307.121
307.14
307.165
307.2
307.233
307.276
307.311
307.344
307.179
307.14
307.121
307.105
307.097
307.095
307.104
307.118
307.14
307.171
307.202
307.241
307.274
307.306
307.164
307.127
307.106
307.092
307.084
307.083
307.09
307.101
307.118
307.143
307.168
307.201
307.233
307.264
307.161
307.123
307.101
307.088
307.082
307.081
307.087
307.095
307.109
307.129
307.149
307.176
307.204
307.232
307.137
307.105
307.088
307.078
307.075
307.075
307.082
307.087
307.098
307.113
307.129
307.151
307.175
307.202
307.117
307.091
307.079
307.073
307.073
307.075
307.08
307.084
307.091
307.102
307.113
307.132
307.153
307.179
307.097
307.078
307.072
307.07
307.072
307.074
307.078
307.079
307.083
307.091
307.098
307.115
307.132
307.159
307.07
307.059
307.06
307.062
307.066
307.068
307.07
307.069
307.071
307.077
307.083
307.101
307.115
307.143
307.054
307.045
307.051
307.056
307.061
307.06
307.062
307.058
307.058
307.064
307.07
307.09
307.103
307.133
307.036
307.029
307.038
307.041
307.046
307.044
307.044
307.04
307.041
307.048
307.057
307.08
307.095
307.128
307.018
307.015
307.025
307.026
307.031
307.027
307.026
307.022
307.023
307.032
307.043
307.071
307.089
307.126
307.003
307.002
307.011
307.009
307.01
307.006
307.005
307.003
307.007
307.019
307.035
307.066
307.09
307.131
306.989
306.988
306.997
306.996
306.999
306.994
306.993
306.993
306.997
307.01
307.025
307.058
307.079
307.137
307.609
307.556
307.509
307.482
307.463
307.454
307.456
307.464
307.48
307.501
307.525
307.554
307.583
307.61
307.545
307.491
307.446
307.415
307.395
307.384
307.384
307.392
307.409
307.431
307.455
307.485
307.513
307.536
307.494
307.44
307.39
307.357
307.333
307.32
307.319
307.328
307.345
307.369
307.398
307.43
307.464
307.487
307.432
307.378
307.327
307.294
307.27
307.258
307.258
307.268
307.286
307.312
307.342
307.376
307.411
307.438
307.391
307.333
307.28
307.247
307.223
307.211
307.21
307.221
307.24
307.267
307.299
307.333
307.371
307.401
307.346
307.287
307.237
307.203
307.179
307.168
307.168
307.179
307.198
307.226
307.258
307.293
307.332
307.364
307.313
307.254
307.206
307.172
307.149
307.138
307.138
307.148
307.167
307.194
307.225
307.262
307.299
307.334
307.29
307.231
307.187
307.152
307.13
307.117
307.117
307.126
307.143
307.168
307.197
307.233
307.268
307.304
307.268
307.212
307.172
307.137
307.116
307.103
307.101
307.109
307.123
307.147
307.174
307.21
307.242
307.28
307.259
307.205
307.168
307.134
307.113
307.097
307.092
307.098
307.109
307.13
307.153
307.188
307.216
307.255
307.253
307.205
307.172
307.138
307.117
307.099
307.091
307.092
307.099
307.117
307.137
307.171
307.196
307.235
307.251
307.208
307.181
307.148
307.126
307.107
307.096
307.092
307.094
307.107
307.123
307.153
307.176
307.214
307.251
307.214
307.191
307.159
307.138
307.117
307.103
307.095
307.093
307.102
307.115
307.142
307.163
307.199
307.245
307.206
307.19
307.163
307.146
307.126
307.112
307.1
307.094
307.097
307.104
307.126
307.141
307.179
307.808
307.765
307.719
307.683
307.652
307.629
307.614
307.604
307.601
307.601
307.607
307.616
307.632
307.638
307.728
307.682
307.632
307.593
307.559
307.535
307.52
307.511
307.51
307.514
307.523
307.536
307.555
307.566
307.649
307.599
307.543
307.502
307.465
307.442
307.427
307.421
307.423
307.433
307.449
307.467
307.494
307.508
307.565
307.51
307.451
307.408
307.371
307.349
307.336
307.333
307.341
307.356
307.378
307.403
307.433
307.454
307.495
307.434
307.372
307.327
307.29
307.268
307.256
307.258
307.27
307.29
307.317
307.347
307.382
307.409
307.425
307.36
307.299
307.252
307.217
307.196
307.186
307.19
307.207
307.231
307.262
307.296
307.334
307.366
307.366
307.299
307.239
307.192
307.158
307.138
307.13
307.137
307.156
307.182
307.215
307.254
307.294
307.33
307.319
307.25
307.193
307.146
307.114
307.094
307.087
307.095
307.114
307.14
307.174
307.214
307.254
307.293
307.281
307.212
307.159
307.113
307.083
307.063
307.057
307.064
307.081
307.108
307.141
307.181
307.219
307.26
307.254
307.189
307.14
307.096
307.067
307.047
307.039
307.043
307.057
307.081
307.11
307.149
307.183
307.225
307.237
307.177
307.133
307.09
307.061
307.04
307.03
307.03
307.041
307.061
307.086
307.121
307.152
307.193
307.224
307.169
307.13
307.09
307.064
307.042
307.029
307.024
307.03
307.044
307.063
307.094
307.12
307.16
307.218
307.169
307.136
307.099
307.073
307.049
307.033
307.024
307.024
307.032
307.045
307.071
307.092
307.129
307.205
307.159
307.134
307.101
307.08
307.056
307.038
307.024
307.017
307.019
307.025
307.043
307.057
307.091
307.84
307.812
307.777
307.746
307.718
307.694
307.673
307.657
307.644
307.636
307.631
307.63
307.634
307.627
307.762
307.732
307.694
307.662
307.633
307.609
307.588
307.573
307.561
307.554
307.55
307.55
307.555
307.551
307.683
307.649
307.608
307.575
307.544
307.521
307.501
307.487
307.476
307.471
307.47
307.472
307.482
307.48
307.6
307.562
307.519
307.485
307.453
307.43
307.41
307.397
307.39
307.387
307.389
307.395
307.409
307.415
307.522
307.479
307.434
307.398
307.366
307.341
307.322
307.31
307.306
307.306
307.313
307.326
307.344
307.357
307.444
307.396
307.35
307.313
307.279
307.254
307.236
307.227
307.225
307.231
307.244
307.263
307.284
307.303
307.373
307.322
307.274
307.234
307.201
307.176
307.159
307.153
307.155
307.166
307.184
307.206
307.231
307.255
307.309
307.254
307.207
307.166
307.132
307.108
307.093
307.088
307.093
307.109
307.129
307.153
307.18
307.207
307.253
307.197
307.151
307.108
307.076
307.052
307.038
307.035
307.043
307.06
307.081
307.107
307.134
307.163
307.206
307.149
307.106
307.064
307.032
307.008
306.995
306.992
307
307.016
307.037
307.063
307.089
307.12
307.167
307.112
307.072
307.031
307.001
306.976
306.963
306.959
306.966
306.98
306.999
307.024
307.048
307.079
307.134
307.082
307.045
307.007
306.978
306.954
306.939
306.933
306.937
306.948
306.963
306.986
307.007
307.038
307.109
307.062
307.028
306.992
306.963
306.938
306.921
306.913
306.914
306.921
306.932
306.952
306.97
307
307.081
307.037
307.009
306.977
306.951
306.926
306.907
306.895
306.891
306.895
306.901
306.917
306.93
306.959
307.748
307.735
307.715
307.697
307.679
307.661
307.645
307.631
307.619
307.609
307.602
307.599
307.602
307.595
307.675
307.663
307.643
307.627
307.609
307.592
307.576
307.562
307.55
307.54
307.534
307.531
307.533
307.525
307.604
307.592
307.571
307.555
307.536
307.52
307.504
307.49
307.478
307.469
307.463
307.46
307.463
307.456
307.531
307.516
307.496
307.479
307.46
307.444
307.429
307.416
307.404
307.396
307.391
307.389
307.391
307.387
307.459
307.443
307.421
307.403
307.385
307.369
307.354
307.341
307.33
307.323
307.319
307.318
307.321
307.321
307.388
307.369
307.347
307.327
307.309
307.292
307.277
307.265
307.256
307.25
307.248
307.25
307.254
307.258
307.319
307.297
307.274
307.253
307.234
307.217
307.203
307.191
307.183
307.18
307.181
307.185
307.192
307.2
307.252
307.228
307.204
307.182
307.161
307.144
307.13
307.12
307.115
307.114
307.117
307.123
307.133
307.145
307.189
307.162
307.138
307.114
307.092
307.074
307.061
307.053
307.05
307.052
307.059
307.069
307.081
307.095
307.131
307.101
307.078
307.053
307.031
307.013
307
306.993
306.993
306.997
307.007
307.019
307.032
307.048
307.079
307.047
307.023
306.997
306.976
306.959
306.947
306.942
306.943
306.949
306.96
306.974
306.987
307.004
307.031
306.998
306.974
306.949
306.929
306.913
306.902
306.897
306.899
306.904
306.915
306.93
306.944
306.961
306.989
306.956
306.933
306.908
306.888
306.873
306.862
306.858
306.86
306.865
306.875
306.89
306.905
306.924
306.947
306.915
306.893
306.871
306.853
306.839
306.829
306.824
306.825
306.829
306.838
306.852
306.867
306.887
307.552
307.552
307.544
307.536
307.529
307.522
307.516
307.509
307.504
307.498
307.495
307.494
307.496
307.497
307.492
307.494
307.487
307.481
307.476
307.471
307.466
307.461
307.456
307.451
307.449
307.448
307.45
307.448
307.435
307.436
307.43
307.426
307.421
307.418
307.414
307.41
307.405
307.402
307.4
307.398
307.4
307.398
307.376
307.377
307.372
307.368
307.365
307.362
307.359
307.356
307.352
307.35
307.348
307.347
307.348
307.346
307.317
307.317
307.312
307.309
307.306
307.305
307.303
307.3
307.298
307.296
307.294
307.293
307.294
307.293
307.259
307.256
307.252
307.249
307.247
307.246
307.245
307.243
307.241
307.24
307.239
307.239
307.24
307.241
307.201
307.195
307.191
307.188
307.187
307.186
307.185
307.184
307.184
307.184
307.184
307.185
307.186
307.19
307.143
307.136
307.131
307.128
307.127
307.126
307.126
307.126
307.127
307.128
307.128
307.13
307.133
307.138
307.088
307.08
307.074
307.069
307.068
307.067
307.067
307.069
307.07
307.072
307.074
307.078
307.082
307.088
307.036
307.025
307.018
307.012
307.01
307.009
307.01
307.012
307.014
307.018
307.022
307.027
307.032
307.039
306.986
306.974
306.965
306.958
306.954
306.953
306.955
306.958
306.962
306.967
306.972
306.979
306.985
306.994
306.937
306.923
306.915
306.907
306.902
306.901
306.902
306.905
306.911
306.918
306.925
306.934
306.941
306.953
306.891
306.877
306.867
306.859
306.855
306.853
306.855
306.86
306.867
306.874
306.884
306.894
306.904
306.917
306.847
306.833
306.825
306.818
306.815
306.813
306.814
306.817
306.824
306.833
306.844
306.856
306.87
306.884
307.332
307.339
307.344
307.349
307.354
307.359
307.363
307.366
307.369
307.372
307.375
307.379
307.383
307.388
307.29
307.3
307.306
307.313
307.319
307.325
307.33
307.334
307.338
307.342
307.346
307.35
307.355
307.357
307.251
307.261
307.269
307.277
307.284
307.29
307.295
307.3
307.305
307.309
307.312
307.316
307.322
307.325
307.209
307.221
307.229
307.239
307.247
307.253
307.259
307.264
307.27
307.274
307.278
307.282
307.286
307.288
307.167
307.179
307.189
307.199
307.207
307.215
307.222
307.228
307.233
307.236
307.239
307.243
307.247
307.25
307.125
307.137
307.147
307.158
307.166
307.174
307.181
307.187
307.192
307.196
307.199
307.203
307.207
307.21
307.083
307.093
307.104
307.114
307.123
307.131
307.139
307.145
307.15
307.154
307.158
307.162
307.166
307.17
307.04
307.049
307.06
307.07
307.079
307.088
307.095
307.102
307.107
307.112
307.116
307.12
307.124
307.128
306.998
307.006
307.015
307.025
307.034
307.043
307.051
307.059
307.065
307.07
307.074
307.077
307.08
307.086
306.956
306.96
306.969
306.979
306.988
306.998
307.007
307.015
307.021
307.026
307.03
307.034
307.037
307.045
306.914
306.916
306.924
306.933
306.943
306.952
306.962
306.97
306.977
306.984
306.988
306.994
306.998
307.007
306.874
306.873
306.88
306.889
306.899
306.908
306.918
306.927
306.936
306.943
306.95
306.957
306.962
306.973
306.833
306.832
306.839
306.847
306.858
306.868
306.878
306.888
306.899
306.908
306.916
306.925
306.932
306.942
306.796
306.796
306.803
306.811
306.821
306.83
306.84
306.85
306.862
306.872
306.883
306.893
306.903
306.912
307.102
307.118
307.132
307.146
307.158
307.171
307.182
307.193
307.203
307.212
307.22
307.228
307.234
307.242
307.08
307.097
307.111
307.126
307.14
307.154
307.167
307.178
307.189
307.198
307.207
307.216
307.224
307.231
307.058
307.075
307.09
307.107
307.122
307.136
307.15
307.162
307.174
307.184
307.194
307.203
307.211
307.218
307.035
307.054
307.07
307.088
307.104
307.119
307.133
307.145
307.157
307.167
307.177
307.186
307.194
307.202
307.012
307.031
307.049
307.067
307.084
307.099
307.113
307.126
307.138
307.149
307.158
307.167
307.175
307.182
306.987
307.007
307.026
307.044
307.061
307.077
307.092
307.105
307.117
307.128
307.138
307.146
307.154
307.161
306.962
306.982
307.001
307.02
307.037
307.053
307.068
307.082
307.094
307.104
307.113
307.121
307.129
307.135
306.935
306.954
306.974
306.993
307.011
307.027
307.043
307.057
307.069
307.079
307.088
307.096
307.102
307.11
306.907
306.925
306.945
306.964
306.982
307
307.016
307.03
307.041
307.052
307.06
307.069
307.075
307.083
306.878
306.895
306.915
306.934
306.953
306.971
306.987
307.001
307.014
307.024
307.033
307.042
307.049
307.057
306.85
306.866
306.886
306.905
306.924
306.942
306.958
306.973
306.985
306.996
307.006
307.015
307.021
307.031
306.822
306.837
306.856
306.875
306.894
306.912
306.929
306.944
306.957
306.968
306.978
306.988
306.994
307.005
306.794
306.809
306.827
306.846
306.865
306.883
306.9
306.916
306.93
306.942
306.952
306.962
306.969
306.979
306.771
306.785
306.802
306.82
306.838
306.855
306.872
306.887
306.901
306.914
306.925
306.935
306.943
306.95
306.863
306.882
306.901
306.92
306.938
306.955
306.972
306.987
307.001
307.014
307.027
307.038
307.048
307.059
306.857
306.878
306.897
306.917
306.935
306.953
306.97
306.987
307.002
307.017
307.03
307.042
307.054
307.066
306.851
306.873
306.893
306.913
306.932
306.951
306.969
306.986
307.003
307.018
307.032
307.045
307.057
307.07
306.845
306.867
306.888
306.909
306.929
306.949
306.968
306.985
307.002
307.018
307.033
307.047
307.059
307.072
306.838
306.86
306.882
306.904
306.925
306.946
306.965
306.983
307.001
307.017
307.032
307.046
307.058
307.071
306.83
306.853
306.876
306.898
306.92
306.941
306.961
306.98
306.998
307.014
307.029
307.043
307.056
307.068
306.821
306.845
306.868
306.891
306.914
306.935
306.956
306.975
306.992
307.009
307.024
307.037
307.05
307.061
306.811
306.835
306.859
306.882
306.905
306.927
306.948
306.967
306.985
307.001
307.016
307.029
307.041
307.053
306.799
306.824
306.848
306.872
306.896
306.918
306.938
306.957
306.975
306.991
307.005
307.018
307.03
307.04
306.787
306.811
306.836
306.86
306.884
306.906
306.927
306.946
306.963
306.979
306.993
307.005
307.016
307.026
306.774
306.798
306.823
306.847
306.87
306.892
306.913
306.932
306.949
306.964
306.977
306.989
306.999
307.009
306.761
306.784
306.808
306.832
306.855
306.877
306.898
306.916
306.933
306.948
306.961
306.972
306.981
306.991
306.747
306.771
306.794
306.818
306.84
306.862
306.882
306.9
306.917
306.931
306.944
306.954
306.963
306.973
306.737
306.76
306.782
306.805
306.826
306.847
306.866
306.884
306.899
306.913
306.925
306.935
306.943
306.951
306.599
306.62
306.64
306.66
306.679
306.697
306.715
306.732
306.748
306.763
306.777
306.79
306.803
306.817
306.605
306.625
306.646
306.666
306.686
306.705
306.724
306.742
306.76
306.776
306.791
306.806
306.82
306.836
306.612
306.633
306.654
306.675
306.695
306.715
306.735
306.753
306.771
306.788
306.805
306.82
306.834
306.85
306.618
306.639
306.662
306.683
306.704
306.725
306.745
306.765
306.784
306.801
306.818
306.835
306.85
306.866
306.625
306.647
306.67
306.692
306.714
306.735
306.756
306.776
306.795
306.813
306.831
306.847
306.863
306.879
306.631
306.654
306.678
306.7
306.723
306.745
306.766
306.787
306.806
306.825
306.843
306.86
306.875
306.891
306.637
306.661
306.685
306.708
306.731
306.754
306.775
306.796
306.816
306.835
306.853
306.869
306.885
306.9
306.643
306.667
306.692
306.715
306.739
306.762
306.783
306.804
306.824
306.843
306.861
306.877
306.893
306.907
306.647
306.673
306.697
306.721
306.745
306.768
306.79
306.811
306.831
306.849
306.866
306.882
306.897
306.911
306.651
306.677
306.702
306.726
306.75
306.773
306.795
306.816
306.835
306.853
306.87
306.885
306.899
306.912
306.655
306.68
306.705
306.73
306.754
306.776
306.798
306.818
306.837
306.854
306.87
306.884
306.898
306.91
306.657
306.683
306.708
306.732
306.756
306.778
306.799
306.818
306.836
306.853
306.868
306.882
306.894
306.906
306.659
306.685
306.709
306.733
306.756
306.778
306.798
306.816
306.833
306.849
306.863
306.876
306.887
306.898
306.663
306.689
306.712
306.735
306.756
306.777
306.795
306.813
306.828
306.843
306.856
306.867
306.878
306.887
306.296
306.314
306.334
306.352
306.37
306.388
306.405
306.422
306.438
306.454
306.469
306.483
306.496
306.51
306.31
306.327
306.347
306.366
306.385
306.404
306.422
306.44
306.457
306.473
306.489
306.504
306.518
306.534
306.326
306.345
306.365
306.384
306.403
306.422
306.44
306.458
306.475
306.492
306.508
306.523
306.538
306.554
306.342
306.36
306.381
306.401
306.42
306.439
306.458
306.477
306.495
306.512
306.529
306.545
306.56
306.576
306.358
306.378
306.399
306.419
306.439
306.458
306.477
306.496
306.514
306.532
306.549
306.565
306.58
306.596
306.374
306.395
306.416
306.436
306.457
306.477
306.496
306.515
306.534
306.552
306.569
306.586
306.602
306.617
306.391
306.412
306.434
306.455
306.475
306.495
306.515
306.534
306.553
306.571
306.588
306.605
306.621
306.636
306.408
306.43
306.452
306.473
306.493
306.514
306.533
306.553
306.571
306.589
306.607
306.624
306.64
306.655
306.424
306.447
306.469
306.49
306.511
306.531
306.551
306.57
306.589
306.606
306.624
306.64
306.656
306.671
306.441
306.464
306.486
306.507
306.528
306.548
306.568
306.587
306.605
306.622
306.639
306.655
306.671
306.685
306.457
306.481
306.502
306.524
306.544
306.564
306.583
306.602
306.619
306.636
306.652
306.668
306.683
306.697
306.474
306.497
306.518
306.54
306.56
306.579
306.597
306.615
306.632
306.648
306.663
306.678
306.693
306.707
306.489
306.512
306.533
306.554
306.574
306.592
306.61
306.627
306.643
306.658
306.672
306.686
306.701
306.716
306.506
306.529
306.549
306.569
306.587
306.604
306.621
306.637
306.652
306.666
306.679
306.693
306.706
306.72
305.962
305.976
305.992
306.008