/*--------------------------------*- C++ -*----------------------------------*\
| =========                 |                                                 |
| \\      /  F ield         | OpenFOAM: The Open Source CFD Toolbox           |
|  \\    /   O peration     | Version:  v2106                                 |
|   \\  /    A nd           | Website:  www.openfoam.com                      |
|    \\/     M anipulation  |                                                 |
\*---------------------------------------------------------------------------*/
FoamFile
{
    version     2.0;
    format      ascii;
    arch        "LSB;label=32;scalar=64";
    class       surfaceScalarField;
    location    "0.000155";
    object      phi;
}
// * * * * * * * * * * * * * * * * * * * * * * * * * * * * * * * * * * * * * //

dimensions      [1 0 -1 0 0 0 0];

internalField   nonuniform List<scalar> 
53237
(
-7.33212e-11
-1.91358e-10
-3.99222e-08
2.17988e-10
-4.09216e-11
-1.88613e-10
-3.99188e-08
2.1464e-10
-1.06158e-11
-1.86937e-10
-3.99177e-08
2.11479e-10
1.69303e-11
-1.848e-10
-3.99176e-08
2.08051e-10
4.18419e-11
-1.82053e-10
-3.99176e-08
2.03989e-10
6.59074e-11
-1.79756e-10
-3.99182e-08
1.99168e-10
8.94924e-11
-1.75798e-10
-3.99203e-08
1.94358e-10
1.1383e-10
-1.73711e-10
-3.99249e-08
1.9132e-10
1.36762e-10
-1.66488e-10
-3.99328e-08
1.8297e-10
1.55145e-10
-1.81145e-10
-3.99411e-08
2.03145e-10
-1.69795e-10
-3.99443e-08
1.85248e-10
1.79984e-10
-1.47411e-10
-1.77862e-10
-3.99281e-08
-1.06593e-10
-1.62302e-10
-3.99219e-08
-6.76298e-11
-1.62858e-10
-3.99161e-08
-3.39063e-11
-1.60213e-10
-3.99128e-08
-5.05249e-12
-1.5917e-10
-3.99103e-08
1.96061e-11
-1.57913e-10
-3.99093e-08
4.19482e-11
-1.56704e-10
-3.99092e-08
6.40435e-11
-1.56639e-10
-3.99099e-08
8.76131e-11
-1.55306e-10
-3.99128e-08
1.14361e-10
-1.5515e-10
-3.99175e-08
1.41881e-10
-1.50933e-10
-3.99252e-08
1.67462e-10
-1.62095e-10
-3.99337e-08
-1.55946e-10
-3.99403e-08
1.97808e-10
-1.69559e-10
-1.39444e-10
-3.9925e-08
2.10637e-10
-1.30978e-10
-1.40404e-10
-3.992e-08
-9.21417e-11
-1.28053e-10
-3.99128e-08
-5.60789e-11
-1.29691e-10
-3.99083e-08
-2.58195e-11
-1.28207e-10
-3.99055e-08
-6.35059e-13
-1.28485e-10
-3.99036e-08
2.05985e-11
-1.28697e-10
-3.99029e-08
3.98354e-11
-1.29235e-10
-3.99022e-08
5.86421e-11
-1.30516e-10
-3.99021e-08
8.00508e-11
-1.31203e-10
-3.99036e-08
1.04898e-10
-1.32585e-10
-3.99073e-08
1.30031e-10
-1.30229e-10
-3.99132e-08
1.53862e-10
-1.38429e-10
-3.99233e-08
-1.35321e-10
-3.993e-08
1.81064e-10
-1.73341e-10
-1.00532e-10
-3.9917e-08
2.17238e-10
-1.32564e-10
-9.89214e-11
-3.99127e-08
-9.29836e-11
-8.99935e-11
-3.99068e-08
-5.6965e-11
-9.17649e-11
-3.99042e-08
-2.65913e-11
-9.17451e-11
-3.99025e-08
-1.23275e-12
-9.34844e-11
-3.99011e-08
1.98766e-11
-9.55177e-11
-3.99003e-08
3.91001e-11
-9.8215e-11
-3.98991e-08
5.87185e-11
-1.01748e-10
-3.98979e-08
8.09179e-11
-1.03602e-10
-3.9898e-08
1.07549e-10
-1.05302e-10
-3.98998e-08
1.35517e-10
-1.04172e-10
-3.99045e-08
1.62879e-10
-1.10614e-10
-3.9913e-08
-1.0903e-10
-3.992e-08
1.92489e-10
-1.73794e-10
-5.98353e-11
-3.99125e-08
2.17799e-10
-1.32057e-10
-5.68568e-11
-3.99082e-08
-9.24016e-11
-5.0998e-11
-3.99026e-08
-5.66959e-11
-5.27563e-11
-3.99012e-08
-2.73564e-11
-5.40689e-11
-3.98997e-08
-3.00975e-12
-5.70677e-11
-3.98986e-08
1.75421e-11
-6.0351e-11
-3.98979e-08
3.59529e-11
-6.50268e-11
-3.98964e-08
5.52241e-11
-7.01083e-11
-3.98945e-08
7.80671e-11
-7.32202e-11
-3.98938e-08
1.06646e-10
-7.54884e-11
-3.98943e-08
1.37235e-10
-7.49853e-11
-3.98974e-08
1.67645e-10
-7.94019e-11
-3.99056e-08
-7.86145e-11
-3.99131e-08
1.98941e-10
-1.74961e-10
-1.75479e-11
-3.9911e-08
2.18089e-10
-1.33127e-10
-1.44582e-11
-3.99051e-08
-9.4036e-11
-1.1777e-11
-3.99004e-08
-5.89673e-11
-1.36379e-11
-3.98995e-08
-3.10684e-11
-1.6178e-11
-3.98983e-08
-7.91199e-12
-2.03969e-11
-3.98974e-08
1.27904e-11
-2.51726e-11
-3.98966e-08
3.1698e-11
-3.07351e-11
-3.98946e-08
5.19087e-11
-3.63191e-11
-3.98922e-08
7.63643e-11
-3.99304e-11
-3.98909e-08
1.06404e-10
-4.31136e-11
-3.98908e-08
1.39759e-10
-4.33292e-11
-3.98925e-08
1.73695e-10
-4.49345e-11
-3.99001e-08
-4.38151e-11
-3.9909e-08
2.06768e-10
-1.75155e-10
2.36621e-11
-3.99107e-08
2.17454e-10
-1.33487e-10
2.58773e-11
-3.99037e-08
-9.5127e-11
2.60292e-11
-3.98991e-08
-6.14302e-11
2.42542e-11
-3.98982e-08
-3.48463e-11
2.07233e-11
-3.98972e-08
-1.28347e-11
1.57957e-11
-3.98964e-08
7.20112e-12
1.00524e-11
-3.98956e-08
2.62264e-11
4.28185e-12
-3.98936e-08
4.74699e-11
-1.5104e-12
-3.9891e-08
7.38288e-11
-5.70452e-12
-3.98895e-08
1.05433e-10
-8.83855e-12
-3.98892e-08
1.40892e-10
-1.01826e-11
-3.98904e-08
1.77527e-10
-9.27617e-12
-3.98976e-08
-6.99025e-12
-3.99073e-08
2.12391e-10
-1.73125e-10
6.12952e-11
-3.99109e-08
2.13442e-10
-1.33219e-10
6.25001e-11
-3.99037e-08
-9.65358e-11
6.02243e-11
-3.98987e-08
-6.45982e-11
5.90558e-11
-3.98976e-08
-3.90933e-11
5.50558e-11
-3.98964e-08
-1.80162e-11
5.03055e-11
-3.98955e-08
1.33533e-12
4.44148e-11
-3.98947e-08
2.07856e-11
3.84746e-11
-3.98928e-08
4.32185e-11
3.29644e-11
-3.98903e-08
7.12388e-11
2.86163e-11
-3.98889e-08
1.04715e-10
2.60727e-11
-3.98887e-08
1.41734e-10
2.39823e-11
-3.98902e-08
1.79626e-10
2.71886e-11
-3.98975e-08
3.01219e-11
-3.99072e-08
2.15768e-10
-1.68865e-10
9.27373e-11
-3.99117e-08
2.0743e-10
-1.32226e-10
9.43656e-11
-3.99051e-08
-9.85138e-11
8.97091e-11
-3.98994e-08
-6.89349e-11
8.9362e-11
-3.98978e-08
-4.46836e-11
8.53564e-11
-3.98962e-08
-2.44138e-11
8.11574e-11
-3.98951e-08
-5.14498e-12
7.52429e-11
-3.98941e-08
1.5373e-11
6.99305e-11
-3.98922e-08
3.90216e-11
6.56819e-11
-3.989e-08
6.82376e-11
6.18822e-11
-3.9889e-08
1.03619e-10
5.99942e-11
-3.98894e-08
1.41715e-10
5.7807e-11
-3.98917e-08
1.79981e-10
6.35667e-11
-3.98995e-08
6.58487e-11
-3.99088e-08
2.17093e-10
-1.63759e-10
1.19472e-10
-3.99144e-08
2.00659e-10
-1.30227e-10
1.20788e-10
-3.99088e-08
-9.92339e-11
1.13682e-10
-3.9902e-08
-7.16743e-11
1.14599e-10
-3.98994e-08
-4.91698e-11
1.1133e-10
-3.98974e-08
-2.95013e-11
1.07914e-10
-3.9896e-08
-1.04745e-11
1.02857e-10
-3.9895e-08
1.0627e-11
9.88803e-11
-3.98933e-08
3.58862e-11
9.54723e-11
-3.98915e-08
6.60071e-11
9.27203e-11
-3.98911e-08
1.01814e-10
9.22e-11
-3.98924e-08
1.39894e-10
8.9899e-11
-3.98961e-08
1.77823e-10
9.75193e-11
-3.99047e-08
9.79173e-11
-3.99127e-08
2.15765e-10
-1.59812e-10
1.4213e-10
-3.99202e-08
1.93666e-10
-1.295e-10
1.44517e-10
-3.99146e-08
-1.01028e-10
1.35413e-10
-3.99072e-08
-7.48628e-11
1.37023e-10
-3.99029e-08
-5.33258e-11
1.34157e-10
-3.99e-08
-3.42505e-11
1.31965e-10
-3.98981e-08
-1.49657e-11
1.28333e-10
-3.98969e-08
6.99844e-12
1.26132e-10
-3.98957e-08
3.33873e-11
1.2452e-10
-3.98947e-08
6.49883e-11
1.22173e-10
-3.98953e-08
1.01406e-10
1.22066e-10
-3.98978e-08
1.39487e-10
1.19005e-10
-3.99029e-08
1.76822e-10
1.28947e-10
-3.9912e-08
1.26665e-10
-3.99195e-08
2.13995e-10
-1.51514e-10
1.58196e-10
-3.99294e-08
1.81839e-10
-1.25918e-10
1.65212e-10
-3.9924e-08
-1.00196e-10
1.53149e-10
-3.99152e-08
-7.60189e-11
1.55762e-10
-3.99096e-08
-5.55461e-11
1.54027e-10
-3.99057e-08
-3.70298e-11
1.53478e-10
-3.99029e-08
-1.78214e-11
1.51562e-10
-3.99013e-08
4.72614e-12
1.50748e-10
-3.99002e-08
3.14126e-11
1.50409e-10
-3.99001e-08
6.28421e-11
1.47999e-10
-3.99014e-08
9.88883e-11
1.47704e-10
-3.99051e-08
1.35859e-10
1.43728e-10
-3.99116e-08
1.70056e-10
1.5696e-10
-3.9922e-08
1.50635e-10
-3.99295e-08
2.04664e-10
-1.65771e-10
1.69447e-10
-3.99387e-08
1.97619e-10
-1.39298e-10
1.81549e-10
-3.99334e-08
-1.11744e-10
1.64929e-10
-3.99264e-08
-8.61805e-11
1.70169e-10
-3.99197e-08
-6.32125e-11
1.71004e-10
-3.99151e-08
-4.14988e-11
1.72604e-10
-3.99115e-08
-1.89617e-11
1.72364e-10
-3.99096e-08
6.78657e-12
1.72534e-10
-3.99086e-08
3.70266e-11
1.72e-10
-3.99089e-08
7.14625e-11
1.69907e-10
-3.99117e-08
1.0991e-10
1.69319e-10
-3.99161e-08
1.49359e-10
1.63708e-10
-3.99238e-08
1.84735e-10
1.80884e-10
-3.99324e-08
1.69096e-10
-3.99396e-08
2.2125e-10
-1.52677e-10
-3.99428e-08
1.8301e-10
1.78171e-10
-1.34833e-10
-3.9941e-08
2.0217e-10
-1.12717e-10
-3.99343e-08
1.79482e-10
-8.95012e-11
-3.99275e-08
1.85806e-10
-6.71289e-11
-3.99234e-08
1.87122e-10
-4.37022e-11
-3.99211e-08
1.89581e-10
-1.8251e-11
-3.99198e-08
1.9046e-10
9.70313e-12
-3.99189e-08
1.91718e-10
4.07415e-11
-3.99185e-08
1.92376e-10
7.39387e-11
-3.99197e-08
1.91681e-10
1.09001e-10
-3.99236e-08
1.92051e-10
1.4313e-10
-3.99314e-08
1.85876e-10
1.72432e-10
-3.99399e-08
2.06903e-10
-3.99436e-08
2.04362e-10
1.8848e-10
-1.76855e-10
-1.89223e-10
-4.40244e-08
2.03313e-10
2.05808e-10
-1.54594e-10
-2.06773e-10
-4.40186e-08
2.29502e-10
-1.19953e-10
-1.93769e-10
-4.40105e-08
2.08277e-10
-8.52415e-11
-2.03622e-10
-4.40003e-08
2.18201e-10
-4.97689e-11
-2.06725e-10
-4.39961e-08
2.20373e-10
-1.48433e-11
-2.07811e-10
-4.39946e-08
2.2047e-10
1.77165e-11
-2.05588e-10
-4.39953e-08
2.17949e-10
4.67154e-11
-1.99389e-10
-4.39971e-08
2.10572e-10
7.20351e-11
-1.89746e-10
-4.39997e-08
2.00022e-10
9.35109e-11
-1.76961e-10
-4.40038e-08
1.88374e-10
1.1168e-10
-1.65967e-10
-4.40095e-08
1.79304e-10
1.30229e-10
-1.51107e-10
-4.40198e-08
1.6661e-10
1.40209e-10
-1.64543e-10
-4.4027e-08
1.90482e-10
-1.47196e-10
-4.40312e-08
1.66355e-10
1.64229e-10
-1.95364e-10
-1.74e-10
-4.40159e-08
2.29537e-10
-1.64345e-10
-1.8495e-10
-4.40057e-08
-1.23855e-10
-1.7697e-10
-4.39974e-08
-8.47005e-11
-1.85584e-10
-4.39874e-08
-4.58104e-11
-1.88813e-10
-4.39831e-08
-9.06638e-12
-1.90514e-10
-4.39802e-08
2.3777e-11
-1.88775e-10
-4.39803e-08
5.23889e-11
-1.8387e-10
-4.39823e-08
7.7575e-11
-1.76973e-10
-4.39861e-08
9.88111e-11
-1.65294e-10
-4.39922e-08
1.1763e-10
-1.5425e-10
-4.39989e-08
1.39996e-10
-1.41006e-10
-4.40099e-08
1.56983e-10
-1.47713e-10
-4.40179e-08
-1.37638e-10
-4.40254e-08
1.8628e-10
-1.84719e-10
-1.43969e-10
-4.40045e-08
2.14156e-10
-1.55069e-10
-1.50689e-10
-4.3994e-08
-1.16799e-10
-1.45714e-10
-4.39837e-08
-7.90369e-11
-1.5347e-10
-4.39745e-08
-4.06586e-11
-1.56908e-10
-4.39706e-08
-3.78018e-12
-1.59708e-10
-4.39687e-08
2.94706e-11
-1.59622e-10
-4.39693e-08
5.79303e-11
-1.57043e-10
-4.39714e-08
8.13427e-11
-1.5286e-10
-4.39748e-08
1.00717e-10
-1.44874e-10
-4.39803e-08
1.16421e-10
-1.35134e-10
-4.39869e-08
1.33003e-10
-1.22111e-10
-4.3997e-08
1.44205e-10
-1.23613e-10
-4.40076e-08
-1.1769e-10
-4.40158e-08
1.63763e-10
-1.97057e-10
-1.07626e-10
-4.39911e-08
2.2777e-10
-1.64941e-10
-1.10373e-10
-4.39803e-08
-1.24948e-10
-1.06809e-10
-4.39705e-08
-8.52257e-11
-1.13457e-10
-4.39628e-08
-4.44087e-11
-1.17312e-10
-4.39598e-08
-4.92788e-12
-1.21326e-10
-4.39581e-08
3.1793e-11
-1.23378e-10
-4.39589e-08
6.47629e-11
-1.23805e-10
-4.39607e-08
9.06559e-11
-1.22547e-10
-4.39636e-08
1.11014e-10
-1.18287e-10
-4.39684e-08
1.28117e-10
-1.11472e-10
-4.39744e-08
1.45795e-10
-1.00647e-10
-4.39839e-08
1.59241e-10
-1.00024e-10
-4.39937e-08
-9.60363e-11
-4.40031e-08
1.77174e-10
-2.03323e-10
-6.4807e-11
-4.39841e-08
2.33438e-10
-1.69841e-10
-6.3929e-11
-4.39727e-08
-1.29204e-10
-6.11343e-11
-4.39629e-08
-8.91781e-11
-6.61448e-11
-4.39559e-08
-4.70284e-11
-7.04472e-11
-4.3953e-08
-6.79547e-12
-7.56e-11
-4.39514e-08
3.12078e-11
-7.95909e-11
-4.39519e-08
6.64906e-11
-8.27773e-11
-4.39532e-08
9.54409e-11
-8.45933e-11
-4.39554e-08
1.17109e-10
-8.32122e-11
-4.39596e-08
1.35744e-10
-8.06176e-11
-4.3965e-08
1.55297e-10
-7.36674e-11
-4.39739e-08
1.69062e-10
-7.20796e-11
-4.3984e-08
-6.96609e-11
-4.39949e-08
1.85427e-10
-2.07064e-10
-1.99873e-11
-4.3981e-08
2.35986e-10
-1.74077e-10
-1.6245e-11
-4.39677e-08
-1.34347e-10
-1.3585e-11
-4.39587e-08
-9.52542e-11
-1.64969e-11
-4.39523e-08
-5.2952e-11
-2.0158e-11
-4.39494e-08
-1.1754e-11
-2.5644e-11
-4.39473e-08
2.80738e-11
-3.11115e-11
-4.39473e-08
6.54991e-11
-3.65433e-11
-4.39477e-08
9.68694e-11
-4.11221e-11
-4.39491e-08
1.21868e-10
-4.32261e-11
-4.39527e-08
1.41492e-10
-4.42835e-11
-4.39573e-08
1.62304e-10
-4.22578e-11
-4.39658e-08
1.78938e-10
-4.16022e-11
-4.39758e-08
-3.96881e-11
-4.39892e-08
1.95662e-10
-2.06748e-10
2.36382e-11
-4.39812e-08
2.34819e-10
-1.74496e-10
2.89569e-11
-4.39668e-08
-1.36249e-10
3.17661e-11
-4.39582e-08
-9.91191e-11
3.18098e-11
-4.39518e-08
-5.79657e-11
2.94819e-11
-4.39486e-08
-1.71441e-11
2.46512e-11
-4.39461e-08
2.2972e-11
1.89011e-11
-4.39454e-08
6.11149e-11
1.19714e-11
-4.39452e-08
9.37168e-11
4.85619e-12
-4.3946e-08
1.20836e-10
-1.10865e-12
-4.3949e-08
1.42801e-10
-5.82496e-12
-4.39529e-08
1.66102e-10
-8.4563e-12
-4.39611e-08
1.84761e-10
-8.56086e-12
-4.39712e-08
-6.90966e-12
-4.39862e-08
2.02279e-10
-2.02029e-10
6.40044e-11
-4.39838e-08
2.28114e-10
-1.71865e-10
6.97353e-11
-4.39698e-08
-1.35744e-10
7.20541e-11
-4.39611e-08
-1.00587e-10
7.50807e-11
-4.39543e-08
-6.18251e-11
7.40209e-11
-4.39506e-08
-2.28267e-11
7.04992e-11
-4.39475e-08
1.61121e-11
6.45752e-11
-4.39462e-08
5.37066e-11
5.69244e-11
-4.39455e-08
8.72451e-11
4.7801e-11
-4.39455e-08
1.16591e-10
3.8785e-11
-4.39478e-08
1.40867e-10
3.21284e-11
-4.39514e-08
1.66025e-10
2.56452e-11
-4.39596e-08
1.86194e-10
2.50337e-11
-4.397e-08
2.57836e-11
-4.39853e-08
2.05368e-10
-1.93257e-10
9.69757e-11
-4.39884e-08
2.17462e-10
-1.66575e-10
1.03279e-10
-4.39759e-08
-1.33874e-10
1.04995e-10
-4.39669e-08
-1.01445e-10
1.1027e-10
-4.39595e-08
-6.58402e-11
1.1025e-10
-4.39551e-08
-2.92614e-11
1.08017e-10
-4.39512e-08
8.17069e-12
1.02004e-10
-4.3949e-08
4.48948e-11
9.42898e-11
-4.39475e-08
7.89079e-11
8.4895e-11
-4.39472e-08
1.08638e-10
7.52163e-11
-4.39492e-08
1.35563e-10
6.67773e-11
-4.39531e-08
1.6285e-10
5.72572e-11
-4.39616e-08
1.83307e-10
5.68745e-11
-4.39724e-08
5.59738e-11
-4.39869e-08
2.0382e-10
-1.81544e-10
1.20512e-10
-4.39952e-08
2.03875e-10
-1.59195e-10
1.27254e-10
-4.39852e-08
-1.29591e-10
1.27477e-10
-4.39758e-08
-9.95023e-11
1.35115e-10
-4.39677e-08
-6.81389e-11
1.37199e-10
-4.39624e-08
-3.47255e-11
1.36353e-10
-4.39578e-08
9.29497e-13
1.31214e-10
-4.39549e-08
3.60474e-11
1.24396e-10
-4.39531e-08
6.87286e-11
1.15984e-10
-4.39527e-08
9.85127e-11
1.06289e-10
-4.39546e-08
1.26814e-10
9.62042e-11
-4.39587e-08
1.55302e-10
8.501e-11
-4.39677e-08
1.76815e-10
8.61032e-11
-4.39789e-08
8.33804e-11
-4.39915e-08
1.98893e-10
-1.69026e-10
1.35183e-10
-4.40041e-08
1.90938e-10
-1.49665e-10
1.42098e-10
-4.39953e-08
-1.24134e-10
1.393e-10
-4.39865e-08
-9.84287e-11
1.48184e-10
-4.39774e-08
-7.00604e-11
1.51797e-10
-4.39716e-08
-3.93317e-11
1.53267e-10
-4.39664e-08
-6.53837e-12
1.50011e-10
-4.3963e-08
2.64629e-11
1.4535e-10
-4.39607e-08
5.81553e-11
1.38691e-10
-4.39602e-08
8.93134e-11
1.28906e-10
-4.39619e-08
1.18473e-10
1.20056e-10
-4.39664e-08
1.47235e-10
1.08785e-10
-4.39762e-08
1.69423e-10
1.12729e-10
-4.39874e-08
1.07873e-10
-4.39987e-08
1.93686e-10
-1.53981e-10
1.46431e-10
-4.40174e-08
1.7568e-10
-1.38486e-10
1.56063e-10
-4.40096e-08
-1.15814e-10
1.46808e-10
-4.40001e-08
-9.35712e-11
1.56074e-10
-4.39905e-08
-6.85781e-11
1.60406e-10
-4.39842e-08
-4.11125e-11
1.64076e-10
-4.39784e-08
-1.19104e-11
1.63706e-10
-4.39741e-08
1.807e-11
1.61544e-10
-4.39714e-08
4.89675e-11
1.56739e-10
-4.39708e-08
7.96109e-11
1.49087e-10
-4.39732e-08
1.07839e-10
1.4255e-10
-4.39783e-08
1.36352e-10
1.31583e-10
-4.39886e-08
1.56746e-10
1.41932e-10
-4.40007e-08
1.33229e-10
-4.40112e-08
1.82225e-10
-1.67256e-10
1.48478e-10
-4.40265e-08
1.96291e-10
-1.48531e-10
1.64886e-10
-4.40195e-08
-1.22118e-10
1.47867e-10
-4.40125e-08
-9.77328e-11
1.58566e-10
-4.40019e-08
-7.15484e-11
1.64368e-10
-4.39951e-08
-4.35635e-11
1.70212e-10
-4.39887e-08
-1.35826e-11
1.72424e-10
-4.39846e-08
1.76589e-11
1.72574e-10
-4.39821e-08
4.95399e-11
1.69594e-10
-4.39818e-08
8.14011e-11
1.63986e-10
-4.39851e-08
1.12592e-10
1.58705e-10
-4.39906e-08
1.46182e-10
1.47743e-10
-4.40018e-08
1.71847e-10
1.65368e-10
-4.40111e-08
1.49155e-10
-4.40207e-08
2.06343e-10
-1.49568e-10
-4.40323e-08
1.61093e-10
1.73018e-10
-1.39156e-10
-4.4029e-08
1.85976e-10
-1.1889e-10
-4.40225e-08
1.59371e-10
-9.74719e-11
-4.40123e-08
1.68317e-10
-7.19835e-11
-4.40065e-08
1.72838e-10
-4.37699e-11
-4.4002e-08
1.78931e-10
-1.35788e-11
-4.39989e-08
1.82851e-10
1.82206e-11
-4.39965e-08
1.85347e-10
5.01397e-11
-4.39954e-08
1.8477e-10
8.05256e-11
-4.39969e-08
1.81936e-10
1.08743e-10
-4.40014e-08
1.79824e-10
1.37388e-10
-4.4012e-08
1.71531e-10
1.56897e-10
-4.40206e-08
1.97363e-10
-4.40269e-08
1.85133e-10
1.75074e-10
-1.56522e-10
-1.4867e-10
-4.84958e-08
1.6461e-10
1.78362e-10
-1.44255e-10
-1.73522e-10
-4.84918e-08
1.99364e-10
-1.20881e-10
-1.60327e-10
-4.84807e-08
1.74267e-10
-9.18822e-11
-1.77919e-10
-4.8471e-08
1.90383e-10
-6.00053e-11
-1.87201e-10
-4.84644e-08
1.98033e-10
-2.66478e-11
-1.93997e-10
-4.84623e-08
2.04277e-10
4.91204e-12
-1.95192e-10
-4.8463e-08
2.06559e-10
3.49647e-11
-1.8933e-10
-4.8465e-08
2.00605e-10
6.25564e-11
-1.79134e-10
-4.8468e-08
1.91184e-10
8.59369e-11
-1.64206e-10
-4.84726e-08
1.79074e-10
1.05805e-10
-1.5068e-10
-4.84797e-08
1.70217e-10
1.21783e-10
-1.32792e-10
-4.84877e-08
1.56794e-10
1.34032e-10
-1.49333e-10
-4.84957e-08
1.83933e-10
-1.29144e-10
-4.84969e-08
1.56448e-10
1.57939e-10
-1.80499e-10
-1.39495e-10
-4.84901e-08
2.08082e-10
-1.59566e-10
-1.53053e-10
-4.84814e-08
-1.29763e-10
-1.47359e-10
-4.84693e-08
-9.62086e-11
-1.62574e-10
-4.84585e-08
-6.04739e-11
-1.71286e-10
-4.84509e-08
-2.40585e-11
-1.7734e-10
-4.84466e-08
9.97906e-12
-1.77302e-10
-4.84468e-08
4.12438e-11
-1.71734e-10
-4.84497e-08
6.90488e-11
-1.61735e-10
-4.84551e-08
9.23939e-11
-1.46088e-10
-4.8463e-08
1.13572e-10
-1.31608e-10
-4.84719e-08
1.34351e-10
-1.14564e-10
-4.84815e-08
1.52217e-10
-1.22713e-10
-4.84905e-08
-1.11626e-10
-4.84946e-08
1.81903e-10
-1.69433e-10
-1.19527e-10
-4.84774e-08
1.84308e-10
-1.53889e-10
-1.26861e-10
-4.84676e-08
-1.28827e-10
-1.26002e-10
-4.84519e-08
-9.54158e-11
-1.39839e-10
-4.84414e-08
-5.86755e-11
-1.47636e-10
-4.84333e-08
-2.0862e-11
-1.52607e-10
-4.84298e-08
1.61099e-11
-1.52487e-10
-4.84308e-08
4.93597e-11
-1.47449e-10
-4.84343e-08
7.72334e-11
-1.38877e-10
-4.844e-08
9.88512e-11
-1.24459e-10
-4.84484e-08
1.14794e-10
-1.09385e-10
-4.84585e-08
1.26385e-10
-9.27039e-11
-4.8468e-08
1.34781e-10
-9.396e-11
-4.84808e-08
-9.03534e-11
-4.84857e-08
1.52276e-10
-1.87561e-10
-9.31975e-11
-4.84655e-08
2.00738e-10
-1.69148e-10
-9.652e-11
-4.84543e-08
-1.42286e-10
-9.69192e-11
-4.84384e-08
-1.05302e-10
-1.07809e-10
-4.84287e-08
-6.40072e-11
-1.13738e-10
-4.84209e-08
-2.11349e-11
-1.17842e-10
-4.84176e-08
2.15918e-11
-1.1794e-10
-4.84187e-08
6.00163e-11
-1.13734e-10
-4.84223e-08
9.14336e-11
-1.07386e-10
-4.84286e-08
1.15267e-10
-9.67472e-11
-4.84374e-08
1.31681e-10
-8.34072e-11
-4.84481e-08
1.41617e-10
-6.87017e-11
-4.84578e-08
1.49791e-10
-6.71937e-11
-4.84703e-08
-6.73582e-11
-4.84768e-08
1.62133e-10
-1.9745e-10
-6.27158e-11
-4.84566e-08
2.08989e-10
-1.78242e-10
-6.27332e-11
-4.84438e-08
-1.50243e-10
-6.2528e-11
-4.84276e-08
-1.11461e-10
-6.91767e-11
-4.84178e-08
-6.75489e-11
-7.28593e-11
-4.84095e-08
-2.10144e-11
-7.63971e-11
-4.8406e-08
2.58378e-11
-7.6661e-11
-4.8407e-08
6.78773e-11
-7.40549e-11
-4.84106e-08
1.021e-10
-7.05954e-11
-4.84168e-08
1.2713e-10
-6.44776e-11
-4.8426e-08
1.43208e-10
-5.53438e-11
-4.84374e-08
1.51319e-10
-4.49844e-11
-4.84473e-08
1.58332e-10
-4.35349e-11
-4.8461e-08
-4.47172e-11
-4.84692e-08
1.6583e-10
-2.04869e-10
-2.78463e-11
-4.8453e-08
2.1537e-10
-1.85529e-10
-2.55618e-11
-4.84375e-08
-1.57028e-10
-2.38815e-11
-4.84219e-08
-1.17213e-10
-2.59959e-11
-4.8412e-08
-7.1568e-11
-2.77128e-11
-4.84034e-08
-2.2411e-11
-3.02258e-11
-4.83992e-08
2.75207e-11
-3.12053e-11
-4.83997e-08
7.22482e-11
-3.11727e-11
-4.84028e-08
1.08987e-10
-3.07968e-11
-4.84087e-08
1.35968e-10
-2.90375e-11
-4.84178e-08
1.52767e-10
-2.58467e-11
-4.84294e-08
1.60716e-10
-2.16564e-11
-4.84397e-08
1.67192e-10
-2.13534e-11
-4.84534e-08
-2.24789e-11
-4.84647e-08
1.72434e-10
-2.06772e-10
6.53569e-12
-4.84533e-08
2.175e-10
-1.87151e-10
1.05264e-11
-4.84367e-08
-1.58612e-10
1.40931e-11
-4.84215e-08
-1.1913e-10
1.6634e-11
-4.84115e-08
-7.3057e-11
1.70113e-11
-4.84024e-08
-2.34185e-11
1.63482e-11
-4.83973e-08
2.66187e-11
1.49842e-11
-4.8397e-08
7.24112e-11
1.2503e-11
-4.83993e-08
1.10282e-10
9.31024e-12
-4.84045e-08
1.38629e-10
6.72817e-12
-4.84133e-08
1.56454e-10
3.65789e-12
-4.84248e-08
1.64702e-10
1.23748e-12
-4.84354e-08
1.71187e-10
-5.92168e-14
-4.84491e-08
-1.17992e-12
-4.84624e-08
1.75864e-10
-2.02513e-10
3.80331e-11
-4.84565e-08
2.12354e-10
-1.83672e-10
4.26784e-11
-4.84408e-08
-1.56271e-10
4.75353e-11
-4.84259e-08
-1.18117e-10
5.44826e-11
-4.8416e-08
-7.32049e-11
5.74927e-11
-4.84065e-08
-2.41838e-11
5.88215e-11
-4.84008e-08
2.45413e-11
5.77773e-11
-4.83993e-08
6.9233e-11
5.36552e-11
-4.84005e-08
1.07232e-10
4.71985e-11
-4.84046e-08
1.35901e-10
4.07849e-11
-4.84123e-08
1.53995e-10
3.22497e-11
-4.84233e-08
1.62818e-10
2.34776e-11
-4.84337e-08
1.70199e-10
2.06084e-11
-4.84476e-08
1.9193e-11
-4.84613e-08
1.75706e-10
-1.94154e-10
6.58164e-11
-4.84614e-08
2.03604e-10
-1.76562e-10
7.00269e-11
-4.84485e-08
-1.5107e-10
7.44402e-11
-4.84338e-08
-1.15361e-10
8.47536e-11
-4.84241e-08
-7.31619e-11
9.09363e-11
-4.84143e-08
-2.63025e-11
9.43084e-11
-4.8408e-08
2.16504e-11
9.27782e-11
-4.84054e-08
6.41374e-11
8.75228e-11
-4.84055e-08
9.93963e-11
7.97143e-11
-4.84084e-08
1.27082e-10
7.04837e-11
-4.84151e-08
1.45334e-10
5.79652e-11
-4.84255e-08
1.55216e-10
4.43347e-11
-4.84352e-08
1.63738e-10
4.10255e-11
-4.84495e-08
3.96746e-11
-4.84617e-08
1.70753e-10
-1.81664e-10
8.88213e-11
-4.84685e-08
1.92157e-10
-1.64994e-10
9.23418e-11
-4.8459e-08
-1.41428e-10
9.46178e-11
-4.84446e-08
-1.08877e-10
1.06835e-10
-4.8435e-08
-7.01245e-11
1.14777e-10
-4.84252e-08
-2.68304e-11
1.19815e-10
-4.84186e-08
1.71899e-11
1.18781e-10
-4.84153e-08
5.62033e-11
1.13921e-10
-4.84145e-08
8.81761e-11
1.05535e-10
-4.84164e-08
1.13989e-10
9.32978e-11
-4.84222e-08
1.33085e-10
7.91633e-11
-4.84316e-08
1.44545e-10
6.402e-11
-4.84408e-08
1.54078e-10
6.23081e-11
-4.8455e-08
6.09311e-11
-4.84647e-08
1.63582e-10
-1.69564e-10
1.07913e-10
-4.84785e-08
1.83429e-10
-1.5377e-10
1.12995e-10
-4.84709e-08
-1.31065e-10
1.10462e-10
-4.8458e-08
-1.01044e-10
1.23379e-10
-4.84482e-08
-6.61321e-11
1.31788e-10
-4.84386e-08
-2.76258e-11
1.37894e-10
-4.84317e-08
1.13418e-11
1.37799e-10
-4.84278e-08
4.68832e-11
1.3397e-10
-4.84263e-08
7.65598e-11
1.25951e-10
-4.84274e-08
1.00997e-10
1.12314e-10
-4.84321e-08
1.20151e-10
9.92173e-11
-4.84405e-08
1.33777e-10
8.44939e-11
-4.84497e-08
1.44531e-10
8.75476e-11
-4.8463e-08
8.39198e-11
-4.8471e-08
1.58649e-10
-1.53822e-10
1.22582e-10
-4.84891e-08
1.70941e-10
-1.40089e-10
1.33058e-10
-4.84831e-08
-1.18484e-10
1.22143e-10
-4.847e-08
-9.09255e-11
1.34814e-10
-4.84603e-08
-5.98523e-11
1.42765e-10
-4.84508e-08
-2.62659e-11
1.49559e-10
-4.84434e-08
7.27768e-12
1.50559e-10
-4.84389e-08
3.78577e-11
1.48274e-10
-4.84369e-08
6.50894e-11
1.41327e-10
-4.84377e-08
8.76351e-11
1.29263e-10
-4.84422e-08
1.05202e-10
1.19081e-10
-4.845e-08
1.19529e-10
1.05158e-10
-4.8459e-08
1.2966e-10
1.17123e-10
-4.84728e-08
1.07283e-10
-4.84796e-08
1.48467e-10
-1.71404e-10
1.32726e-10
-4.84982e-08
1.98963e-10
-1.50866e-10
1.51443e-10
-4.8493e-08
-1.22964e-10
1.31746e-10
-4.84836e-08
-9.1946e-11
1.4501e-10
-4.84735e-08
-5.98167e-11
1.53045e-10
-4.84644e-08
-2.68568e-11
1.60727e-10
-4.84573e-08
5.16327e-12
1.63242e-10
-4.8453e-08
3.45581e-11
1.62948e-10
-4.8451e-08
6.16464e-11
1.57568e-10
-4.84515e-08
8.58248e-11
1.47602e-10
-4.84558e-08
1.08283e-10
1.39545e-10
-4.84632e-08
1.30521e-10
1.25414e-10
-4.84727e-08
1.50113e-10
1.46132e-10
-4.84828e-08
1.2643e-10
-4.84887e-08
1.82601e-10
-1.52255e-10
-4.85003e-08
1.52487e-10
1.74843e-10
-1.37428e-10
-4.84986e-08
1.79588e-10
-1.16558e-10
-4.84898e-08
1.51462e-10
-8.98595e-11
-4.84807e-08
1.61565e-10
-5.97114e-11
-4.84732e-08
1.66302e-10
-2.76362e-11
-4.84684e-08
1.72861e-10
3.92832e-12
-4.84655e-08
1.76042e-10
3.33787e-11
-4.84636e-08
1.77454e-10
5.99463e-11
-4.84631e-08
1.74983e-10
8.32908e-11
-4.8465e-08
1.68507e-10
1.03967e-10
-4.84708e-08
1.64586e-10
1.20708e-10
-4.84791e-08
1.54772e-10
1.33173e-10
-4.84884e-08
1.86122e-10
-4.84913e-08
1.57204e-10
1.60404e-10
-1.33226e-10
-1.12848e-10
-5.33999e-08
1.41073e-10
1.55551e-10
-1.26316e-10
-1.37447e-10
-5.3397e-08
1.75946e-10
-1.08996e-10
-1.17839e-10
-5.33903e-08
1.46366e-10
-9.04619e-11
-1.3651e-10
-5.33803e-08
1.62864e-10
-6.69201e-11
-1.47658e-10
-5.33748e-08
1.72073e-10
-4.03946e-11
-1.589e-10
-5.33723e-08
1.83197e-10
-1.29907e-11
-1.65916e-10
-5.3372e-08
1.92657e-10
1.67253e-11
-1.65331e-10
-5.33726e-08
1.92941e-10
4.7574e-11
-1.61868e-10
-5.33739e-08
1.9061e-10
7.66818e-11
-1.53338e-10
-5.33765e-08
1.85315e-10
1.0173e-10
-1.45241e-10
-5.33812e-08
1.81776e-10
1.26407e-10
-1.31163e-10
-5.33893e-08
1.71123e-10
1.45234e-10
-1.52811e-10
-5.33934e-08
1.98867e-10
-1.32425e-10
-5.33945e-08
1.70987e-10
1.7385e-10
-1.5527e-10
-1.03303e-10
-5.33973e-08
1.85755e-10
-1.41408e-10
-1.14663e-10
-5.33899e-08
-1.17501e-10
-1.02976e-10
-5.33821e-08
-9.59038e-11
-1.17817e-10
-5.33706e-08
-7.00104e-11
-1.27566e-10
-5.33636e-08
-4.20119e-11
-1.36346e-10
-5.3358e-08
-1.4241e-11
-1.39111e-10
-5.33566e-08
1.54785e-11
-1.37215e-10
-5.3358e-08
4.63131e-11
-1.32582e-10
-5.33619e-08
7.68915e-11
-1.22979e-10
-5.33682e-08
1.06286e-10
-1.14541e-10
-5.33748e-08
1.38925e-10
-1.02032e-10
-5.33845e-08
1.6308e-10
-1.16496e-10
-5.33893e-08
-1.05882e-10
-5.33936e-08
1.99141e-10
-1.35847e-10
-8.54073e-11
-5.33917e-08
1.5211e-10
-1.30422e-10
-8.81104e-11
-5.33834e-08
-1.14173e-10
-8.35802e-11
-5.33714e-08
-9.64663e-11
-9.60296e-11
-5.33596e-08
-7.10774e-11
-1.03867e-10
-5.33515e-08
-4.20109e-11
-1.09699e-10
-5.33464e-08
-1.23524e-11
-1.09541e-10
-5.33458e-08
1.84826e-11
-1.05682e-10
-5.33478e-08
4.89089e-11
-9.95309e-11
-5.3352e-08
7.70081e-11
-8.86209e-11
-5.33593e-08
1.00658e-10
-7.8971e-11
-5.33671e-08
1.24596e-10
-6.72303e-11
-5.3377e-08
1.39716e-10
-7.511e-11
-5.33859e-08
-7.55798e-11
-5.33906e-08
1.66882e-10
-1.52839e-10
-7.05505e-11
-5.33822e-08
1.6511e-10
-1.44452e-10
-6.99578e-11
-5.33726e-08
-1.26548e-10
-6.88668e-11
-5.33601e-08
-1.05855e-10
-7.82569e-11
-5.33489e-08
-7.63391e-11
-8.28179e-11
-5.33406e-08
-4.24829e-11
-8.50392e-11
-5.33354e-08
-8.07629e-12
-8.26895e-11
-5.33352e-08
2.64247e-11
-7.68229e-11
-5.33378e-08
5.92197e-11
-6.97288e-11
-5.3343e-08
8.88966e-11
-5.89975e-11
-5.33509e-08
1.12844e-10
-4.94103e-11
-5.33597e-08
1.35571e-10
-3.93547e-11
-5.33697e-08
1.50631e-10
-4.31739e-11
-5.33783e-08
-5.01418e-11
-5.33841e-08
1.72997e-10
-1.6234e-10
-5.49477e-11
-5.33771e-08
1.72014e-10
-1.52277e-10
-5.39975e-11
-5.33657e-08
-1.33244e-10
-5.37484e-11
-5.33524e-08
-1.10456e-10
-5.9063e-11
-5.3341e-08
-7.78474e-11
-6.05336e-11
-5.33319e-08
-3.97963e-11
-5.98158e-11
-5.33263e-08
-1.73286e-12
-5.52902e-11
-5.33264e-08
3.52555e-11
-4.81975e-11
-5.33297e-08
6.87558e-11
-4.06287e-11
-5.33357e-08
9.7856e-11
-3.13212e-11
-5.33445e-08
1.20296e-10
-2.31458e-11
-5.33546e-08
1.40346e-10
-1.59601e-11
-5.33646e-08
1.54244e-10
-1.82583e-11
-5.33743e-08
-2.68659e-11
-5.33812e-08
1.71024e-10
-1.71548e-10
-3.78082e-11
-5.3375e-08
1.80109e-10
-1.60347e-10
-3.78555e-11
-5.33605e-08
-1.39331e-10
-3.73986e-11
-5.33475e-08
-1.13185e-10
-3.83335e-11
-5.33359e-08
-7.75293e-11
-3.67047e-11
-5.33268e-08
-3.70185e-11
-3.31793e-11
-5.33209e-08
4.23275e-12
-2.76886e-11
-5.33207e-08
4.4009e-11
-2.13246e-11
-5.3324e-08
7.85122e-11
-1.46595e-11
-5.33305e-08
1.06475e-10
-7.09666e-12
-5.334e-08
1.27247e-10
-1.86362e-12
-5.33506e-08
1.45266e-10
1.43202e-12
-5.33609e-08
1.57859e-10
-6.13858e-13
-5.33706e-08
-7.82986e-12
-5.33802e-08
1.71211e-10
-1.77348e-10
-1.99696e-11
-5.33747e-08
1.8782e-10
-1.63502e-10
-2.13596e-11
-5.33587e-08
-1.39782e-10
-2.02184e-11
-5.3346e-08
-1.10461e-10
-1.69914e-11
-5.33345e-08
-7.31232e-11
-1.20914e-11
-5.33253e-08
-3.15278e-11
-6.05713e-12
-5.33191e-08
1.07438e-11
-1.12841e-13
-5.33187e-08
5.00742e-11
5.52429e-12
-5.33221e-08
8.43488e-11
1.01339e-11
-5.33285e-08
1.11297e-10
1.37737e-11
-5.33382e-08
1.30562e-10
1.48736e-11
-5.3349e-08
1.46912e-10
1.38561e-11
-5.33595e-08
1.58281e-10
1.14183e-11
-5.33689e-08
6.96275e-12
-5.33802e-08
1.70102e-10
-1.77476e-10
1.1416e-12
-5.33756e-08
1.88963e-10
-1.61779e-10
-2.39907e-12
-5.33604e-08
-1.36207e-10
-1.48587e-12
-5.33481e-08
-1.05335e-10
4.9617e-12
-5.3337e-08
-6.72571e-11
1.20107e-11
-5.33279e-08
-2.51589e-11
1.96008e-11
-5.33219e-08
1.71862e-11
2.56233e-11
-5.3321e-08
5.59129e-11
3.01745e-11
-5.3324e-08
8.86819e-11
3.23638e-11
-5.33298e-08
1.13156e-10
3.21144e-11
-5.33389e-08
1.29617e-10
2.92976e-11
-5.33492e-08
1.43694e-10
2.41706e-11
-5.33592e-08
1.53757e-10
2.1398e-11
-5.33684e-08
2.02859e-11
-5.33795e-08
1.64842e-10
-1.75861e-10
2.63988e-11
-5.33769e-08
1.89139e-10
-1.5847e-10
2.09103e-11
-5.33643e-08
-1.31012e-10
2.00358e-11
-5.33522e-08
-9.88881e-11
2.85949e-11
-5.33417e-08
-6.0464e-11
3.65453e-11
-5.3333e-08
-2.0004e-11
4.48824e-11
-5.33272e-08
2.10316e-11
4.9813e-11
-5.33256e-08
5.88751e-11
5.23652e-11
-5.33278e-08
8.83283e-11
5.26778e-11
-5.33332e-08
1.09762e-10
4.95213e-11
-5.33416e-08
1.238e-10
4.33918e-11
-5.33511e-08
1.36272e-10
3.49757e-11
-5.33603e-08
1.45443e-10
3.31884e-11
-5.33694e-08
3.51063e-11
-5.33783e-08
1.57335e-10
-1.70188e-10
5.43198e-11
-5.33798e-08
1.8718e-10
-1.5146e-10
4.92751e-11
-5.33703e-08
-1.22425e-10
4.53433e-11
-5.33588e-08
-9.00252e-11
5.51968e-11
-5.33484e-08
-5.22193e-11
6.30258e-11
-5.33404e-08
-1.34351e-11
7.09674e-11
-5.33351e-08
2.32494e-11
7.51297e-11
-5.33332e-08
5.65282e-11
7.60668e-11
-5.33348e-08
8.31875e-11
7.43609e-11
-5.33396e-08
1.02921e-10
6.74875e-11
-5.33465e-08
1.1591e-10
5.90345e-11
-5.33548e-08
1.28075e-10
4.85593e-11
-5.33634e-08
1.36601e-10
5.02088e-11
-5.3372e-08
5.31888e-11
-5.33784e-08
1.5091e-10
-1.65327e-10
8.22651e-11
-5.33848e-08
1.8783e-10
-1.45945e-10
8.24945e-11
-5.33768e-08
-1.15328e-10
7.33761e-11
-5.3367e-08
-8.25835e-11
8.40229e-11
-5.33566e-08
-4.58844e-11
9.1276e-11
-5.33493e-08
-9.26616e-12
9.82059e-11
-5.33443e-08
2.43235e-11
1.00662e-10
-5.33423e-08
5.43546e-11
1.00283e-10
-5.3343e-08
7.82572e-11
9.66848e-11
-5.33467e-08
9.5355e-11
8.71576e-11
-5.33526e-08
1.07074e-10
7.81035e-11
-5.33594e-08
1.20003e-10
6.64554e-11
-5.33681e-08
1.28355e-10
7.44013e-11
-5.33755e-08
7.35335e-11
-5.33805e-08
1.47799e-10
-1.54849e-10
1.13117e-10
-5.33932e-08
1.8168e-10
-1.35966e-10
1.23036e-10
-5.33864e-08
-1.04922e-10
1.06511e-10