/*--------------------------------*- C++ -*----------------------------------*\
| =========                 |                                                 |
| \\      /  F ield         | OpenFOAM: The Open Source CFD Toolbox           |
|  \\    /   O peration     | Version:  v2106                                 |
|   \\  /    A nd           | Website:  www.openfoam.com                      |
|    \\/     M anipulation  |                                                 |
\*---------------------------------------------------------------------------*/
FoamFile
{
    version     2.0;
    format      ascii;
    arch        "LSB;label=32;scalar=64";
    class       volScalarField;
    location    "0.000185";
    object      nut;
}
// * * * * * * * * * * * * * * * * * * * * * * * * * * * * * * * * * * * * * //

dimensions      [0 2 -1 0 0 0 0];

internalField   nonuniform List<scalar> 
17924
(
3.6251e-17
3.61998e-17
3.61917e-17
3.61931e-17
3.61502e-17
3.61482e-17
3.61501e-17
3.61526e-17
3.61553e-17
3.61582e-17
3.61613e-17
3.61637e-17
3.6155e-17
3.6155e-17
3.61567e-17
3.6159e-17
3.61616e-17
3.61644e-17
3.61833e-17
3.61635e-17
3.61605e-17
3.61614e-17
3.61634e-17
3.61658e-17
3.61685e-17
3.62067e-17
3.61725e-17
3.61658e-17
3.61658e-17
3.61677e-17
3.61701e-17
3.61728e-17
3.62284e-17
3.61808e-17
3.61709e-17
3.61703e-17
3.6172e-17
3.61744e-17
3.6177e-17
3.62439e-17
3.61873e-17
3.61756e-17
3.61747e-17
3.61764e-17
3.61787e-17
3.61813e-17
3.62546e-17
3.61924e-17
3.618e-17
3.61791e-17
3.61807e-17
3.6183e-17
3.61856e-17
3.62621e-17
3.61967e-17
3.61842e-17
3.61835e-17
3.61851e-17
3.61875e-17
3.61901e-17
3.62661e-17
3.62002e-17
3.61882e-17
3.61878e-17
3.61895e-17
3.6192e-17
3.61947e-17
3.62674e-17
3.62033e-17
3.61922e-17
3.61921e-17
3.6194e-17
3.61966e-17
3.61994e-17
3.62645e-17
3.62057e-17
3.61961e-17
3.61965e-17
3.61987e-17
3.62015e-17
3.62045e-17
3.62586e-17
3.62078e-17
3.62003e-17
3.62015e-17
3.62044e-17
3.62077e-17
3.62111e-17
3.62521e-17
3.62103e-17
3.62058e-17
3.62095e-17
3.62152e-17
3.62208e-17
3.62252e-17
3.62573e-17
3.62179e-17
3.6219e-17
3.62326e-17
3.625e-17
3.6265e-17
3.62728e-17
3.61078e-17
3.61086e-17
3.61105e-17
3.61123e-17
3.61144e-17
3.61168e-17
3.61195e-17
3.61225e-17
3.61256e-17
3.61289e-17
3.61321e-17
3.61353e-17
3.6138e-17
3.61404e-17
3.61148e-17
3.61143e-17
3.61157e-17
3.6117e-17
3.6119e-17
3.61212e-17
3.61239e-17
3.61268e-17
3.61299e-17
3.61332e-17
3.61366e-17
3.61399e-17
3.61428e-17
3.61459e-17
3.61218e-17
3.612e-17
3.61209e-17
3.61221e-17
3.61239e-17
3.61261e-17
3.61286e-17
3.61315e-17
3.61345e-17
3.61377e-17
3.6141e-17
3.61443e-17
3.61475e-17
3.61507e-17
3.61287e-17
3.61256e-17
3.6126e-17
3.61271e-17
3.61289e-17
3.61311e-17
3.61336e-17
3.61364e-17
3.61394e-17
3.61425e-17
3.61458e-17
3.61491e-17
3.61523e-17
3.61557e-17
3.6135e-17
3.61311e-17
3.61311e-17
3.61323e-17
3.61341e-17
3.61363e-17
3.61388e-17
3.61415e-17
3.61445e-17
3.61476e-17
3.61508e-17
3.6154e-17
3.61572e-17
3.61605e-17
3.61409e-17
3.61366e-17
3.61365e-17
3.61377e-17
3.61395e-17
3.61417e-17
3.61442e-17
3.61469e-17
3.61499e-17
3.6153e-17
3.61563e-17
3.61595e-17
3.61626e-17
3.61659e-17
3.61464e-17
3.61419e-17
3.61418e-17
3.61432e-17
3.6145e-17
3.61473e-17
3.61498e-17
3.61526e-17
3.61555e-17
3.61587e-17
3.61619e-17
3.61652e-17
3.61683e-17
3.61715e-17
3.61517e-17
3.61472e-17
3.61473e-17
3.61489e-17
3.61508e-17
3.61531e-17
3.61557e-17
3.61585e-17
3.61615e-17
3.61647e-17
3.6168e-17
3.61712e-17
3.61745e-17
3.61776e-17
3.61566e-17
3.61524e-17
3.61527e-17
3.61545e-17
3.61566e-17
3.61591e-17
3.61618e-17
3.61647e-17
3.61677e-17
3.61709e-17
3.61742e-17
3.61775e-17
3.61808e-17
3.61839e-17
3.61614e-17
3.61576e-17
3.61583e-17
3.61603e-17
3.61626e-17
3.61652e-17
3.6168e-17
3.6171e-17
3.61741e-17
3.61773e-17
3.61807e-17
3.61841e-17
3.61875e-17
3.61905e-17
3.61658e-17
3.61627e-17
3.61638e-17
3.6166e-17
3.61686e-17
3.61714e-17
3.61744e-17
3.61775e-17
3.61808e-17
3.6184e-17
3.61874e-17
3.6191e-17
3.61945e-17
3.61974e-17
3.61697e-17
3.61677e-17
3.61693e-17
3.61718e-17
3.61747e-17
3.61777e-17
3.61809e-17
3.61841e-17
3.61875e-17
3.61908e-17
3.61943e-17
3.61979e-17
3.62014e-17
3.62043e-17
3.61728e-17
3.6172e-17
3.61745e-17
3.61775e-17
3.61809e-17
3.61843e-17
3.61878e-17
3.61912e-17
3.61946e-17
3.61981e-17
3.62016e-17
3.62051e-17
3.62081e-17
3.62104e-17
3.61759e-17
3.61765e-17
3.61801e-17
3.61843e-17
3.61888e-17
3.61931e-17
3.6197e-17
3.62003e-17
3.62034e-17
3.62064e-17
3.62093e-17
3.6212e-17
3.62143e-17
3.62163e-17
3.60817e-17
3.60816e-17
3.60823e-17
3.60833e-17
3.60845e-17
3.6086e-17
3.60878e-17
3.60899e-17
3.60923e-17
3.60948e-17
3.60976e-17
3.61003e-17
3.61028e-17
3.61051e-17
3.60879e-17
3.60873e-17
3.60878e-17
3.60885e-17
3.60896e-17
3.6091e-17
3.60928e-17
3.60949e-17
3.60972e-17
3.60997e-17
3.61024e-17
3.61052e-17
3.61077e-17
3.61105e-17
3.60934e-17
3.60926e-17
3.60931e-17
3.60938e-17
3.60949e-17
3.60963e-17
3.60981e-17
3.61001e-17
3.61023e-17
3.61047e-17
3.61073e-17
3.611e-17
3.61126e-17
3.61155e-17
3.60988e-17
3.6098e-17
3.60985e-17
3.60993e-17
3.61004e-17
3.61019e-17
3.61037e-17
3.61057e-17
3.61078e-17
3.61102e-17
3.61127e-17
3.61153e-17
3.61179e-17
3.61207e-17
3.61039e-17
3.61034e-17
3.6104e-17
3.61049e-17
3.61062e-17
3.61077e-17
3.61095e-17
3.61115e-17
3.61136e-17
3.61159e-17
3.61183e-17
3.61209e-17
3.61233e-17
3.6126e-17
3.61092e-17
3.61092e-17
3.61097e-17
3.61108e-17
3.61121e-17
3.61137e-17
3.61155e-17
3.61176e-17
3.61197e-17
3.6122e-17
3.61244e-17
3.61269e-17
3.61293e-17
3.61319e-17
3.61145e-17
3.61148e-17
3.61156e-17
3.61168e-17
3.61182e-17
3.61199e-17
3.61218e-17
3.61239e-17
3.6126e-17
3.61283e-17
3.61307e-17
3.61331e-17
3.61355e-17
3.6138e-17
3.612e-17
3.61205e-17
3.61215e-17
3.6123e-17
3.61245e-17
3.61263e-17
3.61282e-17
3.61304e-17
3.61325e-17
3.61348e-17
3.61372e-17
3.61396e-17
3.61421e-17
3.61444e-17
3.61254e-17
3.61262e-17
3.61275e-17
3.61291e-17
3.61309e-17
3.61328e-17
3.61348e-17
3.6137e-17
3.61392e-17
3.61415e-17
3.61438e-17
3.61462e-17
3.61487e-17
3.61509e-17
3.6131e-17
3.61321e-17
3.61336e-17
3.61354e-17
3.61373e-17
3.61393e-17
3.61415e-17
3.61437e-17
3.61459e-17
3.61482e-17
3.61507e-17
3.61531e-17
3.61556e-17
3.61578e-17
3.61365e-17
3.61379e-17
3.61396e-17
3.61416e-17
3.61437e-17
3.61459e-17
3.61482e-17
3.61505e-17
3.61528e-17
3.61551e-17
3.61576e-17
3.61601e-17
3.61627e-17
3.61647e-17
3.6142e-17
3.61437e-17
3.61457e-17
3.61479e-17
3.61502e-17
3.61525e-17
3.61549e-17
3.61573e-17
3.61597e-17
3.61621e-17
3.61646e-17
3.61672e-17
3.61698e-17
3.61717e-17
3.61467e-17
3.61488e-17
3.61514e-17
3.61538e-17
3.61564e-17
3.6159e-17
3.61616e-17
3.61641e-17
3.61666e-17
3.61691e-17
3.61716e-17
3.61742e-17
3.61765e-17
3.61781e-17
3.61511e-17
3.6154e-17
3.61571e-17
3.616e-17
3.61629e-17
3.61656e-17
3.61684e-17
3.6171e-17
3.61735e-17
3.6176e-17
3.61784e-17
3.61807e-17
3.61826e-17
3.61841e-17
3.60717e-17
3.60708e-17
3.60706e-17
3.60706e-17
3.60708e-17
3.60711e-17
3.60717e-17
3.60725e-17
3.60734e-17
3.60746e-17
3.6076e-17
3.60774e-17
3.60789e-17
3.60801e-17
3.60766e-17
3.60757e-17
3.60756e-17
3.60754e-17
3.60755e-17
3.60758e-17
3.60764e-17
3.60772e-17
3.60781e-17
3.60793e-17
3.60807e-17
3.60822e-17
3.60835e-17
3.6085e-17
3.60812e-17
3.60803e-17
3.60802e-17
3.60802e-17
3.60804e-17
3.60808e-17
3.60814e-17
3.60822e-17
3.60831e-17
3.60842e-17
3.60854e-17
3.60868e-17
3.60881e-17
3.60897e-17
3.60858e-17
3.60851e-17
3.60851e-17
3.60852e-17
3.60854e-17
3.60859e-17
3.60865e-17
3.60873e-17
3.60883e-17
3.60893e-17
3.60905e-17
3.60917e-17
3.6093e-17
3.60946e-17
3.60902e-17
3.60898e-17
3.60899e-17
3.60902e-17
3.60906e-17
3.60911e-17
3.60918e-17
3.60927e-17
3.60936e-17
3.60946e-17
3.60958e-17
3.60969e-17
3.60981e-17
3.60996e-17
3.60948e-17
3.60948e-17
3.6095e-17
3.60954e-17
3.60959e-17
3.60966e-17
3.60973e-17
3.60982e-17
3.60991e-17
3.61002e-17
3.61013e-17
3.61024e-17
3.61036e-17
3.61049e-17
3.60994e-17
3.60997e-17
3.61002e-17
3.61007e-17
3.61013e-17
3.61021e-17
3.61029e-17
3.61038e-17
3.61047e-17
3.61058e-17
3.61069e-17
3.6108e-17
3.61092e-17
3.61103e-17
3.61042e-17
3.61048e-17
3.61054e-17
3.61061e-17
3.61068e-17
3.61077e-17
3.61085e-17
3.61095e-17
3.61105e-17
3.61116e-17
3.61127e-17
3.61138e-17
3.6115e-17
3.6116e-17
3.6109e-17
3.61098e-17
3.61106e-17
3.61115e-17
3.61124e-17
3.61133e-17
3.61142e-17
3.61153e-17
3.61163e-17
3.61174e-17
3.61185e-17
3.61196e-17
3.61208e-17
3.61217e-17
3.61141e-17
3.6115e-17
3.61159e-17
3.6117e-17
3.6118e-17
3.6119e-17
3.612e-17
3.61211e-17
3.61222e-17
3.61234e-17
3.61245e-17
3.61256e-17
3.61268e-17
3.61277e-17
3.61192e-17
3.61202e-17
3.61213e-17
3.61224e-17
3.61236e-17
3.61247e-17
3.61259e-17
3.6127e-17
3.61282e-17
3.61294e-17
3.61306e-17
3.61316e-17
3.6133e-17
3.61337e-17
3.61244e-17
3.61256e-17
3.61268e-17
3.6128e-17
3.61293e-17
3.61305e-17
3.61317e-17
3.6133e-17
3.61342e-17
3.61354e-17
3.61367e-17
3.61378e-17
3.61392e-17
3.61398e-17
3.61291e-17
3.61305e-17
3.61321e-17
3.61335e-17
3.61348e-17
3.61362e-17
3.61376e-17
3.61389e-17
3.61402e-17
3.61415e-17
3.61427e-17
3.61439e-17
3.61452e-17
3.61456e-17
3.61337e-17
3.61355e-17
3.61375e-17
3.61391e-17
3.61406e-17
3.61421e-17
3.61435e-17
3.61449e-17
3.61462e-17
3.61475e-17
3.61486e-17
3.61497e-17
3.61508e-17
3.61514e-17
3.60703e-17
3.60696e-17
3.6069e-17
3.60684e-17
3.60678e-17
3.60673e-17
3.60669e-17
3.60666e-17
3.60664e-17
3.60664e-17
3.60665e-17
3.60668e-17
3.6067e-17
3.60672e-17
3.60743e-17
3.60734e-17
3.60728e-17
3.60721e-17
3.60715e-17
3.6071e-17
3.60706e-17
3.60703e-17
3.60701e-17
3.60702e-17
3.60703e-17
3.60705e-17
3.60706e-17
3.60712e-17
3.60778e-17
3.60768e-17
3.60763e-17
3.60757e-17
3.60752e-17
3.60748e-17
3.60745e-17
3.60742e-17
3.6074e-17
3.6074e-17
3.6074e-17
3.60742e-17
3.60742e-17
3.60749e-17
3.60812e-17
3.60804e-17
3.608e-17
3.60795e-17
3.60791e-17
3.60787e-17
3.60784e-17
3.60782e-17
3.6078e-17
3.60779e-17
3.60778e-17
3.60779e-17
3.6078e-17
3.60785e-17
3.60844e-17
3.60838e-17
3.60836e-17
3.60832e-17
3.60829e-17
3.60826e-17
3.60824e-17
3.60822e-17
3.6082e-17
3.60819e-17
3.60818e-17
3.60818e-17
3.60817e-17
3.60821e-17
3.60878e-17
3.60875e-17
3.60873e-17
3.6087e-17
3.60868e-17
3.60865e-17
3.60864e-17
3.60862e-17
3.60861e-17
3.60859e-17
3.60858e-17
3.60857e-17
3.60857e-17
3.60859e-17
3.60912e-17
3.60911e-17
3.6091e-17
3.60909e-17
3.60907e-17
3.60906e-17
3.60904e-17
3.60903e-17
3.60902e-17
3.609e-17
3.60899e-17
3.60898e-17
3.60897e-17
3.60897e-17
3.60948e-17
3.60949e-17
3.60949e-17
3.60948e-17
3.60947e-17
3.60947e-17
3.60945e-17
3.60944e-17
3.60943e-17
3.60942e-17
3.60941e-17
3.6094e-17
3.60939e-17
3.60937e-17
3.60985e-17
3.60987e-17
3.60988e-17
3.60989e-17
3.60988e-17
3.60988e-17
3.60987e-17
3.60987e-17
3.60986e-17
3.60985e-17
3.60984e-17
3.60982e-17
3.60982e-17
3.60979e-17
3.61024e-17
3.61026e-17
3.61028e-17
3.6103e-17
3.6103e-17
3.6103e-17
3.6103e-17
3.61029e-17
3.61029e-17
3.61028e-17
3.61027e-17
3.61025e-17
3.61026e-17
3.61023e-17
3.61063e-17
3.61066e-17
3.61069e-17
3.61071e-17
3.61072e-17
3.61073e-17
3.61073e-17
3.61073e-17
3.61073e-17
3.61072e-17
3.61071e-17
3.6107e-17
3.61072e-17
3.61069e-17
3.61104e-17
3.61108e-17
3.61111e-17
3.61114e-17
3.61115e-17
3.61116e-17
3.61117e-17
3.61117e-17
3.61117e-17
3.61116e-17
3.61117e-17
3.61117e-17
3.61119e-17
3.61115e-17
3.61144e-17
3.61148e-17
3.61152e-17
3.61156e-17
3.61158e-17
3.6116e-17
3.61161e-17
3.61161e-17
3.61162e-17
3.61162e-17
3.61162e-17
3.61163e-17
3.61163e-17
3.61158e-17
3.61184e-17
3.61189e-17
3.61195e-17
3.612e-17
3.61203e-17
3.61205e-17
3.61206e-17
3.61207e-17
3.61207e-17
3.61207e-17
3.61207e-17
3.61207e-17
3.61206e-17
3.61203e-17
3.60725e-17
3.60716e-17
3.60708e-17
3.60699e-17
3.6069e-17
3.60681e-17
3.60671e-17
3.60662e-17
3.60654e-17
3.60646e-17
3.60639e-17
3.60632e-17
3.60624e-17
3.60616e-17
3.60752e-17
3.60741e-17
3.60734e-17
3.60724e-17
3.60714e-17
3.60704e-17
3.60695e-17
3.60686e-17
3.60677e-17
3.60669e-17
3.60662e-17
3.60655e-17
3.60646e-17
3.60642e-17
3.60773e-17
3.60762e-17
3.60755e-17
3.60746e-17
3.60737e-17
3.60728e-17
3.60719e-17
3.6071e-17
3.60702e-17
3.60694e-17
3.60686e-17
3.60678e-17
3.6067e-17
3.60665e-17
3.60795e-17
3.60785e-17
3.60779e-17
3.60769e-17
3.60761e-17
3.60752e-17
3.60743e-17
3.60735e-17
3.60726e-17
3.60718e-17
3.60709e-17
3.60701e-17
3.60692e-17
3.60688e-17
3.60815e-17
3.60807e-17
3.60801e-17
3.60793e-17
3.60785e-17
3.60776e-17
3.60768e-17
3.60759e-17
3.60751e-17
3.60742e-17
3.60733e-17
3.60724e-17
3.60715e-17
3.60709e-17
3.60837e-17
3.6083e-17
3.60824e-17
3.60817e-17
3.60809e-17
3.60801e-17
3.60793e-17
3.60784e-17
3.60775e-17
3.60766e-17
3.60757e-17
3.60748e-17
3.60738e-17
3.6073e-17
3.60859e-17
3.60853e-17
3.60848e-17
3.60841e-17
3.60834e-17
3.60826e-17
3.60817e-17
3.60809e-17
3.608e-17
3.60791e-17
3.60782e-17
3.60772e-17
3.60762e-17
3.60752e-17
3.60882e-17
3.60877e-17
3.60872e-17
3.60866e-17
3.60859e-17
3.60851e-17
3.60843e-17
3.60834e-17
3.60825e-17
3.60815e-17
3.60806e-17
3.60796e-17
3.60786e-17
3.60776e-17
3.60906e-17
3.60902e-17
3.60897e-17
3.60891e-17
3.60884e-17
3.60877e-17
3.60868e-17
3.6086e-17
3.6085e-17
3.60841e-17
3.60831e-17
3.60821e-17
3.60811e-17
3.60799e-17
3.60932e-17
3.60928e-17
3.60923e-17
3.60917e-17
3.6091e-17
3.60903e-17
3.60894e-17
3.60886e-17
3.60876e-17
3.60866e-17
3.60856e-17
3.60845e-17
3.60836e-17
3.60824e-17
3.60958e-17
3.60955e-17
3.60949e-17
3.60944e-17
3.60937e-17
3.60929e-17
3.60921e-17
3.60912e-17
3.60902e-17
3.60892e-17
3.60883e-17
3.60871e-17
3.60862e-17
3.6085e-17
3.60985e-17
3.60982e-17
3.60977e-17
3.60971e-17
3.60964e-17
3.60956e-17
3.60948e-17
3.60939e-17
3.60929e-17
3.60919e-17
3.60909e-17
3.60898e-17
3.60889e-17
3.60877e-17
3.61012e-17
3.6101e-17
3.61005e-17
3.60999e-17
3.60992e-17
3.60984e-17
3.60975e-17
3.60966e-17
3.60956e-17
3.60946e-17
3.60936e-17
3.60925e-17
3.60915e-17
3.60902e-17
3.6104e-17
3.61037e-17
3.61032e-17
3.61027e-17
3.6102e-17
3.61012e-17
3.61003e-17
3.60994e-17
3.60984e-17
3.60974e-17
3.60963e-17
3.60952e-17
3.60941e-17
3.60929e-17
3.60747e-17
3.60737e-17
3.60728e-17
3.60718e-17
3.60706e-17
3.60694e-17
3.60682e-17
3.6067e-17
3.60657e-17
3.60644e-17
3.60632e-17
3.60619e-17
3.60606e-17
3.6059e-17
3.6076e-17
3.6075e-17
3.60742e-17
3.6073e-17
3.60719e-17
3.60706e-17
3.60694e-17
3.60681e-17
3.60668e-17
3.60655e-17
3.60642e-17
3.60629e-17
3.60616e-17
3.60603e-17
3.60771e-17
3.6076e-17
3.60751e-17
3.6074e-17
3.60729e-17
3.60717e-17
3.60705e-17
3.60692e-17
3.60679e-17
3.60666e-17
3.60654e-17
3.6064e-17
3.60627e-17
3.60614e-17
3.60781e-17
3.60771e-17
3.60762e-17
3.60751e-17
3.6074e-17
3.60728e-17
3.60716e-17
3.60703e-17
3.6069e-17
3.60677e-17
3.60664e-17
3.6065e-17
3.60637e-17
3.60625e-17
3.6079e-17
3.60781e-17
3.60773e-17
3.60762e-17
3.60751e-17
3.60739e-17
3.60727e-17
3.60714e-17
3.60701e-17
3.60687e-17
3.60674e-17
3.6066e-17
3.60646e-17
3.60633e-17
3.60801e-17
3.60793e-17
3.60784e-17
3.60773e-17
3.60762e-17
3.6075e-17
3.60738e-17
3.60724e-17
3.60711e-17
3.60697e-17
3.60683e-17
3.60669e-17
3.60655e-17
3.6064e-17
3.60812e-17
3.60804e-17
3.60795e-17
3.60785e-17
3.60773e-17
3.60761e-17
3.60749e-17
3.60735e-17
3.60722e-17
3.60707e-17
3.60693e-17
3.60678e-17
3.60663e-17
3.60648e-17
3.60823e-17
3.60816e-17
3.60807e-17
3.60796e-17
3.60785e-17
3.60772e-17
3.60759e-17
3.60746e-17
3.60732e-17
3.60717e-17
3.60702e-17
3.60687e-17
3.60672e-17
3.60656e-17
3.60836e-17
3.60828e-17
3.60818e-17
3.60808e-17
3.60796e-17
3.60783e-17
3.6077e-17
3.60756e-17
3.60742e-17
3.60727e-17
3.60712e-17
3.60696e-17
3.6068e-17
3.60664e-17
3.60849e-17
3.60841e-17
3.60831e-17
3.6082e-17
3.60807e-17
3.60794e-17
3.6078e-17
3.60766e-17
3.60751e-17
3.60736e-17
3.60721e-17
3.60705e-17
3.60689e-17
3.60672e-17
3.60862e-17
3.60853e-17
3.60843e-17
3.60832e-17
3.60819e-17
3.60805e-17
3.60791e-17
3.60776e-17
3.60761e-17
3.60746e-17
3.6073e-17
3.60714e-17
3.60698e-17
3.6068e-17
3.60874e-17
3.60866e-17
3.60855e-17
3.60844e-17
3.6083e-17
3.60816e-17
3.60802e-17
3.60787e-17
3.60771e-17
3.60755e-17
3.60739e-17
3.60723e-17
3.60706e-17
3.60688e-17
3.60886e-17
3.60878e-17
3.60867e-17
3.60855e-17
3.60841e-17
3.60827e-17
3.60812e-17
3.60797e-17
3.60781e-17
3.60765e-17
3.60748e-17
3.60731e-17
3.60713e-17
3.60694e-17
3.60899e-17
3.6089e-17
3.60879e-17
3.60867e-17
3.60853e-17
3.60839e-17
3.60823e-17
3.60808e-17
3.60792e-17
3.60775e-17
3.60758e-17
3.60739e-17
3.60721e-17
3.60701e-17
3.60751e-17
3.60742e-17
3.60732e-17
3.60721e-17
3.60709e-17
3.60695e-17
3.60681e-17
3.60665e-17
3.6065e-17
3.60633e-17
3.60618e-17
3.606e-17
3.60584e-17
3.60564e-17
3.60755e-17
3.60745e-17
3.60736e-17
3.60723e-17
3.6071e-17
3.60696e-17
3.60681e-17
3.60666e-17
3.6065e-17
3.60633e-17
3.60618e-17
3.606e-17
3.60584e-17
3.60566e-17
3.60755e-17
3.60745e-17
3.60735e-17
3.60723e-17
3.6071e-17
3.60696e-17
3.60681e-17
3.60666e-17
3.60651e-17
3.60634e-17
3.60618e-17
3.60601e-17
3.60585e-17
3.60567e-17
3.60756e-17
3.60746e-17
3.60735e-17
3.60723e-17
3.60709e-17
3.60695e-17
3.60681e-17
3.60666e-17
3.6065e-17
3.60634e-17
3.60618e-17
3.60601e-17
3.60584e-17
3.60567e-17
3.60755e-17
3.60745e-17
3.60735e-17
3.60722e-17
3.60709e-17
3.60695e-17
3.6068e-17
3.60665e-17
3.60649e-17
3.60632e-17
3.60616e-17
3.60598e-17
3.60581e-17
3.60564e-17
3.60754e-17
3.60745e-17
3.60734e-17
3.60721e-17
3.60708e-17
3.60693e-17
3.60679e-17
3.60663e-17
3.60647e-17
3.6063e-17
3.60613e-17
3.60595e-17
3.60578e-17
3.6056e-17
3.60754e-17
3.60744e-17
3.60733e-17
3.6072e-17
3.60707e-17
3.60692e-17
3.60677e-17
3.6066e-17
3.60644e-17
3.60627e-17
3.60609e-17
3.60591e-17
3.60574e-17
3.60555e-17
3.60754e-17
3.60744e-17
3.60732e-17
3.60719e-17
3.60705e-17
3.6069e-17
3.60674e-17
3.60657e-17
3.6064e-17
3.60623e-17
3.60605e-17
3.60587e-17
3.60569e-17
3.6055e-17
3.60754e-17
3.60744e-17
3.60731e-17
3.60718e-17
3.60703e-17
3.60687e-17
3.60671e-17
3.60654e-17
3.60636e-17
3.60619e-17
3.60601e-17
3.60582e-17
3.60563e-17
3.60545e-17
3.60754e-17
3.60743e-17
3.6073e-17
3.60716e-17
3.607e-17
3.60684e-17
3.60667e-17
3.6065e-17
3.60632e-17
3.60614e-17
3.60596e-17
3.60577e-17
3.60558e-17
3.60539e-17
3.60754e-17
3.60742e-17
3.60728e-17
3.60714e-17
3.60697e-17
3.60681e-17
3.60663e-17
3.60646e-17
3.60627e-17
3.60609e-17
3.6059e-17
3.60571e-17
3.60551e-17
3.60533e-17
3.60754e-17
3.60741e-17
3.60726e-17
3.60711e-17
3.60694e-17
3.60677e-17
3.60659e-17
3.60641e-17
3.60622e-17
3.60603e-17
3.60584e-17
3.60565e-17
3.60545e-17
3.60526e-17
3.60752e-17
3.60738e-17
3.60723e-17
3.60707e-17
3.60691e-17
3.60673e-17
3.60655e-17
3.60636e-17
3.60617e-17
3.60597e-17
3.60577e-17
3.60558e-17
3.60537e-17
3.60516e-17
3.6075e-17
3.60736e-17
3.60721e-17
3.60704e-17
3.60687e-17
3.60669e-17
3.6065e-17
3.60632e-17
3.60612e-17
3.60593e-17
3.60572e-17
3.60552e-17
3.6053e-17
3.60509e-17
3.60721e-17
3.60712e-17
3.60702e-17
3.6069e-17
3.60677e-17
3.60662e-17
3.60646e-17
3.6063e-17
3.60612e-17
3.60594e-17
3.60575e-17
3.60555e-17
3.60536e-17
3.60513e-17
3.60714e-17
3.60704e-17
3.60694e-17
3.60681e-17
3.60668e-17
3.60653e-17
3.60637e-17
3.6062e-17
3.60602e-17
3.60584e-17
3.60566e-17
3.60546e-17
3.60527e-17
3.60507e-17
3.60704e-17
3.60694e-17
3.60684e-17
3.6067e-17
3.60657e-17
3.60642e-17
3.60626e-17
3.6061e-17
3.60592e-17
3.60574e-17
3.60556e-17
3.60537e-17
3.60518e-17
3.60498e-17
3.60694e-17
3.60684e-17
3.60673e-17
3.60659e-17
3.60645e-17
3.6063e-17
3.60615e-17
3.60598e-17
3.60581e-17
3.60563e-17
3.60544e-17
3.60525e-17
3.60507e-17
3.60488e-17
3.60682e-17
3.60672e-17
3.60661e-17
3.60648e-17
3.60634e-17
3.60619e-17
3.60603e-17
3.60586e-17
3.60569e-17
3.6055e-17
3.60532e-17
3.60513e-17
3.60494e-17
3.60475e-17
3.60671e-17
3.60661e-17
3.60649e-17
3.60636e-17
3.60621e-17
3.60606e-17
3.6059e-17
3.60573e-17
3.60555e-17
3.60537e-17
3.60519e-17
3.60499e-17
3.6048e-17
3.60461e-17
3.6066e-17
3.60649e-17
3.60637e-17
3.60623e-17
3.60609e-17
3.60593e-17
3.60576e-17
3.60559e-17
3.60541e-17
3.60523e-17
3.60504e-17
3.60485e-17
3.60466e-17
3.60447e-17
3.60649e-17
3.60637e-17
3.60624e-17
3.6061e-17
3.60595e-17
3.60579e-17
3.60562e-17
3.60544e-17
3.60526e-17
3.60508e-17
3.60489e-17
3.6047e-17
3.60451e-17
3.60431e-17
3.60638e-17
3.60625e-17
3.60612e-17
3.60597e-17
3.60581e-17
3.60564e-17
3.60547e-17
3.60529e-17
3.60511e-17
3.60492e-17
3.60473e-17
3.60454e-17
3.60434e-17
3.60415e-17
3.60626e-17
3.60612e-17
3.60598e-17
3.60582e-17
3.60566e-17
3.60549e-17
3.60531e-17
3.60513e-17
3.60495e-17
3.60476e-17
3.60456e-17
3.60437e-17
3.60417e-17
3.60399e-17
3.60615e-17
3.606e-17
3.60584e-17
3.60568e-17
3.60551e-17
3.60534e-17
3.60515e-17
3.60497e-17
3.60477e-17
3.60458e-17
3.60438e-17
3.60419e-17
3.60399e-17
3.60381e-17
3.60601e-17
3.60585e-17
3.6057e-17
3.60553e-17
3.60535e-17
3.60517e-17
3.60499e-17
3.6048e-17
3.6046e-17
3.60441e-17
3.60421e-17
3.60401e-17
3.60381e-17
3.60363e-17
3.60587e-17
3.60571e-17
3.60555e-17
3.60538e-17
3.6052e-17
3.60501e-17
3.60482e-17
3.60462e-17
3.60442e-17
3.60422e-17
3.60401e-17
3.60381e-17
3.6036e-17
3.60341e-17
3.6057e-17
3.60554e-17
3.60538e-17
3.6052e-17
3.60502e-17
3.60483e-17
3.60464e-17
3.60445e-17
3.60425e-17
3.60405e-17
3.60384e-17
3.60363e-17
3.60341e-17
3.60322e-17
3.60623e-17
3.60614e-17
3.60604e-17
3.60593e-17
3.6058e-17
3.60566e-17
3.60551e-17
3.60535e-17
3.60517e-17
3.60499e-17
3.60481e-17
3.60461e-17
3.60441e-17
3.60418e-17
3.60606e-17
3.60597e-17
3.60587e-17
3.60575e-17
3.60562e-17
3.60547e-17
3.60532e-17
3.60516e-17
3.60498e-17
3.6048e-17
3.60462e-17
3.60442e-17
3.60423e-17
3.60402e-17
3.60587e-17
3.60578e-17
3.60567e-17
3.60555e-17
3.60542e-17
3.60528e-17
3.60513e-17
3.60497e-17
3.6048e-17
3.60462e-17
3.60444e-17
3.60425e-17
3.60406e-17
3.60386e-17
3.60568e-17
3.60559e-17
3.60547e-17
3.60535e-17
3.60522e-17
3.60507e-17
3.60492e-17
3.60476e-17
3.60459e-17
3.60442e-17
3.60424e-17
3.60405e-17
3.60386e-17
3.60368e-17
3.60548e-17
3.60538e-17
3.60527e-17
3.60514e-17
3.60501e-17
3.60487e-17
3.60471e-17
3.60455e-17
3.60439e-17
3.60421e-17
3.60403e-17
3.60385e-17
3.60366e-17
3.60348e-17
3.60528e-17
3.60518e-17
3.60506e-17
3.60493e-17
3.60479e-17
3.60465e-17
3.60449e-17
3.60433e-17
3.60417e-17
3.60399e-17
3.60381e-17
3.60363e-17
3.60345e-17
3.60326e-17
3.60508e-17
3.60497e-17
3.60485e-17
3.60472e-17
3.60458e-17
3.60443e-17
3.60427e-17
3.60411e-17
3.60394e-17
3.60377e-17
3.60359e-17
3.60341e-17
3.60323e-17
3.60304e-17
3.60488e-17
3.60476e-17
3.60463e-17
3.60449e-17
3.60435e-17
3.6042e-17
3.60404e-17
3.60388e-17
3.60371e-17
3.60353e-17
3.60336e-17
3.60318e-17
3.603e-17
3.60282e-17
3.60467e-17
3.60455e-17
3.60441e-17
3.60427e-17
3.60412e-17
3.60396e-17
3.6038e-17
3.60364e-17
3.60347e-17
3.60329e-17
3.60312e-17
3.60294e-17
3.60276e-17
3.60259e-17
3.60446e-17
3.60432e-17
3.60418e-17
3.60403e-17
3.60388e-17
3.60372e-17
3.60356e-17
3.60339e-17
3.60322e-17
3.60305e-17
3.60287e-17
3.60269e-17
3.60251e-17
3.60234e-17
3.60425e-17
3.6041e-17
3.60396e-17
3.6038e-17
3.60364e-17
3.60348e-17
3.60332e-17
3.60314e-17
3.60297e-17
3.60279e-17
3.60261e-17
3.60243e-17
3.60225e-17
3.6021e-17
3.60401e-17
3.60386e-17
3.60371e-17
3.60355e-17
3.60339e-17
3.60323e-17
3.60306e-17
3.60289e-17
3.60271e-17
3.60253e-17
3.60235e-17
3.60218e-17
3.60199e-17
3.60184e-17
3.60379e-17
3.60362e-17
3.60347e-17
3.60331e-17
3.60315e-17
3.60298e-17
3.6028e-17
3.60262e-17
3.60244e-17
3.60226e-17
3.60207e-17
3.60189e-17
3.60171e-17
3.60156e-17
3.60351e-17
3.60336e-17
3.6032e-17
3.60304e-17
3.60288e-17
3.60271e-17
3.60254e-17
3.60237e-17
3.60218e-17
3.602e-17
3.60182e-17
3.60164e-17
3.60145e-17
3.60129e-17
3.60435e-17
3.60427e-17
3.60418e-17
3.60409e-17
3.60399e-17
3.60388e-17
3.60376e-17
3.60363e-17
3.60349e-17
3.60334e-17
3.60319e-17
3.60303e-17
3.60286e-17
3.60267e-17
3.60412e-17
3.60405e-17
3.60396e-17
3.60386e-17
3.60375e-17
3.60364e-17
3.60351e-17
3.60338e-17
3.60324e-17
3.60309e-17
3.60294e-17
3.60278e-17
3.60262e-17
3.60244e-17
3.60387e-17
3.60381e-17
3.60371e-17
3.60361e-17
3.6035e-17
3.60339e-17
3.60327e-17
3.60314e-17
3.603e-17
3.60286e-17
3.60271e-17
3.60255e-17
3.6024e-17
3.60223e-17
3.60363e-17
3.60356e-17
3.60346e-17
3.60336e-17
3.60325e-17
3.60313e-17
3.60301e-17
3.60288e-17
3.60275e-17
3.6026e-17
3.60246e-17
3.6023e-17
3.60215e-17
3.60199e-17
3.60339e-17
3.60331e-17
3.60321e-17
3.60311e-17
3.60299e-17
3.60288e-17
3.60275e-17
3.60262e-17
3.60249e-17
3.60235e-17
3.60221e-17
3.60205e-17
3.60191e-17
3.60175e-17
3.60315e-17
3.60306e-17
3.60295e-17
3.60285e-17
3.60273e-17
3.60261e-17
3.60249e-17
3.60236e-17
3.60223e-17
3.60209e-17
3.60194e-17
3.6018e-17
3.60165e-17
3.6015e-17
3.6029e-17
3.6028e-17
3.6027e-17
3.60259e-17
3.60247e-17
3.60235e-17
3.60222e-17
3.60209e-17
3.60196e-17
3.60182e-17
3.60168e-17
3.60154e-17
3.60139e-17
3.60125e-17
3.60264e-17
3.60254e-17
3.60243e-17
3.60232e-17
3.6022e-17
3.60208e-17
3.60195e-17
3.60182e-17
3.60169e-17
3.60155e-17
3.60141e-17
3.60127e-17
3.60113e-17
3.60099e-17
3.60238e-17
3.60227e-17
3.60216e-17
3.60205e-17
3.60193e-17
3.6018e-17
3.60167e-17
3.60154e-17
3.60141e-17
3.60127e-17
3.60113e-17
3.601e-17
3.60085e-17
3.60072e-17
3.60212e-17
3.602e-17
3.60188e-17
3.60176e-17
3.60164e-17
3.60152e-17
3.60139e-17
3.60126e-17
3.60113e-17
3.60099e-17
3.60085e-17
3.60072e-17
3.60057e-17
3.60045e-17
3.60185e-17
3.60173e-17
3.60161e-17
3.60149e-17
3.60137e-17
3.60124e-17
3.60111e-17
3.60097e-17
3.60084e-17
3.6007e-17
3.60056e-17
3.60043e-17
3.60029e-17
3.60019e-17
3.60157e-17
3.60144e-17
3.60132e-17
3.6012e-17
3.60107e-17
3.60095e-17
3.60082e-17
3.60068e-17
3.60055e-17
3.60041e-17
3.60027e-17
3.60015e-17
3.60001e-17
3.59991e-17
3.6013e-17
3.60116e-17
3.60105e-17
3.60092e-17
3.60079e-17
3.60066e-17
3.60052e-17
3.60039e-17
3.60025e-17
3.60011e-17
3.59997e-17
3.59985e-17
3.59972e-17
3.59962e-17
3.60097e-17
3.60086e-17
3.60073e-17
3.60061e-17
3.60049e-17
3.60036e-17
3.60023e-17
3.6001e-17
3.59996e-17
3.59983e-17
3.59969e-17
3.59956e-17
3.59943e-17
3.59933e-17
3.60162e-17
3.60156e-17
3.60149e-17
3.60143e-17
3.60137e-17
3.60131e-17
3.60124e-17
3.60116e-17
3.60108e-17
3.601e-17
3.60091e-17
3.60081e-17
3.60071e-17
3.6006e-17
3.60138e-17
3.60133e-17
3.60127e-17
3.6012e-17
3.60113e-17
3.60106e-17
3.60099e-17
3.60091e-17
3.60083e-17
3.60074e-17
3.60064e-17
3.60055e-17
3.60045e-17
3.60034e-17
3.60113e-17
3.60109e-17
3.60102e-17
3.60095e-17
3.60088e-17
3.60081e-17
3.60074e-17
3.60066e-17
3.60058e-17
3.60049e-17
3.6004e-17
3.60031e-17
3.60022e-17
3.60011e-17
3.60089e-17
3.60084e-17
3.60077e-17
3.6007e-17
3.60063e-17
3.60056e-17
3.60049e-17
3.60041e-17
3.60033e-17
3.60024e-17
3.60015e-17
3.60006e-17
3.59997e-17
3.59986e-17
3.60065e-17
3.6006e-17
3.60052e-17
3.60045e-17
3.60038e-17
3.60031e-17
3.60023e-17
3.60015e-17
3.60007e-17
3.59999e-17
3.5999e-17
3.59981e-17
3.59972e-17
3.59962e-17
3.6004e-17
3.60034e-17
3.60027e-17
3.6002e-17
3.60012e-17
3.60005e-17
3.59997e-17
3.5999e-17
3.59982e-17
3.59973e-17
3.59965e-17
3.59956e-17
3.59947e-17
3.59938e-17
3.60015e-17
3.60009e-17
3.60001e-17
3.59994e-17
3.59987e-17
3.59979e-17
3.59971e-17
3.59964e-17
3.59956e-17
3.59947e-17
3.59939e-17
3.59931e-17
3.59922e-17
3.59913e-17
3.5999e-17
3.59982e-17
3.59975e-17
3.59968e-17
3.5996e-17
3.59953e-17
3.59945e-17
3.59937e-17
3.59929e-17
3.59921e-17
3.59913e-17
3.59905e-17
3.59897e-17
3.59889e-17
3.59964e-17
3.59956e-17
3.59949e-17
3.59941e-17
3.59934e-17
3.59926e-17
3.59919e-17
3.59911e-17
3.59903e-17
3.59895e-17
3.59887e-17
3.59879e-17
3.59871e-17
3.59864e-17
3.59937e-17
3.59929e-17
3.59922e-17
3.59914e-17
3.59907e-17
3.599e-17
3.59892e-17
3.59884e-17
3.59876e-17
3.59869e-17
3.59861e-17
3.59853e-17
3.59845e-17
3.5984e-17
3.59911e-17
3.59902e-17
3.59895e-17
3.59888e-17
3.5988e-17
3.59873e-17
3.59865e-17
3.59858e-17
3.5985e-17
3.59842e-17
3.59834e-17
3.59828e-17
3.5982e-17
3.59815e-17
3.59883e-17
3.59875e-17
3.59868e-17
3.5986e-17
3.59853e-17
3.59846e-17
3.59838e-17
3.59831e-17
3.59823e-17
3.59815e-17
3.59808e-17
3.59801e-17
3.59794e-17
3.59791e-17
3.59857e-17
3.59849e-17
3.59842e-17
3.59834e-17
3.59827e-17
3.59819e-17
3.59812e-17
3.59804e-17
3.59796e-17
3.59789e-17
3.59781e-17
3.59775e-17
3.59769e-17
3.59767e-17
3.59828e-17
3.5982e-17
3.59813e-17
3.59806e-17
3.59799e-17
3.59792e-17
3.59785e-17
3.59778e-17
3.59771e-17
3.59763e-17
3.59756e-17
3.5975e-17
3.59744e-17
3.59742e-17
3.59828e-17
3.59825e-17
3.59822e-17
3.5982e-17
3.59818e-17
3.59817e-17
3.59815e-17
3.59814e-17
3.59812e-17
3.59811e-17
3.59809e-17
3.59807e-17
3.59806e-17
3.59803e-17
3.59807e-17
3.59806e-17
3.59803e-17
3.59801e-17
3.59799e-17
3.59797e-17
3.59795e-17
3.59793e-17
3.59791e-17
3.59789e-17
3.59787e-17
3.59785e-17
3.59783e-17
3.59779e-17
3.59787e-17
3.59786e-17
3.59783e-17
3.59781e-17
3.59778e-17
3.59776e-17
3.59774e-17
3.59772e-17
3.5977e-17
3.59768e-17
3.59767e-17
3.59764e-17
3.59762e-17
3.59758e-17
3.59766e-17
3.59765e-17
3.59763e-17
3.5976e-17
3.59758e-17
3.59756e-17
3.59754e-17
3.59752e-17
3.5975e-17
3.59748e-17
3.59746e-17
3.59743e-17
3.59741e-17
3.59738e-17
3.59747e-17
3.59745e-17
3.59742e-17
3.5974e-17
3.59737e-17
3.59735e-17
3.59733e-17
3.59731e-17
3.59729e-17
3.59727e-17
3.59725e-17
3.59723e-17
3.59721e-17
3.59718e-17
3.59726e-17
3.59724e-17
3.59721e-17
3.59719e-17
3.59717e-17
3.59714e-17
3.59712e-17
3.5971e-17
3.59708e-17
3.59707e-17
3.59705e-17
3.59703e-17
3.59701e-17
3.59698e-17
3.59706e-17
3.59703e-17
3.59701e-17
3.59698e-17
3.59696e-17
3.59694e-17
3.59692e-17
3.5969e-17
3.59688e-17
3.59686e-17
3.59684e-17
3.59683e-17
3.59681e-17
3.59679e-17
3.59685e-17
3.59682e-17
3.5968e-17
3.59677e-17
3.59675e-17
3.59673e-17
3.59671e-17
3.59669e-17
3.59667e-17
3.59666e-17
3.59664e-17
3.59663e-17
3.59661e-17
3.5966e-17
3.59664e-17
3.59661e-17
3.59658e-17
3.59656e-17
3.59654e-17
3.59652e-17
3.5965e-17
3.59648e-17
3.59647e-17
3.59645e-17
3.59644e-17
3.59643e-17
3.59641e-17
3.59641e-17
3.59643e-17
3.59639e-17
3.59637e-17
3.59635e-17
3.59633e-17
3.59631e-17
3.5963e-17
3.59628e-17
3.59626e-17
3.59625e-17
3.59624e-17
3.59623e-17
3.59621e-17
3.59622e-17
3.59622e-17
3.59618e-17
3.59616e-17
3.59614e-17
3.59612e-17
3.59611e-17
3.59609e-17
3.59608e-17
3.59606e-17
3.59605e-17
3.59604e-17
3.59604e-17
3.59603e-17
3.59604e-17
3.59601e-17
3.59597e-17
3.59595e-17
3.59593e-17
3.59592e-17
3.5959e-17
3.59589e-17
3.59588e-17
3.59586e-17
3.59586e-17
3.59585e-17
3.59585e-17
3.59584e-17
3.59586e-17
3.59582e-17
3.59577e-17
3.59575e-17
3.59573e-17
3.59572e-17
3.5957e-17
3.59569e-17
3.59568e-17
3.59567e-17
3.59566e-17
3.59566e-17
3.59566e-17
3.59567e-17
3.59569e-17
3.5956e-17
3.59556e-17
3.59554e-17
3.59553e-17
3.59551e-17