/*--------------------------------*- C++ -*----------------------------------*\
| =========                 |                                                 |
| \\      /  F ield         | OpenFOAM: The Open Source CFD Toolbox           |
|  \\    /   O peration     | Version:  v2106                                 |
|   \\  /    A nd           | Website:  www.openfoam.com                      |
|    \\/     M anipulation  |                                                 |
\*---------------------------------------------------------------------------*/
FoamFile
{
    version     2.0;
    format      ascii;
    arch        "LSB;label=32;scalar=64";
    class       surfaceScalarField;
    location    "0.000185";
    object      phi;
}
// * * * * * * * * * * * * * * * * * * * * * * * * * * * * * * * * * * * * * //

dimensions      [1 0 -1 0 0 0 0];

internalField   nonuniform List<scalar> 
52222
(
4.59444e-08
2.20175e-06
5.96536e-07
-7.29835e-08
1.78954e-08
2.20625e-06
5.75684e-07
-1.32523e-08
2.21138e-06
5.69301e-07
2.2174e-06
5.60365e-07
1.30387e-07
-4.3283e-07
2.137e-06
4.2997e-07
-1.55823e-07
1.04827e-07
-4.22581e-07
2.1411e-06
4.1434e-07
7.68327e-08
-4.20589e-07
2.14517e-06
4.11896e-07
5.25132e-08
-4.23459e-07
2.15016e-06
4.09228e-07
2.89027e-08
-4.26433e-07
2.15483e-06
4.10612e-07
6.36912e-09
-4.23492e-07
2.15972e-06
4.06295e-07
-4.18821e-07
2.16482e-06
3.99933e-07
1.378e-07
-4.30066e-07
2.14513e-06
-1.69861e-07
1.10133e-07
-4.28278e-07
2.15005e-06
8.30222e-08
-4.29976e-07
2.15449e-06
5.80625e-08
-4.36603e-07
2.15931e-06
3.28633e-08
-4.4041e-07
2.16358e-06
9.71472e-09
-4.39741e-07
2.1683e-06
-4.36952e-07
2.1732e-06
1.2577e-07
-4.31512e-07
2.15555e-06
-1.53084e-07
1.012e-07
-4.36056e-07
2.15993e-06
7.72484e-08
-4.41578e-07
2.16427e-06
5.49516e-08
-4.51555e-07
2.1685e-06
3.25212e-08
-4.56534e-07
2.17254e-06
1.19758e-08
-4.58059e-07
2.17696e-06
-4.5706e-07
2.18172e-06
1.17928e-07
-4.34711e-07
2.16712e-06
-1.42041e-07
9.52062e-08
-4.43991e-07
2.17045e-06
7.3203e-08
-4.53586e-07
2.17436e-06
5.23201e-08
-4.66409e-07
2.1779e-06
3.12095e-08
-4.72669e-07
2.18166e-06
1.15864e-08
-4.76187e-07
2.18585e-06
-4.77246e-07
2.19053e-06
1.06181e-07
-4.40055e-07
2.178e-06
-1.27095e-07
8.61164e-08
-4.53101e-07
2.18042e-06
6.6055e-08
-4.65838e-07
2.18404e-06
4.67288e-08
-4.80969e-07
2.18714e-06
2.75759e-08
-4.89031e-07
2.19084e-06
9.65963e-09
-4.94464e-07
2.19492e-06
-4.97418e-07
2.19964e-06
9.50644e-08
-4.47599e-07
2.18809e-06
-1.12255e-07
7.89781e-08
-4.64233e-07
2.18999e-06
6.13815e-08
-4.78481e-07
2.19363e-06
4.29097e-08
-4.94164e-07
2.19651e-06
2.4336e-08
-5.03701e-07
2.20017e-06
6.89636e-09
-5.10995e-07
2.20427e-06
-5.16077e-07
2.20904e-06
8.1198e-08
-4.56198e-07
2.19715e-06
-9.54325e-08
6.75346e-08
-4.75688e-07
2.19915e-06
5.12674e-08
-4.89991e-07
2.2028e-06
3.37074e-08
-5.05802e-07
2.20577e-06
1.67898e-08
-5.17314e-07
2.20949e-06
1.21581e-09
-5.26664e-07
2.21373e-06
-5.33684e-07
2.2186e-06
6.8204e-08
-4.64379e-07
2.20583e-06
-8.04099e-08
5.47246e-08
-4.85185e-07
2.20843e-06
3.98312e-08
-5.00044e-07
2.21189e-06
2.37497e-08
-5.16076e-07
2.21516e-06
8.81931e-09
-5.29704e-07
2.21899e-06
-4.86466e-09
-5.40932e-07
2.22347e-06
-5.49692e-07
2.22845e-06
4.78698e-08
-4.71048e-07
2.21424e-06
-5.91482e-08
3.39483e-08
-4.92092e-07
2.21741e-06
2.11891e-08
-5.09295e-07
2.22069e-06
8.09704e-09
-5.26165e-07
2.22459e-06
-3.69361e-09
-5.4168e-07
2.22858e-06
-1.43304e-08
-5.54518e-07
2.2334e-06
-5.64671e-07
2.23854e-06
2.61744e-08
-4.76317e-07
2.22305e-06
-3.66451e-08
1.34038e-08
-4.97657e-07
2.22657e-06
2.70491e-09
-5.17401e-07
2.22973e-06
-7.48447e-09
-5.35439e-07
2.23421e-06
-1.61335e-08
-5.5265e-07
2.23836e-06
-2.37179e-08
-5.66754e-07
2.24355e-06
-5.77918e-07
2.24887e-06
1.67114e-09
-4.81179e-07
2.23237e-06
-1.04285e-08
-8.87553e-09
-5.02804e-07
2.23623e-06
-1.74183e-08
-5.24276e-07
2.23925e-06
-2.50578e-08
-5.43279e-07
2.24423e-06
-3.06574e-08
-5.6224e-07
2.24852e-06
-3.50462e-08
-5.77489e-07
2.25401e-06
-5.89584e-07
2.25952e-06
-2.07987e-08
-4.8654e-07
2.24107e-06
1.4827e-08
-2.81442e-08
-5.08607e-07
2.24552e-06
-3.35976e-08
-5.30942e-07
2.24869e-06
-3.86009e-08
-5.49603e-07
2.25424e-06
-4.15163e-08
-5.69692e-07
2.25877e-06
-4.34093e-08
-5.85532e-07
2.26454e-06
-5.98125e-07
2.27033e-06
-4.6223e-08
-4.94453e-07
2.24842e-06
4.46021e-08
-5.10615e-08
-5.1449e-07
2.25389e-06
-5.38494e-08
-5.37325e-07
2.2578e-06
-5.66278e-08
-5.54556e-07
2.26417e-06
-5.74042e-08
-5.75124e-07
2.26916e-06
-5.72659e-08
-5.91017e-07
2.27519e-06
-6.0412e-07
2.2813e-06
-7.43871e-08
2.25233e-06
-5.02872e-07
7.53422e-08
-7.49664e-08
2.25881e-06
-5.20145e-07
-7.34582e-08
2.26444e-06
-5.43757e-07
-7.07716e-08
2.27172e-06
-5.60365e-07
-6.74041e-08
2.27797e-06
-5.80014e-07
-6.4503e-08
2.28476e-06
-5.94294e-07
2.29182e-06
-6.06743e-07
1.83284e-07
-2.50585e-07
2.07968e-06
2.5122e-07
-2.0369e-07
1.66144e-07
-2.46969e-07
2.08167e-06
2.4139e-07
1.48985e-07
-2.52065e-07
2.08453e-06
2.43791e-07
1.34536e-07
-2.61596e-07
2.08734e-06
2.4982e-07
1.19403e-07
-2.67924e-07
2.09058e-06
2.55372e-07
1.03844e-07
-2.68686e-07
2.0942e-06
2.55649e-07
8.83489e-08
-2.66665e-07
2.09847e-06
2.52611e-07
7.3343e-08
-2.64931e-07
2.10327e-06
2.49749e-07
5.95464e-08
-2.60542e-07
2.10836e-06
2.43785e-07
4.63425e-08
-2.56718e-07
2.1137e-06
2.39535e-07
3.40804e-08
-2.47026e-07
2.11905e-06
2.29626e-07
2.18493e-08
-2.4177e-07
2.12529e-06
2.24895e-07
1.27031e-08
-2.32599e-07
2.1309e-06
2.12945e-07
-2.2954e-07
2.13415e-06
2.12671e-07
4.3833e-10
1.82011e-07
-2.49368e-07
2.08979e-06
-2.04559e-07
1.66507e-07
-2.53135e-07
2.09163e-06
1.52077e-07
-2.61845e-07
2.0947e-06
1.37701e-07
-2.72205e-07
2.09703e-06
1.21998e-07
-2.78434e-07
2.09997e-06
1.06983e-07
-2.80468e-07
2.1033e-06
9.20603e-08
-2.79738e-07
2.10752e-06
7.71619e-08
-2.79045e-07
2.11227e-06
6.30191e-08
-2.76275e-07
2.11745e-06
4.99662e-08
-2.73717e-07
2.12277e-06
3.95144e-08
-2.66253e-07
2.12823e-06
2.92344e-08
-2.60714e-07
2.13421e-06
2.07121e-08
-2.53208e-07
2.1397e-06
-2.47942e-07
2.1427e-06
9.23863e-09
1.66694e-07
-2.53497e-07
2.10045e-06
-1.8381e-07
1.53814e-07
-2.6163e-07
2.10208e-06
1.42008e-07
-2.73634e-07
2.10518e-06
1.30122e-07
-2.84257e-07
2.1071e-06
1.17437e-07
-2.90697e-07
2.10996e-06
1.05383e-07
-2.93829e-07
2.11314e-06
9.34803e-08
-2.94443e-07
2.11734e-06
8.14776e-08
-2.94574e-07
2.12197e-06
6.97304e-08
-2.9292e-07
2.12714e-06
5.82515e-08
-2.90856e-07
2.13248e-06
4.88437e-08
-2.85253e-07
2.13831e-06
3.97363e-08
-2.79763e-07
2.14439e-06
3.17031e-08
-2.73487e-07
2.15027e-06
-2.67291e-07
2.15368e-06
2.18688e-08
1.55344e-07
-2.59138e-07
2.11205e-06
-1.69494e-07
1.45068e-07
-2.71569e-07
2.11304e-06
1.35201e-07
-2.85914e-07
2.11595e-06
1.25184e-07
-2.96528e-07
2.11752e-06
1.14457e-07
-3.03175e-07
2.1203e-06
1.04095e-07
-3.07097e-07
2.1234e-06
9.3872e-08
-3.09008e-07
2.12764e-06
8.35758e-08
-3.09996e-07
2.13224e-06
7.34501e-08
-3.09455e-07
2.13745e-06
6.34175e-08
-3.07923e-07
2.14283e-06
5.46091e-08
-3.03596e-07
2.14882e-06
4.55292e-08
-2.97825e-07
2.15499e-06
3.71408e-08
-2.92471e-07
2.16126e-06
-2.8585e-07
2.16553e-06
2.74567e-08
1.45451e-07
-2.6722e-07
2.12276e-06
-1.55467e-07
1.36903e-07
-2.81737e-07
2.12343e-06
1.26861e-07
-2.96508e-07
2.12637e-06
1.18106e-07
-3.08451e-07
2.12797e-06
1.0939e-07
-3.15776e-07
2.13089e-06
1.00933e-07
-3.20338e-07
2.1341e-06
9.24706e-08
-3.2323e-07
2.13838e-06
8.38414e-08
-3.24817e-07
2.14295e-06
7.52062e-08
-3.25102e-07
2.1481e-06
6.65178e-08
-3.2401e-07
2.15338e-06
5.8919e-08
-3.20904e-07
2.15923e-06
5.10591e-08
-3.14937e-07
2.16523e-06
4.40217e-08
-3.10611e-07
2.17167e-06
-3.02601e-07
2.17646e-06
3.45487e-08
1.35106e-07
-2.77484e-07
2.13298e-06
-1.41517e-07
1.30108e-07
-2.93784e-07
2.13366e-06
1.22341e-07
-3.07158e-07
2.1368e-06
1.14401e-07
-3.18907e-07
2.1387e-06
1.06555e-07
-3.26912e-07
2.14178e-06
9.88591e-08
-3.3211e-07
2.14519e-06
9.11805e-08
-3.3592e-07
2.14952e-06
8.32779e-08
-3.38025e-07
2.15415e-06
7.51636e-08
-3.389e-07
2.15928e-06
6.67414e-08
-3.38082e-07
2.16451e-06
5.94672e-08
-3.36448e-07
2.17018e-06
5.2798e-08
-3.31345e-07
2.17597e-06
4.80745e-08
-3.29227e-07
2.18225e-06
-3.1823e-07
2.18714e-06
3.94267e-08
1.2337e-07
-2.89146e-07
2.14257e-06
-1.27097e-07
1.20105e-07
-3.06122e-07
2.14398e-06
1.13937e-07
-3.17082e-07
2.14715e-06
1.07352e-07
-3.28366e-07
2.14953e-06
1.00943e-07
-3.37005e-07
2.15286e-06
9.48579e-08
-3.43058e-07
2.15656e-06
8.86614e-08
-3.47576e-07
2.16098e-06
8.21159e-08
-3.50031e-07
2.1657e-06
7.50645e-08
-3.51129e-07
2.17079e-06
6.73793e-08
-3.50264e-07
2.17599e-06
6.02807e-08
-3.49691e-07
2.18148e-06
5.39761e-08
-3.45876e-07
2.18719e-06
4.9611e-08
-3.46111e-07
2.19306e-06
-3.33004e-07
2.1981e-06
4.21187e-08
1.12078e-07
-3.00944e-07
2.152e-06
-1.14069e-07
1.09718e-07
-3.17752e-07
2.15466e-06
1.05446e-07
-3.26621e-07
2.15771e-06
1.00625e-07
-3.37324e-07
2.1607e-06
9.59493e-08
-3.46311e-07
2.16421e-06
9.14914e-08
-3.53075e-07
2.16825e-06
8.68126e-08
-3.58117e-07
2.17276e-06
8.17076e-08
-3.60895e-07
2.17766e-06
7.58788e-08
-3.62078e-07
2.18277e-06
6.93396e-08
-3.61152e-07
2.18803e-06
6.31528e-08
-3.6155e-07
2.19344e-06
5.7922e-08
-3.59267e-07
2.19922e-06
5.18737e-08
-3.59244e-07
2.20462e-06
-3.46974e-07
2.2101e-06
4.55324e-08
9.61171e-08
-3.11756e-07
2.16147e-06
-9.71446e-08
9.41543e-08
-3.27969e-07
2.16535e-06
9.24194e-08
-3.36541e-07
2.16838e-06
9.03128e-08
-3.46709e-07
2.17209e-06
8.83203e-08
-3.55797e-07
2.17582e-06
8.63415e-08
-3.6298e-07
2.18023e-06
8.39475e-08
-3.68306e-07
2.18488e-06
8.09191e-08
-3.71284e-07
2.18997e-06
7.68926e-08
-3.72451e-07
2.19508e-06
7.22279e-08
-3.71631e-07
2.20039e-06
6.77247e-08
-3.72891e-07
2.20571e-06
6.33553e-08
-3.71296e-07
2.21178e-06
5.68485e-08
-3.6979e-07
2.21716e-06
-3.59058e-07
2.22298e-06
5.05737e-08
8.22746e-08
-3.21521e-07
2.17151e-06
-8.21928e-08
8.11055e-08
-3.36819e-07
2.1762e-06
8.13353e-08
-3.46152e-07
2.17928e-06
8.11845e-08
-3.55751e-07
2.18368e-06
8.13803e-08
-3.65138e-07
2.1876e-06
8.14236e-08
-3.72561e-07
2.19237e-06
8.09167e-08
-3.78034e-07
2.1972e-06
7.96232e-08
-3.81088e-07
2.2025e-06
7.72271e-08
-3.82227e-07
2.20761e-06
7.43076e-08
-3.81617e-07
2.21298e-06
7.11179e-08
-3.83279e-07
2.21821e-06
6.73488e-08
-3.81547e-07
2.22467e-06
6.13554e-08
-3.78524e-07
2.23039e-06
-3.69077e-07
2.23641e-06
5.51716e-08
6.68523e-08
-3.31358e-07
2.18215e-06
-6.44914e-08
6.71343e-08
-3.4476e-07
2.18745e-06
6.94249e-08
-3.5536e-07
2.19062e-06
7.15323e-08
-3.64485e-07
2.19554e-06
7.43214e-08
-3.74668e-07
2.19969e-06
7.67807e-08
-3.82265e-07
2.20476e-06
7.85157e-08
-3.87848e-07
2.20978e-06
7.92297e-08
-3.90832e-07
2.21523e-06
7.86274e-08
-3.91814e-07
2.22036e-06
7.74173e-08
-3.9135e-07
2.22577e-06
7.49355e-08
-3.92406e-07
2.23099e-06
7.20229e-08
-3.90697e-07
2.23801e-06
6.76819e-08
-3.87072e-07
2.24439e-06
-3.79093e-07
2.25109e-06
6.32467e-08
5.60586e-08
-3.42568e-07
2.19296e-06
-5.05384e-08
5.89844e-08
-3.53077e-07
2.19872e-06
6.35207e-08
-3.64505e-07
2.20214e-06
6.70138e-08
-3.72165e-07
2.20748e-06
7.08308e-08
-3.83005e-07
2.21193e-06
7.39918e-08
-3.9062e-07
2.21724e-06
7.62851e-08
-3.96326e-07
2.22248e-06
7.73507e-08
-3.99038e-07
2.22806e-06
7.70237e-08
-3.99669e-07
2.23327e-06
7.61271e-08
-3.99185e-07
2.2387e-06
7.32492e-08
-3.98784e-07
2.24403e-06
7.03876e-08
-3.9757e-07
2.25151e-06
6.69067e-08
-3.94466e-07
2.25867e-06
-3.90283e-07
2.2664e-06
6.50109e-08
4.19117e-08
-3.56761e-07
2.203e-06
-3.23442e-08
4.6188e-08
-3.61158e-07
2.20939e-06
5.28164e-08
-3.74084e-07
2.21369e-06
5.78193e-08
-3.79324e-07
2.21948e-06
6.34625e-08
-3.91069e-07
2.22429e-06
6.84475e-08
-3.9867e-07
2.22973e-06
7.23591e-08
-4.04414e-07
2.23521e-06
7.46457e-08
-4.06665e-07
2.24088e-06
7.55235e-08
-4.07135e-07
2.24625e-06
7.61403e-08
-4.07132e-07
2.25173e-06
7.40108e-08
-4.0473e-07
2.25729e-06
7.31127e-08
-4.05524e-07
2.26503e-06
7.23981e-08
-4.04161e-07
2.27227e-06
-4.06234e-07
2.28024e-06
7.51883e-08
2.59629e-08
2.21115e-06
-3.74781e-07
-1.15586e-08
3.4796e-08
2.21722e-06
-3.71709e-07
4.465e-08
2.22365e-06
-3.85606e-07
5.32695e-08
2.23008e-06
-3.88858e-07
6.05666e-08
2.236e-06
-3.99603e-07
6.57599e-08
2.24195e-06
-4.05648e-07
6.95621e-08
2.24798e-06
-4.10857e-07
7.23292e-08
2.25392e-06
-4.13032e-07
7.46275e-08
2.25965e-06
-4.14119e-07
7.62041e-08
2.26532e-06
-4.14245e-07
7.35357e-08
2.27113e-06
-4.08463e-07
6.92563e-08
2.27829e-06
-4.09234e-07
6.12541e-08
2.28415e-06
-4.06639e-07
2.28855e-06
5.73115e-08
-4.16493e-07
2.01956e-07
-6.36924e-08
2.05302e-06
6.60749e-08
-2.08779e-07
1.99543e-07
-6.21259e-08
2.05379e-06
5.83721e-08
1.98362e-07
-7.42286e-08
2.05407e-06
6.84318e-08
1.95171e-07
-8.49893e-08
2.0547e-06
7.96827e-08
1.90846e-07
-9.08385e-08
2.05559e-06
8.57364e-08
1.8523e-07
-9.41023e-08
2.05684e-06
8.9124e-08
1.78109e-07
-9.50116e-08
2.05879e-06
8.98906e-08
1.69977e-07
-9.63726e-08
2.061e-06
9.08062e-08
1.60844e-07
-9.56771e-08
2.06387e-06
8.91599e-08
1.509e-07
-9.46888e-08
2.06657e-06
8.77934e-08
1.40545e-07
-8.7757e-08
2.06954e-06
8.03127e-08
1.28041e-07
-8.31537e-08
2.07329e-06
7.71755e-08
1.1723e-07
-7.58918e-08
2.0772e-06
6.74918e-08
-7.3757e-08
2.07966e-06
6.72975e-08
1.03309e-07
1.99753e-07
-6.2407e-08
2.06302e-06
-2.0675e-07
1.99317e-07
-6.78525e-08
2.06326e-06
1.99076e-07
-8.05948e-08
2.0639e-06
1.96478e-07
-8.96908e-08
2.06426e-06
1.92626e-07
-9.5258e-08
2.06503e-06
1.87692e-07
-9.86796e-08
2.06609e-06
1.81374e-07
-9.98848e-08
2.06809e-06
1.7379e-07
-1.01312e-07
2.0703e-06
1.64825e-07
-1.01037e-07
2.07333e-06
1.5495e-07
-1.00623e-07
2.07625e-06
1.45479e-07
-9.57956e-08
2.07964e-06
1.34947e-07
-9.13876e-08
2.08332e-06
1.2499e-07
-8.57891e-08
2.08717e-06
-8.17851e-08
2.08953e-06
1.11661e-07
1.84703e-07
-6.67979e-08
2.07266e-06
-1.8654e-07
1.87557e-07
-7.65298e-08
2.07264e-06
1.89094e-07
-8.79548e-08
2.07349e-06
1.88264e-07
-9.52124e-08
2.07372e-06
1.86419e-07
-1.00629e-07
2.07461e-06
1.83558e-07
-1.04157e-07
2.07575e-06
1.79632e-07
-1.05865e-07
2.07793e-06
1.74622e-07
-1.0737e-07
2.08016e-06
1.68477e-07
-1.07501e-07
2.08318e-06
1.61156e-07
-1.07311e-07
2.0861e-06
1.5339e-07
-1.03643e-07
2.08958e-06
1.44324e-07
-9.94458e-08
2.09334e-06
1.34752e-07
-9.47576e-08
2.09751e-06
-8.95716e-08
2.10001e-06
1.22853e-07
1.75968e-07
-7.3663e-08
2.08261e-06
-1.74624e-07
1.79977e-07
-8.55903e-08
2.08244e-06
1.82511e-07
-9.54225e-08
2.08353e-06
1.83271e-07
-1.01376e-07
2.08367e-06
1.832e-07
-1.0668e-07
2.0847e-06
1.81964e-07
-1.09992e-07
2.08591e-06
1.79555e-07
-1.12035e-07
2.08827e-06
1.75883e-07
-1.13474e-07
2.09057e-06
1.70909e-07
-1.13794e-07
2.09363e-06
1.64633e-07
-1.13641e-07
2.09658e-06
1.57666e-07
-1.10742e-07
2.10014e-06
1.49072e-07
-1.06386e-07
2.104e-06
1.39607e-07
-1.02113e-07
2.10838e-06
-9.62988e-08
2.11107e-06
1.28294e-07
1.69095e-07
-8.1294e-08
2.09175e-06
-1.65678e-07
1.73147e-07
-9.38122e-08
2.09162e-06
1.75744e-07
-1.01991e-07
2.0932e-06
1.77822e-07
-1.07868e-07
2.09359e-06
1.78958e-07
-1.12922e-07
2.09499e-06
1.78886e-07
-1.15895e-07
2.09646e-06
1.77598e-07
-1.18111e-07
2.09896e-06
1.7511e-07
-1.19518e-07
2.10133e-06
1.71347e-07
-1.19959e-07
2.10433e-06
1.66363e-07
-1.19809e-07
2.10715e-06
1.60707e-07
-1.17465e-07
2.11048e-06
1.53696e-07
-1.13094e-07
2.11407e-06
1.45928e-07
-1.09347e-07
2.11834e-06
-1.0273e-07
2.12123e-06
1.35591e-07
1.64843e-07
-9.11511e-08
2.10082e-06
-1.58403e-07
1.69929e-07
-1.02607e-07
2.10119e-06
1.73095e-07
-1.08391e-07
2.10309e-06
1.75756e-07
-1.14123e-07
2.10382e-06
1.77393e-07
-1.1885e-07
2.10554e-06
1.77823e-07
-1.21487e-07
2.10729e-06
1.77e-07
-1.23708e-07
2.1099e-06
1.74916e-07
-1.24946e-07
2.11246e-06
1.71356e-07
-1.25246e-07
2.11551e-06
1.66358e-07
-1.24934e-07
2.11836e-06
1.60722e-07
-1.2328e-07
2.12153e-06
1.54646e-07
-1.19935e-07
2.12493e-06
1.49205e-07
-1.18168e-07
2.12895e-06
-1.09561e-07
2.13203e-06
1.39821e-07
1.59414e-07
-1.0277e-07
2.1098e-06
-1.51099e-07
1.65403e-07
-1.11938e-07
2.11102e-06
1.695e-07
-1.15201e-07
2.11312e-06
1.72682e-07
-1.20393e-07
2.11435e-06
1.74687e-07
-1.24729e-07
2.11637e-06
1.75667e-07
-1.27254e-07
2.11848e-06
1.75467e-07
-1.29322e-07
2.12117e-06
1.74081e-07
-1.30272e-07
2.12391e-06
1.71126e-07
-1.30211e-07
2.12694e-06
1.66505e-07
-1.29595e-07
2.12981e-06
1.60877e-07
-1.28474e-07
2.13284e-06
1.55085e-07
-1.26477e-07
2.13613e-06
1.50016e-07
-1.26904e-07
2.13979e-06
-1.16992e-07
2.1431e-06
1.41653e-07
1.54617e-07
-1.15129e-07
2.11898e-06
-1.45896e-07
1.61222e-07
-1.21797e-07
2.12138e-06
1.66479e-07
-1.23066e-07
2.12348e-06
1.70403e-07
-1.27215e-07
2.12525e-06
1.73026e-07
-1.31002e-07
2.12742e-06
1.74704e-07
-1.33489e-07
2.12988e-06
1.75289e-07
-1.35306e-07
2.13264e-06
1.74726e-07
-1.35956e-07
2.13562e-06
1.72509e-07
-1.3546e-07
2.13868e-06
1.68475e-07
-1.34477e-07
2.14165e-06
1.63447e-07
-1.34044e-07
2.14464e-06
1.58483e-07
-1.33535e-07
2.14797e-06
1.52171e-07
-1.34333e-07
2.15129e-06
-1.24865e-07
2.1549e-06
1.44432e-07
1.46803e-07
-1.27564e-07
2.12841e-06
-1.37958e-07
1.53898e-07
-1.31942e-07
2.13189e-06
1.60648e-07
-1.32475e-07
2.13405e-06
1.66021e-07
-1.35437e-07
2.13646e-06
1.70106e-07
-1.38569e-07
2.13878e-06
1.73083e-07
-1.40796e-07
2.14158e-06
1.74875e-07
-1.42223e-07
2.14443e-06
1.75328e-07
-1.42512e-07
2.1476e-06
1.74004e-07
-1.41584e-07
2.1506e-06
1.70942e-07
-1.40291e-07
2.15357e-06
1.66972e-07
-1.40601e-07
2.1565e-06
1.62515e-07
-1.4078e-07
2.15998e-06
1.55433e-07
-1.40704e-07
2.16326e-06
-1.32425e-07
2.16717e-06
1.47701e-07
1.42718e-07
-1.39714e-07
2.13823e-06
-1.33608e-07
1.49837e-07
-1.41846e-07
2.14257e-06
1.57016e-07
-1.42526e-07
2.14483e-06
1.62755e-07
-1.44269e-07
2.14785e-06
1.67667e-07
-1.47128e-07
2.1503e-06
1.71599e-07
-1.49117e-07
2.15338e-06
1.74389e-07
-1.50189e-07
2.15632e-06
1.75705e-07
-1.50093e-07
2.15964e-06
1.75265e-07
-1.48838e-07
2.16259e-06
1.73223e-07
-1.47302e-07
2.1655e-06
1.70115e-07
-1.48143e-07
2.16832e-06
1.65855e-07
-1.48082e-07
2.17201e-06
1.58632e-07
-1.46681e-07
2.1755e-06
-1.39434e-07
2.17966e-06
1.50617e-07
1.37329e-07
-1.52061e-07
2.14875e-06
-1.2729e-07
1.44864e-07
-1.51556e-07
2.15358e-06
1.5319e-07
-1.53442e-07
2.1559e-06
1.60286e-07
-1.54243e-07
2.15933e-06
1.66769e-07
-1.57169e-07
2.16199e-06
1.71985e-07
-1.58751e-07
2.16531e-06
1.75825e-07
-1.59414e-07
2.16839e-06
1.77895e-07
-1.58784e-07
2.17182e-06
1.78087e-07
-1.57175e-07
2.17474e-06
1.76611e-07
-1.55347e-07
2.17755e-06
1.73158e-07
-1.55842e-07
2.1803e-06
1.6833e-07
-1.55202e-07
2.18439e-06
1.61683e-07
-1.53349e-07
2.18834e-06
-1.47372e-07
2.19309e-06
1.54843e-07
1.38213e-07
-1.65898e-07
2.15984e-06
-1.2622e-07
1.47304e-07
-1.6246e-07
2.16482e-06
1.5605e-07
-1.64595e-07
2.16729e-06
1.62523e-07
-1.63635e-07
2.17101e-06
1.68224e-07
-1.66727e-07
2.17394e-06
1.72813e-07
-1.68216e-07
2.1774e-06
1.76224e-07
-1.68788e-07
2.18062e-06
1.77811e-07
-1.67564e-07
2.18408e-06
1.77533e-07
-1.65526e-07
2.18698e-06
1.75727e-07
-1.63412e-07
2.18967e-06
1.71433e-07
-1.62927e-07
2.19235e-06
1.66404e-07
-1.62188e-07
2.19673e-06
1.60389e-07
-1.60413e-07
2.20124e-06
-1.57179e-07
2.20703e-06
1.55783e-07
1.35142e-07
-1.82123e-07
2.17096e-06
-1.20147e-07
1.4452e-07
-1.73344e-07
2.17589e-06
1.53982e-07
-1.76335e-07
2.17911e-06
1.61225e-07
-1.73444e-07
2.18279e-06
1.68372e-07
-1.77535e-07
2.18594e-06
1.74076e-07
-1.78848e-07
2.18945e-06
1.77859e-07
-1.78917e-07
2.19284e-06
1.79273e-07
-1.76845e-07
2.19633e-06
1.78801e-07
-1.74546e-07
2.19936e-06
1.77158e-07
-1.72616e-07
2.20209e-06
1.72406e-07
-1.70525e-07
2.20492e-06
1.67858e-07
-1.70905e-07
2.20966e-06
1.63843e-07
-1.70983e-07
2.21454e-06
-1.73583e-07
2.22083e-06
1.64141e-07
1.35185e-07
2.18014e-06
-2.00851e-07
-1.16791e-07
1.44765e-07
2.18456e-06
-1.84344e-07
1.55326e-07
2.18994e-06
-1.89544e-07
1.6332e-07
2.19401e-06
-1.84652e-07
1.69704e-07
2.19787e-06
-1.88165e-07
1.73891e-07
2.20156e-06
-1.88497e-07
1.76285e-07
2.20519e-06
-1.88117e-07
1.77066e-07
2.20868e-06
-1.85891e-07
1.76729e-07
2.21185e-06
-1.83963e-07
1.75142e-07
2.21468e-06
-1.81943e-07
1.69265e-07
2.21761e-06
-1.76696e-07
1.61584e-07
2.22209e-06
-1.76398e-07
1.50503e-07
2.22664e-06
-1.75649e-07
2.23045e-06
1.44905e-07
-1.86828e-07
1.95798e-07
1.06261e-07
2.05146e-06
-1.00168e-07
-1.93003e-07
2.06387e-07
1.0537e-07
2.0508e-06
-1.06512e-07
2.13974e-07
9.55544e-08
2.04989e-06
-9.47718e-08
2.19397e-07
8.82657e-08
2.0493e-06
-8.63647e-08
2.23494e-07
8.45026e-08
2.04862e-06
-8.24161e-08
2.25567e-07
8.14459e-08
2.04813e-06
-7.92665e-08
2.25556e-07
7.9765e-08
2.0481e-06
-7.73731e-08
2.23993e-07
7.70618e-08
2.0475e-06
-7.46267e-08
2.21164e-07
7.58808e-08
2.04779e-06
-7.36432e-08
2.17274e-07
7.43037e-08
2.04743e-06
-7.21632e-08
2.1188e-07
7.68479e-08
2.04747e-06
-7.4817e-08
2.04013e-07
7.91048e-08
2.04766e-06
-7.55702e-08
1.95773e-07
8.18627e-08
2.04911e-06
-7.93307e-08
7.92895e-08
2.04967e-06
-7.40119e-08
1.81821e-07
1.95153e-07
1.07265e-07
2.06028e-06
-1.8943e-07
2.06674e-07
1.01823e-07
2.05962e-06
2.1478e-07
9.46895e-08
2.05877e-06
2.20795e-07
8.88996e-08
2.05776e-06
2.25598e-07
8.55499e-08
2.05663e-06
2.28384e-07
8.30402e-08
2.05552e-06
2.29199e-07
8.19686e-08
2.05525e-06
2.27958e-07
7.99568e-08
2.05484e-06
2.24806e-07
7.91646e-08
2.05537e-06
2.19944e-07
7.79304e-08
2.0554e-06
2.1392e-07
7.98442e-08
2.05604e-06
2.06861e-07
8.16141e-08
2.05679e-06
1.98996e-07
8.39589e-08
2.05803e-06
8.4124e-08
2.05848e-06
1.85701e-07
1.85951e-07
1.03284e-07
2.06772e-06
-1.75757e-07
1.98473e-07
9.63293e-08
2.06683e-06
2.07519e-07
9.28059e-08
2.06602e-06
2.14405e-07
8.87006e-08
2.06475e-06
2.20161e-07
8.57842e-08
2.06378e-06
2.24169e-07
8.38248e-08
2.06286e-06
2.26515e-07
8.30128e-08
2.06293e-06
2.26953e-07
8.15738e-08
2.06269e-06
2.25773e-07
8.09046e-08
2.06336e-06
2.22864e-07
7.99e-08
2.06359e-06
2.18423e-07
8.16302e-08
2.06433e-06
2.12259e-07
8.36273e-08
2.06517e-06
2.0513e-07
8.63094e-08
2.06633e-06
8.76722e-08
2.06702e-06
1.93818e-07
1.82431e-07
9.81071e-08
2.07498e-06
-1.71351e-07
1.94111e-07
9.10136e-08
2.07408e-06
2.03806e-07
9.01231e-08
2.07359e-06
2.11742e-07
8.72663e-08
2.07234e-06
2.18439e-07
8.48205e-08
2.07163e-06
2.23455e-07
8.35837e-08
2.07081e-06
2.26803e-07
8.30663e-08
2.07107e-06
2.28029e-07
8.2334e-08
2.07097e-06
2.27278e-07
8.21684e-08
2.07171e-06
2.24614e-07
8.17131e-08
2.07198e-06
2.20455e-07
8.34767e-08
2.07275e-06
2.14516e-07
8.58382e-08
2.07365e-06
2.07459e-07
8.89584e-08
2.07482e-06
9.12133e-08
2.07574e-06
1.96241e-07
1.81209e-07
9.18556e-08
2.08146e-06
-1.69252e-07
1.91915e-07
8.6197e-08
2.08073e-06
2.0152e-07
8.68223e-08
2.08093e-06
2.09646e-07
8.49404e-08
2.08005e-06
2.16524e-07
8.32081e-08
2.07977e-06
2.21822e-07
8.2673e-08
2.07923e-06
2.25497e-07
8.2475e-08
2.07961e-06
2.27227e-07
8.22477e-08
2.07956e-06
2.27004e-07
8.25718e-08
2.08021e-06
2.25117e-07
8.25371e-08
2.08042e-06
2.21968e-07
8.42494e-08
2.08101e-06
2.17256e-07
8.66356e-08
2.08169e-06
2.1158e-07
8.95653e-08
2.08274e-06
9.355e-08
2.08377e-06
2.01582e-07
1.81872e-07
8.37864e-08
2.08836e-06
-1.68812e-07
1.92544e-07
8.04505e-08
2.0881e-06
2.0222e-07
8.24091e-08
2.08862e-06
2.10479e-07
8.15647e-08
2.088e-06
2.17316e-07
8.08318e-08
2.08802e-06
2.22616e-07
8.10508e-08
2.08779e-06
2.26289e-07
8.1289e-08
2.08826e-06
2.27999e-07
8.15609e-08
2.08843e-06
2.27497e-07
8.2467e-08
2.08912e-06
2.25062e-07
8.29442e-08
2.08941e-06
2.21273e-07
8.46029e-08
2.08994e-06
2.16589e-07
8.64125e-08
2.09048e-06
2.12148e-07
8.77072e-08
2.09145e-06
9.31967e-08
2.0925e-06
2.03648e-07
1.83594e-07
7.40159e-08
2.09549e-06
-1.69952e-07
1.93899e-07
7.39763e-08
2.09598e-06
2.03219e-07
7.70931e-08
2.09668e-06
2.11042e-07
7.72688e-08
2.0964e-06
2.17518e-07
7.74314e-08
2.09663e-06
2.22691e-07
7.8298e-08
2.09673e-06
2.26321e-07
7.91445e-08
2.09721e-06
2.28074e-07
7.99783e-08
2.09754e-06
2.27543e-07
8.14442e-08
2.09817e-06
2.24899e-07
8.23147e-08
2.09852e-06
2.20881e-07
8.37636e-08
2.09895e-06
2.16486e-07
8.46086e-08
2.09944e-06
2.12109e-07
8.41721e-08
2.1004e-06
9.06662e-08
2.10137e-06
2.04414e-07
1.85657e-07
6.33629e-08
2.103e-06
-1.72544e-07
1.95795e-07
6.64496e-08
2.10429e-06
2.05101e-07
7.0379e-08
2.10492e-06
2.12711e-07
7.19139e-08
2.105e-06
2.1908e-07
7.28451e-08
2.10527e-06
2.24297e-07
7.41778e-08
2.10569e-06
2.28058e-07
7.56027e-08
2.10618e-06
2.29955e-07
7.69481e-08
2.10679e-06
2.29541e-07
7.89074e-08
2.10745e-06
2.26877e-07
8.01896e-08
2.10797e-06
2.23067e-07
8.12545e-08
2.10837e-06
2.19315e-07
8.08409e-08
2.10886e-06
2.14229e-07
7.96415e-08
2.10981e-06
8.66518e-08
2.1106e-06
2.06648e-07
1.85274e-07
5.18392e-08
2.11081e-06
-1.72574e-07
1.95434e-07
5.76931e-08
2.11283e-06
2.05084e-07
6.19189e-08
2.11345e-06
2.13238e-07
6.47457e-08
2.11396e-06
2.20185e-07
6.64074e-08
2.11427e-06
2.25804e-07
6.83068e-08
2.11496e-06
2.29802e-07
7.03094e-08
2.11545e-06
2.317e-07
7.22077e-08
2.11625e-06
2.31312e-07
7.46952e-08
2.11685e-06
2.28916e-07
7.64735e-08
2.11738e-06
2.25754e-07
7.71769e-08
2.11768e-06
2.22576e-07
7.58147e-08
2.11813e-06
2.1653e-07
7.50239e-08
2.11915e-06
8.19009e-08
2.11989e-06
2.08742e-07
1.88087e-07
4.01133e-08
2.11871e-06
-1.75751e-07
1.97744e-07
4.85128e-08
2.12133e-06
2.06786e-07
5.28737e-08
2.12208e-06
2.14605e-07
5.66941e-08
2.12302e-06
2.21585e-07
5.86836e-08
2.12338e-06
2.27455e-07
6.08601e-08
2.12423e-06
2.31673e-07
6.32189e-08
2.12477e-06
2.33586e-07
6.56221e-08
2.12575e-06
2.33376e-07
6.85471e-08
2.12631e-06
2.31489e-07
7.07969e-08
2.12681e-06
2.29006e-07
7.12368e-08
2.127e-06
2.25949e-07
6.98648e-08
2.12736e-06
2.19185e-07
7.01983e-08
2.12845e-06
7.65945e-08
2.12941e-06
2.10853e-07
1.89423e-07
2.84577e-08
2.12745e-06
-1.77331e-07
1.99447e-07
3.8622e-08
2.13008e-06
2.09087e-07
4.24533e-08
2.13095e-06
2.17578e-07
4.70239e-08
2.1322e-06
2.25166e-07
4.92393e-08
2.1327e-06
2.31307e-07
5.18332e-08
2.13369e-06
2.35554e-07
5.45245e-08
2.13434e-06
2.37245e-07
5.75542e-08
2.13545e-06
2.36868e-07
6.09514e-08
2.13596e-06
2.3481e-07
6.38004e-08
2.13632e-06
2.31506e-07
6.45444e-08
2.1364e-06
2.27159e-07
6.43863e-08
2.13674e-06
2.20034e-07
6.50942e-08
2.13806e-06
7.0289e-08
2.13956e-06
2.11979e-07
1.97509e-07
1.52007e-08
2.13695e-06
-1.84188e-07
2.08542e-07
2.71116e-08
2.13928e-06
2.17216e-07
3.19044e-08
2.14033e-06
2.23872e-07
3.78399e-08
2.14176e-06
2.2975e-07
3.99779e-08
2.14241e-06
2.34642e-07
4.24697e-08
2.1434e-06
2.37998e-07
4.5129e-08
2.14414e-06
2.38833e-07
4.8836e-08
2.14524e-06
2.37724e-07
5.26527e-08
2.14571e-06
2.35017e-07
5.59469e-08
2.1459e-06
2.30529e-07
5.72335e-08
2.14587e-06
2.25583e-07
5.80325e-08
2.14634e-06
2.18681e-07
5.87064e-08
2.14809e-06
6.15828e-08
2.15038e-06
2.12505e-07
2.0107e-07
5.37161e-10
2.14722e-06
-1.86898e-07
2.11867e-07
1.52484e-08
2.14913e-06
2.21134e-07
2.02414e-08
2.15037e-06
2.28468e-07
2.73358e-08
2.15148e-06
2.35102e-07
2.89942e-08
2.15221e-06
2.40076e-07
3.17231e-08
2.15322e-06
2.42649e-07
3.50185e-08
2.15408e-06
2.42402e-07
3.96044e-08
2.15516e-06
2.4032e-07
4.3581e-08
2.15574e-06
2.36956e-07
4.68882e-08
2.15592e-06
2.31451e-07
4.89572e-08
2.15602e-06
2.26048e-07
4.98052e-08
2.15693e-06
2.20229e-07
4.9027e-08
2.15916e-06
4.59856e-08
2.16223e-06
2.18969e-07
2.13764e-07
2.15509e-06
-1.47745e-08
-1.99219e-07
2.20182e-07
2.15754e-06
5.58748e-09
2.27735e-07
2.16034e-06
8.82787e-09
2.33754e-07
2.1615e-06
1.64212e-08
2.38409e-07
2.16244e-06
1.8291e-08
2.41078e-07
2.16336e-06
2.15442e-08
2.41702e-07
2.16419e-06
2.5263e-08
2.40572e-07
2.165e-06
2.98918e-08
2.38447e-07
2.16561e-06
3.3294e-08
2.35188e-07
2.16581e-06
3.65834e-08
2.286e-07
2.16597e-06
4.08185e-08
2.2058e-07
2.16701e-06
4.25454e-08
2.09586e-07
2.16938e-06
4.2994e-08
2.17179e-06
2.05356e-07
3.07153e-08
1.75593e-07
2.35449e-07
2.05885e-06
-2.31039e-07
-1.64213e-07
1.89135e-07
2.33824e-07
2.05817e-06
-2.31812e-07
1.99643e-07
2.30508e-07
2.05683e-06
-2.2562e-07
2.08483e-07
2.26674e-07
2.05557e-06
-2.20649e-07
2.16646e-07
2.25624e-07
2.05393e-06
-2.1955e-07
2.2344e-07
2.24634e-07
2.05229e-06
-2.18122e-07
2.284e-07
2.24247e-07
2.05093e-06
-2.16863e-07
2.31849e-07
2.22228e-07
2.04896e-06
-2.144e-07
2.34008e-07
2.20658e-07
2.04786e-06
-2.1304e-07
2.34844e-07
2.17892e-07
2.04564e-06
-2.10438e-07
2.34424e-07
2.18339e-07
2.04394e-06
-2.11066e-07
2.32485e-07
2.19021e-07
2.04182e-06
-2.11264e-07
2.28837e-07
2.20444e-07
2.04113e-06
-2.12386e-07
2.14884e-07
2.04116e-06
-2.01684e-07
2.17432e-07
1.7638e-07
2.37331e-07
2.06656e-06
-1.64324e-07
1.91146e-07
2.33113e-07
2.06559e-06
2.02653e-07
2.33078e-07
2.06404e-06
2.12239e-07
2.30859e-07
2.062e-06
2.20702e-07
2.30367e-07
2.05984e-06
2.27656e-07
2.30194e-07
2.05746e-06
2.33019e-07
2.30644e-07
2.05583e-06
2.36718e-07
2.29407e-07
2.05381e-06
2.38521e-07
2.28415e-07
2.0527e-06
2.37641e-07
2.2652e-07
2.05082e-06
2.34889e-07
2.27284e-07
2.0496e-06
2.31934e-07
2.27231e-07
2.04818e-06
2.27916e-07
2.27886e-07
2.0474e-06
2.26995e-07
2.04713e-06
2.16435e-07
1.72718e-07
2.34228e-07
2.07214e-06
-1.57483e-07
1.87473e-07
2.31347e-07
2.07053e-06
1.9913e-07
2.34288e-07
2.06904e-06
2.0888e-07
2.33592e-07
2.0667e-06
2.17431e-07
2.33725e-07
2.06462e-06
2.24621e-07
2.34247e-07
2.06237e-06
2.30623e-07
2.35217e-07
2.06103e-06
2.35058e-07
2.34813e-07
2.05914e-06
2.37958e-07
2.34263e-07
2.05812e-06
2.3843e-07
2.32771e-07
2.05644e-06
2.36887e-07
2.33569e-07
2.05535e-06
2.34011e-07
2.33868e-07
2.05417e-06
2.29507e-07
2.34576e-07
2.05309e-06
2.35342e-07
2.05312e-06
2.20435e-07
1.73615e-07
2.29928e-07
2.07682e-06
-1.58391e-07
1.87152e-07
2.29527e-07
2.07512e-06
1.98777e-07
2.3416e-07
2.07396e-06
2.08887e-07
2.34604e-07
2.07156e-06
2.17806e-07
2.35343e-07
2.06971e-06
2.2525e-07
2.3666e-07
2.06751e-06
2.31478e-07
2.38098e-07
2.06632e-06
2.36089e-07
2.3853e-07
2.06454e-06
2.38973e-07
2.38782e-07
2.06352e-06
2.39489e-07
2.37933e-07
2.06178e-06
2.37617e-07
2.3896e-07
2.06055e-06
2.33793e-07
2.39952e-07
2.05932e-06
2.28262e-07
2.41343e-07
2.05818e-06
2.43032e-07
2.05816e-06
2.19632e-07
1.77208e-07
2.24948e-07
2.08059e-06
-1.62526e-07
1.89244e-07
2.27453e-07
2.07921e-06
2.00285e-07
2.32736e-07
2.07866e-06
2.10051e-07
2.34166e-07
2.07658e-06
2.1856e-07
2.35691e-07
2.07509e-06
2.25643e-07
2.37794e-07
2.07309e-06
2.31404e-07
2.39794e-07
2.07189e-06
2.35628e-07
2.4094e-07
2.07007e-06
2.38211e-07
2.4207e-07
2.06886e-06
2.39061e-07
2.41862e-07
2.067e-06
2.37742e-07
2.43159e-07
2.06553e-06
2.34316e-07
2.44433e-07
2.06405e-06
2.29479e-07
2.45991e-07
2.06281e-06
2.48702e-07
2.06265e-06
2.22418e-07
1.82113e-07
2.18951e-07
2.08498e-06
-1.67805e-07
1.93679e-07
2.24165e-07