/*--------------------------------*- C++ -*----------------------------------*\
| =========                 |                                                 |
| \\      /  F ield         | OpenFOAM: The Open Source CFD Toolbox           |
|  \\    /   O peration     | Version:  v2106                                 |
|   \\  /    A nd           | Website:  www.openfoam.com                      |
|    \\/     M anipulation  |                                                 |
\*---------------------------------------------------------------------------*/
FoamFile
{
    version     2.0;
    format      ascii;
    arch        "LSB;label=32;scalar=64";
    class       volScalarField;
    location    "0.000185";
    object      Ttot;
}
// * * * * * * * * * * * * * * * * * * * * * * * * * * * * * * * * * * * * * //

dimensions      [0 0 0 1 0 0 0];

internalField   nonuniform List<scalar> 
17924
(
308.25
308.281
308.312
308.342
307.908
307.928
307.951
307.976
308.001
308.027
308.054
307.954
307.969
307.992
308.014
308.038
308.064
308.09
308
308.014
308.035
308.055
308.078
308.101
308.127
308.045
308.057
308.076
308.095
308.116
308.139
308.164
308.088
308.099
308.117
308.134
308.155
308.177
308.201
308.131
308.141
308.157
308.173
308.193
308.215
308.239
308.171
308.181
308.196
308.212
308.231
308.253
308.277
308.21
308.22
308.234
308.251
308.27
308.292
308.317
308.246
308.257
308.271
308.288
308.308
308.331
308.357
308.281
308.294
308.308
308.327
308.347
308.372
308.399
308.314
308.328
308.343
308.363
308.386
308.412
308.441
308.345
308.362
308.378
308.401
308.425
308.454
308.485
308.372
308.392
308.41
308.435
308.463
308.494
308.527
308.397
308.42
308.442
308.471
308.501
308.535
308.57
307.56
307.565
307.58
307.596
307.616
307.639
307.665
307.693
307.722
307.752
307.782
307.813
307.842
307.872
307.612
307.612
307.625
307.639
307.658
307.68
307.705
307.733
307.762
307.792
307.823
307.854
307.883
307.915
307.661
307.66
307.672
307.685
307.703
307.724
307.748
307.774
307.802
307.832
307.862
307.894
307.923
307.955
307.709
307.709
307.719
307.732
307.749
307.769
307.793
307.819
307.847
307.876
307.907
307.938
307.968
308
307.755
307.757
307.767
307.78
307.797
307.816
307.839
307.865
307.893
307.922
307.952
307.984
308.014
308.046
307.802
307.806
307.816
307.829
307.846
307.866
307.889
307.914
307.942
307.971
308.002
308.033
308.064
308.095
307.848
307.854
307.864
307.878
307.896
307.916
307.94
307.966
307.994
308.023
308.053
308.084
308.115
308.146
307.894
307.903
307.914
307.929
307.948
307.969
307.994
308.02
308.048
308.078
308.109
308.14
308.171
308.201
307.939
307.95
307.963
307.98
308
308.023
308.049
308.076
308.105
308.135
308.166
308.197
308.229
308.257
307.984
307.998
308.013
308.033
308.055
308.079
308.106
308.134
308.164
308.194
308.226
308.256
308.289
308.315
308.027
308.044
308.062
308.084
308.108
308.135
308.164
308.194
308.224
308.255
308.287
308.318
308.351
308.375
308.07
308.091
308.112
308.137
308.164
308.193
308.223
308.254
308.285
308.317
308.349
308.38
308.413
308.437
308.109
308.134
308.158
308.187
308.217
308.248
308.281
308.314
308.347
308.38
308.413
308.444
308.477
308.5
308.149
308.179
308.207
308.239
308.272
308.305
308.339
308.373
308.407
308.44
308.473
308.504
308.536
308.563
307.318
307.313
307.317
307.325
307.336
307.351
307.367
307.387
307.409
307.432
307.457
307.483
307.508
307.536
307.37
307.361
307.365
307.372
307.383
307.397
307.413
307.433
307.454
307.477
307.501
307.527
307.552
307.579
307.417
307.409
307.414
307.421
307.432
307.446
307.462
307.48
307.501
307.523
307.546
307.571
307.595
307.623
307.465
307.46
307.465
307.473
307.483
307.497
307.513
307.531
307.552
307.573
307.596
307.621
307.645
307.671
307.512
307.511
307.516
307.525
307.536
307.55
307.567
307.585
307.605
307.626
307.649
307.673
307.696
307.722
307.561
307.563
307.57
307.579
307.591
307.606
307.623
307.641
307.661
307.682
307.705
307.728
307.751
307.776
307.61
307.615
307.623
307.634
307.647
307.663
307.68
307.699
307.719
307.74
307.762
307.785
307.809
307.832
307.659
307.668
307.678
307.69
307.705
307.721
307.74
307.759
307.779
307.801
307.823
307.845
307.869
307.89
307.708
307.72
307.732
307.747
307.763
307.781
307.8
307.82
307.841
307.862
307.884
307.906
307.93
307.95
307.759
307.773
307.787
307.804
307.822
307.841
307.861
307.882
307.903
307.925
307.947
307.969
307.993
308.011
307.807
307.825
307.841
307.86
307.88
307.901
307.923
307.944
307.966
307.988
308.01
308.032
308.056
308.072
307.857
307.878
307.897
307.918
307.94
307.962
307.985
308.007
308.029
308.051
308.074
308.096
308.12
308.135
307.904
307.927
307.949
307.973
307.997
308.021
308.046
308.069
308.093
308.115
308.138
308.16
308.184
308.199
307.954
307.98
308.005
308.03
308.056
308.082
308.107
308.131
308.155
308.178
308.2
308.222
308.245
308.262
307.223
307.211
307.208
307.207
307.208
307.211
307.215
307.223
307.231
307.242
307.254
307.267
307.282
307.298
307.265
307.254
307.251
307.251
307.252
307.255
307.26
307.267
307.275
307.286
307.297
307.311
307.324
307.339
307.305
307.296
307.295
307.295
307.297
307.3
307.306
307.313
307.321
307.331
307.341
307.354
307.366
307.38
307.347
307.341
307.34
307.341
307.344
307.348
307.353
307.361
307.369
307.378
307.389
307.401
307.412
307.426
307.389
307.385
307.386
307.388
307.392
307.396
307.402
307.41
307.418
307.428
307.438
307.449
307.46
307.474
307.431
307.43
307.433
307.436
307.441
307.446
307.453
307.461
307.469
307.479
307.489
307.499
307.51
307.523
307.473
307.476
307.48
307.485
307.49
307.497
307.504
307.512
307.521
307.531
307.541
307.551
307.562
307.573
307.517
307.522
307.528
307.534
307.541
307.548
307.556
307.565
307.574
307.584
307.594
307.604
307.616
307.625
307.561
307.569
307.576
307.583
307.591
307.6
307.609
307.618
307.628
307.638
307.648
307.658
307.669
307.677
307.606
307.616
307.624
307.633
307.642
307.652
307.662
307.672
307.682
307.693
307.703
307.712
307.724
307.731
307.651
307.663
307.672
307.683
307.694
307.704
307.715
307.726
307.737
307.748
307.758
307.767
307.779
307.784
307.698
307.711
307.722
307.734
307.746
307.757
307.769
307.781
307.792
307.803
307.814
307.823
307.836
307.839
307.744
307.758
307.771
307.784
307.797
307.81
307.823
307.835
307.847
307.858
307.869
307.878
307.891
307.895
307.794
307.808
307.823
307.837
307.851
307.864
307.877
307.89
307.902
307.913
307.924
307.934
307.946
307.953
307.206
307.197
307.189
307.182
307.177
307.171
307.167
307.164
307.163
307.162
307.162
307.164
307.167
307.173
307.239
307.229
307.223
307.216
307.211
307.206
307.202
307.199
307.198
307.197
307.197
307.199
307.2
307.207
307.27
307.261
307.256
307.25
307.246
307.241
307.238
307.235
307.233
307.232
307.232
307.233
307.233
307.239
307.301
307.294
307.29
307.285
307.281
307.277
307.274
307.272
307.27
307.268
307.267
307.268
307.268
307.272
307.331
307.326
307.323
307.319
307.316
307.313
307.311
307.309
307.307
307.305
307.303
307.303
307.303
307.306
307.363
307.359
307.358
307.355
307.352
307.35
307.348
307.346
307.344
307.342
307.341
307.34
307.339
307.341
307.394
307.393
307.392
307.39
307.388
307.387
307.385
307.383
307.382
307.38
307.379
307.378
307.377
307.377
307.427
307.427
307.427
307.426
307.425
307.424
307.423
307.421
307.42
307.419
307.417
307.416
307.415
307.414
307.461
307.462
307.462
307.463
307.462
307.462
307.461
307.46
307.459
307.457
307.456
307.454
307.454
307.452
307.495
307.498
307.499
307.5
307.5
307.5
307.5
307.499
307.498
307.497
307.496
307.494
307.494
307.491
307.53
307.534
307.536
307.538
307.539
307.539
307.539
307.539
307.538
307.537
307.536
307.534
307.535
307.532
307.568
307.572
307.574
307.576
307.578
307.579
307.579
307.579
307.579
307.577
307.577
307.576
307.578
307.573
307.606
307.61
307.613
307.616
307.618
307.619
307.62
307.62
307.619
307.618
307.618
307.618
307.618
307.614
307.648
307.649
307.653
307.656
307.658
307.66
307.661
307.661
307.661
307.66
307.66
307.661
307.662
307.66
307.22
307.209
307.2
307.191
307.181
307.172
307.164
307.155
307.147
307.139
307.132
307.125
307.118
307.114
307.241
307.23
307.222
307.213
307.204
307.195
307.186
307.177
307.169
307.16
307.153
307.145
307.139
307.135
307.259
307.249
307.242
307.233
307.225
307.216
307.208
307.199
307.191
307.183
307.175
307.167
307.159
307.155
307.278
307.27
307.263
307.255
307.247
307.239
307.23
307.221
307.213
307.204
307.196
307.188
307.18
307.175
307.297
307.29
307.284
307.276
307.269
307.261
307.253
307.244
307.236
307.227
307.218
307.21
307.201
307.194
307.317
307.311
307.306
307.298
307.291
307.283
307.275
307.267
307.258
307.249
307.24
307.231
307.222
307.214
307.338
307.333
307.327
307.32
307.313
307.306
307.298
307.289
307.281
307.272
307.262
307.253
307.244
307.235
307.359
307.355
307.349
307.343
307.336
307.329
307.321
307.312
307.303
307.294
307.285
307.275
307.266
307.256
307.381
307.377
307.372
307.366
307.359
307.352
307.344
307.335
307.326
307.317
307.308
307.297
307.288
307.277
307.404
307.401
307.395
307.39
307.383
307.376
307.368
307.359
307.35
307.34
307.33
307.32
307.31
307.299
307.427
307.425
307.419
307.414
307.407
307.4
307.391
307.383
307.373
307.363
307.353
307.342
307.333
307.322
307.452
307.45
307.444
307.439
307.432
307.424
307.416
307.407
307.397
307.387
307.377
307.366
307.357
307.346
307.479
307.476
307.47
307.465
307.457
307.45
307.441
307.432
307.422
307.411
307.401
307.39
307.382
307.37
307.508
307.502
307.496
307.49
307.483
307.475
307.466
307.457
307.447
307.437
307.427
307.417
307.408
307.398
307.232
307.22
307.211
307.2
307.189
307.177
307.165
307.153
307.142
307.129
307.118
307.105
307.094
307.082
307.241
307.231
307.222
307.211
307.2
307.188
307.176
307.164
307.152
307.139
307.127
307.114
307.102
307.09
307.249
307.239
307.23
307.22
307.209
307.198
307.186
307.174
307.162
307.149
307.137
307.124
307.111
307.099
307.258
307.249
307.24
307.23
307.219
307.208
307.196
307.184
307.171
307.158
307.146
307.133
307.12
307.108
307.267
307.258
307.25
307.24
307.229
307.218
307.206
307.193
307.181
307.168
307.155
307.141
307.128
307.115
307.276
307.268
307.26
307.25
307.239
307.228
307.216
307.203
307.19
307.177
307.163
307.15
307.136
307.123
307.286
307.279
307.27
307.26
307.249
307.238
307.225
307.213
307.199
307.186
307.172
307.158
307.144
307.13
307.297
307.289
307.28
307.27
307.259
307.247
307.235
307.222
307.208
307.194
307.18
307.165
307.151
307.136
307.308
307.3
307.291
307.28
307.269
307.257
307.244
307.231
307.217
307.202
307.188
307.173
307.158
307.143
307.319
307.311
307.301
307.291
307.279
307.267
307.253
307.24
307.225
307.211
307.195
307.18
307.165
307.15
307.33
307.322
307.312
307.301
307.289
307.276
307.262
307.248
307.234
307.219
307.203
307.187
307.172
307.156
307.342
307.333
307.323
307.312
307.299
307.286
307.272
307.257
307.242
307.227
307.211
307.195
307.179
307.162
307.355
307.346
307.335
307.323
307.309
307.295
307.281
307.266
307.251
307.235
307.219
307.202
307.185
307.169
307.369
307.357
307.345
307.333
307.319
307.305
307.291
307.276
307.26
307.244
307.228
307.211
307.195
307.177
307.226
307.216
307.206
307.194
307.182
307.169
307.155
307.14
307.126
307.11
307.095
307.079
307.065
307.047
307.227
307.217
307.207
307.195
307.183
307.17
307.156
307.141
307.126
307.11
307.095
307.078
307.064
307.047
307.226
307.216
307.207
307.195
307.183
307.169
307.156
307.141
307.126
307.11
307.095
307.078
307.063
307.047
307.225
307.216
307.206
307.194
307.182
307.169
307.155
307.14
307.125
307.11
307.094
307.078
307.062
307.045
307.224
307.216
307.205
307.194
307.181
307.168
307.154
307.139
307.124
307.108
307.092
307.075
307.059
307.042
307.224
307.215
307.204
307.192
307.18
307.166
307.152
307.137
307.121
307.105
307.089
307.072
307.056
307.039
307.224
307.214
307.203
307.191
307.178
307.164
307.149
307.134
307.118
307.102
307.085
307.068
307.051
307.034
307.223
307.213
307.202
307.189
307.176
307.161
307.146
307.131
307.114
307.098
307.081
307.064
307.046
307.029
307.223
307.213
307.2
307.188
307.173
307.159
307.143
307.127
307.11
307.093
307.076
307.058
307.041
307.024
307.222
307.211
307.198
307.185
307.17
307.155
307.139
307.123
307.105
307.088
307.07
307.053
307.034
307.017
307.221
307.21
307.196
307.182
307.167
307.151
307.135
307.118
307.1
307.083
307.064
307.046
307.027
307.01
307.22
307.208
307.194
307.179
307.163
307.147
307.13
307.113
307.095
307.077
307.058
307.04
307.02
307.003
307.22
307.206
307.192
307.176
307.16
307.143
307.126
307.108
307.089
307.071
307.051
307.032
307.013
306.995
307.22
307.204
307.189
307.173
307.156
307.139
307.121
307.103
307.084
307.066
307.047
307.028
307.008
306.989
307.188
307.178
307.168
307.156
307.143
307.129
307.114
307.098
307.081
307.064
307.047
307.028
307.011
306.991
307.178
307.169
307.159
307.147
307.134
307.12
307.105
307.089
307.072
307.055
307.037
307.019
307.002
306.983
307.168
307.159
307.149
307.137
307.124
307.11
307.095
307.079
307.062
307.045
307.028
307.009
306.992
306.973
307.157
307.149
307.138
307.126
307.113
307.099
307.084
307.068
307.051
307.034
307.017
306.999
306.981
306.963
307.147
307.138
307.127
307.115
307.102
307.087
307.072
307.056
307.04
307.022
307.005
306.987
306.969
306.951
307.137
307.127
307.116
307.103
307.089
307.075
307.06
307.044
307.027
307.01
306.992
306.974
306.956
306.938
307.126
307.116
307.104
307.091
307.077
307.062
307.047
307.03
307.014
306.996
306.979
306.961
306.943
306.925
307.115
307.104
307.092
307.078
307.064
307.049
307.033
307.016
306.999
306.982
306.964
306.946
306.928
306.91
307.105
307.093
307.08
307.066
307.051
307.035
307.019
307.002
306.984
306.967
306.948
306.93
306.912
306.895
307.093
307.08
307.066
307.052
307.036
307.02
307.004
306.986
306.969
306.951
306.932
306.914
306.895
306.878
307.082
307.067
307.053
307.038
307.022
307.006
306.988
306.971
306.952
306.934
306.915
306.897
306.877
306.861
307.069
307.053
307.039
307.023
307.007
306.99
306.972
306.955
306.936
306.918
306.898
306.88
306.86
306.843
307.056
307.041
307.025
307.009
306.992
306.974
306.956
306.938
306.918
306.899
306.88
306.861
306.84
306.824
307.043
307.026
307.01
306.993
306.975
306.957
306.939
306.921
306.902
306.883
306.863
306.844
306.825
306.807
307.085
307.076
307.066
307.055
307.043
307.029
307.015
307
306.984
306.967
306.949
306.93
306.913
306.892
307.067
307.059
307.049
307.038
307.025
307.012
306.998
306.982
306.966
306.949
306.931
306.913
306.895
306.876
307.048
307.041
307.03
307.019
307.007
306.994
306.979
306.964
306.948
306.931
306.914
306.896
306.879
306.86
307.03
307.022
307.011
307
306.988
306.975
306.96
306.945
306.929
306.912
306.895
306.877
306.86
306.842
307.012
307.004
306.992
306.981
306.968
306.955
306.94
306.925
306.91
306.893
306.876
306.859
306.842
306.824
306.993
306.984
306.973
306.961
306.948
306.934
306.92
306.905
306.889
306.872
306.856
306.839
306.822
306.804
306.975
306.965
306.953
306.941
306.927
306.913
306.899
306.884
306.868
306.852
306.835
306.818
306.801
306.784
306.956
306.945
306.932
306.92
306.906
306.892
306.877
306.862
306.846
306.83
306.813
306.796
306.779
306.763
306.937
306.924
306.912
306.898
306.885
306.87
306.855
306.839
306.823
306.807
306.79
306.774
306.757
306.741
306.916
306.903
306.89
306.876
306.862
306.847
306.832
306.816
306.8
306.784
306.767
306.75
306.733
306.718
306.896
306.882
306.869
306.854
306.84
306.825
306.809
306.793
306.776
306.76
306.742
306.726
306.708
306.694
306.874
306.859
306.846
306.831
306.816
306.801
306.785
306.769
306.752
306.736
306.718
306.702
306.684
306.67
306.854
306.838
306.824
306.809
306.793
306.777
306.761
306.744
306.727
306.71
306.692
306.675
306.658
306.644
306.83
306.814
306.799
306.784
306.768
306.752
306.736
306.719
306.703
306.686
306.668
306.652
306.634
306.62
306.899
306.891
306.882
306.874
306.864
306.854
306.842
306.83
306.817
306.804
306.789
306.774
306.759
306.742
306.876
306.87
306.861
306.852
306.842
306.831
306.82
306.808
306.794
306.781
306.766
306.751
306.736
306.72
306.853
306.847
306.838
306.829
306.819
306.808
306.797
306.785
306.772
306.758
306.745
306.73
306.716
306.7
306.831
306.825
306.815
306.806
306.795
306.785
306.773
306.761
306.748
306.735
306.721
306.707
306.693
306.677
306.808
306.801
306.792
306.782
306.772
306.761
306.749
306.737
306.724
306.711
306.698
306.684
306.67
306.655
306.786
306.778
306.768
306.758
306.747
306.736
306.725
306.713
306.7
306.687
306.674
306.66
306.646
306.632
306.763
306.754
306.744
306.734
306.723
306.712
306.7
306.688
306.675
306.662
306.649
306.636
306.622
306.609
306.739
306.729
306.719
306.709
306.698
306.686
306.674
306.662
306.65
306.637
306.624
306.611
306.598
306.584
306.715
306.705
306.694
306.683
306.672
306.661
306.649
306.637
306.624
306.611
306.598
306.585
306.572
306.56
306.69
306.679
306.669
306.657
306.646
306.634
306.623
306.61
306.598
306.585
306.572
306.559
306.546
306.535
306.665
306.653
306.643
306.632
306.62
306.608
306.596
306.584
306.571
306.558
306.545
306.533
306.52
306.51
306.639
306.626
306.616
306.605
306.593
306.581
306.569
306.557
306.544
306.532
306.518
306.506
306.493
306.484
306.614
306.601
306.59
306.579
306.567
306.554
306.542
306.529
306.517
306.504
306.491
306.479
306.466
306.458
306.585
306.574
306.562
306.551
306.539
306.527
306.514
306.502
306.49
306.477
306.464
306.452
306.44
306.431
306.635
306.63
306.623
306.618
306.612
306.606
306.599
306.592
306.585
306.577
306.568
306.559
306.55
306.541
306.612
306.608
306.602
306.596
306.59
306.583
306.577
306.569
306.562
306.553
306.544
306.536
306.527
306.516
306.59
306.586
306.579
306.573
306.567
306.56
306.554
306.546
306.539
306.53
306.522
306.513
306.505
306.494
306.567
306.564
306.557
306.55
306.544
306.537
306.53
306.523
306.515
306.507
306.499
306.49
306.482
306.472
306.546
306.541
306.534
306.527
306.521
306.514
306.507
306.499
306.492
306.484
306.476
306.467
306.459
306.45
306.523
306.517
306.51
306.504
306.497
306.49
306.483
306.476
306.468
306.46
306.452
306.444
306.436
306.427
306.5
306.494
306.487
306.48
306.473
306.466
306.459
306.452
306.444
306.437
306.429
306.421
306.413
306.405
306.476
306.469
306.463
306.456
306.449
306.442
306.435
306.428
306.42
306.413
306.405
306.397
306.39
306.382
306.452
306.445
306.438
306.431
306.425
306.418
306.41
306.403
306.396
306.388
306.381
306.374
306.366
306.36
306.428
306.42
306.413
306.407
306.4
306.393
306.386
306.379
306.371
306.364
306.357
306.35
306.342
306.337
306.404
306.395
306.389
306.382
306.375
306.368
306.361
306.354
306.347
306.339
306.332
306.326
306.319
306.314
306.378
306.37
306.364
306.357
306.35
306.343
306.336
306.329
306.322
306.315
306.308
306.302
306.295
306.292
306.354
306.346
306.339
306.332
306.325
306.318
306.312
306.304
306.297
306.29
306.283
306.277
306.271
306.27
306.327
306.32
306.313
306.307
306.3
306.293
306.287
306.28
306.273
306.266
306.26
306.254
306.248
306.246
306.317
306.315
306.312
306.31
306.308
306.307
306.305
306.304
306.302
306.3
306.299
306.297
306.295
306.294
306.297
306.297
306.294
306.292
306.29
306.288
306.286
306.285
306.283
306.281
306.279
306.277
306.275
306.272
306.28
306.279
306.276
306.274
306.272
306.27
306.268
306.266
306.264
306.262
306.26
306.258
306.256
306.253
306.261
306.26
306.257
306.255
306.253
306.251
306.249
306.247
306.245
306.243
306.241
306.239
306.237
306.233
306.243
306.242
306.239
306.236
306.234
306.232
306.23
306.228
306.226
306.224
306.222
306.22
306.218
306.215
306.225
306.222
306.22
306.218
306.215
306.213
306.211
306.209
306.207
306.205
306.204
306.202
306.2
306.197
306.206
306.203
306.201
306.198
306.196
306.194
306.192
306.19
306.188
306.187
306.185
306.183
306.181
306.179
306.187
306.184
306.181
306.179
306.177
306.175
306.173
306.171
306.17
306.168
306.166
306.165
306.163
306.162
306.167
306.164
306.162
306.16
306.158
306.156
306.154
306.152
306.151
306.149
306.148
306.147
306.145
306.145
306.148
306.144
306.142
306.14
306.139
306.137
306.135
306.134
306.132
306.131
306.13
306.129
306.127
306.128
306.129
306.125
306.123
306.121
306.119
306.118
306.116
306.115
306.114
306.113
306.112
306.111
306.11
306.111
306.11
306.105
306.104
306.102
306.1
306.099
306.098
306.096
306.095
306.094
306.094
306.093
306.092
306.094
306.092
306.087
306.085
306.083
306.082
306.08
306.079
306.078
306.077
306.077
306.076
306.076
306.076
306.079
306.072
306.068
306.066
306.065
306.063
306.062
306.061
306.06
306.06
306.059
306.059
306.06
306.06
306.061
305.97
305.971
305.972
305.973
305.975
305.977
305.98
305.983
305.987
305.991
305.995
305.999
306.004
306.009
305.958
305.959
305.96
305.961
305.963
305.966
305.968
305.972
305.975
305.979
305.982
305.986
305.99
305.994
305.946
305.947
305.948
305.95
305.951
305.954
305.956
305.959
305.963
305.966
305.97
305.973
305.977
305.98
305.934
305.936
305.936
305.938
305.94
305.942
305.945
305.947
305.951
305.954
305.957
305.961
305.965
305.968
305.922
305.924
305.924
305.926
305.928
305.93
305.933
305.936
305.939
305.942
305.946
305.949
305.953
305.956
305.91
305.912
305.913
305.914
305.916
305.919
305.921
305.924
305.927
305.93
305.934
305.938
305.941
305.945
305.898
305.899
305.901
305.903
305.905
305.907
305.91
305.912
305.916
305.919
305.923
305.926
305.93
305.934
305.886
305.887
305.889
305.891
305.893
305.895
305.898
305.901
305.904
305.908
305.911
305.915
305.919
305.923
305.874
305.876
305.877
305.879
305.881
305.884
305.887
305.89
305.893
305.897
305.901
305.905
305.909
305.913
305.863
305.864
305.866
305.868
305.87
305.873
305.876
305.879
305.882
305.886
305.89
305.894
305.898
305.903
305.851
305.852
305.855
305.857
305.859
305.862
305.865
305.869
305.872
305.876
305.88
305.884
305.889
305.894
305.841
305.841
305.844
305.846
305.849
305.852
305.855
305.858
305.862
305.866
305.871
305.875
305.88
305.886
305.83
305.831
305.833
305.836
305.838
305.841
305.845
305.849
305.853
305.857
305.862
305.867
305.872
305.878
305.82
305.821
305.823
305.826
305.829
305.832
305.835
305.839
305.843
305.848
305.853
305.858
305.863
305.87
305.611
305.615
305.619
305.623
305.628
305.633
305.638
305.644
305.651
305.657
305.664
305.672
305.68
305.689
305.606
305.61
305.614
305.618
305.623
305.628
305.634
305.64
305.646
305.653
305.66
305.668
305.675
305.683
305.602
305.606
305.609
305.614
305.618
305.624
305.629
305.635
305.642
305.648
305.656
305.663
305.671
305.678
305.597
305.601
305.605
305.609
305.614
305.619
305.625
305.631
305.637
305.644
305.651
305.659
305.666
305.673
305.593
305.597
305.601
305.605
305.61
305.615
305.62
305.626
305.633
305.639
305.646
305.654
305.661
305.669
305.588
305.592
305.596
305.601
305.606
305.611
305.616
305.622
305.629
305.635
305.642
305.649
305.657
305.664
305.584
305.588
305.592
305.597
305.602
305.607
305.613
305.619
305.625
305.631
305.638
305.646
305.653
305.66
305.58
305.584
305.588
305.593
305.598
305.603
305.609
305.615
305.621
305.628
305.635
305.642
305.649
305.657
305.577
305.58
305.585
305.589
305.594
305.6
305.606
305.612
305.618
305.625
305.632
305.639
305.646
305.654
305.573
305.577
305.582
305.586
305.591
305.597
305.603
305.609
305.616
305.622
305.629
305.636
305.644
305.651
305.57
305.574
305.579
305.583
305.589
305.594
305.6
305.607
305.613
305.62
305.627
305.634
305.642
305.649
305.567
305.571
305.576
305.581
305.586
305.592
305.598
305.604
305.611
305.618
305.625
305.633
305.64
305.648
305.565
305.569
305.574
305.579
305.584
305.59
305.596
305.603
305.61
305.617
305.624
305.632
305.639
305.648
305.563
305.568
305.572
305.578
305.583
305.589
305.595
305.601
305.608
305.615
305.623
305.63
305.638
305.647
305.253
305.258
305.263
305.269
305.274
305.28
305.286
305.293
305.3
305.308
305.315
305.324
305.332
305.342
305.253
305.259
305.264
305.269
305.275
305.281
305.288
305.295
305.302
305.31
305.318
305.326
305.335
305.344
305.255
305.26
305.265
305.271
305.277
305.283
305.29
305.296
305.304
305.311
305.319
305.328
305.336
305.345
305.257
305.261
305.267
305.272
305.278
305.285
305.291
305.298
305.306
305.313
305.321
305.33
305.338
305.347
305.259
305.263
305.269
305.274
305.28
305.287
305.293
305.3
305.307
305.315
305.323
305.331
305.34
305.348
305.261
305.266
305.271
305.276
305.282
305.289
305.295
305.302
305.31
305.317
305.325
305.333
305.342
305.35
305.263
305.268
305.273
305.279
305.285
305.291
305.298
305.305
305.312
305.32
305.328
305.336
305.344
305.352
305.266
305.271
305.276
305.282
305.288
305.294
305.301
305.308
305.315
305.323
305.33
305.338
305.347
305.355
305.269
305.274
305.279
305.285
305.291
305.297
305.304
305.311
305.318
305.326
305.333
305.341
305.349
305.357
305.272
305.277
305.282
305.288
305.294
305.3
305.307
305.314
305.321
305.329
305.337
305.344
305.353
305.36
305.275
305.28
305.285
305.291
305.297
305.304
305.311
305.318
305.325
305.333
305.34
305.348
305.356
305.363
305.279
305.284
305.289
305.295
305.301
305.308
305.315
305.322
305.329
305.337
305.344
305.352
305.36
305.367
305.282
305.288
305.293
305.299
305.305
305.312
305.319
305.326
305.333
305.341
305.349
305.356
305.364
305.371
305.286
305.292
305.297
305.304
305.31
305.317
305.323
305.33
305.338
305.345
305.352
305.36
305.368
305.376
304.902
304.906
304.912
304.917
304.922
304.927
304.933
304.938
304.944
304.95
304.956
304.963
304.969
304.976
304.906
304.911
304.916
304.921
304.927
304.932
304.938
304.944
304.95
304.956
304.963
304.969
304.976
304.983
304.912
304.916
304.921
304.926
304.932
304.938
304.943
304.949
304.955
304.961
304.968
304.975
304.981
304.989
304.917
304.921
304.927
304.932
304.937
304.943
304.949
304.955
304.961
304.967
304.974
304.981
304.988
304.995
304.923
304.927
304.932
304.937
304.943
304.949
304.955
304.961
304.967
304.973
304.98
304.987
304.993
305.001
304.928
304.933
304.938
304.943
304.949
304.955
304.96
304.967
304.973
304.979
304.986
304.993
305
305.007
304.935
304.939
304.944
304.95
304.955
304.961
304.967
304.973
304.979
304.985
304.992
304.999
305.005
305.012
304.941
304.946
304.951
304.956
304.961
304.967
304.973
304.979
304.985
304.992
304.998
305.005
305.012
305.018
304.947
304.952
304.957
304.962
304.968
304.973
304.979
304.985
304.992
304.998
305.004
305.011
305.018
305.024
304.954
304.959
304.964
304.969
304.974
304.98
304.986
304.992
304.998
305.005
305.011
305.017
305.024
305.03
304.96
304.965
304.97
304.976
304.981
304.987
304.993
304.999
305.005
305.011
305.017
305.024
305.03
305.036
304.967
304.972
304.977
304.983
304.988
304.994
305
305.006
305.012
305.018
305.024
305.03
305.036
305.042
304.974
304.979
304.984
304.99
304.995
305.001
305.007
305.013
305.019
305.025
305.031
305.037
305.042
305.048
304.981
304.987
304.992
304.997
305.003
305.009
305.014
305.02
305.026
305.032
305.037
305.043
305.049
305.055
304.567
304.569
304.573
304.577
304.581
304.585
304.588
304.592
304.595
304.599
304.602
304.606
304.609
304.614
304.572
304.575
304.579
304.583
304.587
304.591
304.595
304.599
304.602
304.606
304.61
304.613
304.617
304.621
304.579
304.582
304.586
304.589
304.593
304.597
304.601
304.605
304.609
304.613
304.616
304.62
304.624
304.628
304.585
304.588
304.592
304.596
304.6
304.604
304.608
304.612
304.616
304.62
304.623
304.627
304.631
304.635
304.592
304.595
304.599
304.603
304.607
304.611
304.615
304.619
304.623
304.627
304.63
304.634
304.638
304.642
304.598
304.602
304.606
304.61
304.614
304.618
304.622
304.626
304.63
304.633
304.637
304.641
304.645
304.649
304.605
304.609
304.613
304.616
304.62
304.624
304.628
304.632
304.636
304.64
304.644
304.648
304.652
304.656
304.612
304.616
304.619
304.623
304.627
304.631
304.635
304.639
304.643
304.647
304.651
304.655
304.659
304.663
304.618
304.622
304.626
304.63
304.634
304.638
304.642
304.646
304.65
304.654
304.658
304.662
304.665
304.669
304.625
304.629
304.633
304.637
304.641
304.645
304.649
304.653
304.657
304.661
304.664
304.668
304.672
304.675
304.632
304.636
304.64
304.644
304.648
304.652
304.656
304.66
304.664
304.667
304.671
304.675
304.678
304.681
304.639
304.643
304.647
304.651
304.655
304.659
304.663
304.667
304.67
304.674
304.677
304.681
304.684
304.687
304.646
304.65
304.654
304.658
304.662
304.666
304.67
304.673
304.677
304.681
304.684
304.687
304.69
304.693
304.653
304.658
304.661
304.665
304.669
304.673
304.677
304.68
304.684
304.687
304.69
304.693
304.696
304.699
304.253
304.254
304.256
304.259
304.261
304.262
304.264
304.266
304.267
304.268
304.269
304.27
304.259
304.26
304.262
304.264
304.266
304.268
304.27
304.272
304.273
304.274
304.275
304.276
304.264
304.265
304.268
304.27
304.272
304.274
304.276
304.277
304.279
304.28
304.281
304.282
304.269
304.271
304.273
304.275
304.278
304.28
304.281
304.283
304.284
304.286
304.287
304.288
304.275
304.276
304.279
304.281
304.283
304.285
304.287
304.289
304.29
304.291
304.293
304.293
304.28
304.282
304.284
304.287
304.289
304.291
304.293
304.294
304.296
304.297
304.298
304.299
304.285
304.287
304.29
304.292
304.294
304.296
304.298
304.3
304.301
304.303
304.304
304.305
304.29
304.293
304.295
304.297
304.3
304.302
304.303
304.305
304.307
304.308
304.309
304.31
304.295
304.298
304.3
304.303
304.305
304.307
304.309
304.31
304.312
304.313
304.314
304.315
304.3
304.303
304.305
304.308
304.31
304.312
304.314
304.315
304.317
304.318
304.319
304.32
304.305
304.308
304.31
304.313
304.315
304.317
304.319
304.32
304.321
304.323
304.324
304.325
304.31
304.313
304.315
304.318
304.32
304.322
304.323
304.325
304.326
304.327
304.328
304.329
304.315
304.318
304.32
304.322
304.324
304.326
304.328
304.329
304.33
304.331
304.332
304.333
304.321
304.323
304.325
304.327
304.329
304.331
304.332
304.334
304.335
304.336
304.336
304.337
308.205
308.155
308.111
308.064
308.021
307.978
308.24
308.188
308.142
308.091
308.044
307.997
308.269
308.215
308.168
308.118
308.074
308.031
308.298
308.245
308.197
308.15
308.107
308.069
307.861
307.813
307.768
307.721
307.677
307.631
307.885
307.832
307.782
307.728
307.676
307.622
307.905
307.848
307.795
307.738
307.683
307.628
307.929
307.872
307.819
307.763
307.708
307.656
307.955
307.9
307.848
307.795
307.744
307.696
307.983
307.931
307.882
307.833
307.787
307.744
308.012
307.965
307.92
307.876
307.834
307.797
307.512
307.472
307.435
307.397
307.359
307.321
307.522
307.476
307.43
307.38
307.331
307.28
307.532
307.477
307.425
307.369
307.314
307.259
307.548
307.489
307.433
307.375
307.317
307.26
307.567
307.51