/*--------------------------------*- C++ -*----------------------------------*\
| =========                 |                                                 |
| \\      /  F ield         | OpenFOAM: The Open Source CFD Toolbox           |
|  \\    /   O peration     | Version:  v2106                                 |
|   \\  /    A nd           | Website:  www.openfoam.com                      |
|    \\/     M anipulation  |                                                 |
\*---------------------------------------------------------------------------*/
FoamFile
{
    version     2.0;
    format      ascii;
    arch        "LSB;label=32;scalar=64";
    class       surfaceScalarField;
    location    "0.000154";
    object      phi;
}
// * * * * * * * * * * * * * * * * * * * * * * * * * * * * * * * * * * * * * //

dimensions      [1 0 -1 0 0 0 0];

internalField   nonuniform List<scalar> 
52267
(
-1.08695e-09
-1.08773e-09
-1.68305e-07
1.3084e-09
1.30842e-09
-8.01204e-10
-9.09402e-10
-1.68109e-07
1.08357e-09
-4.97794e-10
-7.28855e-10
-1.67904e-07
9.07558e-10
-2.88258e-10
-5.86133e-10
-1.67715e-07
8.48362e-10
-1.48522e-10
-4.95563e-10
-1.67546e-07
8.06747e-10
-5.95178e-11
-3.98373e-10
-1.67429e-07
7.39131e-10
-3.83262e-10
-1.6739e-07
7.39845e-10
-9.08783e-10
-8.03618e-10
-1.68109e-07
1.08449e-09
-6.84521e-10
-6.86845e-10
-1.67944e-07
-4.7058e-10
-5.08842e-10
-1.67666e-07
-3.16704e-10
-3.52431e-10
-1.67421e-07
-1.89178e-10
-2.74203e-10
-1.67212e-07
-8.31105e-11
-1.82169e-10
-1.67072e-07
-1.53583e-10
-1.67026e-07
-7.294e-10
-5.02724e-10
-1.67904e-07
9.1006e-10
-5.06952e-10
-4.75528e-10
-1.67666e-07
-3.03591e-10
-3.08284e-10
-1.67365e-07
-1.51112e-10
-1.63974e-10
-1.67112e-07
-5.33127e-11
-8.79296e-11
-1.66907e-07
-6.93425e-12
6.66053e-12
-1.66761e-07
5.08179e-11
-1.66711e-07
-5.86304e-10
-2.95315e-10
-1.67716e-07
8.50611e-10
-3.50174e-10
-3.24113e-10
-1.67421e-07
-1.59189e-10
-1.58361e-10
-1.67113e-07
-3.08186e-11
-3.79793e-11
-1.66835e-07
2.85027e-11
3.16324e-11
-1.66622e-07
3.39279e-11
1.12376e-10
-1.66462e-07
1.62975e-10
-1.66405e-07
-4.95933e-10
-1.57371e-10
-1.67546e-07
8.0948e-10
-2.7206e-10
-1.98602e-10
-1.67212e-07
-8.33717e-11
-6.27227e-11
-1.66906e-07
3.83683e-11
1.93438e-11
-1.66622e-07
8.43581e-11
7.5867e-11
-1.66416e-07
6.26927e-11
1.38484e-10
-1.66253e-07
1.85463e-10
-1.66193e-07
-3.996e-10
-6.93921e-11
-1.67429e-07
7.43116e-10
-1.80537e-10
-9.36945e-11
-1.67072e-07
1.09588e-11
-1.77302e-11
-1.6676e-07
1.18985e-10
2.3457e-11
-1.66462e-07
1.46876e-10
5.29735e-11
-1.66253e-07
9.44158e-11
8.50659e-11
-1.66082e-07
1.11696e-10
-1.66022e-07
-3.85866e-10
-3.5079e-12
-1.67389e-07
7.45328e-10
-1.53036e-10
-4.77589e-12
-1.67025e-07
5.42464e-11
-5.60597e-12
-1.6671e-07
1.68946e-10
-6.04182e-12
-1.66404e-07
1.93685e-10
-6.34457e-12
-1.66192e-07
1.21136e-10
-6.3178e-12
-1.66022e-07
-6.85885e-12
-1.65964e-07
-3.87536e-10
6.31832e-11
-1.67389e-07
7.47707e-10
-1.53819e-10
8.51299e-11
-1.67025e-07
5.45618e-11
7.27465e-12
-1.66709e-07
1.70301e-10
-3.50892e-11
-1.66404e-07
1.95339e-10
-6.50492e-11
-1.66192e-07
1.22702e-10
-9.68761e-11
-1.66021e-07
-1.24478e-10
-1.65963e-07
-4.02615e-10
-1.67429e-07
7.46544e-10
-1.82707e-10
-1.67072e-07
9.86894e-12
-1.6676e-07
1.1877e-10
-1.66461e-07
1.46976e-10
-1.66252e-07
9.45376e-11
-1.66081e-07
-1.66021e-07
6.72739e-10
6.6958e-10
-1.75366e-07
-4.97934e-10
-5.00196e-10
7.65459e-10
9.62342e-10
-1.7509e-07
-7.99895e-10
8.5912e-10
1.41746e-09
-1.74821e-07
-1.30772e-09
8.03691e-10
1.70407e-09
-1.74586e-07
-1.53345e-09
6.28778e-10
1.95752e-09
-1.74385e-07
-1.73918e-09
3.44078e-10
2.16413e-09
-1.74255e-07
-1.89592e-09
1.63348e-12
2.23329e-09
-1.74215e-07
-1.93739e-09
-3.41023e-10
2.23294e-09
-1.74216e-07
-1.93642e-09
-6.25092e-10
2.1636e-09
-1.74256e-07
-1.89492e-09
-7.99393e-10
1.95615e-09
-1.74387e-07
-1.73753e-09
-8.54648e-10
1.70187e-09
-1.74588e-07
-1.53145e-09
-7.61691e-10
1.41446e-09
-1.74824e-07
-1.30552e-09
-6.7034e-10
9.58931e-10
-1.75093e-07
-7.97981e-10
6.64738e-10
-1.75369e-07
-4.9449e-10
-5.00469e-10
9.65215e-10
7.62003e-10
-1.75089e-07
-8.01785e-10
1.06979e-09
1.06624e-09
-1.74896e-07
1.1133e-09
1.47215e-09
-1.74562e-07
9.75262e-10
1.80482e-09
-1.7428e-07
7.29739e-10
2.03534e-09
-1.74036e-07
3.9185e-10
2.24289e-09
-1.73886e-07
1.37348e-12
2.3238e-09
-1.73846e-07
-3.89007e-10
2.32394e-09
-1.73847e-07
-7.25971e-10
2.24263e-09
-1.73887e-07
-9.71008e-10
2.03437e-09
-1.74038e-07
-1.10932e-09
1.80278e-09
-1.74282e-07
-1.06702e-09
1.46886e-09
-1.74565e-07
-9.64195e-10
1.06186e-09
-1.74899e-07
7.56515e-10
-1.75093e-07
-8.039e-10
1.41967e-09
8.55036e-10
-1.74821e-07
-1.3085e-09
1.47552e-09
1.10903e-09
-1.74562e-07
1.43837e-09
1.43393e-09
-1.74192e-07
1.2419e-09
1.7521e-09
-1.73931e-07
9.25851e-10
1.94373e-09
-1.73722e-07
4.98654e-10
2.14757e-09
-1.73589e-07
1.10309e-12
2.24412e-09
-1.73561e-07
-4.96348e-10
2.24462e-09
-1.73561e-07
-9.2272e-10
2.14737e-09
-1.7359e-07
-1.23843e-09
1.94297e-09
-1.73723e-07
-1.43531e-09
1.75009e-09
-1.73933e-07
-1.47404e-09
1.43071e-09
-1.74195e-07
-1.42021e-09
1.10433e-09
-1.74565e-07
8.49755e-10
-1.74824e-07
-1.31203e-09
1.70601e-09
7.99224e-10
-1.74586e-07
-1.53386e-09
1.80813e-09
9.70453e-10
-1.7428e-07
1.75645e-09
1.2368e-09
-1.73931e-07
1.52297e-09
1.51802e-09
-1.73671e-07
1.12276e-09
1.67533e-09
-1.73472e-07
5.98527e-10
1.84955e-09
-1.73333e-07
9.8626e-13
1.94262e-09
-1.733e-07
-5.96549e-10
1.9434e-09
-1.73301e-07
-1.12028e-09
1.84932e-09
-1.73333e-07
-1.52048e-09
1.67469e-09
-1.73473e-07
-1.75468e-09
1.5161e-09
-1.73673e-07
-1.80815e-09
1.23394e-09
-1.73933e-07
-1.70824e-09
9.66018e-10
-1.74282e-07
7.94129e-10
-1.74588e-07
-1.53841e-09
1.95936e-09
6.24162e-10
-1.74385e-07
-1.7394e-09
2.03868e-09
7.24652e-10
-1.74036e-07
1.94814e-09
9.20465e-10
-1.73721e-07
1.68031e-09
1.11764e-09
-1.73472e-07
1.23321e-09
1.22829e-09
-1.73316e-07
6.54514e-10
1.35271e-09
-1.7319e-07
9.15315e-13
1.42487e-09
-1.7316e-07
-6.52625e-10
1.42571e-09
-1.7316e-07
-1.23107e-09
1.35222e-09
-1.7319e-07
-1.67828e-09
1.22738e-09
-1.73317e-07
-1.94703e-09
1.11559e-09
-1.73473e-07
-2.03941e-09
9.17751e-10
-1.73723e-07
-1.96241e-09
7.20622e-10
-1.74038e-07
6.19286e-10
-1.74387e-07
-1.74462e-09
2.16534e-09
3.39262e-10
-1.74255e-07
-1.89529e-09
2.24568e-09
3.86676e-10
-1.73886e-07
2.15152e-09
4.93235e-10
-1.73589e-07
1.85418e-09
5.93497e-10
-1.73332e-07
1.35743e-09
6.49947e-10
-1.7319e-07
7.17104e-10
7.12614e-10
-1.73063e-07
1.08675e-12
7.50591e-10
-1.73036e-07
-7.14823e-10
7.51263e-10
-1.73036e-07
-1.35521e-09
7.118e-10
-1.73064e-07
-1.85245e-09
6.48668e-10
-1.73191e-07
-2.15115e-09
5.91392e-10
-1.73334e-07
-2.24737e-09
4.90598e-10
-1.73591e-07
-2.16939e-09
3.82978e-10
-1.73888e-07
3.34788e-10
-1.74257e-07
-1.9015e-09
2.23386e-09
-3.16868e-12
-1.74215e-07
-1.9361e-09
2.32605e-09
-3.70746e-12
-1.73846e-07
2.24761e-09
-4.07496e-12
-1.7356e-07
1.94695e-09
-3.94073e-12
-1.733e-07
1.42956e-09
-3.76451e-12
-1.7316e-07
7.551e-10
-3.51077e-12
-1.73036e-07
4.33508e-13
-4.00811e-12
-1.73012e-07
-7.53904e-10
-3.87304e-12
-1.73012e-07
-1.42848e-09
-4.94664e-12
-1.73037e-07
-1.94646e-09
-5.71947e-12
-1.73161e-07
-2.24859e-09
-6.42991e-12
-1.73302e-07
-2.32889e-09
-7.09659e-12
-1.73562e-07
-2.23831e-09
-7.86736e-12
-1.73848e-07
-7.93049e-12
-1.74217e-07
-1.94172e-09
2.23323e-09
-3.45131e-10
-1.74215e-07
-1.93486e-09
2.32598e-09
-3.93466e-10
-1.73845e-07
2.24809e-09
-5.0086e-10
-1.7356e-07
1.94787e-09
-6.01003e-10
-1.733e-07
1.43066e-09
-6.57187e-10
-1.7316e-07
7.55981e-10
-7.19331e-10
-1.73036e-07
6.02743e-13
-7.5807e-10
-1.73011e-07
-7.54508e-10
-7.58441e-10
-1.73012e-07
-1.4297e-09
-7.20899e-10
-1.73037e-07
-1.94801e-09
-6.59393e-10
-1.73161e-07
-2.25036e-09
-6.03445e-10
-1.73302e-07
-2.33056e-09
-5.04001e-10
-1.73562e-07
-2.24026e-09
-3.97252e-10
-1.73848e-07
-3.49189e-10
-1.74217e-07
-1.94373e-09
2.16396e-09
-6.28066e-10
-1.74255e-07
-1.89345e-09
2.2451e-09
-7.2948e-10
-1.73886e-07
2.15171e-09
-9.26298e-10
-1.73589e-07
1.85479e-09
-1.1238e-09
-1.73332e-07
1.35797e-09
-1.23478e-09
-1.73189e-07
7.17088e-10
-1.35905e-09
-1.73063e-07
-2.53209e-13
-1.43193e-09
-1.73036e-07
-7.17141e-10
-1.43276e-09
-1.73036e-07
-1.35806e-09
-1.36078e-09
-1.73064e-07
-1.85535e-09
-1.23743e-09
-1.73191e-07
-2.15366e-09
-1.12663e-09
-1.73334e-07
-2.24888e-09
-9.29866e-10
-1.73591e-07
-2.16961e-09
-7.33449e-10
-1.73888e-07
-6.31763e-10
-1.74257e-07
-1.90067e-09
1.95689e-09
-8.008e-10
-1.74385e-07
-1.73596e-09
2.03762e-09
-9.72752e-10
-1.74036e-07
1.94837e-09
-1.24031e-09
-1.73721e-07
1.68129e-09
-1.52234e-09
-1.73472e-07
1.23413e-09
-1.68057e-09
-1.73316e-07
6.54669e-10
-1.85514e-09
-1.7319e-07
-8.36445e-13
-1.94896e-09
-1.7316e-07
-6.56067e-10
-1.95015e-09
-1.73161e-07
-1.23561e-09
-1.85699e-09
-1.73191e-07
-1.68313e-09
-1.68365e-09
-1.73317e-07
-1.95124e-09
-1.52567e-09
-1.73473e-07
-2.04193e-09
-1.24428e-09
-1.73723e-07
-1.96254e-09
-9.76964e-10
-1.74038e-07
-8.04572e-10
-1.74387e-07
-1.74232e-09
1.70233e-09
-8.53909e-10
-1.74586e-07
-1.52949e-09
1.80593e-09
-1.10859e-09
-1.7428e-07
1.75554e-09
-1.43473e-09
-1.73931e-07
1.52294e-09
-1.75421e-09
-1.73671e-07
1.12284e-09
-1.94739e-09
-1.73472e-07
5.97948e-10
-2.15216e-09
-1.73333e-07
-1.25183e-12
-2.24973e-09
-1.73301e-07
-6.00171e-10
-2.25131e-09
-1.73301e-07
-1.12513e-09
-2.15416e-09
-1.73334e-07
-1.52558e-09
-1.95071e-09
-1.73473e-07
-1.75883e-09
-1.75784e-09
-1.73673e-07
-1.81007e-09
-1.43887e-09
-1.73933e-07
-1.70723e-09
-1.11269e-09
-1.74282e-07
-8.57476e-10
-1.74588e-07
-1.53453e-09
1.41466e-09
-7.58343e-10
-1.74822e-07
-1.3035e-09
1.47178e-09
-1.06351e-09
-1.74563e-07
1.43596e-09
-1.47055e-09
-1.74193e-07
1.24071e-09
-1.80482e-09
-1.73932e-07
9.25038e-10
-2.03712e-09
-1.73722e-07
4.97272e-10
-2.24592e-09
-1.7359e-07
-1.78154e-12
-2.328e-09
-1.73561e-07
-5.00546e-10
-2.32984e-09
-1.73561e-07
-9.28226e-10
-2.24793e-09
-1.73591e-07
-1.24402e-09
-2.04035e-09
-1.73723e-07
-1.43973e-09
-1.8081e-09
-1.73933e-07
-1.47593e-09
-1.4742e-09
-1.74195e-07
-1.41884e-09
-1.06699e-09
-1.74565e-07
-7.61015e-10
-1.74824e-07
-1.3074e-09
9.59083e-10
-6.64298e-10
-1.75091e-07
-7.9647e-10
1.06467e-09
-9.5835e-10
-1.74898e-07
1.10941e-09
-1.41404e-09
-1.74563e-07
9.72574e-10
-1.70203e-09
-1.74281e-07
7.27575e-10
-1.95718e-09
-1.74037e-07
3.89176e-10
-2.16507e-09
-1.73887e-07
-2.80408e-12
-2.2352e-09
-1.73846e-07
-3.93754e-10
-2.23779e-09
-1.73847e-07
-7.31867e-10
-2.16679e-09
-1.73887e-07
-9.76626e-10
-1.95988e-09
-1.74038e-07
-1.1132e-09
-1.70451e-09
-1.74282e-07
-1.06814e-09
-1.41659e-09
-1.74564e-07
-9.62191e-10
-9.60379e-10
-1.74899e-07
-6.65285e-10
-1.75093e-07
-7.99155e-10
6.65611e-10
-1.75369e-07
-4.93614e-10
-4.9363e-10
7.59635e-10
-1.75092e-07
-7.96795e-10
8.5466e-10
-1.74823e-07
-1.30421e-09
8.00192e-10
-1.74587e-07
-1.53035e-09
6.25513e-10
-1.74386e-07
-1.73717e-09
3.40145e-10
-1.74256e-07
-1.89473e-09
-3.65417e-12
-1.74215e-07
-1.93663e-09
-3.46199e-10
-1.74216e-07
-1.93975e-09
-6.30681e-10
-1.74256e-07
-1.89585e-09
-8.04412e-10
-1.74386e-07
-1.73874e-09
-8.58135e-10
-1.74588e-07
-1.53111e-09
-7.62535e-10
-1.74823e-07
-1.30452e-09
-6.67593e-10
-1.75093e-07
-7.96576e-10
-1.7537e-07
-4.94691e-10
-4.91982e-10
3.05512e-09
3.05156e-09
-1.81621e-07
-3.09657e-09
-3.0995e-09
2.82747e-09
3.36637e-09
-1.81293e-07
-3.39414e-09
2.55133e-09
4.04092e-09
-1.80978e-07
-4.15942e-09
2.10957e-09
4.38653e-09
-1.80749e-07
-4.48077e-09
1.51977e-09
4.73719e-09
-1.80549e-07
-4.81159e-09
7.94762e-10
4.99746e-09
-1.80445e-07
-5.01834e-09
-7.66571e-13
5.08931e-09
-1.8043e-07
-5.07953e-09
-7.95906e-10
5.09002e-09
-1.8043e-07
-5.08027e-09
-1.52033e-09
4.99814e-09
-1.80446e-07
-5.01869e-09
-2.10921e-09
4.73755e-09
-1.80549e-07
-4.81186e-09
-2.55045e-09
4.38667e-09
-1.80749e-07
-4.48069e-09
-2.82655e-09
4.04093e-09
-1.80979e-07
-4.1595e-09
-3.05474e-09
3.36606e-09
-1.81294e-07
-3.39399e-09
3.05023e-09
-1.81622e-07
-3.09543e-09
-3.10051e-09
3.36975e-09
2.8242e-09
-1.81293e-07
-3.39665e-09
3.19521e-09
3.19154e-09
-1.81124e-07
2.92321e-09
3.76395e-09
-1.8078e-07
2.41564e-09
4.16174e-09
-1.80537e-07
1.74183e-09
4.4774e-09
-1.80306e-07
9.11547e-10
4.75918e-09
-1.80182e-07
-5.59194e-13
4.86567e-09
-1.80172e-07
-9.12358e-10
4.86633e-09
-1.80173e-07
-1.74197e-09
4.75989e-09
-1.80183e-07
-2.41528e-09
4.47787e-09
-1.80306e-07
-2.92253e-09
4.16184e-09
-1.80537e-07
-3.19468e-09
3.7635e-09
-1.80781e-07
-3.36995e-09
3.19046e-09
-1.81125e-07
2.82218e-09
-1.81294e-07
-3.39882e-09
4.04385e-09
2.54833e-09
-1.80977e-07
-4.16114e-09
3.76776e-09
2.91944e-09
-1.8078e-07
3.35277e-09
3.34852e-09
-1.80416e-07
2.71239e-09
3.74206e-09
-1.80235e-07
1.92419e-09
3.97257e-09
-1.80073e-07
1.00345e-09
4.23421e-09
-1.79996e-07
-4.91722e-13
4.34946e-09
-1.80017e-07
-1.00424e-09
4.35014e-09
-1.80017e-07
-1.92433e-09
4.23457e-09
-1.79997e-07
-2.71208e-09
3.97269e-09
-1.80074e-07
-3.3523e-09
3.74158e-09
-1.80236e-07
-3.76787e-09
3.34735e-09
-1.80417e-07
-4.045e-09
2.91744e-09
-1.80781e-07
2.54568e-09
-1.80978e-07
-4.16436e-09
4.38919e-09
2.10681e-09
-1.80748e-07
-4.48181e-09
4.16546e-09
2.41213e-09
-1.80536e-07
3.74618e-09
2.70832e-09
-1.80235e-07
3.07435e-09
3.07048e-09
-1.80079e-07
2.18417e-09
3.23232e-09
-1.79948e-07
1.13719e-09
3.45143e-09
-1.79876e-07
-4.57455e-13
3.55016e-09
-1.79901e-07
-1.13811e-09
3.55079e-09
-1.79901e-07
-2.18466e-09
3.45107e-09
-1.79877e-07
-3.07462e-09
3.23199e-09
-1.79949e-07
-3.74645e-09
3.0692e-09
-1.8008e-07
-4.16653e-09
2.70642e-09
-1.80235e-07
-4.39136e-09
2.40915e-09
-1.80537e-07
2.10349e-09
-1.80749e-07
-4.48584e-09
4.73951e-09
1.51766e-09
-1.80548e-07
-4.8125e-09
4.48096e-09
1.73876e-09
-1.80305e-07
3.97674e-09
1.92062e-09
-1.80073e-07
3.23646e-09
2.18093e-09
-1.79948e-07
2.27324e-09
2.26984e-09
-1.79893e-07
1.17512e-09
2.41611e-09
-1.79854e-07
-5.00555e-13
2.48473e-09
-1.79891e-07
-1.17612e-09
2.4853e-09
-1.79891e-07
-2.27385e-09
2.4152e-09
-1.79854e-07
-3.23678e-09
2.26864e-09
-1.79894e-07
-3.97722e-09
2.17865e-09
-1.79949e-07
-4.48232e-09
1.91788e-09
-1.80074e-07
-4.7421e-09
1.73499e-09
-1.80306e-07
1.51361e-09
-1.80548e-07
-4.81664e-09
4.99904e-09
7.92965e-10
-1.80445e-07
-5.01814e-09
4.76199e-09
9.09191e-10
-1.80181e-07
4.23772e-09
1.0007e-09
-1.79996e-07
3.45504e-09
1.13469e-09
-1.79876e-07
2.41911e-09
1.17252e-09
-1.79854e-07
1.24816e-09
1.24584e-09
-1.79825e-07
-7.27729e-13
1.28314e-09
-1.79867e-07
-1.24907e-09
1.28369e-09
-1.79867e-07
-2.42004e-09
1.24469e-09
-1.79826e-07
-3.45597e-09
1.17038e-09
-1.79855e-07
-4.23845e-09
1.1316e-09
-1.79877e-07
-4.76375e-09
9.97188e-10
-1.79997e-07
-5.00226e-09
9.04836e-10
-1.80182e-07
7.88611e-10
-1.80445e-07
-5.02301e-09
5.08973e-09
-2.14556e-12
-1.80429e-07
-5.07871e-09
4.86727e-09
-2.39364e-12
-1.80172e-07
4.35196e-09
-2.5481e-12
-1.80016e-07
3.55315e-09
-2.53706e-12
-1.79901e-07
2.48748e-09
-2.64129e-12
-1.79891e-07
1.28541e-09
-3.13681e-12
-1.79867e-07
-1.62223e-12
-3.93241e-12
-1.79912e-07
-1.28836e-09
-3.71457e-12
-1.79912e-07
-2.49054e-09
-4.89947e-12
-1.79867e-07
-3.55579e-09
-5.34847e-12
-1.79891e-07
-4.35429e-09
-5.97485e-12
-1.79901e-07
-4.87034e-09
-6.56772e-12
-1.80017e-07
-5.09356e-09
-7.31303e-12
-1.80172e-07
-7.049e-12
-1.80429e-07
-5.08318e-09
5.08954e-09
-7.97473e-10
-1.80429e-07
-5.07799e-09
4.86741e-09
-9.13911e-10
-1.80172e-07
4.3524e-09
-1.00584e-09
-1.80016e-07
3.55362e-09
-1.1398e-09
-1.79901e-07
2.48805e-09
-1.17792e-09
-1.79891e-07
1.28608e-09
-1.25118e-09
-1.79867e-07
-1.27192e-12
-1.29055e-09
-1.79912e-07
-1.28837e-09
-1.2907e-09
-1.79912e-07
-2.49085e-09
-1.25312e-09
-1.79867e-07
-3.55628e-09
-1.1805e-09
-1.79891e-07
-4.35495e-09
-1.14269e-09
-1.79901e-07
-4.871e-09
-1.00936e-09
-1.80017e-07
-5.09485e-09
-9.17747e-10
-1.80172e-07
-8.01058e-10
-1.80429e-07
-5.08482e-09
4.99858e-09
-1.52163e-09
-1.80444e-07
-5.01757e-09
4.76187e-09
-1.74312e-09
-1.80181e-07
4.23781e-09
-1.92543e-09
-1.79996e-07
3.45478e-09
-2.18585e-09
-1.79876e-07
2.41859e-09
-2.27502e-09
-1.79854e-07
1.24743e-09
-2.4214e-09
-1.79825e-07
-2.41683e-12
-2.49179e-09
-1.79867e-07
-1.25138e-09
-2.49229e-09
-1.79867e-07
-2.4227e-09
-2.42341e-09
-1.79826e-07
-3.45848e-09
-2.27761e-09
-1.79854e-07
-4.24049e-09
-2.18841e-09
-1.79876e-07
-4.76478e-09
-1.92865e-09
-1.79996e-07
-5.00221e-09
-1.74628e-09
-1.80182e-07
-1.52438e-09
-1.80444e-07
-5.022e-09
4.73872e-09
-2.11034e-09
-1.80547e-07
-4.81106e-09
4.48084e-09
-2.41604e-09
-1.80305e-07
3.97706e-09
-2.71277e-09
-1.80073e-07
3.23684e-09
-3.07519e-09
-1.79948e-07
2.27312e-09
-3.23723e-09
-1.79893e-07
1.17402e-09
-3.45676e-09
-1.79854e-07
-2.88409e-12
-3.55608e-09
-1.79891e-07
-1.17939e-09
-3.5567e-09
-1.79891e-07
-2.27789e-09
-3.45832e-09
-1.79854e-07
-3.2409e-09
-3.23942e-09
-1.79893e-07
-3.98078e-09
-3.07706e-09
-1.79948e-07
-4.48453e-09
-2.71512e-09
-1.80073e-07
-4.74262e-09
-2.41819e-09
-1.80305e-07
-2.11218e-09
-1.80547e-07
-4.81505e-09
4.38763e-09
-2.55102e-09
-1.80748e-07
-4.47979e-09
4.16475e-09
-2.92273e-09
-1.80536e-07
3.74599e-09
-3.35241e-09
-1.80234e-07
3.07429e-09
-3.7464e-09
-1.80079e-07
2.18362e-09
-3.97728e-09
-1.79948e-07
1.13579e-09
-4.2387e-09
-1.79876e-07
-3.10664e-12
-4.3541e-09
-1.79901e-07
-1.14154e-09
-4.35473e-09
-1.79901e-07
-2.18888e-09
-4.23952e-09
-1.79876e-07
-3.0789e-09
-3.97864e-09
-1.79948e-07
-3.75002e-09
-3.74735e-09
-1.80079e-07
-4.16834e-09
-3.35381e-09
-1.80235e-07
-4.39088e-09
-2.92391e-09
-1.80536e-07
-2.55184e-09
-1.80748e-07
-4.4827e-09
4.04192e-09
-2.82608e-09
-1.80977e-07
-4.15868e-09
3.76659e-09
-3.1939e-09
-1.8078e-07
3.35209e-09
-3.76694e-09
-1.80416e-07
2.712e-09
-4.16539e-09
-1.80235e-07
1.92349e-09
-4.48155e-09
-1.80073e-07
1.00196e-09
-4.76332e-09
-1.79996e-07
-3.2207e-12
-4.86986e-09
-1.80017e-07
-1.00791e-09
-4.87061e-09
-1.80017e-07
-1.92892e-09
-4.76366e-09
-1.79996e-07
-2.71678e-09
-4.48225e-09
-1.80073e-07
-3.35637e-09
-4.16544e-09
-1.80235e-07
-3.77029e-09
-3.76753e-09
-1.80416e-07
-4.04492e-09
-3.19434e-09
-1.8078e-07
-2.82593e-09
-1.80977e-07
-4.16115e-09
3.36687e-09
-3.05272e-09
-1.81293e-07
-3.39325e-09
3.19337e-09
-3.36782e-09
-1.81124e-07
2.92207e-09
-4.04271e-09
-1.8078e-07
2.41489e-09
-4.38891e-09
-1.80536e-07
1.74096e-09
-4.74016e-09
-1.80305e-07
9.09949e-10
-5.00063e-09
-1.80182e-07
-3.49257e-12
-5.09256e-09
-1.80172e-07
-9.15864e-10
-5.09415e-09
-1.80172e-07
-1.74634e-09
-5.00079e-09
-1.80182e-07
-2.41957e-09
-4.74053e-09
-1.80305e-07
-2.92604e-09
-4.38832e-09
-1.80536e-07
-3.19664e-09
-4.04247e-09
-1.8078e-07
-3.36947e-09
-3.36724e-09
-1.81124e-07
-3.05124e-09
-1.81293e-07
-3.39561e-09
3.05188e-09
-1.81621e-07
-3.09708e-09
-3.09548e-09
2.82553e-09
-1.81293e-07
-3.39527e-09
2.5504e-09
-1.80978e-07
-4.1605e-09
2.10922e-09
-1.80748e-07
-4.48208e-09
1.5194e-09
-1.80548e-07
-4.81329e-09
7.93516e-10
-1.80445e-07
-5.02001e-09
-3.45318e-12
-1.80429e-07
-5.08118e-09
-7.99164e-10
-1.80429e-07
-5.08366e-09
-1.52452e-09
-1.80445e-07
-5.01985e-09
-2.11348e-09
-1.80548e-07
-4.81329e-09
-2.55415e-09
-1.80748e-07
-4.4805e-09
-2.82867e-09
-1.80977e-07
-4.15914e-09
-3.05422e-09
-1.81292e-07
-3.39342e-09
-1.81621e-07
-3.09698e-09
-3.09454e-09
6.71834e-09
6.71534e-09
-1.86846e-07
-7.20162e-09
-7.20415e-09
5.93192e-09
6.981e-09
-1.8647e-07
-7.45507e-09
5.0342e-09
7.81112e-09
-1.8613e-07
-8.41124e-09
3.9465e-09
8.11211e-09
-1.85885e-07
-8.76253e-09
2.72759e-09
8.46294e-09
-1.85686e-07
-9.18929e-09
1.39037e-09
8.68622e-09
-1.85592e-07
-9.38112e-09
-1.85657e-12
8.74618e-09
-1.85591e-07
-9.43559e-09
-1.39348e-09
8.7475e-09
-1.85591e-07
-9.43744e-09
-2.73069e-09
8.68678e-09
-1.85592e-07
-9.38154e-09
-3.94858e-09
8.46351e-09
-1.85686e-07
-9.19047e-09
-5.03604e-09
8.11244e-09
-1.85884e-07
-8.76359e-09
-5.9335e-09
7.81225e-09
-1.86128e-07
-8.4128e-09
-6.72016e-09
6.98205e-09
-1.86468e-07
-7.45614e-09
6.71579e-09
-1.86844e-07
-7.2022e-09
-7.20649e-09
6.98372e-09
5.92896e-09
-1.8647e-07
-7.45705e-09
6.24459e-09
6.24158e-09
-1.86283e-07
5.38692e-09
6.85773e-09
-1.85932e-07
4.25896e-09
7.17151e-09
-1.85708e-07
2.98722e-09
7.50024e-09
-1.85503e-07
1.54249e-09
7.78158e-09
-1.85402e-07
-1.45406e-12
7.8548e-09
-1.85414e-07
-1.54523e-09
7.85591e-09
-1.85414e-07
-2.98958e-09
7.78227e-09
-1.85402e-07
-4.2609e-09
7.50082e-09
-1.85503e-07
-5.3885e-09
7.17175e-09
-1.85707e-07
-6.24601e-09
6.8577e-09
-1.85931e-07
-6.98542e-09
6.24173e-09
-1.86281e-07
5.92875e-09
-1.86468e-07
-7.45985e-09
7.81326e-09
5.03164e-09
-1.86129e-07
-8.41261e-09
6.86028e-09
5.38391e-09
-1.85932e-07
5.79524e-09
5.79222e-09
-1.85606e-07
4.52011e-09
6.11622e-09
-1.85479e-07
3.10561e-09
6.32456e-09
-1.85332e-07
1.58066e-09
6.56062e-09
-1.85286e-07
-1.30051e-12
6.6215e-09
-1.85344e-07
-1.58314e-09
6.62245e-09
-1.85344e-07
-3.10779e-09
6.56088e-09
-1.85285e-07
-4.522e-09
6.32452e-09
-1.85332e-07
-5.79671e-09
6.11605e-09
-1.85478e-07
-6.86184e-09
5.79118e-09
-1.85604e-07
-7.81539e-09
5.38284e-09
-1.8593e-07
5.0304e-09
-1.86127e-07
-8.41592e-09
8.1131e-09
3.94407e-09
-1.85884e-07
-8.76235e-09
7.17393e-09
4.25635e-09
-1.85707e-07
6.11966e-09
4.5169e-09
-1.85478e-07
4.83388e-09
4.83101e-09
-1.85393e-07
3.34611e-09
4.93407e-09
-1.85281e-07
1.70984e-09
5.13824e-09
-1.85238e-07
-1.33206e-12
5.19723e-09
-1.85308e-07
-1.71262e-09
5.1981e-09
-1.85308e-07
-3.34857e-09
5.13806e-09
-1.85238e-07
-4.83601e-09
4.93353e-09
-1.8528e-07
-6.12194e-09
4.8295e-09
-1.85392e-07
-7.17631e-09
4.51524e-09
-1.85477e-07
-8.11558e-09
4.25386e-09
-1.85705e-07
3.94183e-09
-1.85882e-07
-8.76643e-09
8.46416e-09
2.72622e-09
-1.85685e-07
-9.18949e-09
7.50279e-09
2.98525e-09
-1.85502e-07
6.32774e-09
3.1027e-09
-1.85332e-07
4.93738e-09
3.34367e-09
-1.8528e-07
3.37828e-09
3.37559e-09
-1.8528e-07
1.71614e-09
3.51124e-09
-1.85288e-07
-1.44545e-12
3.55411e-09
-1.85391e-07
-1.71908e-09
3.55484e-09
-1.85391e-07
-3.38096e-09
3.51059e-09
-1.85287e-07
-4.93968e-09
3.37431e-09
-1.8528e-07
-6.32987e-09
3.34145e-09
-1.85279e-07
-7.50525e-09
3.10025e-09
-1.8533e-07
-8.46652e-09
2.98181e-09
-1.855e-07
2.72306e-09
-1.85682e-07
-9.19255e-09
8.68659e-09
1.38932e-09
-1.8559e-07
-9.37963e-09
7.78342e-09
1.54113e-09
-1.854e-07
6.56305e-09
1.57863e-09
-1.85285e-07
5.14087e-09
1.70816e-09
-1.85237e-07
3.51341e-09
1.71427e-09
-1.85287e-07
1.78248e-09
1.78073e-09
-1.85309e-07
-1.47949e-12
1.80184e-09
-1.85421e-07
-1.78544e-09
1.80236e-09
-1.8542e-07
-3.5161e-09
1.77968e-09
-1.85308e-07
-5.14311e-09
1.7123e-09
-1.85286e-07
-6.56518e-09
1.70523e-09
-1.85236e-07
-7.78573e-09
1.57532e-09
-1.85283e-07
-8.68937e-09
1.53734e-09
-1.85399e-07
1.38591e-09
-1.85588e-07
-9.38348e-09
8.74611e-09
-1.92601e-12
-1.85589e-07
-9.43462e-09
7.85577e-09
-2.24503e-12
-1.85412e-07
6.62313e-09
-2.44362e-12
-1.85342e-07
5.19933e-09
-2.58699e-12
-1.85306e-07
3.55594e-09
-2.83846e-12
-1.8539e-07
1.80351e-09
-3.16461e-12
-1.8542e-07
-2.38557e-12
-4.16978e-12
-1.85537e-07
-1.80818e-09
-3.87372e-12
-1.85536e-07
-3.5603e-09
-4.36058e-12
-1.8542e-07
-5.20321e-09
-4.84755e-12
-1.85389e-07
-6.62683e-09
-5.28948e-12
-1.85305e-07
-7.85927e-09
-5.70203e-12
-1.85341e-07
-8.7494e-09
-5.86916e-12
-1.8541e-07
-5.56866e-12
-1.85586e-07
-9.43804e-09
8.74564e-09
-1.39394e-09
-1.85588e-07
-9.43356e-09
7.8555e-09
-1.54563e-09
-1.85412e-07
6.62305e-09
-1.58376e-09
-1.85342e-07
5.19936e-09
-1.71356e-09
-1.85306e-07
3.55619e-09
-1.72021e-09
-1.8539e-07
1.80388e-09
-1.78721e-09
-1.8542e-07
-2.06824e-12
-1.81009e-09
-1.85536e-07
-1.80787e-09
-1.80998e-09
-1.85536e-07
-3.56004e-09
-1.78825e-09
-1.85419e-07
-5.2029e-09
-1.72178e-09
-1.85389e-07
-6.62647e-09
-1.71543e-09
-1.85304e-07
-7.85876e-09
-1.58616e-09
-1.8534e-07
-8.74916e-09
-1.54804e-09
-1.8541e-07
-1.39608e-09
-1.85585e-07
-9.43801e-09
8.68632e-09
-2.7307e-09
-1.85589e-07
-9.37966e-09
7.78295e-09
-2.98937e-09
-1.854e-07
6.56261e-09
-3.10793e-09
-1.85284e-07
5.1404e-09
-3.34902e-09
-1.85236e-07
3.51284e-09
-3.38141e-09
-1.85286e-07
1.78168e-09
-3.51735e-09
-1.85308e-07
-2.68733e-12
-3.56155e-09
-1.85419e-07
-1.78682e-09
-3.56175e-09
-1.85419e-07
-3.51767e-09
-3.51849e-09
-1.85307e-07
-5.14454e-09
-3.38308e-09
-1.85285e-07
-6.56615e-09
-3.3507e-09
-1.85235e-07
-7.78585e-09
-3.11001e-09
-1.85281e-07
-8.68882e-09
-2.991e-09
-1.85397e-07
-2.73198e-09
-1.85586e-07
-9.38217e-09
8.46346e-09
-3.94902e-09
-1.85683e-07
-9.18828e-09
7.50255e-09
-4.26075e-09
-1.85501e-07
6.32738e-09
-4.52199e-09
-1.8533e-07
4.93684e-09
-4.83607e-09
-1.85279e-07
3.37741e-09
-4.93951e-09
-1.85279e-07
1.71475e-09
-5.14362e-09
-1.85286e-07
-3.30002e-12
-5.20341e-09
-1.85389e-07
-1.72105e-09
-5.20377e-09
-1.85389e-07
-3.38331e-09
-5.14459e-09
-1.85285e-07
-4.94192e-09
-4.94078e-09
-1.85277e-07
-6.33154e-09
-4.83687e-09
-1.85277e-07
-7.50588e-09
-4.52297e-09
-1.85328e-07
-8.46596e-09
-4.26098e-09
-1.85498e-07
-3.94909e-09
-1.8568e-07
-9.19025e-09
8.11233e-09
-5.03661e-09
-1.85882e-07
-8.76188e-09
7.17351e-09
-5.38863e-09
-1.85705e-07
6.11921e-09
-5.79675e-09
-1.85476e-07
4.83305e-09
-6.1217e-09
-1.85391e-07
3.34499e-09
-6.32953e-09
-1.85278e-07
1.70809e-09
-6.56526e-09
-1.85236e-07
-3.44364e-12
-6.62642e-09
-1.85305e-07
-1.71464e-09
-6.62678e-09
-1.85305e-07
-3.35107e-09
-6.56557e-09
-1.85235e-07
-4.83836e-09
-6.3296e-09
-1.85277e-07
-6.12357e-09
-6.12121e-09
-1.85388e-07
-7.17677e-09
-5.7963e-09
-1.85474e-07
-8.11465e-09
-5.38743e-09
-1.85702e-07
-5.03538e-09
-1.85879e-07
-8.76365e-09
7.81259e-09
-5.93421e-09
-1.86126e-07
-8.41135e-09
6.85974e-09
-6.24624e-09
-1.85929e-07
5.79457e-09
-6.86192e-09
-1.85603e-07
4.51942e-09
-7.17593e-09
-1.85476e-07
3.10449e-09
-7.50478e-09
-1.8533e-07
1.57872e-09
-7.78534e-09
-1.85283e-07
-3.46296e-12
-7.85853e-09
-1.85341e-07
-1.58517e-09
-7.85894e-09
-1.85341e-07
-3.11022e-09
-7.78499e-09
-1.85282e-07
-4.52428e-09
-7.50371e-09
-1.85328e-07
-5.7986e-09
-7.17382e-09
-1.85474e-07
-6.86292e-09
-6.86006e-09
-1.856e-07
-7.81497e-09
-6.24391e-09
-1.85926e-07
-5.93173e-09
-1.86123e-07
-8.41345e-09
6.98246e-09
-6.72053e-09
-1.86466e-07
-7.4549e-09
6.24394e-09
-6.98529e-09
-1.86279e-07
5.38637e-09
-7.81506e-09
-1.85929e-07
4.25798e-09
-8.11494e-09
-1.85704e-07
2.98604e-09
-8.46562e-09
-1.855e-07
1.54123e-09
-8.68865e-09
-1.85399e-07
-3.0801e-12
-8.74849e-09
-1.85411e-07
-1.54674e-09
-8.74937e-09
-1.8541e-07
-2.99111e-09
-8.68769e-09
-1.85398e-07
-4.26221e-09
-8.46376e-09
-1.85498e-07
-5.38968e-09
-8.11163e-09
-1.85702e-07
-6.24668e-09
-7.81215e-09
-1.85927e-07
-6.98487e-09
-6.98204e-09
-1.86276e-07
-6.71664e-09
-1.86463e-07
-7.45769e-09
6.71705e-09
-1.86843e-07
-7.20581e-09
-7.20196e-09
5.93163e-09
-1.86466e-07
-7.45884e-09
5.0344e-09
-1.86126e-07
-8.41455e-09
3.94675e-09
-1.85882e-07
-8.76517e-09
2.72786e-09
-1.85683e-07
-9.19071e-09
1.39003e-09
-1.85588e-07
-9.38215e-09
-2.77443e-12
-1.85587e-07
-9.43662e-09
-1.39468e-09
-1.85586e-07
-9.43826e-09
-2.7321e-09
-1.85587e-07
-9.38087e-09
-3.95006e-09
-1.85681e-07
-9.18883e-09
-5.03742e-09
-1.8588e-07
-8.76136e-09
-5.93433e-09
-1.86124e-07
-8.41139e-09
-6.71968e-09
-1.86464e-07
-7.45515e-09
-1.86839e-07
-7.20435e-09
-7.20215e-09
1.00238e-08
1.00246e-08
-1.9109e-07
-1.10724e-08
-1.10701e-08
8.5932e-09
1.01229e-08
-1.90685e-07
-1.11516e-08
7.07957e-09
1.08908e-08
-1.90296e-07
-1.21349e-08
5.45029e-09
1.10918e-08
-1.90023e-07
-1.23995e-08
3.71323e-09
1.14368e-08
-1.89779e-07
-1.2849e-08
1.87372e-09
1.16378e-08
-1.89653e-07
-1.30141e-08
-3.16221e-13
1.16502e-08
-1.89647e-07
-1.30272e-08
-1.87434e-09
1.16512e-08
-1.89647e-07
-1.30283e-08
-3.71404e-09
1.16374e-08
-1.89652e-07
-1.30132e-08
-5.45005e-09
1.14373e-08
-1.89777e-07
-1.28493e-08
-7.07919e-09
1.10909e-08
-1.90021e-07
-1.23987e-08
-8.5925e-09
1.08901e-08
-1.90293e-07
-1.21339e-08
-1.00234e-08
1.01216e-08
-1.90681e-07
-1.11499e-08
1.0023e-08
-1.91086e-07
-1.10705e-08
-1.10701e-08
1.0121e-08
8.59338e-09
-1.90684e-07
-1.11493e-08
8.82221e-09
8.82324e-09
-1.90479e-07
7.40404e-09
9.38399e-09
-1.90107e-07
5.72723e-09
9.53521e-09
-1.89862e-07
3.92647e-09
9.72707e-09
-1.89533e-07
1.98961e-09
9.87639e-09
-1.89329e-07
-4.14045e-13
9.87121e-09
-1.89306e-07
-1.99056e-09
9.87228e-09
-1.89305e-07
-3.92716e-09
9.87597e-09
-1.89329e-07
-5.72723e-09
9.72642e-09
-1.89532e-07
-7.40391e-09
9.53397e-09
-1.8986e-07
-8.8216e-09
9.38291e-09
-1.90104e-07
-1.01201e-08
8.82207e-09
-1.90475e-07
8.59236e-09
-1.90681e-07
-1.11494e-08
1.08889e-08
7.0798e-09
-1.90295e-07
-1.21324e-08
9.38265e-09
7.40404e-09
-1.90107e-07
7.73077e-09
7.7313e-09
-1.89725e-07
5.8087e-09
7.84332e-09
-1.89429e-07
3.88292e-09
7.88011e-09
-1.89195e-07
1.93849e-09
7.96334e-09
-1.89084e-07
-5.56162e-13
7.91599e-09
-1.8913e-07
-1.93942e-09
7.91688e-09
-1.8913e-07
-3.88376e-09
7.96301e-09
-1.89083e-07
-5.80918e-09
7.87938e-09
-1.89193e-07
-7.7306e-09
7.84206e-09
-1.89427e-07
-9.3821e-09
7.72998e-09
-1.89722e-07
-1.08883e-08
7.40265e-09
-1.90103e-07
7.07846e-09
-1.90291e-07
-1.21321e-08
1.10894e-08
5.44986e-09
-1.90022e-07
-1.2396e-08
9.53358e-09
5.72732e-09
-1.89861e-07
7.84251e-09
5.80866e-09
-1.89428e-07
5.956e-09
5.95645e-09
-1.89233e-07
4.00529e-09
5.93279e-09
-1.89049e-07
2.00971e-09
6.0154e-09
-1.88944e-07
-8.05075e-13
5.96821e-09
-1.89e-07
-2.01137e-09
5.969e-09
-1.89e-07
-4.00664e-09
6.0151e-09
-1.88943e-07
-5.95684e-09
5.93211e-09
-1.89048e-07
-7.84277e-09
5.95518e-09
-1.8923e-07
-9.53347e-09
5.80732e-09
-1.89425e-07
-1.10894e-08
5.72532e-09
-1.89858e-07
5.4482e-09
-1.90018e-07
-1.23966e-08
1.14349e-08
3.71316e-09
-1.89777e-07
-1.28462e-08
9.72592e-09
3.92689e-09
-1.89532e-07
7.87955e-09
3.88285e-09
-1.89194e-07
5.93249e-09
4.0058e-09
-1.89049e-07
3.9491e-09
3.94956e-09
-1.8897e-07
1.96909e-09
4.00184e-09
-1.88902e-07
-9.92389e-13
3.96324e-09
-1.8901e-07
-1.97099e-09
3.96381e-09
-1.89009e-07
-3.95072e-09
4.00152e-09
-1.889e-07
-5.93356e-09
3.94888e-09
-1.88968e-07
-7.87999e-09
4.00457e-09
-1.89046e-07
-9.72579e-09
3.88129e-09
-1.89191e-07
-1.14352e-08
3.92477e-09
-1.89528e-07
3.71128e-09
-1.89772e-07
-1.2846e-08
1.16347e-08
1.87352e-09
-1.89651e-07
-1.30097e-08
9.87461e-09
1.98981e-09
-1.89328e-07
7.96238e-09
1.9384e-09
-1.89083e-07
6.01481e-09
2.01022e-09
-1.88943e-07
4.00111e-09
1.96961e-09
-1.88901e-07
1.99377e-09
1.99436e-09
-1.88837e-07
-8.8653e-13
1.97275e-09
-1.8896e-07
-1.99545e-09
1.97305e-09
-1.8896e-07
-4.00257e-09
1.99399e-09
-1.88836e-07
-6.01568e-09
1.96892e-09
-1.88899e-07
-7.96283e-09
2.00916e-09
-1.8894e-07
-9.87482e-09
1.93703e-09
-1.8908e-07
-1.16349e-08
1.98834e-09
-1.89324e-07
1.87191e-09
-1.89646e-07
-1.30098e-08
1.16477e-08