/*--------------------------------*- C++ -*----------------------------------*\
| =========                 |                                                 |
| \\      /  F ield         | OpenFOAM: The Open Source CFD Toolbox           |
|  \\    /   O peration     | Version:  v2106                                 |
|   \\  /    A nd           | Website:  www.openfoam.com                      |
|    \\/     M anipulation  |                                                 |
\*---------------------------------------------------------------------------*/
FoamFile
{
    version     2.0;
    format      ascii;
    arch        "LSB;label=32;scalar=64";
    class       volVectorField;
    location    "0.000154";
    object      U;
}
// * * * * * * * * * * * * * * * * * * * * * * * * * * * * * * * * * * * * * //

dimensions      [0 1 -1 0 0 0 0];

internalField   nonuniform List<vector> 
17927
(
(0.00541801 0.00541757 -0.77703)
(0.00459868 0.00583782 -0.776354)
(0.00403449 0.00611185 -0.775561)
(0.00331611 0.00623327 -0.774848)
(0.00247751 0.00629907 -0.774203)
(0.00152989 0.00640687 -0.773752)
(0.000465354 0.00638911 -0.773617)
(0.00583815 0.00459701 -0.776353)
(0.00474595 0.00474424 -0.775771)
(0.00416629 0.00508403 -0.774674)
(0.00330644 0.00539831 -0.773725)
(0.00241768 0.00558451 -0.772926)
(0.00148526 0.00576541 -0.772374)
(0.000431387 0.00581522 -0.772198)
(0.00610999 0.00402792 -0.775563)
(0.00508494 0.00416001 -0.774674)
(0.00444239 0.00443661 -0.773504)
(0.00359506 0.00466254 -0.772506)
(0.00266783 0.00477293 -0.771692)
(0.00166488 0.00492092 -0.771096)
(0.000483124 0.00497719 -0.770893)
(0.00623147 0.00330543 -0.774851)
(0.00540028 0.00329555 -0.773725)
(0.00466859 0.00358454 -0.772505)
(0.0038361 0.00382555 -0.771385)
(0.00282896 0.00395308 -0.770527)
(0.00177052 0.00410486 -0.769869)
(0.000504471 0.00418779 -0.769631)
(0.00629643 0.00246418 -0.774203)
(0.00558645 0.00240343 -0.772924)
(0.00477855 0.00265363 -0.77169)
(0.0039631 0.00281496 -0.770526)
(0.00292933 0.0029162 -0.769655)
(0.00184346 0.00303545 -0.768956)
(0.000518099 0.00312191 -0.768686)
(0.00640223 0.00151442 -0.773749)
(0.0057663 0.00146857 -0.77237)
(0.0049258 0.0016479 -0.771091)
(0.00411459 0.00175395 -0.769865)
(0.00304844 0.00182798 -0.768954)
(0.00192621 0.00191093 -0.76821)
(0.000532748 0.00197381 -0.767925)
(0.00638186 0.000448277 -0.773614)
(0.0058141 0.000413077 -0.772192)
(0.00498056 0.000464668 -0.770886)
(0.00419615 0.000486273 -0.769624)
(0.0031341 0.000500435 -0.768681)
(0.00198924 0.000517116 -0.767922)
(0.000546985 0.000532695 -0.767633)
(0.00637833 -0.000459169 -0.773613)
(0.00581189 -0.00042817 -0.772191)
(0.00498001 -0.00048257 -0.770884)
(0.00419755 -0.000505744 -0.76962)
(0.00313696 -0.000520863 -0.768676)
(0.00199179 -0.000537602 -0.767917)
(0.000549577 -0.00055513 -0.767627)
(0.00639667 -0.001522 -0.773749)
(0.00576161 -0.00147984 -0.772369)
(0.00492298 -0.00166261 -0.771089)
(0.00411348 -0.00177132 -0.769861)
(0.00304838 -0.00184677 -0.768947)
(0.00192632 -0.00192989 -0.768203)
(0.000532564 -0.00199467 -0.767917)
(0.00893047 0.00892608 -0.805234)
(0.00757141 0.00941384 -0.804128)
(0.00671836 0.01022 -0.802991)
(0.00551884 0.0105689 -0.802006)
(0.00415768 0.0108729 -0.801133)
(0.00258928 0.0111136 -0.800541)
(0.000808557 0.0111623 -0.800353)
(-0.000803113 0.0111612 -0.800357)
(-0.00258363 0.0111122 -0.800547)
(-0.00415099 0.0108701 -0.801143)
(-0.0055111 0.0105651 -0.80202)
(-0.00671128 0.0102157 -0.803006)
(-0.00756629 0.00940944 -0.804144)
(-0.0089289 0.00891964 -0.805252)
(0.00941771 0.00756601 -0.804127)
(0.00794786 0.00794249 -0.803294)
(0.007214 0.00869244 -0.801826)
(0.00587031 0.00930062 -0.80059)
(0.00439123 0.00980179 -0.799517)
(0.00272236 0.0102006 -0.798821)
(0.000832181 0.0103489 -0.798616)
(-0.000827432 0.0103488 -0.798619)
(-0.00271683 0.0102002 -0.798827)
(-0.00438433 0.00980011 -0.799526)
(-0.00586317 0.00929745 -0.800601)
(-0.0072081 0.00868715 -0.801839)
(-0.00794477 0.00793536 -0.803309)
(-0.00941832 0.00755628 -0.804145)
(0.0102229 0.00671192 -0.802991)
(0.00869714 0.00720735 -0.801826)
(0.00781686 0.0078101 -0.800214)
(0.0063676 0.00832516 -0.799003)
(0.00476189 0.0086387 -0.798006)
(0.0029719 0.00896083 -0.797328)
(0.00091698 0.00909855 -0.797137)
(-0.000913122 0.00909911 -0.797139)
(-0.00296738 0.00896044 -0.797333)
(-0.00475615 0.00863716 -0.798014)
(-0.006362 0.00832161 -0.799013)
(-0.00781247 0.00780444 -0.800226)
(-0.00869686 0.00719971 -0.801838)
(-0.0102254 0.00670331 -0.803005)
(0.0105712 0.00551115 -0.802008)
(0.00930523 0.00586228 -0.80059)
(0.0083318 0.00635927 -0.799003)
(0.0068879 0.00687978 -0.79772)
(0.00515007 0.00718034 -0.796721)
(0.00322059 0.0075047 -0.795988)
(0.000990647 0.00766726 -0.795769)
(-0.00098728 0.00766833 -0.795772)
(-0.00321694 0.00750436 -0.795992)
(-0.00514574 0.00717925 -0.796728)
(-0.00688425 0.00687668 -0.797728)
(-0.00832967 0.00635436 -0.799014)
(-0.00930777 0.00585479 -0.8006)
(-0.0105758 0.00550261 -0.802018)
(0.0108747 0.00415011 -0.801133)
(0.00980648 0.00438287 -0.799516)
(0.00864529 0.00475294 -0.798005)
(0.00718852 0.00514151 -0.79672)
(0.00535932 0.00535094 -0.795829)
(0.00335689 0.00559415 -0.795112)
(0.00103421 0.00573208 -0.794894)
(-0.00103113 0.00573349 -0.794896)
(-0.00335363 0.00559355 -0.795116)
(-0.00535578 0.00534966 -0.795835)
(-0.00718577 0.00513825 -0.796728)
(-0.00864448 0.00474845 -0.798014)
(-0.00981002 0.00437606 -0.799525)
(-0.010881 0.00414206 -0.801141)
(0.0111141 0.00258134 -0.800539)
(0.0102043 0.00271349 -0.798819)
(0.00896656 0.00296252 -0.797326)
(0.00751216 0.00321176 -0.795986)
(0.00560204 0.00334863 -0.795112)
(0.00351294 0.00350494 -0.794372)
(0.0010837 0.00359615 -0.794161)
(-0.00108017 0.00359732 -0.794163)
(-0.00350938 0.00350366 -0.794376)
(-0.00559882 0.0033465 -0.795118)
(-0.00751027 0.00320794 -0.795995)
(-0.00896735 0.00295771 -0.797336)
(-0.0102093 0.00270677 -0.798828)
(-0.0111224 0.00257325 -0.800547)
(0.0111616 0.000799768 -0.800351)
(0.0103517 0.000822938 -0.798613)
(0.00910349 0.000907889 -0.797133)
(0.00767402 0.000982654 -0.795766)
(0.00573969 0.00102759 -0.794892)
(0.00360414 0.00107736 -0.794159)
(0.00111436 0.00110811 -0.793959)
(-0.00111302 0.00110932 -0.793962)
(-0.00360253 0.00107669 -0.794163)
(-0.00573856 0.00102666 -0.794898)
(-0.00767443 0.000980847 -0.795774)
(-0.00910657 0.000905131 -0.797142)
(-0.0103581 0.000818187 -0.798621)
(-0.01117 0.000793115 -0.80036)
(0.0111602 -0.000809947 -0.80035)
(0.010351 -0.000834905 -0.798611)
(0.0091039 -0.000921128 -0.797131)
(0.00767511 -0.000995583 -0.795764)
(0.00574147 -0.00104008 -0.79489)
(0.00360568 -0.00108914 -0.794158)
(0.00111575 -0.00112155 -0.793958)
(-0.00111398 -0.00112237 -0.79396)
(-0.00360404 -0.00109318 -0.794162)
(-0.00574106 -0.00104569 -0.794897)
(-0.00767707 -0.00100216 -0.795774)
(-0.00910992 -0.000928566 -0.797141)
(-0.0103602 -0.000843966 -0.798622)
(-0.0111747 -0.000818876 -0.800359)
(0.0111111 -0.00258977 -0.800539)
(0.0102026 -0.00272353 -0.798818)
(0.00896631 -0.00297412 -0.797324)
(0.00751277 -0.00322361 -0.795984)
(0.00560303 -0.00336062 -0.795109)
(0.0035132 -0.0035165 -0.794369)
(0.00108375 -0.00360907 -0.794158)
(-0.00108473 -0.00361001 -0.794161)
(-0.0035137 -0.00351914 -0.794374)
(-0.00560387 -0.00336455 -0.795116)
(-0.00751482 -0.00322784 -0.795993)
(-0.00897126 -0.00297954 -0.797334)
(-0.0102103 -0.00272961 -0.798828)
(-0.0111225 -0.00259571 -0.800548)
(0.0108694 -0.00415487 -0.801133)
(0.00980346 -0.00438913 -0.799515)
(0.00864473 -0.00476113 -0.798003)
(0.00718952 -0.0051507 -0.796718)
(0.00536094 -0.00536124 -0.795826)
(0.00335749 -0.00560469 -0.795109)
(0.00103449 -0.00574386 -0.794891)
(-0.00103748 -0.00574563 -0.794894)
(-0.00336036 -0.00560777 -0.795114)
(-0.00536404 -0.00536619 -0.795833)
(-0.00719344 -0.00515607 -0.796727)
(-0.00865083 -0.00476778 -0.798013)
(-0.00981182 -0.0043965 -0.799525)
(-0.01088 -0.00416149 -0.801141)
(0.0105638 -0.00551203 -0.80201)
(0.00930038 -0.00586436 -0.80059)
(0.00832925 -0.00636346 -0.799002)
(0.00688716 -0.00688569 -0.797718)
(0.0051501 -0.00718821 -0.796719)
(0.00321985 -0.00751365 -0.795985)
(0.000989486 -0.00767767 -0.795766)
(-0.000993844 -0.00767988 -0.795769)
(-0.00322409 -0.00751685 -0.795989)
(-0.00515459 -0.00719359 -0.796725)
(-0.00689221 -0.00689154 -0.797726)
(-0.0083356 -0.00637019 -0.799011)
(-0.00930791 -0.00587122 -0.800599)
(-0.0105726 -0.00551818 -0.802018)
(0.0102141 -0.0067081 -0.802997)
(0.00868977 -0.00720495 -0.801829)
(0.00781163 -0.00780955 -0.800215)
(0.00636467 -0.00832715 -0.799003)
(0.00476027 -0.0086436 -0.798004)
(0.00296974 -0.00896766 -0.797326)
(0.00091422 -0.00910721 -0.797133)
(-0.000920252 -0.00911041 -0.797135)
(-0.00297555 -0.00897124 -0.797329)
(-0.00476607 -0.00864926 -0.79801)
(-0.00637062 -0.00833325 -0.79901)
(-0.0078186 -0.00781642 -0.800224)
(-0.0086967 -0.00721162 -0.801838)
(-0.0102211 -0.0067139 -0.803006)
(0.00940819 -0.00755811 -0.804137)
(0.00793803 -0.00793638 -0.803301)
(0.00720669 -0.00868829 -0.80183)
(0.00586477 -0.00929932 -0.800591)
(0.00438737 -0.00980347 -0.799517)
(0.00271803 -0.0102045 -0.798821)
(0.000826984 -0.0103547 -0.798612)
(-0.000836136 -0.0103576 -0.798615)
(-0.00272552 -0.0102075 -0.798823)
(-0.0043949 -0.00980829 -0.799521)
(-0.00587131 -0.00930368 -0.800597)
(-0.00721306 -0.00869291 -0.801837)
(-0.00794346 -0.00794048 -0.803309)
(-0.00941347 -0.00756072 -0.804146)
(0.00891851 -0.00891742 -0.805248)
(0.00756031 -0.00940831 -0.80414)
(0.00671004 -0.010214 -0.803)
(0.00551206 -0.010564 -0.802013)
(0.0041523 -0.0108704 -0.801136)
(0.00258303 -0.0111131 -0.800543)
(0.000800977 -0.0111632 -0.800351)
(-0.000812689 -0.0111692 -0.800352)
(-0.0025923 -0.0111162 -0.800545)
(-0.00416056 -0.010875 -0.801138)
(-0.00551846 -0.0105681 -0.802016)
(-0.00671557 -0.0102174 -0.803003)
(-0.00756478 -0.00941003 -0.804143)
(-0.00892135 -0.00891742 -0.805255)
(0.0134933 0.0134879 -0.830008)
(0.0114051 0.0138748 -0.828541)
(0.0100427 0.0150728 -0.827132)
(0.00812874 0.0155257 -0.825995)
(0.00607548 0.0160119 -0.825016)
(0.00375666 0.0163295 -0.824423)
(0.00121394 0.0164175 -0.824266)
(-0.00121625 0.0164187 -0.824268)
(-0.003758 0.0163305 -0.824427)
(-0.0060758 0.0160122 -0.825022)
(-0.0081275 0.0155257 -0.826003)
(-0.0100412 0.0150729 -0.827141)
(-0.0114039 0.0138745 -0.828551)
(-0.0134941 0.0134863 -0.83002)
(0.0138795 0.0113992 -0.82854)
(0.0118789 0.0118728 -0.82762)
(0.0106752 0.0129225 -0.82596)
(0.00868756 0.0136371 -0.824661)
(0.00652654 0.0143033 -0.823483)
(0.00404773 0.0148148 -0.822789)
(0.00130319 0.0149975 -0.822641)
(-0.00130484 0.0149986 -0.822643)
(-0.00404855 0.0148159 -0.822793)
(-0.00652645 0.0143042 -0.823487)
(-0.00868668 0.0136374 -0.824667)
(-0.0106742 0.0129222 -0.825968)
(-0.0118784 0.0118715 -0.827629)
(-0.0138815 0.0113961 -0.828552)
(0.0150767 0.0100376 -0.82713)
(0.0129283 0.010669 -0.825959)
(0.0115003 0.0114935 -0.82413)
(0.00928433 0.0121108 -0.823002)
(0.00689213 0.0125105 -0.822045)
(0.00426788 0.0129313 -0.821497)
(0.00139206 0.0130975 -0.821445)
(-0.00139355 0.0130986 -0.821447)
(-0.0042688 0.0129321 -0.821499)
(-0.00689203 0.0125107 -0.82205)
(-0.00928379 0.0121103 -0.823008)
(-0.0114999 0.0114919 -0.824138)
(-0.0129294 0.0106664 -0.825967)
(-0.01508 0.0100338 -0.82714)
(0.0155288 0.00812366 -0.825995)
(0.0136427 0.00868136 -0.82466)
(0.0121173 0.00927732 -0.823001)
(0.00992229 0.00991555 -0.821934)
(0.00739559 0.0102423 -0.821066)
(0.00459464 0.0106384 -0.820505)
(0.00150725 0.0108116 -0.82045)
(-0.00150878 0.0108126 -0.820452)
(-0.00459605 0.0106384 -0.820508)
(-0.00739636 0.010242 -0.82107)
(-0.00992293 0.00991408 -0.82194)
(-0.0121183 0.00927477 -0.823008)
(-0.0136457 0.00867729 -0.824667)
(-0.0155333 0.00811869 -0.826003)
(0.0160144 0.00607148 -0.825014)
(0.0143085 0.00652105 -0.823481)
(0.0125168 0.00688572 -0.822044)
(0.0102494 0.00738968 -0.821065)
(0.00757966 0.00757342 -0.820483)
(0.00469388 0.00787141 -0.820029)
(0.00154867 0.00801949 -0.82001)
(-0.00155033 0.00802063 -0.820012)
(-0.0046955 0.00787069 -0.820032)
(-0.0075808 0.00757198 -0.820487)
(-0.0102503 0.00738666 -0.821071)
(-0.0125183 0.00688189 -0.822051)
(-0.014312 0.00651549 -0.823487)
(-0.0160196 0.00606544 -0.825021)
(0.0163309 0.00375325 -0.824421)
(0.0148185 0.00404301 -0.822788)
(0.0129365 0.00426245 -0.821496)
(0.0106444 0.00458972 -0.820505)
(0.00787701 0.00468876 -0.820029)
(0.00487473 0.00486987 -0.819599)
(0.00161498 0.00496108 -0.8196)
(-0.00161694 0.00496203 -0.819602)
(-0.0048766 0.00486811 -0.819602)
(-0.00787847 0.00468575 -0.820034)
(-0.0106459 0.00458492 -0.820511)
(-0.0129387 0.0042569 -0.821503)
(-0.0148228 0.00403589 -0.822794)
(-0.0163373 0.00374596 -0.824428)
(0.0164169 0.00121116 -0.824264)
(0.0149994 0.00129985 -0.822639)
(0.0131008 0.00138854 -0.821443)
(0.0108162 0.00150389 -0.820449)
(0.00802433 0.00154517 -0.82001)
(0.00496567 0.00161131 -0.8196)
(0.00164904 0.00164524 -0.819619)
(-0.00165431 0.00164604 -0.819621)
(-0.00497067 0.00160923 -0.819603)
(-0.00802865 0.00154198 -0.820014)
(-0.0108209 0.0014996 -0.820455)
(-0.0131057 0.00138359 -0.82145)
(-0.0150054 0.00129357 -0.822646)
(-0.0164239 0.00120463 -0.824271)
(0.0164165 -0.00121834 -0.824264)
(0.0149993 -0.00130783 -0.822639)
(0.0131013 -0.00139709 -0.821443)
(0.0108168 -0.00151244 -0.820449)
(0.00802534 -0.00155401 -0.82001)
(0.00496667 -0.00162079 -0.8196)
(0.00165003 -0.00165801 -0.819619)
(-0.00165419 -0.00165811 -0.81962)
(-0.00497083 -0.00162419 -0.819603)
(-0.00802941 -0.00155939 -0.820014)
(-0.0108217 -0.0015191 -0.820455)
(-0.013107 -0.00140503 -0.82145)
(-0.0150063 -0.00131722 -0.822646)
(-0.0164272 -0.00122729 -0.82427)
(0.0163298 -0.00376049 -0.82442)
(0.014818 -0.00405077 -0.822787)
(0.0129363 -0.00427101 -0.821495)
(0.0106442 -0.00459842 -0.820505)
(0.00787669 -0.00469799 -0.820029)
(0.0048736 -0.00487946 -0.8196)
(0.00161331 -0.00497332 -0.819601)
(-0.00162064 -0.00497372 -0.819603)
(-0.00488028 -0.00488218 -0.819603)
(-0.00788285 -0.00470204 -0.820034)
(-0.0106496 -0.00460257 -0.820511)
(-0.0129415 -0.00427622 -0.821502)
(-0.0148233 -0.00405605 -0.822794)
(-0.016337 -0.00376519 -0.824426)
(0.0160126 -0.0060778 -0.825014)
(0.0143076 -0.00652812 -0.82348)
(0.0125169 -0.0068937 -0.822044)
(0.0102497 -0.00739807 -0.821066)
(0.00757971 -0.00758249 -0.820484)
(0.00469261 -0.00788047 -0.820031)
(0.00154666 -0.00802989 -0.820012)
(-0.00155606 -0.00803084 -0.820013)
(-0.00470135 -0.00788329 -0.820033)
(-0.00758791 -0.00758673 -0.820487)
(-0.0102566 -0.00740207 -0.821071)
(-0.0125235 -0.00689876 -0.822049)
(-0.0143139 -0.00653313 -0.823485)
(-0.0160194 -0.00608217 -0.825018)
(0.0155256 -0.00812914 -0.825995)
(0.0136407 -0.00868767 -0.824659)
(0.0121165 -0.00928459 -0.823001)
(0.00992197 -0.00992341 -0.821934)
(0.00739499 -0.0102508 -0.821067)
(0.00459269 -0.0106467 -0.820507)
(0.00150511 -0.0108208 -0.820452)
(-0.00151533 -0.0108218 -0.820454)
(-0.00460214 -0.0106486 -0.820509)
(-0.00740385 -0.0102538 -0.82107)
(-0.00992937 -0.00992569 -0.821939)
(-0.0121233 -0.00928752 -0.823007)
(-0.0136463 -0.00869014 -0.824665)
(-0.0155309 -0.00813116 -0.826)
(0.015073 -0.0100415 -0.827133)
(0.0129256 -0.010674 -0.825961)
(0.0114986 -0.0114995 -0.824131)
(0.00928338 -0.0121177 -0.823003)
(0.00689117 -0.0125181 -0.822046)
(0.00426572 -0.0129389 -0.821499)
(0.00139003 -0.0131053 -0.821445)
(-0.00140063 -0.0131066 -0.821447)
(-0.00427549 -0.01294 -0.8215)
(-0.00690024 -0.0125198 -0.822049)
(-0.00929103 -0.0121186 -0.823006)
(-0.0115058 -0.0115012 -0.824136)
(-0.012931 -0.0106755 -0.825966)
(-0.0150776 -0.0100423 -0.827138)
(0.0138745 -0.0114017 -0.828545)
(0.0118746 -0.0118758 -0.827623)
(0.0106729 -0.0129265 -0.825962)
(0.00868594 -0.0136423 -0.824662)
(0.00652522 -0.0143095 -0.823484)
(0.00404531 -0.0148211 -0.822791)
(0.0013007 -0.015004 -0.822641)
(-0.00131201 -0.0150055 -0.822643)
(-0.0040548 -0.0148213 -0.822792)
(-0.00653429 -0.0143103 -0.823484)
(-0.00869308 -0.0136415 -0.824664)
(-0.0106793 -0.0129265 -0.825965)
(-0.0118795 -0.0118754 -0.827626)
(-0.0138786 -0.0114 -0.828549)
(0.0134875 -0.0134894 -0.830016)
(0.0114005 -0.0138773 -0.828547)
(0.0100405 -0.0150753 -0.827136)
(0.00812754 -0.0155286 -0.825999)
(0.00607498 -0.0160156 -0.825018)
(0.00375497 -0.0163337 -0.824425)
(0.0012116 -0.0164218 -0.824266)
(-0.00122264 -0.0164256 -0.824266)
(-0.00376393 -0.0163341 -0.824425)
(-0.00608338 -0.0160161 -0.825017)
(-0.00813417 -0.0155272 -0.825999)
(-0.0100466 -0.015074 -0.827136)
(-0.0114054 -0.0138752 -0.828547)
(-0.0134906 -0.0134861 -0.830017)
(0.0201614 0.020157 -0.84922)
(0.0171058 0.0203658 -0.847549)
(0.0147655 0.0217915 -0.845976)
(0.0117593 0.0221688 -0.844866)
(0.00864399 0.0227201 -0.843918)
(0.00527832 0.0230427 -0.84345)
(0.0017522 0.0231366 -0.843397)
(-0.00175807 0.023139 -0.843398)
(-0.00528324 0.0230439 -0.843451)
(-0.00864846 0.0227213 -0.843917)
(-0.0117622 0.0221696 -0.844865)
(-0.0147683 0.0217932 -0.845974)
(-0.0171085 0.0203672 -0.847546)
(-0.0201647 0.0201575 -0.849218)
(0.0203695 0.017101 -0.847547)
(0.0175455 0.0175409 -0.846717)
(0.0152987 0.0187694 -0.845051)
(0.0123017 0.0193471 -0.843911)
(0.0091377 0.0200115 -0.842832)
(0.00563498 0.0204898 -0.842276)
(0.00188982 0.02062 -0.842266)
(-0.00189451 0.0206221 -0.842266)
(-0.00563928 0.0204907 -0.842277)
(-0.00914157 0.0200126 -0.842831)
(-0.0123045 0.0193477 -0.84391)
(-0.0153009 0.0187706 -0.84505)
(-0.017548 0.0175418 -0.846716)
(-0.0203727 0.017101 -0.847545)
(0.0217939 0.0147612 -0.845972)
(0.0187735 0.0152941 -0.84505)
(0.0161408 0.0161357 -0.843341)
(0.0128715 0.0166908 -0.842557)
(0.0094233 0.0170759 -0.841827)
(0.00575001 0.0174688 -0.841526)
(0.00195035 0.017562 -0.841696)
(-0.00195457 0.0175636 -0.841697)
(-0.00575395 0.0174695 -0.841526)
(-0.0094267 0.017076 -0.841828)
(-0.0128744 0.0166906 -0.842557)
(-0.0161436 0.0161352 -0.84334)
(-0.0187766 0.0152929 -0.845048)
(-0.0217979 0.0147598 -0.84597)
(0.0221693 0.0117549 -0.844862)
(0.01935 0.012297 -0.843908)
(0.0166955 0.0128663 -0.842556)
(0.013418 0.0134133 -0.841963)
(0.00988093 0.0136549 -0.841391)
(0.00605761 0.0140172 -0.841117)
(0.00207897 0.0141159 -0.841323)
(-0.00208341 0.0141174 -0.841324)
(-0.00606214 0.0140172 -0.841117)
(-0.00988476 0.0136544 -0.841391)
(-0.0134215 0.0134114 -0.841964)
(-0.0166993 0.0128642 -0.842555)
(-0.0193542 0.012294 -0.843906)
(-0.0221741 0.011752 -0.84486)
(0.022721 0.00864135 -0.843913)
(0.0200148 0.00913363 -0.842827)
(0.0170805 0.00941826 -0.841825)
(0.0136603 0.00987654 -0.84139)
(0.00997578 0.00997085 -0.841244)
(0.00608923 0.01025 -0.841156)
(0.00210614 0.0103363 -0.841462)
(-0.00211095 0.0103377 -0.841463)
(-0.00609408 0.0102493 -0.841157)
(-0.00997994 0.00996941 -0.841245)
(-0.0136639 0.00987353 -0.84139)
(-0.017084 0.00941488 -0.841825)
(-0.0200187 0.00912898 -0.842826)
(-0.0227254 0.00863652 -0.84391)
(0.0230419 0.00527615 -0.843445)
(0.0204916 0.005632 -0.842272)
(0.0174722 0.00574589 -0.841523)
(0.0140214 0.00605422 -0.841115)
(0.0102539 0.00608546 -0.841156)
(0.00625529 0.00625207 -0.841125)
(0.00217676 0.00630552 -0.841461)
(-0.00218168 0.00630658 -0.841461)
(-0.00626018 0.00625066 -0.841125)
(-0.010258 0.00608276 -0.841157)
(-0.014025 0.00604989 -0.841116)
(-0.0174757 0.00574099 -0.841523)
(-0.0204958 0.00562596 -0.842271)
(-0.0230474 0.0052705 -0.843442)
(0.0231352 0.00175212 -0.843392)
(0.020621 0.0018879 -0.84226)
(0.017564 0.00194759 -0.841692)
(0.0141191 0.0020765 -0.84132)
(0.0103395 0.00210356 -0.84146)
(0.0063084 0.00217416 -0.84146)
(0.00220265 0.00220002 -0.841817)
(-0.00221054 0.00220066 -0.841818)
(-0.00631603 0.00217221 -0.84146)
(-0.0103464 0.00210019 -0.84146)
(-0.0141253 0.00207187 -0.84132)
(-0.0175699 0.00194224 -0.841691)
(-0.0206264 0.00188209 -0.842258)
(-0.0231412 0.00174593 -0.843388)
(0.0231344 -0.00175876 -0.843391)
(0.0206202 -0.0018953 -0.84226)
(0.0175638 -0.00195579 -0.841692)
(0.014119 -0.00208517 -0.84132)
(0.0103398 -0.00211308 -0.84146)
(0.00630894 -0.00218468 -0.84146)
(0.00220313 -0.00221372 -0.841816)
(-0.00221 -0.00221342 -0.841816)
(-0.00631554 -0.00218655 -0.841459)
(-0.0103459 -0.00211613 -0.841459)
(-0.0141247 -0.00208916 -0.841319)
(-0.0175692 -0.00196083 -0.84169)
(-0.0206255 -0.00190096 -0.842258)
(-0.023141 -0.00176386 -0.843386)
(0.0230417 -0.00528368 -0.843443)
(0.020491 -0.00563923 -0.842271)
(0.0174714 -0.00575445 -0.841522)
(0.0140206 -0.00606318 -0.841114)
(0.0102531 -0.0060953 -0.841155)
(0.00625421 -0.00626262 -0.841124)
(0.00217499 -0.00631858 -0.841459)
(-0.00218383 -0.00631864 -0.841459)
(-0.00626255 -0.00626432 -0.841123)
(-0.0102606 -0.00609785 -0.841153)
(-0.0140269 -0.00606596 -0.841112)
(-0.0174766 -0.005758 -0.841518)
(-0.0204951 -0.00564224 -0.842266)
(-0.0230461 -0.00528617 -0.843436)
(0.0227195 -0.00864849 -0.84391)
(0.020014 -0.00914103 -0.842825)
(0.0170798 -0.00942673 -0.841823)
(0.0136595 -0.00988514 -0.841388)
(0.00997465 -0.00998012 -0.841243)
(0.00608738 -0.0102595 -0.841156)
(0.00210324 -0.0103475 -0.84146)
(-0.00211408 -0.010348 -0.84146)
(-0.00609756 -0.0102613 -0.841154)
(-0.00998384 -0.00998268 -0.84124)
(-0.0136671 -0.00988734 -0.841385)
(-0.0170858 -0.00942943 -0.841818)
(-0.0200186 -0.00914272 -0.842819)
(-0.0227233 -0.00865012 -0.843902)
(0.0221678 -0.0117632 -0.844857)
(0.0193491 -0.0123045 -0.843903)
(0.0166948 -0.0128744 -0.842552)
(0.0134168 -0.0134214 -0.84196)
(0.00987937 -0.0136634 -0.841388)
(0.00605517 -0.0140253 -0.841115)
(0.00207547 -0.0141249 -0.84132)
(-0.00208676 -0.0141256 -0.84132)
(-0.00606574 -0.0140264 -0.841113)
(-0.00988886 -0.0136645 -0.841385)
(-0.0134247 -0.0134214 -0.841957)
(-0.016701 -0.0128747 -0.842548)
(-0.0193536 -0.0123035 -0.843898)
(-0.0221712 -0.0117621 -0.844851)
(0.021792 -0.0147692 -0.845967)
(0.0187726 -0.0153013 -0.845044)
(0.0161401 -0.0161436 -0.843336)
(0.0128705 -0.0166989 -0.842552)
(0.00942183 -0.0170833 -0.841823)
(0.00574728 -0.0174755 -0.841522)
(0.00194663 -0.0175688 -0.84169)
(-0.00195791 -0.0175695 -0.841691)
(-0.00575752 -0.0174753 -0.84152)
(-0.00943058 -0.0170822 -0.84182)
(-0.0128777 -0.0166966 -0.842548)
(-0.0161462 -0.0161419 -0.843331)
(-0.0187772 -0.0152985 -0.845038)
(-0.0217955 -0.0147663 -0.84596)
(0.0203665 -0.0171097 -0.84754)
(0.0175439 -0.0175482 -0.84671)
(0.0152974 -0.0187764 -0.845044)
(0.0123002 -0.0193533 -0.843904)
(0.0091361 -0.0200174 -0.842826)
(0.00563272 -0.0204948 -0.842271)
(0.00188753 -0.020625 -0.842258)
(-0.00189744 -0.0206259 -0.842259)
(-0.00564132 -0.0204937 -0.842269)
(-0.00914377 -0.0200151 -0.842821)
(-0.0123064 -0.0193487 -0.843899)
(-0.0153026 -0.0187723 -0.845039)
(-0.0175482 -0.0175434 -0.846703)
(-0.0203703 -0.017104 -0.847533)
(0.0201582 -0.0201644 -0.849212)
(0.0171045 -0.020372 -0.847541)
(0.0147652 -0.0217968 -0.845967)
(0.0117594 -0.0221727 -0.844858)
(0.00864424 -0.0227236 -0.84391)
(0.00527789 -0.0230462 -0.843442)
(0.00175198 -0.02314 -0.843388)
(-0.00176081 -0.0231419 -0.843388)
(-0.00528537 -0.0230443 -0.843441)
(-0.00865121 -0.0227202 -0.843906)
(-0.0117645 -0.0221667 -0.844853)
(-0.0147702 -0.0217914 -0.845961)
(-0.017109 -0.020366 -0.847533)
(-0.0201621 -0.0201576 -0.849204)
(0.0260899 0.0260933 -0.865085)
(0.0221051 0.0260358 -0.863099)
(0.0186683 0.0274063 -0.861205)
(0.014754 0.0278118 -0.859838)
(0.0107718 0.0285667 -0.858626)
(0.0065122 0.028885 -0.857977)
(0.00220315 0.0289159 -0.857865)
(-0.00220414 0.0289169 -0.857865)
(-0.0065132 0.0288842 -0.857974)
(-0.0107722 0.0285668 -0.858621)
(-0.0147535 0.0278109 -0.859831)
(-0.0186679 0.0274051 -0.861195)
(-0.0221039 0.0260329 -0.863087)
(-0.0260884 0.0260891 -0.865072)
(0.0260321 0.022107 -0.863096)
(0.0223846 0.0223867 -0.861963)
(0.019259 0.02357 -0.859979)
(0.0152469 0.0239536 -0.858634)
(0.0111694 0.0244029 -0.857345)
(0.00679272 0.0246723 -0.856625)
(0.00233607 0.0246799 -0.856566)
(-0.00233737 0.0246818 -0.856564)
(-0.00679396 0.0246712 -0.856623)
(-0.0111699 0.0244022 -0.85734)
(-0.0152463 0.0239516 -0.858628)
(-0.0192584 0.0235688 -0.85997)
(-0.0223836 0.022385 -0.861951)
(-0.0260306 0.022104 -0.863083)
(0.0274033 0.0186682 -0.861199)
(0.0235671 0.01926 -0.859977)
(0.0199709 0.0199727 -0.857975)
(0.0155377 0.0200867 -0.857001)
(0.0111608 0.0202245 -0.856017)
(0.00669788 0.0203778 -0.855603)
(0.00233221 0.0203146 -0.8558)
(-0.00233392 0.020316 -0.8558)
(-0.00669919 0.0203772 -0.8556)
(-0.0111619 0.0202232 -0.856013)
(-0.0155379 0.0200844 -0.856995)
(-0.01997 0.0199703 -0.857967)
(-0.0235664 0.0192575 -0.859966)
(-0.0274025 0.018666 -0.861187)
(0.0278079 0.014754 -0.859831)
(0.0239501 0.0152475 -0.85863)
(0.0200847 0.0155382 -0.856999)
(0.0157582 0.0157594 -0.856259)
(0.0113767 0.0157768 -0.855462)
(0.00685645 0.0159166 -0.855075)
(0.00242681 0.0158363 -0.855332)
(-0.00242941 0.0158378 -0.855331)
(-0.00685887 0.015916 -0.855072)
(-0.0113783 0.0157756 -0.855457)
(-0.0157591 0.0157573 -0.856252)
(-0.0200845 0.015536 -0.85699)
(-0.0239499 0.0152445 -0.858618)
(-0.0278085 0.0147513 -0.859818)
(0.0285629 0.0107714 -0.858618)
(0.0244 0.01117 -0.857339)
(0.020223 0.0111608 -0.856013)
(0.015776 0.0113775 -0.855461)
(0.0112966 0.0112972 -0.85518)
(0.00677156 0.0114077 -0.855006)
(0.00242838 0.0113387 -0.855459)
(-0.00243156 0.0113398 -0.855458)
(-0.00677433 0.0114071 -0.855003)
(-0.0112987 0.011296 -0.855175)
(-0.0157771 0.0113754 -0.855453)
(-0.0202231 0.0111584 -0.856004)
(-0.0243992 0.0111663 -0.857328)
(-0.0285633 0.0107684 -0.858603)
(0.0288795 0.00651207 -0.857968)
(0.0246681 0.00679339 -0.856618)
(0.0203755 0.00669796 -0.855598)
(0.0159152 0.00685762 -0.855072)
(0.0114066 0.00677266 -0.855005)
(0.00683463 0.00683601 -0.854873)
(0.002474 0.0067874 -0.855367)
(-0.00247684 0.00678811 -0.855365)
(-0.00683708 0.0068354 -0.854869)
(-0.0114084 0.00677146 -0.854999)
(-0.0159161 0.00685559 -0.855064)
(-0.0203758 0.00669539 -0.855588)
(-0.0246679 0.00679028 -0.856606)
(-0.0288798 0.00650898 -0.857952)
(0.0289107 0.00220266 -0.857856)
(0.0246769 0.00233542 -0.856556)
(0.0203126 0.00233106 -0.855793)
(0.0158353 0.00242615 -0.855325)
(0.011338 0.00242773 -0.855453)
(0.00678645 0.00247326 -0.855363)
(0.00247175 0.00247062 -0.855887)
(-0.00247558 0.00247094 -0.855885)
(-0.00678988 0.00247284 -0.855359)
(-0.011341 0.00242692 -0.855447)
(-0.0158375 0.002425 -0.855316)
(-0.0203142 0.00232944 -0.855782)
(-0.0246774 0.00233393 -0.856544)
(-0.0289114 0.00220058 -0.857839)
(0.0289096 -0.00220231 -0.857854)
(0.0246757 -0.00233574 -0.856555)
(0.0203119 -0.00233223 -0.855791)
(0.0158349 -0.00242796 -0.855322)
(0.0113377 -0.00243017 -0.855451)
(0.00678637 -0.00247619 -0.85536)
(0.00247177 -0.00247519 -0.855884)
(-0.00247561 -0.0024754 -0.855881)
(-0.00678963 -0.00247679 -0.855356)
(-0.0113404 -0.00243123 -0.855444)
(-0.0158366 -0.00242908 -0.855313)
(-0.0203128 -0.00233408 -0.855779)
(-0.0246756 -0.00233714 -0.856541)
(-0.028909 -0.0022048 -0.857836)
(0.0288791 -0.00651268 -0.857964)
(0.0246676 -0.00679347 -0.856614)
(0.0203749 -0.00669909 -0.855592)
(0.0159148 -0.00685934 -0.855066)
(0.0114064 -0.00677507 -0.854997)
(0.0068346 -0.00683887 -0.854866)
(0.00247372 -0.0067917 -0.855358)
(-0.00247787 -0.00679219 -0.855356)
(-0.00683814 -0.00683925 -0.854861)
(-0.0114093 -0.00677563 -0.85499)
(-0.0159165 -0.00685959 -0.855055)
(-0.0203755 -0.00669972 -0.855578)
(-0.0246668 -0.00679295 -0.856597)
(-0.028878 -0.00651297 -0.857944)
(0.0285613 -0.0107722 -0.858611)
(0.0243998 -0.0111699 -0.857331)
(0.0202226 -0.011162 -0.856005)
(0.0157759 -0.0113793 -0.855451)
(0.0112964 -0.0112996 -0.85517)
(0.0067714 -0.0114105 -0.854996)
(0.00242787 -0.0113428 -0.855447)
(-0.00243285 -0.0113435 -0.855446)
(-0.00677567 -0.0114109 -0.854991)
(-0.0112998 -0.0113001 -0.855162)
(-0.015778 -0.0113792 -0.855439)
(-0.0202231 -0.0111621 -0.85599)
(-0.0243988 -0.0111681 -0.857314)
(-0.0285609 -0.0107715 -0.85859)
(0.0278056 -0.0147543 -0.859821)
(0.0239495 -0.0152473 -0.858618)
(0.0200838 -0.0155388 -0.856987)
(0.0157576 -0.0157606 -0.856247)
(0.0113761 -0.0157784 -0.855449)
(0.00685582 -0.0159182 -0.855061)
(0.00242594 -0.0158389 -0.855316)
(-0.00243062 -0.0158398 -0.855314)
(-0.00685992 -0.0159181 -0.855056)
(-0.0113794 -0.0157778 -0.85544)
(-0.01576 -0.015759 -0.856235)
(-0.0200846 -0.0155373 -0.856974)
(-0.0239487 -0.0152437 -0.858602)
(-0.0278057 -0.0147522 -0.859802)
(0.0273999 -0.018668 -0.861187)
(0.0235661 -0.0192596 -0.859962)
(0.0199699 -0.0199721 -0.85796)
(0.0155366 -0.0200867 -0.856986)
(0.0111595 -0.0202246 -0.856001)
(0.00669623 -0.0203775 -0.855586)
(0.00233078 -0.0203151 -0.855781)
(-0.00233478 -0.020316 -0.855781)
(-0.00669942 -0.0203768 -0.855581)
(-0.0111616 -0.0202226 -0.855993)
(-0.0155376 -0.0200828 -0.856975)
(-0.0199696 -0.0199685 -0.857946)
(-0.0235659 -0.0192554 -0.859945)
(-0.0274 -0.0186654 -0.861168)
(0.0260285 -0.022106 -0.863078)
(0.0223819 -0.0223856 -0.861944)
(0.0192568 -0.0235687 -0.859961)
(0.015245 -0.0239525 -0.858615)
(0.0111674 -0.0244011 -0.857327)
(0.00679109 -0.0246697 -0.856606)
(0.00233511 -0.024678 -0.856545)
(-0.00233743 -0.0246791 -0.856544)
(-0.00679258 -0.0246682 -0.856602)
(-0.0111679 -0.0243982 -0.857318)
(-0.0152445 -0.0239466 -0.858604)
(-0.0192569 -0.023564 -0.859947)
(-0.022382 -0.0223797 -0.861928)
(-0.0260283 -0.0221007 -0.863061)
(0.0260854 -0.0260906 -0.865064)
(0.0221017 -0.0260333 -0.863077)
(0.0186651 -0.0274038 -0.861183)
(0.0147521 -0.0278099 -0.859817)
(0.0107701 -0.028564 -0.858604)
(0.0065107 -0.0288815 -0.857954)
(0.00220248 -0.0289118 -0.857842)
(-0.00220449 -0.0289129 -0.85784)
(-0.0065123 -0.0288785 -0.857951)
(-0.0107706 -0.0285604 -0.858596)
(-0.0147516 -0.0278034 -0.859807)
(-0.0186655 -0.0273981 -0.861171)
(-0.0221016 -0.0260265 -0.863063)
(-0.026085 -0.0260845 -0.865047)
(0.0347473 0.0347565 -0.873644)
(0.0292405 0.0343234 -0.871726)
(0.0242127 0.0355039 -0.869663)
(0.0187618 0.0353279 -0.868062)
(0.0134795 0.0354297 -0.866456)
(0.00808761 0.0352442 -0.865484)
(0.00272823 0.0349813 -0.86522)
(-0.00272216 0.0349808 -0.865219)
(-0.0080824 0.0352417 -0.86548)
(-0.0134739 0.0354269 -0.86645)
(-0.0187558 0.0353239 -0.868053)
(-0.0242071 0.0355007 -0.869651)
(-0.0292345 0.0343182 -0.871711)
(-0.0347405 0.0347497 -0.873627)
(0.0343129 0.0292479 -0.871724)
(0.0291689 0.0291761 -0.870579)