/*--------------------------------*- C++ -*----------------------------------*\
| =========                 |                                                 |
| \\      /  F ield         | OpenFOAM: The Open Source CFD Toolbox           |
|  \\    /   O peration     | Version:  v2106                                 |
|   \\  /    A nd           | Website:  www.openfoam.com                      |
|    \\/     M anipulation  |                                                 |
\*---------------------------------------------------------------------------*/
FoamFile
{
    version     2.0;
    format      ascii;
    arch        "LSB;label=32;scalar=64";
    class       volScalarField;
    location    "0.000148";
    object      epsilon;
}
// * * * * * * * * * * * * * * * * * * * * * * * * * * * * * * * * * * * * * //

dimensions      [0 2 -3 0 0 0 0];

internalField   nonuniform List<scalar> 
18109
(
6258.31
1871.39
467.831
106.727
28.4351
12.1147
8.37316
2938.62
682.702
119.933
17.3791
2.78192
0.967611
0.796217
1139.25
225.39
36.8285
5.63709
0.911754
0.165389
0.0687885
503.615
115.744
26.8486
6.21949
1.28268
0.200657
0.0264684
337.463
99.9834
28.9945
7.50911
1.58007
0.2435
0.0289073
312.435
105.677
31.8165
8.06415
1.6186
0.243097
0.029347
366.227
124.979
35.9857
8.58929
1.63146
0.242904
0.0371712
499.247
162.261
44.0449
9.91367
1.81157
0.308749
0.106333
1817.64
428.071
81.7761
13.9725
3.25807
1.66844
1.38014
1.29447
1.27618
1.22196
1.29143
2.7586
11.617
58.2801
661.274
122.796
17.5513
2.09096
0.293533
0.114873
0.110358
0.123069
0.141506
0.150594
0.17469
0.583837
3.96306
27.8351
219.451
39.687
6.55518
1.0821
0.180289
0.0285143
0.00899771
0.00899254
0.0111273
0.0139597
0.0306752
0.226066
1.94819
14.6072
113.022
27.167
6.44708
1.42715
0.268357
0.0379905
0.00417959
0.00078531
0.000710473
0.00112547
0.00673053
0.0778051
0.772312
6.15582
91.5023
26.7654
7.27741
1.71024
0.323523
0.0455799
0.00466634
0.000389639
6.46263e-05
0.000154219
0.00196105
0.0260472
0.269719
2.19661
94.7068
29.7119
8.0853
1.83412
0.329482
0.0446766
0.00459121
0.00049653
0.000160896
0.000147764
0.000746244
0.00973339
0.105722
0.88402
117.362
35.9578
9.25931
1.97159
0.335495
0.0444616
0.00567213
0.00194317
0.00156697
0.00139271
0.00148903
0.00571209
0.0532194
0.459331
162.924
47.0017
11.3286
2.26454
0.369164
0.0544382
0.0165426
0.0138674
0.0133685
0.0127425
0.012149
0.0156948
0.048081
0.346586
235.984
63.9462
14.6056
2.80394
0.473576
0.116763
0.0862995
0.0911352
0.0925969
0.0934429
0.0944018
0.107837
0.147396
0.49434
352.504
91.9562
20.6526
4.0563
0.874238
0.436578
0.450354
0.50222
0.529609
0.56251
0.605617
0.695886
0.818764
1.61155
530.767
139.393
32.2888
7.17287
2.35884
1.81442
2.03734
2.33393
2.55596
2.85685
3.26677
3.82391
4.44261
7.44593
914.714
266.384
68.1622
18.1767
8.10717
7.07403
7.96635
9.28529
10.5737
12.4448
15.0506
18.0852
21.2108
33.1678
1975.58
683.836
197.427
58.9987
28.7033
24.8855
27.3548
32.1453
38.0122
46.9998
59.9729
75.1347
90.4024
131.381
4822.93
2007.76
661.132
209.242
98.145
79.3314
83.385
97.6347
119.234
154.593
208.581
275.499
347.531
471.629
7247.85
16644.7
35448.6
60015.2
84437.9
106153
2096.45
6188.55
16831.2
34730.7
57423.7
80066.9
788.518
3395.8
10804.3
24443.3
42748.4
61880.4
323.579
1779.87
6362.69
15727.4
29577.4
45787.9
131.445
872.38
3507.14
9501.99
19279.7
31685.2
52.1277
401.588
1827.56
5439.33
11885
21084.8
24.3212
192.937
947.979
3051.4
7200.59
13809
15.3664
111.14
544.711
1831.76
4567.5
9290.27
11.3794
73.4127
344.366
1166.58
3028.63
6499.55
9.52215
57.4314
257.392
866.737
2346.33
5408.89
8.79724
52.0779
233.225
820.938
2418.26
6310.27
10.2257
62.4526
295.53
1130.96
3666.27
10369.3
20.5602
123.905
590.829
2264.33
7098.6
18390.3
67.9212
359.649
1494.37
4910.15
12950.5
27914.6
278.444
1124.74
3638.1
9386.9
19780.4
34758.3
266.895
1087.4
3577.45
9301.76
19332
32973.3
176.7
753.355
2605.96
7114.34
15386.7
27119.9
92.6731
432.998
1626.15
4783.82
11086.9
20729.9
39.2282
209.333
875.275
2838.08
7258.5
14797.3
14.3861
83.3617
392.257
1466.92
4373.44
9734.85
5.82693
35.2883
179.143
779.782
2568.96
6313.2
3.2045
20.584
110.621
486.529
1626.29
4194.41
2.53931
16.8976
89.3049
369.2
1193.15
3091.09
2.97007
18.6621
92.3234
361.786
1146.99
3038.02
6.25244
33.6866
151.479
567.186
1802.11
4989.4
22.5998
103.327
410.318
1403.01
4149.85
10690.7
90.9664
358.767
1228.35
3633.04
9276.97
20451.7
325.549
1088.57
3150.23
7840.24
16773.6
31031.5
1106.39
2998.3
7016.43
14114.7
24728
38156.1
1465.46
3607.23
7886.12
15093.1
25296.9
37545.1
1200.53
3009.32
6677.57
12947.8
21977.4
33038.2
890.968
2291.93
5203.51
10327.3
17985.2
27813.5
631.274
1661.7
3852.44
7833.26
13980.4
22145.2
442.469
1169.99
2725.1
5606.69
10287.9
17049
328.032
863.529
2018.62
4208.77
7891.53
13504.1
264.518
694.229
1626.63
3442.58
6648.65
11927.3
231.254
621.617
1508.57
3378.39
7150.02
14694.2
232.428
664.378
1784.82
4599.4
11393.2
26464
314.65
1019.89
3136.89
8982.53
22927.5
50620.8
719.464
2401.36
7180.7
18684.9
41901.8
80297.1
2118.17
6026.53
15166.1
33021.2
62360.4
102435
5491.81
12537.2
25619.6
46193.6
74247.4
106326
11127.9
20502
34752.1
53419.6
75336.8
97336.5
1990.79
6708.69
19376.3
46106.6
90693.2
149448
4341.66
12721.6
31629.8
64702.9
111028
164062
9194.17
21461.1
43701.5
75363
113138
149321
16087.6
30376.5
51838.9
77763.7
104905
127574
6147.68
14291.7
27537.8
44936.8
64365.4
83711.7
4256.46
10667.6
21448.1
35983.5
52441.7
69461.2
2824.07
7290.62
15210.8
26510.1
40262.7
55704.9
1818.97
4762.15
10261.5
18773.8
29783.9
43127.7
1156.63
3054.79
6738.19
12677.9
21460.3
32947.8
722.965
1910.27
4252.56
8381.56
15184.1
25007.4
470.88
1242.18
2899.33
6141.03
11955.5
20991.4
333.375
926.129
2352.62
5450.31
11457.3
22482.1
285.049
865.387
2405.47
6120.54
14574.9
33271.4
310.064
1017.51
3123.59
9017.58
23918.6
56025.1
450.489
1633.94
5490.14
16219.6
40777.7
85470.9
991.013
3528.64
10921.3
28169.1
60253.9
107283
2614.38
7506.11
18779.4
39603.3
71303.2
109714
5790.58
12912.2
25980.7
45761.6
71339.4
98218.9
101573
155112
229032
316646
303366
79587.1
124791
194227
291418
314704
62062.5
98423.5
157804
253388
303430
46900.3
74826.6
124085
227666
301984
34577.8
55736.9
98842.4
212055
307244
24227.6
39640.7
76891.2
198860
312214
16784.5
28535.1
63777.3
188299
325153
12345.1
24882.5
69722.1
204127
373956
426529
11491.1
31396.4
95628.8
243978
438165
535847
15538.8
49285.9
130969
277536
468612
624108
25555.9
73864.3
160237
283010
445720
669037
869112
39182.7
94652.7
174298
262813
374054
621146
1.15225e+06
1.08971e+06
50040.8
105524
171604
239027
300076
439089
1.32931e+06
3.55458e+06
52963.3
101842
161675
235155
293815
256046
344242
2.18159e+06
48339
90618.1
152846
247434
340973
253667
236231
1.39544e+06
40535.8
75176.9
135384
235615
345633
260917
228653
907241
32257
60668.9
114122
205596
315000
260298
217717
1.06868e+06
24523.7
47466.4
92307.1
180257
301917
267327
210017
320322
17839.3
35611.8
71884.7
156354
287530
268293
217287
210006
12473
25162.9
52535.4
129972
258703
273439
239656
208259
8666.32
17801
39115.7
110902
241055
307455
290758
368873
6542.95
15468.8
39674.3
117171
263425
385918
396878
223305
7078.81
21028.5
58538.4
149394
316898
490692
12332.5
37881.9
92303.9
190437
356036
571456
23793.7
62999.5
127776
215199
346880
598182
38579.4
86050
150911
217890
300816
525643
50021.5
96974.4
152294
203154
242497
361305
53483.7
94956.9
145785
203935
227841
50982.5
89086.1
145510
225283
259791
45463.2
79307.3
135162
224588
271177
38770.3
67913.4
120304
211453
268006
31660.4
57198.5
104403
205097
278986
25381.3
46951.9
92527.8
203509
301341
20296.9
39739
88690
205142
335115
19806.9
44725.3
106390
230865
389522
29590.6
75526
161997
301437
482205
55433.8
131359
243018
385200
578168
94488.5
190260
302377
419746
607248
129676
225217
312336
391248
563707
148918
221136
277652
327104
451610
137071
192997
237243
268951
296042
118566
171175
224357
270136
226331
102590
152947
213748
292184
245760
85866.3
128500
186855
284245
265834
71828.2
105232
160072
269456
279811
58098.8
83699.9
140276
268128
314576
45673.1
67757.7
133136
282361
367261
35640.1
60663.8
140774
311096
425947
33206.6
72245.4
177168
358239
490891
43917.2
111063
247494
437284
591478
71676.7
173811
333093
514467
688019
111058
232676
382769
528614
719685
146808
265959
379365
481525
683171
163447
258117
332067
395325
558077
149511
220876
275920
315364
367650
124083
183301
246643
301316
277266
185.924
34.4333
5.55585
0.909166
0.258483
0.179792
0.174827
0.172035
0.166158
0.147079
0.112108
0.118236
0.44572
3.24371
46.9857
7.56728
1.07086
0.147015
0.0262153
0.0122575
0.0131051
0.0154215
0.0172409
0.0171965
0.0145245
0.0278983
0.232611
2.24592
17.7322
3.71633
0.767027
0.153088
0.0277203
0.00441818
0.00114439
0.00110685
0.00134069
0.00146627
0.00183597
0.0117105
0.13724
1.37845
15.2251
4.13233
1.04552
0.233502
0.0432456
0.00619613
0.000658805
0.000102265
8.64204e-05
0.000106429
0.000320216
0.00448403
0.0611505
0.650621
16.617
4.98063
1.32206
0.297467
0.0540263
0.0075858
0.000769264
5.72391e-05
7.49107e-06
8.86462e-06
9.13236e-05
0.00170623
0.0244908
0.265241
20.1043
6.01136
1.53569
0.327066
0.0559471
0.00746156
0.000734954
6.22574e-05
1.3298e-05
9.13555e-06
3.78051e-05
0.000687753
0.0102873
0.113484
27.2406
7.70106
1.83425
0.363853
0.0583136
0.00740763
0.000803421
0.000185816
0.000131651
0.000105662
9.43974e-05
0.000389345
0.00504002
0.0565164
39.0015
10.1963
2.24231
0.411611
0.0618231
0.00817142
0.0018887
0.00137613
0.00126869
0.00110467
0.000914085
0.00100232
0.00349299
0.0338655
56.1997
13.6936
2.8227
0.488752
0.0730824
0.015029
0.0101135
0.0102456
0.0100822
0.00933641
0.00826932
0.00809292
0.00932082
0.0351107
81.7844
18.7866
3.70587
0.632902
0.116694
0.0554659
0.0591673
0.0645258
0.0664396
0.0651131
0.0620086
0.062057
0.0595488
0.0930792
116.66
25.6518
4.99109
0.930908
0.290988
0.25178
0.302346
0.34261
0.369229
0.383319
0.391822
0.404545
0.389534
0.48286
177.623
39.8563
8.14489
1.93072
1.0158
1.08123
1.32775
1.5511
1.75261
1.93023
2.11191
2.26736
2.25044
2.62179
330.974
84.0289
18.9721
5.62532
3.73561
4.14031
5.08049
6.08233
7.20733
8.41655
9.84646
11.1418
11.5743
12.9706
812.395
240.922
59.7079
19.1318
12.9814
14.0724
17.0855
20.8544
25.8939
32.0055
40.037
48.2482
53.4927
58.8079
7.95342
1.41506
0.250382
0.055015
0.0286795
0.0275544
0.0299532
0.0314663
0.0305899
0.026012
0.0172726
0.0100701
0.0150075
0.123592
2.14478
0.381909
0.0657197
0.011863
0.00294954
0.00186675
0.00223231
0.00275987
0.00309024
0.00296673
0.00215429
0.00174586
0.00985844
0.116045
1.74221
0.422915
0.0965487
0.0200954
0.00365022
0.000604024
0.000186246
0.000195138
0.000245268
0.00025587
0.000214761
0.000552547
0.00740314
0.0927396
2.3482
0.644037
0.158703
0.0339365
0.00603689
0.000860982
9.84246e-05
1.72194e-05
1.56725e-05
1.82806e-05
2.39163e-05
0.000243388
0.00427971
0.0569017
3.13448
0.886213
0.219156
0.0460037
0.00791796
0.00108914
0.000114484
8.90631e-06
1.22694e-06
1.14761e-06
5.14319e-06
0.000118898
0.00226345
0.0310356
4.12976
1.12449
0.263195
0.0519712
0.00841783
0.00109633
0.000110412
8.73568e-06
1.17346e-06
6.14436e-07
2.17188e-06
5.57357e-05
0.00113577
0.0162481
5.65779
1.44448
0.31442
0.057688
0.00871311
0.00106686
0.000109964
1.78634e-05
9.99218e-06
7.20975e-06
5.68931e-06
3.22512e-05
0.000611339
0.00893709
7.88324
1.86653
0.37502
0.0635489
0.00894506
0.0010979
0.000203825
0.000121929
0.000104138
8.24538e-05
5.94641e-05
6.05031e-05
0.000364803
0.00505361
10.8642
2.4024
0.45032
0.0712906
0.00977873
0.001754
0.00104877
0.000997241
0.000923448
0.000778826
0.000600119
0.000500313
0.000583058
0.00367035
14.9948
3.1066
0.550209
0.0841511
0.0138811
0.00636986
0.00680893
0.00710014
0.00688309
0.00614723
0.00509679
0.0043957
0.00360815
0.00559751
19.7781
3.88009
0.668473
0.109837
0.0335301
0.0320589
0.0396033
0.0430932
0.0436557
0.0412528
0.0367725
0.0330563
0.0271787
0.0272988
26.1097
4.98944
0.885392
0.197115
0.125462
0.15509
0.198939
0.224401
0.237798
0.237866
0.227121
0.212952
0.181715
0.169784
37.0273
7.56116
1.53035
0.536592
0.509114
0.66937
0.869722
1.01399
1.12454
1.19255
1.21636
1.19702
1.07118
0.97388
72.1681
17.1884
4.0004
1.83547
1.93716
2.56004
3.33691
4.00884
4.65205
5.2345
5.68541
5.90755
5.59904
5.11282
0.533204
0.104509
0.0241651
0.00772344
0.00539367
0.00564328
0.00652927
0.00708191
0.0070302
0.00595044
0.00389054
0.00198084
0.00134735
0.00781048
0.208706
0.0414879
0.00807294
0.00161917
0.00047668
0.000370199
0.000481338
0.000614963
0.000702024
0.000669137
0.000478882
0.000277062
0.000651113
0.00792612
0.276898
0.0680264
0.015304
0.00309093
0.000548841
9.47304e-05
3.69292e-05
4.31937e-05
5.57273e-05
5.90849e-05
4.63126e-05
4.94312e-05
0.000514864
0.00740397
0.437297
0.115367
0.0269964
0.00548876
0.000942057
0.000133137
1.60117e-05
3.54357e-06
3.57143e-06
4.20017e-06
3.95516e-06
1.68231e-05
0.00033643
0.00530033
0.635053
0.16808
0.0388344
0.00768188
0.00126807
0.000171147
1.82998e-05
1.58028e-06
2.75267e-07
2.62833e-07
4.64295e-07
8.76769e-06
0.000207274
0.00341433
0.860194
0.217136
0.0474289
0.00884247
0.00137695
0.000175983
1.79432e-05
1.48563e-06
1.75975e-07
8.63627e-08
1.67497e-07
4.50721e-06
0.000116811
0.00204838
1.17102
0.276244
0.0560629
0.00969677
0.00140274
0.000167539
1.69534e-05
2.34263e-06
1.06742e-06
7.21338e-07
5.15166e-07
2.81278e-06
6.87937e-05
0.00125026
1.59174
0.348921
0.0655194
0.0104808
0.00141093
0.000165919
2.6743e-05
1.37447e-05
1.10489e-05
8.2456e-06
5.54585e-06
5.16923e-06
4.14876e-05
0.000743141
2.10703
0.431769
0.0756845
0.0112902
0.00146705
0.000239178
0.000126793
0.000115824
0.000102837
8.16493e-05
5.83374e-05
4.39257e-05
5.34985e-05
0.000489369
2.75236
0.529443
0.0876488
0.0125579
0.00193006
0.000837956
0.00086746
0.000882513
0.000820306
0.000688599
0.000525928
0.000412642
0.000310004
0.000524133
3.41448
0.623293
0.0994855
0.0151072
0.00453687
0.00449717
0.00547222
0.00580741
0.00563116
0.00499143
0.00407637
0.00335132
0.00249957
0.00225743
4.10476
0.723836
0.118176
0.0253998
0.0181476
0.0237921
0.0302072
0.0331713
0.0335389
0.0313393
0.0273057
0.0233994
0.0179927
0.0150663
4.96647
0.909884
0.173958
0.0698062
0.0801998
0.11268
0.145988
0.165587
0.174604
0.171904
0.159284
0.142227
0.113784
0.0936851
7.79687
1.67975
0.410286
0.254296
0.332354
0.474283
0.622027
0.727454
0.79953
0.828117
0.811271
0.756012
0.635277
0.525108
0.039648
0.00803509
0.00212604
0.000974927
0.00091835
0.00108608
0.00131622
0.00148629
0.00151439
0.00130142
0.000864038
0.000432852
0.00019379
0.000499302
0.0256708
0.00547267
0.00111779
0.000234122
7.8214e-05
7.17896e-05
9.93187e-05
0.000130757
0.000151817
0.000146055
0.000105642
5.64287e-05
5.21606e-05
0.000503287
0.0448384
0.0108767
0.00237774
0.00046508
8.06458e-05
1.46401e-05
7.19514e-06
9.22787e-06
1.21071e-05
1.2995e-05
1.01896e-05
6.90223e-06
3.44104e-05
0.000531203
0.076707
0.0194324
0.00434326
0.000846307
0.000140588
1.96358e-05
2.48521e-06
7.13032e-07
7.94985e-07
9.39997e-07
8.21885e-07
1.35334e-06
2.41642e-05
0.000433546
0.115565
0.0289402
0.00633207
0.00119428
0.000190497
2.52972e-05
2.7466e-06
2.71644e-07
7.46181e-08
7.50264e-08
8.18147e-08
6.1456e-07
1.663e-05
0.00031956
0.157074
0.0373074
0.00771079
0.00137211
0.000206793
2.60136e-05
2.68499e-06
2.45805e-07
4.47996e-08
3.08322e-08
3.35336e-08
3.37632e-07
1.02304e-05
0.000213553
0.20727
0.0458651
0.00880433
0.00145436
0.000203763
2.3964e-05
2.42809e-06
3.23364e-07
1.36431e-07
9.30681e-08
6.70042e-08
2.3047e-07
6.42275e-06
0.000141274
0.269495
0.0553261
0.00983382
0.00150432
0.000196265
2.25639e-05
3.39681e-06
1.56665e-06
1.19097e-06
8.44758e-07
5.38427e-07
4.45483e-07
3.95524e-06
8.7693e-05
0.338231
0.0648695
0.0107527
0.0015326
0.000192314
3.01035e-05
1.49529e-05
1.31219e-05
1.11392e-05
8.33148e-06
5.56097e-06
3.7979e-06
4.61157e-06
5.57312e-05
0.414766
0.074766
0.011703
0.00159977
0.000238671
0.000103947
0.00010505
0.000103621
9.19714e-05
7.25151e-05
5.14665e-05
3.67181e-05
2.53671e-05
4.79904e-05
0.480907
0.0821556
0.0123482
0.00179897
0.00056723
0.000587
0.000698156
0.00071755
0.000662501
0.000550038
0.000415261
0.000310987
0.000212293
0.000174483
0.529642
0.0874091
0.0134659
0.00297798
0.00244285
0.00331005
0.00410781
0.00435998
0.00418192
0.00364677
0.00291921
0.00227767
0.00159728
0.00120043
0.568416
0.0967262
0.0181455
0.00876866
0.0116331
0.0168008
0.0213308
0.0233452
0.0232532
0.021267
0.0179875
0.0145703
0.0105449
0.00786598
0.765166
0.153986
0.041451
0.0345347
0.0517807
0.0762365
0.0983371
0.110769
0.114412
0.109385
0.0971173
0.081531
0.0613659
0.0461855
0.00301169
0.000621992
0.000182929
0.000118446
0.000140152
0.000183261
0.000234379
0.000275303
0.000287903
0.000252743
0.000171126
8.73315e-05
3.46234e-05
3.45482e-05
0.00329219
0.000718266
0.000146473
3.08929e-05
1.15708e-05
1.22848e-05
1.79759e-05
2.43929e-05
2.88598e-05
2.81953e-05
2.07118e-05
1.10941e-05
5.75608e-06
2.88729e-05
0.00660683
0.00155663
0.00032765
6.1764e-05
1.04364e-05
2.03225e-06
1.26449e-06
1.7471e-06
2.3259e-06
2.51987e-06
1.99747e-06
1.18175e-06
2.21589e-06
3.2484e-05
0.0118493
0.00287051
0.000611276
0.000113941
1.82839e-05
2.52546e-06
3.52169e-07
1.42809e-07
1.70446e-07
1.99608e-07
1.75001e-07
1.5573e-07
1.49271e-06
2.93323e-05
0.0181407
0.00430696
0.000893947
0.00016107
2.48363e-05
3.25043e-06
3.70973e-07
5.66622e-08
3.19877e-08
3.27633e-08
3.24452e-08
5.83352e-08
1.09937e-06
2.39352e-05
0.0244477
0.00549508
0.00107909
0.000183945
2.68671e-05
3.33604e-06
3.61935e-07
5.16217e-08
2.55088e-08
2.37021e-08
2.36345e-08
4.05147e-08
7.32447e-07
1.75312e-05
0.0310072
0.00649191
0.00118687
0.000188349
2.5653e-05
2.98786e-06
3.18925e-07
5.74074e-08
3.39021e-08
2.91301e-08
2.63985e-08
3.51715e-08
4.91895e-07
1.24881e-05
0.0381547
0.00741411
0.00125862
0.000185496
2.35973e-05
2.68155e-06
3.99819e-07
1.78526e-07
1.33679e-07
9.70138e-08
6.67778e-08
5.4053e-08
3.21234e-07
8.15369e-06
0.0450311
0.00816961
0.00129423
0.000178052
2.18149e-05
3.34281e-06
1.58458e-06
1.33807e-06
1.08893e-06
7.78328e-07
4.97529e-07
3.19421e-07
3.68424e-07
5.21545e-06
0.0513849
0.00877076
0.00131294
0.000173517
2.56291e-05
1.13721e-05
1.12109e-05
1.06908e-05
9.05405e-06
6.74314e-06
4.49763e-06
2.95406e-06
1.9073e-06
4.03828e-06
0.0550969
0.00891799
0.00128352
0.000183815
6.25727e-05
6.69572e-05
7.7367e-05
7.6716e-05
6.73917e-05
5.25738e-05
3.70453e-05
2.54737e-05
1.61162e-05
1.23085e-05
0.0554968
0.00868953
0.0012935
0.00030914
0.000290082
0.000397654
0.000477925
0.000487997
0.000443833
0.000362036
0.000268694
0.000192146
0.000124434
8.48264e-05
0.053641
0.00867508
0.00167003
0.00100703
0.00147606
0.00213816
0.00262668
0.00275672
0.00259381
0.00220856
0.00172001
0.00127288
0.000846031
0.000574988
0.0645145
0.0124727
0.00395202
0.00431451
0.0070026
0.0103379
0.0128963
0.0138745
0.0134706
0.0119276
0.00968258
0.0073875
0.00507028
0.00348711
0.000247115
5.28024e-05
1.73767e-05
1.4229e-05
1.91012e-05
2.67753e-05
3.59578e-05
4.3862e-05
4.70673e-05
4.21193e-05
2.90561e-05
1.51808e-05
5.94481e-06
3.0982e-06
0.000402408
8.67032e-05
1.72581e-05
3.62641e-06
1.52433e-06
1.83225e-06
2.81329e-06
3.92981e-06
4.73706e-06
4.69236e-06
3.49773e-06
1.91138e-06
8.1689e-07
1.65035e-06
0.000864163
0.000196334
3.96827e-05
7.20402e-06
1.20043e-06
2.67861e-07
2.10773e-07
3.01226e-07
4.01215e-07
4.36936e-07
3.53173e-07
2.11671e-07
1.82966e-07
1.81566e-06
0.00159463
0.000369201
7.50452e-05
1.3413e-05
2.09375e-06
3.00465e-07
6.13141e-08
4.09997e-08
4.70205e-08
5.20576e-08
4.79935e-08
3.96532e-08
1.0589e-07
1.7806e-06
0.00244701
0.000553754
0.000109629
1.89481e-05
2.84045e-06
3.80683e-07
6.09812e-08
2.65955e-08
2.40423e-08
2.42691e-08
2.41654e-08
2.50068e-08
8.47266e-08
1.58405e-06
0.00323644
0.000694068
0.000130333
2.13731e-05
3.04119e-06
3.87214e-07
5.96059e-08
2.57586e-08
2.28937e-08
2.27017e-08
2.26841e-08
2.35269e-08
6.63217e-08
1.2685e-06
0.00393262
0.000786707
0.000137949
2.11344e-05
2.81572e-06
3.39942e-07
5.39738e-08
2.60856e-08
2.35706e-08
2.31062e-08
2.2861e-08
2.32754e-08
5.32013e-08
9.78004e-07
0.00456654
0.000848943
0.000138652
1.97971e-05
2.47358e-06
2.93968e-07
5.95776e-08
3.67153e-08
3.21219e-08
2.86833e-08
2.60238e-08
2.47661e-08
4.33178e-08
6.87024e-07
0.00506186
0.000878461
0.000134052
1.79056e-05
2.16189e-06
3.42701e-07
1.68204e-07
1.41027e-07
1.14678e-07
8.48133e-08
5.97019e-08
4.40929e-08
4.71944e-08
4.65263e-07
0.00536245
0.000876567
0.00012655
1.62767e-05
2.41478e-06
1.11566e-06
1.08074e-06
9.9981e-07
8.14389e-07
5.81684e-07
3.74175e-07
2.35814e-07
1.51763e-07
3.52238e-07
0.00529777
0.00082224
0.00011445
1.63169e-05
6.10442e-06
6.72767e-06
7.56679e-06
7.24611e-06
6.07642e-06
4.48169e-06
2.97238e-06
1.89552e-06
1.12471e-06
8.34156e-07
0.00487622
0.000734306
0.000107313
2.86066e-05
3.03089e-05
4.16116e-05
4.84831e-05
4.76407e-05
4.11941e-05
3.15826e-05
2.18891e-05
1.44372e-05
8.68338e-06
5.44013e-06
0.0042718
0.000668801
0.000137406
0.000104251
0.000163339
0.00023468
0.000278848
0.000280645
0.000250035
0.000199095
0.000143854
9.78951e-05
6.01782e-05
3.75147e-05
0.00470493
0.000898283
0.000355395
0.000482869
0.000818671
0.00119603
0.00144011
0.00147971
0.00135413
0.00111575
0.000835672
0.000584167
0.000369074
0.000233156
2.16374e-05
4.66968e-06
1.63725e-06
1.53912e-06
2.25699e-06
3.3645e-06
4.73619e-06
5.99959e-06
6.6104e-06
6.02466e-06
4.22508e-06
2.25798e-06
9.05907e-07
3.63405e-07
4.49618e-05
9.42969e-06
1.83131e-06
3.9478e-07
1.93513e-07
2.51939e-07
3.93877e-07
5.59308e-07
6.84025e-07
6.86804e-07
5.22102e-07
2.9794e-07
1.32941e-07
1.23757e-07
0.000100175
2.18729e-05
4.25781e-06
7.59486e-07
1.40361e-07
4.93291e-08
4.73605e-08
6.12359e-08
7.60603e-08
8.16871e-08
7.00567e-08
4.97645e-08
3.73426e-08
1.17174e-07
0.000187865
4.15738e-05
8.09517e-06
1.40484e-06
2.29171e-07
4.97187e-08
2.66408e-08
2.50485e-08
2.60483e-08
2.67951e-08
2.62183e-08
2.48367e-08
2.74158e-08
1.21574e-07
0.000286896
6.20387e-05
1.17715e-05
1.97251e-06
3.03663e-07
5.74468e-08
2.62743e-08
2.29858e-08
2.27634e-08
2.28039e-08
2.27856e-08
2.27706e-08
2.60435e-08
1.18327e-07
0.00037021
7.60433e-05
1.37309e-05
2.18879e-06
3.19861e-07
5.76785e-08
2.60787e-08
2.28572e-08
2.25828e-08
2.25633e-08
2.25596e-08
2.26014e-08
2.51945e-08
1.06422e-07
0.000430142
8.26692e-05
1.39903e-05
2.09265e-06
2.89342e-07
5.22884e-08
2.54467e-08
2.28533e-08
2.2618e-08
2.25763e-08
2.25555e-08
2.25765e-08
2.45403e-08
9.25619e-08
0.000470401
8.42792e-05
1.33319e-05
1.8678e-06
2.46013e-07
4.68229e-08
2.57258e-08
2.36693e-08
2.32617e-08
2.29774e-08
2.27699e-08
2.26724e-08
2.40106e-08
7.52543e-08
0.00048847
8.18146e-05
1.21209e-05
1.59633e-06
2.07123e-07
4.97318e-08
3.45751e-08
3.20182e-08
2.96358e-08
2.71264e-08
2.51446e-08
2.39558e-08
2.43013e-08
6.034e-08
0.000481157
7.60905e-05
1.06909e-05
1.36316e-06
2.20378e-07
1.15782e-07
1.11392e-07
1.02119e-07
8.44947e-08
6.42827e-08
4.74885e-08
3.67287e-08
3.08567e-08
5.09108e-08
0.000439913
6.62387e-05
9.00791e-06
1.30711e-06
5.49246e-07
6.15881e-07
6.73365e-07
6.24863e-07
5.0571e-07
3.60582e-07
2.33924e-07
1.47968e-07
9.19068e-08
7.53049e-08
0.00037236
5.46429e-05
7.95242e-06
2.41567e-06
2.82046e-06
3.84327e-06
4.34237e-06
4.11198e-06
3.39502e-06
2.46723e-06
1.61514e-06
1.00056e-06
5.72105e-07
3.43379e-07
0.000298347
4.59571e-05
1.04108e-05
9.74291e-06
1.58935e-05
2.24947e-05
2.5851e-05
2.49789e-05
2.11515e-05
1.586e-05
1.07251e-05
6.78592e-06
3.89747e-06
2.25849e-06
0.000306352
5.94167e-05
3.02576e-05
4.82023e-05
8.34848e-05
0.000119826
0.000139204
0.000136832
0.000118553
9.15688e-05
6.38663e-05
4.13559e-05
2.42734e-05
1.41998e-05
1.89833e-06
4.16028e-07
1.59893e-07
1.63839e-07
2.47887e-07
3.80775e-07
5.52565e-07
7.21067e-07
8.13766e-07
7.56926e-07
5.43739e-07
3.04006e-07
1.35542e-07
6.17967e-08
4.50014e-06
9.27581e-07
1.90683e-07
5.65294e-08
3.95813e-08
4.75761e-08
6.49179e-08
8.57749e-08
1.02206e-07
1.03741e-07
8.42361e-08
5.69853e-08
3.63545e-08
2.9957e-08
1.02458e-05
2.1644e-06
4.2196e-07
8.95692e-08
3.30677e-08
2.51979e-08
2.54116e-08
2.71854e-08
2.90672e-08
2.98309e-08
2.84477e-08
2.59647e-08
2.41111e-08
2.74441e-08
1.94109e-05
4.13271e-06
7.89597e-07
1.49141e-07
4.09364e-08
2.49542e-08
2.29693e-08
2.28711e-08
2.3004e-08
2.30985e-08
2.30283e-08
2.2851e-08
2.28785e-08
2.78316e-08
2.94732e-05
6.13463e-06
1.13709e-06
2.01272e-07
4.76203e-08
2.56179e-08
2.28955e-08
2.26121e-08
2.25938e-08
2.25981e-08
2.25945e-08
2.25864e-08
2.27531e-08
2.80889e-08
3.71409e-05
7.36549e-06
1.30177e-06
2.18546e-07
4.8793e-08
2.56036e-08
2.28656e-08
2.25875e-08
2.25619e-08
2.25584e-08
2.25564e-08
2.2557e-08
2.27072e-08
2.78772e-08
4.14137e-05
7.71336e-06
1.28314e-06
2.04439e-07
4.54988e-08
2.50727e-08
2.2796e-08
2.25756e-08
2.25536e-08
2.25484e-08
2.2545e-08
2.25446e-08
2.267e-08
2.74036e-08
4.2884e-05
7.47565e-06
1.16838e-06
1.77794e-07
4.10007e-08
2.45166e-08
2.27902e-08
2.26209e-08
2.25872e-08
2.25648e-08
2.25486e-08
2.25409e-08
2.26378e-08
2.65513e-08
4.18848e-05
6.84196e-06
1.0068e-06
1.48055e-07
3.70216e-08
2.46103e-08
2.34095e-08
2.31998e-08
2.30145e-08
2.28301e-08
2.26906e-08
2.26103e-08
2.26526e-08
2.57012e-08
3.85234e-05
5.95841e-06
8.36372e-07
1.2308e-07
3.72905e-08
2.95203e-08
2.90786e-08
2.82467e-08
2.68339e-08
2.53154e-08
2.41179e-08
2.33804e-08
2.30263e-08
2.50257e-08
3.26755e-05
4.82912e-06
6.62241e-07
1.14446e-07
6.28924e-08
6.84846e-08
7.18716e-08
6.6918e-08
5.68472e-08
4.55292e-08
3.62262e-08
3.01995e-08
2.6554e-08
2.60148e-08
2.55502e-05
3.70301e-06
5.56723e-07
2.03325e-07
2.49277e-07
3.29634e-07
3.60784e-07
3.32659e-07
2.67995e-07
1.92217e-07
1.27309e-07
8.31227e-08
5.46632e-08
4.04084e-08
1.88265e-05
2.9038e-06
7.50032e-07
8.29283e-07
1.37211e-06
1.9033e-06
2.11995e-06
1.97728e-06
1.60398e-06
1.14736e-06
7.39332e-07
4.47545e-07
2.5166e-07
1.4648e-07
1.81824e-05
3.69049e-06
2.41376e-06
4.27278e-06
7.45627e-06
1.04868e-05
1.17814e-05
1.1129e-05
9.18493e-06
6.7094e-06
4.40203e-06
2.67483e-06
1.481e-06
8.19354e-07
1.74937e-07
5.33043e-08
3.3038e-08
3.4057e-08
4.22386e-08
5.57025e-08
7.39165e-08
9.28154e-08
1.04353e-07
9.99294e-08
7.8172e-08
5.29765e-08
3.49685e-08
2.6759e-08
4.16473e-07
9.94259e-08
3.6413e-08
2.53293e-08
2.40653e-08
2.49361e-08
2.67392e-08
2.89833e-08
3.08356e-08
3.11297e-08
2.9143e-08
2.6284e-08
2.40835e-08
2.31934e-08
9.40155e-07
2.07798e-07
5.59717e-08
2.8015e-08
2.34216e-08
2.28129e-08
2.28635e-08
2.30552e-08
2.32609e-08
2.33509e-08
2.32105e-08
2.29491e-08
2.2741e-08
2.28342e-08
1.78163e-06
3.81898e-07
8.73943e-08
3.2954e-08
2.40483e-08
2.27674e-08
2.26132e-08
2.26094e-08
2.26246e-08
2.26355e-08
2.26288e-08
2.261e-08
2.26021e-08
2.28424e-08
2.68738e-06
5.56864e-07
1.1697e-07
3.72918e-08
2.45903e-08
2.28144e-08
2.25986e-08
2.25766e-08
2.25756e-08
2.25764e-08
2.25766e-08
2.25758e-08
2.25839e-08
2.28709e-08
3.31678e-06
6.54402e-07
1.29599e-07
3.85669e-08
2.46654e-08
2.28056e-08
2.25894e-08
2.25678e-08
2.25661e-08
2.2566e-08
2.2566e-08
2.2566e-08
2.25744e-08
2.28802e-08
3.56954e-06
6.63958e-07
1.25187e-07
3.70673e-08
2.43592e-08
2.27535e-08
2.25769e-08
2.25602e-08
2.25586e-08
2.25582e-08
2.25579e-08
2.25578e-08
2.25656e-08
2.28714e-08
3.52815e-06
6.18066e-07
1.1224e-07
3.44994e-08
2.3951e-08
2.26977e-08
2.25681e-08
2.25558e-08
2.25535e-08
2.2552e-08
2.25508e-08
2.25505e-08
2.25572e-08
2.28358e-08
3.26837e-06
5.4045e-07
9.60035e-08
3.17821e-08
2.35925e-08
2.26862e-08
2.25987e-08
2.25841e-08
2.25721e-08
2.25606e-08
2.25519e-08
2.25475e-08
2.25521e-08
2.27954e-08
2.83468e-06
4.48299e-07
8.00287e-08
2.95411e-08
2.35395e-08
2.29935e-08
2.29554e-08
2.28948e-08
2.27992e-08
2.27013e-08
2.26268e-08
2.25833e-08
2.25659e-08
2.27519e-08
2.25493e-06
3.46095e-07
6.50309e-08
2.86028e-08
2.52528e-08
2.56222e-08
2.57908e-08
2.53967e-08
2.46816e-08
2.39227e-08
2.33265e-08
2.29564e-08
2.27465e-08
2.27703e-08
1.64908e-06
2.54318e-07
5.61592e-08
3.47955e-08
3.8542e-08
4.40137e-08
4.56847e-08
4.32058e-08
3.83562e-08
3.30506e-08
2.87402e-08
2.59438e-08
2.42522e-08
2.34681e-08
1.13146e-06
1.92449e-07
6.97689e-08
8.154e-08
1.22517e-07
1.59764e-07
1.71668e-07
1.57326e-07
1.27532e-07
9.40213e-08
6.59019e-08
4.6914e-08
3.50146e-08
2.89389e-08
1.02631e-06
2.37376e-07
1.95078e-07
3.51811e-07
6e-07
8.20063e-07
8.92791e-07
8.16567e-07
6.50705e-07
4.59412e-07
2.93764e-07
1.77739e-07
1.03319e-07
6.42607e-08
3.38186e-08
2.47474e-08
2.32856e-08
2.33937e-08
2.40728e-08
2.52427e-08
2.6899e-08
2.87081e-08
2.99118e-08
2.96473e-08
2.77232e-08
2.54247e-08
2.37591e-08
2.29816e-08
5.31512e-08
2.83471e-08
2.35841e-08
2.27732e-08
2.26908e-08
2.27714e-08
2.29339e-08
2.31432e-08
2.33242e-08
2.33643e-08
2.31902e-08
2.29304e-08
2.27283e-08
2.26383e-08
9.51867e-08
3.67502e-08
2.50534e-08
2.29666e-08
2.2635e-08
2.25946e-08
2.26024e-08
2.26217e-08
2.26426e-08
2.26531e-08
2.26421e-08
2.26192e-08
2.26007e-08
2.25999e-08
1.63426e-07
5.04209e-08
2.7447e-08
2.33307e-08
2.26771e-08
2.2587e-08
2.25779e-08
2.25795e-08
2.25824e-08
2.2585e-08
2.25858e-08
2.25852e-08
2.25852e-08
2.25964e-08
2.35933e-07
6.40811e-08
2.97022e-08
2.36521e-08
2.27137e-08
2.25869e-08
2.25733e-08
2.25734e-08
2.25749e-08
2.25764e-08
2.25779e-08
2.25789e-08
2.25804e-08
2.25953e-08
2.82161e-07
7.10413e-08
3.05768e-08
2.37342e-08
2.27147e-08
2.25826e-08
2.2569e-08
2.25691e-08
2.25704e-08
2.25718e-08
2.25731e-08
2.25741e-08
2.25756e-08
2.25929e-08
2.93751e-07
7.04864e-08
3.00678e-08
2.35994e-08
2.26864e-08
2.25745e-08
2.2564e-08
2.25644e-08
2.25657e-08
2.25669e-08
2.2568e-08
2.2569e-08
2.25704e-08
2.25894e-08
2.79873e-07
6.543e-08
2.88945e-08
2.33836e-08
2.26501e-08
2.25658e-08
2.25588e-08
2.25595e-08
2.25608e-08
2.25619e-08
2.25629e-08
2.25639e-08
2.25652e-08
2.25845e-08
2.49865e-07
5.82248e-08
2.75303e-08
2.31652e-08
2.26179e-08
2.25596e-08
2.25556e-08
2.25563e-08
2.2557e-08
2.25576e-08
2.25582e-08
2.25592e-08
2.25606e-08
2.25796e-08
2.09458e-07
5.04429e-08
2.62574e-08
2.29879e-08
2.26052e-08
2.25717e-08
2.25707e-08
2.25686e-08
2.25645e-08
2.25603e-08
2.25573e-08
2.25564e-08
2.25565e-08
2.25734e-08
1.62682e-07
4.26037e-08
2.51366e-08
2.2902e-08
2.26998e-08
2.27215e-08
2.27302e-08
2.27059e-08
2.26639e-08
2.26211e-08
2.25887e-08
2.257e-08
2.256e-08
2.25677e-08
1.18656e-07
3.60874e-08
2.44828e-08
2.32714e-08
2.35196e-08
2.38455e-08
2.39228e-08
2.37477e-08
2.34396e-08
2.31198e-08
2.2871e-08
2.27167e-08
2.26277e-08
2.2592e-08
8.37211e-08
3.18797e-08
2.53189e-08
2.63131e-08
2.89868e-08