/*--------------------------------*- C++ -*----------------------------------*\
| =========                 |                                                 |
| \\      /  F ield         | OpenFOAM: The Open Source CFD Toolbox           |
|  \\    /   O peration     | Version:  v2106                                 |
|   \\  /    A nd           | Website:  www.openfoam.com                      |
|    \\/     M anipulation  |                                                 |
\*---------------------------------------------------------------------------*/
FoamFile
{
    version     2.0;
    format      ascii;
    arch        "LSB;label=32;scalar=64";
    class       surfaceScalarField;
    location    "0.000148";
    object      phi;
}
// * * * * * * * * * * * * * * * * * * * * * * * * * * * * * * * * * * * * * //

dimensions      [1 0 -1 0 0 0 0];

internalField   nonuniform List<scalar> 
52765
(
1.81266e-06
-1.18756e-06
-1.91025e-06
1.43757e-06
-2.46814e-06
1.24747e-06
-9.57985e-07
-1.93108e-06
6.27985e-07
-7.66054e-07
-1.88704e-06
8.62505e-08
-6.20685e-07
-1.85464e-06
-3.65767e-07
-4.731e-07
-1.80313e-06
-7.42564e-07
-3.14319e-07
-1.75832e-06
-1.12509e-07
-1.71138e-06
1.88558e-06
-7.94749e-07
-1.85182e-06
-2.68425e-06
1.20817e-06
-6.9281e-07
-1.87686e-06
6.26635e-07
-5.81985e-07
-1.84795e-06
1.47997e-07
-5.30673e-07
-1.83134e-06
-2.54426e-07
-4.4699e-07
-1.79184e-06
-5.95594e-07
-3.38183e-07
-1.75751e-06
-1.91346e-07
-1.71841e-06
1.79644e-06
-4.07773e-07
-1.78637e-06
-2.5825e-06
1.16192e-06
-4.54753e-07
-1.82166e-06
6.37359e-07
-4.42981e-07
-1.80725e-06
2.08644e-07
-4.78881e-07
-1.81063e-06
-1.61817e-07
-4.5084e-07
-1.78399e-06
-4.7073e-07
-3.95032e-07
-1.75562e-06
-2.98794e-07
-1.7218e-06
1.624e-06
-1.26766e-07
-1.75474e-06
-2.29422e-06
1.09124e-06
-3.13265e-07
-1.79788e-06
6.37371e-07
-3.77116e-07
-1.79628e-06
2.47408e-07
-4.71455e-07
-1.79642e-06
-9.884e-08
-4.78401e-07
-1.77878e-06
-3.81693e-07
-4.79297e-07
-1.75305e-06
-4.32608e-07
-1.72285e-06
1.40946e-06
-3.4246e-08
-1.76506e-06
9.75365e-07
-2.79591e-07
-1.78979e-06
5.86808e-07
-3.82389e-07
-1.79592e-06
2.42653e-07
-5.10289e-07
-1.79126e-06
-6.54433e-08
-5.45178e-07
-1.77453e-06
-3.23754e-07
-5.86822e-07
-1.74646e-06
-5.77955e-07
-1.72047e-06
1.17032e-06
-8.26695e-08
-1.77978e-06
8.1166e-07
-3.32791e-07
-1.79206e-06
4.87055e-07
-4.63154e-07
-1.79333e-06
1.88251e-07
-6.0335e-07
-1.78277e-06
-7.7479e-08
-6.5847e-07
-1.76686e-06
-3.03224e-07
-7.28274e-07
-1.73839e-06
-7.42484e-07
-1.71482e-06
9.15999e-07
-2.30716e-07
-1.79375e-06
6.18723e-07
-4.58349e-07
-1.7988e-06
3.57902e-07
-6.13976e-07
-1.79329e-06
1.10251e-07
-7.53696e-07
-1.77974e-06
-1.10271e-07
-8.2169e-07
-1.761e-06
-3.10303e-07
-8.98003e-07
-1.73216e-06
-9.20235e-07
-1.70882e-06
6.59513e-07
-1.79907e-06
4.3865e-07
-1.79787e-06
2.33518e-07
-1.78397e-06
2.95441e-08
-1.76685e-06
-1.52199e-07
-1.74472e-06
-3.27363e-07
-1.71601e-06
-1.69198e-06
1.78688e-06
-8.79196e-07
1.11454e-06
-2.40496e-06
-1.4693e-06
1.27837e-06
-6.84666e-07
7.96952e-07
-1.4952e-06
7.31377e-07
-5.65245e-07
7.34403e-07
-1.47419e-06
2.53245e-07
-4.64196e-07
5.7546e-07
-1.45362e-06
-1.46274e-07
-3.70406e-07
4.20504e-07
-1.41713e-06
-4.82513e-07
-2.56986e-07
2.61987e-07
-1.38538e-06
-7.56958e-07
-1.00968e-07
5.74322e-08
-1.34774e-06
-9.74746e-07
8.1404e-08
-1.68247e-07
-1.30066e-06
-1.13774e-06
2.74616e-07
-4.0339e-07
-1.25346e-06
-1.22592e-06
4.47668e-07
-6.41605e-07
-1.19931e-06
-1.20763e-06
5.98711e-07
-8.8649e-07
-1.14579e-06
-1.08457e-06
7.32763e-07
-1.12087e-06
-1.0967e-06
-8.75203e-07
8.36787e-07
-1.31066e-06
-1.07969e-06
9.52699e-07
-1.42826e-06
-6.69095e-07
-1.08568e-06
1.78951e-06
-5.46014e-07
-2.49709e-06
-1.41901e-06
1.20808e-06
-4.8216e-07
-1.45312e-06
7.05671e-07
-4.30367e-07
-1.44248e-06
2.90343e-07
-4.06522e-07
-1.43731e-06
-6.74865e-08
-3.57059e-07
-1.40913e-06
-3.76961e-07
-2.81394e-07
-1.38378e-06
-6.29735e-07
-1.70119e-07
-1.35401e-06
-8.19251e-07
-4.08268e-08
-1.31113e-06
-9.43111e-07
9.59465e-08
-1.26853e-06
-1.02166e-06
2.29618e-07
-1.22395e-06
-1.03876e-06
3.26827e-07
-1.18654e-06
-9.96784e-07
4.06881e-07
-1.1598e-06
-9.05802e-07
4.65887e-07
-1.14098e-06
5.7896e-07
-8.24871e-07
-1.11767e-06
1.68065e-06
-2.42758e-07
-2.34946e-06
-1.36751e-06
1.14788e-06
-3.1513e-07
-1.41317e-06
6.99976e-07
-3.40273e-07
-1.412e-06
3.28407e-07
-3.87782e-07
-1.42232e-06
-3.65769e-09
-3.70262e-07
-1.40484e-06
-2.85183e-07
-3.35915e-07
-1.38464e-06
-5.18076e-07
-2.64345e-07
-1.35819e-06
-7.01205e-07
-1.7624e-07
-1.32321e-06
-8.23984e-07
-9.20701e-08
-1.2892e-06
-8.99826e-07
3.56903e-10
-1.25175e-06
-9.2929e-07
5.83361e-08
-1.2143e-06
-9.15062e-07
9.87424e-08
-1.18086e-06
-8.68373e-07
1.27925e-07
-1.15112e-06
1.9741e-07
-7.83187e-07
-1.13126e-06
1.52185e-06
-6.05516e-08
-2.06307e-06
-1.35512e-06
1.08071e-06
-2.38867e-07
-1.39913e-06
6.89747e-07
-3.09958e-07
-1.40588e-06
3.43116e-07
-3.93907e-07
-1.4161e-06
3.78036e-08
-4.12468e-07
-1.40345e-06
-2.18711e-07
-4.19618e-07
-1.38415e-06
-4.30839e-07
-3.85774e-07
-1.3604e-06
-5.98456e-07
-3.35402e-07
-1.32777e-06
-7.18945e-07
-2.90985e-07
-1.29681e-06
-8.00539e-07
-2.33736e-07
-1.26401e-06
-8.51025e-07
-2.01297e-07
-1.22893e-06
-8.67817e-07
-1.899e-07
-1.19765e-06
-8.56801e-07
-1.85098e-07
-1.16919e-06
-1.70099e-07
-7.90698e-07
-1.14775e-06
1.33704e-06
-3.62563e-08
-1.72838e-06
-1.37253e-06
9.74672e-07
-2.44962e-07
-1.40027e-06
6.40444e-07
-3.38175e-07
-1.41141e-06
3.39889e-07
-4.50072e-07
-1.41213e-06
6.24844e-08
-4.84934e-07
-1.40146e-06
-1.749e-07
-5.24132e-07
-1.3808e-06
-3.77138e-07
-5.19156e-07
-1.35977e-06
-5.4229e-07
-4.99461e-07
-1.32917e-06
-6.71224e-07
-4.86207e-07
-1.30078e-06
-7.65205e-07
-4.59995e-07
-1.2686e-06
-8.32155e-07
-4.48881e-07
-1.23456e-06
-8.68989e-07
-4.62845e-07
-1.20283e-06
-8.74243e-07
-4.85496e-07
-1.17464e-06
-5.13029e-07
-8.34653e-07
-1.15081e-06
1.13572e-06
-1.24798e-07
-1.43111e-06
-1.39142e-06
8.30612e-07
-3.21107e-07
-1.40423e-06
5.47988e-07
-4.30267e-07
-1.41075e-06
2.82801e-07
-5.50629e-07
-1.40599e-06
4.28039e-08
-6.00019e-07
-1.395e-06
-1.66497e-07
-6.59429e-07
-1.37394e-06
-3.51253e-07
-6.71613e-07
-1.3544e-06
-5.09488e-07
-6.70487e-07
-1.32377e-06
-6.44874e-07
-6.74053e-07
-1.29761e-06
-7.53628e-07
-6.69177e-07
-1.26522e-06
-8.41986e-07
-6.735e-07
-1.23265e-06
-9.00761e-07
-7.13506e-07
-1.2014e-06
-9.32153e-07
-7.60068e-07
-1.1709e-06
-8.22815e-07
-9.24885e-07
-1.14561e-06
9.23898e-07
-2.89066e-07
-1.16086e-06
-1.40187e-06
6.71818e-07
-4.62703e-07
-1.41077e-06
4.426e-07
-5.86324e-07
-1.41172e-06
2.19632e-07
-7.02134e-07
-1.40406e-06
1.68015e-08
-7.57786e-07
-1.3901e-06
-1.71277e-07
-8.18535e-07
-1.3685e-06
-3.45714e-07
-8.35684e-07
-1.34855e-06
-5.03651e-07
-8.41813e-07
-1.31667e-06
-6.48322e-07
-8.51961e-07
-1.29107e-06
-7.73635e-07
-8.59294e-07
-1.25591e-06
-8.83857e-07
-8.73425e-07
-1.22246e-06
-9.6577e-07
-9.3732e-07
-1.19059e-06
-1.02688e-06
-9.98753e-07
-1.15436e-06
-1.0974e-06
-1.04745e-06
-1.1281e-06
7.2303e-07
-5.25884e-07
-8.99077e-07
-1.40285e-06
5.29822e-07
-6.72523e-07
-1.40513e-06
3.44387e-07
-7.93855e-07
-1.39889e-06
1.55996e-07
-8.94425e-07
-1.38931e-06
-1.6499e-08
-9.51241e-07
-1.37292e-06
-1.84513e-07
-1.0009e-06
-1.35136e-06
-3.45985e-07
-1.01396e-06
-1.33097e-06
-5.01329e-07
-1.01562e-06
-1.29962e-06
-6.5264e-07
-1.02281e-06
-1.27463e-06
-7.9372e-07
-1.03202e-06
-1.23752e-06
-9.24143e-07
-1.05063e-06
-1.20409e-06
-1.03322e-06
-1.12923e-06
-1.16945e-06
-1.13053e-06
-1.19436e-06
-1.12809e-06
-1.32793e-06
-1.18862e-06
-1.10035e-06
5.45801e-07
-8.18557e-07
-6.81884e-07
-1.40597e-06
3.97644e-07
-9.37014e-07
-1.402e-06
2.52559e-07
-1.04682e-06
-1.39158e-06
9.86756e-08
-1.12411e-06
-1.38122e-06
-4.8316e-08
-1.17253e-06
-1.36325e-06
-2.01811e-07
-1.19929e-06
-1.34099e-06
-3.55788e-07
-1.20011e-06
-1.31908e-06
-5.12498e-07
-1.18787e-06
-1.28696e-06
-6.73022e-07
-1.18387e-06
-1.26018e-06
-8.30754e-07
-1.18652e-06
-1.21943e-06
-9.78988e-07
-1.20735e-06
-1.18553e-06
-1.11788e-06
-1.28547e-06
-1.144e-06
-1.24694e-06
-1.35152e-06
-1.1008e-06
-1.50883e-06
-1.34706e-06
-1.06927e-06
3.82681e-07
-1.18629e-06
-4.54225e-07
-1.40995e-06
2.95197e-07
-1.27386e-06
-1.39212e-06
1.92896e-07
-1.35134e-06
-1.37163e-06
7.68113e-08
-1.39579e-06
-1.35303e-06
-4.44994e-08
-1.42174e-06
-1.33231e-06
-1.82615e-07
-1.41533e-06
-1.31056e-06
-3.31208e-07
-1.39395e-06
-1.29061e-06
-4.92883e-07
-1.35771e-06
-1.2623e-06
-6.68726e-07
-1.33112e-06
-1.23678e-06
-8.50541e-07
-1.31767e-06
-1.19683e-06
-1.02591e-06
-1.33669e-06
-1.16321e-06
-1.20368e-06
-1.39934e-06
-1.11384e-06
-1.37225e-06
-1.4663e-06
-1.07126e-06
-1.61687e-06
-1.537e-06
-1.0246e-06
2.20958e-07
-1.61759e-06
-2.34547e-07
-1.41753e-06
1.89536e-07
-1.67684e-06
-1.38765e-06
1.3533e-07
-1.70833e-06
-1.36147e-06
6.24227e-08
-1.71387e-06
-1.33247e-06
-3.63782e-08
-1.69449e-06
-1.31154e-06
-1.64275e-07
-1.64357e-06
-1.29101e-06
-3.14368e-07
-1.58882e-06
-1.27121e-06
-4.82364e-07
-1.52419e-06
-1.24334e-06
-6.69593e-07
-1.46945e-06
-1.21558e-06
-8.69745e-07
-1.43366e-06
-1.17635e-06
-1.06788e-06
-1.44507e-06
-1.14153e-06
-1.27591e-06
-1.48495e-06
-1.08617e-06
-1.49343e-06
-1.53381e-06
-1.04795e-06
-1.62648e-06
-1.75287e-06
-9.83128e-07
7.34678e-08
-2.10575e-06
-2.37613e-08
-1.41538e-06
1.04828e-07
-2.13656e-06
-1.37326e-06
1.17807e-07
-2.13066e-06
-1.3272e-06
9.69717e-08
-2.08488e-06
-1.28899e-06
3.10453e-08
-2.00046e-06
-1.2661e-06
-7.80042e-08
-1.89165e-06
-1.25056e-06
-2.30498e-07
-1.78364e-06
-1.23806e-06
-4.13017e-07
-1.68065e-06
-1.21701e-06
-6.22725e-07
-1.59111e-06
-1.1927e-06
-8.46413e-07
-1.53085e-06
-1.15537e-06
-1.07512e-06
-1.5278e-06
-1.11973e-06
-1.3253e-06
-1.53467e-06
-1.07057e-06
-1.60799e-06
-1.53918e-06
-1.03985e-06
-1.54136e-06
-1.96868e-06
-9.60035e-07
-9.33822e-08
-2.55909e-06
1.03692e-07
-1.40522e-06
-9.62658e-09
-2.64931e-06
-1.36212e-06
7.79019e-08
-2.62749e-06
-1.30798e-06
1.11645e-07
-2.51002e-06
-1.26484e-06
7.43837e-08
-2.33854e-06
-1.23576e-06
-2.26306e-08
-2.1567e-06
-1.21647e-06
-1.68146e-07
-1.98977e-06
-1.20106e-06
-3.47532e-07
-1.84303e-06
-1.18231e-06
-5.63766e-07
-1.7095e-06
-1.16118e-06
-8.18483e-07
-1.60587e-06
-1.13142e-06
-1.10072e-06
-1.57034e-06
-1.0982e-06
-1.39042e-06
-1.55838e-06
-1.05624e-06
-1.70248e-06
-1.52789e-06
-1.02355e-06
-1.4205e-06
-2.10965e-06
-9.62999e-07
-3.25257e-07
-3.07897e-06
4.23842e-07
-1.38728e-06
-1.50573e-07
-3.2394e-06
-1.3272e-06
3.59793e-08
-3.21595e-06
-1.24765e-06
1.80517e-07
-3.03416e-06
-1.18427e-06
2.12715e-07
-2.73941e-06
-1.16222e-06
1.33279e-07
-2.43614e-06
-1.1625e-06
-3.00819e-08
-2.17896e-06
-1.16393e-06
-2.45556e-07
-1.97355e-06
-1.15395e-06
-4.98062e-07
-1.79443e-06
-1.13797e-06
-7.89294e-07
-1.6445e-06
-1.11143e-06
-1.11412e-06
-1.5734e-06
-1.08288e-06
-1.46885e-06
-1.52404e-06
-1.04259e-06
-1.79358e-06
-1.51378e-06
-1.01127e-06
-2.18649e-06
-1.32229e-06
-9.94588e-07
1.18231e-06
-1.26695e-06
-1.93328e-06
8.23968e-07
-1.4972e-06
-2.09718e-06
3.43589e-07
-1.75389e-06
-2.19309e-06
-1.95979e-07
-2.02498e-06
-2.1752e-06
-7.20537e-07
-2.29045e-06
-1.94784e-06
-2.56062e-06
-1.38121e-06
8.39627e-07
1.7785e-06
-1.7539e-06
-9.78608e-07
4.74956e-07
2.03753e-06
-1.97091e-06
-1.14869e-06
-2.63529e-08
2.29146e-06
-2.15462e-06
-1.32985e-06
-6.29015e-07
2.43054e-06
-2.26244e-06
-1.52198e-06
-1.28912e-06
2.4055e-06
-2.25772e-06
-1.70212e-06
2.11647e-06
-2.08041e-06
-1.89838e-06
-1.90423e-06
7.09908e-07
1.52667e-06
-1.22694e-06
6.50022e-07
1.70325e-06
-1.41371e-06
5.63636e-07
1.90432e-06
-1.62286e-06
4.73989e-07
1.96413e-06
-1.85458e-06
3.98068e-07
1.82741e-06
-2.11757e-06
1.35383e-06
4.18939e-07
-2.40923e-06
8.37974e-07
1.03382e-06
-1.43016e-06
9.91053e-07
1.10848e-06
-1.64149e-06
1.14277e-06
1.21477e-06
-1.88124e-06
1.32428e-06
1.15374e-06
-2.13412e-06
1.55907e-06
8.5331e-07
-2.43658e-06
1.75407e-07
1.88311e-06
-2.78653e-06
7.62813e-07
4.24513e-07
-1.58285e-06
1.0239e-06
3.64199e-07
-1.78903e-06
1.34176e-06
3.19381e-07
-2.05066e-06
1.71506e-06
1.10058e-07
-2.3074e-06
2.14858e-06
-3.52464e-07
-2.62893e-06
-1.18082e-06
2.62634e-06
-3.00712e-06
6.05609e-07
-1.89016e-07
-1.66422e-06
8.54974e-07
-3.71497e-07
-1.86496e-06
1.18939e-06
-5.92206e-07
-2.1173e-06
1.57151e-06
-9.44469e-07
-2.34784e-06
1.97855e-06
-1.52196e-06
-2.62978e-06
-2.4453e-06
2.39562e-06
-2.98634e-06
3.84082e-07
-7.30085e-07
-1.68733e-06
5.54e-07
-1.01211e-06
-1.86043e-06
7.94908e-07
-1.37757e-06
-2.07203e-06
1.08968e-06
-1.85551e-06
-2.25808e-06
1.40573e-06
-2.52403e-06
-2.46571e-06
-3.49677e-06
1.72247e-06
-2.73573e-06
6.76966e-08
-1.13983e-06
-1.66902e-06
9.75654e-08
-1.4772e-06
-1.80959e-06
1.57333e-07
-1.91694e-06
-1.95488e-06
2.52251e-07
-2.47898e-06
-2.07395e-06
3.66319e-07
-3.19511e-06
-2.16768e-06
-4.18834e-06
4.63076e-07
-2.29498e-06
-2.9616e-07
-1.37956e-06
-1.58585e-06
-4.65968e-07
-1.6936e-06
-1.69104e-06
-6.42368e-07
-2.13933e-06
-1.75769e-06
-8.1768e-07
-2.72216e-06
-1.80019e-06
-1.01055e-06
-3.4258e-06
-1.77387e-06
-4.39123e-06
-1.25625e-06
-1.77026e-06
-6.89232e-07
-1.42075e-06
-1.46164e-06
-1.0966e-06
-1.61876e-06
-1.5378e-06
-1.56306e-06
-2.00175e-06
-1.5436e-06
-2.07926e-06
-2.52808e-06
-1.517e-06
-2.67036e-06
-3.15185e-06
-1.38124e-06
-4.03902e-06
-3.35044e-06
-1.27236e-06
-1.11656e-06
-1.23825e-06
-1.30268e-06
-1.73455e-06
-1.29408e-06
-1.36605e-06
-2.44436e-06
-1.57514e-06
-1.33553e-06
-3.27904e-06
-1.95934e-06
-1.24863e-06
-4.26839e-06
-2.42489e-06
-1.06764e-06
-3.15144e-06
-5.40481e-06
-8.97062e-07
-1.52881e-06
-8.58747e-07
-1.13954e-06
-2.2787e-06
-8.10578e-07
-1.1979e-06
-3.14252e-06
-9.59111e-07
-1.16245e-06
-4.17901e-06
-1.15633e-06
-1.06815e-06
-5.41841e-06
-1.41564e-06
-9.05776e-07
-1.84388e-06
-6.92952e-06
-7.01651e-07
-1.83184e-06
-3.87286e-07
-9.93945e-07
-2.61154e-06
-2.76941e-07
-1.05935e-06
-3.53545e-06
-2.69128e-07
-1.02225e-06
-4.66321e-06
-2.67442e-07
-9.53918e-07
-6.00982e-06
-3.01574e-07
-8.35713e-07
-4.09973e-07
-7.65297e-06
-6.2157e-07
-1.98318e-06
7.82857e-08
-8.61512e-07
-2.6946e-06
2.1974e-07
-9.34128e-07
-3.54667e-06
3.67691e-07
-9.24175e-07
-4.56842e-06
5.17264e-07
-9.20847e-07
-5.74326e-06
6.42884e-07
-8.55383e-07
7.04154e-07
-7.09208e-06
-7.12942e-07
-1.92872e-06
4.05576e-07
-7.00504e-07
-2.50038e-06
5.98822e-07
-7.82772e-07
-3.18828e-06
8.37842e-07
-8.2125e-07
-3.95235e-06
1.03096e-06
-8.70939e-07
-4.75871e-06
1.17435e-06
-8.55838e-07
1.22163e-06
-5.5982e-06
-8.47149e-07
-9.14492e-07
4.76834e-07
-7.11231e-07
-1.24482e-06
7.34183e-07
-8.15662e-07
-1.69174e-06
1.05296e-06
-8.93091e-07
-2.26197e-06
1.32485e-06
-9.76057e-07
-2.90703e-06
1.47663e-06
-1.02884e-06
1.48875e-06
-3.56817e-06
-1.11171e-06
-9.1309e-07
3.27647e-07
-8.97251e-07
-1.02544e-06
5.82418e-07
-1.01475e-06
-1.17101e-06
8.90551e-07
-1.11902e-06
-1.3387e-06
1.12413e-06
-1.23075e-06
-1.55482e-06
1.24241e-06
-1.35355e-06
1.2103e-06
-1.7908e-06
-1.4742e-06
-7.80004e-07
3.89404e-08
-1.06758e-06
-7.5324e-07
2.31314e-07
-1.20087e-06
-7.01121e-07
4.61307e-07
-1.33218e-06
-5.98827e-07
5.93517e-07
-1.48677e-06
-4.78871e-07
6.12253e-07
-1.66718e-06
4.26985e-07
-2.90246e-07
-1.83968e-06
-7.26921e-07
-3.51307e-07
-1.21045e-06
-6.05985e-07
-2.58643e-07
-1.35079e-06
-4.09636e-07
-1.58392e-07
-1.49623e-06
-1.32832e-07
-1.60045e-07
-1.66473e-06
2.25793e-07
-3.02257e-07
-1.87017e-06
-6.4996e-07
6.54774e-07
-2.09314e-06
-7.63626e-07
-7.72662e-07
-1.30925e-06
-6.16065e-07
-8.00428e-07
-1.43925e-06
-3.73216e-07
-8.48946e-07
-1.57939e-06
-3.91124e-08
-9.98052e-07
-1.73756e-06
4.02907e-07
-1.30803e-06
-1.92983e-06
-1.82034e-06
9.19508e-07
-2.16104e-06
-9.05609e-07
-1.15805e-06
-1.36039e-06
-8.15647e-07
-1.29605e-06
-1.46685e-06
-6.31651e-07
-1.4852e-06
-1.58201e-06
-3.528e-07
-1.77975e-06
-1.70598e-06
2.47416e-08
-2.23379e-06
-1.84238e-06
-2.90422e-06
4.92436e-07
-2.02509e-06
-1.11442e-06
-1.45526e-06
-1.35549e-06
-1.13876e-06
-1.67097e-06
-1.42974e-06
-1.097e-06
-1.96216e-06
-1.49909e-06
-9.72297e-07
-2.37413e-06
-1.56474e-06
-7.58992e-07
-2.94287e-06
-1.62493e-06
-3.74896e-06
-4.4954e-07
-1.69745e-06
-1.39132e-06
-1.60289e-06
-1.29981e-06
-1.60718e-06
-1.82963e-06
-1.34431e-06
-1.80593e-06
-2.15785e-06
-1.35859e-06
-1.95974e-06
-2.63358e-06
-1.35007e-06
-2.05056e-06
-3.27065e-06
-1.30739e-06
-4.16444e-06
-2.07383e-06
-1.27012e-06
-1.71239e-06
-1.56235e-06
-1.21036e-06
-2.14814e-06
-1.73719e-06
-1.23815e-06
-2.61587e-06
-2.04176e-06
-1.19984e-06
-3.10691e-06
-2.50362e-06
-1.13234e-06
-3.62413e-06
-3.11401e-06
-1.0073e-06
-3.99566e-06
-4.15369e-06
-8.9058e-07
-2.08539e-06
-1.31166e-06
-1.08752e-06
-2.7258e-06
-1.41082e-06
-1.10787e-06
-3.43506e-06
-1.64869e-06
-1.03913e-06
-4.24878e-06
-2.00974e-06
-9.32598e-07
-5.19033e-06
-2.49187e-06
-7.66544e-07
-3.22875e-06
-6.25147e-06
-5.95271e-07
-2.45027e-06
-8.91719e-07
-9.77412e-07
-3.2257e-06
-9.27658e-07
-9.97914e-07
-4.10761e-06
-1.06159e-06
-9.23306e-07
-5.15569e-06
-1.26748e-06
-8.1054e-07
-6.38671e-06
-1.56348e-06
-6.56322e-07
-2.04174e-06
-7.84019e-06
-4.34063e-07
-2.71937e-06
-3.98253e-07
-8.7528e-07
-3.53678e-06
-3.82182e-07
-8.98688e-07
-4.47715e-06
-3.98324e-07
-8.39204e-07
-5.61547e-06
-4.31554e-07
-7.68551e-07
-6.95017e-06
-5.31621e-07
-6.48849e-07
-7.24289e-07
-8.55108e-06
-4.28004e-07
-2.80649e-06
7.17878e-08
-7.6999e-07
-3.56728e-06
1.41671e-07
-8.03567e-07
-4.45681e-06
2.38127e-07
-7.81741e-07
-5.50298e-06
3.22184e-07
-7.65217e-07
-6.69779e-06
3.60955e-07
-6.90318e-07
3.30232e-07
-8.07368e-06
-5.49565e-07
-2.74136e-06
4.34658e-07
-6.28695e-07
-3.38231e-06
5.69441e-07
-6.80703e-07
-4.12053e-06
7.26898e-07
-7.19786e-07
-4.92703e-06
8.34651e-07
-7.55034e-07
-5.79109e-06
8.99027e-07
-7.40325e-07
8.75701e-07
-6.69851e-06
-7.53906e-07
-1.73479e-06
6.5661e-07
-6.3715e-07
-2.21653e-06
8.28985e-07
-7.20738e-07
-2.7807e-06
1.01856e-06
-7.88999e-07
-3.42429e-06
1.15599e-06
-8.6873e-07
-4.10023e-06
1.20181e-06
-9.30683e-07
1.13933e-06
-4.80815e-06
-1.01642e-06
-1.77787e-06
6.65555e-07
-8.09924e-07
-2.04941e-06
8.07072e-07
-9.10577e-07
-2.33161e-06
9.52524e-07
-1.00566e-06
-2.60085e-06
1.01497e-06
-1.116e-06
-2.85683e-06
9.7207e-07
-1.24975e-06
7.44349e-07
-3.0231e-06
-1.38232e-06
-1.70593e-06
5.32081e-07
-9.88105e-07
-1.83037e-06
5.71438e-07
-1.10695e-06
-1.90682e-06
6.05535e-07
-1.22684e-06
-1.91856e-06
5.36463e-07
-1.36751e-06
-1.83847e-06
3.12396e-07
-1.5409e-06
-1.61711e-07
-1.60712e-06
-1.71853e-06
-1.72751e-06
3.21581e-07
-1.14492e-06
-1.80099e-06
2.24462e-07
-1.26731e-06
-1.75322e-06
7.43229e-08
-1.39185e-06
-1.59237e-06
-1.81664e-07
-1.53691e-06
-1.2844e-06
-6.35682e-07
-1.71325e-06
-1.37715e-06
-7.81063e-07
-1.9431e-06
-1.81513e-06
9.34104e-08
-1.2627e-06
-1.90097e-06
-1.42249e-07
-1.36593e-06
-1.86394e-06
-4.75596e-07
-1.47475e-06
-1.68167e-06
-9.42597e-07
-1.60037e-06
-1.32081e-06
-1.64056e-06
-1.75474e-06
-2.66227e-06
-7.41777e-07
-1.97406e-06
-2.03786e-06
-8.65025e-08
-1.33401e-06
-2.24487e-06
-4.13766e-07
-1.41261e-06
-2.34428e-06
-9.02086e-07
-1.49353e-06
-2.27425e-06
-1.57943e-06
-1.5677e-06
-2.01217e-06
-2.50735e-06
-1.65956e-06
-3.77941e-06
-1.5253e-06
-1.79002e-06
-2.32981e-06
-1.58136e-07
-1.35051e-06
-2.70585e-06
-5.07791e-07
-1.39976e-06
-3.02301e-06
-1.09293e-06
-1.4303e-06
-3.22898e-06
-1.90941e-06
-1.432e-06
-3.2749e-06
-3.01491e-06
-1.41049e-06
-4.47204e-06
-3.13079e-06
-1.38588e-06
-2.69443e-06
-6.44541e-08
-1.33656e-06
-3.29881e-06
-3.61645e-07
-1.37071e-06
-3.92354e-06
-9.51733e-07
-1.34967e-06
-4.53883e-06
-1.79486e-06
-1.27641e-06
-5.10485e-06
-2.9517e-06
-1.16463e-06
-4.46747e-06
-5.5958e-06
-9.80209e-07
-3.12924e-06
2.07819e-07
-1.29227e-06
-3.95114e-06
6.94019e-09
-1.32389e-06
-4.87975e-06
-4.92753e-07
-1.26176e-06
-5.92566e-06
-1.22785e-06
-1.14341e-06
-7.08379e-06
-2.26638e-06
-9.58113e-07
-3.6763e-06
-8.32291e-06
-6.3828e-07
-3.56688e-06
6.18821e-07
-1.25023e-06
-4.52568e-06
5.19308e-07
-1.28746e-06
-5.67013e-06
1.86474e-07
-1.21379e-06
-7.04035e-06
-3.3281e-07
-1.08891e-06
-8.62636e-06
-1.14381e-06
-8.6148e-07
-2.36171e-06
-1.03902e-05
-4.38863e-07
-3.89612e-06
1.0802e-06
-1.20288e-06
-4.87573e-06
1.07269e-06
-1.23817e-06
-6.06487e-06
9.20484e-07
-1.17318e-06
-7.53491e-06
6.67057e-07
-1.0915e-06
-9.26912e-06
1.18702e-07
-8.86059e-07
-8.16236e-07
-1.12851e-05
-4.81141e-07
-3.97549e-06
1.46026e-06
-1.15501e-06
-4.82914e-06
1.52223e-06
-1.20305e-06
-5.88036e-06
1.52342e-06
-1.2004e-06
-7.15725e-06
1.47293e-06
-1.19386e-06
-8.69998e-06
1.17515e-06
-1.05943e-06
5.52973e-07
-1.05476e-05
-7.97543e-07
-3.80991e-06
1.69519e-06
-1.05582e-06
-4.44171e-06
1.7784e-06
-1.11327e-06
-5.21156e-06
1.85965e-06
-1.18501e-06
-6.08383e-06
1.86913e-06
-1.24578e-06
-7.08497e-06
1.6821e-06
-1.20069e-06
1.24395e-06
-8.28502e-06
-1.10444e-06
-3.36733e-06
1.71207e-06
-8.95189e-07
-3.69377e-06
1.78753e-06
-9.95462e-07
-4.09178e-06
1.87511e-06
-1.12576e-06
-4.53498e-06
1.8677e-06
-1.24063e-06
-5.07232e-06
1.70135e-06
-1.29778e-06
1.29019e-06
-5.69482e-06
-1.40783e-06
-3.31952e-06
1.22335e-06
-1.79844e-06
-4.52958e-06
1.36985e-06
-1.94875e-06
-6.02707e-06
1.17016e-06
-1.96361e-06
-7.85831e-06
8.0971e-07
-1.92998e-06
-9.99316e-06
3.09102e-08
-1.76046e-06
-1.25969e-06
-1.34392e-06
-3.46505e-06
1.71594e-06
-1.67292e-06
-4.44206e-06
1.93067e-06
-1.83989e-06
-5.66492e-06
1.94891e-06
-1.90637e-06
-7.14576e-06
1.85123e-06
-1.97363e-06
-8.88896e-06
1.37654e-06
-1.8947e-06
4.65943e-07
-1.59764e-06
-3.28279e-06
1.97614e-06
-1.49668e-06
-3.92024e-06
2.18271e-06
-1.67032e-06
-4.69804e-06
2.28974e-06
-1.8012e-06
-5.54632e-06
2.27452e-06
-1.96892e-06
-6.54494e-06
1.9775e-06
-1.97569e-06
1.32025e-06
-1.87276e-06
-2.6924e-06
-1.25226e-06
-2.92392e-06
-1.45225e-06
-3.19774e-06
-1.66089e-06
-3.51393e-06
-1.8784e-06
-3.94056e-06
-2.01084e-06
-2.15305e-06
-1.30963e-08
1.87118e-06
-9.11307e-07
-5.26761e-07
1.96982e-06
-1.06374e-06
-1.10869e-06
2.05576e-06
-1.23607e-06
-1.74253e-06
2.02405e-06
-1.41831e-06
-2.36909e-06
1.78107e-06
-1.59886e-06
1.14143e-06
-2.83271e-06
-1.80762e-06
-1.87895e-07
1.7912e-06
-1.15271e-06
-4.47293e-07
1.80289e-06
-1.32415e-06
-6.72595e-07
1.77356e-06
-1.52379e-06
-8.19142e-07
1.5648e-06
-1.74746e-06
-8.48212e-07
1.10752e-06
-2.01714e-06
1.77873e-07
-6.61908e-07
-2.31989e-06
-1.27481e-07
1.46209e-06
-1.381e-06
-1.78314e-07
1.36262e-06
-1.57466e-06
-1.5397e-07
1.17288e-06
-1.80907e-06
-3.39052e-08
7.65973e-07
-2.0572e-06
2.3492e-07
6.63037e-08
-2.3797e-06
-1.13754e-06
7.142e-07
-2.74616e-06
-2.84476e-07
1.02228e-06
-1.53997e-06
-2.39636e-07
7.70288e-07
-1.74462e-06
-6.80964e-08
3.69188e-07
-1.99826e-06
2.12621e-07
-2.32944e-07
-2.25644e-06
6.26992e-07
-1.15292e-06
-2.59089e-06
-2.57116e-06
1.22096e-06
-2.97366e-06
-5.34452e-07
5.82913e-07
-1.64558e-06
-5.29834e-07
1.87438e-07
-1.84046e-06
-4.16389e-07
-3.94694e-07
-2.08291e-06
-1.69779e-07
-1.19226e-06
-2.30699e-06
2.26783e-07
-2.31682e-06
-2.59863e-06
-3.87233e-06
7.63061e-07
-2.93178e-06
-8.584e-07
2.27045e-07
-1.70709e-06
-9.78027e-07
-2.78476e-07
-1.87755e-06
-1.01967e-06
-9.83596e-07
-2.0598e-06
-9.39225e-07
-1.93634e-06
-2.2207e-06
-7.3945e-07
-3.19638e-06
-2.40592e-06
-4.85396e-06
-4.14044e-07
-2.62096e-06
-1.19099e-06
-3.09428e-09
-1.72775e-06
-1.51771e-06
-5.10404e-07
-1.86476e-06
-1.83594e-06
-1.24488e-06
-1.97168e-06
-2.09283e-06
-2.26336e-06
-2.05096e-06
-2.28351e-06
-3.5722e-06
-2.08453e-06
-5.27989e-06
-2.39017e-06
-2.14107e-06
-1.61642e-06
-4.40953e-08
-1.68523e-06
-2.2096e-06
-4.31454e-07
-1.7802e-06
-2.86372e-06
-1.11236e-06
-1.81248e-06
-3.55268e-06
-2.08813e-06
-1.79319e-06
-4.2736e-06
-3.34373e-06
-1.68971e-06
-4.98558e-06
-4.99795e-06
-1.58628e-06
-2.06078e-06
1.3448e-07
-1.59743e-06
-2.90718e-06
-5.33342e-08
-1.67423e-06
-3.88882e-06
-6.01038e-07
-1.65855e-06
-5.02557e-06
-1.40425e-06
-1.58003e-06
-6.31574e-06
-2.47851e-06
-1.39261e-06
-3.92127e-06
-7.7384e-06
-1.14727e-06
-2.51113e-06
5.09734e-07
-1.48778e-06
-3.49764e-06
5.07747e-07
-1.57525e-06
-4.69603e-06
1.69032e-07
-1.54193e-06
-6.17336e-06
-3.43846e-07
-1.44034e-06
-7.92423e-06
-1.11393e-06
-1.2246e-06
-2.23498e-06
-9.91856e-06
-8.6282e-07
-2.92949e-06
9.97729e-07
-1.36805e-06
-3.95913e-06
1.13358e-06
-1.46366e-06
-5.22294e-06
1.02137e-06
-1.43242e-06
-6.80813e-06
8.28768e-07
-1.36024e-06
-8.70908e-06
3.88321e-07
-1.17786e-06
-3.40201e-07
-1.09329e-05
-7.99979e-07
-3.14461e-06
1.44629e-06
-1.26662e-06
-4.03496e-06
1.65033e-06
-1.37825e-06
-5.14054e-06
1.72626e-06
-1.38749e-06
-6.50497e-06
1.77778e-06
-1.40819e-06
-8.15833e-06
1.62268e-06
-1.30207e-06
1.2394e-06
-1.00843e-05
-1.04637e-06
-3.08324e-06
1.72991e-06
-1.13963e-06
-3.72602e-06
1.95419e-06
-1.25422e-06
-4.51525e-06
2.12496e-06
-1.3134e-06
-5.42776e-06
2.25691e-06
-1.41326e-06
-6.49379e-06
2.24793e-06
-1.38977e-06
2.05409e-06
-7.68095e-06
-1.32216e-06
-2.67855e-06
-9.60919e-07
-2.98951e-06
-1.10088e-06
-3.37482e-06
-1.23416e-06
-3.78989e-06
-1.38035e-06
-4.26152e-06
-1.44255e-06
-4.78189e-06
-1.53977e-06
-2.16823e-06
4.69229e-07
-1.81528e-06
-5.7099e-06
-2.10983e-06
-9.99051e-06
8.59136e-06
-6.72574e-06
-1.18183e-06
-2.40937e-05
2.31198e-05
-6.46507e-06
1.00837e-06
-4.16041e-05
4.11729e-05
-2.89856e-06
-6.14422e-05
6.13335e-05
7.55312e-06
8.20327e-07
-1.77247e-06
-7.00367e-06
1.02005e-06
-1.17839e-05
-8.97046e-06
1.56115e-06
-2.51144e-05
-9.91947e-06
3.26542e-06
-4.16471e-05
-7.08903e-06
-5.98793e-05
3.95459e-06
2.52392e-06
-4.33732e-06
-7.6267e-06
2.84072e-06
-1.37714e-05
-9.99953e-06
3.40761e-06
-2.63558e-05
-1.11903e-05
5.24375e-06
-4.17364e-05
-7.96584e-06
-5.86057e-05
4.03229e-06
3.27166e-06
-6.84499e-06
-7.64837e-06
3.71729e-06
-1.57671e-05
-9.8049e-06
4.49625e-06
-2.78515e-05
-1.07255e-05
7.06721e-06
-4.27531e-05
-6.41859e-06
-6.07586e-05
4.64634e-06
2.92441e-06
-9.02719e-06
-7.06975e-06
3.15189e-06
-1.7391e-05
-8.79813e-06
3.80594e-06
-2.89575e-05
-8.83263e-06
6.23416e-06
-4.36699e-05
-2.86337e-06
-6.31266e-05
7.92773e-06
1.96017e-06
-1.06164e-05
-6.04797e-06
1.72985e-06
-1.82169e-05
-7.09782e-06
1.52597e-06
-2.87814e-05
-5.78537e-06
2.12685e-06
-4.29709e-05
1.75913e-06
-6.27658e-05
1.22986e-05
3.51793e-07
-1.15338e-05
-4.70841e-06
-3.12561e-07
-1.82502e-05
-4.88391e-06
-1.37404e-06
-2.7572e-05
-2.40123e-06
-2.38367e-06
-4.12648e-05
5.51178e-06
-6.08153e-05
1.52715e-05
-1.91084e-06
-1.16162e-05
-3.21761e-06
-3.0125e-06
-1.75139e-05
-2.39914e-06
-4.42175e-06
-2.59972e-05
1.04805e-06
-5.89833e-06
-3.9599e-05
8.74744e-06
-7.41644e-06
-5.94508e-05
1.76828e-05
-8.05006e-05
2.31385e-05
-4.90654e-06
-1.05882e-05
-1.8065e-06
-6.86112e-06
-1.57306e-05
5.74436e-08
-8.79756e-06
-2.39322e-05
4.57308e-06
-1.10346e-05
-3.74211e-05
1.27415e-05
-1.39282e-05
-5.66681e-05
2.25122e-05
-7.74446e-05
2.91653e-05
-8.13004e-06
-8.25316e-06
-6.47997e-07
-1.11166e-05
-1.28719e-05
2.14617e-06
-1.36716e-05
-2.13313e-05
7.4389e-06
-1.6841e-05
-3.45514e-05
1.63798e-05
-2.16873e-05
-5.22421e-05
2.76201e-05
-7.17305e-05
3.72153e-05
-1.07162e-05
-4.78563e-06
7.79297e-09
-1.44561e-05
-9.28616e-06
3.38758e-06
-1.74341e-05
-1.82981e-05
9.06232e-06
-2.04104e-05
-3.16737e-05
1.86342e-05
-2.49773e-05
-4.82016e-05
3.14369e-05
-3.34017e-05
-6.50906e-05
4.55015e-05
-8.04528e-05
5.1645e-05
-1.17848e-05
-1.05846e-06
7.27605e-08
-1.58124e-05
-5.29222e-06
3.36697e-06
-1.90738e-05
-1.4126e-05
8.99884e-06
-2.11835e-05
-2.82421e-05
1.86694e-05
-2.3251e-05
-4.5558e-05
3.21064e-05
-2.93053e-05
-6.14316e-05
4.97669e-05
-4.21216e-05
-7.23148e-05
6.27605e-05
-1.99243e-05
6.8388e-05
-2.16882e-05
-1.83541e-05
-1.91035e-05
-1.03839e-05
1.72201e-06
-7.10898e-07
-1.35772e-05
-2.32822e-06
1.73627e-06
-1.61119e-05
-1.10891e-05
6.26262e-06
-1.71413e-05
-2.58293e-05
1.34328e-05
-1.56314e-05
-4.52618e-05
2.46906e-05
-1.33596e-05
-6.4504e-05
4.27298e-05
-6.7908e-06
-1.94301e-05
6.44866e-05
-1.2471e-06
-6.3502e-06
-1.29277e-06
-1.92782e-05
-1.8461e-05
-1.82733e-05
-1.30634e-05
-1.63048e-05
2.00448e-05
-7.45897e-06
2.85767e-06
-1.86113e-06
-9.10797e-06
-1.46763e-06
-6.34573e-07
-9.97753e-06
-1.06856e-05
1.68009e-06
-9.82815e-06
-2.60411e-05
4.66259e-06
-6.64039e-06
-4.71239e-05
1.11919e-05
-6.54176e-07
-7.09856e-05
2.54984e-05
1.90982e-06
-1.81474e-07
1.4388e-06
1.83513e-06
-2.1994e-05
1.08895e-05
1.16368e-05
-2.70192e-05
1.76341e-05
1.95873e-05
-5.11709e-06
-4.28513e-06
2.43632e-06
-3.0698e-06
-4.47288e-06
-2.41722e-06
-3.33362e-06
-3.98138e-06
-1.21557e-05
-2.85205e-06
-2.55921e-06
-2.77927e-05
-1.99833e-06
8.73939e-07
-4.9108e-05
2.81848e-06
1.27608e-06
-7.30271e-05
1.70947e-05
9.41494e-07
2.06455e-06
1.90533e-06
2.35344e-05
1.82487e-06
8.42808e-06
-2.4154e-05
2.26776e-05
1.08004e-05
-2.22812e-05
-1.61214e-06
-1.4746e-06
8.15382e-07
-4.29558e-06
-7.90444e-07
-4.56052e-06
-5.48888e-06
1.59339e-07
-1.4449e-05
-6.50917e-06
1.1708e-06
-2.9496e-05
-6.62942e-06
2.6378e-06
-4.92163e-05
-2.17805e-06
3.8268e-07
-7.02513e-05
1.47494e-05
6.28817e-07
7.20852e-07
1.28387e-06
2.41136e-05
-1.63297e-07
-2.36753e-05
8.55131e-06
2.15275e-05
-2.42747e-05
1.12526e-05
8.90198e-07
5.38017e-07
-1.46924e-06
-5.10956e-06
1.56607e-06
-7.2132e-06
-6.93568e-06
2.62512e-06
-1.6984e-05
-8.75206e-06
3.72575e-06
-3.11765e-05
-8.79933e-06
4.99478e-06
-4.88828e-05
-3.05893e-06
-1.57386e-07
-6.80114e-05
1.19382e-05
2.39161e-06
7.92496e-07
2.8587e-06
2.28095e-05
-1.40563e-06
-2.15398e-05
8.10106e-06
2.7423e-05
-1.34347e-05
-2.20346e-05
1.70939e-05
4.55634e-06
1.72832e-06
-4.01966e-06
-5.41063e-06
2.92945e-06
-1.00365e-05
-7.40991e-06
4.17412e-06
-1.97358e-05
-9.16862e-06
6.19428e-06
-3.36369e-05
-8.42569e-06
9.68324e-06
-5.11711e-05
-1.54495e-06
3.03376e-06
-7.18756e-05
9.45172e-06
4.87131e-06
3.06151e-06
4.49804e-06
2.13526e-05
3.81301e-06
-2.18616e-05
4.65258e-06
2.19047e-05
3.21692e-06
-2.167e-05
7.29038e-06
-3.66413e-06
1.92743e-06
-6.4659e-06
-5.21024e-06
2.92536e-06
-1.26148e-05
-7.03107e-06
3.94741e-06
-2.21759e-05
-8.27196e-06
6.05247e-06
-3.58676e-05
-6.22177e-06
9.43928e-06
-5.34028e-05
2.47051e-06
3.19843e-06
-7.51817e-05
1.33404e-05
3.36612e-06
2.89335e-06
3.26841e-06
2.29049e-05
3.97546e-06
-2.40433e-05
4.83017e-06
2.82899e-05
-2.47993e-05
5.91855e-06
-4.49987e-06
1.27165e-06
-8.504e-06
-4.58734e-06
1.86559e-06
-1.44874e-05
-5.96706e-06
2.32224e-06
-2.35091e-05
-6.22929e-06
3.07978e-06
-3.62273e-05
-2.22757e-06
3.9278e-06
-5.30911e-05
7.57749e-06
3.89778e-07
-7.35317e-05
1.76995e-05
2.3763e-07
6.23393e-07
5.85023e-07
2.43731e-05
-3.31358e-07
-2.42246e-05
5.73983e-06
2.22977e-05
-2.48296e-05
6.44781e-06
1.3456e-06
9.20137e-08