/*--------------------------------*- C++ -*----------------------------------*\
| =========                 |                                                 |
| \\      /  F ield         | OpenFOAM: The Open Source CFD Toolbox           |
|  \\    /   O peration     | Version:  v2106                                 |
|   \\  /    A nd           | Website:  www.openfoam.com                      |
|    \\/     M anipulation  |                                                 |
\*---------------------------------------------------------------------------*/
FoamFile
{
    version     2.0;
    format      ascii;
    arch        "LSB;label=32;scalar=64";
    class       volScalarField;
    location    "0.000161";
    object      k;
}
// * * * * * * * * * * * * * * * * * * * * * * * * * * * * * * * * * * * * * //

dimensions      [0 2 -2 0 0 0 0];

internalField   nonuniform List<scalar> 
18109
(
0.125299
0.0331924
0.00750296
0.0026889
0.00205912
0.00229041
0.00303116
0.0926555
0.0194881
0.00258376
0.000397612
0.000217903
0.000267182
0.0003921
0.0697565
0.0128284
0.00149265
0.000164232
3.08905e-05
2.05688e-05
3.15185e-05
0.0537363
0.00975978
0.00140908
0.000204158
3.16608e-05
4.7995e-06
1.81321e-06
0.0410368
0.00795456
0.00142942
0.000241088
3.72672e-05
4.93116e-06
5.92453e-07
0.0335839
0.00722697
0.00146074
0.000250166
3.66623e-05
4.95998e-06
8.59673e-07
0.030839
0.00745262
0.00155237
0.000254934
3.74738e-05
7.27318e-06
3.78565e-06
0.033472
0.00850977
0.00171926
0.000280029
5.36989e-05
2.40796e-05
2.2853e-05
0.0555286
0.0130621
0.00232662
0.000602971
0.000418909
0.000473986
0.000631583
0.000876291
0.00125853
0.00187799
0.00293251
0.00483752
0.0085292
0.0167531
0.0364747
0.00695394
0.000819483
8.88672e-05
3.45515e-05
4.28157e-05
6.58064e-05
0.00010003
0.000148383
0.000223455
0.000374166
0.000787095
0.00223938
0.00766336
0.0254473
0.00446279
0.000536089
5.67992e-05
7.91456e-06
2.91705e-06
4.14472e-06
7.01168e-06
1.12224e-05
2.0113e-05
5.62788e-05
0.000235204
0.00104498
0.00417906
0.0190941
0.00350289
0.000539316
7.72802e-05
1.05358e-05
1.2756e-06
2.43024e-07
2.85159e-07
7.20444e-07
3.30739e-06
2.00086e-05
0.000113894
0.000559702
0.00231182
0.0149744
0.00301274
0.000556109
9.12964e-05
1.24251e-05
1.416e-06
1.38152e-07
3.25853e-08
1.70374e-07
1.40147e-06
1.0125e-05
6.18121e-05
0.000318185
0.00138695
0.0129948
0.00288947
0.000579049
9.57384e-05
1.22182e-05
1.37999e-06
1.93609e-07
9.45135e-08
1.79305e-07
1.01227e-06
7.23087e-06
4.60912e-05
0.000250629
0.00115973
0.0130334
0.00314633
0.000631707
9.91198e-05
1.22775e-05
1.89596e-06
8.65242e-07
8.1091e-07
9.19098e-07
1.84169e-06
8.74071e-06
5.2898e-05
0.000292504
0.00138606
0.015152
0.00372244
0.000709845
0.000106433
1.60308e-05
6.23196e-06
5.77496e-06
6.05732e-06
6.50576e-06
8.45004e-06
2.02352e-05
9.0993e-05
0.000467217
0.00215744
0.0187925
0.00445904
0.000823157
0.000139187
4.04101e-05
3.16885e-05
3.38298e-05
3.63358e-05
3.93652e-05
4.67886e-05
7.55885e-05
0.000219399
0.000933025
0.00398726
0.0235232
0.00549421
0.0011798
0.000316823
0.000169105
0.000157104
0.000167181
0.00018067
0.000198933
0.000233964
0.000322329
0.000659457
0.00217379
0.00821441
0.0301223
0.00855878
0.00284282
0.00121977
0.000782197
0.000698995
0.000711665
0.000763571
0.000851196
0.00100786
0.00130442
0.00213149
0.00540501
0.0174275
0.0480653
0.0213206
0.0101287
0.00533383
0.00343657
0.00280314
0.00267113
0.00279585
0.00312163
0.00372565
0.00472533
0.00674749
0.0133986
0.0357385
0.104927
0.0607274
0.0352619
0.021032
0.0135672
0.0101993
0.00898903
0.00900265
0.00991474
0.0118461
0.0150387
0.0200293
0.0321862
0.0688049
0.228263
0.154053
0.103745
0.0696919
0.0470672
0.0339673
0.0276301
0.0259004
0.0274953
0.0323112
0.0412115
0.053811
0.0749788
0.125913
0.176164
0.306926
0.594824
1.06936
1.72053
2.49704
0.0768141
0.150973
0.333512
0.67604
1.19861
1.85683
0.0237148
0.0685154
0.199963
0.471479
0.896663
1.459
0.0081393
0.0362411
0.124509
0.317398
0.639841
1.1191
0.00429733
0.0224743
0.082565
0.223084
0.482977
0.928548
0.0032099
0.0171406
0.0648452
0.183998
0.430154
0.92571
0.00326551
0.0167401
0.0623052
0.182038
0.461796
1.13066
0.00398636
0.0194372
0.0711704
0.216432
0.599731
1.60357
0.00523379
0.0247778
0.0919678
0.293055
0.843331
2.20928
0.00734109
0.0340482
0.127874
0.410457
1.14231
2.76099
0.0108518
0.0485506
0.176591
0.535477
1.35955
2.93026
0.0164267
0.0680791
0.22849
0.621773
1.39894
2.6953
0.0252215
0.0917162
0.269208
0.641382
1.29115
2.25036
0.0385675
0.117577
0.294923
0.621546
1.13614
1.82031
0.0569723
0.144343
0.312599
0.590725
0.995298
1.50979
0.0381126
0.0992241
0.228704
0.458315
0.798787
1.22768
0.0252046
0.0673498
0.159343
0.329438
0.597793
0.964316
0.0141035
0.0401121
0.100985
0.222386
0.432115
0.75339
0.0080267
0.0246829
0.0669956
0.159495
0.336175
0.637849
0.00518186
0.0177248
0.05274
0.136463
0.31264
0.657699
0.00461481
0.016977
0.0535352
0.147402
0.367583
0.870136
0.00561412
0.0212544
0.0694258
0.202417
0.545934
1.37834
0.00856481
0.0324708
0.108119
0.323353
0.874898
2.10988
0.0150893
0.0558558
0.181603
0.518251
1.29093
2.78745
0.0287795
0.0977054
0.287591
0.73143
1.60902
3.07761
0.0543752
0.159585
0.405734
0.894099
1.72576
2.93744
0.096687
0.238281
0.516396
0.990939
1.69955
2.60933
0.159775
0.330145
0.617094
1.0477
1.62582
2.31736
0.256503
0.445873
0.726625
1.10664
1.58524
2.14906
0.208131
0.390152
0.663674
1.02589
1.46665
1.96775
0.164812
0.318433
0.551171
0.86729
1.27344
1.78366
0.126652
0.250987
0.446345
0.730613
1.13449
1.74142
0.0967288
0.199551
0.372602
0.654333
1.13084
2.0489
0.0769636
0.169723
0.344547
0.681384
1.39086
2.98218
0.06859
0.164841
0.376522
0.867289
2.01836
4.53757
0.0688918
0.184884
0.484926
1.24249
2.95938
6.21596
0.0796659
0.235966
0.662845
1.68837
3.79316
7.33891
0.103475
0.312618
0.8536
2.0305
4.21578
7.58635
0.140872
0.397914
0.994377
2.15856
4.10976
6.89225
0.190365
0.475079
1.06242
2.10149
3.68643
5.79982
0.249967
0.54155
1.08049
1.95094
3.17702
4.7168
0.322913
0.604811
1.08672
1.81196
2.75605
3.90789
0.421967
0.703488
1.1425
1.72984
2.4661
3.37551
0.204496
0.605077
1.47322
2.95233
5.01277
7.83041
0.235675
0.601774
1.32382
2.47009
3.94184
5.79047
0.270271
0.589932
1.15182
1.99456
3.05109
4.31228
0.286979
0.549112
0.98208
1.59455
2.37447
3.30013
0.273896
0.47257
0.869582
1.43371
2.1271
2.93701
0.155444
0.352341
0.712678
1.20541
1.82704
2.6142
0.117039
0.289208
0.575043
0.977799
1.54891
2.44526
0.0931496
0.22767
0.459572
0.834556
1.48148
2.81764
0.0737282
0.184032
0.397263
0.813443
1.73
3.95584
0.0583779
0.157074
0.384905
0.941487
2.35282
5.66067
0.0495817
0.152548
0.441692
1.24283
3.20455
7.22003
0.0477704
0.169164
0.548499
1.58153
3.89892
8.14237
0.0531979
0.201837
0.663654
1.81402
4.17375
8.18263
0.0631026
0.233671
0.7244
1.83313
3.91657
7.24877
0.077213
0.25623
0.720188
1.68023
3.33166
5.77531
0.0945931
0.272241
0.684183
1.46674
2.70835
4.34306
0.118661
0.288929
0.638251
1.24396
2.13759
3.24003
0.145031
0.300503
0.586602
1.04231
1.68572
2.48079
2.71103
3.79395
5.75081
11.1438
13.7035
2.22398
3.3279
6.19261
13.0402
15.1489
1.84615
3.27091
7.89867
15.9084
16.7034
1.70849
3.95279
11.1441
19.2552
18.4098
1.98078
5.77979
15.0967
20.8821
18.9923
2.77121
8.44492
17.8716
20.2421
18.3198
3.99791
10.9076
18.339
18.5677
17.4633
5.07842
11.9838
17.4183
17.1926
17.1498
19.2413
5.67266
11.8128
15.9499
15.9127
16.3059
19.1524
5.4026
10.3082
13.8281
14.5707
15.2691
18.4195
4.52558
8.28671
11.5993
13.2834
14.067
17.1221
22.7832
3.45212
6.17131
9.15041
11.6729
12.575
15.0247
24.8073
27.4174
2.57608
4.48985
7.0132
9.96722
11.5131
11.7888
23.0804
62.6714
2.01202
3.45918
5.64331
8.84927
11.4747
10.7195
11.4484
43.4463
1.65291
2.92122
4.96221
8.58133
11.9037
11.7875
11.9679
44.4673
1.379
2.51989
4.57747
8.91537
12.4238
12.8704
13.5516
40.4675
1.17186
2.28059
4.7866
10.2078
13.5854
14.3641
14.8437
35.384
1.10515
2.51808
6.09088
12.5837
15.5271
16.3429
15.8262
27.57
1.32639
3.58613
8.80643
14.8254
16.8188
17.7624
17.1391
24.6242
1.98865
5.59033
11.8769
15.7751
16.7025
18.3793
18.4306
22.2504
3.16428
8.02379
13.7386
15.3743
16.0454
19.0739
19.9968
18.8472
4.40809
9.58568
13.8038
14.2703
15.6007
20.1115
22.0717
15.2519
5.17405
9.82157
12.8252
13.0904
14.8879
20.4309
5.1064
8.80447
11.1716
11.9296
14.0652
20.1818
4.44939
7.29589
9.58634
11.1952
13.2215
19.5163
3.64524
5.82251
8.16392
10.8751
12.4999
17.5626
3.03291
4.73093
7.03259
10.7781
12.6067
14.8943
2.68501
4.19356
6.83606
11.6708
14.0747
2.48054
4.09203
7.81776
13.9491
16.165
2.41054
4.50344
10.2485
16.6558
17.6733
2.73828
6.27822
14.3644
19.1596
18.8109
3.90805
9.96397
18.7296
20.4908
19.8089
6.20561
14.4772
20.669
19.5138
19.6784
9.00062
17.5698
19.7551
17.3907
18.979
11.0835
18.019
17.557
15.3013
18.3523
11.8477
16.8127
15.4917
13.8714
17.8821
11.2871
14.8239
13.8191
13.1665
17.1454
9.60065
12.2658
12.4382
13.0401
16.3695
7.63051
9.72781
11.0533
13.08
15.1813
5.90113
7.49616
9.38316
13.3412
14.4288
4.79206
6.0115
8.2558
13.8079
14.6973
4.16608
5.31514
8.79873
15.3405
16.2431
3.80822
5.42114
11.5596
18.3476
18.2942
3.65366
6.80638
16.6735
21.4297
19.4019
4.08232
10.2398
22.7454
23.1291
19.9412
5.83305
15.931
26.2514
23.0639
20.3703
8.88128
21.3065
25.8506
21.2646
20.0118
11.9251
23.3832
22.9796
18.8651
19.192
13.6615
22.3018
19.8691
16.7521
18.465
14.1041
20.5035
17.8361
15.4568
18.0502
13.1924
18.1782
16.3447
14.6744
16.9479
11.0613
14.9077
14.7916
14.049
15.5671
8.49299
11.3326
12.8418
13.3042
13.8731
6.09717
8.12454
10.259
12.3677
12.4558
4.40903
5.86614
7.77385
11.2916
11.7911
3.37269
4.55885
6.26519
10.5694
12.2685
0.0252472
0.00544318
0.000832204
0.000144706
7.40038e-05
7.92353e-05
0.000103798
0.000136156
0.000172891
0.000221031
0.000327718
0.000637399
0.00161495
0.00486997
0.0137997
0.00245515
0.00028696
2.67648e-05
5.19827e-06
5.11457e-06
8.04114e-06
1.20679e-05
1.65167e-05
2.18482e-05
3.82515e-05
0.000122645
0.000563899
0.00262049
0.00861385
0.00153385
0.000211363
2.61386e-05
3.16565e-06
4.96933e-07
3.7098e-07
6.14065e-07
9.8722e-07
2.02418e-06
9.02381e-06
5.55794e-05
0.00031312
0.00148583
0.00646886
0.0013106
0.000231282
3.65979e-05
4.86505e-06
5.28615e-07
5.11246e-08
1.90981e-08
6.36878e-08
4.85951e-07
4.02374e-06
2.84857e-05
0.00016653
0.000802752
0.00553207
0.00125407
0.000252621
4.36847e-05
5.88618e-06
6.10695e-07
5.22181e-08
6.61969e-09
2.26902e-08
2.29876e-07
2.04233e-06
1.49242e-05
8.97917e-05
0.00044818
0.00535876
0.00131042
0.000274547
4.65806e-05
5.8995e-06
5.8633e-07
6.80356e-08
2.72582e-08
3.49675e-08
1.59952e-07
1.29314e-06
9.54974e-06
5.89808e-05
0.0003047
0.00605559
0.00153864
0.000311434
4.94127e-05
5.92436e-06
7.29989e-07
2.80253e-07
2.52814e-07
2.58107e-07
3.54162e-07
1.29799e-06
8.31913e-06
5.16082e-05
0.000273992
0.00759182
0.00189375
0.000355618
5.26301e-05
6.8587e-06
2.10261e-06
1.92274e-06
2.00514e-06
2.06752e-06
2.21957e-06
3.45714e-06
1.20498e-05
6.49544e-05
0.000337009
0.00974426
0.00230695
0.000409832
6.30399e-05
1.42249e-05
1.0675e-05
1.18319e-05
1.27828e-05
1.35653e-05
1.45491e-05
1.7741e-05
3.30155e-05
0.000120179
0.000549952
0.0124958
0.00285243
0.000530364
0.000112047
5.4008e-05
5.42088e-05
6.11197e-05
6.72367e-05
7.34777e-05
8.12046e-05
9.52285e-05
0.000133396
0.000322009
0.00119786
0.016352
0.00404918
0.00101872
0.000356535
0.000240579
0.000243801
0.000268953
0.000298479
0.000334714
0.000382237
0.000452501
0.00057475
0.00105746
0.00315119
0.0261926
0.00905554
0.00334361
0.00150401
0.00102294
0.000965543
0.00102582
0.00113687
0.00129942
0.00152754
0.00185305
0.00229459
0.00355445
0.00851411
0.0564783
0.026784
0.0123605
0.00615244
0.00394415
0.00339007
0.00343494
0.00376523
0.00434875
0.00522212
0.00652127
0.00814703
0.011383
0.022161
0.130375
0.0740921
0.0403407
0.0220974
0.0137051
0.0107081
0.0102084
0.0109386
0.0126218
0.0152934
0.0195775
0.0250672
0.0332537
0.0531686
0.0041543
0.00079548
0.000127068
3.08428e-05
1.52213e-05
1.36358e-05
1.63633e-05
1.89712e-05
2.15122e-05
2.2502e-05
2.31727e-05
3.54591e-05
0.000114694
0.000547445
0.00193586
0.000335428
4.36158e-05
5.16031e-06
9.95607e-07
7.55353e-07
1.10587e-06
1.49296e-06
1.85158e-06
2.02067e-06
2.52883e-06
9.09349e-06
6.03988e-05
0.000379195
0.00134297
0.000272431
4.50532e-05
6.54184e-06
8.40366e-07
1.04635e-07
4.68169e-08
6.72069e-08
9.68222e-08
1.55066e-07
6.81021e-07
5.62036e-06
4.17371e-05
0.000253075
0.00131098
0.000306664
5.97021e-05
9.83984e-06
1.34757e-06
1.40646e-07
1.16239e-08
2.15433e-09
4.13256e-09
3.35422e-08
3.74549e-07
3.51357e-06
2.6303e-05
0.000158126
0.00139485
0.000347157
7.30283e-05
1.25513e-05
1.70734e-06
1.71781e-07
1.28513e-08
1.00065e-09
1.41735e-09
1.84125e-08
2.20799e-07
2.10016e-06
1.58919e-05
9.69273e-05
0.00155532
0.000396044
8.36448e-05
1.38563e-05
1.76011e-06
1.66914e-07
1.41881e-08
3.42851e-09
3.26893e-09
1.35969e-08
1.42892e-07
1.36116e-06
1.04478e-05
6.50682e-05
0.00189634
0.000481339
9.8316e-05
1.52712e-05
1.80045e-06
1.81207e-07
4.23044e-08
3.32003e-08
3.14137e-08
3.55438e-08
1.25223e-07
1.00086e-06
7.63532e-06
4.83172e-05
0.00244537
0.000599747
0.000115227
1.65384e-05
1.9165e-06
3.7319e-07
2.92799e-07
2.94146e-07
2.8781e-07
2.7457e-07
3.35545e-07
1.06994e-06
6.79652e-06
4.24799e-05
0.00315462
0.000740278
0.00013438
1.86283e-05
2.97603e-06
1.76207e-06
1.9981e-06
2.10807e-06
2.13439e-06
2.09361e-06
2.13996e-06
2.92704e-06
9.36357e-06
4.96976e-05
0.0040926
0.000919929
0.000161939
2.54071e-05
9.19236e-06
9.59074e-06
1.14965e-05
1.24532e-05
1.30415e-05
1.33691e-05
1.38115e-05
1.50109e-05
2.47199e-05
8.59825e-05
0.00519944
0.00115557
0.000219238
5.48237e-05
3.97798e-05
4.68069e-05
5.59746e-05
6.18717e-05
6.68946e-05
7.16505e-05
7.67254e-05
8.1157e-05
0.000103178
0.0002435
0.00723406
0.00185366
0.000467594
0.000192775
0.000171146
0.000199056
0.000234033
0.000262504
0.000291851
0.000325274
0.000362383
0.000391493
0.00045821
0.00084271
0.0129997
0.00445383
0.00154453
0.000767814
0.000662236
0.000737553
0.000849489
0.000962662
0.00109505
0.00126122
0.00146038
0.00164043
0.00188873
0.00287929
0.0308011
0.0132514
0.00563436
0.0029061
0.00227853
0.00238863
0.0026928
0.00307189
0.0035547
0.00419449
0.00502847
0.00591495
0.00697045
0.00930722
0.000470049
9.08595e-05
1.99252e-05
7.23108e-06
3.93556e-06
2.83608e-06
2.97299e-06
3.10876e-06
3.16629e-06
2.89571e-06
2.30301e-06
2.27033e-06
6.57173e-06
4.1592e-05
0.000216102
3.94583e-05
6.18439e-06
9.42214e-07
2.2078e-07
1.40512e-07
1.8342e-07
2.31392e-07
2.66531e-07
2.62355e-07
2.27609e-07
5.61001e-07
4.36986e-06
3.41638e-05
0.00019982
4.45841e-05
8.48542e-06
1.3896e-06
1.90452e-07
2.36019e-08
7.4945e-09
9.72789e-09
1.338e-08
1.66146e-08
4.00863e-08
3.6401e-07
3.43215e-06
2.60946e-05
0.000246662
6.01484e-05
1.2579e-05
2.24169e-06
3.20877e-07
3.52974e-08
3.00386e-09
4.33878e-10
4.71683e-10
1.69533e-09
2.06451e-08
2.55798e-07
2.48522e-06
1.89127e-05
0.000300501
7.58705e-05
1.64669e-05
2.98301e-06
4.22699e-07
4.45111e-08
3.4721e-09
2.18087e-10
7.71269e-11
8.37145e-10
1.36354e-08
1.73821e-07
1.70754e-06
1.31222e-05
0.000363862
9.16935e-05
1.95388e-05
3.39597e-06
4.53386e-07
4.4634e-08
3.50886e-09
4.3674e-10
2.63783e-10
7.16579e-10
9.37845e-09
1.19997e-07
1.19536e-06
9.33332e-06
0.000467456
0.000115919
2.37384e-05
3.87989e-06
4.80674e-07
4.55827e-08
6.22122e-09
3.49614e-09
3.05932e-09
2.89521e-09
8.67777e-09
8.84661e-08
8.73322e-07
6.89678e-06
0.000614173
0.000146613
2.83479e-05
4.3158e-06
5.05894e-07
6.61469e-08
3.45478e-08
3.29186e-08
3.08383e-08
2.71427e-08
2.77423e-08
8.37796e-08
6.64373e-07
5.19999e-06
0.000794341
0.000182157
3.34095e-05
4.8408e-06
6.40898e-07
2.37907e-07
2.49125e-07
2.5909e-07
2.52577e-07
2.31334e-07
2.115e-07
2.42786e-07
7.39175e-07
4.80291e-06
0.00102798
0.000225857
3.96753e-05
5.9181e-06
1.44953e-06
1.31171e-06
1.58121e-06
1.69796e-06
1.71606e-06
1.64443e-06
1.55094e-06
1.49398e-06
1.92917e-06
6.31841e-06
0.00127111
0.000269017
4.75474e-05
9.49322e-06
5.6847e-06
6.94264e-06
8.55632e-06
9.41363e-06
9.84103e-06
9.8515e-06
9.68772e-06
9.34724e-06
9.72908e-06
1.75949e-05
0.00162657
0.000356958
7.42579e-05
2.61003e-05
2.52529e-05
3.2336e-05
3.98058e-05
4.46957e-05
4.81686e-05
5.0228e-05
5.14465e-05
5.1115e-05
5.16725e-05
7.31878e-05
0.00240342
0.000657397
0.000186605
9.61125e-05
0.000103536
0.000131477
0.00016073
0.000183661
0.000203283
0.000219932
0.000234194
0.000241868
0.000248024
0.000309568
0.00517685
0.00181634
0.000637604
0.000359437
0.000374609
0.000466008
0.000566094
0.000656945
0.000743377
0.000829916
0.000916788
0.000989827
0.00105353
0.00122379
5.683e-05
1.17185e-05
2.95667e-06
1.16015e-06
6.3845e-07
4.95939e-07
5.14567e-07
5.41195e-07
5.40358e-07
4.71158e-07
3.33344e-07
2.38012e-07
4.70669e-07
3.34589e-06
2.90159e-05
5.70519e-06
1.00387e-06
1.72415e-07
3.97233e-08
2.37816e-08
2.97078e-08
3.83243e-08
4.49645e-08
4.43281e-08
3.35975e-08
4.46034e-08
3.22236e-07
2.96446e-06
3.39323e-05
7.85375e-06
1.59098e-06
2.82797e-07
4.31022e-08
5.66542e-09
1.39054e-09
1.60176e-09
2.26044e-09
2.68735e-09
3.50116e-09
2.41305e-08
2.72908e-07
2.50314e-06
4.69695e-05
1.15211e-05
2.48644e-06
4.64032e-07
7.18294e-08
8.65293e-09
7.94311e-10
1.18042e-10
1.14317e-10
1.81774e-10
1.16216e-09
1.72387e-08
2.09528e-07
1.95205e-06
6.09776e-05
1.52578e-05
3.34182e-06
6.21419e-07
9.40045e-08
1.08805e-08
9.15441e-10
6.25282e-11
1.26892e-11
4.26229e-11
7.45462e-10
1.23012e-08
1.52911e-07
1.45271e-06
7.65415e-05
1.88287e-05
3.9835e-06
7.03708e-07
1.00047e-07
1.08434e-08
8.84603e-10
8.24089e-11
3.12597e-11
4.36549e-11
5.23653e-10
8.71141e-09
1.10965e-07
1.08104e-06
9.95101e-05
2.37298e-05
4.76632e-06
7.86802e-07
1.03546e-07
1.05563e-08
1.13768e-09
4.3755e-10
3.51932e-10
2.96152e-10
5.81402e-10
6.55115e-09
8.24668e-08
8.14364e-07
0.000130058
2.96968e-05
5.61436e-06
8.62642e-07
1.06511e-07
1.27087e-08
4.62615e-09
4.09503e-09
3.71005e-09
3.14445e-09
2.78156e-09
6.7293e-09
6.18318e-08
6.02778e-07
0.000165522
3.62376e-05
6.4852e-06
9.42354e-07
1.23203e-07
3.52814e-08
3.33023e-08
3.41508e-08
3.23472e-08
2.86943e-08
2.45745e-08
2.49135e-08
6.62331e-08
5.06724e-07
0.000211138
4.43368e-05
7.58512e-06
1.10705e-06
2.36952e-07
1.89641e-07
2.25408e-07
2.40129e-07
2.36009e-07
2.18804e-07
1.9564e-07
1.78925e-07
1.96144e-07
6.02929e-07
0.000255124
5.16853e-05
8.77609e-06
1.60808e-06
8.66536e-07
1.06178e-06
1.31489e-06
1.43748e-06
1.46261e-06
1.41278e-06
1.3206e-06
1.22517e-06
1.14422e-06
1.75513e-06
0.000310132
6.31914e-05
1.20676e-05
3.96235e-06
3.96699e-06
5.3108e-06
6.62595e-06
7.40788e-06
7.77857e-06
7.80056e-06
7.59277e-06
7.24589e-06
6.7324e-06
8.3169e-06
0.000415004
9.9214e-05
2.56424e-05
1.42299e-05
1.72163e-05
2.32797e-05
2.90477e-05
3.31455e-05
3.58269e-05
3.72047e-05
3.76053e-05
3.71113e-05
3.5325e-05
3.98448e-05
0.000792928
0.000242342
8.03687e-05
5.37806e-05
6.64966e-05
8.94543e-05
0.000111489
0.000129569
0.000143619
0.000153849
0.000160972
0.000164852
0.00016331
0.000176362
7.98779e-06
1.65367e-06
4.14534e-07
1.622e-07
9.82149e-08
8.66818e-08
9.69621e-08
1.07228e-07
1.10147e-07
9.69724e-08
6.67288e-08
3.99331e-08
4.46255e-08
2.87548e-07
4.79607e-06
9.97239e-07
1.85975e-07
3.29631e-08
7.26913e-09
4.25818e-09
5.5816e-09
7.6138e-09
9.34274e-09
9.50436e-09
7.12766e-09
5.78875e-09
2.65963e-08
2.65606e-07
6.61134e-06
1.56779e-06
3.2865e-07
6.09066e-08
9.76781e-09
1.39061e-09
3.42695e-10
3.68203e-10
5.27171e-10
6.28825e-10
6.03591e-10
1.97435e-09
2.31161e-08
2.40379e-07
9.76758e-06
2.42332e-06
5.32817e-07
1.01921e-07
1.64072e-08
2.13916e-09
2.22479e-10
3.62615e-11
3.43149e-11
4.41946e-11
1.00182e-10
1.28452e-09
1.81671e-08
1.95465e-07
1.33113e-05
3.33408e-06
7.34441e-07
1.38661e-07
2.17354e-08
2.72391e-09
2.59722e-10
2.09058e-11
5.35059e-12
6.66044e-12
4.97307e-11
9.25906e-10
1.36858e-08
1.51889e-07
1.71608e-05
4.18072e-06
8.83693e-07
1.5838e-07
2.34413e-08
2.77256e-09
2.53115e-10
2.24547e-11
6.91564e-12
6.32771e-12
3.48061e-11
6.53374e-10
1.00316e-08
1.15701e-07
2.24113e-05
5.24653e-06
1.04854e-06
1.75661e-07
2.41552e-08
2.67934e-09
2.72543e-10
6.8337e-11
4.82607e-11
3.80494e-11
4.92553e-11
4.96435e-10
7.49814e-09
8.84193e-08
2.91442e-05
6.5073e-06
1.22436e-06
1.91513e-07
2.47231e-08
2.93633e-09
7.47826e-10
5.67337e-10
4.91362e-10
3.98835e-10
3.18712e-10
5.81082e-10
5.59274e-09
6.5233e-08
3.6608e-05
7.82102e-06
1.39443e-06
2.06469e-07
2.72092e-08
6.23075e-09
4.88432e-09
4.81026e-09
4.39182e-09
3.73472e-09
3.01901e-09
2.76425e-09
6.1542e-09
5.25369e-08
4.58746e-05
9.4006e-06
1.6027e-06
2.35382e-07
4.51414e-08
3.00585e-08
3.38565e-08
3.51085e-08
3.32741e-08
2.95547e-08
2.5062e-08
2.17601e-08
2.1097e-08
5.90467e-08
5.47088e-05
1.08413e-05
1.82211e-06
3.17841e-07
1.47185e-07
1.70623e-07
2.06105e-07
2.19714e-07
2.15601e-07
1.99393e-07
1.76882e-07
1.56676e-07
1.35153e-07
1.78046e-07
6.41741e-05
1.26609e-05
2.32405e-06
7.0035e-07
6.69718e-07
8.89722e-07
1.0919e-06
1.19076e-06
1.20558e-06
1.15615e-06
1.06705e-06
9.70652e-07
8.41472e-07
9.17249e-07
8.06645e-05
1.79297e-05
4.35962e-06
2.41855e-06
3.00681e-06
4.09921e-06
5.05752e-06
5.63137e-06
5.87036e-06
5.82384e-06
5.57408e-06
5.2232e-06
4.64936e-06
4.75064e-06
0.000137502
3.83898e-05
1.2437e-05
9.22276e-06
1.21882e-05
1.66954e-05
2.06406e-05
2.3395e-05
2.49968e-05
2.55449e-05
2.52545e-05
2.44242e-05
2.26101e-05
2.25364e-05
9.92326e-07
2.02392e-07
4.9217e-08
1.91861e-08
1.35431e-08
1.4123e-08
1.74048e-08
2.03951e-08
2.19503e-08
1.99067e-08
1.3911e-08
7.76836e-09
5.04425e-09
2.17009e-08
7.35991e-07
1.58165e-07
3.05944e-08
5.58807e-09
1.2511e-09
7.68337e-10
1.06933e-09
1.52239e-09
1.9451e-09
2.03988e-09
1.57419e-09
1.00175e-09
2.077e-09
2.04992e-08
1.15623e-06
2.76236e-07
5.86719e-08
1.10641e-08
1.81992e-09
2.77367e-10
8.22376e-11
9.29634e-11
1.32884e-10
1.58622e-10
1.39097e-10
1.85405e-10
1.69788e-09
1.97049e-08
1.79684e-06
4.46241e-07
9.8421e-08
1.8949e-08
3.09987e-09
4.21955e-10
4.99016e-11
1.11468e-11
1.08638e-11
1.31077e-11
1.52093e-11
8.69057e-11
1.34323e-09
1.65991e-08
2.52021e-06
6.26649e-07
1.37256e-07
2.59394e-08
4.12435e-09
5.39432e-10
5.79187e-11
7.23384e-12
3.43958e-12
3.46039e-12
5.61139e-12
6.06856e-11
1.0276e-09
1.32691e-08
3.27115e-06
7.85419e-07
1.645e-07
2.95334e-08
4.45119e-09
5.52101e-10
5.67281e-11
7.1551e-12
3.37752e-12
3.12328e-12
4.45244e-12
4.27536e-11
7.52449e-10
1.02445e-08
4.22069e-06
9.66979e-07
1.90986e-07
3.20739e-08
4.50589e-09
5.24137e-10
5.57159e-11
1.19381e-11
7.85638e-12
6.42681e-12
6.24074e-12
3.33566e-11
5.63188e-10
7.92615e-09
5.39e-06
1.17285e-06
2.17907e-07
3.42045e-08
4.51104e-09
5.36481e-10
1.089e-10
6.91675e-11
5.72207e-11
4.47825e-11
3.34197e-11
4.55591e-11
4.20713e-10
5.87724e-09
6.64102e-06
1.37948e-06
2.42683e-07
3.60015e-08
4.73477e-09
9.2793e-10
6.10848e-10
5.73342e-10
5.05147e-10
4.10269e-10
3.11756e-10
2.60607e-10
4.84959e-10
4.6155e-09
8.07646e-06
1.6075e-06
2.70136e-07
3.93802e-08
6.97787e-09
3.99522e-09
4.28255e-09
4.31524e-09
3.94813e-09
3.34644e-09
2.67312e-09
2.18843e-09
1.91034e-09
4.95698e-09
9.34942e-06
1.79637e-06
2.95592e-07
4.9504e-08
2.06564e-08
2.29465e-08
2.71249e-08
2.81591e-08
2.66544e-08
2.35142e-08
1.96746e-08
1.64948e-08
1.32313e-08
1.53571e-08
1.05005e-05
1.99421e-06
3.51743e-07
1.00355e-07
9.42211e-08
1.24694e-07
1.50707e-07
1.60055e-07
1.5614e-07
1.42737e-07
1.24252e-07
1.06876e-07
8.66393e-08
8.48519e-08
1.2296e-05
2.56467e-06
5.96425e-07
3.41389e-07
4.40293e-07
6.04025e-07
7.35903e-07
7.97508e-07
8.0012e-07
7.56023e-07
6.82056e-07
6.02978e-07
5.02233e-07
4.69866e-07
1.88904e-05
4.89412e-06
1.6032e-06
1.3425e-06
1.87976e-06
2.60375e-06
3.18349e-06
3.5074e-06
3.60212e-06
3.50285e-06
3.26038e-06
2.96447e-06
2.56367e-06
2.36797e-06
1.12442e-07
2.30111e-08
5.62241e-09
2.33006e-09
1.96978e-09
2.36329e-09
3.11882e-09
3.8076e-09
4.21544e-09
3.91229e-09
2.79158e-09
1.54211e-09
7.46975e-10
1.60315e-09
1.04694e-07
2.28794e-08
4.51993e-09
8.50453e-10
2.09229e-10
1.50041e-10
2.17249e-10
3.13276e-10
4.0184e-10
4.25625e-10
3.35253e-10
2.00049e-10
1.8841e-10
1.45506e-09
1.80403e-07
4.29059e-08
9.09313e-09
1.71741e-09
2.86816e-10
4.80694e-11
1.89778e-11
2.30577e-11
3.21002e-11
3.78167e-11
3.30338e-11
2.68377e-11
1.20099e-10
1.46313e-09
2.91134e-07
7.16127e-08
1.56315e-08
2.98926e-09
4.91229e-10
7.00534e-11
1.07928e-11
4.509e-12
4.61065e-12
5.14254e-12
5.1079e-12
8.61804e-12
9.29863e-11
1.2732e-09
4.15685e-07
1.01738e-07
2.19279e-08
4.10283e-09
6.53972e-10
8.89991e-11
1.20275e-11
3.60012e-12
2.92209e-12
2.92156e-12
3.01991e-12
6.15294e-12
7.2585e-11
1.05152e-09
5.38265e-07
1.26595e-07
2.60461e-08
4.63338e-09
7.01389e-10
9.06596e-11
1.17698e-11
3.53905e-12
2.86348e-12
2.81658e-12
2.87062e-12
5.02794e-12
5.37951e-11
8.272e-10
6.79613e-07
1.5167e-07
2.93863e-08
4.89532e-09
6.92742e-10
8.42376e-11
1.10982e-11
3.93854e-12
3.2801e-12
3.11224e-12
3.03583e-12
4.51749e-12
4.0941e-11
6.50689e-10
8.43228e-07
1.78014e-07
3.2427e-08
5.05429e-09
6.7205e-10
8.16015e-11
1.60209e-11
9.59667e-12
8.04674e-12
6.64966e-12
5.41171e-12
5.72346e-12
3.12081e-11
4.8647e-10
1.00984e-06
2.03021e-07
3.49978e-08
5.15062e-09
6.73981e-10
1.20481e-10
6.88385e-11
6.15143e-11
5.26647e-11
4.13886e-11
3.03882e-11
2.40677e-11
3.718e-11
3.7539e-10
1.18671e-06
2.28485e-07
3.76163e-08
5.40949e-09
9.08083e-10
4.6323e-10
4.73197e-10
4.61913e-10
4.08342e-10
3.30819e-10
2.50437e-10
1.94184e-10
1.56325e-10
3.83478e-10
1.32822e-06
2.46688e-07
3.96333e-08
6.42659e-09
2.50243e-09
2.68525e-09
3.10085e-09
3.12552e-09
2.854e-09
2.40318e-09
1.90414e-09
1.51285e-09
1.14206e-09
1.19841e-09
1.42908e-06
2.61234e-07
4.45148e-08
1.23101e-08
1.15368e-08
1.51779e-08
1.80102e-08
1.8579e-08
1.74651e-08
1.52373e-08
1.25666e-08
1.02385e-08
7.82788e-09
7.00365e-09
1.56749e-06
3.09307e-07
6.98845e-08
4.20421e-08
5.61871e-08
7.70907e-08
9.23936e-08
9.72448e-08
9.39019e-08
8.46302e-08
7.23058e-08
6.04338e-08
4.74075e-08
4.09455e-08
2.17472e-06
5.34565e-07
1.82102e-07
1.72197e-07
2.52124e-07
3.50191e-07
4.21629e-07
4.50891e-07
4.45214e-07
4.12817e-07
3.63619e-07
3.11805e-07
2.53066e-07
2.16978e-07
1.19069e-08
2.48412e-09
6.37845e-10
2.99835e-10
2.96994e-10
3.89265e-10
5.32173e-10
6.67523e-10
7.50675e-10
7.07472e-10
5.13044e-10
2.85927e-10
1.26715e-10
1.37009e-10
1.37769e-08
3.02321e-09
6.02381e-10
1.17128e-10
3.36525e-11
2.87384e-11
4.2214e-11
6.04738e-11
7.70407e-11
8.1694e-11
6.54284e-11
3.95999e-11
2.48338e-11
1.06872e-10
2.543e-08
5.98067e-09
1.25322e-09
2.35791e-10
4.11691e-11
9.22042e-12
5.68729e-12
6.76906e-12
8.55937e-12
9.64899e-12
8.69647e-12
6.72749e-12
1.17816e-11
1.10304e-10
4.22997e-08
1.0235e-08
2.19229e-09
4.13593e-10
6.9094e-11
1.18965e-11
3.90755e-12
3.08524e-12
3.14345e-12
3.25338e-12
3.22763e-12
3.3379e-12
9.15692e-12
9.95229e-11
6.09915e-08
1.46039e-08
3.07595e-09
5.65979e-10
9.10234e-11
1.44341e-11
4.04456e-12
2.89575e-12
2.80266e-12
2.80482e-12
2.81049e-12
3.00431e-12
7.7594e-12
8.54335e-11
7.81919e-08
1.79342e-08
3.6041e-09
6.31164e-10
9.64938e-11
1.45587e-11
3.99814e-12
2.88222e-12
2.78801e-12
2.78184e-12
2.78471e-12
2.92112e-12
6.44168e-12
6.92436e-11
9.60313e-08
2.08281e-08
3.94179e-09
6.4767e-10
9.29559e-11
1.34399e-11
3.86329e-12
2.91047e-12
2.82397e-12
2.80655e-12
2.79821e-12
2.88952e-12
5.52673e-12
5.59319e-11
1.15092e-07
2.35423e-08
4.18929e-09
6.44957e-10
8.72485e-11
1.26119e-11
4.25423e-12
3.4215e-12
3.2462e-12
3.10672e-12
2.98992e-12
2.9863e-12
4.81604e-12
4.27237e-11
1.33106e-07
2.58688e-08
4.35473e-09
6.32898e-10
8.37608e-11
1.59433e-11
9.29667e-12
8.29324e-12
7.29923e-12
6.12355e-12
5.04689e-12
4.41365e-12
5.24016e-12
3.29634e-11
1.50332e-07
2.7952e-08
4.49391e-09
6.36293e-10
1.04557e-10
5.05049e-11
4.96073e-11
4.71399e-11
4.06431e-11
3.20573e-11
2.37548e-11
1.80949e-11
1.42779e-11
3.15032e-11
1.61657e-07
2.89749e-08
4.53926e-09
7.18891e-10
2.71643e-10
2.85387e-10
3.21936e-10
3.15463e-10
2.78428e-10
2.24544e-10
1.69551e-10
1.28201e-10
9.20831e-11
8.94893e-11
1.66041e-07
2.92195e-08
4.83639e-09
1.3319e-09
1.27114e-09
1.66284e-09
1.93381e-09
1.93844e-09
1.75759e-09
1.46497e-09
1.14763e-09
8.85774e-10
6.40535e-10
5.29399e-10
1.71138e-07
3.21699e-08
7.19289e-09
4.65545e-09
6.44275e-09
8.80695e-09
1.03554e-08
1.05812e-08
9.83746e-09
8.45707e-09
6.85214e-09
5.41136e-09
4.00534e-09
3.2093e-09
2.17049e-07
5.14137e-08
1.87029e-08
1.99531e-08
3.02389e-08
4.1876e-08
4.94809e-08
5.1311e-08
4.87006e-08
4.30232e-08
3.58885e-08
2.90195e-08
2.21595e-08
1.76714e-08
1.19105e-09
2.54903e-10
7.11888e-11
4.01768e-11
4.54093e-11
6.20579e-11
8.57998e-11
1.08887e-10
1.2319e-10
1.17014e-10
8.60077e-11
4.91226e-11
2.24281e-11
1.5915e-11
1.66815e-09
3.66274e-10
7.46191e-11
1.6626e-11
7.00225e-12
6.95243e-12
9.33734e-12
1.24388e-11
1.51913e-11
1.59433e-11
1.3236e-11
8.91259e-12
5.79798e-12
1.06563e-11
3.23835e-09
7.50894e-10
1.56305e-10
3.08509e-11
7.3515e-12
3.59974e-12
3.25654e-12
3.48328e-12
3.79647e-12
3.97729e-12
3.80348e-12
3.42278e-12
3.57258e-12
1.08789e-11
5.51e-09
1.30626e-09
2.74753e-10
5.25928e-11
1.06563e-11
3.84847e-12
2.91632e-12
2.82799e-12
2.84411e-12
2.86384e-12
2.85746e-12
2.84654e-12
3.26153e-12
1.03736e-11
7.96617e-09
1.86058e-09
3.83044e-10
7.07046e-11
1.31995e-11
4.13518e-12
2.92455e-12
2.79181e-12
2.78153e-12
2.78233e-12
2.78268e-12
2.79528e-12
3.15914e-12
9.55665e-12
1.00626e-08
2.24619e-09
4.41001e-10
7.73998e-11
1.36923e-11
4.13273e-12
2.91755e-12
2.7897e-12
2.77885e-12
2.7782e-12
2.77844e-12
2.78819e-12
3.06543e-12
8.43619e-12
1.19753e-08
2.52204e-09
4.66456e-10
7.69803e-11
1.29764e-11
3.97099e-12
2.89834e-12
2.79179e-12
2.78223e-12
2.7806e-12
2.77991e-12
2.78646e-12
2.99803e-12
7.44149e-12
1.38017e-08
2.73434e-09
4.75642e-10
7.37564e-11
1.1966e-11
3.83069e-12
2.92599e-12
2.83572e-12
2.81802e-12
2.8052e-12
2.79509e-12
2.79394e-12
2.94284e-12
6.35767e-12
1.53353e-08
2.87983e-09
4.73703e-10
6.94929e-11
1.11911e-11
4.08396e-12
3.37473e-12
3.26254e-12
3.16187e-12
3.05033e-12
2.95395e-12
2.89757e-12
2.96529e-12
5.46975e-12
1.65679e-08
2.97301e-09
4.67078e-10
6.67977e-11
1.27993e-11
7.3068e-12
7.08914e-12
6.74833e-12
6.053e-12
5.20051e-12
4.42569e-12
3.91106e-12
3.59071e-12
5.10879e-12
1.70229e-08
2.9425e-09
4.50514e-10
7.21011e-11
2.89327e-11
3.01513e-11
3.30095e-11
3.15659e-11
2.7263e-11
2.15984e-11
1.62057e-11
1.2305e-11
9.18726e-12
8.77955e-12
1.66446e-08
2.82192e-09
4.57927e-10
1.31212e-10
1.30388e-10
1.68957e-10
1.91806e-10
1.86692e-10
1.63418e-10
1.30536e-10
9.76632e-11
7.18625e-11
4.99066e-11
3.91107e-11
1.61457e-08