/*--------------------------------*- C++ -*----------------------------------*\
| =========                 |                                                 |
| \\      /  F ield         | OpenFOAM: The Open Source CFD Toolbox           |
|  \\    /   O peration     | Version:  v2106                                 |
|   \\  /    A nd           | Website:  www.openfoam.com                      |
|    \\/     M anipulation  |                                                 |
\*---------------------------------------------------------------------------*/
FoamFile
{
    version     2.0;
    format      ascii;
    arch        "LSB;label=32;scalar=64";
    class       volScalarField;
    location    "0.000161";
    object      p;
}
// * * * * * * * * * * * * * * * * * * * * * * * * * * * * * * * * * * * * * //

dimensions      [1 -1 -2 0 0 0 0];

internalField   nonuniform List<scalar> 
18109
(
215596
216238
216533
216857
217050
217245
217398
215026
215835
216198
216605
216879
217157
217382
214602
215400
215883
216347
216698
217026
217311
214304
215067
215625
216114
216509
216872
217193
214061
214806
215391
215895
216311
216697
217040
213885
214606
215196
215698
216117
216506
216859
213802
214477
215034
215518
215927
216312
216669
213802
214390
214906
215358
215747
216121
216478
217734
218439
218786
219173
219443
219701
219933
220172
220431
220734
221099
221476
221925
222328
217275
218088
218523
218972
219313
219639
219936
220248
220567
220919
221323
221741
222216
222655
216965
217743
218271
218763
219165
219546
219893
220255
220625
221016
221433
221851
222292
222701
216738
217488
218064
218575
219009
219423
219804
220192
220587
220997
221426
221848
222275
222671
216545
217282
217875
218398
218847
219276
219674
220076
220484
220897
221319
221721
222117
222475
216436
217142
217723
218238
218685
219114
219517
219924
220333
220740
221152
221535
221901
222223
216412
217048
217601
218093
218527
218949
219350
219756
220160
220557
220947
221302
221633
221918
216446
217009
217519
217967
218377
218784
219179
219582
219981
220369
220741
221071
221370
221607
216565
217023
217471
217862
218239
218626
219012
219412
219808
220192
220550
220860
221132
221346
216760
217106
217434
217765
218104
218469
218848
219250
219649
220038
220391
220690
220946
221121
216929
217200
217445
217688
217976
218305
218676
219082
219495
219900
220260
220564
220816
220971
217107
217250
217405
217577
217810
218111
218483
218902
219339
219771
220154
220474
220734
220868
217175
217280
217326
217416
217601
217881
218255
218695
219162
219633
220046
220401
220690
220827
217102
217027
217032
217110
217272
217551
217947
218430
218956
219482
219949
220322
220641
220787
216164
216238
216661
216912
217392
217758
218198
218154
218411
218533
218862
219098
218729
218871
219244
219632
220219
220840
219144
219376
219841
220392
221137
221952
219434
219698
220131
220695
221429
222194
219618
219802
220136
220594
221115
221665
219777
219822
219989
220215
220401
220600
219918
219804
219747
219659
219463
219384
220066
219807
219567
219171
218557
217984
220242
219859
219423
218763
217824
216900
220510
220090
219553
218760
217654
216610
220880
220483
219964
219201
218179
217196
221310
220984
220577
219934
219170
218339
221845
221603
221332
220934
220503
219881
222390
222224
222190
222036
221928
221799
222981
223013
223277
223404
223663
223851
223206
223475
223896
224290
224828
225309
223255
223713
224303
224893
225595
226329
223173
223706
224333
225014
225832
226698
222929
223432
224005
224641
225416
226265
222607
222995
223435
223905
224506
225164
222231
222498
222783
223013
223307
223656
221843
221952
222047
222024
221955
221891
221503
221473
221406
221113
220599
220080
221233
221101
220876
220350
219567
218870
221056
220892
220594
220016
219276
218491
220962
220778
220522
220093
219587
218678
220979
220798
220699
220334
220046
219627
220865
220694
220711
220641
220663
220590
221101
221159
221389
221438
221678
221781
220779
220956
221205
221454
221838
222282
220446
220638
220875
221195
221628
222076
219946
220031
220172
220327
220623
220889
219373
219241
219182
218975
218946
218842
218679
218331
217997
217353
216883
216480
218048
217482
216832
215743
214740
213494
217491
216730
215793
214272
212826
211128
217055
216175
215073
213421
211734
209790
216789
215928
214786
213363
211579
209746
216699
215999
215127
213878
212508
211051
216886
216219
215580
214810
214073
213116
217010
216550
216301
215903
215586
215210
216871
216651
216696
216585
216713
216727
213574
212547
211300
209687
208150
206658
214082
213213
212309
211245
210308
209311
214681
214079
213643
213162
212826
212491
215235
215075
215027
214975
215111
215284
217412
217451
217787
217837
218076
218196
217155
217319
217490
217737
218134
218681
217032
217102
217136
217364
217673
218066
216641
216542
216380
216372
216355
216330
216365
215957
215479
215103
214564
214060
215992
215308
214544
213745
212683
211522
215728
214794
213755
212448
210876
208887
215594
214464
213134
211360
209521
207271
215557
214353
212932
210924
209019
206567
215673
214483
213138
211344
209416
207194
215989
214963
213748
212232
210586
208895
216378
215519
214594
213433
212361
211125
216891
216259
215700
215069
214539
213937
217336
217047
216851
216697
216637
216646
220009
221885
225798
231212
239946
222480
224673
229039
234485
242888
223787
226462
230255
235334
246277
223923
226095
229472
234619
243853
222969
224158
227186
231587
238336
220987
221384
223424
227238
233328
218823
217922
218690
222767
231808
216383
214431
213669
216655
226026
236546
214787
212304
210811
212707
218567
224796
214276
211696
210215
212194
217200
222186
214944
212656
211770
215269
221130
227483
232345
216750
215170
215137
219450
226884
236469
248600
258023
219159
218505
219267
224189
234378
250772
274868
309478
221801
222040
223707
228251
237259
249858
269957
287811
224359
225241
227666
231780
239402
249124
262400
268627
226469
227990
230748
234900
241625
251960
261936
271103
227851
229916
232968
236691
243956
256752
274780
281474
228420
230901
233857
237478
243825
253541
267179
290333
228052
230279
233257
236889
242168
248817
256135
259451
226446
228397
231378
235332
241164
248738
254486
259153
224336
225584
227551
231761
239752
251905
262528
265859
221516
221251
222121
226002
234814
246583
259142
280519
218710
217692
217875
221122
227399
233896
217122
215506
215339
218877
225406
232218
216697
215046
215497
221065
228483
237875
217474
216206
217232
223915
233590
247773
219134
218702
220629
227516
239664
261153
220675
221221
223990
229908
240932
222373
223749
226954
232291
241393
223429
225480
229185
234272
242604
223396
225483
229059
235145
245673
221955
223893
227903
233651
243124
219160
220565
223992
230152
239311
215741
216132
218913
225962
236062
211850
211214
214305
223143
236739
209217
208148
211714
219897
232195
207546
205885
209332
215861
223517
207216
205522
209194
216139
224102
208961
207811
211544
219465
229064
211720
211373
215103
223797
235785
214695
215195
219102
227703
242426
217038
218409
222371
229575
242448
219025
220813
225045
231471
242054
219895
222376
226859
233452
243923
219458
221336
226479
234609
248911
217261
218637
223458
231355
245235
213812
214029
217438
224880
236146
209871
208366
210574
217401
226533
206566
204033
206258
214657
228818
204715
201863
204063
211234
223418
203849
200846
202289
207228
213615
204407
201736
203378
208606
213835
206529
204614
206517
212422
219272
209567
208818
211044
217799
227269
213305
213463
216153
223209
234934
216887
218065
221478
227549
237668
221421
222195
222665
223138
223491
223800
224075
224356
224634
224934
225252
225575
225938
226190
221194
221955
222481
222975
223380
223749
224091
224441
224784
225131
225496
225854
226227
226534
221027
221744
222310
222824
223264
223681
224071
224469
224863
225250
225634
225993
226356
226664
220894
221589
222168
222694
223156
223598
224017
224434
224856
225268
225672
226042
226400
226706
220828
221487
222054
222580
223048
223502
223934
224363
224791
225202
225602
225963
226302
226582
220825
221429
221973
222482
222945
223398
223832
224262
224686
225088
225473
225816
226127
226374
220866
221416
221922
222400
222846
223289
223717
224139
224551
224936
225298
225613
225891
226106
220977
221448
221896
222331
222749
223174
223590
224001
224395
224762
225101
225389
225637
225822
221095
221495
221881
222266
222650
223056
223457
223856
224235
224586
224905
225168
225387
225543
221231
221533
221854
222183
222536
222921
223310
223702
224073
224418
224723
224969
225171
225304
221375
221585
221825
222091
222405
222763
223140
223530
223902
224251
224554
224798
224993
225115
221451
221571
221733
221935
222213
222554
222933
223335
223724
224091
224407
224661
224862
224976
221419
221494
221574
221722
221977
222307
222695
223114
223530
223923
224259
224541
224764
224887
221220
221184
221244
221382
221629
221966
222380
222839
223304
223740
224125
224407
224679
224739
227076
227727
228240
228732
229125
229473
229784
230074
230356
230611
230872
231115
231377
231581
227066
227659
228154
228624
229028
229402
229749
230085
230418
230729
231031
231309
231604
231864
227043
227593
228080
228538
228948
229337
229706
230069
230430
230775
231106
231402
231698
231946
227073
227568
228034
228476
228884
229278
229658
230032
230403
230759
231104
231417
231723
231987
227131
227578
228011
228433
228831
229219
229600
229974
230346
230702
231044
231355
231655
231919
227226
227616
228012
228404
228786
229163
229535
229902
230265
230614
230947
231251
231537
231790
227331
227664
228021
228381
228743
229106
229467
229821
230168
230501
230816
231103
231368
231601
227453
227727
228037
228362
228700
229047
229393
229732
230061
230375
230669
230935
231176
231385
227561
227779
228043
228334
228649
228980
229313
229640
229952
230246
230520
230766
230986
231176
227627
227793
228016
228276
228573
228893
229220
229541
229843
230126
230387
230619
230822
230991
227656
227774
227957
228186
228465
228778
229103
229427
229732
230014
230272
230496
230690
230846
227590
227681
227828
228033
228303
228619
228957
229299
229621
229916
230178
230405
230597
230740
227490
227536
227648
227834
228102
228428
228783
229150
229499
229821
230099
230341
230545
230693
227174
227255
227365
227567
227842
228192
228575
228980
229364
229718
230027
230270
230500
230574
231859
232313
232691
233084
233440
233768
234068
234336
234584
234809
235026
235225
235433
235654
231883
232293
232657
233022
233370
233702
234014
234304
234578
234829
235072
235305
235542
235790
231920
232282
232634
232981
233322
233648
233959
234255
234538
234805
235067
235319
235572
235830
231983
232296
232626
232951
233277
233594
233902
234199
234488
234766
235038
235302
235567
235837
232061
232330
232627
232929
233237
233539
233837
234129
234416
234699
234977
235251
235524
235803
232148
232375
232637
232911
233198
233483
233768
234052
234335
234618
234897
235176
235451
235734
232231
232422
232650
232899
233166
233435
233707
233981
234255
234533
234809
235084
235357
235637
232314
232471
232668
232891
233137
233390
233651
233916
234182
234451
234717
234984
235248
235517
232381
232507
232676
232879
233109
233352
233606
233865
234122
234381
234637
234891
235145
235401
232411
232520
232670
232858
233078
233317
233569
233827
234081
234333
234579
234822
235065
235306
232417
232509
232644
232820
233034
233272
233529
233791
234048
234302
234547
234785
235018
235249
232375
232462
232588
232761
232976
233222
233489
233767
234037
234301
234549
234786
235012
235228
232326
232399
232512
232685
232906
233164
233447
233743
234035
234315
234575
234822
235054
235270
232169
232292
232405
232592
232823
233101
233405
233725
234033
234329
234601
234846
235082
235248
235639
235871
236061
236289
236528
236771
237010
237238
237455
237664
237873
238089
238301
238574
235665
235858
236041
236258
236489
236727
236965
237199
237427
237652
237872
238106
238330
238605
235709
235869
236046
236247
236465
236690
236918
237148
237374
237605
237832
238076
238315
238592
235751
235881
236041
236226
236430
236646
236868
237097
237326
237564
237801
238055
238307
238590
235786
235890
236034
236204
236397
236603
236819
237045
237274
237518
237762
238027
238292
238584
235816
235904
236029
236187
236367
236564
236773
236997
237227
237476
237727
238001
238278
238580
235845
235920
236030
236177
236348
236537
236741
236963
237195
237447
237706
237984
238271
238575
235875
235943
236043
236181
236346
236530
236733
236955
237188
237442
237703
237982
238268
238571
235908
235968
236065
236199
236362
236547
236750
236973
237206
237458
237717
237991
238275
238575
235942
236003
236101
236236
236401
236588
236796
237021
237255
237505
237760
238028
238306
238601
235976
236041
236143
236281
236452
236645
236859
237089
237326
237575
237828
238092
238365
238657
236021
236094
236200
236344
236522
236724
236947
237187
237430
237680
237933
238193
238460
238743
236070
236153
236263
236418
236607
236822
237058
237307
237558
237813
238065
238324
238584
238866
236088
236206
236329
236504
236708
236936
237183
237441
237695
237950
238197
238446
238705
238972
238164
238180
238225
238309
238411
238532
238670
238825
238987
239172
239360
239587
239805
240094
238144
238156
238198
238277
238375
238496
238637
238801
238977
239178
239382
239622
239846
240124
238140
238148
238188
238261
238356
238474
238613
238776
238953
239159
239370
239615
239851
240129
238132
238133
238169
238236
238331
238452
238594
238763
238946
239159
239378
239627
239871
240151
238120
238122
238160
238228
238325
238449
238595
238768
238955
239171
239396
239648
239902
240185
238115
238120
238161
238231
238330
238456
238607
238783
238976
239197
239429
239685
239948
240235
238123
238133
238176
238250
238354
238484
238639
238821
239018
239243
239481
239740
240012
240300
238148
238166
238213
238292
238401
238537
238697
238883
239086
239314
239557
239817
240096
240382
238185
238213
238268
238355
238471
238614
238779
238970
239177
239406
239652
239912
240195
240479
238250
238291
238356
238451
238575
238723
238895
239089
239298
239529
239775
240033
240317
240597
238332
238392
238468
238573
238706
238863
239040
239237
239449
239680
239925
240181
240460
240735
238452
238527
238610
238726
238867
239031
239214
239415
239627
239856
240098
240349
240627
240889
238605
238688
238781
238904
239055
239228
239420
239628
239844
240073
240310
240558
240819
241084
238780
238874
238980
239117
239277
239458
239655
239863
240072
240292
240514
240746
241002
241252
239273
239210
239170
239164
239181
239230
239302
239405
239529
239689
239860
240073
240282
240546
239218
239155
239122
239122
239147
239205
239289
239406
239548
239726
239916
240143
240359
240615
239179
239126
239097
239105
239139
239206
239299
239422
239568
239749
239943
240173
240400
240662
239146
239099
239083
239101
239146
239221
239323
239455
239610
239797
239997
240229
240459
240723
239131
239097
239096
239126
239180
239262
239371
239510
239671
239861
240065
240297
240533
240798
239137
239119
239128
239166
239230
239321
239439
239585
239752
239946
240154
240386
240627
240890
239164
239163
239184
239233
239306
239405
239531
239683
239855
240051
240264
240496
240742
241002
239220
239237
239266
239325
239407
239515
239648
239805
239981
240180
240396
240628
240880
241133
239300
239334
239373
239444
239536
239652
239791
239952
240132
240332
240552
240781
241037
241281
239411
239461
239512
239593
239693
239816
239960
240125
240306
240507
240728
240956
241213
241446
239549
239619
239680
239771
239880
240010
240159
240328
240512
240713
240933
241158
241406
241627
239727
239817
239885
239984
240099
240233
240386
240555
240736
240935
241151
241369
241611
241817
239925
240030
240109
240214
240338
240481
240640
240814
240998
241198
241405
241614
241834
242034
240190
240294
240386
240494
240623
240766
240924
241092
241267
241454
241644
241834
242042
242229
239583
239530
239489
239468
239463
239489
239528
239597
239685
239797
239928
240090
240265
240485
239522
239475
239445
239437
239447
239484
239541
239622
239726
239856
240004
240181
240364
240583
239480
239443
239427
239435
239459
239510
239579
239671
239783
239919
240073
240258
240448
240672
239458
239438
239438
239456
239493
239554
239636
239739
239861
240007
240169
240359
240551
240779
239468
239465
239477
239509
239559
239630
239721
239832
239962
240114
240282
240474
240669
240895
239509
239519
239545
239590
239653
239733
239832
239951
240087
240244
240415
240606
240803
241023
239583
239608
239647
239705
239777
239865
239972
240095
240236
240395
240568
240757
240955
241164
239688
239731
239778
239847
239927
240022
240134
240262
240405
240565
240740
240924
241121
241317
239831
239887
239941
240019
240104
240206
240322
240452
240596
240755
240928
241104
241297
241477
240000
240069
240128
240212
240302
240408
240527
240658
240802
240959
241127
241295
241481
241647
240194
240276
240340
240429
240524
240632
240752
240884
241026
241177
241338
241494
241671
241819
240422
240518
240582
240672
240767
240875
240993
241121
241254
241399
241550
241698
241866
241999
240653
240766
240834
240926
241024
241132
241247
241370
241499
241635
241776
241916
242065
242186
240952
241056
241133
241213
241305
241403
241509
241620
241734
241858
241985
242114
242254
242371
239745
239753
239748
239752
239759
239777
239804
239842
239890
239948
240015
240095
240187
240298
239691
239704
239716
239737
239762
239794
239834
239887
239950
240025
240109
240206
240312
240445
239671
239693
239719
239752
239790
239837
239892
239957
240030
240114
240207
240316
240431
240571
239682
239714
239751
239793
239843
239903
239972
240049
240133
240227
240329
240446
240565
240709
239729
239767
239812
239864
239927
239999
240078
240164
240257
240358
240465
240584
240703
240843
239809
239854
239908
239970
240042
240121
240208
240300
240399
240505
240612
240727
240844
240978
239929
239984
240044
240114
240191
240273
240364
240458
240559
240662
240766
240875
240989
241114
240087
240150
240212
240285
240362
240444
240535
240627
240723
240821
240920
241024
241136
241252
240277
240347
240408
240481
240555
240633
240717
240803
240893
240984
241078
241176
241284
241390
240489
240561
240617
240686
240751
240822
240900
240979
241062
241146
241237
241329
241434
241528
240709
240781
240832
240894
240952
241016
241086
241156
241231
241311
241398
241483
241583
241661
240932
241005
241045
241100
241150
241206
241267
241332
241402
241478
241559
241640
241733
241800
241148
241218
241254
241301
241345
241394
241451
241511
241578
241649
241725
241798
241878
241928
241391
241438
241469
241504
241540
241583
241635
241689
241748
241813
241879
241944
242016
242071
240020
240077
240118
240161
240192
240218
240236
240243
240246
240246
240243
240241
240237
240237
240012
240071
240126
240175
240214
240247
240273
240292
240305
240316
240325
240337
240346
240366
240036
240096
240159
240211
240258
240298
240332
240359
240379
240398
240416
240436
240452
240480
240096
240154
240220
240273
240321
240365
240404
240435
240461
240485
240509
240535
240560
240599
240183
240243
240307
240357
240406
240451
240491
240524
240553
240580
240609
240640
240670
240713
240302
240359
240414
240460
240505
240547
240585
240618
240648
240678
240711
240746
240780
240823
240440
240491
240538
240579
240620
240656
240689
240719
240751
240785
240819
240854
240890
240930
240590
240635
240673
240709
240742
240771
240799
240827
240859
240893
240925
240960
240994
241031
240749
240789
240818
240848
240873
240896
240920
240944
240973
241002
241032
241063
241095
241129
240906
240944
240962
240986
241006
241024
241043
241062
241086
241111
241137
241164
241193
241222
241067
241101
241111
241128
241140
241152
241166
241177
241196
241215
241237
241260
241284
241306
241220
241250
241250
241260
241264
241272
241280
241288
241303
241317
241336
241352
241370
241383
241366
241388
241382
241387
241385
241386
241390
241393
241402
241412
241423
241432
241443
241442
241512
241518
241505
241501
241495
241492
241493
241492
241498
241501
241506
241507
241511
241506
240411
240479
240530
240565
240586
240593
240582
240562
240531
240490
240441
240381
240312
240237
240453
240510
240562
240595
240616
240620
240611
240590
240561
240521
240475
240422
240362
240305
240503
240554
240603
240635
240653
240654
240646
240626
240600
240566
240526
240478
240422
240369
240565
240609
240651
240680
240694
240693
240684
240664
240637
240604
240565
240523
240475
240431
240631
240671
240707
240729
240737
240734
240725
240706
240681
240649
240612
240575
240531
240491
240706
240739
240767
240779
240781
240775
240764
240745
240721
240690
240658
240623
240584
240548
240783
240809
240825
240829
240826
240817
240803
240784
240760
240733
240703
240671
240635
240602
240858
240874
240880
240877
240870
240858
240841
240821
240799
240773
240744
240712
240680
240650
240927
240936
240933
240928
240916
240901
240882
240861
240837
240810
240780
240750
240719
240691
240990
240996
240987
240979
240964
240946
240924
240899
240873
240844
240814
240783
240753
240726
241057
241064
241049
241037
241016
240992
240965
240936
240906
240875
240843
240811
240780
240754
241125
241130
241107
241088
241062
241035
241005
240973
240940
240905
240870
240834
240800
240769
241201
241200
241173
241147
241115
241080
241043
241005
240967
240928
240889
240848
240812
240772
241273
241251
241223
241190
241155
241116
241075
241033
240992
240949
240907
240865
240825
240777
240608
240642
240662
240668
240662
240646
240619
240580
240530
240468
240397
240313
240223
240114
240643
240662
240675
240674
240665
240646
240617
240575
240522
240457
240382
240297
240208
240111
240668
240682
240689
240684
240672
240650
240618
240574
240522
240460
240388
240308
240221
240129
240692
240700
240702
240695
240682
240657
240622
240577
240522
240460
240390
240314
240231
240146
240712
240716
240716
240707
240691
240664
240627
240581
240526
240465
240398
240324
240245
240165
240729
240732
240729
240719
240699
240670
240632
240585
240531
240471
240404
240333
240258
240181
240748
240749
240744
240729
240707
240675
240636
240589
240536
240475
240410
240341
240269
240194
240770
240767
240757
240739
240713
240679
240638
240590
240535
240476
240411
240344
240272
240200
240791
240785
240770
240748
240718
240680
240636
240585
240530
240470
240406
240339
240269
240199
240810
240798
240777
240748
240714
240672
240626
240574
240518
240457
240392
240325
240255
240188
240822
240805
240779
240745
240706
240661
240610
240555
240495
240432
240367
240300
240231
240169
240826
240802
240770
240731
240688
240639
240586
240529
240467
240403
240336
240268
240198
240138
240830
240798
240763
240719
240670
240615
240556
240493
240427
240359
240290
240221
240151
240092
240814
240776
240736
240689
240636
240579
240518
240453
240386
240318
240248
240181
240111
240042
240575
240581
240584
240579
240567
240543
240508
240462
240405
240337
240260
240171
240073
239956
240586
240585
240583
240573
240555
240526
240485
240432
240367
240292
240208
240113
240013
239899
240591
240588
240581
240565
240541
240504
240457
240400
240333
240255
240170
240074
239973
239860
240591
240584
240573
240551
240520
240479
240427
240367
240296
240216
240128
240031
239930
239819
240587
240576
240558
240531
240495
240450
240395
240331
240258
240177
240088
239991
239891
239783
240576
240559
240536
240504
240465
240416
240358
240292
240217
240135
240046
239950
239850
239744
240556
240534
240507
240472
240429
240378
240318
240249
240173
240089
240000
239906
239809
239708
240526
240501
240470
240432
240386
240332
240269
240199
240122
240039
239950
239858
239763
239667
240491
240462
240428
240386
240337
240280
240215
240143
240065
239983
239896
239807
239715
239625
240445
240411
240373
240327
240276
240216
240151
240079
240002
239921
239835
239749
239659
239575
240394
240355
240314
240264
240210
240148
240081
240009
239931
239851
239767
239685
239598
239522
240329
240284
240242
240190
240134
240072
240005
239932
239855
239776
239694
239614
239530
239461
240265
240215
240170
240114
240056
239990
239921
239847
239769
239690
239608
239531
239451
239388
240175
240128
240080
240025
239965
239900
239831
239759
239683
239607
239529
239454
239376
239309
240364
240344
240323
240297
240269
240233
240193
240146
240092
240033
239966
239891
239811
239722
240342
240318
240291
240261
240228
240187
240139
240085
240023
239956
239881
239798
239712
239616
240320
240291
240257
240222
240180
240134
240081
240021
239955
239882
239803
239717
239628
239531
240286
240254
240214
240173
240126
240075
240017
239953
239881
239804
239722
239632
239541
239439
240244
240207
240162
240117
240066
240010
239948
239879
239805
239725
239640
239548
239455
239353
240192
240150
240102
240052
239997
239938
239871
239800
239723
239641
239554
239462
239368
239267
240130
240083
240032
239979
239921
239858
239789
239716
239637
239553
239466
239375
239281
239184
240055
240004
239951
239895
239834
239769
239699
239624
239545
239461
239374
239284
239192
239100
239971
239916
239861
239802
239741
239674
239603
239528
239448
239366
239280
239194
239104
239018
239872
239815
239760
239700
239638
239571
239500
239426
239347
239266
239183
239100
239015
238936
239768
239708
239654
239592
239530
239463
239393
239319
239242
239164
239083
239006
238925
238855
239651
239590
239537
239476
239415
239349
239281
239210
239135
239060
238984
238910
238834
238772
239539
239474
239421
239360
239299
239234
239166
239096
239023
238950
238877
238808
238739
238686
239397
239343
239290
239232
239173
239111
239048
238982
238914
238846
238778
238714
238649
238596
239988
239938
239890
239846
239805
239765
239726
239686
239645
239604
239559
239515
239467
239425
239921
239876
239822
239777
239731
239686
239640
239593
239545
239496
239446
239394
239342
239280
239855
239807
239748
239699
239647
239598
239548
239497
239445
239391
239337
239281
239225
239158
239783
239731
239669
239616
239560
239507
239452
239397
239340
239282
239224
239163
239102
239034
239702
239645
239581
239524
239465
239408
239350
239292
239233
239172
239111
239048
238984
238916
239612
239550
239485
239425
239363
239304
239243
239183
239121
239059
238996
238931
238866
238797
239513
239447
239381
239318
239255
239194
239132
239070
239007
238944
238881
238816
238750
238684
239402
239334
239269
239204
239141
239078
239016
238953
238890
238828
238764
238700
238635
238571
239285
239214
239150
239085
239022
238959
238897
238835
238773
238711
238648
238587
238524
238465
239156
239086
239024
238959
238898
238836
238775
238714
238654
238594
238533
238475
238415
238361
239025
238956
238896
238832
238773
238712
238653
238594
238536
238479
238421
238367
238310
238263
238887
238818
238761
238700
238644
238586
238529
238474
238419
238365
238312
238261
238208
238168
238756
238686
238631
238573
238517
238462
238408
238354
238303
238253
238203
238156
238109
238077
238601
238544
238491
238438
238386
238335
238285
238237
238191
238146
238102
238059
238018
237988
239481
239417
239356
239305
239259
239220
239186
239157
239133
239111
239091
239074
239060
239048
239375
239323
239259
239207
239157
239115
239077
239044
239016
238990
238965
238943
238925
238901
239270
239216
239151
239098
239047
239003
238964
238928
238897
238868
238842
238816
238795
238769
239162
239107
239042
238988
238936
238890
238848
238811
238777
238745
238716
238687
238662
238636
239051
238993
238928
238873
238819
238773
238730
238691
238656
238623
238592
238562
238535
238508
238934
238873
238809
238754
238701
238653
238610
238571
238535
238500
238468
238437
238409
238381
238813
238750
238688
238632
238580
238532
238489
238450
238413
238378
238346
238315
238287
238259
238687
238622
238564
238508
238457
238410
238368
238329
238292
238258
238225
238195
238167
238140
238560
238495
238439
238384
238334
238289
238247
238209
238174
238140
238109
238081
238052
238027
238429
238364
238312
238258
238211
238167
238128
238091
238057
238025
237996
237969
237940
237918
238300
238237
238187
238136
238091
238049
238011
237976
237945
237915
237888
237864
237837
237818
238171
238108
238061
238012
237970
237931
237897
237865
237836
237809
237785
237763
237738
237724
238048
237988
237942
237896
237856
237819
237787
237758
237733
237708
237687
237667
237647
237640
237912
237863
237819
237777
237741
237709
237681
237656
237634
237614
237596
237578
237561
237556
238878
238825
238771
238730
238693
238664
238641
238623
238611
238605
238605
238610
238620
238628
238752
238713
238660
238617
238580
238551
238527
238509
238495
238489
238489
238490
238499
238494
238632
238593
238541
238500
238463
238435
238412
238393
238379
238373
238371
238369
238378
238372
238511
238472
238422
238383
238348
238320
238296
238278
238265
238257
238254
238250
238257
238251
238393
238351
238304
238266
238232
238204
238181
238163
238150
238142
238138
238135
238140
238135
238272
238230
238186
238149
238117
238090
238068
238051
238038
238030
238025
238022
238024
238020
238154
238110
238069
238034
238003
237978
237956
237940
237928
237920
237915
237912
237913
237911
238036
237992
237954
237920
237892
237867
237848
237832
237821
237813
237808
237805
237803
237803
237922
237878
237842
237810
237783
237760
237742
237728
237717
237710
237705
237702
237700
237702
237809
237765
237732
237701
237677
237656
237640
237627
237617
237611
237606
237603
237600
237605
237701
237656
237626
237598
237575
237557
237542
237531
237523
237518
237514
237512
237509
237516
237596
237551
237524
237498
237478
237461
237448
237439
237433
237428
237426
237425
237423
237431
237496
237456
237430
237405
237386
237371
237360
237353
237349
237346
237346
237347
237348
237360
237392
237360
237335
237313
237297
237284
237276
237272
237270
237269
237271
237273
237276
237284
238131
238118
238109
238106
238107
238112
238123
238138
238163
238185
238099
238089
238065
238047
238031
238019
238012
238010
238013
238019
238031
238046
238069
238081
237995
237984
237962
237946
237931
237920
237915
237914
237917
237924
237936
237950
237974
237985
237889
237878
237859
237844
237831
237823
237819
237820
237824
237832
237844
237857
237880
237889
237789
237776
237759
237745
237734
237728
237725
237726
237731
237740
237752
237766
237787
237798
237691
237676
237661
237649
237640
237635
237634
237636
237642
237650
237663
237677
237695