/*--------------------------------*- C++ -*----------------------------------*\
| =========                 |                                                 |
| \\      /  F ield         | OpenFOAM: The Open Source CFD Toolbox           |
|  \\    /   O peration     | Version:  v2106                                 |
|   \\  /    A nd           | Website:  www.openfoam.com                      |
|    \\/     M anipulation  |                                                 |
\*---------------------------------------------------------------------------*/
FoamFile
{
    version     2.0;
    format      ascii;
    arch        "LSB;label=32;scalar=64";
    class       volVectorField;
    location    "0.000211";
    object      U;
}
// * * * * * * * * * * * * * * * * * * * * * * * * * * * * * * * * * * * * * //

dimensions      [0 1 -1 0 0 0 0];

internalField   nonuniform List<vector> 
18265
(
(-0.0111747 -0.0109493 1.16659)
(-0.00926405 -0.0106435 1.16682)
(-0.00749889 -0.0109997 1.16734)
(-0.00572612 -0.0108705 1.1678)
(-0.0039885 -0.0108912 1.16813)
(-0.00228594 -0.0108495 1.16833)
(-0.000602472 -0.010836 1.16845)
(0.00108251 -0.0108443 1.16855)
(0.00277062 -0.0108769 1.16862)
(0.00445257 -0.0109311 1.16861)
(0.00618248 -0.0109329 1.16848)
(0.00794412 -0.0110531 1.16819)
(0.00968934 -0.0107031 1.16787)
(0.0114826 -0.011059 1.16782)
(-0.0108656 -0.00909273 1.16701)
(-0.00914024 -0.00897226 1.16722)
(-0.0075311 -0.00920632 1.16776)
(-0.005866 -0.00912732 1.16822)
(-0.00415469 -0.00915777 1.16863)
(-0.00241259 -0.00915841 1.16895)
(-0.000645344 -0.00917795 1.16914)
(0.00113312 -0.00919137 1.16925)
(0.00289434 -0.00920146 1.16926)
(0.00460085 -0.00922152 1.16915)
(0.00627558 -0.00921867 1.16897)
(0.00791129 -0.00930982 1.16872)
(0.00951113 -0.00908102 1.16841)
(0.0111764 -0.00921264 1.1683)
(-0.0112168 -0.00737248 1.16765)
(-0.00937531 -0.00740436 1.1679)
(-0.00771471 -0.00758944 1.16857)
(-0.00595694 -0.00752904 1.16897)
(-0.00419629 -0.00754319 1.16935)
(-0.00242072 -0.00752593 1.16961)
(-0.000648112 -0.00753346 1.16978)
(0.00112658 -0.007543 1.16987)
(0.00289396 -0.00755411 1.16991)
(0.00463241 -0.00758594 1.16986)
(0.0063671 -0.00758762 1.1697)
(0.00808606 -0.00766216 1.16951)
(0.00974038 -0.00747749 1.16906)
(0.0115037 -0.00745299 1.16894)
(-0.0110592 -0.00565637 1.16826)
(-0.00927958 -0.005782 1.16851)
(-0.00764924 -0.00585926 1.16912)
(-0.00593421 -0.00583332 1.16949)
(-0.00420112 -0.0058359 1.16985)
(-0.00243842 -0.00582799 1.17011)
(-0.000664965 -0.00583547 1.17028)
(0.00111602 -0.00584581 1.17038)
(0.00288843 -0.00585447 1.17042)
(0.00461976 -0.00587872 1.17037)
(0.00632918 -0.00588388 1.17024)
(0.00800917 -0.00592857 1.17007)
(0.00963282 -0.00584823 1.1697)
(0.0113416 -0.00572002 1.16959)
(-0.0110572 -0.00396137 1.16875)
(-0.00929223 -0.00410404 1.16908)
(-0.00765399 -0.00412601 1.16966)
(-0.00593288 -0.00412268 1.17)
(-0.00420092 -0.0041222 1.17035)
(-0.00243892 -0.00411857 1.17059)
(-0.000669064 -0.00412272 1.17076)
(0.00110861 -0.00413139 1.17086)
(0.002879 -0.00413811 1.1709)
(0.00461201 -0.00415669 1.17087)
(0.00632767 -0.00415656 1.17075)
(0.00801858 -0.00418083 1.17059)
(0.00965326 -0.00414724 1.17025)
(0.0113578 -0.00399621 1.17008)
(-0.0109897 -0.00229291 1.16909)
(-0.00927268 -0.0023885 1.16955)
(-0.00762522 -0.00236736 1.17006)
(-0.00591703 -0.00237452 1.17041)
(-0.00419484 -0.00237048 1.17074)
(-0.00244129 -0.00237232 1.17099)
(-0.000676654 -0.00237522 1.17115)
(0.00109812 -0.00238351 1.17126)
(0.0028661 -0.00239004 1.1713)
(0.00459598 -0.00240306 1.17127)
(0.00630846 -0.00240204 1.17115)
(0.00799785 -0.00241531 1.171)
(0.00964187 -0.00241404 1.17072)
(0.0113217 -0.00230503 1.17042)
(-0.0109549 -0.00063374 1.16935)
(-0.0092794 -0.00063978 1.16991)
(-0.00762131 -0.000608081 1.17039)
(-0.00591572 -0.0006122 1.17075)
(-0.00419454 -0.000607231 1.17107)
(-0.00244345 -0.000611609 1.17132)
(-0.000681226 -0.000613372 1.17148)
(0.00109203 -0.000621158 1.17159)
(0.00285923 -0.000628028 1.17163)
(0.00458982 -0.000637189 1.1716)
(0.00630581 -0.000635718 1.17149)
(0.00800211 -0.000649185 1.17133)
(0.00965863 -0.000651877 1.17106)
(0.0113226 -0.000629673 1.17069)
(-0.010925 0.00103204 1.16958)
(-0.00927215 0.0011198 1.17015)
(-0.00761263 0.0011502 1.17063)
(-0.00591353 0.00115569 1.171)
(-0.00419559 0.00116077 1.17132)
(-0.00244797 0.00115472 1.17157)
(-0.000687712 0.00115368 1.17174)
(0.00108473 0.00114595 1.17184)
(0.00285227 0.00113823 1.17188)
(0.00458307 0.00113263 1.17186)
(0.00629966 0.00113276 1.17174)
(0.007998 0.00111417 1.17159)
(0.00966097 0.00111093 1.17131)
(0.0113219 0.00104344 1.17094)
(-0.0109013 0.002714 1.1698)
(-0.00924929 0.00287193 1.17031)
(-0.00759603 0.00290895 1.17081)
(-0.00590441 0.00292177 1.17117)
(-0.00419031 0.00292636 1.1715)
(-0.00244789 0.00291801 1.17175)
(-0.000691858 0.00291725 1.17191)
(0.00107712 0.00290907 1.17202)
(0.00284352 0.00290024 1.17206)
(0.00457393 0.00289892 1.17203)
(0.00629153 0.00289667 1.17192)
(0.0079912 0.00287535 1.17176)
(0.00965629 0.00285773 1.17146)
(0.0113283 0.00272416 1.17117)
(-0.0109037 0.0044373 1.16993)
(-0.00924554 0.00461008 1.17035)
(-0.00761041 0.00467216 1.1709)
(-0.00592079 0.00467695 1.17128)
(-0.00420525 0.00468031 1.17161)
(-0.00246109 0.0046672 1.17186)
(-0.000703313 0.00466599 1.17203)
(0.00106842 0.00465578 1.17214)
(0.00284119 0.00464485 1.17218)
(0.00457967 0.00464841 1.17215)
(0.00630683 0.00464358 1.17202)
(0.0080132 0.0046325 1.17185)
(0.00967279 0.0045814 1.17149)
(0.0113519 0.00443767 1.1713)
(-0.0108699 0.0062104 1.16993)
(-0.00922192 0.00632629 1.17031)
(-0.00759697 0.00642965 1.17089)
(-0.00591487 0.0064086 1.17129)
(-0.0041987 0.00640849 1.17163)
(-0.00245811 0.00638745 1.17189)
(-0.00070405 0.0063845 1.17206)
(0.00106376 0.00637102 1.17216)
(0.00283508 0.00635897 1.1722)
(0.00457242 0.00636935 1.17216)
(0.00630071 0.00636359 1.17201)
(0.00800611 0.00637539 1.17181)
(0.00966317 0.00627554 1.17142)
(0.0113383 0.00618154 1.17127)
(-0.0109503 0.00800214 1.16977)
(-0.00929246 0.00798376 1.17019)
(-0.00765757 0.0081517 1.17082)
(-0.00595467 0.00808883 1.17124)
(-0.00422367 0.00809553 1.17161)
(-0.00247651 0.00807202 1.17187)
(-0.000723314 0.00807179 1.17204)
(0.00104182 0.0080539 1.17215)
(0.002814 0.00803409 1.17219)
(0.00456449 0.00804285 1.17214)
(0.00631708 0.00802652 1.17195)
(0.00805356 0.00807154 1.17172)
(0.00973542 0.00790082 1.17128)
(0.0114348 0.00791574 1.17108)
(-0.0106432 0.00977295 1.16959)
(-0.00908012 0.00962385 1.17001)
(-0.00748846 0.00983554 1.17053)
(-0.00587349 0.00973668 1.17101)
(-0.00419454 0.00974169 1.17141)
(-0.00248234 0.00971504 1.17173)
(-0.00073624 0.00971331 1.17192)
(0.00102852 0.00969348 1.17201)
(0.00279141 0.00967325 1.17202)
(0.00451138 0.009681 1.17191)
(0.00621358 0.00966062 1.1717)
(0.0078843 0.0097339 1.17141)
(0.00952047 0.00951277 1.17106)
(0.0111514 0.0096361 1.1709)
(-0.0109395 0.011548 1.16969)
(-0.0091909 0.0112959 1.17002)
(-0.00746585 0.0115831 1.1705)
(-0.00576081 0.0114332 1.171)
(-0.00405787 0.0114323 1.17135)
(-0.00238385 0.0113885 1.17155)
(-0.00072451 0.0113702 1.17166)
(0.000945534 0.011343 1.17176)
(0.00263937 0.0113264 1.17186)
(0.00434349 0.0113392 1.17187)
(0.00609209 0.0113103 1.17169)
(0.0078566 0.0114148 1.17137)
(0.00961958 0.0111301 1.17106)
(0.0113815 0.011325 1.17095)
(-0.00898599 -0.00841692 0.960783)
(-0.00730358 -0.00812319 0.961183)
(-0.00586799 -0.00842928 0.961829)
(-0.00441698 -0.00829746 0.962359)
(-0.00299661 -0.00829701 0.962753)
(-0.00159751 -0.00824824 0.962999)
(-0.000197447 -0.00822835 0.96312)
(0.00120056 -0.00823826 0.96318)
(0.00256867 -0.00826621 0.963169)
(0.00396377 -0.00832387 0.963039)
(0.00538036 -0.00833264 0.962763)
(0.00681625 -0.00845882 0.962333)
(0.00823711 -0.00812428 0.961818)
(0.00985507 -0.00844623 0.961537)
(-0.00870809 -0.00675635 0.9613)
(-0.0072296 -0.00666968 0.961676)
(-0.00594678 -0.00685619 0.96237)
(-0.00457035 -0.00679642 0.962926)
(-0.00315633 -0.00682782 0.963407)
(-0.00170696 -0.00683698 0.963757)
(-0.000224698 -0.00685409 0.963941)
(0.00126275 -0.00686349 0.963999)
(0.0027031 -0.00685342 0.96393)
(0.00413593 -0.00686006 0.963704)
(0.0055244 -0.00684238 0.963374)
(0.00686201 -0.00691217 0.962954)
(0.00813243 -0.00671647 0.962424)
(0.00956559 -0.00681044 0.962124)
(-0.00899653 -0.00534958 0.962043)
(-0.00740688 -0.00541211 0.962471)
(-0.00607773 -0.00554525 0.963265)
(-0.00461704 -0.00549642 0.96376)
(-0.00316725 -0.00550213 0.964209)
(-0.00169899 -0.00548741 0.964506)
(-0.000223511 -0.00549066 0.964669)
(0.00125251 -0.00549667 0.96473)
(0.00269049 -0.00549584 0.964686)
(0.00414924 -0.00552527 0.964519)
(0.00558128 -0.00552366 0.964224)
(0.00700204 -0.00558622 0.963865)
(0.00831807 -0.00544651 0.963231)
(0.00984562 -0.00539342 0.96289)
(-0.00884218 -0.00393295 0.96268)
(-0.00733304 -0.00405778 0.963138)
(-0.00602669 -0.0040927 0.963871)
(-0.00460487 -0.00407822 0.964347)
(-0.00317686 -0.00407685 0.964783)
(-0.00171566 -0.00407308 0.965082)
(-0.00023474 -0.00407864 0.965255)
(0.00125372 -0.00408425 0.965321)
(0.00269781 -0.00408143 0.965276)
(0.00415354 -0.00409833 0.965108)
(0.00556608 -0.00409666 0.964829)
(0.0069488 -0.00412586 0.964479)
(0.00823964 -0.00408653 0.96391)
(0.00968535 -0.00396816 0.963555)
(-0.00882206 -0.00254414 0.963189)
(-0.00735398 -0.00266835 0.96374)
(-0.00602695 -0.00266065 0.964436)
(-0.00460185 -0.002664 0.964896)
(-0.00317386 -0.00265883 0.965317)
(-0.00171354 -0.00265656 0.965605)
(-0.000235643 -0.00265909 0.965773)
(0.0012508 -0.00266332 0.96584)
(0.00269193 -0.0026617 0.9658)
(0.00414852 -0.00267539 0.965645)
(0.00556461 -0.00267167 0.965378)
(0.00695651 -0.00268595 0.965044)
(0.00827063 -0.00268458 0.964513)
(0.00968093 -0.0025599 0.964072)
(-0.00875225 -0.00117225 0.963537)
(-0.0073505 -0.00123866 0.964199)
(-0.00600452 -0.0012083 0.964836)
(-0.0045927 -0.00121633 0.965301)
(-0.00317091 -0.00120927 0.965712)
(-0.00171611 -0.00121048 0.966003)
(-0.000240161 -0.00121221 0.966172)
(0.00124628 -0.00121628 0.966242)
(0.00268646 -0.00121588 0.966203)
(0.00414071 -0.00122575 0.966049)
(0.00555399 -0.00122182 0.965788)
(0.00694076 -0.00123231 0.965451)
(0.00827259 -0.00124454 0.96497)
(0.00962866 -0.00117286 0.964418)
(-0.00871839 0.00019489 0.963778)
(-0.00736051 0.000214415 0.964509)
(-0.00599919 0.000237884 0.965124)
(-0.00459123 0.000238406 0.965597)
(-0.00316896 0.000245362 0.966002)
(-0.00171593 0.000243733 0.966291)
(-0.000241417 0.000243272 0.966459)
(0.00124362 0.000239188 0.966531)
(0.00268296 0.00023741 0.966493)
(0.00413696 0.000228222 0.966344)
(0.0055516 0.0002316 0.966086)
(0.00694115 0.000213091 0.965745)
(0.00828748 0.000213694 0.965274)
(0.00961631 0.000200441 0.96466)
(-0.00869915 0.00156873 0.963952)
(-0.00735162 0.00167748 0.964677)
(-0.00599049 0.00168875 0.965292)
(-0.0045883 0.00170402 0.965771)
(-0.00316881 0.00170968 0.966175)
(-0.00171831 0.00170802 0.966466)
(-0.000245061 0.00170854 0.966636)
(0.00123876 0.00170399 0.96671)
(0.00267823 0.00169952 0.966672)
(0.00413156 0.0016911 0.966525)
(0.00554472 0.00169272 0.966263)
(0.00693407 0.00166214 0.965925)
(0.0082821 0.00167468 0.965443)
(0.009615 0.00157453 0.964842)
(-0.00868872 0.0029619 0.964062)
(-0.00732081 0.00313803 0.964716)
(-0.00597199 0.0031476 0.965352)
(-0.00457394 0.00317386 0.965829)
(-0.00315832 0.00317676 0.966233)
(-0.0017125 0.00317355 0.966526)
(-0.000244324 0.00317395 0.966696)
(0.00123358 0.00316827 0.96677)
(0.0026697 0.0031612 0.966732)
(0.00411981 0.00315514 0.966587)
(0.00553003 0.00315414 0.96632)
(0.00691937 0.00311544 0.965987)
(0.00825903 0.00312046 0.965474)
(0.00962685 0.00295682 0.964962)
(-0.0087215 0.0043533 0.964036)
(-0.00731625 0.00454412 0.964593)
(-0.00599173 0.00457535 0.965287)
(-0.00458676 0.00459852 0.965765)
(-0.00316934 0.00460019 0.966181)
(-0.00172139 0.00459349 0.966475)
(-0.000253464 0.00459328 0.966649)
(0.00122361 0.00458489 0.966726)
(0.00266338 0.00457314 0.966688)
(0.00412015 0.00457028 0.966546)
(0.00553769 0.0045635 0.966263)
(0.00693803 0.00453014 0.965924)
(0.00826111 0.00450017 0.965345)
(0.00966935 0.00432353 0.964936)
(-0.00870594 0.00577145 0.963843)
(-0.00728295 0.00592445 0.964353)
(-0.00597817 0.00599748 0.965081)
(-0.00457826 0.00599744 0.965574)
(-0.00316202 0.00599861 0.966)
(-0.00171697 0.0059862 0.966302)
(-0.000252517 0.00598641 0.966479)
(0.00122007 0.00597472 0.966552)
(0.00265647 0.00595811 0.966511)
(0.00411008 0.00596119 0.966355)
(0.00552532 0.00594953 0.966057)
(0.00692035 0.00594082 0.965691)
(0.00822752 0.00585979 0.965081)
(0.00964947 0.00572395 0.964722)
(-0.00880482 0.00722708 0.963491)
(-0.00734144 0.00728671 0.964016)
(-0.00603403 0.00742696 0.964805)
(-0.00460349 0.00738626 0.965311)
(-0.00317231 0.00739077 0.965757)
(-0.00172375 0.00737135 0.966057)
(-0.000268544 0.00737225 0.966231)
(0.00119138 0.00735678 0.96631)
(0.00262277 0.00733575 0.966276)
(0.00408433 0.0073444 0.966119)
(0.00552277 0.00732352 0.965793)
(0.00695499 0.00735089 0.965401)
(0.00828116 0.00719307 0.964734)
(0.00974819 0.00714172 0.964353)
(-0.00849375 0.00867907 0.963066)
(-0.00714332 0.0085941 0.963561)
(-0.00589444 0.00877667 0.964255)
(-0.00455947 0.00869991 0.964819)
(-0.00317524 0.00872039 0.965312)
(-0.00174647 0.00871168 0.965669)
(-0.000281381 0.00871881 0.965858)
(0.00119636 0.00869778 0.965931)
(0.00262615 0.00866621 0.965871)
(0.00405768 0.00865656 0.965649)
(0.00544831 0.00861345 0.965287)
(0.00679848 0.00866558 0.964837)
(0.00807527 0.00845958 0.964267)
(0.0094479 0.00854303 0.963924)
(-0.00879404 0.0102789 0.962872)
(-0.00723967 0.0100251 0.963331)
(-0.0058483 0.0102847 0.963981)
(-0.00444115 0.0101344 0.964547)
(-0.00303994 0.0101242 0.964967)
(-0.00165618 0.0100625 0.965202)
(-0.000281282 0.0100381 0.965326)
(0.00110566 0.0100123 0.965412)
(0.00246194 0.0100144 0.965444)
(0.00387047 0.0100426 0.965349)
(0.00529631 0.0100113 0.965047)
(0.00673001 0.010118 0.964582)
(0.00814791 0.00983062 0.96405)
(0.00971272 0.0100692 0.963726)
(-0.00644336 -0.00569305 0.760387)
(-0.00512385 -0.00546294 0.760827)
(-0.00407408 -0.00567029 0.761457)
(-0.00301388 -0.00554432 0.761967)
(-0.00197229 -0.00552111 0.762357)
(-0.000940818 -0.00546921 0.762594)
(0.000106517 -0.0054465 0.762703)
(0.00111197 -0.00545381 0.762716)
(0.00214583 -0.00547186 0.762643)
(0.00317544 -0.00552803 0.762434)
(0.00422307 -0.00554251 0.76208)
(0.00528243 -0.00566018 0.761586)
(0.00633512 -0.00541465 0.761001)
(0.00764707 -0.0056449 0.760589)
(-0.00623091 -0.00437077 0.760873)
(-0.00508693 -0.00431169 0.761323)
(-0.00416099 -0.00442311 0.762014)
(-0.00313803 -0.0043716 0.762565)
(-0.00208926 -0.00439049 0.763034)
(-0.00101029 -0.00439517 0.76335)
(0.00010144 -0.00440298 0.763505)
(0.0011774 -0.00440272 0.763511)
(0.00227072 -0.00438317 0.763386)
(0.00333221 -0.00438287 0.763096)
(0.00436565 -0.00436295 0.762688)
(0.00536159 -0.00441755 0.762186)
(0.00628583 -0.00428996 0.761573)
(0.00741076 -0.00435752 0.761124)
(-0.00642028 -0.0033244 0.761549)
(-0.00519677 -0.00338575 0.762072)
(-0.00423244 -0.0034481 0.762828)
(-0.00314584 -0.00340155 0.763331)
(-0.00207579 -0.00339429 0.763771)
(-0.000991624 -0.00337662 0.764048)
(0.000104818 -0.00337159 0.764192)
(0.00116899 -0.00337089 0.764204)
(0.00225491 -0.00336484 0.764098)
(0.00333213 -0.00339093 0.76386)
(0.00439416 -0.00339402 0.763487)
(0.00545464 -0.0034498 0.763033)
(0.00641428 -0.00337842 0.762354)
(0.00760014 -0.00333519 0.761838)
(-0.00628357 -0.00227008 0.762108)
(-0.00514275 -0.0023606 0.762677)
(-0.00418914 -0.00235421 0.763387)
(-0.00313118 -0.00233608 0.763881)
(-0.00207597 -0.00232719 0.764312)
(-0.000996454 -0.00231924 0.764593)
(0.000103839 -0.00231653 0.764743)
(0.00117777 -0.00231568 0.76476)
(0.00226817 -0.00230807 0.764651)
(0.00334051 -0.00232115 0.764411)
(0.00438655 -0.00232108 0.764047)
(0.00541402 -0.00234853 0.763593)
(0.00635606 -0.00234833 0.76296)
(0.00744936 -0.00227916 0.762413)
(-0.00625004 -0.00124084 0.762555)
(-0.00516248 -0.00132323 0.763207)
(-0.00417982 -0.00129497 0.763879)
(-0.0031214 -0.0012902 0.764367)
(-0.0020655 -0.00127975 0.764785)
(-0.000988149 -0.00127284 0.765058)
(0.000108182 -0.00126809 0.765205)
(0.00118 -0.00126744 0.765224)
(0.00226586 -0.00126115 0.765118)
(0.00333573 -0.00127256 0.764889)
(0.00438265 -0.00127089 0.764536)
(0.00541285 -0.00128839 0.76409)
(0.00638331 -0.00130834 0.763492)
(0.00742201 -0.00124259 0.76287)
(-0.00619014 -0.000223007 0.762849)
(-0.00516302 -0.000256221 0.763576)
(-0.0041599 -0.000227828 0.76421)
(-0.00311192 -0.00022621 0.764702)
(-0.00205933 -0.000217906 0.765115)
(-0.000985643 -0.000214401 0.765391)
(0.000109519 -0.000210342 0.76554)
(0.00118089 -0.000210504 0.765562)
(0.00226532 -0.00020469 0.765455)
(0.00333161 -0.000213364 0.765227)
(0.00437468 -0.00020925 0.764877)
(0.00539688 -0.000225899 0.764426)
(0.0063835 -0.000240879 0.763858)
(0.00736487 -0.000220497 0.763164)
(-0.00616466 0.000791812 0.763028)
(-0.00516664 0.000823991 0.763791)
(-0.00415126 0.000833903 0.764415)
(-0.00310608 0.000842529 0.764913)
(-0.00205279 0.000848315 0.765321)
(-0.000980696 0.000851435 0.765596)
(0.000112933 0.000855491 0.765745)
(0.00118154 0.000854678 0.765769)
(0.0022635 0.000859091 0.765663)
(0.00332704 0.000849875 0.765439)
(0.00436778 0.000855179 0.76509)
(0.0053881 0.000830084 0.764639)
(0.0063824 0.000836646 0.764072)
(0.00734123 0.000794137 0.763343)
(-0.00616125 0.00181258 0.763114)
(-0.00515679 0.00191025 0.76386)
(-0.00414496 0.00190177 0.764491)
(-0.0031011 0.00192053 0.764987)
(-0.00204983 0.00192323 0.765397)
(-0.00097849 0.00192586 0.765673)
(0.000114825 0.0019292 0.765824)
(0.00118049 0.00192745 0.76585)
(0.00226157 0.00193012 0.765743)
(0.00332305 0.0019211 0.765522)
(0.00435842 0.00192624 0.765169)
(0.00537809 0.00189054 0.764725)
(0.00636527 0.00191271 0.764144)
(0.0073407 0.00180618 0.763438)
(-0.006176 0.00279062 0.763103)
(-0.00512912 0.00293802 0.763779)
(-0.00413181 0.00292823 0.76443)
(-0.00308782 0.00295467 0.764921)
(-0.00204013 0.00295518 0.765331)
(-0.000971204 0.0029568 0.765607)
(0.000119554 0.00295892 0.765757)
(0.00117917 0.00295525 0.765784)
(0.0022573 0.00295469 0.765678)
(0.00331498 0.00294622 0.76546)
(0.0043432 0.00294886 0.765103)
(0.00536259 0.0029068 0.764668)
(0.00632923 0.00292518 0.764059)
(0.00735739 0.0027722 0.763435)
(-0.00623056 0.00381008 0.762943)
(-0.00513155 0.00397879 0.763535)
(-0.00416014 0.00398521 0.76424)
(-0.00310207 0.00400683 0.764729)
(-0.0020504 0.00400324 0.76515)
(-0.000976723 0.00400033 0.765425)
(0.000115433 0.00400052 0.765578)
(0.00117357 0.00399569 0.765608)
(0.00225453 0.00399381 0.765504)
(0.00331861 0.00399224 0.765292)
(0.00435153 0.00399384 0.764921)
(0.00538672 0.00395964 0.764486)
(0.00632543 0.00394995 0.763814)
(0.00741013 0.00378383 0.763281)
(-0.00622468 0.00485045 0.762618)
(-0.00510063 0.00499411 0.763162)
(-0.00415602 0.00503034 0.7639)
(-0.00309878 0.0050343 0.764399)
(-0.00204749 0.00503097 0.76483)
(-0.000972731 0.00502502 0.765112)
(0.000120789 0.00502427 0.765267)
(0.00117538 0.00501567 0.765295)
(0.00225588 0.00500782 0.765188)
(0.00331704 0.00500943 0.764965)
(0.00434376 0.00500373 0.764576)
(0.00537198 0.00498896 0.764122)
(0.0062806 0.00493807 0.763421)
(0.00738835 0.00480498 0.762943)
(-0.00633585 0.00591164 0.76216)
(-0.00515343 0.00599232 0.762702)
(-0.00421078 0.00609062 0.763493)
(-0.00312121 0.00605846 0.763995)
(-0.00205589 0.00605742 0.764438)
(-0.00097794 0.00604282 0.764715)
(0.000107594 0.0060399 0.764868)
(0.00114915 0.00602988 0.764902)
(0.00222379 0.00601956 0.764807)
(0.00329214 0.00603291 0.764588)
(0.00433835 0.00601845 0.76418)
(0.00540256 0.00603921 0.76371)
(0.00632104 0.00591549 0.762959)
(0.00748708 0.00584013 0.762477)
(-0.0060891 0.00696174 0.761609)
(-0.00500922 0.00691689 0.762104)
(-0.00412593 0.00705079 0.762828)
(-0.00311292 0.00699445 0.763377)
(-0.00207977 0.00702325 0.763864)
(-0.00100424 0.00702897 0.764186)
(0.000104411 0.00703366 0.764347)
(0.00116739 0.00701765 0.764375)
(0.00225008 0.00698857 0.764261)
(0.00329517 0.00697278 0.763983)
(0.00430023 0.00692442 0.763541)
(0.00528678 0.0069611 0.763021)
(0.00615837 0.00679702 0.762349)
(0.00723056 0.00684821 0.761925)
(-0.00633253 0.00825366 0.761247)
(-0.00509052 0.00804424 0.761704)
(-0.00407997 0.00824209 0.762359)
(-0.00302485 0.00810159 0.762892)
(-0.00197978 0.00808143 0.763309)
(-0.000942935 0.0080196 0.763542)
(9.6259e-05 0.00799028 0.763659)
(0.00109053 0.00798202 0.763704)
(0.00211183 0.00799861 0.763666)
(0.00313473 0.00804748 0.763498)
(0.00416823 0.00802741 0.763125)
(0.00520862 0.00812999 0.762608)
(0.00621033 0.00788784 0.761994)
(0.00744759 0.00809174 0.761584)
(-0.00407187 -0.00328878 0.565156)
(-0.00314846 -0.00312979 0.565513)
(-0.00245042 -0.00322057 0.566011)
(-0.00176546 -0.00310974 0.566427)
(-0.00109119 -0.00307002 0.566751)
(-0.000415878 -0.0030188 0.566937)
(0.000265065 -0.00299167 0.56701)
(0.000917108 -0.00299287 0.566984)
(0.00159536 -0.00301042 0.56688)
(0.00227064 -0.00306132 0.566643)
(0.00296242 -0.00308636 0.566284)
(0.0036595 -0.0031898 0.565809)
(0.0043776 -0.00306872 0.565267)
(0.00533186 -0.00321161 0.564834)
(-0.00392311 -0.00235933 0.565496)
(-0.00313394 -0.00231508 0.565916)
(-0.00251795 -0.00234091 0.566474)
(-0.00184295 -0.00228905 0.56693)
(-0.00115926 -0.00228619 0.567313)
(-0.000448873 -0.002275 0.56755)
(0.000275926 -0.00226924 0.567654)
(0.00097334 -0.00226106 0.56762)
(0.00169253 -0.00224495 0.567468)
(0.00238968 -0.00224968 0.567171)
(0.00307535 -0.00224434 0.566766)
(0.00373416 -0.00229594 0.56627)
(0.00436801 -0.00225911 0.565716)
(0.00513333 -0.00232021 0.5652)
(-0.00399487 -0.00164836 0.565983)
(-0.00317025 -0.00168761 0.566492)
(-0.00252526 -0.00167622 0.567082)
(-0.00181302 -0.00162627 0.567505)
(-0.00112238 -0.00160426 0.567864)
(-0.000418687 -0.0015793 0.568077)
(0.000285738 -0.00156515 0.568175)
(0.000964098 -0.00155927 0.568147)
(0.00166889 -0.00155397 0.568008)
(0.00237022 -0.00158075 0.567751)
(0.0030692 -0.00159732 0.567378)
(0.00376735 -0.00165373 0.56691)
(0.00443104 -0.00165298 0.566322)
(0.00521926 -0.00164904 0.565727)
(-0.00387506 -0.000949617 0.566389)
(-0.00311902 -0.000992874 0.566943)
(-0.0024778 -0.000950576 0.567503)
(-0.00178591 -0.000920235 0.567923)
(-0.00110593 -0.000900378 0.568274)
(-0.000408546 -0.000882755 0.568486)
(0.000293419 -0.000870142 0.568587)
(0.000974827 -0.00086524 0.56856)
(0.00167735 -0.000858178 0.56842)
(0.00237037 -0.000874729 0.568163)
(0.00305322 -0.0008845 0.567796)
(0.00372357 -0.00092217 0.567326)
(0.00436941 -0.00095113 0.566757)
(0.0050826 -0.000944887 0.566138)
(-0.00383691 -0.000267776 0.566709)
(-0.00312532 -0.000301328 0.567314)
(-0.0024572 -0.000259634 0.567845)
(-0.00176757 -0.000238498 0.568262)
(-0.00108756 -0.000221227 0.568602)
(-0.000394134 -0.000207099 0.56881)
(0.000301689 -0.000194069 0.568909)
(0.000979574 -0.000190224 0.568884)
(0.00167434 -0.000182586 0.568744)
(0.00236133 -0.00019568 0.568494)
(0.00304056 -0.000200025 0.568134)
(0.00370936 -0.000230072 0.567672)
(0.00437413 -0.000260172 0.567124)
(0.00504469 -0.000255214 0.566468)
(-0.00379306 0.000407373 0.566896)
(-0.00311768 0.000405855 0.567539)
(-0.00243426 0.000429 0.56805)
(-0.00175062 0.000446233 0.568472)
(-0.0010729 0.000457503 0.568808)
(-0.000383252 0.000467015 0.569018)
(0.000307698 0.000478669 0.569119)
(0.000984037 0.000481398 0.569095)
(0.00167291 0.000490013 0.568954)
(0.00235395 0.000480956 0.568705)
(0.00302569 0.000483525 0.568345)
(0.00368715 0.000456526 0.567881)
(0.00435583 0.000443478 0.567342)
(0.00499129 0.000423868 0.566658)
(-0.00377751 0.00107063 0.566977)
(-0.00311157 0.00110771 0.567634)
(-0.00242233 0.00110381 0.568143)
(-0.00173842 0.00112011 0.568566)
(-0.00106106 0.00112459 0.5689)
(-0.000372636 0.00113064 0.569109)
(0.000314755 0.00114003 0.56921)
(0.00098978 0.00114024 0.569188)
(0.00167358 0.00114752 0.569047)
(0.00235071 0.00113944 0.568801)
(0.00301606 0.0011451 0.568441)
(0.00367541 0.00111562 0.567982)
(0.00433951 0.00112558 0.567439)
(0.00496612 0.00107228 0.566745)
(-0.00379001 0.00169263 0.566966)
(-0.00310339 0.00177189 0.5676)
(-0.00242154 0.00174689 0.56812)
(-0.00173466 0.00176684 0.568537)
(-0.00105899 0.00176616 0.568874)
(-0.000369762 0.00177002 0.569084)
(0.000317228 0.00177858 0.569185)
(0.000992672 0.00177895 0.569165)
(0.00167453 0.00178666 0.569023)
(0.0023508 0.00178131 0.568782)
(0.00300934 0.00179274 0.568416)
(0.00367074 0.00175993 0.567969)
(0.00431912 0.00179144 0.567412)
(0.00497028 0.00169892 0.566743)
(-0.00381494 0.00234672 0.566865)
(-0.00308423 0.00245699 0.567442)
(-0.00241754 0.00242041 0.56798)
(-0.00172643 0.00243686 0.568389)
(-0.00105202 0.00242914 0.568726)
(-0.000361898 0.00242851 0.568934)
(0.000324426 0.0024343 0.569034)
(0.000999419 0.00243347 0.569013)
(0.00167827 0.00244014 0.568871)
(0.00235163 0.00243937 0.568634)
(0.00300066 0.00245424 0.568264)
(0.00366246 0.0024236 0.567828)
(0.00428385 0.0024616 0.567252)
(0.00498858 0.00234146 0.566648)
(-0.00388641 0.00300074 0.566626)
(-0.00309913 0.00312187 0.56714)
(-0.00245431 0.00309813 0.567725)
(-0.00174524 0.0031057 0.56813)
(-0.00106502 0.00309329 0.568477)
(-0.000367914 0.00308678 0.568683)
(0.000321895 0.00309004 0.568787)
(0.000998813 0.00308906 0.568768)
(0.00168047 0.00309494 0.568629)
(0.00236108 0.00310255 0.568399)
(0.0030129 0.00311818 0.568018)
(0.00369355 0.00309702 0.567584)
(0.00428458 0.00311362 0.566957)
(0.00505291 0.00298755 0.566419)
(-0.00390492 0.00367002 0.566254)
(-0.00309082 0.00377367 0.566727)
(-0.00247148 0.00377029 0.567342)
(-0.00175678 0.00376267 0.567752)
(-0.00107254 0.00374988 0.568108)
(-0.000368221 0.00373923 0.568318)
(0.000327344 0.00373947 0.568422)
(0.00100864 0.00373465 0.5684)
(0.00169352 0.0037334 0.568258)
(0.00237467 0.00374327 0.568019)
(0.00301996 0.00375159 0.567622)
(0.00369568 0.00374626 0.567174)
(0.00425138 0.00373473 0.566523)
(0.00504501 0.00363802 0.566034)
(-0.00401643 0.00435494 0.565774)
(-0.00314481 0.00442168 0.566235)
(-0.00252968 0.00446908 0.566888)
(-0.00178875 0.0044325 0.567298)
(-0.00109045 0.00442015 0.56766)
(-0.000378715 0.00440097 0.567867)
(0.000316627 0.00439974 0.567971)
(0.000992262 0.00439625 0.567956)
(0.00167723 0.00439535 0.567825)
(0.00236643 0.00442086 0.567592)
(0.00302686 0.00442321 0.567182)
(0.00373078 0.0044473 0.566723)
(0.00428743 0.00437565 0.566036)
(0.00513725 0.00430957 0.565555)
(-0.00386972 0.00503633 0.565214)
(-0.00307853 0.00501452 0.565641)
(-0.00251064 0.00509741 0.566254)
(-0.00181402 0.00504412 0.566694)
(-0.00112651 0.00506324 0.567088)
(-0.000402314 0.00506168 0.567319)
(0.000319178 0.00506535 0.567425)
(0.00101905 0.00505289 0.567403)
(0.0017199 0.00502911 0.567261)
(0.00239772 0.00502386 0.566983)
(0.0030299 0.00498766 0.566545)
(0.00367226 0.00502096 0.566051)
(0.0041876 0.00491469 0.56542)
(0.00496219 0.00495121 0.565002)
(-0.00403533 0.0059834 0.564808)
(-0.00315288 0.00581032 0.565167)
(-0.00248643 0.00593149 0.565693)
(-0.00177204 0.00579976 0.566115)
(-0.00107212 0.00577319 0.566461)
(-0.000371149 0.00572034 0.566648)
(0.000310789 0.0057006 0.566731)
(0.000962466 0.00570112 0.566721)
(0.00162369 0.00572321 0.566635)
(0.00228593 0.00578663 0.56643)
(0.00294477 0.0057857 0.566051)
(0.00361407 0.00588385 0.565571)
(0.00423381 0.00571472 0.565014)
(0.00511059 0.00586876 0.564642)
(-0.00221536 -0.00151999 0.375993)
(-0.00163894 -0.00142982 0.376213)
(-0.00122218 -0.00142291 0.376542)
(-0.00084003 -0.00133523 0.37684)
(-0.000457305 -0.00128515 0.377067)
(-7.2175e-05 -0.00122851 0.377184)
(0.000285016 -0.00120374 0.377208)
(0.000661299 -0.00120747 0.377164)
(0.00103937 -0.00122742 0.377053)
(0.0014168 -0.00127481 0.376826)
(0.00181489 -0.00130965 0.376506)
(0.00220947 -0.00139145 0.376099)
(0.00265202 -0.00138682 0.375659)
(0.00326969 -0.00147087 0.375282)
(-0.00211906 -0.000962157 0.376148)
(-0.00163631 -0.000923913 0.376464)
(-0.00125912 -0.000878158 0.376839)
(-0.00087214 -0.000828312 0.377161)
(-0.000489182 -0.00080405 0.377426)
(-9.22078e-05 -0.000774344 0.377571)
(0.000294902 -0.000759792 0.377612)
(0.000695229 -0.000752915 0.377558)
(0.00109266 -0.000745423 0.377409)
(0.00147888 -0.000758201 0.377142)
(0.00187472 -0.000773237 0.376792)
(0.00225548 -0.000824162 0.376365)
(0.00266872 -0.000872859 0.37593)
(0.00310398 -0.000945345 0.375454)
(-0.00209324 -0.000536865 0.376419)
(-0.00161706 -0.000546059 0.376821)
(-0.00121785 -0.000481994 0.377203)
(-0.000810904 -0.000432777 0.377498)
(-0.000430896 -0.0003955 0.377739)
(-5.46392e-05 -0.000367384 0.37787)
(0.00031193 -0.000349942 0.377909)
(0.00068494 -0.000343456 0.377859)
(0.00106032 -0.000342578 0.377719)
(0.0014418 -0.000367056 0.377481)
(0.00184273 -0.000397494 0.37716)
(0.00224027 -0.0004527 0.37675)
(0.00267628 -0.000511782 0.376302)
(0.00310434 -0.000543433 0.375756)
(-0.00199358 -0.000128078 0.376645)
(-0.00156294 -0.000133487 0.377076)
(-0.00117094 -7.2684e-05 0.377443)
(-0.000778758 -3.76005e-05 0.377735)
(-0.000404992 -1.2229e-06 0.377962)
(-3.82314e-05 1.64661e-05 0.378088)
(0.000325934 3.46447e-05 0.378124)
(0.000695702 4.2429e-05 0.378073)
(0.00106485 4.38398e-05 0.377933)
(0.00143566 2.61159e-05 0.3777)
(0.00181943 4.96709e-06 0.377386)
(0.00219359 -3.78139e-05 0.376981)
(0.00259985 -9.31877e-05 0.376533)
(0.00298264 -0.000120308 0.375981)
(-0.00195495 0.000268383 0.376815)
(-0.00154487 0.000266621 0.377263)
(-0.00113743 0.000312685 0.377609)
(-0.000751183 0.000338172 0.3779)
(-0.000377919 0.000370416 0.378115)
(-1.93264e-05 0.000381203 0.37824)
(0.000337813 0.000398633 0.378274)
(0.000699136 0.000406695 0.378223)
(0.00105676 0.000408919 0.378083)
(0.00141622 0.000394502 0.377854)
(0.00179118 0.000381448 0.377546)
(0.0021638 0.000347362 0.377152)
(0.00257578 0.000305897 0.376715)
(0.00295049 0.00028849 0.376158)
(-0.00192389 0.000641008 0.376881)
(-0.00152751 0.000652114 0.377344)
(-0.00111196 0.000676336 0.377682)
(-0.000731357 0.000697996 0.377975)
(-0.000359357 0.000722273 0.378184)
(-6.04214e-06 0.000730524 0.37831)
(0.000347631 0.000745219 0.378344)
(0.000704114 0.000753787 0.378293)
(0.00105453 0.000757805 0.378151)
(0.00140671 0.000746257 0.377924)
(0.0017717 0.000741472 0.377616)
(0.00213982 0.000711733 0.377226)