/*--------------------------------*- C++ -*----------------------------------*\
| =========                 |                                                 |
| \\      /  F ield         | OpenFOAM: The Open Source CFD Toolbox           |
|  \\    /   O peration     | Version:  v2106                                 |
|   \\  /    A nd           | Website:  www.openfoam.com                      |
|    \\/     M anipulation  |                                                 |
\*---------------------------------------------------------------------------*/
FoamFile
{
    version     2.0;
    format      ascii;
    arch        "LSB;label=32;scalar=64";
    class       volScalarField;
    location    "0.000193";
    object      rho;
}
// * * * * * * * * * * * * * * * * * * * * * * * * * * * * * * * * * * * * * //

dimensions      [1 -3 0 0 0 0 0];

internalField   nonuniform List<scalar> 
17920
(
2.66369
2.66381
2.66361
2.66371
2.66353
2.66363
2.66345
2.66355
2.66337
2.66347
2.6633
2.66339
2.66322
2.66331
2.66315
2.66324
2.66308
2.66317
2.66301
2.66311
2.66295
2.66305
2.66288
2.66299
2.66282
2.66294
2.66276
2.66289
2.65485
2.65495
2.65505
2.65515
2.65525
2.65536
2.65548
2.6556
2.65573
2.65586
2.65599
2.65613
2.65627
2.65643
2.65488
2.65498
2.65508
2.65518
2.65529
2.6554
2.65552
2.65565
2.65577
2.65591
2.65604
2.65618
2.65631
2.65646
2.65492
2.65502
2.65512
2.65522
2.65533
2.65545
2.65557
2.65569
2.65581
2.65594
2.65607
2.65621
2.65634
2.65649
2.65496
2.65506
2.65516
2.65526
2.65538
2.65549
2.65561
2.65573
2.65586
2.65599
2.65612
2.65625
2.65638
2.65652
2.655
2.65509
2.6552
2.65531
2.65542
2.65554
2.65566
2.65578
2.6559
2.65603
2.65616
2.65629
2.65642
2.65656
2.65503
2.65513
2.65524
2.65535
2.65546
2.65558
2.6557
2.65582
2.65595
2.65608
2.6562
2.65633
2.65646
2.65659
2.65507
2.65517
2.65528
2.65539
2.65551
2.65563
2.65575
2.65587
2.656
2.65612
2.65625
2.65638
2.6565
2.65663
2.65511
2.65521
2.65532
2.65544
2.65555
2.65567
2.65579
2.65592
2.65604
2.65617
2.6563
2.65642
2.65655
2.65667
2.65515
2.65525
2.65536
2.65548
2.6556
2.65572
2.65584
2.65597
2.65609
2.65622
2.65634
2.65647
2.6566
2.65672
2.65519
2.6553
2.65541
2.65553
2.65564
2.65577
2.65589
2.65601
2.65614
2.65626
2.65639
2.65652
2.65665
2.65676
2.65523
2.65534
2.65545
2.65557
2.65569
2.65581
2.65594
2.65606
2.65619
2.65632
2.65644
2.65657
2.6567
2.65681
2.65528
2.65539
2.6555
2.65562
2.65574
2.65586
2.65599
2.65612
2.65624
2.65637
2.6565
2.65662
2.65675
2.65687
2.65532
2.65543
2.65554
2.65567
2.65579
2.65591
2.65604
2.65617
2.6563
2.65643
2.65656
2.65668
2.65681
2.65694
2.65538
2.6555
2.65561
2.65573
2.65585
2.65597
2.6561
2.65622
2.65635
2.65648
2.6566
2.65673
2.65687
2.65701
2.64749
2.64756
2.64764
2.64773
2.64782
2.64791
2.64801
2.64811
2.64821
2.64832
2.64844
2.64856
2.64868
2.64882
2.64757
2.64764
2.64773
2.64781
2.64791
2.648
2.6481
2.64821
2.64832
2.64843
2.64855
2.64867
2.64879
2.64893
2.64767
2.64774
2.64782
2.64791
2.64801
2.6481
2.6482
2.64831
2.64841
2.64853
2.64864
2.64876
2.64889
2.64902
2.64776
2.64783
2.64792
2.64801
2.6481
2.6482
2.6483
2.64841
2.64852
2.64863
2.64875
2.64887
2.64899
2.64913
2.64786
2.64794
2.64802
2.64811
2.64821
2.64831
2.64841
2.64851
2.64862
2.64873
2.64885
2.64897
2.64909
2.64922
2.64796
2.64804
2.64813
2.64822
2.64831
2.64841
2.64851
2.64862
2.64873
2.64884
2.64896
2.64908
2.6492
2.64933
2.64806
2.64815
2.64824
2.64833
2.64842
2.64852
2.64862
2.64873
2.64884
2.64895
2.64907
2.64918
2.64931
2.64943
2.64817
2.64826
2.64835
2.64844
2.64853
2.64863
2.64873
2.64884
2.64895
2.64906
2.64918
2.6493
2.64942
2.64953
2.64828
2.64837
2.64846
2.64855
2.64865
2.64875
2.64885
2.64896
2.64906
2.64918
2.64929
2.64941
2.64953
2.64964
2.6484
2.64849
2.64857
2.64867
2.64876
2.64886
2.64897
2.64907
2.64918
2.64929
2.64941
2.64952
2.64964
2.64975
2.64851
2.6486
2.64869
2.64879
2.64888
2.64898
2.64909
2.64919
2.6493
2.64942
2.64953
2.64964
2.64976
2.64986
2.64863
2.64872
2.64881
2.64891
2.649
2.64911
2.64921
2.64932
2.64943
2.64954
2.64965
2.64976
2.64988
2.64998
2.64874
2.64884
2.64893
2.64903
2.64913
2.64923
2.64934
2.64945
2.64956
2.64967
2.64978
2.64989
2.65
2.6501
2.64887
2.64897
2.64906
2.64916
2.64926
2.64936
2.64947
2.64957
2.64968
2.64979
2.64989
2.65001
2.65012
2.65024
2.64053
2.64057
2.64063
2.64068
2.64074
2.6408
2.64086
2.64092
2.64099
2.64105
2.64112
2.6412
2.64128
2.64137
2.64063
2.64066
2.64072
2.64077
2.64083
2.64089
2.64095
2.64102
2.64109
2.64116
2.64124
2.64132
2.6414
2.64149
2.64073
2.64076
2.64082
2.64087
2.64093
2.64099
2.64105
2.64112
2.64119
2.64126
2.64134
2.64142
2.6415
2.6416
2.64083
2.64087
2.64092
2.64097
2.64103
2.64109
2.64116
2.64122
2.6413
2.64137
2.64145
2.64153
2.64162
2.64171
2.64093
2.64097
2.64103
2.64108
2.64114
2.6412
2.64126
2.64133
2.6414
2.64148
2.64156
2.64164
2.64173
2.64182
2.64105
2.64109
2.64114
2.64119
2.64125
2.64131
2.64138
2.64145
2.64152
2.64159
2.64167
2.64176
2.64184
2.64193
2.64116
2.64121
2.64126
2.64131
2.64137
2.64143
2.64149
2.64156
2.64163
2.64171
2.64179
2.64187
2.64196
2.64205
2.64129
2.64133
2.64138
2.64144
2.64149
2.64155
2.64162
2.64168
2.64176
2.64183
2.64191
2.64199
2.64208
2.64216
2.64141
2.64146
2.64151
2.64156
2.64162
2.64168
2.64174
2.64181
2.64188
2.64196
2.64204
2.64211
2.6422
2.64228
2.64154
2.64159
2.64164
2.64169
2.64175
2.64181
2.64187
2.64194
2.64201
2.64208
2.64216
2.64224
2.64232
2.64239
2.64167
2.64172
2.64177
2.64182
2.64188
2.64194
2.642
2.64207
2.64214
2.64222
2.64229
2.64237
2.64245
2.64251
2.6418
2.64185
2.6419
2.64196
2.64201
2.64208
2.64214
2.64221
2.64228
2.64235
2.64242
2.6425
2.64257
2.64264
2.64193
2.64198
2.64203
2.64209
2.64215
2.64221
2.64228
2.64235
2.64242
2.64249
2.64256
2.64263
2.6427
2.64276
2.64207
2.64212
2.64217
2.64223
2.64229
2.64236
2.64242
2.64249
2.64255
2.64262
2.64269
2.64276
2.64283
2.64291
2.63408
2.6341
2.63412
2.63414
2.63416
2.63419
2.63421
2.63424
2.63426
2.63429
2.63432
2.63435
2.63438
2.63441
2.63416
2.63417
2.63419
2.63421
2.63423
2.63426
2.63428
2.63431
2.63434
2.63437
2.6344
2.63443
2.63446
2.6345
2.63423
2.63424
2.63426
2.63428
2.63431
2.63433
2.63436
2.63438
2.63441
2.63444
2.63448
2.63451
2.63454
2.63458
2.63431
2.63432
2.63434
2.63436
2.63438
2.63441
2.63443
2.63446
2.63449
2.63452
2.63456
2.63459
2.63463
2.63467
2.63439
2.6344
2.63442
2.63444
2.63447
2.63449
2.63452
2.63454
2.63457
2.63461
2.63464
2.63468
2.63471
2.63476
2.63448
2.63449
2.63451
2.63453
2.63455
2.63458
2.6346
2.63463
2.63466
2.63469
2.63473
2.63476
2.6348
2.63484
2.63457
2.63458
2.6346
2.63462
2.63464
2.63467
2.63469
2.63472
2.63475
2.63478
2.63482
2.63485
2.63489
2.63493
2.63466
2.63468
2.63469
2.63471
2.63473
2.63476
2.63478
2.63481
2.63484
2.63487
2.63491
2.63494
2.63498
2.63502
2.63476
2.63477
2.63479
2.63481
2.63483
2.63485
2.63488
2.63491
2.63494
2.63497
2.635
2.63504
2.63507
2.63511
2.63485
2.63487
2.63489
2.63491
2.63493
2.63495
2.63498
2.635
2.63503
2.63506
2.6351
2.63513
2.63517
2.6352
2.63495
2.63497
2.63499
2.63501
2.63503
2.63505
2.63508
2.6351
2.63513
2.63516
2.63519
2.63523
2.63526
2.63529
2.63505
2.63508
2.63509
2.63511
2.63513
2.63515
2.63518
2.6352
2.63523
2.63526
2.63529
2.63532
2.63535
2.63538
2.63515
2.63517
2.63519
2.63521
2.63523
2.63526
2.63528
2.63531
2.63533
2.63536
2.63539
2.63542
2.63545
2.63547
2.63526
2.63528
2.6353
2.63532
2.63534
2.63536
2.63538
2.63541
2.63543
2.63546
2.63549
2.63551
2.63554
2.63556
2.62816
2.62815
2.62815
2.62815
2.62816
2.62816
2.62816
2.62816
2.62815
2.62815
2.62815
2.62814
2.62813
2.62813
2.6282
2.6282
2.6282
2.6282
2.6282
2.6282
2.6282
2.6282
2.6282
2.6282
2.62819
2.62819
2.62818
2.62818
2.62825
2.62825
2.62825
2.62825
2.62825
2.62825
2.62825
2.62824
2.62824
2.62824
2.62824
2.62823
2.62823
2.62823
2.6283
2.62829
2.62829
2.62829
2.62829
2.62829
2.62829
2.62829
2.62829
2.62829
2.62828
2.62828
2.62828
2.62827
2.62834
2.62834
2.62834
2.62834
2.62834
2.62834
2.62834
2.62834
2.62834
2.62834
2.62833
2.62833
2.62832
2.62832
2.62839
2.62839
2.62839
2.62839
2.62839
2.62839
2.62839
2.62839
2.62839
2.62838
2.62838
2.62838
2.62837
2.62837
2.62844
2.62844
2.62844
2.62844
2.62844
2.62844
2.62844
2.62844
2.62844
2.62843
2.62843
2.62843
2.62842
2.62842
2.62849
2.62849
2.62849
2.62849
2.62849
2.62849
2.62849
2.62849
2.62848
2.62848
2.62848
2.62847
2.62847
2.62847
2.62854
2.62854
2.62854
2.62854
2.62854
2.62854
2.62854
2.62854
2.62853
2.62853
2.62853
2.62852
2.62852
2.62851
2.62859
2.62859
2.62859
2.62859
2.62859
2.62859
2.62859
2.62858
2.62858
2.62858
2.62857
2.62857
2.62857
2.62856
2.62863
2.62864
2.62864
2.62864
2.62864
2.62864
2.62863
2.62863
2.62863
2.62863
2.62862
2.62862
2.62861
2.62861
2.62868
2.62869
2.62869
2.62869
2.62869
2.62868
2.62868
2.62868
2.62867
2.62867
2.62867
2.62866
2.62866
2.62865
2.62874
2.62874
2.62874
2.62874
2.62874
2.62873
2.62873
2.62872
2.62872
2.62872
2.62871
2.62871
2.6287
2.62869
2.62879
2.62879
2.62879
2.62878
2.62878
2.62878
2.62877
2.62877
2.62876
2.62876
2.62875
2.62875
2.62874
2.62873
2.62269
2.62269
2.62268
2.62268
2.62267
2.62266
2.62265
2.62264
2.62263
2.62261
2.62259
2.62257
2.62254
2.62251
2.62272
2.62272
2.62271
2.62271
2.6227
2.62269
2.62268
2.62267
2.62265
2.62263
2.62261
2.62258
2.62256
2.62253
2.62275
2.62274
2.62274
2.62273
2.62273
2.62272
2.62271
2.62269
2.62268
2.62266
2.62263
2.62261
2.62258
2.62255
2.62277
2.62277
2.62276
2.62276
2.62275
2.62274
2.62273
2.62272
2.6227
2.62268
2.62265
2.62263
2.6226
2.62257
2.62279
2.62279
2.62279
2.62278
2.62277
2.62277
2.62275
2.62274
2.62272
2.6227
2.62267
2.62265
2.62262
2.62259
2.62281
2.62281
2.6228
2.6228
2.62279
2.62278
2.62277
2.62276
2.62274
2.62272
2.62269
2.62267
2.62264
2.6226
2.62282
2.62282
2.62282
2.62282
2.62281
2.6228
2.62279
2.62277
2.62275
2.62273
2.62271
2.62268
2.62265
2.62262
2.62284
2.62284
2.62284
2.62283
2.62282
2.62281
2.6228
2.62279
2.62277
2.62275
2.62272
2.62269
2.62267
2.62264
2.62285
2.62285
2.62285
2.62284
2.62283
2.62283
2.62281
2.6228
2.62278
2.62276
2.62273
2.62271
2.62268
2.62265
2.62285
2.62286
2.62285
2.62285
2.62284
2.62283
2.62282
2.6228
2.62278
2.62276
2.62274
2.62271
2.62269
2.62266
2.62286
2.62286
2.62286
2.62286
2.62285
2.62284
2.62282
2.62281
2.62279
2.62277
2.62274
2.62272
2.62269
2.62266
2.62286
2.62287
2.62286
2.62286
2.62285
2.62284
2.62283
2.62281
2.62279
2.62277
2.62274
2.62272
2.62269
2.62267
2.62287
2.62287
2.62287
2.62286
2.62285
2.62284
2.62282
2.62281
2.62279
2.62277
2.62274
2.62272
2.6227
2.62267
2.62287
2.62287
2.62287
2.62286
2.62285
2.62284
2.62282
2.6228
2.62278
2.62276
2.62274
2.62272
2.62269
2.62267
2.61763
2.61763
2.61763
2.61763
2.61763
2.61762
2.61761
2.6176
2.61758
2.61756
2.61753
2.61751
2.61747
2.61743
2.61765
2.61765
2.61765
2.61765
2.61765
2.61764
2.61763
2.61761
2.6176
2.61757
2.61755
2.61752
2.61748
2.61744
2.61766
2.61767
2.61767
2.61767
2.61767
2.61766
2.61765
2.61763
2.61761
2.61759
2.61756
2.61753
2.61749
2.61745
2.61767
2.61768
2.61768
2.61768
2.61768
2.61767
2.61766
2.61764
2.61762
2.6176
2.61757
2.61754
2.6175
2.61746
2.61768
2.61769
2.61769
2.61769
2.61769
2.61768
2.61767
2.61765
2.61763
2.61761
2.61758
2.61754
2.6175
2.61746
2.61768
2.61769
2.61769
2.61769
2.61769
2.61768
2.61767
2.61765
2.61763
2.61761
2.61758
2.61754
2.61751
2.61746
2.61768
2.61769
2.61769
2.61769
2.61769
2.61768
2.61767
2.61765
2.61763
2.61761
2.61758
2.61754
2.6175
2.61746
2.61767
2.61768
2.61769
2.61769
2.61768
2.61768
2.61766
2.61765
2.61763
2.6176
2.61757
2.61754
2.6175
2.61746
2.61766
2.61767
2.61768
2.61768
2.61767
2.61766
2.61765
2.61764
2.61761
2.61759
2.61756
2.61753
2.61749
2.61745
2.61765
2.61766
2.61766
2.61766
2.61766
2.61765
2.61764
2.61762
2.6176
2.61757
2.61754
2.61751
2.61748
2.61744
2.61763
2.61764
2.61764
2.61764
2.61764
2.61763
2.61762
2.6176
2.61758
2.61755
2.61753
2.61749
2.61746
2.61742
2.61761
2.61762
2.61762
2.61762
2.61762
2.61761
2.61759
2.61758
2.61755
2.61753
2.6175
2.61747
2.61744
2.6174
2.61759
2.61759
2.6176
2.6176
2.61759
2.61758
2.61756
2.61755
2.61753
2.6175
2.61747
2.61744
2.61741
2.61738
2.61756
2.61756
2.61757
2.61756
2.61756
2.61755
2.61753
2.61752
2.6175
2.61747
2.61745
2.61742
2.61739
2.61736
2.61291
2.61292
2.61293
2.61294
2.61294
2.61294
2.61294
2.61293
2.61291
2.6129
2.61288
2.61285
2.61282
2.61278
2.61293
2.61294
2.61295
2.61296
2.61296
2.61296
2.61296
2.61295
2.61293
2.61291
2.61289
2.61286
2.61283
2.61279
2.61294
2.61296
2.61297
2.61297
2.61298
2.61298
2.61297
2.61296
2.61295
2.61293
2.6129
2.61287
2.61284
2.6128
2.61295
2.61297
2.61298
2.61298
2.61299
2.61299
2.61298
2.61297
2.61296
2.61294
2.61291
2.61288
2.61285
2.61281
2.61295
2.61297
2.61298
2.61299
2.61299
2.61299
2.61299
2.61298
2.61296
2.61294
2.61291
2.61289
2.61285
2.61281
2.61295
2.61297
2.61298
2.61299
2.61299
2.61299
2.61299
2.61298
2.61296
2.61294
2.61291
2.61288
2.61285
2.61281
2.61295
2.61296
2.61298
2.61298
2.61299
2.61299
2.61298
2.61297
2.61295
2.61293
2.61291
2.61288
2.61284
2.6128
2.61293
2.61295
2.61297
2.61297
2.61298
2.61298
2.61297
2.61296
2.61294
2.61292
2.6129
2.61287
2.61283
2.61279
2.61292
2.61294
2.61295
2.61296
2.61296
2.61296
2.61296
2.61294
2.61293
2.61291
2.61288
2.61285
2.61282
2.61278
2.6129
2.61292
2.61293
2.61294
2.61294
2.61294
2.61293
2.61292
2.61291
2.61289
2.61286
2.61283
2.6128
2.61276
2.61288
2.61289
2.6129
2.61291
2.61292
2.61291
2.61291
2.6129
2.61288
2.61286
2.61284
2.61281
2.61278
2.61274
2.61285
2.61286
2.61287
2.61288
2.61289
2.61288
2.61288
2.61287
2.61285
2.61283
2.61281
2.61278
2.61275
2.61272
2.61282
2.61283
2.61284
2.61285
2.61285
2.61285
2.61284
2.61283
2.61282
2.6128
2.61277
2.61275
2.61272
2.61268
2.61278
2.61279
2.6128
2.61281
2.61281
2.61281
2.6128
2.61279
2.61278
2.61276
2.61274
2.61271
2.61268
2.61265
2.60852
2.60854
2.60855
2.60857
2.60858
2.60858
2.60858
2.60858
2.60857
2.60856
2.60854
2.60852
2.6085
2.60847
2.60854
2.60856
2.60857
2.60859
2.6086
2.6086
2.6086
2.6086
2.60859
2.60858
2.60856
2.60854
2.60852
2.60849
2.60855
2.60857
2.60859
2.60861
2.60862
2.60862
2.60862
2.60862
2.60861
2.6086
2.60858
2.60856
2.60853
2.6085
2.60856
2.60859
2.6086
2.60862
2.60863
2.60863
2.60863
2.60863
2.60862
2.60861
2.60859
2.60857
2.60854
2.60851
2.60857
2.60859
2.60861
2.60863
2.60864
2.60864
2.60864
2.60864
2.60863
2.60862
2.6086
2.60858
2.60855
2.60852
2.60857
2.60859
2.60861
2.60863
2.60864
2.60864
2.60865
2.60864
2.60863
2.60862
2.6086
2.60858
2.60855
2.60852
2.60857
2.60859
2.60861
2.60863
2.60864
2.60864
2.60864
2.60864
2.60863
2.60862
2.6086
2.60858
2.60855
2.60852
2.60856
2.60858
2.6086
2.60862
2.60863
2.60864
2.60864
2.60863
2.60862
2.60861
2.60859
2.60857
2.60854
2.60851
2.60855
2.60857
2.60859
2.60861
2.60862
2.60862
2.60863
2.60862
2.60861
2.6086
2.60858
2.60856
2.60853
2.6085
2.60853
2.60856
2.60858
2.60859
2.6086
2.60861
2.60861
2.60861
2.6086
2.60858
2.60856
2.60854
2.60851
2.60848
2.60852
2.60854
2.60856
2.60857
2.60858
2.60859
2.60859
2.60858
2.60858
2.60856
2.60854
2.60852
2.60849
2.60846
2.60849
2.60851
2.60853
2.60854
2.60855
2.60856
2.60856
2.60856
2.60855
2.60854
2.60852
2.6085
2.60847
2.60844
2.60846
2.60848
2.6085
2.60851
2.60852
2.60853
2.60853
2.60853
2.60852
2.6085
2.60849
2.60847
2.60844
2.60841
2.60843
2.60845
2.60846
2.60848
2.60849
2.60849
2.60849
2.60849
2.60848
2.60847
2.60845
2.60843
2.60841
2.60838
2.60444
2.60446
2.60448
2.6045
2.60451
2.60451
2.60452
2.60452
2.60451
2.60451
2.6045
2.60448
2.60446
2.60444
2.60446
2.60448
2.6045
2.60452
2.60453
2.60454
2.60454
2.60454
2.60454
2.60453
2.60452
2.6045
2.60448
2.60446
2.60447
2.6045
2.60452
2.60454
2.60455
2.60456
2.60456
2.60456
2.60456
2.60455
2.60454
2.60452
2.6045
2.60448
2.60449
2.60451
2.60453
2.60455
2.60456
2.60457
2.60458
2.60458
2.60457
2.60456
2.60455
2.60454
2.60452
2.60449
2.6045
2.60452
2.60454
2.60456
2.60457
2.60458
2.60459
2.60459
2.60458
2.60458
2.60456
2.60455
2.60453
2.6045
2.6045
2.60453
2.60455
2.60457
2.60458
2.60459
2.60459
2.60459
2.60459
2.60458
2.60457
2.60455
2.60453
2.60451
2.6045
2.60453
2.60455
2.60457
2.60458
2.60459
2.6046
2.6046
2.60459
2.60458
2.60457
2.60456
2.60453
2.60451
2.6045
2.60453
2.60455
2.60457
2.60458
2.60459
2.60459
2.6046
2.60459
2.60458
2.60457
2.60455
2.60453
2.60451
2.6045
2.60452
2.60454
2.60456
2.60457
2.60458
2.60459
2.60459
2.60459
2.60458
2.60456
2.60455
2.60453
2.6045
2.60449
2.60451
2.60453
2.60455
2.60456
2.60457
2.60458
2.60458
2.60458
2.60457
2.60455
2.60454
2.60452
2.60449
2.60447
2.6045
2.60452
2.60454
2.60455
2.60456
2.60456
2.60456
2.60456
2.60455
2.60454
2.60452
2.6045
2.60448
2.60445
2.60448
2.6045
2.60452
2.60453
2.60454
2.60455
2.60455
2.60454
2.60453
2.60452
2.60451
2.60448
2.60446
2.60443
2.60445
2.60447
2.60449
2.60451
2.60452
2.60452
2.60452
2.60452
2.60451
2.6045
2.60448
2.60446
2.60444
2.60441
2.60443
2.60445
2.60447
2.60448
2.60449
2.60449
2.6045
2.60449
2.60449
2.60448
2.60446
2.60444
2.60442
2.60065
2.60067
2.60069
2.6007
2.60071
2.60072
2.60072
2.60072
2.60072
2.60071
2.6007
2.60069
2.60068
2.60067
2.60066
2.60068
2.6007
2.60072
2.60073
2.60073
2.60074
2.60074
2.60074
2.60073
2.60072
2.60071
2.6007
2.60069
2.60068
2.6007
2.60072
2.60073
2.60074
2.60075
2.60076
2.60076
2.60076
2.60075
2.60074
2.60073
2.60072
2.60071
2.60069
2.60071
2.60073
2.60074
2.60076
2.60076
2.60077
2.60077
2.60077
2.60076
2.60076
2.60075
2.60073
2.60072
2.6007
2.60072
2.60074
2.60075
2.60077
2.60077
2.60078
2.60078
2.60078
2.60078
2.60077
2.60076
2.60074
2.60073
2.60071
2.60073
2.60075
2.60076
2.60077
2.60078
2.60079
2.60079
2.60079
2.60078
2.60077
2.60076
2.60075
2.60073
2.60071
2.60073
2.60075
2.60077
2.60078
2.60079
2.60079
2.60079
2.60079
2.60079
2.60078
2.60077
2.60075
2.60074
2.60071
2.60073
2.60075
2.60077
2.60078
2.60079
2.60079
2.60079
2.60079
2.60079
2.60078
2.60077
2.60076
2.60074
2.60071
2.60073
2.60075
2.60076
2.60078
2.60078
2.60079
2.60079
2.60079
2.60079
2.60078
2.60077
2.60075
2.60073
2.60071
2.60073
2.60074
2.60076
2.60077
2.60078
2.60078
2.60079
2.60079
2.60078
2.60077
2.60076
2.60075
2.60073
2.6007
2.60072
2.60073
2.60075
2.60076
2.60077
2.60078
2.60078
2.60078
2.60077
2.60076
2.60075
2.60074
2.60072
2.60068
2.6007
2.60072
2.60074
2.60075
2.60076
2.60076
2.60077
2.60077
2.60076
2.60075
2.60074
2.60073
2.60071
2.60067
2.60069
2.6007
2.60072
2.60073
2.60074
2.60075
2.60075
2.60075
2.60075
2.60074
2.60073
2.60071
2.60069
2.60065
2.60067
2.60069
2.6007
2.60072
2.60073
2.60073
2.60074
2.60074
2.60073
2.60072
2.60071
2.6007
2.60068
2.59712
2.59714
2.59715
2.59716
2.59716
2.59716
2.59717
2.59717
2.59716
2.59716
2.59715
2.59715
2.59714
2.59713
2.59713
2.59714
2.59715
2.59716
2.59717
2.59717
2.59718
2.59718
2.59717
2.59717
2.59717
2.59716
2.59715
2.59715
2.59714
2.59715
2.59716
2.59717
2.59718
2.59718
2.59718
2.59718
2.59718
2.59718
2.59718
2.59717
2.59717
2.59716
2.59715
2.59716
2.59717
2.59718
2.59718
2.59719
2.59719
2.59719
2.59719
2.59719
2.59719
2.59718
2.59717
2.59717
2.59715
2.59717
2.59718
2.59718
2.59719
2.59719
2.5972
2.5972
2.5972
2.5972
2.59719
2.59719
2.59718
2.59718
2.59716
2.59717
2.59718
2.59719
2.59719
2.5972
2.5972
2.5972
2.5972
2.5972
2.5972
2.59719
2.59719
2.59718
2.59716
2.59717
2.59718
2.59719
2.5972
2.5972
2.5972
2.5972
2.5972
2.5972
2.5972
2.59719
2.59719
2.59718
2.59716
2.59717
2.59718
2.59719
2.5972
2.5972
2.5972
2.59721
2.59721
2.5972
2.5972
2.59719
2.59719
2.59718
2.59716
2.59717
2.59718
2.59719
2.5972
2.5972
2.5972
2.5972
2.5972
2.5972
2.5972
2.59719
2.59719
2.59718
2.59716
2.59717
2.59718
2.59719
2.59719
2.5972
2.5972
2.5972
2.5972
2.5972
2.5972
2.59719
2.59718
2.59717
2.59716
2.59716
2.59717
2.59718
2.59719
2.59719
2.5972
2.5972
2.5972
2.5972
2.59719
2.59719
2.59718
2.59717
2.59715
2.59716
2.59717
2.59718
2.59718
2.59719
2.59719
2.59719
2.59719
2.59719
2.59719
2.59718
2.59717
2.59716
2.59714
2.59715
2.59716
2.59717
2.59718
2.59718
2.59719
2.59719
2.59719
2.59719
2.59718
2.59717
2.59717
2.59716
2.59713
2.59714
2.59715
2.59716
2.59717
2.59717
2.59718
2.59718
2.59718
2.59718
2.59718
2.59717
2.59716
2.59715
2.59385
2.59385
2.59385
2.59385
2.59385
2.59385
2.59385
2.59385
2.59385
2.59384
2.59384
2.59384
2.59384
2.59384
2.59384
2.59385
2.59385
2.59385
2.59385
2.59385
2.59385
2.59385
2.59384
2.59384
2.59384
2.59384
2.59384
2.59385
2.59384
2.59384
2.59384
2.59384
2.59384
2.59384
2.59384
2.59384
2.59384
2.59384
2.59384
2.59384
2.59384
2.59385
2.59384
2.59384
2.59384
2.59384
2.59384
2.59384
2.59384
2.59384
2.59384
2.59384
2.59384
2.59384
2.59385
2.59385
2.59384
2.59384
2.59384
2.59384
2.59384
2.59384
2.59384
2.59384
2.59384
2.59384
2.59384
2.59384
2.59385
2.59385
2.59384
2.59384
2.59384
2.59384
2.59384
2.59384
2.59384
2.59384
2.59384
2.59384
2.59384
2.59384
2.59384
2.59385
2.59384
2.59384
2.59384
2.59384
2.59384
2.59384
2.59384
2.59384
2.59384
2.59384
2.59384
2.59384
2.59384
2.59385
2.59384
2.59384
2.59384
2.59384
2.59384
2.59384
2.59384
2.59384
2.59384
2.59384
2.59384
2.59384
2.59384
2.59384
2.59384
2.59384
2.59384
2.59384
2.59384
2.59384
2.59384
2.59384
2.59384
2.59384
2.59384
2.59384
2.59384
2.59384
2.59384
2.59384
2.59384
2.59384
2.59384
2.59384
2.59384
2.59384
2.59384
2.59384
2.59384
2.59384
2.59384
2.59384
2.59384
2.59384
2.59384
2.59384
2.59384
2.59384
2.59384
2.59384
2.59384
2.59384
2.59384
2.59384
2.59384
2.59384
2.59384
2.59384
2.59384
2.59384
2.59384
2.59384
2.59384
2.59384
2.59384
2.59384
2.59384
2.59384
2.59384
2.59384
2.59384
2.59384
2.59384
2.59384
2.59384
2.59384
2.59384
2.59384
2.59384
2.59384
2.59384
2.59384
2.59384
2.59384
2.59384
2.59384
2.59384
2.59384
2.59384
2.59384
2.59384
2.59384
2.59384
2.59384
2.59384
2.59384
2.59384
2.59384
2.59081
2.5908
2.59079
2.59078
2.59078
2.59077
2.59077
2.59077
2.59077
2.59077
2.59078
2.59078
2.59079
2.5908
2.5908
2.59079
2.59078
2.59077
2.59077
2.59076
2.59076
2.59076
2.59076
2.59076
2.59076
2.59077
2.59078
2.59078
2.59079
2.59078
2.59077
2.59076
2.59076
2.59075
2.59075
2.59075
2.59075
2.59075
2.59075
2.59076
2.59077
2.59078
2.59078
2.59077
2.59076
2.59075
2.59075
2.59074
2.59074
2.59074
2.59074
2.59074
2.59075
2.59075
2.59076
2.59077
2.59077
2.59076
2.59075
2.59075
2.59074
2.59074
2.59073
2.59073
2.59073
2.59074
2.59074
2.59075
2.59075
2.59076
2.59077
2.59076
2.59075
2.59074
2.59073
2.59073
2.59073
2.59073
2.59073
2.59073
2.59073
2.59074
2.59075
2.59076
2.59076
2.59075
2.59074
2.59074
2.59073
2.59073
2.59072
2.59072
2.59072
2.59073
2.59073
2.59074
2.59074
2.59075
2.59076
2.59075
2.59074
2.59073
2.59073
2.59072
2.59072
2.59072
2.59072
2.59072
2.59073
2.59073
2.59074
2.59075
2.59076
2.59075
2.59074
2.59073
2.59073
2.59072
2.59072
2.59072
2.59072
2.59072
2.59073
2.59073
2.59074
2.59075
2.59076
2.59075
2.59074
2.59073
2.59073
2.59072
2.59072
2.59072
2.59072
2.59072
2.59073
2.59073
2.59074
2.59075
2.59076
2.59075
2.59074
2.59074
2.59073
2.59073
2.59072
2.59072
2.59072
2.59073
2.59073
2.59074
2.59074
2.59075
2.59077
2.59076
2.59075
2.59074
2.59074
2.59073
2.59073
2.59073
2.59073
2.59073
2.59074
2.59074
2.59075
2.59076
2.59078
2.59076
2.59076
2.59075
2.59074
2.59074
2.59074
2.59074
2.59074
2.59074
2.59074
2.59075
2.59075
2.59076
2.59078
2.59077
2.59076
2.59076
2.59075
2.59075
2.59074
2.59074
2.59074
2.59075
2.59075
2.59075
2.59076
2.59077
2.588
2.58798
2.58797
2.58796
2.58795
2.58795
2.58795
2.58795
2.58795
2.58795
2.58796
2.58796
2.58797
2.58798
2.58798
2.58797
2.58796
2.58795
2.58794
2.58793
2.58793
2.58793
2.58793
2.58794
2.58794
2.58795
2.58796
2.58797
2.58797
2.58796
2.58794
2.58793
2.58793
2.58792
2.58792
2.58792
2.58792
2.58792
2.58793
2.58793
2.58794
2.58795
2.58796
2.58795
2.58793
2.58792
2.58791
2.58791
2.58791
2.5879
2.58791
2.58791
2.58791
2.58792
2.58793
2.58794
2.58795
2.58794
2.58792
2.58791
2.5879
2.5879
2.5879
2.58789
2.5879
2.5879
2.5879
2.58791
2.58792
2.58793
2.58794
2.58793
2.58792
2.58791
2.5879
2.58789
2.58789
2.58789
2.58789
2.58789
2.5879
2.5879
2.58791
2.58793
2.58794
2.58792
2.58791
2.5879
2.58789
2.58789
2.58788
2.58788
2.58788
2.58789
2.58789
2.5879
2.58791
2.58792
2.58794
2.58792
2.58791
2.5879
2.58789
2.58788
2.58788
2.58788
2.58788
2.58788
2.58789
2.5879
2.58791
2.58792
2.58793
2.58792
2.58791
2.5879
2.58789
2.58788
2.58788
2.58788
2.58788
2.58788
2.58789
2.5879
2.58791
2.58792
2.58794
2.58792
2.58791
2.5879
2.58789
2.58789
2.58788
2.58788
2.58788
2.58788
2.58789
2.5879
2.58791
2.58792
2.58794
2.58793
2.58791
2.5879
2.5879
2.58789
2.58789
2.58788
2.58789
2.58789
2.58789
2.5879
2.58791
2.58792
2.58795
2.58793
2.58792
2.58791
2.5879
2.5879
2.58789
2.58789
2.58789
2.58789
2.5879
2.58791
2.58792
2.58793
2.58796
2.58794
2.58793
2.58792
2.58791
2.58791
2.5879
2.5879
2.5879
2.5879
2.58791
2.58792
2.58793
2.58794
2.58797
2.58795
2.58794
2.58793
2.58792
2.58792
2.58791
2.58791
2.58791
2.58791
2.58792
2.58792
2.58793
2.58795
2.58541
2.5854
2.58538
2.58538
2.58537
2.58537
2.58536
2.58536
2.58536
2.58537
2.58537
2.58538
2.58539
2.58539
2.5854
2.58539
2.58537
2.58537
2.58536
2.58535
2.58535
2.58535
2.58535
2.58535
2.58536
2.58536
2.58537
2.58538
2.58539
2.58537
2.58536
2.58535
2.58535
2.58534
2.58534
2.58534
2.58534
2.58534
2.58535
2.58535
2.58536
2.58537
2.58538
2.58537
2.58535
2.58535
2.58534
2.58533
2.58533
2.58533
2.58533
2.58533
2.58534
2.58534
2.58535
2.58536
2.58537
2.58536
2.58535
2.58534
2.58533
2.58532
2.58532
2.58532
2.58532
2.58532
2.58533
2.58533
2.58534
2.58535
2.58536
2.58535
2.58534
2.58533
2.58532
2.58532
2.58532
2.58531
2.58531
2.58532
2.58532
2.58533
2.58533
2.58534
2.58536
2.58535
2.58533
2.58533
2.58532
2.58531
2.58531
2.58531
2.58531
2.58531
2.58532
2.58532
2.58533
2.58534
2.58535
2.58534
2.58533
2.58532
2.58532
2.58531
2.58531
2.58531
2.58531
2.58531
2.58531
2.58532
2.58533
2.58534
2.58535
2.58534
2.58533
2.58532
2.58532
2.58531
2.58531
2.58531
2.58531
2.58531
2.58531
2.58532
2.58533
2.58534
2.58535
2.58534
2.58533
2.58532
2.58532
2.58531
2.58531
2.58531
2.58531
2.58531
2.58531
2.58532
2.58533
2.58534
2.58536
2.58535
2.58534
2.58533
2.58532
2.58532
2.58531
2.58531
2.58531
2.58531
2.58532
2.58532
2.58533
2.58534
2.58536
2.58535
2.58534
2.58533
2.58533
2.58532
2.58532
2.58532
2.58532
2.58532
2.58532
2.58533
2.58534
2.58535
2.58537
2.58536
2.58535
2.58534
2.58533
2.58533
2.58532
2.58532
2.58532
2.58532
2.58533
2.58533
2.58534
2.58535
2.58538
2.58537
2.58536
2.58535
2.58534
2.58534
2.58533
2.58533
2.58533
2.58533
2.58533
2.58534
2.58535
2.58536
2.583
2.583
2.583
2.58299
2.58299
2.58299
2.58299
2.58298
2.58298
2.58299
2.58299
2.58299
2.58299
2.58299
2.583
2.583
2.58299
2.58299
2.58298
2.58298
2.58298
2.58298
2.58298
2.58298
2.58298
2.58298
2.58298
2.58298
2.583
2.58299
2.58299
2.58298
2.58298
2.58298
2.58298
2.58297
2.58297
2.58297
2.58297
2.58298
2.58298
2.58298
2.58299
2.58299
2.58298
2.58298
2.58298
2.58297
2.58297
2.58297
2.58297
2.58297
2.58297
2.58297
2.58297
2.58297
2.58299
2.58298
2.58298
2.58297
2.58297
2.58297
2.58297
2.58297
2.58296
2.58297
2.58297
2.58297
2.58297
2.58297
2.58298
2.58298
2.58297
2.58297
2.58297
2.58296
2.58296
2.58296
2.58296
2.58296
2.58296
2.58296
2.58296
2.58296
2.58298
2.58297
2.58297
2.58297
2.58296
2.58296
2.58296
2.58296
2.58296
2.58296
2.58296
2.58296
2.58296
2.58296
2.58298
2.58297
2.58297
2.58297
2.58296
2.58296
2.58296
2.58296
2.58296
2.58296
2.58296
2.58296
2.58296
2.58296
2.58297
2.58297
2.58297
2.58296
2.58296
2.58296
2.58296
2.58295
2.58295
2.58295
2.58296
2.58296
2.58296
2.58296
2.58297
2.58297
2.58297
2.58296
2.58296
2.58296
2.58296
2.58295
2.58295
2.58295
2.58295
2.58296
2.58296
2.58296
2.58297
2.58297
2.58297
2.58296
2.58296
2.58296
2.58295
2.58295
2.58295
2.58295
2.58295
2.58295
2.58296
2.58296
2.58297
2.58297
2.58297
2.58296
2.58296
2.58296
2.58295
2.58295
2.58295
2.58295
2.58295
2.58295
2.58296
2.58296
2.58298
2.58297
2.58297
2.58297
2.58296
2.58296
2.58296
2.58295
2.58295
2.58295
2.58295
2.58295
2.58296
2.58296
2.58298
2.58297
2.58297
2.58297
2.58296
2.58296
2.58296
2.58295
2.58295
2.58295
2.58295
2.58295
2.58296
2.58296
2.58074
2.58074
2.58075
2.58075
2.58075
2.58075
2.58075
2.58075
2.58075
2.58074
2.58074
2.58074
2.58073
2.58072
2.58074
2.58075
2.58075
2.58075
2.58075
2.58075
2.58075
2.58075
2.58075
2.58075
2.58074
2.58074
2.58073
2.58073
2.58074
2.58075
2.58075
2.58075
2.58076
2.58076
2.58076
2.58076
2.58075
2.58075
2.58075
2.58074
2.58074
2.58073
2.58074
2.58075
2.58075
2.58076
2.58076
2.58076
2.58076
2.58076
2.58076
2.58075
2.58075
2.58074
2.58074
2.58073
2.58075
2.58075
2.58075
2.58076
2.58076
2.58076
2.58076
2.58076
2.58076
2.58075
2.58075
2.58074
2.58074
2.58073
2.58075
2.58075
2.58075
2.58076
2.58076
2.58076
2.58076
2.58076
2.58076
2.58075
2.58075
2.58074
2.58074
2.58073
2.58074
2.58075
2.58075
2.58076
2.58076
2.58076
2.58076
2.58076
2.58076
2.58075
2.58075
2.58074
2.58074
2.58073
2.58074
2.58075
2.58075
2.58075
2.58076
2.58076
2.58076
2.58076
2.58075
2.58075
2.58075
2.58074
2.58073
2.58073
2.58074
2.58074
2.58075
2.58075
2.58075
2.58075
2.58075
2.58075
2.58075
2.58075
2.58074
2.58074
2.58073
2.58072
2.58074
2.58074
2.58074
2.58075
2.58075
2.58075
2.58075
2.58075
2.58075
2.58074
2.58074
2.58073
2.58073
2.58072
2.58073
2.58074
2.58074
2.58074
2.58074
2.58074
2.58074
2.58074
2.58074
2.58074
2.58073
2.58073
2.58072
2.58072
2.58073
2.58073
2.58073
2.58074
2.58074
2.58074
2.58074
2.58074
2.58073
2.58073
2.58073
2.58072
2.58072
2.58071
2.58072
2.58072
2.58073
2.58073
2.58073
2.58073
2.58073
2.58073
2.58073
2.58072
2.58072
2.58072
2.58071
2.5807
2.58071
2.58072
2.58072
2.58072
2.58072
2.58072
2.58072
2.58072
2.58072
2.58071
2.58071
2.58071
2.5807
2.5807
2.6638
2.66394
2.66408
2.66423
2.66438
2.66453
2.66392
2.66406
2.66417
2.66431
2.66444
2.66458
2.65479
2.65469
2.65461
2.65453
2.65446
2.65439
2.65489
2.65478
2.6547
2.65461
2.65454
2.65446
2.65497
2.65487
2.65479
2.6547
2.65463
2.65455
2.65508
2.65498
2.65489
2.65481
2.65473
2.65466
2.65518
2.65509
2.65501
2.65493
2.65485
2.65478
2.6553
2.65521
2.65514
2.65506
2.65499
2.65491
2.65542
2.65535
2.65528
2.65521
2.65515
2.65507
2.65555
2.6555
2.65544
2.65538
2.65532
2.65525
2.65569
2.65565
2.65561
2.65557
2.65552
2.65546
2.65583
2.65581
2.65579
2.65576
2.65573
2.65569
2.65597
2.65598
2.65597
2.65597
2.65596
2.65594
2.65612
2.65614
2.65616
2.65618
2.6562
2.6562
2.65627
2.65631
2.65635
2.65639
2.65643
2.65647
2.65644
2.65649
2.65654
2.6566
2.65666
2.65672
2.64739
2.64726
2.64715
2.64703
2.64693
2.64682
2.64747
2.64732
2.6472
2.64708
2.64697
2.64685
2.64753
2.64739
2.64726
2.64713
2.64702
2.6469
2.64761