/*--------------------------------*- C++ -*----------------------------------*\
| =========                 |                                                 |
| \\      /  F ield         | OpenFOAM: The Open Source CFD Toolbox           |
|  \\    /   O peration     | Version:  v2106                                 |
|   \\  /    A nd           | Website:  www.openfoam.com                      |
|    \\/     M anipulation  |                                                 |
\*---------------------------------------------------------------------------*/
FoamFile
{
    version     2.0;
    format      ascii;
    arch        "LSB;label=32;scalar=64";
    class       volScalarField;
    location    "0.000156";
    object      alphat;
}
// * * * * * * * * * * * * * * * * * * * * * * * * * * * * * * * * * * * * * //

dimensions      [1 -1 -1 0 0 0 0];

internalField   nonuniform List<scalar> 
144746
(
8.30035e-05
6.876e-05
5.43401e-05
3.92695e-05
2.68682e-05
1.96885e-05
1.8719e-05
2.30304e-05
3.21149e-05
4.51438e-05
6.02444e-05
7.32491e-05
8.03377e-05
8.33324e-05
8.81226e-05
7.23979e-05
5.43268e-05
3.48035e-05
1.98217e-05
1.15992e-05
9.04888e-06
1.0963e-05
1.7056e-05
2.68093e-05
3.89217e-05
5.07074e-05
5.87234e-05
6.33832e-05
9.27396e-05
7.20975e-05
4.84812e-05
2.59938e-05
1.20205e-05
5.57596e-06
3.48811e-06
4.28068e-06
7.98195e-06
1.47871e-05
2.39079e-05
3.33238e-05
4.08278e-05
4.64374e-05
9.123e-05
6.28142e-05
3.53492e-05
1.48522e-05
5.42619e-06
1.98552e-06
9.91436e-07
1.35682e-06
3.23856e-06
7.25009e-06
1.34078e-05
2.04368e-05
2.69616e-05
3.32679e-05
8.16584e-05
4.77719e-05
2.14058e-05
7.15663e-06
2.62921e-06
9.21806e-07
3.73793e-07
4.98582e-07
1.34993e-06
3.43275e-06
7.20673e-06
1.25189e-05
1.89907e-05
2.70017e-05
6.76827e-05
3.39225e-05
1.34e-05
5.85343e-06
2.85604e-06
1.13574e-06
4.91392e-07
4.88232e-07
9.64206e-07
2.224e-06
4.84754e-06
9.49201e-06
1.67712e-05
2.70634e-05
5.50143e-05
2.63597e-05
1.3038e-05
8.09588e-06
4.48767e-06
2.0959e-06
1.14345e-06
1.14697e-06
1.76255e-06
3.24797e-06
6.2625e-06
1.17984e-05
2.07354e-05
3.34749e-05
4.70331e-05
2.59257e-05
1.80227e-05
1.27711e-05
8.02563e-06
4.37139e-06
2.74177e-06
2.83578e-06
4.06955e-06
6.63039e-06
1.11899e-05
1.87061e-05
2.97944e-05
4.4928e-05
4.52034e-05
3.08996e-05
2.63345e-05
2.06479e-05
1.45743e-05
8.99975e-06
5.94689e-06
5.95646e-06
8.17402e-06
1.23242e-05
1.88266e-05
2.84319e-05
4.15937e-05
5.88808e-05
4.75812e-05
3.98766e-05
3.80797e-05
3.28747e-05
2.5831e-05
1.79002e-05
1.20186e-05
1.07432e-05
1.35381e-05
1.90512e-05
2.70889e-05
3.83147e-05
5.32356e-05
7.21568e-05
5.21025e-05
4.91375e-05
5.14992e-05
5.01457e-05
4.35777e-05
3.38666e-05
2.3843e-05
1.86774e-05
1.99482e-05
2.55465e-05
3.41662e-05
4.63617e-05
6.2031e-05
8.03514e-05
5.9004e-05
5.91868e-05
6.51682e-05
6.94724e-05
6.65562e-05
5.75188e-05
4.505e-05
3.46902e-05
3.06666e-05
3.30956e-05
3.99558e-05
5.12125e-05
6.57105e-05
8.32692e-05
6.77824e-05
6.87427e-05
7.66946e-05
8.57418e-05
8.96842e-05
8.46179e-05
7.29755e-05
5.95712e-05
4.93875e-05
4.55274e-05
4.76485e-05
5.57231e-05
6.77566e-05
8.42567e-05
7.95876e-05
8.04546e-05
8.79881e-05
9.77857e-05
0.000106504
0.000107378
9.96462e-05
8.70127e-05
7.38379e-05
6.43456e-05
6.08204e-05
6.4307e-05
7.32974e-05
8.80645e-05
6.80695e-05
5.63045e-05
4.52196e-05
3.40727e-05
2.6216e-05
2.35137e-05
2.66321e-05
3.40367e-05
4.40502e-05
5.51533e-05
6.5738e-05
7.25637e-05
7.37574e-05
7.23475e-05
7.32065e-05
5.87363e-05
4.37663e-05
2.85998e-05
1.73681e-05
1.1854e-05
1.16915e-05
1.58646e-05
2.34582e-05
3.30538e-05
4.30357e-05
5.08494e-05
5.41984e-05
5.55164e-05
7.8376e-05
5.90859e-05
3.92606e-05
2.12482e-05
1.01265e-05
5.07942e-06
4.03779e-06
6.00834e-06
1.09064e-05
1.83663e-05
2.69262e-05
3.4372e-05
3.9179e-05
4.31762e-05
7.90809e-05
5.30059e-05
2.94833e-05
1.23614e-05
4.47196e-06
1.63746e-06
1.04425e-06
1.88725e-06
4.43932e-06
9.1191e-06
1.5488e-05
2.19001e-05
2.76905e-05
3.4618e-05
7.44093e-05
4.2656e-05
1.87171e-05
6.21769e-06
2.10582e-06
6.89927e-07
3.42401e-07
6.61074e-07
1.82881e-06
4.36806e-06
8.57645e-06
1.42742e-05
2.18171e-05
3.26179e-05
6.64374e-05
3.2593e-05
1.22194e-05
4.97835e-06
2.2111e-06
8.27964e-07
3.9349e-07
5.1484e-07
1.17669e-06
2.80133e-06
6.11251e-06
1.21156e-05
2.20952e-05
3.69408e-05
5.85314e-05
2.65753e-05
1.18505e-05
6.74188e-06
3.50654e-06
1.60952e-06
9.64562e-07
1.12288e-06
1.96048e-06
3.9589e-06
8.1044e-06
1.5858e-05
2.86249e-05
4.68271e-05
5.34194e-05
2.61411e-05
1.61255e-05
1.06676e-05
6.47988e-06
3.58007e-06
2.47125e-06
2.84015e-06
4.41872e-06
7.71404e-06
1.37497e-05
2.37961e-05
3.87071e-05
5.89287e-05
5.1942e-05
3.046e-05
2.33562e-05
1.74487e-05
1.21314e-05
7.72423e-06
5.59139e-06
6.10297e-06
8.78333e-06
1.37286e-05
2.15754e-05
3.31184e-05
4.88493e-05
6.95377e-05
5.38736e-05
3.85885e-05
3.3571e-05
2.80138e-05
2.19733e-05
1.58419e-05
1.15585e-05
1.11204e-05
1.4358e-05
2.04108e-05
2.91096e-05
4.10351e-05
5.6663e-05
7.67805e-05
5.70938e-05
4.6793e-05
4.52958e-05
4.2837e-05
3.74781e-05
3.05796e-05
2.3294e-05
1.95571e-05
2.10973e-05
2.6818e-05
3.5191e-05
4.67109e-05
6.12277e-05
7.88291e-05
6.18257e-05
5.54806e-05
5.73173e-05
5.99986e-05
5.84188e-05
5.29012e-05
4.45986e-05
3.67752e-05
3.33108e-05
3.53935e-05
4.10557e-05
5.03885e-05
6.20608e-05
7.71994e-05
6.71411e-05
6.2811e-05
6.70056e-05
7.43472e-05
7.93367e-05
7.83448e-05
7.27067e-05
6.40168e-05
5.55569e-05
5.10939e-05
5.11404e-05
5.60808e-05
6.3753e-05
7.62915e-05
7.46363e-05
7.16818e-05
7.64629e-05
8.55751e-05
9.58948e-05
0.000101565
0.000100411
9.42097e-05
8.47804e-05
7.52254e-05
6.88617e-05
6.79726e-05
7.12494e-05
8.03085e-05
5.7424e-05
4.7041e-05
3.91183e-05
3.21893e-05
2.96064e-05
3.21384e-05
3.88668e-05
4.63856e-05
5.20532e-05
5.53859e-05
5.78883e-05
5.92976e-05
5.89265e-05
5.78115e-05
5.80399e-05
4.45096e-05
3.29834e-05
2.26756e-05
1.59989e-05
1.40072e-05
1.65954e-05
2.19966e-05
2.82813e-05
3.40092e-05
3.92822e-05
4.30636e-05
4.46813e-05
4.64879e-05
5.85794e-05
4.20841e-05
2.73755e-05
1.54419e-05
8.09783e-06
4.98686e-06
5.24042e-06
8.01298e-06
1.27646e-05
1.87264e-05
2.51705e-05
3.06374e-05
3.4675e-05
3.9876e-05
5.73952e-05
3.7224e-05
2.02009e-05
8.67193e-06
3.23964e-06
1.32478e-06
1.1787e-06
2.31566e-06
4.93389e-06
9.18066e-06
1.4826e-05
2.05106e-05
2.67232e-05
3.61683e-05
5.59367e-05
3.17041e-05
1.3621e-05
4.60044e-06
1.46588e-06
4.53243e-07
2.86028e-07
6.85758e-07
1.871e-06
4.30845e-06
8.31893e-06
1.42472e-05
2.34931e-05
3.83021e-05
5.5034e-05
2.71341e-05
9.91094e-06
3.83752e-06
1.49064e-06
4.99939e-07
2.48622e-07
4.10222e-07
1.06549e-06
2.70389e-06
6.2681e-06
1.33893e-05
2.63354e-05
4.6226e-05
5.50257e-05
2.48126e-05
1.00814e-05
5.06917e-06
2.34032e-06
1.00061e-06
6.26519e-07
8.2821e-07
1.64956e-06
3.73857e-06
8.43984e-06
1.7896e-05
3.40672e-05
5.68091e-05
5.72562e-05
2.56884e-05
1.3522e-05
7.96063e-06
4.43546e-06
2.37865e-06
1.7467e-06
2.18917e-06
3.68697e-06
7.01488e-06
1.35731e-05
2.50824e-05
4.2458e-05
6.51001e-05
5.87104e-05
3.01771e-05
1.92619e-05
1.29875e-05
8.57696e-06
5.44747e-06
4.23368e-06
4.97513e-06
7.47918e-06
1.22574e-05
2.0198e-05
3.21605e-05
4.83312e-05
6.82456e-05
6.00925e-05
3.74907e-05
2.73089e-05
2.09047e-05
1.58262e-05
1.15821e-05
9.14473e-06
9.51946e-06
1.2607e-05
1.82376e-05
2.64142e-05
3.74359e-05
5.12261e-05
6.76006e-05
6.18307e-05
4.43067e-05
3.70645e-05
3.18378e-05
2.71466e-05
2.27375e-05
1.8808e-05
1.73159e-05
1.92814e-05
2.45013e-05
3.17861e-05
4.13491e-05
5.27409e-05
6.62194e-05
6.51899e-05
5.23503e-05
4.80966e-05
4.58776e-05
4.30371e-05
3.98794e-05
3.61824e-05
3.26164e-05
3.12827e-05
3.38391e-05
3.8654e-05
4.59056e-05
5.37688e-05
6.44874e-05
6.86617e-05
5.91864e-05
5.73295e-05
5.84417e-05
5.97825e-05
5.99859e-05
5.96916e-05
5.74333e-05
5.36614e-05
5.10395e-05
5.05607e-05
5.33752e-05
5.73194e-05
6.56241e-05
7.43204e-05
6.7911e-05
6.70637e-05
6.96933e-05
7.47651e-05
7.94266e-05
8.30612e-05
8.44584e-05
8.1968e-05
7.63285e-05
7.04603e-05
6.7619e-05
6.70912e-05
7.14003e-05
8.77693e-05
0.000104605
0.000132897
0.000187331
0.000298376
0.000103395
6.82908e-05
8.28041e-05
0.000108623
0.000165354
0.000294365
0.000114891
5.19226e-05
6.464e-05
8.79432e-05
0.000143249
0.00028977
0.000125401
4.06094e-05
5.37984e-05
7.62005e-05
0.000127515
0.000277913
0.000134731
3.68254e-05
5.18619e-05
7.53566e-05
0.00012288
0.000265466
0.000142912
3.98336e-05
5.79958e-05
8.4681e-05
0.000129314
0.000251722
0.00014942
4.90512e-05
7.06629e-05
0.00010093
0.000143068
0.000239038
0.000154229
6.24122e-05
8.65711e-05
0.000118994
0.000159209
0.000227727
0.000157742
7.63607e-05
0.000100832
0.000133084
0.000172398
0.000219545
0.000161429
8.73371e-05
0.000109797
0.000140413
0.000179832
0.000217282
0.000165153
9.33614e-05
0.000112886
0.000141925
0.000182579
0.000228135
0.000165098
9.49721e-05
0.00011183
0.000139519
0.000182499
0.0002506
0.000159807
9.4448e-05
0.000109521
0.000136577
0.000183422
0.000277265
0.000147709
9.54153e-05
0.000111003
0.000139989
0.00019241
0.000304127
0.000126002
7.36518e-05
8.66808e-05
0.000108656
0.000152614
0.000243748
0.000119238
5.88276e-05
7.06771e-05
9.10419e-05
0.000132903
0.000221088
0.000129794
4.89645e-05
6.13413e-05
8.17194e-05
0.000120866
0.000208692
0.000138918
4.45327e-05
6.02925e-05
8.34597e-05
0.0001213
0.000200234
0.000147739
4.71504e-05
6.77044e-05
9.60279e-05
0.00013444
0.000200038
0.00015591
5.60773e-05
8.27383e-05
0.000117662
0.000156624
0.000203807
0.000162659
6.94243e-05
0.000101032
0.000140914
0.000180193
0.000210012
0.000168065
8.26661e-05
0.000115806
0.00015709
0.000199101
0.000218311
0.000173529
9.08646e-05
0.000121504
0.000160953
0.000209009
0.000231306
0.000180139
9.31106e-05
0.000118153
0.000152884
0.000205562
0.000247415
0.000186409
9.09446e-05
0.000109655
0.00013876
0.000190003
0.000261589
0.000188202
8.66942e-05
0.000100853
0.000125135
0.000172266
0.000269374
0.000182001
8.39288e-05
9.59336e-05
0.00011779
0.000161896
0.000270405
0.000166153
8.56648e-05
9.84222e-05
0.000121477
0.000165079
0.000271049
0.000139983
5.88085e-05
6.7828e-05
8.0973e-05
0.00010584
0.000152171
0.000120657
5.0752e-05
6.11963e-05
7.63279e-05
0.00010238
0.000148066
0.00013183
4.82783e-05
6.19907e-05
8.05769e-05
0.000109273
0.000154955
0.000144486
5.05204e-05
6.99159e-05
9.45411e-05
0.000127907
0.000172814
0.000160295
5.88234e-05
8.53284e-05
0.000117892
0.000156745
0.000197299
0.000178532
7.19352e-05
0.000105359
0.000145282
0.000187952
0.000220753
0.000196077
8.47555e-05
0.000121808
0.000165183
0.000209298
0.000236969
0.000210222
9.16517e-05
0.000126839
0.000168071
0.000213804
0.00024237
0.000219653
8.96007e-05
0.000118101
0.000153307
0.000201893
0.00023722
0.000223176
8.19396e-05
0.00010199
0.000128499
0.000175755
0.000227954
0.000218463
7.48812e-05
8.69898e-05
0.000105525
0.000144138
0.000212492
0.000205236
7.01791e-05
7.81929e-05
9.19184e-05
0.000121937
0.000194556
0.000186362
6.99274e-05
7.70264e-05
8.95704e-05
0.000115866
0.000182654
0.000162964
7.43869e-05
8.31301e-05
9.76681e-05
0.000124289
0.000180141
0.000137225
9.88942e-05
0.000120727
0.00015537
0.000215531
0.000321124
0.000102216
8.57044e-05
0.000107207
0.000140758
0.000200915
0.000309689
0.000113385
7.88721e-05
0.000100731
0.000132905
0.000190009
0.000297036
0.000124041
7.90131e-05
0.000102064
0.000133183
0.000185081
0.000282283
0.000132943
8.60803e-05
0.000110107
0.000139853
0.000186306
0.000270114
0.000139561
9.71765e-05
0.000120396
0.000147666
0.000188891
0.000259441
0.000145321
0.000107657
0.000127467
0.000151552
0.000188809
0.000250996
0.00015202
0.000113421
0.000128538
0.000150214
0.000186061
0.000245974
0.00016056
0.000113128
0.000124573
0.000145174
0.000181816
0.000245885
0.000170418
0.000108923
0.000118437
0.000138495
0.000175426
0.000249469
0.000179292
0.000102037
0.00011099
0.000130625
0.000169207
0.000260677
0.000181919
9.38898e-05
0.000103322
0.000123146
0.000165683
0.000278238
0.000177551
8.73729e-05
9.82009e-05
0.000120065
0.00016908
0.000303612
0.000164961
8.56766e-05
9.93102e-05
0.000126429
0.000185741
0.000338142
0.000141572
9.2453e-05
0.000111195
0.00013831
0.0001838
0.000266854
0.000120684
8.62535e-05
0.000106167
0.000133262
0.0001743
0.000243909
0.000134077
8.63938e-05
0.000109081
0.000137504
0.000175078
0.000232747
0.000147054
9.23442e-05
0.000118495
0.000148561
0.000183233
0.000227133
0.000157881
0.000102653
0.000130715
0.000160885
0.000193385
0.000226843
0.000168072
0.000112703
0.000139486
0.00016767
0.000199379
0.000227853
0.00017923
0.000117886
0.000139875
0.000164387
0.000197932
0.000232985
0.000191072
0.000116302
0.000131544
0.000152017
0.000189416
0.000241096
0.000202739
0.00010906
0.000118769
0.000136049
0.000174942
0.000247154
0.000212328
9.9198e-05
0.000106188
0.000121645
0.000158318
0.000246111
0.000217402
8.88827e-05
9.53913e-05
0.00011016
0.000145396
0.000243713
0.000214737
8.05586e-05
8.77401e-05
0.000103105
0.000139534
0.000245629
0.00020317
7.6739e-05
8.56014e-05
0.000103336
0.00014326
0.000256965
0.000182672
7.92809e-05
9.11745e-05
0.000113945
0.000159762
0.000279411
0.000153249
8.37816e-05
9.85184e-05
0.000117713
0.000146159
0.000183609
0.000131404
8.27508e-05
0.000100384
0.00012273
0.000152315
0.000188533
0.000149386
8.69764e-05
0.000108556
0.000134506
0.000165674
0.000198939
0.00017004
9.4741e-05
0.000120684
0.000150025
0.00018177
0.000211183
0.000191032
0.000103678
0.000131824
0.000161287
0.000191802
0.000217921
0.000211356
0.00010873
0.000134526
0.000160233
0.000188279
0.000213013
0.00022907
0.000107368
0.000126846
0.000145997
0.000171301
0.000201527
0.000241147
9.99329e-05
0.000112272
0.000124679
0.000148068
0.000187397
0.000245149
8.97678e-05
9.6994e-05
0.000105377
0.000127226
0.000175267
0.00024122
8.03909e-05
8.54803e-05
9.33151e-05
0.000113764
0.000166008
0.00023026
7.38092e-05
7.85513e-05
8.71444e-05
0.000107927
0.000162882
0.000215126
7.10629e-05
7.63655e-05
8.63362e-05
0.000109136
0.000167872
0.000195909
7.23473e-05
7.93854e-05
9.21173e-05
0.000118659
0.000180183
0.000172995
7.78101e-05
8.814e-05
0.000105656
0.000137466
0.000200746
0.000147717
0.00013004
0.000271232
0.000151884
0.000111694
9.47857e-05
8.69894e-05
0.000153002
0.000246451
0.000149854
0.000117306
0.000101783
9.3598e-05
0.000168186
0.000230207
0.000153858
0.000125024
0.000109408
0.000100408
0.000177813
0.00021919
0.000159307
0.000132233
0.000115898
0.00010453
0.000181885
0.000214929
0.000164981
0.000138351
0.000120092
0.000103713
0.000179481
0.000220568
0.000171421
0.000142967
0.000120864
9.76335e-05
0.000173405
0.000233173
0.000178397
0.00014622
0.00011821
8.83476e-05
0.000165551
0.000250276
0.000183405
0.000145473
0.00011208
7.92379e-05
0.000157215
0.000267903
0.000185192
0.000140962
0.000104296
7.19408e-05
0.00014903
0.000286817
0.000183547
0.000133327
9.6189e-05
6.71438e-05
0.000140466
0.000304112
0.000182416
0.000126827
9.11822e-05
6.60766e-05
0.000130759
0.000323941
0.000187346
0.00012559
9.1189e-05
6.90788e-05
0.000119863
0.000342797
0.000199768
0.000131751
9.71425e-05
7.6463e-05
0.000108706
0.000367361
0.000220434
0.000146429
0.000109679
8.85114e-05
0.000140274
0.000216185
0.000122444
9.05104e-05
7.70633e-05
7.07974e-05
0.000167375
0.000204486
0.000123064
9.62174e-05
8.42099e-05
7.75493e-05
0.000187621
0.000202622
0.000131476
0.000106538
9.41382e-05
8.58725e-05
0.000201195
0.000204958
0.000143455
0.000118691
0.000104845
9.31285e-05
0.000207992
0.000208659
0.000157024
0.000131727
0.000115203
9.75705e-05
0.000208135
0.000212252
0.000171344
0.000144944
0.000123631
9.82082e-05
0.000203621
0.000214765
0.000185232
0.000157565
0.000128888
9.56952e-05
0.000195699
0.000218602
0.000195472
0.000165624
0.00013022
9.18964e-05
0.000185936
0.000224668
0.000199888
0.000166459
0.000126744
8.73952e-05
0.000175197
0.000234548
0.000196948
0.000159298
0.000118572
8.19936e-05
0.000164567
0.000243408
0.000189399
0.0001486
0.000110108
7.87496e-05
0.000153601
0.000255888
0.000182695
0.000138788
0.000104185
7.80461e-05
0.000140779
0.000270222
0.000181723
0.000134223
0.000102814
8.06847e-05
0.00012722
0.000297426
0.000191074
0.000137392
0.000107118
8.68375e-05
0.000134424
0.000151147
9.81314e-05
7.65403e-05
6.60589e-05
5.98877e-05
0.000159534
0.000141043
9.63392e-05
7.83163e-05
6.90885e-05
6.29631e-05
0.000181879
0.000137074
0.00010095
8.48931e-05
7.4989e-05
6.6844e-05
0.0002013
0.000137627
0.000108505
9.45352e-05
8.31868e-05
7.14036e-05
0.000218378
0.000143373
0.000118277
0.000106358
9.34291e-05
7.67477e-05
0.000231655
0.000154494
0.000132134
0.000120033
0.000104462
8.20687e-05
0.000239232
0.000170806
0.000150828
0.000135403
0.000115187
8.75009e-05
0.000239533
0.000190309
0.000171009
0.000149641
0.000123288
9.21578e-05
0.000231979
0.000207135
0.000186878
0.000159205
0.000127565
9.37321e-05
0.000218411
0.000221033
0.000193014
0.000159826
0.000125167
9.1203e-05
0.000201115
0.000225436
0.000188839
0.00015214
0.000117906
8.75241e-05
0.000182043
0.00022241
0.000178977
0.000141102
0.000110182
8.46669e-05
0.000161144
0.000217371
0.000170353
0.000133084
0.000105517
8.43603e-05
0.000141737
0.000220795
0.000167122
0.000130157
0.000105685
8.7497e-05
0.000123016
0.000276171
0.000177241
0.000131309
0.000105129
9.07488e-05
0.000146155
0.000252878
0.000176228
0.000134977
0.000108054
9.17997e-05
0.000162169
0.000232781
0.00017791
0.000138442
0.000108721
8.88374e-05
0.000172173
0.000217347
0.000178565
0.000138753
0.000104792
8.02783e-05
0.00017656
0.000210253
0.00017629
0.000134279
9.56791e-05
6.73347e-05
0.000176195
0.000211901
0.000169085
0.000123651
8.2632e-05
5.35073e-05
0.000173214
0.000219128
0.000155727
0.000108044
6.86467e-05
4.18059e-05
0.000169097
0.000227916
0.000138105
9.10198e-05
5.67301e-05
3.40805e-05
0.000161829
0.000238845
0.000122435
7.70618e-05
4.91527e-05
3.13782e-05
0.000152663
0.000253349
0.000112504
6.86453e-05
4.68374e-05
3.43166e-05
0.000142195
0.00026532
0.000111741
6.77916e-05
5.00622e-05
4.19491e-05
0.000131488
0.000278131
0.000122261
7.53455e-05
5.89631e-05
5.2968e-05
0.000120539
0.000284685
0.000142805
9.16313e-05
7.33115e-05
6.56264e-05
0.000108964
0.000300825
0.000166106
0.000112997
9.11469e-05
8.09423e-05
0.000136735
0.000247138
0.000148786
0.000108981
8.88648e-05
7.79805e-05
0.000161827
0.000250107
0.000158275
0.000118436
9.63173e-05
8.29043e-05
0.000178284
0.000252559
0.000176186
0.000132683
0.000105046
8.64105e-05
0.000186795
0.000247016
0.000196119
0.000147999
0.000112187
8.58718e-05
0.000188676
0.000235736
0.000210525
0.000159562
0.000114679
8.04152e-05
0.000186807
0.000223629
0.000214299
0.000161798
0.000110321
7.16523e-05
0.000182599
0.000217517
0.000204821
0.000152538
9.9612e-05
6.10896e-05
0.000177634
0.00021561
0.000184943
0.000134024
8.5163e-05
5.03379e-05
0.000171536
0.000213839
0.000160384
0.00011133
7.06652e-05
4.22832e-05
0.000163401
0.000212916
0.00013672
9.14138e-05
6.02788e-05
3.9135e-05
0.000153813
0.000211944
0.000120261
7.97374e-05
5.60485e-05
4.11864e-05
0.00014367
0.000215644
0.000114401
7.61262e-05
5.7457e-05
4.73619e-05
0.000133346
0.00021991
0.000120571
8.14957e-05
6.42668e-05
5.56787e-05
0.000122645
0.000235797
0.000134584
9.35218e-05
7.5358e-05
6.60551e-05
0.000131141
0.000154068
9.98704e-05
7.80816e-05
6.73103e-05
6.07691e-05
0.00015853
0.000164663
0.000107334
8.45963e-05
7.25244e-05
6.46963e-05
0.000183748
0.000183725
0.000126949
9.85161e-05
8.15384e-05
6.90422e-05
0.000204611
0.000202943
0.000157644
0.000120198
9.42373e-05
7.37386e-05
0.000218823
0.000220898
0.000190397
0.000145732
0.000108616
7.81421e-05
0.000225776
0.000235145
0.000214004
0.00016707
0.000120487
8.12491e-05
0.00022471
0.000245245
0.000223703
0.000175771
0.000123543
7.91686e-05
0.00021819
0.000246995
0.000217676
0.000167898
0.000115067
7.10725e-05
0.000206355
0.000236545
0.000196279
0.000146355
9.88875e-05
6.00978e-05
0.000189929
0.000218233
0.000166547
0.000120029
8.15193e-05
5.09206e-05
0.000171711
0.000196966
0.000139197
9.88261e-05
6.93992e-05
4.66221e-05
0.000154887
0.000179937
0.000120073
8.55655e-05
6.3449e-05
4.73743e-05
0.000139968
0.000170313
0.000111213
8.06398e-05
6.32064e-05
5.12204e-05
0.000126137
0.000169213
0.000111267
8.32466e-05
6.86162e-05
5.86814e-05
5.53086e-05
4.28343e-05
3.50124e-05
2.94758e-05
2.87405e-05
3.26607e-05
3.91547e-05
4.48725e-05
4.7466e-05
4.67802e-05
4.52153e-05
4.62023e-05
4.95276e-05
5.25663e-05
4.92623e-05
3.46123e-05
2.46752e-05
1.72008e-05
1.3347e-05
1.34159e-05
1.66828e-05
2.12372e-05
2.52676e-05
2.80182e-05
3.02034e-05
3.358e-05
3.74614e-05
4.19072e-05
4.32164e-05
2.84084e-05
1.71777e-05
9.60966e-06
5.47506e-06
4.15144e-06
5.03491e-06
7.35569e-06
1.04976e-05
1.41414e-05
1.83517e-05
2.35239e-05
2.90778e-05
3.5968e-05
4.05796e-05
2.42733e-05
1.1777e-05
4.83907e-06
1.88063e-06
9.37599e-07
1.03082e-06
1.88606e-06
3.59079e-06
6.35818e-06
1.02335e-05
1.53286e-05
2.19466e-05
3.20687e-05
4.15323e-05
2.2404e-05
8.70128e-06
2.79372e-06
8.40934e-07
2.54389e-07
1.76996e-07
4.31612e-07
1.16175e-06
2.68437e-06
5.43992e-06
1.03335e-05
1.89071e-05
3.34384e-05
4.41496e-05
2.15799e-05
7.4685e-06
2.54405e-06
8.31765e-07
2.36932e-07
9.88556e-08
1.77499e-07
5.32918e-07
1.53426e-06
4.02897e-06
9.69409e-06
2.11545e-05
3.99587e-05
4.71839e-05
2.18579e-05
7.82968e-06
3.18894e-06
1.23696e-06
4.63067e-07
2.66131e-07
3.54537e-07
7.83429e-07
2.04739e-06
5.31998e-06
1.2824e-05
2.70027e-05
4.80746e-05
4.92305e-05
2.3625e-05
9.79544e-06
4.8438e-06
2.35921e-06
1.17305e-06
8.41429e-07
1.03913e-06
1.81318e-06
3.80593e-06
8.36583e-06
1.75973e-05
3.28791e-05
5.35346e-05
5.08987e-05
2.67431e-05
1.33799e-05
7.97661e-06
4.77761e-06
2.92041e-06
2.2881e-06
2.66721e-06
4.03342e-06
6.99812e-06
1.26816e-05
2.24784e-05
3.6757e-05
5.4576e-05
5.30981e-05
3.16537e-05
1.89291e-05
1.30596e-05
9.32377e-06
6.67757e-06
5.42006e-06
5.76354e-06
7.67185e-06
1.13991e-05
1.74684e-05
2.65268e-05
3.8493e-05
5.26117e-05
5.59528e-05
3.76894e-05
2.65808e-05
2.04554e-05
1.69499e-05
1.38795e-05
1.17574e-05
1.13468e-05
1.30313e-05
1.69112e-05
2.2729e-05
3.05512e-05
4.00565e-05
5.11154e-05
6.10285e-05
4.6485e-05
3.70141e-05
3.09378e-05
2.80837e-05
2.58519e-05
2.35757e-05
2.19324e-05
2.19836e-05
2.46663e-05
2.94428e-05
3.62998e-05
4.38324e-05
5.34753e-05
6.61188e-05
5.50714e-05
4.77972e-05
4.30449e-05
4.14681e-05
4.16445e-05
4.13856e-05
4.01474e-05
3.84523e-05
3.83444e-05
4.02384e-05
4.47939e-05
4.96123e-05
5.89048e-05
7.43635e-05
6.77057e-05
6.04607e-05
5.56544e-05
5.50459e-05
5.73926e-05
6.06259e-05
6.23539e-05
6.16548e-05
5.94335e-05
5.73213e-05
5.76941e-05
5.90188e-05
6.52045e-05
5.05665e-05
3.65773e-05
2.79559e-05
2.17773e-05
1.97927e-05
2.16824e-05
2.61794e-05
3.1165e-05
3.4756e-05
3.62433e-05
3.61999e-05
3.69021e-05
4.14219e-05
4.77468e-05
4.15005e-05
2.71741e-05
1.80802e-05
1.19237e-05
8.75459e-06
8.40111e-06
1.04557e-05
1.37733e-05
1.72254e-05
2.01427e-05
2.2613e-05
2.57466e-05
3.06171e-05
3.63056e-05
3.46631e-05
2.08638e-05
1.13634e-05
5.94484e-06
3.27603e-06
2.40029e-06
2.89566e-06
4.33388e-06
6.45138e-06
9.1476e-06
1.2599e-05
1.71238e-05
2.282e-05
2.91916e-05
3.34079e-05
1.81264e-05
7.72363e-06
2.86066e-06
1.05752e-06
5.00424e-07
5.27856e-07
9.77684e-07
1.95085e-06
3.71681e-06
6.58197e-06
1.05508e-05
1.59172e-05
2.34695e-05
3.48866e-05
1.73452e-05
6.14749e-06
1.85797e-06
5.39449e-07
1.51178e-07
8.45822e-08
2.0326e-07
5.95578e-07
1.51671e-06
3.32699e-06
6.61202e-06
1.24008e-05
2.2419e-05
3.68292e-05
1.72811e-05
5.61604e-06
1.78783e-06
5.46146e-07
1.47043e-07
5.47394e-08
8.9441e-08
2.76913e-07
8.39163e-07
2.28973e-06
5.69135e-06
1.29441e-05
2.57707e-05
3.75818e-05
1.71249e-05
5.99124e-06
2.17671e-06
7.69858e-07
2.72312e-07
1.51448e-07
1.88888e-07
3.9965e-07
1.05847e-06
2.88129e-06
7.3665e-06
1.65727e-05
3.14544e-05
3.77956e-05
1.76796e-05
7.37404e-06
3.20946e-06
1.43023e-06
6.83264e-07
4.91105e-07
5.80118e-07
9.57586e-07
2.00116e-06
4.62159e-06
1.04643e-05
2.11301e-05
3.65706e-05
3.84574e-05
1.99754e-05
9.77528e-06
5.30469e-06
2.94587e-06
1.74688e-06
1.38674e-06
1.58346e-06
2.30871e-06
3.98428e-06
7.52638e-06
1.43302e-05
2.53159e-05
3.98438e-05
4.08721e-05
2.4028e-05
1.35857e-05
8.91847e-06
6.02414e-06
4.18735e-06
3.43413e-06
3.67045e-06
4.83302e-06
7.19188e-06
1.13779e-05
1.83119e-05
2.84017e-05
4.07669e-05
4.48459e-05
2.94261e-05
1.93616e-05
1.4641e-05
1.16147e-05
9.21624e-06
7.75428e-06
7.58308e-06
8.85769e-06
1.16762e-05
1.6088e-05
2.24796e-05
3.0987e-05
4.08743e-05
5.15522e-05
3.79622e-05
2.81148e-05
2.30433e-05
2.06076e-05
1.82801e-05
1.61779e-05
1.49213e-05
1.52612e-05
1.77543e-05
2.20284e-05
2.79243e-05
3.50726e-05
4.35408e-05
5.85868e-05
4.77363e-05
3.8968e-05
3.37711e-05
3.26564e-05
3.16865e-05
3.01307e-05
2.82195e-05
2.67397e-05
2.73484e-05
3.03005e-05
3.5677e-05
4.15948e-05
5.14588e-05
7.03681e-05
6.26952e-05
5.18069e-05
4.60478e-05
4.55568e-05
4.6829e-05
4.74389e-05
4.67732e-05
4.47782e-05
4.31099e-05
4.32557e-05
4.64117e-05
4.99949e-05
5.91892e-05
3.92944e-05
2.61449e-05
1.84859e-05
1.31596e-05
1.06887e-05
1.07685e-05
1.30979e-05
1.66297e-05
2.0315e-05
2.31963e-05
2.50727e-05
2.6516e-05
2.98241e-05
3.67674e-05
3.01538e-05
1.76934e-05
1.04705e-05
6.40955e-06
4.41591e-06
3.87166e-06
4.6814e-06
6.46148e-06
8.84209e-06
1.13916e-05
1.39781e-05
1.67734e-05
2.09545e-05
2.70349e-05
2.5904e-05
1.34434e-05
6.17231e-06
2.86394e-06
1.49878e-06
1.03658e-06
1.19515e-06
1.83446e-06
2.95229e-06
4.60263e-06
6.94902e-06
1.02659e-05
1.48666e-05
2.05775e-05
2.60667e-05
1.22577e-05
4.46058e-06
1.44869e-06
4.91321e-07
2.11296e-07
2.03997e-07
3.82739e-07
8.22105e-07
1.72345e-06
3.38558e-06
6.0424e-06
9.65687e-06
1.4736e-05
2.6562e-05
1.18452e-05
3.83355e-06
1.10699e-06
3.14098e-07
8.12131e-08
3.44984e-08
7.71449e-08
2.47259e-07
6.95272e-07
1.66036e-06
3.457e-06
6.69057e-06
1.21585e-05
2.63974e-05
1.13949e-05
3.67761e-06
1.10902e-06
3.20231e-07
8.13851e-08
2.64017e-08
3.74801e-08
1.18459e-07
3.74749e-07
1.05481e-06
2.65981e-06
6.15063e-06
1.28822e-05
2.5277e-05
1.07958e-05
3.87226e-06
1.28167e-06
4.17905e-07
1.40628e-07
7.58666e-08
8.79134e-08
1.7337e-07
4.50601e-07
1.23834e-06
3.25496e-06
7.73879e-06
1.60719e-05
2.416e-05
1.10315e-05
4.58737e-06
1.79127e-06
7.35965e-07
3.48546e-07
2.57362e-07
2.91501e-07
4.43076e-07
8.77306e-07
2.03207e-06
4.81548e-06
1.05063e-05
2.01835e-05
2.44691e-05
1.26452e-05
5.92789e-06
2.92674e-06
1.52255e-06
9.15648e-07
7.57334e-07
8.45884e-07
1.15921e-06
1.90678e-06
3.608e-06
7.23956e-06
1.39138e-05
2.42048e-05
2.72367e-05
1.55235e-05
8.29598e-06
5.10777e-06
3.273e-06
2.28336e-06
1.9343e-06
2.06801e-06
2.63529e-06
3.8193e-06
6.09015e-06
1.03426e-05
1.7423e-05
2.73773e-05
3.16869e-05
1.95067e-05
1.23203e-05
9.01232e-06
6.81114e-06
5.27278e-06
4.46181e-06
4.42769e-06
5.19603e-06
6.84342e-06
9.57045e-06
1.40224e-05
2.07465e-05
2.95682e-05
3.88797e-05
2.64385e-05
1.87169e-05
1.55195e-05
1.32085e-05
1.11352e-05
9.5508e-06
8.82779e-06
9.30616e-06
1.12025e-05
1.42916e-05
1.87267e-05
2.47615e-05
3.22612e-05
4.67814e-05
3.60511e-05
2.79531e-05
2.50007e-05
2.31079e-05
2.10381e-05
1.87846e-05
1.69402e-05
1.62126e-05
1.7491e-05
2.05969e-05
2.52489e-05
3.07889e-05
3.84451e-05
6.05223e-05
5.00859e-05
3.94769e-05
3.64802e-05
3.56407e-05
3.45115e-05
3.25964e-05
3.01836e-05
2.78183e-05
2.72111e-05
2.90564e-05
3.36653e-05
3.84468e-05
4.79806e-05
2.55794e-05
1.52754e-05
9.90314e-06
6.67887e-06
5.00626e-06
4.49069e-06
5.15372e-06
6.76017e-06
9.05315e-06
1.15635e-05
1.39895e-05
1.60814e-05
1.88446e-05
2.32785e-05
2.04763e-05
1.00472e-05
4.90578e-06
2.69805e-06
1.76726e-06
1.44717e-06
1.61896e-06
2.20416e-06
3.21174e-06
4.59104e-06
6.30788e-06
8.40111e-06
1.15268e-05
1.62922e-05
1.87311e-05
7.96794e-06
2.85742e-06
1.06909e-06
5.03337e-07
3.33693e-07
3.62941e-07
5.33335e-07
8.82797e-07
1.50312e-06
2.56356e-06
4.36461e-06
7.36282e-06
1.17281e-05
1.8179e-05
7.10491e-06
2.14481e-06
6.11488e-07
1.85e-07
6.75765e-08
5.4689e-08
9.55029e-08
2.1178e-07
4.94442e-07
1.12638e-06
2.36389e-06
4.49179e-06
7.7765e-06
1.7207e-05
6.52108e-06
1.94521e-06
5.67879e-07
1.58376e-07
3.76497e-08
1.09433e-08
1.80886e-08
6.23312e-08
1.99642e-07
5.54705e-07
1.35222e-06
2.93114e-06
5.66263e-06
1.57197e-05
6.01266e-06
1.93246e-06
5.82691e-07
1.59169e-07
3.75932e-08
9.98153e-09
1.04252e-08
3.33385e-08
1.16541e-07
3.63433e-07
9.93832e-07
2.42882e-06
5.33584e-06
1.40422e-05
5.73316e-06
2.05045e-06
6.29255e-07
1.84674e-07
5.64485e-08
2.79939e-08
2.87735e-08
5.14669e-08
1.35519e-07
3.96893e-07
1.11655e-06
2.86687e-06
6.56284e-06
1.33332e-05
6.12125e-06
2.37363e-06
8.06703e-07
2.91629e-07
1.33684e-07
1.01109e-07
1.07938e-07
1.46162e-07
2.70625e-07
6.40355e-07
1.6471e-06
4.03759e-06
8.85055e-06
1.41923e-05
7.21668e-06
2.96171e-06
1.26051e-06
5.92483e-07
3.66661e-07
3.22256e-07
3.47755e-07
4.33243e-07
6.59636e-07
1.24215e-06
2.69348e-06
5.88604e-06
1.18071e-05
1.69084e-05
8.80511e-06
4.2299e-06
2.28407e-06
1.36161e-06
9.79372e-07
8.82871e-07
9.36605e-07
1.11854e-06
1.53042e-06
2.4179e-06
4.3767e-06
8.32584e-06
1.50594e-05
2.03954e-05
1.11775e-05
6.78377e-06
4.49335e-06
3.16019e-06
2.43671e-06
2.14854e-06
2.17864e-06
2.49594e-06
3.19032e-06
4.4537e-06
6.87004e-06
1.1311e-05
1.83234e-05
2.57437e-05
1.58794e-05
1.14769e-05
8.8643e-06
6.94281e-06
5.5956e-06
4.80397e-06
4.56993e-06
4.93396e-06
5.97226e-06
7.68877e-06
1.04438e-05
1.49253e-05
2.16031e-05
3.23987e-05
2.36372e-05
1.91376e-05
1.63541e-05
1.38316e-05
1.16472e-05
9.94934e-06
8.97173e-06
8.94952e-06
1.01518e-05
1.23694e-05
1.5541e-05
1.98321e-05
2.60289e-05
4.42224e-05
3.47793e-05
2.93375e-05
2.70252e-05
2.44955e-05
2.17084e-05
1.8902e-05
1.66171e-05
1.53595e-05
1.59636e-05
1.83654e-05
2.22337e-05
2.63748e-05
3.28009e-05
1.68478e-05
8.49149e-06
4.54136e-06
2.75702e-06
1.92653e-06
1.60168e-06
1.71582e-06
2.20882e-06
3.13465e-06
4.4919e-06
6.2023e-06
8.00143e-06
1.02267e-05
1.29262e-05
1.43667e-05
5.88544e-06
2.14517e-06
9.08357e-07
5.3008e-07
4.15401e-07
4.50136e-07
5.88756e-07
8.6512e-07
1.35343e-06
2.11854e-06
3.23498e-06
5.06313e-06
8.11783e-06
1.28542e-05
4.67472e-06
1.26387e-06
3.46836e-07
1.28793e-07
7.61056e-08
8.09206e-08
1.14235e-07
1.83553e-07
3.35259e-07
6.67104e-07
1.37314e-06
2.81628e-06
5.37054e-06
1.17973e-05
4.08508e-06
1.03081e-06
2.58477e-07
6.8661e-08
1.89546e-08
1.01175e-08
1.50815e-08
3.41653e-08
9.3178e-08
2.64911e-07
6.9981e-07
1.63893e-06
3.36088e-06
1.01883e-05
3.48662e-06
9.86945e-07
2.7614e-07
7.31473e-08
1.60126e-08
3.1688e-09
2.47746e-09
9.60991e-09
3.89025e-08