/*--------------------------------*- C++ -*----------------------------------*\
| =========                 |                                                 |
| \\      /  F ield         | OpenFOAM: The Open Source CFD Toolbox           |
|  \\    /   O peration     | Version:  v2106                                 |
|   \\  /    A nd           | Website:  www.openfoam.com                      |
|    \\/     M anipulation  |                                                 |
\*---------------------------------------------------------------------------*/
FoamFile
{
    version     2.0;
    format      ascii;
    arch        "LSB;label=32;scalar=64";
    class       volScalarField;
    location    "0.000156";
    object      nut;
}
// * * * * * * * * * * * * * * * * * * * * * * * * * * * * * * * * * * * * * //

dimensions      [0 2 -1 0 0 0 0];

internalField   nonuniform List<scalar> 
144746
(
3.51769e-05
2.9124e-05
2.30409e-05
1.66534e-05
1.1392e-05
8.34317e-06
7.9259e-06
9.74486e-06
1.35792e-05
1.90897e-05
2.54971e-05
3.10177e-05
3.40534e-05
3.53241e-05
3.73536e-05
3.06996e-05
2.30506e-05
1.47629e-05
8.40548e-06
4.91596e-06
3.83267e-06
4.63997e-06
7.21522e-06
1.13401e-05
1.64749e-05
2.14761e-05
2.48978e-05
2.68707e-05
3.92645e-05
3.05334e-05
2.05548e-05
1.10215e-05
5.0965e-06
2.3631e-06
1.47753e-06
1.81224e-06
3.37821e-06
6.25848e-06
1.01241e-05
1.41183e-05
1.73139e-05
1.96953e-05
3.86052e-05
2.65949e-05
1.49792e-05
6.29436e-06
2.29977e-06
8.41246e-07
4.19891e-07
5.74359e-07
1.37048e-06
3.06822e-06
5.67648e-06
8.65713e-06
1.14296e-05
1.41091e-05
3.45198e-05
2.02167e-05
9.06809e-06
3.03284e-06
1.11418e-06
3.90542e-07
1.58308e-07
2.11069e-07
5.713e-07
1.45289e-06
3.05106e-06
5.3022e-06
8.04596e-06
1.14444e-05
2.85988e-05
1.43577e-05
5.67819e-06
2.48116e-06
1.21052e-06
4.81308e-07
2.08168e-07
2.06752e-07
4.08181e-07
9.41502e-07
2.05256e-06
4.02077e-06
7.10575e-06
1.14703e-05
2.32418e-05
1.11622e-05
5.52875e-06
3.43458e-06
1.9035e-06
8.88787e-07
4.84715e-07
4.86047e-07
7.46645e-07
1.37571e-06
2.65243e-06
4.99809e-06
8.78268e-06
1.41808e-05
1.98873e-05
1.0993e-05
7.65261e-06
5.42496e-06
3.40818e-06
1.85566e-06
1.16339e-06
1.20288e-06
1.72553e-06
2.8109e-06
4.74295e-06
7.92982e-06
1.26244e-05
1.90366e-05
1.91286e-05
1.31209e-05
1.11982e-05
8.78342e-06
6.19748e-06
3.82499e-06
2.52594e-06
2.52917e-06
3.46957e-06
5.23054e-06
7.98806e-06
1.20656e-05
1.76395e-05
2.49619e-05
2.01757e-05
1.69686e-05
1.62246e-05
1.40069e-05
1.09977e-05
7.61614e-06
5.11005e-06
4.56628e-06
5.75296e-06
8.09688e-06
1.15109e-05
1.62848e-05
2.26139e-05
3.06444e-05
2.21244e-05
2.09418e-05
2.19672e-05
2.13898e-05
1.85709e-05
1.44182e-05
1.0142e-05
7.94315e-06
8.48327e-06
1.08686e-05
1.45361e-05
1.97344e-05
2.6395e-05
3.41979e-05
2.5092e-05
2.52693e-05
2.78309e-05
2.96687e-05
2.8389e-05
2.45002e-05
1.9164e-05
1.47527e-05
1.30431e-05
1.40882e-05
1.7015e-05
2.18261e-05
2.79944e-05
3.54883e-05
2.88242e-05
2.93495e-05
3.2764e-05
3.66365e-05
3.82737e-05
3.60504e-05
3.10347e-05
2.53134e-05
2.09865e-05
1.93674e-05
2.02857e-05
2.37499e-05
2.8875e-05
3.59271e-05
3.38749e-05
3.43599e-05
3.75982e-05
4.17838e-05
4.54531e-05
4.57391e-05
4.23552e-05
3.69305e-05
3.13269e-05
2.73299e-05
2.58532e-05
2.73637e-05
3.12072e-05
3.75267e-05
2.84959e-05
2.35815e-05
1.9002e-05
1.43365e-05
1.1043e-05
9.91138e-06
1.12349e-05
1.43632e-05
1.85971e-05
2.32815e-05
2.77274e-05
3.05754e-05
3.10626e-05
3.04382e-05
3.06504e-05
2.46193e-05
1.83952e-05
1.20322e-05
7.31283e-06
4.9932e-06
4.9276e-06
6.69036e-06
9.89539e-06
1.39405e-05
1.81356e-05
2.14092e-05
2.28203e-05
2.33597e-05
3.28018e-05
2.47487e-05
1.6496e-05
8.93887e-06
4.26331e-06
2.1389e-06
1.70087e-06
2.53214e-06
4.59876e-06
7.74432e-06
1.13519e-05
1.44865e-05
1.65176e-05
1.82012e-05
3.31154e-05
2.22258e-05
1.23951e-05
5.20188e-06
1.88291e-06
6.89456e-07
4.39756e-07
7.95008e-07
1.87077e-06
3.84265e-06
6.52671e-06
9.22976e-06
1.16761e-05
1.4608e-05
3.11674e-05
1.79093e-05
7.87669e-06
2.61845e-06
8.86889e-07
2.90552e-07
1.44187e-07
2.78429e-07
7.70496e-07
1.8406e-06
3.61403e-06
6.01658e-06
9.20355e-06
1.37759e-05
2.78514e-05
1.37026e-05
5.14676e-06
2.09785e-06
9.31629e-07
3.48822e-07
1.65729e-07
2.16821e-07
4.95641e-07
1.18035e-06
2.57665e-06
5.11152e-06
9.32906e-06
1.5624e-05
2.45563e-05
1.11859e-05
4.9968e-06
2.84381e-06
1.47863e-06
6.78554e-07
4.06469e-07
4.73081e-07
8.26023e-07
1.66876e-06
3.41827e-06
6.69533e-06
1.20982e-05
1.98286e-05
2.24385e-05
1.1018e-05
6.80764e-06
4.50468e-06
2.73538e-06
1.5108e-06
1.04246e-06
1.19779e-06
1.86357e-06
3.25492e-06
5.80578e-06
1.00603e-05
1.63837e-05
2.49974e-05
2.18381e-05
1.28516e-05
9.86934e-06
7.37449e-06
5.12603e-06
3.26299e-06
2.36132e-06
2.57702e-06
3.70913e-06
5.80076e-06
9.12311e-06
1.40236e-05
2.0704e-05
2.95399e-05
2.26881e-05
1.62997e-05
1.41941e-05
1.18465e-05
9.29117e-06
6.69864e-06
4.88797e-06
4.70344e-06
6.07435e-06
8.64147e-06
1.23334e-05
1.7411e-05
2.40568e-05
3.26525e-05
2.40577e-05
1.97709e-05
1.91529e-05
1.81156e-05
1.58484e-05
1.29322e-05
9.85467e-06
8.27867e-06
8.93621e-06
1.13702e-05
1.49308e-05
1.98426e-05
2.60122e-05
3.3532e-05
2.60806e-05
2.34713e-05
2.42458e-05
2.53755e-05
2.46986e-05
2.23642e-05
1.8861e-05
1.55675e-05
1.41155e-05
1.50176e-05
1.74323e-05
2.14164e-05
2.63577e-05
3.28286e-05
2.82866e-05
2.65458e-05
2.83243e-05
3.14307e-05
3.35234e-05
3.30979e-05
3.07117e-05
2.70585e-05
2.35087e-05
2.16575e-05
2.16945e-05
2.38207e-05
2.70642e-05
3.24225e-05
3.14834e-05
3.03231e-05
3.236e-05
3.62108e-05
4.05439e-05
4.29086e-05
4.23873e-05
3.9765e-05
3.57944e-05
3.18096e-05
2.91509e-05
2.88192e-05
3.02081e-05
3.40903e-05
2.38879e-05
1.9526e-05
1.62781e-05
1.34144e-05
1.23726e-05
1.34627e-05
1.63201e-05
1.95202e-05
2.19395e-05
2.33687e-05
2.44295e-05
2.49888e-05
2.48046e-05
2.42744e-05
2.41633e-05
1.8503e-05
1.373e-05
9.44526e-06
6.67755e-06
5.85749e-06
6.95402e-06
9.23531e-06
1.18884e-05
1.43023e-05
1.65162e-05
1.8073e-05
1.87386e-05
1.94541e-05
2.43842e-05
1.75007e-05
1.14022e-05
6.43629e-06
3.37983e-06
2.08396e-06
2.19284e-06
3.35815e-06
5.35506e-06
7.85675e-06
1.05652e-05
1.2851e-05
1.45359e-05
1.67014e-05
2.39153e-05
1.55097e-05
8.42297e-06
3.61843e-06
1.3528e-06
5.53549e-07
4.92876e-07
9.69369e-07
2.06705e-06
3.84698e-06
6.21085e-06
8.59339e-06
1.1195e-05
1.51636e-05
2.33262e-05
1.3234e-05
5.68892e-06
1.92179e-06
6.12577e-07
1.89464e-07
1.19632e-07
2.87048e-07
7.83511e-07
1.80484e-06
3.48599e-06
5.97265e-06
9.85448e-06
1.60944e-05
2.29705e-05
1.13444e-05
4.14651e-06
1.60556e-06
6.23603e-07
2.0919e-07
1.04059e-07
1.71796e-07
4.46436e-07
1.13346e-06
2.629e-06
5.62045e-06
1.10673e-05
1.94638e-05
2.29802e-05
1.03863e-05
4.22298e-06
2.12339e-06
9.80205e-07
4.19092e-07
2.62446e-07
3.47126e-07
6.91726e-07
1.56881e-06
3.54503e-06
7.52655e-06
1.43512e-05
2.39952e-05
2.3929e-05
1.07643e-05
5.67079e-06
3.33822e-06
1.86003e-06
9.97628e-07
7.32714e-07
9.18854e-07
1.5485e-06
2.94892e-06
5.71246e-06
1.05747e-05
1.79396e-05
2.75865e-05
2.45579e-05
1.26572e-05
8.08525e-06
5.45193e-06
3.60061e-06
2.28769e-06
1.77852e-06
2.09134e-06
3.14585e-06
5.16018e-06
8.5149e-06
1.35877e-05
2.04752e-05
2.90191e-05
2.51732e-05
1.5744e-05
1.14739e-05
8.78316e-06
6.65167e-06
4.87056e-06
3.84839e-06
4.00867e-06
5.31235e-06
7.69181e-06
1.11574e-05
1.58493e-05
2.17456e-05
2.88229e-05
2.59189e-05
1.86202e-05
1.55835e-05
1.3389e-05
1.14204e-05
9.57203e-06
7.92534e-06
7.30226e-06
8.13646e-06
1.03477e-05
1.34431e-05
1.7533e-05
2.24067e-05
2.82704e-05
2.7376e-05
2.2042e-05
2.02456e-05
1.93116e-05
1.81227e-05
1.68016e-05
1.52569e-05
1.37666e-05
1.32159e-05
1.4311e-05
1.63641e-05
1.94864e-05
2.28468e-05
2.75333e-05
2.88095e-05
2.49151e-05
2.41171e-05
2.45978e-05
2.518e-05
2.52803e-05
2.51636e-05
2.42283e-05
2.26593e-05
2.15857e-05
2.14078e-05
2.26635e-05
2.43492e-05
2.79845e-05
3.12835e-05
2.86746e-05
2.82933e-05
2.93977e-05
3.15336e-05
3.34968e-05
3.49992e-05
3.55682e-05
3.45359e-05
3.2219e-05
2.9785e-05
2.86594e-05
2.84363e-05
3.03546e-05
3.716e-05
4.42462e-05
5.62383e-05
7.92133e-05
0.000126185
4.36543e-05
2.90094e-05
3.51324e-05
4.60743e-05
7.00935e-05
0.000124741
4.85954e-05
2.20415e-05
2.74277e-05
3.73125e-05
6.07585e-05
0.000122864
5.31048e-05
1.72338e-05
2.28325e-05
3.23286e-05
5.40758e-05
0.000117741
5.69904e-05
1.56068e-05
2.19822e-05
3.19083e-05
5.19974e-05
0.000112167
6.02759e-05
1.6871e-05
2.45505e-05
3.57757e-05
5.45917e-05
0.000106126
6.28921e-05
2.0749e-05
2.98707e-05
4.25789e-05
6.03077e-05
0.000100652
6.48267e-05
2.64e-05
3.65923e-05
5.01952e-05
6.70925e-05
9.58679e-05
6.62672e-05
3.23225e-05
4.26575e-05
5.61846e-05
7.2693e-05
9.24273e-05
6.78151e-05
3.70423e-05
4.65529e-05
5.94156e-05
7.59605e-05
9.15877e-05
6.94294e-05
3.96745e-05
4.79579e-05
6.01771e-05
7.72837e-05
9.63566e-05
6.95421e-05
4.04018e-05
4.75637e-05
5.92425e-05
7.73711e-05
0.000106
6.74374e-05
4.02055e-05
4.66161e-05
5.80609e-05
7.78421e-05
0.000117435
6.24024e-05
4.06101e-05
4.71965e-05
5.94255e-05
8.15443e-05
0.000128738
5.32466e-05
3.09046e-05
3.63199e-05
4.55545e-05
6.39637e-05
0.000102162
4.98702e-05
2.482e-05
2.97812e-05
3.83608e-05
5.59677e-05
9.30122e-05
5.44575e-05
2.06662e-05
2.58866e-05
3.44992e-05
5.1058e-05
8.80982e-05
5.85964e-05
1.88143e-05
2.5496e-05
3.53193e-05
5.14144e-05
8.47446e-05
6.2501e-05
1.9934e-05
2.86737e-05
4.06602e-05
5.70067e-05
8.46858e-05
6.60443e-05
2.37424e-05
3.5087e-05
4.98721e-05
6.64574e-05
8.63097e-05
6.88795e-05
2.94353e-05
4.28999e-05
5.97714e-05
7.64115e-05
8.88567e-05
7.09298e-05
3.51095e-05
4.923e-05
6.66612e-05
8.43496e-05
9.22587e-05
7.29603e-05
3.86278e-05
5.16647e-05
6.83016e-05
8.84699e-05
9.75619e-05
7.55729e-05
3.95992e-05
5.02332e-05
6.48843e-05
8.69777e-05
0.000104334
7.82002e-05
3.86342e-05
4.66009e-05
5.89064e-05
8.04768e-05
0.000110396
7.90394e-05
3.68131e-05
4.28447e-05
5.30808e-05
7.29215e-05
0.000113623
7.64869e-05
3.55822e-05
4.06872e-05
4.98978e-05
6.84719e-05
0.000114055
6.9828e-05
3.63323e-05
4.17003e-05
5.13512e-05
6.96469e-05
0.000114189
5.87909e-05
2.4582e-05
2.83428e-05
3.39114e-05
4.4437e-05
6.40272e-05
5.07648e-05
2.13213e-05
2.57313e-05
3.21529e-05
4.32622e-05
6.27059e-05
5.58814e-05
2.02571e-05
2.6078e-05
3.40002e-05
4.63654e-05
6.59718e-05
6.19552e-05
2.1218e-05
2.94541e-05
3.99763e-05
5.44194e-05
7.37913e-05
6.92904e-05
2.47616e-05
3.60156e-05
4.98536e-05
6.66439e-05
8.41487e-05
7.73607e-05
3.03404e-05
4.45538e-05
6.1528e-05
7.9994e-05
9.40213e-05
8.48976e-05
3.58766e-05
5.17211e-05
7.02036e-05
8.92749e-05
0.000100882
9.06777e-05
3.89329e-05
5.40858e-05
7.17519e-05
9.14465e-05
0.000103272
9.42329e-05
3.81926e-05
5.05477e-05
6.56682e-05
8.63931e-05
0.000101109
9.49126e-05
3.50011e-05
4.37071e-05
5.50583e-05
7.50871e-05
9.69565e-05
9.22875e-05
3.19995e-05
3.72143e-05
4.51119e-05
6.14888e-05
9.04094e-05
8.66409e-05
2.99578e-05
3.34089e-05
3.92187e-05
5.19204e-05
8.26465e-05
7.85925e-05
2.97441e-05
3.27897e-05
3.80765e-05
4.92033e-05
7.74454e-05
6.87178e-05
3.16735e-05
3.53963e-05
4.14727e-05
5.26737e-05
7.62258e-05
5.78223e-05
4.2059e-05
5.12444e-05
6.59306e-05
9.1349e-05
0.000136149
4.3269e-05
3.64793e-05
4.55227e-05
5.96855e-05
8.50519e-05
0.000131042
4.79036e-05
3.34943e-05
4.26693e-05
5.62017e-05
8.02242e-05
0.000125313
5.22456e-05
3.35209e-05
4.31692e-05
5.62011e-05
7.7937e-05
0.000118823
5.58303e-05
3.64641e-05
4.64822e-05
5.89295e-05
7.83208e-05
0.000113524
5.85195e-05
4.114e-05
5.08097e-05
6.22205e-05
7.93738e-05
0.000108963
6.0867e-05
4.5615e-05
5.38425e-05
6.39161e-05
7.93836e-05
0.000105426
6.36519e-05
4.81574e-05
5.44219e-05
6.34791e-05
7.83415e-05
0.000103359
6.7234e-05
4.81509e-05
5.28775e-05
6.14587e-05
7.66511e-05
0.000103405
7.14037e-05
4.64335e-05
5.03871e-05
5.87529e-05
7.41133e-05
0.000105099
7.5249e-05
4.35346e-05
4.72741e-05
5.54851e-05
7.16248e-05
0.00011003
7.65499e-05
4.00352e-05
4.39834e-05
5.23028e-05
7.02023e-05
0.000117617
7.48642e-05
3.72078e-05
4.1753e-05
5.09553e-05
7.1599e-05
0.00012836
6.95791e-05
3.64074e-05
4.20926e-05
5.35017e-05
7.8449e-05
0.000142672
5.96136e-05
3.91237e-05
4.69405e-05
5.83693e-05
7.74744e-05
0.000112529
5.0788e-05
3.65832e-05
4.4906e-05
5.62567e-05
7.34068e-05
0.000102567
5.62922e-05
3.65463e-05
4.59965e-05
5.78393e-05
7.34854e-05
9.75781e-05
6.14665e-05
3.90253e-05
4.9946e-05
6.24932e-05
7.68812e-05
9.52525e-05
6.59654e-05
4.33268e-05
5.50343e-05
6.76428e-05
8.10835e-05
9.51021e-05
7.00695e-05
4.75422e-05
5.87359e-05
7.05356e-05
8.36158e-05
9.55537e-05
7.45888e-05
4.97514e-05
5.89448e-05
6.92402e-05
8.31236e-05
9.77714e-05
7.96125e-05
4.91218e-05
5.55269e-05
6.41518e-05
7.96844e-05
0.000101346
8.45776e-05
4.60929e-05
5.0183e-05
5.74581e-05
7.36566e-05
0.000104001
8.86141e-05
4.19618e-05
4.49157e-05
5.14112e-05
6.66911e-05
0.00010359
9.07824e-05
3.7608e-05
4.03406e-05
4.6538e-05
6.12378e-05
0.000102488
8.9677e-05
3.40597e-05
3.70553e-05
4.3481e-05
5.86856e-05
0.000103117
8.48324e-05
3.23748e-05
3.60627e-05
4.34596e-05
6.01135e-05
0.000107629
7.61899e-05
3.34162e-05
3.83182e-05
4.77681e-05
6.68011e-05
0.00011662
6.37612e-05
3.53997e-05
4.15514e-05
4.96678e-05
6.16899e-05
7.75382e-05
5.54293e-05
3.50964e-05
4.24503e-05
5.17827e-05
6.41702e-05
7.93249e-05
6.28695e-05
3.67303e-05
4.56421e-05
5.63416e-05
6.92912e-05
8.30712e-05
7.10387e-05
3.9923e-05
5.06362e-05
6.27146e-05
7.58342e-05
8.78936e-05
7.94829e-05
4.35966e-05
5.52168e-05
6.74074e-05
7.99746e-05
9.05824e-05
8.76411e-05
4.56979e-05
5.64457e-05
6.71735e-05
7.86056e-05
8.87427e-05
9.45779e-05
4.517e-05
5.33663e-05
6.13803e-05
7.16492e-05
8.40675e-05
9.93367e-05
4.21146e-05
4.73504e-05
5.25524e-05
6.21141e-05
7.85476e-05
0.000101201
3.7887e-05
4.09746e-05
4.44905e-05
5.35034e-05
7.38124e-05
9.98598e-05
3.39478e-05
3.61174e-05
3.94051e-05
4.78978e-05
7.00839e-05
9.56887e-05
3.11551e-05
3.31509e-05
3.67558e-05
4.54328e-05
6.87169e-05
8.93359e-05
2.99958e-05
3.22204e-05
3.6383e-05
4.589e-05
7.0641e-05
8.13732e-05
3.04734e-05
3.34216e-05
3.87007e-05
4.97073e-05
7.5544e-05
7.18767e-05
3.28423e-05
3.71274e-05
4.43344e-05
5.74199e-05
8.368e-05
6.11524e-05
5.47126e-05
0.000114372
6.41475e-05
4.72815e-05
4.01377e-05
3.68689e-05
6.42508e-05
0.000103822
6.32111e-05
4.95622e-05
4.3037e-05
3.95953e-05
7.04359e-05
9.67022e-05
6.47147e-05
5.27049e-05
4.61958e-05
4.24675e-05
7.4207e-05
9.18122e-05
6.68209e-05
5.5636e-05
4.88729e-05
4.41855e-05
7.56743e-05
8.97804e-05
6.90234e-05
5.81117e-05
5.05775e-05
4.37936e-05
7.45781e-05
9.20126e-05
7.16056e-05
5.99645e-05
5.08324e-05
4.11939e-05
7.20168e-05
9.72201e-05
7.44374e-05
6.12537e-05
4.965e-05
3.72443e-05
6.8778e-05
0.000104316
7.64618e-05
6.08831e-05
4.7053e-05
3.34082e-05
6.53858e-05
0.000111701
7.72257e-05
5.89941e-05
4.37921e-05
3.03496e-05
6.20316e-05
0.000119654
7.65691e-05
5.58226e-05
4.04167e-05
2.83626e-05
5.85863e-05
0.000127139
7.62806e-05
5.32292e-05
3.84011e-05
2.79718e-05
5.46965e-05
0.000135783
7.85382e-05
5.28015e-05
3.84524e-05
2.92809e-05
5.03355e-05
0.000144165
8.40688e-05
5.56042e-05
4.11139e-05
3.25013e-05
4.57784e-05
0.000154948
9.29239e-05
6.18484e-05
4.63719e-05
3.7556e-05
5.81917e-05
8.9984e-05
5.10627e-05
3.78357e-05
3.22453e-05
2.96534e-05
6.93643e-05
8.51596e-05
5.12781e-05
4.01646e-05
3.51677e-05
3.23936e-05
7.76214e-05
8.43651e-05
5.47398e-05
4.44571e-05
3.93071e-05
3.59052e-05
8.31159e-05
8.53628e-05
5.97122e-05
4.95273e-05
4.37748e-05
3.89472e-05
8.57815e-05
8.6888e-05
6.53315e-05
5.49864e-05
4.81287e-05
4.08088e-05
8.57875e-05
8.84048e-05
7.12608e-05
6.04992e-05
5.16632e-05
4.10938e-05
8.38365e-05
8.94499e-05
7.7013e-05
6.57595e-05
5.38476e-05
4.00614e-05
8.05728e-05
9.08807e-05
8.11548e-05
6.90377e-05
5.43613e-05
3.84836e-05
7.65532e-05
9.33265e-05
8.29384e-05
6.93279e-05
5.28899e-05
3.66101e-05
7.22352e-05
9.73363e-05
8.16601e-05
6.6316e-05
4.94962e-05
3.44039e-05
6.80225e-05
0.000101021
7.85893e-05
6.191e-05
4.60164e-05
3.30918e-05
6.34835e-05
0.000106054
7.57678e-05
5.77902e-05
4.35554e-05
3.28275e-05
5.83636e-05
0.000112302
7.56575e-05
5.61138e-05
4.31451e-05
3.4014e-05
5.29124e-05
0.000123928
7.95718e-05
5.73799e-05
4.48085e-05
3.64786e-05
5.54663e-05
6.28112e-05
4.08041e-05
3.19001e-05
2.75613e-05
2.50009e-05
6.56132e-05
5.86333e-05
3.99632e-05
3.25086e-05
2.87088e-05
2.61757e-05
7.46402e-05
5.69836e-05
4.18781e-05
3.52484e-05
3.11774e-05
2.78192e-05
8.26305e-05
5.72827e-05
4.49788e-05
3.92543e-05
3.45788e-05
2.97063e-05
8.94644e-05
5.96434e-05
4.90153e-05
4.42282e-05
3.88682e-05
3.19443e-05
9.45963e-05
6.40892e-05
5.46808e-05
4.99016e-05
4.34478e-05
3.41684e-05
9.74646e-05
7.05891e-05
6.22896e-05
5.62117e-05
4.78635e-05
3.64297e-05
9.73193e-05
7.82763e-05
7.04407e-05
6.19785e-05
5.11556e-05
3.83684e-05
9.42445e-05
8.50618e-05
7.69048e-05
6.58026e-05
5.28392e-05
3.90219e-05
8.88443e-05
9.05479e-05
7.92855e-05
6.5913e-05
5.1823e-05
3.80192e-05
8.18957e-05
9.22614e-05
7.75407e-05
6.27541e-05
4.89031e-05
3.65497e-05
7.41976e-05
9.10328e-05
7.35475e-05
5.82582e-05
4.57835e-05
3.54235e-05
6.6199e-05
8.95947e-05
7.04948e-05
5.53579e-05
4.41258e-05
3.54386e-05
5.83895e-05
9.13663e-05
6.92684e-05
5.4102e-05
4.40092e-05
3.65833e-05
5.17222e-05
0.00011641
7.48301e-05
5.5523e-05
4.45047e-05
3.84391e-05
6.14271e-05
0.000106522
7.43573e-05
5.70228e-05
4.56974e-05
3.88474e-05
6.80051e-05
9.78868e-05
7.49469e-05
5.84368e-05
4.59628e-05
3.75871e-05
7.21114e-05
9.12792e-05
7.51037e-05
5.85011e-05
4.42534e-05
3.39383e-05
7.39056e-05
8.82429e-05
7.40894e-05
5.65482e-05
4.03594e-05
2.84368e-05
7.37984e-05
8.89443e-05
7.10296e-05
5.20324e-05
3.48349e-05
2.25885e-05
7.26359e-05
9.20813e-05
6.54637e-05
4.5485e-05
2.89493e-05
1.766e-05
7.09775e-05
9.58464e-05
5.8107e-05
3.83526e-05
2.39557e-05
1.44157e-05
6.80902e-05
0.000100661
5.16416e-05
3.25451e-05
2.07939e-05
1.32889e-05
6.43129e-05
0.000106951
4.75328e-05
2.90418e-05
1.9839e-05
1.45483e-05
6.00679e-05
0.000112351
4.7338e-05
2.87507e-05
2.12371e-05
1.78062e-05
5.56196e-05
0.000117875
5.182e-05
3.19704e-05
2.50115e-05
2.24908e-05
5.09208e-05
0.000120615
6.05491e-05
3.89022e-05
3.11151e-05
2.78868e-05
4.59791e-05
0.000127263
7.023e-05
4.78148e-05
3.85288e-05
3.42558e-05
5.68424e-05
0.00010315
6.22736e-05
4.57252e-05
3.73499e-05
3.28017e-05
6.73693e-05
0.000104503
6.62999e-05
4.96998e-05
4.04639e-05
3.48411e-05
7.4146e-05
0.000105532
7.38411e-05
5.5762e-05
4.42008e-05
3.63795e-05
7.768e-05
0.000103348
8.22611e-05
6.2267e-05
4.72424e-05
3.61931e-05
7.85815e-05
9.8704e-05
8.83761e-05
6.72316e-05
4.83678e-05
3.39397e-05
7.78892e-05
9.38937e-05
9.01266e-05
6.82397e-05
4.65868e-05
3.02636e-05
7.63696e-05
9.15513e-05
8.62766e-05
6.43981e-05
4.2088e-05
2.57932e-05
7.45746e-05
9.07834e-05
7.80041e-05
5.66035e-05
3.59799e-05
2.12416e-05
7.2216e-05
9.01013e-05
6.7718e-05
4.70041e-05
2.98399e-05
1.78297e-05
6.88735e-05
8.97441e-05
5.77385e-05
3.85838e-05
2.54313e-05
1.64967e-05
6.48027e-05
8.94043e-05
5.07854e-05
3.36533e-05
2.36339e-05
1.73565e-05
6.03751e-05
9.07477e-05
4.81799e-05
3.20583e-05
2.41792e-05
1.99392e-05
5.57902e-05
9.23307e-05
5.06655e-05
3.42672e-05
2.70067e-05
2.34251e-05
5.10809e-05
9.85239e-05
5.61948e-05
3.90514e-05
3.14293e-05
2.75962e-05
5.46826e-05
6.46044e-05
4.19761e-05
3.2876e-05
2.83617e-05
2.55955e-05
6.61588e-05
6.91162e-05
4.51061e-05
3.55869e-05
3.05255e-05
2.72012e-05
7.65904e-05
7.72127e-05
5.34281e-05
4.15707e-05
3.44325e-05
2.91227e-05
8.50998e-05
8.54056e-05
6.64811e-05
5.08149e-05
3.98423e-05
3.11399e-05
9.15186e-05
9.3017e-05
8.04241e-05
6.17298e-05
4.60037e-05
3.3026e-05
9.51391e-05
9.92844e-05
9.06089e-05
7.07704e-05
5.10091e-05
3.43072e-05
9.55535e-05
0.000103549
9.47525e-05
7.4292e-05
5.2199e-05
3.33731e-05
9.30969e-05
0.000104196
9.20631e-05
7.07703e-05
4.84986e-05
2.98938e-05
8.82535e-05
9.98771e-05
8.29398e-05
6.15793e-05
4.15736e-05
2.52143e-05
8.13031e-05
9.22964e-05
7.03508e-05
5.04827e-05
3.4225e-05
2.13184e-05
7.33904e-05
8.34298e-05
5.88268e-05
4.15369e-05
2.90714e-05
1.94717e-05
6.5697e-05
7.59897e-05
5.05981e-05
3.58812e-05
2.65213e-05
1.97568e-05
5.87434e-05
7.15723e-05
4.6662e-05
3.3743e-05
2.63926e-05
2.13769e-05
5.24841e-05
7.05506e-05
4.62656e-05
3.45253e-05
2.83919e-05
2.43083e-05
2.26212e-05
1.74808e-05
1.43492e-05
1.2102e-05
1.18294e-05
1.3475e-05
1.6201e-05
1.86159e-05
1.97318e-05
1.94757e-05
1.88355e-05
1.9217e-05
2.05507e-05
2.17125e-05
2.02368e-05
1.41868e-05
1.01375e-05
7.07282e-06
5.49626e-06
5.5337e-06
6.89766e-06
8.79946e-06
1.04855e-05
1.16303e-05
1.25357e-05
1.39063e-05
1.54674e-05
1.7242e-05
1.77981e-05
1.16798e-05
7.07806e-06
3.9609e-06
2.2575e-06
1.71276e-06
2.08007e-06
3.04357e-06
4.34953e-06
5.8598e-06
7.6016e-06
9.73605e-06
1.20158e-05
1.48243e-05
1.67591e-05
1.00195e-05
4.86639e-06
1.99876e-06
7.7651e-07
3.871e-07
4.25724e-07
7.79634e-07
1.48545e-06
2.63053e-06
4.23295e-06
6.3366e-06
9.06114e-06
1.32314e-05
1.71907e-05
9.27651e-06
3.60415e-06
1.15599e-06
3.47657e-07
1.05108e-07
7.31378e-08
1.78421e-07
4.80387e-07
1.11016e-06
2.24944e-06
4.2722e-06
7.81524e-06
1.38251e-05
1.82983e-05
8.95388e-06
3.09955e-06
1.0544e-06
3.44332e-07
9.80012e-08
4.0877e-08
7.34053e-08
2.2045e-07
6.34925e-07
1.66789e-06
4.01453e-06
8.76531e-06
1.65627e-05
1.95702e-05
9.08183e-06
3.25297e-06
1.32334e-06
5.12639e-07
1.91764e-07
1.10166e-07
1.46783e-07
3.2442e-07
8.48421e-07
2.20646e-06
5.3226e-06
1.12129e-05
1.99802e-05
2.04272e-05
9.82286e-06
4.07215e-06
2.01174e-06
9.79035e-07
4.86485e-07
3.48825e-07
4.30865e-07
7.5207e-07
1.5802e-06
3.47761e-06
7.32607e-06
1.37112e-05
2.23486e-05
2.11268e-05
1.11229e-05
5.56515e-06
3.31594e-06
1.98521e-06
1.21321e-06
9.5037e-07
1.10822e-06
1.67647e-06
2.9116e-06
5.28278e-06
9.38171e-06
1.53748e-05
2.28774e-05
2.20461e-05
1.31678e-05
7.87612e-06
5.43329e-06
3.8797e-06
2.77928e-06
2.2564e-06
2.40038e-06
3.19656e-06
4.75396e-06
7.29331e-06
1.10971e-05
1.6146e-05
2.2147e-05
2.322e-05
1.56725e-05
1.1058e-05
8.51314e-06
7.05822e-06
5.78549e-06
4.90607e-06
4.7363e-06
5.44178e-06
7.0676e-06
9.50753e-06
1.28055e-05
1.68279e-05
2.15788e-05
2.53384e-05
1.93372e-05
1.54025e-05
1.28811e-05
1.17065e-05
1.07889e-05
9.85256e-06
9.17227e-06
9.19868e-06
1.03281e-05
1.23394e-05
1.52385e-05
1.84089e-05
2.25838e-05
2.73767e-05
2.28777e-05
1.98684e-05
1.7926e-05
1.72968e-05
1.73909e-05
1.72976e-05
1.67965e-05
1.60985e-05
1.60662e-05
1.68728e-05
1.88081e-05
2.08177e-05
2.48506e-05
3.09243e-05
2.82633e-05
2.52398e-05
2.3247e-05
2.30008e-05
2.39769e-05
2.53126e-05
2.60346e-05
2.57588e-05
2.48584e-05
2.39946e-05
2.41825e-05
2.47014e-05
2.7395e-05
2.0526e-05
1.48163e-05
1.13677e-05
8.86915e-06
8.07436e-06
8.86494e-06
1.07273e-05
1.27979e-05
1.42973e-05
1.49232e-05
1.49113e-05
1.51855e-05
1.70121e-05
1.95153e-05
1.69418e-05
1.1072e-05
7.37963e-06
4.8709e-06
3.57842e-06
3.43866e-06
4.28754e-06
5.65808e-06
7.08508e-06
8.28571e-06
9.29609e-06
1.05639e-05
1.25224e-05
1.47795e-05
1.41983e-05
8.5376e-06
4.65691e-06
2.43571e-06
1.34197e-06
9.83533e-07
1.18737e-06
1.77917e-06
2.65142e-06
3.75966e-06
5.1744e-06
7.02306e-06
9.3332e-06
1.19006e-05
1.37282e-05
7.44507e-06
3.17515e-06
1.17476e-06
4.33959e-07
2.05276e-07
2.16558e-07
4.01292e-07
8.00951e-07
1.52608e-06
2.70107e-06
4.32483e-06
6.51199e-06
9.58105e-06
1.43608e-05
7.14529e-06
2.53242e-06
7.64404e-07
2.21672e-07
6.20707e-08
3.47216e-08
8.34508e-08
2.4453e-07
6.22745e-07
1.36543e-06
2.71133e-06
5.07856e-06
9.17037e-06
1.5181e-05
7.13294e-06
2.31681e-06
7.36537e-07
2.24681e-07
6.04347e-08
2.2488e-08
3.6743e-08
1.1376e-07
3.44798e-07
9.40802e-07
2.33788e-06
5.31451e-06
1.05713e-05
1.55022e-05
7.0745e-06
2.47366e-06
8.97541e-07
3.17031e-07
1.12044e-07
6.22872e-08
7.76791e-08
1.64367e-07
4.355e-07
1.18604e-06
3.03319e-06
6.82197e-06
1.29248e-05
1.55928e-05
7.30521e-06
3.04568e-06
1.32466e-06
5.89685e-07
2.81543e-07
2.02279e-07
2.38931e-07
3.94449e-07
8.24806e-07
1.90634e-06
4.32114e-06
8.72574e-06
1.50877e-05
1.58639e-05
8.25242e-06
4.03824e-06
2.19091e-06
1.21628e-06
7.21047e-07
5.72248e-07
6.53455e-07
9.52865e-07
1.64544e-06
3.1107e-06
5.92916e-06
1.04809e-05
1.64898e-05
1.68547e-05
9.92578e-06
5.61515e-06
3.68738e-06
2.49138e-06
1.73209e-06
1.42045e-06
1.51812e-06
1.99913e-06
2.97619e-06
4.71108e-06
7.58934e-06
1.17791e-05
1.69278e-05
1.848e-05
1.21486e-05
8.00198e-06
6.05559e-06
4.8095e-06
3.81932e-06
3.21499e-06
3.14376e-06
3.67189e-06
4.84078e-06
6.6714e-06
9.32752e-06
1.287e-05
1.70221e-05
2.12316e-05
1.56665e-05
1.16173e-05
9.53509e-06
8.53972e-06
7.58581e-06
6.7202e-06
6.19814e-06
6.33698e-06
7.37253e-06
9.14675e-06
1.16025e-05
1.45682e-05
1.81607e-05
2.40435e-05
1.96664e-05
1.60764e-05
1.39681e-05
1.35305e-05
1.31453e-05
1.25157e-05
1.17283e-05
1.11114e-05
1.1364e-05
1.25879e-05
1.48256e-05
1.72666e-05
2.1471e-05
2.9014e-05
2.59456e-05
2.144e-05
1.90765e-05
1.8878e-05
1.94029e-05
1.96613e-05
1.93962e-05
1.85755e-05
1.78903e-05
1.79468e-05
1.92578e-05
2.06963e-05
2.46086e-05
1.58067e-05
1.05057e-05
7.44453e-06
5.30535e-06
4.31259e-06
4.35082e-06
5.30033e-06
6.73981e-06
8.24226e-06
9.41905e-06
1.01825e-05
1.0766e-05
1.20855e-05
1.48242e-05
1.22224e-05
7.15832e-06
4.23643e-06
2.59282e-06
1.7863e-06
1.56692e-06
1.89643e-06
2.62012e-06
3.58803e-06
4.62345e-06
5.66799e-06
6.78988e-06
8.45964e-06
1.08663e-05
1.05437e-05
5.46305e-06
2.50898e-06
1.16236e-06
6.07788e-07
4.20111e-07
4.84441e-07
7.43752e-07
1.1976e-06
1.8671e-06
2.81708e-06
4.15654e-06
6.00551e-06
8.2815e-06
1.06473e-05
4.99906e-06
1.81836e-06
5.89358e-07
1.99587e-07
8.57369e-08
8.27417e-08
1.55238e-07
3.33376e-07
6.98718e-07
1.37161e-06
2.44516e-06
3.89878e-06
5.93401e-06
1.08715e-05
4.84346e-06
1.56551e-06
4.51045e-07
1.2774e-07
3.2983e-08
1.40015e-08
3.12976e-08
1.00291e-07
2.81936e-07
6.72887e-07
1.39963e-06
2.70454e-06
4.9056e-06
1.08138e-05
4.66611e-06
1.50332e-06
4.52315e-07
1.30359e-07
3.30821e-08
1.07232e-08
1.5216e-08
4.80789e-08
1.5208e-07
4.2795e-07
1.07854e-06
2.49204e-06
5.21123e-06
1.03581e-05
4.4226e-06
1.58357e-06
5.23084e-07
1.70278e-07
5.72244e-08
3.08475e-08
3.57308e-08
7.04497e-08
1.83114e-07
5.03255e-07
1.32275e-06
3.14395e-06
6.52045e-06
9.89503e-06
4.51703e-06
1.87594e-06
7.31737e-07
3.00232e-07
1.42036e-07
1.04802e-07
1.18659e-07
1.80335e-07
3.5713e-07
8.27492e-07
1.96169e-06
4.27892e-06
8.20681e-06
1.00131e-05
5.17494e-06
2.42494e-06
1.19654e-06
6.2204e-07
3.73825e-07
3.09002e-07
3.45016e-07
4.72761e-07
7.77788e-07
1.47222e-06
2.95489e-06
5.67947e-06
9.86837e-06
1.11317e-05
6.34987e-06
3.39497e-06
2.0908e-06
1.33979e-06
9.34444e-07
7.91172e-07
8.45546e-07
1.07722e-06
1.56119e-06
2.48979e-06
4.22865e-06
7.1215e-06
1.11824e-05
1.29346e-05
7.97541e-06
5.04387e-06
3.69336e-06
2.79348e-06
2.16338e-06
1.83011e-06
1.81509e-06
2.12898e-06
2.80299e-06
3.91892e-06
5.74068e-06
8.49061e-06
1.21085e-05
1.58475e-05
1.08019e-05
7.66401e-06
6.36607e-06
5.42551e-06
4.57871e-06
3.92751e-06
3.62833e-06
3.82069e-06
4.59546e-06
5.85948e-06
7.67537e-06
1.01407e-05
1.32369e-05
1.90027e-05
1.47117e-05
1.14341e-05
1.02533e-05
9.4956e-06
8.65711e-06
7.7375e-06
6.97306e-06
6.66583e-06
7.18242e-06
8.44955e-06
1.03512e-05
1.26069e-05
1.57948e-05
2.4668e-05
2.05045e-05
1.61852e-05
1.49729e-05
1.464e-05
1.4191e-05
1.34176e-05
1.24248e-05
1.14398e-05
1.11744e-05
1.19136e-05
1.37837e-05
1.57022e-05
1.96622e-05
1.02446e-05
6.10744e-06
3.96294e-06
2.67172e-06
2.00279e-06
1.79755e-06
2.0653e-06
2.71267e-06
3.6378e-06
4.65248e-06
5.62954e-06
6.46856e-06
7.56743e-06
9.30387e-06
8.25772e-06
4.0411e-06
1.97178e-06
1.08275e-06
7.08769e-07
5.80222e-07
6.49357e-07
8.84565e-07
1.28995e-06
1.84524e-06
2.53439e-06
3.37077e-06
4.61431e-06
6.50053e-06
7.58544e-06
3.21754e-06
1.15273e-06
4.30297e-07
2.02293e-07
1.33971e-07
1.45678e-07
2.1406e-07
3.54437e-07
6.03586e-07
1.02898e-06
1.74993e-06
2.94571e-06
4.67777e-06
7.38275e-06
2.87848e-06
8.672e-07
2.46574e-07
7.44546e-08
2.71604e-08
2.19665e-08
3.83507e-08
8.50261e-08
1.98455e-07
4.51766e-07
9.47048e-07
1.79591e-06
3.10176e-06
7.00119e-06
2.64723e-06
7.87557e-07
2.29264e-07
6.38067e-08
1.51455e-08
4.39858e-09
7.26696e-09
2.5033e-08
8.01509e-08
2.22547e-07
5.41953e-07
1.17296e-06
2.26178e-06
6.39939e-06
2.4425e-06
7.82864e-07
2.35426e-07
6.41845e-08
1.51364e-08
4.01522e-09
4.19128e-09
1.33983e-08
4.68223e-08
1.45944e-07
3.98812e-07
9.7371e-07
2.13612e-06
5.71535e-06
2.32856e-06
8.3083e-07
2.54391e-07
7.45358e-08
2.27519e-08
1.12731e-08
1.15806e-08
2.07075e-08
5.45157e-08
1.59621e-07
4.48922e-07
1.15209e-06
2.63465e-06
5.42123e-06
2.4848e-06
9.61762e-07
3.26442e-07
1.17842e-07
5.39552e-08
4.07741e-08
4.35056e-08
5.88976e-08
1.09044e-07
2.58027e-07
6.63719e-07
1.62634e-06
3.56206e-06
5.76443e-06
2.92812e-06
1.20075e-06
5.10558e-07
2.39762e-07
1.48244e-07
1.30197e-07
1.40432e-07
1.74917e-07
2.66315e-07
5.01553e-07
1.08781e-06
2.37743e-06
4.76645e-06
6.85957e-06
3.57204e-06
1.71636e-06
9.2661e-07
5.52149e-07
3.96894e-07
3.57541e-07
3.79086e-07
4.52577e-07
6.19163e-07
9.78336e-07
1.77129e-06
3.36978e-06
6.09466e-06
8.26654e-06
4.53466e-06
2.75544e-06
1.82599e-06
1.2846e-06
9.90227e-07
8.72541e-07
8.84088e-07
1.0122e-06
1.29335e-06
1.80526e-06
2.78472e-06
4.58396e-06
7.42897e-06
1.04242e-05
6.44212e-06
4.66738e-06
3.60892e-06
2.82927e-06
2.28062e-06
1.95693e-06
1.85971e-06
2.0055e-06
2.42537e-06
3.12081e-06
4.23793e-06
6.0519e-06
8.77141e-06
1.30929e-05
9.58796e-06
7.77777e-06
6.66293e-06
5.64585e-06
4.7589e-06
4.06448e-06
3.66e-06
3.64502e-06
4.12855e-06
5.0241e-06
6.30935e-06
8.04171e-06
1.05749e-05
1.78916e-05
1.41369e-05
1.19469e-05
1.10269e-05
1.00085e-05
8.87949e-06
7.73333e-06
6.7904e-06
6.26549e-06
6.49805e-06
7.4614e-06
9.01785e-06
1.0676e-05
1.33027e-05
6.72291e-06
3.38063e-06
1.80618e-06
1.095e-06
7.64572e-07
6.35468e-07
6.81067e-07
8.7744e-07
1.24655e-06
1.7884e-06
2.47026e-06
3.18606e-06
4.06514e-06
5.12378e-06
5.76716e-06
2.35383e-06
8.56283e-07
3.61688e-07
2.10782e-07
1.65021e-07
1.7879e-07
2.33892e-07
3.4386e-07
5.38259e-07
8.42604e-07
1.28572e-06
2.00855e-06
3.21087e-06
5.17485e-06
1.87524e-06
5.05784e-07
1.38397e-07
5.12882e-08
3.0266e-08
3.216e-08
4.53904e-08
7.29355e-08
1.33221e-07
2.65008e-07
5.45104e-07
1.11612e-06
2.12369e-06
4.75776e-06
1.64235e-06
4.13111e-07
1.03268e-07
2.73704e-08
7.54426e-09
4.02348e-09
5.99472e-09
1.3577e-08
3.70181e-08
1.05189e-07
2.77637e-07
6.49164e-07
1.32864e-06
4.11232e-06
1.40295e-06
3.95794e-07
1.1041e-07
2.91828e-08
6.37809e-09
1.26096e-09
9.85268e-10
3.82032e-09
1.54598e-08
5.40221e-08
1.60732e-07
4.07459e-07