/*--------------------------------*- C++ -*----------------------------------*\
| =========                 |                                                 |
| \\      /  F ield         | OpenFOAM: The Open Source CFD Toolbox           |
|  \\    /   O peration     | Version:  v2106                                 |
|   \\  /    A nd           | Website:  www.openfoam.com                      |
|    \\/     M anipulation  |                                                 |
\*---------------------------------------------------------------------------*/
FoamFile
{
    version     2.0;
    format      ascii;
    arch        "LSB;label=32;scalar=64";
    class       volScalarField;
    location    "0.000216";
    object      alphat;
}
// * * * * * * * * * * * * * * * * * * * * * * * * * * * * * * * * * * * * * //

dimensions      [1 -1 -1 0 0 0 0];

internalField   nonuniform List<scalar> 
17924
(
2.89723e-16
1.53665e-16
1.22819e-16
1.1466e-16
1.26765e-16
1.0488e-16
1.00181e-16
9.90813e-17
9.89209e-17
9.91296e-17
9.95276e-17
1.37359e-16
1.06049e-16
9.87448e-17
9.72192e-17
9.69427e-17
9.69211e-17
9.69618e-17
1.66136e-16
1.12889e-16
1.00071e-16
9.735e-17
9.68327e-17
9.67361e-17
9.67131e-17
2.0108e-16
1.21019e-16
1.01756e-16
9.76662e-17
9.68952e-17
9.67541e-17
9.67179e-17
2.36304e-16
1.28358e-16
1.03096e-16
9.78988e-17
9.69521e-17
9.67874e-17
9.67474e-17
2.70238e-16
1.34205e-16
1.03887e-16
9.80006e-17
9.69878e-17
9.68215e-17
9.67817e-17
3.06266e-16
1.39513e-16
1.04393e-16
9.8042e-17
9.70253e-17
9.68715e-17
9.68355e-17
3.45281e-16
1.44743e-16
1.04801e-16
9.81105e-17
9.71407e-17
9.70252e-17
9.70057e-17
3.85148e-16
1.49796e-16
1.0528e-16
9.84581e-17
9.77029e-17
9.77587e-17
9.78331e-17
4.26989e-16
1.55695e-16
1.06612e-16
1.00229e-16
1.0047e-16
1.01385e-16
1.01985e-16
4.78368e-16
1.67412e-16
1.12181e-16
1.08246e-16
1.12952e-16
1.17993e-16
1.21401e-16
5.97642e-16
2.11088e-16
1.37602e-16
1.41833e-16
1.64423e-16
1.87394e-16
2.04057e-16
9.88776e-16
3.80376e-16
2.43883e-16
2.70592e-16
3.54736e-16
4.44742e-16
5.14056e-16
2.23241e-15
9.56368e-16
6.26517e-16
7.09842e-16
9.7941e-16
1.28837e-15
1.53974e-15
1.01465e-16
9.81342e-17
9.73843e-17
9.72015e-17
9.71681e-17
9.71912e-17
9.72453e-17
9.72867e-17
9.72821e-17
9.72012e-17
9.70777e-17
9.70978e-17
9.78834e-17
1.02081e-16
1.0386e-16
9.85474e-17
9.72752e-17
9.69887e-17
9.69179e-17
9.68917e-17
9.68776e-17
9.68658e-17
9.68526e-17
9.68333e-17
9.68306e-17
9.69666e-17
9.78149e-17
1.01922e-16
1.08912e-16
9.97745e-17
9.75403e-17
9.7043e-17
9.69288e-17
9.68889e-17
9.68633e-17
9.68405e-17
9.68207e-17
9.68041e-17
9.68151e-17
9.6974e-17
9.78698e-17
1.02093e-16
1.14907e-16
1.01206e-16
9.78582e-17
9.71215e-17
9.69623e-17
9.69142e-17
9.68855e-17
9.68601e-17
9.68373e-17
9.68186e-17
9.68287e-17
9.69902e-17
9.79077e-17
1.02236e-16
1.2075e-16
1.02461e-16
9.81086e-17
9.71822e-17
9.69928e-17
9.69407e-17
9.69111e-17
9.68848e-17
9.68604e-17
9.68398e-17
9.68474e-17
9.70087e-17
9.79445e-17
1.02388e-16
1.26088e-16
1.034e-16
9.82557e-17
9.72185e-17
9.70187e-17
9.69665e-17
9.69364e-17
9.69092e-17
9.68832e-17
9.68608e-17
9.6865e-17
9.702e-17
9.79428e-17
1.02371e-16
1.31464e-16
1.04182e-16
9.83461e-17
9.72424e-17
9.70435e-17
9.69938e-17
9.69643e-17
9.69366e-17
9.69091e-17
9.68844e-17
9.68836e-17
9.70222e-17
9.78761e-17
1.02035e-16
1.37025e-16
1.04882e-16
9.84125e-17
9.72687e-17
9.7079e-17
9.70355e-17
9.70082e-17
9.698e-17
9.69502e-17
9.69217e-17
9.69124e-17
9.70194e-17
9.77242e-17
1.01262e-16
1.42431e-16
1.05475e-16
9.84795e-17
9.73333e-17
9.71772e-17
9.71587e-17
9.71445e-17
9.71183e-17
9.70827e-17
9.70435e-17
9.70167e-17
9.70783e-17
9.75901e-17
1.00409e-16
1.47748e-16
1.06059e-16
9.8649e-17
9.75977e-17
9.75874e-17
9.769e-17
9.77464e-17
9.77386e-17
9.76844e-17
9.76058e-17
9.75291e-17
9.75297e-17
9.79098e-17
1.0063e-16
1.53723e-16
1.07099e-16
9.93275e-17
9.8731e-17
9.93637e-17
1.00031e-16
1.00442e-16
1.00567e-16
1.0048e-16
1.00276e-16
1.00044e-16
9.99757e-17
1.00683e-16
1.06257e-16
1.67937e-16
1.11389e-16
1.02224e-16
1.03263e-16
1.06506e-16
1.09613e-16
1.11674e-16
1.12608e-16
1.1268e-16
1.12279e-16
1.11765e-16
1.11898e-16
1.14831e-16
1.31735e-16
2.18986e-16
1.30662e-16
1.143e-16
1.2017e-16
1.32846e-16
1.45528e-16
1.54661e-16
1.59892e-16
1.61979e-16
1.62362e-16
1.62349e-16
1.64418e-16
1.74257e-16
2.19035e-16
3.91665e-16
2.05296e-16
1.62577e-16
1.79858e-16
2.21754e-16
2.66978e-16
3.01782e-16
3.24409e-16
3.36922e-16
3.43881e-16
3.49361e-16
3.59929e-16
3.85483e-16
4.83491e-16
9.78527e-17
9.73302e-17
9.71955e-17
9.7145e-17
9.71165e-17
9.70965e-17
9.70826e-17
9.7068e-17
9.70488e-17
9.70174e-17
9.69796e-17
9.69525e-17
9.70029e-17
9.73448e-17
9.82868e-17
9.74253e-17
9.72033e-17
9.71348e-17
9.70993e-17
9.70705e-17
9.70443e-17
9.7019e-17
9.69957e-17
9.6971e-17
9.69498e-17
9.69397e-17
9.70028e-17
9.73667e-17
9.91119e-17
9.76352e-17
9.72572e-17
9.71552e-17
9.71138e-17
9.7084e-17
9.70567e-17
9.70298e-17
9.70045e-17
9.6979e-17
9.6958e-17
9.69497e-17
9.70184e-17
9.74104e-17
1.00078e-16
9.78761e-17
9.73192e-17
9.71791e-17
9.71312e-17
9.71006e-17
9.70728e-17
9.7045e-17
9.70182e-17
9.69908e-17
9.69675e-17
9.69579e-17
9.70281e-17
9.74428e-17
1.00992e-16
9.80826e-17
9.73679e-17
9.71985e-17
9.71465e-17
9.71159e-17
9.70883e-17
9.70602e-17
9.70322e-17
9.70032e-17
9.69774e-17
9.69656e-17
9.70358e-17
9.74702e-17
1.01784e-16
9.82313e-17
9.73983e-17
9.72132e-17
9.71601e-17
9.71298e-17
9.71018e-17
9.70731e-17
9.70438e-17
9.70133e-17
9.69853e-17
9.69714e-17
9.70387e-17
9.74778e-17
1.02527e-16
9.8348e-17
9.74179e-17
9.72245e-17
9.7172e-17
9.71422e-17
9.71142e-17
9.70849e-17
9.70545e-17
9.70226e-17
9.69925e-17
9.69757e-17
9.70347e-17
9.74494e-17
1.03237e-16
9.84436e-17
9.74317e-17
9.72344e-17
9.71835e-17
9.71546e-17
9.71266e-17
9.70967e-17
9.70652e-17
9.70322e-17
9.70001e-17
9.69794e-17
9.7022e-17
9.73684e-17
1.03856e-16
9.85148e-17
9.7444e-17
9.72482e-17
9.72021e-17
9.71763e-17
9.71496e-17
9.71197e-17
9.7087e-17
9.70522e-17
9.70172e-17
9.69913e-17
9.70117e-17
9.72607e-17
1.04371e-16
9.8569e-17
9.74659e-17
9.72857e-17
9.72594e-17
9.72498e-17
9.72323e-17
9.72044e-17
9.71684e-17
9.71278e-17
9.70854e-17
9.70508e-17
9.70481e-17
9.7206e-17
1.04812e-16
9.86494e-17
9.75501e-17
9.74371e-17
9.7497e-17
9.75612e-17
9.7588e-17
9.75733e-17
9.75278e-17
9.74649e-17
9.73953e-17
9.73371e-17
9.73189e-17
9.75012e-17
1.05899e-16
9.9011e-17
9.78966e-17
9.80322e-17
9.84425e-17
9.8822e-17
9.90479e-17
9.91089e-17
9.90448e-17
9.89086e-17
9.87429e-17
9.86079e-17
9.85963e-17
9.92448e-17
1.10616e-16
1.0063e-16
9.92061e-17
1.0018e-16
1.01881e-16
1.03485e-16
1.04532e-16
1.04984e-16
1.04966e-16
1.04667e-16
1.0425e-16
1.03933e-16
1.04047e-16
1.06594e-16
1.29586e-16
1.07394e-16
1.03972e-16
1.07336e-16
1.13269e-16
1.19199e-16
1.2339e-16
1.25679e-16
1.26413e-16
1.26204e-16
1.25605e-16
1.25356e-16
1.26249e-16
1.33844e-16
9.74866e-17
9.73937e-17
9.73569e-17
9.73303e-17
9.73052e-17
9.72798e-17
9.72552e-17
9.72304e-17
9.72062e-17
9.71801e-17
9.71554e-17
9.71297e-17
9.71155e-17
9.71263e-17
9.75534e-17
9.741e-17
9.73606e-17
9.73314e-17
9.73054e-17
9.72795e-17
9.72536e-17
9.72271e-17
9.72014e-17
9.71754e-17
9.7152e-17
9.71282e-17
9.71152e-17
9.7131e-17
9.76735e-17
9.74401e-17
9.7367e-17
9.73333e-17
9.73076e-17
9.72828e-17
9.72579e-17
9.72321e-17
9.72065e-17
9.71801e-17
9.71558e-17
9.71316e-17
9.71188e-17
9.71374e-17
9.78141e-17
9.7474e-17
9.73746e-17
9.73362e-17
9.73102e-17
9.72859e-17
9.72613e-17
9.72356e-17
9.72095e-17
9.71824e-17
9.71567e-17
9.71315e-17
9.71176e-17
9.71379e-17
9.79433e-17
9.7501e-17
9.73791e-17
9.73374e-17
9.73114e-17
9.72878e-17
9.72634e-17
9.72377e-17
9.72112e-17
9.71834e-17
9.71564e-17
9.71298e-17
9.7114e-17
9.71353e-17
9.80496e-17
9.7518e-17
9.73801e-17
9.7337e-17
9.73112e-17
9.72876e-17
9.7263e-17
9.72369e-17
9.72097e-17
9.71811e-17
9.7153e-17
9.71254e-17
9.71078e-17
9.71292e-17
9.81442e-17
9.75293e-17
9.73788e-17
9.7335e-17
9.73093e-17
9.72857e-17
9.72607e-17
9.72339e-17
9.7206e-17
9.71766e-17
9.71474e-17
9.71191e-17
9.70995e-17
9.71185e-17
9.82274e-17
9.75351e-17
9.73744e-17
9.73305e-17
9.73049e-17
9.72811e-17
9.72556e-17
9.72284e-17
9.71998e-17
9.71697e-17
9.71395e-17
9.71106e-17
9.70883e-17
9.71005e-17
9.8292e-17
9.7536e-17
9.73693e-17
9.73256e-17
9.73002e-17
9.72763e-17
9.72505e-17
9.72228e-17
9.71934e-17
9.71627e-17
9.71315e-17
9.7102e-17
9.70765e-17
9.70786e-17
9.83339e-17
9.75315e-17
9.73627e-17
9.73208e-17
9.72976e-17
9.72755e-17
9.72505e-17
9.72228e-17
9.71927e-17
9.71612e-17
9.71287e-17
9.70981e-17
9.70691e-17
9.706e-17
9.83524e-17
9.75279e-17
9.73632e-17
9.73297e-17
9.73171e-17
9.73035e-17
9.72832e-17
9.72562e-17
9.7224e-17
9.71893e-17
9.7153e-17
9.71188e-17
9.7086e-17
9.70725e-17
9.84111e-17
9.75504e-17
9.73932e-17
9.73921e-17
9.74233e-17
9.74482e-17
9.74513e-17
9.74317e-17
9.7395e-17
9.73488e-17
9.72981e-17
9.72499e-17
9.7207e-17
9.72068e-17
9.87686e-17
9.76928e-17
9.75363e-17
9.76494e-17
9.78442e-17
9.8019e-17
9.81165e-17
9.81326e-17
9.80856e-17
9.80013e-17
9.7899e-17
9.78005e-17
9.77195e-17
9.7774e-17
1.00272e-16
9.82433e-17
9.80375e-17
9.85124e-17
9.92547e-17
9.99578e-17
1.00406e-16
1.00586e-16
1.00548e-16
1.00374e-16
1.0013e-16
9.98914e-17
9.96901e-17
9.98788e-17
9.75797e-17
9.75536e-17
9.75342e-17
9.75142e-17
9.74932e-17
9.74708e-17
9.74481e-17
9.74247e-17
9.74011e-17
9.73773e-17
9.7355e-17
9.73321e-17
9.73139e-17
9.72948e-17
9.75788e-17
9.75461e-17
9.75251e-17
9.75051e-17
9.74842e-17
9.74624e-17
9.744e-17
9.74168e-17
9.73938e-17
9.73708e-17
9.73494e-17
9.73276e-17
9.73106e-17
9.72949e-17
9.75835e-17
9.75395e-17
9.75142e-17
9.7494e-17
9.74738e-17
9.74532e-17
9.7432e-17
9.741e-17
9.73879e-17
9.73657e-17
9.73449e-17
9.73241e-17
9.7308e-17
9.72937e-17
9.75903e-17
9.75322e-17
9.75036e-17
9.74834e-17
9.74636e-17
9.74435e-17
9.74228e-17
9.74013e-17
9.73795e-17
9.73576e-17
9.73369e-17
9.73163e-17
9.73005e-17
9.72873e-17
9.75938e-17
9.75229e-17
9.74919e-17
9.74721e-17
9.74527e-17
9.74331e-17
9.74126e-17
9.73913e-17
9.73696e-17
9.73478e-17
9.73271e-17
9.73065e-17
9.72901e-17
9.7277e-17
9.75934e-17
9.75113e-17
9.74789e-17
9.74596e-17
9.74404e-17
9.74209e-17
9.74002e-17
9.73786e-17
9.73567e-17
9.73349e-17
9.7314e-17
9.72935e-17
9.72767e-17
9.72639e-17
9.75914e-17
9.74993e-17
9.74656e-17
9.74464e-17
9.74271e-17
9.74074e-17
9.73863e-17
9.73643e-17
9.73421e-17
9.73198e-17
9.72986e-17
9.7278e-17
9.72602e-17
9.72476e-17
9.75865e-17
9.74851e-17
9.74503e-17
9.74311e-17
9.74116e-17
9.73914e-17
9.73699e-17
9.73473e-17
9.73245e-17
9.73016e-17
9.72797e-17
9.72589e-17
9.724e-17
9.72267e-17
9.75795e-17
9.74701e-17
9.74351e-17
9.74155e-17
9.73955e-17
9.73746e-17
9.73522e-17
9.73289e-17
9.73052e-17
9.72815e-17
9.72587e-17
9.72375e-17
9.72171e-17
9.72031e-17
9.75687e-17
9.74534e-17
9.74184e-17
9.73981e-17
9.73776e-17
9.73561e-17
9.7333e-17
9.7309e-17
9.72843e-17
9.72599e-17
9.7236e-17
9.72143e-17
9.71922e-17
9.71774e-17
9.75548e-17
9.7437e-17
9.74026e-17
9.73823e-17
9.73623e-17
9.73405e-17
9.73167e-17
9.72916e-17
9.72656e-17
9.72399e-17
9.72146e-17
9.7192e-17
9.71684e-17
9.71534e-17
9.75417e-17
9.74215e-17
9.73884e-17
9.73711e-17
9.73555e-17
9.7337e-17
9.73146e-17
9.72893e-17
9.72618e-17
9.72341e-17
9.72061e-17
9.71802e-17
9.71535e-17
9.71375e-17
9.75568e-17
9.74181e-17
9.73875e-17
9.73833e-17
9.73864e-17
9.7384e-17
9.73708e-17
9.73473e-17
9.7316e-17
9.72815e-17
9.72449e-17
9.72098e-17
9.71749e-17
9.71573e-17
9.76733e-17
9.74531e-17
9.74252e-17
9.74662e-17
9.75348e-17
9.75937e-17
9.76189e-17
9.761e-17
9.75741e-17
9.75225e-17
9.74618e-17
9.74016e-17
9.73426e-17
9.73144e-17
9.76954e-17
9.76803e-17
9.76647e-17
9.76474e-17
9.76287e-17
9.76082e-17
9.75874e-17
9.75657e-17
9.7544e-17
9.75224e-17
9.75015e-17
9.74802e-17
9.74614e-17
9.74382e-17
9.76761e-17
9.76616e-17
9.76456e-17
9.76285e-17
9.76097e-17
9.75898e-17
9.75695e-17
9.75484e-17
9.75276e-17
9.75072e-17
9.74879e-17
9.74686e-17
9.74517e-17
9.74335e-17
9.76567e-17
9.76415e-17
9.7624e-17
9.76072e-17
9.7589e-17
9.75703e-17
9.75512e-17
9.75315e-17
9.7512e-17
9.7493e-17
9.74751e-17
9.74576e-17
9.74431e-17
9.74277e-17
9.76368e-17
9.76201e-17
9.76024e-17
9.75863e-17
9.75685e-17
9.75506e-17
9.75322e-17
9.75133e-17
9.74946e-17
9.74766e-17
9.74597e-17
9.74436e-17
9.74308e-17
9.74177e-17
9.76157e-17
9.75977e-17
9.75803e-17
9.75651e-17
9.75478e-17
9.75306e-17
9.75127e-17
9.74945e-17
9.74766e-17
9.74595e-17
9.74434e-17
9.74282e-17
9.74164e-17
9.74044e-17
9.75936e-17
9.75745e-17
9.75576e-17
9.75431e-17
9.75263e-17
9.75095e-17
9.74919e-17
9.7474e-17
9.74566e-17
9.744e-17
9.74247e-17
9.74105e-17
9.73994e-17
9.73889e-17
9.75722e-17
9.75521e-17
9.75353e-17
9.75211e-17
9.75044e-17
9.74878e-17
9.74703e-17
9.74526e-17
9.74354e-17
9.74192e-17
9.74043e-17
9.73908e-17
9.73801e-17
9.73708e-17
9.75497e-17
9.75283e-17
9.75118e-17
9.74976e-17
9.7481e-17
9.74641e-17
9.74465e-17
9.74289e-17
9.74117e-17
9.73955e-17
9.73808e-17
9.73676e-17
9.7357e-17
9.73484e-17
9.75285e-17
9.75052e-17
9.74891e-17
9.74744e-17
9.74574e-17
9.74401e-17
9.74219e-17
9.74038e-17
9.73863e-17
9.73698e-17
9.73549e-17
9.7342e-17
9.73311e-17
9.73233e-17
9.7507e-17
9.74816e-17
9.74653e-17
9.74496e-17
9.74322e-17
9.74142e-17
9.73954e-17
9.73767e-17
9.73586e-17
9.73417e-17
9.73263e-17
9.73136e-17
9.7302e-17
9.72951e-17
9.74863e-17
9.74592e-17
9.74425e-17
9.74256e-17
9.74075e-17
9.73884e-17
9.73686e-17
9.73489e-17
9.73297e-17
9.73119e-17
9.72958e-17
9.72834e-17
9.72705e-17
9.72651e-17
9.74643e-17
9.74361e-17
9.7419e-17
9.74013e-17
9.73826e-17
9.73626e-17
9.7342e-17
9.73211e-17
9.73006e-17
9.72817e-17
9.72643e-17
9.7251e-17
9.72362e-17
9.72304e-17
9.74452e-17
9.74146e-17
9.7398e-17
9.73804e-17
9.73625e-17
9.73428e-17
9.73215e-17
9.72991e-17
9.7276e-17
9.72544e-17
9.72342e-17
9.7218e-17
9.72003e-17
9.71917e-17
9.74336e-17
9.73952e-17
9.73794e-17
9.73659e-17
9.73542e-17
9.734e-17
9.73216e-17
9.72991e-17
9.72735e-17
9.7248e-17
9.72227e-17
9.71996e-17
9.71767e-17
9.71609e-17
9.77686e-17
9.77574e-17
9.77439e-17
9.77283e-17
9.77113e-17
9.76925e-17
9.76732e-17
9.7653e-17
9.76323e-17
9.76117e-17
9.75911e-17
9.75697e-17
9.75492e-17
9.75241e-17
9.77401e-17
9.77307e-17
9.77165e-17
9.77012e-17
9.76838e-17
9.76654e-17
9.76466e-17
9.7627e-17
9.76074e-17
9.75881e-17
9.75693e-17
9.75501e-17
9.75322e-17
9.75127e-17
9.77112e-17
9.77017e-17
9.76862e-17
9.76712e-17
9.76542e-17
9.76371e-17
9.76196e-17
9.76015e-17
9.75834e-17
9.75656e-17
9.75483e-17
9.75313e-17
9.75159e-17
9.74999e-17
9.76812e-17
9.76712e-17
9.76558e-17
9.76415e-17
9.76248e-17
9.76085e-17
9.75917e-17
9.75747e-17
9.75579e-17
9.75415e-17
9.75256e-17
9.75103e-17
9.74972e-17
9.74839e-17
9.76507e-17
9.76403e-17
9.76252e-17
9.76116e-17
9.75954e-17
9.75799e-17
9.75639e-17
9.75479e-17
9.75323e-17
9.75172e-17
9.75028e-17
9.7489e-17
9.74773e-17
9.74655e-17
9.76202e-17
9.76094e-17
9.75948e-17
9.75816e-17
9.7566e-17
9.75509e-17
9.75354e-17
9.75201e-17
9.75054e-17
9.74914e-17
9.74783e-17
9.74661e-17
9.74559e-17
9.7446e-17
9.75916e-17
9.75803e-17
9.75659e-17
9.75528e-17
9.75373e-17
9.75223e-17
9.75071e-17
9.74923e-17
9.74783e-17
9.74653e-17
9.74534e-17
9.74425e-17
9.74336e-17
9.74259e-17
9.75625e-17
9.75506e-17
9.75366e-17
9.75234e-17
9.7508e-17
9.74931e-17
9.74781e-17
9.74636e-17
9.74501e-17
9.74376e-17
9.74265e-17
9.74167e-17
9.74088e-17
9.74028e-17
9.75354e-17
9.75221e-17
9.75085e-17
9.74948e-17
9.74794e-17
9.74641e-17
9.74491e-17
9.74346e-17
9.74213e-17
9.74091e-17
9.73985e-17
9.73895e-17
9.73826e-17
9.73782e-17
9.75087e-17
9.74935e-17
9.74795e-17
9.74651e-17
9.74494e-17
9.74338e-17
9.74186e-17
9.74041e-17
9.73909e-17
9.73788e-17
9.73684e-17
9.736e-17
9.73535e-17
9.73512e-17
9.74832e-17
9.74665e-17
9.7452e-17
9.74365e-17
9.74202e-17
9.74039e-17
9.73881e-17
9.7373e-17
9.73593e-17
9.7347e-17
9.73365e-17
9.73288e-17
9.73224e-17
9.7323e-17
9.74565e-17
9.74386e-17
9.74235e-17
9.7407e-17
9.73898e-17
9.73728e-17
9.73563e-17
9.73405e-17
9.73261e-17
9.73132e-17
9.73023e-17
9.72947e-17
9.72875e-17
9.72899e-17
9.7431e-17
9.74122e-17
9.73968e-17
9.7379e-17
9.7361e-17
9.73428e-17
9.73249e-17
9.73077e-17
9.72915e-17
9.72774e-17
9.72653e-17
9.72568e-17
9.72481e-17
9.72501e-17
9.7404e-17
9.73841e-17
9.73684e-17
9.73501e-17
9.73317e-17
9.73131e-17
9.72947e-17
9.72762e-17
9.72586e-17
9.72429e-17
9.72291e-17
9.72179e-17
9.72081e-17
9.72057e-17
9.77987e-17
9.77899e-17
9.77779e-17
9.77642e-17
9.77489e-17
9.77322e-17
9.77148e-17
9.76962e-17
9.76768e-17
9.7657e-17
9.76369e-17
9.76155e-17
9.75944e-17
9.75674e-17
9.77647e-17
9.77579e-17
9.77448e-17
9.7731e-17
9.77152e-17
9.76986e-17
9.76816e-17
9.76636e-17
9.76451e-17
9.76265e-17
9.76079e-17
9.75885e-17
9.75696e-17
9.75488e-17
9.77305e-17
9.77229e-17
9.77084e-17
9.76948e-17
9.76791e-17
9.76639e-17
9.76479e-17
9.76314e-17
9.76145e-17
9.75975e-17
9.75804e-17
9.7563e-17
9.75464e-17
9.75292e-17
9.76947e-17
9.76862e-17
9.76718e-17
9.76587e-17
9.76433e-17
9.76287e-17
9.76134e-17
9.75978e-17
9.7582e-17
9.75664e-17
9.75507e-17
9.75352e-17
9.75208e-17
9.75062e-17
9.76588e-17
9.76496e-17
9.76352e-17
9.76224e-17
9.76075e-17
9.75935e-17
9.7579e-17
9.75644e-17
9.75499e-17
9.75357e-17
9.75215e-17
9.75077e-17
9.74948e-17
9.74818e-17
9.76231e-17
9.76131e-17
9.7599e-17
9.75863e-17
9.75718e-17
9.7558e-17
9.7544e-17
9.75301e-17
9.75167e-17
9.75037e-17
9.74911e-17
9.7479e-17
9.74676e-17
9.74567e-17
9.75895e-17
9.75787e-17
9.75645e-17
9.75515e-17
9.75371e-17
9.75233e-17
9.75097e-17
9.74964e-17
9.74839e-17
9.7472e-17
9.74609e-17
9.74504e-17
9.74408e-17
9.74321e-17
9.7556e-17
9.7544e-17
9.753e-17
9.75167e-17
9.75024e-17
9.74886e-17
9.74753e-17
9.74625e-17
9.74506e-17
9.74396e-17
9.74297e-17
9.74205e-17
9.74126e-17
9.7406e-17
9.75247e-17
9.75113e-17
9.74974e-17
9.74834e-17
9.74689e-17
9.74549e-17
9.74416e-17
9.74291e-17
9.74177e-17
9.74073e-17
9.73984e-17
9.73905e-17
9.73841e-17
9.73798e-17
9.74935e-17
9.74787e-17
9.74645e-17
9.74498e-17
9.7435e-17
9.74208e-17
9.74075e-17
9.73952e-17
9.73842e-17
9.73744e-17
9.73662e-17
9.73594e-17
9.73541e-17
9.73523e-17
9.74644e-17
9.74481e-17
9.74334e-17
9.74179e-17
9.74026e-17
9.73877e-17
9.73738e-17
9.73612e-17
9.73502e-17
9.73409e-17
9.73335e-17
9.7328e-17
9.73237e-17
9.73249e-17
9.74339e-17
9.74165e-17
9.74015e-17
9.73851e-17
9.73692e-17
9.73537e-17
9.73393e-17
9.73264e-17
9.73154e-17
9.73064e-17
9.72995e-17
9.72948e-17
9.72907e-17
9.72943e-17
9.74043e-17
9.73862e-17
9.73712e-17
9.73539e-17
9.73369e-17
9.73203e-17
9.73048e-17
9.72912e-17
9.72796e-17
9.72706e-17
9.7264e-17
9.72596e-17
9.72555e-17
9.72604e-17
9.73712e-17
9.73529e-17
9.73377e-17
9.73197e-17
9.73021e-17
9.72853e-17
9.72696e-17
9.72557e-17
9.7244e-17
9.72347e-17
9.72277e-17
9.72224e-17
9.7218e-17
9.72222e-17
9.77806e-17
9.7775e-17
9.77649e-17
9.7754e-17
9.77413e-17
9.77272e-17
9.77124e-17
9.76963e-17
9.76791e-17
9.76611e-17
9.76425e-17
9.76219e-17
9.7601e-17
9.75738e-17
9.77446e-17
9.77404e-17
9.7729e-17
9.77176e-17
9.7704e-17
9.76899e-17
9.7675e-17
9.76589e-17
9.76421e-17
9.76248e-17
9.7607e-17
9.75877e-17
9.7568e-17
9.75459e-17
9.7708e-17
9.77028e-17
9.76899e-17
9.76783e-17
9.76646e-17
9.76513e-17
9.7637e-17
9.7622e-17
9.76063e-17
9.75902e-17
9.75735e-17
9.75558e-17
9.7538e-17
9.75191e-17
9.76698e-17
9.76633e-17
9.76504e-17
9.7639e-17
9.76253e-17
9.76122e-17
9.75981e-17
9.75836e-17
9.75687e-17
9.75535e-17
9.75377e-17
9.75215e-17
9.75055e-17
9.74888e-17
9.76318e-17
9.7624e-17
9.76108e-17
9.75994e-17
9.75858e-17
9.7573e-17
9.75594e-17
9.75457e-17
9.75317e-17
9.75177e-17
9.75033e-17
9.74886e-17
9.7474e-17
9.74591e-17
9.75937e-17
9.75845e-17
9.75715e-17
9.75598e-17
9.75465e-17
9.75336e-17
9.75205e-17
9.75073e-17
9.74941e-17
9.74811e-17
9.74681e-17
9.74551e-17
9.7442e-17
9.74291e-17
9.75569e-17
9.75464e-17
9.75332e-17
9.75209e-17
9.75077e-17
9.74948e-17
9.74821e-17
9.74695e-17
9.74573e-17
9.74454e-17
9.7434e-17
9.74227e-17
9.74114e-17
9.74006e-17
9.75198e-17
9.75077e-17
9.74947e-17
9.74819e-17
9.74688e-17
9.74559e-17
9.74436e-17
9.74316e-17
9.74202e-17
9.74094e-17
9.73993e-17
9.73896e-17
9.73801e-17
9.73715e-17
9.74841e-17
9.74709e-17
9.74578e-17
9.74442e-17
9.74309e-17
9.7418e-17
9.74059e-17
9.73944e-17
9.73839e-17
9.7374e-17
9.73652e-17
9.73572e-17
9.73494e-17
9.73434e-17
9.74482e-17
9.74334e-17
9.742e-17
9.74059e-17
9.73928e-17
9.738e-17
9.73683e-17
9.73574e-17
9.73477e-17
9.73389e-17
9.73312e-17
9.73248e-17
9.73187e-17
9.73154e-17
9.74141e-17
9.73978e-17
9.73841e-17
9.73693e-17
9.7356e-17
9.7343e-17
9.73315e-17
9.73209e-17
9.73119e-17
9.73042e-17
9.72979e-17
9.72932e-17
9.72889e-17
9.72887e-17
9.73783e-17
9.73607e-17
9.73469e-17
9.73316e-17
9.73182e-17
9.73055e-17
9.72942e-17
9.72843e-17
9.72761e-17
9.72694e-17
9.72646e-17
9.72613e-17
9.7258e-17
9.726e-17
9.73435e-17
9.73255e-17
9.73117e-17
9.72959e-17
9.72817e-17
9.72687e-17
9.72573e-17
9.72477e-17
9.724e-17
9.72344e-17
9.72308e-17
9.72283e-17
9.72256e-17
9.7229e-17
9.73033e-17
9.72864e-17
9.72723e-17
9.72569e-17
9.7243e-17
9.72308e-17
9.72201e-17
9.72113e-17
9.72045e-17
9.71995e-17
9.71963e-17
9.71933e-17
9.71907e-17
9.7195e-17
9.77053e-17
9.77037e-17
9.7697e-17
9.76894e-17
9.76801e-17
9.76699e-17
9.76588e-17
9.76464e-17
9.76327e-17
9.76181e-17
9.76023e-17
9.75847e-17
9.7566e-17
9.75416e-17
9.76696e-17
9.76688e-17
9.76601e-17
9.76518e-17
9.76414e-17
9.76307e-17
9.76191e-17
9.76063e-17
9.75925e-17
9.75778e-17
9.75624e-17
9.7545e-17
9.75266e-17
9.75045e-17
9.76333e-17
9.76306e-17
9.76205e-17
9.76116e-17
9.76008e-17
9.75904e-17
9.75788e-17
9.75664e-17
9.75532e-17
9.75393e-17
9.75244e-17
9.75078e-17
9.74908e-17
9.74717e-17
9.75949e-17
9.75906e-17
9.75802e-17
9.7571e-17
9.75599e-17
9.75492e-17
9.75375e-17
9.75251e-17
9.7512e-17
9.74983e-17
9.74837e-17
9.74678e-17
9.74516e-17
9.7434e-17
9.75566e-17
9.75503e-17
9.75395e-17
9.75299e-17
9.75186e-17
9.75077e-17
9.7496e-17
9.74839e-17
9.74713e-17
9.74583e-17
9.74444e-17
9.74295e-17
9.74142e-17
9.73975e-17
9.75177e-17
9.75097e-17
9.74987e-17
9.74884e-17
9.7477e-17
9.74659e-17
9.74543e-17
9.74423e-17
9.74301e-17
9.74177e-17
9.74046e-17
9.7391e-17
9.73764e-17
9.73612e-17
9.74797e-17
9.74699e-17
9.74584e-17
9.74473e-17
9.74357e-17
9.74243e-17
9.74128e-17
9.74012e-17
9.73896e-17
9.73781e-17
9.73661e-17
9.7354e-17
9.73408e-17
9.73275e-17
9.74406e-17
9.74292e-17
9.74176e-17
9.74058e-17
9.73943e-17
9.73827e-17
9.73715e-17
9.73604e-17
9.73495e-17
9.73387e-17
9.73279e-17
9.73171e-17
9.73053e-17
9.72941e-17
9.74021e-17
9.73894e-17
9.73776e-17
9.73651e-17
9.73535e-17
9.73419e-17
9.73311e-17
9.73205e-17
9.73104e-17
9.73007e-17
9.72911e-17
9.7282e-17
9.72719e-17
9.72632e-17
9.73625e-17
9.73482e-17
9.73365e-17
9.73237e-17
9.73123e-17
9.73012e-17
9.7291e-17
9.72812e-17
9.72722e-17
9.72635e-17
9.72553e-17
9.7248e-17
9.72396e-17
9.72336e-17
9.73244e-17
9.73085e-17
9.72968e-17
9.72837e-17
9.72724e-17
9.72616e-17
9.72519e-17
9.7243e-17
9.72351e-17
9.72278e-17
9.72214e-17
9.72161e-17
9.72097e-17
9.72066e-17
9.72838e-17
9.7267e-17
9.72555e-17
9.72427e-17
9.72317e-17
9.72218e-17
9.7213e-17
9.72053e-17
9.71987e-17
9.7193e-17
9.71885e-17
9.71851e-17
9.71806e-17
9.71795e-17
9.7244e-17
9.72276e-17
9.72159e-17
9.72032e-17
9.71923e-17
9.7183e-17
9.7175e-17
9.71683e-17
9.7163e-17
9.7159e-17
9.71563e-17
9.71545e-17
9.71515e-17
9.71517e-17
9.71976e-17
9.71838e-17
9.71723e-17
9.71612e-17
9.71515e-17
9.71436e-17
9.71372e-17
9.71322e-17
9.71286e-17
9.71262e-17
9.71251e-17
9.71236e-17
9.71214e-17
9.71223e-17
9.75765e-17
9.75754e-17
9.75706e-17
9.75655e-17
9.7559e-17
9.75522e-17
9.75447e-17
9.75365e-17
9.75273e-17
9.75174e-17
9.75063e-17
9.74942e-17
9.74798e-17
9.74633e-17
9.7541e-17
9.75414e-17
9.75345e-17
9.75282e-17
9.75207e-17
9.75132e-17
9.75049e-17
9.74959e-17
9.74861e-17
9.74755e-17
9.74642e-17
9.74511e-17
9.74367e-17
9.74193e-17
9.75061e-17
9.75042e-17
9.74958e-17
9.7489e-17
9.74808e-17
9.74731e-17
9.74646e-17
9.74555e-17
9.74457e-17
9.74352e-17
9.74238e-17
9.74106e-17
9.73969e-17
9.73807e-17
9.7469e-17
9.74652e-17
9.74565e-17
9.74492e-17
9.74406e-17
9.74324e-17
9.74235e-17
9.7414e-17
9.74038e-17
9.73929e-17
9.7381e-17
9.73674e-17
9.73536e-17
9.73379e-17
9.74317e-17
9.74259e-17
9.74166e-17
9.74087e-17
9.73997e-17
9.73911e-17
9.7382e-17
9.73723e-17
9.73621e-17
9.73513e-17
9.73394e-17
9.73262e-17
9.73123e-17
9.72965e-17
9.73935e-17
9.73859e-17
9.73763e-17
9.73677e-17
9.73585e-17
9.73495e-17
9.73402e-17
9.73304e-17
9.73201e-17
9.73094e-17
9.72976e-17
9.72849e-17
9.7271e-17
9.72556e-17
9.73553e-17
9.7346e-17
9.7336e-17
9.73265e-17
9.73172e-17
9.73079e-17
9.72984e-17
9.72887e-17
9.72787e-17
9.72684e-17
9.72571e-17
9.72454e-17
9.72319e-17
9.72179e-17
9.73156e-17
9.73049e-17
9.72947e-17
9.72848e-17
9.72754e-17
9.7266e-17
9.72568e-17
9.72474e-17
9.72377e-17
9.72279e-17
9.72171e-17
9.72063e-17
9.71934e-17
9.7181e-17
9.7276e-17
9.72638e-17
9.72536e-17
9.72432e-17
9.72338e-17
9.72246e-17
9.72157e-17
9.72068e-17
9.71978e-17
9.71887e-17
9.71789e-17
9.71694e-17
9.71576e-17
9.71471e-17
9.72351e-17
9.72213e-17
9.72113e-17
9.72009e-17
9.7192e-17
9.71832e-17
9.7175e-17
9.71669e-17
9.71588e-17
9.71507e-17
9.71419e-17
9.71339e-17
9.71232e-17
9.71149e-17
9.71949e-17
9.71797e-17
9.71701e-17
9.71597e-17
9.7151e-17
9.71428e-17
9.71353e-17
9.71282e-17
9.71213e-17
9.71145e-17
9.71075e-17
9.71014e-17
9.70924e-17
9.70865e-17
9.71519e-17
9.71365e-17
9.71275e-17
9.71178e-17
9.71099e-17
9.71026e-17
9.70962e-17
9.70904e-17
9.7085e-17
9.70797e-17
9.70748e-17
9.70704e-17
9.70631e-17
9.70588e-17
9.71094e-17
9.70949e-17
9.70863e-17
9.70774e-17
9.70699e-17
9.70636e-17
9.70584e-17
9.70539e-17
9.70501e-17
9.70468e-17
9.7044e-17
9.70411e-17
9.70358e-17
9.70326e-17
9.70606e-17
9.70501e-17
9.70421e-17
9.70352e-17
9.70291e-17
9.70247e-17
9.70214e-17
9.70189e-17
9.70173e-17
9.70159e-17
9.7015e-17
9.70128e-17
9.70088e-17
9.70055e-17
9.74096e-17
9.74075e-17
9.74021e-17
9.73984e-17
9.73937e-17
9.73896e-17
9.73853e-17
9.73811e-17
9.73765e-17
9.73717e-17
9.73662e-17
9.73601e-17
9.73522e-17
9.73449e-17
9.73745e-17
9.73739e-17
9.7367e-17
9.73622e-17
9.73565e-17
9.73517e-17
9.73466e-17
9.73415e-17
9.7336e-17
9.73302e-17
9.7324e-17
9.73165e-17
9.73082e-17
9.72989e-17
9.73401e-17
9.73376e-17
9.73297e-17
9.73245e-17
9.73183e-17
9.73131e-17
9.73077e-17
9.73021e-17
9.72962e-17
9.72901e-17
9.72834e-17
9.72754e-17
9.72668e-17
9.72571e-17
9.73039e-17
9.73e-17
9.72921e-17
9.72862e-17
9.72799e-17
9.72742e-17
9.72684e-17
9.72623e-17
9.72559e-17
9.7249e-17
9.72415e-17
9.72326e-17
9.72236e-17
9.72124e-17
9.72677e-17
9.72622e-17
9.72539e-17
9.72476e-17
9.7241e-17
9.7235e-17
9.72288e-17
9.72224e-17
9.72156e-17
9.72085e-17
9.72006e-17
9.71914e-17
9.71819e-17
9.71698e-17
9.72306e-17
9.72236e-17
9.72153e-17
9.72085e-17
9.72018e-17
9.71955e-17
9.71892e-17
9.71825e-17
9.71756e-17
9.71683e-17
9.71599e-17
9.71506e-17
9.71401e-17
9.71279e-17
9.71935e-17
9.7185e-17
9.71766e-17
9.71693e-17
9.71625e-17
9.7156e-17
9.71495e-17
9.71429e-17
9.71359e-17
9.71285e-17
9.71201e-17
9.71111e-17
9.71002e-17
9.70886e-17
9.71548e-17
9.71453e-17
9.7137e-17
9.71296e-17
9.71228e-17
9.71164e-17
9.71101e-17
9.71036e-17
9.70967e-17
9.70893e-17
9.70808e-17
9.70721e-17
9.7061e-17
9.70502e-17
9.71162e-17
9.71052e-17
9.70972e-17
9.70898e-17
9.70832e-17
9.7077e-17
9.7071e-17
9.70649e-17
9.70583e-17
9.70513e-17
9.7043e-17
9.7035e-17
9.70242e-17
9.70146e-17
9.70763e-17
9.70641e-17
9.70567e-17
9.70496e-17
9.70435e-17
9.70378e-17
9.70324e-17
9.70268e-17
9.70207e-17
9.70142e-17
9.70065e-17
9.69994e-17
9.69887e-17
9.69805e-17
9.70373e-17
9.70235e-17
9.70167e-17
9.70099e-17
9.70046e-17
9.69995e-17
9.69948e-17
9.69899e-17
9.69847e-17
9.69791e-17
9.69726e-17
9.69668e-17
9.69571e-17
9.69507e-17
9.69954e-17
9.69822e-17
9.69763e-17
9.69702e-17
9.69657e-17
9.69616e-17
9.69579e-17
9.69541e-17
9.695e-17
9.69454e-17
9.69403e-17
9.69357e-17
9.69271e-17
9.69214e-17
9.69546e-17
9.69422e-17
9.69371e-17
9.69317e-17
9.6928e-17
9.69249e-17
9.69224e-17
9.69198e-17
9.69171e-17
9.6914e-17
9.69107e-17
9.69072e-17
9.69002e-17
9.6895e-17
9.69093e-17
9.69002e-17
9.68964e-17
9.68928e-17
9.68905e-17
9.68892e-17
9.68884e-17
9.68875e-17
9.68865e-17
9.68848e-17
9.68829e-17
9.68793e-17
9.68736e-17
9.68677e-17
9.72157e-17
9.72126e-17
9.72073e-17
9.72053e-17
9.72028e-17
9.72015e-17
9.72007e-17
9.72004e-17
9.72002e-17
9.72004e-17
9.72005e-17
9.72004e-17
9.72001e-17
9.72003e-17
9.71813e-17
9.718e-17
9.71738e-17
9.71706e-17
9.71675e-17
9.71656e-17
9.71643e-17
9.71634e-17
9.71625e-17
9.71617e-17
9.71609e-17
9.71593e-17
9.71587e-17
9.71546e-17
9.71482e-17
9.71458e-17
9.71391e-17
9.71354e-17
9.7132e-17
9.71298e-17
9.71281e-17
9.71267e-17
9.71252e-17
9.71237e-17
9.71222e-17
9.71203e-17
9.7119e-17
9.71141e-17
9.71138e-17
9.71106e-17
9.71041e-17
9.71001e-17
9.70966e-17
9.7094e-17
9.70921e-17
9.70902e-17
9.70882e-17
9.7086e-17
9.70838e-17
9.70808e-17
9.70778e-17
9.70717e-17
9.70796e-17
9.70755e-17
9.70691e-17
9.70649e-17
9.70613e-17
9.70585e-17
9.70562e-17
9.70538e-17
9.70513e-17
9.70487e-17
9.70458e-17
9.70422e-17
9.70386e-17
9.70326e-17
9.70451e-17
9.70399e-17
9.70339e-17
9.70296e-17
9.7026e-17
9.70231e-17
9.70206e-17
9.70179e-17
9.70151e-17
9.70121e-17
9.70086e-17
9.70047e-17
9.70001e-17
9.69936e-17
9.70107e-17
9.70046e-17
9.69988e-17
9.69945e-17
9.69909e-17
9.6988e-17
9.69852e-17
9.69824e-17
9.69794e-17
9.69761e-17
9.69724e-17
9.69684e-17
9.69629e-17
9.69567e-17
9.69754e-17
9.69688e-17
9.69635e-17
9.69594e-17
9.69559e-17
9.69531e-17
9.69503e-17
9.69475e-17
9.69444e-17
9.6941e-17
9.69369e-17
9.69327e-17
9.69262e-17
9.69201e-17
9.69401e-17
9.69328e-17
9.69282e-17
9.69245e-17
9.69213e-17
9.69186e-17
9.6916e-17
9.69133e-17
9.69102e-17
9.69069e-17
9.69027e-17
9.68985e-17
9.68914e-17
9.68857e-17
9.69044e-17
9.6897e-17
9.6893e-17
9.68897e-17
9.6887e-17
9.68846e-17
9.68823e-17
9.68799e-17
9.6877e-17
9.68739e-17
9.68695e-17
9.68654e-17
9.68577e-17
9.68524e-17
9.68694e-17
9.68615e-17
9.68582e-17
9.68555e-17
9.68535e-17
9.68517e-17
9.68499e-17
9.68478e-17
9.68453e-17
9.68424e-17
9.68384e-17
9.68348e-17
9.68271e-17
9.68226e-17
9.68341e-17
9.68259e-17
9.68237e-17
9.6822e-17
9.68209e-17
9.68196e-17
9.68184e-17
9.68168e-17
9.68148e-17
9.68121e-17
9.68086e-17
9.68052e-17
9.67976e-17
9.67932e-17
9.67999e-17
9.67912e-17
9.67905e-17
9.67896e-17
9.67893e-17
9.67888e-17
9.67884e-17
9.67875e-17
9.67861e-17
9.67841e-17
9.67814e-17
9.67783e-17
9.67714e-17
9.67665e-17
9.67632e-17
9.67565e-17
9.67574e-17
9.67576e-17
9.67586e-17
9.67591e-17
9.67598e-17