/*--------------------------------*- C++ -*----------------------------------*\
| =========                 |                                                 |
| \\      /  F ield         | OpenFOAM: The Open Source CFD Toolbox           |
|  \\    /   O peration     | Version:  v2106                                 |
|   \\  /    A nd           | Website:  www.openfoam.com                      |
|    \\/     M anipulation  |                                                 |
\*---------------------------------------------------------------------------*/
FoamFile
{
    version     2.0;
    format      ascii;
    arch        "LSB;label=32;scalar=64";
    class       volScalarField;
    location    "0.000194";
    object      epsilon;
}
// * * * * * * * * * * * * * * * * * * * * * * * * * * * * * * * * * * * * * //

dimensions      [0 2 -3 0 0 0 0];

internalField   nonuniform List<scalar> 
17924
(
1.36545e-08
1.30861e-08
1.29736e-08
1.29528e-08
1.3013e-08
1.29534e-08
1.29416e-08
1.29393e-08
1.2939e-08
1.29395e-08
1.29406e-08
1.30273e-08
1.29556e-08
1.29391e-08
1.29354e-08
1.29344e-08
1.29341e-08
1.29342e-08
1.30991e-08
1.29716e-08
1.29405e-08
1.29335e-08
1.29317e-08
1.29312e-08
1.29311e-08
1.32077e-08
1.29952e-08
1.29432e-08
1.29319e-08
1.29293e-08
1.29287e-08
1.29285e-08
1.33333e-08
1.30205e-08
1.29458e-08
1.293e-08
1.29267e-08
1.2926e-08
1.29257e-08
1.3461e-08
1.30429e-08
1.29473e-08
1.29281e-08
1.29243e-08
1.29235e-08
1.29233e-08
1.35962e-08
1.30639e-08
1.29481e-08
1.2926e-08
1.2922e-08
1.29212e-08
1.2921e-08
1.37428e-08
1.30851e-08
1.29487e-08
1.29243e-08
1.29201e-08
1.29193e-08
1.2919e-08
1.38933e-08
1.3106e-08
1.29497e-08
1.2923e-08
1.29187e-08
1.29179e-08
1.29176e-08
1.40484e-08
1.31282e-08
1.29516e-08
1.29228e-08
1.29188e-08
1.29186e-08
1.29187e-08
1.41967e-08
1.31536e-08
1.29573e-08
1.29269e-08
1.29252e-08
1.2928e-08
1.29306e-08
1.44042e-08
1.32126e-08
1.2982e-08
1.29503e-08
1.29592e-08
1.29762e-08
1.29907e-08
1.49898e-08
1.34297e-08
1.30878e-08
1.30539e-08
1.31081e-08
1.31857e-08
1.32503e-08
1.71414e-08
1.42352e-08
1.35022e-08
1.3467e-08
1.3692e-08
1.40023e-08
1.42595e-08
1.29422e-08
1.29379e-08
1.29378e-08
1.29381e-08
1.29384e-08
1.29388e-08
1.29393e-08
1.29398e-08
1.29405e-08
1.29412e-08
1.29418e-08
1.29423e-08
1.29427e-08
1.29425e-08
1.29434e-08
1.29375e-08
1.29364e-08
1.29365e-08
1.29366e-08
1.29369e-08
1.29373e-08
1.29378e-08
1.29384e-08
1.29392e-08
1.29402e-08
1.29408e-08
1.29413e-08
1.29418e-08
1.29503e-08
1.29381e-08
1.29352e-08
1.29348e-08
1.29348e-08
1.29351e-08
1.29355e-08
1.2936e-08
1.29367e-08
1.29376e-08
1.29385e-08
1.29393e-08
1.29402e-08
1.29409e-08
1.29607e-08
1.29391e-08
1.29339e-08
1.29331e-08
1.29331e-08
1.29334e-08
1.29338e-08
1.29344e-08
1.2935e-08
1.29357e-08
1.29365e-08
1.29372e-08
1.29381e-08
1.29391e-08
1.29725e-08
1.294e-08
1.29324e-08
1.29312e-08
1.29312e-08
1.29316e-08
1.29321e-08
1.29326e-08
1.29333e-08
1.2934e-08
1.29347e-08
1.29353e-08
1.29361e-08
1.29371e-08
1.29842e-08
1.29406e-08
1.2931e-08
1.29295e-08
1.29296e-08
1.293e-08
1.29304e-08
1.29309e-08
1.29314e-08
1.2932e-08
1.29327e-08
1.29333e-08
1.29339e-08
1.2935e-08
1.29964e-08
1.29413e-08
1.29297e-08
1.2928e-08
1.2928e-08
1.29284e-08
1.29288e-08
1.29292e-08
1.29296e-08
1.29302e-08
1.29308e-08
1.29314e-08
1.2932e-08
1.29332e-08
1.30096e-08
1.29421e-08
1.29285e-08
1.29267e-08
1.29267e-08
1.2927e-08
1.29273e-08
1.29276e-08
1.29279e-08
1.29285e-08
1.2929e-08
1.29297e-08
1.29302e-08
1.29314e-08
1.30231e-08
1.29431e-08
1.29277e-08
1.29257e-08
1.29255e-08
1.29257e-08
1.29259e-08
1.29261e-08
1.29264e-08
1.29269e-08
1.29273e-08
1.29281e-08
1.29287e-08
1.29299e-08
1.3037e-08
1.29444e-08
1.29272e-08
1.29249e-08
1.29247e-08
1.29248e-08
1.29249e-08
1.29251e-08
1.29253e-08
1.29256e-08
1.2926e-08
1.29268e-08
1.29273e-08
1.29286e-08
1.30497e-08
1.29461e-08
1.29273e-08
1.29247e-08
1.29246e-08
1.29248e-08
1.29249e-08
1.29251e-08
1.29252e-08
1.29254e-08
1.29258e-08
1.29265e-08
1.29269e-08
1.29284e-08
1.30655e-08
1.29501e-08
1.29289e-08
1.29261e-08
1.29268e-08
1.29281e-08
1.29291e-08
1.29296e-08
1.29298e-08
1.29298e-08
1.29298e-08
1.29301e-08
1.293e-08
1.29319e-08
1.31096e-08
1.29663e-08
1.2937e-08
1.29342e-08
1.29389e-08
1.29451e-08
1.29501e-08
1.29528e-08
1.29537e-08
1.29532e-08
1.29521e-08
1.29511e-08
1.29494e-08
1.29522e-08
1.32813e-08
1.30296e-08
1.29697e-08
1.29684e-08
1.29887e-08
1.30154e-08
1.30367e-08
1.30491e-08
1.30535e-08
1.30519e-08
1.30464e-08
1.30407e-08
1.3034e-08
1.30378e-08
1.29283e-08
1.29305e-08
1.29326e-08
1.29342e-08
1.29354e-08
1.29364e-08
1.29374e-08
1.29383e-08
1.29391e-08
1.294e-08
1.29409e-08
1.29415e-08
1.2942e-08
1.29415e-08
1.29289e-08
1.29309e-08
1.29325e-08
1.2934e-08
1.29351e-08
1.29362e-08
1.29372e-08
1.29382e-08
1.29391e-08
1.29401e-08
1.29412e-08
1.29419e-08
1.29425e-08
1.29426e-08
1.29296e-08
1.29307e-08
1.2932e-08
1.29334e-08
1.29346e-08
1.29357e-08
1.29368e-08
1.29379e-08
1.29389e-08
1.294e-08
1.29411e-08
1.29419e-08
1.29427e-08
1.29433e-08
1.29302e-08
1.29302e-08
1.29313e-08
1.29326e-08
1.29339e-08
1.29352e-08
1.29363e-08
1.29374e-08
1.29385e-08
1.29395e-08
1.29405e-08
1.29413e-08
1.29422e-08
1.29429e-08
1.29306e-08
1.29295e-08
1.29304e-08
1.29318e-08
1.29332e-08
1.29345e-08
1.29356e-08
1.29368e-08
1.29378e-08
1.29388e-08
1.29398e-08
1.29405e-08
1.29413e-08
1.29421e-08
1.29309e-08
1.29288e-08
1.29296e-08
1.29311e-08
1.29325e-08
1.29338e-08
1.29349e-08
1.2936e-08
1.2937e-08
1.2938e-08
1.29388e-08
1.29396e-08
1.29403e-08
1.29411e-08
1.29317e-08
1.29285e-08
1.29291e-08
1.29305e-08
1.29318e-08
1.2933e-08
1.29341e-08
1.29352e-08
1.29361e-08
1.2937e-08
1.29379e-08
1.29387e-08
1.29392e-08
1.29401e-08
1.29325e-08
1.29282e-08
1.29285e-08
1.29299e-08
1.29311e-08
1.29323e-08
1.29333e-08
1.29343e-08
1.29351e-08
1.2936e-08
1.29368e-08
1.29376e-08
1.29382e-08
1.29391e-08
1.29337e-08
1.29281e-08
1.29282e-08
1.29295e-08
1.29306e-08
1.29316e-08
1.29325e-08
1.29333e-08
1.29341e-08
1.29349e-08
1.29356e-08
1.29365e-08
1.29371e-08
1.29381e-08
1.29351e-08
1.29282e-08
1.2928e-08
1.29291e-08
1.293e-08
1.29309e-08
1.29317e-08
1.29324e-08
1.29331e-08
1.29338e-08
1.29345e-08
1.29354e-08
1.29359e-08
1.29369e-08
1.29366e-08
1.29284e-08
1.2928e-08
1.29288e-08
1.29296e-08
1.29303e-08
1.29309e-08
1.29315e-08
1.29321e-08
1.29327e-08
1.29333e-08
1.29343e-08
1.29348e-08
1.29358e-08
1.29378e-08
1.29286e-08
1.2928e-08
1.29286e-08
1.29293e-08
1.29299e-08
1.29304e-08
1.29309e-08
1.29313e-08
1.29318e-08
1.29324e-08
1.29332e-08
1.29334e-08
1.29341e-08
1.29407e-08
1.29295e-08
1.29284e-08
1.29289e-08
1.29297e-08
1.29305e-08
1.29311e-08
1.29315e-08
1.29319e-08
1.29322e-08
1.29325e-08
1.29329e-08
1.29324e-08
1.29325e-08
1.2953e-08
1.29338e-08
1.29306e-08
1.29311e-08
1.29331e-08
1.29354e-08
1.29372e-08
1.29381e-08
1.29384e-08
1.29382e-08
1.29377e-08
1.29368e-08
1.29353e-08
1.29348e-08
1.29129e-08
1.29166e-08
1.29199e-08
1.29226e-08
1.29246e-08
1.29264e-08
1.2928e-08
1.29294e-08
1.29306e-08
1.29317e-08
1.29328e-08
1.29336e-08
1.29341e-08
1.2934e-08
1.29146e-08
1.2918e-08
1.2921e-08
1.29234e-08
1.29256e-08
1.29275e-08
1.29292e-08
1.29308e-08
1.29322e-08
1.29335e-08
1.29348e-08
1.29357e-08
1.29364e-08
1.29369e-08
1.29159e-08
1.29191e-08
1.29218e-08
1.29243e-08
1.29265e-08
1.29286e-08
1.29304e-08
1.29321e-08
1.29336e-08
1.29351e-08
1.29364e-08
1.29374e-08
1.29383e-08
1.29391e-08
1.29167e-08
1.29196e-08
1.29224e-08
1.2925e-08
1.29273e-08
1.29294e-08
1.29314e-08
1.29331e-08
1.29347e-08
1.29362e-08
1.29375e-08
1.29385e-08
1.29395e-08
1.29405e-08
1.29173e-08
1.29202e-08
1.2923e-08
1.29256e-08
1.2928e-08
1.29302e-08
1.29322e-08
1.29339e-08
1.29355e-08
1.2937e-08
1.29383e-08
1.29392e-08
1.29403e-08
1.29411e-08
1.29179e-08
1.29207e-08
1.29235e-08
1.29261e-08
1.29285e-08
1.29307e-08
1.29327e-08
1.29345e-08
1.2936e-08
1.29374e-08
1.29387e-08
1.29397e-08
1.29406e-08
1.29415e-08
1.29187e-08
1.29215e-08
1.29242e-08
1.29268e-08
1.2929e-08
1.29312e-08
1.2933e-08
1.29347e-08
1.29362e-08
1.29376e-08
1.29388e-08
1.29399e-08
1.29407e-08
1.29417e-08
1.29196e-08
1.29222e-08
1.29246e-08
1.29272e-08
1.29293e-08
1.29313e-08
1.29331e-08
1.29348e-08
1.29362e-08
1.29376e-08
1.29387e-08
1.29398e-08
1.29406e-08
1.29417e-08
1.29206e-08
1.29229e-08
1.29252e-08
1.29276e-08
1.29295e-08
1.29314e-08
1.29331e-08
1.29346e-08
1.29359e-08
1.29372e-08
1.29383e-08
1.29395e-08
1.29403e-08
1.29415e-08
1.29217e-08
1.29235e-08
1.29256e-08
1.29278e-08
1.29296e-08
1.29314e-08
1.29328e-08
1.29342e-08
1.29354e-08
1.29367e-08
1.29377e-08
1.29389e-08
1.29397e-08
1.29409e-08
1.29228e-08
1.29241e-08
1.29261e-08
1.2928e-08
1.29296e-08
1.29311e-08
1.29324e-08
1.29336e-08
1.29346e-08
1.29358e-08
1.29368e-08
1.29381e-08
1.29389e-08
1.29402e-08
1.29235e-08
1.29244e-08
1.29262e-08
1.29279e-08
1.29293e-08
1.29305e-08
1.29317e-08
1.29328e-08
1.29337e-08
1.29348e-08
1.29358e-08
1.2937e-08
1.29376e-08
1.29386e-08
1.29237e-08
1.29243e-08
1.29262e-08
1.29275e-08
1.29287e-08
1.29298e-08
1.29307e-08
1.29316e-08
1.29325e-08
1.29334e-08
1.29344e-08
1.29354e-08
1.29355e-08
1.2936e-08
1.29243e-08
1.29242e-08
1.29259e-08
1.2927e-08
1.29282e-08
1.29293e-08
1.29302e-08
1.2931e-08
1.29317e-08
1.29324e-08
1.2933e-08
1.29332e-08
1.29329e-08
1.29328e-08
1.28893e-08
1.28936e-08
1.28973e-08
1.29005e-08
1.29032e-08
1.29055e-08
1.29077e-08
1.29096e-08
1.29113e-08
1.29128e-08
1.29142e-08
1.29153e-08
1.29163e-08
1.29165e-08
1.28921e-08
1.28959e-08
1.28995e-08
1.29025e-08
1.29054e-08
1.29079e-08
1.29102e-08
1.29123e-08
1.29142e-08
1.29159e-08
1.29176e-08
1.29189e-08
1.292e-08
1.29211e-08
1.28949e-08
1.28984e-08
1.29018e-08
1.29049e-08
1.29077e-08
1.29104e-08
1.29128e-08
1.2915e-08
1.29171e-08
1.29189e-08
1.29207e-08
1.2922e-08
1.29234e-08
1.29246e-08
1.28969e-08
1.29003e-08
1.29038e-08
1.29069e-08
1.29099e-08
1.29126e-08
1.29152e-08
1.29175e-08
1.29196e-08
1.29215e-08
1.29233e-08
1.29247e-08
1.29262e-08
1.29275e-08
1.28989e-08
1.29024e-08
1.29058e-08
1.2909e-08
1.2912e-08
1.29148e-08
1.29174e-08
1.29197e-08
1.29219e-08
1.29238e-08
1.29256e-08
1.2927e-08
1.29285e-08
1.29298e-08
1.29008e-08
1.29043e-08
1.29077e-08
1.29109e-08
1.29139e-08
1.29167e-08
1.29193e-08
1.29217e-08
1.29238e-08
1.29257e-08
1.29275e-08
1.2929e-08
1.29305e-08
1.29318e-08
1.29029e-08
1.29064e-08
1.29096e-08
1.29128e-08
1.29157e-08
1.29184e-08
1.29209e-08
1.29233e-08
1.29254e-08
1.29273e-08
1.29291e-08
1.29307e-08
1.29321e-08
1.29335e-08
1.29048e-08
1.29082e-08
1.29112e-08
1.29143e-08
1.29171e-08
1.29198e-08
1.29222e-08
1.29246e-08
1.29266e-08
1.29286e-08
1.29303e-08
1.29321e-08
1.29334e-08
1.2935e-08
1.29067e-08
1.29099e-08
1.29128e-08
1.29157e-08
1.29184e-08
1.29209e-08
1.29233e-08
1.29255e-08
1.29275e-08
1.29294e-08
1.29312e-08
1.2933e-08
1.29344e-08
1.29361e-08
1.29085e-08
1.29113e-08
1.2914e-08
1.29168e-08
1.29193e-08
1.29217e-08
1.29239e-08
1.29261e-08
1.2928e-08
1.29299e-08
1.29317e-08
1.29336e-08
1.29351e-08
1.2937e-08
1.29102e-08
1.29126e-08
1.29151e-08
1.29177e-08
1.292e-08
1.29222e-08
1.29243e-08
1.29263e-08
1.29281e-08
1.293e-08
1.29319e-08
1.2934e-08
1.29355e-08
1.29376e-08
1.29113e-08
1.29134e-08
1.29158e-08
1.2918e-08
1.29202e-08
1.29222e-08
1.29242e-08
1.29262e-08
1.2928e-08
1.293e-08
1.29319e-08
1.2934e-08
1.29355e-08
1.29374e-08
1.29118e-08
1.29138e-08
1.29161e-08
1.29182e-08
1.29201e-08
1.2922e-08
1.29239e-08
1.29257e-08
1.29275e-08
1.29293e-08
1.29313e-08
1.29332e-08
1.29343e-08
1.29357e-08
1.29118e-08
1.29136e-08
1.2916e-08
1.29179e-08
1.29198e-08
1.29215e-08
1.29233e-08
1.29251e-08
1.29268e-08
1.29286e-08
1.29303e-08
1.29317e-08
1.29325e-08
1.29336e-08
1.28595e-08
1.28632e-08
1.28667e-08
1.28699e-08
1.28728e-08
1.28754e-08
1.28779e-08
1.28802e-08
1.28823e-08
1.28844e-08
1.28864e-08
1.28881e-08
1.28897e-08
1.28906e-08
1.28633e-08
1.28665e-08
1.28699e-08
1.2873e-08
1.2876e-08
1.28788e-08
1.28814e-08
1.28838e-08
1.28862e-08
1.28884e-08
1.28906e-08
1.28925e-08
1.28942e-08
1.2896e-08
1.28672e-08
1.28702e-08
1.28735e-08
1.28765e-08
1.28795e-08
1.28823e-08
1.2885e-08
1.28875e-08
1.28899e-08
1.28922e-08
1.28945e-08
1.28965e-08
1.28984e-08
1.29003e-08
1.28705e-08
1.28734e-08
1.28767e-08
1.28797e-08
1.28828e-08
1.28857e-08
1.28884e-08
1.2891e-08
1.28935e-08
1.28959e-08
1.28982e-08
1.29002e-08
1.29023e-08
1.29044e-08
1.28737e-08
1.28767e-08
1.28799e-08
1.2883e-08
1.2886e-08
1.28889e-08
1.28918e-08
1.28944e-08
1.28969e-08
1.28994e-08
1.29017e-08
1.29038e-08
1.29059e-08
1.29079e-08
1.28769e-08
1.288e-08
1.28831e-08
1.28861e-08
1.28891e-08
1.28921e-08
1.28949e-08
1.28976e-08
1.29002e-08
1.29027e-08
1.29051e-08
1.29073e-08
1.29094e-08
1.29114e-08
1.288e-08
1.28831e-08
1.28861e-08
1.28891e-08
1.28921e-08
1.2895e-08
1.28978e-08
1.29005e-08
1.29032e-08
1.29057e-08
1.29082e-08
1.29105e-08
1.29126e-08
1.29147e-08
1.28831e-08
1.28861e-08
1.2889e-08
1.28919e-08
1.28948e-08
1.28977e-08
1.29005e-08
1.29033e-08
1.29059e-08
1.29085e-08
1.2911e-08
1.29135e-08
1.29156e-08
1.29179e-08
1.28859e-08
1.28888e-08
1.28916e-08
1.28945e-08
1.28973e-08
1.29002e-08
1.29029e-08
1.29057e-08
1.29084e-08
1.2911e-08
1.29136e-08
1.29161e-08
1.29184e-08
1.29208e-08
1.28887e-08
1.28914e-08
1.2894e-08
1.28968e-08
1.28996e-08
1.29024e-08
1.29051e-08
1.29079e-08
1.29106e-08
1.29132e-08
1.29159e-08
1.29186e-08
1.2921e-08
1.29235e-08
1.28913e-08
1.28937e-08
1.28962e-08
1.28989e-08
1.29016e-08
1.29043e-08
1.2907e-08
1.29098e-08
1.29125e-08
1.29152e-08
1.29179e-08
1.29209e-08
1.29234e-08
1.29262e-08
1.28934e-08
1.28957e-08
1.28981e-08
1.29007e-08
1.29033e-08
1.29059e-08
1.29087e-08
1.29114e-08
1.29142e-08
1.2917e-08
1.29198e-08
1.29229e-08
1.29254e-08
1.29282e-08
1.28949e-08
1.28971e-08
1.28996e-08
1.29022e-08
1.29047e-08
1.29073e-08
1.291e-08
1.29127e-08
1.29156e-08
1.29184e-08
1.29214e-08
1.29244e-08
1.29268e-08
1.29293e-08
1.28957e-08
1.2898e-08
1.29007e-08
1.29032e-08
1.29058e-08
1.29084e-08
1.29112e-08
1.2914e-08
1.29169e-08
1.29198e-08
1.29226e-08
1.29253e-08
1.29273e-08
1.29296e-08
1.28312e-08
1.28334e-08
1.2836e-08
1.28384e-08
1.28408e-08
1.28433e-08
1.28458e-08
1.28482e-08
1.28507e-08
1.28531e-08
1.28555e-08
1.28577e-08
1.28598e-08
1.28614e-08
1.28359e-08
1.28377e-08
1.28401e-08
1.28424e-08
1.28447e-08
1.28471e-08
1.28497e-08
1.28523e-08
1.28548e-08
1.28574e-08
1.28599e-08
1.28623e-08
1.28645e-08
1.28668e-08
1.28404e-08
1.28421e-08
1.28444e-08
1.28466e-08
1.28489e-08
1.28513e-08
1.28539e-08
1.28564e-08
1.2859e-08
1.28616e-08
1.28641e-08
1.28666e-08
1.28688e-08
1.28713e-08
1.28446e-08
1.28462e-08
1.28485e-08
1.28507e-08
1.28531e-08
1.28555e-08
1.28581e-08
1.28607e-08
1.28633e-08
1.28659e-08
1.28685e-08
1.2871e-08
1.28733e-08
1.28759e-08
1.28485e-08
1.28503e-08
1.28526e-08
1.28548e-08
1.28572e-08
1.28597e-08
1.28623e-08
1.28649e-08
1.28676e-08
1.28702e-08
1.28728e-08
1.28753e-08
1.28778e-08
1.28802e-08
1.28526e-08
1.28546e-08
1.28568e-08
1.2859e-08
1.28614e-08
1.28639e-08
1.28665e-08
1.28692e-08
1.28719e-08
1.28746e-08
1.28773e-08
1.28799e-08
1.28823e-08
1.28848e-08
1.28566e-08
1.28587e-08
1.28608e-08
1.28631e-08
1.28655e-08
1.28681e-08
1.28707e-08
1.28734e-08
1.28762e-08
1.28789e-08
1.28817e-08
1.28843e-08
1.28869e-08
1.28893e-08
1.28606e-08
1.28627e-08
1.28648e-08
1.28671e-08
1.28696e-08
1.28722e-08
1.28748e-08
1.28776e-08
1.28804e-08
1.28833e-08
1.28861e-08
1.28888e-08
1.28915e-08
1.2894e-08
1.28644e-08
1.28665e-08
1.28686e-08
1.28711e-08
1.28735e-08
1.28762e-08
1.28789e-08
1.28818e-08
1.28846e-08
1.28875e-08
1.28904e-08
1.28932e-08
1.2896e-08
1.28986e-08
1.28682e-08
1.28703e-08
1.28724e-08
1.28749e-08
1.28774e-08
1.28801e-08
1.28829e-08
1.28858e-08
1.28887e-08
1.28917e-08
1.28947e-08
1.28976e-08
1.29005e-08
1.29032e-08
1.28719e-08
1.28738e-08
1.2876e-08
1.28785e-08
1.28811e-08
1.28839e-08
1.28868e-08
1.28897e-08
1.28928e-08
1.28958e-08
1.28989e-08
1.2902e-08
1.29051e-08
1.29079e-08
1.28753e-08
1.28773e-08
1.28795e-08
1.28821e-08
1.28847e-08
1.28875e-08
1.28905e-08
1.28935e-08
1.28966e-08
1.28997e-08
1.29029e-08
1.29062e-08
1.29093e-08
1.29122e-08
1.2878e-08
1.28802e-08
1.28827e-08
1.28853e-08
1.2888e-08
1.28909e-08
1.2894e-08
1.28971e-08
1.29003e-08
1.29036e-08
1.29069e-08
1.29103e-08
1.29132e-08
1.29159e-08
1.28804e-08
1.28827e-08
1.28856e-08
1.28883e-08
1.28912e-08
1.28942e-08
1.28973e-08
1.29005e-08
1.29038e-08
1.29071e-08
1.29103e-08
1.29134e-08
1.29161e-08
1.29188e-08
1.28133e-08
1.28137e-08
1.28148e-08
1.28162e-08
1.28177e-08
1.28193e-08
1.28212e-08
1.28231e-08
1.28252e-08
1.28274e-08
1.28296e-08
1.28318e-08
1.28338e-08
1.28356e-08
1.28183e-08
1.28183e-08
1.28193e-08
1.28204e-08
1.28218e-08
1.28234e-08
1.28252e-08
1.28272e-08
1.28294e-08
1.28316e-08
1.28339e-08
1.28361e-08
1.28381e-08
1.28404e-08
1.28227e-08
1.28226e-08
1.28236e-08
1.28248e-08
1.28262e-08
1.28278e-08
1.28296e-08
1.28316e-08
1.28336e-08
1.28358e-08
1.2838e-08
1.28403e-08
1.28424e-08
1.28447e-08
1.2827e-08
1.28271e-08
1.28281e-08
1.28292e-08
1.28306e-08
1.28323e-08
1.28341e-08
1.28361e-08
1.28382e-08
1.28404e-08
1.28426e-08
1.28448e-08
1.28469e-08
1.28493e-08
1.2831e-08
1.28315e-08
1.28325e-08
1.28337e-08
1.28352e-08
1.28369e-08
1.28388e-08
1.28407e-08
1.28428e-08
1.2845e-08
1.28472e-08
1.28495e-08
1.28516e-08
1.28539e-08
1.28353e-08
1.28361e-08
1.28371e-08
1.28384e-08
1.28399e-08
1.28417e-08
1.28435e-08
1.28456e-08
1.28477e-08
1.28499e-08
1.28522e-08
1.28544e-08
1.28566e-08
1.28588e-08
1.28396e-08
1.28406e-08
1.28417e-08
1.28431e-08
1.28447e-08
1.28465e-08
1.28484e-08
1.28505e-08
1.28527e-08
1.28549e-08
1.28572e-08
1.28595e-08
1.28617e-08
1.28639e-08
1.2844e-08
1.28452e-08
1.28464e-08
1.28479e-08
1.28495e-08
1.28514e-08
1.28534e-08
1.28555e-08
1.28578e-08
1.28601e-08
1.28624e-08
1.28647e-08
1.2867e-08
1.28692e-08
1.28484e-08
1.28496e-08
1.28509e-08
1.28526e-08
1.28544e-08
1.28563e-08
1.28584e-08
1.28606e-08
1.28629e-08
1.28652e-08
1.28677e-08
1.287e-08
1.28724e-08
1.28746e-08
1.28528e-08
1.28541e-08
1.28555e-08
1.28573e-08
1.28592e-08
1.28613e-08
1.28635e-08
1.28657e-08
1.28681e-08
1.28705e-08
1.2873e-08
1.28754e-08
1.2878e-08
1.28801e-08
1.2857e-08
1.28584e-08
1.286e-08
1.2862e-08
1.2864e-08
1.28662e-08
1.28685e-08
1.28709e-08
1.28733e-08
1.28758e-08
1.28784e-08
1.2881e-08
1.28836e-08
1.28858e-08
1.28613e-08
1.28628e-08
1.28646e-08
1.28666e-08
1.28688e-08
1.2871e-08
1.28735e-08
1.28759e-08
1.28785e-08
1.28811e-08
1.28838e-08
1.28865e-08
1.28892e-08
1.28914e-08
1.28649e-08
1.28666e-08
1.28687e-08
1.28709e-08
1.28733e-08
1.28757e-08
1.28783e-08
1.28809e-08
1.28836e-08
1.28863e-08
1.28891e-08
1.2892e-08
1.28946e-08
1.28967e-08
1.28684e-08
1.28704e-08
1.28729e-08
1.28753e-08
1.28779e-08
1.28804e-08
1.28831e-08
1.28858e-08
1.28886e-08
1.28913e-08
1.28941e-08
1.28967e-08
1.28992e-08
1.29013e-08
1.28075e-08
1.28071e-08
1.28071e-08
1.28073e-08
1.28078e-08
1.28085e-08
1.28093e-08
1.28103e-08
1.28115e-08
1.28128e-08
1.28142e-08
1.28157e-08
1.28171e-08
1.28184e-08
1.28118e-08
1.28111e-08
1.28111e-08
1.28112e-08
1.28116e-08
1.28121e-08
1.2813e-08
1.2814e-08
1.28152e-08
1.28165e-08
1.28179e-08
1.28194e-08
1.28207e-08
1.28222e-08
1.28155e-08
1.28148e-08
1.28149e-08
1.28151e-08
1.28154e-08
1.28161e-08
1.28169e-08
1.28179e-08
1.2819e-08
1.28203e-08
1.28216e-08
1.2823e-08
1.28243e-08
1.28259e-08
1.28192e-08
1.28187e-08
1.28189e-08
1.28191e-08
1.28195e-08
1.28201e-08
1.28209e-08
1.2822e-08
1.28231e-08
1.28243e-08
1.28256e-08
1.2827e-08
1.28283e-08
1.28299e-08
1.28229e-08
1.28227e-08
1.28229e-08
1.28232e-08
1.28237e-08
1.28243e-08
1.28252e-08
1.28262e-08
1.28273e-08
1.28285e-08
1.28298e-08
1.28312e-08
1.28325e-08
1.2834e-08
1.28269e-08
1.28268e-08
1.28271e-08
1.28274e-08
1.2828e-08
1.28287e-08
1.28296e-08
1.28306e-08
1.28318e-08
1.2833e-08
1.28343e-08
1.28356e-08
1.2837e-08
1.28384e-08
1.28308e-08
1.28309e-08
1.28313e-08
1.28318e-08
1.28324e-08
1.28332e-08
1.28341e-08
1.28352e-08
1.28364e-08
1.28376e-08
1.2839e-08
1.28403e-08
1.28417e-08
1.2843e-08
1.28348e-08
1.28351e-08
1.28356e-08
1.28362e-08
1.28369e-08
1.28378e-08
1.28388e-08
1.28399e-08
1.28412e-08
1.28425e-08
1.28438e-08
1.28451e-08
1.28466e-08
1.28478e-08
1.28388e-08
1.28393e-08
1.28399e-08
1.28407e-08
1.28415e-08
1.28425e-08
1.28436e-08
1.28448e-08
1.28461e-08
1.28474e-08
1.28487e-08
1.28501e-08
1.28516e-08
1.28528e-08
1.28429e-08
1.28436e-08
1.28443e-08
1.28452e-08
1.28462e-08
1.28472e-08
1.28484e-08
1.28498e-08
1.28511e-08
1.28525e-08
1.28539e-08
1.28553e-08
1.28569e-08
1.28581e-08
1.2847e-08
1.28478e-08
1.28487e-08
1.28497e-08
1.28509e-08
1.28521e-08
1.28534e-08
1.28548e-08
1.28562e-08
1.28577e-08
1.28591e-08
1.28605e-08
1.28622e-08
1.28634e-08
1.28513e-08
1.28522e-08
1.28532e-08
1.28543e-08
1.28556e-08
1.28569e-08
1.28584e-08
1.28599e-08
1.28614e-08
1.28629e-08
1.28645e-08
1.2866e-08
1.28677e-08
1.28688e-08
1.28551e-08
1.28562e-08
1.28575e-08
1.28588e-08
1.28603e-08
1.28618e-08
1.28634e-08
1.2865e-08
1.28666e-08
1.28682e-08
1.28698e-08
1.28715e-08
1.28731e-08
1.28742e-08
1.2859e-08
1.28603e-08
1.28619e-08
1.28634e-08
1.28651e-08
1.28667e-08
1.28684e-08
1.28701e-08
1.28718e-08
1.28735e-08
1.28751e-08
1.28767e-08
1.28782e-08
1.28793e-08
1.28099e-08
1.28091e-08
1.28085e-08
1.28081e-08
1.28078e-08
1.28077e-08
1.28077e-08
1.28078e-08
1.2808e-08
1.28084e-08
1.28089e-08
1.28095e-08
1.281e-08
1.28106e-08
1.28131e-08
1.28121e-08
1.28116e-08
1.2811e-08
1.28107e-08
1.28105e-08
1.28105e-08
1.28106e-08
1.28108e-08
1.28112e-08
1.28116e-08
1.28122e-08
1.28126e-08
1.28134e-08
1.28159e-08
1.28149e-08
1.28144e-08
1.28139e-08
1.28137e-08
1.28135e-08
1.28135e-08
1.28136e-08
1.28137e-08
1.28141e-08
1.28144e-08
1.28149e-08
1.28153e-08
1.28161e-08
1.28188e-08
1.28179e-08
1.28175e-08
1.2817e-08
1.28168e-08
1.28166e-08
1.28166e-08
1.28166e-08
1.28168e-08
1.28171e-08
1.28174e-08
1.28178e-08
1.28182e-08
1.2819e-08
1.28216e-08
1.28209e-08
1.28205e-08
1.28201e-08
1.28199e-08
1.28198e-08
1.28198e-08
1.28199e-08
1.282e-08
1.28203e-08
1.28206e-08
1.28209e-08
1.28213e-08
1.28219e-08
1.28246e-08
1.2824e-08
1.28237e-08
1.28234e-08
1.28232e-08
1.28231e-08
1.28231e-08
1.28232e-08
1.28234e-08
1.28236e-08
1.28239e-08
1.28243e-08
1.28246e-08
1.28251e-08
1.28276e-08
1.28272e-08
1.28269e-08
1.28267e-08
1.28266e-08
1.28265e-08
1.28266e-08
1.28267e-08
1.28269e-08
1.28271e-08
1.28274e-08
1.28277e-08
1.28281e-08
1.28284e-08
1.28307e-08
1.28304e-08
1.28303e-08
1.28301e-08
1.28301e-08
1.28301e-08
1.28302e-08
1.28303e-08
1.28305e-08
1.28308e-08
1.28311e-08
1.28314e-08
1.28318e-08
1.2832e-08
1.28338e-08
1.28338e-08
1.28337e-08
1.28337e-08
1.28337e-08
1.28338e-08
1.28339e-08
1.28341e-08
1.28343e-08
1.28346e-08
1.28349e-08
1.28352e-08
1.28356e-08
1.28357e-08
1.28371e-08
1.28372e-08
1.28372e-08
1.28373e-08
1.28374e-08
1.28375e-08
1.28377e-08
1.2838e-08
1.28383e-08
1.28385e-08
1.28389e-08
1.28393e-08
1.28397e-08
1.28397e-08
1.28404e-08
1.28407e-08
1.28408e-08
1.2841e-08
1.28412e-08
1.28414e-08
1.28417e-08
1.2842e-08
1.28423e-08
1.28427e-08
1.28431e-08
1.28435e-08
1.28439e-08
1.28439e-08
1.28439e-08
1.28443e-08
1.28445e-08
1.28448e-08
1.28451e-08
1.28454e-08
1.28458e-08
1.28461e-08
1.28465e-08
1.28469e-08
1.28474e-08
1.28479e-08
1.28484e-08
1.28482e-08
1.28473e-08
1.28478e-08
1.28482e-08
1.28486e-08
1.2849e-08
1.28495e-08
1.28499e-08
1.28503e-08
1.28508e-08
1.28513e-08
1.28517e-08
1.28522e-08
1.28527e-08
1.28525e-08
1.28509e-08
1.28514e-08
1.2852e-08
1.28526e-08
1.28531e-08
1.28536e-08
1.28542e-08
1.28546e-08
1.28552e-08
1.28556e-08
1.28561e-08
1.28566e-08
1.2857e-08
1.2857e-08
1.28159e-08
1.28149e-08
1.28141e-08
1.28133e-08
1.28126e-08
1.2812e-08
1.28114e-08
1.28109e-08
1.28105e-08
1.28101e-08
1.28098e-08
1.28096e-08
1.28093e-08
1.28091e-08
1.2818e-08
1.28169e-08
1.28161e-08
1.28152e-08
1.28145e-08
1.28138e-08
1.28132e-08
1.28127e-08
1.28122e-08
1.28118e-08
1.28115e-08
1.28112e-08
1.28109e-08
1.2811e-08
1.28198e-08
1.28187e-08
1.28179e-08
1.28171e-08
1.28164e-08
1.28157e-08
1.28151e-08
1.28146e-08
1.28141e-08
1.28137e-08
1.28133e-08
1.2813e-08
1.28126e-08
1.28126e-08
1.28217e-08
1.28206e-08
1.28199e-08
1.28191e-08
1.28184e-08
1.28177e-08
1.28171e-08
1.28165e-08
1.2816e-08
1.28156e-08
1.28152e-08
1.28148e-08
1.28144e-08
1.28143e-08
1.28235e-08
1.28225e-08
1.28218e-08
1.28211e-08
1.28204e-08
1.28197e-08
1.28191e-08
1.28186e-08
1.28181e-08
1.28176e-08
1.28171e-08
1.28167e-08
1.28163e-08
1.28161e-08
1.28254e-08
1.28246e-08
1.28239e-08
1.28232e-08
1.28225e-08
1.28219e-08
1.28213e-08
1.28207e-08
1.28202e-08
1.28197e-08
1.28192e-08
1.28188e-08
1.28183e-08
1.28179e-08
1.28274e-08
1.28266e-08
1.2826e-08
1.28253e-08
1.28247e-08
1.28241e-08
1.28235e-08
1.2823e-08
1.28224e-08
1.28219e-08
1.28214e-08
1.28209e-08
1.28204e-08
1.282e-08
1.28294e-08
1.28288e-08
1.28282e-08
1.28276e-08
1.2827e-08
1.28264e-08
1.28258e-08
1.28253e-08
1.28248e-08
1.28242e-08
1.28237e-08
1.28232e-08
1.28227e-08
1.28222e-08
1.28316e-08
1.28311e-08
1.28305e-08
1.283e-08
1.28294e-08
1.28288e-08
1.28283e-08
1.28278e-08
1.28272e-08
1.28267e-08
1.28262e-08
1.28256e-08
1.28251e-08
1.28244e-08
1.28338e-08
1.28335e-08
1.28329e-08
1.28324e-08
1.28319e-08
1.28314e-08
1.28308e-08
1.28303e-08
1.28297e-08
1.28292e-08
1.28287e-08
1.2828e-08
1.28276e-08
1.28269e-08
1.28362e-08
1.28359e-08
1.28354e-08
1.2835e-08
1.28345e-08
1.2834e-08
1.28335e-08
1.28329e-08
1.28324e-08
1.28318e-08
1.28313e-08
1.28306e-08
1.28302e-08
1.28295e-08
1.28387e-08
1.28385e-08
1.2838e-08
1.28376e-08
1.28371e-08
1.28367e-08
1.28362e-08
1.28357e-08
1.28351e-08
1.28346e-08
1.28341e-08
1.28334e-08
1.28329e-08
1.28322e-08
1.28411e-08
1.2841e-08
1.28406e-08
1.28403e-08
1.28399e-08
1.28394e-08
1.2839e-08
1.28385e-08
1.2838e-08
1.28374e-08
1.28368e-08
1.28362e-08
1.28357e-08
1.28349e-08
1.28438e-08
1.28436e-08
1.28433e-08
1.2843e-08
1.28427e-08
1.28423e-08
1.28419e-08
1.28414e-08
1.28409e-08
1.28403e-08
1.28397e-08
1.2839e-08
1.28385e-08
1.28378e-08
1.28225e-08
1.28214e-08
1.28205e-08
1.28196e-08
1.28186e-08
1.28177e-08
1.28168e-08
1.28159e-08
1.2815e-08
1.28142e-08
1.28134e-08
1.28126e-08
1.28117e-08
1.28109e-08
1.28237e-08
1.28226e-08
1.28217e-08
1.28206e-08
1.28196e-08
1.28187e-08
1.28177e-08
1.28168e-08
1.28159e-08
1.2815e-08
1.28141e-08
1.28133e-08
1.28125e-08
1.28117e-08
1.28245e-08
1.28234e-08
1.28225e-08
1.28215e-08
1.28206e-08
1.28196e-08
1.28187e-08
1.28177e-08
1.28168e-08
1.28159e-08
1.2815e-08
1.28142e-08
1.28133e-08
1.28126e-08
1.28255e-08
1.28244e-08
1.28235e-08
1.28225e-08
1.28215e-08
1.28206e-08
1.28196e-08
1.28187e-08
1.28177e-08
1.28168e-08
1.28159e-08
1.28151e-08
1.28142e-08
1.28134e-08
1.28263e-08
1.28253e-08
1.28245e-08
1.28235e-08
1.28226e-08
1.28216e-08
1.28207e-08
1.28197e-08
1.28187e-08
1.28178e-08
1.28169e-08
1.28159e-08
1.2815e-08
1.28141e-08
1.28273e-08
1.28264e-08
1.28255e-08
1.28246e-08
1.28237e-08
1.28227e-08
1.28217e-08
1.28207e-08
1.28198e-08
1.28188e-08
1.28178e-08
1.28168e-08
1.28159e-08
1.28149e-08
1.28283e-08
1.28275e-08
1.28266e-08
1.28257e-08
1.28248e-08
1.28238e-08
1.28229e-08
1.28219e-08
1.28209e-08
1.28198e-08
1.28188e-08
1.28178e-08
1.28168e-08
1.28157e-08
1.28295e-08
1.28286e-08
1.28278e-08
1.28269e-08
1.2826e-08
1.2825e-08
1.2824e-08
1.2823e-08
1.2822e-08
1.28209e-08
1.28199e-08
1.28188e-08
1.28177e-08
1.28166e-08
1.28306e-08
1.28298e-08
1.2829e-08
1.28281e-08
1.28272e-08
1.28262e-08
1.28252e-08
1.28242e-08
1.28231e-08
1.28221e-08
1.2821e-08
1.28198e-08
1.28187e-08
1.28176e-08
1.28318e-08
1.28311e-08
1.28302e-08
1.28294e-08
1.28284e-08
1.28274e-08
1.28264e-08
1.28254e-08
1.28243e-08
1.28232e-08
1.28221e-08
1.28209e-08
1.28198e-08
1.28186e-08
1.28331e-08
1.28324e-08
1.28315e-08
1.28306e-08
1.28297e-08
1.28287e-08
1.28277e-08
1.28266e-08
1.28255e-08
1.28244e-08
1.28233e-08
1.28221e-08
1.28209e-08
1.28196e-08
1.28343e-08
1.28337e-08
1.28328e-08
1.2832e-08
1.2831e-08
1.283e-08
1.28289e-08
1.28279e-08
1.28267e-08
1.28256e-08
1.28244e-08
1.28232e-08
1.2822e-08
1.28205e-08
1.28356e-08
1.2835e-08
1.28342e-08
1.28333e-08
1.28323e-08
1.28313e-08
1.28302e-08
1.28292e-08
1.2828e-08
1.28268e-08
1.28255e-08
1.28242e-08
1.28229e-08
1.28215e-08
1.28369e-08
1.28363e-08
1.28355e-08
1.28346e-08
1.28337e-08
1.28327e-08
1.28316e-08
1.28305e-08
1.28293e-08
1.28281e-08
1.28268e-08
1.28254e-08
1.2824e-08
1.28225e-08
1.28279e-08
1.28268e-08
1.28259e-08
1.28249e-08
1.28238e-08
1.28227e-08
1.28215e-08
1.28204e-08
1.28192e-08
1.2818e-08
1.28169e-08
1.28157e-08
1.28145e-08
1.28132e-08
1.28283e-08
1.28272e-08
1.28263e-08
1.28251e-08
1.2824e-08
1.28229e-08
1.28217e-08
1.28205e-08
1.28193e-08
1.28181e-08
1.28169e-08
1.28157e-08
1.28145e-08
1.28133e-08
1.28284e-08
1.28273e-08
1.28264e-08
1.28253e-08
1.28242e-08
1.2823e-08
1.28219e-08
1.28207e-08
1.28195e-08
1.28182e-08
1.28171e-08
1.28158e-08
1.28146e-08
1.28134e-08
1.28285e-08
1.28275e-08
1.28266e-08
1.28254e-08
1.28243e-08
1.28232e-08
1.2822e-08
1.28208e-08
1.28196e-08
1.28183e-08
1.28171e-08
1.28159e-08
1.28146e-08
1.28134e-08
1.28286e-08
1.28276e-08
1.28267e-08
1.28256e-08
1.28245e-08
1.28233e-08
1.28221e-08
1.28209e-08
1.28197e-08
1.28184e-08
1.28171e-08
1.28158e-08
1.28145e-08
1.28133e-08
1.28286e-08
1.28277e-08
1.28268e-08
1.28257e-08
1.28246e-08
1.28234e-08
1.28222e-08
1.2821e-08
1.28197e-08
1.28184e-08
1.28171e-08
1.28157e-08
1.28144e-08
1.28131e-08
1.28287e-08
1.28278e-08
1.28269e-08
1.28258e-08
1.28247e-08
1.28235e-08
1.28223e-08
1.2821e-08
1.28197e-08
1.28184e-08
1.2817e-08
1.28156e-08
1.28143e-08
1.28129e-08
1.28288e-08
1.28279e-08
1.28269e-08
1.28259e-08
1.28247e-08
1.28236e-08
1.28223e-08
1.2821e-08
1.28197e-08
1.28183e-08
1.28169e-08
1.28155e-08
1.28141e-08
1.28127e-08
1.28289e-08
1.2828e-08
1.2827e-08
1.2826e-08
1.28248e-08
1.28236e-08
1.28223e-08
1.2821e-08
1.28196e-08
1.28182e-08
1.28168e-08
1.28153e-08
1.28139e-08
1.28124e-08
1.28291e-08
1.28281e-08
1.28271e-08
1.2826e-08
1.28248e-08
1.28236e-08
1.28223e-08
1.28209e-08
1.28195e-08
1.28181e-08
1.28166e-08
1.28152e-08
1.28137e-08
1.28122e-08
1.28292e-08
1.28282e-08
1.28272e-08
1.28261e-08
1.28248e-08
1.28236e-08
1.28222e-08
1.28209e-08
1.28194e-08
1.28179e-08
1.28164e-08
1.28149e-08
1.28133e-08
1.28118e-08
1.28293e-08
1.28283e-08
1.28272e-08
1.2826e-08
1.28248e-08
1.28235e-08
1.28221e-08
1.28207e-08
1.28192e-08
1.28177e-08
1.28162e-08
1.28146e-08
1.2813e-08
1.28115e-08
1.28294e-08
1.28283e-08
1.28272e-08
1.2826e-08
1.28247e-08
1.28234e-08
1.2822e-08
1.28206e-08
1.2819e-08
1.28175e-08
1.28159e-08
1.28143e-08
1.28126e-08
1.28109e-08
1.28294e-08
1.28283e-08
1.28272e-08
1.2826e-08