/*--------------------------------*- C++ -*----------------------------------*\
| =========                 |                                                 |
| \\      /  F ield         | OpenFOAM: The Open Source CFD Toolbox           |
|  \\    /   O peration     | Version:  v2106                                 |
|   \\  /    A nd           | Website:  www.openfoam.com                      |
|    \\/     M anipulation  |                                                 |
\*---------------------------------------------------------------------------*/
FoamFile
{
    version     2.0;
    format      ascii;
    arch        "LSB;label=32;scalar=64";
    class       volScalarField;
    location    "0.000194";
    object      k;
}
// * * * * * * * * * * * * * * * * * * * * * * * * * * * * * * * * * * * * * //

dimensions      [0 2 -2 0 0 0 0];

internalField   nonuniform List<scalar> 
17924
(
2.37014e-12
2.29779e-12
2.28287e-12
2.28011e-12
2.28772e-12
2.28e-12
2.27842e-12
2.27811e-12
2.27809e-12
2.27819e-12
2.27836e-12
2.29214e-12
2.28089e-12
2.27826e-12
2.27767e-12
2.27751e-12
2.27748e-12
2.27749e-12
2.30388e-12
2.28357e-12
2.27858e-12
2.27747e-12
2.2772e-12
2.27713e-12
2.27711e-12
2.32008e-12
2.28719e-12
2.27908e-12
2.2773e-12
2.27691e-12
2.27682e-12
2.2768e-12
2.33727e-12
2.2907e-12
2.27948e-12
2.27709e-12
2.2766e-12
2.2765e-12
2.27647e-12
2.35311e-12
2.2934e-12
2.27964e-12
2.27685e-12
2.2763e-12
2.2762e-12
2.27617e-12
2.36862e-12
2.29566e-12
2.27965e-12
2.27659e-12
2.27603e-12
2.27593e-12
2.27589e-12
2.38437e-12
2.29772e-12
2.27962e-12
2.27635e-12
2.27579e-12
2.2757e-12
2.27566e-12
2.39939e-12
2.29957e-12
2.27961e-12
2.27618e-12
2.27563e-12
2.27554e-12
2.2755e-12
2.4137e-12
2.30138e-12
2.27971e-12
2.27616e-12
2.27569e-12
2.27567e-12
2.27568e-12
2.42576e-12
2.30329e-12
2.28024e-12
2.27676e-12
2.27666e-12
2.27704e-12
2.27734e-12
2.44234e-12
2.30841e-12
2.28299e-12
2.28006e-12
2.28167e-12
2.28395e-12
2.28561e-12
2.49543e-12
2.32919e-12
2.29504e-12
2.29447e-12
2.30327e-12
2.31366e-12
2.32115e-12
2.70289e-12
2.40784e-12
2.3417e-12
2.35049e-12
2.38673e-12
2.42848e-12
2.4585e-12
2.27829e-12
2.27771e-12
2.27768e-12
2.27772e-12
2.27776e-12
2.27781e-12
2.27788e-12
2.27795e-12
2.27804e-12
2.27812e-12
2.2782e-12
2.27825e-12
2.27829e-12
2.27826e-12
2.27871e-12
2.27772e-12
2.27753e-12
2.27753e-12
2.27754e-12
2.27757e-12
2.27762e-12
2.27769e-12
2.27777e-12
2.27787e-12
2.27798e-12
2.27806e-12
2.27813e-12
2.27818e-12
2.27988e-12
2.27788e-12
2.2774e-12
2.27733e-12
2.27733e-12
2.27736e-12
2.27741e-12
2.27748e-12
2.27756e-12
2.27767e-12
2.27778e-12
2.27788e-12
2.27799e-12
2.27808e-12
2.28149e-12
2.27809e-12
2.27726e-12
2.27713e-12
2.27712e-12
2.27716e-12
2.27721e-12
2.27728e-12
2.27736e-12
2.27745e-12
2.27755e-12
2.27763e-12
2.27775e-12
2.27786e-12
2.28315e-12
2.27826e-12
2.2771e-12
2.2769e-12
2.2769e-12
2.27694e-12
2.277e-12
2.27707e-12
2.27715e-12
2.27723e-12
2.27732e-12
2.2774e-12
2.2775e-12
2.27762e-12
2.2846e-12
2.27833e-12
2.27692e-12
2.2767e-12
2.2767e-12
2.27675e-12
2.2768e-12
2.27687e-12
2.27693e-12
2.27701e-12
2.27708e-12
2.27716e-12
2.27724e-12
2.27737e-12
2.28598e-12
2.27838e-12
2.27676e-12
2.27651e-12
2.27651e-12
2.27656e-12
2.2766e-12
2.27666e-12
2.27672e-12
2.27679e-12
2.27686e-12
2.27694e-12
2.27701e-12
2.27715e-12
2.28735e-12
2.27842e-12
2.27661e-12
2.27635e-12
2.27635e-12
2.27639e-12
2.27642e-12
2.27647e-12
2.27651e-12
2.27658e-12
2.27664e-12
2.27672e-12
2.27679e-12
2.27695e-12
2.28864e-12
2.27847e-12
2.2765e-12
2.27623e-12
2.27622e-12
2.27624e-12
2.27626e-12
2.27629e-12
2.27633e-12
2.27639e-12
2.27644e-12
2.27654e-12
2.27661e-12
2.27676e-12
2.28986e-12
2.27854e-12
2.27643e-12
2.27614e-12
2.27612e-12
2.27614e-12
2.27615e-12
2.27617e-12
2.27619e-12
2.27624e-12
2.27629e-12
2.27638e-12
2.27645e-12
2.2766e-12
2.2908e-12
2.27863e-12
2.27643e-12
2.27613e-12
2.27612e-12
2.27615e-12
2.27617e-12
2.27618e-12
2.27619e-12
2.27622e-12
2.27626e-12
2.27634e-12
2.27639e-12
2.27655e-12
2.29193e-12
2.27894e-12
2.27661e-12
2.27635e-12
2.27648e-12
2.27664e-12
2.27676e-12
2.2768e-12
2.27678e-12
2.27675e-12
2.27673e-12
2.27674e-12
2.2767e-12
2.27687e-12
2.29576e-12
2.28047e-12
2.27755e-12
2.27751e-12
2.27826e-12
2.27909e-12
2.27967e-12
2.27988e-12
2.27983e-12
2.27961e-12
2.27932e-12
2.27908e-12
2.27875e-12
2.27891e-12
2.31216e-12
2.28666e-12
2.28134e-12
2.28227e-12
2.28549e-12
2.28907e-12
2.29153e-12
2.29255e-12
2.29246e-12
2.29159e-12
2.29031e-12
2.28908e-12
2.28781e-12
2.28768e-12
2.27627e-12
2.27655e-12
2.2768e-12
2.277e-12
2.27714e-12
2.27728e-12
2.2774e-12
2.2775e-12
2.27761e-12
2.27772e-12
2.27783e-12
2.2779e-12
2.27796e-12
2.2779e-12
2.27638e-12
2.2766e-12
2.2768e-12
2.27697e-12
2.27711e-12
2.27724e-12
2.27737e-12
2.27749e-12
2.27761e-12
2.27774e-12
2.27787e-12
2.27795e-12
2.27802e-12
2.27805e-12
2.27651e-12
2.2766e-12
2.27674e-12
2.27691e-12
2.27705e-12
2.27719e-12
2.27733e-12
2.27746e-12
2.27759e-12
2.27772e-12
2.27786e-12
2.27796e-12
2.27806e-12
2.27813e-12
2.27661e-12
2.27654e-12
2.27666e-12
2.27682e-12
2.27698e-12
2.27713e-12
2.27728e-12
2.27741e-12
2.27754e-12
2.27766e-12
2.27779e-12
2.27788e-12
2.278e-12
2.27809e-12
2.2767e-12
2.27647e-12
2.27656e-12
2.27673e-12
2.2769e-12
2.27705e-12
2.2772e-12
2.27733e-12
2.27746e-12
2.27759e-12
2.2777e-12
2.2778e-12
2.2779e-12
2.27799e-12
2.27674e-12
2.27639e-12
2.27646e-12
2.27664e-12
2.27681e-12
2.27697e-12
2.27711e-12
2.27725e-12
2.27737e-12
2.27749e-12
2.2776e-12
2.27769e-12
2.27778e-12
2.27787e-12
2.27682e-12
2.27635e-12
2.2764e-12
2.27657e-12
2.27673e-12
2.27689e-12
2.27702e-12
2.27715e-12
2.27726e-12
2.27738e-12
2.27748e-12
2.27758e-12
2.27765e-12
2.27776e-12
2.27691e-12
2.27631e-12
2.27634e-12
2.27651e-12
2.27666e-12
2.2768e-12
2.27692e-12
2.27704e-12
2.27715e-12
2.27726e-12
2.27735e-12
2.27745e-12
2.27752e-12
2.27764e-12
2.27702e-12
2.2763e-12
2.27631e-12
2.27646e-12
2.27659e-12
2.27672e-12
2.27682e-12
2.27693e-12
2.27702e-12
2.27713e-12
2.27721e-12
2.27732e-12
2.2774e-12
2.27752e-12
2.27715e-12
2.2763e-12
2.27628e-12
2.27641e-12
2.27653e-12
2.27664e-12
2.27673e-12
2.27683e-12
2.2769e-12
2.277e-12
2.27708e-12
2.27719e-12
2.27726e-12
2.27738e-12
2.27727e-12
2.27632e-12
2.27628e-12
2.27638e-12
2.27648e-12
2.27657e-12
2.27664e-12
2.27672e-12
2.27679e-12
2.27686e-12
2.27694e-12
2.27706e-12
2.27712e-12
2.27724e-12
2.27736e-12
2.27633e-12
2.27628e-12
2.27637e-12
2.27645e-12
2.27653e-12
2.27659e-12
2.27665e-12
2.2767e-12
2.27676e-12
2.27684e-12
2.27693e-12
2.27695e-12
2.27703e-12
2.2776e-12
2.27641e-12
2.27633e-12
2.27641e-12
2.27653e-12
2.27663e-12
2.2767e-12
2.27675e-12
2.27678e-12
2.27681e-12
2.27684e-12
2.27688e-12
2.27681e-12
2.27681e-12
2.27876e-12
2.27683e-12
2.2766e-12
2.27674e-12
2.27705e-12
2.27735e-12
2.27756e-12
2.27763e-12
2.27762e-12
2.27755e-12
2.27744e-12
2.27729e-12
2.27708e-12
2.27698e-12
2.27415e-12
2.27462e-12
2.27501e-12
2.27534e-12
2.27559e-12
2.27581e-12
2.27601e-12
2.27618e-12
2.27633e-12
2.27647e-12
2.2766e-12
2.2767e-12
2.27676e-12
2.27675e-12
2.27437e-12
2.27479e-12
2.27515e-12
2.27545e-12
2.27571e-12
2.27595e-12
2.27617e-12
2.27635e-12
2.27653e-12
2.27669e-12
2.27685e-12
2.27696e-12
2.27704e-12
2.27711e-12
2.27454e-12
2.27492e-12
2.27526e-12
2.27556e-12
2.27584e-12
2.27609e-12
2.27632e-12
2.27652e-12
2.27671e-12
2.27688e-12
2.27705e-12
2.27717e-12
2.27729e-12
2.27738e-12
2.27465e-12
2.275e-12
2.27534e-12
2.27565e-12
2.27593e-12
2.27619e-12
2.27644e-12
2.27665e-12
2.27685e-12
2.27702e-12
2.27719e-12
2.27731e-12
2.27744e-12
2.27756e-12
2.27473e-12
2.27507e-12
2.27541e-12
2.27573e-12
2.27603e-12
2.27629e-12
2.27654e-12
2.27675e-12
2.27695e-12
2.27713e-12
2.27729e-12
2.27741e-12
2.27753e-12
2.27764e-12
2.2748e-12
2.27514e-12
2.27548e-12
2.2758e-12
2.27609e-12
2.27636e-12
2.2766e-12
2.27682e-12
2.27701e-12
2.27719e-12
2.27734e-12
2.27747e-12
2.27758e-12
2.27769e-12
2.27491e-12
2.27524e-12
2.27556e-12
2.27588e-12
2.27616e-12
2.27642e-12
2.27665e-12
2.27685e-12
2.27704e-12
2.27721e-12
2.27736e-12
2.27749e-12
2.27759e-12
2.27771e-12
2.27501e-12
2.27532e-12
2.27562e-12
2.27593e-12
2.2762e-12
2.27644e-12
2.27666e-12
2.27687e-12
2.27704e-12
2.27721e-12
2.27735e-12
2.27749e-12
2.27759e-12
2.27772e-12
2.27514e-12
2.27541e-12
2.2757e-12
2.27599e-12
2.27623e-12
2.27646e-12
2.27666e-12
2.27686e-12
2.27702e-12
2.27718e-12
2.27731e-12
2.27745e-12
2.27755e-12
2.27769e-12
2.27527e-12
2.27549e-12
2.27575e-12
2.27602e-12
2.27624e-12
2.27646e-12
2.27664e-12
2.27681e-12
2.27696e-12
2.27711e-12
2.27723e-12
2.27739e-12
2.27749e-12
2.27763e-12
2.27541e-12
2.27557e-12
2.27581e-12
2.27604e-12
2.27624e-12
2.27643e-12
2.27658e-12
2.27673e-12
2.27686e-12
2.277e-12
2.27713e-12
2.27729e-12
2.27739e-12
2.27755e-12
2.27548e-12
2.2756e-12
2.27583e-12
2.27603e-12
2.27621e-12
2.27636e-12
2.2765e-12
2.27663e-12
2.27675e-12
2.27688e-12
2.27701e-12
2.27716e-12
2.27723e-12
2.27736e-12
2.27551e-12
2.2756e-12
2.27582e-12
2.27599e-12
2.27614e-12
2.27628e-12
2.27639e-12
2.2765e-12
2.27661e-12
2.27672e-12
2.27684e-12
2.27696e-12
2.27698e-12
2.27704e-12
2.27556e-12
2.27558e-12
2.27579e-12
2.27594e-12
2.27609e-12
2.27622e-12
2.27634e-12
2.27643e-12
2.27652e-12
2.2766e-12
2.27667e-12
2.27669e-12
2.27665e-12
2.27664e-12
2.27104e-12
2.27157e-12
2.27203e-12
2.27241e-12
2.27274e-12
2.27304e-12
2.2733e-12
2.27353e-12
2.27374e-12
2.27392e-12
2.2741e-12
2.27424e-12
2.27435e-12
2.27438e-12
2.27139e-12
2.27185e-12
2.27229e-12
2.27267e-12
2.27302e-12
2.27333e-12
2.27361e-12
2.27387e-12
2.2741e-12
2.27431e-12
2.27452e-12
2.27468e-12
2.27481e-12
2.27494e-12
2.27173e-12
2.27216e-12
2.27258e-12
2.27296e-12
2.27331e-12
2.27363e-12
2.27394e-12
2.27421e-12
2.27445e-12
2.27468e-12
2.2749e-12
2.27506e-12
2.27523e-12
2.27538e-12
2.27199e-12
2.27241e-12
2.27283e-12
2.27321e-12
2.27358e-12
2.27391e-12
2.27423e-12
2.27451e-12
2.27477e-12
2.275e-12
2.27521e-12
2.27539e-12
2.27557e-12
2.27574e-12
2.27223e-12
2.27266e-12
2.27308e-12
2.27347e-12
2.27384e-12
2.27418e-12
2.2745e-12
2.27478e-12
2.27505e-12
2.27528e-12
2.2755e-12
2.27568e-12
2.27586e-12
2.27602e-12
2.27247e-12
2.2729e-12
2.27332e-12
2.27371e-12
2.27407e-12
2.27442e-12
2.27474e-12
2.27502e-12
2.27529e-12
2.27552e-12
2.27574e-12
2.27593e-12
2.27611e-12
2.27627e-12
2.27272e-12
2.27316e-12
2.27355e-12
2.27394e-12
2.27429e-12
2.27463e-12
2.27494e-12
2.27522e-12
2.27548e-12
2.27572e-12
2.27594e-12
2.27614e-12
2.27631e-12
2.27648e-12
2.27297e-12
2.27338e-12
2.27375e-12
2.27413e-12
2.27447e-12
2.2748e-12
2.2751e-12
2.27539e-12
2.27564e-12
2.27588e-12
2.2761e-12
2.27631e-12
2.27647e-12
2.27667e-12
2.2732e-12
2.27359e-12
2.27395e-12
2.27431e-12
2.27463e-12
2.27495e-12
2.27523e-12
2.2755e-12
2.27575e-12
2.27599e-12
2.2762e-12
2.27642e-12
2.2766e-12
2.27681e-12
2.27343e-12
2.27377e-12
2.2741e-12
2.27444e-12
2.27475e-12
2.27505e-12
2.27532e-12
2.27558e-12
2.27581e-12
2.27605e-12
2.27627e-12
2.27651e-12
2.27669e-12
2.27692e-12
2.27364e-12
2.27393e-12
2.27424e-12
2.27455e-12
2.27484e-12
2.27511e-12
2.27536e-12
2.2756e-12
2.27583e-12
2.27607e-12
2.27629e-12
2.27655e-12
2.27674e-12
2.27699e-12
2.27377e-12
2.27403e-12
2.27432e-12
2.2746e-12
2.27486e-12
2.27511e-12
2.27536e-12
2.2756e-12
2.27583e-12
2.27606e-12
2.2763e-12
2.27656e-12
2.27674e-12
2.27697e-12
2.27384e-12
2.27408e-12
2.27436e-12
2.27462e-12
2.27486e-12
2.27509e-12
2.27532e-12
2.27554e-12
2.27576e-12
2.27599e-12
2.27622e-12
2.27647e-12
2.2766e-12
2.27677e-12
2.27383e-12
2.27406e-12
2.27436e-12
2.27459e-12
2.27482e-12
2.27503e-12
2.27525e-12
2.27547e-12
2.27569e-12
2.2759e-12
2.27611e-12
2.27628e-12
2.27638e-12
2.27652e-12
2.26718e-12
2.26763e-12
2.26806e-12
2.26845e-12
2.26881e-12
2.26913e-12
2.26944e-12
2.26972e-12
2.26998e-12
2.27023e-12
2.27047e-12
2.27069e-12
2.27088e-12
2.27098e-12
2.26765e-12
2.26804e-12
2.26846e-12
2.26884e-12
2.2692e-12
2.26954e-12
2.26987e-12
2.27017e-12
2.27045e-12
2.27072e-12
2.27099e-12
2.27122e-12
2.27144e-12
2.27165e-12
2.26813e-12
2.26849e-12
2.2689e-12
2.26927e-12
2.26963e-12
2.26998e-12
2.27031e-12
2.27062e-12
2.27091e-12
2.27119e-12
2.27147e-12
2.27171e-12
2.27195e-12
2.27219e-12
2.26854e-12
2.26889e-12
2.26929e-12
2.26967e-12
2.27004e-12
2.27039e-12
2.27073e-12
2.27105e-12
2.27135e-12
2.27164e-12
2.27192e-12
2.27218e-12
2.27243e-12
2.27268e-12
2.26893e-12
2.2693e-12
2.26969e-12
2.27007e-12
2.27044e-12
2.2708e-12
2.27114e-12
2.27147e-12
2.27178e-12
2.27207e-12
2.27236e-12
2.27262e-12
2.27287e-12
2.27311e-12
2.26933e-12
2.2697e-12
2.27008e-12
2.27046e-12
2.27082e-12
2.27118e-12
2.27153e-12
2.27186e-12
2.27218e-12
2.27248e-12
2.27277e-12
2.27304e-12
2.2733e-12
2.27354e-12
2.26971e-12
2.27009e-12
2.27046e-12
2.27083e-12
2.27119e-12
2.27154e-12
2.27189e-12
2.27222e-12
2.27254e-12
2.27286e-12
2.27316e-12
2.27344e-12
2.2737e-12
2.27395e-12
2.27009e-12
2.27046e-12
2.27081e-12
2.27117e-12
2.27152e-12
2.27188e-12
2.27222e-12
2.27256e-12
2.27288e-12
2.2732e-12
2.27351e-12
2.27381e-12
2.27407e-12
2.27434e-12
2.27044e-12
2.27079e-12
2.27113e-12
2.27149e-12
2.27183e-12
2.27218e-12
2.27252e-12
2.27286e-12
2.27319e-12
2.27351e-12
2.27382e-12
2.27413e-12
2.27441e-12
2.2747e-12
2.27078e-12
2.27111e-12
2.27143e-12
2.27178e-12
2.27211e-12
2.27245e-12
2.27279e-12
2.27313e-12
2.27346e-12
2.27378e-12
2.27411e-12
2.27444e-12
2.27473e-12
2.27504e-12
2.2711e-12
2.2714e-12
2.2717e-12
2.27203e-12
2.27236e-12
2.27269e-12
2.27303e-12
2.27336e-12
2.27369e-12
2.27403e-12
2.27436e-12
2.27472e-12
2.27503e-12
2.27537e-12
2.27136e-12
2.27164e-12
2.27193e-12
2.27225e-12
2.27257e-12
2.2729e-12
2.27323e-12
2.27357e-12
2.2739e-12
2.27425e-12
2.2746e-12
2.27497e-12
2.27528e-12
2.27562e-12
2.27154e-12
2.27182e-12
2.27213e-12
2.27243e-12
2.27275e-12
2.27307e-12
2.2734e-12
2.27373e-12
2.27408e-12
2.27443e-12
2.27479e-12
2.27516e-12
2.27545e-12
2.27576e-12
2.27165e-12
2.27193e-12
2.27225e-12
2.27256e-12
2.27288e-12
2.2732e-12
2.27354e-12
2.27388e-12
2.27424e-12
2.27459e-12
2.27494e-12
2.27527e-12
2.27552e-12
2.27579e-12
2.26351e-12
2.26378e-12
2.26409e-12
2.26439e-12
2.26469e-12
2.26499e-12
2.26529e-12
2.2656e-12
2.26589e-12
2.26619e-12
2.26648e-12
2.26676e-12
2.267e-12
2.2672e-12
2.26409e-12
2.26431e-12
2.26461e-12
2.26488e-12
2.26517e-12
2.26546e-12
2.26578e-12
2.26609e-12
2.2664e-12
2.26672e-12
2.26702e-12
2.26732e-12
2.26758e-12
2.26786e-12
2.26464e-12
2.26484e-12
2.26513e-12
2.2654e-12
2.26568e-12
2.26598e-12
2.26629e-12
2.2666e-12
2.26692e-12
2.26723e-12
2.26754e-12
2.26784e-12
2.26812e-12
2.26842e-12
2.26515e-12
2.26535e-12
2.26564e-12
2.2659e-12
2.26619e-12
2.26649e-12
2.2668e-12
2.26712e-12
2.26744e-12
2.26776e-12
2.26808e-12
2.26838e-12
2.26867e-12
2.26898e-12
2.26564e-12
2.26586e-12
2.26614e-12
2.26641e-12
2.26671e-12
2.26701e-12
2.26732e-12
2.26764e-12
2.26797e-12
2.26829e-12
2.26861e-12
2.26892e-12
2.26921e-12
2.26952e-12
2.26615e-12
2.26638e-12
2.26665e-12
2.26692e-12
2.26722e-12
2.26752e-12
2.26784e-12
2.26817e-12
2.2685e-12
2.26883e-12
2.26916e-12
2.26947e-12
2.26978e-12
2.27007e-12
2.26664e-12
2.26689e-12
2.26715e-12
2.26743e-12
2.26772e-12
2.26803e-12
2.26836e-12
2.26869e-12
2.26902e-12
2.26936e-12
2.2697e-12
2.27002e-12
2.27033e-12
2.27064e-12
2.26712e-12
2.26738e-12
2.26764e-12
2.26792e-12
2.26822e-12
2.26854e-12
2.26887e-12
2.26921e-12
2.26955e-12
2.2699e-12
2.27024e-12
2.27058e-12
2.2709e-12
2.27121e-12
2.26759e-12
2.26785e-12
2.26811e-12
2.2684e-12
2.26871e-12
2.26903e-12
2.26937e-12
2.26972e-12
2.27006e-12
2.27042e-12
2.27077e-12
2.27112e-12
2.27145e-12
2.27177e-12
2.26806e-12
2.26831e-12
2.26857e-12
2.26888e-12
2.26918e-12
2.26952e-12
2.26986e-12
2.27021e-12
2.27057e-12
2.27093e-12
2.27129e-12
2.27166e-12
2.27201e-12
2.27234e-12
2.26851e-12
2.26875e-12
2.26901e-12
2.26932e-12
2.26964e-12
2.26998e-12
2.27033e-12
2.27069e-12
2.27106e-12
2.27143e-12
2.27181e-12
2.2722e-12
2.27257e-12
2.27291e-12
2.26893e-12
2.26917e-12
2.26945e-12
2.26976e-12
2.27008e-12
2.27043e-12
2.27079e-12
2.27116e-12
2.27153e-12
2.27192e-12
2.27231e-12
2.27271e-12
2.27309e-12
2.27344e-12
2.26927e-12
2.26953e-12
2.26983e-12
2.27015e-12
2.27049e-12
2.27084e-12
2.27122e-12
2.2716e-12
2.27199e-12
2.27239e-12
2.2728e-12
2.27321e-12
2.27357e-12
2.27389e-12
2.26955e-12
2.26984e-12
2.27019e-12
2.27052e-12
2.27088e-12
2.27124e-12
2.27163e-12
2.27202e-12
2.27242e-12
2.27282e-12
2.27322e-12
2.2736e-12
2.27393e-12
2.27425e-12
2.26112e-12
2.26117e-12
2.26131e-12
2.26147e-12
2.26165e-12
2.26185e-12
2.26208e-12
2.26232e-12
2.26258e-12
2.26284e-12
2.26311e-12
2.26338e-12
2.26362e-12
2.26384e-12
2.26174e-12
2.26173e-12
2.26186e-12
2.26199e-12
2.26216e-12
2.26235e-12
2.26258e-12
2.26282e-12
2.26308e-12
2.26336e-12
2.26363e-12
2.26391e-12
2.26415e-12
2.26443e-12
2.26227e-12
2.26227e-12
2.26239e-12
2.26252e-12
2.26269e-12
2.26289e-12
2.26312e-12
2.26336e-12
2.26361e-12
2.26387e-12
2.26415e-12
2.26442e-12
2.26467e-12
2.26496e-12
2.2628e-12
2.26281e-12
2.26293e-12
2.26307e-12
2.26324e-12
2.26344e-12
2.26367e-12
2.26391e-12
2.26416e-12
2.26443e-12
2.2647e-12
2.26498e-12
2.26523e-12
2.26552e-12
2.2633e-12
2.26335e-12
2.26348e-12
2.26362e-12
2.26381e-12
2.26401e-12
2.26424e-12
2.26448e-12
2.26474e-12
2.265e-12
2.26527e-12
2.26554e-12
2.26581e-12
2.26609e-12
2.26382e-12
2.26391e-12
2.26404e-12
2.2642e-12
2.26439e-12
2.2646e-12
2.26483e-12
2.26507e-12
2.26533e-12
2.2656e-12
2.26588e-12
2.26615e-12
2.26642e-12
2.26669e-12
2.26435e-12
2.26447e-12
2.2646e-12
2.26478e-12
2.26497e-12
2.26519e-12
2.26543e-12
2.26568e-12
2.26594e-12
2.26622e-12
2.2665e-12
2.26677e-12
2.26705e-12
2.26731e-12
2.26489e-12
2.26503e-12
2.26518e-12
2.26536e-12
2.26556e-12
2.26579e-12
2.26603e-12
2.2663e-12
2.26657e-12
2.26685e-12
2.26713e-12
2.26742e-12
2.2677e-12
2.26796e-12
2.26542e-12
2.26557e-12
2.26574e-12
2.26594e-12
2.26615e-12
2.26639e-12
2.26665e-12
2.26692e-12
2.2672e-12
2.26748e-12
2.26778e-12
2.26807e-12
2.26836e-12
2.26862e-12
2.26596e-12
2.26613e-12
2.2663e-12
2.26652e-12
2.26675e-12
2.267e-12
2.26727e-12
2.26755e-12
2.26784e-12
2.26813e-12
2.26843e-12
2.26873e-12
2.26904e-12
2.2693e-12
2.26648e-12
2.26666e-12
2.26685e-12
2.26709e-12
2.26734e-12
2.2676e-12
2.26788e-12
2.26818e-12
2.26848e-12
2.26878e-12
2.2691e-12
2.26941e-12
2.26973e-12
2.27e-12
2.267e-12
2.26719e-12
2.26741e-12
2.26766e-12
2.26792e-12
2.2682e-12
2.26849e-12
2.26879e-12
2.26911e-12
2.26942e-12
2.26975e-12
2.27008e-12
2.27041e-12
2.27068e-12
2.26745e-12
2.26766e-12
2.26792e-12
2.26819e-12
2.26848e-12
2.26877e-12
2.26909e-12
2.26941e-12
2.26974e-12
2.27007e-12
2.27041e-12
2.27076e-12
2.27108e-12
2.27133e-12
2.26788e-12
2.26813e-12
2.26843e-12
2.26872e-12
2.26904e-12
2.26935e-12
2.26968e-12
2.27e-12
2.27034e-12
2.27068e-12
2.27102e-12
2.27134e-12
2.27164e-12
2.27189e-12
2.26022e-12
2.26016e-12
2.26017e-12
2.2602e-12
2.26025e-12
2.26033e-12
2.26043e-12
2.26056e-12
2.2607e-12
2.26086e-12
2.26103e-12
2.26121e-12
2.26138e-12
2.26154e-12
2.26075e-12
2.26065e-12
2.26066e-12
2.26067e-12
2.26071e-12
2.26078e-12
2.26088e-12
2.26101e-12
2.26115e-12
2.26131e-12
2.26148e-12
2.26166e-12
2.26182e-12
2.26201e-12
2.26119e-12
2.26111e-12
2.26112e-12
2.26114e-12
2.26119e-12
2.26126e-12
2.26136e-12
2.26148e-12
2.26162e-12
2.26177e-12
2.26194e-12
2.26211e-12
2.26227e-12
2.26246e-12
2.26166e-12
2.26159e-12
2.26161e-12
2.26163e-12
2.26168e-12
2.26176e-12
2.26186e-12
2.26198e-12
2.26212e-12
2.26227e-12
2.26243e-12
2.26259e-12
2.26275e-12
2.26296e-12
2.26211e-12
2.26208e-12
2.2621e-12
2.26213e-12
2.26219e-12
2.26228e-12
2.26238e-12
2.2625e-12
2.26264e-12
2.26279e-12
2.26294e-12
2.26311e-12
2.26327e-12
2.26345e-12
2.26259e-12
2.26258e-12
2.26261e-12
2.26266e-12
2.26272e-12
2.26281e-12
2.26292e-12
2.26305e-12
2.26318e-12
2.26333e-12
2.26349e-12
2.26366e-12
2.26382e-12
2.26399e-12
2.26307e-12
2.26309e-12
2.26313e-12
2.26319e-12
2.26327e-12
2.26336e-12
2.26348e-12
2.26361e-12
2.26375e-12
2.2639e-12
2.26406e-12
2.26422e-12
2.26439e-12
2.26455e-12
2.26356e-12
2.2636e-12
2.26366e-12
2.26373e-12
2.26382e-12
2.26393e-12
2.26405e-12
2.26419e-12
2.26433e-12
2.26449e-12
2.26465e-12
2.26482e-12
2.26499e-12
2.26515e-12
2.26405e-12
2.26412e-12
2.26419e-12
2.26428e-12
2.26438e-12
2.2645e-12
2.26463e-12
2.26478e-12
2.26494e-12
2.2651e-12
2.26526e-12
2.26543e-12
2.26561e-12
2.26576e-12
2.26456e-12
2.26464e-12
2.26472e-12
2.26483e-12
2.26495e-12
2.26508e-12
2.26523e-12
2.26539e-12
2.26555e-12
2.26572e-12
2.26589e-12
2.26606e-12
2.26625e-12
2.2664e-12
2.26506e-12
2.26516e-12
2.26526e-12
2.26539e-12
2.26553e-12
2.26567e-12
2.26583e-12
2.26601e-12
2.26618e-12
2.26635e-12
2.26653e-12
2.2667e-12
2.26691e-12
2.26705e-12
2.26558e-12
2.26569e-12
2.26581e-12
2.26595e-12
2.26611e-12
2.26627e-12
2.26644e-12
2.26663e-12
2.26681e-12
2.267e-12
2.26718e-12
2.26737e-12
2.26758e-12
2.26772e-12
2.26605e-12
2.26618e-12
2.26634e-12
2.2665e-12
2.26668e-12
2.26686e-12
2.26705e-12
2.26725e-12
2.26745e-12
2.26765e-12
2.26784e-12
2.26804e-12
2.26824e-12
2.26838e-12
2.26653e-12
2.26669e-12
2.26688e-12
2.26707e-12
2.26727e-12
2.26746e-12
2.26767e-12
2.26787e-12
2.26808e-12
2.26829e-12
2.26848e-12
2.26868e-12
2.26887e-12
2.269e-12
2.26032e-12
2.26022e-12
2.26015e-12
2.2601e-12
2.26007e-12
2.26005e-12
2.26005e-12
2.26006e-12
2.26009e-12
2.26013e-12
2.26019e-12
2.26026e-12
2.26032e-12
2.2604e-12
2.26071e-12
2.26059e-12
2.26053e-12
2.26046e-12
2.26042e-12
2.26039e-12
2.26039e-12
2.2604e-12
2.26042e-12
2.26047e-12
2.26052e-12
2.26059e-12
2.26064e-12
2.26074e-12
2.26106e-12
2.26094e-12
2.26088e-12
2.26081e-12
2.26078e-12
2.26076e-12
2.26075e-12
2.26076e-12
2.26079e-12
2.26082e-12
2.26087e-12
2.26093e-12
2.26097e-12
2.26107e-12
2.26142e-12
2.2613e-12
2.26125e-12
2.26119e-12
2.26116e-12
2.26114e-12
2.26113e-12
2.26114e-12
2.26116e-12
2.26119e-12
2.26123e-12
2.26128e-12
2.26133e-12
2.26142e-12
2.26176e-12
2.26166e-12
2.26162e-12
2.26157e-12
2.26154e-12
2.26153e-12
2.26153e-12
2.26154e-12
2.26155e-12
2.26158e-12
2.26162e-12
2.26166e-12
2.26171e-12
2.26178e-12
2.26212e-12
2.26205e-12
2.26201e-12
2.26197e-12
2.26195e-12
2.26193e-12
2.26193e-12
2.26195e-12
2.26196e-12
2.26199e-12
2.26203e-12
2.26207e-12
2.26211e-12
2.26217e-12
2.26248e-12
2.26243e-12
2.2624e-12
2.26237e-12
2.26236e-12
2.26235e-12
2.26236e-12
2.26237e-12
2.26239e-12
2.26242e-12
2.26245e-12
2.26249e-12
2.26254e-12
2.26258e-12
2.26286e-12
2.26283e-12
2.26281e-12
2.2628e-12
2.26279e-12
2.26279e-12
2.2628e-12
2.26281e-12
2.26284e-12
2.26287e-12
2.2629e-12
2.26294e-12
2.26299e-12
2.26301e-12
2.26324e-12
2.26324e-12
2.26323e-12
2.26323e-12
2.26323e-12
2.26324e-12
2.26325e-12
2.26328e-12
2.2633e-12
2.26333e-12
2.26337e-12
2.26341e-12
2.26346e-12
2.26347e-12
2.26364e-12
2.26366e-12
2.26366e-12
2.26367e-12
2.26368e-12
2.2637e-12
2.26372e-12
2.26375e-12
2.26378e-12
2.26382e-12
2.26386e-12
2.2639e-12
2.26396e-12
2.26396e-12
2.26405e-12
2.26408e-12
2.26409e-12
2.26412e-12
2.26415e-12
2.26417e-12
2.26421e-12
2.26424e-12
2.26428e-12
2.26432e-12
2.26437e-12
2.26442e-12
2.26447e-12
2.26446e-12
2.26448e-12
2.26453e-12
2.26455e-12
2.26458e-12
2.26462e-12
2.26466e-12
2.2647e-12
2.26474e-12
2.26479e-12
2.26484e-12
2.2649e-12
2.26495e-12
2.26501e-12
2.265e-12
2.2649e-12
2.26496e-12
2.265e-12
2.26505e-12
2.2651e-12
2.26515e-12
2.26521e-12
2.26526e-12
2.26531e-12
2.26537e-12
2.26543e-12
2.26549e-12
2.26554e-12
2.26552e-12
2.26534e-12
2.2654e-12
2.26547e-12
2.26554e-12
2.2656e-12
2.26566e-12
2.26573e-12
2.26579e-12
2.26585e-12
2.26591e-12
2.26596e-12
2.26602e-12
2.26606e-12
2.26607e-12
2.26087e-12
2.26075e-12
2.26065e-12
2.26055e-12
2.26047e-12
2.26039e-12
2.26032e-12
2.26025e-12
2.2602e-12
2.26016e-12
2.26012e-12
2.26009e-12
2.26005e-12
2.26003e-12
2.26113e-12
2.26099e-12
2.2609e-12
2.26079e-12
2.2607e-12
2.26061e-12
2.26053e-12
2.26047e-12
2.26041e-12
2.26036e-12
2.26032e-12
2.26029e-12
2.26025e-12
2.26025e-12
2.26134e-12
2.26121e-12
2.26112e-12
2.26101e-12
2.26092e-12
2.26084e-12
2.26077e-12
2.2607e-12
2.26064e-12
2.26059e-12
2.26054e-12
2.2605e-12
2.26045e-12
2.26046e-12
2.26157e-12
2.26144e-12
2.26135e-12
2.26125e-12
2.26117e-12
2.26108e-12
2.26101e-12
2.26094e-12
2.26088e-12
2.26082e-12
2.26077e-12
2.26072e-12
2.26067e-12
2.26067e-12
2.26179e-12
2.26168e-12
2.26159e-12
2.2615e-12
2.26141e-12
2.26133e-12
2.26126e-12
2.26119e-12
2.26113e-12
2.26106e-12
2.26101e-12
2.26096e-12
2.2609e-12
2.26087e-12
2.26203e-12
2.26193e-12
2.26184e-12
2.26175e-12
2.26167e-12
2.26159e-12
2.26152e-12
2.26145e-12
2.26138e-12
2.26132e-12
2.26126e-12
2.26121e-12
2.26115e-12
2.2611e-12
2.26227e-12
2.26218e-12
2.2621e-12
2.26202e-12
2.26194e-12
2.26186e-12
2.26179e-12
2.26172e-12
2.26166e-12
2.26159e-12
2.26153e-12
2.26147e-12
2.26141e-12
2.26135e-12
2.26252e-12
2.26244e-12
2.26237e-12
2.2623e-12
2.26222e-12
2.26215e-12
2.26208e-12
2.26201e-12
2.26194e-12
2.26188e-12
2.26181e-12
2.26175e-12
2.26169e-12
2.26162e-12
2.26278e-12
2.26272e-12
2.26265e-12
2.26258e-12
2.26251e-12
2.26244e-12
2.26237e-12
2.26231e-12
2.26224e-12
2.26217e-12
2.26211e-12
2.26204e-12
2.26198e-12
2.26189e-12
2.26306e-12
2.26301e-12
2.26294e-12
2.26288e-12
2.26281e-12
2.26275e-12
2.26268e-12
2.26262e-12
2.26255e-12
2.26248e-12
2.26242e-12
2.26234e-12
2.26228e-12
2.26219e-12
2.26334e-12
2.26331e-12
2.26325e-12
2.26319e-12
2.26313e-12
2.26307e-12
2.263e-12
2.26294e-12
2.26287e-12
2.2628e-12
2.26274e-12
2.26265e-12
2.2626e-12
2.26251e-12
2.26364e-12
2.26362e-12
2.26356e-12
2.26351e-12
2.26345e-12
2.2634e-12
2.26333e-12
2.26327e-12
2.26321e-12
2.26314e-12
2.26307e-12
2.26299e-12
2.26293e-12
2.26284e-12
2.26395e-12
2.26393e-12
2.26388e-12
2.26384e-12
2.26379e-12
2.26373e-12
2.26368e-12
2.26361e-12
2.26355e-12
2.26348e-12
2.26341e-12
2.26333e-12
2.26326e-12
2.26317e-12
2.26428e-12
2.26424e-12
2.26421e-12
2.26417e-12
2.26413e-12
2.26408e-12
2.26403e-12
2.26397e-12
2.26391e-12
2.26384e-12
2.26376e-12
2.26367e-12
2.26361e-12
2.26352e-12
2.2615e-12
2.26136e-12
2.26125e-12
2.26113e-12
2.26102e-12
2.2609e-12
2.26079e-12
2.26068e-12
2.26058e-12
2.26047e-12
2.26037e-12
2.26027e-12
2.26017e-12
2.26006e-12
2.26164e-12
2.2615e-12
2.26139e-12
2.26126e-12
2.26114e-12
2.26102e-12
2.2609e-12
2.26079e-12
2.26068e-12
2.26056e-12
2.26046e-12
2.26036e-12
2.26026e-12
2.26016e-12
2.26174e-12
2.2616e-12
2.2615e-12
2.26137e-12
2.26125e-12
2.26113e-12
2.26102e-12
2.2609e-12
2.26079e-12
2.26068e-12
2.26057e-12
2.26047e-12
2.26036e-12
2.26027e-12
2.26185e-12
2.26172e-12
2.26161e-12
2.26149e-12
2.26137e-12
2.26125e-12
2.26113e-12
2.26102e-12
2.2609e-12
2.26079e-12
2.26068e-12
2.26057e-12
2.26046e-12
2.26037e-12
2.26196e-12
2.26184e-12
2.26173e-12
2.26161e-12
2.2615e-12
2.26138e-12
2.26126e-12
2.26114e-12
2.26102e-12
2.2609e-12
2.26079e-12
2.26068e-12
2.26056e-12
2.26045e-12
2.26208e-12
2.26196e-12
2.26186e-12
2.26174e-12
2.26163e-12
2.26151e-12
2.26139e-12
2.26127e-12
2.26115e-12
2.26103e-12
2.26091e-12
2.26079e-12
2.26066e-12
2.26055e-12
2.2622e-12
2.26209e-12
2.26199e-12
2.26188e-12
2.26177e-12
2.26165e-12
2.26153e-12
2.2614e-12
2.26128e-12
2.26115e-12
2.26103e-12
2.2609e-12
2.26078e-12
2.26065e-12
2.26234e-12
2.26224e-12
2.26213e-12
2.26202e-12
2.26191e-12
2.26179e-12
2.26167e-12
2.26154e-12
2.26142e-12
2.26128e-12
2.26116e-12
2.26102e-12
2.26089e-12
2.26076e-12
2.26247e-12
2.26238e-12
2.26228e-12
2.26217e-12
2.26205e-12
2.26193e-12
2.26181e-12
2.26169e-12
2.26156e-12
2.26142e-12
2.26129e-12
2.26115e-12
2.26101e-12
2.26087e-12
2.26262e-12
2.26254e-12
2.26243e-12
2.26232e-12
2.2622e-12
2.26208e-12
2.26196e-12
2.26183e-12
2.2617e-12
2.26156e-12
2.26142e-12
2.26128e-12
2.26114e-12
2.26099e-12
2.26277e-12
2.26269e-12
2.26258e-12
2.26247e-12
2.26236e-12
2.26223e-12
2.26211e-12
2.26198e-12
2.26185e-12
2.26171e-12
2.26157e-12
2.26142e-12
2.26127e-12
2.26111e-12
2.26293e-12
2.26285e-12
2.26274e-12
2.26264e-12
2.26252e-12
2.26239e-12
2.26226e-12
2.26213e-12
2.26199e-12
2.26185e-12
2.2617e-12
2.26155e-12
2.2614e-12
2.26123e-12
2.26308e-12
2.263e-12
2.2629e-12
2.2628e-12
2.26268e-12
2.26255e-12
2.26242e-12
2.26229e-12
2.26215e-12
2.262e-12
2.26184e-12
2.26168e-12
2.26152e-12
2.26134e-12
2.26324e-12
2.26316e-12
2.26306e-12
2.26296e-12
2.26284e-12
2.26272e-12
2.26258e-12
2.26245e-12
2.2623e-12
2.26215e-12
2.26199e-12
2.26182e-12
2.26165e-12
2.26147e-12
2.26198e-12
2.26184e-12
2.26173e-12
2.2616e-12
2.26147e-12
2.26133e-12
2.26119e-12
2.26105e-12
2.2609e-12
2.26076e-12
2.26062e-12
2.26047e-12
2.26033e-12
2.26016e-12
2.26202e-12
2.26189e-12
2.26177e-12
2.26163e-12
2.2615e-12
2.26135e-12
2.26121e-12
2.26106e-12
2.26092e-12
2.26076e-12
2.26062e-12
2.26047e-12
2.26033e-12
2.26017e-12
2.26203e-12
2.2619e-12
2.26178e-12
2.26165e-12
2.26151e-12
2.26137e-12
2.26123e-12
2.26108e-12
2.26093e-12
2.26078e-12
2.26064e-12
2.26048e-12
2.26033e-12
2.26018e-12
2.26205e-12
2.26192e-12
2.2618e-12
2.26166e-12
2.26153e-12
2.26139e-12
2.26124e-12
2.2611e-12
2.26095e-12
2.26079e-12
2.26064e-12
2.26049e-12
2.26034e-12
2.26019e-12
2.26205e-12
2.26193e-12
2.26181e-12
2.26168e-12
2.26155e-12
2.2614e-12
2.26126e-12
2.26111e-12
2.26095e-12
2.2608e-12
2.26064e-12
2.26048e-12
2.26032e-12
2.26017e-12
2.26206e-12
2.26194e-12
2.26182e-12
2.26169e-12
2.26156e-12
2.26141e-12
2.26127e-12
2.26111e-12
2.26096e-12
2.2608e-12
2.26064e-12
2.26047e-12
2.26031e-12
2.26014e-12
2.26206e-12
2.26195e-12
2.26183e-12
2.26171e-12
2.26157e-12
2.26142e-12
2.26127e-12
2.26112e-12
2.26096e-12
2.26079e-12
2.26063e-12
2.26046e-12
2.26029e-12
2.26012e-12
2.26207e-12
2.26196e-12
2.26184e-12
2.26171e-12
2.26157e-12
2.26143e-12
2.26128e-12
2.26112e-12
2.26095e-12
2.26078e-12
2.26062e-12
2.26044e-12
2.26027e-12
2.26009e-12
2.26209e-12
2.26198e-12
2.26185e-12
2.26172e-12
2.26158e-12
2.26143e-12
2.26128e-12
2.26111e-12
2.26094e-12
2.26077e-12
2.2606e-12
2.26042e-12
2.26024e-12
2.26006e-12
2.2621e-12
2.26199e-12
2.26186e-12
2.26173e-12
2.26158e-12
2.26143e-12
2.26127e-12
2.2611e-12
2.26093e-12
2.26076e-12
2.26058e-12
2.26039e-12
2.26021e-12
2.26003e-12
2.26212e-12
2.262e-12
2.26187e-12
2.26173e-12
2.26158e-12
2.26142e-12
2.26126e-12
2.26109e-12
2.26091e-12
2.26073e-12
2.26055e-12
2.26036e-12
2.26017e-12
2.25998e-12
2.26213e-12
2.26201e-12
2.26187e-12
2.26173e-12
2.26157e-12
2.26141e-12
2.26125e-12
2.26107e-12
2.26089e-12
2.26071e-12
2.26051e-12
2.26032e-12
2.26013e-12
2.25994e-12
2.26213e-12
2.262e-12
2.26187e-12
2.26172e-12
2.26156e-12
2.2614e-12
2.26123e-12
2.26105e-12
2.26086e-12
2.26067e-12
2.26048e-12
2.26028e-12
2.26007e-12
2.25987e-12
2.26213e-12
2.262e-12
2.26187e-12
2.26171e-12
2.26155e-12
2.26138e-12