/*--------------------------------*- C++ -*----------------------------------*\
| =========                 |                                                 |
| \\      /  F ield         | OpenFOAM: The Open Source CFD Toolbox           |
|  \\    /   O peration     | Version:  v2106                                 |
|   \\  /    A nd           | Website:  www.openfoam.com                      |
|    \\/     M anipulation  |                                                 |
\*---------------------------------------------------------------------------*/
FoamFile
{
    version     2.0;
    format      ascii;
    arch        "LSB;label=32;scalar=64";
    class       volScalarField;
    location    "0.000199";
    object      alphat;
}
// * * * * * * * * * * * * * * * * * * * * * * * * * * * * * * * * * * * * * //

dimensions      [1 -1 -1 0 0 0 0];

internalField   nonuniform List<scalar> 
144746
(
7.85994e-05
6.25736e-05
4.93766e-05
3.93724e-05
3.66088e-05
4.21314e-05
5.74338e-05
8.10643e-05
0.00010702
0.000126388
0.000132545
0.000125156
0.000116208
0.000112326
7.89901e-05
6.012e-05
4.31323e-05
2.98687e-05
2.35578e-05
2.32854e-05
3.03185e-05
4.48397e-05
6.48396e-05
8.48354e-05
9.94181e-05
0.000103294
9.78697e-05
9.68398e-05
7.7666e-05
5.5734e-05
3.6325e-05
2.24975e-05
1.56346e-05
1.33474e-05
1.5761e-05
2.36316e-05
3.67674e-05
5.25666e-05
6.6874e-05
7.80647e-05
7.90745e-05
8.22977e-05
6.9486e-05
4.48713e-05
2.68207e-05
1.56782e-05
1.0092e-05
7.8017e-06
8.36823e-06
1.2433e-05
2.05094e-05
3.14496e-05
4.27078e-05
5.20295e-05
5.82105e-05
6.64388e-05
5.34277e-05
3.15296e-05
1.74909e-05
9.64346e-06
5.87573e-06
4.31413e-06
4.41527e-06
6.60451e-06
1.16092e-05
1.92043e-05
2.7831e-05
3.54617e-05
4.27074e-05
5.47601e-05
3.62861e-05
1.93683e-05
9.87556e-06
5.12284e-06
2.99578e-06
2.1743e-06
2.28215e-06
3.63004e-06
6.88687e-06
1.22824e-05
1.90235e-05
2.57621e-05
3.28999e-05
4.68954e-05
2.19848e-05
1.04728e-05
4.86403e-06
2.37054e-06
1.34833e-06
1.01675e-06
1.21151e-06
2.19884e-06
4.52038e-06
8.55076e-06
1.39814e-05
2.00612e-05
2.77561e-05
4.6928e-05
1.26218e-05
5.32996e-06
2.2397e-06
1.02714e-06
5.84206e-07
5.05193e-07
7.67298e-07
1.61181e-06
3.46847e-06
6.70713e-06
1.12974e-05
1.70499e-05
2.65981e-05
5.33138e-05
8.08202e-06
3.15267e-06
1.25203e-06
5.7418e-07
3.57795e-07
3.84307e-07
6.90949e-07
1.49523e-06
3.14801e-06
5.98549e-06
1.01664e-05
1.63967e-05
3.02215e-05
6.51732e-05
7.48234e-06
3.03685e-06
1.30744e-06
6.99348e-07
5.05192e-07
5.52998e-07
8.90249e-07
1.71106e-06
3.32421e-06
6.08733e-06
1.05302e-05
1.89347e-05
3.96214e-05
7.87206e-05
1.0875e-05
5.08906e-06
2.39395e-06
1.42857e-06
1.10091e-06
1.10417e-06
1.46371e-06
2.36087e-06
4.12121e-06
7.28815e-06
1.31175e-05
2.61575e-05
5.32036e-05
8.97455e-05
2.04085e-05
1.25789e-05
6.77739e-06
3.71043e-06
2.6154e-06
2.40069e-06
2.76523e-06
3.8392e-06
6.0223e-06
1.02632e-05
1.89537e-05
3.76829e-05
6.6606e-05
9.67946e-05
3.52606e-05
2.71628e-05
1.79456e-05
1.04723e-05
6.54974e-06
5.25992e-06
5.41917e-06
6.74761e-06
9.61448e-06
1.53728e-05
2.6972e-05
4.88205e-05
7.52004e-05
9.94913e-05
5.16109e-05
4.53161e-05
3.58024e-05
2.5206e-05
1.68119e-05
1.2153e-05
1.08001e-05
1.19179e-05
1.53264e-05
2.2269e-05
3.49377e-05
5.58691e-05
7.81855e-05
9.79896e-05
6.43194e-05
4.90327e-05
3.77617e-05
2.97453e-05
2.67985e-05
2.86767e-05
3.62084e-05
4.83743e-05
6.27376e-05
7.61841e-05
8.78729e-05
9.75668e-05
0.000104095
0.000109791
5.63874e-05
4.1791e-05
3.02601e-05
2.17723e-05
1.75788e-05
1.69541e-05
2.05396e-05
2.84117e-05
3.96438e-05
5.19313e-05
6.33537e-05
7.35153e-05
8.14106e-05
8.8216e-05
4.84036e-05
3.44499e-05
2.35854e-05
1.59373e-05
1.17744e-05
1.02379e-05
1.15256e-05
1.60779e-05
2.39893e-05
3.40897e-05
4.44481e-05
5.37383e-05
6.21587e-05
7.01948e-05
3.85859e-05
2.63335e-05
1.70782e-05
1.08977e-05
7.52118e-06
6.06125e-06
6.38881e-06
8.90981e-06
1.41538e-05
2.16765e-05
3.01345e-05
3.81316e-05
4.47624e-05
5.39891e-05
2.84865e-05
1.82209e-05
1.10687e-05
6.66573e-06
4.36032e-06
3.353e-06
3.4152e-06
4.84576e-06
8.2522e-06
1.36969e-05
2.03576e-05
2.70983e-05
3.32938e-05
4.28012e-05
1.93298e-05
1.1286e-05
6.32235e-06
3.57972e-06
2.23999e-06
1.68778e-06
1.74782e-06
2.64541e-06
4.90328e-06
8.80809e-06
1.40175e-05
1.98013e-05
2.57819e-05
3.47902e-05
1.19987e-05
6.23456e-06
3.17361e-06
1.68337e-06
1.01699e-06
7.78584e-07
8.90141e-07
1.54096e-06
3.14186e-06
6.03598e-06
1.0177e-05
1.52195e-05
2.11669e-05
3.12231e-05
7.16227e-06
3.23765e-06
1.46587e-06
7.19381e-07
4.24945e-07
3.57637e-07
5.12674e-07
1.06065e-06
2.32496e-06
4.63172e-06
8.09346e-06
1.26503e-05
1.89063e-05
3.13513e-05
4.8793e-06
1.94218e-06
7.74648e-07
3.48897e-07
2.10399e-07
2.199e-07
4.05613e-07
9.25441e-07
2.0492e-06
4.07448e-06
7.20844e-06
1.17099e-05
1.91141e-05
3.51321e-05
4.78219e-06
1.87202e-06
7.38269e-07
3.50583e-07
2.36729e-07
2.6884e-07
4.79536e-07
1.01789e-06
2.1314e-06
4.11896e-06
7.31819e-06
1.24739e-05
2.23373e-05
4.17723e-05
6.94027e-06
3.03203e-06
1.3152e-06
7.14236e-07
5.24318e-07
5.39201e-07
7.76465e-07
1.38211e-06
2.61624e-06
4.84818e-06
8.66255e-06
1.55923e-05
2.84778e-05
5.00778e-05
1.28678e-05
7.10479e-06
3.53917e-06
1.87868e-06
1.32149e-06
1.23907e-06
1.50555e-06
2.25284e-06
3.78333e-06
6.62673e-06
1.17985e-05
2.13376e-05
3.71102e-05
5.98734e-05
2.28304e-05
1.54813e-05
9.29109e-06
5.18675e-06
3.3223e-06
2.82531e-06
3.07268e-06
4.04039e-06
6.04632e-06
9.81369e-06
1.6729e-05
2.91044e-05
4.84164e-05
7.09915e-05
3.50464e-05
2.70032e-05
1.91864e-05
1.25395e-05
8.21486e-06
6.33609e-06
6.18731e-06
7.31845e-06
9.84801e-06
1.45488e-05
2.29113e-05
3.77038e-05
5.94385e-05
8.09563e-05
4.65148e-05
3.4935e-05
2.70744e-05
2.17133e-05
1.94707e-05
1.94426e-05
2.1958e-05
2.65715e-05
3.29581e-05
3.98412e-05
4.73088e-05
5.67032e-05
7.33863e-05
9.66958e-05
3.25299e-05
2.46882e-05
1.87662e-05
1.44696e-05
1.22429e-05
1.16007e-05
1.2757e-05
1.5711e-05
2.05034e-05
2.64891e-05
3.37206e-05
4.25432e-05
5.50785e-05
7.182e-05
2.30269e-05
1.74393e-05
1.2954e-05
9.59584e-06
7.68604e-06
6.90007e-06
7.31971e-06
9.09879e-06
1.25522e-05
1.75026e-05
2.38028e-05
3.1504e-05
4.12045e-05
5.37493e-05
1.64451e-05
1.19741e-05
8.52636e-06
6.0369e-06
4.6021e-06
3.94759e-06
4.06048e-06
5.11101e-06
7.51756e-06
1.13873e-05
1.65874e-05
2.29443e-05
3.05853e-05
4.03682e-05
1.15897e-05
7.78587e-06
5.18835e-06
3.48097e-06
2.53308e-06
2.09898e-06
2.12869e-06
2.76633e-06
4.40669e-06
7.3035e-06
1.14337e-05
1.66634e-05
2.29501e-05
3.1154e-05
7.95531e-06
4.7412e-06
2.87236e-06
1.80327e-06
1.25371e-06
1.01658e-06
1.04835e-06
1.46567e-06
2.58781e-06
4.71111e-06
7.94238e-06
1.22524e-05
1.7643e-05
2.49372e-05
5.36866e-06
2.74073e-06
1.45516e-06
8.36222e-07
5.53615e-07
4.48502e-07
5.00279e-07
8.07321e-07
1.61444e-06
3.20413e-06
5.76904e-06
9.39831e-06
1.42196e-05
2.10479e-05
3.81324e-06
1.63292e-06
7.2261e-07
3.61394e-07
2.23802e-07
1.90248e-07
2.59034e-07
5.18609e-07
1.1626e-06
2.44336e-06
4.59224e-06
7.79235e-06
1.23096e-05
1.90784e-05
3.14642e-06
1.1788e-06
4.30774e-07
1.76924e-07
9.98926e-08
9.87852e-08
1.80811e-07
4.30779e-07
1.01631e-06
2.16643e-06
4.12587e-06
7.14857e-06
1.16512e-05
1.87883e-05
3.29768e-06
1.21762e-06
4.23887e-07
1.65467e-07
9.48666e-08
1.04098e-07
1.99592e-07
4.66741e-07
1.06715e-06
2.2242e-06
4.19825e-06
7.30902e-06
1.21304e-05
2.00511e-05
4.38433e-06
1.78754e-06
6.97272e-07
3.20056e-07
2.09186e-07
2.12862e-07
3.26639e-07
6.39404e-07
1.32264e-06
2.61819e-06
4.82424e-06
8.32676e-06
1.37983e-05
2.28836e-05
7.11761e-06
3.47634e-06
1.60768e-06
8.21613e-07
5.59124e-07
5.27219e-07
6.68114e-07
1.06887e-06
1.92188e-06
3.51275e-06
6.19834e-06
1.04062e-05
1.68968e-05
2.77917e-05
1.18618e-05
6.88275e-06
3.79871e-06
2.1347e-06
1.44792e-06
1.2939e-06
1.46492e-06
2.00924e-06
3.13233e-06
5.18721e-06
8.6382e-06
1.40728e-05
2.27168e-05
3.56098e-05
1.83926e-05
1.20144e-05
7.70168e-06
4.90504e-06
3.44062e-06
2.97031e-06
3.14137e-06
3.88561e-06
5.39078e-06
8.07505e-06
1.25653e-05
2.01424e-05
3.31106e-05
4.90751e-05
0.000118811
0.000137064
0.000156069
0.000172596
0.000184503
0.000238834
0.000105922
0.000129825
0.000156322
0.000179536
0.000199792
0.000264296
9.54792e-05
0.000126848
0.000160164
0.000185198
0.000210706
0.00028704
8.66215e-05
0.000128439
0.000168006
0.000188675
0.000214944
0.000305875
8.28773e-05
0.000136077
0.000178396
0.000190901
0.000213449
0.000321504
8.53381e-05
0.000148492
0.000186482
0.000189507
0.000207018
0.000333518
9.46601e-05
0.000158795
0.000186822
0.000183508
0.000198154
0.000342258
0.000107176
0.000162796
0.000179328
0.000175234
0.000189491
0.00034562
0.000116635
0.000157728
0.000167739
0.00016802
0.000182792
0.000343815
0.000119055
0.000146613
0.000156565
0.00016184
0.000177185
0.000335874
0.000115943
0.000134539
0.000146475
0.000156529
0.000173066
0.000321679
0.000111263
0.000124833
0.000137898
0.000152033
0.000170591
0.000301047
0.000107023
0.000117997
0.000131829
0.000149135
0.00016975
0.000275043
0.000102569
0.000113422
0.000128539
0.000149123
0.000171162
0.000244468
0.000118522
0.000137118
0.000154948
0.00017224
0.000184852
0.000221664
9.77143e-05
0.000119913
0.000146774
0.000172898
0.000197986
0.000246278
8.20158e-05
0.000107937
0.000143476
0.000176301
0.000206986
0.000268806
6.81451e-05
9.90645e-05
0.000144139
0.000180747
0.000210286
0.000286496
5.90375e-05
9.56519e-05
0.00014934
0.000186177
0.000209585
0.000300692
5.42197e-05
9.77825e-05
0.000157103
0.000189885
0.000205193
0.000310668
5.48404e-05
0.000103291
0.000162002
0.000188819
0.000198499
0.00031742
5.92835e-05
0.000109202
0.000162004
0.000183761
0.000192021
0.000319831
6.54322e-05
0.000111812
0.000156338
0.000176683
0.000187487
0.000318524
7.10533e-05
0.000109781
0.000147713
0.000170334
0.00018506
0.000312214
7.50159e-05
0.000105575
0.000139314
0.000165361
0.000184393
0.000300223
7.87183e-05
0.000103136
0.00013354
0.000161129
0.000183673
0.000282027
8.47471e-05
0.000104677
0.000131147
0.000157418
0.000182436
0.000257737
8.99054e-05
0.000108434
0.000130689
0.000154102
0.000181066
0.000228435
0.000120804
0.000145705
0.000164621
0.000175429
0.000186832
0.000196477
9.16994e-05
0.000116603
0.000142422
0.000166076
0.000192203
0.000220829
7.11927e-05
9.56808e-05
0.000126502
0.000160268
0.000196862
0.000244347
5.46788e-05
7.91206e-05
0.000114668
0.000157435
0.000198865
0.000262679
4.39633e-05
6.78097e-05
0.000107261
0.000157479
0.000200514
0.000276733
3.66618e-05
6.05124e-05
0.000104647
0.000160683
0.000200788
0.00028594
3.2399e-05
5.7521e-05
0.000106523
0.000163533
0.000200546
0.000293452
3.09037e-05
5.84098e-05
0.000109469
0.000165294
0.000199052
0.000298116
3.17916e-05
6.08922e-05
0.000111268
0.00016458
0.000197152
0.000299938
3.4282e-05
6.2732e-05
0.000110156
0.000161997
0.000197238
0.000297053
3.74651e-05
6.32576e-05
0.000107332
0.000159714
0.000199527
0.000287681
4.12378e-05
6.45113e-05
0.000105897
0.000158055
0.000200256
0.000270374
4.85925e-05
7.05495e-05
0.000109126
0.000156845
0.000197656
0.000246021
5.83751e-05
8.2064e-05
0.000117673
0.000155574
0.000191943
0.000216017
9.76269e-05
0.000111939
0.000131047
0.000155341
0.000178248
0.000249545
7.87563e-05
9.34077e-05
0.000117778
0.000150424
0.000186988
0.000275068
6.10655e-05
7.65549e-05
0.000106062
0.000145754
0.000191969
0.000296283
4.41162e-05
6.19737e-05
9.67402e-05
0.000141307
0.000192396
0.0003116
3.28961e-05
5.25812e-05
9.14884e-05
0.000139416
0.000189885
0.000322375
2.63967e-05
4.93716e-05
9.24562e-05
0.000140517
0.000185413
0.000327758
2.41722e-05
5.11732e-05
9.70693e-05
0.00014165
0.000179563
0.000330417
2.57931e-05
5.68253e-05
0.000102311
0.000140775
0.000172222
0.000330382
3.09858e-05
6.34724e-05
0.00010414
0.000136148
0.000164151
0.000328675
3.85011e-05
6.81148e-05
0.000101288
0.000128678
0.000156606
0.000323712
4.61739e-05
6.97636e-05
9.55895e-05
0.000120219
0.000150665
0.000313654
5.22643e-05
6.96157e-05
8.96204e-05
0.000112632
0.000147257
0.000296555
5.6075e-05
6.87783e-05
8.53812e-05
0.000108039
0.000146508
0.000273269
5.7375e-05
6.85305e-05
8.47175e-05
0.00010895
0.000149378
0.000242597
9.11109e-05
0.000110403
0.000131278
0.000155015
0.000182893
0.000232413
6.67808e-05
8.42091e-05
0.000108661
0.000140551
0.000182845
0.000255642
4.68019e-05
6.27976e-05
8.93247e-05
0.000127743
0.000180475
0.000274186
3.17809e-05
4.60132e-05
7.34188e-05
0.000117065
0.000175474
0.000286128
2.26882e-05
3.6328e-05
6.3603e-05
0.00010916
0.000168736
0.000293637
1.72162e-05
3.08106e-05
5.91125e-05
0.000105561
0.000162236
0.000296719
1.43968e-05
2.87603e-05
5.87024e-05
0.000104317
0.000156494
0.000297872
1.37707e-05
2.97762e-05
6.09883e-05
0.000104008
0.000151326
0.000296587
1.54325e-05
3.29542e-05
6.36139e-05
0.000102555
0.000145139
0.00029433
1.92305e-05
3.67083e-05
6.42006e-05
9.89792e-05
0.000141528
0.000291237
2.43831e-05
4.00204e-05
6.33158e-05
9.50159e-05
0.000141426
0.000284062
2.9904e-05
4.29837e-05
6.27158e-05
9.25987e-05
0.000144299
0.000269756
3.52537e-05
4.6387e-05
6.44986e-05
9.43922e-05
0.00014995
0.000249033
3.98996e-05
5.12235e-05
7.0438e-05
0.000102282
0.000158488
0.000222466
6.73564e-05
9.27103e-05
0.000122494
0.000153831
0.000188735
0.000216192
4.60512e-05
6.57008e-05
9.33462e-05
0.00012977
0.000176934
0.000236554
2.93108e-05
4.52613e-05
7.01588e-05
0.000109135
0.000166328
0.000251508
1.9601e-05
3.11251e-05
5.26524e-05
9.21924e-05
0.000155228
0.000260036
1.38145e-05
2.34553e-05
4.19856e-05
7.82514e-05
0.000141805
0.000263489
1.0203e-05
1.86763e-05
3.53899e-05
6.93211e-05
0.000129472
0.000261874
8.07548e-06
1.57981e-05
3.15599e-05
6.3627e-05
0.000119714
0.000258028
7.02004e-06
1.44413e-05
2.99439e-05
6.04887e-05
0.000112573
0.000254269
6.89408e-06
1.4372e-05
2.98413e-05
5.88228e-05
0.000107852
0.000251336
7.7926e-06
1.5322e-05
3.02458e-05
5.7756e-05
0.000106865
0.000250232
9.6947e-06
1.6995e-05
3.10324e-05
5.79387e-05
0.000111347
0.000247851
1.24973e-05
1.94568e-05
3.30407e-05
6.10857e-05
0.00012163
0.000239716
1.6184e-05
2.33325e-05
3.80225e-05
6.97222e-05
0.000136207
0.000223741
2.10412e-05
3.00543e-05
4.86574e-05
8.57572e-05
0.000151626
0.000200539
0.000239108
0.000173012
0.000137114
0.000111637
9.36082e-05
8.2441e-05
0.000270204
0.000167586
0.000131677
0.000109494
9.41162e-05
8.44002e-05
0.000297673
0.000170363
0.000135243
0.000114779
9.87978e-05
8.64077e-05
0.000317947
0.000177685
0.000145478
0.000124652
0.000103785
8.49348e-05
0.000331946
0.000190576
0.00015906
0.000133924
0.000103202
7.52287e-05
0.000341899
0.000207983
0.000171627
0.000135723
9.25185e-05
5.88723e-05
0.000347221
0.00022648
0.000174654
0.000123901
7.42959e-05
4.11881e-05
0.000349409
0.00023864
0.000164018
0.00010254
5.47419e-05
2.7096e-05
0.000347041
0.000240646
0.000146321
8.15763e-05
4.03517e-05
1.88565e-05
0.000338558
0.000232221
0.000129667
6.8291e-05
3.39491e-05
1.65584e-05
0.0003229
0.000215959
0.000119981
6.47013e-05
3.5271e-05
1.9785e-05
0.000302374
0.000196457
0.000115846
6.87901e-05
4.3155e-05
2.88166e-05
0.000276794
0.000177951
0.000115798
7.7683e-05
5.53321e-05
4.17682e-05
0.000249831
0.000164334
0.000118674
8.96385e-05
7.0515e-05
5.70483e-05
0.00021919
0.000184518
0.000139611
0.000107349
8.33489e-05
6.79787e-05
0.000247246
0.000178366
0.000131148
9.81762e-05
7.50072e-05
6.13476e-05
0.000271711
0.000178808
0.000128556
9.47555e-05
7.01988e-05
5.50701e-05
0.000292147
0.00018315
0.000130785
9.52926e-05
6.66684e-05
4.8102e-05
0.000306463
0.000190761
0.000135815
9.52814e-05
6.0585e-05
3.96317e-05
0.000316747
0.00020268
0.000139259
8.99683e-05
5.1955e-05
3.04266e-05
0.000323538
0.000215734
0.000136154
7.92173e-05
4.1361e-05
2.16175e-05
0.000326776
0.000225168
0.000127099
6.63163e-05
3.16934e-05
1.49163e-05
0.000325004
0.000227759
0.000116631
5.57456e-05
2.53718e-05
1.12874e-05
0.00031716
0.000222566
0.000108448
5.05868e-05
2.34819e-05
1.08437e-05
0.000302025
0.000210642
0.00010502
5.13929e-05
2.61522e-05
1.36151e-05
0.000281434
0.000195883
0.000106137
5.78848e-05
3.35975e-05
2.04359e-05
0.000255922
0.000182025
0.000109958
6.79356e-05
4.45888e-05
3.07129e-05
0.000228344
0.000173421
0.000117018
8.12e-05
5.87032e-05
4.37137e-05
0.000192061
0.000193082
0.000144677
0.000100345
6.82602e-05
4.73527e-05
0.000218493
0.000191582
0.000132583
8.30099e-05
5.17547e-05
3.51424e-05
0.000241553
0.000187781
0.000121679
7.15014e-05
4.23235e-05
2.748e-05
0.00026061
0.00018405
0.00011276
6.48584e-05
3.65938e-05
2.20816e-05
0.000274555
0.00018262
0.000106777
5.97085e-05
3.18865e-05
1.76027e-05
0.000285207
0.000184214
0.000103059
5.49223e-05
2.75127e-05
1.37891e-05
0.000293725
0.000188728
0.000100214
5.00432e-05
2.34078e-05
1.07003e-05
0.000299765
0.000194539
9.82364e-05
4.61125e-05
2.03713e-05
8.65896e-06
0.000301177
0.000198945
9.69889e-05
4.36721e-05
1.87159e-05
7.70919e-06
0.000295635
0.000198551
9.62382e-05
4.32592e-05
1.88151e-05
7.97324e-06
0.000281415
0.000191417
9.59475e-05
4.48277e-05
2.07717e-05
9.61761e-06
0.00026009
0.0001816
9.82022e-05
4.99332e-05
2.5685e-05
1.34692e-05
0.000233553
0.000173714
0.000102302
5.73697e-05
3.29595e-05
1.9533e-05
0.000204993
0.000169216
0.000109352
6.75398e-05
4.26305e-05
2.7722e-05
0.000234505
0.000174471
0.000159593
0.000142549
0.000127334
0.000116173
0.000265636
0.000170393
0.00015328
0.00013811
0.000126658
0.000119113
0.000292551
0.000171432
0.00015367
0.000141116
0.000132665
0.000126906
0.000314674
0.000177854
0.000160338
0.000150948
0.000145223
0.000138944
0.000332013
0.000189991
0.000172189
0.000166404
0.000162409
0.000148895
0.000343725
0.000205877
0.000188899
0.000186246
0.000176327
0.000146574
0.00034907
0.000224777
0.00020799
0.000201896
0.000175783
0.0001281
0.000347836
0.000243727
0.000221732
0.00020148
0.000155898
0.00010008
0.000340288
0.000259017
0.000221217
0.000181035
0.000125432
7.48462e-05
0.00033023
0.00026612
0.000205388
0.000151391
9.86097e-05
5.96356e-05
0.000315328
0.000259776
0.000187531
0.000130116
8.49335e-05
5.54185e-05
0.00029592
0.000241511
0.000172576
0.000120645
8.3496e-05
6.03107e-05
0.000271237
0.000216798
0.000162141
0.000119575
8.93359e-05
6.98713e-05
0.000244323
0.000192881
0.00015494
0.000124031
0.00010039
8.36223e-05
0.000216859
0.000177374
0.000162055
0.000146856
0.000130496
0.000115464
0.000246021
0.000174794
0.000159031
0.000143833
0.000126469
0.000112092
0.000271236
0.000175811
0.000160463
0.00014513
0.000125357
0.000107983
0.000293179
0.000180643
0.000166672
0.000152266
0.000129898
0.000107225
0.000310829
0.000189878
0.000177387
0.000164389
0.000136387
0.000101783
0.000323136
0.000204106
0.000192199
0.000176237
0.000134962
9.26915e-05
0.000328221
0.000223356
0.000206032
0.000177003
0.000124052
7.8046e-05
0.000326687
0.00024214
0.000209813
0.000163341
0.000105398
6.18932e-05
0.00032115
0.000257537
0.000199105
0.000139862
8.53916e-05
4.89936e-05
0.000311678
0.000264126
0.000180745
0.000118034
7.13386e-05
4.25986e-05
0.000296176
0.000258581
0.000167571
0.00010653
6.64387e-05
4.26496e-05
0.000275582
0.000243855
0.000160287
0.000105553
7.05597e-05
4.92613e-05
0.000250312
0.000222316
0.000156642
0.000110835
8.01405e-05
6.00399e-05
0.000223373
0.000202711
0.000156431
0.000121835
9.56092e-05
7.58175e-05
0.000193485
0.000185925
0.000174575
0.000159455
0.000132168
0.000104014
0.000220407
0.000188467
0.000175887
0.000149336
0.000114132
8.58736e-05
0.000244716
0.000191688
0.000176725
0.000143381
0.000101547
7.15131e-05
0.000266685
0.000197068
0.00017976
0.000140944
9.66429e-05
6.55906e-05
0.000283825
0.000204061
0.000181441
0.000139516
9.30375e-05
5.95681e-05
0.000294234
0.000212819
0.000182064
0.000135156
8.66027e-05
5.23648e-05
0.000298231
0.000224662
0.00017803
0.000124944
7.66975e-05
4.43525e-05
0.000298738
0.000232981
0.000169154
0.00011182
6.6604e-05
3.76749e-05
0.000294546
0.000236592
0.000159263
0.000100072
5.85849e-05
3.31346e-05
0.00028458
0.000235677
0.000152123
9.34852e-05
5.49788e-05
3.19657e-05
0.000267732
0.000229165
0.000148556
9.21711e-05
5.56944e-05
3.3831e-05
0.000246053
0.000218489
0.000149118
9.72531e-05
6.24094e-05
4.04346e-05
0.000220589
0.000207096
0.000152444
0.000106426
7.3215e-05
5.06349e-05
0.0001939
0.000200306
0.000160684
0.000121783
9.00269e-05
6.58927e-05
2.45753e-05
1.82831e-05
1.41968e-05
1.17789e-05
1.11056e-05
1.11494e-05
1.18639e-05
1.30567e-05
1.50436e-05
1.78217e-05
2.14726e-05
2.55443e-05
3.2392e-05
4.85306e-05
1.3204e-05
9.92513e-06
7.76807e-06
6.43707e-06
5.99392e-06
6.01409e-06
6.42505e-06
7.13195e-06
8.3611e-06
1.02411e-05
1.29748e-05
1.65342e-05
2.2678e-05
3.60075e-05
7.5904e-06
5.41161e-06
4.18278e-06
3.44628e-06
3.18219e-06
3.18344e-06
3.3975e-06
3.79146e-06
4.53998e-06
5.8263e-06
7.90922e-06
1.10237e-05
1.6327e-05
2.63823e-05
4.72792e-06
2.98686e-06
2.18113e-06
1.76091e-06
1.61385e-06
1.61061e-06
1.71768e-06
1.93586e-06
2.4038e-06
3.31572e-06
4.95269e-06
7.63389e-06
1.21366e-05
1.98562e-05
3.17096e-06
1.67737e-06
1.09093e-06
8.4142e-07
7.62142e-07
7.59765e-07
8.1526e-07
9.44891e-07
1.25793e-06
1.9321e-06
3.23752e-06
5.50686e-06
9.28025e-06
1.54313e-05
2.29338e-06
9.84108e-07
5.29324e-07
3.73186e-07
3.30007e-07
3.29365e-07
3.61807e-07
4.48966e-07
6.76366e-07
1.19584e-06
2.24853e-06
4.14998e-06
7.32951e-06
1.24161e-05
1.79202e-06
6.32367e-07
2.62514e-07
1.55998e-07
1.3067e-07
1.31552e-07
1.54645e-07
2.22714e-07
4.04899e-07
8.30236e-07
1.70881e-06
3.32941e-06
6.07007e-06
1.04565e-05
1.54792e-06
4.75631e-07
1.50357e-07
6.61875e-08
4.86432e-08
5.07854e-08
7.12031e-08
1.33152e-07
2.97212e-07
6.77657e-07
1.46029e-06
2.90763e-06
5.36756e-06
9.32124e-06
1.46724e-06
4.25513e-07
1.13589e-07
3.54829e-08
2.02497e-08
2.35144e-08
4.50365e-08
1.09536e-07
2.75792e-07
6.51961e-07
1.40908e-06
2.78811e-06
5.11307e-06
8.83402e-06
1.55081e-06
4.57549e-07
1.21269e-07
3.51441e-08
1.81189e-08
2.24362e-08
4.80703e-08
1.22482e-07
3.07403e-07
7.11589e-07
1.4992e-06
2.8944e-06
5.20114e-06
8.84843e-06
1.79064e-06
5.68459e-07
1.73873e-07
6.61302e-08
4.2579e-08
4.76839e-08
8.08653e-08
1.73045e-07
3.91489e-07
8.50011e-07
1.71142e-06
3.18807e-06
5.57184e-06
9.28019e-06
2.42247e-06
8.71267e-07
3.32345e-07
1.69924e-07
1.27599e-07
1.31622e-07
1.78237e-07
3.00792e-07
5.72073e-07
1.11258e-06
2.08622e-06
3.69575e-06
6.22323e-06
1.00813e-05
3.59758e-06
1.52574e-06
7.28331e-07
4.53619e-07
3.66744e-07
3.63507e-07
4.33119e-07
6.08371e-07
9.64584e-07
1.63106e-06
2.77976e-06
4.6136e-06
7.39909e-06
1.15345e-05
5.54304e-06
2.75997e-06
1.57633e-06
1.11281e-06
9.46226e-07
9.30844e-07
1.04595e-06
1.32487e-06
1.84906e-06
2.76653e-06
4.26495e-06
6.56114e-06
9.96916e-06
1.46963e-05
1.31078e-05
9.92766e-06
7.99749e-06
6.92935e-06
6.78697e-06
7.0319e-06
7.61409e-06
8.46687e-06
9.80159e-06
1.17347e-05
1.44016e-05
1.76254e-05
2.19122e-05
3.03254e-05
6.96183e-06
5.19774e-06
4.17351e-06
3.59668e-06
3.49404e-06
3.63444e-06
3.96458e-06
4.46222e-06
5.26572e-06
6.50638e-06
8.3588e-06
1.0827e-05
1.44825e-05
2.14811e-05
3.97971e-06
2.7247e-06
2.12661e-06
1.81885e-06
1.7613e-06
1.83519e-06
2.00732e-06
2.27765e-06
2.74414e-06
3.53633e-06
4.84578e-06
6.82747e-06
1.00161e-05
1.58879e-05
2.45932e-06
1.44121e-06
1.04466e-06
8.76024e-07
8.46706e-07
8.83957e-07
9.70051e-07
1.11348e-06
1.38724e-06
1.90933e-06
2.87206e-06
4.50296e-06
7.268e-06
1.21669e-05
1.64556e-06
7.85407e-07
4.95274e-07
3.96158e-07
3.80098e-07
3.97909e-07
4.40909e-07
5.20205e-07
6.9119e-07
1.05554e-06
1.79001e-06
3.13953e-06
5.50367e-06
9.58839e-06
1.20037e-06
4.61002e-07
2.33144e-07
1.68243e-07
1.57662e-07
1.657e-07
1.88309e-07
2.37058e-07
3.54772e-07
6.26786e-07
1.20712e-06
2.32839e-06
4.3357e-06
7.76801e-06
9.55226e-07
3.06839e-07
1.16973e-07
6.87222e-08
6.0484e-08
6.41862e-08
7.79612e-08
1.13329e-07
2.05384e-07
4.27023e-07
9.11414e-07
1.86863e-06
3.60219e-06
6.55718e-06
8.37511e-07
2.41418e-07
7.06493e-08
2.94435e-08
2.21641e-08
2.43293e-08
3.50897e-08
6.62406e-08
1.49582e-07
3.50996e-07
7.88958e-07
1.65181e-06
3.21121e-06
5.85487e-06
7.99195e-07
2.22936e-07
5.66326e-08
1.66067e-08
9.34608e-09
1.12922e-08
2.21551e-08
5.48025e-08
1.41376e-07
3.45959e-07
7.79178e-07
1.61319e-06
3.0962e-06
5.57747e-06
8.34969e-07
2.39484e-07
6.12366e-08
1.70849e-08
8.80964e-09
1.11969e-08
2.43576e-08
6.31814e-08
1.62846e-07
3.89723e-07
8.52286e-07
1.71253e-06
3.20383e-06
5.65004e-06
9.32298e-07
2.88622e-07
8.61433e-08
3.2689e-08
2.17403e-08
2.49647e-08
4.27738e-08
9.27557e-08
2.14818e-07
4.80538e-07
1.00114e-06
1.93476e-06
3.50908e-06
6.03186e-06
1.17553e-06
4.17083e-07
1.62158e-07
8.66105e-08
6.77516e-08
7.17324e-08
9.85178e-08
1.68105e-07
3.25705e-07
6.49656e-07
1.25683e-06
2.30523e-06
4.02053e-06
6.69894e-06
1.63503e-06
7.05353e-07
3.60362e-07
2.39719e-07
2.01243e-07
2.04567e-07
2.48567e-07
3.54147e-07
5.70287e-07
9.8271e-07
1.71604e-06
2.93293e-06
4.8505e-06
7.75767e-06
2.47679e-06
1.31761e-06
8.19304e-07
6.1393e-07
5.37076e-07
5.39359e-07
6.1845e-07
7.9646e-07
1.12536e-06
1.69886e-06
2.64793e-06
4.13837e-06
6.3711e-06
9.56529e-06
6.53748e-06
5.04831e-06
4.17218e-06
3.75058e-06
3.78822e-06
4.06779e-06
4.56977e-06
5.28886e-06
6.31183e-06
7.72411e-06
9.65525e-06
1.21417e-05
1.54684e-05
2.07908e-05
3.52594e-06
2.64151e-06
2.14368e-06
1.89649e-06
1.8911e-06
2.0272e-06
2.28785e-06
2.68157e-06
3.2749e-06
4.15435e-06
5.44667e-06
7.23704e-06
9.81935e-06
1.40718e-05
1.9928e-06
1.35287e-06
1.05532e-06
9.20962e-07
9.14285e-07
9.80586e-07
1.11008e-06
1.31331e-06
1.64181e-06
2.17797e-06
3.04922e-06
4.39266e-06
6.50316e-06
1.0098e-05
1.20514e-06
6.8908e-07
4.94851e-07
4.22218e-07
4.18787e-07
4.50674e-07
5.13051e-07
6.15231e-07
7.96699e-07
1.13013e-06
1.73801e-06
2.78262e-06
4.54857e-06
7.60106e-06
7.94592e-07
3.62131e-07
2.23406e-07
1.81337e-07
1.78954e-07
1.93649e-07
2.23255e-07
2.75712e-07
3.80975e-07
5.99574e-07
1.04118e-06
1.8694e-06
3.34786e-06
5.93537e-06
5.73959e-07
2.07481e-07
1.00813e-07
7.33016e-08
7.08378e-08
7.72498e-08
9.16357e-08
1.20922e-07
1.88118e-07
3.42473e-07
6.77822e-07
1.34594e-06
2.58522e-06
4.7794e-06
4.55663e-07
1.3769e-07
4.95185e-08
2.87292e-08
2.60664e-08
2.88389e-08
3.67019e-08
5.59519e-08
1.05273e-07
2.25825e-07
4.97999e-07
1.0582e-06
2.12044e-06
4.01655e-06
3.99898e-07
1.09785e-07
3.0265e-08
1.20586e-08
9.24691e-09
1.06557e-08
1.6205e-08
3.20601e-08
7.50759e-08
1.82291e-07
4.25443e-07
9.27857e-07
1.88332e-06
3.58638e-06
3.86478e-07
1.04002e-07
2.51536e-08
6.97106e-09
3.92348e-09
5.02134e-09
1.0377e-08
2.66653e-08
7.10957e-08
1.80177e-07
4.2202e-07
9.11663e-07
1.82897e-06
3.44174e-06
4.11124e-07
1.14058e-07
2.79621e-08
7.65309e-09
4.14698e-09
5.48782e-09
1.20687e-08
3.18046e-08
8.40571e-08
2.07755e-07
4.71729e-07
9.87714e-07
1.92857e-06
3.54523e-06
4.66215e-07
1.39519e-07
4.06162e-08
1.58949e-08
1.13612e-08
1.34461e-08
2.28767e-08
4.94582e-08
1.16125e-07
2.66584e-07
5.74309e-07
1.15294e-06
2.17566e-06
3.8844e-06
5.78665e-07
2.02355e-07
8.01086e-08
4.50968e-08
3.7309e-08
4.0862e-08
5.65279e-08
9.61797e-08
1.87328e-07
3.80272e-07
7.56174e-07
1.43473e-06
2.59318e-06
4.46736e-06
7.96428e-07
3.53364e-07
1.89232e-07
1.3122e-07
1.14487e-07
1.20506e-07
1.49789e-07
2.1572e-07
3.50173e-07
6.11112e-07
1.08981e-06
1.91633e-06
3.27216e-06
5.39125e-06
1.24263e-06
6.99114e-07
4.5364e-07
3.48907e-07
3.13406e-07
3.24872e-07
3.8379e-07
5.05205e-07
7.24538e-07
1.10613e-06
1.74928e-06
2.79129e-06
4.41249e-06
6.82376e-06
3.6409e-06
2.7919e-06
2.24769e-06
1.98969e-06
1.99918e-06
2.20468e-06
2.61142e-06
3.2133e-06
4.04829e-06
5.17324e-06
6.65382e-06
8.59467e-06
1.12362e-05
1.51938e-05
1.91948e-06
1.42524e-06
1.12142e-06
9.68758e-07
9.55404e-07
1.0432e-06
1.23473e-06
1.53933e-06
1.99762e-06
2.67202e-06
3.63935e-06
5.00162e-06
6.96359e-06
9.99447e-06
1.03858e-06
6.9736e-07
5.2634e-07
4.46814e-07
4.38272e-07
4.77829e-07
5.66191e-07
7.13192e-07
9.52582e-07
1.34293e-06
1.96814e-06
2.94382e-06
4.46623e-06
6.93892e-06
6.01546e-07
3.3607e-07
2.33011e-07
1.93114e-07
1.89582e-07
2.0775e-07
2.47701e-07
3.16972e-07
4.40994e-07
6.69237e-07
1.08302e-06
1.8014e-06
3.01439e-06
5.07013e-06
3.82727e-07
1.67151e-07
9.90104e-08
7.80298e-08
7.6474e-08
8.45844e-08
1.02399e-07
1.35551e-07
2.02596e-07
3.42655e-07
6.26785e-07
1.16676e-06
2.14009e-06
3.85132e-06
2.69056e-07
9.17773e-08
4.22898e-08
2.97455e-08
2.86514e-08
3.2103e-08
4.01969e-08
5.72942e-08
9.70382e-08
1.8962e-07
3.93764e-07
8.0883e-07
1.59632e-06
3.02454e-06
2.10267e-07
5.98753e-08
2.0136e-08
1.1112e-08
1.0041e-08
1.15011e-08
1.56149e-08
2.59609e-08
5.30837e-08
1.20992e-07
2.78462e-07
6.1282e-07
1.26983e-06
2.48875e-06
1.85229e-07
4.83933e-08
1.24715e-08
4.59066e-09
3.45225e-09
4.17483e-09
6.89416e-09
1.48669e-08
3.72e-08
9.47873e-08
2.30502e-07
5.2306e-07
1.10586e-06
2.19614e-06
1.84408e-07
4.73227e-08
1.07764e-08
2.78233e-09
1.53958e-09
2.09707e-09
4.6446e-09
1.25993e-08
3.50921e-08
9.25809e-08
2.26065e-07
5.10266e-07
1.07167e-06
2.11276e-06
2.04564e-07
5.34957e-08
1.24255e-08
3.41557e-09
2.03337e-09
2.75817e-09
5.95617e-09
1.57297e-08
4.25082e-08
1.08624e-07
2.56827e-07
5.62515e-07
1.15151e-06
2.21922e-06
2.41152e-07
6.76767e-08
1.91825e-08
8.04265e-09
6.37476e-09
7.72402e-09
1.27e-08
2.66343e-08
6.24553e-08
1.46499e-07
3.26755e-07
6.83999e-07
1.34978e-06
2.51851e-06
3.09401e-07
1.03779e-07
4.14285e-08
2.47749e-08
2.19714e-08
2.49861e-08
3.44941e-08
5.74277e-08
1.10369e-07
2.25714e-07
4.59994e-07
9.03739e-07
1.69903e-06
3.04106e-06
4.47481e-07
1.96576e-07
1.05987e-07
7.54799e-08
6.90076e-08
7.60023e-08
9.68165e-08
1.40003e-07
2.26406e-07
3.96277e-07
7.17893e-07
1.29583e-06
2.28449e-06
3.8797e-06
7.44239e-07
4.18061e-07
2.68359e-07
2.07325e-07
1.92165e-07
2.08375e-07
2.55705e-07
3.44451e-07
4.99667e-07
7.68964e-07
1.23154e-06
2.00383e-06
3.24787e-06
5.14781e-06
2.41251e-06
1.80613e-06
1.38559e-06
1.15917e-06
1.11342e-06
1.22123e-06
1.49384e-06
1.94117e-06
2.60152e-06
3.52315e-06
4.75121e-06
6.37231e-06
8.54974e-06
1.16492e-05
1.2221e-06
8.9064e-07
6.68748e-07
5.45516e-07
5.11754e-07
5.50575e-07
6.67189e-07
8.76499e-07
1.21716e-06
1.74261e-06
2.51391e-06
3.62056e-06
5.19641e-06
7.52854e-06
6.26409e-07
4.14806e-07
2.99334e-07
2.39597e-07
2.22802e-07
2.38288e-07
2.88141e-07
3.82657e-07
5.50867e-07
8.40148e-07
1.31654e-06
2.07402e-06
3.24838e-06
5.09164e-06
3.39774e-07
1.8752e-07
1.24922e-07
9.76134e-08
9.06873e-08
9.73741e-08
1.1864e-07
1.60865e-07
2.43683e-07
4.04471e-07
7.04228e-07
1.23403e-06
2.12785e-06
3.61665e-06
2.01876e-07
8.64783e-08
4.95483e-08
3.69162e-08
3.42637e-08
3.72071e-08
4.63082e-08
6.56894e-08
1.08373e-07
2.02084e-07