/*--------------------------------*- C++ -*----------------------------------*\
| =========                 |                                                 |
| \\      /  F ield         | OpenFOAM: The Open Source CFD Toolbox           |
|  \\    /   O peration     | Version:  v2106                                 |
|   \\  /    A nd           | Website:  www.openfoam.com                      |
|    \\/     M anipulation  |                                                 |
\*---------------------------------------------------------------------------*/
FoamFile
{
    version     2.0;
    format      ascii;
    arch        "LSB;label=32;scalar=64";
    class       volScalarField;
    location    "0.000199";
    object      p;
}
// * * * * * * * * * * * * * * * * * * * * * * * * * * * * * * * * * * * * * //

dimensions      [1 -1 -2 0 0 0 0];

internalField   nonuniform List<scalar> 
144746
(
195413
195486
195141
194985
194834
194669
194496
194293
194046
193859
193684
193883
193826
194573
194982
195146
195038
195009
194918
194812
194680
194524
194321
194140
194010
194132
194088
194784
195145
195257
195186
195169
195089
195040
194914
194805
194649
194468
194299
194237
194125
194482
195249
195354
195364
195377
195352
195288
195203
195123
195001
194851
194683
194561
194425
194559
195500
195576
195627
195676
195628
195577
195504
195444
195347
195206
195031
194869
194735
194748
195770
195835
195927
195945
195918
195867
195806
195758
195682
195548
195384
195199
195073
194978
196024
196102
196209
196225
196184
196128
196068
196030
195964
195849
195688
195493
195350
195191
196390
196454
196505
196492
196439
196375
196326
196295
196244
196146
196016
195821
195646
195423
196745
196762
196768
196736
196674
196611
196564
196532
196482
196380
196220
196023
195848
195603
197114
197068
197011
196949
196892
196835
196790
196754
196707
196603
196474
196291
196077
195790
197385
197304
197219
197140
197086
197043
197003
196956
196904
196807
196670
196473
196260
195962
197686
197493
197397
197294
197268
197238
197219
197174
197114
197014
196905
196719
196556
196264
197936
197588
197520
197415
197390
197378
197401
197375
197322
197214
197110
196896
196744
196398
197989
197549
197600
197506
197499
197485
197541
197549
197523
197449
197392
197370
197600
197347
195152
195607
195586
195756
195747
195906
195906
195879
195753
195637
195442
195429
195138
195548
195286
195620
195715
195912
195925
196046
196066
196067
195987
195921
195824
195812
195678
196023
195595
195836
195906
196081
196094
196193
196229
196245
196201
196123
196028
195975
195870
195993
195825
195991
196083
196229
196274
196353
196402
196438
196432
196386
196334
196280
196185
196221
196009
196137
196254
196334
196419
196493
196556
196619
196660
196660
196634
196593
196531
196555
196200
196305
196387
196492
196580
196660
196734
196817
196874
196898
196932
196890
196865
196860
196370
196497
196569
196662
196741
196818
196897
196995
197079
197129
197167
197168
197153
197114
196549
196691
196752
196833
196910
196985
197066
197166
197261
197332
197391
197366
197332
197277
196755
196897
196962
197027
197095
197162
197242
197331
197424
197516
197574
197557
197503
197374
197000
197105
197178
197232
197296
197361
197432
197507
197580
197673
197723
197684
197597
197425
197239
197312
197379
197433
197493
197564
197626
197691
197736
197808
197846
197827
197722
197500
197486
197505
197565
197611
197694
197765
197829
197877
197908
197969
197972
197950
197863
197646
197725
197683
197767
197814
197880
197943
198004
198047
198073
198098
198090
198018
197938
197658
197860
197802
197949
198029
198121
198198
198249
198280
198285
198254
198251
198277
198379
198284
194188
195006
195229
195408
195597
195719
195777
195738
195623
195439
195216
195053
194819
194986
194916
195423
195748
195904
196058
196126
196164
196136
196039
195930
195862
195814
195711
195919
195573
195951
196196
196321
196426
196466
196484
196469
196427
196383
196295
196243
196136
196224
196123
196389
196590
196697
196778
196804
196819
196806
196770
196721
196686
196663
196581
196599
196560
196765
196941
197017
197085
197108
197129
197126
197110
197076
197025
197005
196991
197020
196954
197114
197270
197340
197403
197431
197452
197453
197442
197420
197393
197383
197380
197458
197311
197464
197591
197658
197720
197758
197786
197794
197794
197781
197768
197778
197794
197865
197709
197858
197965
198029
198087
198129
198156
198163
198165
198156
198159
198180
198207
198265
198089
198240
198337
198405
198466
198514
198542
198550
198553
198546
198561
198583
198624
198653
198491
198648
198746
198816
198871
198916
198942
198947
198949
198953
198981
198998
199041
199024
198855
199029
199143
199218
199265
199313
199341
199357
199362
199376
199406
199417
199444
199380
199207
199383
199527
199612
199675
199715
199743
199762
199775
199793
199825
199860
199847
199758
199564
199730
199884
199983
200049
200098
200131
200171
200208
200247
200288
200288
200237
199966
199720
199984
200206
200340
200434
200512
200555
200588
200619
200666
200742
200819
200876
200612
196094
197202
197296
197963
198035
199981
194190
195241
195817
197163
197644
199665
194406
195302
195855
197209
197769
199853
194520
195136
195645
196936
197562
199606
194794
195295
195841
197057
197707
199644
194980
195331
195817
196930
197725
199420
195180
195522
195959
197090
197787
199724
195360
195604
195964
197061
197718
199967
195500
195719
196166
197363
198020
200283
195670
195933
196375
197608
198262
200446
195969
196277
196722
197941
198547
200559
196259
196586
197086
198280
198837
200710
196790
197267
197721
198809
199417
200936
196377
197002
197804
199362
199983
200846
196735
197604
197417
197767
197412
199102
195335
195871
196077
197020
197117
198946
195783
196242
196416
197435
197445
199632
196108
196370
196509
197463
197494
199531
196547
196780
196926
197887
197953
199954
196845
197050
197174
197978
198042
199652
197080
197297
197396
198151
198171
199924
197218
197390
197421
198097
198007
199978
197281
197388
197407
198126
198045
200178
197311
197322
197357
198072
198076
200155
197403
197408
197487
198156
198301
200137
197544
197516
197565
198174
198412
200249
197728
197816
197933
198596
198780
200293
196901
197113
197431
198712
199259
200276
196183
196422
196309
195903
195433
195893
195204
195205
195006
195417
195330
196221
195829
195741
195574
196139
196149
197950
196437
196301
196229
196762
196773
198558
197025
196984
197035
197698
197849
200272
197517
197596
197722
198368
198666
200722
197956
198129
198307
198977
199311
201458
198342
198549
198736
199351
199641
201770
198724
198928
199097
199634
199870
202275
199058
199214
199344
199870
200114
202315
199399
199525
199666
200108
200385
202084
199824
199840
199922
200237
200499
201803
200303
200129
200274
200600
200789
201925
199681
199651
199716
200233
200828
202173
198540
199575
199567
200201
200379
201367
196880
197939
198216
199378
199472
201344
197248
198108
198336
199531
199482
201878
197411
197960
198138
199224
199319
201512
197605
198030
198252
199256
199402
201479
197687
198019
198185
199079
199247
200994
197691
197955
198091
198963
199093
200947
197616
197854
197959
198706
198731
200722
197585
197806
197942
198668
198801
200740
197566
197740
197906
198560
198802
200615
197647
197856
198085
198585
198739
200767
197725
197886
198135
198771
199036
200090
197900
198110
198357
198921
199208
199934
197370
197528
197907
198710
199032
199644
199261
199869
199749
200193
200053
200646
197855
198422
198318
199090
198912
200528
198099
198485
198415
199287
199042
200956
198240
198497
198452
199160
199148
200619
198377
198645
198720
199389
199303
201022
198477
198796
198882
199529
199537
200799
198507
198807
198932
199705
199847
200899
198424
198821
199068
199852
200145
200490
198404
198796
199097
199713
199888
200530
198355
198662
198970
199424
199553
200358
198302
198562
198861
199177
199339
200083
198233
198406
198643
198863
199010
199569
198181
198208
198386
198597
198859
199463
197428
197296
197464
197848
198256
198705
201657
202187
202202
202391
202115
202520
200736
201154
201084
201634
201567
202727
200873
201251
201217
201987
202043
203265
200947
201350
201403
202088
202220
203024
201042
201430
201603
202199
202364
203285
201031
201523
201797
202389
202596
203345
201035
201523
201872
202429
202658
203117
200997
201542
201898
202393
202631
202984
200924
201451
201798
202163
202363
202354
200830
201263
201557
201702
201699
201507
200731
201007
201217
201138
200940
200291
200582
200678
200763
200488
200025
199088
200428
200220
200153
199702
199264
198113
199603
199124
198816
198220
198018
196677
198156
197210
196724
195719
195138
194794
198326
197086
196688
196007
195676
195526
198168
196622
196241
195601
195335
195288
199115
196246
196084
195596
195395
195351
198584
196595
196251
195642
195495
195502
198532
196930
196672
196064
195853
195770
198275
197400
197079
196380
196195
196040
198759
197687
197437
196780
196636
196421
199073
197850
197742
197111
197007
196767
199510
198166
198055
197398
197370
197148
199516
198250
198239
197628
197635
197386
200014
198554
198568
197944
197974
197614
199771
198667
198718
198064
198088
197561
200946
199753
199718
199241
199249
198598
196216
195458
194896
194165
193974
194508
196654
195822
195596
195280
195218
195690
196539
195768
195575
195397
195390
195721
197058
196094
195904
195719
195666
195898
196954
196105
195952
195900
195866
196024
197033
196390
196265
196182
196103
196204
197077
196521
196410
196298
196254
196338
197397
196768
196554
196416
196423
196506
197708
197022
196792
196569
196593
196674
198105
197364
197097
196785
196853
196894
198198
197499
197345
197024
197118
197105
198672
197953
197769
197355
197419
197311
198741
198059
197996
197555
197634
197416
199391
198822
198829
198690
198692
198283
187281
189652
189670
190597
191348
192990
188022
190748
191424
192778
193480
194880
188539
191269
192015
193504
194198
195353
189737
192047
192846
194241
194856
195858
190903
192863
193610
194873
195449
196261
192137
193772
194461
195510
196042
196678
193286
194616
195235
196095
196622
197061
194238
195378
195923
196685
197160
197488
194868
195963
196428
197190
197620
197891
195333
196454
196847
197633
198069
198299
195481
196780
197191
197971
198442
198635
195789
197210
197650
198396
198824
199011
196039
197509
197899
198697
199159
199270
196685
198256
198931
199686
199933
199978
199399
198138
197414
195941
194895
194195
199258
197798
197093
195809
195102
194568
199586
197306
196537
195205
194475
194080
199334
197136
196395
195069
194374
193897
199228
196872
196141
194865
194161
193846
199038
196723
195966
194805
194291
194003
198682
196742
196014
194978
194503
194233
198698
196764
196120
195133
194728
194460
198512
196703
196320
195321
194970
194680
198768
196918
196556
195473
195169
194793
198587
196795
196590
195457
195315
194962
199092
196914
196785
195810
195657
195067
198874
196690
196796
195848
195672
195004
199265
197929
197853
197247
197158
196379
198077
196904
196229
194880
194343
194329
198504
196603
196228
195558
195348
195520
198185
196376
195984
195292
195159
195420
198275
196285
196033
195367
195214
195379
198295
196191
196048
195422
195338
195507
198256
196318
196220
195694
195604
195657
197850
196498
196383
195902
195784
195785
197652
196604
196504
195998
195872
195826
197612
196601
196460
195874
195835
195808
197712
196346
196214
195613
195656
195633
197270
195931
195896
195312
195423
195571
197279
196050
195875
195283
195298
195331
196861
195735
195742
195124
195104
195062
197230
196355
196365
196325
196351
195876
193661
193883
192753
192269
192256
193198
193408
193926
193289
193566
193813
194801
192757
193411
192941
193348
193713
194733
193157
193417
193200
193551
193923
194807
193678
193462
193427
193799
194219
194984
193775
193898
193856
194217
194576
195189
193437
194149
193994
194430
194783
195319
193298
194036
193908
194452
194851
195372
192798
193545
193521
194190
194684
195280
192122
192897
193006
193795
194393
195086
190824
191971
192318
193268
193996
194806
189916
191367
191857
192930
193649
194427
188693
190668
191276
192563
193349
194015
188211
190581
191629
193233
193804
194425
197075
197296
197215
197126
197061
196944
196863
196733
196571
196338
196044
195747
195427
195463
197455
197561
197546
197506
197415
197287
197176
197035
196886
196685
196463
196264
196141
196236
197782
197828
197823
197785
197696
197585
197468
197332
197191
197019
196834
196676
196544
196574
198032
198051
198053
198002
197931
197834
197720
197591
197455
197302
197154
197026
196948
196950
198293
198289
198277
198219
198153
198067
197966
197854
197733
197598
197474
197371
197300
197289
198595
198562
198525
198456
198390
198314
198228
198132
198026
197912
197810
197732
197689
197679
198939
198884
198825
198748
198680
198609
198531
198446
198355
198259
198178
198115
198089
198085
199349
199272
199194
199108
199033
198959
198882
198803
198722
198643
198579
198525
198511
198497
199764
199682
199598
199513
199436
199358
199281
199204
199132
199066
199016
198968
198960
198928
200264
200172
200072
199978
199889
199804
199719
199642
199575
199520
199479
199440
199439
199381
200733
200649
200554
200459
200362
200272
200186
200111
200050
200007
199975
199939
199946
199843
201357
201236
201117
201009
200887
200786
200693
200616
200553
200507
200472
200437
200459
200348
201809
201768
201647
201544
201411
201299
201201
201121
201055
200999
200962
200931
200958
200861
202598
202470
202331
202201
202041
201901
201783
201687
201603
201525
201492
201487
201520
201377
198549
198439
198257
198008
197837
197622
197441
197233
197007
196745
196436
196152
195854
195696
198708
198578
198440
198267
198117
197932
197740
197526
197301
197059
196814
196590
196371
196276
198865
198713
198598
198452
198322
198165
197991
197792
197586
197372
197164
196961
196754
196657
199035
198855
198747
198617
198506
198374
198219
198039
197849
197657
197479
197308
197096
196974
199235
199035
198920
198796
198692
198574
198435
198276
198107
197939
197781
197630
197451
197321
199511
199301
199168
199037
198927
198811
198683
198540
198390
198243
198101
197971
197810
197680
199849
199640
199491
199350
199228
199107
198982
198849
198711
198579
198450
198332
198202
198081
200265
200066
199900
199746
199608
199474
199346
199214
199086
198968
198850
198740
198627
198510
200720
200538
200363
200201
200049
199905
199771
199641
199521
199413
199307
199202
199099
198977
201257
201075
200886
200712
200546
200391
200252
200122
200008
199907
199810
199704
199611
199471
201804
201631
201435
201252
201074
200913
200769
200640
200531
200433
200345
200235
200156
199991
202471
202270
202046
201844
201648
201477
201327
201197
201089
200987
200903
200782
200714
200532
203045
202894
202671
202466
202256
202069
201903
201759
201634
201525
201439
201317
201254
201059
203930
203727
203443
203186
202935
202720
202532
202372
202227
202104
201996
201889
201804
201604
200411
200056
199795
199448
199162
198832
198503
198174
197851
197522
197176
196808
196428
196160
200385
200023
199769
199501
199262
198993
198688
198373
198056
197738
197423
197128
196830
196580
200378
200013
199765
199529
199319
199100
198841
198562
198270
197979
197691
197417
197111
196909
200439
200078
199837
199615
199418
199217
198988
198739
198473
198206
197942
197685
197403
197137
200591
200235
199981
199755
199558
199365
199155
198929
198685
198440
198193
197953
197687
197424
200821
200481
200217
199981
199772
199572
199365
199150
198922
198696
198463
198236
197981
197723
201134
200817
200541
200288
200060
199847
199636
199425
199206
198994
198773
198556
198314
198068
201522
201220
200933
200666
200420
200192
199976
199767
199557
199355
199145
198933
198706
198473
201960
201673
201377
201099
200841
200604
200384
200179
199980
199788
199589
199382
199175
198955
202465
202178
201865
201578
201308
201066
200850
200653
200467
200284
200097
199893
199706
199490
203011
202726
202400
202101
201822
201576
201360
201169
200993
200817
200647
200451
200285
200052
203648
203339
202983
202665
202375
202125
201909
201721
201552
201379
201219
201024
200859
200608
204336
204020
203657
203321
203008
202732
202490
202278
202093
201913
201755
201562
201397
201147
205154
204792
204371
203995
203658
203364
203105
202876
202668
202474
202296
202092
201911
201654
201465
201104
200731
200349
199995
199629
199268
198911
198541
198148
197741
197327
196918
196570
201472
201028
200644
200300
199993
199680
199359
199023
198666
198301
197927
197563
197209
196894
201422
200993
200615
200286
199995
199715
199429
199129
198806
198474
198130
197799
197454
197194
201470
201041
200667
200341
200058
199794
199531
199257
198963
198656
198341
198030
197706
197415
201599
201173
200799
200466
200180
199920
199668
199412
199139
198857
198562
198271
197958
197654
201802
201386
201012
200672
200377
200113
199864
199616
199356
199090
198808
198527
198216
197898
202071
201668
201291
200944
200639
200369
200119
199875
199624
199369
199093
198814
198499
198175
202402
202008
201626
201273
200960
200684
200434
200195
199953
199705
199434
199150
198834
198499
202801
202408
202013
201653
201334
201055
200809
200578
200345
200104
199837
199549
199236
198900
203261
202866
202452
202086
201759
201483
201243
201023
200800
200567
200303
200014
199705
199372
203801
203403
202967
202588
202251
201972
201732
201516
201300
201072
200817
200532
200234
199900
204391
203985
203526
203136
202793
202514
202275
202059
201843
201611
201361
201071
200785
200450
205092
204693
204219
203806
203434
203122
202848
202599
202365
202124
201875
201601
201326
201007
205806
205392
204883
204455
204073
203746
203455
203183
202923
202660
202401
202123
201851
201514
202447
201961
201506
201078
200686
200318
199959
199602
199231
198841
198408
197936
197474
197028
202449
201929
201455
201029
200658
200326
200005
199679
199327
198945
198539
198115
197689
197346
202414
201916
201442
201024
200666
200356
200061
199763
199441
199085
198703
198299
197910
197564
202452
201970
201513
201102
200745
200441
200162
199882
199582
199248
198885
198514
198136
197792
202537
202071
201622
201215
200865
200569
200303
200038
199754
199441
199095
198742
198373
198016
202691
202228
201789
201387
201042
200750
200490
200235
199961
199664
199330
198986
198613
198254
202898
202441
202002
201602
201261
200973
200719
200471
200206
199918
199592
199244
198864
198485
203162
202701
202258
201861
201523
201238
200988
200748
200490
200208
199884
199528
199140
198739
203493
203025
202567
202168
201830
201549
201305
201072
200821
200543
200217
199854
199459
199052
203886
203415
202938
202535
202194
201918
201679
201453
201207
200933
200605
200237
199838
199423
204371
203908
203412
202998
202645
202362
202119
201891
201645
201369
201044
200677
200285
199859
204896
204448
203940
203523
203164
202875
202627
202389
202135
201848
201518
201142
200760
200337
205529
205105
204598
204168
203784
203459
203168
202888
202609
202306
201975
201611
201246
200820
206167
205722
205204
204774
204384
204042
203732
203426
203114
202781
202441
202090
201723
201309
203325
202812
202325
201866
201447
201058
200688
200315
199929
199514
199074
198559
198054
197575
203346
202856
202352
201878
201448
201071
200720
200379
200012
199606
199166
198697
198224
197813
203307
202817
202326
201867
201457
201105
200783
200464
200116
199728
199296
198845
198383
197969
203328
202853
202379
201934
201534
201188
200875
200573
200243
199871
199454
199017
198580
198179
203366
202905
202442
202002
201617
201289
200994
200706
200392
200038
199638
199224
198796
198398
203453
202971
202517
202103
201736
201422
201140
200865
200564
200226
199845
199445
199026
198625
203573
203083
202629
202221
201871
201574
201310
201050
200762
200439
200073
199680
199264
198850
203764
203261
202797
202392
202050
201763
201510
201262
200988
200678
200321
199928
199510
199081
204017
203499
203018
202613
202276
201997
201753
201513
201251
200948
200596
200200
199775
199334
204333
203813
203317
202910
202575
202301
202062
201825
201566
201264
200909
200506
200075
199623
204745
204242
203733
203321
202973
202690
202443
202199
201932
201623
201261
200852
200425
199949
205200
204725
204219
203810
203458
203166
202907
202643
202356
202027
201655
201235
200807
200321
205748
205321
204826
204409
204034
203702
203398
203090
202775
202426
202049
201628
201219
200725
206311
205853
205363
204954
204579
204231
203904
203570
203222
202846
202453
202047
201619
201151
204085
203655
203213
202783
202368
201966
201568
201165
200750
200303
199827
199321
198810
198346
204109
203698
203260
202820
202392
201988
201595
201215
200811
200371
199896
199428
198922
198481
204068
203652
203219
202793
202383
201997
201625
201262
200875
200452
199989
199513
199031
198591
204089
203668
203240
202816
202413
202036
201671
201318
200943
200534
200085
199619
199155
198738
204101
203671
203240
202811
202418
202062
201720
201381
201018
200624
200196
199754
199313
198914
204146
203674
203229
202827
202451
202111
201785
201462
201113
200738
200334
199918
199502
199113
204208
203697
203251
202852
202497
202180
201879
201575
201245
200889
200507
200114
199716
199324
204339
203824
203360
202957
202608
202303
202018
201731
201420
201081
200716
200332
199943
199547
204539
204012
203534
203127
202780
202480
202203
201928
201632
201307
200952
200573
200181
199776
204796
204274
203788
203383
203036
202737
202462
202188
201897
201575
201220
200836
200434
200007
205141
204642
204151
203744
203388
203076
202790
202506
202207
201877
201514
201119
200707
200259
205522
205055
204572
204173
203815
203493
203193
202887
202568
202219
201841
201430
201011
200520
206003
205573
205095
204683
204304
203948
203612
203270
202925
202559
202175
201755
201344
200834
206474
206012
205548
205137
204754
204383
204031
203672
203307
202920
202523
202102
201681
201181
204677
204364
204026
203674
203308
202925
202530
202108
201659
201175
200674
200149
199639
199176
204700
204375
204036
203674
203299
202915
202509
202096
201653
201181
200683
200190
199698
199226
204678
204334
203977
203611
203240
202861
202468
202070
201637
201180
200696
200214
199758
199313
204705
204322
203943
203565
203191
202816
202427
202034
201614
201169
200700
200231
199783
199379
204693
204280
203894
203505
203126
202759
202386
202002
201592
201162
200712
200269
199847
199473
204703
204245
203825
203446
203085
202733
202371
201995
201594
201175
200750
200338
199947
199595
204734
204239
203806
203421
203073
202736
202389
202025
201638
201239
200841
200458
200091
199745
204823
204332
203900
203513
203158
202818
202476
202124
201753
201375
200998
200630
200281
199935
204996
204509
204066
203673
203312
202972
202635
202291
201933
201568
201205
200847
200500
200153
205239
204761
204306
203909
203541
203194
202856
202515
202164
201807
201451
201095
200743
200376
205561
205094
204626
204216
203835
203476
203130
202785
202437
202082
201726
201365
200998
200605
205886
205433
204966
204558
204174
203807
203454
203102
202752
202392
202027
201649
201262
200828
206299
205848
205368
204938
204536
204149
203780
203415
203059
202697
202330
201941
201547
201061
206637
206154
205691
205256
204855
204470
204104
203741
203384
203016
202641
202232
201828
201324
205297
205042
204759
204454
204133
203784
203415
203006
202551
202055
201533
200978
200459
199933
205322
205014
204719
204401
204073
203726
203351
202948
202502
202021
201507
200984
200485
200011
205303
204958
204628
204299
203967
203622
203252
202863
202425
201959
201464
200974
200513
200082
205290
204902
204544
204201
203864
203516
203144
202752
202323
201866
201385
200916
200475
200079
205226
204811
204452
204109
203763
203412
203041
202649
202219
201770
201308
200868
200457
200094
205192
204760
204385
204031
203692
203345
202975
202582
202155
201714
201271
200853
200467
200129
205210
204758
204359
203998
203665
203322
202951
202558
202135
201705
201280
200884
200521
200197
205295
204847
204453
204090
203733
203370
202992
202596
202180
201764
201361
200986
200644
200314
205482
205036
204623
204246
203874
203503
203119
202720
202313
201913
201527
201160
200820
200490
205737
205291
204851
204456
204067
203684
203293
202897
202501
202115
201742
201382
201039
200694
206052
205599
205136
204711
204299
203902
203507
203116
202733
202359
201995
201637
201285
200915
206326
205872
205403
204969
204548
204142
203748
203368
203001
202641
202281
201914
201541
201133
206629
206157
205675
205226
204797
204383
203987
203614
203263
202915
202561
202187
201798
201346
206759
206272
205831
205394
204988
204598
204227
203876
203545
203211
202857
202461
202052
201539
197589
198031
198215
198348
199436
200822
196626
196501
196156
196298
197590
199412
196678
196256
195784
195715
196722
198536
196601
196035
195396
195091
195956
197543
196541
195976
195339
194959
195621
196777
196452
195890
195298
194845
195299
195951
196414
195886
195376
194888
195126
195263
196311
195799
195332
194803
194846
194695
196147
195579
195165
194665
194711
194731
195886
195180
194775
194353
194577
195205
195596
194802
194413
194033
194523
195592
195376
194448
194011
193616
194221
195189
195342
194375
193963
193661
194428
194974
193962
192949
192619
192674
194001
194669
199147
199766
200237
200539
200968
201873
198176
198364
198409
198856
199556
200671
198018
197927
197800
198041
198542
199608
197695
197430
197092
197128
197438
198423
197492
197109
196707
196651
196824
197673
197263
196813
196411
196282
196331
197017
197104
196650
196335
196173
196165
196737
196903
196466
196216
195994
195896
196359
196676
196241
196021
195731
195614
195986
196396
195877
195639
195263
195221
195601
196112
195465
195170
194727
194730
195216
195820
195055
194642
194151
194184
194723
195715
194917
194440
194031
194131
194628
194548
193607
193123
192907
193325
194081
200983
201666
202323
202905
203315
203935
200133
200505
200779
201240
201860
202710
199827
200068
200186
200466
200803
201499
199333
199429
199261
199306
199481
200047
198947
198910
198521
198435
198476
198965
198517
198373
197867
197733
197657
198050
198188
197962
197502
197406
197280
197564
197890
197589
197250
197142
196989
197116
197599
197255
197042
196882
196792
196873
197275
196878
196723
196478
196459
196560
196936
196457
196302
195943
195953
196109
196573
195964
195689
195259
195229
195472
196347
195657
195315
194924
194903
195094
195344
194528
194068
193750
193854
194219
201982
202533
203069
203694
204144
204672
201322
201743
202109
202652
203222
203886
200990
201359
201695
202071
202366
202850
200505
200740
200883
200989
201074
201362
200058
200140
200047
199890
199765
199896
199560
199491
199179
198881
198618
198618
199103
198959
198556
198273
197979
197938
198681
198481
198085
197841
197523
197381
198304
198041
197716
197493
197221
197050
197930
197586
197326
197043
196832
196678
197539
197126
196905
196547
196442
196395
197102
196586
196327
195891
195760
195734
196784
196199
195934
195530
195464
195451
195974
195311
194939
194599
194526
194686
202870
203292
203711
204256
204632
205135
202236
202711
203068
203581
204073
204752
201858
202312
202698
203165
203551
204025
201347
201731
202049
202397
202607
202907
200878
201138
201318
201449
201397
201494
200396
200481
200477
200344
200094
199979
199932
199870
199709
199388
199083
198863
199473
199320
199027
198677
198333
197988
199039
198834
198488
198179
197817
197448
198630
198350
198004
197692
197286
196901
198209
197861
197546
197198
196893
196643
197767
197300
197005
196585
196363
196274
197354
196804
196559
196206
196139
196056
196550
195917
195580
195260
195180
195224
203627
203970
204321
204762
205127
205494
203032
203436
203764
204214
204643
205264
202609
203004
203378
203836
204276
204813
202102
202478
202848
203273
203647
204051
201632
201951
202240
202543
202706
202932
201154
201348
201492
201595
201529
201550
200694
200732
200721
200609
200368
200255
200233
200125
199983
199664
199382
199166
199778
199587
199327
198954
198719
198354
199331
199067
198761
198400
198040
197560
198869
198571
198252
197877
197514
197151
198416
198018
197687
197288
196925
196689
197972
197463
197184
196876
196730
196601
197201
196612
196310
196014
195912
195872
204339
204616
204947
205328
205670
205982
203838
204156
204443
204846
205225
205707
203432
203719
204044
204453
204858
205318
202965
203235
203560
203963
204383
204832
202506
202745
203029
203368
203694
204011
202033
202197
202384
202603
202747
202876
201564
201619
201672
201716
201654
201647
201091
201013
200920
200767
200523
200410
200612
200420
200213
199908
199618
199417
200118
199863
199556
199173
198883
198471
199646
199315
199009
198601
198282
197884
199152
198792
198468
198032
197637
197273
198724
198269
197945
197579
197324
197057
197997
197450
197118
196785
196561
196415
204891
205098
205387
205740
206055
206376
204526
204763
205015
205385
205734
206137
204218
204423
204682
205024
205376
205760
203844
204034
204272
204596
204979
205404
203450
203621
203828
204107
204446
204816
203015
203137
203288
203503
203729
203987
202559
202601
202662
202754
202838
202949
202066
202003
201940
201857
201782
201784
201551
201377
201199
200961
200762
200640
201009
200749
200496
200130
199794
199588
200501
200168
199826
199414
199085
198864
199955
199595
199265
198835
198460
198165
199525
199113
198772
198379
198092
197801
198869
198368
198039
197651
197396
197150
205463
205613
205832
206107
206304
206511
205183
205353
205576
205875
206149
206457
204939
205091
205321
205617
205897
206170
204626
204774
204968
205261
205581
205887
204289
204432
204582
204821
205114
205410
203901
204012
204110
204298
204534
204832
203480
203523
203552
203647
203772
203913
203003
202952
202884
202831
202797
202817
202482
202328
202154
201944
201764
201585
201912
201649
201401
201066
200747
200423
201365
201029
200685
200218
199817
199546
200760
200358
199998
199549
199107
198800
200292
199855
199501
199074
198694
198378
199656
199136
198804
198366
198028
197717
196455
196459
196427
195769
196019
195285
195747
195597
195422
195112
195850
195394
196166
195885
195715
195441
196340
195728
196649
196366
196248
195992
196640
195925
197150
196960
196898
196704
197231
196424
197608
197526
197550
197463
197871
196862
198069
198082
198231
198279