/*--------------------------------*- C++ -*----------------------------------*\
| =========                 |                                                 |
| \\      /  F ield         | OpenFOAM: The Open Source CFD Toolbox           |
|  \\    /   O peration     | Version:  v2106                                 |
|   \\  /    A nd           | Website:  www.openfoam.com                      |
|    \\/     M anipulation  |                                                 |
\*---------------------------------------------------------------------------*/
FoamFile
{
    version     2.0;
    format      ascii;
    arch        "LSB;label=32;scalar=64";
    class       volScalarField;
    location    "0.000133";
    object      p;
}
// * * * * * * * * * * * * * * * * * * * * * * * * * * * * * * * * * * * * * //

dimensions      [1 -1 -2 0 0 0 0];

internalField   nonuniform List<scalar> 
144746
(
204700
204847
204832
204821
204747
204678
204589
204491
204410
204321
204229
204135
204045
203959
204522
204681
204725
204805
204810
204805
204783
204728
204654
204544
204411
204274
204176
204030
204220
204484
204539
204701
204772
204840
204880
204870
204802
204684
204544
204401
204294
204115
204111
204367
204458
204670
204796
204913
205000
205030
204980
204864
204705
204544
204423
204221
203981
204259
204403
204655
204820
204966
205078
205122
205096
204989
204824
204636
204479
204263
203881
204173
204351
204608
204801
204964
205100
205168
205165
205079
204913
204719
204535
204306
203806
204079
204261
204509
204717
204896
205019
205095
205109
205038
204885
204691
204499
204273
203744
203982
204139
204378
204582
204746
204861
204945
204963
204895
204766
204587
204401
204193
203694
203868
203972
204192
204372
204535
204649
204722
204736
204688
204586
204424
204241
204026
203644
203750
203785
203981
204129
204278
204381
204471
204506
204457
204351
204207
204040
203840
203591
203624
203589
203732
203842
203985
204089
204172
204185
204151
204105
203991
203849
203648
203513
203457
203351
203451
203526
203646
203754
203848
203895
203881
203853
203740
203623
203430
203430
203316
203174
203241
203283
203391
203512
203598
203645
203635
203633
203535
203451
203268
203279
203155
202893
202932
202947
203035
203165
203259
203332
203331
203349
203267
203215
203109
202462
202966
203487
203935
204338
204586
204784
204827
204840
204704
204498
204100
203649
203021
203029
203577
204044
204451
204801
204973
205115
205096
205095
205005
204814
204472
204036
203443
203572
204081
204451
204806
205070
205225
205338
205370
205365
205196
205025
204721
204324
203731
203953
204489
204798
205132
205341
205484
205550
205554
205507
205413
205235
204957
204586
204079
204241
204748
204982
205304
205462
205624
205693
205717
205665
205531
205428
205168
204797
204325
204193
204700
204935
205303
205506
205696
205778
205797
205702
205603
205418
205192
204884
204511
203929
204440
204752
205173
205397
205614
205728
205776
205685
205608
205444
205223
204937
204583
203675
204195
204579
205001
205240
205476
205609
205670
205573
205488
205328
205103
204880
204559
203213
203729
204261
204683
205010
205244
205392
205445
205349
205262
205119
204905
204708
204389
202798
203353
203920
204333
204689
204924
205075
205120
205027
204924
204778
204585
204387
204073
202231
202810
203460
203917
204291
204528
204659
204665
204565
204469
204349
204146
203932
203595
201727
202342
202981
203430
203783
204038
204157
204202
204125
203930
203821
203558
203323
202958
201071
201916
202564
203076
203396
203635
203653
203568
203457
203331
203202
202896
202599
202187
200380
201079
201649
202285
202627
202900
202913
202817
202761
202569
202358
201995
201655
201251
204137
205265
206211
206778
207467
207892
208520
208905
209411
209515
209251
208594
207465
205849
205971
206860
207826
208310
208896
209311
209780
209948
210140
210186
209878
209162
207956
206651
207426
208158
209004
209498
209917
210195
210458
210584
210767
210639
210330
209714
208688
207427
208359
209209
209917
210426
210771
210983
211126
211176
211181
211098
210782
210182
209211
208036
208685
209612
210294
210825
211189
211363
211479
211519
211504
211346
211049
210522
209710
208649
208464
209473
210255
210904
211330
211555
211685
211735
211688
211546
211263
210782
210048
209068
207583
208720
209742
210570
211096
211464
211682
211788
211738
211610
211341
210925
210294
209454
206774
208066
209375
210195
210871
211292
211553
211685
211628
211520
211266
210876
210277
209556
205532
207056
208587
209586
210423
210939
211242
211401
211333
211231
210995
210650
210146
209459
204692
206343
207888
209010
209893
210464
210770
210930
210821
210694
210425
210040
209539
208854
203676
205346
207018
208291
209251
209867
210134
210252
210074
209920
209596
209168
208635
207945
202882
204546
206196
207462
208424
209078
209297
209357
209084
208869
208407
207905
207237
206644
201755
203469
205085
206464
207466
208119
208253
208187
207763
207441
206820
206267
205504
205006
200258
202275
203904
205341
206279
206887
206946
206771
206350
205915
205112
204490
203439
202472
203987
203947
204054
203939
204088
203882
204123
203962
204118
203979
204181
203896
204125
203946
204077
203958
204114
203898
204202
203959
204040
203853
203996
203727
204203
203939
204018
203815
203935
203695
204211
203930
203990
203765
203876
203703
204165
203871
203921
203678
203800
203674
204094
203795
203818
203544
203693
203536
203926
203622
203661
203391
203548
203392
203751
203436
203493
203169
203270
203094
203541
203238
203289
203067
203423
203221
203369
203075
203124
202857
202955
202782
203242
202998
203106
202977
203180
203005
203132
202931
203028
202841
203003
202788
202459
201728
201780
201171
201503
200479
203077
202265
202280
201553
201961
200759
203215
202414
202399
201743
202197
201063
203563
202782
202767
202116
202577
201353
203798
203091
203110
202491
202935
201840
204067
203459
203485
202899
203309
202367
204200
203701
203741
203208
203573
202791
204293
203883
203875
203356
203686
202955
204155
203718
203630
203104
203404
202613
203827
203222
203054
202483
202673
201829
203321
202617
202373
201621
201740
200674
202670
201723
201496
200636
200748
199812
201977
201012
200918
200054
200181
199187
201072
200082
200124
199267
199538
198515
203728
201209
198881
195139
192696
184223
205085
202489
200124
196198
193959
184557
205699
203146
200808
197035
195258
186231
206492
204088
201977
198416
196971
188893
207212
204874
202968
199769
198610
191863
207780
205703
204057
201228
200233
194758
208277
206395
204954
202524
201625
197059
208500
206879
205614
203486
202565
198562
208529
206995
205834
203666
202444
198320
208185
206560
205383
202958
201458
196803
207197
205349
204003
201241
199466
193882
205620
203652
201860
198400
196185
189725
204034
201456
199395
195795
193588
186129
200715
197828
195753
192120
189988
181875
203080
203034
203111
203063
203203
202922
203211
203008
203133
203001
203179
202793
203277
203063
203162
203041
203153
202857
203322
203049
203113
202910
203026
202668
203267
202949
202999
202778
202869
202569
203223
202849
202866
202641
202743
202478
203115
202719
202726
202506
202636
202358
202989
202579
202574
202349
202507
202238
202877
202526
202617
202352
202445
202223
202815
202468
202557
202287
202681
202389
202865
202624
202741
202552
202776
202677
202873
202737
202936
202885
203191
203023
203166
203124
203283
203214
203425
203185
203204
203202
203336
203223
203529
203330
200615
199700
199789
199172
199491
198325
201233
200230
200212
199510
199826
198492
201381
200346
200251
199602
200065
198749
201688
200715
200664
200007
200493
199064
201868
200989
200933
200286
200754
199392
202151
201337
201276
200636
201069
199871
202308
201581
201524
200902
201308
200225
202504
201782
201607
200905
201258
200093
202511
201682
201488
200722
200983
199836
202224
201359
201131
200158
200385
198923
201932
200821
200568
199550
199736
198372
201370
200262
200130
199135
199379
197989
201037
199878
199903
199019
199278
198022
200072
199060
199293
198643
199211
198297
200207
197205
194847
191084
188788
179394
201521
198630
196068
192074
189909
179614
202342
199378
196785
192904
191026
181214
202956
200203
197708
194099
192464
183705
203642
201058
198698
195359
193891
186436
204294
201902
199803
196770
195383
189079
204935
202645
200782
197908
196519
190969
205374
203177
201579
198833
197315
191906
205592
203423
201828
198803
197121
191301
205147
202851
201236
198038
196205
189405
204251
201895
200029
196513
194405
186901
202889
200267
198403
195004
193229
184743
201831
198966
197145
193801
192361
183375
198616
195677
194314
191664
190607
181943
204926
205052
204774
204878
204705
204664
204784
204960
204738
204785
204576
204551
204531
204552
204337
204354
204152
204219
204164
204236
203907
204049
203903
204069
203819
203860
203648
203779
203657
203866
203501
203530
203336
203513
203462
203783
203285
203284
203152
203365
203368
203723
203279
203212
203104
203323
203337
203693
203323
203251
203150
203390
203388
203691
203410
203369
203250
203497
203473
203714
203407
203446
203360
203623
203562
203686
203579
203621
203512
203741
203650
203714
203656
203712
203527
203677
203481
203588
203626
203863
203756
203848
203749
203613
200785
201580
200985
201564
201375
202144
200643
201625
201302
202096
202057
202991
200932
201894
201613
202426
202462
203306
201463
202393
202148
202918
202991
203798
202441
203201
202872
203395
203371
204027
203287
203702
203279
203654
203511
204077
203703
204040
203531
203769
203521
203840
203840
203999
203385
203589
203291
203535
203629
203658
202994
203210
202826
203051
203016
203079
202462
202688
202233
202551
202192
202340
201795
202075
201596
201976
201247
201620
201093
201435
201002
201481
200264
200840
200290
200572
200140
200789
199512
200364
199967
200338
199955
200378
186751
194535
195704
198366
199758
202316
188013
196019
197671
200853
202616
205083
189879
197367
199195
202350
204024
206090
192121
198616
200595
203653
205518
207283
195127
200538
202344
205005
206180
207796
197588
201627
202859
204993
206153
207553
199090
202264
202958
204425
205136
206497
199430
202009
202166
203331
203879
205429
198394
200963
200902
201912
202419
204062
196249
199481
199340
200440
201160
202993
193344
197712
197731
199126
200024
201924
190253
195840
196043
197847
199055
201092
186947
193854
194447
196748
197920
200111
183732
191784
192784
195555
197223
199263
203949
204041
203897
204038
203891
204051
203875
203918
203794
203942
203841
204027
204044
204220
203939
204069
203948
204125
204344
204350
204036
204105
203982
204157
204441
204403
204120
204179
204058
204266
204538
204403
204159
204224
204132
204361
204712
204514
204304
204349
204247
204456
204860
204664
204490
204535
204401
204571
205036
204859
204707
204766
204594
204729
205144
205041
204900
204996
204791
204861
205186
205123
205017
205110
204920
204963
205301
205248
205145
205237
205040
205034
205230
205262
205083
205199
205001
205020
205201
205394
205271
205350
205206
205106
200740
201583
201302
202078
202063
202745
201209
201893
201724
202472
202558
203361
201676
202387
202300
203003
203152
203834
203008
203512
203307
203726
203733
204283
204065
204417
204027
204318
204183
204602
204909
205099
204625
204785
204497
204763
205405
205406
204858
204934
204617
204797
205465
205357
204763
204843
204553
204722
205202
205015
204439
204594
204304
204547
204708
204493
203955
204162
203893
204218
203997
203907
203442
203689
203400
203816
203134
203345
202876
203200
202919
203330
202198
202724
202206
202537
202230
202826
201570
202340
201957
202335
202059
202420
186392
193869
196043
199458
201573
203830
189984
196752
199000
202328
204232
206226
193402
199179
201240
204131
205886
207510
197568
202059
203854
206282
207240
208594
200516
204001
205083
206892
207814
208948
202598
205201
205741
207075
207800
208780
203861
205585
205612
206486
207029
208168
203745
205179
204883
205658
206100
207489
202379
204176
203773
204593
205110
206615
200203
202824
202408
203477
204206
205909
197381
201335
201080
202453
203336
205149
194410
199575
199591
201390
202537
204444
191327
197640
198142
200405
201708
203681
188275
195557
196639
199261
200875
202884
211887
211688
212233
212175
212595
212844
213435
213896
214615
215198
215662
215596
215236
214058
213528
213349
213663
213602
213866
214016
214551
214901
215372
215691
215908
215605
215010
213863
214839
214787
215096
215068
215183
215225
215451
215537
215878
216084
216136
215893
215423
214545
215478
215668
215880
215941
215974
215957
216025
216054
216232
216300
216304
216022
215432
214549
215359
215805
216095
216305
216371
216371
216385
216385
216457
216472
216427
216202
215725
214986
214591
215362
215886
216311
216460
216528
216553
216557
216595
216571
216485
216271
215823
215165
213437
214435
215329
215895
216236
216433
216549
216608
216633
216634
216566
216425
216103
215588
212270
213754
214861
215631
216096
216361
216494
216572
216573
216596
216541
216455
216215
215870
210967
212754
214001
215082
215726
216107
216292
216419
216411
216472
216463
216483
216355
216202
210364
212183
213660
214814
215508
215896
216040
216168
216101
216175
216167
216260
216203
216164
209545
211373
213124
214420
215206
215621
215700
215797
215653
215753
215710
215843
215774
215902
209422
211129
212920
214198
214930
215283
215258
215280
215010
215072
214899
215063
214872
215242
208556
210621
212395
213782
214536
214800
214661
214529
214107
214080
213748
213901
213599
213946
208421
210723
212265
213542
214069
214151
213900
213612
213045
212822
212257
212347
211588
211782
217678
216804
216932
216477
216728
216925
217517
218145
218881
219662
220397
220675
220799
220192
219085
218428
218391
218016
218047
218068
218475
218907
219489
220000
220376
220391
220178
219556
220232
219683
219631
219355
219295
219223
219403
219528
219817
220159
220349
220332
220168
219739
220607
220384
220255
220087
219964
219854
219880
219907
220068
220221
220313
220211
219873
219356
220049
220197
220251
220311
220252
220167
220152
220141
220207
220262
220275
220168
219864
219380
219117
219619
219948
220172
220225
220233
220238
220232
220262
220271
220220
220092
219786
219336
217722
218546
219275
219681
219936
220079
220160
220196
220222
220246
220203
220119
219909
219568
216400
217752
218658
219314
219711
219926
220035
220089
220103
220144
220131
220112
219993
219792
215044
216609
217803
218715
219290
219617
219787
219893
219903
219970
220002
220073
220077
220101
214309
215960
217448
218442
219061
219388
219518
219618
219580
219658
219707
219871
219966
220192
213592
215301
216988
218095
218784
219124
219194
219271
219170
219265
219316
219583
219741
220114
213730
215278
216919
218019
218638
218889
218813
218810
218597
218663
218665
218998
219119
219788
213308
215147
216707
217862
218437
218583
218355
218188
217834
217837
217782
218198
218322
219136
213867
215708
217138
218038
218285
218147
217802
217432
216923
216824
216697
217141
216931
217653
223472
222405
222172
221394
221358
221312
221650
222229
222800
223508
224207
224646
225127
224972
224518
223622
223275
222681
222508
222379
222502
222770
223163
223641
224060
224263
224422
224127
225142
224398
224039
223576
223301
223083
223036
223120
223277
223556
223849
223999
224153
224037
225226
224775
224369
224016
223705
223483
223383
223374
223437
223571
223730
223775
223742
223574
224530
224400
224217
224044
223838
223661
223549
223502
223509
223555
223623
223646
223595
223475
223681
223853
223950
223851
223776
223672
223599
223551
223542
223560
223567
223558
223453
223340
222482
222979
223360
223479
223566
223567
223536
223512
223507
223540
223542
223552
223492
223454
221444
222270
222875
223189
223381
223441
223441
223440
223433
223488
223527
223595
223627
223666
220433
221330
222227
222752
223078
223235
223289
223326
223318
223395
223473
223597
223737
223908
219749
220894
221928
222552
222917
223082
223118
223157
223124
223214
223331
223522
223758
224091
219110
220488
221658
222381
222781
222927
222918
222944
222872
222972
223115
223409
223757
224227
219323
220578
221729
222427
222764
222814
222687
222648
222492
222585
222725
223117
223470
224180
219175
220619
221752
222510
222793
222738
222434
222260
221983
222052
222178
222694
223047
223982
219827
221300
222297
222782
222791
222605
222123
221753
221378
221408
221494
222020
222099
222954
227184
226049
225700
225044
224906
224818
224974
225368
225743
226306
226872
227174
227724
227853
227841
226967
226503
225901
225639
225449
225517
225697
226030
226321
226653
226777
227032
226892
228155
227430
226978
226529
226246
226027
225945
225946
225975
226146
226378
226449
226647
226650
228115
227630
227182
226826
226507
226264
226132
226066
226082
226106
226232
226241
226251
226191
227453
227235
226979
226779
226549
226366
226229
226142
226112
226093
226121
226119
226081
226061
226780
226816
226763
226575
226455
226330
226231
226152
226115
226090
226066
226054
225963
225921
225800
226067
226292
226222
226259
226223
226158
226103
226070
226065
226041
226045
225992
225988
224920
225507
225824
226005
226093
226107
226059
226029
226003
226025
226039
226095
226142
226200
224045
224793
225349
225673
225860
225935
225926
225928
225910
225953
226014
226113
226255
226381
223475
224404
225106
225500
225721
225798
225784
225788
225753
225809
225915
226069
226287
226581
223058
224068
224891
225354
225601
225652
225620
225612
225543
225616
225762
226017
226373
226800
223207
224137
224931
225387
225565
225547
225441
225381
225243
225316
225466
225793
226177
226799
223134
224237
225012
225501
225599
225479
225211
225048
224831
224914
225083
225539
225951
226783
223740
224825
225449
225756
225642
225426
225024
224740
224429
224476
224594
225085
225290
226185
229702
228580
228274
227729
227560
227419
227533
227753
228044
228418
228886
229082
229591
229765
230224
229352
228870
228305
228060
227882
227907
227988
228219
228393
228637
228698
228919
228837
230321
229656
229206
228792
228522
228291
228177
228116
228107
228170
228341
228362
228505
228527
230228
229770
229350
228997
228695
228453
228304
228194
228173
228142
228186
228161
228153
228098
229691
229429
229168
228924
228705
228512
228368
228251
228187
228127
228091
228049
227991
227949
229138
229081
228996
228738
228629
228484
228377
228270
228193
228124
228052
227998
227899
227832
228348
228506
228629
228457
228477
228402
228326
228243
228171
228113
228043
227999
227923
227894
227665
228036
228251
228296
228331
228310
228254
228198
228137
228098
228059
228067
228077
228117
227029
227438
227860
228037
228150
228180
228146
228120
228077
228065
228065
228100
228176
228331
226593
227100
227659
227902
228030
228056
228024
228002
227960
227968
228011
228096
228247
228543
226193
226810
227414
227734
227881
227893
227863
227840
227782
227817
227917
228103
228380
228756
226181
226871
227404
227725
227819
227784
227697
227635
227526
227570
227678
227926
228236
228740
226037
226938
227450
227772
227787
227683
227478
227348
227169
227225
227375
227756
228133
228854
226539
227364
227816
228019
227848
227674
227324
227067
226823
226868
226988
227400
227625
228477
231611
230592
230293
229773
229574
229387
229512
229604
229830
230066
230441
230587
230976
231190
231945
231106
230674
230166
229926
229732
229727
229740
229885
229994
230162
230200
230366
230330
231877
231283
230872
230485
230222
229995
229866
229770
229725
229731
229858
229864
229955
229984
231721
231317
230937
230595
230316
230083
229930
229807
229757
229692
229700
229666
229644
229595
231297
231005
230751
230487
230291
230105
229964
229837
229753
229666
229604
229550
229489
229443
230821
230716
230611
230356
230241
230088
229973
229851
229755
229660
229566
229501
229409
229337
230226
230285
230313
230155
230128
230026
229940
229838
229745
229657
229565
229504
229428
229384
229706
229926
230052
230032
230018
229956
229894
229815
229734
229660
229593
229575
229578
229619
229214
229494
229740
229832
229880
229850
229814
229764
229707
229660
229629
229633
229688
229832
228889
229247
229596
229722
229770
229751
229715
229676
229630
229608
229609
229663
229779
230066
228541
228951
229366
229557
229618
229608
229576
229546
229504
229509
229573
229709
229941
230286
228531
228975
229325
229526
229537
229502
229428
229377
229299
229325
229415
229596
229862
230272
228404
229022
229324
229539
229482
229409
229242
229146
229012
229054
229188
229487
229840
230438
228885
229435
229618
229729
229526
229374
229088
228907
228698
228740
228852
229195
229450
230253
233170
232245
231960
231468
231259
231090
231154
231177
231347
231505
231807
231938
232232
232488
233312
232569
232184
231728
231503
231315
231260
231235
231320
231375
231508
231541
231690
231728
233190
232664
232282
231920
231668
231446
231307
231193
231131
231117
231203
231213
231293
231360
233010
232634
232291
231964
231702
231476
231315
231183
231113
231030
231026
231002
230993
230986
232666
232365
232115
231844
231646
231458
231309
231171
231074
230971
230909
230868
230829
230816
232276
232137
232008
231762
231622
231450
231311
231170
231056
230946
230856
230803
230743
230706
231810
231804
231772
231587
231522
231395
231280
231156
231042
230941
230847
230795
230749
230733
231419
231540
231578
231498
231436
231347
231250
231144
231039
230953
230884
230862
230885
230951
231005
231200
231337
231348
231307
231257
231185
231110
231035
230977
230943
230953
231012
231164
230750
231006
231202
231239
231219
231181
231121
231061
230999
230961
230957
231019
231147
231410
230478
230761
231018
231112
231104
231077
231027
230985
230933
230926
230983
231103
231338
231653
230514
230770
230992
231092
231051
231010
230936
230885
230815
230835
230915
231061
231330
231704
230443
230776
230981
231093
231010
230941
230815
230734
230628
230670
230798
231054
231402
231897
230849
231198
231234
231246
231066
230922
230696
230555
230384
230442
230562
230874
231151
231882
234460
233646
233328
232865
232654
232490
232481
232488
232587
232695
232927
233066
233312
233603
234423
233778
233415
233007
232783
232592
232513
232460
232504
232517
232627
232693
232844
232933
234238
233783
233426
233083
232835
232619
232479
232353
232286
232280
232348
232382
232465
232573
234052
233703
233375
233063
232806
232582
232412
232288
232210
232139
232147
232160
232180
232232
233754
233467
233212
232944
232732
232533
232374
232233
232136
232046
232013
232009
232010
232057
233439
233275
233110
232875
232696
232505
232347
232199
232090
231995
231936
231927
231919
231945
233066
232998
232914
232722
232600
232446
232309
232177
232067
231979
231914
231906
231919
231959
232774
232804
232769
232640
232535
232413
232287
232172
232073
232001
231952
231970
232043
232145
232433
232551
232571
232508
232422
232345
232246
232164
232093
232049
232036
232084
232180
232349
232243
232386
232450
232429
232351
232306
232222
232156
232099
232075
232102
232186
232345
232592
232061
232228
232350
232372
232300
232263
232182
232128
232077
232087
232171
232309
232564
232858
232149
232276
232374
232391
232302
232249
232163
232115
232061
232090
232185
232345
232632
232990
232140
232298
232396
232416
232301
232225
232116
232050
231979
232026
232157
232391
232758
233202
232528
232681
232626
232556
232386
232236
232052
231941
231825
231892
232029
232328
232638
233306
235536
234870
234558
234121
233899
233722
233668
233639
233699
233776
233964
234100
234310
234613
235402
234856
234522
234153
233928
233725
233619
233550
233570
233577
233678
233764
233916
234043
235175
234781
234444
234125
233884
233667
233516
233396
233333
233340
233411
233473
233562
233710
234980
234661
234350
234048
233788
233563
233400
233280
233218
233175
233202
233248
233291
233399
234701
234434
234174
233912
233688
233485
233322
233190
233113
233056
233050
233081
233116
233227
234443
234259
234057
233820
233614
233421
233261
233129
233043
232982
232958
232987
233027
233117
234128
234016
233876
233678
233516
233355
233216
233098
233009
232953
232925
232961
233027
233120
233920
233868
233766
233605
233463
233321
233197
233099
233022
232979
232971
233031
233143
233280
233666
233684
233622
233499
233391
233289
233188
233117
233065
233049
233081
233167
233306
233485
233534
233589
233562
233469
233374
233296
233206
233152
233117
233129
233194
233303
233492
233728
233461
233534
233539
233473
233373
233303
233214
233165
233141
233187
233304
233462
233727
234010
233589
233620
233601
233536
233418
233345
233256
233212
233198
233261
233395
233581
233877
234208
233626
233671
233663
233614
233467
233373
233265
233205
233184
233252
233409
233655
234030
234441
234009
234012
233875
233768
233581
233426
233276
233182
233140
233232
233409
233714
234048
234629
211078
210947
210442
210659
212366
215272
209613
208631
208303
208717
210291
213213
210046
208785
208056
208153
209383
212081
209898
208564
207784
207881
208969
211140
210411
209059
208287
208415
209536
211566
210900
209697
209214
209624
210929
212995
211886
210892
210685
211337
212843
215030
212856
212196
212272
213025
214712
217038
213977
213674
213995
214621
216575
218899
214723
214629
214914
215386
217534
220092
215314
215333
215390
215726
217649
220546
215014
214844
214607
215009
217141
220158
214508
214133
213873
214235
216538
219832
212355
212300
212250
212886
215388
218708
217014
217711
217339
217583
218631
220091
214583
213811
213411
213802
214845
216353
214606
213346
212353
212246
212910
214162
214002
212420
211064
210794
211443
212631
214319
212596
211172
210829
211540
212816
214774
213099
211883
211638
212735
213966
215780
214399
213563
213521
215086
216334
217032
216217
215921
216175
218027
219128
218338
218041
218234
218976
220953
221956
219427
219471
220014
220918
222981
224216
220423
220847
221514
222492
224436
225750
220590
221056
221663
222711
224595
226159
220528
220853
221407
222520
224364
226011
218936
219632
220327
221533
223444
225175
223007
223710
223027
222794
222815
223258
220356
219753
218967
218602
218489
218947
220013
218789
217462
216665
216222
216460
219360
217750
215980
214939
214401
214567
219516
217767
215906
214827
214238
214445
219810
218047
216357
215382
215061
215543
220539
219063
217893
217235
217387
218307
221463
220627
220124
219931
220499
221740
222482
222253
222231
222688
223780
225251
223513
223789
224281
225137
226358
227959
224468
225167
226024
227142
228477
230097
224961
225803
226566
227708
229020
230716
225290
225908
226600
227669
228836
230370
224253
225023
225719
226760
227770
229080
226696
227557
227122
226831
226354
226135
224378
224058
223252
222500
221756
221274
223869
222900
221548
220316
219127
218218
223318
221931
220062
218384
216884
215839
223356
221880
219864
218168
216596
215610
223527
222098
220196
218695
217408
216774
224070
222799
221499
220476
219776
219481
224734
224082
223481
223011
222912
223013
225576
225417
225395
225513
225988
226631
226381
226699
227222
227842
228724
229568
227225
227886
228731
229729
230862
231956
227626
228525
229404
230552
231684
232888
228109
228863
229622
230714
231688
232786
227546
228288
228942
229962
230647
231443
229035
229771
229553
229346
228769
228583
227277
226960
226157
225348
224371
223695
226760
225859
224568
223266
221792
220547
226312
225072
223448
221517
219526
217750
226281
224985
223317
221255
219221
217346
226352
225253
223641
221841
220128
218612
226733
225744
224636
223463
222383
221463
227285
226799
226306
225720
225324
225006
227942
227815
227839
227887
228074
228327
228567
228881
229376
229919
230635
231335
229261
229852
230610
231485
232463
233456
229555
230360
231190
232236
233285
234485
229995
230710
231422
232363
233269
234441
229672
230382
230879
231705
232370
233192
231087
231737
231544
231542
231245
231102
229737
229635
228929
228311
227319
226487
229192
228626
227434
226253
224657
223299
228766
227960
226476
224860
222637
220640
228679
227756
226232
224450
222169
220102
228717
227821
226515
224863
223041
221258
229014
228191
227215
226126
224954
223785
229347
228972
228557
227995
227470
226975
229805
229753
229782
229795
229911
229996
230261
230575
231030
231504
232115
232715
230821
231362
232043
232817
233699
234620
231047
231755
232521
233471
234481
235620
231395
232044
232729
233605
234485
235615
231254
231953
232408
233139
233753
234574
232754
233394
233315
233402
233281
233139
231664
231777
231275
230845
230115
229376
231167
230854
230004
229001
227703
226332
230781
230203
229205
227812
226170
224068
230695
229960
228913
227345
225587
223327
230661
229979
229041
227637
226068
224237
230897
230360
229566
228557
227498
226292
231067
230846
230525
230057
229554
228962
231398
231429
231480
231494
231596
231629
231714
232026
232447
232883
233435
233966
232172
232674
233291
233990
234799
235650
232370
232994
233700
234549
235488
236534
232659
233258
233915
234714
235540
236569
232636
233289
233755
234428
235014
235771
234163
234785
234839
235035
235034
235000
233276
233512
233242
233036
232543
231977
232825
232709
232153
231530
230495
229393
232451
232110
231414
230557
229142
227688
232325
231876
231091
230125
228560
226890
232241
231818
231124
230198
228810
227247
232381
232104
231572
230796
229806
228741
232471
232379
232181
231844
231391
230847
232703
232807
232887
232931
232994
233039
232931
233237
233607
234006
234469
234934
233280
233746
234294
234921
235639
236406
233477
234040
234659
235408
236248
237179
233728
234271
234903
235626
236384
237304
233789
234400
234870
235502
236054
236756
235351
235900
236006
236249
236337
236414
234642
234895
234790
234741
234473
234059
234247
234238
233906
233516
232826
231869
233897
233721
233289
232694
231745
230447
233748
233483
232979
232263
231221
229862
233627
233374
232909
232250
231314
230033
233655
233546
233238
232708
231936
231040
233705
233699
233590
233371
233025
232600
233860
234007
234113
234170
234217
234257
234020
234311
234636
234972
235358
235751
234292
234705
235183
235714
236333
236990
234472
234959
235496
236133
236866
237662
234700
235176
235746
236383
237052
237855
234804
235346
235791
236372
236883
237526
212969
212846
212412
213079
215347
218019
212313
211320
210625
210881
213041
216023
212916
211618
210516
210219
211748
214286
213072
211653
210342
209716
210862
213228
213658
212195
210765
209947
210712
212814
214124
212851
211595
210863
211411
213125
214788
213688
212724
212248