/*--------------------------------*- C++ -*----------------------------------*\
| =========                 |                                                 |
| \\      /  F ield         | OpenFOAM: The Open Source CFD Toolbox           |
|  \\    /   O peration     | Version:  v2106                                 |
|   \\  /    A nd           | Website:  www.openfoam.com                      |
|    \\/     M anipulation  |                                                 |
\*---------------------------------------------------------------------------*/
FoamFile
{
    version     2.0;
    format      ascii;
    arch        "LSB;label=32;scalar=64";
    class       volScalarField;
    location    "0.000164";
    object      alphat;
}
// * * * * * * * * * * * * * * * * * * * * * * * * * * * * * * * * * * * * * //

dimensions      [1 -1 -1 0 0 0 0];

internalField   nonuniform List<scalar> 
18109
(
1.11662e-06
3.17445e-07
9.6078e-08
5.37193e-08
5.03203e-08
5.80982e-08
7.24986e-08
7.80185e-07
1.71896e-07
2.81667e-08
7.95751e-09
6.71951e-09
8.4237e-09
1.12802e-08
5.89193e-07
1.17024e-07
1.63924e-08
2.41337e-09
7.80231e-10
7.92022e-10
1.12476e-09
4.80329e-07
1.00789e-07
1.78715e-08
2.97168e-09
4.83906e-10
9.84443e-11
7.19761e-11
4.07138e-07
9.4337e-08
1.96134e-08
3.51856e-09
5.45847e-10
7.25141e-11
1.08863e-11
3.75888e-07
9.38325e-08
2.03226e-08
3.56738e-09
5.21127e-10
7.08351e-11
1.40439e-11
3.87148e-07
1.00823e-07
2.13646e-08
3.5461e-09
5.28199e-10
1.17094e-10
7.11821e-11
4.44159e-07
1.14661e-07
2.31083e-08
3.84092e-09
8.24635e-10
4.62465e-10
4.55379e-10
5.43687e-07
1.35932e-07
3.16772e-08
1.39571e-08
1.21785e-08
1.4102e-08
1.77322e-08
2.2222e-08
2.78269e-08
3.5752e-08
4.87414e-08
7.36004e-08
1.30034e-07
2.8919e-07
3.41174e-07
6.89114e-08
9.74512e-09
1.83644e-09
1.24947e-09
1.59455e-09
2.22255e-09
2.98391e-09
3.82718e-09
4.96543e-09
7.55704e-09
1.6572e-08
5.14944e-08
1.74884e-07
2.44113e-07
4.77386e-08
7.00549e-09
9.51886e-10
1.81197e-10
1.2e-10
1.72903e-10
2.51434e-10
3.48785e-10
5.97672e-10
1.77135e-09
7.35784e-09
3.02079e-08
1.08967e-07
2.02264e-07
4.42383e-08
8.25146e-09
1.33501e-09
1.88969e-10
2.5441e-11
9.26635e-12
1.35607e-11
3.42713e-11
1.57439e-10
8.60661e-10
4.31004e-09
1.86697e-08
6.88718e-08
1.81619e-07
4.35121e-08
9.0162e-09
1.56388e-09
2.17021e-10
2.47174e-11
2.58774e-12
1.81252e-12
1.20648e-11
8.52691e-11
5.25915e-10
2.78248e-09
1.26032e-08
4.89993e-08
1.78694e-07
4.46424e-08
9.40555e-09
1.59108e-09
2.06379e-10
2.3527e-11
3.74056e-12
2.81652e-12
1.05813e-11
6.92024e-11
4.36854e-10
2.39333e-09
1.12438e-08
4.52528e-08
1.95904e-07
4.95509e-08
1.00753e-08
1.60071e-09
2.04964e-10
3.66045e-11
1.99711e-11
1.94677e-11
2.82805e-11
9.61808e-11
5.24426e-10
2.81086e-09
1.31403e-08
5.24909e-08
2.34461e-07
5.76095e-08
1.09941e-08
1.68952e-09
2.92855e-10
1.46986e-10
1.4034e-10
1.43695e-10
1.60393e-10
2.69533e-10
9.08942e-10
4.18401e-09
1.8534e-08
7.16776e-08
2.87348e-07
6.68092e-08
1.24506e-08
2.29061e-09
8.68227e-10
7.85826e-10
8.28557e-10
8.65914e-10
9.33531e-10
1.18885e-09
2.36925e-09
7.87113e-09
3.08517e-08
1.13069e-07
3.48684e-07
7.98163e-08
1.76842e-08
5.51843e-09
3.72598e-09
3.81855e-09
4.06389e-09
4.30911e-09
4.68351e-09
5.54331e-09
8.20921e-09
1.87656e-08
6.00768e-08
1.9967e-07
4.29894e-07
1.20573e-07
4.17688e-08
2.05509e-08
1.59793e-08
1.60777e-08
1.69231e-08
1.80913e-08
1.99232e-08
2.32612e-08
3.03237e-08
5.19392e-08
1.29117e-07
3.70275e-07
6.53787e-07
2.80291e-07
1.38559e-07
8.16315e-08
6.23397e-08
5.89841e-08
6.07769e-08
6.50389e-08
7.22407e-08
8.44695e-08
1.04948e-07
1.49867e-07
2.87971e-07
6.85641e-07
1.31863e-06
7.42313e-07
4.4466e-07
2.88372e-07
2.15123e-07
1.90085e-07
1.89532e-07
2.0174e-07
2.24664e-07
2.63268e-07
3.23112e-07
4.19487e-07
6.45849e-07
1.24233e-06
2.69566e-06
1.77303e-06
1.21155e-06
8.59764e-07
6.52017e-07
5.48555e-07
5.2042e-07
5.43019e-07
6.01477e-07
7.01251e-07
8.59346e-07
1.079e-06
1.43758e-06
2.22383e-06
1.54049e-06
2.86609e-06
5.81645e-06
1.08575e-05
1.7798e-05
2.61526e-05
7.40802e-07
1.52569e-06
3.4935e-06
7.27672e-06
1.30278e-05
2.0355e-05
2.71652e-07
8.26888e-07
2.40156e-06
5.59626e-06
1.05594e-05
1.70794e-05
1.29781e-07
5.46628e-07
1.76988e-06
4.33279e-06
8.51998e-06
1.44167e-05
8.7995e-08
4.07735e-07
1.37499e-06
3.50564e-06
7.21898e-06
1.2878e-05
7.65819e-08
3.57137e-07
1.2142e-06
3.15409e-06
6.70053e-06
1.29395e-05
8.1737e-08
3.6453e-07
1.19616e-06
3.09698e-06
6.93056e-06
1.50409e-05
9.54911e-08
4.02834e-07
1.28325e-06
3.40093e-06
8.17542e-06
1.89472e-05
1.13792e-07
4.61729e-07
1.47574e-06
4.05263e-06
1.00482e-05
2.30954e-05
1.3994e-07
5.56553e-07
1.80165e-06
5.0019e-06
1.21887e-05
2.65375e-05
1.80736e-07
7.01721e-07
2.23068e-06
5.96044e-06
1.36679e-05
2.74854e-05
2.44666e-07
8.99132e-07
2.69084e-06
6.66081e-06
1.40613e-05
2.59897e-05
3.45466e-07
1.1442e-06
3.09025e-06
6.9627e-06
1.35538e-05
2.31563e-05
4.98347e-07
1.43623e-06
3.43404e-06
7.02433e-06
1.26447e-05
2.02202e-05
6.78942e-07
1.72868e-06
3.72692e-06
7.04024e-06
1.18618e-05
1.80014e-05
7.67269e-07
1.71621e-06
3.50635e-06
6.44076e-06
1.05965e-05
1.56894e-05
5.28739e-07
1.25651e-06
2.68634e-06
5.11991e-06
8.72596e-06
1.33818e-05
3.32543e-07
8.54398e-07
1.95646e-06
3.96308e-06
7.14139e-06
1.15517e-05
2.17582e-07
6.09346e-07
1.50476e-06
3.25674e-06
6.21625e-06
1.07098e-05
1.65035e-07
5.03546e-07
1.32633e-06
3.02412e-06
6.13024e-06
1.17078e-05
1.5696e-07
4.98062e-07
1.35199e-06
3.23352e-06
7.17352e-06
1.53394e-05
1.79908e-07
5.76325e-07
1.61427e-06
4.11349e-06
9.77116e-06
2.14598e-05
2.40062e-07
7.76501e-07
2.23445e-06
5.78903e-06
1.34817e-05
2.795e-05
3.6729e-07
1.15962e-06
3.22928e-06
7.9307e-06
1.71815e-05
3.28688e-05
6.0337e-07
1.7503e-06
4.4482e-06
9.91705e-06
1.96033e-05
3.43859e-05
1.00108e-06
2.55392e-06
5.74404e-06
1.14796e-05
2.05535e-05
3.30859e-05
1.61974e-06
3.56972e-06
7.07527e-06
1.26929e-05
2.07193e-05
3.08391e-05
2.54273e-06
4.84704e-06
8.51451e-06
1.38237e-05
2.08049e-05
2.90548e-05
4.05207e-06
6.67302e-06
1.04108e-05
1.5343e-05
2.13632e-05
2.80952e-05
3.70391e-06
6.51061e-06
1.04156e-05
1.52446e-05
2.07482e-05
2.6624e-05
3.03885e-06
5.55874e-06
9.09781e-06
1.3589e-05
1.8878e-05
2.50055e-05
2.44672e-06
4.62368e-06
7.79473e-06
1.19936e-05
1.73321e-05
2.5026e-05
1.96172e-06
3.85765e-06
6.74646e-06
1.08758e-05
1.73285e-05
2.96862e-05
1.61652e-06
3.3243e-06
6.13131e-06
1.09422e-05
2.03737e-05
3.96112e-05
1.40937e-06
3.04787e-06
6.17538e-06
1.26627e-05
2.62749e-05
5.19117e-05
1.29909e-06
3.03541e-06
6.9179e-06
1.5467e-05
3.28225e-05
6.26165e-05
1.30153e-06
3.30328e-06
8.04775e-06
1.82248e-05
3.7597e-05
6.8294e-05
1.4393e-06
3.77032e-06
9.13269e-06
2.00233e-05
3.92799e-05
6.79743e-05
1.71641e-06
4.33187e-06
9.961e-06
2.05468e-05
3.80249e-05
6.26576e-05
2.13246e-06
4.93071e-06
1.04746e-05
2.01588e-05
3.51527e-05
5.52759e-05
2.72096e-06
5.6141e-06
1.0856e-05
1.96263e-05
3.21439e-05
4.75762e-05
3.51606e-06
6.42144e-06
1.1584e-05
1.91849e-05
2.91989e-05
4.13531e-05
4.75952e-06
7.97249e-06
1.27963e-05
1.92727e-05
2.75865e-05
3.73805e-05
1.71663e-06
4.83999e-06
1.15529e-05
2.33715e-05
4.06121e-05
6.40342e-05
1.96289e-06
4.89865e-06
1.06726e-05
2.02598e-05
3.3669e-05
5.08696e-05
2.22388e-06
4.86444e-06
9.56415e-06
1.69997e-05
2.72663e-05
4.00969e-05
2.19915e-06
4.35255e-06
8.13865e-06
1.39905e-05
2.2029e-05
3.19747e-05
3.27131e-06
5.85132e-06
1.07044e-05
1.73423e-05
2.51488e-05
3.38481e-05
2.06019e-06
4.82791e-06
9.54075e-06
1.55529e-05
2.25968e-05
3.07171e-05
1.69923e-06
4.22358e-06
8.19266e-06
1.33548e-05
1.98218e-05
2.89445e-05
1.41607e-06
3.4836e-06
6.8081e-06
1.15057e-05
1.84482e-05
3.20347e-05
1.16533e-06
2.90081e-06
5.85494e-06
1.05959e-05
1.96125e-05
3.97025e-05
9.3307e-07
2.41698e-06
5.22435e-06
1.08714e-05
2.32709e-05
4.95975e-05
7.56814e-07
2.09518e-06
5.09559e-06
1.21215e-05
2.77551e-05
5.82059e-05
6.4911e-07
1.93533e-06
5.28993e-06
1.33523e-05
3.07752e-05
6.2445e-05
6.16939e-07
1.94799e-06
5.5678e-06
1.40634e-05
3.14515e-05
6.15506e-05
6.46986e-07
2.05886e-06
5.81647e-06
1.41582e-05
3.0081e-05
5.59334e-05
7.31318e-07
2.21661e-06
5.91784e-06
1.36077e-05
2.71923e-05
4.7403e-05
8.70069e-07
2.39199e-06
5.85174e-06
1.25233e-05
2.34315e-05
3.85164e-05
1.09367e-06
2.61637e-06
5.69083e-06
1.1154e-05
1.9593e-05
3.08306e-05
1.23377e-06
2.63217e-06
5.27083e-06
9.71109e-06
1.63108e-05
2.4947e-05
2.97952e-05
4.11432e-05
6.24398e-05
0.000112386
0.000136216
2.52564e-05
3.76515e-05
7.26932e-05
0.000132011
0.000148015
2.21105e-05
3.92657e-05
9.49495e-05
0.000151503
0.000157293
2.15722e-05
4.97852e-05
0.000123577
0.000162061
0.000159199
2.52608e-05
6.75378e-05
0.000142126
0.000158361
0.000150979
3.27234e-05
8.56952e-05
0.000145661
0.000145625
0.000139011
4.12554e-05
9.69698e-05
0.000139263
0.000132932
0.000130284
4.74955e-05
9.99048e-05
0.000131541
0.000125284
0.000124089
0.000145828
5.02155e-05
9.64874e-05
0.000123461
0.000120721
0.000117636
0.000138696
4.79767e-05
8.68281e-05
0.000113327
0.000117032
0.000113598
0.000134205
4.21886e-05
7.38008e-05
0.000100459
0.000112373
0.000110907
0.00013123
0.000168442
3.50066e-05
5.99874e-05
8.57481e-05
0.00010499
0.000108623
0.000128428
0.000196585
0.000208267
2.8451e-05
4.82268e-05
7.18529e-05
9.63276e-05
0.000108767
0.000123514
0.000212219
0.000516482
2.37533e-05
4.01947e-05
6.16049e-05
8.93062e-05
0.000110966
0.000123503
0.000145919
0.000530684
2.0726e-05
3.52949e-05
5.61519e-05
9.01036e-05
0.000118714
0.000134206
0.000150016
0.000464837
1.84388e-05
3.17885e-05
5.54501e-05
9.94409e-05
0.000128719
0.0001469
0.000164216
0.000458224
1.69177e-05
3.15605e-05
6.3344e-05
0.000115334
0.000140823
0.000160368
0.000178565
0.000277835
1.74759e-05
3.86514e-05
8.39601e-05
0.000132795
0.000150345
0.000169014
0.000178407
0.000400069
2.22008e-05
5.46726e-05
0.000109256
0.000138626
0.000149252
0.00016831
0.000171341
0.000398205
3.13946e-05
7.43659e-05
0.00012252
0.000132687
0.000140573
0.000166368
0.000169988
0.000322843
4.24967e-05
8.90432e-05
0.000122258
0.000122248
0.000133242
0.000169052
0.000177368
0.000139227
5.10063e-05
9.41829e-05
0.00011688
0.000115526
0.000128582
0.000168118
0.000181879
0.000148615
5.4843e-05
9.1958e-05
0.000110602
0.000112459
0.000125824
0.000162286
5.29578e-05
8.36272e-05
0.000102995
0.000112062
0.000126258
0.00016153
4.77675e-05
7.30261e-05
9.44563e-05
0.000113081
0.000128065
0.000165259
4.16103e-05
6.23168e-05
8.51895e-05
0.000114816
0.000133176
0.000168448
3.6843e-05
5.44051e-05
7.84276e-05
0.000118973
0.000143323
0.000172042
3.39978e-05
5.0304e-05
8.17542e-05
0.000131661
0.000156878
3.25155e-05
5.11288e-05
9.95556e-05
0.000153159
0.000171454
3.27303e-05
6.1595e-05
0.000129413
0.000169256
0.000177277
3.86762e-05
8.68261e-05
0.000159462
0.00017098
0.000176697
5.38124e-05
0.000119737
0.000170153
0.000159183
0.000169968
7.38336e-05
0.000143466
0.000161053
0.000140914
0.000158223
9.15157e-05
0.000151374
0.000145863
0.000126216
0.000150285
0.000101658
0.000146146
0.000132041
0.000118
0.000146912
0.000102786
0.000135037
0.000123526
0.000116484
0.000143139
9.60811e-05
0.000120992
0.000117768
0.000119304
0.000140413
8.41435e-05
0.000104394
0.000110747
0.000124482
0.000142741
7.11478e-05
8.75478e-05
0.000100643
0.000129159
0.000145865
5.96431e-05
7.27767e-05
9.02044e-05
0.000134216
0.000152018
5.14209e-05
6.24304e-05
8.74545e-05
0.000141046
0.00016071
4.57928e-05
5.79324e-05
0.000101571
0.00015656
0.000170347
4.18096e-05
6.27717e-05
0.000136236
0.000177411
0.000178607
4.03832e-05
8.08481e-05
0.000176468
0.000184361
0.000176224
4.64156e-05
0.000114212
0.000193993
0.000175017
0.000171402
6.20254e-05
0.00014896
0.000187603
0.000158968
0.000163172
8.07338e-05
0.000168671
0.000170019
0.000141715
0.00014986
9.6548e-05
0.000172119
0.000153157
0.000127486
0.000138333
0.000104991
0.000163529
0.000140252
0.000118647
0.000132593
0.000105721
0.000151085
0.000133257
0.000114816
0.000126002
9.87311e-05
0.000133967
0.000127444
0.000113556
0.000118601
8.58468e-05
0.000112679
0.000118595
0.000113397
0.000115563
7.04124e-05
9.15499e-05
0.000104844
0.000111865
0.000114277
5.56535e-05
7.30513e-05
8.83429e-05
0.000107903
0.000114515
4.39859e-05
5.84377e-05
7.32945e-05
0.000101846
0.000117099
3.57246e-05
4.79929e-05
6.35948e-05
0.000100703
0.00012316
2.98499e-07
6.78692e-08
1.27664e-08
3.94698e-09
2.8134e-09
3.12246e-09
3.94562e-09
4.86131e-09
5.64953e-09
6.4446e-09
8.52692e-09
1.56633e-08
3.95862e-08
1.21893e-07
1.63962e-07
3.11551e-08
4.21374e-09
5.63543e-10
2.15279e-10
2.48993e-10
3.61517e-10
4.92336e-10
6.07117e-10
7.33988e-10
1.28883e-09
4.34694e-09
1.89455e-08
7.77753e-08
1.12601e-07
2.28233e-08
3.72784e-09
5.37265e-10
7.31829e-11
1.75268e-11
1.90147e-11
2.86403e-11
4.23413e-11
9.60358e-11
4.47384e-10
2.43703e-09
1.18081e-08
4.84067e-08
9.91617e-08
2.34089e-08
4.63764e-09
7.79794e-10
1.0628e-10
1.17903e-11
1.38985e-12
1.08601e-12
4.8901e-12
3.52433e-11
2.42797e-10
1.42633e-09
7.04004e-09
2.9222e-08
9.72519e-08
2.43384e-08
5.14508e-09
9.07248e-10
1.23819e-10
1.30008e-11
1.15026e-12
3.42614e-13
2.33353e-12
1.97214e-11
1.42203e-10
8.61128e-10
4.39265e-09
1.89787e-08
1.01919e-07
2.58232e-08
5.4724e-09
9.31617e-10
1.19098e-10
1.22483e-11
1.71977e-12
9.77822e-13
2.28558e-12
1.44401e-11
1.0234e-10
6.31676e-10
3.31292e-09
1.47914e-08
1.18072e-07
2.97128e-08
5.99899e-09
9.5191e-10
1.17421e-10
1.77354e-11
9.03613e-12
8.40411e-12
9.36316e-12
2.02428e-11
1.02084e-10
6.02807e-10
3.17754e-09
1.42995e-08
1.46303e-07
3.52664e-08
6.6032e-09
9.91966e-10
1.5092e-10
6.67565e-11
6.44157e-11
6.54301e-11
6.69707e-11
8.06732e-11
1.82244e-10
7.86892e-10
3.84064e-09
1.66696e-08
1.82892e-07
4.1365e-08
7.40602e-09
1.23867e-09
3.99061e-10
3.60367e-10
3.90425e-10
4.09443e-10
4.26183e-10
4.64606e-10
6.43755e-10
1.55109e-09
5.90466e-09
2.34101e-08
2.26079e-07
4.93597e-08
9.63279e-09
2.5155e-09
1.66221e-09
1.78826e-09
1.96573e-09
2.10679e-09
2.25555e-09
2.47325e-09
2.9737e-09
4.74242e-09
1.26468e-08
4.29879e-08
2.83406e-07
6.96535e-08
1.94303e-08
8.45979e-09
7.06951e-09
7.6638e-09
8.38085e-09
9.11637e-09
1.00157e-08
1.12528e-08
1.32098e-08
1.76198e-08
3.48513e-08
9.74006e-08
4.28359e-07
1.52319e-07
6.19904e-08
3.30433e-08
2.70974e-08
2.83241e-08
3.07018e-08
3.36995e-08
3.77683e-08
4.34751e-08
5.15716e-08
6.44243e-08
1.03337e-07
2.34099e-07
8.53413e-07
4.16e-07
2.08796e-07
1.1967e-07
9.16001e-08
9.04103e-08
9.72458e-08
1.07548e-07
1.22203e-07
1.43229e-07
1.73306e-07
2.13395e-07
2.99135e-07
5.50932e-07
1.81854e-06
1.05439e-06
6.13385e-07
3.77503e-07
2.75522e-07
2.52547e-07
2.66935e-07
2.9741e-07
3.41076e-07
4.03245e-07
4.9596e-07
6.15068e-07
7.96914e-07
1.20884e-06
6.03379e-08
1.21601e-08
2.62999e-09
1.06387e-09
6.67463e-10
6.21062e-10
7.25606e-10
8.29058e-10
9.22932e-10
9.2853e-10
8.99524e-10
1.39176e-09
4.60442e-09
2.03956e-08
3.08063e-08
5.57882e-09
8.34853e-10
1.34131e-10
4.38483e-11
4.05628e-11
5.58196e-11
7.13286e-11
8.48964e-11
8.98174e-11
1.22045e-10
4.84524e-10
2.83901e-09
1.4891e-08
2.6692e-08
5.8239e-09
1.05169e-09
1.63448e-10
2.19896e-11
3.42847e-12
2.46181e-12
3.45825e-12
4.76193e-12
8.96345e-12
4.72362e-11
3.35934e-10
2.06881e-09
1.05065e-08
3.12796e-08
7.53675e-09
1.46602e-09
2.46624e-10
3.40825e-11
3.58543e-12
3.12743e-13
9.37058e-14
3.56815e-13
3.31793e-12
3.0225e-11
2.27761e-10
1.40142e-09
7.09e-09
3.59646e-08
8.84851e-09
1.76444e-09
3.02065e-10
4.11605e-11
4.16385e-12
3.17997e-13
3.79305e-14
1.86545e-13
2.08734e-12
1.96048e-11
1.49798e-10
9.36367e-10
4.84011e-09
4.08573e-08
1.00741e-08
1.96895e-09
3.19281e-10
4.05249e-11
3.91116e-12
3.93184e-13
1.44349e-13
2.323e-13
1.55367e-12
1.40296e-11
1.08227e-10
6.88879e-10
3.64392e-09
4.92544e-08
1.20386e-08
2.25112e-09
3.36829e-10
4.0059e-11
4.6807e-12
1.68213e-12
1.43854e-12
1.40881e-12
2.30161e-12
1.20383e-11
8.70421e-11
5.56105e-10
2.97826e-09
6.17759e-08
1.46348e-08
2.56415e-09
3.5246e-10
4.49509e-11
1.37775e-11
1.2659e-11
1.24871e-11
1.2033e-11
1.21055e-11
2.03908e-11
8.89099e-11
5.22955e-10
2.7575e-09
7.72849e-08
1.76104e-08
2.91971e-09
3.998e-10
9.17282e-11
7.55401e-11
8.46363e-11
8.68595e-11
8.63775e-11
8.50167e-11
9.33472e-11
1.6726e-10
6.44672e-10
3.05995e-09
9.6345e-08
2.11626e-08
3.44951e-09
6.20421e-10
3.57857e-10
4.0825e-10
4.70437e-10
4.9611e-10
5.10701e-10
5.20495e-10
5.43084e-10
6.41349e-10
1.29065e-09
4.53231e-09
1.17498e-07
2.5785e-08
4.78768e-09
1.64735e-09
1.59323e-09
1.91469e-09
2.20557e-09
2.37761e-09
2.52626e-09
2.67627e-09
2.84688e-09
3.07898e-09
4.36078e-09
1.07953e-08
1.55636e-07
4.0191e-08
1.10664e-08
6.02623e-09
6.44533e-09
7.72103e-09
8.85199e-09
9.71222e-09
1.05967e-08
1.16128e-08
1.27418e-08
1.37917e-08
1.70333e-08
3.24327e-08
2.60306e-07
9.2307e-08
3.66017e-08
2.21697e-08
2.25716e-08
2.67014e-08
3.0637e-08
3.41649e-08
3.80807e-08
4.28585e-08
4.85296e-08
5.39983e-08
6.34947e-08
9.88649e-08
5.57862e-07
2.5356e-07
1.21992e-07
7.45562e-08
6.87154e-08
7.90398e-08
9.14999e-08
1.03938e-07
1.17947e-07
1.35326e-07
1.57492e-07
1.81602e-07
2.13041e-07
2.86132e-07
9.79349e-09
2.03816e-09
5.54303e-10
2.65751e-10
1.68556e-10
1.28163e-10
1.33427e-10
1.39334e-10
1.4399e-10
1.34219e-10
1.08764e-10
1.11082e-10
3.54057e-10
2.01999e-09
5.24442e-09
1.01546e-09
1.652e-10
2.89821e-11
9.73966e-12
7.26046e-12
9.10961e-12
1.10125e-11
1.24338e-11
1.2128e-11
1.14711e-11
3.62684e-11
2.56714e-10
1.67829e-09
5.97493e-09
1.41293e-09
2.66681e-10
4.10346e-11
5.64678e-12
7.72611e-13
3.57053e-13
4.74681e-13
6.27611e-13
8.31708e-13
3.11594e-12
2.6799e-11
2.08726e-10
1.32449e-09
8.08695e-09
1.99884e-09
4.02596e-10
6.58887e-11
9.18398e-12
1.01246e-12
8.69446e-14
1.38952e-14
2.29523e-14
1.78866e-13
2.09137e-12
2.06077e-11
1.6201e-10
1.02321e-09
9.90445e-09
2.47139e-09
5.12655e-10
8.5063e-11
1.14821e-11
1.20939e-12
9.51329e-14
6.70482e-15
8.74646e-15
1.20929e-13
1.52639e-12
1.52464e-11
1.20976e-10
7.71633e-10
1.17278e-08
2.90011e-09
5.9084e-10
9.40602e-11
1.17352e-11
1.15897e-12
9.88527e-14
1.89216e-14
1.7749e-14
9.82492e-14
1.15066e-12
1.15592e-11
9.28502e-11
6.01309e-10
1.45781e-08
3.55397e-09
6.98623e-10
1.04603e-10
1.19216e-11
1.21052e-12
2.5454e-13
1.81332e-13
1.62156e-13
1.99513e-13
1.00445e-12
9.2202e-12
7.41143e-11
4.85529e-10
1.84679e-08
4.35775e-09
8.11416e-10
1.13034e-10
1.25522e-11
2.39515e-12
1.76415e-12
1.69492e-12
1.56541e-12
1.41048e-12
1.87235e-12
8.28106e-12
6.05032e-11
3.95258e-10
2.30298e-08
5.24901e-09
9.29508e-10
1.24745e-10
1.91176e-11
1.15972e-11
1.27304e-11
1.29291e-11
1.23903e-11
1.13261e-11
1.0819e-11
1.57264e-11
6.30739e-11
3.72504e-10
2.85584e-08
6.26929e-09
1.07051e-09
1.59701e-10
6.0581e-11
6.66082e-11
7.80627e-11
8.16243e-11
8.10367e-11
7.71622e-11
7.3223e-11
7.39812e-11
1.19107e-10
4.347e-10
3.39717e-08
7.22647e-09
1.27493e-09
3.09589e-10
2.73174e-10
3.4255e-10
4.05634e-10
4.34339e-10
4.45384e-10
4.41569e-10
4.32461e-10
4.20897e-10
4.7869e-10
9.84421e-10
4.19452e-08
9.46791e-09
2.11214e-09
9.95459e-10
1.19681e-09
1.52542e-09
1.80692e-09
1.97436e-09
2.08227e-09
2.14082e-09
2.17003e-09
2.15332e-09
2.27079e-09
3.52064e-09
6.03105e-08
1.76773e-08
5.61377e-09
3.6576e-09
4.59232e-09
5.8652e-09
6.95665e-09
7.74365e-09
8.36416e-09
8.87172e-09
9.29743e-09
9.54001e-09
9.98641e-09
1.3282e-08
1.236e-07
4.73106e-08
1.86736e-08
1.26347e-08
1.51075e-08
1.93815e-08
2.319e-08
2.63155e-08
2.90136e-08
3.15882e-08
3.41681e-08
3.64643e-08
3.89804e-08
4.69958e-08
1.49368e-09
3.27753e-10
9.34942e-11
4.29946e-11
2.59527e-11
2.07535e-11
2.14353e-11
2.25131e-11
2.27533e-11
2.02427e-11
1.49192e-11
1.10169e-11
2.58851e-11
1.70364e-10
9.0327e-10
1.88566e-10
3.45868e-11
6.16682e-12
1.57536e-12
1.05774e-12
1.2988e-12
1.62903e-12
1.8864e-12
1.84486e-12
1.4456e-12
2.60486e-12
1.95028e-11
1.51926e-10
1.25179e-09
3.0091e-10
6.06311e-11
1.03421e-11
1.45333e-12
1.85882e-13
5.24094e-14
6.32978e-14
8.85986e-14
1.06753e-13
2.0884e-13
1.80545e-12
1.71955e-11
1.32172e-10
1.78555e-09
4.3911e-10
9.24088e-11
1.64873e-11
2.35791e-12
2.68055e-13
2.46421e-14
3.75655e-15
3.93413e-15
1.08197e-14
1.17188e-13
1.45133e-12
1.4255e-11
1.10198e-10
2.24669e-09
5.5626e-10
1.18403e-10
2.10728e-11
2.94456e-12
3.18825e-13
2.68899e-14
1.91951e-15
6.26175e-16
5.51867e-15
8.83515e-14
1.13607e-12
1.13338e-11
8.89265e-11
2.70706e-09
6.58853e-10
1.35764e-10
2.2929e-11
2.98942e-12
3.01898e-13
2.5583e-14
3.26667e-15
1.82867e-15
5.16197e-15
6.88071e-14
8.91128e-13
9.04088e-12
7.22217e-11
3.37305e-09
7.99678e-10
1.57031e-10
2.47441e-11
2.96517e-12
2.90255e-13
4.34517e-14
2.43062e-14
2.03924e-14
1.93764e-14
6.65398e-14
7.22655e-13
7.30695e-12
5.89921e-11
4.22119e-09
9.63109e-10
1.78468e-10
2.61345e-11
2.97101e-12
4.35037e-13
2.49563e-13
2.32749e-13
2.09259e-13
1.79043e-13
1.85867e-13
6.76344e-13
5.85701e-12
4.70067e-11
5.14989e-09
1.13174e-09
1.9894e-10
2.77346e-11
3.80096e-12
1.76828e-12
1.86537e-12
1.88407e-12
1.76013e-12
1.55574e-12
1.36739e-12
1.61747e-12
5.85048e-12
4.11982e-11
6.26947e-09
1.32717e-09
2.24268e-10
3.30814e-11
1.00529e-11
1.04356e-11
1.22367e-11
1.27312e-11
1.23072e-11
1.13126e-11
1.01545e-11
9.46761e-12
1.23433e-11
4.44452e-11
7.25251e-09
1.48672e-09
2.5455e-10
5.59278e-11
4.47229e-11
5.73345e-11
6.84389e-11
7.28851e-11
7.2715e-11
6.93287e-11
6.44767e-11
5.96489e-11
5.88997e-11
1.03114e-10
8.54149e-09
1.79366e-09
3.6841e-10
1.66875e-10
2.07486e-10
2.74641e-10
3.28978e-10
3.57674e-10
3.67089e-10
3.618e-10
3.48109e-10
3.29507e-10
3.14009e-10
4.20172e-10
1.13114e-08
2.90177e-09
8.54159e-10
6.21799e-10
8.59155e-10
1.14181e-09
1.37003e-09
1.51852e-09
1.59889e-09
1.62434e-09
1.61405e-09
1.57569e-09
1.51927e-09
1.81056e-09
2.17272e-08
7.23438e-09
2.72502e-09
2.21974e-09
3.08216e-09
4.11823e-09
4.96533e-09
5.60662e-09
6.03866e-09
6.30459e-09
6.46163e-09
6.53808e-09
6.49992e-09
7.25425e-09
2.41266e-10
5.31943e-11
1.45296e-11
6.30102e-12
3.96388e-12
3.44756e-12
3.83456e-12
4.25923e-12
4.43849e-12
4.00706e-12
2.86956e-12
1.78833e-12
2.51712e-12
1.67273e-11
1.73564e-10
3.86161e-11
7.54896e-12
1.35843e-12
2.9362e-13
1.6691e-13
2.16618e-13
2.946e-13
3.63704e-13
3.75292e-13
2.88517e-13
2.9058e-13
1.7657e-12
1.5425e-11
2.72485e-10
6.67557e-11
1.40725e-11
2.56502e-12
3.96541e-13
5.20533e-14
1.15296e-14
1.24689e-14
1.83863e-14
2.27063e-14
2.65266e-14
1.50821e-13
1.60722e-12
1.4164e-11
3.99999e-10
9.99475e-11
2.18098e-11
4.09569e-12
6.38199e-13
7.79493e-14
7.59281e-15
1.22629e-15
1.19223e-15
1.77927e-15
8.71634e-15
1.17371e-13
1.35521e-12
1.2174e-11
5.20982e-10
1.30511e-10
2.85203e-11
5.29382e-12
8.0326e-13
9.40244e-14
8.39424e-15
6.90859e-16
1.97577e-16
4.46693e-16
6.05994e-15
9.30547e-14
1.10461e-12
1.01592e-11
6.4272e-10
1.56864e-10
3.29594e-11
5.80413e-12
8.28106e-13
9.08611e-14
7.87773e-15
8.37563e-16
3.43169e-16
4.62584e-16
4.70244e-15
7.286e-14
8.88509e-13
8.40302e-12
8.05683e-10
1.89882e-10
3.78319e-11
6.22449e-12
8.22141e-13
8.5216e-14
9.93222e-15
3.88896e-15
3.01019e-15
2.51131e-15
5.30876e-15
5.94088e-14
7.21233e-13
6.93865e-12
1.00696e-09
2.2748e-10
4.27669e-11
6.57161e-12
8.20687e-13
1.0417e-13
4.09912e-14
3.51705e-14
3.05437e-14
2.50996e-14
2.22685e-14
6.04612e-14
5.76587e-13
5.51994e-12
1.21722e-09
2.64124e-10
4.71349e-11
6.89353e-12
9.47995e-13
3.14699e-13
2.95568e-13
2.90281e-13
2.62765e-13
2.24391e-13
1.86705e-13
1.90987e-13
5.86763e-13
4.70551e-12
1.46658e-09
3.06555e-10
5.25764e-11
7.90549e-12
1.99786e-12
1.76183e-12
1.99835e-12
2.03104e-12
1.90149e-12
1.68744e-12
1.45047e-12
1.28522e-12
1.44405e-12
4.92603e-12
1.68261e-09
3.41788e-10
5.88501e-11
1.2e-11
8.04991e-12
9.94452e-12
1.16573e-11
1.21288e-11
1.17186e-11
1.07765e-11
9.60816e-12
8.56533e-12
7.77383e-12
1.18334e-11
1.92472e-09
3.94775e-10
7.84209e-11
3.21363e-11
3.7835e-11
4.98292e-11
5.8882e-11
6.25189e-11
6.21248e-11
5.89749e-11
5.4357e-11
4.95754e-11
4.42572e-11
5.25291e-11
2.4231e-09
5.78826e-10
1.61566e-10
1.18387e-10
1.63731e-10
2.18429e-10
2.59181e-10
2.8054e-10
2.86143e-10
2.79741e-10
2.65931e-10
2.492e-10
2.2638e-10
2.45523e-10
4.26506e-09
1.29491e-09
4.78009e-10
4.3402e-10
6.24614e-10
8.39583e-10
1.00082e-09
1.10225e-09
1.14927e-09
1.15267e-09
1.12735e-09
1.0885e-09
1.02171e-09
1.05969e-09
3.58936e-11
7.80376e-12
2.03149e-12
8.35351e-13
5.70872e-13
5.66595e-13
6.89141e-13
8.12578e-13
8.88401e-13
8.28072e-13
5.99044e-13
3.46744e-13
2.63882e-13
1.42311e-12
3.16848e-11
7.26677e-12
1.46659e-12
2.69467e-13
5.52378e-14
2.9025e-14
3.93794e-14
5.69147e-14
7.44074e-14
8.0621e-14
6.43203e-14
4.44556e-14
1.46411e-13
1.35321e-12
5.40506e-11
1.32869e-11
2.85174e-12
5.35978e-13
8.66139e-14
1.23999e-14
3.05869e-15
3.34756e-15
4.95006e-15
6.15239e-15
5.74995e-15
1.28937e-14
1.32705e-13
1.31144e-12
8.13877e-11
2.04558e-11
4.53014e-12
8.70398e-13
1.4072e-13
1.85575e-14
2.02745e-15
4.1152e-16
4.03435e-16
5.12503e-16
8.77702e-16
8.63732e-15
1.12944e-13
1.15851e-12
1.08237e-10
2.71509e-11
5.97803e-12
1.12916e-12
1.77494e-13
2.2474e-14
2.2436e-15
2.63455e-16
1.24829e-16
1.35047e-16
4.64724e-16
6.76622e-15
9.29138e-14
9.8591e-13
1.34198e-10
3.25752e-11
6.86989e-12
1.23166e-12
1.82962e-13
2.18735e-14
2.09885e-15
2.67797e-16
1.32828e-16
1.27468e-16
3.69976e-16
5.24396e-15
7.45097e-14
8.21991e-13
1.66637e-10
3.87751e-11
7.72872e-12
1.29561e-12
1.78961e-13
2.01269e-14
2.20334e-15
6.42245e-16
4.61093e-16
3.70852e-16
4.86666e-16
4.30575e-15
6.04638e-14
6.84058e-13
2.0547e-10
4.56322e-11
8.57173e-12
1.34384e-12
1.75052e-13
2.17625e-14
6.22109e-15
4.72356e-15
3.95159e-15
3.11711e-15
2.47828e-15
4.9105e-15
4.84062e-14
5.45876e-13
2.44813e-10
5.21206e-11
9.28865e-12
1.38295e-12
1.89031e-13
5.02097e-14
4.10525e-14
3.89474e-14
3.41328e-14
2.79445e-14
2.19045e-14
1.99174e-14
5.095e-14
4.56793e-13
2.88403e-10
5.90559e-11
1.00946e-11
1.51675e-12
3.37734e-13
2.58135e-13
2.82849e-13
2.80494e-13
2.54177e-13
2.16204e-13
1.76187e-13
1.47477e-13
1.45891e-13
4.66571e-13
3.23929e-10
6.43312e-11
1.0931e-11
2.10382e-12
1.24516e-12
1.48451e-12
1.71264e-12
1.74016e-12
1.62617e-12
1.433e-12
1.21302e-12
1.02947e-12
8.65217e-13
1.15754e-12
3.57042e-10
7.09395e-11
1.35659e-11
5.19211e-12
5.93201e-12
7.74748e-12
9.04618e-12
9.37572e-12
9.00225e-12
8.18416e-12
7.16141e-12
6.21699e-12
5.20025e-12
5.53429e-12
4.21871e-10
9.47511e-11
2.54777e-11
1.92285e-11
2.68264e-11
3.56936e-11
4.18876e-11
4.42109e-11
4.35358e-11
4.07434e-11
3.67529e-11
3.27239e-11
2.79439e-11
2.77617e-11
6.85286e-10
1.92286e-10
7.21204e-11
7.36514e-11
1.0838e-10
1.45402e-10
1.7124e-10
1.83527e-10
1.84502e-10
1.76961e-10
1.6401e-10
1.49945e-10
1.32378e-10
1.27816e-10
4.69028e-12
1.01443e-12
2.57801e-13
1.06191e-13
8.30826e-14
9.47552e-14
1.24407e-13
1.53785e-13
1.7444e-13
1.67535e-13
1.24379e-13
7.14801e-14
3.61169e-14
1.08388e-13
5.16545e-12
1.19703e-12
2.45158e-13
4.6033e-14
9.8997e-15
5.79343e-15
8.22628e-15
1.22245e-14
1.62975e-14
1.80451e-14
1.47962e-14
9.15213e-15
1.20218e-14
1.02602e-13
9.27779e-12
2.26729e-12
4.88173e-13
9.28792e-14
1.54317e-14
2.4172e-15
7.65337e-16
8.85802e-16
1.2803e-15
1.58157e-15
1.44066e-15
1.42707e-15
9.58602e-15
1.03991e-13
1.43075e-11
3.58077e-12
7.92469e-13
1.53118e-13
2.52465e-14
3.53543e-15
4.91455e-16
1.72191e-16
1.74431e-16
2.0119e-16
2.13142e-16
6.47335e-16
8.10482e-15
9.42039e-14
1.93311e-11
4.8095e-12
1.05296e-12
1.9938e-13
3.19136e-14
4.27838e-15
5.33746e-16
1.35575e-16
1.05513e-16
1.06076e-16
1.20234e-16
4.97819e-16
6.74249e-15
8.19961e-14
2.39429e-11
5.73647e-12
1.20023e-12
2.1589e-13
3.27532e-14
4.16256e-15
5.01408e-16
1.32531e-16
1.03977e-16
1.02011e-16
1.12254e-16
4.01014e-16
5.41183e-15
6.91496e-14
2.92339e-11
6.67311e-12
1.31693e-12
2.21804e-13
3.14096e-14
3.76005e-15
4.78802e-16
1.67419e-16
1.35539e-16
1.23859e-16
1.24224e-16
3.48411e-16
4.40943e-15
5.81469e-14
3.52397e-11
7.64519e-12
1.4208e-12
2.24109e-13
2.9913e-14
3.74608e-15
8.99077e-16
6.07037e-16
5.00698e-16
3.9714e-16
3.11915e-16
4.30617e-16
3.5496e-15
4.65758e-14
4.11072e-11
8.53232e-12
1.504e-12
2.24998e-13
3.06132e-14
6.91733e-15
4.88725e-15
4.44241e-15
3.77911e-15
2.97941e-15
2.22833e-15
1.85895e-15
3.89365e-15
3.83976e-14
4.71998e-11
9.42237e-12
1.59264e-12
2.37619e-13
4.80816e-14
3.20663e-14
3.37089e-14
3.2497e-14
2.85222e-14
2.326e-14
1.80221e-14
1.43229e-14
1.27678e-14
3.82135e-14
5.17675e-11
1.00133e-11
1.67243e-12
3.06825e-13
1.62824e-13
1.86959e-13
2.11331e-13
2.09157e-13
1.89138e-13
1.59756e-13
1.28699e-13
1.04114e-13
8.21226e-14
9.79814e-14
5.5165e-11
1.06098e-11
1.95856e-12
7.0591e-13
7.85056e-13
1.01432e-12
1.16566e-12
1.17731e-12
1.09315e-12
9.52706e-13
7.93844e-13
6.56769e-13
5.19219e-13
5.01738e-13
6.12705e-11
1.30443e-11
3.40375e-12
2.63759e-12
3.70454e-12
4.90074e-12
5.66794e-12
5.82797e-12
5.54539e-12
4.97542e-12
4.27474e-12
3.62331e-12
2.92612e-12
2.68157e-12
9.08496e-11
2.40334e-11
9.39482e-12
1.06032e-11
1.57933e-11
2.10813e-11
2.44636e-11
2.55182e-11
2.47705e-11
2.2777e-11
2.00933e-11
1.74408e-11
1.45351e-11
1.30866e-11
5.5825e-13
1.21207e-13
3.08133e-14
1.35143e-14
1.24138e-14
1.5907e-14
2.20149e-14
2.82482e-14
3.29042e-14
3.24273e-14
2.4626e-14
1.43149e-14
6.40819e-15
8.42592e-15
7.57699e-13
1.74827e-13
3.591e-14
6.88805e-15
1.65847e-15
1.16472e-15
1.69896e-15
2.51727e-15
3.34655e-15
3.73097e-15
3.12418e-15
1.94685e-15
1.30258e-15
7.26253e-15
1.4136e-12
3.41589e-13
7.30994e-14
1.39403e-14
2.40112e-15
4.64404e-16
2.27825e-16
2.66276e-16
3.51498e-16
4.16453e-16
3.86901e-16
3.01223e-16
7.40096e-16
7.59451e-15
2.2354e-12
5.5317e-13
1.21121e-13
2.32858e-14
3.91037e-15
6.28279e-16
1.63045e-16
1.13632e-16
1.1554e-16
1.21612e-16
1.21758e-16
1.35496e-16
6.10366e-16
7.05794e-15
3.05682e-12
7.49093e-13
1.61645e-13
3.0379e-14
4.93335e-15
7.4431e-16
1.69007e-16
1.05598e-16
1.00517e-16
1.00677e-16
1.0136e-16
1.18964e-16
5.24687e-16
6.29087e-15
3.76106e-12
8.84658e-13
1.82321e-13
3.26107e-14
5.03393e-15
7.24231e-16
1.6325e-16
1.04739e-16
9.99118e-17
9.96197e-17
1.00068e-16
1.14081e-16
4.37904e-16
5.37249e-15
4.49189e-12
1.00291e-12
1.94962e-13
3.27382e-14
4.74084e-15
6.5144e-16
1.55683e-16
1.07223e-16
1.02567e-16
1.01386e-16
1.01016e-16
1.1204e-16
3.74055e-16
4.57472e-15
5.26888e-12
1.11485e-12
2.0417e-13
3.21729e-14
4.39951e-15
6.16105e-16
1.9104e-16
1.46519e-16
1.33804e-16
1.23096e-16
1.1462e-16
1.18649e-16
3.18836e-16
3.68762e-15
5.98581e-12
1.20957e-12
2.10167e-13
3.14004e-14
4.29533e-15
9.11361e-16
5.84384e-16
5.16605e-16
4.3929e-16
3.51737e-16
2.73128e-16
2.29892e-16
3.49793e-16
3.01403e-15
6.67031e-12
1.2962e-12
2.15989e-13
3.19129e-14
6.01233e-15
3.54544e-15
3.56385e-15
3.34404e-15