/*--------------------------------*- C++ -*----------------------------------*\
| =========                 |                                                 |
| \\      /  F ield         | OpenFOAM: The Open Source CFD Toolbox           |
|  \\    /   O peration     | Version:  v2106                                 |
|   \\  /    A nd           | Website:  www.openfoam.com                      |
|    \\/     M anipulation  |                                                 |
\*---------------------------------------------------------------------------*/
FoamFile
{
    version     2.0;
    format      ascii;
    arch        "LSB;label=32;scalar=64";
    class       volScalarField;
    location    "0.000164";
    object      k;
}
// * * * * * * * * * * * * * * * * * * * * * * * * * * * * * * * * * * * * * //

dimensions      [0 2 -2 0 0 0 0];

internalField   nonuniform List<scalar> 
18109
(
0.0788766
0.0214689
0.00607916
0.00315194
0.00281746
0.00322807
0.00417163
0.0557304
0.011675
0.00176599
0.000455486
0.000364692
0.000448511
0.000612343
0.0415876
0.00757303
0.000918317
0.000116141
3.84028e-05
4.03016e-05
5.81145e-05
0.0324954
0.00590694
0.000868455
0.000125089
1.95014e-05
4.27726e-06
3.51689e-06
0.0256377
0.00500486
0.000899575
0.000149082
2.22596e-05
2.89009e-06
4.59931e-07
0.021893
0.00471441
0.000934501
0.000156154
2.20777e-05
2.93323e-06
5.9453e-07
0.0212202
0.00502082
0.00100909
0.000161177
2.32488e-05
5.01725e-06
3.11817e-06
0.0239794
0.00584425
0.00113452
0.00018257
3.74909e-05
2.01888e-05
2.0294e-05
0.037275
0.00894007
0.00194845
0.000785113
0.000642205
0.000718999
0.000908742
0.00119422
0.00161961
0.002255
0.00322862
0.00491644
0.00850969
0.0185527
0.0234649
0.00448137
0.000582292
9.90924e-05
6.3726e-05
7.84236e-05
0.000108548
0.000150336
0.000206723
0.000291695
0.000468076
0.00102486
0.00312641
0.0105967
0.016237
0.00285375
0.0003569
4.06626e-05
7.75779e-06
5.58873e-06
8.09358e-06
1.20336e-05
1.78105e-05
3.30077e-05
0.000100302
0.000415844
0.00171398
0.00624305
0.0124728
0.00232597
0.000367052
5.30081e-05
7.14768e-06
9.73566e-07
4.04626e-07
6.34906e-07
1.72914e-06
8.22456e-06
4.53314e-05
0.000228804
0.00100136
0.00373763
0.0102027
0.0020908
0.000388551
6.34647e-05
8.48458e-06
9.40287e-07
9.92173e-08
8.52259e-08
5.88275e-07
4.19518e-06
2.61119e-05
0.000139714
0.000641628
0.00253964
0.00933035
0.00208631
0.00041283
6.70967e-05
8.4182e-06
9.35219e-07
1.50865e-07
1.24201e-07
4.8915e-07
3.25014e-06
2.08226e-05
0.000116244
0.000559792
0.00233037
0.00990879
0.00234756
0.000458149
7.03227e-05
8.69493e-06
1.50548e-06
8.397e-07
8.57387e-07
1.30415e-06
4.55834e-06
2.53967e-05
0.000140223
0.000682348
0.00287743
0.0119983
0.00282569
0.000521514
7.74966e-05
1.2755e-05
6.13538e-06
6.00267e-06
6.41643e-06
7.5463e-06
1.34593e-05
4.76598e-05
0.000228858
0.00106583
0.00439607
0.0152179
0.00342908
0.000624221
0.000111458
3.87734e-05
3.35126e-05
3.60402e-05
3.92363e-05
4.45642e-05
6.08794e-05
0.000132595
0.00047401
0.00196933
0.00768037
0.0193356
0.0043764
0.000976294
0.000294784
0.000176506
0.000168985
0.000180632
0.000198437
0.000226572
0.000285996
0.000464847
0.00117591
0.00404113
0.0142103
0.0253321
0.00728713
0.00257795
0.00120782
0.000826649
0.000754287
0.000776329
0.000849743
0.000977931
0.00120816
0.00170116
0.00321968
0.00867603
0.0262668
0.0413685
0.0183334
0.00917963
0.0052015
0.00357469
0.00301393
0.00293025
0.00313936
0.00360748
0.00443035
0.00585016
0.00904666
0.0188017
0.0472765
0.0879114
0.0509103
0.0309362
0.0196993
0.0136959
0.0108601
0.00989418
0.010174
0.0114864
0.0139981
0.0180484
0.0248492
0.0408104
0.0828074
0.186772
0.126163
0.0878698
0.0624241
0.0457399
0.0355868
0.0305536
0.0295551
0.0319823
0.038043
0.0484759
0.0636949
0.0890946
0.144419
0.109511
0.203253
0.418703
0.791596
1.32902
2.03684
0.0511609
0.105791
0.24611
0.520195
0.952044
1.5417
0.0177683
0.0540703
0.159624
0.38003
0.739097
1.25888
0.00788718
0.0336656
0.111579
0.280873
0.576578
1.05935
0.00501591
0.0238047
0.0827143
0.220194
0.491233
1.01678
0.00415238
0.0200579
0.0716236
0.202168
0.496667
1.18059
0.00434405
0.0205011
0.0733398
0.218035
0.589708
1.55737
0.00520244
0.023972
0.0868209
0.272016
0.778184
2.08455
0.00664493
0.0302187
0.111255
0.354543
1.00191
2.55045
0.00893333
0.0398751
0.146104
0.454626
1.21603
2.84916
0.0123921
0.0528626
0.18416
0.532575
1.30107
2.75793
0.0173251
0.0680546
0.21645
0.563787
1.24107
2.38001
0.0243644
0.0842496
0.236421
0.549984
1.09886
1.92088
0.0343333
0.10185
0.249798
0.52139
0.953698
1.55163
0.045412
0.117833
0.258722
0.495656
0.846885
1.31263
0.0492521
0.111749
0.231842
0.432252
0.723956
1.09906
0.0323135
0.0778566
0.168905
0.327346
0.570965
0.908325
0.0192643
0.0501988
0.116897
0.242391
0.453685
0.784478
0.0119689
0.034175
0.0867494
0.196461
0.405655
0.794229
0.00876629
0.0277541
0.0774536
0.193826
0.450914
1.01918
0.00847882
0.0288514
0.0866898
0.237626
0.615568
1.51917
0.010608
0.0375355
0.118873
0.345894
0.928762
2.25291
0.0159636
0.0571286
0.182677
0.522421
1.32475
2.94689
0.0267749
0.0913508
0.274269
0.721845
1.66249
3.35942
0.0453959
0.138964
0.371965
0.870423
1.79689
3.28843
0.0743667
0.196986
0.459521
0.950058
1.75426
2.9132
0.116497
0.263925
0.537127
0.987175
1.64669
2.51006
0.176659
0.343777
0.616017
1.01846
1.56291
2.24561
0.272724
0.456294
0.724387
1.08752
1.55621
2.1355
0.239231
0.428786
0.701852
1.05631
1.49631
2.03624
0.188122
0.351931
0.592107
0.921604
1.36916
2.01955
0.145663
0.282631
0.495926
0.81959
1.34032
2.30004
0.112657
0.230857
0.435498
0.803136
1.53714
3.15211
0.0909792
0.202583
0.429462
0.924913
2.05815
4.55892
0.0808644
0.200709
0.4891
1.19671
2.83259
6.13084
0.0802439
0.22289
0.602111
1.53411
3.57696
7.34187
0.0885722
0.262687
0.727104
1.80673
4.00298
7.76986
0.105765
0.310504
0.822009
1.92584
3.99548
7.34553
0.131017
0.356574
0.871134
1.88513
3.63375
6.29894
0.163488
0.397344
0.880193
1.75224
3.14185
5.15015
0.20526
0.438017
0.872448
1.61799
2.70248
4.14621
0.258983
0.483396
0.893566
1.51063
2.34036
3.45764
0.341251
0.579217
0.950278
1.45959
2.15525
3.08781
0.128798
0.392378
0.99272
2.08598
3.71774
6.23333
0.148059
0.387426
0.875588
1.70243
2.87365
4.52639
0.165897
0.372958
0.7493
1.3524
2.19839
3.3406
0.159839
0.32101
0.611181
1.06377
1.70338
2.55673
0.227061
0.408915
0.768948
1.28194
1.94226
2.81413
0.134975
0.320786
0.657557
1.12177
1.75309
2.69218
0.105649
0.270806
0.548622
0.955756
1.60867
2.86227
0.0842721
0.216051
0.449497
0.856433
1.68093
3.63838
0.0667031
0.17623
0.397994
0.875546
2.02298
4.86913
0.0518731
0.148674
0.38647
1.00878
2.57879
6.22119
0.0419063
0.136549
0.414892
1.1969
3.1197
7.21116
0.0372572
0.135617
0.455168
1.32968
3.38085
7.47637
0.0380561
0.145275
0.486346
1.3681
3.29753
6.97006
0.0429267
0.158616
0.502192
1.3213
2.96136
5.85107
0.0512627
0.171994
0.496324
1.205
2.49373
4.53286
0.0627446
0.183459
0.471835
1.0463
2.00187
3.3843
0.0789705
0.195715
0.43923
0.880518
1.57295
2.53503
0.0873577
0.190112
0.38937
0.729086
1.24599
1.96144
2.37287
3.54481
6.85988
14.5284
15.8687
2.01109
3.52133
8.97119
17.387
16.9985
1.86218
4.25183
12.6808
20.006
17.8226
2.09322
6.14438
17.1798
21.5181
18.5133
2.8185
8.89783
20.0749
21.1972
18.2026
3.93404
11.5065
20.595
19.5883
17.2107
5.03977
12.8724
19.3973
17.79
16.3573
5.67739
12.8994
17.9957
16.8775
16.2122
18.7065
5.7467
11.9572
16.4138
16.3018
15.9844
18.8018
5.0805
9.99773
14.2125
15.379
15.4904
18.4145
4.04151
7.67757
11.5257
13.9155
14.5041
17.4753
23.3632
2.99742
5.5087
8.74562
11.925
13.1548
15.9274
26.0555
27.7949
2.22523
3.95828
6.55142
10.2042
12.224
13.058
25.2603
66.1472
1.76392
3.10207
5.34607
9.46271
12.3253
12.1679
13.8176
49.2791
1.49441
2.69863
5.051
10.0534
13.2538
13.3519
14.3191
50.0811
1.31736
2.52915
5.45539
11.5814
14.1799
14.5212
16.1351
46.5497
1.274
2.86079
6.96387
13.7446
15.3304
15.8697
17.2548
41.0253
1.52487
4.08614
10.0127
16.0667
16.5907
17.4363
17.6817
31.5081
2.25311
6.33762
13.5288
16.7899
16.7388
18.2821
18.3893
27.1768
3.46048
8.91691
15.2748
15.8629
15.8156
18.617
19.3424
23.5545
4.80138
10.7098
15.1552
14.5169
15.2165
19.4158
20.7824
19.3658
5.68742
11.1253
14.2969
13.8142
15.2432
20.5317
22.7201
15.4931
5.88783
10.4977
13.2021
13.5132
15.505
21.1808
5.29708
8.91977
11.684
13.2915
15.6606
21.3908
4.37438
7.1302
10.0334
13.048
15.1776
21.2209
3.49395
5.54637
8.4753
12.9643
14.7205
19.6866
2.9359
4.59992
7.69817
13.4651
15.0945
17.1324
2.70109
4.38242
8.76732
15.3925
16.5391
2.69678
4.99228
11.8574
18.3334
18.1443
3.04656
6.96549
16.3884
20.112
18.5646
4.18211
10.8271
20.6401
20.0634
18.5435
6.44331
15.5773
22.1141
18.6769
18.5287
9.20608
18.9082
20.847
16.5099
17.9713
11.4886
19.8954
18.6129
14.6782
17.4724
12.6072
18.8682
16.4503
13.6735
17.2346
12.3747
16.91
15.0763
13.7567
17.2799
10.984
14.4937
14.1913
14.6003
17.5873
8.87852
11.6183
12.9947
15.5166
17.855
6.87849
8.90135
11.29
15.9959
17.3496
5.36082
6.84506
9.85037
16.5288
16.9299
4.49096
5.80542
10.0517
17.3629
17.2513
4.05663
5.86785
12.9743
19.7048
18.5315
3.90721
7.32686
18.831
22.5842
19.5923
4.23154
10.6815
25.1467
23.1369
19.2158
5.60081
16.1926
27.6004
21.6418
18.7978
8.19618
21.7569
26.6619
19.8885
18.7136
11.0198
24.8268
24.1558
18.1468
18.2534
13.171
25.1669
21.5465
16.5852
17.5596
14.0335
23.3333
19.2525
15.351
16.9003
13.6659
20.8787
17.9839
15.0376
16.5191
12.0805
17.6328
16.9666
15.2277
16.0297
9.66169
13.5754
15.1163
15.1718
15.5301
7.15932
9.83585
12.3272
14.5611
14.5977
5.09096
6.96651
9.31328
13.5674
13.6842
3.71988
5.11105
7.1291
12.4692
13.3295
2.89971
4.05583
6.2911
12.515
14.1924
0.0197427
0.00431279
0.000762001
0.000213295
0.000139818
0.000146233
0.000178572
0.000218262
0.000263372
0.000332127
0.000496127
0.000971894
0.0024662
0.00753508
0.010729
0.0019113
0.00023582
2.79805e-05
1.01241e-05
1.12267e-05
1.57197e-05
2.1057e-05
2.66046e-05
3.55719e-05
7.11552e-05
0.000251409
0.00110203
0.0045524
0.00685822
0.00122134
0.000169324
2.09899e-05
2.68723e-06
7.02945e-07
7.8992e-07
1.17901e-06
1.84649e-06
4.82675e-06
2.39571e-05
0.000132291
0.000646717
0.00267803
0.00533124
0.00108017
0.000189531
2.96482e-05
3.87754e-06
4.18971e-07
5.07795e-08
4.71387e-08
2.38052e-07
1.77149e-06
1.2328e-05
7.30562e-05
0.000363974
0.00152629
0.0047298
0.00106152
0.000210218
3.56124e-05
4.70935e-06
4.8097e-07
4.19508e-08
1.51075e-08
1.09866e-07
9.36927e-07
6.80821e-06
4.15831e-05
0.000214198
0.000936182
0.0047723
0.00113493
0.000231242
3.81752e-05
4.7372e-06
4.7388e-07
6.71349e-08
4.12109e-08
1.0124e-07
6.47741e-07
4.62751e-06
2.88586e-05
0.000153355
0.000696628
0.00558741
0.00135126
0.00026443
4.07347e-05
4.8609e-06
7.07802e-07
3.6783e-07
3.57982e-07
4.14718e-07
9.01425e-07
4.50589e-06
2.68565e-05
0.000144498
0.000670368
0.00716675
0.00167362
0.000304219
4.42649e-05
6.372e-06
2.68088e-06
2.66237e-06
2.82489e-06
3.0249e-06
3.7779e-06
8.56925e-06
3.70665e-05
0.000185664
0.000843957
0.00935866
0.00205827
0.000358854
5.7677e-05
1.67909e-05
1.46411e-05
1.63591e-05
1.79173e-05
1.95516e-05
2.23747e-05
3.25153e-05
8.18558e-05
0.000325221
0.00136261
0.0121588
0.00261378
0.000505478
0.000124594
7.18132e-05
7.42856e-05
8.36682e-05
9.34973e-05
0.000104989
0.000121103
0.000154371
0.000266805
0.000768958
0.0027814
0.0162106
0.00404863
0.00113972
0.000456696
0.00032553
0.00032966
0.000363887
0.000410839
0.000473009
0.000558904
0.000693777
0.00100107
0.00216956
0.00649376
0.0263207
0.00964672
0.00394136
0.00194659
0.00136673
0.00128638
0.00137104
0.00154638
0.00181055
0.00218951
0.00273571
0.00364797
0.00634961
0.0154111
0.0554411
0.027715
0.0140009
0.00764017
0.00515118
0.00446029
0.00454106
0.00505768
0.00595699
0.00731494
0.00929388
0.0120777
0.0180485
0.0353407
0.122639
0.0729041
0.0429952
0.0259007
0.0173667
0.0139887
0.0134346
0.0145485
0.0169934
0.020905
0.0269104
0.0349813
0.047632
0.0759267
0.00375273
0.000723721
0.000146308
5.47241e-05
3.18218e-05
2.75657e-05
3.05755e-05
3.3557e-05
3.65104e-05
3.75816e-05
4.17177e-05
7.73367e-05
0.000270634
0.00120619
0.00182945
0.000303207
4.09102e-05
6.03685e-06
1.9539e-06
1.73448e-06
2.2723e-06
2.78278e-06
3.22455e-06
3.52939e-06
5.84768e-06
2.62878e-05
0.000157397
0.000834383
0.00136995
0.000257576
4.08183e-05
5.82179e-06
7.529e-07
1.24329e-07
9.53291e-08
1.2994e-07
1.80678e-07
4.04743e-07
2.40131e-06
1.74412e-05
0.000108529
0.000557025
0.00140271
0.000302662
5.48933e-05
8.85906e-06
1.18865e-06
1.21938e-07
1.05101e-08
3.56449e-09
1.63064e-08
1.59656e-07
1.47186e-06
1.11882e-05
6.94809e-05
0.000355099
0.00154062
0.00035567
6.80648e-05
1.13174e-05
1.50288e-06
1.48226e-07
1.10717e-08
1.48515e-09
8.42708e-09
9.54204e-08
9.02772e-07
6.95226e-06
4.38392e-05
0.00022887
0.00176518
0.00041863
7.93944e-05
1.25441e-05
1.55201e-06
1.45889e-07
1.45959e-08
5.77729e-09
9.86956e-09
6.7131e-08
6.1003e-07
4.74254e-06
3.04667e-05
0.000162952
0.00219886
0.00052229
9.50834e-05
1.38577e-05
1.60211e-06
1.80493e-07
6.54247e-08
5.86401e-08
5.98366e-08
9.8408e-08
5.01781e-07
3.62527e-06
2.3389e-05
0.000127101
0.00287707
0.000664527
0.000113379
1.514e-05
1.84421e-06
5.29964e-07
4.99689e-07
5.15438e-07
5.19183e-07
5.41049e-07
8.94909e-07
3.70675e-06
2.17153e-05
0.000116876
0.00376707
0.000837756
0.000135168
1.77963e-05
3.68145e-06
2.90599e-06
3.3804e-06
3.62934e-06
3.77871e-06
3.88649e-06
4.39975e-06
7.77566e-06
2.9285e-05
0.000142027
0.00492447
0.00105877
0.000168352
2.82059e-05
1.40791e-05
1.58963e-05
1.90269e-05
2.09888e-05
2.2642e-05
2.41712e-05
2.63328e-05
3.24046e-05
6.78545e-05
0.000248798
0.00632846
0.00137777
0.000252841
7.73522e-05
6.41179e-05
7.59897e-05
9.04823e-05
0.000101904
0.000113502
0.000126092
0.000140379
0.000159758
0.000243406
0.000650179
0.00891352
0.00233992
0.000641278
0.000303988
0.000273939
0.000315146
0.000369478
0.000422122
0.000482498
0.000554839
0.000637667
0.000725044
0.000957959
0.00197592
0.0158846
0.00577648
0.00227485
0.00122677
0.00104425
0.0011395
0.00130983
0.00150959
0.00175838
0.0020761
0.00246372
0.00287369
0.00357348
0.00595378
0.0356848
0.0166237
0.0080095
0.00454071
0.0035667
0.00363187
0.00406629
0.00469691
0.00553449
0.00664775
0.00810751
0.00979041
0.0120552
0.0170833
0.00057582
0.00011409
2.90833e-05
1.3078e-05
7.74643e-06
5.45881e-06
5.34994e-06
5.31491e-06
5.26482e-06
4.76402e-06
4.03123e-06
5.23199e-06
1.95052e-05
0.000113958
0.000278479
4.86762e-05
7.12053e-06
1.19965e-06
4.15667e-07
2.97469e-07
3.53063e-07
4.05802e-07
4.38432e-07
4.18207e-07
4.61907e-07
1.84271e-06
1.35911e-05
9.00409e-05
0.000257405
5.43619e-05
9.41338e-06
1.36849e-06
1.83452e-07
2.5867e-08
1.29901e-08
1.67703e-08
2.14857e-08
3.17132e-08
1.48638e-07
1.33216e-06
1.05011e-05
6.73911e-05
0.000316031
7.36351e-05
1.42323e-05
2.25766e-06
3.07147e-07
3.31285e-08
2.79135e-09
4.57389e-10
9.00092e-10
8.15308e-09
9.78398e-08
9.73652e-07
7.7288e-06
4.93293e-05
0.000387436
9.34828e-05
1.88716e-05
3.05417e-06
4.02878e-07
4.14905e-08
3.19169e-09
2.28421e-10
3.72017e-10
5.32005e-09
6.77352e-08
6.82017e-07
5.45947e-06
3.51637e-05
0.000474595
0.000114574
2.28237e-05
3.55042e-06
4.32646e-07
4.17235e-08
3.50285e-09
7.13655e-10
7.19141e-10
4.09552e-09
4.82851e-08
4.88681e-07
3.95913e-06
2.58889e-05
0.000616177
0.000147136
2.83204e-05
4.14345e-06
4.60246e-07
4.53123e-08
9.4629e-09
7.07095e-09
6.60538e-09
8.27587e-09
4.03984e-08
3.69443e-07
2.99252e-06
1.98082e-05
0.000817251
0.000189019
3.44572e-05
4.68381e-06
5.01843e-07
8.96249e-08
6.66275e-08
6.69496e-08
6.46413e-08
6.052e-08
7.95444e-08
3.26411e-07
2.34611e-06
1.54658e-05
0.00106729
0.000238389
4.12903e-05
5.37632e-06
7.57307e-07
4.27382e-07
4.86034e-07
5.16762e-07
5.18289e-07
4.94699e-07
4.88189e-07
6.89954e-07
2.546e-06
1.47924e-05
0.00138638
0.000298235
4.97463e-05
7.02572e-06
2.28067e-06
2.46543e-06
3.01483e-06
3.30159e-06
3.43336e-06
3.41949e-06
3.3809e-06
3.51966e-06
5.62483e-06
2.00726e-05
0.00173141
0.000362298
6.24655e-05
1.34707e-05
1.01437e-05
1.28397e-05
1.58617e-05
1.77854e-05
1.9113e-05
1.98446e-05
2.02945e-05
2.05796e-05
2.45119e-05
5.30235e-05
0.00225709
0.000508728
0.000111126
4.38161e-05
4.54318e-05
5.81622e-05
7.16278e-05
8.188e-05
9.05055e-05
9.75458e-05
0.0001034
0.000107122
0.000118879
0.00019761
0.00345591
0.00102837
0.000318277
0.000171713
0.000182559
0.000228975
0.000280217
0.000325547
0.000368291
0.000409779
0.000449681
0.000482238
0.000529594
0.000748595
0.00748861
0.00292004
0.00112955
0.000653888
0.000647455
0.000784624
0.000953717
0.00112356
0.00129498
0.00147894
0.00167684
0.00187223
0.00209578
0.0026611
8.31442e-05
1.73693e-05
4.68728e-06
2.03207e-06
1.14157e-06
8.45548e-07
8.2114e-07
8.19126e-07
7.89385e-07
6.71101e-07
4.86916e-07
4.30951e-07
1.33465e-06
9.19422e-06
4.26613e-05
8.05934e-06
1.34838e-06
2.31705e-07
6.1619e-08
4.09933e-08
4.79063e-08
5.71571e-08
6.30849e-08
5.90404e-08
4.88514e-08
1.2171e-07
9.90421e-07
7.83717e-06
4.72459e-05
1.05307e-05
2.01108e-06
3.30364e-07
4.52555e-08
5.80533e-09
1.76601e-09
2.11442e-09
2.84185e-09
3.47105e-09
9.00313e-09
8.61577e-08
8.33423e-07
6.48208e-06
6.42101e-05
1.52411e-05
3.12052e-06
5.44076e-07
7.61763e-08
8.48833e-09
7.66815e-10
1.17587e-10
1.2616e-10
4.35623e-10
5.2623e-09
6.61882e-08
6.56618e-07
5.13051e-06
8.28867e-05
2.0056e-05
4.1806e-06
7.29245e-07
9.98334e-08
1.05866e-08
8.74293e-10
6.14115e-11
2.27025e-11
2.31909e-10
3.78841e-09
4.91345e-08
4.94586e-07
3.91907e-06
0.00010427
2.49067e-05
5.03717e-06
8.34361e-07
1.06521e-07
1.05224e-08
8.75121e-10
1.16116e-10
7.02881e-11
2.0748e-10
2.79404e-09
3.64578e-08
3.73068e-07
3.00882e-06
0.00013612
3.17175e-05
6.11624e-06
9.4491e-07
1.10706e-07
1.05495e-08
1.55833e-09
9.13152e-10
8.01944e-10
7.85599e-10
2.61276e-09
2.80284e-08
2.85293e-07
2.32539e-06
0.000178474
4.00254e-05
7.2811e-06
1.04418e-06
1.15323e-07
1.59481e-08
9.10681e-09
8.87394e-09
8.34107e-09
7.43101e-09
7.78946e-09
2.60219e-08
2.18582e-07
1.76441e-06
0.000228018
4.92277e-05
8.48675e-06
1.15391e-06
1.48124e-07
6.32367e-08
6.8751e-08
7.26758e-08
7.10427e-08
6.55419e-08
5.97393e-08
6.97935e-08
2.25582e-07
1.5278e-06
0.000290603
6.03878e-05
9.98955e-06
1.40949e-06
3.69735e-07
3.72334e-07
4.55899e-07
4.96827e-07
5.02941e-07
4.8316e-07
4.5176e-07
4.34494e-07
5.57375e-07
1.86314e-06
0.0003523
7.09587e-05
1.18496e-05
2.33329e-06
1.5858e-06
2.06492e-06
2.57932e-06
2.87816e-06
3.00867e-06
3.0014e-06
2.91222e-06
2.79966e-06
2.86519e-06
5.13653e-06
0.000436762
9.08576e-05
1.80418e-05
6.74941e-06
7.39174e-06
1.00204e-05
1.25491e-05
1.42945e-05
1.53769e-05
1.58743e-05
1.59571e-05
1.57304e-05
1.56448e-05
2.20993e-05
0.000614353
0.00015849
4.43944e-05
2.57328e-05
3.13473e-05
4.23274e-05
5.29455e-05
6.14402e-05
6.78036e-05
7.22187e-05
7.50781e-05
7.64581e-05
7.69566e-05
9.64969e-05
0.00125316
0.000422097
0.000150856
9.843e-05
0.000117208
0.000155861
0.0001947
0.000229766
0.00025925
0.000283984
0.000304927
0.0003224
0.000334754
0.000391088
1.27534e-05
2.68132e-06
6.97828e-07
2.86983e-07
1.67847e-07
1.35172e-07
1.41766e-07
1.49775e-07
1.48659e-07
1.27617e-07
8.79896e-08
5.99764e-08
1.21169e-07
8.74371e-07
7.32329e-06
1.48408e-06
2.67216e-07
4.6038e-08
1.034e-08
6.10306e-09
7.66679e-09
9.97058e-09
1.175e-08
1.15401e-08
8.78054e-09
1.20281e-08
8.68824e-08
7.74275e-07
9.47024e-06
2.20556e-06
4.48095e-07
7.94528e-08
1.20282e-08
1.56809e-09
3.67882e-10
4.01108e-10
5.69567e-10
6.82183e-10
9.71929e-10
6.94109e-09
7.59349e-08
6.77004e-07
1.37239e-05
3.34355e-06
7.14109e-07
1.31559e-07
2.01322e-08
2.4142e-09
2.31144e-10
3.74122e-11
3.59628e-11
5.84515e-11
3.71765e-10
5.22309e-09
6.09343e-08
5.52923e-07
1.8542e-05
4.55827e-06
9.78336e-07
1.78418e-07
2.65924e-08
3.05385e-09
2.66942e-10
2.13362e-11
5.9928e-12
1.68255e-11
2.52891e-10
3.93339e-09
4.70872e-08
4.37102e-07
2.39644e-05
5.75328e-06
1.18874e-06
2.05725e-07
2.88174e-08
3.09892e-09
2.6313e-10
2.80993e-11
1.21395e-11
1.74066e-11
1.86225e-10
2.9145e-09
3.58275e-08
3.41888e-07
3.1508e-05
7.31046e-06
1.43257e-06
2.31533e-07
2.9988e-08
3.03665e-09
3.47293e-10
1.41518e-10
1.14786e-10
9.92189e-11
2.06072e-10
2.25526e-09
2.75134e-08
2.67022e-07
4.12682e-05
9.17735e-06
1.69633e-06
2.55807e-07
3.12034e-08
3.78694e-09
1.46089e-09
1.30636e-09
1.18557e-09
1.01506e-09
9.21813e-10
2.31179e-09
2.10179e-08
2.01862e-07
5.22335e-05
1.11503e-05
1.95456e-06
2.79693e-07
3.66784e-08
1.11125e-08
1.06193e-08
1.09064e-08
1.03248e-08
9.20183e-09
7.95353e-09
8.16352e-09
2.22509e-08
1.68485e-07
6.58629e-05
1.35311e-05
2.27547e-06
3.2996e-07
7.36258e-08
6.13746e-08
7.24901e-08
7.71452e-08
7.55947e-08
7.0094e-08
6.275e-08
5.74503e-08
6.38911e-08
1.96697e-07
7.91038e-05
1.57916e-05
2.65456e-06
4.93432e-07
2.80195e-07
3.48257e-07
4.27306e-07
4.65795e-07
4.71356e-07
4.53373e-07
4.21524e-07
3.90134e-07
3.65947e-07
5.63275e-07
9.5043e-05
1.92442e-05
3.68369e-06
1.25488e-06
1.30376e-06
1.76342e-06
2.18204e-06
2.42789e-06
2.52806e-06
2.51259e-06
2.41803e-06
2.29401e-06
2.12947e-06
2.64566e-06
0.000126647
3.02041e-05
7.91874e-06
4.57842e-06
5.71222e-06
7.82881e-06
9.71608e-06
1.10196e-05
1.17802e-05
1.20681e-05
1.1994e-05
1.17109e-05
1.10747e-05
1.25655e-05
0.000236788
7.22545e-05
2.46533e-05
1.74382e-05
2.23295e-05
3.05502e-05
3.79817e-05
4.38014e-05
4.78645e-05
5.03457e-05
5.1549e-05
5.19514e-05
5.08221e-05
5.49831e-05
1.80079e-06
3.73299e-07
9.31735e-08
3.65825e-08
2.32428e-08
2.14658e-08
2.47535e-08
2.78385e-08
2.90264e-08
2.56786e-08
1.77107e-08
1.03567e-08
1.12953e-08
7.21528e-08
1.20889e-06
2.55486e-07
4.81365e-08
8.49414e-09
1.80051e-09
1.01109e-09
1.34982e-09
1.87641e-09
2.3495e-09
2.42069e-09
1.85732e-09
1.53194e-09
6.94051e-09
6.64258e-08
1.77968e-06
4.22205e-07
8.81796e-08
1.62197e-08
2.5768e-09
3.67629e-10
9.59156e-11
1.05854e-10
1.51044e-10
1.79407e-10
1.75421e-10
5.55407e-10
6.14018e-09
6.14349e-08
2.70488e-06
6.6612e-07
1.44858e-07
2.73699e-08
4.35427e-09
5.64779e-10
6.06329e-11
1.22287e-11
1.18297e-11
1.48644e-11
3.26999e-11
3.75213e-10
4.98479e-09
5.16171e-08
3.75117e-06
9.25343e-07
2.00459e-07
3.72613e-08
5.7628e-09
7.17088e-10
6.99983e-11
7.82067e-12
3.52203e-12
4.006e-12
1.80422e-11
2.80428e-10
3.89081e-09
4.16419e-08
4.87982e-06
1.16666e-06
2.42248e-07
4.27396e-08
6.24341e-09
7.32879e-10
6.86572e-11
8.37778e-12
4.03598e-12
3.94185e-12
1.36465e-11
2.05686e-10
2.95228e-09
3.28408e-08
6.3577e-06
1.45783e-06
2.86084e-07
4.71672e-08
6.39969e-09
7.05032e-10
7.53365e-11
2.23024e-11
1.66066e-11
1.36822e-11
1.81202e-11
1.60439e-10
2.26624e-09
2.58443e-08
8.21459e-06
1.79754e-06
3.32283e-07
5.1188e-08
6.53082e-09
7.83974e-10
2.17952e-10
1.71634e-10
1.49803e-10
1.22889e-10
1.00515e-10
1.87304e-10
1.73397e-09
1.95724e-08
1.0243e-05
2.14734e-06
3.76274e-07
5.49185e-08
7.22853e-09
1.76555e-09
1.44887e-09
1.43519e-09
1.31397e-09
1.12168e-09
9.13395e-10
8.42036e-10
1.91462e-09
1.59412e-08
1.26203e-05
2.54213e-06
4.26517e-07
6.21134e-08
1.24375e-08
8.86027e-09
1.00685e-08
1.04463e-08
9.89799e-09
8.78929e-09
7.45461e-09
6.45108e-09
6.35654e-09
1.79799e-08
1.48219e-05
2.89376e-06
4.80443e-07
8.52616e-08
4.28045e-08
5.10017e-08
6.15517e-08
6.54839e-08
6.40314e-08
5.89634e-08
5.20052e-08
4.57788e-08
3.96941e-08
5.32497e-08
1.71235e-05
3.35161e-06
6.1634e-07
1.97076e-07
1.99685e-07
2.68444e-07
3.28381e-07
3.56512e-07
3.5839e-07
3.40795e-07
3.11064e-07
2.80565e-07
2.43365e-07
2.69414e-07
2.13498e-05
4.75911e-06
1.18636e-06
7.03875e-07
9.0779e-07
1.25004e-06
1.5365e-06
1.69906e-06
1.75239e-06
1.71675e-06
1.61726e-06
1.49841e-06
1.3289e-06
1.37505e-06
3.68025e-05
1.03018e-05
3.46601e-06
2.73101e-06
3.72248e-06
5.15398e-06
6.34992e-06
7.12914e-06
7.50852e-06
7.54472e-06
7.31151e-06
6.96733e-06
6.39768e-06
6.42448e-06
2.22165e-07
4.57614e-08
1.12342e-08
4.45816e-09
3.2609e-09
3.49412e-09
4.37704e-09
5.17723e-09
5.61187e-09
5.11591e-09
3.60942e-09
2.01538e-09
1.27907e-09
5.28571e-09
1.808e-07
3.92376e-08
7.62275e-09
1.3919e-09
3.1329e-10
1.97541e-10
2.77107e-10
3.97495e-10
5.08705e-10
5.35708e-10
4.18618e-10
2.68781e-10
5.29454e-10
4.93591e-09
2.94462e-07
7.00927e-08
1.47742e-08
2.7619e-09
4.52418e-10
7.09267e-11
2.36672e-11
2.75526e-11
3.86095e-11
4.55594e-11
4.0461e-11
5.25704e-11
4.33307e-10
4.79103e-09
4.64655e-07
1.14259e-07
2.48844e-08
4.73644e-09
7.69493e-10
1.06004e-10
1.43922e-11
4.93597e-12
4.96166e-12
5.61493e-12
6.3333e-12
2.63189e-11
3.51517e-10
4.13218e-09
6.56482e-07
1.60831e-07
3.46897e-08
6.47212e-09
1.02037e-09
1.34403e-10
1.62259e-11
3.84279e-12
2.91262e-12
2.92694e-12
3.62783e-12
1.94885e-11
2.77653e-10
3.41162e-09
8.53784e-07
2.01644e-07
4.15803e-08
7.36812e-09
1.10039e-09
1.37226e-10
1.58846e-11
3.82857e-12
2.90057e-12
2.83773e-12
3.29849e-12
1.47647e-11
2.10813e-10
2.72201e-09
1.09376e-06
2.46189e-07
4.78723e-08
7.93771e-09
1.10526e-09
1.29506e-10
1.57562e-11
5.19976e-12
4.17765e-12
3.79239e-12
3.821e-12
1.21669e-11
1.62394e-10
2.16401e-09
1.38121e-06
2.9543e-07
5.40695e-08
8.38822e-09
1.0983e-09
1.33265e-10
3.0718e-11
2.11803e-11
1.8049e-11
1.4678e-11
1.16775e-11
1.57691e-11
1.24918e-10
1.64318e-09
1.68509e-06
3.44647e-07
5.97803e-08
8.77885e-09
1.15708e-09
2.42524e-10
1.69909e-10
1.60813e-10
1.42604e-10
1.16913e-10
9.05673e-11
7.69717e-11
1.45065e-10
1.31235e-09
2.02213e-06
3.97377e-07
6.59878e-08
9.57621e-09
1.76885e-09
1.09015e-09
1.18309e-09
1.19192e-09
1.09239e-09
9.2875e-10
7.48052e-10
6.14497e-10
5.48706e-10
1.4323e-09
2.31655e-06
4.40696e-07
7.19905e-08
1.22913e-08
5.55492e-09
6.33627e-09
7.48511e-09
7.75027e-09
7.32454e-09
6.45709e-09
5.41401e-09
4.53843e-09
3.68838e-09
4.38908e-09
2.58239e-06
4.88695e-07
8.67045e-08
2.62618e-08
2.59895e-08
3.46133e-08
4.16723e-08
4.4059e-08
4.2783e-08
3.8952e-08
3.38168e-08
2.90333e-08
2.37502e-08
2.37589e-08
3.0169e-06
6.34371e-07
1.51849e-07
9.26436e-08
1.22697e-07
1.68797e-07
2.04588e-07
2.20292e-07
2.19326e-07
2.05738e-07
1.8437e-07
1.62406e-07
1.3594e-07
1.29281e-07
4.73715e-06
1.23982e-06
4.22063e-07
3.70223e-07
5.2814e-07
7.33628e-07
8.9186e-07
9.74388e-07
9.90122e-07
9.52581e-07
8.77462e-07
7.92713e-07
6.85834e-07
6.4056e-07
2.48027e-08
5.12997e-09
1.27342e-09
5.44738e-10
4.7322e-10
5.75811e-10
7.63937e-10
9.4033e-10
1.04852e-09
9.81648e-10
7.08055e-10
3.94894e-10
1.91277e-10
3.83522e-10
2.48101e-08
5.44444e-09
1.07587e-09
2.03381e-10
5.20441e-11
3.91218e-11
5.64122e-11
8.09594e-11
1.03556e-10
1.09936e-10
8.76278e-11
5.35107e-11
4.9063e-11
3.40635e-10
4.37424e-08
1.03525e-08
2.17691e-09
4.08886e-10
6.95161e-11
1.34467e-11
6.80582e-12
8.00435e-12
1.03738e-11
1.18513e-11
1.06294e-11
9.0181e-12
3.14338e-11
3.437e-10
7.1328e-08
1.73728e-08
3.74894e-09
7.10764e-10
1.17582e-10
1.84714e-11
4.61244e-12
3.16055e-12
3.2071e-12
3.35128e-12
3.35001e-12
4.293e-12
2.51778e-11
3.04504e-10
1.02138e-07
2.46704e-08
5.24982e-09
9.72893e-10
1.55537e-10
2.28628e-11
4.88297e-12
2.91777e-12
2.76044e-12
2.76219e-12
2.79398e-12
3.65777e-12
2.05039e-11
2.57537e-10
1.32008e-07
3.06289e-08
6.22612e-09
1.09779e-09
1.66674e-10
2.32554e-11
4.82359e-12
2.90371e-12
2.74563e-12
2.73488e-12
2.75407e-12
3.37187e-12
1.61035e-11
2.08037e-10
1.65382e-07
3.64289e-08
6.98227e-09
1.15487e-09
1.64236e-10
2.17447e-11
4.68407e-12
3.01381e-12
2.8575e-12
2.81552e-12
2.80003e-12
3.23717e-12
1.29588e-11
1.67401e-10
2.03156e-07
4.23994e-08
7.65118e-09
1.18636e-09
1.58923e-10
2.12208e-11
5.99266e-12
4.49325e-12
4.11184e-12
3.75823e-12
3.44689e-12
3.5716e-12
1.05208e-11
1.27721e-10
2.41239e-07
4.80591e-08
8.22169e-09
1.20666e-09
1.60128e-10
3.14416e-11
1.96391e-11
1.79118e-11
1.57074e-11
1.28663e-11
1.01056e-11
8.51672e-12
1.22884e-11
1.00641e-10
2.80753e-07
5.37358e-08
8.80295e-09
1.26815e-09
2.20468e-10
1.1938e-10
1.23272e-10
1.20639e-10
1.07273e-10
8.7784e-11
6.7739e-11
5.34499e-11
4.44569e-11
1.05731e-10
3.11989e-07
5.77876e-08
9.27889e-09
1.53106e-09
6.30195e-10
6.88471e-10
7.94905e-10
8.01138e-10
7.32572e-10
6.18985e-10
4.94672e-10
3.96017e-10
3.04823e-10
3.27877e-10
3.34717e-07
6.13424e-08
1.05467e-08
3.04807e-09
2.95246e-09
3.89348e-09
4.60701e-09
4.74335e-09
4.45421e-09
3.88743e-09
3.21871e-09
2.63498e-09
2.0446e-09
1.87257e-09
3.6769e-07
7.34573e-08
1.70283e-08
1.06949e-08
1.44823e-08
1.98594e-08
2.36987e-08
2.48468e-08
2.3905e-08
2.14938e-08
1.83707e-08
1.54023e-08
1.22152e-08
1.07518e-08
5.22384e-07
1.30249e-07
4.56912e-08
4.43038e-08
6.53927e-08
9.07523e-08
1.08708e-07
1.15594e-07
1.1344e-07
1.04611e-07
9.18321e-08
7.87607e-08
6.43654e-08
5.60142e-08
2.5945e-09
5.46391e-10
1.43587e-10
7.15777e-11
7.31263e-11
9.62644e-11
1.31199e-10
1.64573e-10
1.85182e-10
1.7522e-10
1.28387e-10
7.29242e-11
3.34973e-11
3.36351e-11
3.15136e-09
6.94076e-10
1.39669e-10
2.87837e-11
9.90034e-12
9.01349e-12
1.23847e-11
1.69188e-11
2.10144e-11
2.21929e-11
1.82472e-11
1.19073e-11
8.1014e-12
2.58611e-11
5.8973e-09
1.38255e-09
2.8958e-10
5.58411e-11
1.14498e-11
4.2099e-12
3.43903e-12
3.72872e-12
4.18093e-12
4.4537e-12
4.21534e-12
3.71655e-12
4.79687e-12
2.64592e-11
9.87961e-09
2.37374e-09
5.05996e-10
9.65331e-11
1.78154e-11
4.79765e-12
2.98173e-12
2.79716e-12
2.81481e-12
2.84357e-12
2.83731e-12
2.86132e-12
4.18498e-12
2.42979e-11
1.42613e-08
3.38478e-09
7.088e-10
1.31356e-10
2.28267e-11
5.37958e-12
3.01101e-12
2.74788e-12
2.72685e-12
2.72804e-12
2.73009e-12
2.77768e-12
3.87888e-12
2.14056e-11
1.8249e-08
4.15109e-09
8.30288e-10
1.46487e-10
2.41396e-11
5.42017e-12
3.00221e-12
2.74508e-12
2.72342e-12
2.72245e-12
2.72384e-12
2.7586e-12
3.59146e-12
1.80091e-11
2.22845e-08
4.80102e-09
9.0597e-10
1.50287e-10
2.33764e-11
5.17435e-12
2.97342e-12
2.75273e-12
2.73278e-12
2.72916e-12
2.72787e-12
2.75196e-12
3.38768e-12
1.51506e-11
2.65331e-08
5.40347e-09
9.60541e-10
1.49668e-10
2.21082e-11
4.99629e-12
3.06957e-12
2.87604e-12
2.8355e-12
2.8034e-12
2.77662e-12
2.77799e-12
3.22871e-12
1.22237e-11
3.05327e-08
5.92444e-09
9.98569e-10
1.47312e-10
2.1423e-11
5.80866e-12
4.26973e-12
4.03767e-12
3.80834e-12
3.53601e-12
3.28573e-12
3.13794e-12
3.3535e-12
1.00577e-11
3.43204e-08
6.39253e-09
1.03168e-09
1.48692e-10
2.64673e-11
1.40027e-11
1.38163e-11
1.32636e-11
1.17695e-11
9.78257e-12
7.85781e-12
6.52635e-12
5.65232e-12
9.97932e-12
3.68045e-08
6.62979e-09
1.04607e-09
1.69347e-10
6.62646e-11
6.96694e-11
7.83101e-11
7.69135e-11
6.8356e-11
5.58686e-11
4.31342e-11
3.34409e-11
2.5047e-11
2.49899e-11
3.7871e-08
6.72517e-09
1.126e-09
3.16985e-10
3.04389e-10
3.9704e-10
4.60763e-10
4.62012e-10
4.19808e-10
3.51633e-10
2.78004e-10
2.16838e-10
1.60107e-10
1.36065e-10
3.91823e-08
7.48062e-09
1.70117e-09
1.11435e-09