/*--------------------------------*- C++ -*----------------------------------*\
| =========                 |                                                 |
| \\      /  F ield         | OpenFOAM: The Open Source CFD Toolbox           |
|  \\    /   O peration     | Version:  v2106                                 |
|   \\  /    A nd           | Website:  www.openfoam.com                      |
|    \\/     M anipulation  |                                                 |
\*---------------------------------------------------------------------------*/
FoamFile
{
    version     2.0;
    format      ascii;
    arch        "LSB;label=32;scalar=64";
    class       volScalarField;
    location    "0.000164";
    object      nut;
}
// * * * * * * * * * * * * * * * * * * * * * * * * * * * * * * * * * * * * * //

dimensions      [0 2 -1 0 0 0 0];

internalField   nonuniform List<scalar> 
18109
(
4.47779e-07
1.27328e-07
3.85347e-08
2.15499e-08
2.01882e-08
2.3313e-08
2.90899e-08
3.13564e-07
6.90399e-08
1.1309e-08
3.19393e-09
2.69672e-09
3.38022e-09
4.52534e-09
2.37212e-07
4.70518e-08
6.58682e-09
9.69163e-10
3.1322e-10
3.17834e-10
4.51185e-10
1.93627e-07
4.05606e-08
7.18522e-09
1.19382e-09
1.94302e-10
3.95065e-11
2.88697e-11
1.6424e-07
3.79859e-08
7.88835e-09
1.41383e-09
2.19186e-10
2.90985e-11
4.36586e-12
1.51706e-07
3.77952e-08
8.17475e-09
1.43347e-09
2.09239e-10
2.84206e-11
5.63098e-12
1.56259e-07
4.06108e-08
8.59319e-09
1.42474e-09
2.12041e-10
4.69701e-11
2.85333e-11
1.79222e-07
4.61763e-08
9.29305e-09
1.54296e-09
3.30978e-10
1.85469e-10
1.82493e-10
2.16585e-07
5.41329e-08
1.261e-08
5.55528e-09
4.84697e-09
5.61222e-09
7.05604e-09
8.83951e-09
1.10635e-08
1.42034e-08
1.93441e-08
2.91726e-08
5.14521e-08
1.14171e-07
1.36159e-07
2.74708e-08
3.88271e-09
7.31339e-10
4.97467e-10
6.34669e-10
8.84388e-10
1.18676e-09
1.5212e-09
1.97188e-09
2.99783e-09
6.56492e-09
2.03649e-08
6.9037e-08
9.75668e-08
1.9049e-08
2.79317e-09
3.79262e-10
7.21646e-11
4.77696e-11
6.88007e-11
9.99887e-11
1.38605e-10
2.37301e-10
7.02574e-10
2.91477e-09
1.19487e-08
4.30263e-08
8.09159e-08
1.76653e-08
3.29161e-09
5.32111e-10
7.52762e-11
1.01284e-11
3.68701e-12
5.39205e-12
1.36167e-11
6.24966e-11
3.41287e-10
1.70699e-09
7.38321e-09
2.71927e-08
7.26995e-08
1.73845e-08
3.59793e-09
6.23462e-10
8.64545e-11
9.83964e-12
1.02949e-12
7.20566e-13
4.79256e-12
3.38412e-11
2.08506e-10
1.10186e-09
4.9841e-09
1.93497e-08
7.15481e-08
1.78406e-08
3.75368e-09
6.34301e-10
8.22055e-11
9.36414e-12
1.48776e-12
1.1194e-12
4.20213e-12
2.74577e-11
1.73155e-10
9.47564e-10
4.44595e-09
1.78705e-08
7.84359e-08
1.98017e-08
4.02066e-09
6.38074e-10
8.1627e-11
1.45656e-11
7.94083e-12
7.73475e-12
1.12273e-11
3.81505e-11
2.07812e-10
1.11268e-09
5.1956e-09
2.07326e-08
9.38463e-08
2.30184e-08
4.38672e-09
6.73376e-10
1.16607e-10
5.84743e-11
5.57855e-11
5.70743e-11
6.36564e-11
1.06881e-10
3.601e-10
1.65597e-09
7.32797e-09
2.83152e-08
1.1497e-07
2.66876e-08
4.96693e-09
9.12792e-10
3.4564e-10
3.12551e-10
3.29276e-10
3.4385e-10
3.70412e-10
4.71337e-10
9.3851e-10
3.11511e-09
1.21988e-08
4.46767e-08
1.39444e-07
3.18782e-08
7.05414e-09
2.19891e-09
1.48319e-09
1.51865e-09
1.61488e-09
1.71097e-09
1.8582e-09
2.1976e-09
3.25184e-09
7.42723e-09
2.3757e-08
7.89086e-08
1.71863e-07
4.81471e-08
1.66608e-08
8.18899e-09
6.36109e-09
6.39454e-09
6.72525e-09
7.18393e-09
7.90549e-09
9.22296e-09
1.20137e-08
2.05609e-08
5.10677e-08
1.46355e-07
2.61278e-07
1.11925e-07
5.52789e-08
3.25352e-08
2.48226e-08
2.34655e-08
2.41585e-08
2.58324e-08
2.86721e-08
3.35016e-08
4.15907e-08
5.9345e-08
1.13913e-07
2.71047e-07
5.26956e-07
2.96439e-07
1.77434e-07
1.1498e-07
8.5697e-08
7.5657e-08
7.53748e-08
8.01651e-08
8.92088e-08
1.04463e-07
1.28108e-07
1.66181e-07
2.55555e-07
4.91043e-07
1.07719e-06
7.08221e-07
4.83739e-07
3.43048e-07
2.59967e-07
2.18539e-07
2.07154e-07
2.15958e-07
2.39004e-07
2.78418e-07
3.409e-07
4.27599e-07
5.69098e-07
8.78957e-07
6.16322e-07
1.14438e-06
2.31588e-06
4.31042e-06
7.04748e-06
1.03364e-05
2.94495e-07
6.05538e-07
1.38329e-06
2.8733e-06
5.13131e-06
8.00262e-06
1.08032e-07
3.28248e-07
9.51484e-07
2.21176e-06
4.16502e-06
6.72501e-06
5.15977e-08
2.17007e-07
7.01566e-07
1.71438e-06
3.36693e-06
5.68909e-06
3.49956e-08
1.61995e-07
5.45815e-07
1.39021e-06
2.86154e-06
5.10017e-06
3.04632e-08
1.42013e-07
4.82744e-07
1.2539e-06
2.66513e-06
5.14723e-06
3.25254e-08
1.45093e-07
4.76404e-07
1.23453e-06
2.76655e-06
6.0047e-06
3.80043e-08
1.60441e-07
5.11663e-07
1.35834e-06
3.27245e-06
7.57999e-06
4.52832e-08
1.83943e-07
5.88838e-07
1.6205e-06
4.02552e-06
9.2353e-06
5.56648e-08
2.21628e-07
7.18627e-07
1.99891e-06
4.87489e-06
1.05831e-05
7.1835e-08
2.79145e-07
8.88349e-07
2.37612e-06
5.44461e-06
1.09068e-05
9.71188e-08
3.57029e-07
1.06907e-06
2.64592e-06
5.57337e-06
1.02581e-05
1.36885e-07
4.53259e-07
1.22384e-06
2.75406e-06
5.34384e-06
9.09214e-06
1.97065e-07
5.67453e-07
1.35508e-06
2.76594e-06
4.95966e-06
7.90134e-06
2.67821e-07
6.80914e-07
1.46532e-06
2.76012e-06
4.63321e-06
7.01055e-06
3.02191e-07
6.74516e-07
1.37434e-06
2.51733e-06
4.12864e-06
6.09783e-06
2.08303e-07
4.93862e-07
1.05303e-06
2.00103e-06
3.40022e-06
5.20037e-06
1.31005e-07
3.35794e-07
7.66921e-07
1.54937e-06
2.7844e-06
4.49146e-06
8.57395e-08
2.396e-07
5.90357e-07
1.27491e-06
2.42765e-06
4.17134e-06
6.50563e-08
1.98147e-07
5.21039e-07
1.18615e-06
2.3999e-06
4.57302e-06
6.18998e-08
1.96177e-07
5.31985e-07
1.27126e-06
2.81674e-06
6.01043e-06
7.09899e-08
2.27244e-07
6.36215e-07
1.62046e-06
3.84672e-06
8.42974e-06
9.47669e-08
3.0645e-07
8.817e-07
2.28469e-06
5.31999e-06
1.10028e-05
1.45043e-07
4.57853e-07
1.27502e-06
3.13212e-06
6.78001e-06
1.29271e-05
2.38308e-07
6.91084e-07
1.75611e-06
3.91396e-06
7.71894e-06
1.35033e-05
3.9533e-07
1.00796e-06
2.26571e-06
4.5212e-06
8.07581e-06
1.29637e-05
6.39453e-07
1.40819e-06
2.78755e-06
4.99089e-06
8.11958e-06
1.20515e-05
1.00359e-06
1.91117e-06
3.35091e-06
5.42556e-06
8.13864e-06
1.13408e-05
1.59965e-06
2.6316e-06
4.09703e-06
6.02265e-06
8.36311e-06
1.09805e-05
1.46233e-06
2.56707e-06
4.09825e-06
5.98587e-06
8.13059e-06
1.04173e-05
1.20242e-06
2.19633e-06
3.58893e-06
5.35163e-06
7.42272e-06
9.814e-06
9.69406e-07
1.8305e-06
3.08332e-06
4.73979e-06
6.84285e-06
9.86691e-06
7.78483e-07
1.53094e-06
2.67718e-06
4.31664e-06
6.87511e-06
1.17607e-05
6.4229e-07
1.32197e-06
2.44008e-06
4.35953e-06
8.11674e-06
1.57388e-05
5.6067e-07
1.21425e-06
2.46393e-06
5.06062e-06
1.0496e-05
2.06736e-05
5.17357e-07
1.2112e-06
2.76635e-06
6.19472e-06
1.31279e-05
2.49592e-05
5.18842e-07
1.31966e-06
3.22188e-06
7.30118e-06
1.50362e-05
2.72573e-05
5.74254e-07
1.50736e-06
3.65743e-06
8.01471e-06
1.57038e-05
2.71368e-05
6.85296e-07
1.73245e-06
3.9855e-06
8.21933e-06
1.51786e-05
2.49751e-05
8.51599e-07
1.97184e-06
4.18826e-06
8.04734e-06
1.39928e-05
2.19752e-05
1.0865e-06
2.24348e-06
4.33281e-06
7.81587e-06
1.27629e-05
1.88719e-05
1.40376e-06
2.56392e-06
4.6164e-06
7.6272e-06
1.15755e-05
1.63807e-05
1.9026e-06
3.18489e-06
5.10128e-06
7.66633e-06
1.09511e-05
1.48248e-05
6.93047e-07
1.95687e-06
4.66969e-06
9.41975e-06
1.62998e-05
2.56523e-05
7.90865e-07
1.97419e-06
4.29428e-06
8.12075e-06
1.3433e-05
2.02499e-05
8.93999e-07
1.95394e-06
3.83178e-06
6.7815e-06
1.08263e-05
1.5879e-05
8.8187e-07
1.74206e-06
3.2492e-06
5.56334e-06
8.72851e-06
1.26385e-05
1.306e-06
2.33339e-06
4.25999e-06
6.89253e-06
9.9871e-06
1.3436e-05
8.23453e-07
1.92812e-06
3.80785e-06
6.20376e-06
9.0106e-06
1.22415e-05
6.79431e-07
1.68854e-06
3.27796e-06
5.34677e-06
7.94528e-06
1.16123e-05
5.66915e-07
1.39622e-06
2.73469e-06
4.63078e-06
7.44318e-06
1.29387e-05
4.66891e-07
1.16492e-06
2.35911e-06
4.2838e-06
7.95511e-06
1.61218e-05
3.74204e-07
9.72461e-07
2.11064e-06
4.41093e-06
9.4668e-06
2.01794e-05
3.03723e-07
8.44033e-07
2.06193e-06
4.92593e-06
1.12928e-05
2.36484e-05
2.60606e-07
7.80019e-07
2.1411e-06
5.423e-06
1.24989e-05
2.53216e-05
2.47683e-07
7.84886e-07
2.25079e-06
5.69528e-06
1.27306e-05
2.48696e-05
2.59567e-07
8.28326e-07
2.34531e-06
5.71259e-06
1.2114e-05
2.24743e-05
2.93078e-07
8.90097e-07
2.37841e-06
5.46454e-06
1.08823e-05
1.89268e-05
3.48111e-07
9.57867e-07
2.34237e-06
5.00073e-06
9.31966e-06
1.52801e-05
4.36744e-07
1.04465e-06
2.26865e-06
4.43176e-06
7.75116e-06
1.21611e-05
4.91609e-07
1.04745e-06
2.09375e-06
3.84431e-06
6.43439e-06
9.81781e-06
1.16753e-05
1.60401e-05
2.39695e-05
4.17754e-05
4.72761e-05
9.89844e-06
1.4618e-05
2.76306e-05
4.80127e-05
4.96906e-05
8.67984e-06
1.52429e-05
3.57809e-05
5.38003e-05
5.10587e-05
8.50068e-06
1.93413e-05
4.61513e-05
5.68465e-05
5.15286e-05
1.00005e-05
2.62373e-05
5.30483e-05
5.58437e-05
4.98349e-05
1.30056e-05
3.33614e-05
5.49355e-05
5.23865e-05
4.70176e-05
1.64198e-05
3.79186e-05
5.32476e-05
4.8836e-05
4.47037e-05
1.88793e-05
3.92269e-05
5.09593e-05
4.71254e-05
4.38398e-05
4.78199e-05
1.99116e-05
3.79811e-05
4.83052e-05
4.63163e-05
4.31093e-05
4.76689e-05
1.89449e-05
3.41605e-05
4.44967e-05
4.52215e-05
4.23657e-05
4.71447e-05
1.65793e-05
2.89502e-05
3.93649e-05
4.32645e-05
4.12659e-05
4.61173e-05
5.62515e-05
1.36929e-05
2.34148e-05
3.33955e-05
4.01226e-05
3.99717e-05
4.43518e-05
6.30865e-05
6.36572e-05
1.1078e-05
1.87198e-05
2.77653e-05
3.64495e-05
3.92498e-05
4.10643e-05
6.38012e-05
0.00013932
9.21788e-06
1.55293e-05
2.36088e-05
3.35441e-05
3.98749e-05
4.12178e-05
4.4503e-05
0.000149555
8.02026e-06
1.35839e-05
2.13645e-05
3.35286e-05
4.21387e-05
4.42886e-05
4.59922e-05
0.000137169
7.12611e-06
1.21825e-05
2.09319e-05
3.65286e-05
4.47247e-05
4.71243e-05
4.94076e-05
0.000132312
6.53539e-06
1.20641e-05
2.37643e-05
4.16746e-05
4.76403e-05
4.98664e-05
5.11285e-05
7.69668e-05
6.75925e-06
1.47615e-05
3.1225e-05
4.72052e-05
5.02232e-05
5.24764e-05
5.16258e-05
0.000107318
8.61098e-06
2.08478e-05
4.03669e-05
4.90317e-05
5.00422e-05
5.32871e-05
5.14697e-05
0.000116618
1.22095e-05
2.83257e-05
4.53346e-05
4.72246e-05
4.75622e-05
5.29853e-05
5.15921e-05
9.53076e-05
1.65678e-05
3.41015e-05
4.58947e-05
4.43768e-05
4.56817e-05
5.34583e-05
5.26266e-05
4.02494e-05
1.99332e-05
3.63674e-05
4.45773e-05
4.28545e-05
4.51881e-05
5.47199e-05
5.47495e-05
4.1015e-05
2.14552e-05
3.57826e-05
4.27418e-05
4.25279e-05
4.55783e-05
5.53187e-05
2.07285e-05
3.27138e-05
4.01224e-05
4.27445e-05
4.63246e-05
5.57313e-05
1.86763e-05
2.85989e-05
3.68359e-05
4.30194e-05
4.66763e-05
5.63593e-05
1.62414e-05
2.43577e-05
3.30511e-05
4.3329e-05
4.77342e-05
5.57752e-05
1.43613e-05
2.11727e-05
3.01557e-05
4.43298e-05
5.01841e-05
5.46121e-05
1.32531e-05
1.94973e-05
3.11617e-05
4.84635e-05
5.40225e-05
1.26662e-05
1.9717e-05
3.75427e-05
5.53728e-05
5.78984e-05
1.27706e-05
2.36962e-05
4.82847e-05
6.00002e-05
5.8874e-05
1.51343e-05
3.33257e-05
5.9031e-05
6.0182e-05
5.8106e-05
2.1119e-05
4.59516e-05
6.32605e-05
5.66425e-05
5.66985e-05
2.90641e-05
5.55117e-05
6.09503e-05
5.12236e-05
5.41888e-05
3.61586e-05
5.92765e-05
5.61336e-05
4.66459e-05
5.20763e-05
4.03714e-05
5.79691e-05
5.15266e-05
4.40856e-05
5.07865e-05
4.10548e-05
5.40841e-05
4.86619e-05
4.40451e-05
5.04011e-05
3.85011e-05
4.8727e-05
4.67255e-05
4.5767e-05
5.08724e-05
3.36757e-05
4.19942e-05
4.3922e-05
4.77975e-05
5.17567e-05
2.83732e-05
3.50396e-05
3.96718e-05
4.90965e-05
5.20952e-05
2.36976e-05
2.89309e-05
3.527e-05
5.03648e-05
5.30745e-05
2.0374e-05
2.46326e-05
3.38378e-05
5.22148e-05
5.47041e-05
1.81288e-05
2.27529e-05
3.8988e-05
5.72761e-05
5.71245e-05
1.65405e-05
2.4539e-05
5.16472e-05
6.34676e-05
5.87058e-05
1.60215e-05
3.16187e-05
6.61402e-05
6.47451e-05
5.69879e-05
1.85177e-05
4.46561e-05
7.23964e-05
6.11839e-05
5.46409e-05
2.48965e-05
5.85527e-05
7.08505e-05
5.64006e-05
5.27001e-05
3.25588e-05
6.70503e-05
6.56429e-05
5.17067e-05
5.0309e-05
3.90094e-05
6.9109e-05
6.02302e-05
4.77841e-05
4.79282e-05
4.24876e-05
6.61648e-05
5.58166e-05
4.49536e-05
4.59748e-05
4.28228e-05
6.13393e-05
5.33592e-05
4.41135e-05
4.47868e-05
3.99416e-05
5.44587e-05
5.13267e-05
4.43355e-05
4.36715e-05
3.45612e-05
4.55969e-05
4.76036e-05
4.43093e-05
4.29413e-05
2.81525e-05
3.67383e-05
4.1765e-05
4.33998e-05
4.20371e-05
2.20778e-05
2.90263e-05
3.48393e-05
4.14245e-05
4.15133e-05
1.73312e-05
2.30255e-05
2.86193e-05
3.8676e-05
4.17822e-05
1.40284e-05
1.8788e-05
2.4605e-05
3.79581e-05
4.37674e-05
1.17421e-07
2.66687e-08
5.01317e-09
1.54911e-09
1.10393e-09
1.22491e-09
1.54762e-09
1.90627e-09
2.21447e-09
2.52459e-09
3.33749e-09
6.12436e-09
1.54574e-08
4.75187e-08
6.45905e-08
1.22533e-08
1.65598e-09
2.21317e-10
8.45125e-11
9.77106e-11
1.41828e-10
1.93075e-10
2.3797e-10
2.875e-10
5.04374e-10
1.69911e-09
7.39466e-09
3.03057e-08
4.44018e-08
8.98388e-09
1.46596e-09
2.11105e-10
2.87404e-11
6.87985e-12
7.46083e-12
1.12322e-11
1.65958e-11
3.76141e-11
1.75066e-10
9.52567e-10
4.6092e-09
1.88654e-08
3.91267e-08
9.22004e-09
1.82457e-09
3.06513e-10
4.17486e-11
4.62878e-12
5.4537e-13
4.25902e-13
1.91654e-12
1.3802e-11
9.49945e-11
5.57419e-10
2.74747e-09
1.13863e-08
3.83874e-08
9.58967e-09
2.02468e-09
3.56659e-10
4.86403e-11
5.10388e-12
4.5132e-13
1.3435e-13
9.14439e-13
7.72209e-12
5.5627e-11
3.36474e-10
1.71404e-09
7.39472e-09
4.0231e-08
1.01755e-08
2.15352e-09
3.66226e-10
4.67809e-11
4.80773e-12
6.74639e-13
3.83348e-13
8.9543e-13
5.65278e-12
4.00235e-11
2.4676e-10
1.29246e-09
5.76256e-09
4.65986e-08
1.17068e-08
2.36051e-09
3.74156e-10
4.61136e-11
6.95981e-12
3.5437e-12
3.29374e-12
3.66708e-12
7.92182e-12
3.99113e-11
2.35417e-10
1.23937e-09
5.57041e-09
5.77203e-08
1.38921e-08
2.59786e-09
3.89842e-10
5.92576e-11
2.61905e-11
2.52547e-11
2.56354e-11
2.62208e-11
3.15606e-11
7.1229e-11
3.07223e-10
1.4977e-09
6.49323e-09
7.21263e-08
1.62904e-08
2.91314e-09
4.86714e-10
1.56659e-10
1.41352e-10
1.53032e-10
1.60377e-10
1.66817e-10
1.81712e-10
2.51543e-10
6.05456e-10
2.30228e-09
9.11899e-09
8.91236e-08
1.94351e-08
3.78859e-09
9.88338e-10
6.52479e-10
7.01369e-10
7.7041e-10
8.25113e-10
8.82735e-10
9.67159e-10
1.1618e-09
1.85098e-09
4.93091e-09
1.67467e-08
1.11693e-07
2.74221e-08
7.64151e-09
3.32378e-09
2.77506e-09
3.00589e-09
3.28472e-09
3.57042e-09
3.91974e-09
4.4003e-09
5.16093e-09
6.87732e-09
1.35891e-08
3.79473e-08
1.6878e-07
5.99667e-08
2.43816e-08
1.29844e-08
1.06389e-08
1.11114e-08
1.20351e-08
1.32003e-08
1.47829e-08
1.70027e-08
2.01509e-08
2.51491e-08
4.02967e-08
9.12139e-08
3.36268e-07
1.63785e-07
8.21382e-08
4.70384e-08
3.59757e-08
3.548e-08
3.81332e-08
4.21405e-08
4.78456e-08
5.60309e-08
6.77344e-08
8.33237e-08
1.16663e-07
2.14673e-07
7.16606e-07
4.15227e-07
2.41417e-07
1.48472e-07
1.08286e-07
9.91815e-08
1.04749e-07
1.16609e-07
1.33612e-07
1.57824e-07
1.9392e-07
2.40251e-07
3.10892e-07
4.71058e-07
2.32624e-08
4.68071e-09
1.01157e-09
4.08905e-10
2.56439e-10
2.38527e-10
2.78606e-10
3.18231e-10
3.54131e-10
3.56113e-10
3.44766e-10
5.32999e-10
1.76141e-09
7.79482e-09
1.18853e-08
2.14894e-09
3.21296e-10
5.15821e-11
1.68544e-11
1.55852e-11
2.14401e-11
2.73865e-11
3.25803e-11
3.44489e-11
4.67746e-11
1.8553e-10
1.08583e-09
5.68788e-09
1.03039e-08
2.24465e-09
4.04938e-10
6.28843e-11
8.4556e-12
1.31774e-12
9.45806e-13
1.32801e-12
1.82763e-12
3.43798e-12
1.81035e-11
1.2863e-10
7.91242e-10
4.01326e-09
1.20782e-08
2.90584e-09
5.64631e-10
9.49077e-11
1.31082e-11
1.37828e-12
1.20166e-13
3.59867e-14
1.3695e-13
1.2726e-12
1.15832e-11
8.72001e-11
5.35904e-10
2.70761e-09
1.38867e-08
3.41172e-09
6.79591e-10
1.16247e-10
1.58304e-11
1.60061e-12
1.22181e-13
1.45663e-14
7.15951e-14
8.00545e-13
7.51238e-12
5.73431e-11
3.58007e-10
1.84807e-09
1.57716e-08
3.88362e-09
7.58271e-10
1.22861e-10
1.55844e-11
1.5033e-12
1.5105e-13
5.5426e-14
8.91417e-14
5.9576e-13
5.37485e-12
4.14193e-11
2.63313e-10
1.39099e-09
1.90049e-08
4.63961e-09
8.66744e-10
1.29589e-10
1.54023e-11
1.79871e-12
6.46086e-13
5.52234e-13
5.40483e-13
8.82334e-13
4.6107e-12
3.33014e-11
2.12499e-10
1.13661e-09
2.38241e-08
5.63811e-09
9.86986e-10
1.3557e-10
1.72793e-11
5.29322e-12
4.86098e-12
4.79239e-12
4.61517e-12
4.6394e-12
7.80732e-12
3.40053e-11
1.99775e-10
1.05215e-09
2.97891e-08
6.78178e-09
1.1235e-09
1.53739e-10
3.52525e-11
2.90155e-11
3.24924e-11
3.33274e-11
3.31209e-11
3.25733e-11
3.57308e-11
6.39535e-11
2.46213e-10
1.16737e-09
3.7118e-08
8.14704e-09
1.32703e-09
2.38528e-10
1.37504e-10
1.56785e-10
1.80572e-10
1.90317e-10
1.95782e-10
1.99373e-10
2.07825e-10
2.45168e-10
4.92837e-10
1.72898e-09
4.52474e-08
9.92367e-09
1.84144e-09
6.33254e-10
6.12132e-10
7.35263e-10
8.46509e-10
9.11984e-10
9.68306e-10
1.02494e-09
1.08923e-09
1.17682e-09
1.66501e-09
4.11819e-09
5.99208e-08
1.5466e-08
4.25617e-09
2.31659e-09
2.4765e-09
2.96514e-09
3.39752e-09
3.7252e-09
4.06131e-09
4.44687e-09
4.87447e-09
5.27081e-09
6.50312e-09
1.23726e-08
1.00207e-07
3.55192e-08
1.40785e-08
8.52399e-09
8.67436e-09
1.0256e-08
1.17605e-08
1.31052e-08
1.45952e-08
1.64112e-08
1.85644e-08
2.06353e-08
2.42395e-08
3.7713e-08
2.14816e-07
9.76045e-08
4.69455e-08
2.86808e-08
2.64216e-08
3.03739e-08
3.51375e-08
3.9881e-08
4.52144e-08
5.18247e-08
6.02491e-08
6.94044e-08
8.1332e-08
1.09184e-07
3.71276e-09
7.71706e-10
2.09735e-10
1.00497e-10
6.3717e-11
4.84299e-11
5.0401e-11
5.26118e-11
5.43445e-11
5.06306e-11
4.10021e-11
4.18459e-11
1.33258e-10
7.5959e-10
1.98877e-09
3.84626e-10
6.25285e-11
1.09637e-11
3.68294e-12
2.7444e-12
3.44197e-12
4.15904e-12
4.69324e-12
4.575e-12
4.32412e-12
1.36608e-11
9.66027e-11
6.30868e-10
2.26623e-09
5.35304e-10
1.00961e-10
1.55266e-11
2.13568e-12
2.9209e-13
1.34925e-13
1.79284e-13
2.36905e-13
3.1374e-13
1.17454e-12
1.00935e-11
7.85382e-11
4.9784e-10
3.06712e-09
7.57315e-10
1.52422e-10
2.4932e-11
3.47363e-12
3.82777e-13
3.28553e-14
5.24807e-15
8.66357e-15
6.74694e-14
7.88269e-13
7.76075e-12
6.09524e-11
3.84536e-10
3.75544e-09
9.36211e-10
1.94072e-10
3.21853e-11
4.34258e-12
4.57197e-13
3.59471e-14
2.53214e-15
3.30114e-15
4.56101e-14
5.75244e-13
5.74081e-12
4.55067e-11
2.89937e-10
4.44504e-09
1.09833e-09
2.23628e-10
3.55844e-11
4.43771e-12
4.38084e-13
3.73479e-14
7.14495e-15
6.69794e-15
3.70498e-14
4.33563e-13
4.35152e-12
3.49187e-11
2.25888e-10
5.52273e-09
1.34549e-09
2.64353e-10
3.95644e-11
4.50731e-12
4.57484e-13
9.6151e-14
6.84595e-14
6.11809e-14
7.52204e-14
3.78382e-13
3.4701e-12
2.78653e-11
1.82351e-10
6.99247e-09
1.64912e-09
3.06937e-10
4.27424e-11
4.74471e-12
9.04998e-13
6.66269e-13
6.3977e-13
5.90508e-13
5.31663e-13
7.05162e-13
3.11589e-12
2.27423e-11
1.48419e-10
8.71498e-09
1.98557e-09
3.51495e-10
4.71587e-11
7.22479e-12
4.38106e-12
4.80694e-12
4.87928e-12
4.67294e-12
4.26832e-12
4.07373e-12
5.91594e-12
2.37035e-11
1.39851e-10
1.0802e-08
2.37068e-09
4.04703e-10
6.03597e-11
2.28898e-11
2.51579e-11
2.94708e-11
3.07984e-11
3.05566e-11
2.90732e-11
2.7565e-11
2.78242e-11
4.47524e-11
1.6318e-10
1.28443e-08
2.73185e-09
4.81878e-10
1.16989e-10
1.03199e-10
1.29363e-10
1.53116e-10
1.6386e-10
1.67913e-10
1.66343e-10
1.62769e-10
1.58267e-10
1.7983e-10
3.69496e-10
1.58556e-08
3.57865e-09
7.98247e-10
3.76147e-10
4.521e-10
5.76029e-10
6.82003e-10
7.44756e-10
7.84906e-10
8.06319e-10
8.16588e-10
8.09538e-10
8.52924e-10
1.32128e-09
2.27956e-08
6.68132e-09
2.12167e-09
1.38214e-09
1.73484e-09
2.21484e-09
2.62565e-09
2.92081e-09
3.15246e-09
3.3409e-09
3.498e-09
3.58583e-09
3.75019e-09
4.9836e-09
4.67307e-08
1.78854e-08
7.0594e-09
4.77559e-09
5.70839e-09
7.31998e-09
8.75329e-09
9.92585e-09
1.09344e-08
1.18939e-08
1.28531e-08
1.37042e-08
1.46365e-08
1.76338e-08
5.59139e-10
1.2259e-10
3.49526e-11
1.60665e-11
9.6944e-12
7.74904e-12
7.99974e-12
8.39737e-12
8.4819e-12
7.54116e-12
5.55428e-12
4.09868e-12
9.62356e-12
6.32887e-11
3.38078e-10
7.05261e-11
1.29304e-11
2.30468e-12
5.88536e-13
3.94993e-13
4.84772e-13
6.07676e-13
7.03233e-13
6.87271e-13
5.38154e-13
9.69002e-13
7.24976e-12
5.64272e-11
4.68436e-10
1.12533e-10
2.26655e-11
3.86489e-12
5.4293e-13
6.94131e-14
1.95613e-14
2.36115e-14
3.30281e-14
3.97684e-14
7.77434e-14
6.71607e-13
6.39173e-12
4.90882e-11
6.67941e-10
1.6418e-10
3.45385e-11
6.16044e-12
8.80743e-13
1.00086e-13
9.19645e-15
1.40114e-15
1.46645e-15
4.03029e-15
4.3621e-14
5.3983e-13
5.29822e-12
4.09232e-11
8.40091e-10
2.07919e-10
4.42435e-11
7.87215e-12
1.09967e-12
1.19022e-13
1.00337e-14
7.15846e-16
2.33376e-16
2.05542e-15
3.28832e-14
4.22519e-13
4.21198e-12
3.30196e-11
1.01175e-09
2.46176e-10
5.07158e-11
8.56343e-12
1.11617e-12
1.1268e-13
9.54425e-15
1.21803e-15
6.81432e-16
1.92226e-15
2.56052e-14
3.31371e-13
3.35932e-12
2.68126e-11
1.26004e-09
2.98678e-10
5.8642e-11
9.23885e-12
1.10685e-12
1.08311e-13
1.62073e-14
9.06124e-15
7.59766e-15
7.21433e-15
2.47573e-14
2.68676e-13
2.71456e-12
2.18972e-11
1.57608e-09
3.59581e-10
6.66268e-11
9.75551e-12
1.10878e-12
1.62304e-13
9.30683e-14
8.67527e-14
7.79513e-14
6.66514e-14
6.91438e-14
2.51414e-13
2.17552e-12
1.74453e-11
1.92195e-09
4.22395e-10
7.42501e-11
1.03505e-11
1.41823e-12
6.59595e-13
6.95528e-13
7.02143e-13
6.55577e-13
5.79066e-13
5.08603e-13
6.0116e-13
2.17273e-12
1.52871e-11
2.33897e-09
4.95202e-10
8.36848e-11
1.23434e-11
3.75031e-12
3.89202e-12
4.56196e-12
4.74396e-12
4.58331e-12
4.21011e-12
3.77643e-12
3.51825e-12
4.58328e-12
1.64892e-11
2.70508e-09
5.54628e-10
9.49697e-11
2.08651e-11
1.6682e-11
2.13805e-11
2.55116e-11
2.71556e-11
2.70765e-11
2.57983e-11
2.39754e-11
2.21626e-11
2.18668e-11
3.82487e-11
3.18553e-09
6.6907e-10
1.37438e-10
6.22508e-11
7.73859e-11
1.02404e-10
1.22617e-10
1.33245e-10
1.36671e-10
1.3461e-10
1.2942e-10
1.22405e-10
1.16554e-10
1.55826e-10
4.2186e-09
1.0824e-09
3.18643e-10
2.31945e-10
3.20416e-10
4.25699e-10
5.10572e-10
5.6561e-10
5.95177e-10
6.04224e-10
5.99944e-10
5.85205e-10
5.63793e-10
6.71298e-10
8.10522e-09
2.69889e-09
1.01668e-09
8.28059e-10
1.14947e-09
1.53528e-09
1.85021e-09
2.08795e-09
2.24737e-09
2.34464e-09
2.40121e-09
2.42768e-09
2.41153e-09
2.68919e-09
8.95339e-11
1.97331e-11
5.38872e-12
2.33629e-12
1.46923e-12
1.27734e-12
1.42004e-12
1.57641e-12
1.64176e-12
1.4812e-12
1.06006e-12
6.60205e-13
9.28719e-13
6.16762e-12
6.43905e-11
1.43224e-11
2.79934e-12
5.03623e-13
1.08823e-13
6.18368e-14
8.02135e-14
1.09028e-13
1.34522e-13
1.38716e-13
1.06575e-13
1.07266e-13
6.51421e-13
5.68688e-12
1.01056e-10
2.47531e-11
5.21728e-12
9.50767e-13
1.46942e-13
1.92817e-14
4.26885e-15
4.61414e-15
6.79996e-15
8.3924e-15
9.79845e-15
5.5675e-14
5.92949e-13
5.22208e-12
1.48293e-10
3.70503e-11
8.08387e-12
1.5178e-12
2.36443e-13
2.88688e-14
2.81078e-15
4.53725e-16
4.40876e-16
6.57568e-16
3.21943e-15
4.33251e-14
4.99955e-13
4.4882e-12
1.93074e-10
4.83656e-11
1.05682e-11
1.96131e-12
2.97525e-13
3.48144e-14
3.10683e-15
2.5557e-16
7.30515e-17
1.65066e-16
2.23807e-15
3.43469e-14
4.0748e-13
3.74518e-12
2.381e-10
5.81133e-11
1.22098e-11
2.14984e-12
3.06656e-13
3.36358e-14
2.91508e-15
3.09785e-16
1.26863e-16
1.70916e-16
1.73652e-15
2.68904e-14
3.2773e-13
3.09747e-12
2.98369e-10
7.03247e-11
1.40111e-11
2.30498e-12
3.04379e-13
3.15394e-14
3.67461e-15
1.43814e-15
1.11264e-15
9.27753e-16
1.96018e-15
2.19234e-14
2.65996e-13
2.55735e-12
3.72791e-10
8.42259e-11
1.58349e-11
2.43297e-12
3.03776e-13
3.8547e-14
1.51628e-14
1.3004e-14
1.1288e-14
9.27126e-15
8.22114e-15
2.23085e-14
2.12616e-13
2.03413e-12
4.50512e-10
9.77705e-11
1.74484e-11
2.55163e-12
3.50835e-13
1.16432e-13
1.09315e-13
1.07314e-13
9.7097e-14
8.28742e-14
6.89182e-14
7.04573e-14
2.16329e-13
1.73367e-12
5.42691e-10
1.13453e-10
1.94588e-11
2.92565e-12
7.39237e-13
6.51735e-13
7.38979e-13
7.50754e-13
7.02539e-13
6.23126e-13
5.3532e-13
4.74041e-13
5.3228e-13
1.81449e-12
6.22536e-10
1.26473e-10
2.1777e-11
4.44019e-12
2.9781e-12
3.67811e-12
4.31015e-12
4.48265e-12
4.32901e-12
3.97882e-12
3.54538e-12
3.15855e-12
2.86475e-12
4.3576e-12
7.12024e-10
1.46058e-10
2.90144e-11
1.1889e-11
1.3995e-11
1.8427e-11
2.17674e-11
2.31022e-11
2.29454e-11
2.17698e-11
2.00529e-11
1.82768e-11
1.63046e-11
1.93378e-11
8.96318e-10
2.14127e-10
5.97678e-11
4.37905e-11
6.0552e-11
8.07586e-11
9.57921e-11
1.03641e-10
1.05658e-10
1.03235e-10
9.80766e-11
9.18421e-11
8.33718e-11
9.03511e-11
1.57774e-09
4.78991e-10
1.76811e-10
1.60515e-10
2.30952e-10
3.10341e-10
3.69799e-10
4.07091e-10
4.24243e-10
4.2525e-10
4.15644e-10
4.01046e-10
3.76151e-10
3.89839e-10
1.32499e-11
2.88084e-12
7.49928e-13
3.08325e-13
2.10661e-13
2.09018e-13
2.54129e-13
2.99512e-13
3.27306e-13
3.04922e-13
2.20482e-13
1.27553e-13
9.70268e-14
5.22975e-13
1.16934e-11
2.68208e-12
5.41297e-13
9.94434e-14
2.03805e-14
1.07058e-14
1.45194e-14
2.09753e-14
2.74091e-14
2.96828e-14
2.367e-14
1.63511e-14
5.38265e-14
4.97215e-13
1.99424e-11
4.90294e-12
1.05232e-12
1.97757e-13
3.19512e-14
4.57289e-15
1.1276e-15
1.23357e-15
1.82327e-15
2.26503e-15
2.11589e-15
4.74222e-15
4.87853e-14
4.8185e-13
3.00229e-11
7.547e-12
1.67139e-12
3.21097e-13
5.19029e-14
6.84278e-15
7.47332e-16
1.51627e-16
1.48584e-16
1.88664e-16
3.22954e-16
3.17653e-15
4.15176e-14
4.25628e-13
3.99206e-11
1.00155e-11
2.20524e-12
4.16494e-13
6.5457e-14
8.28581e-15
8.26903e-16
9.70608e-17
4.59699e-17
4.97099e-17
1.70984e-16
2.48823e-15
3.41518e-14
3.62186e-13
4.94882e-11
1.20146e-11
2.53387e-12
4.54238e-13
6.74642e-14
8.06338e-15
7.7346e-16
9.86499e-17
4.89106e-17
4.69156e-17
1.36111e-16
1.92826e-15
2.73842e-14
3.01935e-13
6.14422e-11
1.42991e-11
2.85021e-12
4.7775e-13
6.59796e-14
7.41851e-15
8.11862e-16
2.36559e-16
1.69766e-16
1.36481e-16
1.7902e-16
1.58309e-15
2.2219e-14
2.51234e-13
7.57495e-11
1.68251e-11
3.16057e-12
4.95452e-13
6.4528e-14
8.02016e-15
2.29195e-15
1.73959e-15
1.45471e-15
1.147e-15
9.11498e-16
1.80515e-15
1.7785e-14
2.00448e-13
9.02415e-11
1.92142e-11
3.42429e-12
5.09781e-13
6.96689e-14
1.85007e-14
1.51219e-14
1.43412e-14
1.25633e-14
1.02809e-14
8.05487e-15
7.32042e-15
1.87156e-14
1.67698e-13
1.06292e-10
2.17667e-11
3.72062e-12
5.58988e-13
1.24449e-13
9.50958e-14
1.04168e-13
1.03263e-13
9.35359e-14
7.95259e-14
6.47735e-14
5.41901e-14
5.35759e-14
1.71241e-13
1.19366e-10
2.37061e-11
4.028e-12
7.75173e-13
4.58712e-13
5.46758e-13
6.30586e-13
6.40478e-13
5.98269e-13
5.26951e-13
4.45827e-13
3.7816e-13
3.1763e-13
4.24691e-13
1.3154e-10
2.61348e-11
4.99761e-12
1.91256e-12
2.18472e-12
2.85266e-12
3.32981e-12
3.44981e-12
3.31096e-12
3.00861e-12
2.63119e-12
2.28292e-12
1.90835e-12
2.02972e-12
1.55388e-10
3.48983e-11
9.38332e-12
7.08086e-12
9.87687e-12
1.31381e-11
1.54129e-11
1.62615e-11
1.60059e-11
1.49717e-11
1.34977e-11
1.20109e-11
1.02498e-11
1.01765e-11
2.52348e-10
7.07985e-11
2.65519e-11
2.71111e-11
3.9886e-11
5.34961e-11
6.29818e-11
6.74748e-11
6.78035e-11
6.49998e-11
6.0209e-11
5.50135e-11
4.8535e-11
4.6833e-11
1.72795e-12
3.73802e-13
9.5007e-14
3.91356e-14
3.0618e-14
3.49146e-14
4.58309e-14
5.66373e-14
6.42238e-14
6.16572e-14
4.57569e-14
2.62839e-14
1.32747e-14
3.98164e-14
1.90286e-12
4.41062e-13
9.03401e-14
1.69635e-14
3.64791e-15
2.13448e-15
3.03014e-15
4.50152e-15
5.99929e-15
6.63989e-15
5.44222e-15
3.36463e-15
4.41765e-15
3.76833e-14
3.41757e-12
8.3535e-13
1.79877e-13
3.42236e-14
5.68578e-15
8.90469e-16
2.81877e-16
3.26145e-16
4.71234e-16
5.81889e-16
5.29834e-16
5.24587e-16
3.52222e-15
3.81893e-14
5.2702e-12
1.31923e-12
2.91988e-13
5.64165e-14
9.30123e-15
1.30229e-15
1.80985e-16
6.33918e-17
6.4194e-17
7.40117e-17
7.83759e-17
2.37924e-16
2.97753e-15
3.45898e-14
7.12049e-12
1.77184e-12
3.87945e-13
7.34558e-14
1.17564e-14
1.57578e-15
1.96536e-16
4.99054e-17
3.88255e-17
3.90164e-17
4.42055e-17
1.82942e-16
2.47663e-15
3.01025e-14
8.8189e-12
2.11321e-12
4.42167e-13
7.9531e-14
1.20644e-14
1.53294e-15
1.84604e-16
4.87784e-17
3.82548e-17
3.75157e-17
4.12644e-17
1.47341e-16
1.98747e-15
2.53816e-14
1.0767e-11
2.45802e-12
4.85106e-13
8.16992e-14
1.15679e-14
1.38451e-15
1.76254e-16
6.16084e-17
4.98579e-17
4.5542e-17
4.56553e-17
1.27988e-16
1.61899e-15
2.13385e-14
1.29775e-11
2.81571e-12
5.23292e-13
8.25344e-14
1.10148e-14
1.37911e-15
3.30899e-16
2.23338e-16
1.84141e-16
1.45992e-16
1.14609e-16
1.58148e-16
1.30296e-15
1.70879e-14
1.51361e-11
3.14188e-12
5.53826e-13
8.28448e-14
1.12702e-14
2.54601e-15
1.79828e-15
1.63402e-15
1.38947e-15
1.09496e-15
8.18528e-16
6.82519e-16
1.42881e-15
1.40833e-14
1.73761e-11
3.46881e-12
5.86317e-13
8.74684e-14
1.76962e-14
1.1799e-14
1.23996e-14
1.19495e-14
1.04835e-14
8.54546e-15
6.61781e-15
5.25689e-15
4.68361e-15
1.4011e-14
1.90532e-11
3.68534e-12
6.15505e-13
1.12908e-13
5.99062e-14
6.87685e-14
7.77085e-14
7.68799e-14
6.94913e-14
5.86687e-14
4.72394e-14
3.81968e-14
3.01123e-14
3.59101e-14
2.02971e-11
3.90339e-12
7.2052e-13
2.59655e-13
2.88711e-13
3.72928e-13
4.28432e-13
4.32552e-13
4.01458e-13
3.49717e-13
2.91253e-13
2.40843e-13
1.90296e-13
1.83804e-13
2.25357e-11
4.79715e-12
1.25165e-12
9.69748e-13
1.36172e-12
1.80091e-12
2.08212e-12
2.14006e-12
2.03538e-12
1.82532e-12
1.56746e-12
1.32794e-12
1.07184e-12
9.81802e-13
3.33979e-11
8.83347e-12
3.45259e-12
3.89598e-12
5.80161e-12
7.74199e-12
8.98112e-12
9.36471e-12
9.08652e-12
8.3515e-12
7.36384e-12
6.38868e-12
5.32138e-12
4.78882e-12
2.05735e-13
4.46791e-14
1.136e-14
4.98278e-15
4.5771e-15
5.86475e-15
8.11566e-15
1.04115e-14
1.21244e-14
1.19446e-14
9.06742e-15
5.26832e-15
2.35735e-15
3.09793e-15
2.79243e-13
6.44451e-14
1.32387e-14
2.53957e-15
6.11464e-16
4.29383e-16
6.26238e-16
9.27661e-16
1.23291e-15
1.37402e-15
1.15008e-15
7.16328e-16
4.79043e-16
2.66942e-15
5.20977e-13
1.25915e-13
2.69484e-14
5.13939e-15
8.85196e-16
1.71187e-16
8.39659e-17
9.81125e-17
1.29474e-16
1.53342e-16
1.42402e-16
1.10814e-16
2.72136e-16
2.79094e-15
8.23858e-13
2.03902e-13
4.46497e-14
8.58418e-15
1.44145e-15
2.31566e-16
6.00821e-17
4.18622e-17
4.25512e-17
4.47697e-17
4.48046e-17
4.98352e-17
2.24384e-16
2.59319e-15
1.12656e-12
2.76105e-13
5.95838e-14
1.11978e-14
1.81831e-15
2.74292e-16
6.22689e-17
3.88953e-17
3.7011e-17
3.7055e-17
3.72902e-17
4.37452e-17
1.92842e-16
2.31084e-15
1.38601e-12
3.26042e-13
6.71977e-14
1.20188e-14
1.8551e-15
2.66846e-16
6.0136e-17
3.85708e-17
3.67798e-17
3.66569e-17
3.68053e-17
4.19387e-17
1.60904e-16
1.973e-15
1.65515e-12
3.69574e-13
7.18459e-14
1.20636e-14
1.74675e-15
2.39975e-16
5.73352e-17
3.94754e-17
3.77472e-17
3.72963e-17
3.71434e-17
4.11767e-17
1.37402e-16
1.67956e-15
1.94116e-12
4.1075e-13
7.52239e-14
1.18526e-14
1.62059e-15
2.26899e-16
7.0337e-17
5.39269e-17
4.92279e-17
4.52684e-17
4.21314e-17
4.35916e-17
1.17079e-16
1.35344e-15
2.20486e-12
4.45547e-13
7.74135e-14
1.15648e-14
1.58174e-15
3.35526e-16
2.15084e-16
1.90071e-16
1.61559e-16
1.29302e-16
1.00357e-16
8.44304e-17
1.28398e-16
1.10582e-15
2.45634e-12
4.77309e-13
7.95318e-14
1.17494e-14
2.21318e-15
1.30477e-15
1.31114e-15