/*--------------------------------*- C++ -*----------------------------------*\
| =========                 |                                                 |
| \\      /  F ield         | OpenFOAM: The Open Source CFD Toolbox           |
|  \\    /   O peration     | Version:  v2106                                 |
|   \\  /    A nd           | Website:  www.openfoam.com                      |
|    \\/     M anipulation  |                                                 |
\*---------------------------------------------------------------------------*/
FoamFile
{
    version     2.0;
    format      ascii;
    arch        "LSB;label=32;scalar=64";
    class       volScalarField;
    location    "0.000164";
    object      T;
}
// * * * * * * * * * * * * * * * * * * * * * * * * * * * * * * * * * * * * * //

dimensions      [0 0 0 1 0 0 0];

internalField   nonuniform List<scalar> 
18109
(
297.716
297.637
297.556
297.456
297.404
297.375
297.384
297.536
297.522
297.442
297.381
297.343
297.335
297.357
297.328
297.346
297.298
297.287
297.284
297.31
297.352
297.139
297.164
297.163
297.199
297.24
297.301
297.359
296.992
297.03
297.077
297.152
297.226
297.308
297.38
296.879
296.957
297.044
297.145
297.237
297.327
297.409
296.828
296.939
297.051
297.162
297.262
297.357
297.443
296.816
296.95
297.077
297.194
297.294
297.385
297.47
298.549
298.492
298.441
298.384
298.346
298.332
298.341
298.389
298.47
298.595
298.762
298.963
299.222
299.54
298.351
298.351
298.305
298.292
298.282
298.297
298.322
298.379
298.459
298.584
298.755
298.984
299.248
299.497
298.137
298.167
298.156
298.191
298.226
298.273
298.319
298.385
298.467
298.583
298.739
298.941
299.172
299.403
297.96
298.006
298.048
298.119
298.188
298.262
298.326
298.403
298.49
298.603
298.748
298.926
299.128
299.336
297.824
297.898
297.983
298.086
298.179
298.269
298.347
298.432
298.524
298.633
298.762
298.91
299.079
299.261
297.744
297.852
297.967
298.087
298.193
298.291
298.379
298.468
298.561
298.664
298.781
298.912
299.062
299.234
297.711
297.846
297.98
298.106
298.22
298.323
298.416
298.507
298.599
298.694
298.798
298.912
299.05
299.218
297.707
297.86
298.008
298.138
298.251
298.353
298.447
298.54
298.63
298.721
298.817
298.925
299.064
299.241
297.721
297.903
298.06
298.18
298.281
298.376
298.468
298.562
298.655
298.748
298.843
298.952
299.097
299.276
297.783
297.968
298.119
298.218
298.3
298.382
298.469
298.566
298.664
298.762
298.866
298.985
299.143
299.32
297.864
298.064
298.185
298.256
298.313
298.376
298.454
298.55
298.654
298.762
298.879
299.013
299.183
299.344
297.952
298.146
298.242
298.292
298.329
298.374
298.44
298.529
298.635
298.754
298.886
299.027
299.209
299.345
297.972
298.188
298.289
298.322
298.359
298.395
298.445
298.516
298.609
298.726
298.866
299.017
299.206
299.349
297.956
298.116
298.233
298.322
298.379
298.424
298.464
298.516
298.588
298.687
298.812
298.971
299.138
299.317
297.8
297.708
297.473
297.203
297.105
297.244
298.649
298.59
298.375
298.047
297.841
297.814
298.564
298.578
298.51
298.486
298.552
298.789
298.555
298.603
298.634
298.785
299.004
299.236
298.48
298.559
298.654
298.87
299.094
299.253
298.435
298.53
298.673
298.885
299.015
299.057
298.402
298.504
298.66
298.815
298.777
298.488
298.401
298.504
298.654
298.748
298.438
297.521
298.439
298.524
298.606
298.581
298.018
296.527
298.532
298.617
298.674
298.499
297.647
295.764
298.675
298.778
298.833
298.531
297.427
295.379
298.872
298.984
298.973
298.581
297.354
295.389
299.106
299.21
299.163
298.691
297.498
295.964
299.359
299.437
299.362
298.876
297.955
297.023
299.633
299.69
299.575
299.216
298.714
298.382
299.791
299.875
299.891
299.786
299.699
299.681
299.717
299.893
300.048
300.204
300.441
300.764
299.661
299.9
300.174
300.523
300.972
301.402
299.578
299.859
300.217
300.669
301.165
301.505
299.515
299.831
300.235
300.707
301.142
301.333
299.486
299.823
300.24
300.632
300.85
300.714
299.478
299.826
300.185
300.405
300.369
299.645
299.508
299.811
300.03
300.036
299.559
298.108
299.526
299.742
299.834
299.606
298.678
296.768
299.526
299.647
299.621
299.179
297.986
295.867
299.52
299.58
299.444
298.824
297.399
295.626
299.5
299.465
299.222
298.439
297.194
295.914
299.455
299.349
299.027
298.344
297.456
296.846
299.35
299.215
298.906
298.431
298.06
297.921
299.332
299.217
299.029
298.846
298.824
298.928
299.089
299.037
298.952
298.957
299.099
299.262
298.941
298.936
298.934
299.032
299.206
299.3
298.776
298.784
298.849
298.918
298.965
298.643
298.67
298.694
298.765
298.667
298.295
297.128
298.584
298.616
298.646
298.259
297.149
294.916
298.533
298.548
298.402
297.556
295.691
292.86
298.495
298.46
298.045
296.771
294.389
291.478
298.454
298.325
297.643
296.131
293.565
290.924
298.385
298.111
297.309
295.579
293.241
291.024
298.296
297.864
296.918
295.308
293.352
291.773
298.152
297.647
296.721
295.256
293.789
292.873
297.96
297.471
296.684
295.522
294.624
294.196
297.679
297.254
296.64
295.971
295.595
295.531
297.191
296.906
296.007
294.302
292.116
290.451
297.374
297.149
296.391
294.921
293.21
292.164
297.521
297.358
296.758
295.642
294.501
293.924
297.653
297.558
297.07
296.379
295.802
295.623
297.851
297.556
297.145
296.718
296.559
296.618
297.701
297.415
297.053
296.878
296.856
296.939
297.683
297.429
297.148
297.05
296.949
296.768
297.581
297.324
297.058
296.935
296.654
295.973
297.548
297.317
297.061
296.785
296.028
294.319
297.514
297.304
297.044
296.492
295.061
292.353
297.536
297.332
297.007
296.058
294.032
290.787
297.574
297.377
296.965
295.682
293.281
289.995
297.652
297.474
296.98
295.585
293.026
290.017
297.814
297.668
297.075
295.614
293.22
290.653
298.008
297.854
297.249
295.861
293.784
291.696
298.222
298.081
297.534
296.334
294.607
293.171
298.383
298.28
297.835
296.86
295.636
294.836
298.51
298.466
298.062
297.39
296.669
296.32
298.232
298.76
298.874
296.333
288.127
299.153
299.304
298.119
292.563
282.097
299.37
298.559
294.811
286.366
276.904
298.901
296.299
289.869
280.001
271.35
297.67
292.886
284.848
276.042
268.592
295.677
289.602
282.056
275.25
268.326
293.666
287.476
281.922
278.233
273.734
292.281
286.969
283.525
281.855
277.827
272.017
291.685
287.456
285.754
285.067
280.31
271.44
291.885
289.052
288.751
289.124
285.078
275.486
292.946
291.422
292.099
293.195
290.679
283.036
274.002
294.591
294.082
295.266
296.615
294.89
288.859
281.91
277.4
296.506
296.739
298.036
299.273
297.829
294.037
291.015
293.672
298.382
299.117
300.216
300.54
298.339
291.644
287.894
284.361
300.138
300.916
301.458
300.791
296.525
286.863
279.18
274.82
301.337
301.79
301.828
299.516
292.965
283.29
276.118
274.065
301.78
301.827
300.379
295.715
288.324
281.476
278.988
276.6
301.623
300.574
296.892
289.96
282.23
276.048
273.369
276.095
300.649
297.765
292.112
284.743
278.049
271.606
266.938
264.674
298.698
294.13
288.124
282.841
277.527
271.594
265.433
263.542
296.313
290.999
286.413
283.601
280.601
275.511
270.134
265.7
294.298
289.728
286.972
286.004
283.263
277.21
270.712
270.065
293.266
289.959
288.772
288.323
284.228
275.072
293.069
290.904
290.963
291.248
287.536
278.681
293.755
292.711
293.723
294.656
291.398
283.777
295.083
295.08
296.444
297.19
293.99
288.072
296.689
297.36
298.435
298.377
295.241
290.975
298.201
298.752
299.028
297.522
292.476
299.168
299.292
298.229
293.885
286.418
299.254
298.256
294.852
288.446
281.205
298.444
295.43
290.209
284.125
279.523
296.316
291.527
286.192
281.915
277.758
293.45
288.313
284.539
281.684
276.562
290.937
286.985
285.163
283.51
278.252
289.339
286.934
286.731
285.735
281.004
288.767
287.427
287.908
287.053
282.138
288.773
288.046
288.682
287.167
280.213
289.623
289.779
290.905
290.25
283.318
291.017
291.938
293.598
293.246
286.417
292.645
294.08
295.827
295.222
289.156
294.431
295.852
297.027
295.948
290.853
295.909
296.432
296.388
293.2
285.706
296.673
296.423
293.969
287.174
277.43
296.528
294.244
288.959
280.685
272.163
295.261
290.497
283.885
277.062
271.512
292.737
286.371
280.395
275.63
270.264
289.887
283.616
279.51
275.779
268.751
287.773
282.829
280.381
276.605
268.257
286.492
283.052
282.485
280.504
273.818
286.355
284.153
284.443
283.051
276.572
287.112
285.673
285.87
284.439
276.158
288.648
288.004
288.528
288.425
281.414
290.494
290.539
291.603
292.13
286.119
292.523
293.087
294.525
295.242
290.3
294.66
295.583
296.92
297.074
292.944
296.569
297.618
298.5
297.548
292.605
300.012
300.029
300.024
300.035
300.032
300.039
300.047
300.08
300.133
300.218
300.342
300.5
300.71
300.953
299.804
299.865
299.882
299.928
299.957
299.991
300.018
300.059
300.118
300.207
300.336
300.514
300.735
300.985
299.622
299.699
299.759
299.838
299.898
299.954
300.001
300.054
300.119
300.208
300.33
300.496
300.7
300.925
299.491
299.587
299.678
299.779
299.861
299.935
299.996
300.06
300.133
300.223
300.345
300.502
300.692
300.902
299.401
299.524
299.642
299.759
299.854
299.938
300.008
300.078
300.156
300.249
300.367
300.51
300.681
300.868
299.366
299.506
299.641
299.766
299.868
299.957
300.033
300.108
300.189
300.282
300.395
300.525
300.682
300.853
299.363
299.516
299.659
299.789
299.896
299.988
300.067
300.145
300.226
300.317
300.423
300.543
300.686
300.846
299.379
299.543
299.692
299.82
299.924
300.017
300.099
300.179
300.261
300.35
300.452
300.566
300.702
300.859
299.423
299.593
299.737
299.854
299.95
300.039
300.122
300.205
300.291
300.382
300.483
300.595
300.731
300.887
299.49
299.652
299.782
299.879
299.962
300.045
300.128
300.217
300.309
300.407
300.513
300.63
300.772
300.926
299.564
299.722
299.826
299.899
299.963
300.036
300.118
300.211
300.311
300.418
300.535
300.662
300.815
300.97
299.645
299.782
299.861
299.91
299.959
300.021
300.097
300.194
300.302
300.419
300.548
300.688
300.856
301.001
299.673
299.813
299.879
299.924
299.967
300.018
300.083
300.172
300.282
300.407
300.548
300.696
300.881
301.019
299.675
299.794
299.862
299.927
299.971
300.015
300.069
300.147
300.246
300.369
300.515
300.669
300.855
301.011
302.32
302.43
302.482
302.541
302.572
302.601
302.621
302.648
302.689
302.748
302.835
302.951
303.114
303.264
302.187
302.289
302.367
302.446
302.5
302.546
302.582
302.623
302.677
302.745
302.839
302.963
303.128
303.32
302.071
302.186
302.282
302.374
302.445
302.504
302.555
302.609
302.671
302.744
302.84
302.961
303.122
303.305
302.005
302.128
302.239
302.34
302.419
302.485
302.544
302.604
302.672
302.751
302.851
302.974
303.135
303.318
301.988
302.116
302.233
302.336
302.419
302.487
302.549
302.611
302.683
302.766
302.869
302.993
303.148
303.319
301.999
302.132
302.25
302.352
302.434
302.502
302.565
302.629
302.703
302.79
302.897
303.022
303.169
303.329
302.037
302.169
302.287
302.383
302.461
302.527
302.589
302.654
302.73
302.82
302.928
303.051
303.19
303.337
302.102
302.227
302.335
302.42
302.491
302.554
302.617
302.683
302.761
302.853
302.961
303.08
303.211
303.347
302.184
302.295
302.387
302.457
302.518
302.577
302.64
302.71
302.791
302.885
302.993
303.111
303.237
303.367
302.266
302.358
302.43
302.485
302.536
302.592
302.656
302.731
302.817
302.915
303.026
303.144
303.269
303.397
302.352
302.423
302.473
302.506
302.544
302.594
302.661
302.743
302.838
302.944
303.059
303.18
303.307
303.436
302.418
302.473
302.497
302.51
302.536
302.582
302.653
302.745
302.852
302.97
303.092
303.218
303.35
303.476
302.46
302.501
302.503
302.508
302.526
302.566
302.639
302.739
302.856
302.985
303.117
303.252
303.391
303.514
302.449
302.481
302.488
302.496
302.51
302.546
302.617
302.719
302.845
302.982
303.126
303.264
303.418
303.49
304.275
304.378
304.439
304.496
304.537
304.575
304.612
304.653
304.703
304.763
304.841
304.936
305.058
305.186
304.196
304.294
304.368
304.434
304.486
304.534
304.583
304.636
304.698
304.768
304.854
304.955
305.08
305.229
304.148
304.247
304.328
304.398
304.457
304.513
304.569
304.63
304.699
304.775
304.864
304.965
305.089
305.235
304.141
304.236
304.32
304.39
304.452
304.509
304.569
304.634
304.706
304.787
304.878
304.982
305.106
305.25
304.157
304.252
304.332
304.4
304.46
304.518
304.579
304.645
304.72
304.803
304.898
305.004
305.127
305.268
304.197
304.285
304.36
304.422
304.479
304.534
304.594
304.661
304.738
304.824
304.922
305.03
305.152
305.287
304.259
304.337
304.401
304.454
304.505
304.556
304.615
304.683
304.761
304.85
304.951
305.06
305.178
305.303
304.337
304.399
304.448
304.489
304.532
304.58
304.637
304.706
304.785
304.876
304.978
305.086
305.2
305.317
304.418
304.462
304.495
304.523
304.558
304.602
304.659
304.728
304.809
304.902
305.004
305.111
305.222
305.332
304.49
304.516
304.534
304.551
304.578
304.619
304.677
304.749
304.832
304.927
305.029
305.137
305.247
305.355
304.56
304.566
304.569
304.573
304.591
304.629
304.689
304.765
304.853
304.951
305.055
305.164
305.274
305.384
304.616
304.604
304.591
304.584
304.595
304.632
304.696
304.78
304.875
304.978
305.085
305.195
305.306
305.42
304.651
304.626
304.602
304.588
304.595
304.629
304.697
304.789
304.892
305.004
305.118
305.234
305.348
305.467
304.629
304.624
304.599
304.587
304.591
304.625
304.695
304.793
304.904
305.028
305.155
305.276
305.392
305.486
305.756
305.839
305.889
305.935
305.981
306.031
306.088
306.152
306.223
306.299
306.378
306.461
306.546
306.647
305.757
305.823
305.869
305.914
305.96
306.013
306.075
306.144
306.221
306.303
306.387
306.476
306.566
306.676
305.761
305.823
305.872
305.916
305.962
306.015
306.077
306.148
306.226
306.309
306.395
306.484
306.577
306.685
305.796
305.847
305.891
305.932
305.978
306.03
306.091
306.162
306.239
306.323
306.408
306.498
306.591
306.699
305.846
305.887
305.925
305.96
306.002
306.052
306.111
306.181
306.257
306.34
306.424
306.514
306.607
306.713
305.907
305.938
305.966
305.995
306.031
306.077
306.134
306.203
306.278
306.36
306.444
306.534
306.627
306.73
305.973
305.992
306.01
306.031
306.062
306.104
306.159
306.226
306.3
306.381
306.466
306.556
306.648
306.749
306.04
306.045
306.052
306.065
306.09
306.129
306.182
306.247
306.32
306.401
306.486
306.576
306.667
306.766
306.103
306.092
306.088
306.094
306.114
306.15
306.201
306.265
306.337
306.418
306.504
306.595
306.686
306.784
306.151
306.128
306.116
306.118
306.133
306.167
306.217
306.281
306.353
306.435
306.521
306.613
306.705
306.804
306.19
306.155
306.136
306.134
306.146
306.178
306.229
306.293
306.367
306.45
306.538
306.632
306.725
306.827
306.218
306.176
306.151
306.144
306.154
306.187
306.24
306.309
306.385
306.47
306.56
306.656
306.752
306.857
306.232
306.189
306.162
306.152
306.162
306.196
306.253
306.326
306.407
306.497
306.59
306.689
306.787
306.899
306.209
306.187
306.163
306.157
306.165
306.203
306.266
306.346
306.435
306.53
306.629
306.729
306.831
306.936
306.779
306.819
306.847
306.881
306.923
306.973
307.032
307.101
307.175
307.255
307.332
307.412
307.482
307.564
306.81
306.838
306.86
306.89
306.93
306.98
307.041
307.11
307.184
307.265
307.342
307.423
307.493
307.577
306.848
306.867
306.887
306.914
306.952
306.999
307.057
307.124
307.195
307.272
307.346
307.424
307.496
307.576
306.891
306.903
306.919
306.943
306.978
307.024
307.079
307.143
307.211
307.285
307.356
307.431
307.502
307.583
306.938
306.942
306.954
306.975
307.008
307.052
307.105
307.166
307.231
307.3
307.369
307.44
307.511
307.591
306.986
306.983
306.99
307.008
307.038
307.079
307.13
307.189
307.25
307.317
307.383
307.452
307.523
307.603
307.031
307.022
307.024
307.039
307.066
307.106
307.154
307.211
307.27
307.334
307.399
307.468
307.539
307.618
307.072
307.058
307.056
307.068
307.093
307.13
307.176
307.23
307.288
307.352
307.417
307.486
307.559
307.638
307.108
307.089
307.084
307.093
307.115
307.15
307.194
307.247
307.305
307.368
307.435
307.506
307.581
307.661
307.137
307.116
307.11
307.117
307.137
307.169
307.212
307.264
307.322
307.387
307.456
307.53
307.608
307.69
307.158
307.137
307.131
307.137
307.155
307.186
307.229
307.281
307.34
307.407
307.479
307.557
307.637
307.723
307.176
307.156
307.15
307.155
307.172
307.204
307.247
307.301
307.362
307.431
307.507
307.588
307.673
307.761
307.189
307.173
307.168
307.173
307.193
307.227
307.273
307.329
307.392
307.465
307.543
307.628
307.715
307.811
307.182
307.186
307.183
307.193
307.215
307.253
307.303
307.363
307.429
307.503
307.583
307.667
307.761
307.854
307.416
307.411
307.414
307.433
307.461
307.499
307.546
307.602
307.66
307.724
307.783
307.849
307.906
307.973
307.446
307.436
307.437
307.454
307.48
307.518
307.566
307.622
307.68
307.743
307.802
307.867
307.923
307.991
307.478
307.464
307.464
307.479
307.503
307.539
307.584
307.636
307.691
307.752
307.809
307.872
307.929
307.996
307.503
307.486
307.484
307.498
307.522
307.557
307.6
307.651
307.704
307.763
307.819
307.881
307.939
308.006
307.524
307.506
307.504
307.517
307.541
307.575
307.616
307.665
307.717
307.773
307.829
307.89
307.949
308.016
307.543
307.525
307.522
307.535
307.558
307.591
307.632
307.679
307.729
307.785
307.841
307.901
307.962
308.03
307.561
307.544
307.541
307.553
307.576
307.608
307.648
307.694
307.744
307.798
307.855
307.916
307.979
308.047
307.579
307.564
307.562
307.574
307.595
307.627
307.666
307.711
307.761
307.816
307.874
307.935
308.001
308.07
307.598
307.586
307.585
307.596
307.617
307.648
307.686
307.732
307.782
307.837
307.897
307.96
308.029
308.098
307.618
307.61
307.611
307.622
307.642
307.672
307.71
307.756
307.807
307.863
307.926
307.99
308.062
308.132
307.64
307.636
307.639
307.65
307.671
307.701
307.739
307.786
307.838
307.897
307.962
308.029
308.103
308.175
307.666
307.667
307.67
307.683
307.704
307.735
307.774
307.82
307.874
307.934
308.002
308.071
308.15
308.222
307.693
307.697
307.703
307.718
307.742
307.775
307.816
307.865
307.921
307.984
308.054
308.127
308.206
308.285
307.723
307.737
307.746
307.765
307.792
307.827
307.868
307.917
307.972
308.034
308.104
308.176
308.261
308.338
307.659
307.635
307.621
307.617
307.622
307.64
307.666
307.701
307.741
307.79
307.838
307.897
307.951
308.018
307.67
307.644
307.632
307.629
307.636
307.654
307.682
307.72
307.763
307.813
307.863
307.923
307.978
308.043
307.677
307.654
307.642
307.64
307.649
307.669
307.697
307.735
307.778
307.828
307.877
307.935
307.99
308.056
307.68
307.658
307.647
307.648
307.66
307.681
307.711
307.75
307.794
307.844
307.895
307.954
308.009
308.075
307.683
307.664
307.655
307.658
307.672
307.695
307.726
307.765
307.81
307.861
307.914
307.972
308.029
308.095
307.687
307.671
307.664
307.67
307.685
307.71
307.742
307.783
307.829
307.881
307.935
307.994
308.053
308.117
307.696
307.682
307.678
307.686
307.702
307.728
307.762
307.804
307.851
307.904
307.96
308.02
308.08
308.144
307.709
307.699
307.696
307.706
307.723
307.751
307.786
307.829
307.878
307.932
307.99
308.049
308.112
308.175
307.727
307.72
307.72
307.732
307.751
307.779
307.816
307.861
307.911
307.967
308.027
308.086
308.15
308.212
307.751
307.749
307.752
307.765
307.786
307.815
307.853
307.898
307.95
308.006
308.069
308.128
308.195
308.255
307.78
307.784
307.789
307.805
307.827
307.859
307.898
307.945
307.999
308.056
308.12
308.181
308.247
308.306
307.82
307.831
307.839
307.857
307.881
307.913
307.953
308
308.053
308.11
308.174
308.236
308.304
308.361
307.863
307.879
307.89
307.912
307.94
307.975
308.018
308.067
308.122
308.18
308.244
308.306
308.372
308.43
307.925
307.948
307.965
307.988
308.018
308.052
308.094
308.141
308.193
308.248
308.309
308.369
308.437
308.496
307.619
307.592
307.573
307.562
307.559
307.567
307.582
307.606
307.639
307.682
307.73
307.789
307.845
307.911
307.617
307.591
307.576
307.567
307.567
307.578
307.597
307.625
307.661
307.708
307.759
307.819
307.878
307.947
307.615
307.593
307.58
307.574
307.578
307.592
307.613
307.644
307.682
307.729
307.781
307.84
307.899
307.969
307.614
307.596
307.585
307.583
307.591
307.607
307.631
307.665
307.705
307.754
307.806
307.867
307.926
307.995
307.617
307.603
307.595
307.596
307.606
307.625
307.652
307.687
307.729
307.779
307.833
307.894
307.954
308.023
307.625
307.613
307.608
307.613
307.625
307.646
307.675
307.713
307.757
307.809
307.865
307.926
307.987
308.054
307.638
307.629
307.627
307.635
307.649
307.673
307.704
307.744
307.79
307.844
307.901
307.961
308.024
308.088
307.656
307.651
307.651
307.663
307.679
307.705
307.739
307.78
307.829
307.883
307.942
308.001
308.065
308.128
307.68
307.68
307.683
307.697
307.716
307.745
307.781
307.825
307.875
307.93
307.989
308.048
308.113
308.173
307.713
307.717
307.724
307.742
307.763
307.795
307.832
307.877
307.928
307.983
308.043
308.101
308.166
308.224
307.752
307.762
307.772
307.794
307.82
307.853
307.894
307.94
307.992
308.047
308.107
308.163
308.227
308.28
307.807
307.824
307.837
307.862
307.89
307.925
307.966
308.012
308.064
308.116
308.175
308.23
308.292
308.34
307.864
307.89
307.907
307.935
307.968
308.005
308.048
308.095
308.147
308.199
308.255
308.308
308.365
308.409
307.949
307.981
308.003
308.029
308.062
308.098
308.138
308.182
308.23
308.279
308.331
308.38
308.434
308.478
307.523
307.507
307.492
307.481
307.475
307.476
307.484
307.5
307.52
307.55
307.586
307.63
307.679
307.74
307.518
307.503
307.491
307.482
307.479
307.486
307.498
307.518
307.544
307.579
307.621
307.671
307.725
307.786
307.516
307.504
307.494
307.489
307.49
307.499
307.515
307.539
307.569
307.608
307.652
307.705
307.759
307.821
307.519
307.509
307.503
307.501
307.506
307.518
307.538
307.565
307.6
307.642
307.689
307.744
307.798
307.861
307.528
307.52
307.517
307.519
307.527
307.543
307.566
307.597
307.635
307.68
307.729
307.784
307.839
307.9
307.542
307.538
307.537
307.543
307.555
307.575
307.602
307.637
307.677
307.724
307.775
307.83
307.884
307.943
307.563
307.562
307.564
307.574
307.59
307.615
307.646
307.683
307.726
307.774
307.825
307.878
307.932
307.987
307.59
307.593
307.599
307.614
307.634
307.663
307.697
307.737
307.781
307.828
307.878
307.929
307.982
308.034
307.625
307.633
307.644
307.664
307.688
307.72
307.756
307.797
307.841
307.887
307.935
307.983
308.035
308.082
307.672
307.686
307.7
307.724
307.751
307.785
307.822
307.862
307.905
307.949
307.996
308.041
308.09
308.132
307.73
307.749
307.767
307.794
307.822
307.857
307.893
307.932
307.974
308.016
308.061
308.102
308.148
308.184
307.804
307.829
307.847
307.873
307.901
307.934
307.969
308.006
308.046
308.086
308.127
308.165
308.208
308.24
307.885
307.91
307.927
307.953
307.981
308.013
308.047
308.084
308.123
308.161
308.199
308.234
308.272
308.298
307.986
308.005
308.022
308.043
308.069
308.098
308.13
308.163
308.198
308.232
308.267
308.299
308.334
308.359
307.507
307.495
307.485
307.479
307.476
307.478
307.484
307.493
307.506
307.522
307.54
307.561
307.587
307.619
307.496
307.491
307.484
307.482
307.483
307.49
307.5
307.515
307.533
307.553
307.576
307.603
307.633
307.67
307.495
307.493
307.49
307.492
307.497
307.508
307.523
307.541
307.562
307.586
307.612
307.642
307.674
307.712
307.502
307.502
307.503
307.508
307.518
307.532
307.55
307.572
307.596
307.622
307.651
307.684
307.717
307.756
307.517
307.519
307.524
307.533
307.547
307.564
307.585
307.608
307.634
307.662
307.693
307.726
307.76
307.799
307.54
307.544
307.553
307.566
307.583
307.603
307.625
307.65
307.677
307.705
307.737
307.77
307.804
307.842
307.572
307.58
307.592
307.607
307.627
307.648
307.671
307.696
307.723
307.753
307.784
307.816
307.849
307.884
307.614
307.625
307.639
307.656
307.676
307.698
307.721
307.747
307.774
307.803
307.833
307.864
307.895
307.926
307.665
307.678
307.693
307.711
307.731
307.753
307.776
307.802
307.828
307.855
307.883
307.911
307.94
307.967
307.723
307.738
307.752
307.77
307.789
307.811
307.835
307.859
307.884
307.908
307.934
307.959
307.985
308.007
307.786
307.802
307.815
307.833
307.853
307.874
307.895
307.917
307.94
307.962
307.985
308.006
308.029
308.046
307.858
307.873
307.884
307.901
307.918
307.936
307.955
307.975
307.995
308.015
308.035
308.054
308.073
308.086
307.931
307.945
307.953
307.967
307.982
307.998
308.014
308.032
308.05
308.069
308.087
308.102
308.116
308.124
308.013
308.018
308.024
308.034
308.045
308.059
308.073
308.089
308.105
308.121
308.137
308.149
308.16
308.166
307.559
307.565
307.567
307.571
307.575
307.577
307.577
307.577
307.575
307.572
307.57
307.567
307.566
307.57
307.553
307.562
307.569
307.576
307.582
307.588
307.591
307.593
307.593
307.594
307.594
307.596
307.598
307.607
307.558
307.568
307.577
307.586
307.594
307.602
307.608
307.612
307.615
307.618
307.621
307.626
307.631
307.64
307.571
307.582
307.593
307.602
307.612
307.62
307.627
307.632
307.637
307.643
307.648
307.655
307.662
307.674
307.592
307.602
307.614
307.624
307.634
307.643
307.65
307.656
307.663
307.671
307.677
307.685
307.692
307.705
307.619
307.629
307.641
307.65
307.66
307.669
307.676
307.683
307.69
307.697
307.705
307.714
307.723
307.735
307.652
307.662
307.672
307.682
307.691
307.699
307.706
307.713
307.719
307.726
307.734
307.743
307.753
307.765
307.69
307.699
307.708
307.717
307.725
307.732
307.738
307.744
307.75
307.757
307.765
307.774
307.784
307.794
307.733
307.741
307.748
307.756
307.762
307.767
307.772
307.777
307.782
307.789
307.797
307.805
307.813
307.821
307.778
307.785
307.789
307.794
307.798
307.802
307.807
307.812
307.817
307.823
307.829
307.835
307.842
307.847
307.823
307.829
307.831
307.834
307.836
307.84
307.844
307.849
307.853
307.857
307.861
307.864
307.869
307.872
307.869
307.873
307.872
307.874
307.876
307.88
307.883
307.886
307.888
307.891
307.892
307.893
307.894
307.894
307.916
307.918
307.916
307.917
307.918
307.92
307.921
307.922
307.922
307.922
307.921
307.919
307.917
307.913
307.97
307.965
307.96
307.959
307.958
307.958
307.957
307.956
307.955
307.953
307.95
307.945
307.94
307.932
307.628
307.637
307.64
307.642
307.64
307.636
307.629
307.62
307.609
307.597
307.582
307.564
307.545
307.526
307.629
307.636
307.64
307.642
307.641
307.637
307.631
307.623
307.614
307.602
307.589
307.575
307.559
307.544
307.633
307.64
307.644
307.646
307.644
307.642
307.637
307.63
307.622
307.613
307.602
307.591
307.578
307.565
307.642
307.648
307.652
307.653
307.652
307.65
307.646
307.64
307.632
307.623
307.614
307.605
307.595
307.585
307.656
307.66
307.664
307.664
307.663
307.66
307.656
307.651
307.645
307.638
307.63
307.622
307.613
307.605
307.673
307.677
307.678
307.678
307.676
307.673
307.669
307.664
307.659
307.653
307.646
307.639
307.631
307.623
307.693
307.695
307.695
307.694
307.691
307.688
307.684
307.679
307.674
307.668
307.662
307.655
307.647
307.639
307.714
307.715
307.713
307.711
307.708
307.705
307.701
307.696
307.69
307.683
307.676
307.669
307.661
307.654
307.736
307.736
307.734
307.732
307.728
307.724
307.719
307.713
307.705
307.698
307.69
307.682
307.674
307.666
307.76
307.76
307.757
307.754
307.749
307.743
307.736
307.728
307.72
307.711
307.702
307.694
307.684
307.675
307.786
307.786
307.781
307.777
307.77
307.762
307.753
307.744
307.734
307.724
307.714
307.703
307.692
307.682
307.813
307.811
307.804
307.798
307.789
307.78
307.77
307.759
307.748
307.736
307.724
307.712
307.698
307.685
307.841
307.836
307.828
307.819
307.809
307.798
307.786
307.773
307.76
307.746
307.732
307.717
307.701
307.684
307.868
307.857
307.846
307.836
307.824
307.812
307.799
307.785
307.77
307.754
307.738
307.721
307.705
307.684
307.661
307.665
307.664
307.661
307.656
307.648
307.637
307.623
307.607
307.588
307.567
307.542
307.515
307.482
307.66
307.662
307.661
307.658
307.652
307.644
307.632
307.618
307.602
307.582
307.56
307.535
307.508
307.479
307.66
307.661
307.659
307.655
307.648
307.64
307.628
307.615
307.599
307.581
307.56
307.537
307.511
307.483
307.661
307.661
307.658
307.653
307.647
307.638
307.627
307.613
307.598
307.579
307.559
307.537
307.512
307.486
307.663
307.662
307.659
307.654
307.647
307.638
307.626
307.613
307.597
307.58
307.56
307.539
307.516
307.491
307.667
307.666
307.662
307.656
307.649
307.639
307.627
307.613
307.598
307.58
307.56
307.539
307.517
307.493
307.673
307.671
307.666
307.659
307.651
307.64
307.628
307.614
307.598
307.58
307.56
307.539
307.518
307.495
307.68
307.677
307.671
307.663
307.653
307.641
307.628
307.613
307.597
307.579
307.559
307.539
307.517
307.495
307.688
307.683
307.675
307.666
307.655
307.642
307.628
307.612
307.595
307.576
307.556
307.536
307.514
307.494
307.694
307.688
307.679
307.668
307.656
307.642
307.626
307.609
307.591
307.572
307.551
307.531
307.509
307.489
307.701
307.693
307.682
307.67
307.656
307.64
307.623
307.605
307.585
307.564
307.543
307.522
307.499
307.48
307.705
307.696
307.684
307.669
307.654
307.636
307.617
307.598
307.577
307.555
307.533
307.511
307.488
307.469
307.709
307.699
307.684
307.668
307.651
307.632
307.611
307.589
307.566
307.542
307.518
307.496
307.471
307.451
307.708
307.694
307.678
307.661
307.642
307.621
307.6
307.578
307.554
307.53
307.506
307.482
307.457
307.432
307.641
307.64
307.636
307.63
307.622
307.611
307.598
307.582
307.563
307.54
307.516
307.487
307.457
307.42
307.636
307.633
307.628
307.622
307.612
307.601
307.586
307.568
307.547
307.523
307.496
307.466
307.434
307.4
307.631
307.628
307.621
307.613
307.602
307.589
307.573
307.554
307.532
307.508
307.481
307.45
307.419
307.385
307.624
307.62
307.612
307.603
307.591
307.577
307.56
307.54
307.518
307.492
307.465
307.435
307.403
307.369
307.618
307.612
307.603
307.593
307.58
307.565
307.547
307.526
307.503
307.478
307.45
307.42
307.389
307.355
307.61
307.603
307.593
307.581
307.568
307.551
307.533
307.511
307.488
307.462
307.434
307.404
307.373
307.34
307.602
307.593
307.582
307.569
307.554
307.537
307.518
307.496
307.472
307.446
307.418
307.388
307.358
307.326
307.592
307.581
307.569
307.555
307.539
307.521
307.5
307.478
307.454
307.428
307.4
307.371
307.341
307.311
307.581
307.569
307.556
307.54
307.523
307.504
307.482
307.459
307.434
307.408
307.38
307.352
307.323
307.295
307.566
307.553
307.538
307.522
307.504
307.483
307.461
307.438
307.412
307.386
307.359
307.332
307.303
307.277
307.552
307.537
307.521
307.503
307.483
307.462
307.439
307.414
307.388
307.362
307.335
307.308
307.28
307.256
307.533
307.516
307.5
307.48
307.459
307.437
307.413
307.388
307.362
307.336
307.309
307.283
307.255
307.233
307.515
307.496
307.478
307.457
307.435
307.411
307.386
307.36
307.332
307.305
307.278
307.252
307.225
307.205
307.489
307.469
307.45
307.429
307.406
307.381
307.356
307.329
307.302
307.276
307.249
307.224
307.197
307.174
307.558
307.55