/*--------------------------------*- C++ -*----------------------------------*\
| =========                 |                                                 |
| \\      /  F ield         | OpenFOAM: The Open Source CFD Toolbox           |
|  \\    /   O peration     | Version:  v2106                                 |
|   \\  /    A nd           | Website:  www.openfoam.com                      |
|    \\/     M anipulation  |                                                 |
\*---------------------------------------------------------------------------*/
FoamFile
{
    version     2.0;
    format      ascii;
    arch        "LSB;label=32;scalar=64";
    class       volScalarField;
    location    "0.000162";
    object      k;
}
// * * * * * * * * * * * * * * * * * * * * * * * * * * * * * * * * * * * * * //

dimensions      [0 2 -2 0 0 0 0];

internalField   nonuniform List<scalar> 
17924
(
2.75343e-12
2.7532e-12
2.75296e-12
2.75278e-12
2.75034e-12
2.75028e-12
2.75019e-12
2.75014e-12
2.75009e-12
2.75007e-12
2.75005e-12
2.7498e-12
2.74979e-12
2.74972e-12
2.74967e-12
2.74963e-12
2.74961e-12
2.7496e-12
2.74932e-12
2.74931e-12
2.74924e-12
2.7492e-12
2.74916e-12
2.74915e-12
2.74915e-12
2.74884e-12
2.74883e-12
2.74876e-12
2.74873e-12
2.7487e-12
2.7487e-12
2.74871e-12
2.74838e-12
2.74835e-12
2.7483e-12
2.74828e-12
2.74826e-12
2.74826e-12
2.74828e-12
2.74792e-12
2.74789e-12
2.74785e-12
2.74784e-12
2.74783e-12
2.74784e-12
2.74786e-12
2.74748e-12
2.74745e-12
2.74742e-12
2.74741e-12
2.74741e-12
2.74742e-12
2.74745e-12
2.74706e-12
2.74702e-12
2.74701e-12
2.747e-12
2.74701e-12
2.74702e-12
2.74706e-12
2.74666e-12
2.74662e-12
2.74661e-12
2.7466e-12
2.74662e-12
2.74664e-12
2.74668e-12
2.74628e-12
2.74623e-12
2.74622e-12
2.74622e-12
2.74624e-12
2.74627e-12
2.74631e-12
2.74593e-12
2.74586e-12
2.74586e-12
2.74586e-12
2.74588e-12
2.74592e-12
2.74596e-12
2.74557e-12
2.7455e-12
2.74551e-12
2.74552e-12
2.74554e-12
2.74558e-12
2.74563e-12
2.74522e-12
2.74517e-12
2.74519e-12
2.7452e-12
2.74523e-12
2.74527e-12
2.74532e-12
2.74487e-12
2.74483e-12
2.74485e-12
2.74488e-12
2.74492e-12
2.74498e-12
2.74504e-12
2.74704e-12
2.74714e-12
2.74722e-12
2.74731e-12
2.7474e-12
2.74748e-12
2.74757e-12
2.74765e-12
2.74775e-12
2.74784e-12
2.74795e-12
2.74806e-12
2.7482e-12
2.74832e-12
2.74673e-12
2.74685e-12
2.74694e-12
2.74704e-12
2.74713e-12
2.74722e-12
2.74731e-12
2.74741e-12
2.74751e-12
2.74762e-12
2.74773e-12
2.74785e-12
2.74798e-12
2.74809e-12
2.74647e-12
2.74659e-12
2.74667e-12
2.74678e-12
2.74686e-12
2.74696e-12
2.74705e-12
2.74716e-12
2.74726e-12
2.74738e-12
2.74751e-12
2.74763e-12
2.74777e-12
2.74788e-12
2.7462e-12
2.74633e-12
2.74641e-12
2.74652e-12
2.74661e-12
2.7467e-12
2.7468e-12
2.74691e-12
2.74702e-12
2.74714e-12
2.74726e-12
2.74739e-12
2.74754e-12
2.74766e-12
2.74593e-12
2.74606e-12
2.74614e-12
2.74625e-12
2.74634e-12
2.74644e-12
2.74654e-12
2.74665e-12
2.74677e-12
2.74689e-12
2.74703e-12
2.74716e-12
2.74731e-12
2.74743e-12
2.74567e-12
2.74578e-12
2.74588e-12
2.74598e-12
2.74608e-12
2.74619e-12
2.74629e-12
2.74641e-12
2.74652e-12
2.74665e-12
2.74678e-12
2.74691e-12
2.74705e-12
2.74719e-12
2.74541e-12
2.74552e-12
2.74562e-12
2.74572e-12
2.74582e-12
2.74593e-12
2.74604e-12
2.74616e-12
2.74628e-12
2.7464e-12
2.74653e-12
2.74667e-12
2.7468e-12
2.74695e-12
2.74516e-12
2.74526e-12
2.74537e-12
2.74547e-12
2.74558e-12
2.74569e-12
2.7458e-12
2.74591e-12
2.74603e-12
2.74615e-12
2.74628e-12
2.74642e-12
2.74655e-12
2.74671e-12
2.74493e-12
2.74502e-12
2.74513e-12
2.74523e-12
2.74534e-12
2.74544e-12
2.74555e-12
2.74567e-12
2.74579e-12
2.74591e-12
2.74604e-12
2.74618e-12
2.74631e-12
2.74647e-12
2.7447e-12
2.74478e-12
2.7449e-12
2.745e-12
2.7451e-12
2.74521e-12
2.74532e-12
2.74544e-12
2.74555e-12
2.74567e-12
2.7458e-12
2.74594e-12
2.74606e-12
2.74623e-12
2.74449e-12
2.74456e-12
2.74467e-12
2.74477e-12
2.74488e-12
2.74499e-12
2.7451e-12
2.74521e-12
2.74533e-12
2.74545e-12
2.74557e-12
2.74571e-12
2.74584e-12
2.746e-12
2.74428e-12
2.74434e-12
2.74446e-12
2.74456e-12
2.74467e-12
2.74477e-12
2.74488e-12
2.745e-12
2.74511e-12
2.74523e-12
2.74536e-12
2.74549e-12
2.74561e-12
2.74577e-12
2.74407e-12
2.74414e-12
2.74426e-12
2.74436e-12
2.74447e-12
2.74458e-12
2.74469e-12
2.7448e-12
2.74492e-12
2.74504e-12
2.74516e-12
2.74529e-12
2.74542e-12
2.74556e-12
2.74386e-12
2.74394e-12
2.74406e-12
2.74417e-12
2.74428e-12
2.74439e-12
2.7445e-12
2.74462e-12
2.74473e-12
2.74485e-12
2.74496e-12
2.74508e-12
2.7452e-12
2.74532e-12
2.74335e-12
2.74357e-12
2.74377e-12
2.74396e-12
2.74414e-12
2.7443e-12
2.74446e-12
2.7446e-12
2.74474e-12
2.74487e-12
2.745e-12
2.74513e-12
2.74527e-12
2.74537e-12
2.74329e-12
2.74352e-12
2.74371e-12
2.74391e-12
2.74409e-12
2.74426e-12
2.74442e-12
2.74458e-12
2.74472e-12
2.74486e-12
2.745e-12
2.74513e-12
2.74527e-12
2.74539e-12
2.74325e-12
2.74347e-12
2.74366e-12
2.74386e-12
2.74404e-12
2.74422e-12
2.74438e-12
2.74454e-12
2.74469e-12
2.74484e-12
2.74498e-12
2.74511e-12
2.74526e-12
2.74538e-12
2.7432e-12
2.74342e-12
2.74361e-12
2.74381e-12
2.74399e-12
2.74417e-12
2.74433e-12
2.74449e-12
2.74465e-12
2.7448e-12
2.74494e-12
2.74508e-12
2.74523e-12
2.74536e-12
2.74314e-12
2.74336e-12
2.74355e-12
2.74375e-12
2.74393e-12
2.7441e-12
2.74427e-12
2.74443e-12
2.74459e-12
2.74474e-12
2.74489e-12
2.74504e-12
2.74519e-12
2.74533e-12
2.74307e-12
2.74329e-12
2.74348e-12
2.74367e-12
2.74385e-12
2.74403e-12
2.7442e-12
2.74436e-12
2.74452e-12
2.74468e-12
2.74483e-12
2.74498e-12
2.74513e-12
2.74527e-12
2.74301e-12
2.74321e-12
2.74341e-12
2.7436e-12
2.74377e-12
2.74395e-12
2.74412e-12
2.74428e-12
2.74444e-12
2.74459e-12
2.74474e-12
2.7449e-12
2.74504e-12
2.7452e-12
2.74293e-12
2.74313e-12
2.74332e-12
2.74351e-12
2.74369e-12
2.74386e-12
2.74403e-12
2.74419e-12
2.74435e-12
2.7445e-12
2.74465e-12
2.74481e-12
2.74495e-12
2.74511e-12
2.74286e-12
2.74305e-12
2.74324e-12
2.74342e-12
2.7436e-12
2.74377e-12
2.74394e-12
2.7441e-12
2.74425e-12
2.7444e-12
2.74455e-12
2.74471e-12
2.74485e-12
2.74502e-12
2.74278e-12
2.74296e-12
2.74315e-12
2.74333e-12
2.74351e-12
2.74368e-12
2.74384e-12
2.744e-12
2.74415e-12
2.7443e-12
2.74445e-12
2.74461e-12
2.74475e-12
2.74492e-12
2.74271e-12
2.74289e-12
2.74308e-12
2.74325e-12
2.74342e-12
2.74359e-12
2.74375e-12
2.7439e-12
2.74405e-12
2.7442e-12
2.74435e-12
2.7445e-12
2.74465e-12
2.74482e-12
2.74263e-12
2.74281e-12
2.743e-12
2.74317e-12
2.74334e-12
2.7435e-12
2.74366e-12
2.74381e-12
2.74396e-12
2.74411e-12
2.74425e-12
2.7444e-12
2.74454e-12
2.7447e-12
2.74256e-12
2.74275e-12
2.74293e-12
2.7431e-12
2.74326e-12
2.74342e-12
2.74358e-12
2.74372e-12
2.74387e-12
2.74401e-12
2.74416e-12
2.74431e-12
2.74445e-12
2.74459e-12
2.74251e-12
2.74268e-12
2.74286e-12
2.74303e-12
2.74319e-12
2.74335e-12
2.7435e-12
2.74364e-12
2.74378e-12
2.74392e-12
2.74406e-12
2.74419e-12
2.74432e-12
2.74445e-12
2.73909e-12
2.73933e-12
2.73957e-12
2.73979e-12
2.74e-12
2.7402e-12
2.74038e-12
2.74056e-12
2.74072e-12
2.74086e-12
2.74101e-12
2.74113e-12
2.74126e-12
2.74138e-12
2.7392e-12
2.73944e-12
2.73968e-12
2.73991e-12
2.74013e-12
2.74034e-12
2.74054e-12
2.74072e-12
2.74088e-12
2.74104e-12
2.74118e-12
2.74132e-12
2.74145e-12
2.74157e-12
2.73935e-12
2.73959e-12
2.73983e-12
2.74006e-12
2.74028e-12
2.74049e-12
2.74068e-12
2.74086e-12
2.74103e-12
2.74119e-12
2.74134e-12
2.74147e-12
2.74161e-12
2.74173e-12
2.73947e-12
2.73971e-12
2.73995e-12
2.74018e-12
2.74041e-12
2.74061e-12
2.74081e-12
2.741e-12
2.74117e-12
2.74133e-12
2.74148e-12
2.74162e-12
2.74176e-12
2.74189e-12
2.73959e-12
2.73983e-12
2.74007e-12
2.7403e-12
2.74052e-12
2.74073e-12
2.74093e-12
2.74111e-12
2.74129e-12
2.74145e-12
2.7416e-12
2.74175e-12
2.74189e-12
2.74202e-12
2.73968e-12
2.73993e-12
2.74017e-12
2.7404e-12
2.74062e-12
2.74083e-12
2.74103e-12
2.74121e-12
2.74139e-12
2.74155e-12
2.74171e-12
2.74186e-12
2.742e-12
2.74213e-12
2.73977e-12
2.74002e-12
2.74026e-12
2.74049e-12
2.74071e-12
2.74091e-12
2.74111e-12
2.74129e-12
2.74147e-12
2.74163e-12
2.74179e-12
2.74194e-12
2.74208e-12
2.74222e-12
2.73985e-12
2.7401e-12
2.74033e-12
2.74056e-12
2.74078e-12
2.74098e-12
2.74118e-12
2.74136e-12
2.74154e-12
2.7417e-12
2.74186e-12
2.74201e-12
2.74215e-12
2.7423e-12
2.73993e-12
2.74017e-12
2.7404e-12
2.74063e-12
2.74084e-12
2.74105e-12
2.74124e-12
2.74142e-12
2.74159e-12
2.74176e-12
2.74191e-12
2.74206e-12
2.74221e-12
2.74236e-12
2.74e-12
2.74024e-12
2.74047e-12
2.74069e-12
2.7409e-12
2.7411e-12
2.74129e-12
2.74147e-12
2.74164e-12
2.7418e-12
2.74196e-12
2.74211e-12
2.74225e-12
2.7424e-12
2.74008e-12
2.74031e-12
2.74053e-12
2.74075e-12
2.74095e-12
2.74115e-12
2.74134e-12
2.74151e-12
2.74168e-12
2.74184e-12
2.74199e-12
2.74215e-12
2.74229e-12
2.74245e-12
2.74013e-12
2.74036e-12
2.74058e-12
2.7408e-12
2.741e-12
2.74119e-12
2.74138e-12
2.74155e-12
2.74172e-12
2.74187e-12
2.74203e-12
2.74218e-12
2.74232e-12
2.74246e-12
2.7402e-12
2.74043e-12
2.74064e-12
2.74085e-12
2.74104e-12
2.74123e-12
2.74141e-12
2.74158e-12
2.74174e-12
2.74189e-12
2.74204e-12
2.74219e-12
2.74233e-12
2.74247e-12
2.74025e-12
2.74048e-12
2.74068e-12
2.74089e-12
2.74108e-12
2.74126e-12
2.74144e-12
2.7416e-12
2.74176e-12
2.74191e-12
2.74205e-12
2.74218e-12
2.74231e-12
2.74245e-12
2.7344e-12
2.73458e-12
2.73478e-12
2.73497e-12
2.73516e-12
2.73533e-12
2.7355e-12
2.73566e-12
2.73581e-12
2.73595e-12
2.73607e-12
2.73619e-12
2.73631e-12
2.73643e-12
2.73459e-12
2.73478e-12
2.73499e-12
2.73518e-12
2.73538e-12
2.73557e-12
2.73575e-12
2.73591e-12
2.73607e-12
2.73621e-12
2.73634e-12
2.73647e-12
2.73658e-12
2.73671e-12
2.73482e-12
2.73501e-12
2.73523e-12
2.73543e-12
2.73563e-12
2.73581e-12
2.73599e-12
2.73616e-12
2.73631e-12
2.73646e-12
2.73659e-12
2.73672e-12
2.73684e-12
2.73695e-12
2.73503e-12
2.73523e-12
2.73545e-12
2.73565e-12
2.73585e-12
2.73604e-12
2.73622e-12
2.73639e-12
2.73655e-12
2.7367e-12
2.73684e-12
2.73697e-12
2.73709e-12
2.7372e-12
2.73524e-12
2.73545e-12
2.73567e-12
2.73587e-12
2.73608e-12
2.73626e-12
2.73645e-12
2.73662e-12
2.73678e-12
2.73692e-12
2.73706e-12
2.73719e-12
2.73732e-12
2.73743e-12
2.73544e-12
2.73566e-12
2.73588e-12
2.73608e-12
2.73629e-12
2.73648e-12
2.73666e-12
2.73683e-12
2.73699e-12
2.73714e-12
2.73728e-12
2.73741e-12
2.73754e-12
2.73765e-12
2.73564e-12
2.73586e-12
2.73608e-12
2.73629e-12
2.73649e-12
2.73668e-12
2.73686e-12
2.73703e-12
2.73719e-12
2.73734e-12
2.73748e-12
2.73762e-12
2.73774e-12
2.73785e-12
2.73583e-12
2.73606e-12
2.73627e-12
2.73648e-12
2.73668e-12
2.73687e-12
2.73705e-12
2.73722e-12
2.73738e-12
2.73753e-12
2.73768e-12
2.73781e-12
2.73793e-12
2.73805e-12
2.73602e-12
2.73624e-12
2.73646e-12
2.73667e-12
2.73686e-12
2.73705e-12
2.73723e-12
2.7374e-12
2.73756e-12
2.73771e-12
2.73786e-12
2.73799e-12
2.73811e-12
2.73823e-12
2.7362e-12
2.73642e-12
2.73663e-12
2.73684e-12
2.73704e-12
2.73723e-12
2.73741e-12
2.73758e-12
2.73773e-12
2.73788e-12
2.73802e-12
2.73816e-12
2.73828e-12
2.7384e-12
2.73638e-12
2.7366e-12
2.7368e-12
2.73701e-12
2.73721e-12
2.73739e-12
2.73757e-12
2.73774e-12
2.73789e-12
2.73804e-12
2.73818e-12
2.73831e-12
2.73844e-12
2.73856e-12
2.73655e-12
2.73676e-12
2.73697e-12
2.73717e-12
2.73736e-12
2.73755e-12
2.73772e-12
2.73789e-12
2.73804e-12
2.73818e-12
2.73832e-12
2.73845e-12
2.73858e-12
2.7387e-12
2.73671e-12
2.73692e-12
2.73712e-12
2.73732e-12
2.73751e-12
2.73769e-12
2.73786e-12
2.73802e-12
2.73817e-12
2.73831e-12
2.73844e-12
2.73857e-12
2.7387e-12
2.73883e-12
2.73686e-12
2.73707e-12
2.73727e-12
2.73746e-12
2.73764e-12
2.73781e-12
2.73798e-12
2.73813e-12
2.73828e-12
2.73842e-12
2.73855e-12
2.73867e-12
2.73879e-12
2.73891e-12
2.72969e-12
2.72979e-12
2.72992e-12
2.73004e-12
2.73016e-12
2.73028e-12
2.7304e-12
2.73051e-12
2.73062e-12
2.73072e-12
2.73082e-12
2.73092e-12
2.73101e-12
2.7311e-12
2.72988e-12
2.73e-12
2.73013e-12
2.73026e-12
2.73039e-12
2.73051e-12
2.73063e-12
2.73075e-12
2.73086e-12
2.73097e-12
2.73107e-12
2.73117e-12
2.73126e-12
2.73136e-12
2.7301e-12
2.73022e-12
2.73036e-12
2.73049e-12
2.73062e-12
2.73075e-12
2.73087e-12
2.73099e-12
2.7311e-12
2.73121e-12
2.73131e-12
2.73141e-12
2.7315e-12
2.73159e-12
2.73032e-12
2.73045e-12
2.73059e-12
2.73072e-12
2.73086e-12
2.73099e-12
2.73111e-12
2.73123e-12
2.73135e-12
2.73146e-12
2.73156e-12
2.73166e-12
2.73175e-12
2.73184e-12
2.73055e-12
2.73068e-12
2.73082e-12
2.73096e-12
2.73109e-12
2.73122e-12
2.73135e-12
2.73147e-12
2.73158e-12
2.73169e-12
2.7318e-12
2.7319e-12
2.73199e-12
2.73208e-12
2.73077e-12
2.73091e-12
2.73106e-12
2.73119e-12
2.73133e-12
2.73146e-12
2.73159e-12
2.73171e-12
2.73182e-12
2.73193e-12
2.73204e-12
2.73214e-12
2.73223e-12
2.73232e-12
2.731e-12
2.73114e-12
2.73129e-12
2.73143e-12
2.73156e-12
2.73169e-12
2.73182e-12
2.73194e-12
2.73206e-12
2.73217e-12
2.73228e-12
2.73238e-12
2.73247e-12
2.73255e-12
2.73123e-12
2.73138e-12
2.73152e-12
2.73166e-12
2.73179e-12
2.73193e-12
2.73205e-12
2.73218e-12
2.73229e-12
2.7324e-12
2.73251e-12
2.73261e-12
2.7327e-12
2.73278e-12
2.73145e-12
2.7316e-12
2.73174e-12
2.73189e-12
2.73202e-12
2.73216e-12
2.73228e-12
2.73241e-12
2.73252e-12
2.73263e-12
2.73274e-12
2.73284e-12
2.73293e-12
2.73301e-12
2.73167e-12
2.73182e-12
2.73197e-12
2.73211e-12
2.73225e-12
2.73238e-12
2.73251e-12
2.73263e-12
2.73275e-12
2.73286e-12
2.73296e-12
2.73306e-12
2.73315e-12
2.73323e-12
2.73189e-12
2.73204e-12
2.73218e-12
2.73233e-12
2.73246e-12
2.73259e-12
2.73272e-12
2.73284e-12
2.73296e-12
2.73307e-12
2.73317e-12
2.73327e-12
2.73336e-12
2.73344e-12
2.7321e-12
2.73225e-12
2.73239e-12
2.73253e-12
2.73267e-12
2.7328e-12
2.73292e-12
2.73304e-12
2.73316e-12
2.73327e-12
2.73337e-12
2.73346e-12
2.73356e-12
2.73364e-12
2.7323e-12
2.73245e-12
2.73259e-12
2.73273e-12
2.73286e-12
2.73299e-12
2.73311e-12
2.73323e-12
2.73334e-12
2.73345e-12
2.73355e-12
2.73365e-12
2.73374e-12
2.73383e-12
2.73251e-12
2.73265e-12
2.73278e-12
2.73292e-12
2.73304e-12
2.73317e-12
2.73329e-12
2.7334e-12
2.73351e-12
2.73362e-12
2.73371e-12
2.73381e-12
2.7339e-12
2.734e-12
2.72531e-12
2.72535e-12
2.7254e-12
2.72546e-12
2.72552e-12
2.72558e-12
2.72563e-12
2.72569e-12
2.72575e-12
2.72581e-12
2.72586e-12
2.72592e-12
2.72597e-12
2.72603e-12
2.72547e-12
2.72551e-12
2.72557e-12
2.72563e-12
2.72568e-12
2.72574e-12
2.7258e-12
2.72586e-12
2.72592e-12
2.72598e-12
2.72604e-12
2.72609e-12
2.72614e-12
2.72621e-12
2.72563e-12
2.72568e-12
2.72574e-12
2.7258e-12
2.72586e-12
2.72592e-12
2.72598e-12
2.72604e-12
2.7261e-12
2.72615e-12
2.72621e-12
2.72626e-12
2.72631e-12
2.72637e-12
2.72581e-12
2.72586e-12
2.72592e-12
2.72598e-12
2.72604e-12
2.72609e-12
2.72616e-12
2.72622e-12
2.72628e-12
2.72633e-12
2.72639e-12
2.72645e-12
2.7265e-12
2.72655e-12
2.72598e-12
2.72604e-12
2.7261e-12
2.72616e-12
2.72622e-12
2.72628e-12
2.72634e-12
2.7264e-12
2.72646e-12
2.72652e-12
2.72657e-12
2.72663e-12
2.72668e-12
2.72673e-12
2.72617e-12
2.72623e-12
2.72629e-12
2.72635e-12
2.72641e-12
2.72647e-12
2.72653e-12
2.72659e-12
2.72665e-12
2.7267e-12
2.72676e-12
2.72681e-12
2.72687e-12
2.72692e-12
2.72636e-12
2.72642e-12
2.72648e-12
2.72654e-12
2.7266e-12
2.72666e-12
2.72672e-12
2.72678e-12
2.72684e-12
2.7269e-12
2.72695e-12
2.72701e-12
2.72706e-12
2.7271e-12
2.72654e-12
2.72661e-12
2.72667e-12
2.72673e-12
2.72679e-12
2.72685e-12
2.72691e-12
2.72697e-12
2.72703e-12
2.72709e-12
2.72715e-12
2.7272e-12
2.72725e-12
2.72729e-12
2.72673e-12
2.7268e-12
2.72686e-12
2.72693e-12
2.72699e-12
2.72705e-12
2.72711e-12
2.72717e-12
2.72723e-12
2.72729e-12
2.72734e-12
2.72739e-12
2.72744e-12
2.72748e-12
2.72692e-12
2.72699e-12
2.72705e-12
2.72712e-12
2.72718e-12
2.72724e-12
2.7273e-12
2.72736e-12
2.72742e-12
2.72748e-12
2.72753e-12
2.72758e-12
2.72763e-12
2.72767e-12
2.72711e-12
2.72718e-12
2.72724e-12
2.7273e-12
2.72736e-12
2.72743e-12
2.72749e-12
2.72755e-12
2.72761e-12
2.72767e-12
2.72772e-12
2.72777e-12
2.72782e-12
2.72785e-12
2.72729e-12
2.72736e-12
2.72742e-12
2.72748e-12
2.72755e-12
2.72761e-12
2.72767e-12
2.72773e-12
2.72779e-12
2.72785e-12
2.7279e-12
2.72795e-12
2.728e-12
2.72804e-12
2.72747e-12
2.72754e-12
2.72759e-12
2.72766e-12
2.72772e-12
2.72778e-12
2.72785e-12
2.72791e-12
2.72797e-12
2.72803e-12
2.72808e-12
2.72813e-12
2.72818e-12
2.72822e-12
2.72766e-12
2.72771e-12
2.72777e-12
2.72783e-12
2.72789e-12
2.72795e-12
2.72801e-12
2.72807e-12
2.72813e-12
2.72819e-12
2.72824e-12
2.72829e-12
2.72834e-12
2.7284e-12
2.7213e-12
2.7213e-12
2.72131e-12
2.72132e-12
2.72134e-12
2.72135e-12
2.72136e-12
2.72138e-12
2.72139e-12
2.7214e-12
2.72142e-12
2.72143e-12
2.72144e-12
2.72146e-12
2.72141e-12
2.72141e-12
2.72142e-12
2.72143e-12
2.72144e-12
2.72145e-12
2.72146e-12
2.72148e-12
2.72149e-12
2.7215e-12
2.72152e-12
2.72153e-12
2.72154e-12
2.72156e-12
2.72152e-12
2.72151e-12
2.72152e-12
2.72153e-12
2.72154e-12
2.72155e-12
2.72157e-12
2.72158e-12
2.72159e-12
2.7216e-12
2.72161e-12
2.72163e-12
2.72164e-12
2.72165e-12
2.72163e-12
2.72163e-12
2.72164e-12
2.72164e-12
2.72165e-12
2.72166e-12
2.72167e-12
2.72168e-12
2.7217e-12
2.72171e-12
2.72172e-12
2.72173e-12
2.72174e-12
2.72175e-12
2.72174e-12
2.72174e-12
2.72175e-12
2.72176e-12
2.72176e-12
2.72177e-12
2.72178e-12
2.72179e-12
2.7218e-12
2.72181e-12
2.72182e-12
2.72183e-12
2.72184e-12
2.72186e-12
2.72186e-12
2.72186e-12
2.72187e-12
2.72187e-12
2.72188e-12
2.72189e-12
2.7219e-12
2.72191e-12
2.72192e-12
2.72193e-12
2.72194e-12
2.72194e-12
2.72195e-12
2.72196e-12
2.72198e-12
2.72198e-12
2.72199e-12
2.72199e-12
2.722e-12
2.722e-12
2.72201e-12
2.72202e-12
2.72203e-12
2.72204e-12
2.72205e-12
2.72206e-12
2.72206e-12
2.72207e-12
2.72209e-12
2.7221e-12
2.7221e-12
2.72211e-12
2.72212e-12
2.72212e-12
2.72213e-12
2.72214e-12
2.72215e-12
2.72216e-12
2.72217e-12
2.72217e-12
2.72218e-12
2.72218e-12
2.72221e-12
2.72222e-12
2.72222e-12
2.72223e-12
2.72223e-12
2.72224e-12
2.72225e-12
2.72226e-12
2.72227e-12
2.72228e-12
2.72229e-12
2.72229e-12
2.7223e-12
2.7223e-12
2.72232e-12
2.72233e-12
2.72234e-12
2.72235e-12
2.72235e-12
2.72236e-12
2.72237e-12
2.72238e-12
2.72239e-12
2.7224e-12
2.7224e-12
2.72241e-12
2.72241e-12
2.72241e-12
2.72243e-12
2.72245e-12
2.72245e-12
2.72246e-12
2.72247e-12
2.72248e-12
2.72249e-12
2.7225e-12
2.72251e-12
2.72251e-12
2.72252e-12
2.72253e-12
2.72253e-12
2.72253e-12
2.72255e-12
2.72256e-12
2.72257e-12
2.72257e-12
2.72258e-12
2.72259e-12
2.7226e-12
2.72261e-12
2.72262e-12
2.72263e-12
2.72264e-12
2.72264e-12
2.72265e-12
2.72264e-12
2.72265e-12
2.72267e-12
2.72268e-12
2.72268e-12
2.72269e-12
2.7227e-12
2.72272e-12
2.72273e-12
2.72274e-12
2.72275e-12
2.72275e-12
2.72276e-12
2.72277e-12
2.72276e-12
2.72277e-12
2.72278e-12
2.72278e-12
2.72279e-12
2.7228e-12
2.72282e-12
2.72283e-12
2.72284e-12
2.72285e-12
2.72286e-12
2.72287e-12
2.72288e-12
2.72288e-12
2.72289e-12
2.71749e-12
2.71748e-12
2.71747e-12
2.71746e-12
2.71745e-12
2.71743e-12
2.71742e-12
2.71741e-12
2.71739e-12
2.71738e-12
2.71736e-12
2.71734e-12
2.71732e-12
2.71731e-12
2.71755e-12
2.71754e-12
2.71753e-12
2.71751e-12
2.7175e-12
2.71749e-12
2.71747e-12
2.71746e-12
2.71744e-12
2.71743e-12
2.71741e-12
2.71739e-12
2.71737e-12
2.71735e-12
2.71761e-12
2.7176e-12
2.71758e-12
2.71757e-12
2.71756e-12
2.71754e-12
2.71753e-12
2.71751e-12
2.71749e-12
2.71748e-12
2.71746e-12
2.71743e-12
2.71741e-12
2.71739e-12
2.71767e-12
2.71765e-12
2.71764e-12
2.71763e-12
2.71761e-12
2.71759e-12
2.71758e-12
2.71756e-12
2.71754e-12
2.71752e-12
2.7175e-12
2.71748e-12
2.71746e-12
2.71744e-12
2.71773e-12
2.71771e-12
2.7177e-12
2.71768e-12
2.71766e-12
2.71765e-12
2.71763e-12
2.71761e-12
2.71759e-12
2.71757e-12
2.71755e-12
2.71753e-12
2.7175e-12
2.71748e-12
2.71778e-12
2.71777e-12
2.71775e-12
2.71773e-12
2.71772e-12
2.7177e-12
2.71768e-12
2.71766e-12
2.71764e-12
2.71762e-12
2.7176e-12
2.71757e-12
2.71755e-12
2.71752e-12
2.71784e-12
2.71782e-12
2.7178e-12
2.71779e-12
2.71777e-12
2.71775e-12
2.71773e-12
2.71771e-12
2.71769e-12
2.71767e-12
2.71765e-12
2.71762e-12
2.71759e-12
2.71757e-12
2.71789e-12
2.71787e-12
2.71785e-12
2.71783e-12
2.71782e-12
2.7178e-12
2.71778e-12
2.71776e-12
2.71774e-12
2.71772e-12
2.71769e-12
2.71767e-12
2.71764e-12
2.71761e-12
2.71793e-12
2.71792e-12
2.7179e-12
2.71788e-12
2.71786e-12
2.71785e-12
2.71783e-12
2.71781e-12
2.71779e-12
2.71776e-12
2.71774e-12
2.71771e-12
2.71769e-12
2.71766e-12
2.71798e-12
2.71796e-12
2.71795e-12
2.71793e-12
2.71791e-12
2.71789e-12
2.71787e-12
2.71785e-12
2.71783e-12
2.71781e-12
2.71779e-12
2.71776e-12
2.71773e-12
2.7177e-12
2.71802e-12
2.718e-12
2.71799e-12
2.71797e-12
2.71795e-12
2.71794e-12
2.71792e-12
2.7179e-12
2.71788e-12
2.71786e-12
2.71783e-12
2.7178e-12
2.71778e-12
2.71774e-12
2.71806e-12
2.71805e-12
2.71803e-12
2.71801e-12
2.718e-12
2.71798e-12
2.71796e-12
2.71794e-12
2.71792e-12
2.7179e-12
2.71788e-12
2.71785e-12
2.71782e-12
2.71779e-12
2.71809e-12
2.71808e-12
2.71807e-12
2.71805e-12
2.71804e-12
2.71802e-12
2.71801e-12
2.71799e-12
2.71797e-12
2.71795e-12
2.71792e-12
2.7179e-12
2.71787e-12
2.71784e-12
2.71812e-12
2.71811e-12
2.7181e-12
2.71809e-12
2.71808e-12
2.71806e-12
2.71805e-12
2.71803e-12
2.71802e-12
2.71799e-12
2.71797e-12
2.71794e-12
2.71792e-12
2.71789e-12
2.71369e-12
2.71369e-12
2.71367e-12
2.71366e-12
2.71364e-12
2.71362e-12
2.7136e-12
2.71357e-12
2.71355e-12
2.71352e-12
2.71348e-12
2.71345e-12
2.71341e-12
2.71337e-12
2.71373e-12
2.71372e-12
2.7137e-12
2.71369e-12
2.71367e-12
2.71365e-12
2.71362e-12
2.7136e-12
2.71357e-12
2.71354e-12
2.7135e-12
2.71347e-12
2.71343e-12
2.71339e-12
2.71375e-12
2.71374e-12
2.71373e-12
2.71371e-12
2.71369e-12
2.71367e-12
2.71365e-12
2.71362e-12
2.71359e-12
2.71356e-12
2.71352e-12
2.71349e-12
2.71345e-12
2.71341e-12
2.71378e-12
2.71376e-12
2.71375e-12
2.71373e-12
2.71371e-12
2.71369e-12
2.71367e-12
2.71364e-12
2.71361e-12
2.71358e-12
2.71354e-12
2.7135e-12
2.71346e-12
2.71342e-12
2.71379e-12
2.71378e-12
2.71377e-12
2.71375e-12
2.71373e-12
2.71371e-12
2.71368e-12
2.71366e-12
2.71363e-12
2.71359e-12
2.71356e-12
2.71352e-12
2.71348e-12
2.71343e-12
2.71381e-12
2.7138e-12
2.71378e-12
2.71376e-12
2.71374e-12
2.71372e-12
2.7137e-12
2.71367e-12
2.71364e-12
2.7136e-12
2.71357e-12
2.71353e-12
2.71349e-12
2.71344e-12
2.71382e-12
2.7138e-12
2.71379e-12
2.71377e-12
2.71375e-12
2.71373e-12
2.7137e-12
2.71368e-12
2.71364e-12
2.71361e-12
2.71357e-12
2.71353e-12
2.71349e-12
2.71345e-12
2.71382e-12
2.71381e-12
2.71379e-12
2.71378e-12
2.71376e-12
2.71373e-12
2.71371e-12
2.71368e-12
2.71365e-12
2.71361e-12
2.71358e-12
2.71354e-12
2.71349e-12
2.71345e-12
2.71382e-12
2.71381e-12
2.7138e-12
2.71378e-12
2.71376e-12
2.71374e-12
2.71371e-12
2.71368e-12
2.71365e-12
2.71361e-12
2.71358e-12
2.71354e-12
2.71349e-12
2.71345e-12
2.71382e-12
2.71381e-12
2.71379e-12
2.71378e-12
2.71376e-12
2.71373e-12
2.71371e-12
2.71368e-12
2.71365e-12
2.71361e-12
2.71358e-12
2.71354e-12
2.71349e-12
2.71345e-12
2.71382e-12
2.7138e-12
2.71379e-12
2.71377e-12
2.71375e-12
2.71373e-12
2.71371e-12
2.71368e-12
2.71365e-12
2.71361e-12
2.71357e-12
2.71353e-12
2.71349e-12
2.71344e-12
2.71381e-12
2.71379e-12
2.71378e-12
2.71376e-12
2.71375e-12
2.71372e-12
2.7137e-12
2.71367e-12
2.71364e-12
2.71361e-12
2.71357e-12
2.71353e-12
2.71348e-12
2.71344e-12
2.71379e-12
2.71378e-12
2.71377e-12
2.71375e-12
2.71374e-12
2.71372e-12
2.71369e-12
2.71366e-12
2.71363e-12
2.7136e-12
2.71356e-12
2.71352e-12
2.71348e-12
2.71343e-12
2.71377e-12
2.71376e-12
2.71375e-12
2.71374e-12
2.71372e-12
2.7137e-12
2.71368e-12
2.71366e-12
2.71363e-12
2.7136e-12
2.71356e-12
2.71352e-12
2.71348e-12
2.71344e-12
2.70987e-12
2.70987e-12
2.70986e-12
2.70985e-12
2.70983e-12
2.70982e-12
2.7098e-12
2.70977e-12
2.70974e-12
2.70971e-12
2.70968e-12
2.70964e-12
2.7096e-12
2.70956e-12
2.70988e-12
2.70988e-12
2.70987e-12
2.70986e-12
2.70985e-12
2.70983e-12
2.70981e-12
2.70978e-12
2.70975e-12
2.70972e-12
2.70969e-12
2.70965e-12
2.70961e-12
2.70957e-12
2.70989e-12
2.70988e-12
2.70988e-12
2.70987e-12
2.70986e-12
2.70984e-12
2.70982e-12
2.70979e-12
2.70976e-12
2.70973e-12
2.70969e-12
2.70966e-12
2.70961e-12
2.70957e-12
2.70989e-12
2.70989e-12
2.70988e-12
2.70987e-12
2.70986e-12
2.70984e-12
2.70982e-12
2.7098e-12
2.70977e-12
2.70973e-12
2.7097e-12
2.70966e-12
2.70962e-12
2.70958e-12
2.70989e-12
2.70988e-12
2.70988e-12
2.70987e-12
2.70986e-12
2.70984e-12
2.70982e-12
2.70979e-12
2.70977e-12
2.70973e-12
2.7097e-12
2.70966e-12
2.70962e-12
2.70957e-12
2.70988e-12
2.70988e-12
2.70987e-12
2.70986e-12
2.70985e-12
2.70983e-12
2.70981e-12
2.70979e-12
2.70976e-12
2.70973e-12
2.70969e-12
2.70965e-12
2.70961e-12
2.70957e-12
2.70987e-12
2.70987e-12
2.70986e-12
2.70985e-12
2.70984e-12
2.70983e-12
2.7098e-12
2.70978e-12
2.70975e-12
2.70972e-12
2.70968e-12
2.70964e-12
2.7096e-12
2.70956e-12
2.70986e-12
2.70986e-12
2.70985e-12
2.70984e-12
2.70983e-12
2.70981e-12
2.70979e-12
2.70977e-12
2.70974e-12
2.7097e-12
2.70967e-12
2.70963e-12
2.70959e-12
2.70955e-12
2.70984e-12
2.70984e-12
2.70983e-12
2.70982e-12
2.70981e-12
2.70979e-12
2.70977e-12
2.70975e-12
2.70972e-12
2.70969e-12
2.70965e-12
2.70961e-12
2.70957e-12
2.70953e-12
2.70982e-12
2.70981e-12
2.70981e-12
2.7098e-12
2.70979e-12
2.70977e-12
2.70975e-12
2.70973e-12
2.7097e-12
2.70967e-12
2.70963e-12
2.70959e-12
2.70955e-12
2.70951e-12
2.7098e-12
2.70979e-12
2.70978e-12
2.70978e-12
2.70976e-12
2.70975e-12
2.70973e-12
2.7097e-12
2.70967e-12
2.70964e-12
2.7096e-12
2.70957e-12
2.70952e-12
2.70949e-12
2.70977e-12
2.70976e-12
2.70976e-12
2.70975e-12
2.70974e-12
2.70972e-12
2.7097e-12
2.70967e-12
2.70965e-12
2.70961e-12
2.70958e-12
2.70954e-12
2.7095e-12
2.70946e-12
2.70974e-12
2.70973e-12
2.70972e-12
2.70972e-12
2.7097e-12
2.70969e-12
2.70967e-12
2.70964e-12
2.70962e-12
2.70958e-12
2.70955e-12
2.70951e-12
2.70947e-12
2.70943e-12
2.7097e-12
2.70969e-12
2.70969e-12
2.70968e-12
2.70967e-12
2.70965e-12
2.70963e-12
2.70961e-12
2.70959e-12
2.70955e-12
2.70952e-12
2.70948e-12
2.70945e-12
2.70941e-12
2.70612e-12
2.70612e-12
2.70611e-12
2.7061e-12
2.70609e-12
2.70608e-12
2.70607e-12
2.70605e-12
2.70603e-12
2.70601e-12
2.70598e-12
2.70596e-12
2.70593e-12
2.7059e-12
2.70612e-12
2.70611e-12
2.70611e-12
2.7061e-12
2.7061e-12
2.70608e-12
2.70607e-12
2.70605e-12
2.70603e-12
2.70601e-12
2.70598e-12
2.70596e-12
2.70593e-12
2.7059e-12
2.70611e-12
2.70611e-12
2.70611e-12
2.7061e-12
2.70609e-12
2.70608e-12
2.70607e-12
2.70605e-12
2.70603e-12
2.70601e-12
2.70598e-12
2.70596e-12
2.70593e-12
2.7059e-12
2.7061e-12
2.7061e-12
2.7061e-12
2.7061e-12
2.70609e-12
2.70608e-12
2.70607e-12
2.70605e-12
2.70603e-12
2.70601e-12
2.70598e-12
2.70595e-12
2.70592e-12
2.7059e-12
2.70609e-12
2.70609e-12
2.70609e-12
2.70609e-12
2.70608e-12
2.70607e-12
2.70606e-12
2.70604e-12
2.70602e-12
2.706e-12
2.70597e-12
2.70595e-12
2.70592e-12
2.70589e-12
2.70608e-12
2.70608e-12
2.70608e-12
2.70608e-12
2.70607e-12
2.70606e-12
2.70605e-12
2.70603e-12
2.70601e-12
2.70599e-12
2.70597e-12
2.70594e-12
2.70591e-12
2.70588e-12
2.70607e-12
2.70607e-12
2.70607e-12
2.70607e-12
2.70606e-12
2.70605e-12
2.70604e-12
2.70602e-12
2.706e-12
2.70598e-12
2.70595e-12
2.70593e-12
2.7059e-12
2.70587e-12
2.70605e-12
2.70605e-12
2.70605e-12
2.70605e-12
2.70604e-12
2.70603e-12
2.70602e-12
2.70601e-12
2.70599e-12
2.70596e-12
2.70594e-12
2.70591e-12
2.70589e-12
2.70586e-12
2.70604e-12
2.70604e-12
2.70603e-12
2.70603e-12
2.70602e-12
2.70602e-12
2.706e-12
2.70599e-12
2.70597e-12
2.70595e-12
2.70592e-12
2.7059e-12
2.70587e-12
2.70584e-12
2.70601e-12
2.70601e-12
2.70601e-12
2.70601e-12
2.706e-12
2.70599e-12
2.70598e-12
2.70596e-12
2.70595e-12
2.70592e-12
2.7059e-12
2.70588e-12
2.70585e-12
2.70582e-12
2.70599e-12
2.70599e-12
2.70599e-12
2.70598e-12
2.70598e-12
2.70597e-12
2.70596e-12
2.70594e-12
2.70592e-12
2.7059e-12
2.70588e-12
2.70585e-12
2.70582e-12
2.7058e-12
2.70597e-12
2.70596e-12
2.70596e-12
2.70596e-12
2.70595e-12
2.70594e-12
2.70593e-12
2.70591e-12
2.7059e-12
2.70587e-12
2.70585e-12
2.70583e-12
2.7058e-12
2.70578e-12
2.70594e-12
2.70594e-12
2.70593e-12
2.70593e-12
2.70592e-12
2.70591e-12
2.7059e-12
2.70589e-12
2.70587e-12
2.70585e-12
2.70582e-12
2.7058e-12
2.70577e-12
2.70575e-12
2.70591e-12
2.70591e-12
2.70591e-12
2.7059e-12
2.7059e-12
2.70589e-12
2.70587e-12
2.70586e-12
2.70584e-12
2.70582e-12
2.7058e-12
2.70577e-12
2.70575e-12
2.70572e-12
2.70261e-12
2.7026e-12
2.70259e-12
2.70259e-12
2.70258e-12
2.70257e-12
2.70256e-12
2.70255e-12
2.70254e-12
2.70253e-12
2.70252e-12
2.70251e-12
2.70251e-12
2.7025e-12
2.7026e-12
2.70259e-12
2.70258e-12
2.70257e-12
2.70257e-12
2.70256e-12
2.70255e-12
2.70254e-12
2.70253e-12
2.70252e-12
2.70251e-12
2.7025e-12
2.70249e-12
2.70249e-12
2.70258e-12
2.70258e-12
2.70257e-12
2.70256e-12
2.70256e-12
2.70255e-12
2.70254e-12
2.70253e-12
2.70252e-12
2.70251e-12
2.7025e-12
2.70249e-12
2.70249e-12
2.70248e-12
2.70257e-12
2.70257e-12
2.70256e-12
2.70255e-12
2.70255e-12
2.70254e-12
2.70253e-12
2.70252e-12
2.70251e-12
2.7025e-12
2.70249e-12
2.70249e-12
2.70248e-12
2.70247e-12
2.70256e-12
2.70256e-12
2.70255e-12
2.70254e-12
2.70254e-12
2.70253e-12
2.70252e-12
2.70251e-12
2.7025e-12
2.7025e-12
2.70249e-12
2.70248e-12
2.70247e-12
2.70246e-12
2.70255e-12
2.70254e-12
2.70254e-12
2.70253e-12
2.70253e-12
2.70252e-12
2.70251e-12
2.7025e-12
2.7025e-12
2.70249e-12
2.70248e-12
2.70247e-12
2.70246e-12
2.70245e-12
2.70254e-12
2.70253e-12
2.70253e-12
2.70252e-12
2.70252e-12
2.70251e-12
2.7025e-12
2.70249e-12
2.70249e-12
2.70248e-12
2.70247e-12
2.70246e-12
2.70245e-12
2.70245e-12
2.70253e-12
2.70252e-12
2.70252e-12
2.70251e-12
2.70251e-12
2.7025e-12
2.70249e-12
2.70248e-12
2.70248e-12
2.70247e-12
2.70246e-12
2.70245e-12
2.70244e-12
2.70244e-12
2.70252e-12
2.70251e-12
2.70251e-12
2.7025e-12
2.70249e-12
2.70249e-12
2.70248e-12
2.70247e-12
2.70246e-12
2.70246e-12
2.70245e-12
2.70244e-12
2.70243e-12
2.70243e-12
2.70251e-12
2.7025e-12
2.7025e-12
2.70249e-12
2.70248e-12
2.70248e-12
2.70247e-12
2.70246e-12
2.70245e-12
2.70245e-12
2.70244e-12
2.70243e-12
2.70242e-12
2.70242e-12
2.7025e-12
2.70249e-12
2.70248e-12
2.70248e-12
2.70247e-12
2.70246e-12
2.70246e-12
2.70245e-12
2.70244e-12
2.70243e-12
2.70243e-12
2.70242e-12
2.70241e-12
2.70241e-12
2.70249e-12
2.70248e-12
2.70247e-12
2.70247e-12
2.70246e-12
2.70245e-12
2.70245e-12
2.70244e-12
2.70243e-12
2.70242e-12
2.70242e-12
2.70241e-12
2.7024e-12
2.7024e-12
2.70248e-12
2.70247e-12
2.70246e-12
2.70246e-12
2.70245e-12
2.70244e-12
2.70244e-12
2.70243e-12
2.70242e-12
2.70241e-12
2.70241e-12
2.7024e-12
2.70239e-12
2.70239e-12
2.70247e-12
2.70246e-12
2.70246e-12
2.70245e-12
2.70244e-12
2.70243e-12
2.70243e-12