/*--------------------------------*- C++ -*----------------------------------*\
| =========                 |                                                 |
| \\      /  F ield         | OpenFOAM: The Open Source CFD Toolbox           |
|  \\    /   O peration     | Version:  v2106                                 |
|   \\  /    A nd           | Website:  www.openfoam.com                      |
|    \\/     M anipulation  |                                                 |
\*---------------------------------------------------------------------------*/
FoamFile
{
    version     2.0;
    format      ascii;
    arch        "LSB;label=32;scalar=64";
    class       volScalarField;
    location    "0.000162";
    object      p;
}
// * * * * * * * * * * * * * * * * * * * * * * * * * * * * * * * * * * * * * //

dimensions      [1 -1 -2 0 0 0 0];

internalField   nonuniform List<scalar> 
17924
(
238495
238454
238412
238380
237815
237805
237790
237781
237774
237770
237770
237713
237713
237702
237694
237688
237687
237688
237625
237625
237615
237608
237604
237603
237605
237538
237535
237527
237523
237520
237521
237525
237453
237449
237443
237440
237438
237441
237446
237370
237366
237361
237360
237360
237364
237370
237290
237286
237283
237282
237284
237288
237295
237213
237208
237207
237207
237210
237215
237223
237139
237134
237134
237135
237138
237144
237153
237069
237063
237063
237065
237069
237076
237085
237002
236994
236995
236998
237003
237011
237021
236938
236929
236932
236935
236941
236950
236960
236876
236869
236871
236875
236883
236893
236904
236818
236810
236814
236820
236829
236839
236851
237101
237119
237134
237151
237166
237182
237197
237214
237232
237250
237270
237292
237315
237344
237045
237065
237081
237099
237116
237134
237152
237170
237189
237210
237232
237255
237278
237302
236995
237017
237033
237051
237068
237086
237104
237123
237143
237165
237188
237212
237237
237260
236944
236967
236984
237003
237021
237039
237058
237077
237098
237120
237144
237169
237195
237218
236896
236917
236934
236954
236972
236991
237011
237031
237053
237075
237099
237124
237151
237175
236847
236868
236886
236906
236925
236945
236965
236986
237008
237030
237054
237079
237105
237131
236800
236819
236838
236858
236878
236898
236919
236940
236962
236985
237009
237033
237059
237085
236754
236773
236793
236812
236832
236853
236873
236895
236917
236940
236963
236988
237013
237039
236710
236728
236748
236768
236788
236808
236829
236850
236872
236895
236918
236943
236967
236994
236668
236685
236706
236725
236745
236765
236786
236807
236829
236851
236874
236898
236922
236949
236627
236643
236664
236683
236703
236724
236745
236766
236787
236809
236832
236855
236878
236906
236589
236603
236624
236643
236664
236684
236705
236726
236747
236769
236791
236814
236836
236863
236551
236566
236586
236606
236627
236648
236669
236690
236712
236733
236755
236777
236800
236827
236518
236534
236554
236574
236594
236614
236634
236655
236676
236697
236719
236740
236763
236788
236325
236364
236400
236434
236464
236494
236521
236547
236572
236596
236620
236644
236666
236692
236314
236353
236388
236422
236454
236485
236515
236543
236569
236595
236619
236644
236668
236694
236304
236342
236378
236412
236445
236476
236506
236535
236562
236588
236613
236638
236662
236689
236292
236330
236366
236401
236434
236466
236497
236525
236553
236580
236606
236632
236657
236684
236281
236318
236355
236389
236422
236454
236485
236514
236542
236569
236596
236622
236648
236675
236268
236305
236340
236375
236408
236440
236471
236500
236529
236556
236583
236610
236637
236663
236254
236291
236326
236360
236393
236425
236455
236484
236513
236540
236567
236594
236621
236647
236239
236275
236310
236344
236377
236408
236438
236467
236496
236523
236550
236577
236604
236631
236224
236259
236294
236327
236359
236390
236420
236449
236477
236504
236531
236558
236585
236612
236209
236244
236278
236310
236342
236373
236402
236431
236458
236485
236512
236538
236565
236592
236194
236228
236262
236294
236325
236355
236384
236412
236439
236466
236492
236518
236544
236572
236180
236214
236247
236279
236309
236339
236367
236395
236421
236447
236473
236499
236524
236551
236167
236201
236233
236265
236294
236323
236351
236378
236405
236431
236456
236481
236505
236531
236161
236192
236223
236253
236281
236309
236336
236362
236387
236412
236436
236460
236485
236509
235459
235502
235543
235581
235619
235653
235686
235717
235745
235771
235796
235819
235841
235867
235479
235519
235562
235602
235641
235677
235712
235744
235774
235802
235827
235852
235874
235900
235503
235543
235587
235627
235666
235702
235737
235769
235799
235826
235852
235877
235899
235925
235521
235563
235606
235646
235686
235723
235759
235792
235822
235851
235877
235902
235926
235951
235540
235582
235626
235666
235706
235743
235778
235811
235841
235870
235896
235922
235946
235970
235556
235599
235642
235682
235722
235759
235794
235827
235858
235887
235914
235940
235965
235989
235570
235614
235656
235697
235736
235772
235807
235840
235871
235900
235927
235953
235978
236002
235584
235627
235669
235709
235747
235784
235818
235851
235882
235911
235938
235964
235990
236014
235595
235639
235679
235719
235757
235793
235828
235860
235890
235919
235947
235973
235998
236022
235607
235649
235689
235729
235766
235802
235836
235868
235898
235926
235954
235979
236005
236029
235617
235659
235698
235737
235774
235809
235842
235874
235904
235932
235959
235985
236010
236034
235627
235669
235707
235745
235781
235816
235848
235879
235909
235936
235963
235988
236013
236037
235636
235677
235715
235753
235787
235821
235853
235884
235912
235939
235965
235990
236013
236038
235649
235689
235725
235761
235794
235826
235857
235886
235913
235939
235964
235988
236012
236036
234530
234562
234597
234630
234663
234693
234723
234751
234777
234801
234823
234844
234864
234887
234564
234596
234633
234667
234701
234734
234765
234794
234821
234846
234870
234892
234911
234936
234603
234635
234673
234708
234743
234775
234807
234835
234863
234888
234911
234933
234953
234976
234638
234672
234710
234746
234781
234814
234846
234876
234904
234929
234953
234976
234996
235018
234673
234709
234748
234783
234819
234852
234884
234913
234941
234967
234991
235014
235035
235055
234707
234745
234783
234819
234854
234888
234920
234949
234978
235004
235028
235051
235072
235093
234740
234779
234817
234853
234889
234922
234954
234983
235011
235038
235062
235085
235107
235126
234773
234812
234850
234886
234921
234954
234986
235016
235044
235070
235095
235118
235140
235159
234804
234843
234881
234917
234952
234985
235017
235046
235074
235100
235125
235148
235170
235189
234835
234874
234911
234947
234982
235015
235046
235075
235103
235129
235153
235176
235198
235217
234863
234903
234939
234975
235009
235042
235073
235102
235130
235155
235179
235202
235224
235242
234892
234931
234966
235002
235036
235068
235098
235127
235154
235179
235203
235225
235247
235265
234918
234956
234991
235026
235059
235091
235121
235149
235175
235200
235223
235245
235266
235286
234947
234985
235017
235051
235082
235112
235141
235168
235193
235217
235240
235261
235282
235303
233609
233627
233650
233671
233692
233713
233734
233753
233772
233790
233808
233824
233839
233857
233644
233662
233686
233708
233731
233753
233774
233794
233814
233833
233850
233868
233883
233901
233681
233701
233726
233748
233771
233793
233814
233835
233854
233873
233891
233908
233923
233941
233718
233739
233764
233787
233811
233833
233855
233876
233896
233915
233933
233950
233966
233982
233755
233778
233803
233827
233851
233873
233895
233916
233936
233955
233973
233990
234006
234021
233793
233818
233843
233867
233890
233913
233935
233956
233976
233996
234014
234031
234047
234062
233831
233857
233882
233906
233930
233953
233975
233996
234016
234035
234054
234071
234087
234101
233870
233896
233921
233946
233969
233992
234014
234036
234056
234075
234093
234110
234127
234140
233908
233935
233959
233984
234008
234031
234053
234074
234095
234114
234132
234149
234165
234178
233946
233973
233997
234022
234046
234069
234091
234112
234132
234151
234169
234186
234202
234215
233981
234009
234033
234058
234082
234105
234127
234148
234168
234187
234205
234221
234237
234249
234018
234045
234069
234093
234117
234139
234161
234182
234201
234220
234238
234254
234270
234282
234050
234077
234101
234125
234148
234171
234192
234213
234233
234251
234269
234285
234300
234313
234087
234112
234135
234158
234180
234201
234221
234241
234260
234278
234295
234312
234328
234344
232754
232761
232771
232781
232791
232801
232811
232822
232832
232842
232852
232861
232870
232881
232782
232788
232799
232809
232820
232830
232840
232851
232861
232872
232881
232891
232900
232912
232810
232817
232829
232839
232849
232859
232870
232880
232891
232901
232910
232920
232928
232939
232839
232847
232859
232869
232879
232889
232900
232910
232921
232931
232941
232950
232959
232969
232869
232878
232889
232900
232910
232921
232931
232941
232952
232962
232972
232981
232990
232999
232900
232910
232921
232932
232942
232952
232963
232973
232984
232994
233003
233012
233021
233030
232931
232942
232953
232964
232974
232985
232995
233006
233016
233026
233036
233045
233053
233061
232963
232975
232986
232996
233007
233018
233028
233039
233049
233059
233068
233077
233086
233093
232995
233008
233018
233029
233040
233050
233061
233071
233082
233092
233101
233110
233118
233124
233027
233040
233050
233061
233072
233083
233093
233104
233114
233124
233134
233142
233151
233156
233058
233071
233081
233092
233103
233114
233125
233136
233146
233156
233165
233173
233182
233186
233089
233102
233111
233123
233134
233145
233155
233166
233177
233186
233196
233204
233212
233217
233118
233130
233140
233152
233163
233174
233185
233195
233206
233216
233225
233233
233241
233246
233150
233160
233170
233181
233191
233202
233212
233223
233233
233243
233252
233261
233269
233278
231970
231970
231972
231974
231977
231979
231982
231984
231987
231989
231992
231994
231996
231999
231989
231988
231990
231992
231994
231996
231999
232001
232004
232006
232008
232011
232012
232015
232007
232006
232008
232010
232012
232014
232016
232018
232021
232023
232025
232027
232028
232032
232026
232025
232027
232029
232030
232032
232034
232036
232038
232040
232042
232044
232046
232048
232045
232044
232046
232048
232049
232051
232053
232055
232057
232058
232060
232062
232063
232065
232064
232064
232066
232067
232069
232070
232072
232074
232076
232077
232079
232080
232082
232083
232084
232085
232086
232087
232089
232090
232092
232093
232095
232097
232098
232099
232100
232101
232103
232105
232106
232107
232108
232110
232111
232113
232115
232116
232118
232119
232120
232120
232123
232125
232126
232127
232128
232130
232131
232133
232135
232136
232137
232138
232139
232139
232142
232144
232145
232147
232148
232149
232151
232153
232154
232156
232157
232158
232159
232158
232161
232163
232164
232166
232167
232169
232171
232172
232174
232176
232177
232178
232179
232178
232179
232182
232183
232184
232186
232188
232190
232192
232194
232195
232196
232197
232198
232197
232196
232200
232201
232203
232205
232207
232209
232211
232213
232214
232215
232216
232217
232216
232215
232218
232219
232220
232223
232225
232227
232229
232231
232233
232235
232236
232237
232237
231224
231223
231222
231220
231219
231217
231215
231213
231211
231208
231205
231202
231198
231195
231236
231233
231232
231230
231228
231226
231224
231222
231219
231216
231213
231209
231205
231202
231246
231243
231241
231239
231237
231235
231233
231230
231227
231224
231221
231217
231213
231210
231256
231253
231251
231249
231247
231244
231242
231239
231236
231232
231229
231225
231221
231217
231265
231263
231261
231258
231256
231253
231250
231247
231244
231241
231237
231233
231228
231224
231275
231272
231270
231267
231264
231262
231259
231256
231252
231249
231245
231241
231236
231232
231283
231281
231278
231276
231273
231270
231267
231264
231260
231257
231253
231248
231244
231239
231292
231289
231287
231284
231281
231278
231275
231272
231268
231264
231260
231256
231251
231246
231300
231297
231294
231292
231289
231286
231283
231280
231276
231272
231268
231263
231259
231253
231307
231304
231302
231299
231296
231293
231290
231287
231283
231280
231275
231271
231266
231260
231313
231311
231309
231306
231303
231301
231298
231294
231291
231287
231283
231278
231274
231267
231319
231317
231315
231313
231310
231308
231305
231302
231298
231294
231290
231285
231281
231275
231325
231323
231321
231319
231317
231314
231312
231309
231305
231302
231298
231293
231288
231282
231329
231328
231326
231324
231323
231321
231319
231316
231313
231309
231305
231301
231296
231290
230489
230487
230486
230483
230481
230478
230474
230470
230465
230460
230455
230449
230442
230435
230495
230493
230491
230488
230486
230482
230479
230474
230469
230464
230458
230451
230445
230438
230499
230497
230495
230493
230490
230487
230483
230478
230473
230468
230462
230455
230448
230441
230503
230501
230499
230496
230493
230490
230486
230482
230476
230471
230465
230458
230451
230444
230506
230504
230502
230500
230496
230493
230489
230484
230479
230473
230467
230460
230453
230446
230508
230507
230504
230502
230499
230495
230491
230486
230481
230475
230469
230462
230455
230447
230510
230508
230506
230503
230500
230496
230492
230487
230482
230476
230470
230463
230456
230448
230510
230508
230506
230504
230500
230497
230493
230488
230482
230476
230470
230463
230456
230448
230511
230509
230506
230504
230500
230497
230493
230488
230482
230476
230470
230463
230456
230448
230510
230508
230506
230503
230500
230496
230492
230487
230482
230476
230469
230463
230455
230447
230509
230507
230505
230502
230499
230495
230491
230486
230481
230475
230469
230462
230454
230446
230507
230505
230503
230500
230497
230494
230490
230485
230480
230474
230467
230460
230453
230445
230504
230503
230501
230498
230495
230492
230488
230483
230478
230472
230466
230459
230452
230444
230500
230499
230497
230495
230493
230490
230486
230482
230477
230471
230466
230459
230452
230443
229754
229754
229753
229751
229749
229746
229742
229738
229734
229728
229723
229716
229710
229702
229756
229755
229755
229753
229751
229748
229745
229741
229736
229730
229724
229717
229711
229703
229757
229757
229756
229755
229753
229750
229746
229742
229737
229732
229726
229719
229712
229704
229758
229757
229757
229755
229753
229751
229747
229743
229738
229732
229726
229720
229712
229705
229757
229757
229756
229755
229753
229750
229747
229743
229738
229732
229726
229719
229712
229705
229756
229756
229755
229754
229752
229749
229746
229742
229737
229731
229725
229719
229711
229704
229755
229754
229754
229752
229750
229748
229744
229740
229735
229730
229724
229717
229710
229702
229752
229752
229751
229750
229748
229745
229742
229738
229733
229727
229721
229715
229707
229700
229749
229749
229748
229747
229745
229742
229739
229735
229730
229724
229718
229711
229704
229697
229745
229745
229744
229743
229741
229738
229735
229731
229726
229720
229714
229708
229700
229693
229741
229740
229739
229738
229736
229734
229730
229726
229721
229716
229710
229703
229696
229689
229736
229735
229734
229733
229731
229729
229725
229721
229716
229711
229705
229698
229691
229684
229730
229729
229729
229727
229726
229723
229720
229716
229711
229705
229700
229693
229686
229679
229723
229723
229722
229721
229719
229717
229714
229710
229705
229700
229695
229688
229682
229675
229037
229037
229036
229035
229034
229032
229029
229026
229023
229019
229015
229011
229006
229001
229037
229036
229036
229036
229034
229032
229030
229027
229023
229019
229015
229010
229006
229001
229036
229036
229036
229035
229034
229032
229030
229027
229024
229020
229015
229011
229006
229001
229035
229035
229035
229034
229033
229032
229029
229027
229023
229019
229015
229010
229005
229000
229033
229034
229034
229033
229032
229031
229028
229026
229022
229018
229014
229009
229005
228999
229031
229032
229032
229031
229030
229029
229027
229024
229021
229017
229013
229008
229003
228998
229029
229030
229030
229029
229028
229027
229025
229022
229019
229015
229011
229006
229001
228996
229026
229027
229027
229026
229025
229024
229022
229019
229016
229012
229008
229003
228999
228994
229023
229023
229023
229023
229022
229021
229019
229016
229013
229009
229005
229000
228996
228991
229020
229020
229020
229019
229018
229017
229015
229012
229009
229005
229001
228997
228992
228987
229016
229015
229015
229015
229014
229012
229010
229008
229005
229001
228997
228993
228988
228984
229011
229011
229011
229010
229009
229008
229006
229003
229000
228996
228992
228988
228984
228979
229007
229006
229006
229005
229004
229003
229001
228998
228995
228991
228988
228983
228979
228975
229001
229001
229001
229000
228999
228998
228996
228993
228990
228986
228983
228979
228975
228970
228367
228366
228365
228364
228362
228361
228359
228358
228356
228354
228353
228352
228351
228349
228365
228364
228363
228362
228361
228359
228358
228356
228355
228353
228351
228350
228348
228348
228363
228362
228361
228360
228359
228358
228356
228355
228353
228352
228350
228349
228347
228346
228361
228360
228359
228358
228357
228356
228355
228353
228352
228350
228349
228347
228346
228344
228359
228358
228357
228357
228356
228354
228353
228352
228350
228349
228347
228346
228344
228343
228357
228357
228356
228355
228354
228353
228352
228350
228349
228347
228346
228344
228343
228342
228356
228355
228354
228353
228352
228351
228350
228348
228347
228346
228344
228343
228341
228340
228354
228353
228352
228351
228350
228349
228348
228347
228345
228344
228342
228341
228340
228339
228352
228351
228350
228349
228348
228347
228346
228345
228343
228342
228341
228339
228338
228337
228350
228349
228348
228347
228346
228345
228344
228343
228341
228340
228339
228337
228336
228335
228348
228347
228346
228345
228344
228343
228342
228341
228339
228338
228337
228336
228335
228334
228347
228345
228344
228343
228342
228341
228340
228339
228338
228336
228335
228334
228333
228332
228345
228344
228343
228342
228341
228340
228338
228337
228336
228335
228333
228332
228331
228331
228344
228342
228341
228340
228339
228338
228337
228335
228334
228333
228332
228331
228330
228329
227767
227763
227761
227758
227756
227755
227754
227754
227754
227754
227755
227756
227758
227761
227763
227760
227757
227755
227753
227752
227751
227750
227750
227751
227752
227753
227755
227757
227760
227757
227754
227752
227750
227748
227747
227747
227747
227747
227748
227750
227752
227754
227757
227754
227751
227749
227747
227746
227745
227744
227744
227745
227746
227747
227749
227751
227755
227752
227749
227747
227745
227743
227742
227742
227742
227742
227744
227745
227747
227749
227753
227750
227747
227745
227743
227741
227740
227740
227740
227741
227742
227743
227746
227748
227752
227749
227746
227744
227742
227740
227739
227739
227739
227739
227741
227742
227744
227747
227751
227748
227745
227743
227741
227739
227738
227738
227738
227739
227740
227741
227744
227746
227750
227747
227745
227742
227740
227739
227738
227738
227738
227738
227740
227741
227743
227746
227750
227748
227745
227743
227741
227739
227738
227738
227738
227739
227740
227741
227744
227746
227751
227748
227745
227743
227741
227740
227739
227739
227739
227739
227741
227742
227744
227747
227752
227749
227747
227744
227743
227741
227740
227740
227740
227741
227742
227743
227745
227748
227754
227751
227749
227746
227745
227743
227742
227742
227742
227742
227743
227745
227747
227749
227757
227753
227751
227748
227747
227745
227744
227744
227744
227744
227745
227747
227749
227752
227238
227233
227230
227226
227224
227223
227222
227222
227223
227224
227226
227229
227232
227237
227234
227229
227226
227222
227220
227218
227217
227217
227218
227220
227222
227225
227228
227232
227230
227226
227222
227218
227216
227214
227213
227213
227214
227216
227218
227221
227224
227228
227227
227223
227218
227215
227212
227211
227210
227210
227211
227212
227214
227217
227221
227225
227225
227220
227216
227212
227210
227208
227207
227207
227208
227209
227212
227215
227219
227223
227223
227218
227214
227211
227208
227206
227205
227205
227206
227207
227210
227213
227217
227221
227222
227217
227213
227209
227207
227205
227204
227204
227205
227206
227209
227212
227216
227220
227221
227217
227213
227209
227207
227205
227204
227204
227204
227206
227209
227212
227216
227220
227221
227217
227213
227210
227207
227206
227204
227204
227205
227207
227209
227213
227217
227221
227223
227219
227215
227211
227209
227207
227206
227206
227207
227208
227211
227214
227218
227222
227225
227221
227217
227214
227211
227210
227208
227208
227209
227211
227213
227216
227220
227224
227227
227224
227220
227217
227214
227213
227212
227211
227212
227213
227216
227219
227223
227227
227231
227227
227224
227221
227218
227217
227215
227215
227216
227217
227219
227222
227226
227230
227236
227231
227228
227225
227222
227221
227220
227219
227220
227221
227223
227225
227229
227234
226772
226767
226764
226761
226759
226758
226757
226757
226758
226759
226761
226763
226766
226769
226768
226764
226760
226758
226755
226754
226753
226753
226754
226755
226757
226759
226762
226765
226765
226761
226757
226754
226752
226750
226749
226749
226750
226751
226753
226756
226759
226762
226762
226758
226754
226751
226749
226747
226746
226746
226747
226748
226750
226753
226756
226759
226760
226756
226752
226749
226747
226745
226744
226744
226745
226746
226748
226751
226754
226757
226758
226754
226751
226748
226745
226744
226743
226742
226743
226745
226747
226749
226753
226756
226758
226753
226750
226747
226744
226743
226742
226742
226742
226744
226746
226749
226752
226756
226757
226753
226750
226747
226744
226743
226742
226742
226742
226744
226746
226749
226752
226756
226758
226754
226750
226747
226745
226743
226743
226742
226743
226744
226747
226749
226753
226756
226759
226755
226752
226749
226747
226745
226744
226744
226745
226746
226748
226751
226754
226758
226761
226757
226754
226751
226749
226747
226746
226746
226747
226748
226750
226753
226756
226760
226764
226760
226757
226754
226752
226750
226749
226749
226749
226751
226753
226755
226759
226762
226767
226764
226760
226758
226755
226754
226753
226752
226753
226754
226756
226758
226761
226765
226771
226767
226764
226761
226759
226757
226756
226756
226756
226757
226759
226761
226764
226768
226352
226350
226349
226347
226346
226345
226345
226345
226345
226345
226346
226347
226348
226349
226351
226349
226347
226346
226344
226343
226343
226343
226343
226343
226344
226345
226346
226347
226349
226347
226345
226344
226343
226342
226341
226341
226341
226341
226342
226343
226344
226345
226348
226346
226344
226342
226341
226340
226340
226339
226339
226340
226340
226341
226343
226344
226347
226345
226343
226341
226340
226339
226338
226338
226338
226339
226339
226340
226341
226343
226346
226344
226342
226341
226339
226338
226338
226337
226337
226338
226339
226339
226341
226342
226345
226343
226342
226340
226339
226338
226337
226337
226337
226337
226338
226339
226340
226342
226345
226343
226342
226340
226339
226338
226337
226337
226337
226337
226338
226339
226340
226342
226345
226344
226342
226340
226339
226338
226337
226337
226337
226338
226338
226339
226341
226342
226346
226344
226342
226341
226340
226339
226338
226338
226338
226338
226339
226340
226341
226343
226347
226345
226343
226342
226340
226340
226339
226339
226339
226339
226340
226341
226342
226343
226348
226346
226344
226343
226342
226341
226340
226340
226340
226340
226341
226342
226343
226344
226349
226348
226346
226345
226343
226342
226341
226341
226341
226341
226342
226343
226344
226346
226351
226349
226347
226346
226345
226344
226343
226343
226342
226343
226343
226344
226345
226346
225967
225968
225968
225969
225969
225969
225969
225968
225968
225967
225966
225965
225965
225963
225968
225969
225969
225969
225969
225969
225969
225969
225968
225967
225967
225966
225965
225964
225968
225969
225969
225970
225970
225970
225970
225969
225969
225968
225967
225966
225965
225964
225968
225969
225970
225970
225970
225970
225970
225969
225969
225968
225967
225966
225965
225964
225969
225969
225970
225970
225970
225970
225970
225970
225969
225968
225968
225967
225965
225964
225969
225969
225970
225970
225970
225970
225970
225970
225969
225969
225968
225967
225965
225964
225969
225969
225970
225970
225970
225970
225970
225970
225969
225968
225968
225967
225965
225964
225969
225969
225970
225970
225970
225970
225970
225969
225969
225968
225967
225966
225965
225964
225968
225969
225969
225970
225970
225970
225970
225969
225969
225968
225967
225966
225965
225964
225968
225968
225969
225969
225969
225969
225969
225968
225968
225967
225966
225965
225964
225963
225967
225968
225968
225968
225968
225968
225968
225968
225967
225967
225966
225965
225964
225962
225967
225967
225967
225967
225967
225967
225967
225967
225966
225966
225965
225964
225963
225962
225966
225966
225966
225967
225966
225966
225966
225966
225965
225965
225964
225963
225962
225961
225964
225965
225965
225965
225965
225965
225965
225965
225964
225963
225963
225962
225961
225960
225605
225608
225610
225612
225613
225613
225613
225613
225612
225611
225609
225607
225607
225610
225612
225614
225615
225616
225616
225615
225614
225613
225611
225609
225609
225612
225614
225616
225617
225618
225618
225618
225617
225615
225613
225611
225611
225613
225616
225617
225619
225620
225620
225619
225618
225617
225615
225613
225612
225615
225617
225619
225620
225621
225621
225621
225620
225618
225616
225614
225613
225615
225618
225619
225621
225622
225622
225621
225621
225619
225617
225615
225613
225616
225618
225620
225621
225622
225622
225622
225621
225619
225617
225615
225613
225615
225618
225619
225621
225622
225622
225621
225620
225619
225617
225614
225612
225615
225617
225619
225620
225621
225621
225620
225619
225618
225616
225613
225611
225613
225615
225617
225618
225619
225619
225619
225618
225617
225615
225612
225609
225611
225614
225615
225616
225617
225617
225617
225616
225615
225613
225610
225607
225609
225611
225613
225614
225615
225615
225614
225614
225612
225610
225608
225605
225607
225608
225610
225611
225612
225612
225611
225611
225609
225608
225605
225601
225603
225605
225606
225608
225608
225608
225608
225608
225606
225605
225603
238603
238707
238795
238885
238968
239049
238553
238665
238767
238873
238973
239069
238524
238646
238759
238873
238979
239079
238496
238624
238745
238863
238972
239074
237902
237972
238035
238094
238152
238211
237880
237959
238038
238117
238193
238267
237878
237967
238056
238144
238228
238308
237872
237969
238066
238159
238247
238328
237868
237970
238071
238166
238254
238335
237866
237969
238071
238165
238252
238331
237865
237969
238068
238161
238245
238320
237139
237160
237181
237203
237224
237243
237159
237189
237220
237250
237280
237308
237180
237219
237257
237294
237329
237363
237198
237244
237288
237329
237369
237405
237216
237266
237314
237358
237399
237436
237233
237286
237336
237381
237421
237456
237249
237304
237355
237399
237436
237468
237266
237320
237370
237412
237448
237476
237282
237335
237384
237424
237457
237482
237299
237349
237396
237434
237466
237489
237317
237365
237409
237445
237477
237498
237337
237381
237422
237457
237487
237510
237355
237396
237434
237468
237499
237523
237382
237418
237449
237482
237511
237537
236317
236298
236284
236265
236248
236230
236359
236340
236327
236311
236297
236281
236394
236381
236371
236357
236345
236331
236430
236421
236413
236402
236390
236377
236463
236458
236452
236443
236432
236419
236495
236493
236489
236481
236471
236457
236524
236525
236523
236515
236505
236491
236552
236554
236553
236547
236536
236522
236579
236581
236581
236575
236564
236550
236604
236607
236606
236602
236592
236578
236628
236631
236632
236629
236620
236607
236652
236655
236657
236655
236649
236639
236675
236679
236683
236683
236681
236674
236699
236705
236710
236712
236713
236711
235424
235378
235341
235300
235262
235224
235468
235419
235379
235334
235293
235252
235505
235457
235415
235370
235328
235285
235545
235497
235455
235409
235365
235321
235582
235536
235494
235448
235404
235360
235618
235575
235533
235488
235445
235401
235652
235612
235571
235528
235486
235443
235684
235647
235608
235567
235526
235485
235714
235680
235643
235605
235566
235527
235741
235711
235677
235642
235606
235569
235768
235742
235711
235680
235647
235613
235792
235771
235744
235718
235689
235659
235817
235801
235779
235758
235734
235708
235842
235830
235813
235797
235779
235760
234488
234435
234394
234348
234307
234266
234520
234463
234417
234367
234322
234276
234548
234491
234440
234388
234340
234291
234581
234521
234468
234414
234363
234313
234612
234552
234497
234442
234391
234340
234643
234583
234528
234474
234422
234372
234672
234615
234560
234508
234457
234409
234701
234646
234594
234543
234495
234448
234728
234678
234627
234580
234534
234490
234754
234708
234661
234617
234575
234534
234780
234739
234697
234657
234618
234580
234803
234769
234732
234697
234663
234629
234828
234801
234770
234740
234711
234681
234849
234830
234804
234781
234758
234735
233572
233529
233494
233457
233424
233391
233590
233545
233506
233465
233427
233391
233607
233558
233515
233473
233433
233394
233627
233576
233530
233485
233443
233402
233646
233594
233547
233501
233458
233416
233667
233614
233565
233519
233476
233435
233687
233635
233586
233541
233499
233459
233707
233657
233610
233566
233525
233487
233727
233680
233635
233594
233556
233519
233747
233704
233662
233624
233589
233554
233767
233729
233691
233656
233624
233593
233785
233754
233720
233690
233661
233633
233806
233780
233753
233726
233702
233677
233822
233804
233781
233761
233742
233723
232728
232699
232674
232650
232627
232605
232736
232706
232678
232651
232624
232598
232741
232709
232679
232649
232622
232594
232750
232716
232683
232652
232623
232594
232759
232723
232689
232657
232627
232598
232768
232732
232697
232665
232634
232605
232778
232742
232708
232675
232645
232616
232789
232754
232720
232688
232659
232631
232800
232767
232735
232705
232677
232650
232812
232781
232751
232723
232697
232672
232823
232796
232769
232743
232720
232697
232834
232811