/*--------------------------------*- C++ -*----------------------------------*\
| =========                 |                                                 |
| \\      /  F ield         | OpenFOAM: The Open Source CFD Toolbox           |
|  \\    /   O peration     | Version:  v2106                                 |
|   \\  /    A nd           | Website:  www.openfoam.com                      |
|    \\/     M anipulation  |                                                 |
\*---------------------------------------------------------------------------*/
FoamFile
{
    version     2.0;
    format      ascii;
    arch        "LSB;label=32;scalar=64";
    class       volScalarField;
    location    "0.000213";
    object      alphat;
}
// * * * * * * * * * * * * * * * * * * * * * * * * * * * * * * * * * * * * * //

dimensions      [1 -1 -1 0 0 0 0];

internalField   nonuniform List<scalar> 
144746
(
8.68012e-05
6.76327e-05
5.33508e-05
4.54806e-05
4.42585e-05
4.70776e-05
5.21198e-05
5.70036e-05
6.10349e-05
6.54969e-05
6.99927e-05
7.75705e-05
9.06441e-05
0.000105245
6.12734e-05
4.45585e-05
3.29971e-05
2.57276e-05
2.29133e-05
2.32763e-05
2.62191e-05
3.06128e-05
3.57306e-05
4.11199e-05
4.84162e-05
5.59769e-05
6.66389e-05
8.31165e-05
4.25375e-05
3.01809e-05
2.19983e-05
1.63462e-05
1.33362e-05
1.24098e-05
1.34798e-05
1.62634e-05
2.04081e-05
2.54214e-05
3.11567e-05
3.89428e-05
4.64878e-05
6.06434e-05
3.11983e-05
2.19218e-05
1.55634e-05
1.10643e-05
8.37172e-06
7.12211e-06
7.24786e-06
8.75547e-06
1.16316e-05
1.56466e-05
2.03668e-05
2.50328e-05
3.0781e-05
4.22007e-05
2.44454e-05
1.64993e-05
1.10381e-05
7.39177e-06
5.21647e-06
4.11897e-06
3.93689e-06
4.70461e-06
6.57699e-06
9.56165e-06
1.33569e-05
1.73564e-05
2.1951e-05
3.02334e-05
1.95162e-05
1.21496e-05
7.46999e-06
4.63085e-06
3.04206e-06
2.25751e-06
2.06594e-06
2.48044e-06
3.69012e-06
5.83678e-06
8.81722e-06
1.22626e-05
1.61086e-05
2.33522e-05
1.52385e-05
8.49796e-06
4.70111e-06
2.65899e-06
1.61939e-06
1.13963e-06
1.02665e-06
1.28906e-06
2.09911e-06
3.6496e-06
5.98048e-06
8.94523e-06
1.26056e-05
1.96805e-05
1.15937e-05
5.71827e-06
2.79688e-06
1.41609e-06
7.90752e-07
5.32167e-07
4.95468e-07
6.97836e-07
1.28712e-06
2.45956e-06
4.33611e-06
6.92559e-06
1.05392e-05
1.80974e-05
9.00823e-06
3.98915e-06
1.72575e-06
7.67963e-07
3.84475e-07
2.51131e-07
2.63861e-07
4.48658e-07
9.32542e-07
1.89804e-06
3.50464e-06
5.90114e-06
9.74766e-06
1.82354e-05
8.02899e-06
3.38871e-06
1.36773e-06
5.55782e-07
2.56752e-07
1.70867e-07
2.07682e-07
3.95007e-07
8.47874e-07
1.74087e-06
3.27194e-06
5.76619e-06
1.03214e-05
1.98965e-05
9.00814e-06
3.9804e-06
1.67729e-06
7.11656e-07
3.51574e-07
2.49085e-07
2.89649e-07
4.93264e-07
9.72512e-07
1.91573e-06
3.60122e-06
6.63244e-06
1.24111e-05
2.29299e-05
1.27071e-05
6.40955e-06
3.13131e-06
1.50004e-06
7.98911e-07
5.62685e-07
5.72902e-07
8.04842e-07
1.36902e-06
2.4995e-06
4.63185e-06
8.69895e-06
1.61667e-05
2.75136e-05
1.93273e-05
1.11469e-05
6.38889e-06
3.57258e-06
2.05608e-06
1.39923e-06
1.26763e-06
1.51779e-06
2.22129e-06
3.66551e-06
6.46906e-06
1.19448e-05
2.12539e-05
3.32828e-05
2.77825e-05
1.7593e-05
1.15236e-05
7.59039e-06
4.96724e-06
3.45784e-06
2.88243e-06
3.02829e-06
3.86382e-06
5.66057e-06
9.09795e-06
1.58868e-05
2.66783e-05
3.91672e-05
7.40571e-05
5.39832e-05
4.03564e-05
3.23007e-05
2.92873e-05
2.91819e-05
3.08197e-05
3.28327e-05
3.48557e-05
3.66508e-05
4.15515e-05
4.89745e-05
6.39691e-05
8.13731e-05
4.61724e-05
3.19399e-05
2.36255e-05
1.84155e-05
1.59199e-05
1.54038e-05
1.64022e-05
1.826e-05
2.06867e-05
2.32827e-05
2.64699e-05
3.27882e-05
4.3223e-05
5.96156e-05
2.71176e-05
1.91422e-05
1.42243e-05
1.09346e-05
9.07665e-06
8.40001e-06
8.7822e-06
1.00282e-05
1.20425e-05
1.46065e-05
1.77622e-05
2.1771e-05
2.91478e-05
4.04307e-05
1.82282e-05
1.25793e-05
9.05192e-06
6.74794e-06
5.3552e-06
4.70433e-06
4.74816e-06
5.46593e-06
6.89043e-06
8.98421e-06
1.17127e-05
1.49875e-05
1.92229e-05
2.74275e-05
1.39504e-05
8.95645e-06
6.00242e-06
4.20238e-06
3.14622e-06
2.61647e-06
2.53769e-06
2.91791e-06
3.86142e-06
5.44482e-06
7.64225e-06
1.04183e-05
1.39116e-05
1.97479e-05
1.12461e-05
6.54736e-06
3.97192e-06
2.54259e-06
1.76632e-06
1.38556e-06
1.29659e-06
1.50326e-06
2.12004e-06
3.26861e-06
5.00001e-06
7.31243e-06
1.03029e-05
1.49805e-05
9.06017e-06
4.74218e-06
2.555e-06
1.46052e-06
9.24403e-07
6.80364e-07
6.22009e-07
7.48635e-07
1.16011e-06
1.99236e-06
3.3451e-06
5.27885e-06
7.90967e-06
1.20756e-05
7.4263e-06
3.49035e-06
1.64469e-06
8.14604e-07
4.54956e-07
3.09823e-07
2.84214e-07
3.77924e-07
6.72679e-07
1.29821e-06
2.38224e-06
4.02945e-06
6.42345e-06
1.0464e-05
6.45313e-06
2.77572e-06
1.1535e-06
4.85731e-07
2.28492e-07
1.40178e-07
1.36905e-07
2.20801e-07
4.60507e-07
9.73929e-07
1.8988e-06
3.38083e-06
5.69612e-06
9.84625e-06
6.40678e-06
2.64682e-06
1.02705e-06
3.86129e-07
1.55454e-07
8.63827e-08
9.39397e-08
1.79655e-07
4.0589e-07
8.84487e-07
1.76151e-06
3.22649e-06
5.67067e-06
1.01287e-05
7.37942e-06
3.09409e-06
1.22313e-06
4.69957e-07
1.96647e-07
1.15579e-07
1.24549e-07
2.20365e-07
4.65204e-07
9.75853e-07
1.9196e-06
3.54903e-06
6.34086e-06
1.13048e-05
1.00352e-05
4.5138e-06
1.97369e-06
8.58784e-07
4.123e-07
2.63565e-07
2.58266e-07
3.72867e-07
6.70309e-07
1.28554e-06
2.4312e-06
4.44171e-06
7.83081e-06
1.36527e-05
1.45743e-05
7.135e-06
3.5632e-06
1.82806e-06
1.00449e-06
6.71081e-07
6.10112e-07
7.48428e-07
1.13582e-06
1.93192e-06
3.42546e-06
6.11632e-06
1.08091e-05
1.77304e-05
2.0903e-05
1.09324e-05
6.13675e-06
3.68816e-06
2.32669e-06
1.64134e-06
1.4313e-06
1.57816e-06
2.0907e-06
3.14423e-06
5.12407e-06
8.82848e-06
1.52993e-05
2.3676e-05
5.47901e-05
3.85481e-05
2.77618e-05
2.12235e-05
1.80185e-05
1.69724e-05
1.73442e-05
1.84059e-05
2.00697e-05
2.17518e-05
2.34257e-05
2.55485e-05
3.33094e-05
4.99723e-05
2.88113e-05
2.02705e-05
1.46504e-05
1.11713e-05
9.35388e-06
8.72408e-06
8.98665e-06
9.80299e-06
1.11336e-05
1.27206e-05
1.45599e-05
1.67584e-05
2.1038e-05
3.3029e-05
1.64505e-05
1.08992e-05
7.74146e-06
5.88967e-06
4.88788e-06
4.50156e-06
4.62513e-06
5.14468e-06
6.07156e-06
7.33051e-06
8.97003e-06
1.1043e-05
1.45111e-05
2.10927e-05
1.17379e-05
6.81459e-06
4.42848e-06
3.21635e-06
2.59472e-06
2.33321e-06
2.361e-06
2.64697e-06
3.2396e-06
4.16264e-06
5.4782e-06
7.27938e-06
1.00777e-05
1.46905e-05
9.20548e-06
4.76226e-06
2.74427e-06
1.81839e-06
1.38156e-06
1.19334e-06
1.17769e-06
1.32191e-06
1.68195e-06
2.32593e-06
3.33583e-06
4.82287e-06
7.09335e-06
1.06674e-05
7.37817e-06
3.49382e-06
1.78084e-06
1.04121e-06
7.19452e-07
5.85712e-07
5.60876e-07
6.32798e-07
8.49218e-07
1.28906e-06
2.04666e-06
3.2465e-06
5.09971e-06
8.02589e-06
6.00665e-06
2.64938e-06
1.1991e-06
6.02228e-07
3.62439e-07
2.70286e-07
2.50725e-07
2.90675e-07
4.26146e-07
7.2966e-07
1.29868e-06
2.26235e-06
3.80345e-06
6.2863e-06
5.26762e-06
2.19214e-06
8.88959e-07
3.75109e-07
1.84689e-07
1.18936e-07
1.064e-07
1.33849e-07
2.28148e-07
4.51025e-07
8.95144e-07
1.68889e-06
3.01314e-06
5.19989e-06
5.00913e-06
2.00315e-06
7.51632e-07
2.74071e-07
1.0718e-07
5.49279e-08
4.73103e-08
7.13175e-08
1.48805e-07
3.33345e-07
7.11803e-07
1.41009e-06
2.61372e-06
4.64376e-06
5.3657e-06
2.11897e-06
7.72814e-07
2.63601e-07
8.92029e-08
3.71709e-08
3.11313e-08
5.62712e-08
1.32758e-07
3.11375e-07
6.76361e-07
1.35248e-06
2.53238e-06
4.53889e-06
6.20733e-06
2.46069e-06
9.09768e-07
3.19642e-07
1.139e-07
5.12179e-08
4.37342e-08
7.32306e-08
1.60584e-07
3.59439e-07
7.5789e-07
1.48376e-06
2.74107e-06
4.86569e-06
8.08181e-06
3.28839e-06
1.29035e-06
5.07686e-07
2.15216e-07
1.17203e-07
1.01014e-07
1.38774e-07
2.51406e-07
5.00131e-07
9.83264e-07
1.83729e-06
3.27946e-06
5.66458e-06
1.08998e-05
4.57597e-06
1.96991e-06
9.14144e-07
4.73205e-07
3.01375e-07
2.62251e-07
3.13579e-07
4.71719e-07
8.08903e-07
1.44292e-06
2.54407e-06
4.37156e-06
7.24437e-06
1.52168e-05
6.5163e-06
3.07328e-06
1.67739e-06
1.04002e-06
7.5029e-07
6.67198e-07
7.43139e-07
9.85077e-07
1.4799e-06
2.37591e-06
3.94904e-06
6.63324e-06
1.05964e-05
0.000124101
0.000147756
0.000165159
0.00017439
0.000176349
0.000231363
0.000103436
0.000133492
0.000158553
0.000173836
0.000185079
0.000257299
8.38906e-05
0.000120767
0.000152111
0.000170779
0.000188816
0.000281286
6.65431e-05
0.000109259
0.000145703
0.000165154
0.000187494
0.000301751
5.29107e-05
9.89699e-05
0.000138178
0.000157837
0.000183199
0.00031922
4.40405e-05
8.92635e-05
0.000129226
0.000149779
0.000177725
0.000332869
4.02896e-05
8.01304e-05
0.00011792
0.000141316
0.000172547
0.000342414
3.85759e-05
7.22568e-05
0.000105914
0.00013242
0.000167611
0.000346388
3.74588e-05
6.44356e-05
9.4054e-05
0.000123227
0.000162751
0.000344077
3.67793e-05
5.76373e-05
8.34439e-05
0.000114376
0.000158043
0.000333872
3.7069e-05
5.33527e-05
7.57626e-05
0.000107011
0.000153435
0.000317012
3.88682e-05
5.21935e-05
7.19092e-05
0.000102061
0.00014805
0.000292667
4.18611e-05
5.35065e-05
7.20393e-05
0.000100686
0.000143984
0.000263882
4.46873e-05
5.62295e-05
7.49982e-05
0.000102337
0.000141836
0.00023165
0.000101891
0.000127423
0.000149584
0.000166016
0.000174876
0.000212581
7.67151e-05
0.000103013
0.000131599
0.000157332
0.000178883
0.000235949
5.64675e-05
8.35569e-05
0.000116695
0.000148888
0.000179292
0.000257254
4.11743e-05
6.82102e-05
0.000104469
0.000140753
0.000175615
0.000274622
3.12693e-05
5.69903e-05
9.46124e-05
0.000132472
0.000169192
0.00028919
2.4877e-05
4.90311e-05
8.6712e-05
0.000124631
0.000163266
0.000301076
2.14231e-05
4.32317e-05
7.90992e-05
0.000116496
0.000157996
0.000310685
1.9671e-05
3.95748e-05
7.16059e-05
0.000108189
0.000154298
0.000315782
1.89589e-05
3.63764e-05
6.4081e-05
9.98606e-05
0.000151147
0.000314158
1.89208e-05
3.34197e-05
5.69666e-05
9.1669e-05
0.000147173
0.000304303
1.95704e-05
3.15118e-05
5.16307e-05
8.47432e-05
0.00014233
0.000286967
2.13046e-05
3.15251e-05
4.92279e-05
8.03203e-05
0.000136727
0.000263432
2.44292e-05
3.38426e-05
5.03943e-05
7.96061e-05
0.000132786
0.00023605
2.79658e-05
3.74835e-05
5.42315e-05
8.19111e-05
0.000130302
0.000205223
7.02088e-05
9.79145e-05
0.000125042
0.000146011
0.000164657
0.000185007
4.86735e-05
7.09217e-05
9.7162e-05
0.000124937
0.000157538
0.000203838
3.28319e-05
5.13219e-05
7.58852e-05
0.000107483
0.000150671
0.00022069
2.21237e-05
3.79708e-05
6.04795e-05
9.34631e-05
0.000140784
0.000235479
1.66409e-05
2.90149e-05
4.9959e-05
8.29495e-05
0.000131521
0.00024849
1.3109e-05
2.33166e-05
4.29637e-05
7.55291e-05
0.000124172
0.000260407
1.0733e-05
1.96519e-05
3.81592e-05
6.94612e-05
0.00011862
0.00027089
9.24304e-06
1.7481e-05
3.48103e-05
6.44341e-05
0.00011552
0.000277386
8.49152e-06
1.62536e-05
3.20242e-05
6.00416e-05
0.000113629
0.000277099
8.30888e-06
1.5433e-05
2.94452e-05
5.60541e-05
0.000111296
0.000268263
8.62066e-06
1.50083e-05
2.73939e-05
5.25755e-05
0.000107879
0.000251258
9.46868e-06
1.52551e-05
2.64761e-05
5.02262e-05
0.000103537
0.00022786
1.1092e-05
1.67341e-05
2.7558e-05
5.02783e-05
0.000100264
0.000200677
1.3205e-05
1.91427e-05
3.06483e-05
5.30291e-05
9.80658e-05
0.000171179
4.64496e-05
6.06206e-05
8.12346e-05
0.000108201
0.000145884
0.000233948
3.28725e-05
4.57481e-05
6.68278e-05
9.75642e-05
0.000143681
0.000253052
2.14613e-05
3.28771e-05
5.39322e-05
8.71169e-05
0.000139324
0.000269529
1.39711e-05
2.3762e-05
4.41107e-05
7.80371e-05
0.000133203
0.000282518
9.94872e-06
1.86326e-05
3.76354e-05
7.01703e-05
0.000126109
0.000294291
7.87693e-06
1.65006e-05
3.45068e-05
6.48121e-05
0.000120076
0.000305033
7.09048e-06
1.59507e-05
3.33143e-05
6.12892e-05
0.000117402
0.000315599
7.34795e-06
1.63757e-05
3.28025e-05
5.94945e-05
0.000119094
0.000324578
8.50546e-06
1.72523e-05
3.23071e-05
5.89574e-05
0.000126514
0.000330099
1.04212e-05
1.84062e-05
3.2233e-05
6.08283e-05
0.000138349
0.000329174
1.29685e-05
2.02025e-05
3.39651e-05
6.69984e-05
0.000153411
0.00032047
1.64802e-05
2.38803e-05
3.98939e-05
7.95838e-05
0.000171462
0.000303443
2.21062e-05
3.17216e-05
5.32143e-05
0.000100751
0.000194725
0.00027912
3.13238e-05
4.63904e-05
7.65539e-05
0.000131429
0.000224189
0.000247869
3.06793e-05
4.23815e-05
6.00512e-05
8.73626e-05
0.000132811
0.00020434
2.09198e-05
3.06802e-05
4.65778e-05
7.33665e-05
0.000121659
0.000219124
1.31746e-05
2.10784e-05
3.50816e-05
6.09695e-05
0.000110212
0.000231045
8.48545e-06
1.46011e-05
2.6653e-05
5.08098e-05
9.95573e-05
0.000240335
5.88069e-06
1.10202e-05
2.15352e-05
4.35819e-05
9.13369e-05
0.00024915
4.42e-06
9.06025e-06
1.88049e-05
3.93583e-05
8.72712e-05
0.000258479
3.7075e-06
8.13683e-06
1.75263e-05
3.7468e-05
8.86593e-05
0.000269558
3.56336e-06
7.95123e-06
1.72206e-05
3.77986e-05
9.6078e-05
0.000281645
3.94595e-06
8.32079e-06
1.76966e-05
4.07004e-05
0.00011091
0.000292232
4.84366e-06
9.22094e-06
1.92489e-05
4.73237e-05
0.000131963
0.000297157
6.29679e-06
1.09238e-05
2.30102e-05
5.90106e-05
0.00015649
0.000293817
8.70698e-06
1.44614e-05
3.07913e-05
7.65871e-05
0.000181603
0.000281128
1.34053e-05
2.22211e-05
4.55034e-05
0.00010102
0.000205637
0.000260046
2.27885e-05
3.81549e-05
7.09111e-05
0.000132819
0.000227977
0.000230597
1.52074e-05
2.28445e-05
3.57271e-05
5.8526e-05
9.90082e-05
0.000165735
1.04085e-05
1.66853e-05
2.75307e-05
4.76588e-05
8.72819e-05
0.000175921
6.66149e-06
1.16289e-05
2.0504e-05
3.81392e-05
7.65257e-05
0.000183865
4.41212e-06
8.1738e-06
1.53139e-05
3.07209e-05
6.86659e-05
0.000190905
3.08199e-06
6.14018e-06
1.21456e-05
2.60847e-05
6.46008e-05
0.000198293
2.28027e-06
4.86741e-06
1.02385e-05
2.37284e-05
6.49878e-05
0.000208204
1.85112e-06
4.1678e-06
9.37316e-06
2.37509e-05
7.11209e-05
0.000221496
1.69377e-06
3.91983e-06
9.50523e-06
2.66544e-05
8.4646e-05
0.000237416
1.80161e-06
4.16797e-06
1.09672e-05
3.36276e-05
0.000106393
0.000252956
2.19313e-06
5.06744e-06
1.44318e-05
4.57383e-05
0.000134824
0.000263745
2.9765e-06
7.0046e-06
2.07391e-05
6.31476e-05
0.000166912
0.000266313
4.49029e-06
1.05904e-05
3.03343e-05
8.45804e-05
0.000198236
0.000258355
7.71239e-06
1.735e-05
4.43209e-05
0.00010894
0.000222318
0.000240468
1.54338e-05
3.19205e-05
6.77081e-05
0.000136617
0.000230148
0.000212041
0.000241279
0.000236459
0.000207189
0.000163976
0.000123132
9.52246e-05
0.000273559
0.000231135
0.000183209
0.00013164
9.32256e-05
7.13781e-05
0.000301549
0.00022855
0.000161781
0.000106806
7.07722e-05
5.21033e-05
0.000326979
0.000227229
0.000148803
9.29795e-05
5.83161e-05
4.05516e-05
0.000343523
0.000223477
0.000143643
8.76572e-05
5.29091e-05
3.40883e-05
0.000351696
0.00022305
0.000141701
8.64658e-05
5.08336e-05
3.03064e-05
0.000353757
0.000226291
0.000141263
8.5943e-05
4.86978e-05
2.65915e-05
0.000351468
0.000233649
0.000141876
8.34059e-05
4.49633e-05
2.26164e-05
0.00034428
0.000244966
0.00014314
7.96957e-05
4.07138e-05
1.92314e-05
0.000333184
0.000256487
0.000145362
7.75715e-05
3.8494e-05
1.78222e-05
0.000317555
0.00026395
0.000150288
8.03431e-05
4.04972e-05
1.94047e-05
0.000298375
0.000265481
0.000156429
8.80595e-05
4.74151e-05
2.48229e-05
0.00027445
0.00025992
0.000161881
9.80918e-05
5.76798e-05
3.37602e-05
0.000247998
0.000247503
0.000165338
0.000108715
6.99735e-05
4.50955e-05
0.000228621
0.000261879
0.0002103
0.000156701
0.000111063
8.08172e-05
0.000260233
0.000258422
0.00018856
0.000125531
8.02647e-05
5.48885e-05
0.000287252
0.000257921
0.000171092
0.000102206
5.82603e-05
3.65551e-05
0.000309535
0.000258672
0.000159258
8.8855e-05
4.70559e-05
2.69037e-05
0.000324734
0.000257326
0.0001514
8.03701e-05
4.17587e-05
2.26885e-05
0.000333499
0.000253136
0.000142599
7.59223e-05
3.88892e-05
1.99394e-05
0.000335932
0.000246439
0.000135475
7.12857e-05
3.57406e-05
1.74285e-05
0.000333024
0.00024143
0.000130138
6.70449e-05
3.29164e-05
1.5402e-05
0.000324851
0.00024046
0.000128041
6.47544e-05
3.12325e-05
1.42097e-05
0.00031296
0.000242948
0.00012999
6.57702e-05
3.18191e-05
1.44817e-05
0.000297303
0.000246269
0.000136217
7.09882e-05
3.52801e-05
1.65492e-05
0.000278611
0.000248253
0.00014559
8.06533e-05
4.25947e-05
2.14009e-05
0.000255789
0.00024702
0.00015491
9.21727e-05
5.25781e-05
2.90142e-05
0.000230353
0.000242596
0.000164874
0.000105925
6.53994e-05
3.94776e-05
0.000212365
0.000269696
0.00020887
0.000145488
9.42058e-05
5.90143e-05
0.000243358
0.000273467
0.00019119
0.000116723
6.6146e-05
3.62742e-05
0.000270082
0.000275763
0.000178555
9.77406e-05
4.91645e-05
2.61773e-05
0.000292628
0.000276586
0.000166362
8.63289e-05
4.30847e-05
2.17976e-05
0.000309023
0.000271042
0.000155504
7.9301e-05
3.86814e-05
1.84887e-05
0.000318952
0.000259724
0.000144003
7.20824e-05
3.4267e-05
1.5631e-05
0.000321535
0.000244252
0.000131536
6.46549e-05
3.00864e-05
1.32712e-05
0.00031734
0.000229382
0.000121394
5.9409e-05
2.75687e-05
1.20044e-05
0.000307112
0.000218234
0.000115586
5.71389e-05
2.67485e-05
1.16681e-05
0.00029263
0.000212541
0.000115382
5.86867e-05
2.81776e-05
1.25654e-05
0.000275234
0.000211688
0.00012056
6.37909e-05
3.15619e-05
1.45148e-05
0.000255618
0.000212721
0.000130769
7.33392e-05
3.82109e-05
1.85935e-05
0.000233357
0.000215601
0.000142952
8.49894e-05
4.70614e-05
2.45943e-05
0.000209024
0.00021992
0.000160175
0.000101904
6.04688e-05
3.41675e-05
0.000226697
0.000174061
0.000168772
0.00015425
0.00013427
0.000114416
0.000256317
0.000173822
0.000163459
0.000144582
0.000122795
0.000104072
0.000283138
0.00017416
0.000159045
0.000137416
0.000113546
9.347e-05
0.000305906
0.000175411
0.000157189
0.000134868
0.000109573
8.80803e-05
0.000324156
0.000178186
0.000158187
0.000137998
0.00011312
8.87402e-05
0.000337572
0.000182566
0.000162167
0.000146439
0.000122896
9.1735e-05
0.000345732
0.000188659
0.000168688
0.00015836
0.000134073
9.43031e-05
0.000347412
0.000197236
0.000178597
0.000171315
0.000143023
9.42053e-05
0.000341922
0.000208383
0.000191406
0.000182265
0.000146004
9.02528e-05
0.000330608
0.000221609
0.000204248
0.000187175
0.000142267
8.51679e-05
0.000314136
0.000235279
0.000214882
0.000186644
0.000136505
8.28034e-05
0.00029421
0.000245018
0.000221636
0.000185624
0.000135954
8.78617e-05
0.000269663
0.000245993
0.000227125
0.000190727
0.000144203
0.00010113
0.000243117
0.000239886
0.000228423
0.00019859
0.000159216
0.000121223
0.000208758
0.000175752
0.000163972
0.000143545
0.000116271
9.21608e-05
0.000237078
0.000178968
0.00016324
0.000135731
0.000103967
8.02734e-05
0.000262263
0.000182448
0.00016304
0.000129812
9.31851e-05
6.72328e-05
0.000283781
0.000186808
0.000165338
0.00012919
8.84747e-05
6.01373e-05
0.000301004
0.000191663
0.000170179
0.000133855
9.00085e-05
5.80856e-05
0.000313862
0.000197014
0.000176686
0.000141435
9.51684e-05
5.63669e-05
0.000321989
0.00020285
0.000183413
0.000149505
9.77243e-05
5.676e-05
0.00032506
0.00020996
0.000190559
0.00015446
9.98302e-05
5.62363e-05
0.000321545
0.000219051
0.000197245
0.000156455
9.94628e-05
5.48602e-05
0.000311314
0.000231986
0.000202116
0.000154641
9.7635e-05
5.44876e-05
0.00029656
0.000247482
0.000205914
0.000152896
9.82455e-05
5.74974e-05
0.000278122
0.000259378
0.000210465
0.000156771
0.000106106
6.70955e-05
0.00025462
0.000261936
0.000219671
0.000169649
0.000121993
8.37107e-05
0.000228641
0.000262753
0.000229688
0.000188113
0.000145921
0.000108259
0.000185843
0.000173088
0.000152973
0.000123646
8.73895e-05
6.03158e-05
0.00021593
0.00018408
0.000158536
0.000115451
7.39423e-05
4.90643e-05
0.000243078
0.000195442
0.000164077
0.000112332
6.67239e-05
4.03782e-05
0.000267727
0.000207249
0.000172046
0.00011496
6.55057e-05
3.67452e-05
0.000288313
0.000218355
0.000180875
0.000119222
6.48526e-05
3.64138e-05
0.000304175
0.000227992
0.000187629
0.000118662
6.62262e-05
3.55435e-05
0.000314183
0.000234461
0.000187143
0.000117542
6.51683e-05
3.39896e-05
0.000317653
0.000236982
0.000182982
0.000115421
6.38312e-05
3.29627e-05
0.000312969
0.000237151
0.000178614
0.000113282
6.30149e-05
3.26818e-05
0.000302098
0.000240658
0.000175207
0.00011206
6.4047e-05
3.42228e-05
0.000284993
0.000246519
0.000177639
0.00011639
6.9753e-05
3.89841e-05
0.000263909
0.000252616
0.000186835
0.000128438
8.23709e-05
4.96667e-05
0.000238446
0.000255131
0.000201983
0.000148071
0.000102186
6.69316e-05
0.000211796
0.000260523
0.000222083
0.000174368
0.000129367
9.19039e-05
2.86664e-05
1.99016e-05
1.40496e-05
1.055e-05
8.79809e-06
8.20042e-06
8.42557e-06
9.17761e-06
1.03984e-05
1.18564e-05
1.34302e-05
1.49517e-05
1.6591e-05
1.98049e-05
1.55287e-05
9.92554e-06
6.76782e-06
5.00279e-06
4.13314e-06
3.84718e-06
3.99141e-06
4.44668e-06
5.20968e-06
6.21157e-06
7.41897e-06
8.74234e-06
1.03387e-05
1.30845e-05
1.05515e-05
5.63475e-06
3.4098e-06
2.38042e-06
1.92579e-06
1.78472e-06
1.85997e-06
2.10545e-06
2.53561e-06
3.15334e-06
3.97373e-06
4.98608e-06
6.35527e-06
8.66342e-06
8.09822e-06
3.7076e-06
1.8895e-06
1.17122e-06
8.97663e-07
8.18126e-07
8.51003e-07
9.72585e-07
1.19731e-06
1.55157e-06
2.07682e-06
2.8182e-06
3.92498e-06
5.81707e-06
6.35526e-06
2.62286e-06
1.13861e-06
5.9939e-07
4.16513e-07
3.66388e-07
3.78377e-07
4.3547e-07
5.4785e-07
7.44725e-07
1.07503e-06
1.60997e-06
2.48781e-06
4.02292e-06
5.01771e-06
1.93152e-06
7.39118e-07
3.24151e-07
1.9303e-07
1.58555e-07
1.61309e-07
1.87416e-07
2.43548e-07
3.54483e-07
5.66137e-07
9.54764e-07
1.64727e-06
2.89364e-06
4.02809e-06
1.48343e-06
5.20653e-07
1.92616e-07
9.23568e-08
6.64139e-08
6.53463e-08
7.74964e-08
1.07355e-07
1.7432e-07
3.17545e-07
6.07174e-07
1.15743e-06
2.1773e-06
3.43018e-06
1.23015e-06
4.09638e-07
1.33273e-07
4.97843e-08
2.806e-08
2.547e-08
3.17489e-08
5.01736e-08
9.61268e-08
2.0237e-07
4.30325e-07
8.82483e-07
1.73878e-06
3.11905e-06
1.10483e-06
3.59378e-07
1.09213e-07
3.36042e-08
1.36039e-08
1.04288e-08
1.45864e-08
2.88728e-08
6.65799e-08
1.56605e-07
3.53777e-07
7.52232e-07
1.51273e-06
3.1728e-06
1.12733e-06
3.67104e-07
1.09844e-07
3.11447e-08
9.93397e-09
6.26199e-09
1.01934e-08
2.45293e-08
6.23717e-08
1.51676e-07
3.44551e-07
7.31837e-07
1.46524e-06
3.47815e-06
1.23195e-06
4.02902e-07
1.23002e-07
3.64764e-08
1.27109e-08
8.72276e-09
1.37854e-08
3.13793e-08
7.62061e-08
1.78304e-07
3.92322e-07
8.12601e-07
1.59135e-06
4.43966e-06
1.57058e-06
5.21928e-07
1.69234e-07
5.87011e-08
2.76206e-08
2.27558e-08
3.08004e-08
5.61799e-08
1.16917e-07
2.47866e-07
5.12064e-07
1.01246e-06
1.91037e-06
5.89469e-06
2.07934e-06
7.23929e-07
2.69557e-07
1.21084e-07
7.59447e-08
6.88653e-08
8.36957e-08
1.25623e-07
2.17492e-07
4.00876e-07
7.55364e-07
1.39393e-06
2.50099e-06
8.64361e-06
3.12896e-06
1.22866e-06
5.56669e-07
3.09911e-07
2.23781e-07
2.07897e-07
2.38157e-07
3.18605e-07
4.78537e-07
7.64982e-07
1.28642e-06
2.15446e-06
3.55862e-06
1.5753e-05
1.0977e-05
8.01341e-06
6.2418e-06
5.38807e-06
5.20629e-06
5.56178e-06
6.30751e-06
7.37165e-06
8.63802e-06
1.00431e-05
1.1531e-05
1.31415e-05
1.54954e-05
9.57829e-06
5.85305e-06
3.98209e-06
2.9873e-06
2.51068e-06
2.38767e-06
2.54968e-06
2.95279e-06
3.58101e-06
4.41029e-06
5.4275e-06
6.60208e-06
7.9981e-06
1.00366e-05
6.94782e-06
3.56738e-06
2.1081e-06
1.45874e-06
1.1727e-06
1.0883e-06
1.15164e-06
1.34804e-06
1.68319e-06
2.17179e-06
2.83274e-06
3.67454e-06
4.78278e-06
6.45426e-06
5.39237e-06
2.40581e-06
1.19729e-06
7.27982e-07
5.454e-07
4.89402e-07
5.10551e-07
5.99751e-07
7.66155e-07
1.03428e-06
1.43788e-06
2.01682e-06
2.86377e-06
4.20257e-06
4.25675e-06
1.71329e-06
7.25253e-07
3.71995e-07
2.50079e-07
2.14029e-07
2.19749e-07
2.58767e-07
3.38116e-07
4.80303e-07
7.21296e-07
1.11477e-06
1.75395e-06
2.81844e-06
3.38088e-06
1.2659e-06
4.70459e-07
1.99589e-07
1.13953e-07
9.02306e-08
9.07584e-08
1.07638e-07
1.45455e-07
2.21546e-07
3.67741e-07
6.37919e-07
1.11942e-06
1.967e-06
2.70733e-06
9.67915e-07
3.29255e-07
1.1757e-07
5.37592e-08
3.69245e-08
3.57373e-08
4.32064e-08
6.22391e-08
1.05516e-07
1.98932e-07
3.90013e-07
7.56978e-07
1.43696e-06
2.2304e-06
7.76689e-07
2.51904e-07
7.99117e-08
2.87696e-08
1.54087e-08
1.36253e-08
1.72398e-08
2.81892e-08
5.59556e-08
1.2134e-07
2.64699e-07
5.55477e-07
1.1164e-06
1.92805e-06
6.68306e-07
2.14556e-07
6.46802e-08
1.95952e-08
7.58591e-09
5.5346e-09
7.72123e-09
1.56226e-08
3.70284e-08
8.96959e-08
2.08969e-07
4.58341e-07
9.50064e-07
1.81982e-06
6.42412e-07
2.10502e-07
6.37376e-08
1.82173e-08
5.7361e-09
3.42025e-09
5.37028e-09
1.29701e-08
3.3699e-08
8.44926e-08
1.98909e-07
4.38615e-07
9.11736e-07
1.86222e-06
6.70109e-07
2.26238e-07
7.13585e-08
2.1664e-08
7.64607e-09
5.14181e-09
7.73883e-09
1.71689e-08
4.19079e-08
1.00356e-07
2.28329e-07
4.91036e-07
1.00027e-06
2.19844e-06
8.0406e-07
2.81363e-07
9.58799e-08
3.45595e-08
1.68326e-08
1.41692e-08
1.88962e-08
3.34186e-08
6.86026e-08
1.46568e-07
3.09869e-07
6.32131e-07
1.23647e-06
2.71318e-06
1.00994e-06
3.7988e-07
1.51642e-07
7.14865e-08
4.66093e-08
4.38988e-08
5.41721e-08
8.06051e-08
1.3792e-07
2.53868e-07
4.83444e-07
9.11597e-07
1.68213e-06
3.73688e-06
1.45467e-06
6.23454e-07
3.05296e-07
1.80278e-07
1.35983e-07
1.32239e-07
1.56745e-07
2.12415e-07
3.1872e-07
5.07847e-07
8.53045e-07
1.44574e-06
2.45136e-06
8.93162e-06
6.33147e-06
4.76936e-06
3.82438e-06
3.37956e-06
3.35944e-06
3.71076e-06
4.36764e-06
5.27247e-06
6.37144e-06
7.62622e-06
9.02249e-06
1.05843e-05
1.26943e-05
5.7226e-06
3.57558e-06
2.50915e-06
1.91778e-06
1.61509e-06
1.54164e-06
1.67186e-06
1.9927e-06
2.49595e-06
3.17991e-06
4.04311e-06
5.08503e-06
6.34295e-06
8.0872e-06
4.13593e-06
2.19822e-06
1.36189e-06
9.65554e-07
7.69886e-07
7.02989e-07
7.41813e-07
8.84494e-07
1.13929e-06
1.52473e-06
2.06269e-06
2.77727e-06
3.72499e-06
5.10108e-06
3.15716e-06
1.44676e-06
7.61283e-07
4.81573e-07
3.58766e-07
3.1343e-07
3.21695e-07
3.81531e-07
5.02578e-07
7.06158e-07
1.02278e-06
1.49293e-06
2.18683e-06
3.25046e-06
2.4719e-06
1.00501e-06
4.44386e-07
2.39362e-07
1.61727e-07
1.34426e-07
1.34725e-07
1.59245e-07
2.14796e-07
3.1907e-07
5.01681e-07
8.07784e-07
1.30953e-06
2.13116e-06
1.95013e-06
7.26786e-07
2.76081e-07
1.22341e-07
7.11938e-08
5.50335e-08
5.38955e-08
6.4044e-08
8.96392e-08
1.43618e-07
2.50584e-07
4.52342e-07
8.15711e-07
1.45171e-06
1.54163e-06
5.43159e-07
1.85227e-07
6.78979e-08
3.19257e-08
2.16939e-08
2.05079e-08
2.49056e-08
3.73727e-08
6.69603e-08
1.32661e-07
2.69574e-07
5.36254e-07
1.03251e-06
1.24026e-06
4.25528e-07
1.37302e-07
4.39419e-08
1.61527e-08
8.6771e-09
7.56161e-09
9.67393e-09
1.65601e-08
3.4658e-08
7.84649e-08
1.76616e-07
3.79871e-07
7.7772e-07
1.04142e-06
3.59161e-07
1.1529e-07
3.48556e-08
1.06277e-08
4.12678e-09
2.9936e-09
4.24515e-09
8.94263e-09
2.20837e-08
5.54467e-08
1.33311e-07
3.01118e-07
6.40803e-07
9.52308e-07
3.41534e-07
1.13647e-07
3.47097e-08
9.94639e-09
3.14892e-09
1.89187e-09
2.97299e-09
7.27243e-09
1.93755e-08
5.01522e-08
1.22249e-07
2.79356e-07
6.0094e-07
9.60912e-07
3.62209e-07
1.26651e-07
4.06089e-08
1.24261e-08
4.532e-09
3.18005e-09
4.67455e-09
1.00298e-08
2.43921e-08
5.95515e-08
1.39771e-07
3.1162e-07
6.58553e-07
1.09654e-06
4.34493e-07
1.60965e-07
5.63799e-08
2.07116e-08
1.06103e-08
9.42084e-09
1.25438e-08
2.14025e-08
4.28033e-08
9.14231e-08
1.96847e-07
4.13375e-07
8.34819e-07
1.32546e-06
5.53044e-07
2.23864e-07
9.16697e-08
4.38422e-08
2.99111e-08
2.9772e-08
3.7652e-08
5.55931e-08
9.33253e-08
1.70408e-07
3.26251e-07
6.27109e-07
1.18326e-06
1.71267e-06
7.70093e-07
3.61507e-07
1.81996e-07
1.08779e-07
8.56655e-08
8.84977e-08
1.09366e-07
1.50377e-07
2.25048e-07
3.58046e-07
6.01588e-07
1.03565e-06
1.79151e-06
6.05907e-06
4.45109e-06
3.39909e-06
2.72373e-06
2.37154e-06
2.32555e-06
2.56459e-06
3.06078e-06
3.78835e-06
4.72361e-06
5.84135e-06
7.13132e-06
8.62071e-06
1.05737e-05
3.82931e-06
2.53684e-06
1.83907e-06
1.41106e-06
1.1632e-06
1.07649e-06
1.14343e-06
1.36446e-06
1.74661e-06
2.30081e-06
3.0365e-06
3.96165e-06
5.10507e-06
6.66826e-06
2.62923e-06
1.49725e-06
9.85722e-07
7.13713e-07
5.59484e-07
4.91543e-07
5.00954e-07
5.91344e-07
7.75686e-07
1.07581e-06
1.51774e-06
2.13071e-06
2.96291e-06
4.15977e-06
1.89839e-06
9.20725e-07
5.25999e-07
3.48842e-07
2.58614e-07
2.17105e-07
2.13333e-07
2.48556e-07
3.32885e-07
4.86584e-07
7.39062e-07
1.13009e-06
1.7202e-06
2.62297e-06
1.41544e-06
5.9507e-07
2.85787e-07
1.66036e-07
1.13956e-07
9.13521e-08
8.72181e-08
1.00898e-07
1.387e-07
2.157e-07
3.57914e-07
6.05441e-07
1.0196e-06
1.7022e-06
1.07048e-06
4.03669e-07
1.63185e-07
7.92214e-08
4.82578e-08
3.64024e-08
3.39341e-08
3.94902e-08
5.67366e-08
9.59888e-08
1.77595e-07
3.36533e-07
6.28795e-07
1.14638e-06
8.17274e-07
2.87506e-07
1.0155e-07
4.029e-08
2.03874e-08
1.38587e-08
1.25545e-08
1.50279e-08
2.34231e-08
4.46514e-08
9.36944e-08
1.98708e-07
4.0776e-07
8.02655e-07
6.42119e-07
2.19671e-07
7.20485e-08
2.41489e-08
9.52303e-09
5.28861e-09
4.50639e-09
5.76295e-09
1.03663e-08
2.30464e-08
5.47439e-08
1.27576e-07
2.82082e-07
5.90492e-07
5.37503e-07
1.86941e-07
6.07865e-08
1.87324e-08
5.90549e-09
2.38425e-09
1.74442e-09
2.51452e-09
5.54774e-09
1.43456e-08
3.73992e-08
9.28069e-08
2.15819e-07
4.71878e-07
5.05893e-07
1.85545e-07
6.25098e-08
1.91511e-08
5.51443e-09
1.79837e-09
1.12957e-09
1.78831e-09
4.42192e-09
1.20861e-08
3.23192e-08
8.15625e-08
1.93039e-07
4.29949e-07
5.41634e-07
2.10081e-07
7.38836e-08
2.35135e-08
7.21355e-09
2.78867e-09
2.11072e-09
3.05431e-09
6.30813e-09
1.52247e-08
3.78897e-08
9.1797e-08
2.12313e-07
4.66225e-07
6.49646e-07
2.63716e-07
9.7231e-08
3.35906e-08
1.25348e-08
6.97514e-09
6.66359e-09
8.88759e-09
1.46473e-08
2.84713e-08
6.07196e-08
1.33117e-07
2.87944e-07
6.01772e-07
8.18138e-07
3.47426e-07
1.38723e-07
5.59707e-08
2.74706e-08
2.0262e-08
2.15116e-08
2.77601e-08
4.0642e-08
6.69801e-08
1.2142e-07
2.33745e-07
4.5812e-07
8.86603e-07
1.07037e-06
4.9208e-07
2.2585e-07
1.1157e-07
6.84713e-08
5.78558e-08
6.36362e-08
8.10454e-08
1.12401e-07
1.6799e-07
2.67875e-07
4.52519e-07
7.91853e-07
1.3972e-06
4.77546e-06
3.60831e-06
2.77397e-06
2.20234e-06
1.86108e-06
1.74724e-06
1.86047e-06
2.20344e-06
2.77523e-06
3.55719e-06
4.53892e-06
5.71471e-06
7.11881e-06
8.95798e-06
2.9097e-06
2.03064e-06
1.50871e-06
1.15786e-06
9.32425e-07
8.24271e-07
8.33455e-07
9.70679e-07
1.25409e-06
1.70068e-06
2.32392e-06
3.13977e-06
4.18424e-06
5.61712e-06
1.86949e-06
1.14408e-06
7.9342e-07
5.83942e-07
4.50994e-07
3.79402e-07
3.65745e-07
4.16314e-07
5.46888e-07
7.81093e-07
1.14567e-06
1.67267e-06
2.41316e-06
3.48798e-06
1.25182e-06
6.54696e-07
4.0637e-07
2.80752e-07
2.07381e-07
1.67188e-07
1.54962e-07
1.72945e-07
2.30938e-07
3.48039e-07
5.52439e-07
8.82699e-07
1.39696e-06
2.19654e-06
8.62924e-07
3.86418e-07
2.06397e-07
1.29356e-07
9.01484e-08
6.97293e-08
6.26807e-08
6.92778e-08
9.50295e-08
1.53075e-07