/*--------------------------------*- C++ -*----------------------------------*\
| =========                 |                                                 |
| \\      /  F ield         | OpenFOAM: The Open Source CFD Toolbox           |
|  \\    /   O peration     | Version:  v2106                                 |
|   \\  /    A nd           | Website:  www.openfoam.com                      |
|    \\/     M anipulation  |                                                 |
\*---------------------------------------------------------------------------*/
FoamFile
{
    version     2.0;
    format      ascii;
    arch        "LSB;label=32;scalar=64";
    class       surfaceScalarField;
    location    "0.000167";
    object      phi;
}
// * * * * * * * * * * * * * * * * * * * * * * * * * * * * * * * * * * * * * //

dimensions      [1 0 -1 0 0 0 0];

internalField   nonuniform List<scalar> 
52675
(
2.73868e-09
3.5796e-09
1.75036e-07
-3.91783e-09
-2.98906e-09
2.35926e-09
3.54066e-09
1.74984e-07
-3.78346e-09
2.00899e-09
3.5554e-09
1.7497e-07
-3.84731e-09
1.664e-09
3.59973e-09
1.74959e-07
-3.90958e-09
1.31871e-09
3.62938e-09
1.74945e-07
-3.95264e-09
9.6068e-10
3.64691e-09
1.74927e-07
-3.9683e-09
5.91261e-10
3.65043e-09
1.74909e-07
-3.96852e-09
2.13534e-10
3.63685e-09
1.74895e-07
-3.95203e-09
-1.69799e-10
3.61574e-09
1.7489e-07
-3.92646e-09
-5.5337e-10
3.57671e-09
1.74886e-07
-3.88397e-09
-9.40391e-10
3.53499e-09
1.74881e-07
-3.8248e-09
-1.32937e-09
3.46589e-09
1.7487e-07
-3.73337e-09
-1.72962e-09
3.47387e-09
1.74869e-07
-3.71817e-09
3.44649e-09
1.74894e-07
-3.74812e-09
-2.04684e-09
2.71406e-09
3.13445e-09
1.74975e-07
-2.9007e-09
2.39667e-09
3.19802e-09
1.74921e-07
2.0705e-09
3.20105e-09
1.74917e-07
1.72428e-09
3.24762e-09
1.74906e-07
1.36306e-09
3.27949e-09
1.74899e-07
9.86073e-10
3.3036e-09
1.74891e-07
5.98338e-10
3.31122e-09
1.74881e-07
2.03202e-10
3.30104e-09
1.74872e-07
-1.96252e-10
3.28355e-09
1.74862e-07
-5.9324e-10
3.24686e-09
1.74851e-07
-9.82574e-10
3.20961e-09
1.74842e-07
-1.35934e-09
3.14714e-09
1.74832e-07
-1.72257e-09
3.15439e-09
1.74827e-07
3.03669e-09
1.74829e-07
-1.97912e-09
2.73429e-09
2.73995e-09
1.7495e-07
-2.992e-09
2.39244e-09
2.85563e-09
1.74905e-07
2.04673e-09
2.83896e-09
1.74906e-07
1.69121e-09
2.87869e-09
1.74889e-07
1.32906e-09
2.90439e-09
1.74878e-07
9.59923e-10
2.9257e-09
1.74862e-07
5.84677e-10
2.93304e-09
1.74848e-07
2.02769e-10
2.92584e-09
1.74837e-07
-1.83942e-10
2.9135e-09
1.7483e-07
-5.72488e-10
2.88516e-09
1.74825e-07
-9.58721e-10
2.85827e-09
1.74821e-07
-1.3393e-09
2.80739e-09
1.74816e-07
-1.72085e-09
2.82972e-09
1.74806e-07
2.68798e-09
1.74812e-07
-2.06188e-09
2.78015e-09
2.36833e-09
1.74928e-07
-3.08021e-09
2.43931e-09
2.49211e-09
1.74884e-07
2.08711e-09
2.46433e-09
1.74878e-07
1.72171e-09
2.49896e-09
1.74857e-07
1.34719e-09
2.52065e-09
1.74845e-07
9.65086e-10
2.53971e-09
1.74831e-07
5.76568e-10
2.54703e-09
1.74818e-07
1.81884e-10
2.54236e-09
1.74808e-07
-2.15362e-10
2.53314e-09
1.748e-07
-6.11677e-10
2.51076e-09
1.74794e-07
-1.00281e-09
2.49094e-09
1.7479e-07
-1.38822e-09
2.4499e-09
1.74788e-07
-1.76978e-09
2.48416e-09
1.74783e-07
2.35316e-09
1.74795e-07
-2.14194e-09
2.82477e-09
2.0017e-09
1.74904e-07
-3.14625e-09
2.48388e-09
2.11106e-09
1.74868e-07
2.1202e-09
2.08366e-09
1.74858e-07
1.7442e-09
2.11064e-09
1.74836e-07
1.35944e-09
2.12741e-09
1.74822e-07
9.69293e-10
2.14219e-09
1.74806e-07
5.74454e-10
2.14836e-09
1.74793e-07
1.74505e-10
2.14563e-09
1.74783e-07
-2.27983e-10
2.13955e-09
1.74775e-07
-6.30517e-10
2.12381e-09
1.7477e-07
-1.02831e-09
2.11145e-09
1.74766e-07
-1.42239e-09
2.08223e-09
1.74766e-07
-1.80149e-09
2.11888e-09
1.74764e-07
2.01423e-09
1.74771e-07
-2.18589e-09
2.86008e-09
1.62412e-09
1.74878e-07
-3.18594e-09
2.52178e-09
1.71205e-09
1.7485e-07
2.15118e-09
1.69609e-09
1.74833e-07
1.76824e-09
1.71443e-09
1.74812e-07
1.37483e-09
1.7273e-09
1.74797e-07
9.75945e-10
1.73774e-09
1.74781e-07
5.72554e-10
1.74304e-09
1.74768e-07
1.6506e-10
1.74187e-09
1.74758e-07
-2.4404e-10
1.73826e-09
1.74751e-07
-6.52295e-10
1.72817e-09
1.74745e-07
-1.05406e-09
1.7215e-09
1.74742e-07
-1.45117e-09
1.70357e-09
1.74743e-07
-1.82234e-09
1.73136e-09
1.74744e-07
1.65582e-09
1.74745e-07
-2.20147e-09
2.88383e-09
1.23791e-09
1.74852e-07
-3.21272e-09
2.5455e-09
1.30379e-09
1.74833e-07
2.16946e-09
1.3052e-09
1.74812e-07
1.78205e-09
1.31412e-09
1.74791e-07
1.38358e-09
1.32311e-09
1.74775e-07
9.79996e-10
1.32823e-09
1.7476e-07
5.72179e-10
1.33213e-09
1.74747e-07
1.6102e-10
1.332e-09
1.74736e-07
-2.51142e-10
1.33092e-09
1.74729e-07
-6.62173e-10
1.32697e-09
1.74724e-07
-1.06603e-09
1.32551e-09
1.74721e-07
-1.46481e-09
1.3182e-09
1.74722e-07
-1.83054e-09
1.32952e-09
1.74724e-07
1.28138e-09
1.74722e-07
-2.20238e-09
2.90038e-09
8.49349e-10
1.74832e-07
-3.23295e-09
2.55982e-09
8.9494e-10
1.74815e-07
2.18024e-09
9.14877e-10
1.74792e-07
1.78968e-09
9.14112e-10
1.74772e-07
1.38861e-09
9.18507e-10
1.74756e-07
9.82568e-10
9.17287e-10
1.7474e-07
5.72263e-10
9.1881e-10
1.74727e-07
1.59021e-10
9.19001e-10
1.74717e-07
-2.54492e-10
9.20293e-10
1.7471e-07
-6.66316e-10
9.23217e-10
1.74705e-07
-1.07064e-09
9.27117e-10
1.74701e-07
-1.46937e-09
9.29416e-10
1.74704e-07
-1.83152e-09
9.20202e-10
1.74703e-07
8.96853e-10
1.74705e-07
-2.19679e-09
2.90967e-09
4.65777e-10
1.74818e-07
-3.2471e-09
2.56513e-09
4.92557e-10
1.74797e-07
2.18373e-09
5.27802e-10
1.74776e-07
1.79129e-09
5.16949e-10
1.74755e-07
1.38977e-09
5.15393e-10
1.74739e-07
9.8343e-10
5.07254e-10
1.74724e-07
5.72944e-10
5.05412e-10
1.7471e-07
1.5992e-10
5.0493e-10
1.747e-07
-2.5253e-10
5.07858e-10
1.74693e-07
-6.6252e-10
5.17479e-10
1.74688e-07
-1.06463e-09
5.26414e-10
1.74684e-07
-1.46123e-09
5.37959e-10
1.74687e-07
-1.82258e-09
5.09801e-10
1.74683e-07
5.10373e-10
1.74692e-07
-2.18642e-09
2.90117e-09
9.26395e-11
1.74806e-07
-3.24448e-09
2.55115e-09
1.01594e-10
1.74777e-07
2.16991e-09
1.45005e-10
1.74762e-07
1.77774e-09
1.22558e-10
1.74739e-07
1.37943e-09
1.12316e-10
1.74725e-07
9.77259e-10
9.67174e-11
1.7471e-07
5.71902e-10
9.05449e-11
1.74696e-07
1.64765e-10
8.82667e-11
1.74686e-07
-2.4125e-10
9.18622e-11
1.74679e-07
-6.44714e-10
1.0768e-10
1.74674e-07
-1.04089e-09
1.21937e-10
1.74668e-07
-1.43273e-09
1.44428e-10
1.74672e-07
-1.7965e-09
1.05953e-10
1.74662e-07
1.31361e-10
1.74681e-07
-2.16473e-09
2.8871e-09
-2.7537e-10
1.7479e-07
-3.22715e-09
2.53719e-09
-2.80718e-10
1.74759e-07
2.16011e-09
-2.33647e-10
1.74747e-07
1.77027e-09
-2.66384e-10
1.74725e-07
1.37457e-09
-2.85804e-10
1.74711e-07
9.74506e-10
-3.07691e-10
1.74697e-07
5.71607e-10
-3.17855e-10
1.74683e-07
1.67482e-10
-3.22524e-10
1.74673e-07
-2.35141e-10
-3.19284e-10
1.74665e-07
-6.34486e-10
-2.98967e-10
1.74658e-07
-1.02493e-09
-2.80976e-10
1.74651e-07
-1.40827e-09
-2.49138e-10
1.74652e-07
-1.76862e-09
-2.93651e-10
1.74642e-07
-2.48478e-10
1.74662e-07
-2.131e-09
2.84085e-09
-6.30499e-10
1.74767e-07
-3.18168e-09
2.4922e-09
-6.50853e-10
1.74738e-07
2.11924e-09
-6.05132e-10
1.74731e-07
1.73495e-09
-6.48948e-10
1.74712e-07
1.34751e-09
-6.79927e-10
1.74701e-07
9.56268e-10
-7.08086e-10
1.74688e-07
5.62986e-10
-7.22275e-10
1.74676e-07
1.69502e-10
-7.29852e-10
1.74667e-07
-2.21207e-10
-7.28595e-10
1.74659e-07
-6.07728e-10
-7.06142e-10
1.74652e-07
-9.85847e-10
-6.8462e-10
1.7464e-07
-1.35689e-09
-6.42963e-10
1.74636e-07
-1.71246e-09
-6.87824e-10
1.7462e-07
-6.2923e-10
1.74636e-07
-2.06601e-09
2.8675e-09
-9.91958e-10
1.74761e-07
-3.19831e-09
2.51348e-09
-1.01004e-09
1.74728e-07
2.15022e-09
-9.76985e-10
1.74714e-07
1.77227e-09
-1.02582e-09
1.74699e-07
1.37944e-09
-1.05635e-09
1.74689e-07
9.74051e-10
-1.08147e-09
1.74679e-07
5.62436e-10
-1.09518e-09
1.74668e-07
1.49837e-10
-1.10432e-09
1.74657e-07
-2.56697e-10
-1.10771e-09
1.74646e-07
-6.49833e-10
-1.0922e-09
1.74635e-07
-1.02789e-09
-1.07508e-09
1.74623e-07
-1.39654e-09
-1.02791e-09
1.74614e-07
-1.76138e-09
-1.06939e-09
1.74604e-07
-1.03353e-09
1.74626e-07
-2.09275e-09
2.85807e-09
1.74768e-07
-1.27271e-09
-3.23886e-09
2.4253e-09
1.74717e-07
-1.27482e-09
2.04283e-09
1.74711e-07
-1.31357e-09
1.67133e-09
1.74706e-07
-1.39494e-09
1.30179e-09
1.74691e-07
-1.43794e-09
9.21712e-10
1.74672e-07
-1.46164e-09
5.34231e-10
1.74657e-07
-1.47417e-09
1.45447e-10
1.74648e-07
-1.48431e-09
-2.3706e-10
1.74646e-07
-1.49202e-09
-6.0418e-10
1.74646e-07
-1.48712e-09
-9.62815e-10
1.74639e-07
-1.46969e-09
-1.32287e-09
1.74624e-07
-1.40738e-09
-1.71501e-09
1.74614e-07
-1.41045e-09
1.74649e-07
-2.05253e-09
-1.40386e-09
1.81994e-09
2.51222e-09
1.5414e-07
-2.7632e-09
-1.97504e-09
1.55268e-09
2.50095e-09
1.54068e-07
-2.63562e-09
1.33957e-09
2.48606e-09
1.54049e-07
-2.68909e-09
1.13374e-09
2.53174e-09
1.54033e-07
-2.75129e-09
9.24655e-10
2.55373e-09
1.54013e-07
-2.77818e-09
6.99957e-10
2.57233e-09
1.53989e-07
-2.78841e-09
4.61082e-10
2.57717e-09
1.53966e-07
-2.78603e-09
2.14083e-10
2.5663e-09
1.53949e-07
-2.77143e-09
-3.37007e-11
2.547e-09
1.53941e-07
-2.75099e-09
-2.72969e-10
2.51354e-09
1.53934e-07
-2.72174e-09
-5.13602e-10
2.48114e-09
1.53927e-07
-2.68168e-09
-7.62735e-10
2.41318e-09
1.53915e-07
-2.60247e-09
-1.04558e-09
2.43917e-09
1.53914e-07
-2.58877e-09
2.40898e-09
1.53944e-07
-2.63318e-09
-1.24823e-09
1.799e-09
2.19132e-09
1.54046e-07
-1.88609e-09
1.59944e-09
2.28449e-09
1.53987e-07
1.39079e-09
2.26419e-09
1.53975e-07
1.1739e-09
2.30973e-09
1.53955e-07
9.4802e-10
2.33339e-09
1.53939e-07
7.11034e-10
2.35569e-09
1.53923e-07
4.64864e-10
2.36352e-09
1.53908e-07
2.12503e-10
2.35621e-09
1.53895e-07
-4.26469e-11
2.34137e-09
1.53883e-07
-2.95214e-10
2.3104e-09
1.53871e-07
-5.47299e-10
2.28342e-09
1.53862e-07
-8.0366e-10
2.22239e-09
1.53852e-07
-1.05001e-09
2.24817e-09
1.53849e-07
2.12645e-09
1.53858e-07
-1.2019e-09
1.78781e-09
1.95188e-09
1.54009e-07
-1.97549e-09
1.57707e-09
2.05882e-09
1.53955e-07
1.36128e-09
2.03086e-09
1.53946e-07
1.14228e-09
2.07042e-09
1.53921e-07
9.18887e-10
2.09043e-09
1.53901e-07
6.89859e-10
2.10995e-09
1.5388e-07
4.54806e-10
2.11687e-09
1.53861e-07
2.14783e-10
2.11196e-09
1.53846e-07
-2.79473e-11
2.10212e-09
1.53837e-07
-2.71552e-10
2.07758e-09
1.5383e-07
-5.16465e-10
2.05764e-09
1.53825e-07
-7.68566e-10
2.00663e-09
1.53822e-07
-1.01803e-09
2.04106e-09
1.53813e-07
1.92193e-09
1.53829e-07
-1.26387e-09
1.83891e-09
1.72801e-09
1.53975e-07
-2.05545e-09
1.62655e-09
1.8217e-09
1.53917e-07
1.40059e-09
1.79304e-09
1.53902e-07
1.17082e-09
1.82612e-09
1.53873e-07
9.35673e-10
1.84384e-09
1.53852e-07
6.95125e-10
1.86106e-09
1.53831e-07
4.48351e-10
1.86777e-09
1.53813e-07
1.96965e-10
1.86482e-09
1.53799e-07
-5.54184e-11
1.85798e-09
1.53789e-07
-3.08388e-10
1.8387e-09
1.53782e-07
-5.61319e-10
1.82447e-09
1.53779e-07
-8.19063e-10
1.78434e-09
1.53779e-07
-1.06603e-09
1.82144e-09
1.53775e-07
1.72447e-09
1.53799e-07
-1.33071e-09
1.87588e-09
1.50177e-09
1.5394e-07
-2.10143e-09
1.66165e-09
1.57584e-09
1.53886e-07
1.42627e-09
1.55337e-09
1.53867e-07
1.18858e-09
1.5781e-09
1.53836e-07
9.45926e-10
1.59286e-09
1.53813e-07
6.99504e-10
1.60619e-09
1.5379e-07
4.48045e-10
1.61168e-09
1.53771e-07
1.92373e-10
1.60997e-09
1.53757e-07
-6.42968e-11
1.60584e-09
1.53748e-07
-3.22927e-10
1.5926e-09
1.53742e-07
-5.81197e-10
1.58424e-09
1.5374e-07
-8.4309e-10
1.55624e-09
1.53743e-07
-1.0869e-09
1.58898e-09
1.5374e-07
1.51828e-09
1.53762e-07
-1.35379e-09
1.90897e-09
1.26085e-09
1.53903e-07
-2.12799e-09
1.69597e-09
1.32145e-09
1.53855e-07
1.45457e-09
1.31138e-09
1.5383e-07
1.21029e-09
1.32785e-09
1.53798e-07
9.59781e-10
1.34001e-09
1.53773e-07
7.05697e-10
1.349e-09
1.5375e-07
4.47073e-10
1.35314e-09
1.53732e-07
1.84948e-10
1.35217e-09
1.53717e-07
-7.74914e-11
1.34997e-09
1.53708e-07
-3.41674e-10
1.34191e-09
1.53703e-07
-6.04032e-10
1.33791e-09
1.53702e-07
-8.67357e-10
1.32072e-09
1.53706e-07
-1.10632e-09
1.34344e-09
1.53707e-07
1.29232e-09
1.53724e-07
-1.36129e-09
1.93076e-09
1.00962e-09
1.53868e-07
-2.14476e-09
1.71731e-09
1.06312e-09
1.53826e-07
1.47113e-09
1.06876e-09
1.53797e-07
1.22216e-09
1.07663e-09
1.53765e-07
9.66762e-10
1.08568e-09
1.5374e-07
7.08595e-10
1.08928e-09
1.53716e-07
4.46863e-10
1.09163e-09
1.53697e-07
1.82585e-10
1.09107e-09
1.53683e-07
-8.18045e-11
1.09059e-09
1.53674e-07
-3.48676e-10
1.08792e-09
1.53669e-07
-6.13844e-10
1.08786e-09
1.53668e-07
-8.78807e-10
1.08035e-09
1.53673e-07
-1.1149e-09
1.089e-09
1.53674e-07
1.04978e-09
1.53689e-07
-1.35907e-09
1.94762e-09
7.55841e-10
1.5384e-07
-2.1623e-09
1.73209e-09
8.03499e-10
1.53798e-07
1.48186e-09
8.25643e-10
1.53768e-07
1.22884e-09
8.24664e-10
1.53736e-07
9.70129e-10
8.29828e-10
1.5371e-07
7.09444e-10
8.27553e-10
1.53686e-07
4.46187e-10
8.27771e-10
1.53667e-07
1.81392e-10
8.27253e-10
1.53653e-07
-8.33606e-11
8.28179e-10
1.53644e-07
-3.51223e-10
8.3104e-10
1.53639e-07
-6.18005e-10
8.34689e-10
1.53637e-07
-8.84124e-10
8.35774e-10
1.53644e-07
-1.11743e-09
8.27063e-10
1.53644e-07
7.96401e-10
1.53662e-07
-1.35542e-09
1.95843e-09
5.07659e-10
1.53819e-07
-2.18073e-09
1.73978e-09
5.44235e-10
1.53772e-07
1.48675e-09
5.81287e-10
1.53743e-07
1.23093e-09
5.70957e-10
1.5371e-07
9.70702e-10
5.71265e-10
1.53684e-07
7.09079e-10
5.63522e-10
1.53661e-07
4.45886e-10
5.6162e-10
1.53642e-07
1.82141e-10
5.60691e-10
1.53628e-07
-8.14083e-11
5.62334e-10
1.53619e-07
-3.48272e-10
5.70039e-10
1.53613e-07
-6.14096e-10
5.76374e-10
1.53611e-07
-8.79527e-10
5.85876e-10
1.53618e-07
-1.11055e-09
5.59154e-10
1.53614e-07
5.41612e-10
1.53641e-07
-1.35142e-09
1.95095e-09
2.71118e-10
1.53801e-07
-2.18596e-09
1.72753e-09
2.88543e-10
1.53748e-07
1.47423e-09
3.3555e-10
1.53723e-07
1.219e-09
3.14266e-10
1.53689e-07
9.6145e-10
3.07616e-10
1.53663e-07
7.02886e-10
2.94945e-10
1.5364e-07
4.43949e-10
2.9083e-10
1.53622e-07
1.85559e-10
2.88824e-10
1.53608e-07
-7.24142e-11
2.90393e-10
1.53598e-07
-3.33494e-10
3.01713e-10
1.53593e-07
-5.93398e-10
3.09997e-10
1.53589e-07
-8.54806e-10
3.30105e-10
1.53596e-07
-1.0859e-09
2.90081e-10
1.53587e-07
2.97043e-10
1.53623e-07
-1.33945e-09
1.94529e-09
4.10094e-11
1.53781e-07
-2.18586e-09
1.71996e-09
3.7328e-11
1.53726e-07
1.46854e-09
9.18009e-11
1.53704e-07
1.21515e-09
5.97995e-11
1.53671e-07
9.59497e-10
4.57703e-11
1.53646e-07
7.01562e-10
2.88657e-11
1.53623e-07
4.43446e-10
2.22732e-11
1.53604e-07
1.8659e-10
1.85658e-11
1.5359e-07
-6.94719e-11
1.97317e-11
1.5358e-07
-3.27885e-10
3.38458e-11
1.53574e-07
-5.83175e-10
4.28943e-11
1.53569e-07
-8.39388e-10
7.33068e-11
1.53573e-07
-1.06615e-09
1.95831e-11
1.53563e-07
5.72101e-11
1.53601e-07
-1.32501e-09
1.89792e-09
-1.84531e-10
1.53754e-07
-2.13952e-09
1.67411e-09
-2.09405e-10
1.53701e-07
1.42855e-09
-1.52123e-10
1.53686e-07
1.18317e-09
-1.95763e-10
1.53656e-07
9.36359e-10
-2.17333e-10
1.53634e-07
6.86286e-10
-2.38643e-10
1.53612e-07
4.3563e-10
-2.48165e-10
1.53594e-07
1.86909e-10
-2.54548e-10
1.53581e-07
-5.9535e-11
-2.55064e-10
1.53572e-07
-3.06208e-10
-2.40197e-10
1.53565e-07
-5.48789e-10
-2.30208e-10
1.53556e-07
-7.92685e-10
-1.89287e-10
1.53555e-07
-1.01095e-09
-2.52929e-10
1.53538e-07
-1.87155e-10
1.53572e-07
-1.26265e-09
1.95389e-09
-4.2612e-10
1.53741e-07
-2.16657e-09
1.72722e-09
-4.38592e-10
1.53685e-07
1.47806e-09
-3.77217e-10
1.53661e-07
1.22574e-09
-4.28794e-10
1.53635e-07
9.67754e-10
-4.54276e-10
1.53614e-07
7.02903e-10
-4.77885e-10
1.53596e-07
4.35777e-10
-4.8994e-10
1.53579e-07
1.69388e-10
-4.98203e-10
1.53565e-07
-9.3625e-11
-5.01368e-10
1.53553e-07
-3.52479e-10
-4.88323e-10
1.53541e-07
-6.04265e-10
-4.79357e-10
1.53532e-07
-8.54572e-10
-4.29888e-10
1.53526e-07
-1.08332e-09
-4.99914e-10
1.53517e-07
-4.51842e-10
1.53554e-07
-1.29959e-09
1.91478e-09
1.53747e-07
-5.86212e-10
-2.2099e-09
1.61572e-09
1.53677e-07
-6.03853e-10
1.38314e-09
1.53662e-07
-6.21805e-10
1.15809e-09
1.53646e-07
-6.89241e-10
9.22891e-10
1.53623e-07
-7.14416e-10
6.72518e-10
1.53598e-07
-7.2936e-10
4.13536e-10
1.53578e-07
-7.38256e-10
1.54508e-10
1.53567e-07
-7.4765e-10
-9.63269e-11
1.53562e-07
-7.57409e-10
-3.28367e-10
1.53561e-07
-7.60231e-10
-5.47488e-10
1.53556e-07
-7.60783e-10
-7.706e-10
1.53543e-07
-7.01951e-10
-1.02478e-09
1.53533e-07
-7.28662e-10
1.53577e-07
-1.25873e-09
-6.98301e-10
8.45507e-10
1.28714e-09
1.34432e-07
-1.40395e-09
-9.01637e-10
7.20085e-10
1.3185e-09
1.34402e-07
-1.37484e-09
6.3857e-10
1.2667e-09
1.34396e-07
-1.36304e-09
5.63765e-10
1.31076e-09
1.34395e-07
-1.41423e-09
4.8075e-10
1.3232e-09
1.34386e-07
-1.42087e-09
3.82362e-10
1.34069e-09
1.34369e-07
-1.42554e-09
2.73879e-10
1.34752e-09
1.34349e-07
-1.42346e-09
1.62836e-10
1.34355e-09
1.34331e-07
-1.41704e-09
5.55412e-11
1.33386e-09
1.34318e-07
-1.41195e-09
-4.1978e-11
1.31194e-09
1.34306e-07
-1.40333e-09
-1.34911e-10
1.29659e-09
1.34287e-07
-1.39813e-09
-2.34958e-10
1.23781e-09
1.34259e-07
-1.33734e-09
-3.59092e-10
1.29993e-09
1.34243e-07
-1.37473e-09
1.23939e-09
1.34235e-07
-1.35618e-09
-4.25747e-10
8.52967e-10
1.14377e-09
1.34373e-07
-8.90442e-10
7.58957e-10
1.22131e-09
1.34351e-07
6.60105e-10
1.17571e-09
1.3435e-07
5.66743e-10
1.21374e-09
1.34344e-07
4.72129e-10
1.22635e-09
1.34337e-07
3.75221e-10
1.24356e-09
1.34327e-07
2.77848e-10
1.25012e-09
1.34314e-07
1.80473e-10
1.24746e-09
1.34298e-07
7.98392e-11
1.24105e-09
1.34282e-07
-2.75026e-11
1.22111e-09
1.34262e-07
-1.44875e-10
1.20853e-09
1.34242e-07
-2.76994e-10
1.16014e-09
1.34218e-07
-3.96055e-10
1.21421e-09
1.342e-07
1.11707e-09
1.34181e-07
-4.68714e-10
8.02466e-10
1.06054e-09
1.34349e-07
-8.99249e-10
7.15614e-10
1.11852e-09
1.34329e-07
6.23624e-10
1.07992e-09
1.34331e-07
5.36517e-10
1.10989e-09
1.3432e-07
4.48709e-10
1.12115e-09
1.34311e-07
3.61007e-10
1.1359e-09
1.34296e-07
2.73675e-10
1.14124e-09
1.3428e-07
1.86868e-10
1.13919e-09
1.34264e-07
9.83841e-11
1.13433e-09
1.34249e-07
2.2609e-12
1.11682e-09
1.34233e-07
-1.03214e-10
1.10644e-09
1.34217e-07
-2.24609e-10
1.06839e-09
1.34199e-07
-3.34085e-10
1.11493e-09
1.34174e-07
1.04998e-09
1.34162e-07
-4.57307e-10
8.48281e-10
9.83992e-10
1.34329e-07
-9.5711e-10
7.53978e-10
1.01847e-09
1.34302e-07
6.52602e-10
9.88048e-10
1.343e-07
5.55673e-10
1.00906e-09
1.34285e-07
4.58954e-10
1.01904e-09
1.34273e-07
3.64091e-10
1.03147e-09
1.34258e-07
2.69671e-10
1.03637e-09
1.34243e-07
1.75303e-10
1.03502e-09
1.34227e-07
7.9224e-11
1.0311e-09
1.34213e-07
-2.51024e-11
1.01622e-09
1.34197e-07
-1.36663e-10
1.00811e-09
1.34182e-07
-2.64384e-10
9.80797e-10
1.34167e-07
-3.81572e-10
1.01824e-09
1.34147e-07
9.83234e-10
1.34142e-07
-5.09985e-10
8.68226e-10
8.97132e-10
1.34303e-07
-9.7186e-10
7.71132e-10
9.16422e-10
1.34277e-07
6.66135e-10
8.94922e-10
1.34271e-07
5.65434e-10
9.07907e-10
1.34254e-07
4.65362e-10
9.16751e-10
1.3424e-07
3.68175e-10
9.26316e-10
1.34224e-07
2.7142e-10
9.30599e-10
1.34208e-07
1.73983e-10
9.3001e-10
1.34192e-07
7.39136e-11
9.27578e-10
1.34178e-07
-3.41675e-11
9.16781e-10
1.34164e-07
-1.4661e-10
9.11331e-10
1.34149e-07
-2.70221e-10
8.91975e-10
1.34137e-07
-3.86037e-10
9.19688e-10
1.34118e-07
9.02429e-10
1.34111e-07
-5.09025e-10
8.91499e-10
7.92463e-10
1.34269e-07
-9.80976e-10
7.93263e-10
8.1182e-10
1.34248e-07
6.85487e-10
8.00807e-10
1.34238e-07
5.8065e-10
8.08316e-10
1.34219e-07
4.7576e-10
8.16615e-10
1.34204e-07
3.73491e-10
8.23065e-10
1.34187e-07
2.71345e-10
8.26562e-10
1.34171e-07
1.6834e-10
8.26315e-10
1.34156e-07
6.258e-11
8.25041e-10
1.34142e-07
-4.96465e-11
8.18069e-10
1.34128e-07
-1.63466e-10
8.14659e-10
1.34114e-07
-2.84603e-10
8.00562e-10
1.34103e-07
-4.00872e-10
8.18789e-10
1.34087e-07
8.03528e-10
1.34076e-07
-5.09253e-10
9.03506e-10
6.7522e-10
1.34235e-07
-9.83464e-10
8.04109e-10
7.0597e-10
1.34218e-07
6.94223e-10
7.06275e-10
1.34205e-07
5.87428e-10
7.08971e-10
1.34186e-07
4.80579e-10
7.16196e-10
1.3417e-07
3.76255e-10
7.18858e-10
1.34153e-07
2.72159e-10
7.21198e-10
1.34137e-07
1.6742e-10
7.20929e-10
1.34121e-07
5.95659e-11
7.20579e-10
1.34107e-07
-5.49328e-11
7.17517e-10
1.34094e-07
-1.7058e-10
7.16311e-10
1.3408e-07
-2.9128e-10
7.06986e-10
1.34069e-07
-4.07771e-10
7.15055e-10
1.34054e-07
6.89456e-10
1.3404e-07
-5.05456e-10
9.12757e-10
5.53508e-10
1.34203e-07
-9.91277e-10
8.12423e-10
5.98495e-10
1.34186e-07
7.00004e-10
6.11481e-10
1.34172e-07
5.9139e-10
6.09074e-10
1.34152e-07
4.83181e-10
6.14472e-10
1.34136e-07
3.77303e-10
6.13145e-10
1.34119e-07
2.71895e-10
6.14253e-10
1.34103e-07
1.66385e-10
6.13784e-10
1.34087e-07
5.78467e-11
6.13984e-10
1.34073e-07
-5.8036e-11
6.14636e-10
1.3406e-07
-1.75454e-10
6.15467e-10
1.34045e-07
-2.97346e-10
6.11581e-10
1.34036e-07
-4.11578e-10
6.06299e-10
1.34019e-07
5.66797e-10
1.34009e-07
-5.05222e-10
9.18058e-10
4.36779e-10
1.34175e-07
-1.00542e-09
8.17682e-10
4.88099e-10
1.34152e-07
7.03011e-10
5.15998e-10
1.34139e-07
5.93173e-10
5.07711e-10
1.34119e-07
4.84398e-10
5.10461e-10
1.34102e-07
3.77757e-10
5.0503e-10
1.34085e-07
2.7189e-10
5.04828e-10
1.34069e-07
1.66503e-10
5.04118e-10
1.34053e-07
5.84921e-11
5.04712e-10
1.34039e-07
-5.7588e-11
5.091e-10
1.34026e-07
-1.75298e-10
5.11348e-10
1.34011e-07
-2.98651e-10
5.14156e-10
1.34002e-07
-4.09338e-10
4.91771e-10
1.33981e-07
4.4697e-10
1.33981e-07
-5.10537e-10
9.06439e-10
3.34008e-10
1.34147e-07
-1.01238e-09
8.06204e-10
3.74582e-10
1.34115e-07
6.92232e-10
4.17203e-10
1.34106e-07
5.84497e-10
4.01666e-10
1.34085e-07
4.78395e-10
4.00884e-10
1.3407e-07
3.73749e-10
3.91521e-10
1.34053e-07
2.70079e-10
3.89841e-10
1.34037e-07
1.67677e-10
3.88482e-10
1.34022e-07
6.38189e-11
3.8872e-10
1.34007e-07
-4.77503e-11
3.96324e-10
1.33994e-07
-1.60939e-10
3.99356e-10
1.33977e-07
-2.82661e-10
4.11655e-10
1.33969e-07
-3.9042e-10
3.72774e-10
1.33942e-07
3.43376e-10
1.33952e-07
-5.09645e-10
9.06547e-10
2.46776e-10
1.34113e-07
-1.03073e-09
8.06113e-10
2.60763e-10
1.34078e-07
6.909e-10
3.1944e-10
1.3407e-07
5.83383e-10
2.9467e-10
1.34051e-07
4.77826e-10
2.88979e-10
1.34036e-07
3.73323e-10
2.74896e-10
1.3402e-07
2.7007e-10
2.70846e-10
1.34004e-07
1.68408e-10
2.68484e-10
1.33988e-07
6.53735e-11
2.68731e-10
1.33974e-07
-4.47832e-11
2.80183e-10
1.33959e-07
-1.57818e-10
2.84471e-10
1.33941e-07
-2.80258e-10
3.07979e-10
1.3393e-07
-3.84164e-10
2.4962e-10
1.33902e-07
2.55241e-10
1.33915e-07
-5.21188e-10
8.60756e-10
1.64499e-10
1.34067e-07
-9.9148e-10
7.65951e-10
1.384e-10
1.34035e-07
6.57991e-10
2.11568e-10
1.34035e-07
5.59749e-10
1.76403e-10
1.34018e-07
4.62278e-10
1.67213e-10
1.34006e-07
3.62844e-10
1.51202e-10
1.33991e-07
2.633e-10
1.45517e-10
1.33975e-07
1.65844e-10
1.4138e-10
1.33961e-07
6.96236e-11
1.39342e-10
1.33947e-07
-2.97221e-11
1.50768e-10
1.33931e-07
-1.29828e-10
1.54027e-10
1.33911e-07
-2.39984e-10
1.89376e-10
1.33896e-07
-3.31809e-10
1.09404e-10
1.33861e-07
1.6477e-10
1.33869e-07
-4.73866e-10
9.5677e-10
7.06292e-11
1.34035e-07
-1.07873e-09
8.43727e-10
2.80684e-11
1.34e-07
7.15149e-10
1.17759e-10
1.33988e-07
5.97737e-10
7.36496e-11
1.33976e-07
4.85435e-10
5.6105e-11
1.33965e-07
3.74767e-10
3.40976e-11
1.33954e-07
2.65692e-10
2.41134e-11
1.3394e-07
1.56739e-10
1.93937e-11
1.33925e-07
4.54159e-11
1.91641e-11
1.33908e-07
-6.94307e-11
3.28758e-11
1.33887e-07
-1.88686e-10
3.90668e-11
1.33866e-07
-3.23587e-10
8.83123e-11
1.33845e-07
-4.42148e-10
-1.52948e-11
1.33823e-07
5.43283e-11
1.33832e-07
-5.72563e-10
8.77387e-10
1.34009e-07
8.47406e-12
-1.02847e-09
7.49145e-10
1.33967e-07
-7.45814e-11
6.63e-10
1.33962e-07
-2.22572e-11
5.83044e-10
1.33957e-07
-6.67537e-11
4.89416e-10
1.33943e-07
-7.11884e-11
3.76909e-10
1.33925e-07
-7.62698e-11
2.53224e-10
1.33907e-07
-7.69371e-11
1.27335e-10
1.33894e-07
-8.02292e-11
9.9894e-12
1.33886e-07
-8.8751e-11
-8.69605e-11
1.33877e-07
-9.53984e-11
-1.67545e-10
1.33861e-07
-1.09059e-10
-2.51382e-10
1.33835e-07
-6.34922e-11
-3.57212e-10
1.33811e-07
-1.53283e-10
1.33819e-07
-4.74469e-10
-5.9385e-11
1.38887e-10
3.19116e-10
1.15691e-07
-3.53114e-10
-1.54643e-10
1.28845e-10
3.8202e-10
1.15704e-07
-4.3048e-10
1.28346e-10
3.01403e-10
1.15725e-07
-3.47647e-10
1.33059e-10
3.41011e-10
1.15747e-07
-3.79789e-10
1.27943e-10
3.44885e-10
1.15756e-07
-3.66537e-10
1.08942e-10
3.59757e-10
1.15751e-07
-3.66188e-10
8.14606e-11
3.68455e-10
1.15737e-07
-3.6563e-10
5.20816e-11
3.69408e-10
1.15723e-07
-3.65032e-10
2.75945e-11
3.66929e-10
1.15708e-07
-3.70159e-10
1.57362e-11
3.52976e-10
1.15688e-07
-3.74109e-10
2.27805e-11
3.49184e-10
1.15656e-07
-3.92798e-10
3.53191e-11
2.96913e-10
1.15609e-07
-3.58443e-10
5.70727e-11
3.84222e-10
1.15566e-07
-4.67243e-10
2.99134e-10
1.15524e-07
-3.70603e-10
6.33857e-11
1.84135e-10
3.15319e-10
1.15681e-07
-2.3258e-10
1.53258e-10
3.5828e-10
1.15693e-07
1.12744e-10
2.95489e-10
1.15716e-07
9.61682e-11
3.24505e-10
1.15735e-07
8.86757e-11
3.28559e-10
1.15747e-07
8.4203e-11
3.40992e-10
1.15751e-07
8.29294e-11
3.46272e-10
1.15745e-07
8.21602e-11
3.46979e-10
1.15732e-07
7.78899e-11
3.47737e-10
1.15712e-07
6.67899e-11
3.38498e-10
1.15682e-07
4.8953e-11
3.3747e-10
1.15646e-07
8.88514e-12
3.00477e-10
1.15602e-07
-1.45936e-11
3.65017e-10
1.15559e-07
3.01193e-10
1.15515e-07
-6.80109e-11
1.06507e-10
3.31243e-10
1.15684e-07
-1.57865e-10
9.55496e-11
3.31967e-10
1.15697e-07
7.33962e-11
2.86785e-10
1.15728e-07
7.08529e-11
3.05333e-10
1.15741e-07
7.42487e-11
3.11144e-10
1.15752e-07
7.90692e-11
3.22631e-10
1.1575e-07
8.39746e-11
3.26986e-10
1.15743e-07
8.90409e-11
3.27563e-10
1.15729e-07
9.40827e-11
3.27806e-10
1.1571e-07
9.53637e-11
3.19228e-10
1.15685e-07
9.3709e-11
3.16779e-10
1.15651e-07
7.37769e-11
2.92256e-10
1.15614e-07
6.82376e-11
3.37369e-10
1.1556e-07
3.22034e-10
1.15518e-07
8.0333e-12
1.41884e-10
3.47134e-10
1.15686e-07
-1.88331e-10
1.21546e-10
3.21491e-10
1.15695e-07
9.24667e-11
2.91547e-10
1.15721e-07
8.12817e-11
2.99084e-10
1.15731e-07
7.81084e-11
3.04207e-10
1.15739e-07
7.93618e-11
3.12616e-10
1.15738e-07
8.16106e-11
3.15453e-10
1.1573e-07
8.40319e-11
3.15421e-10
1.15717e-07
8.55134e-11
3.14883e-10
1.15698e-07
8.14564e-11
3.0733e-10
1.15673e-07
7.22502e-11
3.04541e-10
1.15641e-07
4.59003e-11
2.90369e-10
1.15605e-07
2.84777e-11
3.19035e-10
1.15557e-07
3.38893e-10
1.15519e-07
-2.84341e-11
1.40346e-10
3.45806e-10
1.15678e-07
-1.72e-10
1.2115e-10
3.1431e-10
1.15689e-07
9.76319e-11
2.95769e-10
1.15712e-07
8.57371e-11
2.9607e-10
1.1572e-07
8.13949e-11
3.00537e-10
1.15727e-07
8.24821e-11
3.05926e-10
1.15724e-07
8.44634e-11
3.08059e-10
1.15716e-07
8.62472e-11
3.07773e-10
1.15702e-07
8.64477e-11
3.0687e-10
1.15684e-07
8.07833e-11
3.00674e-10
1.15659e-07
6.92177e-11
2.97905e-10
1.15627e-07
4.52969e-11
2.8944e-10
1.15593e-07
2.379e-11
3.06683e-10
1.15547e-07
3.36472e-10
1.15507e-07
-1.17047e-11
1.51826e-10
3.26716e-10
1.15657e-07
-1.6398e-10
1.31064e-10
3.08536e-10
1.15674e-07
1.09179e-10
2.98767e-10
1.15694e-07
9.56009e-11
2.97065e-10
1.15701e-07
8.79128e-11
3.0153e-10
1.15706e-07
8.53789e-11
3.04231e-10
1.15703e-07
8.39648e-11
3.05934e-10
1.15694e-07
8.2481e-11
3.05441e-10
1.15681e-07
7.92591e-11
3.0457e-10
1.15663e-07
7.07244e-11
2.99794e-10
1.15638e-07
5.61482e-11
2.9744e-10
1.15607e-07
3.43381e-11
2.89993e-10
1.15574e-07
8.91165e-12
3.00665e-10
1.15532e-07
3.17029e-10
1.15485e-07
-7.34655e-12
1.5579e-10
2.95358e-10
1.15628e-07
-1.53723e-10
1.32832e-10
3.04235e-10
1.15652e-07
1.1088e-10
3.00661e-10
1.15669e-07
9.73917e-11
2.9866e-10
1.15675e-07
8.96054e-11
3.02714e-10
1.1568e-07
8.64973e-11
3.02762e-10
1.15677e-07
8.45701e-11
3.03958e-10
1.15668e-07
8.24717e-11
3.03329e-10
1.15655e-07
7.83176e-11
3.02893e-10
1.15636e-07
6.8774e-11
2.99972e-10
1.15612e-07
5.26796e-11
2.98721e-10
1.15581e-07
3.11798e-11
2.90755e-10
1.15549e-07
2.46332e-12
2.97717e-10
1.15507e-07
2.86597e-10
1.15457e-07
-2.45404e-12
1.60452e-10
2.58112e-10
1.15598e-07
-1.51039e-10
1.36026e-10
2.98422e-10
1.15622e-07
1.11887e-10
3.01862e-10
1.15638e-07
9.79063e-11
2.9915e-10
1.15644e-07
9.00927e-11
3.02405e-10
1.15648e-07
8.65161e-11
3.00001e-10
1.15645e-07
8.40172e-11
3.00703e-10
1.15636e-07
8.12575e-11
2.99966e-10
1.15623e-07
7.64579e-11
2.9985e-10
1.15604e-07
6.60062e-11
2.9898e-10
1.1558e-07
4.87454e-11
2.98948e-10
1.15549e-07
2.53456e-11
2.91506e-10
1.15518e-07
-3.31566e-12
2.92159e-10
1.15476e-07
2.50228e-10
1.15428e-07
-3.75489e-12
1.64401e-10
2.24067e-10
1.15567e-07
-1.55449e-10
1.39686e-10
2.86868e-10
1.15584e-07
1.11981e-10
3.02428e-10
1.15601e-07
9.72154e-11
2.97025e-10
1.15607e-07
8.95838e-11
2.991e-10
1.15611e-07
8.62951e-11
2.94061e-10
1.15608e-07
8.40671e-11
2.94178e-10
1.15599e-07
8.14197e-11
2.93506e-10
1.15585e-07
7.66454e-11
2.93768e-10
1.15567e-07
6.52647e-11
2.95736e-10
1.15543e-07
4.70932e-11
2.96752e-10
1.15511e-07
1.98691e-11
2.92833e-10
1.15481e-07
-5.50244e-12
2.79729e-10
1.15435e-07
2.16151e-10
1.15397e-07
-1.09587e-11
1.51819e-10
2.02038e-10
1.15533e-07
-1.60887e-10
1.31188e-10
2.65164e-10
1.15538e-07
1.03321e-10
2.97547e-10
1.15559e-07
9.06225e-11
2.8743e-10
1.15564e-07
8.52982e-11
2.89123e-10
1.15569e-07
8.3738e-11
2.82169e-10
1.15566e-07
8.27301e-11
2.82109e-10
1.15557e-07
8.14672e-11
2.81436e-10
1.15543e-07
7.89942e-11
2.81217e-10
1.15525e-07
7.01497e-11
2.85615e-10
1.15501e-07
5.56326e-11
2.86164e-10
1.15468e-07
2.79316e-11
2.89667e-10
1.15439e-07
7.56813e-12
2.57417e-10
1.15387e-07
1.95418e-10
1.15362e-07
-1.57701e-11
1.53277e-10
1.98284e-10
1.15486e-07
-1.85725e-10
1.35627e-10
2.35978e-10
1.15485e-07
1.03334e-10
2.9033e-10
1.15508e-07
8.93779e-11
2.72343e-10
1.15514e-07
8.41155e-11
2.72827e-10
1.15519e-07
8.33218e-11
2.63117e-10
1.15516e-07
8.33574e-11
2.62192e-10
1.15508e-07
8.31105e-11
2.61594e-10
1.15494e-07
8.11013e-11
2.61683e-10
1.15475e-07
7.12257e-11
2.6994e-10
1.1545e-07
5.55466e-11
2.70321e-10
1.15417e-07
2.19387e-11
2.85371e-10
1.15385e-07
3.79123e-12
2.2741e-10
1.15332e-07
1.93462e-10
1.15313e-07
-4.46558e-11
1.03156e-10
2.01334e-10
1.15424e-07
-1.4858e-10
1.00158e-10
1.83387e-10
1.15425e-07
8.04593e-11
2.61143e-10
1.15455e-07
7.7699e-11
2.37273e-10
1.15462e-07
7.90122e-11
2.42332e-10
1.15468e-07
7.99516e-11
2.35414e-10
1.15466e-07
7.91332e-11
2.36294e-10
1.15458e-07
7.85276e-11
2.35462e-10
1.15445e-07
7.9294e-11
2.32785e-10
1.15427e-07
7.71633e-11
2.39664e-10
1.15402e-07
7.41703e-11
2.34021e-10
1.15367e-07
5.29453e-11
2.59653e-10
1.15334e-07
5.20325e-11
1.71086e-10
1.15273e-07
1.9768e-10
1.15252e-07
-1.1322e-11
2.12942e-10
2.26327e-10
1.15361e-07
-2.78812e-10
1.80574e-10
1.52217e-10
1.15363e-07
1.33831e-10
2.50734e-10
1.15381e-07
1.07582e-10
2.15958e-10
1.15394e-07
9.41147e-11
2.15658e-10
1.15403e-07
8.73837e-11
2.03792e-10
1.15404e-07
8.35969e-11
2.01247e-10
1.15398e-07
7.85098e-11
2.01113e-10
1.15385e-07
6.76807e-11
2.02485e-10
1.15364e-07