/*--------------------------------*- C++ -*----------------------------------*\
| =========                 |                                                 |
| \\      /  F ield         | OpenFOAM: The Open Source CFD Toolbox           |
|  \\    /   O peration     | Version:  v2106                                 |
|   \\  /    A nd           | Website:  www.openfoam.com                      |
|    \\/     M anipulation  |                                                 |
\*---------------------------------------------------------------------------*/
FoamFile
{
    version     2.0;
    format      ascii;
    arch        "LSB;label=32;scalar=64";
    class       volScalarField;
    location    "0.000203";
    object      nut;
}
// * * * * * * * * * * * * * * * * * * * * * * * * * * * * * * * * * * * * * //

dimensions      [0 2 -1 0 0 0 0];

internalField   nonuniform List<scalar> 
144746
(
3.08111e-05
2.44747e-05
1.98048e-05
1.68007e-05
1.66997e-05
1.97145e-05
2.57313e-05
3.36404e-05
4.12161e-05
4.63508e-05
4.81544e-05
4.70112e-05
4.64073e-05
4.75539e-05
2.79659e-05
2.12733e-05
1.57997e-05
1.17127e-05
9.97881e-06
1.04115e-05
1.33486e-05
1.85857e-05
2.51346e-05
3.12437e-05
3.58525e-05
3.77955e-05
3.78559e-05
4.01544e-05
2.59568e-05
1.89756e-05
1.30421e-05
8.63279e-06
6.46814e-06
5.84644e-06
6.92478e-06
9.82751e-06
1.43179e-05
1.95978e-05
2.44206e-05
2.84942e-05
2.97618e-05
3.31e-05
2.31593e-05
1.55709e-05
9.9632e-06
6.23233e-06
4.253e-06
3.43828e-06
3.70001e-06
5.22156e-06
8.08394e-06
1.18825e-05
1.57683e-05
1.89697e-05
2.16771e-05
2.61307e-05
1.85084e-05
1.16053e-05
6.91218e-06
4.07319e-06
2.60042e-06
1.95932e-06
1.97635e-06
2.78143e-06
4.57941e-06
7.26761e-06
1.03314e-05
1.30889e-05
1.57984e-05
2.09522e-05
1.34909e-05
7.72324e-06
4.23616e-06
2.34017e-06
1.41706e-06
1.02922e-06
1.02601e-06
1.4965e-06
2.65581e-06
4.56961e-06
6.97742e-06
9.43624e-06
1.20332e-05
1.72735e-05
8.91969e-06
4.5697e-06
2.28159e-06
1.17719e-06
6.82813e-07
4.94808e-07
5.25171e-07
8.49177e-07
1.65068e-06
3.06122e-06
4.99013e-06
7.19827e-06
9.8938e-06
1.63959e-05
5.53359e-06
2.50631e-06
1.12487e-06
5.38022e-07
3.02272e-07
2.31972e-07
2.93261e-07
5.57406e-07
1.17414e-06
2.28363e-06
3.89428e-06
5.93886e-06
9.04324e-06
1.74665e-05
3.60061e-06
1.46946e-06
5.97737e-07
2.67997e-07
1.52166e-07
1.37264e-07
2.18507e-07
4.63497e-07
9.96383e-07
1.94833e-06
3.38825e-06
5.47121e-06
9.54385e-06
2.01835e-05
3.05964e-06
1.24463e-06
5.07425e-07
2.40429e-07
1.53295e-07
1.54851e-07
2.47982e-07
4.95484e-07
1.00741e-06
1.91579e-06
3.3765e-06
5.91581e-06
1.16774e-05
2.37016e-05
3.89327e-06
1.81067e-06
8.15948e-07
4.34008e-07
3.04579e-07
2.93619e-07
3.93438e-07
6.62045e-07
1.21076e-06
2.2101e-06
3.98777e-06
7.64023e-06
1.52838e-05
2.71523e-05
6.63413e-06
3.96049e-06
2.1178e-06
1.1265e-06
7.42461e-07
6.52863e-07
7.48608e-07
1.06417e-06
1.7248e-06
2.99483e-06
5.49321e-06
1.07246e-05
1.96184e-05
3.03258e-05
1.12036e-05
8.21844e-06
5.35478e-06
3.13648e-06
1.92674e-06
1.49193e-06
1.51045e-06
1.88848e-06
2.7347e-06
4.41463e-06
7.75345e-06
1.42233e-05
2.3333e-05
3.28312e-05
1.65711e-05
1.3739e-05
1.05551e-05
7.39485e-06
4.93799e-06
3.5513e-06
3.13084e-06
3.44092e-06
4.4472e-06
6.49315e-06
1.02798e-05
1.70654e-05
2.55641e-05
3.37594e-05
2.61611e-05
1.97262e-05
1.54489e-05
1.27334e-05
1.20292e-05
1.30503e-05
1.57827e-05
1.95566e-05
2.35529e-05
2.70271e-05
3.0566e-05
3.48782e-05
3.97869e-05
4.48728e-05
2.03815e-05
1.5089e-05
1.1267e-05
8.60104e-06
7.40359e-06
7.41777e-06
8.79512e-06
1.13855e-05
1.47842e-05
1.83021e-05
2.17302e-05
2.54899e-05
3.00235e-05
3.50388e-05
1.60794e-05
1.16528e-05
8.42582e-06
6.08495e-06
4.79858e-06
4.38268e-06
4.91789e-06
6.45449e-06
8.92407e-06
1.19725e-05
1.52788e-05
1.85483e-05
2.21962e-05
2.68488e-05
1.25368e-05
8.90113e-06
6.13671e-06
4.19358e-06
3.07551e-06
2.59379e-06
2.73599e-06
3.59526e-06
5.27748e-06
7.65305e-06
1.03932e-05
1.31623e-05
1.58672e-05
2.01462e-05
9.55567e-06
6.4095e-06
4.15226e-06
2.67417e-06
1.84464e-06
1.46694e-06
1.47883e-06
1.95743e-06
3.06516e-06
4.82428e-06
7.02958e-06
9.38572e-06
1.1743e-05
1.55844e-05
6.96063e-06
4.26904e-06
2.55005e-06
1.53472e-06
1.00148e-06
7.65387e-07
7.61581e-07
1.04767e-06
1.77985e-06
3.05294e-06
4.79139e-06
6.80615e-06
9.00884e-06
1.23445e-05
4.77785e-06
2.60723e-06
1.4072e-06
7.84163e-07
4.85695e-07
3.64443e-07
3.77301e-07
5.72631e-07
1.08011e-06
2.01718e-06
3.39199e-06
5.13048e-06
7.24233e-06
1.06782e-05
3.16204e-06
1.50417e-06
7.16049e-07
3.62992e-07
2.13291e-07
1.63483e-07
1.94191e-07
3.50543e-07
7.37042e-07
1.4691e-06
2.60328e-06
4.14567e-06
6.2572e-06
1.01821e-05
2.24889e-06
9.38913e-07
3.87115e-07
1.73195e-07
9.63684e-08
8.22518e-08
1.25486e-07
2.69518e-07
6.0215e-07
1.23014e-06
2.23747e-06
3.70918e-06
6.01087e-06
1.07168e-05
2.05579e-06
8.21363e-07
3.15762e-07
1.33545e-07
7.59366e-08
7.4099e-08
1.25788e-07
2.7308e-07
5.96407e-07
1.20023e-06
2.19716e-06
3.77868e-06
6.58357e-06
1.21258e-05
2.61113e-06
1.14031e-06
4.73449e-07
2.23034e-07
1.41957e-07
1.35151e-07
1.93436e-07
3.57679e-07
7.10171e-07
1.36877e-06
2.49919e-06
4.46097e-06
7.98841e-06
1.4211e-05
4.30147e-06
2.28814e-06
1.11855e-06
5.63179e-07
3.60214e-07
3.17526e-07
3.79583e-07
5.78894e-07
1.00646e-06
1.81573e-06
3.26831e-06
5.87318e-06
1.02085e-05
1.71177e-05
7.26148e-06
4.64161e-06
2.73242e-06
1.52187e-06
9.41729e-07
7.60591e-07
8.05469e-07
1.05816e-06
1.60987e-06
2.65944e-06
4.57672e-06
8.0073e-06
1.36707e-05
2.10953e-05
1.10724e-05
7.96131e-06
5.49502e-06
3.58518e-06
2.34981e-06
1.78098e-06
1.70241e-06
1.99493e-06
2.69558e-06
4.01878e-06
6.38943e-06
1.06535e-05
1.76831e-05
2.53337e-05
2.02966e-05
1.49959e-05
1.15578e-05
9.3896e-06
8.5483e-06
8.5793e-06
9.46178e-06
1.08973e-05
1.27973e-05
1.47082e-05
1.67091e-05
1.95099e-05
2.58849e-05
3.63874e-05
1.25957e-05
9.52688e-06
7.30642e-06
5.79593e-06
5.06146e-06
4.91438e-06
5.36399e-06
6.31385e-06
7.74779e-06
9.42814e-06
1.14371e-05
1.40074e-05
1.86937e-05
2.60841e-05
8.13203e-06
6.17721e-06
4.711e-06
3.64497e-06
3.04777e-06
2.83418e-06
3.01734e-06
3.5929e-06
4.61653e-06
6.02166e-06
7.83263e-06
1.01335e-05
1.36393e-05
1.88464e-05
5.68136e-06
4.10828e-06
3.02479e-06
2.25403e-06
1.80314e-06
1.6062e-06
1.66093e-06
1.99294e-06
2.69927e-06
3.80656e-06
5.33175e-06
7.30037e-06
9.95946e-06
1.37608e-05
4.12185e-06
2.72548e-06
1.87353e-06
1.32302e-06
1.00917e-06
8.6447e-07
8.73634e-07
1.06532e-06
1.54201e-06
2.37914e-06
3.60746e-06
5.24754e-06
7.40457e-06
1.0419e-05
3.01638e-06
1.76757e-06
1.09674e-06
7.18594e-07
5.1918e-07
4.29916e-07
4.31655e-07
5.48882e-07
8.69624e-07
1.48512e-06
2.45243e-06
3.80895e-06
5.62309e-06
8.19804e-06
2.2182e-06
1.12486e-06
6.06983e-07
3.58126e-07
2.42031e-07
1.94981e-07
2.01176e-07
2.81589e-07
5.05498e-07
9.6128e-07
1.72463e-06
2.85689e-06
4.44001e-06
6.75753e-06
1.71721e-06
7.47332e-07
3.36593e-07
1.69555e-07
1.03686e-07
8.219e-08
9.39545e-08
1.58155e-07
3.29526e-07
6.87333e-07
1.31546e-06
2.29559e-06
3.73731e-06
5.93961e-06
1.4736e-06
5.70741e-07
2.14864e-07
8.73929e-08
4.55146e-08
3.67467e-08
5.28722e-08
1.12586e-07
2.62662e-07
5.74758e-07
1.13468e-06
2.03922e-06
3.42917e-06
5.64516e-06
1.49906e-06
5.63889e-07
1.96943e-07
7.04638e-08
3.26853e-08
2.80289e-08
4.77157e-08
1.1062e-07
2.61324e-07
5.68986e-07
1.12134e-06
2.02736e-06
3.45857e-06
5.81072e-06
1.80165e-06
7.25163e-07
2.72902e-07
1.08418e-07
5.72302e-08
5.00376e-08
7.33951e-08
1.46574e-07
3.1626e-07
6.55341e-07
1.25832e-06
2.24575e-06
3.81403e-06
6.41255e-06
2.61078e-06
1.20562e-06
5.33149e-07
2.48672e-07
1.47417e-07
1.25731e-07
1.5314e-07
2.46373e-07
4.56574e-07
8.66514e-07
1.58377e-06
2.73849e-06
4.54019e-06
7.52839e-06
4.01057e-06
2.15084e-06
1.13748e-06
6.14551e-07
3.8779e-07
3.22079e-07
3.50607e-07
4.76773e-07
7.53333e-07
1.27884e-06
2.18687e-06
3.64626e-06
5.94972e-06
9.45325e-06
5.97964e-06
3.56678e-06
2.19122e-06
1.36863e-06
9.31995e-07
7.69995e-07
7.88968e-07
9.64313e-07
1.34236e-06
2.039e-06
3.22955e-06
5.23384e-06
8.63073e-06
1.34085e-05
5.26503e-05
6.1565e-05
6.96572e-05
7.49161e-05
7.72892e-05
9.85813e-05
4.67478e-05
5.87678e-05
7.01233e-05
7.76579e-05
8.31389e-05
0.000109394
4.13553e-05
5.7049e-05
7.12542e-05
7.92213e-05
8.67004e-05
0.000119081
3.6751e-05
5.69109e-05
7.34832e-05
7.95446e-05
8.74975e-05
0.000127521
3.39583e-05
5.82445e-05
7.56441e-05
7.89e-05
8.61491e-05
0.000134705
3.31534e-05
6.04275e-05
7.62874e-05
7.70435e-05
8.3432e-05
0.000140372
3.44242e-05
6.11224e-05
7.4163e-05
7.40122e-05
8.0334e-05
0.00014411
3.70296e-05
5.99782e-05
6.98678e-05
7.09293e-05
7.77968e-05
0.000145404
3.87194e-05
5.6362e-05
6.48498e-05
6.80979e-05
7.57141e-05
0.000144443
3.87592e-05
5.15806e-05
5.98744e-05
6.53559e-05
7.37523e-05
0.000140743
3.78409e-05
4.71061e-05
5.53601e-05
6.27601e-05
7.21788e-05
0.000134236
3.71463e-05
4.41167e-05
5.19331e-05
6.04988e-05
7.08934e-05
0.000125235
3.68722e-05
4.24508e-05
4.98894e-05
5.90165e-05
6.97141e-05
0.000113936
3.64264e-05
4.17993e-05
4.93507e-05
5.89219e-05
6.91225e-05
0.000100409
5.07175e-05
5.99248e-05
6.82114e-05
7.49725e-05
7.82527e-05
9.18204e-05
4.11134e-05
5.20173e-05
6.435e-05
7.47777e-05
8.29631e-05
0.000102091
3.34333e-05
4.592e-05
6.1989e-05
7.51931e-05
8.54888e-05
0.000111189
2.69679e-05
4.12004e-05
6.10153e-05
7.57967e-05
8.58449e-05
0.000118783
2.26272e-05
3.83085e-05
6.11004e-05
7.63442e-05
8.47268e-05
0.000124896
1.98926e-05
3.7258e-05
6.16253e-05
7.6197e-05
8.26883e-05
0.00012942
1.89805e-05
3.72535e-05
6.11299e-05
7.43035e-05
8.04908e-05
0.000132378
1.94592e-05
3.75871e-05
5.91776e-05
7.15074e-05
7.87324e-05
0.000133952
2.05231e-05
3.70015e-05
5.57985e-05
6.84578e-05
7.75046e-05
0.000133882
2.1621e-05
3.53815e-05
5.18445e-05
6.5538e-05
7.67068e-05
0.000131402
2.25725e-05
3.36043e-05
4.82149e-05
6.27906e-05
7.59252e-05
0.000126115
2.39422e-05
3.29968e-05
4.59405e-05
6.03309e-05
7.48114e-05
0.00011788
2.64605e-05
3.41682e-05
4.54502e-05
5.85611e-05
7.32688e-05
0.000106889
2.89588e-05
3.63783e-05
4.63332e-05
5.76767e-05
7.16947e-05
9.37405e-05
4.78143e-05
5.988e-05
6.91776e-05
7.44407e-05
7.92128e-05
8.22675e-05
3.56426e-05
4.70473e-05
5.88381e-05
6.93218e-05
7.9994e-05
9.20053e-05
2.64883e-05
3.72117e-05
5.06798e-05
6.52067e-05
7.99314e-05
0.00010072
1.94999e-05
2.97508e-05
4.4401e-05
6.23619e-05
7.94984e-05
0.000107672
1.53016e-05
2.45456e-05
4.003e-05
6.06318e-05
7.88611e-05
0.000112888
1.24291e-05
2.11738e-05
3.76366e-05
5.99674e-05
7.81972e-05
0.000117049
1.06528e-05
1.93155e-05
3.6775e-05
5.95617e-05
7.69262e-05
0.000120436
9.8099e-06
1.8744e-05
3.6517e-05
5.84931e-05
7.58439e-05
0.000123043
9.70676e-06
1.88191e-05
3.58746e-05
5.69748e-05
7.51963e-05
0.00012434
1.00795e-05
1.8756e-05
3.44607e-05
5.51271e-05
7.51798e-05
0.000123214
1.07129e-05
1.84677e-05
3.27317e-05
5.32831e-05
7.50469e-05
0.00011871
1.16329e-05
1.85376e-05
3.17038e-05
5.16919e-05
7.38614e-05
0.000110707
1.36441e-05
2.02106e-05
3.25242e-05
5.08556e-05
7.22934e-05
9.97388e-05
1.64322e-05
2.35741e-05
3.53819e-05
5.09056e-05
7.10305e-05
8.65024e-05
3.51245e-05
4.16596e-05
5.06259e-05
6.12241e-05
7.14631e-05
0.000102203
2.71651e-05
3.37265e-05
4.44364e-05
5.83025e-05
7.41285e-05
0.000112081
1.98045e-05
2.64477e-05
3.87939e-05
5.52573e-05
7.49156e-05
0.000120033
1.37475e-05
2.06586e-05
3.43978e-05
5.25464e-05
7.39025e-05
0.000126025
1.0134e-05
1.71885e-05
3.16784e-05
5.06123e-05
7.16263e-05
0.000130216
8.09192e-06
1.59246e-05
3.12338e-05
4.96213e-05
6.89921e-05
0.00013281
7.35778e-06
1.61522e-05
3.17837e-05
4.88149e-05
6.62982e-05
0.000134504
7.75507e-06
1.74033e-05
3.24805e-05
4.76892e-05
6.3712e-05
0.000135905
9.15408e-06
1.88701e-05
3.22695e-05
4.57132e-05
6.13653e-05
0.000136708
1.12331e-05
1.99451e-05
3.1064e-05
4.3223e-05
5.99255e-05
0.000135682
1.34656e-05
2.05135e-05
2.94832e-05
4.09083e-05
5.97702e-05
0.000132147
1.54774e-05
2.09411e-05
2.84324e-05
3.96895e-05
6.07326e-05
0.000125175
1.71894e-05
2.17118e-05
2.88166e-05
4.0676e-05
6.27858e-05
0.000114945
1.86285e-05
2.3439e-05
3.1572e-05
4.49345e-05
6.75101e-05
0.000102498
2.99535e-05
3.77406e-05
4.70385e-05
5.81e-05
7.21872e-05
9.48297e-05
2.11467e-05
2.78727e-05
3.78354e-05
5.15982e-05
7.08018e-05
0.000103459
1.40081e-05
1.98569e-05
2.98729e-05
4.55055e-05
6.84049e-05
0.000110012
9.32399e-06
1.41448e-05
2.37768e-05
4.04733e-05
6.50651e-05
0.000114341
6.60428e-06
1.10807e-05
2.02508e-05
3.66549e-05
6.10539e-05
0.000116758
4.99466e-06
9.34559e-06
1.85047e-05
3.4522e-05
5.77527e-05
0.000118243
4.17054e-06
8.63191e-06
1.79485e-05
3.32825e-05
5.51183e-05
0.000119292
3.98302e-06
8.75348e-06
1.81396e-05
3.25489e-05
5.31778e-05
0.0001203
4.42039e-06
9.41718e-06
1.84179e-05
3.17501e-05
5.19952e-05
0.000121269
5.43122e-06
1.02817e-05
1.83644e-05
3.08183e-05
5.26112e-05
0.000121446
6.83936e-06
1.11886e-05
1.82913e-05
3.04302e-05
5.5065e-05
0.000119267
8.47972e-06
1.22846e-05
1.88543e-05
3.153e-05
5.88952e-05
0.000113981
1.03607e-05
1.40449e-05
2.10574e-05
3.52966e-05
6.4324e-05
0.000105705
1.25991e-05
1.71984e-05
2.60584e-05
4.26207e-05
7.14041e-05
9.49789e-05
1.8752e-05
2.69464e-05
3.75631e-05
5.13302e-05
7.02196e-05
8.51853e-05
1.27322e-05
1.89503e-05
2.82977e-05
4.24418e-05
6.43531e-05
9.18474e-05
7.89089e-06
1.27479e-05
2.07637e-05
3.46244e-05
5.83759e-05
9.63579e-05
5.2711e-06
8.69826e-06
1.52234e-05
2.8153e-05
5.1793e-05
9.88753e-05
3.68562e-06
6.53875e-06
1.20097e-05
2.33353e-05
4.56433e-05
9.96078e-05
2.70351e-06
5.17832e-06
1.00519e-05
2.03452e-05
4.07022e-05
9.92974e-05
2.13779e-06
4.3646e-06
8.89223e-06
1.84385e-05
3.73157e-05
9.90812e-05
1.86735e-06
3.96881e-06
8.32926e-06
1.73617e-05
3.53453e-05
9.96545e-05
1.85079e-06
3.91224e-06
8.18024e-06
1.69089e-05
3.52275e-05
0.000101471
2.10251e-06
4.13392e-06
8.27717e-06
1.7079e-05
3.77546e-05
0.000103955
2.62518e-06
4.60188e-06
8.70308e-06
1.83459e-05
4.34453e-05
0.000105025
3.42936e-06
5.41606e-06
9.86868e-06
2.16031e-05
5.18199e-05
0.000102908
4.62415e-06
6.98489e-06
1.2722e-05
2.78544e-05
6.16049e-05
9.70171e-05
6.63449e-06
1.03479e-05
1.88556e-05
3.77359e-05
7.09895e-05
8.76769e-05
0.000101302
8.25796e-05
6.44997e-05
5.03713e-05
3.95949e-05
3.29192e-05
0.000114453
7.7387e-05
5.78263e-05
4.46139e-05
3.55553e-05
3.03902e-05
0.000126072
7.56945e-05
5.53673e-05
4.27791e-05
3.4224e-05
2.89526e-05
0.000135053
7.61462e-05
5.62143e-05
4.40477e-05
3.45888e-05
2.77649e-05
0.000140615
7.80626e-05
5.94737e-05
4.67665e-05
3.47123e-05
2.51672e-05
0.000143838
8.25097e-05
6.37214e-05
4.82976e-05
3.26178e-05
2.09651e-05
0.000145137
8.92939e-05
6.62615e-05
4.65327e-05
2.82529e-05
1.593e-05
0.000145345
9.63418e-05
6.53101e-05
4.13143e-05
2.24896e-05
1.12774e-05
0.000144085
0.000100854
6.18524e-05
3.49961e-05
1.74416e-05
8.09419e-06
0.000140525
0.000101666
5.74735e-05
3.01778e-05
1.45841e-05
6.81769e-06
0.000134555
9.85002e-05
5.46325e-05
2.86081e-05
1.45211e-05
7.49588e-06
0.000126297
9.20961e-05
5.30083e-05
2.98684e-05
1.7035e-05
1.0253e-05
0.000116061
8.41105e-05
5.25574e-05
3.29728e-05
2.13314e-05
1.46416e-05
0.000104373
7.64749e-05
5.25535e-05
3.69799e-05
2.66612e-05
1.99913e-05
9.45296e-05
9.0058e-05
6.75777e-05
4.99294e-05
3.643e-05
2.79365e-05
0.000106606
8.53886e-05
6.04652e-05
4.1969e-05
2.93359e-05
2.24401e-05
0.000117009
8.33821e-05
5.63381e-05
3.72695e-05
2.50509e-05
1.85127e-05
0.000125261
8.33405e-05
5.42819e-05
3.53712e-05
2.28151e-05
1.56711e-05
0.000131038
8.38188e-05
5.38719e-05
3.44409e-05
2.09346e-05
1.32955e-05
0.000134487
8.55108e-05
5.39013e-05
3.31209e-05
1.88856e-05
1.09024e-05
0.000136203
8.878e-05
5.32628e-05
3.06482e-05
1.622e-05
8.47757e-06
0.000136698
9.25773e-05
5.1782e-05
2.74139e-05
1.34217e-05
6.38004e-06
0.000135666
9.55736e-05
5.00711e-05
2.45405e-05
1.13209e-05
5.03262e-06
0.000132507
9.68223e-05
4.87205e-05
2.3002e-05
1.04947e-05
4.67665e-06
0.000126887
9.53102e-05
4.85124e-05
2.33825e-05
1.12008e-05
5.3922e-06
0.000118805
9.11428e-05
4.93997e-05
2.58186e-05
1.37204e-05
7.51675e-06
0.000108543
8.54839e-05
5.06806e-05
2.94212e-05
1.75457e-05
1.0919e-05
9.6831e-05
8.00648e-05
5.26017e-05
3.39565e-05
2.24285e-05
1.53332e-05
8.71494e-05
9.6564e-05
7.24037e-05
4.94217e-05
3.22337e-05
2.08944e-05
9.89595e-05
9.54315e-05
6.51876e-05
3.93782e-05
2.28333e-05
1.39935e-05
0.000109001
9.3257e-05
5.92743e-05
3.2507e-05
1.76702e-05
1.04037e-05
0.00011701
9.01258e-05
5.34289e-05
2.85371e-05
1.49584e-05
8.29968e-06
0.000122389
8.6174e-05
4.86037e-05
2.55239e-05
1.29703e-05
6.74773e-06
0.000125398
8.28506e-05
4.50024e-05
2.31321e-05
1.13577e-05
5.50889e-06
0.000126795
8.1128e-05
4.26135e-05
2.12017e-05
9.97016e-06
4.51911e-06
0.000127198
8.13887e-05
4.16007e-05
2.00014e-05
9.0363e-06
3.86926e-06
0.000126455
8.2935e-05
4.17505e-05
1.95445e-05
8.58543e-06
3.55713e-06
0.000123983
8.4585e-05
4.27328e-05
1.99075e-05
8.75155e-06
3.65382e-06
0.000118938
8.47488e-05
4.40134e-05
2.08991e-05
9.46876e-06
4.16341e-06
0.000111101
8.26295e-05
4.59063e-05
2.31243e-05
1.12719e-05
5.44386e-06
0.000100867
8.02551e-05
4.78674e-05
2.59135e-05
1.3821e-05
7.46401e-06
8.90743e-05
7.83487e-05
5.04497e-05
2.95289e-05
1.72245e-05
1.02779e-05
9.70633e-05
7.3841e-05
6.9754e-05
6.3357e-05
5.61966e-05
5.00558e-05
0.000109932
7.19417e-05
6.61971e-05
5.9621e-05
5.34127e-05
4.88263e-05
0.000121388
7.15846e-05
6.47508e-05
5.87248e-05
5.33602e-05
4.93008e-05
0.000131174
7.28611e-05
6.55808e-05
6.06946e-05
5.62775e-05
5.21029e-05
0.00013894
7.61132e-05
6.8528e-05
6.5321e-05
6.19622e-05
5.55613e-05
0.00014435
8.09343e-05
7.35235e-05
7.22704e-05
6.82675e-05
5.66113e-05
0.000147188
8.72269e-05
8.03916e-05
7.96529e-05
7.15451e-05
5.30656e-05
0.000146817
9.46512e-05
8.76831e-05
8.39761e-05
6.88751e-05
4.5254e-05
0.000143737
0.000102254
9.2431e-05
8.19924e-05
6.04891e-05
3.63263e-05
0.000138728
0.00010877
9.21262e-05
7.3951e-05
5.0186e-05
2.94546e-05
0.000132354
0.000111798
8.8472e-05
6.55001e-05
4.3123e-05
2.64807e-05
0.000124102
0.000109066
8.339e-05
6.03532e-05
4.1015e-05
2.75132e-05
0.000114029
0.000101533
7.93726e-05
5.91691e-05
4.26704e-05
3.11564e-05
0.000102585
9.164e-05
7.53758e-05
5.99545e-05
4.66446e-05
3.67177e-05
9.02754e-05
7.61308e-05
7.14298e-05
6.4836e-05
5.62711e-05
4.82144e-05
0.000102077
7.52257e-05
6.9471e-05
6.17567e-05
5.21355e-05
4.43937e-05
0.000112771
7.53698e-05
6.89321e-05
6.03931e-05
4.93022e-05
4.03765e-05
0.000122037
7.65532e-05
7.00718e-05
6.14901e-05
4.93819e-05
3.89892e-05
0.000129538
7.88792e-05
7.27731e-05
6.50404e-05
5.1743e-05
3.71704e-05
0.000134907
8.26617e-05
7.70758e-05
6.97563e-05
5.26197e-05
3.53897e-05
0.000137734
8.83606e-05
8.23856e-05
7.21415e-05
5.11066e-05
3.19429e-05
0.000137488
9.5618e-05
8.62844e-05
7.05028e-05
4.67374e-05
2.74188e-05
0.00013478
0.000103093
8.65316e-05
6.49029e-05
4.06926e-05
2.3101e-05
0.000130678
0.000109617
8.29774e-05
5.77431e-05
3.53617e-05
2.04394e-05
0.000124812
0.000112702
7.9673e-05
5.30575e-05
3.28901e-05
2.00291e-05
0.000116701
0.000111383
7.75717e-05
5.23341e-05
3.42447e-05
2.24722e-05
0.000106662
0.000105553
7.68361e-05
5.46583e-05
3.83594e-05
2.71043e-05
9.53634e-05
9.85009e-05
7.69744e-05
5.93678e-05
4.51498e-05
3.41419e-05
8.2035e-05
8.01872e-05
7.57989e-05
6.79763e-05
5.4058e-05
4.06567e-05
9.36437e-05
8.20651e-05
7.60713e-05
6.24307e-05
4.52038e-05
3.24288e-05
0.000104254
8.4048e-05
7.65847e-05
5.94773e-05
3.98333e-05
2.60821e-05
0.000113635
8.64147e-05
7.78829e-05
5.82548e-05
3.74275e-05
2.43071e-05
0.0001212
8.88631e-05
7.84775e-05
5.74957e-05
3.68376e-05
2.28275e-05
0.000126304
9.11937e-05
7.80108e-05
5.62777e-05
3.53265e-05
2.08778e-05
0.000128462
9.39069e-05
7.67578e-05
5.35761e-05
3.25659e-05
1.85301e-05
0.000128261
9.7659e-05
7.43276e-05
4.97815e-05
2.9581e-05
1.65259e-05
0.000126412
0.000100728
7.16887e-05
4.63335e-05
2.7142e-05
1.50901e-05
0.000122536
0.000103028
7.02299e-05
4.45649e-05
2.61942e-05
1.48071e-05
0.000116408
0.000103825
7.04673e-05
4.4757e-05
2.69182e-05
1.57272e-05
0.000108135
0.000102503
7.22884e-05
4.78024e-05
3.0316e-05
1.88028e-05
9.80935e-05
9.94795e-05
7.526e-05
5.2822e-05
3.57767e-05
2.37936e-05
8.70688e-05
9.82645e-05
7.98137e-05
6.02712e-05
4.39419e-05
3.11462e-05
1.18034e-05
8.57586e-06
6.44951e-06
5.24189e-06
4.83155e-06
4.7906e-06
5.04598e-06
5.50001e-06
6.25042e-06
7.27243e-06
8.53805e-06
9.83663e-06
1.15806e-05
1.64058e-05
6.1003e-06
4.39469e-06
3.32674e-06
2.7081e-06
2.487e-06
2.48445e-06
2.65087e-06
2.93733e-06
3.4074e-06
4.08186e-06
4.99318e-06
6.07483e-06
7.69698e-06
1.14096e-05
3.48943e-06
2.30138e-06
1.70839e-06
1.38874e-06
1.2716e-06
1.27438e-06
1.36773e-06
1.53161e-06
1.81158e-06
2.24816e-06
2.8998e-06
3.79958e-06
5.24532e-06
8.1136e-06
2.22013e-06
1.26828e-06
8.77777e-07
6.97597e-07
6.34547e-07
6.36332e-07
6.84219e-07
7.72222e-07
9.34685e-07
1.21829e-06
1.69539e-06
2.44491e-06
3.69664e-06
5.97927e-06
1.52884e-06
7.4149e-07
4.50785e-07
3.37837e-07
3.02065e-07
3.02425e-07
3.26e-07
3.72915e-07
4.69548e-07
6.60541e-07
1.01915e-06
1.64116e-06
2.70504e-06
4.55216e-06
1.13182e-06
4.66988e-07
2.34901e-07
1.56779e-07
1.34733e-07
1.3418e-07
1.45945e-07
1.72531e-07
2.34271e-07
3.70098e-07
6.47002e-07
1.16078e-06
2.05894e-06
3.58158e-06
8.9892e-07
3.24146e-07
1.30207e-07
7.11671e-08
5.60469e-08
5.50977e-08
6.15844e-08
7.88529e-08
1.23061e-07
2.27179e-07
4.49722e-07
8.7924e-07
1.64309e-06
2.93128e-06
7.83459e-07
2.57148e-07
8.38217e-08
3.41859e-08
2.22795e-08
2.12596e-08
2.57133e-08
3.9334e-08
7.59349e-08
1.6425e-07
3.55548e-07
7.29626e-07
1.4005e-06
2.53339e-06
7.38941e-07
2.31661e-07
6.65543e-08
2.03487e-08
9.54945e-09
8.57382e-09
1.26068e-08
2.57043e-08
6.10045e-08
1.45328e-07
3.25443e-07
6.73954e-07
1.2958e-06
2.34131e-06
7.67265e-07
2.40728e-07
6.73432e-08
1.82396e-08
6.66343e-09
5.65003e-09
1.02214e-08
2.4978e-08
6.37275e-08
1.53466e-07
3.39226e-07
6.88836e-07
1.30144e-06
2.31809e-06
8.44257e-07
2.73759e-07
8.15251e-08
2.51099e-08
1.11496e-08
9.89498e-09
1.57969e-08
3.4224e-08
8.05452e-08
1.83564e-07
3.89099e-07
7.63079e-07
1.40186e-06
2.44033e-06
1.06744e-06
3.70494e-07
1.267e-07
5.07691e-08
3.00559e-08
2.75833e-08
3.59994e-08
6.11966e-08
1.205e-07
2.45507e-07
4.8444e-07
9.03153e-07
1.59574e-06
2.6929e-06
1.44486e-06
5.58375e-07
2.32643e-07
1.21117e-07
8.57364e-08
7.95812e-08
9.24125e-08
1.29969e-07
2.10945e-07
3.70252e-07
6.60198e-07
1.14909e-06
1.92727e-06
3.12235e-06
2.09134e-06
9.20263e-07
4.66811e-07
2.91925e-07
2.27301e-07
2.13115e-07
2.34717e-07
2.97342e-07
4.21044e-07
6.45469e-07
1.02865e-06
1.64356e-06
2.57914e-06
3.92056e-06
6.46027e-06
4.73299e-06
3.6794e-06
3.10698e-06
2.96376e-06
3.03082e-06
3.27735e-06
3.66078e-06
4.2382e-06
5.02824e-06
6.03597e-06
7.18959e-06
8.56789e-06
1.10411e-05
3.41482e-06
2.40265e-06
1.84507e-06
1.54558e-06
1.46464e-06
1.50842e-06
1.65218e-06
1.88111e-06
2.23275e-06
2.73707e-06
3.42524e-06
4.2784e-06
5.41559e-06
7.41785e-06
2.00246e-06
1.25393e-06
9.2304e-07
7.62256e-07
7.17607e-07
7.41155e-07
8.16757e-07
9.41592e-07
1.14196e-06
1.45133e-06
1.9135e-06
2.55614e-06
3.50832e-06
5.18262e-06
1.28534e-06
6.83884e-07
4.59141e-07
3.66749e-07
3.42226e-07
3.53868e-07
3.91293e-07
4.5558e-07
5.65812e-07
7.53678e-07
1.06789e-06
1.56339e-06
2.36435e-06
3.77054e-06
8.87383e-07
3.94933e-07
2.27739e-07
1.69787e-07
1.55665e-07
1.60988e-07
1.78984e-07
2.11572e-07
2.72878e-07
3.90296e-07
6.1098e-07
1.00002e-06
1.67129e-06
2.84895e-06
6.55526e-07
2.47506e-07
1.15885e-07
7.58212e-08
6.66773e-08
6.87313e-08
7.73322e-08
9.44488e-08
1.30748e-07
2.08847e-07
3.70523e-07
6.8015e-07
1.23968e-06
2.22527e-06
5.16928e-07
1.72615e-07
6.42601e-08
3.37002e-08
2.68952e-08
2.73855e-08
3.1704e-08
4.17662e-08
6.5978e-08
1.22998e-07
2.48563e-07
5.01508e-07
9.72545e-07
1.80697e-06
4.41707e-07
1.37292e-07
4.22261e-08
1.62953e-08
1.05232e-08
1.03566e-08
1.29348e-08
2.01785e-08
3.93042e-08
8.64649e-08
1.9277e-07
4.10916e-07
8.22197e-07
1.55213e-06
4.0759e-07
1.23842e-07
3.44465e-08
1.00687e-08
4.55734e-09
4.14808e-09
6.23681e-09
1.28882e-08
3.10771e-08
7.6017e-08
1.76299e-07
3.80058e-07
7.61896e-07
1.43447e-06
4.10623e-07
1.2702e-07
3.49478e-08
9.23605e-09
3.29385e-09
2.80203e-09
5.11144e-09
1.26272e-08
3.28926e-08
8.15567e-08
1.86688e-07
3.94062e-07
7.74638e-07
1.43332e-06
4.36162e-07
1.41369e-07
4.17698e-08
1.27456e-08
5.72771e-09
5.19552e-09
8.30253e-09
1.80131e-08
4.3058e-08
1.00653e-07
2.20197e-07
4.47688e-07
8.53637e-07
1.53901e-06
5.18554e-07
1.81695e-07
6.27179e-08
2.57741e-08
1.59413e-08
1.51668e-08
2.00401e-08
3.41116e-08
6.77502e-08
1.40609e-07
2.84872e-07
5.48653e-07
1.00354e-06
1.74837e-06
6.59515e-07
2.63281e-07
1.14745e-07
6.31829e-08
4.69449e-08
4.52009e-08
5.37503e-08
7.65211e-08
1.25444e-07
2.23119e-07
4.05644e-07
7.25115e-07
1.25406e-06
2.09086e-06
9.2279e-07
4.41264e-07
2.4098e-07
1.59161e-07
1.28545e-07
1.24289e-07
1.40702e-07
1.81941e-07
2.61243e-07
4.0412e-07
6.50294e-07
1.05589e-06
1.69094e-06
2.64131e-06
3.25382e-06
2.42882e-06
1.9469e-06
1.70157e-06
1.67777e-06
1.78915e-06
2.02797e-06
2.3795e-06
2.8592e-06
3.48102e-06
4.26398e-06
5.21354e-06
6.3997e-06
8.22112e-06
1.78748e-06
1.27403e-06
9.93804e-07
8.45764e-07
8.15159e-07
8.63724e-07
9.8435e-07
1.17705e-06
1.45779e-06
1.84745e-06
2.3714e-06
3.04673e-06
3.94948e-06
5.34539e-06
1.06073e-06
6.72418e-07
4.97075e-07
4.11538e-07
3.89801e-07
4.10408e-07
4.68062e-07
5.66056e-07
7.1885e-07
9.49489e-07
1.28903e-06
1.77081e-06
2.47425e-06
3.60136e-06
6.78466e-07
3.61892e-07
2.41942e-07
1.92288e-07
1.79594e-07
1.88551e-07
2.1532e-07
2.62858e-07
3.42689e-07
4.76159e-07
6.96114e-07
1.04613e-06
1.60561e-06
2.53376e-06
4.66226e-07
2.03966e-07
1.15906e-07
8.55585e-08
7.84162e-08
8.2336e-08
9.45637e-08
1.17229e-07
1.58951e-07
2.37539e-07
3.83803e-07
6.43566e-07
1.09195e-06
1.86267e-06
3.40368e-07
1.24257e-07
5.66853e-08
3.65567e-08
3.21802e-08
3.37646e-08
3.93119e-08
5.03872e-08
7.33567e-08
1.22316e-07
2.23774e-07
4.20599e-07
7.81412e-07
1.42109e-06
2.63871e-07
8.46269e-08
3.03854e-08
1.55725e-08
1.24516e-08
1.2959e-08
1.55667e-08
2.1527e-08
3.56844e-08
6.91663e-08
1.44018e-07
2.98333e-07
5.93775e-07
1.13096e-06
2.20538e-07
6.62114e-08
1.96178e-08
7.30786e-09
4.6951e-09
4.74298e-09
6.17011e-09
1.00903e-08
2.05063e-08
4.67084e-08
1.07527e-07
2.36763e-07
4.90101e-07
9.57463e-07
2.00788e-07
5.97159e-08
1.60944e-08
4.51239e-09
1.99729e-09
1.87196e-09
2.94449e-09
6.34013e-09
1.58321e-08
4.00342e-08
9.62026e-08
2.15438e-07
4.49429e-07
8.80648e-07
2.02221e-07
6.19951e-08
1.65979e-08
4.25139e-09
1.52392e-09
1.35743e-09
2.5271e-09
6.33484e-09
1.68763e-08
4.31064e-08
1.02261e-07
2.2465e-07
4.60398e-07
8.87968e-07
2.18942e-07
7.07159e-08
2.03671e-08
6.18262e-09
2.96661e-09
2.85714e-09
4.52865e-09
9.64827e-09
2.31182e-08
5.51383e-08
1.24428e-07
2.62588e-07
5.20933e-07
9.77095e-07
2.60136e-07
9.1577e-08
3.1394e-08
1.32966e-08
8.85813e-09
8.92006e-09
1.1905e-08
1.99507e-08
3.92132e-08
8.19679e-08
1.69761e-07
3.37325e-07
6.39119e-07
1.15358e-06
3.3154e-07
1.35763e-07
6.03691e-08
3.45447e-08
2.71005e-08
2.74549e-08
3.36267e-08
4.81787e-08
7.87231e-08
1.403e-07
2.58523e-07
4.73138e-07
8.43017e-07
1.44873e-06
4.71324e-07
2.37046e-07
1.33064e-07
9.0352e-08
7.58398e-08
7.67837e-08
9.04321e-08
1.19714e-07
1.73659e-07
2.701e-07
4.38638e-07
7.24055e-07
1.1877e-06
1.9076e-06
1.89209e-06
1.42893e-06
1.12629e-06
9.69499e-07
9.49166e-07
1.03781e-06
1.23474e-06
1.53054e-06
1.92899e-06
2.44037e-06
3.07543e-06
3.86769e-06
4.87659e-06
6.33108e-06
1.04214e-06
7.55239e-07
5.78073e-07
4.78416e-07
4.50453e-07
4.80801e-07
5.69615e-07
7.19421e-07
9.41057e-07
1.25126e-06
1.66921e-06
2.22311e-06
2.96736e-06
4.06019e-06
5.99853e-07
3.88822e-07
2.83017e-07
2.26854e-07
2.08287e-07
2.18589e-07
2.57297e-07
3.28411e-07
4.43122e-07
6.19678e-07
8.8192e-07
1.26307e-06
1.8182e-06
2.6693e-06
3.68861e-07
1.99832e-07
1.32214e-07
1.01747e-07
9.18958e-08
9.57234e-08
1.12385e-07
1.44806e-07
2.0175e-07
2.99414e-07
4.62247e-07
7.25989e-07
1.14643e-06
1.82535e-06
2.44126e-07
1.06405e-07
5.99805e-08
4.30099e-08
3.81529e-08
3.97333e-08
4.68977e-08
6.14997e-08
8.97212e-08
1.44369e-07
2.47446e-07
4.33201e-07
7.54588e-07
1.30157e-06
1.72318e-07
6.13899e-08
2.7605e-08
1.73533e-08
1.4835e-08
1.54823e-08
1.8579e-08
2.53334e-08
4.00102e-08
7.21882e-08
1.39975e-07
2.73578e-07
5.21061e-07
9.62485e-07
1.30029e-07
4.02495e-08
1.40384e-08
6.98654e-09
5.44227e-09
5.66448e-09
7.06334e-09
1.04944e-08
1.89874e-08
3.96707e-08
8.69378e-08
1.86498e-07
3.81216e-07
7.42658e-07
1.07232e-07
3.11721e-08
8.87591e-09
3.15801e-09
1.96316e-09
1.99794e-09
2.73531e-09
4.85447e-09
1.06963e-08
2.58805e-08
6.22298e-08
1.41943e-07
3.03574e-07
6.12098e-07
9.92442e-08
2.87704e-08
7.4229e-09
1.96511e-09
8.31623e-10
7.94712e-10
1.33191e-09
3.07406e-09
8.11784e-09
2.14699e-08
5.37281e-08
1.25163e-07
2.7176e-07
5.54371e-07
1.04539e-07
3.10854e-08
7.92525e-09
1.95226e-09
7.23107e-10
6.82836e-10
1.2734e-09
3.20381e-09
8.7165e-09
2.29822e-08
5.66415e-08
1.29783e-07
2.781e-07
5.6128e-07
1.19544e-07
3.69297e-08
1.01397e-08
3.10464e-09
1.6715e-09
1.72711e-09
2.65087e-09
5.3749e-09
1.26602e-08
3.05807e-08
7.1107e-08
1.5606e-07
3.23462e-07
6.34626e-07
1.47008e-07
4.95151e-08
1.65539e-08
7.32954e-09
5.3847e-09
5.76935e-09
7.70892e-09
1.24763e-08
2.37579e-08
4.93284e-08
1.03841e-07
2.12773e-07
4.18844e-07
7.86477e-07
1.93319e-07
7.73057e-08
3.42228e-08
2.02649e-08
1.69491e-08
1.82059e-08
2.2934e-08
3.28097e-08
5.27968e-08
9.31892e-08
1.7273e-07
3.2243e-07
5.91396e-07
1.04768e-06
2.84459e-07
1.42699e-07
7.9693e-08
5.48835e-08
4.81099e-08
5.14688e-08
6.31993e-08
8.54171e-08
1.24575e-07
1.93822e-07
3.16349e-07
5.28914e-07
8.85935e-07
1.45589e-06
1.34087e-06
1.00865e-06
7.70328e-07
6.32448e-07
5.89503e-07
6.32652e-07
7.63408e-07
9.82632e-07
1.29958e-06
1.72577e-06
2.26906e-06
2.95436e-06
3.82362e-06
5.02483e-06
7.2166e-07
5.26297e-07
3.93022e-07
3.10815e-07
2.76853e-07
2.85656e-07
3.3858e-07
4.41609e-07
6.07929e-07
8.55015e-07
1.19963e-06
1.66714e-06
2.29724e-06
3.19424e-06
3.96156e-07
2.62247e-07
1.8788e-07
1.4411e-07
1.24686e-07
1.25342e-07
1.46351e-07
1.92337e-07
2.74262e-07
4.09068e-07
6.1753e-07
9.28561e-07
1.3846e-06
2.06771e-06
2.28152e-07
1.27767e-07
8.44197e-08
6.23853e-08
5.2918e-08
5.24924e-08
6.09095e-08
8.08939e-08
1.19932e-07
1.91621e-07
3.16234e-07
5.23375e-07
8.56159e-07
1.38779e-06
1.40236e-07
6.31287e-08
3.62181e-08
2.5177e-08
2.095e-08
2.071e-08
2.41768e-08
3.28851e-08
5.1612e-08
9.02899e-08
1.66144e-07
3.06286e-07