/*--------------------------------*- C++ -*----------------------------------*\
| =========                 |                                                 |
| \\      /  F ield         | OpenFOAM: The Open Source CFD Toolbox           |
|  \\    /   O peration     | Version:  v2106                                 |
|   \\  /    A nd           | Website:  www.openfoam.com                      |
|    \\/     M anipulation  |                                                 |
\*---------------------------------------------------------------------------*/
FoamFile
{
    version     2.0;
    format      ascii;
    arch        "LSB;label=32;scalar=64";
    class       volScalarField;
    location    "0.000203";
    object      p;
}
// * * * * * * * * * * * * * * * * * * * * * * * * * * * * * * * * * * * * * //

dimensions      [1 -1 -2 0 0 0 0];

internalField   nonuniform List<scalar> 
144746
(
194878
195009
194744
194630
194458
194350
194158
193961
193709
193572
193493
193632
193593
194238
194766
194993
194932
194919
194801
194702
194559
194386
194165
194009
193895
193954
193958
194476
195126
195297
195276
195290
195208
195126
194991
194836
194638
194448
194281
194202
194093
194316
195376
195560
195609
195663
195628
195569
195445
195297
195112
194926
194739
194578
194414
194429
195751
195897
195963
196028
196028
195972
195862
195729
195554
195351
195148
194944
194759
194673
196135
196263
196321
196402
196400
196371
196263
196125
195945
195749
195545
195321
195121
194955
196554
196622
196672
196739
196752
196725
196629
196483
196295
196092
195888
195660
195426
195230
196926
196947
197014
197076
197093
197065
196970
196827
196644
196444
196230
195991
195743
195483
197256
197278
197347
197396
197414
197376
197281
197143
196974
196779
196559
196299
196018
195746
197516
197555
197627
197679
197685
197641
197551
197435
197300
197126
196909
196633
196333
195995
197734
197789
197852
197899
197891
197834
197760
197678
197585
197432
197230
196958
196654
196303
197953
197938
198003
198037
198034
197968
197915
197867
197818
197698
197534
197286
197017
196645
198187
198077
198130
198128
198107
198044
198041
198018
197995
197889
197758
197510
197240
196823
198257
198046
198177
198188
198167
198100
198139
198132
198129
198050
197975
197914
197960
197677
194347
194890
194885
195032
195083
195179
195172
195100
194968
194876
194752
194742
194583
195056
194636
195064
195187
195376
195447
195523
195531
195493
195407
195353
195268
195282
195229
195587
195125
195484
195561
195741
195836
195894
195904
195874
195797
195717
195621
195583
195526
195659
195575
195832
195936
196095
196186
196257
196273
196248
196170
196085
196012
195948
195886
195907
195998
196173
196322
196424
196529
196579
196596
196563
196502
196427
196349
196296
196238
196231
196394
196515
196622
196748
196836
196890
196900
196872
196800
196724
196671
196601
196570
196526
196718
196829
196932
197043
197116
197159
197168
197145
197086
197001
196928
196885
196812
196770
197016
197120
197214
197319
197384
197424
197430
197405
197348
197260
197183
197077
197028
196943
197230
197356
197456
197555
197618
197652
197660
197639
197592
197511
197430
197307
197213
197083
197435
197580
197693
197786
197847
197876
197880
197863
197824
197746
197666
197526
197399
197238
197643
197757
197875
197973
198030
198066
198072
198066
198030
197967
197892
197775
197634
197448
197832
197927
198037
198131
198199
198238
198257
198252
198223
198183
198108
198015
197884
197677
197993
198034
198159
198243
198312
198356
198387
198405
198386
198364
198286
198181
198070
197785
198007
198051
198244
198356
198445
198504
198552
198564
198562
198521
198490
198458
198488
198324
192890
193838
194076
194349
194559
194734
194829
194837
194764
194660
194560
194528
194457
194859
193794
194394
194778
195058
195264
195410
195499
195530
195498
195446
195460
195521
195569
195960
194779
195237
195535
195769
195937
196059
196134
196166
196155
196152
196167
196176
196206
196477
195625
195983
196269
196480
196643
196750
196812
196838
196829
196788
196792
196874
196877
197031
196379
196682
196944
197126
197284
197386
197447
197466
197455
197432
197402
197411
197469
197580
197045
197311
197564
197745
197904
198008
198066
198080
198067
198035
198001
197989
198029
198144
197619
197870
198113
198299
198456
198567
198629
198649
198635
198598
198553
198514
198556
198638
198199
198444
198662
198845
198992
199100
199162
199188
199174
199132
199078
199024
199042
199102
198689
198938
199144
199329
199468
199581
199649
199683
199673
199629
199568
199502
199492
199507
199148
199402
199602
199786
199922
200034
200108
200149
200143
200100
200032
199953
199919
199889
199512
199795
200007
200195
200332
200448
200526
200571
200573
200533
200464
200377
200334
200239
199803
200119
200365
200565
200704
200826
200907
200956
200961
200928
200861
200772
200721
200602
200023
200330
200582
200804
200962
201103
201201
201276
201301
201293
201238
201202
201100
200844
200025
200464
200795
201070
201266
201425
201530
201595
201613
201606
201576
201612
201627
201312
195643
196538
196542
197062
197059
198846
193920
194816
195262
196416
196784
198504
194176
194886
195310
196455
196944
198646
194294
194739
195136
196265
196829
198424
194565
194886
195267
196341
196941
198626
194807
195019
195349
196348
196930
198577
195054
195198
195466
196431
196907
198831
195272
195368
195647
196651
197115
199177
195508
195632
195934
196947
197410
199389
195774
195904
196166
197213
197655
199586
196165
196407
196678
197610
197895
199927
196531
196744
197071
198074
198436
199450
197049
197416
197750
198551
198944
199684
196578
197046
197583
198831
199339
199981
196213
196994
196807
196966
196550
198199
194991
195429
195582
196435
196491
198040
195466
195815
195944
196871
196848
198815
195815
196006
196115
196962
197031
198695
196224
196397
196528
197367
197448
199061
196506
196674
196830
197574
197692
198931
196725
196901
197033
197728
197730
199312
196878
197018
197098
197750
197687
199495
196993
197083
197175
197850
197864
199741
197122
197171
197243
197893
197993
199791
197332
197375
197394
197946
198053
199928
197596
197588
197526
198139
198175
199509
197869
197912
197971
198505
198589
199497
197184
197329
197513
198281
198785
199452
196092
196164
196186
195790
195237
196087
195445
195523
195384
195717
195633
196488
196212
196166
196078
196613
196610
198479
196964
196874
196864
197331
197455
199241
197673
197669
197803
198411
198641
200606
198289
198438
198724
199338
199625
200909
198819
199028
199347
199929
200278
201534
199262
199481
199767
200319
200559
202130
199636
199863
200058
200555
200853
202512
199961
200103
200251
200691
200982
202290
200261
200358
200478
200851
201060
201879
200631
200613
200602
200789
201004
202016
201102
200899
200982
201238
201261
201971
200715
200686
200738
201135
201504
201767
198659
199453
199350
199852
199900
200597
197322
198139
198212
199075
199028
200421
197729
198319
198348
199262
199099
201098
197925
198246
198237
199031
199019
200719
198119
198330
198375
199012
199014
200704
198193
198347
198370
198960
199149
200248
198199
198344
198377
198966
199126
200087
198191
198306
198333
198907
199058
199884
198166
198288
198339
198894
199078
199853
198179
198232
198271
198771
198930
199862
198232
198239
198270
198674
198853
199880
198276
198257
198316
198607
198806
199564
198316
198309
198383
198658
198894
199547
197594
197559
197723
198246
198513
199048
199168
199668
199498
199805
199716
199894
198099
198569
198451
199049
198933
199681
198326
198662
198521
199118
198812
200425
198480
198700
198600
199140
199075
200149
198607
198773
198763
199321
199463
200187
198688
198885
198961
199410
199623
199895
198701
198930
199048
199456
199655
200010
198684
198944
199088
199423
199533
199710
198616
198847
199018
199273
199370
199632
198548
198712
198876
199013
199112
199359
198471
198532
198653
198711
198875
199250
198403
198332
198419
198441
198609
198854
198337
198105
198162
198220
198500
198817
197479
197190
197263
197494
197899
198102
202209
202631
202657
202861
202704
202975
201613
202010
201957
202392
202328
202697
201727
202062
202011
202487
202433
202944
201794
202110
202092
202503
202507
202915
201864
202151
202225
202564
202672
203003
201878
202184
202328
202529
202558
202558
201851
202173
202345
202388
202276
202053
201739
202054
202141
202028
201736
201153
201577
201823
201780
201534
201057
200248
201370
201498
201378
200885
200151
198965
201141
201098
200876
200106
199319
197736
200853
200636
200276
199301
198451
196537
200552
200043
199645
198570
197765
195770
199689
198837
198214
197226
196765
194739
196705
195877
195473
194623
194203
194119
197343
196097
195792
195327
195150
195190
197274
195804
195591
195124
195033
195191
197783
195651
195560
195150
195145
195342
198149
195651
195604
195279
195369
195614
197839
196474
196192
195769
195771
195984
197714
196758
196639
196229
196287
196417
198137
197348
197184
196763
196811
196828
198440
197607
197555
197160
197246
197182
198913
197935
197938
197486
197568
197457
198954
197991
198110
197637
197784
197628
199420
198351
198463
197934
198095
197798
199258
198273
198498
198026
198217
197823
200210
199076
199304
199078
199152
198672
194705
194138
193625
192967
192921
193596
195523
194689
194466
194279
194371
195027
195564
194663
194609
194573
194674
195229
196214
195127
195065
195043
195136
195576
196389
195623
195509
195500
195563
195906
196659
196104
195986
196015
196036
196289
196885
196453
196335
196367
196400
196604
197371
196809
196726
196689
196746
196907
197572
197079
196958
196875
196969
197124
197999
197413
197253
197054
197194
197294
198056
197495
197433
197209
197400
197469
198423
197831
197752
197446
197610
197578
198208
197876
197862
197562
197754
197655
199251
198692
198696
198585
198528
198299
185924
188136
188132
189077
189799
191599
186672
189233
189828
191306
192085
193755
186912
189693
190463
192162
192950
194426
188244
190834
191621
193205
193956
195218
189678
191957
192730
194169
194883
195951
191315
193257
193952
195198
195853
196651
192874
194454
195116
196117
196716
197256
194270
195576
196175
196947
197500
197900
195238
196366
196931
197613
198091
198406
195830
196877
197430
198136
198601
198874
195956
197113
197672
198425
198931
199210
195857
197277
197846
198697
199216
199491
195537
197211
197758
198799
199431
199633
195522
197471
198285
199311
199776
200018
198336
196965
196409
195081
194247
193592
198089
196759
196158
195128
194511
194131
198112
196312
195675
194510
193937
193670
198050
196083
195483
194316
193764
193506
197941
195809
195160
194017
193560
193345
197743
195663
195006
193925
193521
193411
197520
195501
194831
193937
193720
193639
197303
195583
194957
194131
193919
193848
197203
195492
195073
194286
194138
194073
197295
195599
195349
194535
194394
194221
197226
195627
195466
194561
194493
194363
197810
195770
195621
194798
194853
194489
197494
195471
195674
194933
194937
194449
198001
196633
196827
196360
196321
195609
197059
195962
195307
194178
193640
193693
196896
195638
195317
194748
194516
194824
196615
195082
194798
194285
194208
194591
196644
194893
194737
194230
194176
194499
196611
194669
194586
194097
194153
194500
196508
194668
194622
194201
194329
194609
196268
194720
194712
194399
194544
194755
196139
194886
194874
194538
194667
194845
195758
194929
194980
194613
194727
194880
196193
195091
195031
194542
194690
194804
195882
194583
194694
194272
194463
194693
196101
194765
194704
194252
194411
194517
195433
194486
194545
194056
194180
194250
196117
195105
195370
195292
195334
194973
193777
193769
192718
192281
192250
193053
193010
193378
192842
193104
193310
194325
192151
192556
192162
192609
193021
194039
192190
192367
192146
192478
192961
193910
192434
192188
192132
192461
193049
193932
192771
192397
192351
192669
193247
194040
192724
192580
192570
192902
193441
194150
192469
192729
192630
193001
193517
194187
192118
192420
192329
192818
193365
194084
191713
191927
191939
192525
193095
193887
190548
191042
191212
191946
192667
193591
189595
190487
190739
191588
192276
193143
188023
189642
190054
191191
191981
192671
187748
189464
190318
191832
192372
193019
194943
195287
195363
195426
195495
195533
195570
195544
195483
195348
195190
195054
194905
195133
195698
195974
196098
196195
196231
196235
196248
196219
196178
196077
195977
195934
195926
196227
196500
196717
196841
196935
196972
196976
196970
196934
196892
196815
196728
196692
196659
196884
197237
197387
197529
197614
197665
197674
197660
197622
197578
197513
197443
197400
197408
197587
197940
198039
198181
198260
198318
198337
198327
198296
198246
198182
198110
198075
198077
198196
198610
198680
198801
198874
198936
198964
198962
198939
198891
198827
198760
198725
198747
198854
199244
199314
199410
199476
199534
199564
199571
199553
199505
199444
199376
199343
199368
199441
199913
199962
200015
200069
200113
200139
200147
200132
200087
200030
199961
199926
199942
199978
200515
200558
200592
200638
200670
200692
200696
200682
200638
200580
200510
200465
200466
200466
201147
201171
201180
201205
201217
201227
201220
201197
201149
201086
201013
200960
200946
200918
201646
201683
201700
201718
201717
201720
201705
201675
201623
201553
201481
201415
201397
201350
202253
202251
202255
202256
202233
202217
202182
202135
202068
201990
201914
201836
201830
201778
202588
202650
202655
202672
202659
202640
202602
202553
202483
202399
202327
202262
202270
202222
203284
203301
203294
203274
203216
203150
203072
202988
202896
202784
202708
202657
202693
202689
196267
196295
196252
196127
196071
196000
195955
195872
195756
195598
195427
195313
195198
195207
196926
196944
196922
196866
196813
196743
196681
196597
196495
196379
196263
196195
196142
196249
197555
197563
197578
197553
197517
197462
197401
197322
197229
197133
197040
196988
196922
197036
198205
198165
198202
198201
198198
198173
198126
198058
197975
197888
197804
197753
197694
197756
198852
198785
198822
198838
198853
198848
198817
198762
198690
198609
198530
198474
198426
198451
199530
199456
199470
199483
199500
199506
199487
199447
199385
199309
199224
199169
199116
199127
200224
200150
200135
200134
200143
200148
200133
200101
200041
199966
199877
199818
199764
199761
200939
200868
200824
200803
200795
200784
200762
200725
200662
200582
200488
200418
200365
200343
201620
201557
201498
201462
201435
201406
201368
201318
201248
201156
201060
200975
200920
200886
202313
202244
202168
202111
202061
202008
201946
201877
201793
201689
201587
201489
201430
201381
202908
202851
202772
202706
202638
202567
202486
202396
202297
202180
202073
201961
201906
201836
203562
203485
203389
203299
203204
203107
203001
202886
202769
202642
202529
202402
202357
202272
204018
203987
203895
203808
203705
203596
203475
203345
203212
203076
202963
202837
202801
202710
204812
204746
204600
204453
204289
204132
203973
203815
203660
203511
203390
203273
203248
203191
197933
197716
197602
197357
197168
196950
196762
196566
196361
196136
195918
195717
195571
195436
198472
198253
198130
197958
197804
197628
197450
197267
197073
196877
196700
196553
196422
196404
198984
198762
198667
198542
198433
198303
198150
197985
197809
197631
197462
197330
197186
197225
199555
199324
199238
199146
199068
198973
198851
198713
198557
198395
198235
198110
197987
197925
200184
199957
199863
199780
199713
199638
199540
199426
199290
199142
198986
198860
198726
198647
200877
200660
200538
200444
200370
200300
200215
200116
199990
199849
199695
199561
199429
199330
201599
201402
201250
201136
201043
200962
200874
200775
200648
200508
200351
200212
200084
199981
202328
202152
201977
201841
201722
201618
201512
201398
201261
201110
200951
200800
200682
200586
203017
202861
202677
202525
202382
202252
202121
201984
201831
201666
201502
201343
201232
201137
203697
203549
203354
203182
203013
202853
202693
202529
202359
202178
202008
201840
201727
201619
204302
204160
203966
203780
203595
203413
203229
203040
202853
202655
202479
202296
202180
202054
204947
204792
204576
204361
204149
203939
203732
203521
203317
203104
202919
202718
202598
202460
205548
205362
205138
204907
204680
204449
204219
203987
203760
203532
203330
203113
202986
202848
206321
206070
205782
205482
205206
204943
204690
204442
204199
203966
203745
203526
203397
203280
198921
198684
198500
198231
197982
197702
197431
197152
196876
196578
196295
195987
195772
195558
199455
199145
198959
198733
198528
198296
198055
197799
197538
197263
197011
196744
196539
196429
199968
199660
199483
199285
199104
198907
198697
198474
198239
197983
197749
197510
197310
197187
200583
200262
200073
199880
199714
199545
199368
199176
198966
198738
198510
198295
198107
197974
201266
200945
200729
200530
200362
200205
200045
199876
199685
199480
199263
199058
198861
198719
201977
201668
201424
201209
201030
200872
200719
200561
200381
200187
199976
199772
199575
199414
202680
202391
202126
201895
201699
201529
201371
201210
201031
200836
200626
200418
200221
200048
203354
203085
202807
202565
202348
202161
201986
201811
201623
201418
201201
200986
200792
200617
203985
203734
203448
203200
202965
202757
202560
202364
202158
201938
201711
201489
201304
201134
204600
204356
204059
203801
203546
203314
203092
202870
202645
202408
202170
201937
201754
201587
205193
204950
204646
204378
204106
203853
203604
203353
203103
202844
202594
202347
202162
201996
205811
205556
205227
204935
204643
204367
204095
203822
203551
203268
203000
202730
202543
202372
206457
206182
205843
205522
205203
204896
204591
204284
203978
203670
203379
203093
202900
202726
207133
206837
206449
206079
205729
205397
205071
204746
204414
204085
203760
203478
203274
203104
199694
199385
199166
198892
198627
198347
198065
197780
197489
197168
196829
196431
196110
195800
200262
199873
199642
199371
199131
198888
198643
198380
198100
197794
197475
197126
196812
196604
200848
200449
200198
199929
199697
199472
199249
199012
198755
198470
198162
197846
197522
197269
201520
201127
200846
200566
200327
200109
199898
199678
199437
199166
198873
198578
198270
198046
202204
201830
201523
201230
200981
200760
200553
200340
200109
199853
199575
199289
198991
198779
202873
202525
202203
201900
201639
201411
201200
200987
200757
200506
200237
199957
199677
199448
203506
203177
202845
202540
202269
202033
201813
201592
201357
201102
200837
200561
200296
200057
204094
203782
203445
203140
202861
202615
202382
202148
201903
201636
201367
201093
200836
200592
204650
204349
204010
203708
203420
203163
202913
202660
202399
202116
201836
201557
201307
201068
205191
204901
204553
204250
203951
203679
203410
203136
202854
202552
202254
201965
201712
201482
205752
205467
205113
204804
204490
204197
203899
203594
203282
202954
202633
202333
202078
201857
206317
206039
205666
205346
205013
204699
204375
204043
203701
203342
202997
202674
202411
202189
206966
206667
206284
205935
205575
205225
204857
204477
204091
203701
203328
202989
202728
202504
207567
207274
206849
206469
206084
205708
205313
204908
204492
204072
203663
203321
203045
202820
200416
200053
199796
199504
199235
198958
198681
198391
198087
197747
197389
196945
196558
196161
201019
200601
200328
200017
199743
199478
199220
198949
198648
198311
197950
197550
197158
196832
201599
201192
200897
200582
200305
200047
199795
199531
199240
198914
198553
198174
197783
197447
202233
201857
201541
201216
200923
200655
200397
200134
199846
199526
199176
198813
198438
198150
202838
202481
202154
201827
201527
201252
200989
200723
200436
200125
199790
199446
199093
198820
203419
203084
202750
202423
202118
201836
201564
201291
201001
200694
200373
200046
199722
199448
203972
203640
203298
202973
202666
202381
202101
201821
201524
201217
200905
200594
200292
200015
204493
204164
203815
203494
203183
202893
202604
202313
202008
201693
201383
201079
200794
200519
205003
204677
204322
204003
203685
203386
203084
202778
202458
202130
201815
201511
201235
200972
205512
205194
204828
204510
204181
203870
203549
203223
202885
202538
202208
201899
201623
201371
206062
205749
205375
205049
204700
204363
204011
203652
203286
202916
202570
202254
201973
201720
206607
206308
205918
205582
205212
204851
204468
204078
203680
203282
202912
202576
202286
202030
207246
206930
206527
206158
205754
205351
204919
204480
204042
203612
203222
202870
202584
202315
207820
207500
207062
206664
206231
205799
205339
204875
204409
203951
203529
203167
202856
202595
201132
200746
200462
200153
199871
199584
199299
198998
198686
198349
198001
197575
197204
196760
201683
201298
201013
200686
200387
200093
199808
199518
199202
198862
198503
198112
197705
197327
202155
201804
201515
201201
200905
200619
200334
200039
199725
199387
199021
198631
198207
197836
202695
202375
202084
201767
201460
201160
200864
200562
200241
199900
199536
199156
198745
198414
203216
202910
202598
202281
201972
201670
201368
201058
200731
200391
200037
199674
199294
198972
203721
203405
203107
202794
202483
202173
201857
201535
201199
200859
200516
200172
199825
199513
204222
203914
203595
203280
202965
202650
202324
201989
201644
201301
200967
200639
200321
200015
204729
204412
204079
203764
203441
203116
202777
202428
202072
201723
201393
201075
200776
200480
205237
204929
204583
204265
203927
203586
203228
202860
202488
202129
201798
201484
201195
200905
205764
205468
205108
204784
204426
204063
203679
203288
202896
202522
202181
201865
201581
201296
206334
206041
205666
205328
204941
204546
204126
203704
203285
202892
202538
202219
201938
201650
206873
206592
206200
205850
205436
205012
204558
204106
203663
203250
202880
202545
202253
201963
207504
207187
206768
206366
205908
205444
204954
204469
204001
203563
203183
202838
202552
202238
208020
207666
207205
206770
206290
205807
205305
204812
204329
203877
203479
203123
202808
202504
201712
201359
201068
200754
200461
200159
199862
199551
199235
198916
198602
198224
197903
197500
202165
201835
201557
201234
200926
200618
200313
200012
199697
199378
199054
198707
198338
197966
202521
202221
201956
201661
201364
201070
200775
200470
200157
199838
199506
199153
198762
198404
202977
202687
202419
202127
201830
201532
201230
200921
200601
200274
199935
199582
199192
198834
203411
203134
202855
202558
202265
201970
201666
201349
201020
200686
200345
199996
199623
199273
203874
203559
203282
203006
202718
202417
202100
201768
201424
201081
200740
200399
200046
199706
204316
204028
203745
203463
203168
202859
202527
202177
201817
201464
201122
200789
200455
200125
204819
204526
204230
203945
203637
203310
202957
202585
202205
201841
201498
201166
200845
200525
205342
205064
204752
204458
204125
203771
203389
202989
202589
202212
201868
201536
201223
200904
205898
205635
205302
204991
204625
204237
203819
203389
202967
202576
202226
201892
201585
201262
206499
206230
205863
205519
205113
204686
204229
203768
203323
202917
202559
202222
201921
201594
207048
206767
206370
205999
205556
205095
204604
204118
203660
203242
202876
202534
202235
201902
207632
207296
206866
206433
205945
205446
204932
204429
203957
203530
203162
202822
202533
202182
208066
207653
207184
206729
206235
205731
205217
204716
204247
203823
203452
203107
202798
202456
202275
201939
201633
201299
200983
200662
200352
200042
199736
199437
199151
198803
198512
198157
202663
202342
202053
201714
201391
201067
200756
200457
200162
199871
199583
199276
198936
198607
202944
202638
202366
202069
201770
201471
201180
200890
200601
200316
200025
199721
199370
199037
203336
203034
202761
202478
202189
201900
201611
201323
201032
200742
200444
200132
199772
199422
203708
203414
203155
202884
202601
202320
202031
201739
201440
201143
200837
200519
200161
199802
204098
203806
203539
203282
203022
202747
202451
202145
201829
201518
201201
200877
200519
200152
204493
204219
203975
203728
203464
203178
202864
202535
202197
201866
201538
201205
200848
200480
204962
204706
204453
204204
203923
203614
203273
202913
202548
202196
201854
201510
201154
200784
205483
205238
204968
204701
204388
204045
203667
203272
202880
202508
202155
201802
201448
201076
206036
205798
205496
205198
204843
204459
204040
203610
203193
202804
202444
202088
201742
201366
206631
206365
206009
205658
205253
204828
204373
203915
203476
203074
202712
202355
202018
201635
207147
206848
206444
206050
205600
205141
204660
204183
203738
203333
202973
202616
202288
201898
207648
207283
206838
206380
205887
205393
204898
204418
203971
203564
203206
202854
202542
202148
207973
207523
207051
206582
206083
205587
205105
204643
204207
203810
203457
203110
202788
202400
195073
195137
194937
194707
195364
196256
194245
193729
193178
192961
193929
195121
194453
193681
193021
192687
193459
194609
194569
193691
192925
192413
193026
194002
194687
193847
193129
192621
193030
193642
194761
193961
193290
192759
192876
192962
194832
194079
193429
192849
192738
192441
194804
194042
193370
192757
192553
192254
194717
193885
193197
192634
192529
192782
194537
193612
192914
192368
192428
193217
194397
193469
192823
192336
192557
193255
194383
193363
192767
192246
192595
192970
194628
193618
193210
192761
193299
193136
193569
192634
192359
192319
193508
193449
196415
196683
196604
196527
196461
196956
195582
195402
195068
195095
195154
195898
195544
195041
194564
194470
194424
195140
195383
194703
194107
193914
193834
194550
195358
194618
194028
193821
193774
194449
195308
194578
194017
193764
193682
194272
195285
194596
194105
193791
193648
194171
195207
194524
194048
193645
193371
193694
195083
194361
193851
193353
193033
193263
194904
194071
193434
192829
192505
192766
194753
193868
193243
192642
192345
192602
194622
193691
193026
192383
192126
192375
194760
193869
193268
192665
192365
192379
193857
192860
192168
191790
191993
192337
198064
198329
198527
198582
198471
198734
197351
197291
197081
197055
197098
197484
197108
196843
196470
196280
196113
196402
196718
196277
195700
195385
195182
195455
196478
195899
195254
194904
194759
195074
196257
195609
194993
194641
194525
194785
196106
195457
194906
194597
194507
194731
195933
195289
194799
194510
194365
194452
195738
195078
194640
194282
194068
194030
195506
194786
194287
193794
193520
193527
195315
194550
194033
193552
193319
193326
195102
194299
193730
193158
192848
192857
195109
194331
193820
193246
192839
192679
194364
193465
192840
192312
192233
192348
198937
199112
199360
199555
199526
199635
198402
198362
198315
198403
198484
198644
198168
198032
197874
197743
197511
197554
197774
197488
197117
196752
196398
196360
197442
197002
196432
195907
195487
195454
197085
196544
195898
195364
194966
194929
196784
196210
195592
195105
194787
194739
196508
195913
195355
194900
194599
194477
196255
195622
195125
194715
194420
194240
195962
195293
194792
194342
193990
193844
195719
194989
194493
194063
193787
193648
195426
194690
194178
193684
193351
193216
195317
194647
194214
193781
193384
193180
194707
193958
193446
192949
192759
192843
199670
199769
199904
200095
200144
200326
199178
199206
199203
199349
199463
199676
198927
198884
198823
198855
198725
198798
198556
198403
198229
198100
197815
197755
198206
197902
197575
197212
196736
196549
197835
197383
196887
196363
195842
195575
197478
196941
196357
195801
195314
195090
197143
196568
195963
195429
194938
194635
196847
196247
195666
195159
194718
194378
196547
195908
195353
194830
194371
194018
196251
195558
195032
194527
194181
193987
195920
195195
194701
194191
193887
193786
195675
195009
194632
194244
193949
193725
195045
194317
193875
193423
193257
193321
200273
200305
200330
200500
200578
200746
199781
199754
199739
199875
200026
200352
199501
199422
199365
199443
199503
199704
199169
199034
198933
198934
198866
198924
198847
198617
198421
198270
197997
197886
198489
198131
197788
197453
197037
196788
198145
197660
197187
196703
196225
196034
197799
197223
196655
196089
195625
195389
197467
196862
196261
195724
195249
194959
197147
196511
195931
195398
194835
194468
196819
196167
195636
195089
194631
194346
196473
195799
195301
194754
194347
194169
196165
195506
195114
194728
194457
194227
195522
194820
194412
194007
193826
193848
200939
200938
200960
201098
201178
201313
200448
200378
200327
200428
200564
200864
200135
200017
199930
199981
200084
200328
199795
199626
199522
199558
199627
199777
199478
199250
199094
199053
198995
198981
199133
198807
198551
198367
198149
197977
198791
198351
197974
197629
197240
197094
198442
197898
197404
196941
196518
196328
198103
197494
196930
196399
195975
195757
197769
197144
196552
196008
195512
195180
197447
196813
196282
195736
195239
194912
197129
196497
195998
195411
194903
194639
196836
196186
195746
195286
194905
194603
196177
195490
195047
194604
194342
194247
201569
201558
201600
201739
201870
202037
201121
201061
201015
201095
201214
201471
200786
200666
200562
200578
200670
200885
200425
200247
200123
200127
200229
200439
200096
199872
199720
199689
199734
199847
199750
199458
199249
199142
199089
199119
199408
199022
198731
198516
198339
198347
199051
198577
198192
197848
197563
197530
198713
198167
197713
197299
196928
196732
198391
197814
197291
196789
196363
196094
198088
197483
196968
196463
196052
195763
197782
197205
196718
196176
195702
195416
197546
196938
196489
196044
195639
195293
196948
196311
195881
195455
195115
194920
202190
202175
202235
202360
202454
202575
201782
201758
201759
201875
201986
202153
201430
201364
201307
201368
201446
201506
201037
200916
200822
200837
200906
200980
200673
200493
200366
200352
200391
200438
200308
200068
199901
199853
199841
199846
199959
199649
199430
199316
199216
199200
199603
199222
198938
198711
198514
198473
199270
198817
198464
198151
197852
197565
198956
198449
198004
197558
197153
196848
198674
198114
197639
197169
196756
196440
198360
197816
197334
196832
196363
196025
198156
197580
197117
196675
196263
195871
197621
197011
196580
196150
195784
195493
196198
196106
196085
195302
195530
194495
195908
195781
195665
195248
195776
195117
196635
196389
196300
196030
196695
196109
197413
197167
197148
196956
197515
197023
198202
198050
198107
198027
198582
198430
198907
198918
199070
199135
199667
199543
199569
199673
199948
200150