/*--------------------------------*- C++ -*----------------------------------*\
| =========                 |                                                 |
| \\      /  F ield         | OpenFOAM: The Open Source CFD Toolbox           |
|  \\    /   O peration     | Version:  v2106                                 |
|   \\  /    A nd           | Website:  www.openfoam.com                      |
|    \\/     M anipulation  |                                                 |
\*---------------------------------------------------------------------------*/
FoamFile
{
    version     2.0;
    format      ascii;
    arch        "LSB;label=32;scalar=64";
    class       volScalarField;
    location    "0.00015";
    object      epsilon;
}
// * * * * * * * * * * * * * * * * * * * * * * * * * * * * * * * * * * * * * //

dimensions      [0 2 -3 0 0 0 0];

internalField   nonuniform List<scalar> 
18109
(
6700.97
2024.27
481.485
94.3674
22.4387
9.8548
7.30852
3704.25
879.227
145.547
17.5398
2.25851
0.794578
0.679495
1699.35
333.578
49.2074
6.21163
0.814819
0.140187
0.0582264
785.831
161.188
31.7308
6.35869
1.1503
0.168924
0.0219251
456.449
118.294
30.8786
7.37438
1.40672
0.202911
0.0237208
363.585
113.29
32.296
7.7449
1.42523
0.202457
0.0247127
386.792
127.77
35.4955
8.06626
1.40858
0.207532
0.0370896
501.762
160.898
42.356
9.09335
1.5782
0.294076
0.130924
2180.62
533.107
99.2393
14.6569
2.78097
1.42018
1.23847
1.36776
1.51875
1.70564
2.4334
6.24396
23.5776
97.612
968.163
186.05
25.4079
2.58174
0.272562
0.0988277
0.0969767
0.121707
0.15943
0.190461
0.28693
1.07008
6.30514
38.3956
372.235
64.5066
9.30976
1.27448
0.177674
0.0250954
0.00786054
0.00801379
0.0111984
0.0171898
0.0517221
0.371639
2.83008
18.8717
175.501
37.0957
7.72046
1.53791
0.262241
0.0332814
0.00360115
0.000684194
0.000657212
0.00154573
0.012617
0.129639
1.11517
7.7853
119.64
31.7721
8.04591
1.78065
0.313889
0.03973
0.00399037
0.00033821
7.26395e-05
0.000312996
0.00395193
0.0443991
0.396388
2.83711
110.028
32.8455
8.62305
1.87478
0.315921
0.0388171
0.00400941
0.0005275
0.00024324
0.000283134
0.00162963
0.0178985
0.165648
1.21343
127.246
38.4005
9.6481
1.97828
0.31623
0.0392596
0.00579826
0.00270199
0.00238679
0.00225144
0.0028048
0.0116155
0.0942595
0.714282
170.566
49.0354
11.5711
2.2334
0.344429
0.0531157
0.0213211
0.0197579
0.0196075
0.0194086
0.0200032
0.0293435
0.0993775
0.656092
242.016
65.3354
14.6433
2.73833
0.458924
0.138165
0.11737
0.126213
0.130439
0.135567
0.145202
0.177217
0.2896
1.10306
353.028
92.0554
20.5982
4.06631
0.964878
0.569129
0.605261
0.674346
0.719056
0.781869
0.880607
1.05502
1.42394
3.55515
532.688
144.389
34.5654
8.16252
3.02233
2.43145
2.6879
3.04584
3.35603
3.81928
4.51294
5.44588
7.03885
14.8213
983.732
314.119
87.1978
24.9043
11.3758
9.56949
10.3535
11.8172
13.4536
16.0193
19.8237
24.4006
31.1046
59.1509
2291.7
909.173
296.317
93.6929
42.9765
33.9932
35.1404
39.9966
46.9099
58.2851
75.5668
96.4346
123.473
210.327
5595.67
2707.94
1046.33
363.117
156.518
110.446
106.522
118.872
142.457
184.117
251.047
336.729
444.043
679.59
7990.59
15974.4
32262
54897.2
78473
100185
2563.23
6323.99
15740.7
32074.7
53518
74606.1
892.084
3232.06
9914.48
22376
39255.2
57017.2
321.919
1623.66
5705.54
14043.9
26454.3
40843.8
120.489
770.06
3055.42
8199.37
16511.1
27425.1
44.2736
335.16
1519.84
4542.03
10046.2
18240.9
20.5321
162.099
797.704
2591.16
6195.94
12171.9
13.8768
99.972
486.433
1636.37
4127.56
8629.74
12.0086
77.3522
355.358
1188.37
3115.53
6935.89
11.7649
71.3573
314.841
1059.56
2957.68
7375.57
13.2564
78.752
352.361
1266.17
3912.62
10979.5
19.8815
118.39
550.209
2089.11
6717.53
18592.8
46.0795
257.617
1143.54
4078.88
11842.6
28310.1
143.786
685.72
2563.66
7586.92
18136
35662.1
495.942
1746.86
5012.87
11693.1
22709.8
37504.3
328.389
1282.83
4032.66
10002.7
19916.4
32763.7
213.411
848.82
2775.44
7239.64
15113.2
25903.6
106.3
460.187
1635.27
4615.11
10413.5
19154.1
43.7802
211.948
835.101
2596.1
6574.43
13300.3
16.4157
85.4526
370.449
1315.83
3881
8707.38
7.18055
39.5636
185.692
745.437
2343.24
5756.08
4.50647
26.484
129.98
521.388
1644.01
4150.77
4.28945
25.7151
123.097
469.291
1443.68
3693.78
6.12456
34.5734
157.018
581.617
1811.28
4937.08
14.7116
73.5507
310.911
1117.4
3478.31
9569.52
50.9149
221.598
835.51
2718.34
7656.97
18728.8
181.465
676.42
2182.48
6075.88
14558.7
30087.7
583.628
1824.72
4904.37
11295.5
22431.1
38600.6
1758.49
4300.88
9180.85
17087.8
28098.6
41292.3
1756.47
4213.08
8904.89
16413.2
26542.3
38211.2
1425.46
3423.47
7289.35
13602.8
22341.1
32732.8
1030.95
2529.63
5510.29
10550.9
17874
27045.4
722.665
1813.26
4020.36
7847.51
13604.7
21320.4
503.907
1271.26
2841.59
5674.83
10226.1
16900.1
379.86
969.247
2201.59
4498.6
8372.33
14515.8
316.912
820.996
1909.75
4073.56
8157.78
15885.6
296.184
804.834
2018.73
4826.97
11308.1
25992.6
334.078
1004.12
2893.74
8092.9
21218
49871.6
537.717
1826.62
5761.85
16242.4
39962.4
83622.6
1288.85
4191.19
12028.5
29668.8
62290.8
111932
3256.65
8783.95
20915.5
43123.2
77493.2
121054
7028.39
15222.4
29668.6
51237.6
79213.2
109399
12232.8
21694.3
35704.4
53715.1
74505.8
94925.4
3178.54
10579.9
29299.3
66023.5
121852
191484
6148.41
17109
40213.5
78150.5
127376
177888
10927.8
24406.5
47683.1
79346.1
115234
147449
16467.2
30145.7
50590.9
75269
100786
121918
6498.09
13956
26870.4
43480.1
61834
80364
4120.66
10254.5
20661.4
34602.7
50275.4
66614
2703.58
6959.46
14433.8
25126.3
37906.2
52361.8
1764.77
4554.11
9668.7
17462.4
27678.8
40553.8
1140.01
2947.57
6321.18
11801.6
20120.3
31623.1
729.523
1880.39
4166.37
8267.53
15176.8
25758
490.596
1304.29
3102.26
6756.88
13657.3
26093.5
372.407
1083.42
2880.16
7062.53
16308
36824.5
355.836
1157.51
3456.78
9672.65
25512.3
61932.7
443.881
1590.47
5299.23
16067.2
42790.9
96341.2
751.749
2851.47
9605.87
27305.9
64049.5
123851
1622.19
5509.4
16047.5
38646.3
77562.7
129957
3541.51
9552.8
22536
45010.6
77250.9
113951
6477.86
13765.5
26743.2
45956.9
70320.1
94724
93532.1
140178
207860
301949
306404
72694.4
111197
172367
270621
310562
56350.6
86751.9
137306
237192
297557
42085.8
66087.6
110108
221394
306969
30847.1
49989.9
93601.4
223680
334877
21891.1
37275.3
82173.3
231627
367271
16120.4
31669.5
87665.5
249977
406532
14220.8
37450.5
117471
298689
479500
523170
17910.5
58005
166853
359845
550788
639778
28488.8
88305.5
209787
380943
559871
717052
43594.5
113692
223591
348376
497614
730273
972462
55693.9
123393
207122
288093
389203
643466
1.2293e+06
1.22581e+06
59063.3
115491
180668
246356
303750
423042
1.30226e+06
3.74472e+06
54782.7
101357
162373
242037
310700
246478
294084
1.89889e+06
46708.6
85334.9
147178
245137
352131
256332
224159
1.2545e+06
37776.2
68477.2
125538
222468
335980
261791
225191
867089
29525
55191.1
103546
189059
299443
255267
218570
1.0403e+06
22227.6
42839.6
82880.5
166654
287177
267893
216038
318844
16174.4
32296.4
65578.3
151463
282308
289024
243937
221727
11482.9
23461.3
51186.7
138980
277110
322138
290796
223698
8534.59
18791.6
47446.3
140025
290537
382002
364127
406625
8177.9
22754.7
64776.1
172436
345083
483752
496065
270048
12321.8
38997
103872
228990
415065
596332
23310.6
66810.1
148219
267817
435351
661615
39277
94119.6
175401
264711
388626
657930
53426.3
109284
176167
234212
305960
542084
58493.2
105720
158213
206643
235636
341376
56010.7
96396.4
148908
213728
235607
50716.5
87141.8
143588
229818
267126
43889.1
75205
128379
219496
273311
37011.3
64507.6
113448
207550
274367
30470.6
54726.6
101469
212382
305070
25185.3
47933.2
103264
235127
362349
23121.1
50108.3
123728
273378
431335
30663.5
78706.9
180720
341330
506904
56477.5
141688
275642
434751
603550
101051
217608
359914
499183
677929
146439
266263
378818
477558
666076
173513
265491
331836
396460
582552
164807
228482
268929
307191
425102
136915
188615
228273
259111
270132
113881
162455
213515
271504
231352
96861.2
140117
195713
285823
260519
81102
116180
169397
276605
283693
67723
94866.4
149452
273157
309643
55177.3
78370.3
145627
295574
370042
44656.5
71902.9
164309
352124
455762
39732.8
83727.5
211681
427366
537593
49852.1
129183
297839
506698
610147
81407.7
206849
405373
592879
710611
131352
287749
483660
641574
790652
178503
332849
481096
598744
790500
199724
321906
413335
500847
712199
186897
272543
327995
382607
540217
150014
214454
264413
304461
340912
117358
170529
232913
299039
279055
300.461
58.6068
9.17838
1.27071
0.272963
0.171325
0.168244
0.18304
0.192014
0.184072
0.167071
0.254877
1.04756
6.44763
91.6483
14.8665
1.94884
0.226704
0.031249
0.011909
0.0125952
0.015329
0.0190531
0.0204088
0.0202178
0.0565387
0.455306
3.87833
32.8451
6.18134
1.1235
0.200235
0.0329891
0.00469173
0.00110097
0.00106714
0.00130273
0.00163325
0.00307131
0.0246212
0.25544
2.24414
22.5767
5.67835
1.34968
0.286062
0.0503501
0.00668204
0.000634337
9.77892e-05
8.34629e-05
0.000123082
0.000707206
0.00962791
0.111825
1.02581
21.8133
6.28058
1.62328
0.355055
0.0620924
0.00814916
0.000737292
5.4535e-05
7.92421e-06
1.64787e-05
0.000237784
0.0037126
0.0445522
0.414172
24.6729
7.30329
1.84544
0.385045
0.0635298
0.00793445
0.000709375
6.83047e-05
2.17342e-05
1.90185e-05
0.000104211
0.00156868
0.019331
0.182226
32.3598
9.20012
2.1786
0.424814
0.0657653
0.00789986
0.000866243
0.000284569
0.000229552
0.000194548
0.000201682
0.000931414
0.0101347
0.0966567
45.7764
12.0776
2.64128
0.476391
0.0692849
0.00912514
0.00267017
0.00224588
0.00214454
0.00193845
0.00171986
0.00213172
0.00782875
0.0658013
65.3043
16.0484
3.29677
0.564213
0.0841179
0.0197936
0.0156035
0.0162754
0.0163712
0.0156572
0.0147094
0.0153096
0.0201696
0.0794604
94.298
21.903
4.33208
0.743783
0.147345
0.081211
0.0899764
0.0989112
0.103632
0.104517
0.104831
0.109434
0.115341
0.217692
135.347
30.4538
6.04794
1.18227
0.414695
0.374669
0.447034
0.506784
0.55369
0.589486
0.630057
0.673711
0.697863
1.03652
217.26
52.0814
11.2505
2.84176
1.5399
1.59339
1.90941
2.21729
2.52883
2.84362
3.23201
3.5857
3.78349
5.15855
452.289
128.138
31.3943
9.42348
5.79655
6.00892
7.10723
8.40895
10.0075
11.8715
14.3442
16.7482
18.3835
23.4697
1186.76
400.501
110.387
34.704
20.4171
20.1414
23.255
27.8533
34.5191
43.1142
55.415
68.8463
80.5054
97.8645
14.8611
2.54182
0.40835
0.0738272
0.0298299
0.0269174
0.030241
0.0332661
0.0334874
0.0294743
0.0204892
0.0143032
0.0319462
0.260215
4.07949
0.681837
0.106967
0.01696
0.00348549
0.00186289
0.00217674
0.00275908
0.00324517
0.00326203
0.00246524
0.0028433
0.0209704
0.225339
2.65407
0.611117
0.132905
0.0265157
0.00462218
0.00071206
0.000188796
0.000190679
0.000239608
0.000258318
0.000257399
0.00118713
0.0152928
0.169091
3.19244
0.852359
0.205955
0.0432117
0.00751159
0.00103025
0.00010898
1.68277e-05
1.52282e-05
1.82582e-05
4.09548e-05
0.000574502
0.00869226
0.100522
4.02231
1.12737
0.277376
0.0577316
0.0097713
0.00129748
0.000127749
8.78277e-06
1.22668e-06
1.41137e-06
1.36721e-05
0.000286703
0.00455991
0.0538549
5.15243
1.40937
0.330013
0.0647318
0.0102974
0.00129367
0.000122591
9.21685e-06
1.74243e-06
1.16756e-06
6.49131e-06
0.000140172
0.00233925
0.0284458
6.97727
1.80418
0.394449
0.0720757
0.0107044
0.00127022
0.000129054
2.60015e-05
1.74828e-05
1.33123e-05
1.23397e-05
8.3016e-05
0.00130287
0.016035
9.71869
2.33663
0.471961
0.0796158
0.0110297
0.00134764
0.000291779
0.000202613
0.000180161
0.000147812
0.000112962
0.000133445
0.000811868
0.0094937
13.398
3.0145
0.569606
0.0901309
0.0123611
0.00242717
0.00166513
0.00163742
0.00155017
0.00134932
0.0010944
0.000972527
0.0012756
0.00760006
18.6212
3.93517
0.704638
0.108674
0.0187868
0.00963936
0.0107035
0.0113111
0.0111723
0.0102721
0.00893861
0.0080616
0.00712065
0.0124304
24.8811
4.98431
0.873713
0.14838
0.0492754
0.0486922
0.0604842
0.0664067
0.068415
0.0664472
0.0618848
0.0577654
0.0503154
0.0565662
33.8793
6.71131
1.23318
0.289795
0.189524
0.231031
0.294371
0.333979
0.359169
0.368837
0.36618
0.355768
0.32006
0.32742
52.1528
11.4716
2.43622
0.849948
0.764141
0.972572
1.24551
1.45566
1.63478
1.77794
1.87798
1.91492
1.80313
1.77111
113.288
29.5577
7.12898
2.976
2.85679
3.61906
4.61797
5.53898
6.49042
7.47556
8.39181
9.04775
9.04611
8.83532
0.974095
0.18383
0.0398749
0.0113322
0.00641025
0.00608948
0.00704548
0.00760881
0.00759273
0.00649375
0.00425832
0.00229736
0.00227865
0.0165338
0.344339
0.0648818
0.0117843
0.00217671
0.000555836
0.000374905
0.000488499
0.0006303
0.000732694
0.000714026
0.000514074
0.000344119
0.00135119
0.0161348
0.386124
0.0923016
0.0203439
0.00402939
0.000699772
0.000113756
3.80422e-05
4.26013e-05
5.51167e-05
5.85493e-05
4.7563e-05
8.60553e-05
0.00109254
0.0141888
0.572784
0.149319
0.0347379
0.00701132
0.00119093
0.00016474
1.8793e-05
3.61976e-06
3.51374e-06
4.14255e-06
4.72436e-06
3.84861e-05
0.000706751
0.0097957
0.806137
0.21345
0.0494475
0.00977326
0.00160211
0.000212085
2.18099e-05
1.73383e-06
2.73866e-07
2.69759e-07
9.44069e-07
2.15759e-05
0.000431908
0.00619116
1.07794
0.274312
0.0602771
0.0112399
0.00173622
0.000217407
2.13402e-05
1.6837e-06
2.26779e-07
1.28138e-07
4.39088e-07
1.15761e-05
0.000247275
0.00372158
1.47269
0.352646
0.0722294
0.0125086
0.00179434
0.000210128
2.09032e-05
3.27927e-06
1.77832e-06
1.26994e-06
1.03525e-06
7.31006e-06
0.000149188
0.00230061
2.0198
0.451324
0.0856755
0.0137271
0.00183349
0.000214466
3.81056e-05
2.24593e-05
1.88351e-05
1.45976e-05
1.03172e-05
1.13544e-05
9.27319e-05
0.00139905
2.70451
0.566707
0.100629
0.0150751
0.0019608
0.000338598
0.000200799
0.000190217
0.000172877
0.000142143
0.000106366
8.58325e-05
0.000117001
0.000974625
3.59968
0.70917
0.119076
0.0172208
0.00272799
0.00128089
0.00137262
0.00142045
0.00134856
0.00117023
0.000936308
0.000774579
0.000621513
0.00113367
4.54576
0.851479
0.138579
0.0215613
0.00680157
0.00687858
0.00846092
0.00910293
0.00901244
0.00824616
0.00704824
0.00606953
0.0047784
0.00475739
5.63819
1.02651
0.172481
0.0382878
0.0274447
0.0356683
0.0454377
0.0504762
0.0520804
0.0501611
0.0456404
0.04084
0.0331317
0.0300688
7.26496
1.40713
0.279142
0.109076
0.119301
0.164672
0.213063
0.244085
0.262508
0.266057
0.256682
0.239152
0.202296
0.178523
12.4772
2.89335
0.710926
0.396115
0.483752
0.674296
0.878998
1.03611
1.15982
1.23484
1.25659
1.22362
1.09027
0.961444
0.080982
0.016333
0.00424826
0.00161964
0.00120508
0.00128185
0.00150971
0.00167257
0.00169435
0.00145042
0.000955434
0.000484379
0.000264087
0.00112181
0.0414515
0.00848426
0.00166522
0.000332564
9.96636e-05
8.07913e-05
0.000108734
0.000141812
0.000165306
0.000159622
0.000115078
6.42417e-05
0.000101943
0.00113745
0.0635259
0.0152624
0.00332316
0.000647636
0.000111173
1.89704e-05
7.926e-06
9.73463e-06
1.27898e-05
1.37067e-05
1.07684e-05
9.60249e-06
7.99464e-05
0.0011385
0.103944
0.026417
0.00594345
0.00116272
0.00019295
2.66035e-05
3.2008e-06
7.843e-07
8.35322e-07
9.86459e-07
9.0677e-07
2.97217e-06
5.66716e-05
0.000891664
0.154097
0.0390162
0.00863584
0.00164165
0.000261948
3.43833e-05
3.62061e-06
3.29435e-07
7.79144e-08
7.76889e-08
1.15068e-07
1.66093e-06
3.86643e-05
0.000638849
0.208661
0.0503462
0.0105451
0.00189116
0.0002847
3.53418e-05
3.53609e-06
3.04761e-07
5.1881e-08
3.49078e-08
5.26975e-08
9.49936e-07
2.39803e-05
0.000423165
0.279223
0.0630362
0.0122845
0.00204477
0.000285807
3.31279e-05
3.28905e-06
4.66494e-07
2.21089e-07
1.53535e-07
1.15708e-07
6.3543e-07
1.52832e-05
0.000280454
0.370061
0.0777849
0.0140534
0.0021653
0.00028171
3.2199e-05
5.18609e-06
2.70149e-06
2.1412e-06
1.56998e-06
1.03941e-06
1.02136e-06
9.60234e-06
0.000176244
0.473889
0.0933934
0.0157709
0.00226845
0.000285487
4.65684e-05
2.5412e-05
2.3114e-05
2.00874e-05
1.55531e-05
1.08324e-05
7.93144e-06
1.0828e-05
0.000115965
0.597547
0.110889
0.0176969
0.00244975
0.000373759
0.000172001
0.000179255
0.000180055
0.000163323
0.000133227
9.88004e-05
7.45507e-05
5.48278e-05
0.000107482
0.714297
0.125866
0.0193381
0.00287238
0.000925529
0.000966955
0.00116621
0.00121771
0.00114916
0.000986569
0.00077856
0.000613311
0.000440781
0.000395441
0.818145
0.139691
0.0220829
0.00492602
0.00395117
0.00532294
0.00666978
0.00718549
0.0070465
0.00634991
0.00531085
0.0043471
0.00320982
0.00260871
0.936052
0.167174
0.0319874
0.0145044
0.0183276
0.0262285
0.03352
0.0372206
0.0379243
0.0358251
0.0316224
0.0268538
0.0205293
0.0164297
1.36981
0.292788
0.0760893
0.0556784
0.0792221
0.115217
0.149102
0.170288
0.179938
0.177606
0.164442
0.144963
0.11574
0.0932309
0.00635524
0.00131989
0.000380582
0.000192926
0.000188476
0.00022673
0.000280237
0.00032217
0.000334249
0.000291172
0.000195438
9.945e-05
4.19411e-05
7.38295e-05
0.00515515
0.00110486
0.000222538
4.58124e-05
1.55342e-05
1.47827e-05
2.09399e-05
2.80225e-05
3.30555e-05
3.21825e-05
2.3491e-05
1.2645e-05
9.11478e-06
7.0254e-05
0.0095584
0.00226509
0.000480697
9.12866e-05
1.54119e-05
2.80769e-06
1.48471e-06
1.97251e-06
2.62417e-06
2.84246e-06
2.24633e-06
1.44622e-06
5.20655e-06
7.66521e-05
0.0166472
0.00408824
0.00088389
0.000166866
2.6964e-05
3.70448e-06
4.84762e-07
1.64187e-07
1.88682e-07
2.21356e-07
1.95256e-07
2.59647e-07
3.76714e-06
6.60892e-05
0.0253131
0.00611953
0.00129287
0.000236297
3.66935e-05
4.78364e-06
5.27656e-07
6.86893e-08
3.29742e-08
3.35004e-08
3.45615e-08
1.23616e-07
2.76254e-06
5.21619e-05
0.0342574
0.00785793
0.00157098
0.000271342
3.98467e-05
4.9186e-06
5.15107e-07
6.30155e-08
2.61956e-08
2.36753e-08
2.42487e-08
7.97709e-08
1.82822e-06
3.74438e-05
0.0443565
0.0094977
0.00176834
0.000283988
3.88106e-05
4.48101e-06
4.62425e-07
7.66652e-08
4.25655e-08
3.46779e-08
3.00631e-08
6.20609e-08
1.22353e-06
2.6405e-05
0.0561022
0.0111733
0.00193232
0.000287868
3.66976e-05
4.15127e-06
6.37344e-07
3.04917e-07
2.33123e-07
1.68672e-07
1.13032e-07
9.87794e-08
7.93008e-07
1.72536e-05
0.0681704
0.012712
0.0020545
0.000285901
3.5197e-05
5.54077e-06
2.81465e-06
2.45716e-06
2.04881e-06
1.50942e-06
9.97947e-07
6.76731e-07
8.74725e-07
1.12229e-05
0.080716
0.0141845
0.00216776
0.000290385
4.35184e-05
1.99155e-05
2.0124e-05
1.95795e-05
1.6992e-05
1.30967e-05
9.11926e-06
6.35079e-06
4.34597e-06
9.18714e-06
0.0902645
0.0150682
0.00221658
0.00032175
0.000108849
0.000116442
0.000136511
0.000137872
0.000124154
0.000100315
7.39034e-05
5.37208e-05
3.58061e-05
2.9525e-05
0.0955489
0.0154513
0.00234887
0.000550536
0.000494387
0.000675549
0.000822246
0.000854651
0.00079709
0.000673434
0.000522757
0.000394197
0.000269053
0.000198341
0.0989994
0.0166622
0.00319846
0.00174286
0.00244156
0.00352716
0.0043821
0.00468185
0.00452021
0.00398772
0.00324823
0.00253185
0.00177895
0.00130001
0.128806
0.0260517
0.0075777
0.00718909
0.0112279
0.0165089
0.0207926
0.0227757
0.0227005
0.0208273
0.0176847
0.0142243
0.0103633
0.00764555
0.000494988
0.000103226
3.11216e-05
2.06799e-05
2.51605e-05
3.38392e-05
4.45633e-05
5.36968e-05
5.73158e-05
5.1104e-05
3.50619e-05
1.82122e-05
7.22951e-06
5.5904e-06
0.000625674
0.00013508
2.6968e-05
5.56141e-06
2.0883e-06
2.29403e-06
3.44787e-06
4.77915e-06
5.74585e-06
5.68228e-06
4.21911e-06
2.29655e-06
1.10933e-06
4.09436e-06
0.00128534
0.000296479
6.08531e-05
1.11987e-05
1.86431e-06
3.79259e-07
2.57641e-07
3.60006e-07
4.79957e-07
5.23026e-07
4.20913e-07
2.54984e-07
3.62911e-07
4.59485e-06
0.0023202
0.000547784
0.000113525
2.06475e-05
3.25444e-06
4.57643e-07
7.97752e-08
4.51123e-08
5.14835e-08
5.75418e-08
5.26893e-08
4.68106e-08
2.4236e-07
4.28412e-06
0.00354817
0.000820372
0.000165745
2.91605e-05
4.41517e-06
5.83632e-07
8.1863e-08
2.79202e-08
2.38116e-08
2.40281e-08
2.39578e-08
2.79819e-08
1.88822e-07
3.65715e-06
0.00473132
0.00103703
0.000198581
3.30998e-05
4.75028e-06
5.95555e-07
7.99291e-08
2.69046e-08
2.24839e-08
2.21814e-08
2.21747e-08
2.50658e-08
1.37954e-07
2.8331e-06
0.0058843
0.00120353
0.000215094
3.34347e-05
4.48177e-06
5.29545e-07
7.21306e-08
2.78955e-08
2.39213e-08
2.30977e-08
2.26299e-08
2.42331e-08
1.02446e-07
2.13021e-06
0.00705612
0.00134198
0.000223331
3.22986e-05
4.05243e-06
4.70488e-07
8.60564e-08
4.89893e-08
4.11249e-08
3.47032e-08
2.94872e-08
2.74384e-08
7.58829e-08
1.47131e-06
0.00810554
0.0014414
0.000224261
3.03258e-05
3.67947e-06
5.85435e-07
2.95226e-07
2.51865e-07
2.0605e-07
1.50904e-07
1.02281e-07
7.1808e-08
8.32691e-08
9.83586e-07
0.00896657
0.00150296
0.000221304
2.88486e-05
4.32534e-06
2.03325e-06
2.01282e-06
1.90034e-06
1.58742e-06
1.16838e-06
7.75702e-07
5.08491e-07
3.33705e-07
7.62138e-07
0.00931021
0.00148296
0.000210618
3.03172e-05
1.11274e-05
1.22296e-05
1.39784e-05
1.3662e-05
1.17832e-05
9.01594e-06
6.25122e-06
4.22062e-06
2.63374e-06
2.05262e-06
0.00907655
0.00140288
0.000208311
5.34284e-05
5.39377e-05
7.40551e-05
8.76328e-05
8.78969e-05
7.82005e-05
6.22709e-05
4.52076e-05
3.15717e-05
2.00666e-05
1.35724e-05
0.00856967
0.00138173
0.000276673
0.000186661
0.0002822
0.00040637
0.000490147
0.000503763
0.000462068
0.000382418
0.000289654
0.000208459
0.000135779
9.12347e-05
0.0102091
0.00199946
0.000693397
0.00083095
0.00137293
0.00200967
0.00245407
0.00257596
0.00242794
0.00208002
0.00163327
0.00120735
0.000810815
0.000550841
4.09238e-05
8.65061e-06
2.77841e-06
2.28124e-06
3.15268e-06
4.56219e-06
6.30075e-06
7.87415e-06
8.60676e-06
7.80426e-06
5.44317e-06
2.8882e-06
1.15429e-06
5.54048e-07
7.16792e-05
1.52224e-05
2.97842e-06
6.24346e-07
2.71606e-07
3.32399e-07
5.13347e-07
7.24329e-07
8.82301e-07
8.82993e-07
6.67334e-07
3.76167e-07
1.69734e-07
2.62678e-07
0.000154907
3.44741e-05
6.82213e-06
1.22559e-06
2.15582e-07
6.27276e-08
5.51292e-08
7.23569e-08
9.13061e-08
9.84574e-08
8.32923e-08
5.72019e-08
4.8477e-08
2.77316e-07
0.000285048
6.44286e-05
1.27879e-05
2.24917e-06
3.59711e-07
6.66247e-08
2.82746e-08
2.52421e-08
2.64417e-08
2.74025e-08
2.6662e-08
2.50712e-08
3.4642e-08
2.76662e-07
0.000433814
9.57936e-05
1.85224e-05
3.14826e-06
4.7889e-07
7.91677e-08
2.80156e-08
2.25875e-08
2.22015e-08
2.22513e-08
2.22339e-08
2.23605e-08
3.15622e-08
2.55989e-07
0.000564543
0.00011829
2.1735e-05
3.50998e-06
5.06679e-07
7.96661e-08
2.77294e-08
2.24253e-08
2.19795e-08
2.1951e-08
2.19502e-08
2.20981e-08
2.90101e-08
2.17479e-07
0.00067082
0.000131392
2.26047e-05
3.41836e-06
4.6436e-07
7.15633e-08
2.67993e-08
2.24765e-08
2.20847e-08
2.201e-08
2.19714e-08
2.20518e-08
2.71011e-08
1.79012e-07
0.000757788
0.000138272
2.22236e-05
3.14047e-06
4.03352e-07
6.38423e-08
2.77589e-08
2.42372e-08
2.3489e-08
2.29201e-08
2.24852e-08
2.22928e-08
2.56008e-08
1.36671e-07
0.000817569
0.000139558
2.10119e-05
2.78606e-06
3.50046e-07
7.22937e-08
4.59346e-08
4.1512e-08
3.70455e-08
3.2072e-08
2.79605e-08
2.54332e-08
2.62263e-08
1.01635e-07
0.000843692
0.000135977
1.94171e-05
2.4924e-06
3.94387e-07
2.03416e-07
1.98865e-07
1.83894e-07
1.51788e-07
1.12739e-07
7.87263e-08
5.62664e-08
4.29208e-08
8.19392e-08
0.000814698
0.00012501
1.72789e-05
2.51465e-06
1.03328e-06
1.16213e-06
1.29308e-06
1.22388e-06
1.01568e-06
7.44416e-07
4.95399e-07
3.20144e-07
1.96401e-07
1.55116e-07
0.000734447
0.00010972
1.61365e-05
4.68246e-06
5.25739e-06
7.19034e-06
8.26132e-06
7.99456e-06
6.80111e-06
5.13273e-06
3.5146e-06
2.29587e-06
1.37543e-06
8.70305e-07
0.000636771
9.98737e-05
2.16475e-05
1.81221e-05
2.88253e-05
4.10224e-05
4.79431e-05
4.73865e-05
4.13896e-05
3.22971e-05
2.29194e-05
1.53467e-05
9.33677e-06
5.81279e-06
0.00070812
0.000137687
5.98169e-05
8.62924e-05
0.000146969
0.000212199
0.000250618
0.000252109
0.000225385
0.000181248
0.000132716
9.09523e-05
5.67536e-05
3.57147e-05
3.51327e-06
7.57071e-07
2.6637e-07
2.49743e-07
3.6604e-07
5.50955e-07
7.86246e-07
1.01163e-06
1.1302e-06
1.04295e-06
7.4261e-07
4.08799e-07
1.76487e-07
8.0272e-08
7.49499e-06
1.56138e-06
3.12411e-07
8.03792e-08
4.86449e-08
5.86504e-08
8.2605e-08
1.11157e-07
1.33305e-07
1.34777e-07
1.07314e-07
6.93574e-08
4.11117e-08
3.75697e-08
1.66557e-05
3.58131e-06
6.98414e-07
1.37438e-07
4.0136e-08
2.61467e-08
2.60214e-08
2.84193e-08
3.099e-08
3.20085e-08
3.00653e-08
2.66233e-08
2.4417e-08
3.56346e-08
3.1008e-05
6.73091e-06
1.29836e-06
2.36353e-07
5.34703e-08
2.60438e-08
2.25749e-08
2.23575e-08
2.25332e-08
2.26629e-08
2.25661e-08
2.23307e-08
2.26952e-08
3.63118e-08
4.68484e-05
9.93129e-06
1.86126e-06
3.21692e-07
6.44816e-08
2.71511e-08
2.24856e-08
2.19972e-08
2.19645e-08
2.19715e-08
2.19687e-08
2.1967e-08
2.24718e-08
3.61432e-08
5.94496e-05
1.19864e-05
2.13928e-06
3.50988e-07
6.64533e-08
2.71242e-08
2.24404e-08
2.1965e-08
2.19234e-08
2.19203e-08
2.19205e-08
2.19294e-08
2.23449e-08
3.48112e-08
6.76168e-05
1.27835e-05
2.14363e-06
3.31813e-07
6.13701e-08
2.62712e-08
2.23358e-08
2.1956e-08
2.19202e-08
2.19136e-08
2.19115e-08
2.19174e-08
2.22444e-08
3.30856e-08
7.21433e-05
1.27453e-05
2.00399e-06
2.93291e-07
5.44498e-08
2.54304e-08
2.2381e-08
2.20803e-08
2.2016e-08
2.19708e-08
2.19388e-08
2.1926e-08
2.21604e-08
3.06885e-08
7.31014e-05
1.20983e-05
1.78755e-06
2.49248e-07
4.84796e-08
2.59544e-08
2.38013e-08
2.34074e-08
2.30237e-08
2.26241e-08
2.23107e-08
2.21254e-08
2.22035e-08
2.84505e-08
7.03388e-05
1.10154e-05
1.54901e-06
2.12835e-07
5.09999e-08
3.66234e-08
3.60787e-08
3.45384e-08
3.16848e-08
2.84682e-08
2.58209e-08
2.41332e-08
2.32309e-08
2.69129e-08
6.3025e-05
9.42151e-06
1.2903e-06
2.07212e-07
1.04863e-07
1.1726e-07
1.25867e-07
1.17332e-07
9.78358e-08
7.47072e-08
5.48099e-08
4.14017e-08
3.2692e-08
3.05155e-08
5.25293e-05
7.68366e-06
1.14603e-06
3.92887e-07
4.76401e-07
6.40177e-07
7.13638e-07
6.69556e-07
5.50028e-07
4.01132e-07
2.67202e-07
1.71836e-07
1.05958e-07
7.13946e-08
4.19539e-05
6.51063e-06
1.58623e-06
1.61126e-06
2.63459e-06
3.68621e-06
4.17681e-06
3.98074e-06
3.32543e-06
2.46587e-06
1.65539e-06
1.04553e-06
6.06019e-07
3.60265e-07
4.40915e-05
8.75348e-06
4.88506e-06
8.06016e-06
1.39234e-05
1.97391e-05
2.25571e-05
2.17994e-05
1.85601e-05
1.41028e-05
9.69917e-06
6.216e-06
3.63688e-06
2.14009e-06
3.11501e-07
8.15275e-08
4.18689e-08
4.21754e-08
5.47822e-08
7.52631e-08
1.02349e-07
1.29679e-07
1.45565e-07
1.37771e-07
1.04691e-07
6.69306e-08
4.01719e-08
2.83075e-08
7.18672e-07
1.6087e-07
4.74265e-08
2.70284e-08
2.44857e-08
2.57269e-08
2.84331e-08
3.17473e-08
3.442e-08
3.47565e-08
3.17314e-08
2.74435e-08
2.41782e-08
2.31106e-08
1.6061e-06
3.48814e-07
8.20689e-08
3.19253e-08
2.35126e-08
2.23565e-08
2.23986e-08
2.26783e-08
2.2978e-08
2.31036e-08
2.28881e-08
2.24964e-08
2.22026e-08
2.26698e-08
3.00486e-06
6.44162e-07
1.36398e-07
4.06072e-08
2.46355e-08
2.23009e-08
2.20122e-08
2.19979e-08
2.20179e-08
2.20321e-08
2.20206e-08
2.19925e-08
2.19966e-08
2.27143e-08
4.51076e-06
9.39069e-07
1.86857e-07
4.80761e-08
2.55739e-08
2.23834e-08
2.19897e-08
2.19474e-08
2.19436e-08
2.19435e-08
2.19427e-08
2.19417e-08
2.19686e-08
2.27544e-08
5.60265e-06
1.1104e-06
2.09194e-07
5.03219e-08
2.57018e-08
2.23679e-08
2.19749e-08
2.19338e-08
2.19291e-08
2.1928e-08
2.19278e-08
2.19284e-08
2.19535e-08
2.27341e-08
6.13867e-06
1.14472e-06
2.04037e-07
4.79741e-08
2.51881e-08
2.22796e-08
2.19554e-08
2.19229e-08
2.19188e-08
2.19178e-08
2.19175e-08
2.19182e-08
2.194e-08
2.26749e-08
6.23492e-06
1.09158e-06
1.84973e-07
4.3858e-08
2.45096e-08
2.21903e-08
2.19468e-08
2.19216e-08
2.19158e-08
2.19123e-08
2.19102e-08
2.191e-08
2.19276e-08
2.25564e-08
5.9743e-06
9.8395e-07
1.59876e-07
3.94197e-08
2.3927e-08
2.22043e-08
2.20366e-08
2.20043e-08
2.1975e-08
2.19465e-08
2.19253e-08
2.1914e-08
2.19233e-08
2.24297e-08
5.39845e-06
8.4594e-07
1.3438e-07
3.57895e-08
2.40075e-08
2.29654e-08
2.29075e-08
2.27763e-08
2.25564e-08
2.23226e-08
2.21389e-08
2.20271e-08
2.19752e-08
2.23202e-08
4.51209e-06
6.8032e-07
1.09454e-07
3.47944e-08
2.80281e-08
2.89896e-08
2.94827e-08
2.86884e-08
2.71254e-08
2.53926e-08
2.39762e-08
2.30622e-08
2.25091e-08
2.24568e-08
3.49341e-06
5.21986e-07
9.55914e-08
4.90098e-08
5.70547e-08
6.93235e-08
7.37466e-08
6.9105e-08
5.90336e-08
4.74639e-08
3.76501e-08
3.10064e-08
2.6731e-08
2.46164e-08
2.57876e-06
4.17245e-07
1.28539e-07
1.476e-07
2.32376e-07
3.12705e-07
3.42879e-07
3.1815e-07
2.59452e-07
1.89669e-07
1.28314e-07
8.48632e-08
5.58735e-08
4.04096e-08
2.55893e-06
5.48023e-07
3.91651e-07
6.91677e-07
1.18732e-06
1.64472e-06
1.8223e-06
1.70154e-06
1.39138e-06
1.01116e-06
6.64767e-07
4.09232e-07
2.34937e-07
1.39101e-07
4.44425e-08
2.64429e-08
2.34369e-08
2.35478e-08
2.46995e-08
2.66395e-08
2.93122e-08
3.21435e-08
3.39364e-08
3.33753e-08
3.02112e-08
2.64974e-08
2.3827e-08
2.26011e-08
7.99673e-08
3.31866e-08
2.39737e-08
2.2364e-08
2.21796e-08
2.2304e-08
2.25659e-08
2.2897e-08
2.31753e-08
2.32255e-08
2.29362e-08
2.25145e-08
2.21893e-08
2.20557e-08
1.56305e-07
4.88115e-08
2.6763e-08
2.27396e-08
2.2083e-08
2.19959e-08
2.20027e-08
2.203e-08
2.20598e-08
2.20729e-08
2.20521e-08
2.2013e-08
2.19827e-08
2.19952e-08
2.77606e-07
7.36122e-08
3.11882e-08
2.34227e-08
2.21621e-08
2.19814e-08
2.19589e-08
2.19575e-08
2.19591e-08
2.19602e-08
2.19591e-08
2.1956e-08
2.19553e-08
2.19897e-08
4.05972e-07
9.81341e-08
3.52868e-08
2.40116e-08
2.22281e-08
2.19797e-08
2.19489e-08
2.19451e-08
2.19444e-08
2.19442e-08
2.19442e-08
2.1944e-08
2.19458e-08
2.19875e-08
4.91402e-07
1.11143e-07
3.69297e-08
2.41638e-08
2.22283e-08
2.19703e-08
2.19397e-08
2.19361e-08
2.19354e-08
2.19352e-08
2.19352e-08
2.19352e-08
2.1937e-08
2.19825e-08
5.2063e-07
1.11434e-07
3.61605e-08
2.39296e-08
2.21762e-08
2.19551e-08
2.19303e-08
2.19274e-08
2.19268e-08
2.19267e-08
2.19266e-08
2.19267e-08
2.19284e-08
2.19753e-08
5.07592e-07
1.03969e-07
3.42186e-08
2.35516e-08
2.2111e-08
2.19398e-08
2.19215e-08
2.19193e-08
2.19187e-08
2.19185e-08
2.19183e-08
2.19187e-08
2.19203e-08
2.19646e-08
4.65109e-07
9.23783e-08
3.18757e-08
2.31619e-08
2.20544e-08
2.19316e-08
2.19192e-08
2.19166e-08
2.19146e-08
2.1913e-08
2.1912e-08
2.19121e-08
2.19137e-08
2.19537e-08
4.00884e-07
7.91764e-08
2.9625e-08
2.28468e-08
2.20444e-08
2.19723e-08
2.19668e-08
2.19572e-08
2.19426e-08
2.19281e-08
2.19174e-08
2.19119e-08
2.19102e-08
2.19422e-08
3.19671e-07
6.50509e-08
2.75728e-08
2.27312e-08
2.23016e-08
2.23629e-08
2.23867e-08
2.23261e-08
2.22184e-08
2.21054e-08
2.20169e-08
2.1963e-08
2.19325e-08
2.19399e-08
2.37511e-07
5.26823e-08
2.64348e-08
2.36865e-08
2.42969e-08
2.51076e-08
2.53403e-08
2.49577e-08
2.42318e-08
2.34465e-08
2.28113e-08
2.24007e-08
2.21511e-08
2.20384e-08
1.69441e-07
4.47468e-08
2.86609e-08
3.07464e-08
3.68743e-08
4.23155e-08
4.393e-08
4.16866e-08
3.72393e-08
3.23119e-08
2.82112e-08
2.54509e-08
2.37198e-08
2.28391e-08
1.59396e-07
5.21416e-08
4.76408e-08
7.14533e-08
1.08271e-07
1.40138e-07
1.49746e-07
1.37589e-07
1.12802e-07