/*--------------------------------*- C++ -*----------------------------------*\
| =========                 |                                                 |
| \\      /  F ield         | OpenFOAM: The Open Source CFD Toolbox           |
|  \\    /   O peration     | Version:  v2106                                 |
|   \\  /    A nd           | Website:  www.openfoam.com                      |
|    \\/     M anipulation  |                                                 |
\*---------------------------------------------------------------------------*/
FoamFile
{
    version     2.0;
    format      ascii;
    arch        "LSB;label=32;scalar=64";
    class       surfaceScalarField;
    location    "0.00015";
    object      phi;
}
// * * * * * * * * * * * * * * * * * * * * * * * * * * * * * * * * * * * * * //

dimensions      [1 0 -1 0 0 0 0];

internalField   nonuniform List<scalar> 
52765
(
1.13648e-06
-1.58524e-06
-2.235e-06
1.75291e-06
-1.76047e-06
6.17571e-07
-1.24784e-06
-2.23919e-06
8.2506e-08
-9.20312e-07
-2.16116e-06
-3.64289e-07
-6.87231e-07
-2.11982e-06
-7.23483e-07
-4.66312e-07
-2.05185e-06
-1.00373e-06
-2.64216e-07
-1.99218e-06
-3.78901e-08
-1.93993e-06
1.31136e-06
-1.2712e-06
-2.18108e-06
-2.05834e-06
6.84461e-07
-1.04789e-06
-2.18091e-06
1.71515e-07
-8.11717e-07
-2.12164e-06
-2.35476e-07
-6.719e-07
-2.08858e-06
-5.61602e-07
-5.14588e-07
-2.03937e-06
-8.24309e-07
-3.63141e-07
-1.99616e-06
-1.88395e-07
-1.95197e-06
1.34921e-06
-9.16249e-07
-2.1001e-06
-2.11715e-06
7.37411e-07
-8.28776e-07
-2.11318e-06
2.59996e-07
-7.10821e-07
-2.08122e-06
-1.18548e-07
-6.59356e-07
-2.06573e-06
-4.29637e-07
-5.60565e-07
-2.03225e-06
-6.76536e-07
-4.63591e-07
-1.99637e-06
-3.39723e-07
-1.95843e-06
1.30604e-06
-5.87578e-07
-2.04459e-06
-2.00883e-06
7.60057e-07
-6.46263e-07
-2.07419e-06
3.23868e-07
-6.30623e-07
-2.06333e-06
-2.54927e-08
-6.56559e-07
-2.05221e-06
-3.22423e-07
-6.06429e-07
-2.02648e-06
-5.59636e-07
-5.61214e-07
-1.99466e-06
-4.86352e-07
-1.961e-06
1.17483e-06
-3.86759e-07
-2.0349e-06
7.28084e-07
-5.4682e-07
-2.05308e-06
3.49201e-07
-5.93671e-07
-2.04949e-06
2.14076e-08
-6.6198e-07
-2.04019e-06
-2.51691e-07
-6.62059e-07
-2.02011e-06
-4.75756e-07
-6.60842e-07
-1.98811e-06
-6.24784e-07
-1.95968e-06
9.98837e-07
-3.1011e-07
-2.04164e-06
6.33702e-07
-5.136e-07
-2.04566e-06
3.1155e-07
-5.96887e-07
-2.04529e-06
2.76341e-08
-6.98532e-07
-2.03075e-06
-2.19626e-07
-7.32542e-07
-2.01164e-06
-4.26543e-07
-7.68735e-07
-1.98004e-06
-7.638e-07
-1.9547e-06
8.02962e-07
-3.08749e-07
-2.04442e-06
4.91452e-07
-5.24428e-07
-2.04545e-06
2.24662e-07
-6.48315e-07
-2.03961e-06
-1.80106e-08
-7.7019e-07
-2.02256e-06
-2.31354e-07
-8.31576e-07
-2.00358e-06
-4.15993e-07
-8.93167e-07
-1.97259e-06
-9.06252e-07
-1.94927e-06
5.86381e-07
-2.04513e-06
3.31452e-07
-2.0432e-06
1.17148e-07
-2.02912e-06
-8.13882e-08
-2.01087e-06
-2.56387e-07
-1.98915e-06
-4.18973e-07
-1.95883e-06
-1.9352e-06
1.26307e-06
-1.23628e-06
1.41e-06
-1.85608e-06
-1.78333e-06
7.88161e-07
-9.39596e-07
9.95801e-07
-1.78762e-06
3.01319e-07
-7.02156e-07
8.0147e-07
-1.73994e-06
-1.02469e-07
-5.31692e-07
5.55969e-07
-1.70723e-06
-4.35165e-07
-3.70155e-07
3.40248e-07
-1.65674e-06
-7.02177e-07
-2.21182e-07
1.39879e-07
-1.61147e-06
-9.03324e-07
-4.63106e-08
-8.77933e-08
-1.57125e-06
-1.05215e-06
1.40744e-07
-3.18133e-07
-1.52639e-06
-1.14899e-06
3.29627e-07
-5.47759e-07
-1.48316e-06
-1.16903e-06
4.85719e-07
-7.69276e-07
-1.43324e-06
-1.08932e-06
6.00187e-07
-9.78112e-07
-1.38509e-06
-9.13997e-07
6.84056e-07
-1.16241e-06
-1.35641e-06
-6.96918e-07
7.3368e-07
-1.26282e-06
-1.35642e-06
8.19893e-07
-1.32629e-06
-5.03667e-07
-1.37115e-06
1.34741e-06
-9.61506e-07
-2.02366e-06
-1.73621e-06
7.94158e-07
-7.79954e-07
-1.74253e-06
3.45744e-07
-6.25965e-07
-1.70456e-06
-1.78482e-08
-5.32241e-07
-1.68163e-06
-3.18584e-07
-4.21639e-07
-1.64423e-06
-5.6899e-07
-3.12342e-07
-1.61135e-06
-7.66939e-07
-1.78957e-07
-1.57781e-06
-9.02322e-07
-4.36857e-08
-1.53601e-06
-9.75978e-07
9.36354e-08
-1.4957e-06
-1.00686e-06
2.11411e-07
-1.458e-06
-9.90078e-07
2.79197e-07
-1.43045e-06
-9.26077e-07
3.17182e-07
-1.4116e-06
-8.33923e-07
3.31043e-07
-1.39381e-06
4.18967e-07
-7.55517e-07
-1.38112e-06
1.34498e-06
-6.69949e-07
-2.01787e-06
-1.66535e-06
8.1778e-07
-6.2288e-07
-1.6877e-06
3.99788e-07
-5.6339e-07
-1.66985e-06
6.21732e-08
-5.38998e-07
-1.66522e-06
-2.22648e-07
-4.74664e-07
-1.63914e-06
-4.57285e-07
-4.07332e-07
-1.61075e-06
-6.45267e-07
-3.11981e-07
-1.58106e-06
-7.86091e-07
-2.14862e-07
-1.54723e-06
-8.70765e-07
-1.2539e-07
-1.51464e-06
-9.12228e-07
-4.78039e-08
-1.48194e-06
-9.19096e-07
-1.23353e-08
-1.45142e-06
-8.95022e-07
-5.93847e-09
-1.42188e-06
-8.55313e-07
-1.2707e-08
-1.39651e-06
1.73487e-08
-7.66236e-07
-1.37997e-06
1.28251e-06
-4.32039e-07
-1.87239e-06
-1.62917e-06
8.22185e-07
-5.10471e-07
-1.66177e-06
4.41798e-07
-5.24285e-07
-1.65401e-06
1.26942e-07
-5.5533e-07
-1.65237e-06
-1.44779e-07
-5.28558e-07
-1.63233e-06
-3.69608e-07
-5.01848e-07
-1.60841e-06
-5.48722e-07
-4.43668e-07
-1.58246e-06
-6.85116e-07
-3.82602e-07
-1.55042e-06
-7.77793e-07
-3.3121e-07
-1.52089e-06
-8.39125e-07
-2.83294e-07
-1.4908e-06
-8.78907e-07
-2.67463e-07
-1.46063e-06
-8.98281e-07
-2.82926e-07
-1.42982e-06
-9.00387e-07
-3.10713e-07
-1.40283e-06
-3.28799e-07
-8.5911e-07
-1.37933e-06
1.15928e-06
-3.17373e-07
-1.61074e-06
-1.6275e-06
7.81289e-07
-4.66751e-07
-1.64609e-06
4.47303e-07
-5.15456e-07
-1.64814e-06
1.56851e-07
-5.84468e-07
-1.64247e-06
-9.50526e-08
-5.91393e-07
-1.62708e-06
-3.06791e-07
-5.9747e-07
-1.60276e-06
-4.82417e-07
-5.7017e-07
-1.58054e-06
-6.24603e-07
-5.37953e-07
-1.55082e-06
-7.33241e-07
-5.16028e-07
-1.52373e-06
-8.15318e-07
-4.93426e-07
-1.49302e-06
-8.80528e-07
-4.92863e-07
-1.46118e-06
-9.27947e-07
-5.26845e-07
-1.42857e-06
-9.57e-07
-5.76216e-07
-1.39852e-06
-6.26773e-07
-9.539e-07
-1.37205e-06
1.00503e-06
-3.0349e-07
-1.34532e-06
-1.63788e-06
6.9069e-07
-4.74334e-07
-1.64213e-06
4.04968e-07
-5.45935e-07
-1.643e-06
1.46461e-07
-6.36914e-07
-1.63241e-06
-8.06245e-08
-6.69584e-07
-1.6185e-06
-2.74724e-07
-7.03015e-07
-1.59411e-06
-4.42595e-07
-6.9886e-07
-1.57428e-06
-5.86927e-07
-6.86544e-07
-1.54437e-06
-7.10846e-07
-6.82073e-07
-1.51933e-06
-8.16421e-07
-6.76498e-07
-1.48797e-06
-9.11357e-07
-6.86161e-07
-1.45582e-06
-9.89805e-07
-7.38575e-07
-1.42417e-06
-1.05706e-06
-7.99878e-07
-1.39e-06
-8.81733e-07
-1.09186e-06
-1.36097e-06
8.34511e-07
-3.50557e-07
-1.10882e-06
-1.64008e-06
5.62173e-07
-5.1623e-07
-1.64169e-06
3.23643e-07
-6.16136e-07
-1.63832e-06
1.04367e-07
-7.20754e-07
-1.62549e-06
-9.1834e-08
-7.72122e-07
-1.61076e-06
-2.66536e-07
-8.22361e-07
-1.58667e-06
-4.26316e-07
-8.31678e-07
-1.56785e-06
-5.74054e-07
-8.2896e-07
-1.53715e-06
-7.12411e-07
-8.33283e-07
-1.51295e-06
-8.40571e-07
-8.36699e-07
-1.47871e-06
-9.60825e-07
-8.54362e-07
-1.44538e-06
-1.06714e-06
-9.22678e-07
-1.41291e-06
-1.16744e-06
-9.88911e-07
-1.37241e-06
-1.1014e-06
-1.2365e-06
-1.34251e-06
6.55097e-07
-4.55154e-07
-8.76899e-07
-1.63575e-06
4.295e-07
-6.11093e-07
-1.63464e-06
2.36068e-07
-7.34748e-07
-1.62453e-06
5.23967e-08
-8.428e-07
-1.61145e-06
-1.13854e-07
-9.06561e-07
-1.59476e-06
-2.70404e-07
-9.60919e-07
-1.57151e-06
-4.20181e-07
-9.75475e-07
-1.55284e-06
-5.67159e-07
-9.73573e-07
-1.52205e-06
-7.14811e-07
-9.77818e-07
-1.49846e-06
-8.61833e-07
-9.81086e-07
-1.46254e-06
-1.00625e-06
-1.00145e-06
-1.42947e-06
-1.14546e-06
-1.07493e-06
-1.39327e-06
-1.28565e-06
-1.13821e-06
-1.34862e-06
-1.27394e-06
-1.40104e-06
-1.31778e-06
4.6671e-07
-6.31846e-07
-6.42259e-07
-1.64006e-06
2.8864e-07
-7.75777e-07
-1.63177e-06
1.34153e-07
-9.08057e-07
-1.61709e-06
-1.43114e-08
-1.01148e-06
-1.60446e-06
-1.50634e-07
-1.07895e-06
-1.58495e-06
-2.89069e-07
-1.12377e-06
-1.5619e-06
-4.29341e-07
-1.13419e-06
-1.54194e-06
-5.75001e-07
-1.1248e-06
-1.51149e-06
-7.3043e-07
-1.11928e-06
-1.48665e-06
-8.9279e-07
-1.11452e-06
-1.4484e-06
-1.05704e-06
-1.13211e-06
-1.41536e-06
-1.22913e-06
-1.19488e-06
-1.3711e-06
-1.40745e-06
-1.25123e-06
-1.3267e-06
-1.38979e-06
-1.57859e-06
-1.28748e-06
2.6061e-07
-8.92806e-07
-3.76338e-07
-1.65125e-06
1.47921e-07
-1.02444e-06
-1.63137e-06
4.47602e-08
-1.15001e-06
-1.60442e-06
-6.07223e-08
-1.2344e-06
-1.58382e-06
-1.65213e-07
-1.2911e-06
-1.5592e-06
-2.83267e-07
-1.31509e-06
-1.53714e-06
-4.1231e-07
-1.3114e-06
-1.51804e-06
-5.56465e-07
-1.28505e-06
-1.49081e-06
-7.20624e-07
-1.25878e-06
-1.46699e-06
-9.00142e-07
-1.23692e-06
-1.43047e-06
-1.08795e-06
-1.24549e-06
-1.39831e-06
-1.29545e-06
-1.28474e-06
-1.34744e-06
-1.51756e-06
-1.3259e-06
-1.3063e-06
-1.42502e-06
-1.76884e-06
-1.24983e-06
4.99957e-08
-1.24135e-06
-1.05423e-07
-1.67447e-06
-3.38406e-10
-1.36029e-06
-1.63629e-06
-5.33284e-08
-1.45963e-06
-1.60251e-06
-1.11422e-07
-1.5196e-06
-1.56965e-06
-1.83251e-07
-1.54633e-06
-1.54314e-06
-2.79826e-07
-1.53606e-06
-1.52166e-06
-3.99608e-07
-1.50491e-06
-1.50286e-06
-5.42757e-07
-1.45356e-06
-1.47681e-06
-7.11414e-07
-1.40025e-06
-1.44992e-06
-9.00955e-07
-1.35669e-06
-1.41412e-06
-1.10746e-06
-1.34824e-06
-1.38198e-06
-1.34334e-06
-1.35701e-06
-1.32898e-06
-1.61849e-06
-1.35675e-06
-1.29386e-06
-1.37445e-06
-1.96544e-06
-1.2212e-06
-1.74708e-07
-1.65905e-06
1.71386e-07
-1.68296e-06
-1.59213e-07
-1.77681e-06
-1.63318e-06
-1.41081e-07
-1.8528e-06
-1.58326e-06
-1.34875e-07
-1.88253e-06
-1.53932e-06
-1.62328e-07
-1.85771e-06
-1.50792e-06
-2.27124e-07
-1.79774e-06
-1.48754e-06
-3.31686e-07
-1.72036e-06
-1.47332e-06
-4.72458e-07
-1.62988e-06
-1.45387e-06
-6.5043e-07
-1.53939e-06
-1.43179e-06
-8.58286e-07
-1.4671e-06
-1.39982e-06
-1.09182e-06
-1.4354e-06
-1.36715e-06
-1.36497e-06
-1.40528e-06
-1.32089e-06
-1.69374e-06
-1.34513e-06
-1.29057e-06
-1.26175e-06
-2.1208e-06
-1.22096e-06
-4.54432e-07
-2.09889e-06
4.42338e-07
-1.70252e-06
-3.79777e-07
-2.27832e-06
-1.64383e-06
-2.74319e-07
-2.35181e-06
-1.57684e-06
-1.88754e-07
-2.33537e-06
-1.52327e-06
-1.67179e-07
-2.23044e-06
-1.48707e-06
-2.04125e-07
-2.09742e-06
-1.46214e-06
-2.89822e-07
-1.96225e-06
-1.44343e-06
-4.1389e-07
-1.8286e-06
-1.42252e-06
-5.84935e-07
-1.69215e-06
-1.40113e-06
-8.03653e-07
-1.57625e-06
-1.37457e-06
-1.06876e-06
-1.50698e-06
-1.34668e-06
-1.37607e-06
-1.43487e-06
-1.31152e-06
-1.72577e-06
-1.33155e-06
-1.28139e-06
-1.15002e-06
-2.17295e-06
-1.24392e-06
-7.54772e-07
-2.59618e-06
7.92845e-07
-1.69977e-06
-6.05113e-07
-2.86189e-06
-1.63273e-06
-4.14227e-07
-2.94723e-06
-1.5413e-06
-2.2238e-07
-2.89901e-06
-1.45898e-06
-1.05726e-07
-2.69998e-06
-1.41917e-06
-9.33985e-08
-2.44947e-06
-1.40515e-06
-1.66553e-07
-2.21913e-06
-1.40473e-06
-3.06213e-07
-2.01765e-06
-1.39619e-06
-4.96559e-07
-1.83351e-06
-1.38169e-06
-7.4611e-07
-1.66424e-06
-1.35989e-06
-1.05058e-06
-1.55015e-06
-1.33521e-06
-1.39894e-06
-1.43776e-06
-1.30862e-06
-1.75978e-06
-1.3313e-06
-1.2835e-06
-2.20658e-06
-1.0607e-06
-1.28009e-06
1.68955e-06
-1.47682e-06
-1.69074e-06
1.55572e-06
-1.74204e-06
-1.80196e-06
1.33585e-06
-2.05449e-06
-1.87148e-06
1.06199e-06
-2.37775e-06
-1.83112e-06
8.25537e-07
-2.71034e-06
-1.56727e-06
-3.04183e-06
-9.20997e-07
1.28304e-06
1.42405e-06
-1.58654e-06
-1.17766e-06
1.1168e-06
1.5693e-06
-1.75372e-06
-1.38865e-06
8.46783e-07
1.73099e-06
-1.89281e-06
-1.6299e-06
4.83577e-07
1.82724e-06
-1.98066e-06
-1.88611e-06
8.20553e-08
1.74308e-06
-1.96005e-06
-2.13384e-06
1.34876e-06
-1.74043e-06
-2.1442e-07
-2.40456e-06
9.86009e-07
1.06973e-06
-1.47594e-06
1.01418e-06
1.11659e-06
-1.69611e-06
1.04343e-06
1.18815e-06
-1.95344e-06
1.11536e-06
1.15042e-06
-2.22497e-06
1.26318e-06
8.94525e-07
-2.52798e-06
3.15395e-07
1.51332e-06
-2.86742e-06
9.46031e-07
5.24874e-07
-1.69088e-06
1.12712e-06
4.80018e-07
-1.91789e-06
1.35239e-06
4.23081e-07
-2.2031e-06
1.63415e-06
2.42101e-07
-2.47853e-06
2.00723e-06
-1.94324e-07
-2.81143e-06
-9.73403e-07
2.50198e-06
-3.19763e-06
7.18132e-07
-6.67295e-08
-1.85397e-06
9.42687e-07
-2.23778e-07
-2.0766e-06
1.25589e-06
-4.42316e-07
-2.36384e-06
1.63449e-06
-7.61273e-07
-2.62754e-06
2.07051e-06
-1.32787e-06
-2.95009e-06
-2.23493e-06
2.55942e-06
-3.32304e-06
4.45224e-07
-6.06692e-07
-1.93185e-06
6.00158e-07
-8.59768e-07
-2.14352e-06
8.27064e-07
-1.20539e-06
-2.41447e-06
1.1336e-06
-1.65561e-06
-2.64386e-06
1.49023e-06
-2.32064e-06
-2.9157e-06
-3.31169e-06
1.90353e-06
-3.2444e-06
1.36572e-07
-1.03379e-06
-1.95892e-06
1.66708e-07
-1.3609e-06
-2.14089e-06
2.4007e-07
-1.78216e-06
-2.35875e-06
3.83953e-07
-2.32618e-06
-2.53487e-06
5.70407e-07
-3.04631e-06
-2.71642e-06
-4.07824e-06
7.96191e-07
-2.93071e-06
-2.27061e-07
-1.31486e-06
-1.93821e-06
-3.81947e-07
-1.65269e-06
-2.09118e-06
-5.32575e-07
-2.08833e-06
-2.23558e-06
-6.44103e-07
-2.67216e-06
-2.34353e-06
-7.20462e-07
-3.40303e-06
-2.40219e-06
-4.43215e-06
-7.96351e-07
-2.46973e-06
-6.0496e-07
-1.42732e-06
-1.85686e-06
-9.84373e-07
-1.69037e-06
-1.977e-06
-1.39591e-06
-2.08898e-06
-2.04066e-06
-1.81897e-06
-2.64393e-06
-2.07131e-06
-2.2709e-06
-3.31281e-06
-2.00628e-06
-4.2824e-06
-2.76752e-06
-1.95746e-06
-9.91286e-07
-1.35039e-06
-1.72546e-06
-1.59332e-06
-1.47027e-06
-1.82512e-06
-2.27556e-06
-1.78054e-06
-1.84113e-06
-3.03862e-06
-2.22595e-06
-1.81395e-06
-3.90936e-06
-2.75821e-06
-1.66604e-06
-3.60209e-06
-4.87602e-06
-1.54159e-06
-1.37152e-06
-1.08581e-06
-1.56666e-06
-2.1313e-06
-1.06218e-06
-1.66481e-06
-3.0157e-06
-1.24203e-06
-1.65629e-06
-4.05701e-06
-1.50645e-06
-1.58601e-06
-5.25832e-06
-1.85164e-06
-1.42971e-06
-2.45342e-06
-6.64058e-06
-1.26658e-06
-1.70328e-06
-6.76513e-07
-1.40551e-06
-2.54207e-06
-5.58706e-07
-1.50442e-06
-3.52111e-06
-5.94003e-07
-1.49474e-06
-4.69629e-06
-6.51071e-07
-1.4331e-06
-6.09222e-06
-7.55622e-07
-1.30888e-06
-1.00436e-06
-7.77136e-06
-1.11394e-06
-1.90879e-06
-2.21846e-07
-1.24732e-06
-2.72142e-06
-5.39049e-08
-1.35374e-06
-3.67964e-06
5.25889e-08
-1.3569e-06
-4.82962e-06
1.72937e-07
-1.35205e-06
-6.1685e-06
2.79113e-07
-1.29447e-06
3.25918e-07
-7.76547e-06
-1.13674e-06
-1.90935e-06
1.72656e-07
-1.09433e-06
-2.60491e-06
3.714e-07
-1.20565e-06
-3.41896e-06
5.76687e-07
-1.24134e-06
-4.35948e-06
7.93479e-07
-1.29837e-06
-5.39583e-06
9.95921e-07
-1.28275e-06
1.10031e-06
-6.51168e-06
-1.22766e-06
-1.77788e-06
4.17791e-07
-8.88741e-07
-2.27797e-06
6.37145e-07
-1.01088e-06
-2.84745e-06
8.7329e-07
-1.10065e-06
-3.44811e-06
1.08627e-06
-1.19683e-06
-4.02833e-06
1.2256e-06
-1.24582e-06
1.26667e-06
-4.60277e-06
-1.32617e-06
-6.72051e-07
3.81214e-07
-8.95211e-07
-8.89628e-07
6.19278e-07
-1.03741e-06
-1.2122e-06
9.09084e-07
-1.16544e-06
-1.61359e-06
1.15086e-06
-1.30572e-06
-2.07212e-06
1.27613e-06
-1.42596e-06
1.26774e-06
-2.55143e-06
-1.55982e-06
-8.00338e-07
1.58329e-07
-1.11641e-06
-8.30548e-07
3.4274e-07
-1.26787e-06
-8.73022e-07
5.86649e-07
-1.4151e-06
-8.89224e-07
7.39888e-07
-1.57649e-06
-9.30789e-07
7.91818e-07
-1.7546e-06
6.72237e-07
-9.52839e-07
-1.93541e-06
-7.21497e-07
-1.94355e-07
-1.30469e-06
-6.32819e-07
-1.00132e-07
-1.46933e-06
-5.144e-07
4.57252e-08
-1.63696e-06
-3.38451e-07
7.60269e-08
-1.82041e-06
-1.28016e-07
-2.48946e-09
-2.04411e-06
-2.89169e-07
1.48108e-07
-2.2498e-06
-7.8883e-07
-6.00974e-07
-1.45582e-06
-6.55765e-07
-6.19232e-07
-1.61649e-06
-4.44648e-07
-6.21704e-07
-1.78175e-06
-1.4132e-07
-7.41842e-07
-1.96252e-06
2.55482e-07
-1.0012e-06
-2.18571e-06
-1.45652e-06
7.23199e-07
-2.4206e-06
-9.13391e-07
-9.87301e-07
-1.55999e-06
-8.07741e-07
-1.11566e-06
-1.70217e-06
-6.00268e-07
-1.27769e-06
-1.84932e-06
-3.10628e-07
-1.53786e-06
-2.00252e-06
7.81206e-08
-1.95792e-06
-2.1886e-06
-2.58271e-06
5.51269e-07
-2.40308e-06
-1.14295e-06
-1.28836e-06
-1.60606e-06
-1.14281e-06
-1.5039e-06
-1.71631e-06
-1.06025e-06
-1.78745e-06
-1.82323e-06
-8.85381e-07
-2.17639e-06
-1.9339e-06
-6.17991e-07
-2.72266e-06
-2.04496e-06
-3.502e-06
-2.42247e-07
-2.18862e-06
-1.39742e-06
-1.47919e-06
-1.60253e-06
-1.54803e-06
-1.72928e-06
-1.68024e-06
-1.65896e-06
-2.07013e-06
-1.73822e-06
-1.69733e-06
-2.54292e-06
-1.78475e-06
-1.64966e-06
-3.17439e-06
-1.81247e-06
-4.06805e-06
-1.50218e-06
-1.83422e-06
-1.72236e-06
-1.50135e-06
-1.55043e-06
-2.09166e-06
-1.71404e-06
-1.60154e-06
-2.46878e-06
-2.04511e-06
-1.60229e-06
-2.82185e-06
-2.53468e-06
-1.57478e-06
-3.13846e-06
-3.18558e-06
-1.49484e-06
-4.13086e-06
-3.40063e-06
-1.41404e-06
-2.07213e-06
-1.3373e-06
-1.45877e-06
-2.65608e-06
-1.46623e-06
-1.49952e-06
-3.29233e-06
-1.73237e-06
-1.45916e-06
-3.9814e-06
-2.15274e-06
-1.38719e-06
-4.7333e-06
-2.72026e-06
-1.24491e-06
-3.60472e-06
-5.52396e-06
-1.10783e-06
-2.42147e-06
-1.00546e-06
-1.34512e-06
-3.16825e-06
-1.05132e-06
-1.38568e-06
-4.00519e-06
-1.219e-06
-1.33054e-06
-4.97631e-06
-1.49265e-06
-1.23812e-06
-6.09425e-06
-1.89356e-06
-1.08891e-06
-2.56129e-06
-7.378e-06
-9.09875e-07
-2.71917e-06
-5.62804e-07
-1.23953e-06
-3.55774e-06
-5.39965e-07
-1.28227e-06
-4.51628e-06
-5.9003e-07
-1.22897e-06
-5.65628e-06
-6.84193e-07
-1.15068e-06
-6.992e-06
-8.74689e-07
-1.02764e-06
-1.23126e-06
-8.58042e-06
-8.01417e-07
-2.87243e-06
-1.11134e-07
-1.12724e-06
-3.69086e-06
-3.99355e-08
-1.17988e-06
-4.63953e-06
2.7023e-08
-1.15998e-06
-5.77106e-06
9.22429e-08
-1.13992e-06
-7.07605e-06
8.78298e-08
-1.06983e-06
1.12784e-08
-8.61514e-06
-8.98555e-07
-2.83545e-06
2.82247e-07
-9.98179e-07
-3.56715e-06
3.98914e-07
-1.06172e-06
-4.40382e-06
5.34225e-07
-1.08715e-06
-5.35147e-06
6.74259e-07
-1.12624e-06
-6.40476e-06
7.64154e-07
-1.09769e-06
7.67771e-07
-7.53021e-06
-1.03965e-06
-2.71087e-06
5.52349e-07
-8.15393e-07
-3.26314e-06
6.8495e-07
-9.02104e-07
-3.87748e-06
8.32089e-07
-9.86522e-07
-4.51086e-06
9.4197e-07
-1.06378e-06
-5.15569e-06
1.00028e-06
-1.11146e-06
9.63342e-07
-5.78897e-06
-1.19512e-06
-1.43068e-06
6.79859e-07
-8.16829e-07
-1.84412e-06
8.08486e-07
-9.39488e-07
-2.32088e-06
9.58113e-07
-1.06401e-06
-2.84827e-06
1.06217e-06
-1.1915e-06
-3.37924e-06
1.05546e-06
-1.3149e-06
9.45722e-07
-3.90412e-06
-1.44726e-06
-1.58626e-06
6.23866e-07
-1.03285e-06
-1.81095e-06
6.70784e-07
-1.16949e-06
-2.02356e-06
7.33927e-07
-1.30952e-06
-2.18226e-06
7.15835e-07
-1.46405e-06
-2.28655e-06
5.73864e-07
-1.64811e-06
2.39929e-07
-2.24602e-06
-1.82681e-06
-1.60915e-06
4.36049e-07
-1.23996e-06
-1.73553e-06
3.7972e-07
-1.39296e-06
-1.79069e-06
2.97425e-07
-1.54973e-06
-1.75946e-06
1.21413e-07
-1.71648e-06
-1.60656e-06
-2.33914e-07
-1.91168e-06
-8.49144e-07
-1.25283e-06
-2.13299e-06
-1.73173e-06
2.25764e-07
-1.41272e-06
-1.83867e-06
3.35996e-08
-1.56724e-06
-1.81802e-06
-2.46694e-07
-1.7153e-06
-1.66618e-06
-6.2339e-07
-1.87621e-06
-1.34186e-06
-1.22542e-06
-2.06722e-06
-2.13216e-06
-7.93597e-07
-2.30966e-06
-1.88668e-06
4.31936e-08
-1.54458e-06
-2.05652e-06
-2.62439e-07
-1.66813e-06
-2.12826e-06
-7.00661e-07
-1.79606e-06
-2.03672e-06
-1.29489e-06
-1.93026e-06
-1.75356e-06
-2.14433e-06
-2.08022e-06
-3.33839e-06
-1.22691e-06
-2.27977e-06
-2.17613e-06
-2.51003e-08
-1.6206e-06
-2.5144e-06
-3.85221e-07
-1.71831e-06
-2.77501e-06
-9.43383e-07
-1.8032e-06
-2.87965e-06
-1.72299e-06
-1.87368e-06
-2.79362e-06
-2.77987e-06
-1.94713e-06
-4.21269e-06
-2.47307e-06
-2.03182e-06
-2.4873e-06
4.09937e-08
-1.64038e-06
-3.02541e-06
-2.91789e-07
-1.71585e-06
-3.55204e-06
-8.89828e-07
-1.75833e-06
-4.01705e-06
-1.74535e-06
-1.75555e-06
-4.35975e-06
-2.92586e-06
-1.71108e-06
-4.50572e-06
-4.52971e-06
-1.62669e-06
-2.84886e-06
2.68655e-07
-1.63347e-06
-3.61198e-06
3.34299e-08
-1.70492e-06
-4.45783e-06
-4.98871e-07
-1.69931e-06
-5.36155e-06
-1.29671e-06
-1.63685e-06
-6.2733e-06
-2.44599e-06
-1.5166e-06
-4.01349e-06
-7.15726e-06
-1.27639e-06
-3.22672e-06
6.37027e-07
-1.60425e-06
-4.17006e-06
5.30298e-07
-1.67479e-06
-5.27774e-06
1.48816e-07
-1.64786e-06
-6.56097e-06
-4.74342e-07
-1.56453e-06
-8.00181e-06
-1.42725e-06
-1.38769e-06
-2.85431e-06
-9.52474e-06
-1.02405e-06
-3.55494e-06
1.07688e-06
-1.57017e-06
-4.5751e-06
1.1003e-06
-1.64932e-06
-5.81481e-06
9.14843e-07
-1.6251e-06
-7.31502e-06
5.49905e-07
-1.55832e-06
-9.03349e-06
-1.61474e-07
-1.3724e-06
-1.40456e-06
-1.08874e-05
-9.4986e-07
-3.72139e-06
1.49072e-06
-1.51256e-06
-4.67054e-06
1.60159e-06
-1.59612e-06
-5.82915e-06
1.58083e-06
-1.60385e-06
-7.24549e-06
1.46435e-06
-1.60995e-06
-8.89957e-06
9.95194e-07
-1.49141e-06
6.66535e-08
-1.08204e-05
-1.16095e-06
-3.60731e-06
1.75353e-06
-1.44185e-06
-4.3552e-06
1.90877e-06
-1.53812e-06
-5.2674e-06
1.98038e-06
-1.6178e-06
-6.34304e-06
2.0076e-06
-1.70599e-06
-7.62844e-06
1.73583e-06
-1.67434e-06
1.07517e-06
-9.11774e-06
-1.49785e-06
-3.28282e-06
1.80922e-06
-1.31105e-06
-3.72831e-06
1.92482e-06
-1.4229e-06
-4.26451e-06
2.00694e-06
-1.57711e-06
-4.83843e-06
2.02239e-06
-1.71253e-06
-5.53716e-06
1.82902e-06
-1.74706e-06
1.32897e-06
-6.3974e-06
-1.74636e-06
-2.72786e-06
1.63801e-06
-1.1021e-06
-2.85357e-06
1.68116e-06
-1.25102e-06
-3.0104e-06
1.71781e-06
-1.43936e-06
-3.20541e-06
1.68774e-06
-1.61913e-06
-3.45596e-06
1.47071e-06
-1.76654e-06
9.65703e-07
-3.7501e-06
-1.96115e-06
-2.94701e-06
1.63356e-06
-2.13468e-06
-4.0948e-06
1.90587e-06
-2.35143e-06
-5.50538e-06
1.8879e-06
-2.45935e-06
-7.2446e-06
1.63793e-06
-2.52615e-06
-9.23527e-06
9.98183e-07
-2.47411e-06
-2.89615e-07
-2.11196e-06
-2.84066e-06
1.93998e-06
-1.98571e-06
-3.64767e-06
2.24289e-06
-2.22446e-06
-4.63153e-06
2.34945e-06
-2.39062e-06
-5.84664e-06
2.28742e-06
-2.56035e-06
-7.23748e-06
1.87901e-06
-2.59965e-06
9.34006e-07
-2.38182e-06
-2.46093e-06
1.9758e-06
-1.77419e-06
-2.86267e-06
2.19639e-06
-2.02096e-06
-3.33239e-06
2.30893e-06
-2.24598e-06
-3.86743e-06
2.28964e-06
-2.48609e-06
-4.54819e-06
2.01028e-06
-2.58466e-06
1.29709e-06
-2.59267e-06
-1.77895e-06
-1.4678e-06
-1.75647e-06
-1.73377e-06
-1.76466e-06
-1.99794e-06
-1.82935e-06
-2.27682e-06
-1.97642e-06
-2.50443e-06
-2.73595e-06
5.05716e-07
1.61869e-06
-1.11081e-06
1.53611e-07
1.65889e-06
-1.30909e-06
-2.30765e-07
1.64991e-06
-1.54071e-06
-6.44568e-07
1.55906e-06
-1.78843e-06
-9.97161e-07
1.20598e-06
-2.03967e-06
4.29388e-07
-1.14639e-06
-2.30601e-06
2.3742e-07
1.43819e-06
-1.39604e-06
5.57489e-08
1.38285e-06
-1.60197e-06
-6.43821e-08
1.21753e-06
-1.85576e-06
-5.91775e-08
8.98231e-07
-2.13115e-06
8.52711e-08
3.10231e-07
-2.44898e-06
-7.5852e-07
4.65719e-07
-2.8082e-06
1.12873e-07
1.07285e-06
-1.63921e-06
1.12733e-07
8.87206e-07
-1.86309e-06
1.91753e-07
5.49626e-07
-2.14363e-06
3.88362e-07
2.51334e-09
-2.43399e-06
7.29551e-07
-8.32956e-07
-2.78935e-06
-2.16183e-06
1.27701e-06
-3.19023e-06
-1.59751e-07
6.70401e-07
-1.81293e-06
-1.26566e-07
3.26925e-07
-2.04391e-06
3.90213e-09
-2.00624e-07
-2.32932e-06
2.4149e-07
-9.48027e-07
-2.61379e-06
6.24268e-07
-2.01614e-06
-2.96028e-06
-3.55561e-06
1.20012e-06
-3.33948e-06
-5.00829e-07
3.4127e-07
-1.92848e-06
-5.64493e-07
-1.3948e-07
-2.1475e-06
-5.75714e-07
-8.09392e-07
-2.40765e-06
-4.73197e-07
-1.73828e-06
-2.65142e-06
-2.34327e-07
-2.99288e-06
-2.93359e-06
-4.67944e-06
1.4103e-07
-3.21567e-06
-8.82934e-07
1.30906e-07
-1.99638e-06
-1.12501e-06
-4.22588e-07
-2.19591e-06
-1.36322e-06
-1.1583e-06
-2.3933e-06
-1.53501e-06
-2.19362e-06
-2.55452e-06
-1.62944e-06
-3.53852e-06
-2.71976e-06
-5.32501e-06
-1.5961e-06
-2.87218e-06
-1.25864e-06
8.69721e-08
-2.02041e-06
-1.75207e-06
-4.14231e-07
-2.18323e-06
-2.31589e-06
-1.12185e-06
-2.30943e-06
-2.90082e-06
-2.16593e-06
-2.38626e-06
-3.49598e-06
-3.49965e-06
-2.39232e-06
-5.28931e-06
-4.04556e-06
-2.39708e-06
-1.6563e-06
2.28379e-07
-1.9861e-06
-2.42091e-06
-9.72707e-08
-2.12087e-06
-3.32922e-06
-6.97047e-07
-2.18746e-06
-4.37486e-06
-1.61655e-06
-2.18974e-06
-5.54469e-06
-2.82456e-06
-2.08349e-06
-4.48202e-06
-6.78718e-06
-1.93469e-06
-2.04397e-06
5.25845e-07
-1.90639e-06
-3.01816e-06
4.28492e-07
-2.03728e-06
-4.20505e-06
1.09734e-08
-2.07519e-06
-5.65887e-06
-6.47418e-07
-2.0398e-06
-7.37604e-06
-1.58465e-06
-1.88205e-06
-2.96725e-06
-9.27395e-06
-1.60289e-06
-2.40984e-06
9.30241e-07
-1.80702e-06
-3.45999e-06
1.03506e-06
-1.95074e-06
-4.78225e-06
8.54756e-07
-1.98629e-06
-6.46707e-06
5.49781e-07
-1.94615e-06
-8.4899e-06
-5.8529e-08
-1.78741e-06
-1.09775e-06
-1.07654e-05
-1.41326e-06
-2.6862e-06
1.35898e-06
-1.6877e-06
-3.68504e-06
1.59611e-06
-1.84506e-06
-4.94769e-06
1.62846e-06
-1.89441e-06
-6.5265e-06
1.61093e-06
-1.92132e-06
-8.43167e-06
1.30374e-06
-1.83844e-06
6.46441e-07
-1.06258e-05
-1.54817e-06
-2.69311e-06
1.66029e-06
-1.56536e-06
-3.47076e-06
1.94129e-06
-1.74074e-06
-4.4523e-06
2.10462e-06
-1.83424e-06
-5.64496e-06
2.24958e-06
-1.95493e-06
-7.12387e-06
2.1849e-06
-1.95117e-06
1.81002e-06
-8.78981e-06
-1.80503e-06
-2.45278e-06
1.75542e-06
-1.40638e-06
-2.91828e-06
2.00519e-06
-1.58615e-06
-3.48923e-06
2.18936e-06
-1.73186e-06
-4.12657e-06
2.32869e-06
-1.90534e-06
-4.8918e-06
2.34831e-06
-1.95866e-06
2.12224e-06
-5.78074e-06
-1.98231e-06
-1.96631e-06
-1.1702e-06
-2.06642e-06
-1.36836e-06
-2.20235e-06
-1.56167e-06
-2.3734e-06
-1.76151e-06
-2.58726e-06
-1.91124e-06
-2.86645e-06
-2.09825e-06
-1.55779e-07
-1.77139e-06
-1.95794e-07
-7.54261e-06
2.94934e-08
-1.23278e-05
1.06916e-05
-9.05283e-06
1.08424e-06
-2.60834e-05
2.49088e-05
-9.13333e-06
3.62822e-06
-4.32068e-05
4.24448e-05
-5.53182e-06
-6.19836e-05
6.1612e-05
6.08108e-06
2.14793e-06
-4.29847e-06
-8.392e-06
2.54702e-06
-1.4251e-05
-1.0574e-05
3.22526e-06
-2.72663e-05
-1.14766e-05
5.28419e-06
-4.33352e-05
-8.07525e-06
-6.07656e-05
5.35212e-06
3.23641e-06
-6.82017e-06
-8.65242e-06
3.76978e-06
-1.61866e-05
-1.08958e-05
4.5258e-06
-2.85038e-05
-1.17094e-05
6.4927e-06
-4.33192e-05
-7.21238e-06
-5.98714e-05
6.40637e-06
3.28384e-06
-9.08279e-06
-8.25252e-06
3.91413e-06
-1.80126e-05
-1.01277e-05
4.97835e-06
-2.99042e-05
-1.0455e-05
7.734e-06
-4.43687e-05
-4.66386e-06
-6.25835e-05
7.17962e-06
2.3654e-06
-1.08101e-05
-7.41659e-06
2.64684e-06
-1.92611e-05
-8.74539e-06
3.53616e-06
-3.07776e-05
-7.76965e-06
6.16136e-06
-4.5568e-05
-2.77066e-07
-6.55921e-05
1.06476e-05
9.17019e-07
-1.18791e-05
-6.21341e-06
7.03616e-07
-1.96586e-05
-6.72924e-06
6.45873e-07
-3.03605e-05
-4.24517e-06
1.4523e-06
-4.53856e-05
4.49068e-06
-6.60481e-05
1.48782e-05
-1.16115e-06
-1.21853e-05
-4.77761e-06
-1.92104e-06
-1.91688e-05
-4.29464e-06
-2.85855e-06
-2.90566e-05
-5.08868e-07
-3.58219e-06
-4.4293e-05
8.22298e-06
-6.48527e-05
1.8192e-05
-3.86734e-06
-1.15285e-05
-3.28886e-06
-5.2287e-06
-1.77768e-05
-1.73492e-06
-6.38677e-06
-2.7525e-05
3.05143e-06
-7.43351e-06
-4.33214e-05
1.16919e-05
-8.7124e-06
-6.43027e-05
2.10245e-05
-8.42561e-05
2.61869e-05
-7.03785e-06
-9.65799e-06
-2.00736e-06
-9.38191e-06
-1.52569e-05
6.14206e-07
-1.12058e-05
-2.53243e-05
6.34752e-06
-1.31915e-05
-4.14229e-05
1.58316e-05
-1.584e-05
-6.21203e-05
2.64867e-05
-8.21266e-05
3.3242e-05
-9.95875e-06
-6.50467e-06
-1.10862e-06
-1.31476e-05
-1.18227e-05
2.30151e-06
-1.57637e-05
-2.22524e-05
8.57302e-06
-1.88181e-05
-3.81288e-05
1.8882e-05
-2.32912e-05
-5.78834e-05
3.14474e-05
-7.71092e-05
4.1779e-05
-1.1789e-05
-2.66124e-06
-7.19468e-07
-1.54924e-05
-7.78756e-06
2.97054e-06
-1.85091e-05
-1.82343e-05
9.42329e-06
-2.14163e-05
-3.41118e-05
2.01381e-05
-2.58927e-05
-5.31511e-05
3.41483e-05
-3.43562e-05
-7.06489e-05
4.93426e-05
-8.43663e-05
5.5713e-05
-1.14558e-05
6.92156e-07
-1.2598e-06
-1.49578e-05
-3.99652e-06
1.90234e-06
-1.77333e-05
-1.40506e-05
7.72678e-06
-1.98028e-05
-3.01961e-05
1.75394e-05
-2.20513e-05
-4.95953e-05
3.17539e-05
-2.84344e-05
-6.6436e-05
5.09496e-05
-4.10346e-05
-7.69611e-05
6.50416e-05
-2.05628e-05
7.1705e-05
-2.18903e-05
-1.91456e-05
-1.95601e-05
-8.96586e-06
2.55563e-06
-2.31556e-06
-1.11924e-05
-2.07689e-06
-2.61138e-07
-1.29639e-05
-1.19004e-05
3.46056e-06
-1.40454e-05
-2.78828e-05
9.17653e-06
-1.32812e-05
-4.81401e-05
2.00351e-05
-1.19485e-05
-6.76432e-05
3.96566e-05
-6.40237e-06
-2.02173e-05
6.44554e-05
-8.60556e-07
-6.03759e-06
-9.8038e-07
-2.02192e-05
-1.93347e-05
-1.92728e-05
-1.23521e-05
-1.7276e-05
2.05384e-05
-5.76822e-06
2.70678e-06
-3.51864e-06
-6.43116e-06
-2.28891e-06
-3.09864e-06
-6.55563e-06
-1.23236e-05
-1.57827e-06
-5.95135e-06
-2.82919e-05
3.20279e-07
-2.70262e-06
-4.94905e-05
6.73777e-06
2.15109e-07
-7.26979e-05
2.18924e-05
2.80515e-06
6.05698e-07
2.30568e-06
2.49855e-06
-2.24662e-05
1.02502e-05
1.21165e-05
-2.78307e-05
1.72572e-05
2.03891e-05
-5.44155e-06
-2.7235e-06
1.48663e-06
-4.75991e-06
-2.28882e-06
-4.06971e-06
-5.54277e-06
-1.30131e-06
-1.43404e-05
-5.77964e-06
3.67793e-07
-3.01013e-05
-5.2145e-06
3.77829e-06
-5.10607e-05
8.85699e-08
1.85617e-06
-7.40607e-05
1.54885e-05
1.71276e-06
2.61829e-06
2.55939e-06
2.38195e-05
2.21394e-06
8.11396e-06
-2.43244e-05
2.30903e-05
1.05042e-05
-2.25475e-05
-1.88765e-06
-3.06285e-07
-7.38331e-07
-5.70694e-06
5.80877e-07
-6.59664e-06
-7.28504e-06
1.73293e-06
-1.6761e-05
-8.69377e-06
2.99946e-06
-3.17431e-05
-8.34587e-06
4.74169e-06
-5.08801e-05
-2.46348e-06
7.90545e-07
-7.12557e-05
1.61954e-05
9.64824e-07
1.18799e-06
1.63791e-06
2.42477e-05
9.45786e-08
-2.37961e-05
8.617e-06
2.16691e-05
-2.43763e-05
1.11327e-05
7.77521e-07
1.05124e-06
-3.31712e-06
-6.12152e-06
2.14713e-06
-9.42817e-06
-8.13855e-06
3.31043e-06
-1.93697e-05
-9.79301e-06
4.77656e-06
-3.3389e-05
-9.07516e-06
6.30488e-06
-5.03184e-05
-9.76182e-07
2.06574e-08
-6.92053e-05
1.48065e-05
2.56794e-06
9.87734e-07
3.04934e-06
2.29129e-05
-1.36476e-06
-2.16715e-05
8.43368e-06
2.74863e-05
-1.34452e-05
-2.20757e-05
1.68749e-05
4.65518e-06
1.75536e-06
-5.93791e-06
-6.07945e-06
2.91451e-06
-1.2248e-05
-8.00039e-06
4.16794e-06
-2.20159e-05
-9.31835e-06
6.40695e-06
-3.56347e-05
-7.56146e-06
9.95168e-06
-5.25297e-05
1.50574e-06
3.03426e-06
-7.31852e-05
1.2725e-05
4.80227e-06
3.07997e-06
4.49664e-06
2.14937e-05
3.73657e-06
-2.206e-05
5.31965e-06
2.19062e-05
3.18428e-06
-2.16972e-05
7.43368e-06
-3.57707e-06
1.38999e-06
-8.18761e-06
-5.59775e-06
2.25855e-06
-1.45514e-05
-7.20574e-06
3.30389e-06
-2.41376e-05
-7.79644e-06
5.5698e-06
-3.75534e-05
-4.29896e-06
8.93997e-06
-5.49408e-05
5.87069e-06
3.03363e-06
-7.67449e-05
1.65044e-05
3.18639e-06
2.80146e-06
3.16498e-06
2.31394e-05
3.78054e-06
-2.43324e-05
5.51937e-06
2.8363e-05
-2.49436e-05
6.51313e-06
-4.38128e-06
3.71699e-07
-9.87654e-06
-4.7498e-06
9.02441e-07
-1.60983e-05
-5.77785e-06
1.4499e-06
-2.51723e-05
-5.18967e-06
2.29027e-06
-3.78511e-05
2.99619e-07
3.17797e-06
-5.51695e-05
1.05747e-05
1.79599e-07
-7.58858e-05
2.01322e-05
1.00501e-07
4.46326e-07
4.963e-07
2.47163e-05
-5.16051e-07
-2.46587e-05
6.20675e-06
2.25203e-05
-2.51831e-05
6.74047e-06
1.39482e-06