/*--------------------------------*- C++ -*----------------------------------*\
| =========                 |                                                 |
| \\      /  F ield         | OpenFOAM: The Open Source CFD Toolbox           |
|  \\    /   O peration     | Version:  v2106                                 |
|   \\  /    A nd           | Website:  www.openfoam.com                      |
|    \\/     M anipulation  |                                                 |
\*---------------------------------------------------------------------------*/
FoamFile
{
    version     2.0;
    format      ascii;
    arch        "LSB;label=32;scalar=64";
    class       volScalarField;
    location    "0.000199";
    object      epsilon;
}
// * * * * * * * * * * * * * * * * * * * * * * * * * * * * * * * * * * * * * //

dimensions      [0 2 -3 0 0 0 0];

internalField   nonuniform List<scalar> 
17924
(
1.44721e-08
1.27214e-08
1.23774e-08
1.23153e-08
1.25309e-08
1.23206e-08
1.22794e-08
1.2272e-08
1.22718e-08
1.22737e-08
1.22766e-08
1.25715e-08
1.23299e-08
1.22759e-08
1.22652e-08
1.22634e-08
1.22635e-08
1.22642e-08
1.2794e-08
1.23831e-08
1.2285e-08
1.22645e-08
1.22607e-08
1.22604e-08
1.22609e-08
1.31245e-08
1.24591e-08
1.22986e-08
1.22648e-08
1.22587e-08
1.22581e-08
1.22586e-08
1.35066e-08
1.25402e-08
1.23118e-08
1.22649e-08
1.22567e-08
1.22559e-08
1.22565e-08
1.39086e-08
1.26151e-08
1.23217e-08
1.22642e-08
1.22547e-08
1.22539e-08
1.22546e-08
1.43519e-08
1.26894e-08
1.23296e-08
1.2263e-08
1.22527e-08
1.22521e-08
1.22528e-08
1.48461e-08
1.27667e-08
1.23371e-08
1.22619e-08
1.22511e-08
1.22506e-08
1.22516e-08
1.53689e-08
1.28459e-08
1.23451e-08
1.22617e-08
1.22508e-08
1.22511e-08
1.22527e-08
1.59263e-08
1.29337e-08
1.23579e-08
1.22664e-08
1.22578e-08
1.22617e-08
1.22665e-08
1.65289e-08
1.30571e-08
1.23943e-08
1.22957e-08
1.22998e-08
1.23212e-08
1.23413e-08
1.75809e-08
1.33939e-08
1.25447e-08
1.24349e-08
1.24945e-08
1.25928e-08
1.26799e-08
2.07416e-08
1.46145e-08
1.31616e-08
1.302e-08
1.32949e-08
1.36965e-08
1.40499e-08
3.14482e-08
1.89099e-08
1.54889e-08
1.52493e-08
1.62678e-08
1.7745e-08
1.90562e-08
1.22944e-08
1.22713e-08
1.22666e-08
1.22655e-08
1.22652e-08
1.22653e-08
1.22657e-08
1.22663e-08
1.22669e-08
1.22673e-08
1.22677e-08
1.22679e-08
1.22689e-08
1.22728e-08
1.22987e-08
1.22708e-08
1.22639e-08
1.22621e-08
1.22614e-08
1.22611e-08
1.22611e-08
1.22613e-08
1.22617e-08
1.22624e-08
1.22633e-08
1.2264e-08
1.22654e-08
1.22694e-08
1.2324e-08
1.22749e-08
1.22624e-08
1.22593e-08
1.22583e-08
1.2258e-08
1.22579e-08
1.22581e-08
1.22586e-08
1.22592e-08
1.22601e-08
1.22609e-08
1.22624e-08
1.22666e-08
1.2362e-08
1.22817e-08
1.22615e-08
1.22568e-08
1.22555e-08
1.22551e-08
1.2255e-08
1.22552e-08
1.22556e-08
1.22562e-08
1.2257e-08
1.22577e-08
1.22591e-08
1.22632e-08
1.24059e-08
1.2289e-08
1.22605e-08
1.22543e-08
1.22528e-08
1.22525e-08
1.22524e-08
1.22526e-08
1.2253e-08
1.22536e-08
1.22544e-08
1.2255e-08
1.22562e-08
1.22602e-08
1.2451e-08
1.22955e-08
1.22595e-08
1.2252e-08
1.22503e-08
1.22501e-08
1.225e-08
1.22503e-08
1.22507e-08
1.22513e-08
1.2252e-08
1.22527e-08
1.22538e-08
1.22575e-08
1.24997e-08
1.23018e-08
1.22583e-08
1.22498e-08
1.22481e-08
1.22479e-08
1.22479e-08
1.22482e-08
1.22487e-08
1.22494e-08
1.22501e-08
1.22509e-08
1.22519e-08
1.22554e-08
1.25529e-08
1.23083e-08
1.22571e-08
1.22479e-08
1.22462e-08
1.2246e-08
1.22461e-08
1.22465e-08
1.2247e-08
1.22477e-08
1.22485e-08
1.22494e-08
1.22504e-08
1.22537e-08
1.26082e-08
1.23149e-08
1.22562e-08
1.22462e-08
1.22446e-08
1.22446e-08
1.22448e-08
1.22453e-08
1.22458e-08
1.22467e-08
1.22475e-08
1.22486e-08
1.22497e-08
1.2253e-08
1.26658e-08
1.2322e-08
1.22558e-08
1.22451e-08
1.22438e-08
1.22441e-08
1.22448e-08
1.22455e-08
1.22463e-08
1.22472e-08
1.22482e-08
1.22494e-08
1.22507e-08
1.22551e-08
1.27246e-08
1.23318e-08
1.22575e-08
1.22462e-08
1.22463e-08
1.22483e-08
1.22504e-08
1.22521e-08
1.22534e-08
1.22545e-08
1.22555e-08
1.22569e-08
1.22587e-08
1.22673e-08
1.28195e-08
1.23598e-08
1.22691e-08
1.22573e-08
1.22629e-08
1.22722e-08
1.22805e-08
1.22862e-08
1.22895e-08
1.22912e-08
1.22921e-08
1.22936e-08
1.22967e-08
1.23165e-08
1.3105e-08
1.2467e-08
1.23223e-08
1.23092e-08
1.23364e-08
1.2375e-08
1.2408e-08
1.24302e-08
1.24424e-08
1.24475e-08
1.24482e-08
1.24503e-08
1.24551e-08
1.25006e-08
1.41076e-08
1.28563e-08
1.25297e-08
1.25136e-08
1.26181e-08
1.27637e-08
1.28879e-08
1.29735e-08
1.30223e-08
1.30434e-08
1.30463e-08
1.30514e-08
1.30571e-08
1.31537e-08
1.22688e-08
1.22661e-08
1.22652e-08
1.22646e-08
1.22641e-08
1.22638e-08
1.22638e-08
1.22639e-08
1.22642e-08
1.22647e-08
1.22654e-08
1.2266e-08
1.22667e-08
1.22668e-08
1.22676e-08
1.22643e-08
1.22628e-08
1.22618e-08
1.2261e-08
1.22605e-08
1.22602e-08
1.22602e-08
1.22604e-08
1.22609e-08
1.22617e-08
1.22622e-08
1.2263e-08
1.22635e-08
1.22685e-08
1.22625e-08
1.226e-08
1.22588e-08
1.22579e-08
1.22574e-08
1.2257e-08
1.2257e-08
1.22572e-08
1.22576e-08
1.22583e-08
1.22588e-08
1.22598e-08
1.22605e-08
1.22704e-08
1.22607e-08
1.22573e-08
1.22559e-08
1.22549e-08
1.22544e-08
1.2254e-08
1.22539e-08
1.2254e-08
1.22543e-08
1.22548e-08
1.22553e-08
1.22562e-08
1.22569e-08
1.22727e-08
1.22589e-08
1.22546e-08
1.22531e-08
1.22521e-08
1.22516e-08
1.22512e-08
1.2251e-08
1.22511e-08
1.22513e-08
1.22517e-08
1.22521e-08
1.22529e-08
1.22537e-08
1.22751e-08
1.22571e-08
1.22521e-08
1.22505e-08
1.22496e-08
1.2249e-08
1.22486e-08
1.22484e-08
1.22483e-08
1.22485e-08
1.22489e-08
1.22493e-08
1.22499e-08
1.22508e-08
1.2278e-08
1.22556e-08
1.22499e-08
1.22482e-08
1.22472e-08
1.22467e-08
1.22462e-08
1.2246e-08
1.22459e-08
1.22461e-08
1.22464e-08
1.22469e-08
1.22474e-08
1.22483e-08
1.22813e-08
1.22542e-08
1.22477e-08
1.22461e-08
1.22452e-08
1.22446e-08
1.22442e-08
1.22439e-08
1.22438e-08
1.2244e-08
1.22442e-08
1.22448e-08
1.22452e-08
1.22462e-08
1.22849e-08
1.2253e-08
1.22459e-08
1.22443e-08
1.22434e-08
1.22429e-08
1.22425e-08
1.22423e-08
1.22422e-08
1.22423e-08
1.22426e-08
1.22432e-08
1.22436e-08
1.22446e-08
1.22888e-08
1.22519e-08
1.22443e-08
1.22427e-08
1.22419e-08
1.22415e-08
1.22412e-08
1.2241e-08
1.2241e-08
1.22412e-08
1.22415e-08
1.22422e-08
1.22426e-08
1.22437e-08
1.22927e-08
1.22512e-08
1.22431e-08
1.22415e-08
1.2241e-08
1.22408e-08
1.22407e-08
1.22407e-08
1.22408e-08
1.2241e-08
1.22414e-08
1.22422e-08
1.22426e-08
1.22438e-08
1.22991e-08
1.22519e-08
1.22429e-08
1.22414e-08
1.22416e-08
1.2242e-08
1.22426e-08
1.22429e-08
1.22432e-08
1.22436e-08
1.2244e-08
1.22447e-08
1.2245e-08
1.22466e-08
1.23209e-08
1.22592e-08
1.22462e-08
1.22449e-08
1.22472e-08
1.22505e-08
1.22533e-08
1.2255e-08
1.2256e-08
1.22564e-08
1.22566e-08
1.22568e-08
1.22564e-08
1.22589e-08
1.24051e-08
1.22903e-08
1.22625e-08
1.22617e-08
1.22717e-08
1.22849e-08
1.2296e-08
1.2303e-08
1.23065e-08
1.23072e-08
1.23063e-08
1.23051e-08
1.23033e-08
1.2308e-08
1.22659e-08
1.22653e-08
1.22648e-08
1.22644e-08
1.2264e-08
1.22637e-08
1.22635e-08
1.22637e-08
1.22639e-08
1.22644e-08
1.22651e-08
1.22657e-08
1.22665e-08
1.22664e-08
1.2264e-08
1.22634e-08
1.22626e-08
1.2262e-08
1.22613e-08
1.22608e-08
1.22606e-08
1.22606e-08
1.22608e-08
1.22612e-08
1.22619e-08
1.22624e-08
1.22631e-08
1.22633e-08
1.22623e-08
1.22611e-08
1.226e-08
1.22593e-08
1.22585e-08
1.2258e-08
1.22578e-08
1.22577e-08
1.22579e-08
1.22583e-08
1.22589e-08
1.22594e-08
1.22603e-08
1.22606e-08
1.22602e-08
1.22585e-08
1.22574e-08
1.22566e-08
1.22559e-08
1.22554e-08
1.22551e-08
1.2255e-08
1.22551e-08
1.22553e-08
1.22557e-08
1.22561e-08
1.2257e-08
1.22573e-08
1.22579e-08
1.22559e-08
1.22547e-08
1.22539e-08
1.22532e-08
1.22528e-08
1.22525e-08
1.22523e-08
1.22524e-08
1.22526e-08
1.22529e-08
1.22533e-08
1.22539e-08
1.22544e-08
1.22558e-08
1.22535e-08
1.22522e-08
1.22515e-08
1.22508e-08
1.22504e-08
1.225e-08
1.22498e-08
1.22498e-08
1.22499e-08
1.22502e-08
1.22506e-08
1.22511e-08
1.22516e-08
1.22539e-08
1.22513e-08
1.225e-08
1.22493e-08
1.22486e-08
1.22482e-08
1.22478e-08
1.22475e-08
1.22474e-08
1.22475e-08
1.22478e-08
1.22482e-08
1.22486e-08
1.22494e-08
1.22522e-08
1.22492e-08
1.22479e-08
1.22473e-08
1.22467e-08
1.22462e-08
1.22458e-08
1.22455e-08
1.22453e-08
1.22454e-08
1.22456e-08
1.2246e-08
1.22464e-08
1.22473e-08
1.22508e-08
1.22474e-08
1.22462e-08
1.22456e-08
1.2245e-08
1.22445e-08
1.2244e-08
1.22437e-08
1.22435e-08
1.22435e-08
1.22436e-08
1.22441e-08
1.22445e-08
1.22454e-08
1.22497e-08
1.22458e-08
1.22447e-08
1.22441e-08
1.22436e-08
1.2243e-08
1.22426e-08
1.22422e-08
1.2242e-08
1.22419e-08
1.22421e-08
1.22426e-08
1.2243e-08
1.22439e-08
1.22489e-08
1.22445e-08
1.22435e-08
1.22429e-08
1.22424e-08
1.22419e-08
1.22415e-08
1.22411e-08
1.22408e-08
1.22408e-08
1.2241e-08
1.22415e-08
1.22418e-08
1.22427e-08
1.22482e-08
1.22434e-08
1.22425e-08
1.2242e-08
1.22417e-08
1.22412e-08
1.22408e-08
1.22405e-08
1.22402e-08
1.22401e-08
1.22403e-08
1.22408e-08
1.22408e-08
1.22414e-08
1.22486e-08
1.22428e-08
1.22421e-08
1.22416e-08
1.22416e-08
1.22414e-08
1.22412e-08
1.22409e-08
1.22407e-08
1.22406e-08
1.22407e-08
1.22408e-08
1.22403e-08
1.22403e-08
1.2254e-08
1.22441e-08
1.22427e-08
1.22425e-08
1.22433e-08
1.2244e-08
1.22446e-08
1.22447e-08
1.22446e-08
1.22442e-08
1.22438e-08
1.22431e-08
1.22421e-08
1.22417e-08
1.22623e-08
1.22628e-08
1.22629e-08
1.2263e-08
1.22629e-08
1.22629e-08
1.2263e-08
1.22632e-08
1.22636e-08
1.22641e-08
1.22648e-08
1.22655e-08
1.22661e-08
1.2266e-08
1.22609e-08
1.22614e-08
1.22612e-08
1.22611e-08
1.22609e-08
1.22608e-08
1.22609e-08
1.22611e-08
1.22614e-08
1.22619e-08
1.22626e-08
1.22632e-08
1.22637e-08
1.22638e-08
1.22594e-08
1.22595e-08
1.22591e-08
1.2259e-08
1.22587e-08
1.22587e-08
1.22587e-08
1.22589e-08
1.22593e-08
1.22598e-08
1.22604e-08
1.2261e-08
1.22617e-08
1.2262e-08
1.22573e-08
1.22573e-08
1.2257e-08
1.22569e-08
1.22567e-08
1.22566e-08
1.22567e-08
1.22568e-08
1.22571e-08
1.22575e-08
1.2258e-08
1.22585e-08
1.22592e-08
1.22596e-08
1.2255e-08
1.2255e-08
1.22548e-08
1.22547e-08
1.22546e-08
1.22545e-08
1.22546e-08
1.22547e-08
1.2255e-08
1.22554e-08
1.22558e-08
1.22562e-08
1.22568e-08
1.22573e-08
1.22528e-08
1.22529e-08
1.22528e-08
1.22528e-08
1.22526e-08
1.22526e-08
1.22526e-08
1.22527e-08
1.22529e-08
1.22532e-08
1.22536e-08
1.2254e-08
1.22545e-08
1.22551e-08
1.2251e-08
1.22511e-08
1.22509e-08
1.22509e-08
1.22508e-08
1.22507e-08
1.22507e-08
1.22508e-08
1.22509e-08
1.22512e-08
1.22516e-08
1.2252e-08
1.22525e-08
1.22532e-08
1.22492e-08
1.22493e-08
1.22492e-08
1.22493e-08
1.22491e-08
1.22491e-08
1.2249e-08
1.2249e-08
1.22491e-08
1.22493e-08
1.22496e-08
1.22501e-08
1.22505e-08
1.22514e-08
1.22478e-08
1.22478e-08
1.22478e-08
1.22479e-08
1.22477e-08
1.22476e-08
1.22475e-08
1.22474e-08
1.22474e-08
1.22476e-08
1.22479e-08
1.22484e-08
1.22488e-08
1.22497e-08
1.22467e-08
1.22465e-08
1.22466e-08
1.22466e-08
1.22465e-08
1.22463e-08
1.22461e-08
1.2246e-08
1.2246e-08
1.22461e-08
1.22463e-08
1.22469e-08
1.22473e-08
1.22482e-08
1.2246e-08
1.22456e-08
1.22457e-08
1.22457e-08
1.22455e-08
1.22452e-08
1.2245e-08
1.22448e-08
1.22447e-08
1.22448e-08
1.2245e-08
1.22457e-08
1.2246e-08
1.22469e-08
1.22452e-08
1.22447e-08
1.2245e-08
1.22449e-08
1.22447e-08
1.22444e-08
1.22441e-08
1.22438e-08
1.22437e-08
1.22437e-08
1.22439e-08
1.22445e-08
1.22446e-08
1.22452e-08
1.22445e-08
1.2244e-08
1.22445e-08
1.22444e-08
1.22442e-08
1.22438e-08
1.22435e-08
1.22431e-08
1.22429e-08
1.22428e-08
1.22429e-08
1.22432e-08
1.22429e-08
1.22429e-08
1.22443e-08
1.22435e-08
1.22442e-08
1.22441e-08
1.2244e-08
1.22437e-08
1.22434e-08
1.22429e-08
1.22425e-08
1.22422e-08
1.2242e-08
1.22415e-08
1.22408e-08
1.22402e-08
1.22539e-08
1.22554e-08
1.22566e-08
1.22575e-08
1.22582e-08
1.22587e-08
1.22593e-08
1.22599e-08
1.22606e-08
1.22613e-08
1.22621e-08
1.22628e-08
1.22633e-08
1.2263e-08
1.22534e-08
1.22549e-08
1.22559e-08
1.22567e-08
1.22572e-08
1.22578e-08
1.22584e-08
1.2259e-08
1.22597e-08
1.22605e-08
1.22614e-08
1.2262e-08
1.22626e-08
1.22627e-08
1.22526e-08
1.2254e-08
1.22548e-08
1.22555e-08
1.22561e-08
1.22567e-08
1.22573e-08
1.22579e-08
1.22587e-08
1.22595e-08
1.22604e-08
1.2261e-08
1.22618e-08
1.22622e-08
1.22514e-08
1.22527e-08
1.22535e-08
1.22543e-08
1.22549e-08
1.22556e-08
1.22562e-08
1.22568e-08
1.22575e-08
1.22582e-08
1.2259e-08
1.22596e-08
1.22604e-08
1.2261e-08
1.225e-08
1.22513e-08
1.22522e-08
1.2253e-08
1.22536e-08
1.22543e-08
1.2255e-08
1.22556e-08
1.22563e-08
1.2257e-08
1.22577e-08
1.22583e-08
1.2259e-08
1.22596e-08
1.22486e-08
1.22499e-08
1.22509e-08
1.22517e-08
1.22524e-08
1.22531e-08
1.22537e-08
1.22544e-08
1.2255e-08
1.22556e-08
1.22562e-08
1.22568e-08
1.22575e-08
1.22581e-08
1.22475e-08
1.22488e-08
1.22498e-08
1.22506e-08
1.22513e-08
1.22519e-08
1.22525e-08
1.22531e-08
1.22536e-08
1.22542e-08
1.22548e-08
1.22555e-08
1.2256e-08
1.22568e-08
1.22465e-08
1.22478e-08
1.22487e-08
1.22496e-08
1.22502e-08
1.22508e-08
1.22513e-08
1.22518e-08
1.22523e-08
1.22529e-08
1.22534e-08
1.22541e-08
1.22546e-08
1.22555e-08
1.22458e-08
1.2247e-08
1.22479e-08
1.22488e-08
1.22493e-08
1.22498e-08
1.22502e-08
1.22506e-08
1.2251e-08
1.22515e-08
1.22521e-08
1.22527e-08
1.22533e-08
1.22542e-08
1.22453e-08
1.22463e-08
1.22472e-08
1.2248e-08
1.22484e-08
1.22489e-08
1.22492e-08
1.22495e-08
1.22499e-08
1.22503e-08
1.22508e-08
1.22515e-08
1.2252e-08
1.2253e-08
1.22452e-08
1.22459e-08
1.22467e-08
1.22474e-08
1.22477e-08
1.2248e-08
1.22482e-08
1.22485e-08
1.22487e-08
1.22491e-08
1.22496e-08
1.22504e-08
1.22509e-08
1.22519e-08
1.22449e-08
1.22454e-08
1.22463e-08
1.22468e-08
1.22471e-08
1.22473e-08
1.22474e-08
1.22475e-08
1.22477e-08
1.2248e-08
1.22485e-08
1.22492e-08
1.22495e-08
1.22502e-08
1.22446e-08
1.2245e-08
1.2246e-08
1.22464e-08
1.22466e-08
1.22466e-08
1.22465e-08
1.22465e-08
1.22466e-08
1.22468e-08
1.22472e-08
1.22477e-08
1.22476e-08
1.22479e-08
1.22443e-08
1.22447e-08
1.22458e-08
1.2246e-08
1.22461e-08
1.2246e-08
1.22459e-08
1.22458e-08
1.22457e-08
1.22457e-08
1.22458e-08
1.22456e-08
1.22452e-08
1.22448e-08
1.22377e-08
1.22405e-08
1.22427e-08
1.22448e-08
1.22463e-08
1.22476e-08
1.22488e-08
1.225e-08
1.2251e-08
1.22521e-08
1.22532e-08
1.2254e-08
1.22547e-08
1.22547e-08
1.22386e-08
1.22412e-08
1.22432e-08
1.2245e-08
1.22466e-08
1.2248e-08
1.22493e-08
1.22506e-08
1.22518e-08
1.22529e-08
1.22541e-08
1.2255e-08
1.22558e-08
1.22563e-08
1.22391e-08
1.22415e-08
1.22435e-08
1.22453e-08
1.22468e-08
1.22483e-08
1.22497e-08
1.2251e-08
1.22523e-08
1.22535e-08
1.22547e-08
1.22556e-08
1.22566e-08
1.22573e-08
1.22391e-08
1.22414e-08
1.22435e-08
1.22453e-08
1.22469e-08
1.22484e-08
1.22499e-08
1.22512e-08
1.22525e-08
1.22537e-08
1.22549e-08
1.22558e-08
1.22568e-08
1.22577e-08
1.2239e-08
1.22413e-08
1.22434e-08
1.22453e-08
1.22469e-08
1.22485e-08
1.22499e-08
1.22512e-08
1.22525e-08
1.22536e-08
1.22548e-08
1.22557e-08
1.22566e-08
1.22575e-08
1.22388e-08
1.22412e-08
1.22433e-08
1.22451e-08
1.22468e-08
1.22484e-08
1.22498e-08
1.22511e-08
1.22523e-08
1.22534e-08
1.22545e-08
1.22555e-08
1.22563e-08
1.22572e-08
1.22389e-08
1.22413e-08
1.22433e-08
1.22451e-08
1.22467e-08
1.22482e-08
1.22495e-08
1.22508e-08
1.2252e-08
1.22531e-08
1.22541e-08
1.22551e-08
1.22559e-08
1.22569e-08
1.22389e-08
1.22413e-08
1.22432e-08
1.2245e-08
1.22465e-08
1.22479e-08
1.22492e-08
1.22504e-08
1.22515e-08
1.22526e-08
1.22536e-08
1.22546e-08
1.22554e-08
1.22564e-08
1.22392e-08
1.22414e-08
1.22432e-08
1.22449e-08
1.22463e-08
1.22477e-08
1.22488e-08
1.225e-08
1.2251e-08
1.2252e-08
1.22529e-08
1.22539e-08
1.22547e-08
1.22558e-08
1.22396e-08
1.22415e-08
1.22432e-08
1.22448e-08
1.22461e-08
1.22473e-08
1.22484e-08
1.22494e-08
1.22503e-08
1.22513e-08
1.22522e-08
1.22532e-08
1.2254e-08
1.22552e-08
1.22401e-08
1.22417e-08
1.22433e-08
1.22447e-08
1.22459e-08
1.22469e-08
1.22478e-08
1.22487e-08
1.22495e-08
1.22504e-08
1.22513e-08
1.22525e-08
1.22533e-08
1.22545e-08
1.22404e-08
1.22418e-08
1.22433e-08
1.22445e-08
1.22455e-08
1.22464e-08
1.22472e-08
1.2248e-08
1.22487e-08
1.22496e-08
1.22505e-08
1.22516e-08
1.22522e-08
1.22532e-08
1.22405e-08
1.22417e-08
1.22432e-08
1.22443e-08
1.22451e-08
1.22458e-08
1.22464e-08
1.2247e-08
1.22477e-08
1.22485e-08
1.22493e-08
1.22503e-08
1.22507e-08
1.22512e-08
1.22404e-08
1.22415e-08
1.2243e-08
1.22439e-08
1.22446e-08
1.22451e-08
1.22457e-08
1.22462e-08
1.22467e-08
1.22473e-08
1.2248e-08
1.22483e-08
1.22484e-08
1.22484e-08
1.22134e-08
1.22169e-08
1.222e-08
1.22227e-08
1.22251e-08
1.22271e-08
1.22291e-08
1.22308e-08
1.22324e-08
1.22338e-08
1.22352e-08
1.22364e-08
1.22375e-08
1.22379e-08
1.22156e-08
1.22187e-08
1.22217e-08
1.22243e-08
1.22267e-08
1.22289e-08
1.2231e-08
1.22329e-08
1.22346e-08
1.22363e-08
1.22379e-08
1.22391e-08
1.22403e-08
1.22414e-08
1.22176e-08
1.22205e-08
1.22235e-08
1.22261e-08
1.22285e-08
1.22308e-08
1.22329e-08
1.22349e-08
1.22367e-08
1.22384e-08
1.22401e-08
1.22414e-08
1.22427e-08
1.22439e-08
1.2219e-08
1.22219e-08
1.22249e-08
1.22275e-08
1.223e-08
1.22324e-08
1.22346e-08
1.22366e-08
1.22385e-08
1.22402e-08
1.22419e-08
1.22433e-08
1.22447e-08
1.2246e-08
1.22203e-08
1.22233e-08
1.22263e-08
1.2229e-08
1.22315e-08
1.22339e-08
1.22361e-08
1.22381e-08
1.224e-08
1.22417e-08
1.22434e-08
1.22448e-08
1.22462e-08
1.22475e-08
1.22217e-08
1.22247e-08
1.22276e-08
1.22303e-08
1.22328e-08
1.22351e-08
1.22373e-08
1.22394e-08
1.22413e-08
1.2243e-08
1.22447e-08
1.22461e-08
1.22474e-08
1.22487e-08
1.22231e-08
1.22262e-08
1.22289e-08
1.22315e-08
1.2234e-08
1.22363e-08
1.22384e-08
1.22404e-08
1.22422e-08
1.2244e-08
1.22456e-08
1.22471e-08
1.22484e-08
1.22497e-08
1.22245e-08
1.22274e-08
1.223e-08
1.22326e-08
1.22349e-08
1.22372e-08
1.22393e-08
1.22412e-08
1.2243e-08
1.22447e-08
1.22463e-08
1.22479e-08
1.22491e-08
1.22506e-08
1.22259e-08
1.22287e-08
1.22312e-08
1.22336e-08
1.22358e-08
1.2238e-08
1.22399e-08
1.22418e-08
1.22435e-08
1.22452e-08
1.22467e-08
1.22483e-08
1.22497e-08
1.22512e-08
1.22273e-08
1.22298e-08
1.22321e-08
1.22344e-08
1.22365e-08
1.22385e-08
1.22404e-08
1.22422e-08
1.22438e-08
1.22455e-08
1.2247e-08
1.22487e-08
1.225e-08
1.22517e-08
1.22287e-08
1.22309e-08
1.2233e-08
1.22352e-08
1.22371e-08
1.2239e-08
1.22407e-08
1.22423e-08
1.22439e-08
1.22455e-08
1.22471e-08
1.22489e-08
1.22503e-08
1.2252e-08
1.22297e-08
1.22316e-08
1.22336e-08
1.22356e-08
1.22374e-08
1.22391e-08
1.22407e-08
1.22423e-08
1.22439e-08
1.22455e-08
1.22471e-08
1.22489e-08
1.22502e-08
1.22518e-08
1.22303e-08
1.22321e-08
1.22341e-08
1.22359e-08
1.22375e-08
1.2239e-08
1.22405e-08
1.2242e-08
1.22435e-08
1.22451e-08
1.22467e-08
1.22484e-08
1.22494e-08
1.22506e-08
1.22306e-08
1.22324e-08
1.22343e-08
1.22358e-08
1.22374e-08
1.22388e-08
1.22403e-08
1.22417e-08
1.22431e-08
1.22446e-08
1.2246e-08
1.22472e-08
1.22481e-08
1.2249e-08
1.21851e-08
1.21884e-08
1.21915e-08
1.21944e-08
1.21971e-08
1.21996e-08
1.22019e-08
1.2204e-08
1.22059e-08
1.22078e-08
1.22095e-08
1.22111e-08
1.22126e-08
1.22134e-08
1.21883e-08
1.21912e-08
1.21943e-08
1.21971e-08
1.21999e-08
1.22025e-08
1.22049e-08
1.22072e-08
1.22093e-08
1.22113e-08
1.22133e-08
1.2215e-08
1.22167e-08
1.22183e-08
1.21916e-08
1.21943e-08
1.21974e-08
1.22002e-08
1.22029e-08
1.22055e-08
1.22081e-08
1.22104e-08
1.22126e-08
1.22147e-08
1.22167e-08
1.22185e-08
1.22203e-08
1.22221e-08
1.21944e-08
1.2197e-08
1.22001e-08
1.2203e-08
1.22058e-08
1.22084e-08
1.2211e-08
1.22134e-08
1.22157e-08
1.22179e-08
1.22199e-08
1.22218e-08
1.22237e-08
1.22256e-08
1.21971e-08
1.21999e-08
1.22029e-08
1.22058e-08
1.22086e-08
1.22113e-08
1.22139e-08
1.22163e-08
1.22186e-08
1.22208e-08
1.22229e-08
1.22249e-08
1.22268e-08
1.22286e-08
1.21998e-08
1.22027e-08
1.22057e-08
1.22085e-08
1.22113e-08
1.22139e-08
1.22165e-08
1.2219e-08
1.22214e-08
1.22236e-08
1.22258e-08
1.22278e-08
1.22297e-08
1.22315e-08
1.22026e-08
1.22055e-08
1.22083e-08
1.22111e-08
1.22138e-08
1.22165e-08
1.2219e-08
1.22215e-08
1.22239e-08
1.22261e-08
1.22283e-08
1.22304e-08
1.22323e-08
1.22341e-08
1.22052e-08
1.22081e-08
1.22108e-08
1.22135e-08
1.22162e-08
1.22188e-08
1.22213e-08
1.22238e-08
1.22262e-08
1.22285e-08
1.22306e-08
1.22328e-08
1.22347e-08
1.22366e-08
1.22078e-08
1.22105e-08
1.22131e-08
1.22158e-08
1.22184e-08
1.22209e-08
1.22234e-08
1.22259e-08
1.22282e-08
1.22305e-08
1.22327e-08
1.22349e-08
1.22368e-08
1.22389e-08
1.22103e-08
1.22128e-08
1.22153e-08
1.22179e-08
1.22203e-08
1.22228e-08
1.22253e-08
1.22277e-08
1.223e-08
1.22323e-08
1.22346e-08
1.22368e-08
1.22389e-08
1.2241e-08
1.22126e-08
1.2215e-08
1.22173e-08
1.22197e-08
1.22221e-08
1.22246e-08
1.2227e-08
1.22293e-08
1.22316e-08
1.22339e-08
1.22362e-08
1.22386e-08
1.22408e-08
1.22431e-08
1.22147e-08
1.22168e-08
1.2219e-08
1.22214e-08
1.22237e-08
1.22261e-08
1.22284e-08
1.22308e-08
1.22331e-08
1.22354e-08
1.22378e-08
1.22403e-08
1.22424e-08
1.22447e-08
1.22162e-08
1.22183e-08
1.22206e-08
1.22228e-08
1.22251e-08
1.22273e-08
1.22296e-08
1.22319e-08
1.22342e-08
1.22366e-08
1.2239e-08
1.22415e-08
1.22434e-08
1.22456e-08
1.22174e-08
1.22194e-08
1.22217e-08
1.22239e-08
1.22261e-08
1.22284e-08
1.22307e-08
1.2233e-08
1.22354e-08
1.22377e-08
1.224e-08
1.22422e-08
1.22439e-08
1.22457e-08
1.21608e-08
1.21629e-08
1.21652e-08
1.21674e-08
1.21697e-08
1.21718e-08
1.2174e-08
1.21761e-08
1.21781e-08
1.21801e-08
1.2182e-08
1.21838e-08
1.21855e-08
1.21868e-08
1.21649e-08
1.21666e-08
1.21689e-08
1.2171e-08
1.21732e-08
1.21754e-08
1.21776e-08
1.21798e-08
1.2182e-08
1.21841e-08
1.21862e-08
1.21881e-08
1.21899e-08
1.21919e-08
1.21687e-08
1.21704e-08
1.21727e-08
1.21748e-08
1.2177e-08
1.21792e-08
1.21814e-08
1.21837e-08
1.21859e-08
1.2188e-08
1.21901e-08
1.21922e-08
1.21941e-08
1.21961e-08
1.21724e-08
1.2174e-08
1.21763e-08
1.21785e-08
1.21807e-08
1.21829e-08
1.21852e-08
1.21875e-08
1.21898e-08
1.2192e-08
1.21942e-08
1.21963e-08
1.21983e-08
1.22005e-08
1.21759e-08
1.21777e-08
1.218e-08
1.21822e-08
1.21845e-08
1.21867e-08
1.21891e-08
1.21914e-08
1.21937e-08
1.2196e-08
1.21982e-08
1.22003e-08
1.22024e-08
1.22045e-08
1.21796e-08
1.21815e-08
1.21837e-08
1.21859e-08
1.21882e-08
1.21905e-08
1.21929e-08
1.21952e-08
1.21976e-08
1.21999e-08
1.22022e-08
1.22044e-08
1.22066e-08
1.22087e-08
1.21832e-08
1.21852e-08
1.21874e-08
1.21896e-08
1.21918e-08
1.21942e-08
1.21966e-08
1.2199e-08
1.22014e-08
1.22038e-08
1.22061e-08
1.22084e-08
1.22106e-08
1.22127e-08
1.21868e-08
1.21888e-08
1.21909e-08
1.21932e-08
1.21954e-08
1.21978e-08
1.22003e-08
1.22027e-08
1.22052e-08
1.22076e-08
1.221e-08
1.22123e-08
1.22146e-08
1.22167e-08
1.21902e-08
1.21923e-08
1.21943e-08
1.21966e-08
1.21989e-08
1.22014e-08
1.22038e-08
1.22063e-08
1.22088e-08
1.22113e-08
1.22137e-08
1.22161e-08
1.22184e-08
1.22206e-08
1.21936e-08
1.21956e-08
1.21977e-08
1.22e-08
1.22023e-08
1.22048e-08
1.22072e-08
1.22098e-08
1.22123e-08
1.22148e-08
1.22173e-08
1.22198e-08
1.22222e-08
1.22244e-08
1.21969e-08
1.21988e-08
1.22008e-08
1.22032e-08
1.22055e-08
1.2208e-08
1.22105e-08
1.22131e-08
1.22156e-08
1.22182e-08
1.22208e-08
1.22234e-08
1.22259e-08
1.22283e-08
1.22e-08
1.22019e-08
1.22039e-08
1.22062e-08
1.22086e-08
1.2211e-08
1.22136e-08
1.22162e-08
1.22188e-08
1.22214e-08
1.2224e-08
1.22268e-08
1.22293e-08
1.22318e-08
1.22026e-08
1.22045e-08
1.22067e-08
1.2209e-08
1.22114e-08
1.22139e-08
1.22165e-08
1.22191e-08
1.22218e-08
1.22245e-08
1.22272e-08
1.223e-08
1.22324e-08
1.22347e-08
1.22048e-08
1.22068e-08
1.22092e-08
1.22116e-08
1.22141e-08
1.22166e-08
1.22192e-08
1.22218e-08
1.22246e-08
1.22272e-08
1.22299e-08
1.22325e-08
1.22348e-08
1.2237e-08
1.21468e-08
1.21472e-08
1.21482e-08
1.21494e-08
1.21507e-08
1.21521e-08
1.21535e-08
1.21551e-08
1.21566e-08
1.21583e-08
1.21599e-08
1.21615e-08
1.2163e-08
1.21643e-08
1.2151e-08
1.21511e-08
1.21521e-08
1.2153e-08
1.21543e-08
1.21556e-08
1.21571e-08
1.21587e-08
1.21604e-08
1.21621e-08
1.21638e-08
1.21655e-08
1.21671e-08
1.21688e-08
1.21547e-08
1.21548e-08
1.21558e-08
1.21568e-08
1.21581e-08
1.21595e-08
1.2161e-08
1.21626e-08
1.21642e-08
1.21659e-08
1.21676e-08
1.21694e-08
1.2171e-08
1.21729e-08
1.21585e-08
1.21587e-08
1.21597e-08
1.21607e-08
1.2162e-08
1.21634e-08
1.2165e-08
1.21666e-08
1.21682e-08
1.217e-08
1.21717e-08
1.21735e-08
1.21752e-08
1.21771e-08
1.2162e-08
1.21625e-08
1.21635e-08
1.21647e-08
1.2166e-08
1.21675e-08
1.21691e-08
1.21707e-08
1.21724e-08
1.21742e-08
1.21759e-08
1.21777e-08
1.21795e-08
1.21813e-08
1.21657e-08
1.21665e-08
1.21675e-08
1.21688e-08
1.21701e-08
1.21716e-08
1.21732e-08
1.21749e-08
1.21767e-08
1.21785e-08
1.21804e-08
1.21822e-08
1.2184e-08
1.21858e-08
1.21695e-08
1.21704e-08
1.21715e-08
1.21728e-08
1.21742e-08
1.21758e-08
1.21775e-08
1.21792e-08
1.21811e-08
1.21829e-08
1.21848e-08
1.21867e-08
1.21885e-08
1.21903e-08
1.21733e-08
1.21744e-08
1.21755e-08
1.21769e-08
1.21784e-08
1.218e-08
1.21818e-08
1.21836e-08
1.21855e-08
1.21874e-08
1.21894e-08
1.21913e-08
1.21932e-08
1.2195e-08
1.2177e-08
1.21782e-08
1.21794e-08
1.21809e-08
1.21825e-08
1.21842e-08
1.21861e-08
1.2188e-08
1.21899e-08
1.21919e-08
1.21939e-08
1.21958e-08
1.21978e-08
1.21996e-08
1.21809e-08
1.21821e-08
1.21834e-08
1.21849e-08
1.21866e-08
1.21884e-08
1.21903e-08
1.21923e-08
1.21943e-08
1.21963e-08
1.21984e-08
1.22004e-08
1.22026e-08
1.22044e-08
1.21845e-08
1.21858e-08
1.21872e-08
1.21888e-08
1.21906e-08
1.21925e-08
1.21945e-08
1.21966e-08
1.21987e-08
1.22007e-08
1.22029e-08
1.22051e-08
1.22073e-08
1.22091e-08
1.21882e-08
1.21895e-08
1.2191e-08
1.21927e-08
1.21946e-08
1.21966e-08
1.21986e-08
1.22007e-08
1.22029e-08
1.22051e-08
1.22073e-08
1.22096e-08
1.22119e-08
1.22138e-08
1.21914e-08
1.21928e-08
1.21945e-08
1.21963e-08
1.21984e-08
1.22004e-08
1.22026e-08
1.22048e-08
1.22071e-08
1.22094e-08
1.22117e-08
1.22141e-08
1.22163e-08
1.22182e-08
1.21945e-08
1.2196e-08
1.2198e-08
1.22e-08
1.22022e-08
1.22043e-08
1.22065e-08
1.22088e-08
1.22111e-08
1.22134e-08
1.22157e-08
1.2218e-08
1.22201e-08
1.2222e-08
1.21424e-08
1.2142e-08
1.2142e-08
1.21422e-08
1.21425e-08
1.2143e-08
1.21436e-08
1.21443e-08
1.21451e-08
1.21461e-08
1.21471e-08
1.21481e-08
1.21491e-08
1.21501e-08
1.21459e-08
1.21453e-08
1.21454e-08
1.21454e-08
1.21456e-08
1.2146e-08
1.21466e-08
1.21474e-08
1.21482e-08
1.21491e-08
1.21501e-08
1.21512e-08
1.21522e-08
1.21533e-08
1.21489e-08
1.21484e-08
1.21485e-08
1.21486e-08
1.21489e-08
1.21493e-08
1.21499e-08
1.21506e-08
1.21514e-08
1.21523e-08
1.21533e-08
1.21544e-08
1.21553e-08
1.21565e-08
1.21521e-08
1.21517e-08
1.21519e-08
1.2152e-08
1.21522e-08
1.21527e-08
1.21533e-08
1.2154e-08
1.21548e-08
1.21558e-08
1.21567e-08
1.21578e-08
1.21588e-08
1.216e-08
1.21552e-08
1.2155e-08
1.21552e-08
1.21554e-08
1.21557e-08
1.21562e-08
1.21569e-08
1.21576e-08
1.21584e-08
1.21593e-08
1.21603e-08
1.21613e-08
1.21623e-08
1.21635e-08
1.21586e-08
1.21585e-08
1.21587e-08
1.2159e-08
1.21594e-08
1.21599e-08
1.21605e-08
1.21613e-08
1.21622e-08
1.21631e-08
1.21641e-08
1.21652e-08
1.21662e-08
1.21673e-08
1.21619e-08
1.2162e-08
1.21622e-08
1.21626e-08
1.21631e-08
1.21637e-08
1.21644e-08
1.21652e-08
1.21661e-08
1.2167e-08
1.21681e-08
1.21691e-08
1.21702e-08
1.21712e-08
1.21652e-08
1.21655e-08
1.21658e-08
1.21663e-08
1.21668e-08
1.21675e-08
1.21683e-08
1.21691e-08
1.21701e-08
1.21711e-08
1.21722e-08
1.21733e-08
1.21744e-08
1.21754e-08
1.21685e-08
1.2169e-08
1.21694e-08
1.217e-08
1.21707e-08
1.21714e-08
1.21723e-08
1.21732e-08
1.21742e-08
1.21753e-08
1.21764e-08
1.21775e-08
1.21787e-08
1.21797e-08
1.2172e-08
1.21725e-08
1.2173e-08
1.21738e-08
1.21745e-08
1.21754e-08
1.21763e-08
1.21774e-08
1.21785e-08
1.21796e-08
1.21808e-08
1.21819e-08
1.21832e-08
1.21842e-08
1.21754e-08
1.21761e-08
1.21767e-08
1.21775e-08
1.21784e-08
1.21794e-08
1.21805e-08
1.21816e-08
1.21828e-08
1.2184e-08
1.21852e-08
1.21863e-08
1.21877e-08
1.21887e-08
1.21789e-08
1.21797e-08
1.21804e-08
1.21814e-08
1.21824e-08
1.21834e-08
1.21846e-08
1.21858e-08
1.21871e-08
1.21884e-08
1.21896e-08
1.21909e-08
1.21924e-08
1.21933e-08
1.21822e-08
1.21831e-08
1.2184e-08
1.21851e-08
1.21863e-08
1.21875e-08
1.21888e-08
1.21901e-08
1.21914e-08
1.21928e-08
1.21941e-08
1.21955e-08
1.21969e-08
1.21979e-08
1.21856e-08
1.21866e-08
1.21878e-08
1.21889e-08
1.21902e-08
1.21915e-08
1.21929e-08
1.21943e-08
1.21957e-08
1.21971e-08
1.21985e-08
1.21998e-08
1.22012e-08
1.22022e-08
1.21442e-08
1.21434e-08
1.21429e-08
1.21424e-08
1.21421e-08
1.21419e-08
1.21418e-08
1.21419e-08
1.2142e-08
1.21422e-08
1.21424e-08
1.21428e-08
1.21431e-08
1.21436e-08
1.21468e-08
1.21458e-08
1.21453e-08
1.21447e-08
1.21444e-08
1.21441e-08
1.2144e-08
1.2144e-08
1.21441e-08
1.21443e-08
1.21445e-08
1.21449e-08
1.21451e-08
1.21457e-08
1.21491e-08
1.21481e-08
1.21476e-08
1.21471e-08
1.21467e-08
1.21465e-08
1.21463e-08
1.21463e-08
1.21464e-08
1.21465e-08
1.21467e-08
1.2147e-08
1.21472e-08
1.21479e-08
1.21514e-08
1.21505e-08
1.21501e-08
1.21495e-08
1.21492e-08
1.21489e-08
1.21488e-08
1.21487e-08
1.21488e-08
1.21489e-08
1.21491e-08
1.21493e-08
1.21496e-08
1.21501e-08
1.21537e-08
1.21529e-08
1.21525e-08
1.2152e-08
1.21517e-08
1.21515e-08
1.21514e-08
1.21513e-08
1.21513e-08
1.21514e-08
1.21516e-08
1.21518e-08
1.21521e-08
1.21525e-08
1.21561e-08
1.21555e-08
1.21551e-08
1.21547e-08
1.21544e-08
1.21542e-08
1.2154e-08
1.2154e-08
1.2154e-08
1.21541e-08
1.21543e-08
1.21545e-08
1.21547e-08
1.2155e-08
1.21585e-08
1.21581e-08
1.21577e-08
1.21574e-08
1.21571e-08
1.2157e-08
1.21569e-08
1.21568e-08
1.21569e-08
1.2157e-08
1.21571e-08
1.21573e-08
1.21575e-08
1.21578e-08
1.21611e-08
1.21607e-08
1.21604e-08
1.21602e-08
1.216e-08
1.21599e-08
1.21598e-08
1.21598e-08
1.21599e-08
1.216e-08
1.21601e-08
1.21603e-08
1.21606e-08
1.21607e-08
1.21636e-08
1.21634e-08
1.21632e-08
1.21631e-08
1.21629e-08
1.21629e-08
1.21629e-08
1.21629e-08
1.2163e-08
1.21631e-08
1.21633e-08
1.21635e-08
1.21638e-08
1.21638e-08
1.21662e-08
1.21663e-08
1.21661e-08
1.21661e-08
1.2166e-08
1.2166e-08
1.2166e-08
1.21661e-08
1.21662e-08
1.21664e-08
1.21666e-08
1.21668e-08
1.21672e-08
1.21671e-08
1.21689e-08
1.21691e-08
1.21691e-08
1.21691e-08
1.21691e-08
1.21692e-08
1.21693e-08
1.21695e-08
1.21696e-08
1.21698e-08
1.21701e-08
1.21703e-08
1.21707e-08
1.21706e-08
1.21718e-08
1.21721e-08
1.21721e-08
1.21722e-08
1.21724e-08
1.21725e-08
1.21727e-08
1.21729e-08
1.21731e-08
1.21733e-08
1.21737e-08
1.2174e-08
1.21744e-08
1.21743e-08
1.21747e-08
1.2175e-08
1.21752e-08
1.21754e-08
1.21756e-08
1.21759e-08
1.21761e-08
1.21764e-08
1.21767e-08
1.2177e-08
1.21773e-08
1.21777e-08
1.2178e-08
1.21779e-08
1.21777e-08
1.2178e-08
1.21783e-08
1.21786e-08
1.2179e-08
1.21793e-08
1.21797e-08
1.218e-08