/*--------------------------------*- C++ -*----------------------------------*\
| =========                 |                                                 |
| \\      /  F ield         | OpenFOAM: The Open Source CFD Toolbox           |
|  \\    /   O peration     | Version:  v2106                                 |
|   \\  /    A nd           | Website:  www.openfoam.com                      |
|    \\/     M anipulation  |                                                 |
\*---------------------------------------------------------------------------*/
FoamFile
{
    version     2.0;
    format      ascii;
    arch        "LSB;label=32;scalar=64";
    class       volScalarField;
    location    "0.000199";
    object      rho;
}
// * * * * * * * * * * * * * * * * * * * * * * * * * * * * * * * * * * * * * //

dimensions      [1 -3 0 0 0 0 0];

internalField   nonuniform List<scalar> 
17924
(
2.73574
2.73588
2.73601
2.73615
2.73422
2.73419
2.73417
2.73418
2.73422
2.73429
2.73439
2.73348
2.73349
2.73346
2.73348
2.73353
2.7336
2.73371
2.73281
2.73283
2.73279
2.73283
2.73288
2.73296
2.73308
2.73217
2.73217
2.73216
2.7322
2.73227
2.73237
2.7325
2.73156
2.73155
2.73155
2.7316
2.73168
2.7318
2.73196
2.73096
2.73095
2.73096
2.73102
2.73112
2.73126
2.73144
2.73037
2.73036
2.73038
2.73045
2.73057
2.73074
2.73094
2.72977
2.72976
2.72979
2.72989
2.73003
2.73022
2.73046
2.72915
2.72915
2.7292
2.72932
2.72949
2.72971
2.72996
2.72852
2.72852
2.7286
2.72875
2.72894
2.72918
2.72945
2.72787
2.72787
2.72798
2.72815
2.72838
2.72863
2.72893
2.72717
2.72719
2.72734
2.72754
2.7278
2.72808
2.72841
2.72645
2.72648
2.72666
2.72689
2.72719
2.72752
2.72787
2.72567
2.72576
2.726
2.72628
2.72661
2.72697
2.72735
2.73277
2.73259
2.73245
2.73236
2.73231
2.73229
2.73229
2.73234
2.73242
2.73252
2.73267
2.73283
2.73307
2.73329
2.732
2.73188
2.73173
2.73162
2.73154
2.73151
2.7315
2.73153
2.73161
2.7317
2.73185
2.732
2.73222
2.73235
2.73131
2.73118
2.73101
2.73089
2.7308
2.73076
2.73074
2.73076
2.73083
2.73092
2.73107
2.73121
2.73142
2.73154
2.73065
2.73051
2.73032
2.7302
2.73011
2.73006
2.73004
2.73005
2.73012
2.73021
2.73034
2.73048
2.73068
2.7308
2.73002
2.72986
2.72967
2.72955
2.72945
2.7294
2.72938
2.7294
2.72946
2.72956
2.72969
2.72983
2.73002
2.73017
2.72941
2.72924
2.72906
2.72893
2.72884
2.7288
2.72878
2.72881
2.72887
2.72897
2.72911
2.72925
2.72944
2.7296
2.72882
2.72863
2.72847
2.72835
2.72827
2.72824
2.72824
2.72828
2.72835
2.72847
2.72861
2.72876
2.72893
2.7291
2.72823
2.72805
2.7279
2.7278
2.72775
2.72773
2.72775
2.7278
2.72789
2.72802
2.72817
2.72833
2.7285
2.72866
2.72764
2.72747
2.72736
2.72728
2.72726
2.72726
2.72731
2.72739
2.7275
2.72765
2.7278
2.72797
2.72812
2.72828
2.72706
2.72692
2.72684
2.72679
2.7268
2.72684
2.72691
2.72702
2.72715
2.72731
2.72748
2.72766
2.72781
2.72797
2.72648
2.72636
2.72633
2.72633
2.72637
2.72645
2.72656
2.7267
2.72685
2.72702
2.7272
2.72737
2.72752
2.72767
2.72592
2.72583
2.72585
2.7259
2.72599
2.7261
2.72625
2.72641
2.72659
2.72677
2.72695
2.72712
2.72727
2.72741
2.72538
2.72532
2.72538
2.72548
2.72562
2.72577
2.72596
2.72616
2.72637
2.72656
2.72675
2.72692
2.72707
2.72721
2.72484
2.72483
2.72496
2.7251
2.72529
2.72549
2.72572
2.72594
2.72616
2.72638
2.72658
2.72675
2.72691
2.72703
2.73129
2.73102
2.73083
2.73068
2.73059
2.73053
2.7305
2.73052
2.73057
2.73065
2.73078
2.73094
2.73117
2.73141
2.73055
2.73036
2.73014
2.72997
2.72985
2.72976
2.72971
2.7297
2.72973
2.7298
2.72992
2.73005
2.73028
2.73041
2.72988
2.72968
2.72944
2.72926
2.72911
2.72901
2.72894
2.72891
2.72891
2.72897
2.72907
2.72919
2.72941
2.72953
2.72922
2.72901
2.72876
2.72857
2.72841
2.72829
2.72821
2.72816
2.72815
2.72819
2.72827
2.72839
2.72859
2.7287
2.72859
2.72836
2.72811
2.72792
2.72774
2.72761
2.72751
2.72746
2.72743
2.72746
2.72753
2.72764
2.72783
2.72797
2.72797
2.72773
2.72749
2.7273
2.72712
2.72699
2.72688
2.72682
2.72678
2.72679
2.72686
2.72695
2.72712
2.72727
2.72737
2.72713
2.7269
2.72671
2.72654
2.72641
2.7263
2.72623
2.72618
2.72619
2.72624
2.72634
2.72648
2.72665
2.72678
2.72656
2.72635
2.72617
2.72602
2.72589
2.72578
2.7257
2.72567
2.72566
2.7257
2.72579
2.72592
2.72608
2.72622
2.72602
2.72584
2.72568
2.72554
2.72542
2.72533
2.72526
2.72523
2.72522
2.72525
2.72534
2.72544
2.7256
2.72569
2.72552
2.72537
2.72524
2.72513
2.72503
2.72495
2.72489
2.72487
2.72486
2.72489
2.72497
2.72505
2.7252
2.72521
2.72506
2.72495
2.72485
2.72477
2.7247
2.72464
2.7246
2.7246
2.7246
2.72463
2.7247
2.72476
2.7249
2.7248
2.72467
2.7246
2.72453
2.72448
2.72444
2.7244
2.72438
2.72438
2.7244
2.72444
2.7245
2.72456
2.72468
2.72441
2.72432
2.7243
2.72427
2.72426
2.72425
2.72425
2.72424
2.72426
2.72429
2.72434
2.72439
2.72443
2.72452
2.72408
2.72404
2.72407
2.72407
2.72409
2.72411
2.72414
2.72416
2.72419
2.72421
2.72426
2.72431
2.72436
2.72442
2.72958
2.72935
2.72917
2.72905
2.72897
2.72892
2.7289
2.72892
2.72897
2.72905
2.72918
2.72934
2.72957
2.72981
2.7289
2.72875
2.72856
2.72843
2.72833
2.72825
2.72821
2.72821
2.72825
2.72832
2.72843
2.72856
2.72876
2.7289
2.72829
2.72814
2.72794
2.72781
2.72768
2.72759
2.72753
2.72751
2.72753
2.72758
2.72767
2.72779
2.728
2.7281
2.72767
2.72751
2.72733
2.72719
2.72706
2.72696
2.72689
2.72685
2.72685
2.72689
2.72696
2.72706
2.72725
2.72735
2.72707
2.72691
2.72673
2.72659
2.72645
2.72634
2.72626
2.72621
2.7262
2.72622
2.72629
2.72639
2.72656
2.72667
2.72649
2.72634
2.72616
2.72602
2.72588
2.72577
2.72568
2.72562
2.72559
2.7256
2.72565
2.72575
2.7259
2.72604
2.72593
2.72578
2.72562
2.72548
2.72534
2.72523
2.72514
2.72507
2.72503
2.72503
2.72507
2.72516
2.72529
2.72546
2.7254
2.72526
2.72513
2.72499
2.72486
2.72475
2.72465
2.72457
2.72452
2.7245
2.72454
2.72461
2.72473
2.72491
2.72491
2.72479
2.72468
2.72455
2.72442
2.72431
2.72421
2.72412
2.72406
2.72403
2.72405
2.72412
2.72422
2.7244
2.72448
2.72438
2.72429
2.72417
2.72405
2.72394
2.72384
2.72374
2.72368
2.72363
2.72363
2.72368
2.72376
2.72394
2.7241
2.72402
2.72395
2.72384
2.72374
2.72363
2.72353
2.72343
2.72336
2.7233
2.72328
2.72331
2.72337
2.72353
2.72381
2.72374
2.72368
2.72359
2.7235
2.7234
2.7233
2.72319
2.7231
2.72303
2.723
2.72301
2.72304
2.72318
2.72355
2.72351
2.72348
2.72341
2.72333
2.72324
2.72314
2.72304
2.72294
2.72286
2.72282
2.72279
2.7228
2.72288
2.72342
2.72337
2.72337
2.72331
2.72325
2.72316
2.72306
2.72294
2.72283
2.72272
2.72265
2.72259
2.72258
2.72262
2.72723
2.72723
2.72718
2.72716
2.72716
2.72718
2.72721
2.72727
2.72735
2.72746
2.72759
2.72775
2.72795
2.72817
2.72671
2.72673
2.72669
2.72668
2.72668
2.72669
2.72673
2.72678
2.72686
2.72695
2.72707
2.72721
2.72738
2.72751
2.72624
2.72625
2.72622
2.72621
2.7262
2.7262
2.72622
2.72626
2.72632
2.7264
2.72651
2.72664
2.72682
2.72694
2.72573
2.72575
2.72572
2.72573
2.72572
2.72572
2.72573
2.72576
2.72581
2.72588
2.72598
2.7261
2.72627
2.72638
2.72524
2.72527
2.72525
2.72525
2.72523
2.72523
2.72523
2.72525
2.7253
2.72536
2.72545
2.72557
2.72573
2.72587
2.72476
2.72481
2.7248
2.7248
2.72478
2.72477
2.72477
2.72478
2.72481
2.72487
2.72495
2.72506
2.72521
2.72537
2.72433
2.72437
2.72437
2.72436
2.72434
2.72433
2.72432
2.72432
2.72435
2.72439
2.72447
2.72458
2.72471
2.72488
2.72393
2.72396
2.72398
2.72397
2.72395
2.72393
2.72391
2.7239
2.72392
2.72395
2.72401
2.72411
2.72424
2.72442
2.72357
2.7236
2.72362
2.7236
2.72359
2.72356
2.72354
2.72352
2.72352
2.72353
2.72359
2.72367
2.72379
2.72397
2.72327
2.72329
2.72332
2.7233
2.72328
2.72325
2.72321
2.72318
2.72316
2.72316
2.72319
2.72326
2.72336
2.72354
2.72303
2.72305
2.72307
2.72306
2.72303
2.72298
2.72293
2.72288
2.72285
2.72282
2.72284
2.72289
2.72297
2.72314
2.72285
2.72287
2.7229
2.72288
2.72283
2.72277
2.72271
2.72263
2.72258
2.72253
2.72252
2.72254
2.7226
2.72275
2.72274
2.72276
2.72278
2.72275
2.7227
2.72262
2.72253
2.72243
2.72235
2.72228
2.72224
2.72225
2.72228
2.7224
2.72277
2.72276
2.72276
2.72271
2.72263
2.72253
2.72241
2.72228
2.72216
2.72206
2.72198
2.72193
2.72194
2.722
2.72376
2.72402
2.72421
2.7244
2.72456
2.72471
2.72485
2.72499
2.72514
2.72529
2.72546
2.72563
2.7258
2.72598
2.72347
2.72376
2.72396
2.72416
2.72433
2.72449
2.72464
2.7248
2.72496
2.72511
2.72528
2.72544
2.72562
2.72578
2.7232
2.72351
2.72372
2.72392
2.72408
2.72423
2.72438
2.72452
2.72468
2.72483
2.725
2.72517
2.72536
2.72552
2.72293
2.72323
2.72344
2.72365
2.72382
2.72398
2.72413
2.72427
2.72442
2.72456
2.72472
2.72488
2.72507
2.72523
2.72267
2.72295
2.72317
2.72337
2.72354
2.72369
2.72384
2.72398
2.72412
2.72426
2.72442
2.72457
2.72475
2.72492
2.72239
2.72267
2.72289
2.72309
2.72327
2.72342
2.72356
2.72369
2.72383
2.72396
2.7241
2.72426
2.72442
2.7246
2.72215
2.72242
2.72265
2.72284
2.72301
2.72315
2.72327
2.7234
2.72352
2.72364
2.72378
2.72393
2.72408
2.72427
2.72194
2.7222
2.72243
2.7226
2.72276
2.72289
2.723
2.72311
2.72322
2.72333
2.72345
2.72359
2.72374
2.72392
2.72176
2.72201
2.72222
2.72239
2.72252
2.72264
2.72274
2.72283
2.72292
2.72302
2.72313
2.72326
2.7234
2.72359
2.72163
2.72186
2.72205
2.7222
2.72232
2.72242
2.7225
2.72257
2.72264
2.72272
2.72281
2.72292
2.72305
2.72324
2.72155
2.72175
2.72192
2.72205
2.72214
2.72221
2.72227
2.72231
2.72237
2.72242
2.7225
2.72259
2.7227
2.72289
2.72152
2.72168
2.72183
2.72194
2.722
2.72204
2.72207
2.72209
2.72211
2.72214
2.72219
2.72226
2.72235
2.72252
2.72152
2.72166
2.72178
2.72185
2.72188
2.72189
2.72188
2.72186
2.72186
2.72187
2.72189
2.72194
2.72202
2.72219
2.72161
2.72172
2.72179
2.72182
2.7218
2.72177
2.72172
2.72167
2.72163
2.7216
2.72159
2.72161
2.72166
2.72176
2.71862
2.71916
2.71961
2.72004
2.72039
2.72071
2.721
2.72125
2.7215
2.72173
2.72196
2.72216
2.72236
2.7226
2.71866
2.71917
2.71964
2.72007
2.72045
2.7208
2.72112
2.72141
2.72168
2.72193
2.72217
2.72239
2.72261
2.72283
2.71869
2.71922
2.71971
2.72014
2.72054
2.72088
2.7212
2.72149
2.72176
2.72202
2.72226
2.72249
2.72271
2.72295
2.71871
2.71923
2.71973
2.72015
2.72056
2.72091
2.72124
2.72154
2.72183
2.72208
2.72234
2.72256
2.72279
2.72302
2.71874
2.71926
2.71976
2.72018
2.72058
2.72093
2.72125
2.72154
2.72182
2.72207
2.72231
2.72254
2.72277
2.723
2.71875
2.71926
2.71975
2.72017
2.72056
2.72091
2.72123
2.72152
2.72179
2.72204
2.72228
2.72251
2.72274
2.72296
2.71879
2.7193
2.71976
2.72017
2.72054
2.72087
2.72118
2.72146
2.72172
2.72197
2.7222
2.72242
2.72264
2.72286
2.71884
2.71932
2.71976
2.72015
2.7205
2.72082
2.72111
2.72138
2.72163
2.72186
2.72209
2.7223
2.7225
2.72272
2.71889
2.71936
2.71976
2.72013
2.72045
2.72075
2.72102
2.72127
2.7215
2.72172
2.72193
2.72213
2.72233
2.72255
2.71897
2.7194
2.71977
2.72011
2.7204
2.72068
2.72092
2.72115
2.72135
2.72156
2.72174
2.72194
2.72212
2.72234
2.71907
2.71945
2.71978
2.72009
2.72034
2.72058
2.72079
2.72099
2.72117
2.72135
2.72153
2.72171
2.72188
2.72211
2.71916
2.71951
2.71979
2.72006
2.72027
2.72048
2.72065
2.72082
2.72098
2.72114
2.72129
2.72146
2.72162
2.72184
2.71926
2.71956
2.7198
2.72002
2.72019
2.72035
2.72049
2.72062
2.72076
2.72089
2.72103
2.72119
2.72135
2.72157
2.71941
2.71966
2.71982
2.71998
2.7201
2.72022
2.72032
2.72042
2.72052
2.72063
2.72075
2.72088
2.72103
2.72124
2.71175
2.71247
2.71313
2.7137
2.71423
2.71471
2.71515
2.71554
2.7159
2.71622
2.71652
2.71679
2.71706
2.71738
2.7121
2.71275
2.71343
2.71404
2.7146
2.71512
2.7156
2.71602
2.71642
2.71677
2.7171
2.7174
2.71769
2.71805
2.7125
2.71316
2.71385
2.71445
2.71502
2.71554
2.71603
2.71646
2.71686
2.71723
2.71757
2.71788
2.71818
2.71852
2.71285
2.7135
2.71419
2.71479
2.71538
2.71591
2.71641
2.71686
2.71728
2.71766
2.71801
2.71833
2.71865
2.71899
2.71321
2.71387
2.71455
2.71515
2.71573
2.71625
2.71675
2.7172
2.71762
2.718
2.71836
2.71869
2.71901
2.71933
2.71356
2.71422
2.71487
2.71546
2.71603
2.71655
2.71705
2.7175
2.71792
2.7183
2.71867
2.719
2.71933
2.71964
2.71391
2.71456
2.71518
2.71576
2.71631
2.71682
2.7173
2.71774
2.71815
2.71853
2.71889
2.71922
2.71954
2.71985
2.71426
2.71488
2.71546
2.71602
2.71654
2.71704
2.7175
2.71793
2.71834
2.71871
2.71906
2.7194
2.71971
2.72002
2.71458
2.71517
2.71572
2.71625
2.71674
2.71722
2.71766
2.71807
2.71845
2.71882
2.71917
2.7195
2.71982
2.72013
2.71489
2.71545
2.71595
2.71645
2.71691
2.71735
2.71777
2.71817
2.71854
2.71889
2.71923
2.71956
2.71987
2.72019
2.71518
2.7157
2.71615
2.71661
2.71703
2.71745
2.71783
2.7182
2.71855
2.7189
2.71923
2.71956
2.71987
2.7202
2.71543
2.71591
2.71631
2.71673
2.71711
2.71749
2.71785
2.71821
2.71855
2.71888
2.7192
2.71953
2.71983
2.72017
2.71566
2.71609
2.71643
2.71681
2.71714
2.71749
2.71783
2.71816
2.71848
2.7188
2.71911
2.71943
2.71973
2.72008
2.71588
2.71626
2.71654
2.71686
2.71716
2.71747
2.71777
2.71807
2.71838
2.71868
2.71899
2.7193
2.71962
2.72
2.70414
2.7048
2.70548
2.7061
2.7067
2.70725
2.70777
2.70824
2.70868
2.70908
2.70947
2.70982
2.71019
2.71055
2.70475
2.70535
2.70606
2.7067
2.70733
2.70792
2.70847
2.70897
2.70945
2.70989
2.7103
2.7107
2.71108
2.71153
2.70545
2.70605
2.70676
2.70739
2.70803
2.70861
2.70917
2.70968
2.71016
2.71061
2.71104
2.71145
2.71184
2.7123
2.70611
2.70671
2.7074
2.70804
2.70867
2.70926
2.70983
2.71037
2.71087
2.71134
2.71179
2.71222
2.71263
2.71309
2.70677
2.70738
2.70806
2.70869
2.70932
2.70991
2.71048
2.71101
2.71152
2.712
2.71246
2.71291
2.71333
2.71377
2.70744
2.70805
2.7087
2.70931
2.70993
2.71052
2.71109
2.71163
2.71215
2.71264
2.71311
2.71357
2.714
2.71443
2.70807
2.70868
2.7093
2.70991
2.71051
2.71109
2.71165
2.71219
2.71271
2.71321
2.71369
2.71415
2.71459
2.71501
2.7087
2.70929
2.70988
2.71047
2.71105
2.71162
2.71218
2.71272
2.71324
2.71374
2.71423
2.71469
2.71515
2.71557
2.70928
2.70985
2.71041
2.71098
2.71154
2.71211
2.71265
2.71319
2.71371
2.71421
2.7147
2.71517
2.71563
2.71605
2.70983
2.71039
2.71091
2.71146
2.712
2.71255
2.71309
2.71362
2.71413
2.71463
2.71512
2.71559
2.71606
2.71649
2.71034
2.71087
2.71136
2.71188
2.7124
2.71294
2.71347
2.71399
2.7145
2.715
2.71549
2.71597
2.71645
2.71689
2.71081
2.71132
2.71177
2.71228
2.71277
2.71329
2.7138
2.71432
2.71483
2.71532
2.71581
2.7163
2.71678
2.71725
2.71123
2.71171
2.71213
2.71261
2.71309
2.71359
2.71409
2.7146
2.71511
2.71561
2.71611
2.7166
2.71709
2.71761
2.71163
2.71208
2.71246
2.71291
2.71337
2.71385
2.71434
2.71484
2.71534
2.71584
2.71635
2.71686
2.71736
2.71791
2.69753
2.69793
2.69843
2.6989
2.69939
2.69988
2.70035
2.70082
2.70128
2.70171
2.70213
2.70253
2.70294
2.70334
2.69835
2.6987
2.69921
2.69969
2.70019
2.70068
2.70118
2.70167
2.70214
2.70261
2.70305
2.70349
2.70391
2.7044
2.69922
2.69957
2.70008
2.70055
2.70105
2.70153
2.70202
2.70251
2.70299
2.70347
2.70392
2.70437
2.70479
2.7053
2.70007
2.70043
2.70092
2.70139
2.70189
2.70238
2.70288
2.70338
2.70388
2.70437
2.70484
2.70531
2.70575
2.70626
2.7009
2.70129
2.70177
2.70224
2.70274
2.70323
2.70374
2.70424
2.70475
2.70525
2.70573
2.70621
2.70667
2.70717
2.70175
2.70215
2.70262
2.70309
2.70358
2.70408
2.70459
2.70511
2.70563
2.70614
2.70664
2.70713
2.70761
2.7081
2.70257
2.70298
2.70344
2.70391
2.7044
2.70491
2.70543
2.70596
2.70649
2.70701
2.70752
2.70802
2.70851
2.70899
2.70339
2.70381
2.70425
2.70473
2.70522
2.70574
2.70626
2.7068
2.70733
2.70786
2.70839
2.7089
2.70941
2.70988
2.70416
2.70459
2.70502
2.70551
2.706
2.70653
2.70706
2.7076
2.70815
2.70869
2.70923
2.70974
2.71027
2.71073
2.70493
2.70536
2.70579
2.70627
2.70677
2.7073
2.70783
2.70838
2.70894
2.70948
2.71003
2.71056
2.7111
2.71156
2.70563
2.70607
2.70649
2.70698
2.70748
2.70802
2.70856
2.70912
2.70969
2.71025
2.71081
2.71134
2.7119
2.71235
2.70633
2.70677
2.70719
2.70768
2.70818
2.70872
2.70927
2.70983
2.7104
2.71096
2.71153
2.71207
2.71264
2.71311
2.70695
2.70739
2.7078
2.7083
2.70881
2.70935
2.70992
2.7105
2.71109
2.71167
2.71225
2.71281
2.71339
2.71388
2.70759
2.70802
2.70844
2.70893
2.70944
2.70998
2.71055
2.71112
2.7117
2.71228
2.71286
2.71343
2.71403
2.71463
2.69327
2.69331
2.69352
2.69376
2.69403
2.69434
2.69466
2.695
2.69535
2.69571
2.69607
2.69643
2.69678
2.69715
2.69416
2.69414
2.69434
2.69457
2.69485
2.69515
2.69548
2.69582
2.69618
2.69655
2.69692
2.69731
2.69767
2.69809
2.69499
2.69499
2.6952
2.69543
2.6957
2.69601
2.69634
2.69668
2.69703
2.6974
2.69777
2.69816
2.69852
2.69896
2.69584
2.69588
2.69608
2.69631
2.69659
2.6969
2.69723
2.69758
2.69794
2.69832
2.6987
2.69909
2.69946
2.6999
2.69666
2.69676
2.69696
2.6972
2.69749
2.69781
2.69814
2.6985
2.69887
2.69925
2.69964
2.70004
2.70042
2.70085
2.69752
2.69766
2.69787
2.69812
2.69842
2.69874
2.69908
2.69945
2.69983
2.70022
2.70062
2.70103
2.70143
2.70185
2.69836
2.69854
2.69876
2.69904
2.69934
2.69968
2.70003
2.70041
2.7008
2.70121
2.70162
2.70203
2.70244
2.70285
2.69923
2.69944
2.69967
2.69996
2.70027
2.70062
2.70099
2.70139
2.70179
2.70221
2.70263
2.70305
2.70349
2.70388
2.70008
2.70031
2.70055
2.70086
2.70119
2.70156
2.70195
2.70236
2.70278
2.7032
2.70365
2.70407
2.70452
2.7049
2.70093
2.70117
2.70143
2.70176
2.70211
2.7025
2.70291
2.70333
2.70376
2.7042
2.70466
2.7051
2.70557
2.70594
2.70172
2.702
2.70228
2.70263
2.703
2.70342
2.70384
2.70428
2.70473
2.70519
2.70566
2.70611
2.7066
2.70694
2.70253
2.70283
2.70313
2.7035
2.7039
2.70432
2.70477
2.70522
2.70569
2.70615
2.70664
2.7071
2.70761
2.70796
2.70327
2.70358
2.70391
2.70431
2.70473
2.70519
2.70566
2.70614
2.70663
2.70712
2.70762
2.7081
2.70862
2.70898
2.70406
2.70439
2.70475
2.70515
2.7056
2.70606
2.70654
2.70702
2.70752
2.70801
2.70852
2.709
2.70952
2.70999
2.69115
2.69103
2.69101
2.69104
2.69109
2.69119
2.69132
2.69148
2.69166
2.69186
2.69208
2.69232
2.69255
2.6928
2.6919
2.69173
2.69173
2.69174
2.69179
2.69189
2.69201
2.69217
2.69234
2.69255
2.69276
2.693
2.69323
2.69349
2.69257
2.69244
2.69245
2.69247
2.69252
2.69262
2.69273
2.69289
2.69306
2.69326
2.69346
2.6937
2.69391
2.69419
2.6933
2.6932
2.69321
2.69323
2.69328
2.69338
2.6935
2.69366
2.69383
2.69402
2.69423
2.69446
2.69467
2.69496
2.69402
2.69396
2.69397
2.69401
2.69407
2.69417
2.6943
2.69445
2.69463
2.69482
2.69503
2.69525
2.69547
2.69574
2.69478
2.69475
2.69476
2.69481
2.69489
2.69499
2.69513
2.69529
2.69547
2.69567
2.69588
2.6961
2.69633
2.69658
2.69552
2.69552
2.69555
2.69562
2.69571
2.69583
2.69598
2.69615
2.69633
2.69654
2.69676
2.69698
2.69723
2.69746
2.69627
2.69631
2.69636
2.69645
2.69656
2.69669
2.69685
2.69703
2.69723
2.69745
2.69767
2.69791
2.69816
2.69838
2.69702
2.69709
2.69716
2.69728
2.69741
2.69756
2.69774
2.69794
2.69816
2.69838
2.69861
2.69885
2.69912
2.69933
2.69778
2.69788
2.69798
2.69812
2.69827
2.69845
2.69865
2.69887
2.6991
2.69934
2.69958
2.69982
2.70011
2.70031
2.69853
2.69867
2.69879
2.69896
2.69914
2.69934
2.69956
2.6998
2.70005
2.7003
2.70056
2.7008
2.7011
2.70128
2.6993
2.69947
2.69962
2.69981
2.70002
2.70024
2.70049
2.70074
2.70102
2.70128
2.70155
2.7018
2.70213
2.70229
2.70005
2.70024
2.70042
2.70064
2.70088
2.70114
2.70141
2.70169
2.70198
2.70226
2.70254
2.70281
2.70314
2.70331
2.70089
2.70107
2.70127
2.7015
2.70177
2.70204
2.70233
2.70262
2.70293
2.70322
2.70352
2.70381
2.70414
2.70437
2.69042
2.6902
2.69006
2.68994
2.68986
2.6898
2.68978
2.68978
2.6898
2.68985
2.6899
2.68998
2.69007
2.69019
2.69096
2.69072
2.69058
2.69046
2.69038
2.69032
2.69028
2.69027
2.69029
2.69032
2.69036
2.69043
2.69049
2.69064
2.69146
2.69124
2.69111
2.69099
2.6909
2.69084
2.6908
2.69079
2.69079
2.69081
2.69085
2.6909
2.69096
2.69109
2.69199
2.69179
2.69166
2.69155
2.69146
2.6914
2.69135
2.69133
2.69133
2.69135
2.69138
2.69143
2.69147
2.69159
2.69251
2.69234
2.69222
2.69211
2.69203
2.69197
2.69193
2.69191
2.6919
2.69192
2.69194
2.69199
2.69203
2.69212
2.69306
2.69291
2.6928
2.6927
2.69263
2.69257
2.69253
2.69251
2.69251
2.69252
2.69254
2.69258
2.69263
2.69269
2.69361
2.69349
2.69339
2.69331
2.69324
2.69319
2.69316
2.69314
2.69314
2.69315
2.69317
2.69321
2.69325
2.6933
2.69417
2.69408
2.694
2.69393
2.69388
2.69384
2.69381
2.6938
2.6938
2.69381
2.69384
2.69387
2.69392
2.69395
2.69474
2.69469
2.69462
2.69458
2.69454
2.69451
2.69449
2.69449
2.69449
2.6945
2.69454
2.69457
2.69463
2.69463
2.69533
2.69532
2.69527
2.69524
2.69521
2.6952
2.69519
2.6952
2.69521
2.69523
2.69527
2.69531
2.69538
2.69536
2.69593
2.69595
2.69592
2.69592
2.69591
2.69591
2.69592
2.69594
2.69596
2.69598
2.69603
2.69608
2.69616
2.69612
2.69657
2.69661
2.69659
2.69661
2.69662
2.69664
2.69667
2.6967
2.69674
2.69677
2.69683
2.6969
2.69698
2.69693
2.69721
2.69727
2.69728
2.69731
2.69735
2.69739
2.69743
2.69748
2.69752
2.69757
2.69764
2.69771
2.69778
2.69773
2.69794
2.69796
2.69799
2.69803
2.69809
2.69815
2.69821
2.69827
2.69833
2.69839
2.69847
2.69855
2.69864
2.69863
2.69027
2.69001
2.68981
2.68963
2.68946
2.68931
2.68919
2.68908
2.68898
2.6889
2.68884
2.68878
2.68873
2.68868
2.69058
2.69033
2.69014
2.68995
2.68979
2.68963
2.68949
2.68937
2.68927
2.68917
2.68909
2.68902
2.68895
2.68892
2.69089
2.69065
2.69046
2.69027
2.6901
2.68995
2.68981
2.68968
2.68957
2.68947
2.68937
2.68929
2.68921
2.68917
2.69122
2.69099
2.6908
2.69062
2.69045
2.69029
2.69014
2.69001
2.68989
2.68978
2.68967
2.68958
2.68949
2.68944
2.69155
2.69134
2.69115
2.69097
2.6908
2.69064
2.69049
2.69035
2.69023
2.69011
2.69
2.6899
2.6898
2.68973
2.69189
2.69169
2.69151
2.69133
2.69117
2.69101
2.69085
2.69071
2.69058
2.69046
2.69035
2.69024
2.69014
2.69005
2.69224
2.69206
2.69189
2.69172
2.69155
2.69139
2.69124
2.6911
2.69096
2.69084
2.69072
2.69061
2.6905
2.69039
2.69261
2.69245
2.69228
2.69212
2.69196
2.6918
2.69165
2.6915
2.69137
2.69123
2.69111
2.69099
2.69088
2.69076
2.69299
2.69285
2.69269
2.69253
2.69238
2.69223
2.69208
2.69193
2.69179
2.69166
2.69153
2.6914
2.69129
2.69115
2.69339
2.69326
2.69311
2.69297
2.69282
2.69267
2.69253
2.69238
2.69224
2.6921
2.69196
2.69182
2.69171
2.69156
2.69379
2.69369
2.69355
2.69341
2.69327
2.69313
2.69299
2.69285
2.69271
2.69256
2.69242
2.69227
2.69216
2.692
2.69422
2.69413
2.694
2.69387
2.69374
2.69361
2.69348
2.69334
2.69319
2.69304
2.69291
2.69275
2.69264
2.69249
2.69467
2.69459
2.69448
2.69436
2.69424
2.69411
2.69398
2.69384
2.69369
2.69355
2.69341
2.69325
2.69313
2.69298
2.69519
2.69506
2.69494
2.69483
2.69472
2.69461
2.69449
2.69436
2.69423
2.69409
2.69395
2.69379
2.69368
2.69354
2.6902
2.68993
2.68972
2.6895
2.6893
2.6891
2.68891
2.68872
2.68855
2.68837
2.68821
2.68805
2.68791
2.68776
2.69032
2.69008
2.68987
2.68965
2.68945
2.68924
2.68904
2.68885
2.68866
2.68848
2.68831
2.68814
2.68799
2.68783
2.69045
2.69021
2.69
2.68979
2.68958
2.68938
2.68918
2.68898
2.6888
2.68861
2.68843
2.68825
2.68808
2.68791
2.69061
2.69037
2.69016
2.68995
2.68974
2.68953
2.68933
2.68913
2.68893
2.68874
2.68855
2.68836
2.68818
2.688
2.69077
2.69054
2.69033
2.69011
2.6899
2.68969
2.68948
2.68928
2.68908
2.68887
2.68868
2.68848
2.68829
2.6881
2.69093
2.69072
2.6905
2.69029
2.69007
2.68986
2.68964
2.68943
2.68922
2.68901
2.68881
2.6886
2.6884
2.6882
2.6911
2.69089
2.69068
2.69047
2.69025
2.69003
2.68981
2.68959
2.68938
2.68916
2.68895
2.68874
2.68852
2.68831
2.69127
2.69107
2.69086
2.69065
2.69043
2.69021
2.68999
2.68976
2.68954
2.68931
2.68909
2.68887
2.68865
2.68843
2.69145
2.69126
2.69105
2.69083
2.69061
2.69039
2.69016
2.68994
2.6897
2.68947
2.68924
2.68901
2.68878
2.68855
2.69164
2.69145
2.69124
2.69103
2.69081
2.69058
2.69035
2.69012
2.68988
2.68964
2.6894
2.68916
2.68892
2.68868
2.69183
2.69165
2.69144
2.69123
2.691
2.69078
2.69054
2.69031
2.69006
2.68982
2.68957
2.68932
2.68908
2.68881
2.69202
2.69184
2.69164
2.69144
2.69121
2.69099
2.69075
2.6905
2.69025
2.69
2.68974
2.68949
2.68923
2.68896
2.69223
2.69205
2.69185
2.69164
2.69142
2.69118
2.69094
2.6907
2.69045
2.69019
2.68992
2.68965
2.68938
2.6891
2.69243
2.69223
2.69204
2.69183
2.69162
2.6914
2.69116
2.69091
2.69065
2.69039
2.69013
2.68985
2.68958
2.68928
2.68983
2.68959
2.68937
2.68914
2.68892
2.68869
2.68846
2.68822
2.68799
2.68775
2.68753
2.68728
2.68707
2.68682
2.68982
2.68959
2.68938
2.68916
2.68893
2.6887
2.68846
2.68822
2.68798
2.68772
2.68749
2.68724
2.68702
2.68677
2.68979
2.68957
2.68936
2.68914
2.68891
2.68868
2.68844
2.6882
2.68796
2.6877
2.68746
2.68721
2.68697
2.68672
2.68977
2.68956
2.68935
2.68912
2.68889
2.68866
2.68842
2.68817
2.68793
2.68767
2.68742
2.68716
2.68692
2.68666
2.68975
2.68955
2.68933
2.6891
2.68887
2.68864
2.68839
2.68814
2.68789
2.68763
2.68737
2.68711
2.68686
2.68659
2.68973
2.68953
2.68931
2.68908
2.68885
2.68861
2.68836
2.6881
2.68785
2.68758
2.68732
2.68705
2.68678
2.68651
2.68972
2.68951
2.68929
2.68906
2.68882
2.68857
2.68832
2.68806
2.6878
2.68753
2.68725
2.68698
2.6867
2.68642
2.68969
2.68949
2.68926
2.68903
2.68879
2.68853
2.68827
2.68801
2.68774
2.68746
2.68718
2.6869
2.68662
2.68633
2.68967
2.68946
2.68924
2.689
2.68875
2.68849
2.68822
2.68795
2.68767
2.68739
2.6871
2.68681
2.68652
2.68623
2.68964
2.68943
2.6892
2.68896
2.6887
2.68844
2.68817
2.68789
2.6876
2.68731
2.68701
2.68672
2.68642
2.68613
2.68961
2.68939
2.68916
2.68891
2.68866
2.68839
2.6881
2.68782
2.68752
2.68722
2.68692
2.68662
2.6863
2.68601
2.68957
2.68934
2.6891
2.68885
2.68859
2.68832
2.68804
2.68774
2.68744
2.68714
2.68682
2.68651
2.68619
2.68589
2.68953
2.68929
2.68905
2.6888
2.68853
2.68825
2.68796
2.68766
2.68735
2.68703
2.68671
2.68639
2.68606
2.68575
2.68948
2.68923
2.68899
2.68873
2.68846
2.68818
2.68788
2.68758
2.68727
2.68696
2.68664
2.68632
2.68598
2.68566
2.68868
2.68847
2.68826
2.68804
2.68781
2.68757
2.68731
2.68705
2.68678
2.68649
2.68622
2.68593
2.68568
2.68537
2.6885
2.68831
2.68811
2.68789
2.68766
2.68742
2.68716
2.68689
2.68662
2.68633
2.68605
2.68576
2.68549
2.68519
2.68831
2.68813
2.68793
2.68771
2.68748
2.68724
2.68699
2.68672
2.68645
2.68616
2.68588
2.68559
2.68531
2.68501
2.68812
2.68795
2.68774
2.68753
2.6873
2.68706
2.68681
2.68654
2.68626
2.68597
2.68569
2.68539
2.68512
2.68481
2.68793
2.68776
2.68755
2.68734
2.68711
2.68686
2.68661
2.68634
2.68606
2.68577
2.68549
2.68519
2.68491
2.6846
2.68774
2.68756
2.68735
2.68713
2.6869
2.68665
2.68639
2.68612
2.68585
2.68556
2.68526
2.68497
2.68467
2.68437
2.68754
2.68736
2.68714
2.68692
2.68668
2.68643
2.68617
2.68589
2.68561
2.68532
2.68503
2.68473
2.68443
2.68413
2.68733
2.68713
2.68692
2.68669
2.68644
2.68619
2.68592
2.68565
2.68536
2.68507
2.68477
2.68447
2.68417
2.68386
2.68712
2.68691
2.68669
2.68646
2.68621
2.68595
2.68567
2.68539
2.6851
2.6848
2.6845
2.6842
2.68389
2.68359
2.68689
2.68667
2.68644
2.6862
2.68595
2.68568
2.6854
2.68512
2.68482
2.68453
2.68422
2.68392
2.68359
2.68331
2.68666
2.68642
2.6862
2.68595
2.68569
2.68541
2.68513
2.68484
2.68453
2.68423
2.68391
2.68361
2.68328
2.68301
2.68641
2.68615
2.68592
2.68567
2.6854
2.68512
2.68484
2.68454
2.68424
2.68393
2.68361
2.68331
2.68297
2.6827
2.68617
2.6859
2.68566
2.6854
2.68513
2.68484
2.68454
2.68423
2.68392
2.6836
2.68328
2.68297
2.68264
2.68237
2.68589
2.68561
2.68537
2.6851
2.68482
2.68453
2.68423
2.68392
2.68361
2.6833
2.68298
2.68267
2.68235
2.68206
2.68603
2.68586
2.68567
2.68549
2.68528
2.68506
2.68483
2.68458
2.68432
2.68404
2.68377
2.68348
2.68321
2.6829
2.6857
2.68556
2.68539
2.68521
2.685
2.68478
2.68454
2.68429
2.68403
2.68375
2.68347
2.68318
2.68291
2.68261
2.68538
2.68526
2.68508
2.6849
2.68469
2.68447
2.68424
2.68399
2.68373
2.68346
2.68319
2.6829
2.68263
2.68234
2.68506
2.68494
2.68476
2.68458
2.68437
2.68415
2.68392
2.68367
2.68341
2.68314
2.68287
2.68259
2.68232
2.68203
2.68474
2.68461
2.68443
2.68424
2.68404
2.68382
2.68358
2.68334
2.68308
2.68281
2.68255
2.68227
2.682
2.68171
2.6844
2.68426
2.68408
2.68389
2.68369
2.68347
2.68323
2.68299
2.68273
2.68246
2.6822
2.68192
2.68165
2.68137
2.68407
2.68391
2.68373
2.68353
2.68332
2.6831
2.68287
2.68262
2.68236
2.6821
2.68183
2.68156
2.68129
2.68102
2.68371
2.68354
2.68336
2.68316
2.68294
2.68272
2.68248
2.68224
2.68198
2.68172
2.68145
2.68118
2.68091
2.68064
2.68335
2.68317
2.68298
2.68278
2.68256
2.68233
2.68209
2.68184
2.68159
2.68133
2.68106
2.68079
2.68052
2.68026
2.68298
2.68278
2.68259
2.68237
2.68216
2.68193
2.68169
2.68144
2.68118
2.68092
2.68065
2.68038
2.68011
2.67987
2.68261
2.68239
2.6822
2.68198
2.68175
2.68152
2.68127
2.68102
2.68076
2.6805
2.68022
2.67996
2.67969
2.67947
2.68222
2.68198
2.68178
2.68156
2.68133
2.68109
2.68085
2.6806
2.68033
2.68007
2.6798
2.67954
2.67927
2.67906
2.68185
2.68159
2.68139
2.68116
2.68092
2.68068
2.68042
2.68016
2.67989
2.67962
2.67935
2.6791
2.67883
2.67863
2.68142
2.68117
2.68095
2.68072
2.68048
2.68024
2.67998
2.67973
2.67946
2.6792
2.67894
2.67868
2.67842
2.67822
2.68142
2.68131
2.68119
2.68106
2.68093
2.68077
2.6806
2.68042
2.68023
2.68002
2.67981
2.67959
2.68103
2.68096
2.68084
2.68072
2.68058
2.68042
2.68025
2.68007
2.67987
2.67966
2.67945
2.67922
2.68067
2.6806
2.68047
2.68035
2.68021
2.68005
2.67988
2.6797
2.67951
2.67931
2.6791
2.67889
2.68029
2.68022
2.68009
2.67996
2.67982
2.67967
2.6795
2.67932
2.67913
2.67893
2.67873
2.67852
2.67991
2.67984
2.6797
2.67958
2.67943
2.67928
2.67911
2.67893
2.67874
2.67855
2.67835
2.67814
2.67952
2.67943
2.6793
2.67917
2.67903
2.67887
2.6787
2.67852
2.67834
2.67815
2.67795
2.67775
2.67912
2.67902
2.67889
2.67876
2.67861
2.67845
2.67828
2.67811
2.67792
2.67774
2.67755
2.67735
2.67871
2.6786
2.67847
2.67833
2.67819
2.67803
2.67786
2.67768
2.6775
2.67732
2.67713
2.67694
2.67831
2.67818
2.67805
2.6779
2.67775
2.67759
2.67743
2.67725
2.67707
2.67689
2.67671
2.67652
2.67789
2.67774
2.67761
2.67746
2.67731
2.67715
2.67699
2.67682
2.67664
2.67646
2.67627
2.67609
2.67748
2.67731
2.67718
2.67703
2.67688
2.67671
2.67655
2.67637
2.6762
2.67602
2.67584
2.67566
2.67705
2.67687
2.67673
2.67658
2.67643
2.67627
2.6761
2.67593
2.67575
2.67558
2.6754
2.67523
2.67664
2.67646
2.67631
2.67616
2.67599
2.67583
2.67565
2.67548
2.6753
2.67513
2.67496
2.67479
2.67618
2.67602
2.67586
2.6757
2.67554
2.67537
2.67521
2.67503
2.67486
2.67469
2.67453
2.67436
2.73638
2.7368
2.73729
2.73779
2.7383
2.73883
2.73646
2.73702
2.73762
2.73827
2.73892
2.73962
2.73665
2.73729
2.738
2.73877
2.73956
2.74039
2.7368
2.73752
2.73832
2.73919
2.74009
2.74105
2.73491
2.73541
2.73591
2.73643
2.73693
2.73744
2.73483
2.73549
2.73614
2.73681
2.73746
2.73813
2.73491
2.73568
2.73645
2.73726
2.73805
2.73887
2.73496
2.73582
2.73672
2.73765
2.73858
2.73954
2.73505
2.73598
2.73697
2.73801
2.73906
2.74013
2.73513
2.73612
2.73718
2.73829
2.73943
2.74059
2.73524
2.73626
2.73736
2.73852
2.73971
2.74093
2.73344
2.73401
2.73449
2.73499
2.73546
2.73592
2.73324
2.73393
2.73459
2.73524
2.73584
2.73642
2.73323
2.73402
2.73479
2.73556
2.73629
2.737
2.73321