/*--------------------------------*- C++ -*----------------------------------*\
| =========                 |                                                 |
| \\      /  F ield         | OpenFOAM: The Open Source CFD Toolbox           |
|  \\    /   O peration     | Version:  v2106                                 |
|   \\  /    A nd           | Website:  www.openfoam.com                      |
|    \\/     M anipulation  |                                                 |
\*---------------------------------------------------------------------------*/
FoamFile
{
    version     2.0;
    format      ascii;
    arch        "LSB;label=32;scalar=64";
    class       volVectorField;
    location    "0.000143";
    object      U;
}
// * * * * * * * * * * * * * * * * * * * * * * * * * * * * * * * * * * * * * //

dimensions      [0 1 -1 0 0 0 0];

internalField   nonuniform List<vector> 
17920
(
(0.0384513 -0.0445376 3.67841)
(0.0461826 -0.04533 3.67769)
(0.0381961 -0.0381805 3.67904)
(0.0450112 -0.0382721 3.679)
(0.0396545 -0.0319595 3.68069)
(0.0468886 -0.031592 3.68063)
(0.0396921 -0.0254283 3.68187)
(0.0467739 -0.0247047 3.68193)
(0.0397962 -0.0187088 3.68301)
(0.0469348 -0.0179211 3.68285)
(0.0397362 -0.0117916 3.68379)
(0.0468237 -0.0111972 3.68327)
(0.0397357 -0.00474681 3.68447)
(0.0467449 -0.0045282 3.68357)
(0.0396514 0.00243505 3.68469)
(0.0465993 0.00221384 3.68368)
(0.0393859 0.00958601 3.68446)
(0.0462408 0.00895743 3.68369)
(0.0392815 0.016762 3.6842)
(0.0460749 0.0159498 3.68367)
(0.0390402 0.0237922 3.68338)
(0.0457513 0.023068 3.68318)
(0.0389081 0.0307062 3.68269)
(0.0456603 0.0303866 3.68248)
(0.0376601 0.0373744 3.68163)
(0.0440138 0.0375943 3.68126)
(0.0377362 0.0440945 3.68161)
(0.044667 0.0451442 3.68068)
(-0.0369264 -0.0391468 3.38941)
(-0.030445 -0.0379661 3.39133)
(-0.0250985 -0.0398008 3.39382)
(-0.0193827 -0.0395494 3.39553)
(-0.0138326 -0.0396144 3.39681)
(-0.00829306 -0.039378 3.3975)
(-0.00273796 -0.0392001 3.39791)
(0.00287811 -0.0389329 3.39809)
(0.00852442 -0.0387016 3.39794)
(0.0143783 -0.0386064 3.39759)
(0.0202618 -0.0382751 3.3966)
(0.0263924 -0.0382545 3.39523)
(0.032307 -0.0364894 3.393)
(0.0393827 -0.0372774 3.39136)
(-0.0360102 -0.0318448 3.39154)
(-0.03038 -0.0318075 3.39266)
(-0.0255192 -0.0331334 3.39513)
(-0.020063 -0.0331742 3.39679)
(-0.0145069 -0.0333095 3.39845)
(-0.0087215 -0.0333031 3.39958)
(-0.00278136 -0.0333177 3.40031)
(0.00321145 -0.0331668 3.40057)
(0.00922152 -0.0329145 3.40016)
(0.0152765 -0.0326829 3.39939)
(0.0211597 -0.0323075 3.39799)
(0.0270043 -0.0321129 3.39655)
(0.0324018 -0.0308607 3.39437)
(0.0384463 -0.0307912 3.39355)
(-0.0379525 -0.0257702 3.39413)
(-0.0317262 -0.0264176 3.39527)
(-0.0265149 -0.0275073 3.39818)
(-0.0205888 -0.0276129 3.39961)
(-0.0147148 -0.027639 3.40115)
(-0.00868353 -0.0275552 3.40202)
(-0.00261523 -0.0274817 3.4025)
(0.0034027 -0.0273532 3.40269)
(0.00947869 -0.0272474 3.40244)
(0.0156656 -0.0271648 3.40191)
(0.02179 -0.0270046 3.40068)
(0.0280047 -0.0268914 3.3995)
(0.0337032 -0.0259134 3.39691)
(0.0402705 -0.0253306 3.39601)
(-0.0378819 -0.0195852 3.39616)
(-0.0318349 -0.020559 3.39718)
(-0.0265818 -0.0212505 3.39981)
(-0.0207703 -0.0215113 3.40122)
(-0.0149181 -0.0215299 3.40274)
(-0.00884733 -0.0215315 3.4037)
(-0.0026506 -0.0214904 3.40423)
(0.00352428 -0.0214189 3.40446)
(0.00974581 -0.0213529 3.40416)
(0.0159762 -0.0212638 3.40351)
(0.0220623 -0.0211782 3.40228)
(0.0281224 -0.0209912 3.4011)
(0.0337459 -0.0204612 3.39873)
(0.0400631 -0.0196291 3.39784)
(-0.0382818 -0.013656 3.39757)
(-0.032211 -0.0146585 3.39896)
(-0.0267488 -0.0151001 3.4015)
(-0.0208417 -0.0154169 3.4029)
(-0.0149053 -0.0154322 3.40432)
(-0.0087962 -0.0154656 3.40523)
(-0.00258368 -0.0154281 3.40569)
(0.00357468 -0.0153901 3.40589)
(0.00978438 -0.0153726 3.40564)
(0.016003 -0.0153178 3.40504)
(0.0221051 -0.0153042 3.4039)
(0.0281891 -0.01511 3.40274)
(0.0339057 -0.0148853 3.40045)
(0.0401832 -0.0140776 3.39922)
(-0.0383945 -0.00783767 3.39838)
(-0.0324599 -0.00862839 3.40022)
(-0.0268243 -0.00885687 3.40245)
(-0.0209268 -0.00915302 3.40394)
(-0.0149574 -0.00918381 3.4053)
(-0.00883327 -0.00924608 3.40624)
(-0.00258757 -0.00923058 3.40669)
(0.00360128 -0.00922192 3.4069)
(0.00983202 -0.0092253 3.40663)
(0.0160406 -0.00918834 3.406)
(0.0221217 -0.00920887 3.4049)
(0.0281459 -0.0090554 3.40367)
(0.0339272 -0.00908144 3.40164)
(0.0400207 -0.00852923 3.40003)
(-0.0385523 -0.00211342 3.39889)
(-0.0327382 -0.00255713 3.40112)
(-0.0269458 -0.0026889 3.40315)
(-0.021007 -0.00287872 3.40474)
(-0.0149787 -0.00293031 3.40604)
(-0.00883092 -0.00299278 3.40699)
(-0.0025716 -0.002996 3.40742)
(0.00361523 -0.00300478 3.40763)
(0.00983865 -0.00301962 3.40738)
(0.0160352 -0.00300892 3.40675)
(0.0221156 -0.00304488 3.40569)
(0.028126 -0.0030046 3.40437)
(0.033985 -0.00315999 3.40255)
(0.0399095 -0.00298699 3.40057)
(-0.038701 0.00363968 3.39918)
(-0.0329069 0.00358421 3.40147)
(-0.0270676 0.00347809 3.40344)
(-0.0210993 0.003445 3.40505)
(-0.0150374 0.00337814 3.40634)
(-0.00886874 0.00333807 3.40729)
(-0.00259456 0.00332329 3.40772)
(0.00359701 0.0033101 3.40793)
(0.00981413 0.00329615 3.40767)
(0.0159961 0.00328208 3.40703)
(0.02206 0.00324642 3.40598)
(0.02805 0.00313242 3.40463)
(0.0339185 0.00293879 3.40287)
(0.0397775 0.00271188 3.40082)
(-0.0389892 0.00916815 3.39907)
(-0.0330208 0.00945153 3.40111)
(-0.0272044 0.00940659 3.40326)
(-0.0211783 0.00949651 3.40481)
(-0.0150893 0.00943209 3.40613)
(-0.00889055 0.0094149 3.40707)
(-0.00259721 0.00939883 3.40751)
(0.0036036 0.00939289 3.40771)
(0.00981333 0.00938713 3.40746)
(0.0159743 0.00935981 3.40683)
(0.0219885 0.00932066 3.40575)
(0.0279196 0.00906616 3.40447)
(0.0336402 0.00880087 3.40259)
(0.0394659 0.00818505 3.40079)
(-0.0391913 0.0147961 3.39876)
(-0.0330485 0.0153405 3.40049)
(-0.0272919 0.015488 3.40288)
(-0.0212219 0.0156451 3.40439)
(-0.0151067 0.015613 3.40576)
(-0.00888667 0.0156183 3.40669)
(-0.00258669 0.0156156 3.40713)
(0.00360714 0.0156297 3.40733)
(0.00980892 0.0156446 3.40708)
(0.0159621 0.0156338 3.40646)
(0.0219596 0.0156097 3.40535)
(0.0278728 0.0153171 3.40412)
(0.0334772 0.0149437 3.40205)
(0.0393389 0.0140939 3.4005)
(-0.0391971 0.0204213 3.39792)
(-0.0329726 0.0209755 3.39926)
(-0.0273123 0.0214084 3.40177)
(-0.0212448 0.0215532 3.40329)
(-0.0151186 0.021578 3.40472)
(-0.00888085 0.0216104 3.40569)
(-0.00256494 0.0216377 3.40616)
(0.00363324 0.0216802 3.40635)
(0.0098215 0.021713 3.40607)
(0.0159455 0.0217253 3.40542)
(0.0218888 0.0217017 3.40424)
(0.0277293 0.0214441 3.40301)
(0.0331597 0.0208642 3.40079)
(0.0390482 0.0199949 3.39968)
(-0.0394006 0.0261885 3.39669)
(-0.032941 0.0264756 3.39802)
(-0.0272448 0.0273316 3.40074)
(-0.0210551 0.0273763 3.40226)
(-0.0148852 0.0274815 3.4037)
(-0.00867413 0.0275305 3.40461)
(-0.00245364 0.0275956 3.40503)
(0.00360852 0.0276774 3.40521)
(0.00968775 0.0277353 3.40499)
(0.0157613 0.0277881 3.40437)
(0.0217129 0.0277567 3.40318)
(0.0276141 0.0276322 3.40194)
(0.0329896 0.0267279 3.39951)
(0.039017 0.0261292 3.39852)
(-0.0378218 0.0316662 3.39464)
(-0.0318051 0.0315142 3.39607)
(-0.0262992 0.0327123 3.39836)
(-0.0204665 0.0327642 3.40011)
(-0.0145216 0.0330311 3.40163)
(-0.00849527 0.0332195 3.40281)
(-0.0023452 0.0333787 3.40337)
(0.00368006 0.0335116 3.40356)
(0.00967118 0.0335403 3.40319)
(0.0155432 0.033544 3.40234)
(0.0212257 0.0334493 3.40107)
(0.0267393 0.0334042 3.39967)
(0.0318505 0.0322392 3.39762)
(0.0374084 0.0321625 3.39658)
(-0.0390526 0.0379535 3.39318)
(-0.031879 0.0370179 3.39521)
(-0.0256895 0.0387906 3.39749)
(-0.0195184 0.0387022 3.39929)
(-0.0135744 0.039006 3.40049)
(-0.00777195 0.0391025 3.40127)
(-0.00197773 0.0391953 3.40157)
(0.00365022 0.0393747 3.40172)
(0.00926169 0.0395357 3.40161)
(0.0148501 0.0396825 3.40109)
(0.0204642 0.0396309 3.40017)
(0.0262092 0.0398041 3.39884)
(0.0317777 0.0381736 3.39683)
(0.0381524 0.0391322 3.39509)
(-0.0267543 -0.0273734 3.10921)
(-0.0214558 -0.0266638 3.1114)
(-0.0175603 -0.0281081 3.11396)
(-0.0133792 -0.0278346 3.11569)
(-0.00936001 -0.0278009 3.11706)
(-0.00531033 -0.0275869 3.11792)
(-0.00121444 -0.0274542 3.11845)
(0.00291112 -0.0272968 3.11865)
(0.0070139 -0.0272272 3.11845)
(0.0112593 -0.0272447 3.11795)
(0.0154639 -0.0271035 3.11686)
(0.0198457 -0.0272219 3.11539)
(0.0240645 -0.0258904 3.11305)
(0.0296211 -0.0265334 3.11107)
(-0.0261247 -0.0216373 3.11181)
(-0.0215216 -0.0217909 3.11321)
(-0.0180338 -0.0227256 3.11584)
(-0.0139369 -0.0227654 3.11765)
(-0.00984399 -0.0229042 3.11941)
(-0.00557224 -0.0229649 3.1206)
(-0.00122568 -0.0230287 3.12135)
(0.00308432 -0.0229709 3.12161)
(0.00743544 -0.0228204 3.12119)
(0.0118489 -0.0226488 3.12036)
(0.0161385 -0.0223578 3.11886)
(0.020468 -0.0222345 3.11721)
(0.0243246 -0.0213571 3.11478)
(0.029126 -0.0212724 3.11355)
(-0.0276157 -0.0172848 3.11459)
(-0.0225061 -0.0179868 3.11611)
(-0.0187522 -0.018748 3.11908)
(-0.0142892 -0.0188276 3.12073)
(-0.00998676 -0.0188287 3.1224)
(-0.00556118 -0.0187616 3.12338)
(-0.00112776 -0.0186967 3.12395)
(0.00318927 -0.0186334 3.12414)
(0.00759179 -0.0186148 3.12382)
(0.0120807 -0.0186064 3.12316)
(0.0165153 -0.018537 3.12177)
(0.0211246 -0.0185001 3.12032)
(0.0251853 -0.0178329 3.11757)
(0.0304654 -0.0172637 3.11618)
(-0.0274512 -0.0128833 3.11668)
(-0.022579 -0.0136619 3.11824)
(-0.0188069 -0.0140968 3.12103)
(-0.0144499 -0.0143013 3.12271)
(-0.0101769 -0.0143129 3.1244)
(-0.00572531 -0.0143364 3.12548)
(-0.0011834 -0.0143147 3.1261)
(0.00324696 -0.014294 3.12631)
(0.00778338 -0.0142729 3.12592)
(0.0123162 -0.0142194 3.12515)
(0.0167212 -0.0141819 3.12371)
(0.0212008 -0.0140584 3.12223)
(0.0251774 -0.0137509 3.11961)
(0.0301747 -0.0131106 3.11815)
(-0.027655 -0.0086686 3.1182)
(-0.0228801 -0.00937563 3.12018)
(-0.0189061 -0.00965379 3.12291)
(-0.0144925 -0.00990688 3.12463)
(-0.0101514 -0.00990379 3.12624)
(-0.00568282 -0.00993586 3.12728)
(-0.00113886 -0.00990207 3.12785)
(0.00325621 -0.00989531 3.12803)
(0.00777644 -0.00990789 3.12768)
(0.0122946 -0.00988187 3.12693)
(0.0167195 -0.00990185 3.12557)
(0.0212114 -0.00974937 3.12406)
(0.0253074 -0.00963668 3.12152)
(0.0301663 -0.00907266 3.11966)
(-0.0276618 -0.00449438 3.11916)
(-0.0231022 -0.00497106 3.12153)
(-0.0189427 -0.00511668 3.12404)
(-0.0145674 -0.00535066 3.12586)
(-0.0101975 -0.00536332 3.12743)
(-0.00572523 -0.00541853 3.12852)
(-0.00115359 -0.00540397 3.12908)
(0.00326134 -0.0054118 3.12927)
(0.00780536 -0.00542743 3.1289)
(0.0123177 -0.00540162 3.12811)
(0.0167357 -0.0054319 3.12678)
(0.0211634 -0.00529848 3.12519)
(0.025372 -0.00534118 3.12286)
(0.0299897 -0.00501191 3.12069)
(-0.0277442 -0.000336786 3.11977)
(-0.0233407 -0.000569182 3.12246)
(-0.0190076 -0.000667023 3.12483)
(-0.0146242 -0.000809536 3.12676)
(-0.0102024 -0.000845414 3.1283)
(-0.00571962 -0.000894592 3.1294)
(-0.00114258 -0.00089474 3.12995)
(0.00326274 -0.000907766 3.13014)
(0.00779879 -0.000923788 3.12977)
(0.0123011 -0.000914255 3.12898)
(0.016729 -0.000940962 3.12767)
(0.0211315 -0.000895665 3.12601)
(0.0254569 -0.00100617 3.12383)
(0.0298852 -0.000921401 3.12138)
(-0.0278501 0.0038496 3.12006)
(-0.0234717 0.00385175 3.1228)
(-0.0190924 0.0037777 3.12515)
(-0.0146942 0.00377535 3.12711)
(-0.0102477 0.00372035 3.12864)
(-0.00575097 0.00369432 3.12975)
(-0.00116277 0.00368178 3.1303)
(0.00324796 0.00367217 3.13048)
(0.00778223 0.00366716 3.13012)
(0.012277 0.00366559 3.12932)
(0.0166967 0.00366168 3.12803)
(0.0210842 0.00358814 3.12634)
(0.0254418 0.00346918 3.12422)
(0.0298201 0.00332127 3.12173)
(-0.0280567 0.00788892 3.11989)
(-0.023508 0.00807887 3.12245)
(-0.0191938 0.00803254 3.12495)
(-0.0147423 0.00813319 3.12685)
(-0.0102886 0.00806309 3.12842)
(-0.00576838 0.00805283 3.12951)
(-0.00116521 0.00803244 3.13007)
(0.00325864 0.00802956 3.13026)
(0.00779527 0.00803586 3.12989)
(0.0122852 0.00802538 3.12911)
(0.0166718 0.0080285 3.1278)
(0.0210403 0.0078231 3.12619)
(0.0252642 0.00765175 3.124)
(0.0296616 0.00728849 3.12172)
(-0.0282505 0.0119974 3.11942)
(-0.023503 0.0123979 3.12176)
(-0.0192869 0.0124851 3.12444)
(-0.0147835 0.0126426 3.1263)
(-0.0103144 0.0125907 3.12791)
(-0.00577163 0.0125932 3.12898)
(-0.00116162 0.0125784 3.12954)
(0.0032634 0.0125881 3.12972)
(0.00779948 0.0126123 3.12937)
(0.0122923 0.0126197 3.1286)
(0.0166687 0.0126424 3.12726)
(0.0210469 0.0124075 3.12571)
(0.0251384 0.0121873 3.12337)
(0.0296338 0.0116274 3.1213)
(-0.0283344 0.0160743 3.11847)
(-0.0234213 0.0165286 3.12044)
(-0.0193316 0.0168097 3.12322)
(-0.0148147 0.0169474 3.12506)
(-0.0103441 0.0169392 3.12671)
(-0.00578059 0.0169608 3.12781)
(-0.00114929 0.0169717 3.12838)
(0.00329314 0.0169972 3.12856)
(0.00783569 0.0170304 3.12818)
(0.0123174 0.017055 3.12739)
(0.0166543 0.0170768 3.12599)
(0.0209954 0.0168783 3.12448)
(0.0249099 0.0165406 3.12205)
(0.0295252 0.0158852 3.12041)
(-0.0285552 0.0202851 3.11716)
(-0.0233894 0.0206279 3.11904)
(-0.0192982 0.0212432 3.12197)
(-0.014676 0.021282 3.12379)
(-0.0101609 0.0213261 3.12542)
(-0.00561639 0.0213381 3.12644)
(-0.00107051 0.0213674 3.12695)
(0.00325426 0.0214125 3.12711)
(0.00770804 0.0214748 3.12679)
(0.0121576 0.021545 3.12604)
(0.0165247 0.0215668 3.12467)
(0.0209428 0.0214862 3.12318)
(0.0248099 0.0209024 3.12058)
(0.0296311 0.0203063 3.11914)
(-0.0273061 0.0243064 3.11508)
(-0.0226092 0.0242974 3.11695)
(-0.0186491 0.025152 3.11952)
(-0.0143254 0.0251694 3.12147)
(-0.00995286 0.0253689 3.12316)
(-0.00552014 0.0255334 3.12438)
(-0.000999109 0.0256765 3.12499)
(0.00330169 0.0257535 3.12515)
(0.00771766 0.0257469 3.12469)
(0.0120413 0.0257264 3.12376)
(0.0162365 0.0256581 3.12233)
(0.0203457 0.0256552 3.12073)
(0.0240278 0.024901 3.11845)
(0.0284388 0.0246867 3.11711)
(-0.0281585 0.0294158 3.11335)
(-0.0225222 0.0287463 3.11584)
(-0.0180071 0.0300822 3.1183)
(-0.0135716 0.0298948 3.1202)
(-0.00928558 0.0300201 3.12151)
(-0.00507884 0.030021 3.12238)
(-0.000793772 0.0300657 3.12277)
(0.00327132 0.0301677 3.12289)
(0.00745361 0.0303022 3.12265)
(0.0115449 0.030461 3.12198)
(0.0156346 0.0305159 3.1209)
(0.0198219 0.0307664 3.11943)
(0.0239288 0.0295709 3.11731)
(0.0290685 0.0301647 3.11527)
(-0.0170378 -0.0157379 2.83431)
(-0.0131808 -0.0154216 2.83611)
(-0.0104801 -0.01618 2.83804)
(-0.00774723 -0.0158954 2.83941)
(-0.00510194 -0.0157408 2.84054)
(-0.00243353 -0.0155919 2.84131)
(0.000261783 -0.0155276 2.84179)
(0.00295242 -0.0155191 2.84196)
(0.00558014 -0.0156223 2.84179)
(0.00827989 -0.0157826 2.84132)
(0.0109051 -0.0158894 2.84041)
(0.0135743 -0.0161728 2.83922)
(0.0162189 -0.0154881 2.83743)
(0.0199823 -0.0160208 2.83584)
(-0.0166269 -0.0118829 2.83656)
(-0.0132259 -0.0120457 2.83776)
(-0.0108027 -0.0124127 2.83985)
(-0.00798601 -0.0123795 2.84134)
(-0.00525138 -0.0124195 2.84278)
(-0.00246304 -0.0124701 2.84375)
(0.000283078 -0.0125364 2.84439)
(0.00294083 -0.012581 2.84459)
(0.00562038 -0.0125968 2.84426)
(0.00839265 -0.0125889 2.84358)
(0.0111201 -0.0125215 2.84235)
(0.0139305 -0.0125687 2.84095)
(0.0164427 -0.0122241 2.839)
(0.019821 -0.0122442 2.8379)
(-0.017407 -0.0091415 2.83878)
(-0.0136688 -0.00959912 2.84013)
(-0.011147 -0.00991982 2.84249)
(-0.00815484 -0.00990849 2.84392)
(-0.00537175 -0.00982391 2.84532)
(-0.00253169 -0.00974373 2.84616)
(0.000273954 -0.00968018 2.84667)
(0.00296318 -0.00969369 2.84682)
(0.00569597 -0.00978125 2.84655)
(0.00849846 -0.00989169 2.84597)
(0.0112537 -0.00998158 2.8448)
(0.0141916 -0.010077 2.84351)
(0.0167372 -0.00980872 2.84131)
(0.0204172 -0.00947151 2.83999)
(-0.0171077 -0.00647834 2.84047)
(-0.0136011 -0.00679035 2.84196)
(-0.0111078 -0.00694165 2.84424)
(-0.00820332 -0.00700273 2.84572)
(-0.00546373 -0.00695172 2.84715)
(-0.00263134 -0.006947 2.84807)
(0.000214562 -0.00692632 2.84863)
(0.00293696 -0.00695374 2.84879)
(0.00573766 -0.00699945 2.84846)
(0.0085664 -0.00703063 2.84779)
(0.0113056 -0.00709044 2.84656)
(0.0141698 -0.00709944 2.84524)
(0.0166428 -0.00700788 2.8431)
(0.0200817 -0.00677009 2.84165)
(-0.0170227 -0.00386426 2.84173)
(-0.0136866 -0.00405251 2.84361)
(-0.0110549 -0.00418258 2.84586)
(-0.00815951 -0.00427711 2.8474)
(-0.00540341 -0.00422246 2.84878)
(-0.00259257 -0.00421351 2.84968)
(0.000230754 -0.00417497 2.85019)
(0.00290942 -0.00419411 2.85034)
(0.00568188 -0.00424366 2.85002)
(0.00848159 -0.00427823 2.84937)
(0.0112235 -0.00434989 2.84819)
(0.0140754 -0.00431126 2.84684)
(0.0166596 -0.00425264 2.84473)
(0.0199249 -0.00409627 2.84294)
(-0.0169009 -0.00124681 2.84261)
(-0.0137618 -0.00127195 2.84476)
(-0.0109921 -0.00136012 2.84688)
(-0.00816016 -0.00144539 2.84851)
(-0.00539838 -0.00141983 2.84988)
(-0.00260869 -0.00143558 2.85081)
(0.000215983 -0.00141548 2.85133)
(0.00289033 -0.00143287 2.85148)
(0.00566872 -0.00146191 2.85115)
(0.00845482 -0.00146897 2.85046)
(0.0111954 -0.00151176 2.8493)
(0.0139945 -0.00145955 2.84788)
(0.0167012 -0.0014484 2.8459)
(0.0197825 -0.00142056 2.84391)
(-0.0168595 0.00139151 2.84317)
(-0.0138516 0.00143518 2.84554)
(-0.0109551 0.00137676 2.8476)
(-0.00815284 0.001337 2.84931)
(-0.00536823 0.00133384 2.85065)
(-0.0025902 0.00131654 2.85161)
(0.000225594 0.00132399 2.85211)
(0.00288276 0.00131158 2.85226)
(0.00564934 0.00129677 2.85194)
(0.00842255 0.00129916 2.85124)
(0.0111721 0.00128778 2.8501)
(0.0139453 0.00131652 2.84861)
(0.0167715 0.00129629 2.84673)
(0.0197331 0.00128722 2.84456)
(-0.0168737 0.00410203 2.84345)
(-0.0138889 0.00417335 2.84587)
(-0.0109704 0.00416411 2.84792)
(-0.00817472 0.00419607 2.84966)
(-0.0053859 0.00416714 2.85101)
(-0.00260781 0.00415503 2.85197)
(0.000211154 0.00414693 2.85248)
(0.00287104 0.00414117 2.85263)
(0.00563985 0.00414483 2.85231)
(0.00841398 0.00415849 2.85161)
(0.0111655 0.00418307 2.85046)
(0.0139363 0.00416075 2.84897)
(0.0167923 0.00410318 2.84712)
(0.0197325 0.00404461 2.84494)
(-0.0169532 0.00664819 2.84334)
(-0.0138641 0.00670802 2.84566)
(-0.0110269 0.00672307 2.84781)
(-0.0081956 0.00679677 2.84951)
(-0.00541468 0.00673378 2.85089)
(-0.00262119 0.00671775 2.85184)
(0.000208513 0.00669323 2.85235)
(0.00288298 0.00669202 2.8525)
(0.00566468 0.00671025 2.85218)
(0.00845274 0.00673213 2.85149)
(0.011197 0.00678043 2.85034)
(0.0139891 0.00669884 2.84891)
(0.0167683 0.00660899 2.84702)
(0.0197434 0.0066251 2.84498)
(-0.0171024 0.00935471 2.84292)
(-0.0138797 0.00949507 2.8451)
(-0.0111437 0.00957496 2.84738)
(-0.00826051 0.00966528 2.84904)
(-0.00546859 0.00958807 2.85045)
(-0.00264562 0.00956184 2.85138)
(0.000200219 0.00952727 2.85189)
(0.00289269 0.0095296 2.85204)
(0.00569276 0.00956328 2.85172)
(0.00850687 0.00961119 2.85105)
(0.0112609 0.00969088 2.84987)
(0.0140993 0.00959641 2.84849)
(0.0167903 0.00948937 2.84651)
(0.0198792 0.0093663 2.84462)
(-0.0172555 0.0120204 2.84215)
(-0.0138706 0.0122111 2.84407)
(-0.0112496 0.0123529 2.84641)
(-0.00833325 0.0124086 2.84804)
(-0.00553295 0.0123331 2.84948)
(-0.00267912 0.012301 2.85043)
(0.00019601 0.0122708 2.85094)
(0.00291579 0.0122735 2.85109)
(0.00574551 0.0123093 2.85074)
(0.00858179 0.0123757 2.85006)
(0.0113377 0.012471 2.84884)
(0.0141937 0.0124085 2.8475)
(0.0167608 0.0122896 2.84548)
(0.0199838 0.0120645 2.84391)
(-0.017471 0.0147569 2.84109)
(-0.0138997 0.0149877 2.84291)
(-0.0112944 0.015296 2.84534)
(-0.0083138 0.0152685 2.84696)
(-0.00547452 0.0151899 2.84837)
(-0.00262298 0.0151188 2.84925)
(0.00020879 0.0150739 2.84971)
(0.00287069 0.0150743 2.84984)
(0.00566896 0.0151356 2.84955)
(0.00851114 0.0152413 2.84889)
(0.0113193 0.0153547 2.8477)
(0.0142542 0.0153621 2.84637)
(0.016806 0.0151353 2.84424)
(0.0202283 0.014786 2.84286)
(-0.0168108 0.017542 2.83962)
(-0.013616 0.0175397 2.84131)
(-0.0110276 0.0179194 2.84342)
(-0.00820476 0.0178292 2.8451)
(-0.00538842 0.0178505 2.84654)
(-0.00257187 0.0178888 2.84753)
(0.000244512 0.0179306 2.84805)
(0.00286252 0.0179287 2.84817)
(0.00563605 0.0179027 2.84778)
(0.00843068 0.0179111 2.84701)
(0.011206 0.0179409 2.84579)
(0.0140009 0.0180103 2.84441)
(0.0165016 0.0177622 2.84253)
(0.0196504 0.0175774 2.84135)
(-0.0172911 0.0212286 2.83823)
(-0.0135237 0.020787 2.8404)
(-0.0106172 0.0214719 2.84236)
(-0.00789564 0.0211747 2.84391)
(-0.00520368 0.0210557 2.845)
(-0.00253112 0.0209388 2.84575)
(0.000230032 0.0208961 2.84611)
(0.00283196 0.020893 2.84621)
(0.00558094 0.0209662 2.84597)
(0.00827079 0.0210925 2.84536)
(0.0109597 0.0212539 2.84442)
(0.013678 0.0215339 2.84318)
(0.0164826 0.0210119 2.84155)
(0.0201312 0.0212635 2.83989)
(-0.00999202 -0.00717844 2.56684)
(-0.00749138 -0.00723678 2.56792)
(-0.00558102 -0.00724143 2.56886)
(-0.00382427 -0.00699379 2.56963)
(-0.00209545 -0.0067668 2.57027)
(-0.000366783 -0.00668097 2.5707)
(0.00133428 -0.00666822 2.57096)
(0.00299814 -0.00677857 2.57105)
(0.00457837 -0.00696254 2.57097)
(0.00619929 -0.00721528 2.57072)
(0.00774705 -0.00751571 2.57023)
(0.00923138 -0.00788844 2.56954)
(0.0108515 -0.00787777 2.56867)
(0.013051 -0.00817947 2.56782)
(-0.00984993 -0.00497701 2.56825)
(-0.00743889 -0.00501148 2.56874)
(-0.00562085 -0.0049083 2.56991)
(-0.00368802 -0.004804 2.57077)
(-0.00191702 -0.00469516 2.57163)
(-0.000209308 -0.00468753 2.57219)
(0.00137936 -0.00472333 2.57259)
(0.00288608 -0.00483108 2.5727)
(0.00433949 -0.00496897 2.57252)
(0.00590195 -0.00511016 2.57212)
(0.00750052 -0.00527107 2.57139)
(0.00923111 -0.00545814 2.57057)
(0.0109079 -0.00558155 2.56951)
(0.0131073 -0.00577348 2.56909)
(-0.00991877 -0.00329808 2.56942)
(-0.00739999 -0.00336414 2.57011)
(-0.00565517 -0.00335253 2.5715)
(-0.00376027 -0.00323809 2.57232)
(-0.00205742 -0.00307773 2.57316)
(-0.000355197 -0.00298493 2.57364)
(0.00128309 -0.00292776 2.57395)
(0.00285375 -0.00299135 2.57404)
(0.00438244 -0.00313707 2.5739)
(0.00596567 -0.00332503 2.57359)
(0.00751908 -0.00353857 2.57291)
(0.00920932 -0.00375462 2.57218)
(0.0107635 -0.00380044 2.57092)
(0.0129843 -0.00385077 2.57022)
(-0.00953213 -0.00183304 2.57039)
(-0.00721957 -0.00161304 2.57121)
(-0.00551182 -0.0016131 2.57257)
(-0.00368826 -0.0015289 2.57342)
(-0.00203493 -0.00141607 2.57428)
(-0.00037556 -0.00136485 2.57481)
(0.001234 -0.0013361 2.57515)
(0.00277338 -0.00139081 2.57525)
(0.00429746 -0.0014854 2.57508)
(0.00587507 -0.00159544 2.57472)
(0.00741895 -0.00173225 2.574)
(0.00907657 -0.00186854 2.57327)
(0.0106057 -0.00187319 2.57204)
(0.0126694 -0.00208952 2.57122)
(-0.00921658 -0.000317367 2.57113)
(-0.00706246 1.35805e-06 2.57225)
(-0.00532189 -6.47952e-05 2.57359)
(-0.00356425 4.69503e-06 2.57447)
(-0.00195029 9.91894e-05 2.57531)
(-0.000342138 0.000154437 2.57582)
(0.00122626 0.000196356 2.57614)
(0.00272417 0.00016253 2.57623)
(0.00421453 8.95562e-05 2.57607)
(0.00575612 1.20517e-06 2.57572)
(0.00727645 -9.68844e-05 2.57504)
(0.00889793 -0.00017607 2.57429)
(0.010467 -9.88132e-05 2.57307)
(0.0124241 -0.000340806 2.57201)
(-0.00900217 0.00122822 2.57168)
(-0.00696848 0.00157523 2.57298)
(-0.00517488 0.00151405 2.57423)
(-0.00347984 0.00157385 2.57518)
(-0.00188755 0.00163243 2.57601)
(-0.000321041 0.00166357 2.57655)
(0.0012181 0.00169085 2.57687)
(0.00268698 0.00167006 2.57697)
(0.0041603 0.00163168 2.5768)
(0.00568273 0.00158934 2.57643)
(0.00719854 0.00154476 2.57575)
(0.00879586 0.00151698 2.57495)
(0.0104441 0.00160405 2.57382)
(0.0123347 0.00138264 2.57262)
(-0.00885353 0.0028159 2.57205)
(-0.0068951 0.00307179 2.57351)
(-0.00505674 0.00305327 2.5747)
(-0.00340669 0.00310794 2.57571)
(-0.00182657 0.00313827 2.57652)
(-0.000289424 0.00315537 2.57708)
(0.00122752 0.00317225 2.57739)
(0.00267444 0.00316291 2.57749)
(0.00413283 0.00314895 2.57733)
(0.00564313 0.00313865 2.57694)
(0.00716018 0.00313429 2.57628)
(0.00874508 0.00313766 2.57544)
(0.010471 0.00318906 2.57437)
(0.0123305 0.00308642 2.57305)
(-0.00878259 0.00444663 2.57227)
(-0.00684002 0.00457373 2.57377)
(-0.00501237 0.00461247 2.57498)
(-0.0033809 0.00466653 2.576)
(-0.00181534 0.00466257 2.57682)
(-0.000289595 0.00466167 2.57739)
(0.00122114 0.00466036 2.5777)
(0.00266478 0.00465823 2.5778)
(0.00412405 0.00466707 2.57763)
(0.00563775 0.00468809 2.57725)
(0.00715665 0.00472239 2.57657)
(0.00874998 0.00473349 2.57574)
(0.0105055 0.00472265 2.57467)
(0.0123784 0.00476733 2.57334)
(-0.00876308 0.00603649 2.57232)
(-0.00679156 0.00602382 2.57373)
(-0.00502639 0.0061352 2.57501)
(-0.00338336 0.00616977 2.576)
(-0.00182985 0.00613428 2.57683)
(-0.000298171 0.00610522 2.57739)
(0.00121909 0.00608125 2.57771)
(0.00267488 0.00607904 2.57781)
(0.0041521 0.00610384 2.57764)
(0.00568885 0.00616035 2.57726)
(0.00722169 0.0062321 2.57658)
(0.0088492 0.00626818 2.57578)
(0.0105839 0.00620181 2.57466)
(0.0124965 0.0064101 2.57344)
(-0.00884499 0.00770085 2.57213)
(-0.00682082 0.00761416 2.57344)
(-0.00514363 0.00773838 2.57483)
(-0.00346932 0.00775344 2.5758)
(-0.00191175 0.00766711 2.57666)
(-0.000347943 0.00760968 2.5772)
(0.00119763 0.00756065 2.57751)
(0.00268984 0.00755468 2.57761)
(0.0042078 0.00758979 2.57745)
(0.00579251 0.00767099 2.57709)
(0.00735832 0.00777991 2.57638)
(0.00904307 0.00781174 2.57561)
(0.0107367 0.00772412 2.57441)
(0.0127096 0.00797578 2.57332)
(-0.00900805 0.00940263 2.57176)
(-0.00690816 0.00931721 2.5729)
(-0.00528764 0.00941556 2.57433)
(-0.003576 0.00938848 2.57529)
(-0.00199538 0.00925765 2.57618)
(-0.000396012 0.00916998 2.57673)
(0.00117878 0.00909925 2.57705)
(0.00269923 0.00908155 2.57714)
(0.00425597 0.00911502 2.57695)
(0.00588507 0.00921641 2.57657)
(0.00749328 0.00935812 2.57582)
(0.00923582 0.00941496 2.57507)
(0.0108985 0.00937481 2.57384)
(0.0129671 0.0095812 2.57295)
(-0.00916286 0.0111151 2.57116)
(-0.00698133 0.0111373 2.57227)
(-0.00540403 0.0112142 2.57377)
(-0.00366786 0.0111226 2.57475)
(-0.00206412 0.0109386 2.57563)
(-0.000446875 0.0108076 2.57614)
(0.001131 0.0107038 2.57642)
(0.00265592 0.0106726 2.57651)
(0.00423304 0.0107164 2.57636)
(0.00590556 0.0108385 2.57599)
(0.0075751 0.0110153 2.57525)
(0.00938853 0.0111097 2.57447)
(0.0110448 0.0111143 2.57315)
(0.013276 0.0111144 2.57237)
(-0.00914456 0.0130187 2.57059)
(-0.00707883 0.0129615 2.57147)
(-0.00540571 0.0129508 2.57269)
(-0.00366508 0.0127944 2.5737)
(-0.00200556 0.0126234 2.5746)
(-0.0003953 0.0125353 2.57519)
(0.00114075 0.0124647 2.57553)
(0.00259364 0.0124094 2.5756)
(0.00412643 0.0123763 2.57536)
(0.00578722 0.0124286 2.57492)
(0.00751905 0.012576 2.57417)
(0.0093793 0.0126937 2.57335)
(0.011136 0.0128122 2.57223)
(0.0133137 0.0127691 2.57167)
(-0.00920921 0.0154101 2.56981)
(-0.00710399 0.0152322 2.57119)
(-0.00536091 0.0152899 2.57221)
(-0.00384916 0.0149377 2.57312)
(-0.00227156 0.0146352 2.57375)
(-0.000667193 0.0144621 2.57417)
(0.000968514 0.0143458 2.57437)
(0.00256041 0.0142798 2.57445)
(0.004225 0.0142798 2.57435)
(0.00593058 0.0143523 2.57402)
(0.00765198 0.0145611 2.57346)
(0.00938314 0.0148001 2.57272)
(0.0112466 0.0149011 2.57189)
(0.013537 0.0148841 2.57093)
(-0.00683016 -0.00327339 2.31132)
(-0.00515485 -0.00366798 2.31165)
(-0.00375691 -0.00330602 2.31167)
(-0.00235016 -0.00306742 2.31172)
(-0.000946584 -0.00283065 2.31176)
(0.000433345 -0.00278082 2.31173)
(0.00174764 -0.00278936 2.3117)
(0.00300951 -0.00292805 2.31168)
(0.00424592 -0.00312026 2.31171)
(0.00546827 -0.00336805 2.31175)
(0.00664497 -0.00369868 2.31173)
(0.00774421 -0.00407264 2.31169)
(0.0087524 -0.00450736 2.31168)
(0.00994757 -0.00444887 2.31161)
(-0.0070495 -0.00203834 2.31175)
(-0.00511337 -0.00203333 2.31133)
(-0.00349227 -0.0018119 2.31152)
(-0.00196257 -0.00164122 2.31163)
(-0.000590378 -0.001412 2.31186)
(0.000675534 -0.00132602 2.31199)
(0.00182097 -0.00130011 2.31212)
(0.00289408 -0.00141487 2.31214)
(0.00393702 -0.00159493 2.31209)
(0.00500447 -0.00182821 2.31197)
(0.00613302 -0.00212038 2.31176)
(0.0073804 -0.00238429 2.31161)
(0.00874034 -0.00263382 2.31145)
(0.0103002 -0.00280444 2.31193)
(-0.00665252 -0.000990208 2.31187)
(-0.00491804 -0.000646677 2.31156)
(-0.00341726 -0.000524216 2.31202)
(-0.00202696 -0.000331394 2.31209)
(-0.00073515 -0.000131769 2.31229)
(0.00051184 -2.82562e-05 2.31232)
(0.00169875 2.38929e-05 2.31236)
(0.00284138 -5.11262e-05 2.31237)
(0.00395669 -0.000189588 2.31239)
(0.00505911 -0.000394059 2.3124)
(0.0061639 -0.000644365 2.31226)
(0.00729846 -0.000920437 2.31222)
(0.00852293 -0.00104944 2.31186)
(0.00987423 -0.00144037 2.31212)
(-0.00626108 0.000106289 2.31198)
(-0.00468905 0.000672699 2.3118)
(-0.00320329 0.000687225 2.31219)
(-0.00186852 0.00086946 2.31222)
(-0.000622482 0.0010268 2.31244)
(0.000563174 0.00112585 2.31251)
(0.00168156 0.00117677 2.31258)
(0.00275494 0.00112452 2.31261)
(0.00381275 0.00102317 2.31261)
(0.00487891 0.000865291 2.31258)
(0.00597005 0.000692846 2.31244)
(0.00708812 0.000478771 2.31244)
(0.0083152 0.000481308 2.31216)
(0.00957992 -2.20941e-05 2.31231)
(-0.00587181 0.00128374 2.31208)
(-0.00436045 0.00187023 2.31213)
(-0.00293846 0.0018231 2.31248)
(-0.00169046 0.00199922 2.31253)
(-0.000515999 0.00212084 2.31272)
(0.000603406 0.00221091 2.31278)
(0.00167262 0.00226062 2.31284)
(0.00270548 0.00222944 2.31287)
(0.00372685 0.00216046 2.31287)
(0.00474889 0.00204265 2.31286)
(0.00579521 0.00193231 2.31275)
(0.00687024 0.00177402 2.31275)
(0.00806118 0.00186632 2.31248)
(0.00932864 0.00139701 2.31244)
(-0.00565671 0.002491 2.31215)
(-0.00415061 0.00300139 2.31236)
(-0.00275358 0.00295235 2.31261)
(-0.00154562 0.00309624 2.3127)
(-0.000412675 0.00317702 2.31288)
(0.000657186 0.00324259 2.31296)
(0.00167826 0.00328013 2.31302)
(0.00266651 0.00326312 2.31305)
(0.00365137 0.00322546 2.31306)
(0.00464658 0.00315673 2.31304)
(0.00567628 0.00310593 2.31293)
(0.00675409 0.00301736 2.3129)
(0.00796144 0.00313579 2.31271)
(0.00928188 0.00277909 2.31253)
(-0.00548253 0.00367169 2.31223)
(-0.00397997 0.00403394 2.31259)
(-0.00261137 0.00404149 2.31276)
(-0.00143444 0.00414253 2.31289)
(-0.000335421 0.00419438 2.31305)
(0.000699697 0.00423125 2.31314)
(0.00169062 0.00425479 2.3132)
(0.00265346 0.00424757 2.31323)
(0.00361886 0.00423468 2.31324)
(0.00460003 0.00421187 2.31321)
(0.00561997 0.00420242 2.31311)
(0.00670238 0.00417743 2.31305)
(0.00793257 0.0042589 2.31292)
(0.0093011 0.00408234 2.31263)
(-0.00536017 0.00486517 2.31237)
(-0.00387408 0.00504393 2.31274)
(-0.00253743 0.00512453 2.31291)
(-0.00138181 0.00517547 2.31305)
(-0.000305565 0.00519774 2.31322)
(0.000711446 0.00519982 2.31331)