/*--------------------------------*- C++ -*----------------------------------*\
| =========                 |                                                 |
| \\      /  F ield         | OpenFOAM: The Open Source CFD Toolbox           |
|  \\    /   O peration     | Version:  v2106                                 |
|   \\  /    A nd           | Website:  www.openfoam.com                      |
|    \\/     M anipulation  |                                                 |
\*---------------------------------------------------------------------------*/
FoamFile
{
    version     2.0;
    format      ascii;
    arch        "LSB;label=32;scalar=64";
    class       volScalarField;
    location    "0.000161";
    object      nut;
}
// * * * * * * * * * * * * * * * * * * * * * * * * * * * * * * * * * * * * * //

dimensions      [0 2 -1 0 0 0 0];

internalField   nonuniform List<scalar> 
17924
(
3.64996e-17
3.64986e-17
3.64975e-17
3.64966e-17
3.64712e-17
3.64715e-17
3.64716e-17
3.6472e-17
3.64723e-17
3.64726e-17
3.64729e-17
3.64681e-17
3.64686e-17
3.64688e-17
3.64693e-17
3.64696e-17
3.64699e-17
3.64704e-17
3.64655e-17
3.64659e-17
3.64661e-17
3.64666e-17
3.64669e-17
3.64673e-17
3.64678e-17
3.64627e-17
3.64632e-17
3.64634e-17
3.64639e-17
3.64643e-17
3.64647e-17
3.64652e-17
3.64599e-17
3.64605e-17
3.64608e-17
3.64613e-17
3.64617e-17
3.64622e-17
3.64627e-17
3.64573e-17
3.64579e-17
3.64582e-17
3.64587e-17
3.64591e-17
3.64597e-17
3.64602e-17
3.64548e-17
3.64553e-17
3.64557e-17
3.64562e-17
3.64566e-17
3.64572e-17
3.64578e-17
3.64524e-17
3.64528e-17
3.64532e-17
3.64537e-17
3.64542e-17
3.64548e-17
3.64554e-17
3.64501e-17
3.64504e-17
3.64509e-17
3.64514e-17
3.64519e-17
3.64525e-17
3.64531e-17
3.64479e-17
3.64481e-17
3.64486e-17
3.64491e-17
3.64497e-17
3.64503e-17
3.64509e-17
3.64459e-17
3.6446e-17
3.64465e-17
3.6447e-17
3.64476e-17
3.64482e-17
3.64489e-17
3.64439e-17
3.64439e-17
3.64445e-17
3.6445e-17
3.64456e-17
3.64462e-17
3.64469e-17
3.64419e-17
3.64421e-17
3.64427e-17
3.64432e-17
3.64438e-17
3.64444e-17
3.64451e-17
3.64398e-17
3.64401e-17
3.64407e-17
3.64413e-17
3.6442e-17
3.64427e-17
3.64434e-17
3.64406e-17
3.64421e-17
3.64434e-17
3.64447e-17
3.64459e-17
3.64469e-17
3.64479e-17
3.64488e-17
3.64497e-17
3.64506e-17
3.64516e-17
3.64524e-17
3.64534e-17
3.64542e-17
3.64396e-17
3.64411e-17
3.64424e-17
3.64437e-17
3.64449e-17
3.6446e-17
3.6447e-17
3.6448e-17
3.6449e-17
3.64499e-17
3.64509e-17
3.64519e-17
3.64529e-17
3.64537e-17
3.64386e-17
3.64402e-17
3.64414e-17
3.64427e-17
3.64439e-17
3.6445e-17
3.64461e-17
3.64471e-17
3.64481e-17
3.64491e-17
3.64502e-17
3.64511e-17
3.64523e-17
3.64531e-17
3.64376e-17
3.64392e-17
3.64404e-17
3.64417e-17
3.64428e-17
3.6444e-17
3.6445e-17
3.64461e-17
3.64472e-17
3.64482e-17
3.64492e-17
3.64503e-17
3.64514e-17
3.64523e-17
3.64366e-17
3.6438e-17
3.64392e-17
3.64405e-17
3.64417e-17
3.64428e-17
3.64439e-17
3.6445e-17
3.64461e-17
3.64472e-17
3.64482e-17
3.64493e-17
3.64504e-17
3.64514e-17
3.64354e-17
3.64368e-17
3.64381e-17
3.64393e-17
3.64405e-17
3.64417e-17
3.64428e-17
3.64439e-17
3.6445e-17
3.64461e-17
3.64471e-17
3.64482e-17
3.64493e-17
3.64504e-17
3.64343e-17
3.64357e-17
3.64369e-17
3.64382e-17
3.64393e-17
3.64405e-17
3.64416e-17
3.64427e-17
3.64438e-17
3.64449e-17
3.6446e-17
3.64471e-17
3.64481e-17
3.64493e-17
3.64332e-17
3.64345e-17
3.64358e-17
3.6437e-17
3.64381e-17
3.64393e-17
3.64404e-17
3.64415e-17
3.64426e-17
3.64437e-17
3.64447e-17
3.64459e-17
3.64469e-17
3.64482e-17
3.64321e-17
3.64334e-17
3.64346e-17
3.64358e-17
3.6437e-17
3.64381e-17
3.64392e-17
3.64403e-17
3.64414e-17
3.64424e-17
3.64435e-17
3.64447e-17
3.64457e-17
3.6447e-17
3.64311e-17
3.64323e-17
3.64335e-17
3.64347e-17
3.64358e-17
3.64369e-17
3.6438e-17
3.64391e-17
3.64402e-17
3.64412e-17
3.64423e-17
3.64435e-17
3.64445e-17
3.64458e-17
3.64302e-17
3.64313e-17
3.64325e-17
3.64336e-17
3.64348e-17
3.64359e-17
3.64369e-17
3.6438e-17
3.6439e-17
3.64401e-17
3.64412e-17
3.64423e-17
3.64434e-17
3.64447e-17
3.64292e-17
3.64302e-17
3.64315e-17
3.64326e-17
3.64337e-17
3.64348e-17
3.64359e-17
3.64369e-17
3.6438e-17
3.6439e-17
3.64401e-17
3.64412e-17
3.64422e-17
3.64435e-17
3.64281e-17
3.64293e-17
3.64305e-17
3.64316e-17
3.64327e-17
3.64338e-17
3.64349e-17
3.64359e-17
3.6437e-17
3.6438e-17
3.6439e-17
3.64401e-17
3.64412e-17
3.64423e-17
3.64272e-17
3.64283e-17
3.64295e-17
3.64307e-17
3.64318e-17
3.64329e-17
3.64339e-17
3.6435e-17
3.6436e-17
3.6437e-17
3.64379e-17
3.64389e-17
3.64398e-17
3.64408e-17
3.64065e-17
3.64085e-17
3.64102e-17
3.64119e-17
3.64135e-17
3.6415e-17
3.64164e-17
3.64177e-17
3.64189e-17
3.642e-17
3.6421e-17
3.6422e-17
3.64229e-17
3.64238e-17
3.64069e-17
3.64088e-17
3.64106e-17
3.64124e-17
3.64141e-17
3.64156e-17
3.64171e-17
3.64184e-17
3.64197e-17
3.64208e-17
3.64219e-17
3.64229e-17
3.64239e-17
3.64248e-17
3.64076e-17
3.64095e-17
3.64113e-17
3.64131e-17
3.64147e-17
3.64163e-17
3.64177e-17
3.64191e-17
3.64203e-17
3.64215e-17
3.64227e-17
3.64237e-17
3.64247e-17
3.64256e-17
3.64081e-17
3.641e-17
3.64118e-17
3.64135e-17
3.64152e-17
3.64167e-17
3.64182e-17
3.64196e-17
3.64209e-17
3.64221e-17
3.64232e-17
3.64243e-17
3.64254e-17
3.64264e-17
3.64085e-17
3.64104e-17
3.64122e-17
3.64139e-17
3.64155e-17
3.64171e-17
3.64186e-17
3.64199e-17
3.64212e-17
3.64225e-17
3.64236e-17
3.64247e-17
3.64258e-17
3.64268e-17
3.64088e-17
3.64106e-17
3.64124e-17
3.64141e-17
3.64158e-17
3.64173e-17
3.64188e-17
3.64202e-17
3.64215e-17
3.64227e-17
3.64239e-17
3.6425e-17
3.64261e-17
3.64272e-17
3.6409e-17
3.64109e-17
3.64126e-17
3.64143e-17
3.64159e-17
3.64175e-17
3.64189e-17
3.64203e-17
3.64216e-17
3.64228e-17
3.6424e-17
3.64252e-17
3.64263e-17
3.64274e-17
3.64092e-17
3.6411e-17
3.64127e-17
3.64144e-17
3.6416e-17
3.64175e-17
3.6419e-17
3.64203e-17
3.64216e-17
3.64229e-17
3.64241e-17
3.64253e-17
3.64263e-17
3.64275e-17
3.64093e-17
3.64111e-17
3.64128e-17
3.64145e-17
3.6416e-17
3.64176e-17
3.6419e-17
3.64203e-17
3.64216e-17
3.64229e-17
3.64241e-17
3.64252e-17
3.64263e-17
3.64275e-17
3.64095e-17
3.64112e-17
3.64129e-17
3.64145e-17
3.6416e-17
3.64175e-17
3.64189e-17
3.64203e-17
3.64216e-17
3.64228e-17
3.6424e-17
3.64252e-17
3.64263e-17
3.64275e-17
3.64096e-17
3.64113e-17
3.64129e-17
3.64145e-17
3.6416e-17
3.64175e-17
3.64189e-17
3.64202e-17
3.64215e-17
3.64227e-17
3.64239e-17
3.64251e-17
3.64262e-17
3.64274e-17
3.64096e-17
3.64113e-17
3.64129e-17
3.64145e-17
3.6416e-17
3.64174e-17
3.64188e-17
3.64201e-17
3.64214e-17
3.64225e-17
3.64237e-17
3.64249e-17
3.6426e-17
3.64272e-17
3.64096e-17
3.64113e-17
3.64129e-17
3.64145e-17
3.64159e-17
3.64173e-17
3.64187e-17
3.64199e-17
3.64211e-17
3.64223e-17
3.64234e-17
3.64246e-17
3.64257e-17
3.64268e-17
3.64098e-17
3.64114e-17
3.6413e-17
3.64145e-17
3.64159e-17
3.64172e-17
3.64185e-17
3.64197e-17
3.64209e-17
3.64221e-17
3.64231e-17
3.64242e-17
3.64251e-17
3.64261e-17
3.63683e-17
3.637e-17
3.63717e-17
3.63733e-17
3.63749e-17
3.63764e-17
3.63778e-17
3.63791e-17
3.63804e-17
3.63815e-17
3.63826e-17
3.63835e-17
3.63845e-17
3.63854e-17
3.63697e-17
3.63713e-17
3.63731e-17
3.63748e-17
3.63765e-17
3.6378e-17
3.63795e-17
3.63809e-17
3.63822e-17
3.63834e-17
3.63845e-17
3.63854e-17
3.63864e-17
3.63874e-17
3.63713e-17
3.6373e-17
3.63748e-17
3.63765e-17
3.63782e-17
3.63797e-17
3.63812e-17
3.63826e-17
3.63839e-17
3.63851e-17
3.63862e-17
3.63872e-17
3.63882e-17
3.63891e-17
3.63727e-17
3.63745e-17
3.63763e-17
3.6378e-17
3.63797e-17
3.63812e-17
3.63828e-17
3.63842e-17
3.63855e-17
3.63867e-17
3.63878e-17
3.63889e-17
3.63899e-17
3.63908e-17
3.63742e-17
3.63759e-17
3.63778e-17
3.63795e-17
3.63812e-17
3.63827e-17
3.63842e-17
3.63856e-17
3.63869e-17
3.63882e-17
3.63893e-17
3.63904e-17
3.63914e-17
3.63923e-17
3.63755e-17
3.63773e-17
3.63791e-17
3.63808e-17
3.63825e-17
3.63841e-17
3.63856e-17
3.6387e-17
3.63883e-17
3.63896e-17
3.63907e-17
3.63918e-17
3.63928e-17
3.63938e-17
3.63768e-17
3.63786e-17
3.63804e-17
3.63821e-17
3.63838e-17
3.63854e-17
3.63869e-17
3.63883e-17
3.63896e-17
3.63908e-17
3.6392e-17
3.63931e-17
3.63941e-17
3.63951e-17
3.6378e-17
3.63798e-17
3.63816e-17
3.63833e-17
3.6385e-17
3.63866e-17
3.63881e-17
3.63895e-17
3.63908e-17
3.6392e-17
3.63932e-17
3.63943e-17
3.63953e-17
3.63963e-17
3.63792e-17
3.6381e-17
3.63828e-17
3.63845e-17
3.63861e-17
3.63877e-17
3.63892e-17
3.63906e-17
3.63919e-17
3.63931e-17
3.63943e-17
3.63954e-17
3.63964e-17
3.63974e-17
3.63803e-17
3.63821e-17
3.63838e-17
3.63856e-17
3.63872e-17
3.63888e-17
3.63902e-17
3.63916e-17
3.63929e-17
3.63941e-17
3.63953e-17
3.63964e-17
3.63974e-17
3.63985e-17
3.63814e-17
3.63832e-17
3.63849e-17
3.63866e-17
3.63882e-17
3.63897e-17
3.63912e-17
3.63925e-17
3.63938e-17
3.6395e-17
3.63962e-17
3.63973e-17
3.63983e-17
3.63994e-17
3.63824e-17
3.63841e-17
3.63858e-17
3.63875e-17
3.63891e-17
3.63906e-17
3.6392e-17
3.63934e-17
3.63946e-17
3.63958e-17
3.6397e-17
3.63981e-17
3.63991e-17
3.64001e-17
3.63834e-17
3.63851e-17
3.63868e-17
3.63884e-17
3.63899e-17
3.63914e-17
3.63928e-17
3.63941e-17
3.63953e-17
3.63965e-17
3.63976e-17
3.63987e-17
3.63997e-17
3.64007e-17
3.63842e-17
3.6386e-17
3.63876e-17
3.63892e-17
3.63906e-17
3.63921e-17
3.63934e-17
3.63947e-17
3.63959e-17
3.6397e-17
3.63981e-17
3.63991e-17
3.64001e-17
3.6401e-17
3.63288e-17
3.63298e-17
3.6331e-17
3.63322e-17
3.63334e-17
3.63345e-17
3.63356e-17
3.63367e-17
3.63377e-17
3.63386e-17
3.63396e-17
3.63404e-17
3.63412e-17
3.6342e-17
3.63303e-17
3.63315e-17
3.63327e-17
3.6334e-17
3.63352e-17
3.63364e-17
3.63375e-17
3.63386e-17
3.63397e-17
3.63407e-17
3.63416e-17
3.63425e-17
3.63433e-17
3.63442e-17
3.63321e-17
3.63333e-17
3.63346e-17
3.63359e-17
3.63371e-17
3.63383e-17
3.63395e-17
3.63406e-17
3.63416e-17
3.63426e-17
3.63436e-17
3.63444e-17
3.63453e-17
3.63461e-17
3.63339e-17
3.63351e-17
3.63365e-17
3.63377e-17
3.6339e-17
3.63402e-17
3.63414e-17
3.63425e-17
3.63436e-17
3.63446e-17
3.63455e-17
3.63464e-17
3.63473e-17
3.63481e-17
3.63357e-17
3.6337e-17
3.63383e-17
3.63396e-17
3.63409e-17
3.63421e-17
3.63433e-17
3.63444e-17
3.63455e-17
3.63465e-17
3.63475e-17
3.63484e-17
3.63492e-17
3.635e-17
3.63374e-17
3.63388e-17
3.63402e-17
3.63415e-17
3.63427e-17
3.6344e-17
3.63452e-17
3.63463e-17
3.63474e-17
3.63484e-17
3.63494e-17
3.63503e-17
3.63511e-17
3.63519e-17
3.63392e-17
3.63406e-17
3.6342e-17
3.63433e-17
3.63446e-17
3.63458e-17
3.6347e-17
3.63481e-17
3.63492e-17
3.63503e-17
3.63512e-17
3.63521e-17
3.6353e-17
3.63537e-17
3.6341e-17
3.63424e-17
3.63438e-17
3.63451e-17
3.63464e-17
3.63476e-17
3.63488e-17
3.635e-17
3.63511e-17
3.63521e-17
3.63531e-17
3.6354e-17
3.63548e-17
3.63555e-17
3.63427e-17
3.63441e-17
3.63455e-17
3.63469e-17
3.63481e-17
3.63494e-17
3.63506e-17
3.63517e-17
3.63528e-17
3.63538e-17
3.63548e-17
3.63557e-17
3.63565e-17
3.63573e-17
3.63444e-17
3.63458e-17
3.63472e-17
3.63486e-17
3.63498e-17
3.63511e-17
3.63523e-17
3.63534e-17
3.63545e-17
3.63555e-17
3.63565e-17
3.63573e-17
3.63582e-17
3.63589e-17
3.6346e-17
3.63474e-17
3.63488e-17
3.63502e-17
3.63514e-17
3.63527e-17
3.63539e-17
3.6355e-17
3.63561e-17
3.63571e-17
3.6358e-17
3.63589e-17
3.63597e-17
3.63605e-17
3.63476e-17
3.6349e-17
3.63504e-17
3.63517e-17
3.63529e-17
3.63542e-17
3.63553e-17
3.63564e-17
3.63575e-17
3.63585e-17
3.63594e-17
3.63603e-17
3.63611e-17
3.63619e-17
3.63491e-17
3.63505e-17
3.63518e-17
3.63531e-17
3.63543e-17
3.63555e-17
3.63567e-17
3.63578e-17
3.63588e-17
3.63598e-17
3.63607e-17
3.63616e-17
3.63624e-17
3.63633e-17
3.63506e-17
3.6352e-17
3.63532e-17
3.63545e-17
3.63557e-17
3.63568e-17
3.63579e-17
3.6359e-17
3.636e-17
3.63609e-17
3.63618e-17
3.63627e-17
3.63635e-17
3.63644e-17
3.6291e-17
3.62915e-17
3.62921e-17
3.62928e-17
3.62934e-17
3.62941e-17
3.62947e-17
3.62953e-17
3.6296e-17
3.62966e-17
3.62972e-17
3.62978e-17
3.62983e-17
3.62989e-17
3.62924e-17
3.62929e-17
3.62936e-17
3.62942e-17
3.62949e-17
3.62956e-17
3.62962e-17
3.62969e-17
3.62976e-17
3.62982e-17
3.62988e-17
3.62994e-17
3.62999e-17
3.63006e-17
3.62939e-17
3.62944e-17
3.62952e-17
3.62958e-17
3.62965e-17
3.62972e-17
3.62978e-17
3.62985e-17
3.62991e-17
3.62998e-17
3.63004e-17
3.6301e-17
3.63015e-17
3.63021e-17
3.62954e-17
3.6296e-17
3.62967e-17
3.62974e-17
3.62981e-17
3.62988e-17
3.62995e-17
3.63001e-17
3.63008e-17
3.63014e-17
3.6302e-17
3.63026e-17
3.63032e-17
3.63037e-17
3.6297e-17
3.62976e-17
3.62984e-17
3.62991e-17
3.62998e-17
3.63004e-17
3.63011e-17
3.63018e-17
3.63024e-17
3.63031e-17
3.63037e-17
3.63043e-17
3.63048e-17
3.63054e-17
3.62986e-17
3.62993e-17
3.63e-17
3.63007e-17
3.63015e-17
3.63021e-17
3.63028e-17
3.63035e-17
3.63042e-17
3.63048e-17
3.63054e-17
3.6306e-17
3.63066e-17
3.63071e-17
3.63003e-17
3.6301e-17
3.63017e-17
3.63025e-17
3.63032e-17
3.63039e-17
3.63046e-17
3.63052e-17
3.63059e-17
3.63065e-17
3.63072e-17
3.63077e-17
3.63083e-17
3.63088e-17
3.6302e-17
3.63027e-17
3.63034e-17
3.63042e-17
3.63049e-17
3.63056e-17
3.63063e-17
3.6307e-17
3.63076e-17
3.63083e-17
3.63089e-17
3.63095e-17
3.631e-17
3.63105e-17
3.63036e-17
3.63044e-17
3.63051e-17
3.63059e-17
3.63066e-17
3.63073e-17
3.6308e-17
3.63087e-17
3.63094e-17
3.631e-17
3.63106e-17
3.63112e-17
3.63117e-17
3.63121e-17
3.63053e-17
3.63061e-17
3.63068e-17
3.63075e-17
3.63083e-17
3.6309e-17
3.63097e-17
3.63104e-17
3.6311e-17
3.63117e-17
3.63123e-17
3.63128e-17
3.63134e-17
3.63138e-17
3.63069e-17
3.63077e-17
3.63084e-17
3.63092e-17
3.63099e-17
3.63106e-17
3.63113e-17
3.6312e-17
3.63126e-17
3.63133e-17
3.63139e-17
3.63144e-17
3.6315e-17
3.63154e-17
3.63085e-17
3.63093e-17
3.631e-17
3.63107e-17
3.63114e-17
3.63122e-17
3.63129e-17
3.63135e-17
3.63142e-17
3.63148e-17
3.63154e-17
3.6316e-17
3.63165e-17
3.6317e-17
3.631e-17
3.63108e-17
3.63115e-17
3.63122e-17
3.63129e-17
3.63136e-17
3.63143e-17
3.6315e-17
3.63157e-17
3.63163e-17
3.63169e-17
3.63174e-17
3.6318e-17
3.63185e-17
3.63116e-17
3.63123e-17
3.6313e-17
3.63137e-17
3.63144e-17
3.63151e-17
3.63158e-17
3.63164e-17
3.6317e-17
3.63176e-17
3.63182e-17
3.63188e-17
3.63193e-17
3.63199e-17
3.62564e-17
3.62565e-17
3.62567e-17
3.62569e-17
3.62572e-17
3.62574e-17
3.62577e-17
3.62579e-17
3.62582e-17
3.62584e-17
3.62586e-17
3.62589e-17
3.62591e-17
3.62594e-17
3.62575e-17
3.62575e-17
3.62577e-17
3.62579e-17
3.62582e-17
3.62584e-17
3.62586e-17
3.62589e-17
3.62592e-17
3.62594e-17
3.62596e-17
3.62599e-17
3.62601e-17
3.62604e-17
3.62585e-17
3.62586e-17
3.62588e-17
3.6259e-17
3.62592e-17
3.62594e-17
3.62597e-17
3.62599e-17
3.62602e-17
3.62604e-17
3.62606e-17
3.62609e-17
3.62611e-17
3.62614e-17
3.62596e-17
3.62597e-17
3.62599e-17
3.62601e-17
3.62603e-17
3.62605e-17
3.62608e-17
3.6261e-17
3.62613e-17
3.62615e-17
3.62617e-17
3.62619e-17
3.62621e-17
3.62624e-17
3.62607e-17
3.62608e-17
3.6261e-17
3.62612e-17
3.62614e-17
3.62617e-17
3.62619e-17
3.62621e-17
3.62624e-17
3.62626e-17
3.62628e-17
3.6263e-17
3.62632e-17
3.62635e-17
3.62619e-17
3.6262e-17
3.62622e-17
3.62624e-17
3.62626e-17
3.62628e-17
3.62631e-17
3.62633e-17
3.62635e-17
3.62638e-17
3.6264e-17
3.62642e-17
3.62644e-17
3.62646e-17
3.6263e-17
3.62632e-17
3.62634e-17
3.62636e-17
3.62638e-17
3.6264e-17
3.62642e-17
3.62645e-17
3.62647e-17
3.62649e-17
3.62651e-17
3.62653e-17
3.62655e-17
3.62657e-17
3.62642e-17
3.62644e-17
3.62646e-17
3.62648e-17
3.6265e-17
3.62652e-17
3.62654e-17
3.62657e-17
3.62659e-17
3.62661e-17
3.62663e-17
3.62665e-17
3.62667e-17
3.62669e-17
3.62653e-17
3.62656e-17
3.62658e-17
3.6266e-17
3.62662e-17
3.62664e-17
3.62666e-17
3.62669e-17
3.62671e-17
3.62673e-17
3.62675e-17
3.62677e-17
3.62679e-17
3.6268e-17
3.62665e-17
3.62667e-17
3.62669e-17
3.62672e-17
3.62674e-17
3.62676e-17
3.62678e-17
3.62681e-17
3.62683e-17
3.62685e-17
3.62687e-17
3.62689e-17
3.62691e-17
3.62692e-17
3.62676e-17
3.62679e-17
3.62681e-17
3.62683e-17
3.62686e-17
3.62688e-17
3.6269e-17
3.62692e-17
3.62695e-17
3.62697e-17
3.62699e-17
3.62701e-17
3.62703e-17
3.62703e-17
3.62688e-17
3.62691e-17
3.62693e-17
3.62695e-17
3.62697e-17
3.62699e-17
3.62702e-17
3.62704e-17
3.62706e-17
3.62708e-17
3.62711e-17
3.62713e-17
3.62714e-17
3.62715e-17
3.62699e-17
3.62702e-17
3.62704e-17
3.62706e-17
3.62708e-17
3.62711e-17
3.62713e-17
3.62715e-17
3.62718e-17
3.6272e-17
3.62722e-17
3.62724e-17
3.62726e-17
3.62727e-17
3.62711e-17
3.62713e-17
3.62715e-17
3.62717e-17
3.62719e-17
3.62722e-17
3.62724e-17
3.62727e-17
3.62729e-17
3.62731e-17
3.62733e-17
3.62735e-17
3.62737e-17
3.62739e-17
3.62242e-17
3.62241e-17
3.62241e-17
3.62241e-17
3.62241e-17
3.6224e-17
3.6224e-17
3.6224e-17
3.6224e-17
3.62239e-17
3.62238e-17
3.62238e-17
3.62237e-17
3.62237e-17
3.62248e-17
3.62248e-17
3.62247e-17
3.62247e-17
3.62246e-17
3.62246e-17
3.62246e-17
3.62245e-17
3.62245e-17
3.62244e-17
3.62244e-17
3.62243e-17
3.62242e-17
3.62242e-17
3.62255e-17
3.62254e-17
3.62253e-17
3.62253e-17
3.62252e-17
3.62252e-17
3.62252e-17
3.62251e-17
3.62251e-17
3.6225e-17
3.62249e-17
3.62248e-17
3.62248e-17
3.62248e-17
3.62261e-17
3.6226e-17
3.6226e-17
3.62259e-17
3.62259e-17
3.62258e-17
3.62257e-17
3.62257e-17
3.62256e-17
3.62256e-17
3.62255e-17
3.62254e-17
3.62253e-17
3.62253e-17
3.62267e-17
3.62266e-17
3.62266e-17
3.62265e-17
3.62265e-17
3.62264e-17
3.62263e-17
3.62263e-17
3.62262e-17
3.62261e-17
3.62261e-17
3.6226e-17
3.62259e-17
3.62258e-17
3.62274e-17
3.62273e-17
3.62272e-17
3.62271e-17
3.62271e-17
3.6227e-17
3.6227e-17
3.62269e-17
3.62268e-17
3.62267e-17
3.62266e-17
3.62265e-17
3.62264e-17
3.62264e-17
3.6228e-17
3.62279e-17
3.62278e-17
3.62278e-17
3.62277e-17
3.62276e-17
3.62276e-17
3.62275e-17
3.62274e-17
3.62273e-17
3.62272e-17
3.62271e-17
3.6227e-17
3.62269e-17
3.62286e-17
3.62285e-17
3.62285e-17
3.62284e-17
3.62283e-17
3.62282e-17
3.62282e-17
3.62281e-17
3.6228e-17
3.62279e-17
3.62278e-17
3.62277e-17
3.62276e-17
3.62275e-17
3.62292e-17
3.62291e-17
3.62291e-17
3.6229e-17
3.62289e-17
3.62288e-17
3.62287e-17
3.62287e-17
3.62286e-17
3.62285e-17
3.62284e-17
3.62283e-17
3.62282e-17
3.6228e-17
3.62298e-17
3.62297e-17
3.62296e-17
3.62296e-17
3.62295e-17
3.62294e-17
3.62293e-17
3.62293e-17
3.62292e-17
3.62291e-17
3.6229e-17
3.62289e-17
3.62288e-17
3.62286e-17
3.62303e-17
3.62303e-17
3.62302e-17
3.62301e-17
3.62301e-17
3.623e-17
3.62299e-17
3.62299e-17
3.62298e-17
3.62297e-17
3.62296e-17
3.62295e-17
3.62293e-17
3.62292e-17
3.62309e-17
3.62309e-17
3.62308e-17
3.62307e-17
3.62307e-17
3.62306e-17
3.62305e-17
3.62305e-17
3.62304e-17
3.62303e-17
3.62302e-17
3.623e-17
3.62299e-17
3.62298e-17
3.62314e-17
3.62314e-17
3.62313e-17
3.62313e-17
3.62312e-17
3.62312e-17
3.62311e-17
3.62311e-17
3.6231e-17
3.62309e-17
3.62308e-17
3.62307e-17
3.62306e-17
3.62304e-17
3.62319e-17
3.62319e-17
3.62318e-17
3.62318e-17
3.62318e-17
3.62317e-17
3.62317e-17
3.62316e-17
3.62316e-17
3.62315e-17
3.62314e-17
3.62313e-17
3.62312e-17
3.6231e-17
3.61928e-17
3.61927e-17
3.61926e-17
3.61925e-17
3.61924e-17
3.61922e-17
3.61921e-17
3.61919e-17
3.61917e-17
3.61915e-17
3.61913e-17
3.6191e-17
3.61908e-17
3.61906e-17
3.61931e-17
3.6193e-17
3.61929e-17
3.61928e-17
3.61927e-17
3.61925e-17
3.61924e-17
3.61922e-17
3.6192e-17
3.61917e-17
3.61915e-17
3.61913e-17
3.6191e-17
3.61908e-17
3.61934e-17
3.61933e-17
3.61932e-17
3.61931e-17
3.6193e-17
3.61928e-17
3.61926e-17
3.61925e-17
3.61922e-17
3.6192e-17
3.61918e-17
3.61915e-17
3.61912e-17
3.6191e-17
3.61938e-17
3.61936e-17
3.61935e-17
3.61934e-17
3.61932e-17
3.61931e-17
3.61929e-17
3.61927e-17
3.61925e-17
3.61923e-17
3.6192e-17
3.61917e-17
3.61915e-17
3.61912e-17
3.6194e-17
3.61939e-17
3.61938e-17
3.61936e-17
3.61935e-17
3.61933e-17
3.61931e-17
3.61929e-17
3.61927e-17
3.61925e-17
3.61922e-17
3.6192e-17
3.61917e-17
3.61914e-17
3.61943e-17
3.61941e-17
3.6194e-17
3.61939e-17
3.61937e-17
3.61935e-17
3.61934e-17
3.61931e-17
3.61929e-17
3.61927e-17
3.61924e-17
3.61922e-17
3.61919e-17
3.61916e-17
3.61945e-17
3.61943e-17
3.61942e-17
3.61941e-17
3.61939e-17
3.61937e-17
3.61935e-17
3.61933e-17
3.61931e-17
3.61929e-17
3.61926e-17
3.61923e-17
3.6192e-17
3.61917e-17
3.61946e-17
3.61945e-17
3.61944e-17
3.61942e-17
3.61941e-17
3.61939e-17
3.61937e-17
3.61935e-17
3.61933e-17
3.6193e-17
3.61928e-17
3.61925e-17
3.61922e-17
3.61919e-17
3.61948e-17
3.61947e-17
3.61945e-17
3.61944e-17
3.61942e-17
3.61941e-17
3.61939e-17
3.61937e-17
3.61934e-17
3.61932e-17
3.61929e-17
3.61926e-17
3.61923e-17
3.6192e-17
3.61949e-17
3.61948e-17
3.61947e-17
3.61945e-17
3.61944e-17
3.61942e-17
3.6194e-17
3.61938e-17
3.61936e-17
3.61933e-17
3.6193e-17
3.61927e-17
3.61924e-17
3.61921e-17
3.6195e-17
3.61949e-17
3.61948e-17
3.61946e-17
3.61945e-17
3.61943e-17
3.61941e-17
3.61939e-17
3.61937e-17
3.61934e-17
3.61932e-17
3.61929e-17
3.61926e-17
3.61922e-17
3.61951e-17
3.6195e-17
3.61949e-17
3.61947e-17
3.61946e-17
3.61944e-17
3.61942e-17
3.6194e-17
3.61938e-17
3.61935e-17
3.61933e-17
3.6193e-17
3.61927e-17
3.61923e-17
3.61952e-17
3.61951e-17
3.61949e-17
3.61948e-17
3.61947e-17
3.61945e-17
3.61943e-17
3.61941e-17
3.61939e-17
3.61937e-17
3.61934e-17
3.61931e-17
3.61928e-17
3.61925e-17
3.61952e-17
3.61951e-17
3.61949e-17
3.61948e-17
3.61947e-17
3.61946e-17
3.61944e-17
3.61942e-17
3.6194e-17
3.61938e-17
3.61935e-17
3.61932e-17
3.6193e-17
3.61926e-17
3.61613e-17
3.61612e-17
3.61611e-17
3.6161e-17
3.61609e-17
3.61607e-17
3.61606e-17
3.61603e-17
3.61601e-17
3.61598e-17
3.61596e-17
3.61593e-17
3.6159e-17
3.61586e-17
3.61614e-17
3.61614e-17
3.61613e-17
3.61612e-17
3.6161e-17
3.61609e-17
3.61607e-17
3.61605e-17
3.61602e-17
3.616e-17
3.61597e-17
3.61594e-17
3.61591e-17
3.61587e-17
3.61615e-17
3.61615e-17
3.61614e-17
3.61613e-17
3.61612e-17
3.6161e-17
3.61608e-17
3.61606e-17
3.61603e-17
3.61601e-17
3.61598e-17
3.61595e-17
3.61592e-17
3.61588e-17
3.61616e-17
3.61615e-17
3.61615e-17
3.61614e-17
3.61612e-17
3.61611e-17
3.61609e-17
3.61607e-17
3.61604e-17
3.61602e-17
3.61599e-17
3.61595e-17
3.61592e-17
3.61589e-17
3.61617e-17
3.61616e-17
3.61615e-17
3.61614e-17
3.61613e-17
3.61611e-17
3.61609e-17
3.61607e-17
3.61605e-17
3.61602e-17
3.61599e-17
3.61596e-17
3.61592e-17
3.61589e-17
3.61617e-17
3.61616e-17
3.61615e-17
3.61614e-17
3.61613e-17
3.61611e-17
3.61609e-17
3.61607e-17
3.61605e-17
3.61602e-17
3.61599e-17
3.61596e-17
3.61592e-17
3.61589e-17
3.61616e-17
3.61616e-17
3.61615e-17
3.61614e-17
3.61613e-17
3.61611e-17
3.61609e-17
3.61607e-17
3.61605e-17
3.61602e-17
3.61599e-17
3.61596e-17
3.61592e-17
3.61589e-17
3.61616e-17
3.61615e-17
3.61615e-17
3.61613e-17
3.61612e-17
3.61611e-17
3.61609e-17
3.61606e-17
3.61604e-17
3.61601e-17
3.61598e-17
3.61595e-17
3.61592e-17
3.61588e-17
3.61615e-17
3.61614e-17
3.61614e-17
3.61613e-17
3.61611e-17
3.6161e-17
3.61608e-17
3.61606e-17
3.61603e-17
3.616e-17
3.61597e-17
3.61594e-17
3.61591e-17
3.61587e-17
3.61614e-17
3.61613e-17
3.61612e-17
3.61611e-17
3.6161e-17
3.61609e-17
3.61607e-17
3.61605e-17
3.61602e-17
3.61599e-17
3.61596e-17
3.61593e-17
3.6159e-17
3.61586e-17
3.61612e-17
3.61612e-17
3.61611e-17
3.6161e-17
3.61609e-17
3.61607e-17
3.61605e-17
3.61603e-17
3.61601e-17
3.61598e-17
3.61595e-17
3.61592e-17
3.61588e-17
3.61585e-17
3.61611e-17
3.6161e-17
3.61609e-17
3.61608e-17
3.61607e-17
3.61606e-17
3.61604e-17
3.61602e-17
3.61599e-17
3.61596e-17
3.61593e-17
3.6159e-17
3.61587e-17
3.61583e-17
3.61609e-17
3.61608e-17
3.61607e-17
3.61606e-17
3.61605e-17
3.61604e-17
3.61602e-17
3.616e-17
3.61597e-17
3.61595e-17
3.61592e-17
3.61589e-17
3.61585e-17
3.61582e-17
3.61606e-17
3.61606e-17
3.61605e-17
3.61604e-17
3.61603e-17
3.61602e-17
3.616e-17
3.61598e-17
3.61596e-17
3.61593e-17
3.6159e-17
3.61587e-17
3.61584e-17
3.61581e-17
3.61299e-17
3.61299e-17
3.61298e-17
3.61298e-17
3.61297e-17
3.61296e-17
3.61294e-17
3.61292e-17
3.6129e-17
3.61288e-17
3.61286e-17
3.61283e-17
3.61281e-17
3.61278e-17
3.61299e-17
3.61299e-17
3.61299e-17
3.61298e-17
3.61297e-17
3.61296e-17
3.61294e-17
3.61293e-17
3.61291e-17
3.61288e-17
3.61286e-17
3.61283e-17
3.61281e-17
3.61278e-17
3.61299e-17
3.61299e-17
3.61299e-17
3.61298e-17
3.61297e-17
3.61296e-17
3.61295e-17
3.61293e-17
3.61291e-17
3.61289e-17
3.61286e-17
3.61284e-17
3.61281e-17
3.61278e-17
3.61299e-17
3.61299e-17
3.61299e-17
3.61298e-17
3.61297e-17
3.61296e-17
3.61295e-17
3.61293e-17
3.61291e-17
3.61289e-17
3.61286e-17
3.61284e-17
3.61281e-17
3.61278e-17
3.61299e-17
3.61298e-17
3.61298e-17
3.61298e-17
3.61297e-17
3.61296e-17
3.61294e-17
3.61293e-17
3.61291e-17
3.61288e-17
3.61286e-17
3.61283e-17
3.61281e-17
3.61278e-17
3.61298e-17
3.61298e-17
3.61297e-17
3.61297e-17
3.61296e-17
3.61295e-17
3.61294e-17
3.61292e-17
3.6129e-17
3.61288e-17
3.61285e-17
3.61283e-17
3.6128e-17
3.61277e-17
3.61297e-17
3.61297e-17
3.61296e-17
3.61296e-17
3.61295e-17
3.61294e-17
3.61293e-17
3.61291e-17
3.61289e-17
3.61287e-17
3.61285e-17
3.61282e-17
3.61279e-17
3.61276e-17
3.61295e-17
3.61295e-17
3.61295e-17
3.61295e-17
3.61294e-17
3.61293e-17
3.61291e-17
3.6129e-17
3.61288e-17
3.61286e-17
3.61283e-17
3.61281e-17
3.61278e-17
3.61275e-17
3.61294e-17
3.61294e-17
3.61294e-17
3.61293e-17
3.61292e-17
3.61291e-17
3.6129e-17
3.61288e-17
3.61287e-17
3.61284e-17
3.61282e-17
3.61279e-17
3.61277e-17
3.61274e-17
3.61292e-17
3.61292e-17
3.61292e-17
3.61291e-17
3.61291e-17
3.6129e-17
3.61288e-17
3.61287e-17
3.61285e-17
3.61283e-17
3.6128e-17
3.61278e-17
3.61275e-17
3.61272e-17
3.6129e-17
3.6129e-17
3.6129e-17
3.61289e-17
3.61289e-17
3.61288e-17
3.61286e-17
3.61285e-17
3.61283e-17
3.61281e-17
3.61278e-17
3.61276e-17
3.61273e-17
3.61271e-17
3.61288e-17
3.61288e-17
3.61288e-17
3.61287e-17
3.61286e-17
3.61285e-17
3.61284e-17
3.61282e-17
3.61281e-17
3.61279e-17
3.61276e-17
3.61274e-17
3.61271e-17
3.61269e-17
3.61286e-17
3.61285e-17
3.61285e-17
3.61285e-17
3.61284e-17
3.61283e-17
3.61282e-17
3.6128e-17
3.61278e-17
3.61276e-17
3.61274e-17
3.61271e-17
3.61269e-17
3.61266e-17
3.61283e-17
3.61283e-17
3.61283e-17
3.61282e-17
3.61281e-17
3.6128e-17
3.61279e-17
3.61278e-17
3.61276e-17
3.61274e-17
3.61272e-17
3.61269e-17
3.61267e-17
3.61264e-17
3.61e-17
3.60999e-17
3.60998e-17
3.60998e-17
3.60997e-17
3.60996e-17
3.60995e-17
3.60994e-17
3.60993e-17
3.60992e-17
3.60991e-17
3.60989e-17
3.60988e-17
3.60987e-17
3.60999e-17
3.60998e-17
3.60998e-17
3.60997e-17
3.60997e-17
3.60996e-17
3.60995e-17
3.60994e-17
3.60993e-17
3.60991e-17
3.6099e-17
3.60989e-17
3.60987e-17
3.60986e-17
3.60998e-17
3.60998e-17
3.60997e-17
3.60997e-17
3.60996e-17
3.60995e-17
3.60994e-17
3.60993e-17
3.60992e-17
3.60991e-17
3.6099e-17
3.60988e-17
3.60987e-17
3.60986e-17
3.60997e-17
3.60997e-17
3.60996e-17
3.60996e-17
3.60995e-17
3.60995e-17
3.60994e-17
3.60993e-17
3.60992e-17
3.6099e-17
3.60989e-17
3.60988e-17
3.60986e-17
3.60985e-17
3.60996e-17
3.60996e-17
3.60996e-17
3.60995e-17
3.60995e-17
3.60994e-17
3.60993e-17
3.60992e-17
3.60991e-17
3.6099e-17
3.60988e-17
3.60987e-17
3.60986e-17
3.60985e-17
3.60995e-17
3.60995e-17
3.60995e-17
3.60994e-17
3.60994e-17
3.60993e-17
3.60992e-17
3.60991e-17
3.6099e-17
3.60989e-17
3.60988e-17
3.60986e-17
3.60985e-17
3.60984e-17
3.60994e-17
3.60994e-17
3.60994e-17
3.60993e-17
3.60993e-17
3.60992e-17
3.60991e-17
3.6099e-17
3.60989e-17
3.60988e-17
3.60987e-17
3.60986e-17
3.60984e-17
3.60983e-17
3.60993e-17
3.60993e-17
3.60993e-17
3.60992e-17
3.60992e-17
3.60991e-17
3.6099e-17
3.60989e-17
3.60988e-17
3.60987e-17
3.60986e-17
3.60985e-17
3.60984e-17
3.60982e-17
3.60992e-17
3.60992e-17
3.60992e-17
3.60991e-17
3.60991e-17
3.6099e-17
3.60989e-17
3.60988e-17
3.60987e-17
3.60986e-17
3.60985e-17
3.60984e-17
3.60983e-17
3.60981e-17
3.60991e-17
3.60991e-17
3.6099e-17
3.6099e-17
3.60989e-17
3.60989e-17
3.60988e-17
3.60987e-17
3.60986e-17
3.60985e-17
3.60984e-17
3.60983e-17
3.60981e-17
3.6098e-17
3.6099e-17
3.60989e-17
3.60989e-17
3.60989e-17
3.60988e-17
3.60987e-17
3.60987e-17
3.60986e-17
3.60985e-17
3.60984e-17
3.60982e-17
3.60981e-17
3.6098e-17
3.60979e-17
3.60988e-17
3.60988e-17
3.60988e-17
3.60987e-17
3.60987e-17
3.60986e-17
3.60985e-17
3.60984e-17
3.60983e-17
3.60982e-17
3.60981e-17
3.6098e-17
3.60979e-17
3.60978e-17
3.60987e-17
3.60987e-17
3.60986e-17
3.60986e-17
3.60985e-17
3.60985e-17
3.60984e-17
3.60983e-17
3.60982e-17
3.60981e-17
3.6098e-17
3.60979e-17
3.60978e-17
3.60977e-17
3.60986e-17
3.60986e-17
3.60985e-17
3.60985e-17
3.60984e-17
3.60983e-17
3.60982e-17
3.60982e-17
3.60981e-17
3.6098e-17
3.60979e-17
3.60977e-17
3.60977e-17
3.60975e-17
3.60726e-17
3.60725e-17
3.60724e-17
3.60723e-17
3.60722e-17
3.60721e-17
3.60721e-17
3.6072e-17
3.6072e-17
3.6072e-17
3.6072e-17
3.6072e-17
3.6072e-17
3.60721e-17
3.60725e-17
3.60723e-17
3.60722e-17
3.60721e-17
3.60721e-17
3.6072e-17
3.60719e-17
3.60719e-17
3.60719e-17
3.60718e-17
3.60718e-17
3.60719e-17
3.60719e-17
3.60719e-17
3.60723e-17
3.60722e-17
3.60721e-17
3.6072e-17
3.60719e-17
3.60719e-17
3.60718e-17
3.60718e-17
3.60717e-17
3.60717e-17
3.60717e-17
3.60717e-17
3.60718e-17
3.60718e-17
3.60722e-17
3.60721e-17
3.6072e-17
3.60719e-17
3.60718e-17
3.60718e-17
3.60717e-17
3.60717e-17
3.60716e-17
3.60716e-17
3.60716e-17
3.60716e-17
3.60717e-17
3.60717e-17
3.60721e-17
3.6072e-17
3.60719e-17
3.60718e-17
3.60717e-17
3.60717e-17
3.60716e-17
3.60716e-17
3.60715e-17
3.60715e-17
3.60715e-17
3.60716e-17
3.60716e-17
3.60716e-17
3.6072e-17
3.60719e-17
3.60718e-17
3.60717e-17
3.60716e-17
3.60716e-17
3.60715e-17
3.60715e-17
3.60715e-17
3.60715e-17
3.60715e-17
3.60715e-17
3.60715e-17
3.60716e-17
3.6072e-17
3.60719e-17
3.60717e-17
3.60717e-17
3.60716e-17
3.60715e-17
3.60715e-17
3.60714e-17
3.60714e-17
3.60714e-17
3.60714e-17
3.60714e-17
3.60715e-17
3.60715e-17
3.60719e-17
3.60718e-17
3.60717e-17
3.60716e-17
3.60715e-17
3.60715e-17
3.60714e-17
3.60714e-17
3.60713e-17
3.60713e-17
3.60713e-17
3.60714e-17
3.60714e-17
3.60715e-17
3.60718e-17
3.60717e-17
3.60716e-17
3.60716e-17
3.60715e-17
3.60714e-17
3.60714e-17
3.60713e-17
3.60713e-17
3.60713e-17
3.60713e-17
3.60713e-17
3.60714e-17
3.60714e-17
3.60718e-17
3.60717e-17
3.60716e-17
3.60715e-17
3.60715e-17
3.60714e-17
3.60713e-17
3.60713e-17
3.60713e-17
3.60713e-17
3.60713e-17
3.60713e-17
3.60713e-17
3.60714e-17
3.60718e-17
3.60717e-17
3.60716e-17
3.60715e-17
3.60714e-17
3.60714e-17
3.60713e-17
3.60713e-17
3.60713e-17
3.60713e-17
3.60713e-17
3.60713e-17
3.60713e-17
3.60714e-17
3.60718e-17
3.60717e-17
3.60716e-17
3.60715e-17
3.60714e-17
3.60714e-17
3.60713e-17
3.60713e-17
3.60713e-17
3.60713e-17
3.60713e-17
3.60713e-17
3.60713e-17
3.60714e-17
3.60719e-17
3.60717e-17
3.60716e-17
3.60715e-17
3.60715e-17
3.60714e-17
3.60714e-17
3.60713e-17
3.60713e-17
3.60713e-17
3.60713e-17
3.60713e-17
3.60713e-17
3.60714e-17
3.60719e-17
3.60718e-17
3.60717e-17
3.60716e-17