/*--------------------------------*- C++ -*----------------------------------*\
| =========                 |                                                 |
| \\      /  F ield         | OpenFOAM: The Open Source CFD Toolbox           |
|  \\    /   O peration     | Version:  v2106                                 |
|   \\  /    A nd           | Website:  www.openfoam.com                      |
|    \\/     M anipulation  |                                                 |
\*---------------------------------------------------------------------------*/
FoamFile
{
    version     2.0;
    format      ascii;
    arch        "LSB;label=32;scalar=64";
    class       volScalarField;
    location    "0.000161";
    object      rho;
}
// * * * * * * * * * * * * * * * * * * * * * * * * * * * * * * * * * * * * * //

dimensions      [1 -3 0 0 0 0 0];

internalField   nonuniform List<scalar> 
17924
(
2.6979
2.69771
2.69749
2.69733
2.69234
2.6924
2.69242
2.69248
2.69254
2.69261
2.69268
2.69171
2.6918
2.69184
2.69192
2.69199
2.69207
2.69217
2.69116
2.69123
2.69129
2.69137
2.69145
2.69154
2.69164
2.69058
2.69067
2.69073
2.69083
2.69091
2.69102
2.69112
2.69002
2.69012
2.6902
2.69029
2.69038
2.69049
2.6906
2.68949
2.6896
2.68968
2.68978
2.68987
2.68998
2.6901
2.68898
2.68908
2.68916
2.68926
2.68936
2.68947
2.6896
2.68848
2.68857
2.68866
2.68876
2.68887
2.68899
2.68911
2.688
2.68808
2.68818
2.68828
2.6884
2.68851
2.68864
2.68755
2.68761
2.68772
2.68782
2.68794
2.68806
2.6882
2.68712
2.68717
2.68728
2.68739
2.68751
2.68763
2.68777
2.68672
2.68676
2.68687
2.68698
2.6871
2.68723
2.68736
2.68632
2.68637
2.68648
2.68659
2.68672
2.68685
2.68699
2.68595
2.68601
2.68612
2.68624
2.68637
2.6865
2.68664
2.68635
2.68662
2.68688
2.68712
2.68734
2.68755
2.68774
2.68792
2.6881
2.68829
2.68847
2.68865
2.68883
2.68903
2.68612
2.6864
2.68665
2.6869
2.68712
2.68734
2.68755
2.68776
2.68795
2.68814
2.68834
2.68853
2.68873
2.68893
2.6859
2.6862
2.68644
2.68668
2.68691
2.68713
2.68734
2.68755
2.68775
2.68795
2.68815
2.68835
2.68856
2.68876
2.68567
2.68596
2.6862
2.68645
2.68668
2.68691
2.68713
2.68734
2.68754
2.68775
2.68795
2.68816
2.68837
2.68858
2.68544
2.68572
2.68596
2.68621
2.68644
2.68667
2.68689
2.68711
2.68732
2.68752
2.68773
2.68794
2.68815
2.68837
2.6852
2.68547
2.68572
2.68596
2.6862
2.68643
2.68665
2.68686
2.68708
2.68729
2.6875
2.68771
2.68793
2.68815
2.68497
2.68522
2.68547
2.68571
2.68595
2.68617
2.6864
2.68661
2.68683
2.68704
2.68725
2.68746
2.68768
2.6879
2.68473
2.68498
2.68523
2.68546
2.6857
2.68592
2.68614
2.68636
2.68657
2.68678
2.687
2.68721
2.68743
2.68766
2.68449
2.68474
2.68498
2.68522
2.68545
2.68567
2.68589
2.6861
2.68631
2.68652
2.68674
2.68695
2.68717
2.6874
2.68427
2.68451
2.68475
2.68498
2.68521
2.68542
2.68564
2.68585
2.68606
2.68627
2.68648
2.6867
2.68691
2.68714
2.68405
2.68428
2.68453
2.68475
2.68497
2.68519
2.6854
2.68561
2.68582
2.68603
2.68624
2.68645
2.68666
2.68689
2.68385
2.68407
2.68431
2.68453
2.68475
2.68497
2.68518
2.68539
2.68559
2.6858
2.686
2.68621
2.68641
2.68664
2.68364
2.68386
2.68409
2.68432
2.68454
2.68476
2.68497
2.68518
2.68538
2.68558
2.68578
2.68598
2.68619
2.68641
2.68349
2.6837
2.68392
2.68415
2.68436
2.68457
2.68477
2.68496
2.68516
2.68535
2.68555
2.68574
2.68594
2.68615
2.67969
2.68006
2.6804
2.68072
2.68102
2.68131
2.68157
2.68182
2.68205
2.68227
2.68248
2.68267
2.68284
2.68305
2.67975
2.6801
2.68046
2.68079
2.68111
2.68141
2.68169
2.68195
2.6822
2.68243
2.68264
2.68284
2.68303
2.68323
2.67985
2.6802
2.68056
2.68089
2.68121
2.68151
2.68179
2.68205
2.6823
2.68253
2.68275
2.68295
2.68314
2.68335
2.67992
2.68027
2.68062
2.68095
2.68128
2.68158
2.68187
2.68213
2.68238
2.68262
2.68284
2.68305
2.68325
2.68346
2.67997
2.68033
2.68068
2.68101
2.68133
2.68163
2.68192
2.68218
2.68243
2.68267
2.68289
2.68311
2.68331
2.68352
2.68001
2.68036
2.68071
2.68104
2.68136
2.68166
2.68194
2.68221
2.68246
2.6827
2.68293
2.68315
2.68336
2.68357
2.68003
2.68038
2.68073
2.68105
2.68137
2.68166
2.68195
2.68221
2.68246
2.6827
2.68293
2.68315
2.68337
2.68357
2.68004
2.68039
2.68073
2.68105
2.68136
2.68166
2.68194
2.6822
2.68246
2.6827
2.68293
2.68315
2.68337
2.68358
2.68005
2.6804
2.68073
2.68105
2.68135
2.68164
2.68192
2.68218
2.68243
2.68267
2.6829
2.68312
2.68334
2.68355
2.68005
2.68039
2.68072
2.68103
2.68133
2.68162
2.68189
2.68216
2.6824
2.68264
2.68287
2.68309
2.68331
2.68352
2.68005
2.68039
2.6807
2.68102
2.68131
2.68159
2.68186
2.68212
2.68237
2.6826
2.68283
2.68305
2.68327
2.68348
2.68004
2.68037
2.68068
2.68099
2.68128
2.68156
2.68183
2.68208
2.68232
2.68255
2.68278
2.68299
2.6832
2.68342
2.68003
2.68036
2.68066
2.68097
2.68125
2.68153
2.68179
2.68204
2.68227
2.6825
2.68272
2.68292
2.68313
2.68334
2.68008
2.68039
2.68068
2.68098
2.68124
2.6815
2.68174
2.68198
2.6822
2.68242
2.68263
2.68283
2.68304
2.68324
2.67231
2.67262
2.67295
2.67326
2.67356
2.67384
2.67411
2.67436
2.6746
2.67482
2.67502
2.67521
2.67539
2.6756
2.67256
2.67286
2.67321
2.67352
2.67384
2.67414
2.67442
2.67469
2.67494
2.67516
2.67538
2.67557
2.67575
2.67597
2.67284
2.67316
2.67351
2.67383
2.67415
2.67444
2.67473
2.67499
2.67524
2.67546
2.67568
2.67588
2.67606
2.67626
2.67309
2.67342
2.67377
2.67409
2.67442
2.67472
2.67501
2.67527
2.67553
2.67576
2.67598
2.67618
2.67637
2.67656
2.67334
2.67368
2.67403
2.67436
2.67468
2.67498
2.67527
2.67553
2.67579
2.67602
2.67624
2.67645
2.67663
2.67682
2.67358
2.67392
2.67427
2.6746
2.67492
2.67522
2.67551
2.67578
2.67603
2.67627
2.67649
2.6767
2.67689
2.67708
2.6738
2.67415
2.6745
2.67483
2.67515
2.67545
2.67574
2.67601
2.67626
2.6765
2.67672
2.67693
2.67712
2.6773
2.67402
2.67437
2.67472
2.67505
2.67536
2.67566
2.67595
2.67622
2.67647
2.67671
2.67693
2.67714
2.67734
2.67752
2.67422
2.67458
2.67492
2.67525
2.67556
2.67586
2.67615
2.67641
2.67667
2.6769
2.67713
2.67733
2.67753
2.67771
2.67442
2.67478
2.67511
2.67544
2.67575
2.67605
2.67633
2.6766
2.67685
2.67708
2.6773
2.67751
2.67771
2.67788
2.6746
2.67496
2.67528
2.67561
2.67592
2.67621
2.67649
2.67676
2.677
2.67724
2.67746
2.67766
2.67786
2.67804
2.67478
2.67513
2.67545
2.67577
2.67607
2.67637
2.67664
2.6769
2.67714
2.67737
2.67759
2.67779
2.67798
2.67816
2.67495
2.67529
2.6756
2.67592
2.67621
2.6765
2.67676
2.67702
2.67726
2.67748
2.67769
2.67789
2.67808
2.67827
2.67514
2.67548
2.67577
2.67607
2.67635
2.67662
2.67687
2.67712
2.67735
2.67756
2.67777
2.67796
2.67816
2.67834
2.66471
2.66491
2.66514
2.66536
2.66559
2.6658
2.66601
2.66622
2.66641
2.66659
2.66677
2.66693
2.66708
2.66725
2.665
2.66521
2.66545
2.66568
2.66592
2.66615
2.66637
2.66658
2.66678
2.66697
2.66715
2.66732
2.66747
2.66765
2.66533
2.66554
2.6658
2.66603
2.66627
2.6665
2.66672
2.66693
2.66713
2.66732
2.6675
2.66767
2.66782
2.668
2.66564
2.66587
2.66613
2.66637
2.66661
2.66684
2.66707
2.66728
2.66749
2.66768
2.66786
2.66803
2.66819
2.66836
2.66596
2.6662
2.66647
2.66671
2.66696
2.66719
2.66741
2.66763
2.66783
2.66802
2.66821
2.66838
2.66854
2.66869
2.66628
2.66654
2.6668
2.66705
2.66729
2.66753
2.66775
2.66797
2.66818
2.66837
2.66856
2.66873
2.66889
2.66904
2.6666
2.66687
2.66713
2.66738
2.66763
2.66786
2.66809
2.66831
2.66851
2.66871
2.66889
2.66906
2.66922
2.66937
2.66692
2.6672
2.66746
2.66771
2.66796
2.6682
2.66842
2.66864
2.66885
2.66904
2.66923
2.6694
2.66956
2.6697
2.66723
2.66751
2.66777
2.66803
2.66828
2.66852
2.66874
2.66896
2.66917
2.66936
2.66954
2.66971
2.66987
2.67001
2.66754
2.66782
2.66808
2.66834
2.66858
2.66882
2.66905
2.66926
2.66947
2.66966
2.66985
2.67001
2.67018
2.6703
2.66783
2.66811
2.66837
2.66863
2.66887
2.66911
2.66933
2.66955
2.66975
2.66994
2.67013
2.67029
2.67045
2.67058
2.66813
2.6684
2.66865
2.66891
2.66915
2.66938
2.6696
2.66981
2.67001
2.6702
2.67038
2.67054
2.67071
2.67083
2.66839
2.66866
2.66891
2.66916
2.66939
2.66962
2.66984
2.67005
2.67025
2.67043
2.67061
2.67077
2.67093
2.67107
2.66868
2.66894
2.66918
2.66942
2.66964
2.66986
2.67007
2.67026
2.67045
2.67063
2.67081
2.67097
2.67113
2.67129
2.65747
2.65756
2.65769
2.65781
2.65794
2.65806
2.65818
2.65831
2.65843
2.65855
2.65867
2.65878
2.65888
2.659
2.65773
2.65782
2.65795
2.65808
2.65821
2.65834
2.65847
2.65859
2.65872
2.65884
2.65896
2.65908
2.65918
2.65931
2.658
2.6581
2.65824
2.65837
2.6585
2.65863
2.65876
2.65888
2.65901
2.65913
2.65925
2.65936
2.65946
2.65959
2.65828
2.65839
2.65853
2.65866
2.65879
2.65892
2.65905
2.65918
2.65931
2.65943
2.65955
2.65966
2.65977
2.65988
2.65857
2.65869
2.65883
2.65896
2.6591
2.65923
2.65936
2.65949
2.65961
2.65973
2.65985
2.65996
2.66007
2.66017
2.65887
2.659
2.65914
2.65927
2.65941
2.65954
2.65967
2.6598
2.65993
2.66005
2.66017
2.66028
2.66038
2.66048
2.65917
2.65931
2.65945
2.65958
2.65972
2.65986
2.65999
2.66012
2.66024
2.66037
2.66048
2.66059
2.6607
2.66079
2.65947
2.65962
2.65976
2.6599
2.66004
2.66017
2.6603
2.66044
2.66056
2.66068
2.6608
2.66091
2.66101
2.6611
2.65978
2.65993
2.66007
2.66021
2.66035
2.66048
2.66062
2.66075
2.66088
2.661
2.66111
2.66122
2.66132
2.6614
2.66008
2.66024
2.66037
2.66051
2.66065
2.66079
2.66092
2.66106
2.66118
2.6613
2.66142
2.66152
2.66163
2.6617
2.66037
2.66053
2.66067
2.66081
2.66095
2.66108
2.66122
2.66135
2.66148
2.6616
2.66171
2.66181
2.66192
2.66199
2.66066
2.66082
2.66096
2.6611
2.66123
2.66137
2.6615
2.66163
2.66175
2.66187
2.66199
2.66209
2.6622
2.66227
2.66093
2.66109
2.66123
2.66137
2.6615
2.66164
2.66177
2.6619
2.66202
2.66214
2.66225
2.66235
2.66246
2.66254
2.66124
2.66138
2.66151
2.66164
2.66177
2.6619
2.66203
2.66215
2.66227
2.66238
2.66249
2.6626
2.66271
2.66281
2.65084
2.65086
2.6509
2.65095
2.65099
2.65104
2.65109
2.65114
2.65119
2.65124
2.65129
2.65133
2.65138
2.65144
2.65104
2.65105
2.65109
2.65113
2.65118
2.65123
2.65128
2.65133
2.65138
2.65143
2.65147
2.65152
2.65156
2.65162
2.65123
2.65124
2.65128
2.65132
2.65137
2.65142
2.65147
2.65151
2.65156
2.65161
2.65166
2.6517
2.65174
2.6518
2.65143
2.65144
2.65149
2.65153
2.65157
2.65162
2.65166
2.65171
2.65176
2.65181
2.65185
2.65189
2.65193
2.65199
2.65163
2.65165
2.65169
2.65173
2.65178
2.65182
2.65187
2.65192
2.65196
2.65201
2.65205
2.65209
2.65213
2.65218
2.65184
2.65187
2.65191
2.65195
2.65199
2.65204
2.65208
2.65213
2.65217
2.65222
2.65226
2.6523
2.65234
2.65238
2.65205
2.65209
2.65213
2.65217
2.65221
2.65225
2.6523
2.65234
2.65239
2.65243
2.65248
2.65252
2.65255
2.65259
2.65226
2.65231
2.65235
2.65239
2.65243
2.65247
2.65252
2.65256
2.65261
2.65265
2.65269
2.65273
2.65277
2.6528
2.65248
2.65252
2.65256
2.6526
2.65265
2.65269
2.65274
2.65278
2.65283
2.65287
2.65291
2.65295
2.65299
2.65301
2.65269
2.65274
2.65278
2.65282
2.65286
2.65291
2.65295
2.653
2.65304
2.65309
2.65313
2.65317
2.65321
2.65322
2.65289
2.65295
2.65299
2.65303
2.65308
2.65312
2.65317
2.65321
2.65326
2.6533
2.65334
2.65338
2.65342
2.65343
2.6531
2.65316
2.6532
2.65324
2.65329
2.65333
2.65338
2.65342
2.65347
2.65351
2.65356
2.65359
2.65363
2.65364
2.6533
2.65336
2.6534
2.65345
2.65349
2.65354
2.65359
2.65363
2.65368
2.65372
2.65376
2.6538
2.65383
2.65384
2.65352
2.65357
2.6536
2.65365
2.65369
2.65374
2.65379
2.65383
2.65388
2.65392
2.65396
2.654
2.65404
2.65408
2.64465
2.64465
2.64465
2.64465
2.64465
2.64465
2.64465
2.64464
2.64464
2.64463
2.64463
2.64462
2.6446
2.6446
2.64478
2.64477
2.64476
2.64476
2.64476
2.64475
2.64475
2.64475
2.64474
2.64473
2.64472
2.64471
2.6447
2.6447
2.6449
2.64488
2.64488
2.64487
2.64487
2.64486
2.64486
2.64485
2.64484
2.64483
2.64482
2.64481
2.64479
2.64479
2.64502
2.645
2.64499
2.64499
2.64498
2.64497
2.64497
2.64496
2.64495
2.64494
2.64492
2.64491
2.64489
2.64489
2.64513
2.64512
2.64511
2.6451
2.64509
2.64508
2.64508
2.64507
2.64506
2.64504
2.64503
2.64501
2.645
2.64499
2.64525
2.64523
2.64522
2.64521
2.6452
2.6452
2.64519
2.64518
2.64516
2.64515
2.64514
2.64512
2.6451
2.64508
2.64536
2.64535
2.64534
2.64533
2.64532
2.64531
2.6453
2.64528
2.64527
2.64526
2.64524
2.64522
2.6452
2.64518
2.64547
2.64546
2.64545
2.64544
2.64543
2.64542
2.6454
2.64539
2.64538
2.64536
2.64535
2.64533
2.64531
2.64529
2.64558
2.64557
2.64556
2.64555
2.64553
2.64552
2.64551
2.6455
2.64549
2.64547
2.64545
2.64543
2.64542
2.64539
2.64568
2.64568
2.64566
2.64565
2.64564
2.64563
2.64562
2.64561
2.64559
2.64558
2.64556
2.64554
2.64552
2.64549
2.64578
2.64578
2.64577
2.64576
2.64575
2.64574
2.64573
2.64571
2.6457
2.64568
2.64567
2.64564
2.64563
2.64559
2.64588
2.64588
2.64587
2.64586
2.64585
2.64584
2.64583
2.64582
2.64581
2.64579
2.64577
2.64575
2.64573
2.6457
2.64597
2.64598
2.64597
2.64596
2.64595
2.64595
2.64594
2.64593
2.64592
2.6459
2.64588
2.64586
2.64584
2.64581
2.64606
2.64606
2.64606
2.64605
2.64605
2.64605
2.64604
2.64603
2.64602
2.64601
2.64599
2.64597
2.64595
2.64593
2.63863
2.63862
2.63861
2.63859
2.63857
2.63855
2.63852
2.63849
2.63846
2.63842
2.63838
2.63834
2.63829
2.63825
2.63871
2.63869
2.63867
2.63865
2.63863
2.63861
2.63858
2.63855
2.63851
2.63847
2.63843
2.63838
2.63833
2.63829
2.63877
2.63875
2.63873
2.63871
2.63869
2.63866
2.63863
2.6386
2.63856
2.63852
2.63847
2.63843
2.63838
2.63833
2.63882
2.6388
2.63878
2.63876
2.63874
2.63871
2.63868
2.63864
2.6386
2.63856
2.63852
2.63847
2.63842
2.63837
2.63887
2.63885
2.63883
2.63881
2.63878
2.63875
2.63872
2.63869
2.63865
2.6386
2.63856
2.63851
2.63846
2.63841
2.63891
2.63889
2.63887
2.63885
2.63882
2.63879
2.63876
2.63872
2.63868
2.63864
2.63859
2.63854
2.63849
2.63844
2.63895
2.63893
2.63891
2.63888
2.63886
2.63883
2.6388
2.63876
2.63872
2.63867
2.63863
2.63858
2.63852
2.63846
2.63898
2.63896
2.63894
2.63892
2.63889
2.63886
2.63883
2.63879
2.63875
2.6387
2.63865
2.6386
2.63855
2.63849
2.63901
2.63899
2.63897
2.63894
2.63891
2.63888
2.63885
2.63881
2.63877
2.63873
2.63868
2.63862
2.63857
2.63851
2.63903
2.63901
2.63899
2.63896
2.63894
2.63891
2.63887
2.63883
2.63879
2.63875
2.6387
2.63864
2.63859
2.63853
2.63904
2.63903
2.63901
2.63898
2.63896
2.63893
2.63889
2.63885
2.63881
2.63877
2.63872
2.63867
2.63861
2.63855
2.63906
2.63904
2.63902
2.639
2.63897
2.63894
2.63891
2.63887
2.63883
2.63879
2.63874
2.63869
2.63863
2.63857
2.63907
2.63905
2.63903
2.63901
2.63899
2.63896
2.63893
2.63889
2.63885
2.63881
2.63876
2.63871
2.63865
2.63859
2.63906
2.63905
2.63903
2.63901
2.63899
2.63897
2.63894
2.63891
2.63887
2.63883
2.63878
2.63873
2.63867
2.63861
2.6326
2.6326
2.63258
2.63257
2.63255
2.63252
2.63249
2.63245
2.63241
2.63236
2.63231
2.63225
2.6322
2.63213
2.63264
2.63262
2.63261
2.6326
2.63258
2.63255
2.63251
2.63247
2.63243
2.63238
2.63233
2.63227
2.63221
2.63215
2.63266
2.63265
2.63263
2.63262
2.6326
2.63257
2.63254
2.6325
2.63245
2.6324
2.63235
2.63229
2.63223
2.63217
2.63267
2.63266
2.63265
2.63263
2.63261
2.63258
2.63255
2.63251
2.63247
2.63242
2.63236
2.6323
2.63224
2.63218
2.63268
2.63267
2.63266
2.63264
2.63262
2.63259
2.63256
2.63252
2.63247
2.63242
2.63237
2.63231
2.63225
2.63218
2.63268
2.63267
2.63266
2.63264
2.63262
2.63259
2.63256
2.63252
2.63247
2.63242
2.63237
2.63231
2.63225
2.63218
2.63268
2.63267
2.63265
2.63264
2.63262
2.63259
2.63255
2.63251
2.63247
2.63242
2.63236
2.63231
2.63224
2.63218
2.63266
2.63266
2.63264
2.63263
2.6326
2.63258
2.63254
2.6325
2.63246
2.63241
2.63235
2.63229
2.63223
2.63216
2.63265
2.63264
2.63263
2.63261
2.63259
2.63256
2.63253
2.63249
2.63244
2.63239
2.63234
2.63228
2.63221
2.63215
2.63262
2.63261
2.6326
2.63259
2.63257
2.63254
2.6325
2.63247
2.63242
2.63237
2.63231
2.63226
2.63219
2.63213
2.6326
2.63259
2.63258
2.63256
2.63254
2.63251
2.63248
2.63244
2.63239
2.63234
2.63229
2.63223
2.63216
2.6321
2.63256
2.63255
2.63254
2.63253
2.6325
2.63248
2.63245
2.63241
2.63236
2.63231
2.63226
2.6322
2.63214
2.63207
2.63253
2.63252
2.6325
2.63249
2.63247
2.63244
2.63241
2.63237
2.63233
2.63228
2.63223
2.63217
2.63211
2.63204
2.63247
2.63247
2.63246
2.63244
2.63243
2.6324
2.63237
2.63233
2.63229
2.63225
2.6322
2.63214
2.63208
2.63201
2.62661
2.62661
2.6266
2.62659
2.62657
2.62655
2.62652
2.62649
2.62646
2.62642
2.62638
2.62633
2.62628
2.62622
2.62661
2.62661
2.6266
2.62659
2.62658
2.62656
2.62653
2.6265
2.62646
2.62642
2.62638
2.62633
2.62628
2.62623
2.62661
2.62661
2.62661
2.6266
2.62658
2.62656
2.62654
2.6265
2.62647
2.62643
2.62638
2.62633
2.62628
2.62623
2.62661
2.62661
2.6266
2.62659
2.62658
2.62656
2.62653
2.6265
2.62647
2.62643
2.62638
2.62633
2.62628
2.62623
2.6266
2.6266
2.62659
2.62659
2.62657
2.62655
2.62653
2.6265
2.62646
2.62642
2.62638
2.62633
2.62628
2.62623
2.62658
2.62658
2.62658
2.62657
2.62656
2.62654
2.62652
2.62649
2.62645
2.62641
2.62637
2.62632
2.62627
2.62621
2.62656
2.62656
2.62656
2.62655
2.62654
2.62652
2.6265
2.62647
2.62643
2.62639
2.62635
2.6263
2.62625
2.6262
2.62654
2.62654
2.62654
2.62653
2.62652
2.6265
2.62648
2.62645
2.62641
2.62637
2.62633
2.62628
2.62623
2.62618
2.62651
2.62651
2.62651
2.6265
2.62649
2.62647
2.62645
2.62642
2.62638
2.62635
2.6263
2.62625
2.6262
2.62615
2.62648
2.62648
2.62647
2.62647
2.62645
2.62644
2.62641
2.62639
2.62635
2.62631
2.62627
2.62622
2.62617
2.62612
2.62644
2.62644
2.62644
2.62643
2.62642
2.6264
2.62638
2.62635
2.62631
2.62627
2.62623
2.62619
2.62614
2.62609
2.6264
2.6264
2.62639
2.62639
2.62637
2.62636
2.62633
2.6263
2.62627
2.62623
2.62619
2.62615
2.6261
2.62605
2.62636
2.62635
2.62635
2.62634
2.62633
2.62631
2.62629
2.62626
2.62623
2.62619
2.62615
2.6261
2.62605
2.62601
2.62631
2.6263
2.6263
2.62629
2.62628
2.62626
2.62624
2.62621
2.62618
2.62614
2.6261
2.62606
2.62601
2.62597
2.62088
2.62087
2.62086
2.62085
2.62083
2.62082
2.6208
2.62078
2.62076
2.62074
2.62072
2.62069
2.62067
2.62065
2.62086
2.62085
2.62085
2.62084
2.62083
2.62081
2.62079
2.62077
2.62075
2.62073
2.62071
2.62068
2.62066
2.62064
2.62085
2.62084
2.62083
2.62082
2.62081
2.6208
2.62078
2.62076
2.62074
2.62072
2.6207
2.62068
2.62065
2.62063
2.62083
2.62083
2.62082
2.62081
2.6208
2.62079
2.62077
2.62076
2.62073
2.62071
2.62069
2.62067
2.62064
2.62062
2.62082
2.62081
2.62081
2.6208
2.62079
2.62078
2.62076
2.62074
2.62072
2.6207
2.62068
2.62065
2.62063
2.62061
2.6208
2.6208
2.62079
2.62078
2.62077
2.62076
2.62075
2.62073
2.62071
2.62069
2.62067
2.62064
2.62062
2.62059
2.62078
2.62078
2.62077
2.62077
2.62076
2.62074
2.62073
2.62071
2.62069
2.62067
2.62065
2.62063
2.62061
2.62058
2.62076
2.62076
2.62075
2.62075
2.62074
2.62073
2.62071
2.6207
2.62068
2.62066
2.62063
2.62061
2.62059
2.62056
2.62074
2.62074
2.62073
2.62072
2.62071
2.6207
2.62069
2.62067
2.62066
2.62063
2.62061
2.62059
2.62057
2.62055
2.62072
2.62071
2.62071
2.6207
2.62069
2.62068
2.62067
2.62065
2.62063
2.62061
2.62059
2.62057
2.62055
2.62053
2.62069
2.62069
2.62068
2.62067
2.62066
2.62065
2.62064
2.62062
2.62061
2.62059
2.62057
2.62055
2.62052
2.62051
2.62067
2.62066
2.62066
2.62065
2.62064
2.62063
2.62061
2.6206
2.62058
2.62056
2.62054
2.62052
2.6205
2.62048
2.62065
2.62064
2.62063
2.62062
2.62061
2.6206
2.62059
2.62057
2.62056
2.62054
2.62052
2.6205
2.62047
2.62046
2.62062
2.62062
2.62061
2.6206
2.62059
2.62058
2.62056
2.62055
2.62053
2.62051
2.62049
2.62047
2.62045
2.62043
2.61564
2.61562
2.6156
2.61558
2.61557
2.61555
2.61554
2.61553
2.61553
2.61553
2.61553
2.61553
2.61554
2.61555
2.61561
2.61559
2.61557
2.61556
2.61554
2.61553
2.61552
2.61551
2.6155
2.6155
2.6155
2.61551
2.61551
2.61552
2.61559
2.61557
2.61555
2.61553
2.61552
2.6155
2.61549
2.61548
2.61548
2.61548
2.61548
2.61548
2.61549
2.6155
2.61557
2.61555
2.61553
2.61551
2.61549
2.61548
2.61547
2.61546
2.61546
2.61546
2.61546
2.61546
2.61547
2.61548
2.61555
2.61553
2.61551
2.61549
2.61548
2.61546
2.61545
2.61545
2.61544
2.61544
2.61544
2.61545
2.61546
2.61546
2.61553
2.61551
2.61549
2.61548
2.61546
2.61545
2.61544
2.61543
2.61543
2.61543
2.61543
2.61543
2.61544
2.61545
2.61552
2.6155
2.61548
2.61546
2.61545
2.61544
2.61543
2.61542
2.61541
2.61541
2.61542
2.61542
2.61543
2.61544
2.61551
2.61549
2.61547
2.61545
2.61544
2.61542
2.61542
2.61541
2.6154
2.6154
2.61541
2.61541
2.61542
2.61543
2.6155
2.61548
2.61546
2.61544
2.61543
2.61542
2.61541
2.6154
2.6154
2.6154
2.6154
2.6154
2.61541
2.61542
2.61549
2.61547
2.61545
2.61544
2.61542
2.61541
2.6154
2.6154
2.61539
2.61539
2.6154
2.6154
2.61541
2.61542
2.61549
2.61547
2.61545
2.61544
2.61542
2.61541
2.6154
2.6154
2.61539
2.61539
2.61539
2.6154
2.61541
2.61542
2.61549
2.61547
2.61545
2.61544
2.61542
2.61541
2.6154
2.6154
2.61539
2.61539
2.61539
2.6154
2.61541
2.61542
2.6155
2.61548
2.61546
2.61544
2.61543
2.61542
2.61541
2.6154
2.6154
2.6154
2.6154
2.6154
2.61541
2.61542
2.61551
2.61549
2.61547
2.61545
2.61544
2.61542
2.61541
2.61541
2.6154
2.6154
2.6154
2.61541
2.61542
2.61543
2.61101
2.61097
2.61094
2.61092
2.6109
2.61089
2.61088
2.61088
2.61088
2.61089
2.61091
2.61093
2.61095
2.61098
2.61097
2.61094
2.61091
2.61088
2.61086
2.61085
2.61084
2.61084
2.61085
2.61086
2.61087
2.61089
2.61092
2.61094
2.61094
2.61091
2.61088
2.61085
2.61083
2.61081
2.61081
2.6108
2.61081
2.61082
2.61084
2.61086
2.61089
2.61091
2.61092
2.61088
2.61085
2.61082
2.6108
2.61079
2.61078
2.61078
2.61078
2.61079
2.61081
2.61083
2.61086
2.61089
2.6109
2.61086
2.61083
2.6108
2.61078
2.61076
2.61075
2.61075
2.61076
2.61077
2.61079
2.61081
2.61084
2.61087
2.61088
2.61085
2.61081
2.61078
2.61076
2.61075
2.61074
2.61074
2.61074
2.61075
2.61077
2.6108
2.61083
2.61086
2.61087
2.61083
2.6108
2.61077
2.61075
2.61074
2.61073
2.61072
2.61073
2.61074
2.61076
2.61078
2.61082
2.61085
2.61086
2.61083
2.6108
2.61077
2.61075
2.61073
2.61072
2.61072
2.61073
2.61074
2.61076
2.61078
2.61081
2.61085
2.61086
2.61083
2.6108
2.61077
2.61075
2.61074
2.61073
2.61073
2.61073
2.61074
2.61076
2.61079
2.61082
2.61085
2.61087
2.61084
2.61081
2.61078
2.61076
2.61075
2.61074
2.61074
2.61074
2.61075
2.61077
2.6108
2.61083
2.61086
2.61089
2.61086
2.61082
2.6108
2.61078
2.61076
2.61076
2.61075
2.61076
2.61077
2.61079
2.61081
2.61084
2.61087
2.61091
2.61088
2.61085
2.61082
2.6108
2.61079
2.61078
2.61078
2.61078
2.61079
2.61081
2.61083
2.61086
2.61089
2.61093
2.6109
2.61087
2.61085
2.61083
2.61082
2.61081
2.6108
2.61081
2.61082
2.61083
2.61085
2.61088
2.61091
2.61097
2.61093
2.6109
2.61088
2.61086
2.61085
2.61084
2.61083
2.61084
2.61084
2.61086
2.61088
2.61091
2.61094
2.60694
2.6069
2.60687
2.60684
2.60682
2.60681
2.60681
2.60681
2.60682
2.60683
2.60684
2.60687
2.60689
2.60692
2.60691
2.60687
2.60684
2.60681
2.60679
2.60678
2.60677
2.60677
2.60678
2.60679
2.60681
2.60683
2.60686
2.60688
2.60688
2.60684
2.60681
2.60678
2.60676
2.60674
2.60674
2.60674
2.60674
2.60676
2.60677
2.6068
2.60683
2.60685
2.60685
2.60682
2.60678
2.60675
2.60673
2.60672
2.60671
2.60671
2.60671
2.60673
2.60675
2.60677
2.6068
2.60683
2.60683
2.6068
2.60676
2.60673
2.60671
2.60669
2.60669
2.60669
2.60669
2.60671
2.60673
2.60675
2.60678
2.60681
2.60682
2.60678
2.60675
2.60672
2.6067
2.60668
2.60667
2.60667
2.60668
2.60669
2.60671
2.60674
2.60677
2.6068
2.60681
2.60677
2.60674
2.60671
2.60669
2.60667
2.60666
2.60666
2.60667
2.60668
2.6067
2.60673
2.60676
2.6068
2.60681
2.60677
2.60674
2.60671
2.60669
2.60667
2.60666
2.60666
2.60667
2.60668
2.6067
2.60673
2.60676
2.6068
2.60681
2.60678
2.60674
2.60672
2.60669
2.60668
2.60667
2.60667
2.60668
2.60669
2.60671
2.60674
2.60677
2.60681
2.60682
2.60679
2.60676
2.60673
2.60671
2.60669
2.60669
2.60668
2.60669
2.6067
2.60672
2.60675
2.60678
2.60682
2.60684
2.60681
2.60678
2.60675
2.60673
2.60672
2.60671
2.60671
2.60671
2.60672
2.60674
2.60677
2.6068
2.60683
2.60686
2.60683
2.6068
2.60678
2.60676
2.60674
2.60673
2.60673
2.60674
2.60675
2.60677
2.60679
2.60682
2.60686
2.60689
2.60686
2.60684
2.60681
2.60679
2.60678
2.60677
2.60676
2.60677
2.60678
2.6068
2.60682
2.60685
2.60688
2.60693
2.6069
2.60687
2.60684
2.60682
2.60681
2.6068
2.6068
2.6068
2.60681
2.60683
2.60685
2.60688
2.60691
2.60331
2.60329
2.60327
2.60325
2.60324
2.60323
2.60323
2.60323
2.60323
2.60324
2.60325
2.60326
2.60327
2.60329
2.60329
2.60327
2.60325
2.60323
2.60322
2.60321
2.60321
2.6032
2.60321
2.60321
2.60322
2.60324
2.60325
2.60326
2.60328
2.60325
2.60323
2.60321
2.6032
2.60319
2.60319
2.60318
2.60319
2.60319
2.6032
2.60321
2.60323
2.60324
2.60326
2.60324
2.60322
2.6032
2.60318
2.60317
2.60317
2.60317
2.60317
2.60318
2.60319
2.6032
2.60321
2.60323
2.60325
2.60323
2.6032
2.60319
2.60317
2.60316
2.60316
2.60315
2.60316
2.60316
2.60317
2.60319
2.6032
2.60322
2.60324
2.60322
2.6032
2.60318
2.60316
2.60315
2.60315
2.60315
2.60315
2.60315
2.60316
2.60318
2.60319
2.60321
2.60324
2.60321
2.60319
2.60317
2.60316
2.60315
2.60314
2.60314
2.60314
2.60315
2.60316
2.60317
2.60319
2.60321
2.60323
2.60321
2.60319
2.60317
2.60316
2.60315
2.60314
2.60314
2.60314
2.60315
2.60316
2.60317
2.60319
2.60321
2.60324
2.60321
2.60319
2.60318
2.60316
2.60315
2.60315
2.60314
2.60315
2.60315
2.60316
2.60318
2.6032
2.60322
2.60324
2.60322
2.6032
2.60318
2.60317
2.60316
2.60315
2.60315
2.60315
2.60316
2.60317
2.60319
2.6032
2.60322
2.60325
2.60324
2.60321
2.6032
2.60318
2.60317
2.60317
2.60316
2.60317
2.60317
2.60318
2.6032
2.60321
2.60323
2.60327
2.60325
2.60323
2.60321
2.6032
2.60319
2.60318
2.60318
2.60318
2.60319
2.6032
2.60321
2.60323
2.60325
2.60329
2.60327
2.60325
2.60323
2.60322
2.60321
2.6032
2.6032
2.6032
2.6032
2.60321
2.60323
2.60324
2.60326
2.60331
2.60329
2.60327
2.60325
2.60324
2.60323
2.60322
2.60322
2.60322
2.60322
2.60323
2.60324
2.60326
2.60328
2.60002
2.60002
2.60001
2.60001
2.60001
2.60001
2.6
2.6
2.6
2.6
2.59999
2.59999
2.59999
2.59998
2.60002
2.60002
2.60001
2.60001
2.60001
2.6
2.6
2.6
2.6
2.59999
2.59999
2.59999
2.59999
2.59998
2.60001
2.60001
2.60001
2.60001
2.60001
2.6
2.6
2.6
2.59999
2.59999
2.59999
2.59998
2.59998
2.59998
2.60001
2.60001
2.60001
2.60001
2.6
2.6
2.6
2.6
2.59999
2.59999
2.59999
2.59998
2.59998
2.59998
2.60001
2.60001
2.60001
2.60001
2.6
2.6
2.6
2.59999
2.59999
2.59999
2.59998
2.59998
2.59998
2.59997
2.60001
2.60001
2.60001
2.6
2.6
2.6
2.6
2.59999
2.59999
2.59999
2.59998
2.59998
2.59998
2.59997
2.60001
2.60001
2.6
2.6
2.6
2.6
2.6
2.59999
2.59999
2.59999
2.59998
2.59998
2.59997
2.59997
2.60001
2.60001
2.6
2.6
2.6
2.6
2.59999
2.59999
2.59999
2.59998
2.59998
2.59998
2.59997
2.59997
2.60001
2.6
2.6
2.6
2.6
2.6
2.59999
2.59999
2.59999
2.59998
2.59998
2.59998
2.59997
2.59997
2.60001
2.6
2.6
2.6
2.6
2.59999
2.59999
2.59999
2.59998
2.59998
2.59998
2.59997
2.59997
2.59997
2.6
2.6
2.6
2.6
2.59999
2.59999
2.59999
2.59999
2.59998
2.59998
2.59998
2.59997
2.59997
2.59997
2.6
2.6
2.6
2.6
2.59999
2.59999
2.59999
2.59998
2.59998
2.59998
2.59997
2.59997
2.59997
2.59997
2.6
2.6
2.6
2.59999
2.59999
2.59999
2.59998
2.59998
2.59998
2.59997
2.59997
2.59997
2.59997
2.59996
2.6
2.6
2.59999
2.59999
2.59999
2.59998
2.59998
2.59998
2.59997
2.59997
2.59997
2.59997
2.59996
2.59996
2.59695
2.59696
2.59698
2.59699
2.59699
2.597
2.597
2.59699
2.59699
2.59698
2.59696
2.59695
2.59693
2.59691
2.59696
2.59698
2.59699
2.597
2.59701
2.59701
2.59701
2.59701
2.597
2.59699
2.59698
2.59697
2.59695
2.59693
2.59697
2.59699
2.597
2.59702
2.59702
2.59703
2.59703
2.59703
2.59702
2.59701
2.59699
2.59698
2.59696
2.59694
2.59698
2.597
2.59702
2.59703
2.59704
2.59704
2.59704
2.59704
2.59703
2.59702
2.59701
2.59699
2.59697
2.59695
2.59699
2.59701
2.59702
2.59704
2.59704
2.59705
2.59705
2.59705
2.59704
2.59703
2.59701
2.597
2.59698
2.59696
2.597
2.59701
2.59703
2.59704
2.59705
2.59705
2.59705
2.59705
2.59704
2.59703
2.59702
2.597
2.59698
2.59696
2.597
2.59701
2.59703
2.59704
2.59705
2.59706
2.59706
2.59705
2.59705
2.59703
2.59702
2.597
2.59698
2.59696
2.597
2.59701
2.59703
2.59704
2.59705
2.59705
2.59705
2.59705
2.59704
2.59703
2.59702
2.597
2.59698
2.59695
2.59699
2.59701
2.59702
2.59703
2.59704
2.59705
2.59705
2.59704
2.59704
2.59702
2.59701
2.59699
2.59697
2.59695
2.59698
2.597
2.59701
2.59702
2.59703
2.59704
2.59704
2.59703
2.59703
2.59701
2.597
2.59698
2.59696
2.59694
2.59697
2.59699
2.597
2.59701
2.59702
2.59702
2.59702
2.59702
2.59701
2.597
2.59699
2.59697
2.59695
2.59693
2.59696
2.59697
2.59698
2.59699
2.597
2.597
2.597
2.597
2.59699
2.59698
2.59697
2.59695
2.59694
2.59691
2.59694
2.59695
2.59696
2.59697
2.59698
2.59698
2.59698
2.59698
2.59697
2.59697
2.59695
2.59694
2.59692
2.5969
2.59692
2.59693
2.59694
2.59695
2.59696
2.59696
2.59696
2.59696
2.59695
2.59694
2.59693
2.59692
2.5969
2.59688
2.59401
2.59404
2.59406
2.59408
2.5941
2.5941
2.59411
2.5941
2.59409
2.59408
2.59406
2.59404
2.59404
2.59406
2.59409
2.59411
2.59412
2.59413
2.59413
2.59413
2.59412
2.59411
2.59409
2.59407
2.59406
2.59408
2.59411
2.59413
2.59414
2.59415
2.59416
2.59415
2.59414
2.59413
2.59411
2.59409
2.59407
2.5941
2.59413
2.59415
2.59416
2.59417
2.59418
2.59417
2.59416
2.59415
2.59413
2.59411
2.59409
2.59412
2.59414
2.59416
2.59418
2.59419
2.59419
2.59419
2.59418
2.59416
2.59414
2.59412
2.5941
2.59412
2.59415
2.59417
2.59418
2.59419
2.5942
2.5942
2.59419
2.59417
2.59415
2.59413
2.5941
2.59413
2.59415
2.59417
2.59419
2.5942
2.5942
2.5942
2.59419
2.59418
2.59416
2.59413
2.5941
2.59413
2.59415
2.59417
2.59418
2.59419
2.5942
2.59419
2.59419
2.59417
2.59415
2.59413
2.59409
2.59412
2.59414
2.59416
2.59418
2.59418
2.59419
2.59419
2.59418
2.59416
2.59414
2.59412
2.59408
2.5941
2.59413
2.59415
2.59416
2.59417
2.59417
2.59417
2.59416
2.59415
2.59413
2.5941
2.59406
2.59408
2.59411
2.59413
2.59414
2.59415
2.59415
2.59415
2.59414
2.59413
2.59411
2.59408
2.59404
2.59406
2.59408
2.5941
2.59411
2.59412
2.59413
2.59412
2.59412
2.5941
2.59408
2.59406
2.59401
2.59403
2.59405
2.59407
2.59408
2.59409
2.5941
2.59409
2.59409
2.59407
2.59406
2.59403
2.59398
2.594
2.59402
2.59404
2.59405
2.59406
2.59406
2.59406
2.59405
2.59404
2.59403
2.594
2.69875
2.69947
2.70012
2.70076
2.70134
2.70192
2.69845
2.69926
2.70003
2.70083
2.70158
2.7023
2.69834
2.69924
2.70011
2.70096
2.70179
2.70256
2.69821
2.69917
2.70009
2.70099
2.70185
2.70264
2.69284
2.69313
2.69345
2.69377
2.69408
2.69439
2.69284
2.69327
2.69371
2.69414
2.69455
2.69495
2.69296
2.69347
2.694
2.69448
2.69495
2.6954
2.69305
2.69362
2.69419
2.69472
2.69522
2.6957
2.69313
2.69374
2.69434
2.69489
2.69541
2.69588
2.6932
2.69383
2.69444
2.695
2.69551
2.69596
2.69328
2.69391
2.69452
2.69507
2.69555
2.69597
2.68642
2.68639
2.68639
2.68635
2.68633
2.68629
2.68672
2.68672
2.68675
2.68677
2.68679
2.6868
2.68699
2.68705
2.68712
2.68717
2.68722
2.68726
2.68725
2.68735
2.68746
2.68753
2.68761
2.68766
2.68749
2.68763
2.68776
2.68785
2.68794
2.68799
2.68771
2.68788
2.68802
2.68813
2.68822
2.68827
2.68792
2.68811
2.68825
2.68837
2.68844
2.68848
2.68812
2.6883