/*--------------------------------*- C++ -*----------------------------------*\
| =========                 |                                                 |
| \\      /  F ield         | OpenFOAM: The Open Source CFD Toolbox           |
|  \\    /   O peration     | Version:  v2106                                 |
|   \\  /    A nd           | Website:  www.openfoam.com                      |
|    \\/     M anipulation  |                                                 |
\*---------------------------------------------------------------------------*/
FoamFile
{
    version     2.0;
    format      ascii;
    arch        "LSB;label=32;scalar=64";
    class       volScalarField;
    location    "0.000161";
    object      T;
}
// * * * * * * * * * * * * * * * * * * * * * * * * * * * * * * * * * * * * * //

dimensions      [0 0 0 1 0 0 0];

internalField   nonuniform List<scalar> 
17924
(
306.911
306.902
306.892
306.885
306.657
306.66
306.661
306.664
306.666
306.669
306.673
306.628
306.632
306.634
306.638
306.641
306.645
306.649
306.603
306.607
306.609
306.613
306.616
306.62
306.625
306.577
306.581
306.584
306.588
306.592
306.597
306.601
306.551
306.556
306.559
306.564
306.568
306.573
306.578
306.527
306.532
306.535
306.54
306.544
306.549
306.555
306.504
306.508
306.512
306.516
306.521
306.526
306.532
306.481
306.485
306.489
306.494
306.499
306.504
306.51
306.459
306.462
306.467
306.472
306.477
306.482
306.488
306.438
306.441
306.446
306.451
306.456
306.462
306.468
306.419
306.421
306.426
306.431
306.436
306.442
306.448
306.4
306.402
306.407
306.412
306.418
306.423
306.43
306.382
306.384
306.389
306.394
306.4
306.406
306.413
306.365
306.368
306.373
306.378
306.384
306.39
306.396
306.383
306.396
306.407
306.418
306.429
306.438
306.447
306.455
306.463
306.472
306.48
306.489
306.497
306.506
306.373
306.386
306.397
306.408
306.419
306.429
306.438
306.448
306.456
306.465
306.474
306.483
306.492
306.501
306.363
306.376
306.387
306.398
306.409
306.419
306.429
306.438
306.447
306.456
306.465
306.475
306.484
306.494
306.352
306.365
306.376
306.388
306.398
306.409
306.419
306.428
306.438
306.447
306.457
306.466
306.476
306.485
306.342
306.354
306.366
306.377
306.387
306.398
306.408
306.418
306.427
306.437
306.446
306.456
306.466
306.475
306.331
306.343
306.354
306.366
306.376
306.387
306.397
306.407
306.417
306.426
306.436
306.446
306.456
306.465
306.32
306.332
306.343
306.354
306.365
306.375
306.385
306.395
306.405
306.415
306.424
306.434
306.444
306.454
306.309
306.32
306.332
306.343
306.353
306.364
306.374
306.384
306.393
306.403
306.413
306.423
306.433
306.443
306.298
306.309
306.321
306.331
306.342
306.352
306.362
306.372
306.382
306.391
306.401
306.411
306.421
306.431
306.288
306.299
306.31
306.321
306.331
306.341
306.351
306.36
306.37
306.38
306.389
306.399
306.409
306.419
306.278
306.289
306.3
306.31
306.32
306.33
306.34
306.35
306.359
306.369
306.378
306.388
306.397
306.408
306.269
306.279
306.29
306.3
306.31
306.32
306.33
306.339
306.349
306.358
306.367
306.377
306.386
306.397
306.259
306.27
306.28
306.29
306.3
306.311
306.32
306.33
306.339
306.348
306.357
306.367
306.376
306.386
306.252
306.262
306.272
306.283
306.292
306.302
306.311
306.32
306.329
306.338
306.347
306.355
306.365
306.374
306.078
306.095
306.111
306.125
306.139
306.152
306.165
306.176
306.187
306.197
306.206
306.215
306.223
306.232
306.081
306.097
306.113
306.129
306.143
306.157
306.17
306.182
306.193
306.204
306.214
306.223
306.231
306.24
306.086
306.102
306.118
306.133
306.148
306.162
306.175
306.187
306.198
306.208
306.218
306.228
306.236
306.246
306.089
306.105
306.121
306.136
306.151
306.165
306.178
306.19
306.202
306.213
306.223
306.232
306.242
306.251
306.091
306.108
306.124
306.139
306.154
306.167
306.18
306.192
306.204
306.215
306.225
306.235
306.244
306.254
306.093
306.109
306.125
306.14
306.155
306.168
306.182
306.194
306.205
306.216
306.227
306.237
306.246
306.256
306.094
306.11
306.126
306.141
306.155
306.169
306.182
306.194
306.205
306.216
306.227
306.237
306.247
306.256
306.094
306.111
306.126
306.141
306.155
306.169
306.181
306.194
306.205
306.216
306.227
306.237
306.247
306.256
306.095
306.111
306.126
306.141
306.154
306.168
306.18
306.193
306.204
306.215
306.226
306.236
306.246
306.255
306.095
306.111
306.126
306.14
306.154
306.167
306.179
306.191
306.203
306.214
306.224
306.234
306.244
306.254
306.095
306.11
306.125
306.139
306.153
306.166
306.178
306.19
306.201
306.212
306.222
306.232
306.242
306.252
306.094
306.11
306.124
306.138
306.151
306.164
306.176
306.188
306.199
306.21
306.22
306.23
306.239
306.249
306.094
306.109
306.123
306.137
306.15
306.163
306.174
306.186
306.197
306.207
306.217
306.227
306.236
306.246
306.096
306.111
306.124
306.137
306.149
306.161
306.172
306.183
306.193
306.203
306.213
306.222
306.232
306.241
305.74
305.754
305.769
305.783
305.797
305.81
305.823
305.834
305.845
305.855
305.865
305.873
305.881
305.891
305.751
305.765
305.781
305.796
305.81
305.824
305.837
305.849
305.86
305.871
305.881
305.89
305.898
305.908
305.765
305.779
305.795
305.81
305.824
305.838
305.851
305.863
305.874
305.885
305.894
305.904
305.912
305.921
305.776
305.791
305.807
305.822
305.837
305.85
305.864
305.876
305.888
305.898
305.908
305.918
305.926
305.935
305.787
305.803
305.819
305.834
305.849
305.863
305.876
305.888
305.899
305.91
305.92
305.93
305.938
305.947
305.798
305.814
305.83
305.845
305.86
305.874
305.887
305.899
305.911
305.922
305.932
305.941
305.95
305.959
305.808
305.825
305.84
305.856
305.87
305.884
305.897
305.91
305.921
305.932
305.942
305.952
305.961
305.969
305.818
305.835
305.85
305.866
305.88
305.894
305.907
305.919
305.931
305.942
305.952
305.962
305.971
305.979
305.828
305.844
305.86
305.875
305.889
305.903
305.916
305.928
305.94
305.951
305.961
305.97
305.98
305.988
305.837
305.853
305.868
305.884
305.898
305.912
305.924
305.937
305.948
305.959
305.969
305.978
305.988
305.996
305.845
305.861
305.876
305.891
305.905
305.919
305.932
305.944
305.955
305.966
305.976
305.985
305.995
306.003
305.854
305.869
305.884
305.899
305.913
305.926
305.939
305.95
305.962
305.972
305.982
305.991
306
306.008
305.861
305.877
305.891
305.905
305.919
305.932
305.944
305.956
305.967
305.977
305.987
305.996
306.005
306.013
305.87
305.885
305.899
305.913
305.925
305.938
305.949
305.96
305.971
305.981
305.99
305.999
306.008
306.017
305.391
305.4
305.411
305.421
305.431
305.441
305.451
305.46
305.469
305.478
305.486
305.493
305.5
305.508
305.404
305.414
305.425
305.436
305.447
305.457
305.467
305.477
305.486
305.495
305.503
305.511
305.518
305.526
305.419
305.429
305.441
305.452
305.463
305.473
305.483
305.493
305.502
305.511
305.519
305.527
305.534
305.542
305.434
305.444
305.456
305.467
305.478
305.489
305.499
305.509
305.518
305.527
305.536
305.544
305.551
305.559
305.448
305.46
305.472
305.483
305.494
305.505
305.515
305.525
305.534
305.543
305.552
305.56
305.567
305.574
305.463
305.475
305.487
305.498
305.51
305.52
305.531
305.541
305.55
305.559
305.568
305.576
305.583
305.59
305.478
305.49
305.502
305.514
305.525
305.536
305.546
305.556
305.566
305.575
305.583
305.591
305.598
305.605
305.493
305.505
305.517
305.529
305.54
305.551
305.562
305.572
305.581
305.59
305.598
305.606
305.614
305.62
305.507
305.52
305.532
305.544
305.555
305.566
305.576
305.586
305.596
305.605
305.613
305.621
305.628
305.634
305.521
305.534
305.546
305.558
305.569
305.58
305.59
305.6
305.61
305.619
305.627
305.635
305.642
305.648
305.534
305.547
305.559
305.571
305.582
305.593
305.603
305.613
305.623
305.631
305.64
305.647
305.655
305.66
305.548
305.561
305.572
305.584
305.595
305.606
305.616
305.625
305.635
305.643
305.651
305.659
305.666
305.672
305.56
305.572
305.584
305.595
305.606
305.617
305.627
305.636
305.645
305.654
305.662
305.669
305.677
305.683
305.573
305.585
305.596
305.607
305.618
305.628
305.637
305.646
305.655
305.663
305.671
305.678
305.686
305.693
305.058
305.062
305.068
305.074
305.079
305.085
305.091
305.096
305.102
305.108
305.113
305.118
305.123
305.128
305.07
305.074
305.08
305.086
305.092
305.098
305.104
305.11
305.115
305.121
305.127
305.132
305.136
305.142
305.082
305.087
305.093
305.099
305.105
305.111
305.117
305.123
305.129
305.134
305.14
305.145
305.149
305.155
305.095
305.1
305.107
305.113
305.119
305.125
305.131
305.137
305.142
305.148
305.154
305.159
305.164
305.169
305.108
305.114
305.12
305.127
305.133
305.139
305.145
305.151
305.156
305.162
305.168
305.173
305.178
305.182
305.122
305.128
305.135
305.141
305.147
305.153
305.159
305.165
305.171
305.177
305.182
305.187
305.192
305.196
305.136
305.142
305.149
305.155
305.162
305.168
305.174
305.18
305.186
305.191
305.197
305.202
305.206
305.211
305.15
305.157
305.163
305.17
305.176
305.182
305.188
305.194
305.2
305.206
305.211
305.216
305.221
305.225
305.164
305.171
305.177
305.184
305.19
305.197
305.203
305.209
305.215
305.22
305.226
305.23
305.235
305.239
305.178
305.185
305.191
305.198
305.204
305.211
305.217
305.223
305.229
305.234
305.24
305.244
305.249
305.253
305.191
305.199
305.205
305.212
305.218
305.224
305.23
305.236
305.242
305.248
305.253
305.258
305.263
305.266
305.205
305.212
305.218
305.225
305.231
305.237
305.243
305.249
305.255
305.261
305.266
305.271
305.275
305.279
305.217
305.225
305.231
305.237
305.243
305.25
305.256
305.262
305.267
305.273
305.278
305.283
305.287
305.291
305.231
305.238
305.244
305.25
305.256
305.262
305.268
305.273
305.279
305.284
305.289
305.294
305.299
305.304
304.753
304.753
304.755
304.757
304.759
304.762
304.764
304.766
304.769
304.771
304.773
304.775
304.777
304.78
304.761
304.762
304.764
304.766
304.768
304.77
304.772
304.775
304.777
304.779
304.782
304.784
304.785
304.789
304.77
304.771
304.773
304.775
304.777
304.779
304.781
304.783
304.786
304.788
304.79
304.792
304.794
304.797
304.779
304.78
304.782
304.784
304.786
304.788
304.79
304.793
304.795
304.797
304.799
304.801
304.803
304.805
304.789
304.79
304.792
304.794
304.796
304.798
304.8
304.802
304.804
304.806
304.808
304.81
304.812
304.814
304.798
304.8
304.802
304.804
304.806
304.808
304.81
304.812
304.814
304.816
304.818
304.82
304.822
304.823
304.808
304.81
304.812
304.814
304.816
304.818
304.82
304.822
304.824
304.826
304.828
304.83
304.831
304.833
304.818
304.82
304.822
304.824
304.826
304.828
304.83
304.832
304.834
304.836
304.838
304.84
304.841
304.843
304.828
304.83
304.832
304.834
304.836
304.838
304.84
304.842
304.844
304.846
304.848
304.85
304.851
304.852
304.838
304.84
304.842
304.844
304.846
304.848
304.85
304.852
304.854
304.856
304.858
304.86
304.861
304.862
304.847
304.85
304.851
304.854
304.856
304.858
304.86
304.862
304.864
304.866
304.868
304.87
304.871
304.872
304.857
304.859
304.861
304.863
304.865
304.867
304.869
304.871
304.874
304.876
304.878
304.879
304.881
304.881
304.866
304.868
304.87
304.873
304.875
304.877
304.879
304.881
304.883
304.885
304.887
304.889
304.89
304.891
304.876
304.878
304.88
304.882
304.884
304.886
304.888
304.89
304.892
304.894
304.896
304.898
304.9
304.902
304.467
304.467
304.467
304.467
304.467
304.467
304.467
304.467
304.466
304.466
304.466
304.465
304.465
304.465
304.473
304.472
304.472
304.472
304.472
304.472
304.471
304.471
304.471
304.471
304.47
304.47
304.469
304.469
304.478
304.477
304.477
304.477
304.477
304.477
304.476
304.476
304.476
304.475
304.475
304.474
304.473
304.473
304.484
304.483
304.483
304.482
304.482
304.482
304.481
304.481
304.481
304.48
304.479
304.479
304.478
304.478
304.489
304.488
304.488
304.488
304.487
304.487
304.486
304.486
304.486
304.485
304.484
304.484
304.483
304.482
304.494
304.494
304.493
304.493
304.492
304.492
304.492
304.491
304.49
304.49
304.489
304.488
304.488
304.487
304.5
304.499
304.499
304.498
304.498
304.497
304.497
304.496
304.495
304.495
304.494
304.493
304.492
304.491
304.505
304.504
304.504
304.503
304.503
304.502
304.502
304.501
304.5
304.5
304.499
304.498
304.497
304.496
304.51
304.509
304.509
304.508
304.508
304.507
304.507
304.506
304.505
304.505
304.504
304.503
304.502
304.501
304.514
304.514
304.514
304.513
304.513
304.512
304.511
304.511
304.51
304.51
304.509
304.508
304.507
304.506
304.519
304.519
304.518
304.518
304.517
304.517
304.516
304.516
304.515
304.514
304.514
304.513
304.512
304.51
304.524
304.524
304.523
304.523
304.522
304.522
304.521
304.521
304.52
304.519
304.519
304.518
304.517
304.515
304.528
304.528
304.528
304.527
304.527
304.527
304.526
304.526
304.525
304.524
304.524
304.523
304.522
304.52
304.532
304.532
304.532
304.532
304.531
304.531
304.531
304.531
304.53
304.53
304.529
304.528
304.527
304.526
304.189
304.188
304.188
304.187
304.186
304.185
304.184
304.182
304.181
304.179
304.177
304.175
304.173
304.171
304.192
304.191
304.191
304.19
304.189
304.188
304.186
304.185
304.183
304.181
304.179
304.177
304.175
304.173
304.195
304.194
304.193
304.192
304.191
304.19
304.189
304.187
304.185
304.183
304.181
304.179
304.177
304.175
304.197
304.197
304.196
304.195
304.194
304.192
304.191
304.189
304.187
304.186
304.183
304.181
304.179
304.177
304.2
304.199
304.198
304.197
304.196
304.194
304.193
304.191
304.189
304.187
304.185
304.183
304.181
304.178
304.202
304.201
304.2
304.199
304.198
304.196
304.195
304.193
304.191
304.189
304.187
304.185
304.182
304.18
304.203
304.202
304.201
304.2
304.199
304.198
304.196
304.195
304.193
304.191
304.188
304.186
304.184
304.181
304.205
304.204
304.203
304.202
304.201
304.199
304.198
304.196
304.194
304.192
304.19
304.187
304.185
304.182
304.206
304.205
304.204
304.203
304.202
304.2
304.199
304.197
304.195
304.193
304.191
304.188
304.186
304.183
304.207
304.206
304.205
304.204
304.203
304.201
304.2
304.198
304.196
304.194
304.192
304.189
304.187
304.184
304.208
304.207
304.206
304.205
304.204
304.202
304.201
304.199
304.197
304.195
304.193
304.19
304.188
304.185
304.208
304.207
304.207
304.206
304.204
304.203
304.202
304.2
304.198
304.196
304.194
304.191
304.189
304.186
304.209
304.208
304.207
304.206
304.205
304.204
304.202
304.201
304.199
304.197
304.195
304.192
304.19
304.187
304.208
304.208
304.207
304.206
304.205
304.204
304.203
304.201
304.2
304.198
304.196
304.193
304.191
304.188
303.91
303.91
303.909
303.908
303.907
303.906
303.904
303.903
303.901
303.898
303.896
303.894
303.891
303.888
303.911
303.911
303.91
303.909
303.908
303.907
303.906
303.904
303.902
303.899
303.897
303.894
303.892
303.889
303.912
303.912
303.911
303.91
303.909
303.908
303.907
303.905
303.903
303.9
303.898
303.895
303.893
303.89
303.913
303.912
303.912
303.911
303.91
303.909
303.907
303.906
303.903
303.901
303.899
303.896
303.893
303.89
303.913
303.913
303.912
303.912
303.911
303.909
303.908
303.906
303.904
303.901
303.899
303.896
303.893
303.89
303.913
303.913
303.912
303.912
303.911
303.909
303.908
303.906
303.904
303.902
303.899
303.896
303.893
303.89
303.913
303.913
303.912
303.911
303.91
303.909
303.908
303.906
303.904
303.901
303.899
303.896
303.893
303.89
303.913
303.912
303.912
303.911
303.91
303.909
303.907
303.905
303.903
303.901
303.898
303.895
303.893
303.889
303.912
303.911
303.911
303.91
303.909
303.908
303.906
303.904
303.902
303.9
303.897
303.895
303.892
303.889
303.911
303.91
303.91
303.909
303.908
303.907
303.905
303.903
303.901
303.899
303.896
303.894
303.891
303.888
303.91
303.909
303.908
303.908
303.907
303.905
303.904
303.902
303.9
303.898
303.895
303.892
303.889
303.886
303.908
303.907
303.907
303.906
303.905
303.904
303.902
303.901
303.899
303.896
303.894
303.891
303.888
303.885
303.906
303.906
303.905
303.904
303.904
303.902
303.901
303.899
303.897
303.895
303.892
303.89
303.887
303.884
303.904
303.903
303.903
303.902
303.902
303.9
303.899
303.897
303.895
303.893
303.891
303.888
303.885
303.883
303.632
303.632
303.632
303.631
303.63
303.629
303.628
303.627
303.625
303.623
303.621
303.619
303.617
303.614
303.632
303.632
303.632
303.631
303.631
303.63
303.628
303.627
303.625
303.623
303.621
303.619
303.617
303.614
303.632
303.632
303.632
303.631
303.631
303.63
303.629
303.627
303.625
303.624
303.622
303.619
303.617
303.615
303.632
303.632
303.632
303.631
303.631
303.63
303.629
303.627
303.625
303.624
303.622
303.619
303.617
303.615
303.631
303.632
303.631
303.631
303.63
303.629
303.628
303.627
303.625
303.623
303.621
303.619
303.617
303.614
303.631
303.631
303.631
303.63
303.63
303.629
303.628
303.626
303.625
303.623
303.621
303.619
303.616
303.614
303.63
303.63
303.63
303.629
303.629
303.628
303.627
303.626
303.624
303.622
303.62
303.618
303.616
303.613
303.629
303.629
303.629
303.628
303.628
303.627
303.626
303.625
303.623
303.621
303.619
303.617
303.615
303.612
303.628
303.628
303.627
303.627
303.626
303.626
303.625
303.623
303.622
303.62
303.618
303.616
303.613
303.611
303.626
303.626
303.626
303.625
303.625
303.624
303.623
303.622
303.62
303.618
303.616
303.614
303.612
303.61
303.624
303.624
303.624
303.624
303.623
303.622
303.621
303.62
303.618
303.617
303.615
303.612
303.61
303.608
303.622
303.622
303.622
303.622
303.621
303.62
303.619
303.618
303.616
303.615
303.613
303.611
303.608
303.606
303.62
303.62
303.62
303.62
303.619
303.618
303.617
303.616
303.614
303.613
303.611
303.608
303.606
303.604
303.618
303.618
303.618
303.617
303.617
303.616
303.615
303.614
303.612
303.61
303.609
303.607
303.604
303.602
303.366
303.366
303.365
303.365
303.364
303.363
303.363
303.362
303.361
303.36
303.359
303.358
303.357
303.356
303.365
303.365
303.365
303.364
303.364
303.363
303.362
303.361
303.36
303.359
303.358
303.357
303.356
303.355
303.365
303.364
303.364
303.364
303.363
303.363
303.362
303.361
303.36
303.359
303.358
303.357
303.356
303.355
303.364
303.364
303.363
303.363
303.363
303.362
303.361
303.36
303.36
303.358
303.357
303.356
303.355
303.354
303.363
303.363
303.363
303.362
303.362
303.361
303.361
303.36
303.359
303.358
303.357
303.356
303.355
303.354
303.363
303.362
303.362
303.362
303.361
303.361
303.36
303.359
303.358
303.357
303.356
303.355
303.354
303.353
303.362
303.362
303.361
303.361
303.361
303.36
303.359
303.359
303.358
303.357
303.356
303.355
303.354
303.352
303.361
303.361
303.36
303.36
303.36
303.359
303.358
303.358
303.357
303.356
303.355
303.354
303.353
303.352
303.36
303.36
303.359
303.359
303.359
303.358
303.357
303.357
303.356
303.355
303.354
303.353
303.352
303.351
303.359
303.359
303.358
303.358
303.357
303.357
303.356
303.356
303.355
303.354
303.353
303.352
303.351
303.35
303.358
303.357
303.357
303.357
303.356
303.356
303.355
303.354
303.354
303.353
303.352
303.351
303.35
303.349
303.357
303.356
303.356
303.356
303.355
303.355
303.354
303.353
303.352
303.351
303.351
303.35
303.349
303.348
303.356
303.355
303.355
303.354
303.354
303.353
303.353
303.352
303.351
303.35
303.349
303.348
303.347
303.347
303.354
303.354
303.354
303.353
303.353
303.352
303.351
303.351
303.35
303.349
303.348
303.347
303.347
303.346
303.123
303.122
303.121
303.12
303.119
303.119
303.118
303.118
303.118
303.118
303.118
303.118
303.118
303.119
303.122
303.121
303.12
303.119
303.118
303.118
303.117
303.117
303.117
303.116
303.116
303.117
303.117
303.117
303.12
303.119
303.119
303.118
303.117
303.116
303.116
303.116
303.115
303.115
303.115
303.116
303.116
303.116
303.119
303.119
303.118
303.117
303.116
303.116
303.115
303.115
303.114
303.114
303.114
303.115
303.115
303.115
303.119
303.118
303.117
303.116
303.115
303.115
303.114
303.114
303.114
303.114
303.114
303.114
303.114
303.115
303.118
303.117
303.116
303.115
303.115
303.114
303.114
303.113
303.113
303.113
303.113
303.113
303.114
303.114
303.117
303.116
303.115
303.115
303.114
303.113
303.113
303.113
303.112
303.112
303.112
303.113
303.113
303.114
303.117
303.116
303.115
303.114
303.113
303.113
303.112
303.112
303.112
303.112
303.112
303.112
303.113
303.113
303.116
303.115
303.114
303.114
303.113
303.112
303.112
303.112
303.112
303.112
303.112
303.112
303.112
303.113
303.116
303.115
303.114
303.113
303.113
303.112
303.112
303.112
303.111
303.111
303.111
303.112
303.112
303.113
303.116
303.115
303.114
303.113
303.113
303.112
303.112
303.111
303.111
303.111
303.111
303.112
303.112
303.113
303.116
303.115
303.114
303.113
303.113
303.112
303.112
303.112
303.111
303.111
303.111
303.112
303.112
303.113
303.116
303.115
303.114
303.114
303.113
303.113
303.112
303.112
303.112
303.112
303.112
303.112
303.112
303.113
303.117
303.116
303.115
303.114
303.113
303.113
303.112
303.112
303.112
303.112
303.112
303.112
303.113
303.113
302.908
302.906
302.904
302.903
302.902
302.902
302.901
302.901
302.902
302.902
302.903
302.904
302.905
302.906
302.906
302.904
302.903
302.902
302.901
302.9
302.9
302.9
302.9
302.9
302.901
302.902
302.903
302.904
302.904
302.903
302.901
302.9
302.899
302.898
302.898
302.898
302.898
302.899
302.9
302.901
302.902
302.903
302.903
302.902
302.9
302.899
302.898
302.897
302.897
302.897
302.897
302.897
302.898
302.899
302.901
302.902
302.902
302.901
302.899
302.898
302.897
302.896
302.896
302.896
302.896
302.896
302.897
302.898
302.9
302.901
302.902
302.9
302.898
302.897
302.896
302.895
302.895
302.895
302.895
302.896
302.896
302.898
302.899
302.9
302.901
302.899
302.898
302.896
302.895
302.895
302.894
302.894
302.895
302.895
302.896
302.897
302.898
302.9
302.901
302.899
302.898
302.896
302.895
302.895
302.894
302.894
302.894
302.895
302.896
302.897
302.898
302.9
302.901
302.899
302.898
302.896
302.895
302.895
302.894
302.894
302.895
302.895
302.896
302.897
302.899
302.9
302.901
302.9
302.898
302.897
302.896
302.895
302.895
302.895
302.895
302.896
302.896
302.898
302.899
302.9
302.902
302.9
302.899
302.898
302.897
302.896
302.896
302.896
302.896
302.896
302.897
302.898
302.9
302.901
302.903
302.901
302.9
302.899
302.898
302.897
302.897
302.897
302.897
302.897
302.898
302.899
302.9
302.902
302.904
302.902
302.901
302.9
302.899
302.899
302.898
302.898
302.898
302.899
302.899
302.9
302.901
302.903
302.906
302.904
302.903
302.902
302.901
302.9
302.9
302.899
302.899
302.9
302.9
302.901
302.903
302.904
302.718
302.716
302.715
302.714
302.713
302.712
302.712
302.712
302.712
302.713
302.714
302.715
302.716
302.717
302.716
302.715
302.713
302.712
302.711
302.71
302.71
302.71
302.71
302.711
302.712
302.713
302.714
302.715
302.715
302.713
302.712
302.711
302.71
302.709
302.709
302.709
302.709
302.709
302.71
302.711
302.713
302.714
302.714
302.712
302.711
302.709
302.708
302.708
302.707
302.707
302.708
302.708
302.709
302.71
302.712
302.713
302.713
302.711
302.71
302.708
302.707
302.707
302.706
302.706
302.707
302.707
302.708
302.709
302.711
302.712
302.712
302.711
302.709
302.708
302.707
302.706
302.706
302.706
302.706
302.706
302.707
302.709
302.71
302.712
302.712
302.71
302.709
302.707
302.706
302.706
302.705
302.705
302.705
302.706
302.707
302.708
302.71
302.711
302.712
302.71
302.709
302.707
302.706
302.706
302.705
302.705
302.705
302.706
302.707
302.708
302.71
302.711
302.712
302.71
302.709
302.708
302.707
302.706
302.706
302.706
302.706
302.706
302.707
302.709
302.71
302.712
302.713
302.711
302.71
302.708
302.707
302.707
302.706
302.706
302.706
302.707
302.708
302.709
302.711
302.712
302.713
302.712
302.71
302.709
302.708
302.708
302.707
302.707
302.707
302.708
302.709
302.71
302.712
302.713
302.715
302.713
302.712
302.71
302.71
302.709
302.708
302.708
302.709
302.709
302.71
302.711
302.713
302.714
302.716
302.715
302.713
302.712
302.711
302.71
302.71
302.71
302.71
302.711
302.711
302.712
302.714
302.715
302.718
302.716
302.715
302.714
302.713
302.712
302.712
302.711
302.712
302.712
302.713
302.714
302.715
302.717
302.549
302.548
302.547
302.546
302.546
302.545
302.545
302.545
302.545
302.546
302.546
302.546
302.547
302.548
302.548
302.547
302.546
302.545
302.545
302.544
302.544
302.544
302.544
302.544
302.545
302.545
302.546
302.547
302.547
302.546
302.545
302.544
302.544
302.543
302.543
302.543
302.543
302.543
302.544
302.544
302.545
302.546
302.547
302.546
302.545
302.544
302.543
302.543
302.542
302.542
302.542
302.543
302.543
302.544
302.544
302.545
302.546
302.545
302.544
302.543
302.542
302.542
302.542
302.542
302.542
302.542
302.543
302.543
302.544
302.545
302.546
302.545
302.544
302.543
302.542
302.542
302.541
302.541
302.541
302.542
302.542
302.543
302.544
302.544
302.545
302.544
302.543
302.543
302.542
302.541
302.541
302.541
302.541
302.541
302.542
302.543
302.543
302.544
302.545
302.544
302.543
302.543
302.542
302.541
302.541
302.541
302.541
302.541
302.542
302.543
302.543
302.544
302.546
302.544
302.544
302.543
302.542
302.542
302.541
302.541
302.541
302.542
302.542
302.543
302.544
302.545
302.546
302.545
302.544
302.543
302.542
302.542
302.542
302.542
302.542
302.542
302.542
302.543
302.544
302.545
302.546
302.545
302.544
302.544
302.543
302.543
302.542
302.542
302.542
302.543
302.543
302.544
302.545
302.545
302.547
302.546
302.545
302.544
302.544
302.543
302.543
302.543
302.543
302.543
302.544
302.544
302.545
302.546
302.548
302.547
302.546
302.545
302.545
302.544
302.544
302.544
302.544
302.544
302.544
302.545
302.546
302.547
302.549
302.548
302.547
302.546
302.546
302.545
302.545
302.545
302.545
302.545
302.545
302.546
302.546
302.547
302.395
302.395
302.395
302.395
302.395
302.395
302.395
302.395
302.395
302.394
302.394
302.394
302.394
302.394
302.395
302.395
302.395
302.395
302.395
302.395
302.395
302.395
302.394
302.394
302.394
302.394
302.394
302.394
302.395
302.395
302.395
302.395
302.395
302.395
302.395
302.394
302.394
302.394
302.394
302.394
302.394
302.394
302.395
302.395
302.395
302.395
302.395
302.395
302.395
302.394
302.394
302.394
302.394
302.394
302.394
302.393
302.395
302.395
302.395
302.395
302.395
302.395
302.394
302.394
302.394
302.394
302.394
302.394
302.394
302.393
302.395
302.395
302.395
302.395
302.395
302.395
302.394
302.394
302.394
302.394
302.394
302.394
302.393
302.393
302.395
302.395
302.395
302.395
302.395
302.394
302.394
302.394
302.394
302.394
302.394
302.394
302.393
302.393
302.395
302.395
302.395
302.395
302.395
302.394
302.394
302.394
302.394
302.394
302.394
302.394
302.393
302.393
302.395
302.395
302.395
302.395
302.394
302.394
302.394
302.394
302.394
302.394
302.394
302.393
302.393
302.393
302.395
302.395
302.395
302.395
302.394
302.394
302.394
302.394
302.394
302.394
302.394
302.393
302.393
302.393
302.395
302.395
302.395
302.394
302.394
302.394
302.394
302.394
302.394
302.394
302.393
302.393
302.393
302.393
302.395
302.395
302.395
302.394
302.394
302.394
302.394
302.394
302.394
302.394
302.393
302.393
302.393
302.393
302.395
302.395
302.395
302.394
302.394
302.394
302.394
302.394
302.394
302.393
302.393
302.393
302.393
302.393
302.395
302.395
302.394
302.394
302.394
302.394
302.394
302.394
302.393
302.393
302.393
302.393
302.393
302.393
302.252
302.253
302.254
302.254
302.254
302.255
302.254
302.254
302.254
302.254
302.253
302.252
302.252
302.251
302.253
302.254
302.254
302.255
302.255
302.255
302.255
302.255
302.255
302.254
302.254
302.253
302.252
302.251
302.253
302.254
302.255
302.255
302.256
302.256
302.256
302.256
302.255
302.255
302.254
302.254
302.253
302.252
302.254
302.255
302.255
302.256
302.256
302.256
302.256
302.256
302.256
302.256
302.255
302.254
302.253
302.252
302.254
302.255
302.256
302.256
302.257
302.257
302.257
302.257
302.256
302.256
302.255
302.254
302.254
302.253
302.254
302.255
302.256
302.256
302.257
302.257
302.257
302.257
302.257
302.256
302.255
302.255
302.254
302.253
302.254
302.255
302.256
302.257
302.257
302.257
302.257
302.257
302.257
302.256
302.256
302.255
302.254
302.253
302.254
302.255
302.256
302.256
302.257
302.257
302.257
302.257
302.257
302.256
302.255
302.255
302.254
302.252
302.254
302.255
302.256
302.256
302.257
302.257
302.257
302.257
302.256
302.256
302.255
302.254
302.253
302.252
302.254
302.255
302.255
302.256
302.256
302.256
302.256
302.256
302.256
302.255
302.255
302.254
302.253
302.252
302.253
302.254
302.255
302.255
302.255
302.256
302.256
302.255
302.255
302.255
302.254
302.253
302.252
302.251
302.253
302.253
302.254
302.254
302.255
302.255
302.255
302.255
302.254
302.254
302.253
302.252
302.252
302.251
302.252
302.252
302.253
302.253
302.254
302.254
302.254
302.254
302.253
302.253
302.252
302.252
302.251
302.25
302.251
302.251
302.252
302.252
302.253
302.253
302.253
302.253
302.252
302.252
302.251
302.251
302.25
302.249
302.115
302.116
302.118
302.118
302.119
302.119
302.119
302.119
302.119
302.118
302.117
302.116
302.116
302.117
302.119
302.119
302.12
302.121
302.121
302.121
302.12
302.119
302.119
302.118
302.117
302.118
302.12
302.121
302.121
302.122
302.122
302.122
302.121
302.121
302.12
302.119
302.118
302.119
302.12
302.121
302.122
302.123
302.123
302.123
302.122
302.122
302.121
302.12
302.119
302.12
302.121
302.122
302.123
302.123
302.123
302.123
302.123
302.122
302.121
302.12
302.119
302.12
302.122
302.122
302.123
302.124
302.124
302.124
302.123
302.123
302.122
302.121
302.119
302.12
302.122
302.123
302.123
302.124
302.124
302.124
302.123
302.123
302.122
302.121
302.119
302.12
302.122
302.122
302.123
302.124
302.124
302.124
302.123
302.123
302.122
302.12
302.119
302.12
302.121
302.122
302.123
302.123
302.123
302.123
302.123
302.122
302.121
302.12
302.118
302.119
302.12
302.121
302.122
302.122
302.123
302.122
302.122
302.121
302.12
302.119
302.117
302.118
302.12
302.12
302.121
302.121
302.122
302.122
302.121
302.12
302.12
302.118
302.116
302.117
302.118
302.119
302.12
302.12
302.12
302.12
302.12
302.119
302.118
302.117
302.115
302.116
302.117
302.118
302.118
302.119
302.119
302.119
302.119
302.118
302.117
302.116
302.113
302.114
302.115
302.116
302.117
302.117
302.117
302.117
302.117
302.116
302.116
302.115
306.95
306.982
307.012
307.041
307.068
307.094
306.936
306.973
307.008
307.044
307.079
307.112
306.931
306.972
307.012
307.051
307.088
307.123
306.925
306.969
307.011
307.052
307.091
307.127
306.68
306.693
306.708
306.722
306.737
306.751
306.68
306.7
306.72
306.739
306.758
306.776
306.685
306.709
306.733
306.755
306.776
306.797
306.69
306.716
306.742
306.766
306.789
306.81
306.693
306.721
306.748
306.774
306.797
306.819
306.696
306.725
306.753
306.779
306.802
306.822
306.7
306.729
306.756
306.782
306.804
306.823
306.387
306.385
306.385
306.383
306.382
306.381
306.4
306.4
306.402
306.402
306.403
306.404
306.412
306.415
306.419
306.421
306.423