/*--------------------------------*- C++ -*----------------------------------*\
| =========                 |                                                 |
| \\      /  F ield         | OpenFOAM: The Open Source CFD Toolbox           |
|  \\    /   O peration     | Version:  v2106                                 |
|   \\  /    A nd           | Website:  www.openfoam.com                      |
|    \\/     M anipulation  |                                                 |
\*---------------------------------------------------------------------------*/
FoamFile
{
    version     2.0;
    format      ascii;
    arch        "LSB;label=32;scalar=64";
    class       volScalarField;
    location    "0.000167";
    object      alphat;
}
// * * * * * * * * * * * * * * * * * * * * * * * * * * * * * * * * * * * * * //

dimensions      [1 -1 -1 0 0 0 0];

internalField   nonuniform List<scalar> 
17920
(
9.33434e-17
9.33447e-17
9.33419e-17
9.3343e-17
9.33406e-17
9.33417e-17
9.33395e-17
9.33407e-17
9.33387e-17
9.33399e-17
9.33381e-17
9.33394e-17
9.33377e-17
9.33391e-17
9.33377e-17
9.33391e-17
9.3338e-17
9.33394e-17
9.33385e-17
9.33398e-17
9.33392e-17
9.33405e-17
9.33401e-17
9.33414e-17
9.33411e-17
9.33425e-17
9.33422e-17
9.33437e-17
9.31855e-17
9.31845e-17
9.31837e-17
9.3183e-17
9.31824e-17
9.31821e-17
9.31819e-17
9.31818e-17
9.31819e-17
9.31822e-17
9.31826e-17
9.31831e-17
9.31837e-17
9.31843e-17
9.31847e-17
9.31838e-17
9.3183e-17
9.31822e-17
9.31816e-17
9.31812e-17
9.31809e-17
9.31809e-17
9.3181e-17
9.31813e-17
9.31817e-17
9.31822e-17
9.31828e-17
9.31833e-17
9.31839e-17
9.31831e-17
9.31821e-17
9.31814e-17
9.31808e-17
9.31804e-17
9.31801e-17
9.318e-17
9.31801e-17
9.31804e-17
9.31808e-17
9.31813e-17
9.3182e-17
9.31825e-17
9.31833e-17
9.31824e-17
9.31815e-17
9.31807e-17
9.31801e-17
9.31797e-17
9.31794e-17
9.31793e-17
9.31794e-17
9.31797e-17
9.31801e-17
9.31806e-17
9.31812e-17
9.31818e-17
9.31827e-17
9.31818e-17
9.31809e-17
9.31801e-17
9.31795e-17
9.31791e-17
9.31788e-17
9.31787e-17
9.31788e-17
9.31791e-17
9.31795e-17
9.318e-17
9.31806e-17
9.31812e-17
9.31823e-17
9.31814e-17
9.31805e-17
9.31797e-17
9.31791e-17
9.31787e-17
9.31784e-17
9.31783e-17
9.31784e-17
9.31786e-17
9.3179e-17
9.31795e-17
9.31802e-17
9.31809e-17
9.3182e-17
9.31811e-17
9.31802e-17
9.31795e-17
9.31789e-17
9.31784e-17
9.31782e-17
9.31781e-17
9.31781e-17
9.31784e-17
9.31788e-17
9.31793e-17
9.31799e-17
9.31807e-17
9.31819e-17
9.3181e-17
9.31801e-17
9.31794e-17
9.31788e-17
9.31784e-17
9.31781e-17
9.3178e-17
9.31781e-17
9.31783e-17
9.31787e-17
9.31792e-17
9.31799e-17
9.31806e-17
9.31819e-17
9.3181e-17
9.31802e-17
9.31795e-17
9.31789e-17
9.31785e-17
9.31782e-17
9.31781e-17
9.31781e-17
9.31784e-17
9.31788e-17
9.31793e-17
9.318e-17
9.31807e-17
9.31821e-17
9.31813e-17
9.31804e-17
9.31797e-17
9.31791e-17
9.31787e-17
9.31784e-17
9.31783e-17
9.31784e-17
9.31786e-17
9.3179e-17
9.31795e-17
9.31802e-17
9.31809e-17
9.31825e-17
9.31817e-17
9.31809e-17
9.31802e-17
9.31796e-17
9.31791e-17
9.31788e-17
9.31787e-17
9.31788e-17
9.3179e-17
9.31794e-17
9.31799e-17
9.31806e-17
9.31813e-17
9.3183e-17
9.31822e-17
9.31814e-17
9.31807e-17
9.31801e-17
9.31797e-17
9.31794e-17
9.31792e-17
9.31793e-17
9.31795e-17
9.31799e-17
9.31804e-17
9.31811e-17
9.31818e-17
9.31836e-17
9.31829e-17
9.31821e-17
9.31814e-17
9.31808e-17
9.31803e-17
9.318e-17
9.31799e-17
9.31799e-17
9.31801e-17
9.31805e-17
9.3181e-17
9.31817e-17
9.31824e-17
9.31843e-17
9.31835e-17
9.31827e-17
9.31821e-17
9.31815e-17
9.31811e-17
9.31808e-17
9.31806e-17
9.31806e-17
9.31808e-17
9.31811e-17
9.31815e-17
9.31822e-17
9.31829e-17
9.30383e-17
9.30382e-17
9.30381e-17
9.3038e-17
9.30379e-17
9.30378e-17
9.30377e-17
9.30376e-17
9.30375e-17
9.30373e-17
9.30372e-17
9.30371e-17
9.30371e-17
9.30369e-17
9.30383e-17
9.30383e-17
9.30381e-17
9.3038e-17
9.30378e-17
9.30377e-17
9.30376e-17
9.30375e-17
9.30374e-17
9.30373e-17
9.30372e-17
9.30371e-17
9.3037e-17
9.30368e-17
9.30381e-17
9.30381e-17
9.30379e-17
9.30379e-17
9.30377e-17
9.30376e-17
9.30375e-17
9.30374e-17
9.30373e-17
9.30372e-17
9.3037e-17
9.30369e-17
9.30368e-17
9.30366e-17
9.3038e-17
9.3038e-17
9.30378e-17
9.30378e-17
9.30377e-17
9.30376e-17
9.30374e-17
9.30373e-17
9.30372e-17
9.30371e-17
9.3037e-17
9.30368e-17
9.30367e-17
9.30365e-17
9.30379e-17
9.30378e-17
9.30377e-17
9.30377e-17
9.30376e-17
9.30375e-17
9.30373e-17
9.30372e-17
9.30371e-17
9.3037e-17
9.30368e-17
9.30367e-17
9.30366e-17
9.30364e-17
9.30378e-17
9.30377e-17
9.30376e-17
9.30376e-17
9.30375e-17
9.30374e-17
9.30373e-17
9.30371e-17
9.3037e-17
9.30369e-17
9.30367e-17
9.30366e-17
9.30364e-17
9.30363e-17
9.30376e-17
9.30376e-17
9.30375e-17
9.30375e-17
9.30374e-17
9.30373e-17
9.30372e-17
9.3037e-17
9.30369e-17
9.30368e-17
9.30366e-17
9.30365e-17
9.30363e-17
9.30361e-17
9.30376e-17
9.30375e-17
9.30374e-17
9.30374e-17
9.30373e-17
9.30372e-17
9.3037e-17
9.30369e-17
9.30368e-17
9.30366e-17
9.30365e-17
9.30364e-17
9.30362e-17
9.3036e-17
9.30375e-17
9.30374e-17
9.30373e-17
9.30373e-17
9.30372e-17
9.30371e-17
9.30369e-17
9.30368e-17
9.30367e-17
9.30365e-17
9.30364e-17
9.30362e-17
9.30361e-17
9.30359e-17
9.30374e-17
9.30373e-17
9.30372e-17
9.30372e-17
9.30371e-17
9.30369e-17
9.30368e-17
9.30367e-17
9.30365e-17
9.30364e-17
9.30363e-17
9.30361e-17
9.3036e-17
9.30358e-17
9.30373e-17
9.30373e-17
9.30371e-17
9.3037e-17
9.30369e-17
9.30368e-17
9.30367e-17
9.30365e-17
9.30364e-17
9.30363e-17
9.30361e-17
9.3036e-17
9.30359e-17
9.30357e-17
9.30372e-17
9.30371e-17
9.3037e-17
9.30369e-17
9.30368e-17
9.30367e-17
9.30365e-17
9.30364e-17
9.30362e-17
9.30361e-17
9.3036e-17
9.30358e-17
9.30358e-17
9.30356e-17
9.30371e-17
9.30371e-17
9.30369e-17
9.30368e-17
9.30366e-17
9.30365e-17
9.30363e-17
9.30362e-17
9.3036e-17
9.30359e-17
9.30358e-17
9.30357e-17
9.30357e-17
9.30355e-17
9.30368e-17
9.30368e-17
9.30367e-17
9.30365e-17
9.30364e-17
9.30363e-17
9.30361e-17
9.3036e-17
9.30359e-17
9.30357e-17
9.30356e-17
9.30355e-17
9.30354e-17
9.30352e-17
9.28995e-17
9.29003e-17
9.29009e-17
9.29013e-17
9.29016e-17
9.29018e-17
9.29018e-17
9.29017e-17
9.29014e-17
9.2901e-17
9.29005e-17
9.28998e-17
9.28991e-17
9.28983e-17
9.29001e-17
9.29009e-17
9.29015e-17
9.2902e-17
9.29023e-17
9.29025e-17
9.29025e-17
9.29024e-17
9.29021e-17
9.29017e-17
9.29012e-17
9.29005e-17
9.28998e-17
9.28989e-17
9.29006e-17
9.29014e-17
9.2902e-17
9.29026e-17
9.29029e-17
9.29031e-17
9.29032e-17
9.2903e-17
9.29028e-17
9.29023e-17
9.29018e-17
9.29011e-17
9.29003e-17
9.28994e-17
9.2901e-17
9.29018e-17
9.29025e-17
9.2903e-17
9.29034e-17
9.29036e-17
9.29037e-17
9.29035e-17
9.29033e-17
9.29028e-17
9.29023e-17
9.29015e-17
9.29007e-17
9.28998e-17
9.29013e-17
9.29021e-17
9.29028e-17
9.29034e-17
9.29037e-17
9.2904e-17
9.2904e-17
9.29039e-17
9.29036e-17
9.29032e-17
9.29026e-17
9.29019e-17
9.2901e-17
9.29001e-17
9.29015e-17
9.29023e-17
9.2903e-17
9.29035e-17
9.29039e-17
9.29042e-17
9.29042e-17
9.29041e-17
9.29038e-17
9.29034e-17
9.29028e-17
9.29021e-17
9.29012e-17
9.29003e-17
9.29016e-17
9.29024e-17
9.29031e-17
9.29036e-17
9.2904e-17
9.29042e-17
9.29043e-17
9.29042e-17
9.29039e-17
9.29034e-17
9.29028e-17
9.29021e-17
9.29012e-17
9.29002e-17
9.29015e-17
9.29023e-17
9.2903e-17
9.29035e-17
9.29039e-17
9.29041e-17
9.29041e-17
9.2904e-17
9.29037e-17
9.29033e-17
9.29027e-17
9.29019e-17
9.2901e-17
9.29001e-17
9.29013e-17
9.2902e-17
9.29027e-17
9.29032e-17
9.29036e-17
9.29038e-17
9.29038e-17
9.29037e-17
9.29034e-17
9.2903e-17
9.29024e-17
9.29016e-17
9.29007e-17
9.28998e-17
9.29009e-17
9.29016e-17
9.29023e-17
9.29028e-17
9.29031e-17
9.29033e-17
9.29034e-17
9.29033e-17
9.2903e-17
9.29025e-17
9.29019e-17
9.29012e-17
9.29003e-17
9.28994e-17
9.29004e-17
9.29011e-17
9.29017e-17
9.29022e-17
9.29025e-17
9.29027e-17
9.29028e-17
9.29026e-17
9.29024e-17
9.29019e-17
9.29013e-17
9.29006e-17
9.28998e-17
9.28988e-17
9.28998e-17
9.29004e-17
9.29009e-17
9.29014e-17
9.29017e-17
9.29019e-17
9.2902e-17
9.29019e-17
9.29016e-17
9.29012e-17
9.29006e-17
9.28999e-17
9.28991e-17
9.28981e-17
9.2899e-17
9.28996e-17
9.29001e-17
9.29005e-17
9.29008e-17
9.2901e-17
9.2901e-17
9.29009e-17
9.29007e-17
9.29003e-17
9.28998e-17
9.28991e-17
9.28983e-17
9.28974e-17
9.2898e-17
9.28985e-17
9.28991e-17
9.28995e-17
9.28998e-17
9.29e-17
9.29e-17
9.28999e-17
9.28997e-17
9.28993e-17
9.28988e-17
9.28982e-17
9.28974e-17
9.28966e-17
9.27656e-17
9.27668e-17
9.27679e-17
9.27687e-17
9.27693e-17
9.27697e-17
9.27698e-17
9.27697e-17
9.27693e-17
9.27688e-17
9.2768e-17
9.2767e-17
9.27658e-17
9.27646e-17
9.27665e-17
9.27678e-17
9.27689e-17
9.27698e-17
9.27705e-17
9.27709e-17
9.2771e-17
9.27709e-17
9.27706e-17
9.277e-17
9.27691e-17
9.27681e-17
9.2767e-17
9.27657e-17
9.27675e-17
9.27688e-17
9.27699e-17
9.27708e-17
9.27715e-17
9.2772e-17
9.27721e-17
9.2772e-17
9.27717e-17
9.27711e-17
9.27702e-17
9.27692e-17
9.2768e-17
9.27667e-17
9.27683e-17
9.27696e-17
9.27707e-17
9.27717e-17
9.27723e-17
9.27728e-17
9.2773e-17
9.27729e-17
9.27725e-17
9.27719e-17
9.27711e-17
9.27701e-17
9.27688e-17
9.27675e-17
9.27689e-17
9.27702e-17
9.27713e-17
9.27723e-17
9.2773e-17
9.27734e-17
9.27736e-17
9.27735e-17
9.27731e-17
9.27725e-17
9.27717e-17
9.27707e-17
9.27694e-17
9.2768e-17
9.27692e-17
9.27706e-17
9.27717e-17
9.27726e-17
9.27733e-17
9.27738e-17
9.2774e-17
9.27739e-17
9.27735e-17
9.27729e-17
9.27721e-17
9.2771e-17
9.27697e-17
9.27683e-17
9.27694e-17
9.27707e-17
9.27719e-17
9.27728e-17
9.27735e-17
9.27739e-17
9.27741e-17
9.2774e-17
9.27737e-17
9.27731e-17
9.27722e-17
9.27711e-17
9.27698e-17
9.27684e-17
9.27694e-17
9.27706e-17
9.27718e-17
9.27727e-17
9.27733e-17
9.27738e-17
9.2774e-17
9.27739e-17
9.27735e-17
9.27729e-17
9.2772e-17
9.2771e-17
9.27696e-17
9.27682e-17
9.2769e-17
9.27703e-17
9.27714e-17
9.27723e-17
9.27729e-17
9.27734e-17
9.27735e-17
9.27735e-17
9.27731e-17
9.27725e-17
9.27716e-17
9.27706e-17
9.27692e-17
9.27678e-17
9.27685e-17
9.27696e-17
9.27708e-17
9.27716e-17
9.27723e-17
9.27727e-17
9.27729e-17
9.27728e-17
9.27724e-17
9.27719e-17
9.2771e-17
9.27699e-17
9.27686e-17
9.27671e-17
9.27677e-17
9.27688e-17
9.27699e-17
9.27707e-17
9.27714e-17
9.27718e-17
9.2772e-17
9.27719e-17
9.27715e-17
9.2771e-17
9.27701e-17
9.2769e-17
9.27677e-17
9.27663e-17
9.27667e-17
9.27677e-17
9.27687e-17
9.27696e-17
9.27702e-17
9.27706e-17
9.27708e-17
9.27708e-17
9.27704e-17
9.27699e-17
9.2769e-17
9.2768e-17
9.27667e-17
9.27653e-17
9.27654e-17
9.27664e-17
9.27674e-17
9.27682e-17
9.27688e-17
9.27692e-17
9.27695e-17
9.27694e-17
9.27691e-17
9.27685e-17
9.27678e-17
9.27667e-17
9.27655e-17
9.27641e-17
9.27639e-17
9.27649e-17
9.27659e-17
9.27667e-17
9.27673e-17
9.27677e-17
9.27679e-17
9.27679e-17
9.27676e-17
9.27672e-17
9.27664e-17
9.27655e-17
9.27643e-17
9.27629e-17
9.26339e-17
9.26353e-17
9.26365e-17
9.26374e-17
9.26381e-17
9.26386e-17
9.26388e-17
9.26387e-17
9.26383e-17
9.26377e-17
9.26369e-17
9.26359e-17
9.26346e-17
9.26333e-17
9.2635e-17
9.26364e-17
9.26376e-17
9.26386e-17
9.26394e-17
9.26399e-17
9.26401e-17
9.264e-17
9.26397e-17
9.2639e-17
9.26382e-17
9.26371e-17
9.26359e-17
9.26345e-17
9.26361e-17
9.26375e-17
9.26388e-17
9.26398e-17
9.26405e-17
9.2641e-17
9.26413e-17
9.26412e-17
9.26408e-17
9.26402e-17
9.26394e-17
9.26383e-17
9.2637e-17
9.26356e-17
9.2637e-17
9.26384e-17
9.26397e-17
9.26407e-17
9.26414e-17
9.26419e-17
9.26422e-17
9.26421e-17
9.26417e-17
9.26412e-17
9.26403e-17
9.26392e-17
9.26379e-17
9.26365e-17
9.26376e-17
9.26391e-17
9.26403e-17
9.26413e-17
9.26421e-17
9.26426e-17
9.26428e-17
9.26428e-17
9.26424e-17
9.26418e-17
9.2641e-17
9.26399e-17
9.26385e-17
9.26371e-17
9.26381e-17
9.26395e-17
9.26408e-17
9.26417e-17
9.26425e-17
9.2643e-17
9.26432e-17
9.26432e-17
9.26428e-17
9.26422e-17
9.26414e-17
9.26403e-17
9.26389e-17
9.26374e-17
9.26383e-17
9.26397e-17
9.26409e-17
9.26419e-17
9.26427e-17
9.26432e-17
9.26434e-17
9.26433e-17
9.2643e-17
9.26424e-17
9.26415e-17
9.26404e-17
9.2639e-17
9.26375e-17
9.26382e-17
9.26396e-17
9.26408e-17
9.26418e-17
9.26425e-17
9.2643e-17
9.26432e-17
9.26432e-17
9.26428e-17
9.26422e-17
9.26413e-17
9.26402e-17
9.26388e-17
9.26373e-17
9.26378e-17
9.26392e-17
9.26404e-17
9.26413e-17
9.26421e-17
9.26426e-17
9.26428e-17
9.26427e-17
9.26424e-17
9.26418e-17
9.26409e-17
9.26398e-17
9.26384e-17
9.26369e-17
9.26372e-17
9.26385e-17
9.26397e-17
9.26406e-17
9.26414e-17
9.26419e-17
9.26421e-17
9.26421e-17
9.26417e-17
9.26411e-17
9.26402e-17
9.26391e-17
9.26377e-17
9.26362e-17
9.26363e-17
9.26375e-17
9.26387e-17
9.26397e-17
9.26404e-17
9.26409e-17
9.26412e-17
9.26411e-17
9.26408e-17
9.26402e-17
9.26393e-17
9.26382e-17
9.26368e-17
9.26353e-17
9.26352e-17
9.26363e-17
9.26375e-17
9.26385e-17
9.26392e-17
9.26397e-17
9.264e-17
9.26399e-17
9.26396e-17
9.2639e-17
9.26382e-17
9.26371e-17
9.26357e-17
9.26342e-17
9.26338e-17
9.26349e-17
9.2636e-17
9.2637e-17
9.26377e-17
9.26382e-17
9.26385e-17
9.26385e-17
9.26382e-17
9.26376e-17
9.26368e-17
9.26357e-17
9.26344e-17
9.26329e-17
9.26323e-17
9.26333e-17
9.26345e-17
9.26354e-17
9.26361e-17
9.26366e-17
9.26369e-17
9.26369e-17
9.26367e-17
9.26362e-17
9.26354e-17
9.26344e-17
9.2633e-17
9.26317e-17
9.25036e-17
9.25047e-17
9.25057e-17
9.25065e-17
9.25071e-17
9.25075e-17
9.25076e-17
9.25076e-17
9.25073e-17
9.25068e-17
9.25062e-17
9.25053e-17
9.25042e-17
9.25031e-17
9.25045e-17
9.25056e-17
9.25067e-17
9.25075e-17
9.25081e-17
9.25085e-17
9.25088e-17
9.25087e-17
9.25084e-17
9.25079e-17
9.25072e-17
9.25063e-17
9.25053e-17
9.25041e-17
9.25054e-17
9.25066e-17
9.25076e-17
9.25084e-17
9.25091e-17
9.25095e-17
9.25097e-17
9.25096e-17
9.25094e-17
9.25089e-17
9.25082e-17
9.25073e-17
9.25062e-17
9.2505e-17
9.25062e-17
9.25073e-17
9.25083e-17
9.25092e-17
9.25098e-17
9.25102e-17
9.25104e-17
9.25104e-17
9.25101e-17
9.25096e-17
9.25089e-17
9.2508e-17
9.25069e-17
9.25057e-17
9.25067e-17
9.25079e-17
9.25089e-17
9.25097e-17
9.25103e-17
9.25107e-17
9.25109e-17
9.25109e-17
9.25106e-17
9.25102e-17
9.25094e-17
9.25086e-17
9.25074e-17
9.25062e-17
9.2507e-17
9.25082e-17
9.25092e-17
9.251e-17
9.25107e-17
9.25111e-17
9.25113e-17
9.25112e-17
9.25109e-17
9.25105e-17
9.25098e-17
9.25089e-17
9.25078e-17
9.25065e-17
9.25071e-17
9.25083e-17
9.25093e-17
9.25101e-17
9.25107e-17
9.25111e-17
9.25113e-17
9.25113e-17
9.2511e-17
9.25105e-17
9.25098e-17
9.25089e-17
9.25078e-17
9.25066e-17
9.2507e-17
9.25082e-17
9.25092e-17
9.251e-17
9.25106e-17
9.2511e-17
9.25112e-17
9.25111e-17
9.25109e-17
9.25104e-17
9.25097e-17
9.25088e-17
9.25077e-17
9.25064e-17
9.25067e-17
9.25078e-17
9.25088e-17
9.25096e-17
9.25102e-17
9.25106e-17
9.25108e-17
9.25108e-17
9.25105e-17
9.251e-17
9.25093e-17
9.25084e-17
9.25073e-17
9.2506e-17
9.25061e-17
9.25072e-17
9.25082e-17
9.2509e-17
9.25096e-17
9.251e-17
9.25102e-17
9.25102e-17
9.25099e-17
9.25095e-17
9.25087e-17
9.25078e-17
9.25067e-17
9.25055e-17
9.25054e-17
9.25064e-17
9.25074e-17
9.25082e-17
9.25088e-17
9.25092e-17
9.25095e-17
9.25094e-17
9.25092e-17
9.25087e-17
9.2508e-17
9.25071e-17
9.25059e-17
9.25047e-17
9.25044e-17
9.25054e-17
9.25064e-17
9.25072e-17
9.25078e-17
9.25083e-17
9.25085e-17
9.25085e-17
9.25082e-17
9.25077e-17
9.2507e-17
9.25061e-17
9.2505e-17
9.25038e-17
9.25032e-17
9.25042e-17
9.25052e-17
9.2506e-17
9.25066e-17
9.25071e-17
9.25073e-17
9.25073e-17
9.2507e-17
9.25066e-17
9.25059e-17
9.2505e-17
9.25039e-17
9.25027e-17
9.25019e-17
9.25029e-17
9.25039e-17
9.25047e-17
9.25053e-17
9.25057e-17
9.2506e-17
9.2506e-17
9.25057e-17
9.25053e-17
9.25047e-17
9.25038e-17
9.25027e-17
9.25016e-17
9.23749e-17
9.23756e-17
9.23762e-17
9.23767e-17
9.2377e-17
9.23773e-17
9.23774e-17
9.23774e-17
9.23772e-17
9.2377e-17
9.23766e-17
9.2376e-17
9.23753e-17
9.23745e-17
9.23756e-17
9.23762e-17
9.23768e-17
9.23773e-17
9.23777e-17
9.2378e-17
9.23781e-17
9.23781e-17
9.23779e-17
9.23776e-17
9.23772e-17
9.23766e-17
9.23759e-17
9.23752e-17
9.23762e-17
9.23768e-17
9.23774e-17
9.23779e-17
9.23783e-17
9.23785e-17
9.23786e-17
9.23786e-17
9.23784e-17
9.23781e-17
9.23777e-17
9.23772e-17
9.23764e-17
9.23757e-17
9.23766e-17
9.23772e-17
9.23778e-17
9.23783e-17
9.23787e-17
9.23789e-17
9.2379e-17
9.2379e-17
9.23788e-17
9.23785e-17
9.23781e-17
9.23776e-17
9.23769e-17
9.23761e-17
9.23769e-17
9.23776e-17
9.23781e-17
9.23786e-17
9.2379e-17
9.23792e-17
9.23793e-17
9.23792e-17
9.23791e-17
9.23788e-17
9.23784e-17
9.23778e-17
9.23772e-17
9.23764e-17
9.2377e-17
9.23777e-17
9.23783e-17
9.23788e-17
9.23791e-17
9.23793e-17
9.23794e-17
9.23794e-17
9.23792e-17
9.23789e-17
9.23785e-17
9.2378e-17
9.23773e-17
9.23765e-17
9.2377e-17
9.23777e-17
9.23783e-17
9.23788e-17
9.23791e-17
9.23793e-17
9.23794e-17
9.23794e-17
9.23792e-17
9.2379e-17
9.23785e-17
9.2378e-17
9.23774e-17
9.23766e-17
9.23769e-17
9.23776e-17
9.23782e-17
9.23787e-17
9.2379e-17
9.23792e-17
9.23793e-17
9.23793e-17
9.23791e-17
9.23788e-17
9.23784e-17
9.23779e-17
9.23772e-17
9.23765e-17
9.23766e-17
9.23774e-17
9.23779e-17
9.23784e-17
9.23788e-17
9.2379e-17
9.23791e-17
9.23791e-17
9.23789e-17
9.23786e-17
9.23782e-17
9.23776e-17
9.2377e-17
9.23762e-17
9.23763e-17
9.2377e-17
9.23776e-17
9.2378e-17
9.23784e-17
9.23786e-17
9.23787e-17
9.23787e-17
9.23785e-17
9.23782e-17
9.23778e-17
9.23773e-17
9.23766e-17
9.23759e-17
9.23758e-17
9.23764e-17
9.23771e-17
9.23775e-17
9.23779e-17
9.23781e-17
9.23782e-17
9.23782e-17
9.2378e-17
9.23777e-17
9.23773e-17
9.23768e-17
9.23761e-17
9.23754e-17
9.23752e-17
9.23758e-17
9.23764e-17
9.23769e-17
9.23773e-17
9.23775e-17
9.23776e-17
9.23776e-17
9.23774e-17
9.23772e-17
9.23767e-17
9.23762e-17
9.23755e-17
9.23748e-17
9.23744e-17
9.23751e-17
9.23757e-17
9.23762e-17
9.23766e-17
9.23768e-17
9.23769e-17
9.23769e-17
9.23767e-17
9.23764e-17
9.2376e-17
9.23754e-17
9.23748e-17
9.23741e-17
9.23736e-17
9.23743e-17
9.23749e-17
9.23754e-17
9.23758e-17
9.2376e-17
9.23761e-17
9.23761e-17
9.23759e-17
9.23756e-17
9.23752e-17
9.23747e-17
9.2374e-17
9.23733e-17
9.22501e-17
9.22503e-17
9.22503e-17
9.22504e-17
9.22505e-17
9.22505e-17
9.22505e-17
9.22506e-17
9.22505e-17
9.22505e-17
9.22504e-17
9.22503e-17
9.22501e-17
9.22498e-17
9.22504e-17
9.22504e-17
9.22505e-17
9.22506e-17
9.22507e-17
9.22507e-17
9.22507e-17
9.22507e-17
9.22507e-17
9.22506e-17
9.22505e-17
9.22503e-17
9.22501e-17
9.22499e-17
9.22505e-17
9.22505e-17
9.22507e-17
9.22507e-17
9.22508e-17
9.22508e-17
9.22508e-17
9.22508e-17
9.22507e-17
9.22507e-17
9.22506e-17
9.22504e-17
9.22502e-17
9.225e-17
9.22505e-17
9.22506e-17
9.22507e-17
9.22508e-17
9.22508e-17
9.22509e-17
9.22509e-17
9.22508e-17
9.22508e-17
9.22507e-17
9.22506e-17
9.22505e-17
9.22503e-17
9.225e-17
9.22505e-17
9.22507e-17
9.22508e-17
9.22508e-17
9.22509e-17
9.22509e-17
9.22509e-17
9.22509e-17
9.22508e-17
9.22507e-17
9.22506e-17
9.22505e-17
9.22503e-17
9.22501e-17
9.22505e-17
9.22506e-17
9.22507e-17
9.22508e-17
9.22509e-17
9.22509e-17
9.22509e-17
9.22509e-17
9.22508e-17
9.22507e-17
9.22506e-17
9.22505e-17
9.22503e-17
9.22501e-17
9.22504e-17
9.22506e-17
9.22507e-17
9.22508e-17
9.22508e-17
9.22508e-17
9.22508e-17
9.22508e-17
9.22508e-17
9.22507e-17
9.22506e-17
9.22504e-17
9.22503e-17
9.22501e-17
9.22503e-17
9.22505e-17
9.22506e-17
9.22507e-17
9.22507e-17
9.22508e-17
9.22508e-17
9.22507e-17
9.22507e-17
9.22506e-17
9.22505e-17
9.22504e-17
9.22503e-17
9.225e-17
9.22502e-17
9.22504e-17
9.22505e-17
9.22506e-17
9.22507e-17
9.22507e-17
9.22507e-17
9.22507e-17
9.22506e-17
9.22505e-17
9.22504e-17
9.22503e-17
9.22502e-17
9.225e-17
9.225e-17
9.22502e-17
9.22504e-17
9.22505e-17
9.22505e-17
9.22506e-17
9.22506e-17
9.22506e-17
9.22505e-17
9.22504e-17
9.22503e-17
9.22502e-17
9.22501e-17
9.22499e-17
9.22499e-17
9.22501e-17
9.22502e-17
9.22503e-17
9.22504e-17
9.22504e-17
9.22504e-17
9.22504e-17
9.22504e-17
9.22503e-17
9.22502e-17
9.22501e-17
9.22499e-17
9.22498e-17
9.22497e-17
9.22499e-17
9.22501e-17
9.22502e-17
9.22503e-17
9.22503e-17
9.22503e-17
9.22502e-17
9.22502e-17
9.22501e-17
9.225e-17
9.22499e-17
9.22497e-17
9.22496e-17
9.22496e-17
9.22497e-17
9.22499e-17
9.225e-17
9.22501e-17
9.22501e-17
9.22501e-17
9.22501e-17
9.225e-17
9.22499e-17
9.22498e-17
9.22497e-17
9.22495e-17
9.22494e-17
9.22494e-17
9.22496e-17
9.22498e-17
9.22499e-17
9.22499e-17
9.22499e-17
9.22499e-17
9.22498e-17
9.22497e-17
9.22496e-17
9.22495e-17
9.22494e-17
9.22493e-17
9.22491e-17
9.21317e-17
9.21312e-17
9.21309e-17
9.21306e-17
9.21304e-17
9.21303e-17
9.21303e-17
9.21303e-17
9.21304e-17
9.21305e-17
9.21307e-17
9.2131e-17
9.21312e-17
9.21315e-17
9.21313e-17
9.2131e-17
9.21307e-17
9.21304e-17
9.21302e-17
9.21301e-17
9.21301e-17
9.21301e-17
9.21301e-17
9.21303e-17
9.21304e-17
9.21306e-17
9.21308e-17
9.21311e-17
9.21311e-17
9.21307e-17
9.21304e-17
9.21302e-17
9.213e-17
9.21299e-17
9.21298e-17
9.21298e-17
9.21299e-17
9.213e-17
9.21301e-17
9.21303e-17
9.21306e-17
9.21308e-17
9.21308e-17
9.21305e-17
9.21302e-17
9.213e-17
9.21298e-17
9.21297e-17
9.21296e-17
9.21296e-17
9.21297e-17
9.21298e-17
9.21299e-17
9.21301e-17
9.21303e-17
9.21306e-17
9.21306e-17
9.21304e-17
9.213e-17
9.21298e-17
9.21296e-17
9.21295e-17
9.21294e-17
9.21294e-17
9.21295e-17
9.21296e-17
9.21297e-17
9.21299e-17
9.21302e-17
9.21304e-17
9.21305e-17
9.21302e-17
9.21299e-17
9.21297e-17
9.21295e-17
9.21294e-17
9.21293e-17
9.21293e-17
9.21294e-17
9.21295e-17
9.21296e-17
9.21298e-17
9.21301e-17
9.21303e-17
9.21304e-17
9.21301e-17
9.21298e-17
9.21296e-17
9.21295e-17
9.21293e-17
9.21293e-17
9.21293e-17
9.21293e-17
9.21294e-17
9.21296e-17
9.21298e-17
9.21301e-17
9.21303e-17
9.21303e-17
9.21301e-17
9.21298e-17
9.21296e-17
9.21295e-17
9.21294e-17
9.21293e-17
9.21293e-17
9.21293e-17
9.21294e-17
9.21296e-17
9.21298e-17
9.21301e-17
9.21304e-17
9.21304e-17
9.21301e-17
9.21299e-17
9.21297e-17
9.21295e-17
9.21294e-17
9.21293e-17
9.21293e-17
9.21294e-17
9.21295e-17
9.21297e-17
9.21299e-17
9.21302e-17
9.21305e-17
9.21305e-17
9.21303e-17
9.213e-17
9.21298e-17
9.21297e-17
9.21295e-17
9.21295e-17
9.21295e-17
9.21295e-17
9.21296e-17
9.21298e-17
9.213e-17
9.21303e-17
9.21306e-17
9.21306e-17
9.21304e-17
9.21302e-17
9.213e-17
9.21298e-17
9.21297e-17
9.21296e-17
9.21296e-17
9.21297e-17
9.21298e-17
9.213e-17
9.21302e-17
9.21305e-17
9.21308e-17
9.21309e-17
9.21307e-17
9.21304e-17
9.21302e-17
9.21301e-17
9.213e-17
9.21299e-17
9.21298e-17
9.21299e-17
9.213e-17
9.21301e-17
9.21304e-17
9.21307e-17
9.2131e-17
9.21312e-17
9.2131e-17
9.21307e-17
9.21306e-17
9.21304e-17
9.21302e-17
9.21301e-17
9.21301e-17
9.21301e-17
9.21302e-17
9.21304e-17
9.21306e-17
9.21309e-17
9.21313e-17
9.21317e-17
9.21314e-17
9.21311e-17
9.21309e-17
9.21307e-17
9.21305e-17
9.21304e-17
9.21304e-17
9.21304e-17
9.21304e-17
9.21306e-17
9.21308e-17
9.21311e-17
9.21315e-17
9.20214e-17
9.20207e-17
9.20202e-17
9.20198e-17
9.20195e-17
9.20194e-17
9.20193e-17
9.20193e-17
9.20195e-17
9.20197e-17
9.202e-17
9.20204e-17
9.20209e-17
9.20216e-17
9.20208e-17
9.20203e-17
9.20198e-17
9.20194e-17
9.20191e-17
9.20189e-17
9.20189e-17
9.20189e-17
9.2019e-17
9.20193e-17
9.20196e-17
9.202e-17
9.20204e-17
9.20209e-17
9.20204e-17
9.20199e-17
9.20194e-17
9.2019e-17
9.20187e-17
9.20185e-17
9.20185e-17
9.20185e-17
9.20186e-17
9.20188e-17
9.20191e-17
9.20195e-17
9.202e-17
9.20205e-17
9.202e-17
9.20196e-17
9.20191e-17
9.20187e-17
9.20184e-17
9.20182e-17
9.20182e-17
9.20182e-17
9.20183e-17
9.20185e-17
9.20188e-17
9.20192e-17
9.20197e-17
9.20202e-17
9.20198e-17
9.20193e-17
9.20188e-17
9.20185e-17
9.20182e-17
9.2018e-17
9.20179e-17
9.2018e-17
9.20181e-17
9.20183e-17
9.20186e-17
9.2019e-17
9.20195e-17
9.202e-17
9.20196e-17
9.20191e-17
9.20187e-17
9.20183e-17
9.20181e-17
9.20179e-17
9.20178e-17
9.20178e-17
9.2018e-17
9.20182e-17
9.20185e-17
9.20189e-17
9.20193e-17
9.20199e-17
9.20196e-17
9.20191e-17
9.20186e-17
9.20183e-17
9.2018e-17
9.20179e-17
9.20178e-17
9.20178e-17
9.20179e-17
9.20181e-17
9.20185e-17
9.20188e-17
9.20193e-17
9.20198e-17
9.20196e-17
9.20192e-17
9.20187e-17
9.20184e-17
9.20181e-17
9.2018e-17
9.20179e-17
9.20179e-17
9.2018e-17
9.20182e-17
9.20185e-17
9.20189e-17
9.20194e-17
9.202e-17
9.20198e-17
9.20193e-17
9.20189e-17
9.20186e-17
9.20183e-17
9.20181e-17
9.2018e-17
9.20181e-17
9.20182e-17
9.20184e-17
9.20187e-17
9.20191e-17
9.20196e-17
9.20201e-17
9.202e-17
9.20196e-17
9.20192e-17
9.20188e-17
9.20186e-17
9.20184e-17
9.20183e-17
9.20183e-17
9.20184e-17
9.20187e-17
9.2019e-17
9.20194e-17
9.20199e-17
9.20204e-17
9.20204e-17
9.202e-17
9.20195e-17
9.20192e-17
9.20189e-17
9.20188e-17
9.20187e-17
9.20187e-17
9.20188e-17
9.2019e-17
9.20193e-17
9.20197e-17
9.20202e-17
9.20208e-17
9.20208e-17
9.20204e-17
9.202e-17
9.20196e-17
9.20194e-17
9.20192e-17
9.20191e-17
9.20191e-17
9.20192e-17
9.20194e-17
9.20197e-17
9.20201e-17
9.20207e-17
9.20212e-17
9.20214e-17
9.2021e-17
9.20206e-17
9.20202e-17
9.20199e-17
9.20197e-17
9.20196e-17
9.20196e-17
9.20197e-17
9.20199e-17
9.20202e-17
9.20206e-17
9.20211e-17
9.20217e-17
9.20222e-17
9.20216e-17
9.20211e-17
9.20208e-17
9.20205e-17
9.20203e-17
9.20202e-17
9.20202e-17
9.20203e-17
9.20204e-17
9.20207e-17
9.20211e-17
9.20217e-17
9.20223e-17
9.19203e-17
9.19198e-17
9.19194e-17
9.19191e-17
9.19189e-17
9.19187e-17
9.19187e-17
9.19187e-17
9.19188e-17
9.1919e-17
9.19193e-17
9.19197e-17
9.19202e-17
9.19209e-17
9.19199e-17
9.19194e-17
9.1919e-17
9.19187e-17
9.19185e-17
9.19183e-17
9.19183e-17
9.19183e-17
9.19184e-17
9.19187e-17
9.1919e-17
9.19194e-17
9.19199e-17
9.19204e-17
9.19195e-17
9.19191e-17
9.19186e-17
9.19183e-17
9.19181e-17
9.1918e-17
9.19179e-17
9.1918e-17
9.19181e-17
9.19183e-17
9.19186e-17
9.1919e-17
9.19195e-17
9.19201e-17
9.19192e-17
9.19188e-17
9.19184e-17
9.19181e-17
9.19179e-17
9.19177e-17
9.19177e-17
9.19177e-17
9.19179e-17
9.19181e-17
9.19184e-17
9.19188e-17
9.19193e-17
9.19198e-17
9.19191e-17
9.19186e-17
9.19182e-17
9.19179e-17
9.19177e-17
9.19176e-17
9.19175e-17
9.19176e-17
9.19177e-17
9.19179e-17
9.19183e-17
9.19187e-17
9.19192e-17
9.19197e-17
9.1919e-17
9.19186e-17
9.19182e-17
9.19179e-17
9.19176e-17
9.19175e-17
9.19175e-17
9.19175e-17
9.19176e-17
9.19179e-17
9.19182e-17
9.19186e-17
9.19191e-17
9.19196e-17
9.1919e-17
9.19186e-17
9.19182e-17
9.19179e-17
9.19177e-17
9.19175e-17
9.19175e-17
9.19175e-17
9.19177e-17
9.19179e-17
9.19182e-17
9.19186e-17
9.19191e-17
9.19197e-17
9.19192e-17
9.19187e-17
9.19183e-17
9.1918e-17
9.19178e-17
9.19177e-17
9.19176e-17
9.19177e-17
9.19178e-17
9.1918e-17
9.19183e-17
9.19187e-17
9.19192e-17
9.19198e-17
9.19194e-17
9.19189e-17
9.19185e-17
9.19182e-17
9.1918e-17
9.19179e-17
9.19178e-17
9.19179e-17
9.1918e-17
9.19182e-17
9.19185e-17
9.19189e-17
9.19194e-17
9.19199e-17
9.19196e-17
9.19192e-17
9.19188e-17
9.19185e-17
9.19183e-17
9.19182e-17
9.19181e-17
9.19182e-17
9.19183e-17
9.19185e-17
9.19188e-17
9.19192e-17
9.19197e-17
9.19202e-17
9.192e-17
9.19196e-17
9.19192e-17
9.19189e-17
9.19187e-17
9.19186e-17
9.19185e-17
9.19186e-17
9.19187e-17
9.19189e-17
9.19192e-17
9.19196e-17
9.19201e-17
9.19206e-17
9.19205e-17
9.19201e-17
9.19197e-17
9.19194e-17
9.19192e-17
9.1919e-17
9.1919e-17
9.1919e-17
9.19191e-17
9.19194e-17
9.19197e-17
9.19201e-17
9.19206e-17
9.1921e-17
9.1921e-17
9.19206e-17
9.19203e-17
9.19199e-17
9.19197e-17
9.19196e-17
9.19195e-17
9.19196e-17
9.19197e-17
9.19199e-17
9.19202e-17
9.19206e-17
9.19211e-17
9.19216e-17
9.19217e-17
9.19212e-17
9.19208e-17
9.19205e-17
9.19203e-17
9.19202e-17
9.19201e-17
9.19202e-17
9.19203e-17
9.19205e-17
9.19208e-17
9.19212e-17
9.19216e-17
9.19223e-17
9.1828e-17
9.18279e-17
9.18277e-17
9.18276e-17
9.18275e-17
9.18275e-17
9.18275e-17
9.18275e-17
9.18276e-17
9.18277e-17
9.18279e-17
9.18282e-17
9.18285e-17
9.18288e-17
9.18279e-17
9.18278e-17
9.18276e-17
9.18275e-17
9.18274e-17
9.18273e-17
9.18273e-17
9.18274e-17
9.18275e-17
9.18276e-17
9.18279e-17
9.18281e-17
9.18285e-17
9.18288e-17
9.18278e-17
9.18276e-17
9.18274e-17
9.18273e-17
9.18272e-17
9.18272e-17
9.18272e-17
9.18273e-17
9.18274e-17
9.18275e-17
9.18277e-17
9.1828e-17
9.18283e-17
9.18287e-17
9.18277e-17
9.18276e-17
9.18274e-17
9.18273e-17
9.18272e-17
9.18272e-17
9.18272e-17
9.18272e-17
9.18273e-17
9.18275e-17
9.18277e-17
9.1828e-17
9.18283e-17
9.18286e-17
9.18277e-17
9.18276e-17
9.18274e-17
9.18273e-17
9.18272e-17
9.18271e-17
9.18271e-17
9.18272e-17
9.18273e-17
9.18275e-17
9.18277e-17
9.1828e-17
9.18283e-17
9.18286e-17
9.18278e-17
9.18276e-17
9.18274e-17
9.18273e-17
9.18272e-17
9.18272e-17
9.18272e-17
9.18272e-17
9.18274e-17
9.18275e-17
9.18277e-17
9.1828e-17
9.18283e-17
9.18287e-17
9.18279e-17
9.18277e-17
9.18275e-17
9.18274e-17
9.18273e-17
9.18273e-17
9.18273e-17
9.18273e-17
9.18274e-17
9.18276e-17
9.18278e-17
9.18281e-17
9.18284e-17
9.18288e-17
9.18281e-17
9.18279e-17
9.18277e-17
9.18275e-17
9.18274e-17
9.18274e-17
9.18274e-17
9.18275e-17
9.18276e-17
9.18278e-17
9.1828e-17
9.18282e-17
9.18285e-17
9.18289e-17
9.18283e-17
9.18281e-17
9.18279e-17
9.18277e-17
9.18276e-17
9.18276e-17
9.18276e-17
9.18277e-17
9.18278e-17
9.18279e-17
9.18282e-17
9.18284e-17
9.18287e-17
9.1829e-17
9.18285e-17
9.18283e-17
9.18281e-17
9.1828e-17
9.18279e-17
9.18278e-17
9.18279e-17
9.18279e-17
9.1828e-17
9.18282e-17
9.18284e-17
9.18286e-17
9.18289e-17
9.18292e-17
9.18288e-17
9.18286e-17
9.18284e-17
9.18283e-17
9.18282e-17
9.18281e-17
9.18281e-17
9.18282e-17
9.18283e-17
9.18285e-17
9.18287e-17
9.18289e-17
9.18292e-17
9.18295e-17
9.18291e-17
9.18289e-17
9.18287e-17
9.18286e-17
9.18285e-17
9.18285e-17
9.18285e-17
9.18285e-17
9.18287e-17
9.18288e-17
9.1829e-17
9.18292e-17
9.18295e-17
9.18298e-17
9.18294e-17
9.18293e-17
9.18291e-17
9.1829e-17
9.18289e-17
9.18288e-17
9.18289e-17
9.18289e-17
9.1829e-17
9.18292e-17
9.18294e-17
9.18296e-17
9.18299e-17
9.18302e-17
9.18298e-17
9.18296e-17
9.18294e-17
9.18293e-17
9.18293e-17
9.18292e-17
9.18293e-17
9.18293e-17
9.18295e-17
9.18296e-17
9.18298e-17
9.183e-17
9.18303e-17
9.18306e-17
9.17428e-17
9.1743e-17
9.17431e-17
9.17432e-17
9.17433e-17
9.17434e-17
9.17435e-17
9.17435e-17
9.17436e-17
9.17436e-17
9.17436e-17
9.17436e-17
9.17436e-17
9.17436e-17
9.1743e-17
9.17432e-17
9.17433e-17
9.17434e-17
9.17435e-17
9.17436e-17
9.17436e-17
9.17437e-17
9.17437e-17
9.17438e-17
9.17438e-17
9.17439e-17
9.17439e-17
9.17439e-17
9.17432e-17
9.17433e-17
9.17434e-17
9.17435e-17
9.17436e-17
9.17437e-17
9.17438e-17
9.17439e-17
9.17439e-17
9.1744e-17
9.1744e-17
9.1744e-17
9.17441e-17
9.17442e-17
9.17434e-17
9.17435e-17
9.17436e-17
9.17437e-17
9.17438e-17
9.17439e-17
9.1744e-17
9.1744e-17
9.17441e-17
9.17441e-17
9.17442e-17
9.17442e-17
9.17443e-17
9.17444e-17
9.17436e-17
9.17437e-17
9.17438e-17
9.17439e-17
9.1744e-17
9.1744e-17
9.17441e-17
9.17442e-17
9.17443e-17
9.17443e-17