/*--------------------------------*- C++ -*----------------------------------*\
| =========                 |                                                 |
| \\      /  F ield         | OpenFOAM: The Open Source CFD Toolbox           |
|  \\    /   O peration     | Version:  v2106                                 |
|   \\  /    A nd           | Website:  www.openfoam.com                      |
|    \\/     M anipulation  |                                                 |
\*---------------------------------------------------------------------------*/
FoamFile
{
    version     2.0;
    format      ascii;
    arch        "LSB;label=32;scalar=64";
    class       volVectorField;
    location    "0.000167";
    object      U;
}
// * * * * * * * * * * * * * * * * * * * * * * * * * * * * * * * * * * * * * //

dimensions      [0 1 -1 0 0 0 0];

internalField   nonuniform List<vector> 
17920
(
(0.0583886 -0.0638776 7.49504)
(0.0666864 -0.0620254 7.49809)
(0.0590349 -0.0537493 7.49119)
(0.0692112 -0.0538136 7.49431)
(0.0605173 -0.0435566 7.4896)
(0.0701867 -0.0440741 7.49243)
(0.06076 -0.0334181 7.48818)
(0.0705456 -0.0337696 7.49109)
(0.0607464 -0.0233229 7.48734)
(0.070787 -0.0234319 7.48997)
(0.0606844 -0.0132993 7.48663)
(0.0710637 -0.0132449 7.48892)
(0.0607487 -0.00347445 7.48651)
(0.0713902 -0.00341781 7.48839)
(0.0608551 0.0066879 7.48649)
(0.0715014 0.00674689 7.4885)
(0.0608948 0.016499 7.48657)
(0.071375 0.0165471 7.48913)
(0.0611861 0.0264668 7.48715)
(0.0713221 0.0265974 7.49029)
(0.0612548 0.0365535 7.48796)
(0.0711201 0.0367856 7.49141)
(0.0612011 0.0467218 7.48921)
(0.0710234 0.0469441 7.49247)
(0.0595419 0.0569801 7.49051)
(0.0697555 0.0565811 7.49395)
(0.0597973 0.067147 7.49373)
(0.0682426 0.0649673 7.49727)
(-0.0702579 -0.0696125 7.0227)
(-0.0600885 -0.0705639 7.02006)
(-0.0488095 -0.0722088 7.01894)
(-0.0370783 -0.0723644 7.01824)
(-0.0253714 -0.0726692 7.01743)
(-0.013818 -0.0727789 7.0167)
(-0.00250729 -0.0730745 7.01605)
(0.0087201 -0.0732591 7.01579)
(0.0198521 -0.0733313 7.01608)
(0.0309066 -0.0733773 7.01649)
(0.0419768 -0.0732594 7.01681)
(0.0529425 -0.0733122 7.01693)
(0.0634514 -0.0714278 7.01753)
(0.0727997 -0.0709881 7.01913)
(-0.0706465 -0.0604545 7.02039)
(-0.0596959 -0.0602126 7.01796)
(-0.048497 -0.0618988 7.01694)
(-0.0371835 -0.0619559 7.01615)
(-0.0257358 -0.0620366 7.01555)
(-0.0142223 -0.0619017 7.01518)
(-0.00272141 -0.0619891 7.01488)
(0.00879076 -0.0620801 7.01459)
(0.0201617 -0.0622012 7.01448)
(0.0312532 -0.0624177 7.01431)
(0.042176 -0.0624567 7.01441)
(0.0528981 -0.0624976 7.01462)
(0.0635453 -0.0606131 7.01501)
(0.0738968 -0.060957 7.01649)
(-0.0722481 -0.0499027 7.01958)
(-0.0614054 -0.0494789 7.01721)
(-0.0499147 -0.0509146 7.01674)
(-0.0383871 -0.0509729 7.01572)
(-0.0266478 -0.0510359 7.0151)
(-0.0148234 -0.0508965 7.01444)
(-0.00298482 -0.0509429 7.01383)
(0.00885792 -0.0509711 7.01354)
(0.0206521 -0.0510202 7.01371)
(0.03217 -0.0511732 7.01384)
(0.0434613 -0.0511719 7.01394)
(0.0544533 -0.0511679 7.01433)
(0.0653513 -0.0495859 7.01414)
(0.0756427 -0.0498266 7.01566)
(-0.0721231 -0.0388504 7.01904)
(-0.0612727 -0.0386737 7.01657)
(-0.0498343 -0.0398694 7.01592)
(-0.0384018 -0.0399231 7.01465)
(-0.026717 -0.0399366 7.01395)
(-0.0149067 -0.0397745 7.01333)
(-0.00304097 -0.0397633 7.0128)
(0.00884648 -0.039752 7.01252)
(0.0207101 -0.0397924 7.01257)
(0.032298 -0.0399185 7.01262)
(0.0436444 -0.0398766 7.01278)
(0.0546639 -0.039783 7.01338)
(0.0655675 -0.038427 7.01337)
(0.0759489 -0.0382105 7.01501)
(-0.0721695 -0.0276878 7.01834)
(-0.0611426 -0.0276702 7.01617)
(-0.0497628 -0.0285133 7.01554)
(-0.0383748 -0.0285388 7.01421)
(-0.0267246 -0.0285159 7.01347)
(-0.0149308 -0.0283744 7.01279)
(-0.00306539 -0.0283502 7.01218)
(0.00882839 -0.0283138 7.01187)
(0.0207212 -0.0283286 7.01196)
(0.0323389 -0.0283949 7.01208)
(0.0437254 -0.0283158 7.01229)
(0.0548082 -0.0281677 7.01298)
(0.0657428 -0.027108 7.013)
(0.076365 -0.0265941 7.01438)
(-0.0719941 -0.0165741 7.01748)
(-0.0608049 -0.0165296 7.01578)
(-0.0495105 -0.0169778 7.01484)
(-0.0381637 -0.0169551 7.01354)
(-0.026578 -0.0169007 7.01272)
(-0.0148397 -0.0167842 7.01204)
(-0.00302308 -0.0167562 7.01143)
(0.00883055 -0.0167035 7.01112)
(0.0206976 -0.0167007 7.01121)
(0.0322896 -0.0167132 7.01132)
(0.0436724 -0.0166131 7.01157)
(0.0548119 -0.0164583 7.01222)
(0.0658243 -0.0157223 7.01254)
(0.0767437 -0.0151721 7.01355)
(-0.0717728 -0.00547898 7.01702)
(-0.0605357 -0.00523229 7.01575)
(-0.0493385 -0.00528177 7.01454)
(-0.0380251 -0.00520258 7.01338)
(-0.0264962 -0.00512276 7.01252)
(-0.0147997 -0.00504186 7.01185)
(-0.00301265 -0.00502458 7.01122)
(0.00882717 -0.00496753 7.0109)
(0.0207035 -0.00495201 7.011)
(0.0323083 -0.0049223 7.0111)
(0.0437209 -0.00482937 7.0114)
(0.0549334 -0.004722 7.01196)
(0.0660313 -0.00434704 7.01255)
(0.0771659 -0.00398765 7.01316)
(-0.0713827 0.0057012 7.0169)
(-0.060239 0.0062582 7.0156)
(-0.0491203 0.00657834 7.01443)
(-0.0378658 0.0067184 7.01328)
(-0.0263845 0.00680992 7.01241)
(-0.0147207 0.00684091 7.01175)
(-0.00295033 0.00682504 7.0111)
(0.00888878 0.00686427 7.01078)
(0.0207879 0.00687601 7.01087)
(0.0324177 0.00692918 7.01097)
(0.0438653 0.00700108 7.01126)
(0.0551184 0.00703547 7.01184)
(0.066284 0.00706205 7.0124)
(0.0775194 0.00711932 7.01312)
(-0.071159 0.0172355 7.01707)
(-0.0601883 0.0179182 7.01535)
(-0.0490884 0.0185667 7.01446)
(-0.0378848 0.0187081 7.01321)
(-0.0264141 0.0187819 7.01239)
(-0.01476 0.0187496 7.01171)
(-0.00299447 0.0186939 7.01108)
(0.00884145 0.018708 7.01075)
(0.020757 0.0187189 7.01082)
(0.0324025 0.0187969 7.01092)
(0.0438805 0.0188325 7.01116)
(0.055153 0.0187965 7.01188)
(0.0663813 0.0183629 7.01213)
(0.0775893 0.0181727 7.01339)
(-0.0709446 0.0287858 7.01745)
(-0.0602226 0.0294035 7.01538)
(-0.049149 0.0303929 7.0149)
(-0.0379916 0.0305264 7.0136)
(-0.026507 0.0305755 7.01286)
(-0.0148263 0.0304781 7.01219)
(-0.0030252 0.0303737 7.01155)
(0.00884742 0.0303451 7.0112)
(0.0208286 0.0303411 7.01126)
(0.0325378 0.0304329 7.01136)
(0.0440901 0.0304208 7.01151)
(0.0554169 0.0303223 7.01228)
(0.0666995 0.0294253 7.0122)
(0.0777466 0.0291823 7.01405)
(-0.0705067 0.0405434 7.01786)
(-0.0600369 0.0408589 7.01563)
(-0.0490224 0.042168 7.01512)
(-0.0379358 0.0422353 7.01386)
(-0.0264967 0.0422313 7.01315)
(-0.0148527 0.0420565 7.01253)
(-0.00308665 0.0418933 7.01191)
(0.00875359 0.0418027 7.01155)
(0.0207483 0.0417721 7.01157)
(0.0324761 0.0418715 7.01159)
(0.0440617 0.0417986 7.01171)
(0.0554222 0.0416661 7.01237)
(0.0667268 0.0403478 7.01233)
(0.0776102 0.0402602 7.01444)
(-0.0703945 0.052395 7.01801)
(-0.0599933 0.0522205 7.01596)
(-0.0489712 0.053778 7.0157)
(-0.0378732 0.0537275 7.01467)
(-0.0264517 0.0536584 7.01405)
(-0.0148521 0.05343 7.01343)
(-0.0031581 0.0532298 7.01269)
(0.00860239 0.0530647 7.01231)
(0.0205785 0.0529659 7.0124)
(0.0323246 0.0530245 7.01245)
(0.0439685 0.0528643 7.0125)
(0.0554211 0.052732 7.01295)
(0.0667682 0.051089 7.01271)
(0.0777164 0.0512572 7.01459)
(-0.0684745 0.0639176 7.01879)
(-0.0581297 0.0635303 7.01659)
(-0.0474235 0.0653723 7.01569)
(-0.0366151 0.0652275 7.01483)
(-0.0255883 0.0650783 7.01418)
(-0.0144194 0.0647678 7.01389)
(-0.00314501 0.0644896 7.01337)
(0.00821892 0.0642223 7.01297)
(0.0198578 0.0640503 7.0128)
(0.0312382 0.0640511 7.01244)
(0.0425359 0.0638162 7.0125)
(0.0536866 0.0636895 7.01274)
(0.0647109 0.0617569 7.01313)
(0.075653 0.0618263 7.0151)
(-0.0676569 0.0745834 7.02082)
(-0.058509 0.0747216 7.01834)
(-0.0479683 0.0764062 7.01754)
(-0.0368785 0.0761867 7.01694)
(-0.0256659 0.0761895 7.016)
(-0.0145013 0.0760288 7.01513)
(-0.00343474 0.0757939 7.01419)
(0.00766202 0.0754078 7.01385)
(0.0190555 0.0750324 7.01403)
(0.0305605 0.0747848 7.01412)
(0.042195 0.0743071 7.01435)
(0.053881 0.0741197 7.01439)
(0.0651857 0.0721288 7.01482)
(0.0756537 0.0713401 7.01682)
(-0.0734164 -0.0721287 6.57866)
(-0.0622742 -0.0715086 6.57817)
(-0.0506503 -0.0737482 6.57845)
(-0.0387285 -0.0737344 6.57888)
(-0.0268702 -0.0740781 6.57886)
(-0.0151163 -0.074121 6.57862)
(-0.00352599 -0.0744297 6.57817)
(0.00787446 -0.0746969 6.5778)
(0.0191325 -0.074915 6.57771)
(0.0303444 -0.075165 6.57749)
(0.0415671 -0.0751857 6.57693)
(0.0526951 -0.0755354 6.57593)
(0.0634542 -0.0732082 6.57518)
(0.0733975 -0.074067 6.57503)
(-0.0725141 -0.062126 6.57809)
(-0.0617701 -0.061446 6.57742)
(-0.0506836 -0.063289 6.57773)
(-0.0393214 -0.0632391 6.57814)
(-0.0276726 -0.063398 6.57841)
(-0.0158589 -0.0633185 6.57864)
(-0.00391043 -0.0634918 6.5786)
(0.00795028 -0.0636508 6.57822)
(0.0195987 -0.0637838 6.57771)
(0.0309658 -0.0640431 6.57684)
(0.0420371 -0.0641554 6.57602)
(0.052667 -0.0644269 6.57509)
(0.0630193 -0.0625243 6.57422)
(0.0730203 -0.0630012 6.57428)
(-0.0746057 -0.0513182 6.57848)
(-0.0635352 -0.0510244 6.57779)
(-0.0520689 -0.0524681 6.57888)
(-0.0403392 -0.0524322 6.57907)
(-0.0283929 -0.0525113 6.57938)
(-0.0163328 -0.0523847 6.57933)
(-0.0041807 -0.0524664 6.57901)
(0.00789212 -0.0525538 6.57865)
(0.0198324 -0.0526384 6.57843)
(0.0316042 -0.0528523 6.57788)
(0.0430937 -0.0528968 6.57703)
(0.0541794 -0.0530298 6.57629)
(0.064859 -0.0515307 6.57461)
(0.0752645 -0.0515049 6.57478)
(-0.0742422 -0.0401453 6.57897)
(-0.0632218 -0.0403461 6.57818)
(-0.0518938 -0.0413215 6.5791)
(-0.0403302 -0.0413121 6.5791)
(-0.0284978 -0.0412898 6.57935)
(-0.0164784 -0.0411362 6.57936)
(-0.00429029 -0.0411551 6.57914)
(0.00786339 -0.0411867 6.5788)
(0.0198838 -0.041248 6.57847)
(0.0316926 -0.0414062 6.57783)
(0.0431755 -0.0414193 6.57704)
(0.0542472 -0.0413841 6.57645)
(0.0649213 -0.0402777 6.57496)
(0.0753321 -0.0396451 6.57515)
(-0.0741782 -0.0288825 6.57904)
(-0.0630523 -0.0292421 6.57858)
(-0.051781 -0.0298004 6.57954)
(-0.0402591 -0.0298106 6.5795)
(-0.0284802 -0.0297442 6.57973)
(-0.0164935 -0.0296128 6.57969)
(-0.00433638 -0.0296056 6.5794)
(0.00781151 -0.0295949 6.57906)
(0.0198464 -0.0296297 6.57877)
(0.0316908 -0.0297157 6.5782)
(0.0432169 -0.0296831 6.57742)
(0.0543807 -0.0295309 6.57688)
(0.065126 -0.0287224 6.5754)
(0.0756966 -0.027817 6.57526)
(-0.0737986 -0.0176355 6.57873)
(-0.0626832 -0.0178335 6.57876)
(-0.0514763 -0.0180302 6.57941)
(-0.0400177 -0.0180146 6.57939)
(-0.0283284 -0.0179183 6.57956)
(-0.0164104 -0.0178092 6.57953)
(-0.00431184 -0.0177898 6.57923)
(0.00780085 -0.0177571 6.5789)
(0.0198067 -0.017775 6.57861)
(0.0316243 -0.0178035 6.57802)
(0.0431351 -0.0177399 6.57728)
(0.0543434 -0.0175479 6.57669)
(0.065209 -0.0169694 6.57549)
(0.0759692 -0.0161196 6.57486)
(-0.0734138 -0.006329 6.57855)
(-0.0623823 -0.00613172 6.57902)
(-0.051251 -0.00605777 6.57941)
(-0.039856 -0.00596527 6.57951)
(-0.0282393 -0.00586196 6.57962)
(-0.0163752 -0.00578513 6.5796)
(-0.00431703 -0.00577599 6.57929)
(0.00778008 -0.00573777 6.57895)
(0.0197864 -0.00573758 6.57867)
(0.0316229 -0.00571898 6.57807)
(0.0431768 -0.00563289 6.57737)
(0.0544687 -0.00550436 6.57667)
(0.0654763 -0.00514591 6.57571)
(0.0763888 -0.00465605 6.57463)
(-0.0729647 0.00513071 6.57845)
(-0.0620534 0.00577288 6.57885)
(-0.0510211 0.00604808 6.57924)
(-0.0397027 0.00621759 6.57934)
(-0.0281433 0.00630521 6.57943)
(-0.0163177 0.00633417 6.57941)
(-0.00427708 0.00630977 6.57909)
(0.00782545 0.00633186 6.57875)
(0.0198576 0.00633257 6.57845)
(0.0317373 0.00637227 6.57785)
(0.0433474 0.00645668 6.57714)
(0.0546962 0.0064782 6.57645)
(0.0657677 0.00661476 6.57544)
(0.0768034 0.00663539 6.57445)
(-0.0727501 0.0167364 6.57838)
(-0.0619096 0.0176849 6.57826)
(-0.0509445 0.0181811 6.5789)
(-0.0396862 0.018381 6.57887)
(-0.0281615 0.0184348 6.579)
(-0.0163645 0.0183948 6.57896)
(-0.00433581 0.0183177 6.57864)
(0.00776605 0.0183059 6.5783)
(0.0198121 0.0182956 6.57799)
(0.0317146 0.0183479 6.5774)
(0.0433612 0.0184118 6.57663)
(0.0547527 0.0183522 6.57608)
(0.0658618 0.018174 6.57475)
(0.0770258 0.0177948 6.5743)
(-0.0725659 0.0284785 6.57821)
(-0.0618555 0.0294895 6.57762)
(-0.0509936 0.0302841 6.57864)
(-0.0397903 0.0304407 6.57854)
(-0.0282629 0.030453 6.57873)
(-0.0164493 0.030332 6.57869)
(-0.00439209 0.030198 6.57836)
(0.00774707 0.0301381 6.57801)
(0.0198521 0.0301052 6.5777)
(0.031829 0.0301642 6.57711)
(0.0435699 0.0301764 6.57626)
(0.0550471 0.0300796 6.57577)
(0.0662008 0.0294595 6.57408)
(0.0774033 0.0289092 6.57428)
(-0.0721186 0.0404079 6.57778)
(-0.0616249 0.0411683 6.57691)
(-0.0508686 0.0422806 6.57786)
(-0.0397848 0.0422949 6.57778)
(-0.0283125 0.0422326 6.57796)
(-0.0165411 0.0420101 6.57796)
(-0.0045054 0.04181 6.57765)
(0.00763041 0.0416803 6.5773)
(0.019761 0.0416087 6.57696)
(0.0317685 0.0416655 6.57631)
(0.0435691 0.0416113 6.57545)
(0.0550806 0.0415333 6.57488)
(0.0662868 0.040438 6.57324)
(0.0774146 0.040054 6.57377)
(-0.0722198 0.0524446 6.57677)
(-0.0617202 0.0525447 6.57601)
(-0.0509278 0.0540321 6.5772)
(-0.0397941 0.0538589 6.57728)
(-0.0282924 0.0537467 6.57752)
(-0.0165466 0.0534495 6.57751)
(-0.00460758 0.0531968 6.57709)
(0.00742581 0.0529719 6.57673)
(0.0195106 0.0528267 6.57649)
(0.0315604 0.0528443 6.57588)
(0.0434968 0.0526616 6.575)
(0.0552055 0.0526306 6.57428)
(0.0665671 0.0510065 6.57244)
(0.0778418 0.0511266 6.57279)
(-0.0697355 0.0642775 6.57611)
(-0.0597512 0.0636748 6.57524)
(-0.0493906 0.0654816 6.57553)
(-0.0387691 0.0651444 6.57577)
(-0.0277306 0.0649643 6.57598)
(-0.0163901 0.0646221 6.5763)
(-0.0047501 0.0643148 6.57609)
(0.00705657 0.0639686 6.57576)
(0.0189193 0.0637019 6.57528)
(0.0306643 0.0636079 6.57428)
(0.0422582 0.0632953 6.57343)
(0.0535423 0.063285 6.57251)
(0.0645292 0.0612622 6.57155)
(0.0753084 0.061834 6.57193)
(-0.0705262 0.0756556 6.57599)
(-0.0605904 0.0744602 6.57526)
(-0.0497944 0.0766538 6.5757)
(-0.0386176 0.0762263 6.57614)
(-0.0273892 0.0761268 6.57602)
(-0.0161944 0.0757662 6.57572)
(-0.0049722 0.0753807 6.5751)
(0.00636516 0.074899 6.57484)
(0.0178887 0.0745123 6.5748)
(0.0295951 0.0743305 6.57438)
(0.0414391 0.0738192 6.57385)
(0.0534052 0.073832 6.57282)
(0.0650994 0.0713054 6.57183)
(0.0765168 0.0718823 6.5719)
(-0.0692529 -0.068766 6.1595)
(-0.0581643 -0.0671039 6.16079)
(-0.0473463 -0.0693466 6.16248)
(-0.0364444 -0.0689783 6.16396)
(-0.0256337 -0.0691759 6.16472)
(-0.0148581 -0.0690367 6.16502)
(-0.004369 -0.0691585 6.16483)
(0.00621864 -0.069419 6.1644)
(0.0166205 -0.0696552 6.16402)
(0.026961 -0.0700479 6.16327)
(0.0373212 -0.0702503 6.16197)
(0.0476543 -0.0709638 6.16005)
(0.0578515 -0.0687362 6.15796)
(0.0682152 -0.0702441 6.15652)
(-0.0676463 -0.0584153 6.16032)
(-0.0576631 -0.0575789 6.1611)
(-0.0476041 -0.059198 6.16285)
(-0.0372434 -0.0589877 6.16442)
(-0.0265486 -0.0590822 6.1656)
(-0.0156323 -0.0589964 6.16646)
(-0.0047285 -0.0591273 6.16674)
(0.00630348 -0.0592618 6.16633)
(0.0171534 -0.0593341 6.16553)
(0.0277225 -0.0595778 6.16409)
(0.0379842 -0.0597534 6.16243)
(0.0477567 -0.0602081 6.16052)
(0.0571977 -0.0586492 6.15839)
(0.0666895 -0.0591248 6.15743)
(-0.0697598 -0.0481576 6.162)
(-0.059118 -0.0480674 6.1627)
(-0.0487427 -0.0493179 6.16535)
(-0.0379481 -0.0491692 6.16665)
(-0.026989 -0.0491511 6.16785)
(-0.0158869 -0.0489731 6.16842)
(-0.0048783 -0.0490024 6.16844)
(0.00617909 -0.0490644 6.16809)
(0.0171914 -0.0491641 6.16758)
(0.0280701 -0.0494287 6.16649)
(0.0387094 -0.0495682 6.16485)
(0.0490483 -0.0498225 6.16316)
(0.0587943 -0.0486175 6.16015)
(0.0688974 -0.0483732 6.15924)
(-0.0690606 -0.0377512 6.16342)
(-0.0586638 -0.0382262 6.1641)
(-0.0484873 -0.0389096 6.16653)
(-0.0379059 -0.0388646 6.16769)
(-0.0270935 -0.0387576 6.16886)
(-0.0160382 -0.0385828 6.1695)
(-0.00497124 -0.0385839 6.16963)
(0.00617152 -0.0385967 6.16932)
(0.0172652 -0.0386723 6.16871)
(0.0281382 -0.0388559 6.16753)
(0.0387047 -0.0389615 6.16592)
(0.0489488 -0.0389803 6.16435)
(0.0586469 -0.0382274 6.16158)
(0.0685825 -0.0374299 6.16056)
(-0.0688312 -0.0273138 6.16426)
(-0.0584666 -0.0279156 6.16535)
(-0.0483263 -0.0282148 6.16777)
(-0.0377708 -0.0282523 6.16889)
(-0.0270151 -0.0281268 6.17005)
(-0.0160066 -0.0279828 6.17065)
(-0.00498368 -0.0279628 6.17072)
(0.00610498 -0.0279467 6.1704)
(0.0171779 -0.0280022 6.16983)
(0.0280555 -0.0281109 6.16872)
(0.038649 -0.0281639 6.16713)
(0.0489912 -0.0280322 6.16558)
(0.0588161 -0.0275518 6.16285)
(0.0687832 -0.0265765 6.16137)
(-0.0683499 -0.0168983 6.16452)
(-0.0581411 -0.017265 6.16613)
(-0.0479993 -0.0172827 6.1682)
(-0.037521 -0.0173154 6.16935)
(-0.0268488 -0.0171851 6.17043)
(-0.0159183 -0.0170787 6.17104)
(-0.00495221 -0.017056 6.17111)
(0.00609191 -0.0170285 6.1708)
(0.0171296 -0.0170599 6.17023)
(0.0279694 -0.017102 6.1691)
(0.0385365 -0.0171044 6.16756)
(0.0488698 -0.0169241 6.16592)
(0.0588078 -0.0165882 6.1635)
(0.0687382 -0.0157443 6.16147)
(-0.067961 -0.00642549 6.16467)
(-0.0579158 -0.00640661 6.16672)
(-0.0477843 -0.00631839 6.16849)
(-0.0373786 -0.00630021 6.16974)
(-0.0267652 -0.00621105 6.17076)
(-0.0158896 -0.00615902 6.17137)
(-0.00496232 -0.00615848 6.17143)
(0.00606056 -0.00613747 6.17113)
(0.0170871 -0.00615083 6.17056)
(0.0279308 -0.00615245 6.16943)
(0.0385247 -0.00611835 6.16791)
(0.0489 -0.0060246 6.16615)
(0.0589902 -0.00581125 6.16394)
(0.0689656 -0.0053576 6.16141)
(-0.0676439 0.00408348 6.16459)
(-0.0576839 0.00461218 6.16653)
(-0.0476316 0.0047548 6.16827)
(-0.0372825 0.00489064 6.16952)
(-0.0267081 0.00493105 6.17052)
(-0.0158595 0.00493511 6.17112)
(-0.00494302 0.00489637 6.17117)
(0.00609135 0.00490266 6.17086)
(0.0171404 0.00490125 6.17029)
(0.0280243 0.00492973 6.16915)
(0.0386705 0.00501524 6.16761)
(0.0491106 0.00500022 6.16585)
(0.0592569 0.00518275 6.16357)
(0.0693482 0.00515579 6.16111)
(-0.0675848 0.014804 6.16428)
(-0.0575452 0.0156716 6.16565)
(-0.0476014 0.0159015 6.16764)
(-0.037295 0.0160743 6.16873)
(-0.0267581 0.0160487 6.16975)
(-0.0159282 0.0159779 6.17034)
(-0.0050129 0.0158812 6.17039)
(0.00603622 0.0158592 6.17008)
(0.0171061 0.0158539 6.1695)
(0.028016 0.0159027 6.16838)
(0.0386812 0.0160039 6.16678)
(0.0491644 0.0159073 6.16516)
(0.0592661 0.0159143 6.16254)
(0.0695974 0.0154544 6.16061)
(-0.0675947 0.0255046 6.16364)
(-0.0575402 0.0265496 6.16441)
(-0.0477522 0.0270086 6.16678)
(-0.0374538 0.0271255 6.16777)
(-0.0268951 0.0270447 6.16885)
(-0.0160295 0.0268844 6.16943)
(-0.00507481 0.0267279 6.16947)
(0.00601513 0.0266697 6.16917)
(0.0171465 0.02665 6.16859)
(0.0281384 0.0267236 6.16748)
(0.0388965 0.0268092 6.1658)
(0.0494875 0.0267168 6.16426)
(0.0595642 0.0263796 6.16123)
(0.0701075 0.0256792 6.15999)
(-0.0673833 0.0363827 6.16244)
(-0.0574347 0.0372707 6.16279)
(-0.0477626 0.0379894 6.16511)
(-0.0375646 0.0379238 6.16609)
(-0.02704 0.0377678 6.16716)
(-0.0161864 0.0375065 6.16779)
(-0.00521148 0.0372944 6.16786)
(0.00591966 0.0371847 6.16757)
(0.0171135 0.0371315 6.16697)
(0.0281568 0.0372151 6.1658)
(0.0389844 0.037262 6.16413)
(0.0496068 0.0372541 6.16254)
(0.0597139 0.0364963 6.15951)
(0.0702991 0.0359239 6.15869)
(-0.0678782 0.0473139 6.16044)
(-0.0577312 0.0476004 6.16078)
(-0.0479768 0.0488053 6.16338)
(-0.0376456 0.0484983 6.16447)
(-0.0270255 0.0483118 6.16558)
(-0.0161708 0.047952 6.16618)
(-0.00527423 0.0476875 6.16614)
(0.00572432 0.0474984 6.16587)
(0.0168699 0.0474031 6.16539)
(0.0279665 0.0474863 6.16431)
(0.0389773 0.0474237 6.16264)
(0.0498646 0.0475427 6.16095)
(0.0601945 0.0461555 6.1577)
(0.0710945 0.0461363 6.15678)
(-0.0654924 0.0582071 6.15833)
(-0.0560365 0.057619 6.15856)
(-0.0466779 0.0591164 6.16018)
(-0.0369621 0.0585873 6.16149)
(-0.0267615 0.058362 6.16261)
(-0.0162249 0.0580277 6.1636)
(-0.00546839 0.0577848 6.16379)
(0.00545602 0.0574922 6.16358)
(0.0165259 0.057261 6.16289)
(0.027399 0.0571825 6.16141)
(0.03813 0.0569729 6.15976)
(0.0485223 0.057167 6.15782)
(0.0585129 0.0554241 6.15551)
(0.0686723 0.0561466 6.1546)
(-0.0672325 0.0694742 6.15654)
(-0.0569819 0.0676277 6.15727)
(-0.0468735 0.0698342 6.15902)
(-0.0365567 0.0690328 6.16043)
(-0.0261974 0.0687555 6.16114)
(-0.015888 0.0682329 6.16146)
(-0.00554828 0.0678395 6.16126)
(0.00486328 0.0674211 6.16115)
(0.0155701 0.0672026 6.16091)
(0.0262976 0.0672283 6.16011)
(0.0371763 0.0669244 6.15894)
(0.0481804 0.0673326 6.15704)
(0.0590253 0.064896 6.15474)
(0.0704544 0.0664989 6.15323)
(-0.0589991 -0.0602221 5.75735)
(-0.0491029 -0.0582573 5.75977)
(-0.0401103 -0.060148 5.76241)
(-0.0311398 -0.0595203 5.76451)
(-0.0222285 -0.0594413 5.7658)
(-0.0133953 -0.059128 5.76647)
(-0.00459195 -0.0590128 5.76656)
(0.00417512 -0.0590979 5.76617)
(0.0129516 -0.0592884 5.76563)
(0.0216662 -0.0596962 5.76457)
(0.0304476 -0.0600046 5.76286)
(0.0393126 -0.0608773 5.76048)
(0.0482021 -0.0590758 5.75756)
(0.058051 -0.0605828 5.75527)
(-0.0574016 -0.0503777 5.7591)
(-0.0487486 -0.0496712 5.76077)
(-0.0404504 -0.0508876 5.76353)
(-0.0318356 -0.0505756 5.76579)
(-0.022949 -0.0505337 5.76758)
(-0.013923 -0.050392 5.76882)
(-0.00478966 -0.0504396 5.76934)
(0.00426571 -0.0504425 5.76902)
(0.0134245 -0.0504449 5.7681)
(0.0223725 -0.0505983 5.7664)
(0.0311309 -0.0507856 5.76426)
(0.0395385 -0.0512923 5.76183)
(0.0475725 -0.050235 5.75889)
(0.0561355 -0.0505669 5.75731)
(-0.0591566 -0.0414505 5.76165)
(-0.0497461 -0.0415766 5.76326)
(-0.0412395 -0.0425066 5.76681)
(-0.0322017 -0.0422883 5.76878)
(-0.0231311 -0.0421439 5.77055)
(-0.0139732 -0.0418866 5.77149)
(-0.00481349 -0.0418396 5.77178)
(0.00417507 -0.0418169 5.77152)
(0.0133929 -0.0419128 5.77088)
(0.0225306 -0.0421693 5.76955)
(0.0315516 -0.0423788 5.76748)
(0.0404728 -0.0426815 5.76529)
(0.0487471 -0.0418708 5.76159)
(0.0579723 -0.0415389 5.75997)
(-0.0583377 -0.0325162 5.76363)
(-0.0492823 -0.0331083 5.76529)
(-0.0409589 -0.0335277 5.76859)
(-0.0321352 -0.0334846 5.77044)
(-0.0232086 -0.0333027 5.7722)
(-0.0140879 -0.0331004 5.77323)
(-0.00485859 -0.033065 5.77362)
(0.00421389 -0.0330346 5.77341)
(0.0135046 -0.0331066 5.77266)
(0.0226045 -0.0332803 5.77124)
(0.0315018 -0.0334609 5.76921)
(0.0402609 -0.033522 5.7671)
(0.0484621 -0.0331307 5.76367)
(0.0573657 -0.032436 5.76187)
(-0.0580509 -0.0236461 5.76498)
(-0.0491173 -0.0243038 5.76708)
(-0.0407627 -0.0244623 5.77031)
(-0.0319561 -0.0245546 5.77214)
(-0.0230775 -0.0243955 5.77386)
(-0.014006 -0.0242487 5.77484)
(-0.004834 -0.0242062 5.77518)
(0.00416104 -0.024176 5.77496)
(0.0133957 -0.0242384 5.77426)
(0.0224599 -0.0243539 5.77291)
(0.0313431 -0.0244837 5.77091)
(0.040145 -0.0243959 5.7688)
(0.0484803 -0.0242057 5.76544)
(0.0573107 -0.0234583 5.76312)
(-0.0576201 -0.0148447 5.76561)
(-0.0489164 -0.0152736 5.76819)
(-0.0404681 -0.0152589 5.77106)
(-0.0317335 -0.0153773 5.77292)
(-0.0229177 -0.0152537 5.77456)
(-0.0139167 -0.0151692 5.77555)
(-0.00479679 -0.0151417 5.77589)
(0.00415541 -0.0151194 5.77569)
(0.0133472 -0.0151584 5.77498)
(0.0223596 -0.0152146 5.77362)
(0.0312027 -0.0152887 5.77166)
(0.0399505 -0.0151677 5.76946)
(0.0484115 -0.0150738 5.76642)
(0.057029 -0.0144633 5.76357)
(-0.0573443 -0.00596024 5.76601)
(-0.0488525 -0.00611932 5.76896)
(-0.0403344 -0.00611316 5.77152)
(-0.0316558 -0.00619498 5.77348)
(-0.022863 -0.00614996 5.77505)
(-0.0138975 -0.00612957 5.77604)
(-0.00480624 -0.00613357 5.77637)
(0.00412307 -0.0061248 5.77617)
(0.0132909 -0.00614094 5.77547)
(0.0222865 -0.00616064 5.7741)
(0.0311284 -0.0061777 5.77217)
(0.0398539 -0.00614555 5.76985)
(0.0484224 -0.00608488 5.76698)
(0.0569365 -0.00582072 5.76368)
(-0.0572919 0.00275084 5.7659)
(-0.0488001 0.00298025 5.76876)
(-0.0403013 0.00296799 5.77128)
(-0.0316354 0.00301474 5.77324)
(-0.0228504 0.0029905 5.77478)
(-0.0138905 0.0029642 5.77577)
(-0.00479492 0.00291974 5.7761)
(0.00414714 0.0029185 5.77589)
(0.0133275 0.00292367 5.77518)
(0.0223451 0.00294126 5.7738)
(0.031212 0.00301016 5.77186)
(0.0399745 0.00294747 5.76951)
(0.0485657 0.00307419 5.76657)
(0.0571806 0.00302434 5.76331)
(-0.0574095 0.0116819 5.76539)
(-0.0487358 0.012201 5.76773)
(-0.0403754 0.0121945 5.77047)
(-0.0317139 0.012292 5.77226)
(-0.0229469 0.0121849 5.77383)
(-0.0139798 0.0120903 5.7748)
(-0.00485918 0.0119935 5.77513)
(0.00410829 0.0119786 5.77493)
(0.0133154 0.0119952 5.77422)
(0.0223586 0.0120472 5.77286)
(0.031222 0.0121701 5.77085)
(0.0400185 0.0120379 5.76865)
(0.0484731 0.0120976 5.76539)
(0.0573351 0.0116897 5.76259)
(-0.0577063 0.0205094 5.76443)
(-0.0488563 0.0212653 5.76616)
(-0.0406475 0.0214061 5.76926)
(-0.0319237 0.021455 5.77095)
(-0.0231034 0.0212851 5.77257)
(-0.0140781 0.0211099 5.77353)
(-0.00489936 0.0209625 5.77387)
(0.00410616 0.0209364 5.77367)
(0.0133711 0.0209571 5.77297)
(0.0224897 0.0210612 5.77163)
(0.031423 0.0212165 5.76954)
(0.040325 0.0211261 5.76742)
(0.0486653 0.0209774 5.76375)
(0.0578281 0.020319 5.76156)
(-0.0578078 0.0294611 5.76276)
(-0.0489113 0.0301781 5.76395)
(-0.0408189 0.0304944 5.76706)
(-0.0321466 0.0303702 5.76873)
(-0.0233167 0.0301369 5.77037)
(-0.0142603 0.0298866 5.7714)
(-0.00500405 0.0297058 5.77177)
(0.00406712 0.0296677 5.77161)
(0.0134226 0.0296692 5.77088)
(0.0226072 0.0298122 5.76949)
(0.0316053 0.0299757 5.76738)
(0.0405351 0.0300239 5.76523)
(0.0488399 0.0295919 5.76151)
(0.0581377 0.0289936 5.75981)
(-0.0585886 0.0384503 5.76023)
(-0.049333 0.0387918 5.76132)
(-0.0411264 0.0395792 5.76473)
(-0.0322584 0.0392123 5.76648)
(-0.0232854 0.0389549 5.76814)
(-0.0141957 0.0386017 5.76913)
(-0.00498979 0.0383727 5.7694)
(0.00394341 0.0383043 5.76926)
(0.013256 0.0383058 5.76866)
(0.0224909 0.0385114 5.76738)
(0.0316702 0.0386298 5.7653)
(0.0408624 0.0388696 5.76309)
(0.0493896 0.0378791 5.75912)
(0.059096 0.0377318 5.75741)
(-0.0566347 0.0474891 5.75719)
(-0.0480997 0.0470377 5.75814)
(-0.0401983 0.0480236 5.76069)
(-0.0318945 0.0474455 5.76269)
(-0.0232078 0.04722 5.76444)
(-0.0143062 0.0469781 5.76584)
(-0.00510678 0.0468526 5.76634)
(0.0038069 0.0467409 5.76629)
(0.0131559 0.046601 5.76551)
(0.0222545 0.0466406 5.76385)
(0.0312535 0.0466276 5.76175)
(0.0399907 0.046977 5.75928)
(0.0482782 0.0457195 5.75612)
(0.0571515 0.0464186 5.7544)
(-0.0586371 0.0575099 5.75438)
(-0.0489219 0.0557098 5.75606)
(-0.0401896 0.0575388 5.7587)
(-0.0313965 0.0565711 5.76073)
(-0.0226251 0.0561958 5.76201)
(-0.0139334 0.0556568 5.76281)
(-0.00507024 0.0553666 5.76298)
(0.00347677 0.0551677 5.76301)
(0.0125529 0.055171 5.76265)
(0.0214494 0.05546 5.76166)
(0.0304803 0.0555061 5.76013)
(0.0395986 0.0562247 5.75778)
(0.0486447 0.0542546 5.75471)
(0.0588214 0.0561914 5.75219)
(-0.045923 -0.0489223 5.36668)
(-0.0379422 -0.0471836 5.36942)
(-0.0311259 -0.0485421 5.37217)
(-0.0244229 -0.0478646 5.37435)
(-0.0177419 -0.0475702 5.37582)
(-0.0111084 -0.0471259 5.37664)
(-0.0043732 -0.0468811 5.37688)
(0.0022276 -0.0467483 5.3766)
(0.00904221 -0.0468301 5.37604)
(0.0157962 -0.0471106 5.37497)
(0.0226514 -0.0474182 5.37324)
(0.0296603 -0.048198 5.37087)
(0.0368578 -0.0469823 5.36786)
(0.0454172 -0.0480848 5.36534)
(-0.0447334 -0.0403646 5.36873)
(-0.037751 -0.0399157 5.37065)
(-0.031426 -0.040705 5.37361)
(-0.0248342 -0.040395 5.37598)
(-0.0181074 -0.0402384 5.3779)
(-0.0113086 -0.040029 5.37919)
(-0.00438477 -0.0399953 5.37981)
(0.00233049 -0.0398642 5.3796)
(0.00937411 -0.0397933 5.37873)
(0.0163136 -0.0398259 5.37713)
(0.0232146 -0.0399748 5.37498)
(0.0299694 -0.0403927 5.37253)
(0.0364082 -0.0397985 5.3695)
(0.0436472 -0.0399558 5.36773)
(-0.0459406 -0.0331272 5.37142)
(-0.0383176 -0.0334234 5.37334)
(-0.0319092 -0.0340532 5.37691)
(-0.0249851 -0.0338493 5.379)
(-0.0181482 -0.033616 5.38088)
(-0.0112571 -0.0333123 5.38191)
(-0.00432098 -0.0331885 5.38231)
(0.00233713 -0.0330897 5.38216)
(0.00939133 -0.0331586 5.38152)
(0.0164237 -0.0333623 5.38026)
(0.0234575 -0.0335928 5.3782)
(0.0305751 -0.0338566 5.37597)
(0.0371585 -0.0333759 5.37235)
(0.0449678 -0.0330728 5.37045)
(-0.0452524 -0.0260398 5.37348)
(-0.0379725 -0.0266088 5.37547)
(-0.0316836 -0.0268956 5.3788)
(-0.0249239 -0.026891 5.38078)
(-0.0181933 -0.0266781 5.38265)
(-0.0113206 -0.0264711 5.38376)
(-0.00431502 -0.0263942 5.38426)
(0.00242106 -0.02633 5.38414)
(0.00952777 -0.0263822 5.38341)
(0.0165065 -0.0265255 5.38206)
(0.023397 -0.0267374 5.38003)
(0.0303329 -0.0268136 5.37789)
(0.0368394 -0.0266557 5.37452)
(0.044287 -0.0262255 5.37244)
(-0.0450217 -0.0190998 5.37495)
(-0.0378868 -0.0196781 5.37733)
(-0.0315006 -0.0198393 5.38058)
(-0.024746 -0.019988 5.38253)
(-0.0180399 -0.0198318 5.38434)
(-0.0112069 -0.019696 5.3854)
(-0.00425975 -0.0196305 5.38584)
(0.00239554 -0.0195919 5.38572)
(0.00942384 -0.0196491 5.38504)
(0.0163393 -0.0197634 5.38376)
(0.0231826 -0.0199395 5.38178)
(0.0301023 -0.0199027 5.37964)
(0.036713 -0.0198746 5.37634)
(0.0440078 -0.0194737 5.3738)
(-0.0447616 -0.0122453 5.37569)
(-0.0378276 -0.0126588 5.37845)
(-0.0312801 -0.012735 5.38138)
(-0.0245753 -0.0129317 5.38337)
(-0.0179006 -0.0128414 5.3851)
(-0.0111215 -0.0127817 5.38617)
(-0.0042189 -0.0127494 5.38661)
(0.00239618 -0.0127336 5.3865)
(0.00937476 -0.0127729 5.38581)
(0.016228 -0.0128417 5.38451)
(0.0230193 -0.0129658 5.38259)
(0.0298528 -0.0129186 5.38036)
(0.0365825 -0.0129703 5.37734)
(0.0436251 -0.0127039 5.37438)
(-0.044719 -0.00541647 5.37612)
(-0.0379573 -0.00571806 5.3792)
(-0.0312548 -0.00582377 5.38184)
(-0.0245702 -0.00599124 5.38393)
(-0.017877 -0.00599202 5.38558)
(-0.0111104 -0.00599709 5.38666)
(-0.00422552 -0.00600405 5.38708)
(0.00236628 -0.00600509 5.38698)
(0.00930988 -0.00602034 5.3863)
(0.0161281 -0.00605713 5.38499)
(0.0228963 -0.00611771 5.3831)
(0.02966 -0.00615176 5.38076)
(0.0364476 -0.00621766 5.3779)
(0.0432868 -0.00613848 5.37458)
(-0.0448867 0.00123814 5.37595)
(-0.0380556 0.00112789 5.37898)
(-0.0313197 0.00100536 5.38158)
(-0.0246147 0.000951935 5.38367)
(-0.0179011 0.000876519 5.38531)
(-0.0111182 0.000827163 5.38638)
(-0.0042161 0.000784733 5.38681)
(0.00239008 0.000782496 5.3867)
(0.00933515 0.000797677 5.38601)
(0.0161523 0.000804475 5.3847)
(0.022911 0.000840285 5.38279)
(0.0296658 0.000731228 5.38043)
(0.0364302 0.000733878 5.37752)
(0.0433163 0.000680415 5.3742)
(-0.0451572 0.00797047 5.37535)
(-0.0381208 0.00806105 5.37794)
(-0.0315128 0.00793392 5.38072)
(-0.0247596 0.00793804 5.38267)
(-0.0180323 0.00778355 5.38434)
(-0.0112119 0.00768063 5.3854)
(-0.00426577 0.00760262 5.38584)
(0.00237295 0.00760521 5.38573)
(0.0093435 0.00764929 5.38505)
(0.0161781 0.00770667 5.38375)
(0.0229111 0.00782458 5.38178)
(0.0296859 0.0076738 5.37956)
(0.0362573 0.00766526 5.37638)
(0.0433312 0.00739727 5.37342)