/*--------------------------------*- C++ -*----------------------------------*\
| =========                 |                                                 |
| \\      /  F ield         | OpenFOAM: The Open Source CFD Toolbox           |
|  \\    /   O peration     | Version:  v2106                                 |
|   \\  /    A nd           | Website:  www.openfoam.com                      |
|    \\/     M anipulation  |                                                 |
\*---------------------------------------------------------------------------*/
FoamFile
{
    version     2.0;
    format      ascii;
    arch        "LSB;label=32;scalar=64";
    class       volScalarField;
    location    "0.000159";
    object      alphat;
}
// * * * * * * * * * * * * * * * * * * * * * * * * * * * * * * * * * * * * * //

dimensions      [1 -1 -1 0 0 0 0];

internalField   nonuniform List<scalar> 
17924
(
9.83505e-17
9.83573e-17
9.83628e-17
9.83691e-17
9.80497e-17
9.80672e-17
9.8083e-17
9.80981e-17
9.81119e-17
9.81245e-17
9.81358e-17
9.80425e-17
9.80602e-17
9.80753e-17
9.80904e-17
9.81039e-17
9.81168e-17
9.81291e-17
9.80343e-17
9.80519e-17
9.80669e-17
9.80819e-17
9.80956e-17
9.81085e-17
9.81207e-17
9.8025e-17
9.80421e-17
9.8057e-17
9.80719e-17
9.80857e-17
9.80988e-17
9.81112e-17
9.80159e-17
9.80324e-17
9.80473e-17
9.80619e-17
9.80755e-17
9.80883e-17
9.81007e-17
9.80054e-17
9.80215e-17
9.80363e-17
9.80508e-17
9.80643e-17
9.80773e-17
9.80897e-17
9.79953e-17
9.80109e-17
9.80255e-17
9.80396e-17
9.8053e-17
9.80658e-17
9.80782e-17
9.79845e-17
9.79996e-17
9.80142e-17
9.80282e-17
9.80415e-17
9.80543e-17
9.80666e-17
9.79741e-17
9.79886e-17
9.80031e-17
9.80168e-17
9.803e-17
9.80427e-17
9.80549e-17
9.7964e-17
9.79779e-17
9.79924e-17
9.80058e-17
9.80188e-17
9.80312e-17
9.80433e-17
9.79543e-17
9.79678e-17
9.7982e-17
9.79951e-17
9.80078e-17
9.80201e-17
9.80319e-17
9.79444e-17
9.79577e-17
9.79716e-17
9.79845e-17
9.79969e-17
9.80091e-17
9.80208e-17
9.79342e-17
9.79477e-17
9.79612e-17
9.79743e-17
9.79865e-17
9.79988e-17
9.80104e-17
9.79265e-17
9.79393e-17
9.79524e-17
9.79653e-17
9.79771e-17
9.7989e-17
9.8e-17
9.77118e-17
9.77321e-17
9.77509e-17
9.77687e-17
9.77857e-17
9.78017e-17
9.78167e-17
9.78305e-17
9.78433e-17
9.78551e-17
9.78661e-17
9.7876e-17
9.78851e-17
9.78953e-17
9.77183e-17
9.77374e-17
9.77569e-17
9.77753e-17
9.7793e-17
9.78096e-17
9.78252e-17
9.78397e-17
9.78531e-17
9.78654e-17
9.78769e-17
9.78873e-17
9.78969e-17
9.79069e-17
9.77261e-17
9.77454e-17
9.7765e-17
9.77833e-17
9.7801e-17
9.78174e-17
9.78329e-17
9.78472e-17
9.78606e-17
9.7873e-17
9.78847e-17
9.78953e-17
9.79053e-17
9.79153e-17
9.77318e-17
9.7751e-17
9.77707e-17
9.77889e-17
9.78066e-17
9.78232e-17
9.7839e-17
9.78536e-17
9.78674e-17
9.78801e-17
9.7892e-17
9.7903e-17
9.79134e-17
9.79238e-17
9.77371e-17
9.77566e-17
9.77761e-17
9.77943e-17
9.7812e-17
9.78284e-17
9.78441e-17
9.78586e-17
9.78723e-17
9.78851e-17
9.78971e-17
9.79083e-17
9.79191e-17
9.79294e-17
9.7741e-17
9.77607e-17
9.77799e-17
9.77981e-17
9.78158e-17
9.78323e-17
9.78481e-17
9.78628e-17
9.78767e-17
9.78897e-17
9.7902e-17
9.79135e-17
9.79245e-17
9.79349e-17
9.77446e-17
9.77644e-17
9.77835e-17
9.78017e-17
9.78191e-17
9.78356e-17
9.78512e-17
9.78659e-17
9.78797e-17
9.78927e-17
9.79051e-17
9.79168e-17
9.79278e-17
9.79383e-17
9.77474e-17
9.77671e-17
9.77859e-17
9.78041e-17
9.78214e-17
9.78379e-17
9.78535e-17
9.78682e-17
9.78821e-17
9.78953e-17
9.79078e-17
9.79195e-17
9.79307e-17
9.79414e-17
9.77499e-17
9.77693e-17
9.77879e-17
9.78059e-17
9.7823e-17
9.78394e-17
9.78548e-17
9.78695e-17
9.78833e-17
9.78964e-17
9.79089e-17
9.79207e-17
9.79319e-17
9.79428e-17
9.7752e-17
9.7771e-17
9.77893e-17
9.78071e-17
9.78238e-17
9.78401e-17
9.78553e-17
9.78699e-17
9.78837e-17
9.78967e-17
9.79092e-17
9.7921e-17
9.79322e-17
9.79431e-17
9.77536e-17
9.77723e-17
9.77901e-17
9.78076e-17
9.7824e-17
9.784e-17
9.78551e-17
9.78694e-17
9.7883e-17
9.78959e-17
9.79082e-17
9.79201e-17
9.79313e-17
9.79424e-17
9.77542e-17
9.77727e-17
9.77902e-17
9.78074e-17
9.78235e-17
9.78393e-17
9.78541e-17
9.78683e-17
9.78816e-17
9.78943e-17
9.79064e-17
9.79181e-17
9.7929e-17
9.79401e-17
9.77548e-17
9.77732e-17
9.779e-17
9.7807e-17
9.78227e-17
9.78382e-17
9.78526e-17
9.78663e-17
9.78793e-17
9.78916e-17
9.79034e-17
9.79148e-17
9.79255e-17
9.79367e-17
9.77576e-17
9.77752e-17
9.77914e-17
9.78078e-17
9.78225e-17
9.78371e-17
9.78506e-17
9.78638e-17
9.78762e-17
9.78881e-17
9.78995e-17
9.79103e-17
9.79208e-17
9.79309e-17
9.73377e-17
9.73534e-17
9.73702e-17
9.73861e-17
9.74017e-17
9.74167e-17
9.74312e-17
9.74448e-17
9.74578e-17
9.74698e-17
9.7481e-17
9.74912e-17
9.75009e-17
9.75111e-17
9.73518e-17
9.73673e-17
9.73848e-17
9.74013e-17
9.74177e-17
9.74333e-17
9.74485e-17
9.74627e-17
9.74761e-17
9.74886e-17
9.75002e-17
9.75109e-17
9.75205e-17
9.75318e-17
9.73679e-17
9.7384e-17
9.74019e-17
9.74184e-17
9.7435e-17
9.74506e-17
9.74657e-17
9.74798e-17
9.74932e-17
9.75058e-17
9.75174e-17
9.75282e-17
9.7538e-17
9.75487e-17
9.73824e-17
9.73991e-17
9.74172e-17
9.7434e-17
9.74509e-17
9.74668e-17
9.74822e-17
9.74967e-17
9.75104e-17
9.75232e-17
9.7535e-17
9.75461e-17
9.75562e-17
9.75666e-17
9.73971e-17
9.74146e-17
9.74329e-17
9.745e-17
9.74669e-17
9.74829e-17
9.74984e-17
9.75129e-17
9.75266e-17
9.75394e-17
9.75513e-17
9.75625e-17
9.75727e-17
9.75827e-17
9.74113e-17
9.74294e-17
9.74477e-17
9.7465e-17
9.74821e-17
9.74983e-17
9.75139e-17
9.75286e-17
9.75425e-17
9.75555e-17
9.75676e-17
9.75788e-17
9.75891e-17
9.75989e-17
9.74251e-17
9.74437e-17
9.74621e-17
9.74797e-17
9.74967e-17
9.75131e-17
9.75286e-17
9.75434e-17
9.75573e-17
9.75703e-17
9.75824e-17
9.75936e-17
9.7604e-17
9.76134e-17
9.74386e-17
9.74575e-17
9.74757e-17
9.74934e-17
9.75105e-17
9.75269e-17
9.75425e-17
9.75573e-17
9.75712e-17
9.75842e-17
9.75964e-17
9.76076e-17
9.76181e-17
9.76275e-17
9.74513e-17
9.74703e-17
9.74883e-17
9.75062e-17
9.75232e-17
9.75397e-17
9.75552e-17
9.75699e-17
9.75837e-17
9.75966e-17
9.76088e-17
9.76199e-17
9.76304e-17
9.76397e-17
9.74636e-17
9.74824e-17
9.75003e-17
9.75181e-17
9.75349e-17
9.75513e-17
9.75666e-17
9.75812e-17
9.75949e-17
9.76077e-17
9.76197e-17
9.76307e-17
9.76412e-17
9.76506e-17
9.74749e-17
9.74936e-17
9.75111e-17
9.75287e-17
9.75454e-17
9.75615e-17
9.75767e-17
9.75911e-17
9.76046e-17
9.76171e-17
9.7629e-17
9.764e-17
9.76505e-17
9.76599e-17
9.74859e-17
9.75043e-17
9.75215e-17
9.75388e-17
9.75551e-17
9.75709e-17
9.75857e-17
9.75998e-17
9.7613e-17
9.76253e-17
9.76369e-17
9.76477e-17
9.7658e-17
9.76674e-17
9.74961e-17
9.75142e-17
9.75309e-17
9.75479e-17
9.75637e-17
9.75791e-17
9.75935e-17
9.76073e-17
9.76202e-17
9.76322e-17
9.76435e-17
9.76541e-17
9.76642e-17
9.76741e-17
9.7507e-17
9.7525e-17
9.75408e-17
9.75572e-17
9.75722e-17
9.75868e-17
9.76006e-17
9.76138e-17
9.76263e-17
9.76379e-17
9.76489e-17
9.76591e-17
9.7669e-17
9.76789e-17
9.69548e-17
9.69643e-17
9.69757e-17
9.69867e-17
9.69979e-17
9.7009e-17
9.70198e-17
9.70305e-17
9.70408e-17
9.70506e-17
9.706e-17
9.70688e-17
9.70773e-17
9.70858e-17
9.69704e-17
9.69801e-17
9.69921e-17
9.70035e-17
9.70152e-17
9.70267e-17
9.70381e-17
9.70491e-17
9.70598e-17
9.707e-17
9.70796e-17
9.70888e-17
9.70971e-17
9.71068e-17
9.69879e-17
9.69982e-17
9.70106e-17
9.70222e-17
9.70341e-17
9.70456e-17
9.7057e-17
9.7068e-17
9.70787e-17
9.70888e-17
9.70984e-17
9.71075e-17
9.71158e-17
9.71254e-17
9.70051e-17
9.7016e-17
9.70287e-17
9.70406e-17
9.70528e-17
9.70646e-17
9.70763e-17
9.70876e-17
9.70985e-17
9.71088e-17
9.71185e-17
9.71277e-17
9.71361e-17
9.71453e-17
9.70228e-17
9.70346e-17
9.70475e-17
9.70597e-17
9.70722e-17
9.70841e-17
9.7096e-17
9.71073e-17
9.71183e-17
9.71286e-17
9.71383e-17
9.71475e-17
9.7156e-17
9.71645e-17
9.70407e-17
9.70532e-17
9.70663e-17
9.70788e-17
9.70914e-17
9.71036e-17
9.71156e-17
9.71272e-17
9.71382e-17
9.71486e-17
9.71585e-17
9.71677e-17
9.71762e-17
9.71844e-17
9.70586e-17
9.70718e-17
9.7085e-17
9.70979e-17
9.71106e-17
9.71229e-17
9.7135e-17
9.71466e-17
9.71576e-17
9.71681e-17
9.7178e-17
9.71871e-17
9.71957e-17
9.72035e-17
9.70766e-17
9.70902e-17
9.71034e-17
9.71165e-17
9.71293e-17
9.71418e-17
9.71538e-17
9.71654e-17
9.71765e-17
9.7187e-17
9.71969e-17
9.7206e-17
9.72147e-17
9.72222e-17
9.70941e-17
9.7108e-17
9.71212e-17
9.71345e-17
9.71473e-17
9.71598e-17
9.71718e-17
9.71834e-17
9.71944e-17
9.72048e-17
9.72147e-17
9.72237e-17
9.72324e-17
9.72397e-17
9.71116e-17
9.71255e-17
9.71386e-17
9.7152e-17
9.71646e-17
9.71771e-17
9.7189e-17
9.72005e-17
9.72114e-17
9.72217e-17
9.72314e-17
9.72403e-17
9.72491e-17
9.72563e-17
9.71282e-17
9.71421e-17
9.71551e-17
9.71684e-17
9.7181e-17
9.71934e-17
9.72052e-17
9.72166e-17
9.72273e-17
9.72374e-17
9.72469e-17
9.72557e-17
9.72645e-17
9.72715e-17
9.7145e-17
9.71588e-17
9.71715e-17
9.71846e-17
9.7197e-17
9.72091e-17
9.72206e-17
9.72317e-17
9.72421e-17
9.7252e-17
9.72613e-17
9.727e-17
9.72788e-17
9.7286e-17
9.71603e-17
9.7174e-17
9.71866e-17
9.71995e-17
9.72116e-17
9.72235e-17
9.72349e-17
9.72457e-17
9.7256e-17
9.72657e-17
9.72749e-17
9.72834e-17
9.7292e-17
9.72997e-17
9.71767e-17
9.71901e-17
9.72024e-17
9.72146e-17
9.72263e-17
9.72375e-17
9.72484e-17
9.72587e-17
9.72686e-17
9.72779e-17
9.72868e-17
9.72953e-17
9.73039e-17
9.73127e-17
9.65934e-17
9.65973e-17
9.66033e-17
9.66094e-17
9.66156e-17
9.6622e-17
9.66283e-17
9.66346e-17
9.66409e-17
9.6647e-17
9.66529e-17
9.66587e-17
9.66643e-17
9.66704e-17
9.6607e-17
9.6611e-17
9.66173e-17
9.66234e-17
9.66298e-17
9.66362e-17
9.66428e-17
9.66492e-17
9.66557e-17
9.6662e-17
9.66679e-17
9.66738e-17
9.66791e-17
9.6686e-17
9.66215e-17
9.66259e-17
9.66325e-17
9.66386e-17
9.66451e-17
9.66516e-17
9.66581e-17
9.66645e-17
9.66709e-17
9.6677e-17
9.66829e-17
9.66886e-17
9.66939e-17
9.67006e-17
9.66366e-17
9.66414e-17
9.6648e-17
9.66543e-17
9.66609e-17
9.66675e-17
9.66741e-17
9.66806e-17
9.6687e-17
9.66932e-17
9.66992e-17
9.6705e-17
9.67104e-17
9.67165e-17
9.66519e-17
9.66574e-17
9.66641e-17
9.66706e-17
9.66773e-17
9.66839e-17
9.66906e-17
9.66972e-17
9.67036e-17
9.67098e-17
9.67157e-17
9.67215e-17
9.6727e-17
9.67325e-17
9.66679e-17
9.66739e-17
9.66805e-17
9.66871e-17
9.66939e-17
9.67006e-17
9.67074e-17
9.6714e-17
9.67205e-17
9.67267e-17
9.67328e-17
9.67385e-17
9.6744e-17
9.67492e-17
9.66838e-17
9.66904e-17
9.66971e-17
9.67038e-17
9.67106e-17
9.67174e-17
9.67242e-17
9.67309e-17
9.67374e-17
9.67437e-17
9.67497e-17
9.67553e-17
9.67609e-17
9.67658e-17
9.67001e-17
9.67071e-17
9.67136e-17
9.67205e-17
9.67273e-17
9.67341e-17
9.67409e-17
9.67476e-17
9.67542e-17
9.67604e-17
9.67664e-17
9.67721e-17
9.67777e-17
9.67824e-17
9.67162e-17
9.67235e-17
9.67301e-17
9.6737e-17
9.67439e-17
9.67507e-17
9.67575e-17
9.67642e-17
9.67707e-17
9.67769e-17
9.67828e-17
9.67885e-17
9.6794e-17
9.67985e-17
9.67326e-17
9.67401e-17
9.67465e-17
9.67535e-17
9.67602e-17
9.67671e-17
9.67738e-17
9.67805e-17
9.67869e-17
9.6793e-17
9.67989e-17
9.68045e-17
9.68101e-17
9.68145e-17
9.67485e-17
9.67562e-17
9.67626e-17
9.67696e-17
9.67763e-17
9.67832e-17
9.67899e-17
9.67965e-17
9.68028e-17
9.68088e-17
9.68145e-17
9.682e-17
9.68256e-17
9.68298e-17
9.67648e-17
9.67725e-17
9.67788e-17
9.67856e-17
9.67923e-17
9.6799e-17
9.68057e-17
9.68121e-17
9.68183e-17
9.68241e-17
9.68298e-17
9.68353e-17
9.6841e-17
9.68454e-17
9.67799e-17
9.67875e-17
9.6794e-17
9.68008e-17
9.68075e-17
9.68143e-17
9.68209e-17
9.68272e-17
9.68333e-17
9.68391e-17
9.68447e-17
9.68501e-17
9.68557e-17
9.68603e-17
9.67967e-17
9.68032e-17
9.68097e-17
9.68162e-17
9.68228e-17
9.68292e-17
9.68355e-17
9.68416e-17
9.68475e-17
9.68532e-17
9.68586e-17
9.68641e-17
9.68698e-17
9.6876e-17
9.62637e-17
9.62642e-17
9.62662e-17
9.62685e-17
9.62709e-17
9.62734e-17
9.62758e-17
9.62782e-17
9.62805e-17
9.62828e-17
9.62848e-17
9.6287e-17
9.62893e-17
9.62927e-17
9.62739e-17
9.62743e-17
9.62763e-17
9.62783e-17
9.62806e-17
9.62831e-17
9.62855e-17
9.62878e-17
9.62902e-17
9.62924e-17
9.62945e-17
9.62967e-17
9.62988e-17
9.63023e-17
9.62841e-17
9.62845e-17
9.62867e-17
9.62887e-17
9.6291e-17
9.62933e-17
9.62956e-17
9.62979e-17
9.63001e-17
9.63023e-17
9.63043e-17
9.63063e-17
9.63083e-17
9.63115e-17
9.62948e-17
9.62955e-17
9.62975e-17
9.62994e-17
9.63016e-17
9.63038e-17
9.63061e-17
9.63083e-17
9.63105e-17
9.63126e-17
9.63147e-17
9.63167e-17
9.63186e-17
9.63214e-17
9.63054e-17
9.63064e-17
9.63085e-17
9.63103e-17
9.63125e-17
9.63146e-17
9.63168e-17
9.6319e-17
9.63211e-17
9.63232e-17
9.63253e-17
9.63273e-17
9.63292e-17
9.63315e-17
9.63163e-17
9.63176e-17
9.63195e-17
9.63214e-17
9.63235e-17
9.63256e-17
9.63277e-17
9.63299e-17
9.6332e-17
9.6334e-17
9.63361e-17
9.6338e-17
9.63399e-17
9.63419e-17
9.63272e-17
9.63288e-17
9.63306e-17
9.63325e-17
9.63345e-17
9.63366e-17
9.63387e-17
9.63408e-17
9.63429e-17
9.63449e-17
9.63469e-17
9.63489e-17
9.63508e-17
9.63525e-17
9.63382e-17
9.634e-17
9.63418e-17
9.63437e-17
9.63457e-17
9.63477e-17
9.63498e-17
9.63519e-17
9.63539e-17
9.63559e-17
9.63579e-17
9.63598e-17
9.63618e-17
9.63632e-17
9.63493e-17
9.63513e-17
9.6353e-17
9.6355e-17
9.6357e-17
9.6359e-17
9.6361e-17
9.63631e-17
9.63651e-17
9.6367e-17
9.6369e-17
9.63708e-17
9.63728e-17
9.63741e-17
9.63604e-17
9.63626e-17
9.63643e-17
9.63663e-17
9.63683e-17
9.63703e-17
9.63723e-17
9.63743e-17
9.63763e-17
9.63782e-17
9.63802e-17
9.6382e-17
9.6384e-17
9.6385e-17
9.63714e-17
9.63739e-17
9.63756e-17
9.63777e-17
9.63797e-17
9.63817e-17
9.63837e-17
9.63857e-17
9.63876e-17
9.63895e-17
9.63915e-17
9.63933e-17
9.63952e-17
9.63958e-17
9.63825e-17
9.63852e-17
9.63868e-17
9.63889e-17
9.6391e-17
9.6393e-17
9.63951e-17
9.6397e-17
9.63989e-17
9.64008e-17
9.64029e-17
9.64047e-17
9.64066e-17
9.64071e-17
9.63933e-17
9.63959e-17
9.63978e-17
9.63999e-17
9.6402e-17
9.64041e-17
9.64062e-17
9.64082e-17
9.64102e-17
9.64121e-17
9.64141e-17
9.64159e-17
9.64175e-17
9.64183e-17
9.6405e-17
9.64069e-17
9.64086e-17
9.64106e-17
9.64128e-17
9.6415e-17
9.64171e-17
9.64191e-17
9.64211e-17
9.64231e-17
9.6425e-17
9.64269e-17
9.64289e-17
9.64309e-17
9.59551e-17
9.59549e-17
9.59548e-17
9.59549e-17
9.59548e-17
9.59546e-17
9.59543e-17
9.59539e-17
9.59535e-17
9.59529e-17
9.59522e-17
9.59516e-17
9.59508e-17
9.59508e-17
9.59621e-17
9.59613e-17
9.59611e-17
9.5961e-17
9.59608e-17
9.59605e-17
9.59601e-17
9.59596e-17
9.5959e-17
9.59584e-17
9.59576e-17
9.59569e-17
9.59562e-17
9.59561e-17
9.59682e-17
9.59673e-17
9.59673e-17
9.5967e-17
9.59668e-17
9.59664e-17
9.59659e-17
9.59653e-17
9.59646e-17
9.59639e-17
9.59631e-17
9.59623e-17
9.59614e-17
9.59612e-17
9.59745e-17
9.59736e-17
9.59734e-17
9.5973e-17
9.59726e-17
9.59722e-17
9.59716e-17
9.59709e-17
9.59702e-17
9.59694e-17
9.59685e-17
9.59676e-17
9.59666e-17
9.59662e-17
9.59804e-17
9.59796e-17
9.59793e-17
9.59789e-17
9.59784e-17
9.59779e-17
9.59772e-17
9.59765e-17
9.59757e-17
9.59748e-17
9.59739e-17
9.5973e-17
9.59718e-17
9.59711e-17
9.59863e-17
9.59856e-17
9.59852e-17
9.59846e-17
9.59841e-17
9.59835e-17
9.59828e-17
9.5982e-17
9.59811e-17
9.59802e-17
9.59792e-17
9.59782e-17
9.5977e-17
9.59761e-17
9.5992e-17
9.59914e-17
9.59909e-17
9.59903e-17
9.59897e-17
9.5989e-17
9.59883e-17
9.59874e-17
9.59865e-17
9.59855e-17
9.59845e-17
9.59834e-17
9.59822e-17
9.5981e-17
9.59977e-17
9.59971e-17
9.59966e-17
9.59959e-17
9.59953e-17
9.59945e-17
9.59937e-17
9.59928e-17
9.59919e-17
9.59909e-17
9.59898e-17
9.59887e-17
9.59875e-17
9.5986e-17
9.60033e-17
9.60028e-17
9.60022e-17
9.60015e-17
9.60008e-17
9.60001e-17
9.59992e-17
9.59983e-17
9.59974e-17
9.59963e-17
9.59952e-17
9.5994e-17
9.59928e-17
9.59911e-17
9.60087e-17
9.60084e-17
9.60077e-17
9.60071e-17
9.60064e-17
9.60056e-17
9.60048e-17
9.60038e-17
9.60029e-17
9.60018e-17
9.60007e-17
9.59994e-17
9.59982e-17
9.59964e-17
9.60139e-17
9.60138e-17
9.60132e-17
9.60125e-17
9.60119e-17
9.60111e-17
9.60103e-17
9.60094e-17
9.60085e-17
9.60073e-17
9.60063e-17
9.60049e-17
9.60038e-17
9.60018e-17
9.6019e-17
9.60189e-17
9.60184e-17
9.60178e-17
9.60172e-17
9.60166e-17
9.60158e-17
9.60149e-17
9.6014e-17
9.6013e-17
9.60119e-17
9.60105e-17
9.60094e-17
9.60074e-17
9.60239e-17
9.60239e-17
9.60234e-17
9.60229e-17
9.60224e-17
9.60218e-17
9.60212e-17
9.60204e-17
9.60196e-17
9.60186e-17
9.60176e-17
9.60162e-17
9.60151e-17
9.60131e-17
9.60286e-17
9.60285e-17
9.6028e-17
9.60276e-17
9.60273e-17
9.60268e-17
9.60264e-17
9.60257e-17
9.60251e-17
9.60242e-17
9.60233e-17
9.6022e-17
9.60209e-17
9.60194e-17
9.56533e-17
9.56527e-17
9.56519e-17
9.5651e-17
9.56497e-17
9.56483e-17
9.56466e-17
9.56448e-17
9.56429e-17
9.56408e-17
9.56387e-17
9.56364e-17
9.56339e-17
9.56315e-17
9.56571e-17
9.56561e-17
9.56553e-17
9.56542e-17
9.5653e-17
9.56515e-17
9.56498e-17
9.56479e-17
9.56458e-17
9.56436e-17
9.56413e-17
9.56388e-17
9.56363e-17
9.56337e-17
9.56601e-17
9.56591e-17
9.56583e-17
9.56572e-17
9.56559e-17
9.56544e-17
9.56526e-17
9.56507e-17
9.56486e-17
9.56463e-17
9.56439e-17
9.56414e-17
9.56387e-17
9.56361e-17
9.56629e-17
9.56619e-17
9.5661e-17
9.56599e-17
9.56586e-17
9.5657e-17
9.56552e-17
9.56532e-17
9.5651e-17
9.56487e-17
9.56462e-17
9.56437e-17
9.56409e-17
9.56382e-17
9.56654e-17
9.56644e-17
9.56635e-17
9.56623e-17
9.56609e-17
9.56593e-17
9.56575e-17
9.56554e-17
9.56532e-17
9.56509e-17
9.56484e-17
9.56457e-17
9.56428e-17
9.564e-17
9.56676e-17
9.56666e-17
9.56656e-17
9.56644e-17
9.5663e-17
9.56613e-17
9.56595e-17
9.56574e-17
9.56552e-17
9.56528e-17
9.56502e-17
9.56475e-17
9.56445e-17
9.56416e-17
9.56696e-17
9.56686e-17
9.56675e-17
9.56663e-17
9.56648e-17
9.56632e-17
9.56613e-17
9.56592e-17
9.56569e-17
9.56544e-17
9.56518e-17
9.56491e-17
9.56461e-17
9.5643e-17
9.56712e-17
9.56703e-17
9.56692e-17
9.56679e-17
9.56665e-17
9.56648e-17
9.56629e-17
9.56608e-17
9.56585e-17
9.5656e-17
9.56533e-17
9.56505e-17
9.56475e-17
9.56443e-17
9.56727e-17
9.56717e-17
9.56706e-17
9.56693e-17
9.56679e-17
9.56662e-17
9.56643e-17
9.56622e-17
9.56599e-17
9.56574e-17
9.56547e-17
9.56518e-17
9.56487e-17
9.56454e-17
9.56738e-17
9.56728e-17
9.56717e-17
9.56705e-17
9.5669e-17
9.56673e-17
9.56655e-17
9.56634e-17
9.56611e-17
9.56585e-17
9.56558e-17
9.56529e-17
9.56498e-17
9.56465e-17
9.56746e-17
9.56736e-17
9.56726e-17
9.56713e-17
9.56699e-17
9.56683e-17
9.56664e-17
9.56644e-17
9.56621e-17
9.56596e-17
9.56569e-17
9.5654e-17
9.5651e-17
9.56475e-17
9.56751e-17
9.56742e-17
9.56732e-17
9.5672e-17
9.56706e-17
9.5669e-17
9.56672e-17
9.56652e-17
9.5663e-17
9.56606e-17
9.5658e-17
9.56551e-17
9.56521e-17
9.56485e-17
9.56756e-17
9.56747e-17
9.56736e-17
9.56724e-17
9.56711e-17
9.56696e-17
9.56679e-17
9.5666e-17
9.56639e-17
9.56615e-17
9.5659e-17
9.56561e-17
9.56532e-17
9.56496e-17
9.56754e-17
9.56745e-17
9.56736e-17
9.56725e-17
9.56713e-17
9.56699e-17
9.56684e-17
9.56666e-17
9.56647e-17
9.56624e-17
9.566e-17
9.56572e-17
9.56543e-17
9.56508e-17
9.5349e-17
9.53485e-17
9.53475e-17
9.53464e-17
9.5345e-17
9.53434e-17
9.53415e-17
9.53394e-17
9.53371e-17
9.53347e-17
9.53321e-17
9.53292e-17
9.53263e-17
9.53228e-17
9.53504e-17
9.53496e-17
9.53489e-17
9.53478e-17
9.53465e-17
9.53448e-17
9.53429e-17
9.53408e-17
9.53384e-17
9.53358e-17
9.5333e-17
9.533e-17
9.5327e-17
9.53237e-17
9.53513e-17
9.53507e-17
9.53499e-17
9.53489e-17
9.53475e-17
9.53459e-17
9.5344e-17
9.53419e-17
9.53395e-17
9.53369e-17
9.53341e-17
9.53311e-17
9.53279e-17
9.53246e-17
9.53521e-17
9.53514e-17
9.53507e-17
9.53496e-17
9.53483e-17
9.53467e-17
9.53448e-17
9.53427e-17
9.53403e-17
9.53376e-17
9.53348e-17
9.53317e-17
9.53285e-17
9.53252e-17
9.53524e-17
9.53518e-17
9.53511e-17
9.53501e-17
9.53488e-17
9.53472e-17
9.53453e-17
9.53432e-17
9.53408e-17
9.53381e-17
9.53352e-17
9.53321e-17
9.53288e-17
9.53254e-17
9.53525e-17
9.5352e-17
9.53512e-17
9.53502e-17
9.53489e-17
9.53473e-17
9.53454e-17
9.53433e-17
9.53409e-17
9.53382e-17
9.53353e-17
9.53322e-17
9.53289e-17
9.53254e-17
9.53523e-17
9.53518e-17
9.53511e-17
9.535e-17
9.53487e-17
9.53471e-17
9.53453e-17
9.53431e-17
9.53407e-17
9.53381e-17
9.53352e-17
9.5332e-17
9.53287e-17
9.53252e-17
9.53518e-17
9.53513e-17
9.53506e-17
9.53496e-17
9.53483e-17
9.53467e-17
9.53448e-17
9.53427e-17
9.53403e-17
9.53376e-17
9.53347e-17
9.53316e-17
9.53282e-17
9.53247e-17
9.5351e-17
9.53505e-17
9.53497e-17
9.53488e-17
9.53475e-17
9.53459e-17
9.53441e-17
9.5342e-17
9.53396e-17
9.53369e-17
9.5334e-17
9.53309e-17
9.53275e-17
9.5324e-17
9.53498e-17
9.53492e-17
9.53486e-17
9.53476e-17
9.53463e-17
9.53448e-17
9.5343e-17
9.53409e-17
9.53385e-17
9.53359e-17
9.5333e-17
9.53299e-17
9.53264e-17
9.5323e-17
9.53485e-17
9.53478e-17
9.53471e-17
9.53461e-17
9.53449e-17
9.53434e-17
9.53416e-17
9.53395e-17
9.53372e-17
9.53346e-17
9.53317e-17
9.53286e-17
9.53252e-17
9.53219e-17
9.53467e-17
9.5346e-17
9.53453e-17
9.53444e-17
9.53432e-17
9.53417e-17
9.534e-17
9.5338e-17
9.53357e-17
9.53331e-17
9.53302e-17
9.53272e-17
9.53238e-17
9.53205e-17
9.53449e-17
9.53441e-17
9.53434e-17
9.53424e-17
9.53413e-17
9.53399e-17
9.53382e-17
9.53362e-17
9.53339e-17
9.53314e-17
9.53286e-17
9.53255e-17
9.53224e-17
9.5319e-17
9.53424e-17
9.53419e-17
9.53412e-17
9.53403e-17
9.53392e-17
9.53379e-17
9.53362e-17
9.53344e-17
9.53322e-17
9.53298e-17
9.53272e-17
9.53243e-17
9.53211e-17
9.53177e-17
9.50459e-17
9.50452e-17
9.50443e-17
9.50433e-17
9.50422e-17
9.50409e-17
9.50394e-17
9.50377e-17
9.50359e-17
9.5034e-17
9.50319e-17
9.50296e-17
9.50274e-17
9.50247e-17
9.50458e-17
9.5045e-17
9.50443e-17
9.50435e-17
9.50424e-17
9.50411e-17
9.50397e-17
9.5038e-17
9.50361e-17
9.5034e-17
9.50318e-17
9.50294e-17
9.5027e-17
9.50247e-17
9.50455e-17
9.50449e-17
9.50443e-17
9.50434e-17
9.50424e-17
9.50411e-17
9.50397e-17
9.5038e-17
9.50362e-17
9.50341e-17
9.50319e-17
9.50296e-17
9.50271e-17
9.50246e-17
9.5045e-17
9.50445e-17
9.5044e-17
9.50432e-17
9.50422e-17
9.5041e-17
9.50396e-17
9.50379e-17
9.5036e-17
9.5034e-17
9.50318e-17
9.50294e-17
9.50269e-17
9.50244e-17
9.50444e-17
9.5044e-17
9.50435e-17
9.50427e-17
9.50418e-17
9.50406e-17
9.50392e-17
9.50376e-17
9.50357e-17
9.50336e-17
9.50314e-17
9.5029e-17
9.50266e-17
9.5024e-17
9.50436e-17
9.50433e-17
9.50428e-17
9.50421e-17
9.50411e-17
9.504e-17
9.50386e-17
9.5037e-17
9.50352e-17
9.50331e-17
9.50309e-17
9.50285e-17
9.5026e-17
9.50234e-17
9.50426e-17
9.50423e-17
9.50418e-17
9.50411e-17
9.50402e-17
9.50391e-17
9.50378e-17
9.50362e-17
9.50343e-17
9.50323e-17
9.50301e-17
9.50277e-17
9.50253e-17
9.50227e-17
9.50413e-17
9.50411e-17
9.50406e-17
9.50399e-17
9.50391e-17
9.5038e-17
9.50366e-17
9.50351e-17
9.50333e-17
9.50313e-17
9.50291e-17
9.50267e-17
9.50243e-17
9.50217e-17
9.50399e-17
9.50396e-17
9.50391e-17
9.50385e-17
9.50376e-17
9.50366e-17
9.50353e-17
9.50337e-17
9.50319e-17
9.503e-17
9.50278e-17
9.50255e-17
9.5023e-17
9.50206e-17
9.50383e-17
9.50379e-17
9.50375e-17
9.50368e-17
9.5036e-17
9.50349e-17
9.50337e-17
9.50321e-17
9.50304e-17
9.50284e-17
9.50263e-17
9.5024e-17
9.50216e-17
9.50192e-17
9.50365e-17
9.50361e-17
9.50357e-17
9.5035e-17
9.50342e-17
9.50331e-17
9.50318e-17
9.50303e-17
9.50286e-17
9.50267e-17
9.50246e-17
9.50223e-17
9.50199e-17
9.50177e-17
9.50346e-17
9.50341e-17
9.50337e-17
9.5033e-17
9.50322e-17
9.50311e-17
9.50299e-17
9.50284e-17
9.50267e-17
9.50248e-17
9.50227e-17
9.50205e-17
9.50181e-17
9.5016e-17
9.50328e-17
9.5032e-17
9.50316e-17
9.5031e-17
9.50301e-17
9.50291e-17
9.50278e-17
9.50263e-17
9.50246e-17
9.50227e-17
9.50206e-17
9.50185e-17
9.50162e-17
9.50141e-17
9.50304e-17
9.50299e-17
9.50295e-17
9.50289e-17
9.5028e-17
9.50269e-17
9.50257e-17
9.50242e-17
9.50226e-17
9.50207e-17
9.50188e-17
9.50166e-17
9.50145e-17
9.50121e-17
9.47565e-17
9.47554e-17
9.47543e-17
9.47533e-17
9.47524e-17
9.47514e-17
9.47505e-17
9.47495e-17
9.47485e-17
9.47475e-17
9.47466e-17
9.47457e-17
9.4745e-17
9.47442e-17
9.47554e-17
9.47543e-17
9.47534e-17
9.47525e-17
9.47516e-17
9.47507e-17
9.47497e-17
9.47487e-17
9.47477e-17
9.47467e-17
9.47457e-17
9.47448e-17
9.47439e-17
9.47432e-17
9.47543e-17
9.47534e-17
9.47525e-17
9.47516e-17
9.47507e-17
9.47498e-17
9.47489e-17
9.47479e-17
9.47469e-17
9.47459e-17
9.4745e-17
9.4744e-17
9.47432e-17
9.47424e-17
9.47533e-17
9.47525e-17
9.47516e-17
9.47508e-17
9.47499e-17
9.4749e-17
9.47481e-17
9.47472e-17
9.47462e-17
9.47452e-17
9.47442e-17
9.47433e-17
9.47424e-17
9.47416e-17
9.47523e-17
9.47516e-17
9.47507e-17
9.47499e-17
9.47491e-17
9.47482e-17
9.47473e-17
9.47464e-17
9.47454e-17
9.47444e-17
9.47435e-17
9.47425e-17
9.47417e-17
9.47408e-17
9.47513e-17
9.47506e-17
9.47498e-17
9.4749e-17
9.47482e-17
9.47474e-17
9.47465e-17
9.47456e-17
9.47446e-17
9.47436e-17
9.47427e-17
9.47417e-17
9.47409e-17
9.474e-17
9.47503e-17
9.47496e-17
9.47488e-17
9.47481e-17
9.47473e-17
9.47465e-17
9.47456e-17
9.47447e-17
9.47438e-17
9.47428e-17
9.47418e-17
9.47409e-17
9.47401e-17
9.47393e-17
9.47492e-17
9.47485e-17
9.47478e-17
9.47471e-17
9.47463e-17
9.47455e-17
9.47447e-17
9.47438e-17
9.47429e-17
9.47419e-17
9.4741e-17
9.47401e-17
9.47393e-17
9.47385e-17
9.47482e-17
9.47475e-17
9.47468e-17
9.47461e-17
9.47453e-17
9.47445e-17
9.47437e-17
9.47428e-17
9.47419e-17
9.4741e-17
9.47401e-17
9.47392e-17
9.47384e-17
9.47376e-17
9.47471e-17
9.47464e-17
9.47457e-17
9.4745e-17
9.47443e-17
9.47435e-17
9.47427e-17
9.47418e-17
9.47409e-17
9.474e-17
9.47391e-17
9.47383e-17
9.47375e-17
9.47368e-17
9.47462e-17
9.47454e-17
9.47447e-17
9.4744e-17
9.47433e-17
9.47425e-17
9.47417e-17
9.47408e-17
9.47399e-17
9.4739e-17
9.47382e-17
9.47374e-17
9.47366e-17
9.4736e-17
9.47453e-17
9.47445e-17
9.47438e-17
9.47431e-17
9.47423e-17
9.47415e-17
9.47407e-17
9.47399e-17
9.4739e-17
9.47381e-17
9.47373e-17
9.47365e-17
9.47357e-17
9.47352e-17
9.47447e-17
9.47437e-17
9.4743e-17
9.47423e-17
9.47415e-17
9.47407e-17
9.47399e-17
9.4739e-17
9.47381e-17
9.47373e-17
9.47364e-17
9.47356e-17
9.47348e-17
9.47344e-17
9.47441e-17
9.47431e-17
9.47423e-17
9.47415e-17
9.47407e-17
9.47398e-17
9.47389e-17
9.47381e-17
9.47372e-17
9.47364e-17
9.47355e-17
9.47348e-17
9.47342e-17
9.47335e-17
9.44935e-17
9.44917e-17
9.44902e-17
9.4489e-17
9.4488e-17
9.44872e-17
9.44866e-17
9.44863e-17
9.44861e-17
9.44862e-17
9.44864e-17
9.44868e-17
9.44874e-17
9.44883e-17
9.44917e-17
9.44901e-17
9.44887e-17
9.44874e-17
9.44864e-17
9.44856e-17
9.4485e-17
9.44846e-17
9.44845e-17
9.44845e-17
9.44848e-17
9.44852e-17
9.44857e-17
9.44865e-17
9.44902e-17
9.44886e-17
9.44871e-17
9.44859e-17
9.44848e-17
9.4484e-17
9.44834e-17
9.4483e-17
9.44829e-17
9.4483e-17
9.44833e-17
9.44837e-17
9.44844e-17
9.44851e-17
9.44888e-17
9.44873e-17
9.44858e-17
9.44845e-17
9.44835e-17
9.44826e-17
9.4482e-17
9.44816e-17
9.44815e-17
9.44816e-17
9.44819e-17
9.44824e-17
9.44832e-17
9.44839e-17
9.44877e-17
9.44862e-17
9.44846e-17
9.44834e-17
9.44823e-17
9.44815e-17
9.44808e-17
9.44805e-17
9.44804e-17
9.44805e-17
9.44808e-17
9.44814e-17
9.44821e-17
9.44829e-17
9.44867e-17
9.44852e-17
9.44837e-17
9.44824e-17
9.44813e-17
9.44805e-17
9.44799e-17
9.44795e-17
9.44794e-17
9.44796e-17
9.44799e-17
9.44805e-17
9.44813e-17
9.44821e-17
9.44859e-17
9.44844e-17
9.44829e-17
9.44817e-17
9.44806e-17
9.44798e-17
9.44792e-17
9.44788e-17
9.44787e-17
9.44789e-17
9.44792e-17
9.44798e-17
9.44806e-17
9.44815e-17
9.44853e-17
9.44838e-17
9.44823e-17
9.44811e-17
9.44801e-17
9.44793e-17
9.44787e-17
9.44783e-17
9.44782e-17
9.44784e-17
9.44787e-17
9.44793e-17
9.44801e-17
9.4481e-17
9.44849e-17
9.44835e-17
9.44821e-17
9.44809e-17
9.44798e-17
9.4479e-17
9.44785e-17
9.44781e-17
9.4478e-17
9.44781e-17
9.44785e-17
9.4479e-17
9.44799e-17
9.44808e-17
9.44848e-17
9.44834e-17
9.44821e-17
9.44809e-17
9.44799e-17
9.44791e-17
9.44785e-17
9.44781e-17
9.4478e-17
9.44782e-17
9.44785e-17
9.4479e-17
9.44799e-17
9.44808e-17
9.4485e-17
9.44836e-17
9.44823e-17
9.44811e-17
9.44801e-17
9.44793e-17
9.44788e-17
9.44784e-17
9.44782e-17
9.44784e-17
9.44787e-17
9.44792e-17
9.448e-17
9.44809e-17
9.44854e-17
9.4484e-17
9.44827e-17
9.44815e-17
9.44806e-17
9.44798e-17
9.44792e-17
9.44788e-17
9.44786e-17
9.44788e-17
9.44791e-17
9.44796e-17
9.44803e-17
9.44812e-17
9.44861e-17
9.44846e-17
9.44834e-17
9.44823e-17
9.44813e-17
9.44805e-17
9.44799e-17
9.44795e-17
9.44793e-17
9.44794e-17
9.44797e-17
9.44801e-17
9.44808e-17
9.44817e-17
9.44872e-17
9.44855e-17
9.44842e-17
9.4483e-17
9.44821e-17
9.44813e-17
9.44806e-17
9.44802e-17
9.448e-17
9.448e-17
9.44803e-17
9.44807e-17
9.44815e-17
9.44825e-17
9.42619e-17
9.42596e-17
9.42578e-17
9.42564e-17
9.42553e-17
9.42546e-17
9.42543e-17
9.42543e-17
9.42546e-17
9.42552e-17
9.4256e-17
9.42571e-17
9.42584e-17
9.42601e-17
9.42598e-17
9.42578e-17
9.42561e-17
9.42546e-17
9.42534e-17
9.42526e-17
9.42521e-17
9.42521e-17
9.42525e-17
9.42531e-17
9.4254e-17
9.42552e-17
9.42564e-17
9.42579e-17
9.42582e-17
9.42562e-17
9.42543e-17
9.42527e-17
9.42515e-17
9.42507e-17
9.42502e-17
9.42501e-17
9.42505e-17
9.42511e-17
9.42521e-17
9.42533e-17
9.42548e-17
9.42562e-17
9.42567e-17
9.42547e-17
9.42528e-17
9.42512e-17
9.42499e-17
9.42491e-17
9.42486e-17
9.42485e-17
9.42489e-17
9.42495e-17
9.42505e-17
9.42518e-17
9.42533e-17
9.42548e-17
9.42555e-17
9.42535e-17
9.42515e-17
9.42499e-17
9.42487e-17
9.42478e-17
9.42473e-17
9.42472e-17
9.42476e-17
9.42482e-17
9.42493e-17
9.42506e-17
9.42522e-17
9.42538e-17
9.42547e-17
9.42526e-17
9.42506e-17
9.4249e-17
9.42477e-17
9.42469e-17
9.42463e-17
9.42463e-17
9.42466e-17
9.42473e-17
9.42484e-17
9.42497e-17
9.42514e-17
9.42531e-17
9.42541e-17
9.4252e-17
9.425e-17
9.42484e-17
9.42472e-17
9.42463e-17
9.42458e-17
9.42457e-17
9.4246e-17
9.42467e-17
9.42478e-17
9.42492e-17
9.42509e-17
9.42527e-17
9.42538e-17
9.42518e-17
9.42499e-17
9.42483e-17
9.4247e-17
9.42462e-17
9.42456e-17
9.42455e-17
9.42459e-17
9.42466e-17
9.42477e-17
9.42491e-17
9.42508e-17
9.42526e-17
9.4254e-17
9.4252e-17
9.42501e-17
9.42486e-17
9.42474e-17
9.42465e-17
9.4246e-17
9.42459e-17
9.42462e-17
9.42469e-17
9.4248e-17
9.42493e-17
9.4251e-17
9.42529e-17
9.42544e-17
9.42526e-17
9.42507e-17
9.42492e-17
9.4248e-17
9.42472e-17
9.42466e-17
9.42465e-17
9.42468e-17
9.42475e-17
9.42485e-17
9.42499e-17
9.42516e-17
9.42534e-17
9.42552e-17
9.42535e-17
9.42517e-17
9.42502e-17
9.42491e-17
9.42482e-17
9.42477e-17
9.42476e-17
9.42479e-17
9.42485e-17
9.42495e-17
9.42508e-17
9.42524e-17
9.42542e-17
9.42564e-17
9.42547e-17
9.4253e-17
9.42516e-17
9.42504e-17
9.42496e-17
9.4249e-17
9.42489e-17
9.42491e-17
9.42497e-17
9.42507e-17
9.42519e-17
9.42535e-17
9.42552e-17
9.42579e-17
9.42562e-17
9.42547e-17
9.42533e-17
9.42521e-17
9.42513e-17
9.42507e-17
9.42505e-17
9.42507e-17
9.42513e-17
9.42522e-17
9.42533e-17
9.42548e-17
9.42565e-17
9.426e-17
9.4258e-17
9.42564e-17
9.4255e-17
9.42539e-17
9.42531e-17
9.42526e-17