/*--------------------------------*- C++ -*----------------------------------*\
| =========                 |                                                 |
| \\      /  F ield         | OpenFOAM: The Open Source CFD Toolbox           |
|  \\    /   O peration     | Version:  v2106                                 |
|   \\  /    A nd           | Website:  www.openfoam.com                      |
|    \\/     M anipulation  |                                                 |
\*---------------------------------------------------------------------------*/
FoamFile
{
    version     2.0;
    format      ascii;
    arch        "LSB;label=32;scalar=64";
    class       volScalarField;
    location    "0.000159";
    object      p;
}
// * * * * * * * * * * * * * * * * * * * * * * * * * * * * * * * * * * * * * //

dimensions      [1 -1 -2 0 0 0 0];

internalField   nonuniform List<scalar> 
17924
(
237660
237676
237690
237705
236919
236962
237001
237038
237071
237103
237130
236901
236943
236981
237018
237051
237083
237113
236879
236922
236959
236996
237030
237062
237092
236855
236896
236934
236970
237004
237037
237068
236831
236872
236909
236945
236979
237010
237041
236805
236844
236881
236917
236950
236982
237013
236779
236818
236854
236889
236922
236953
236984
236752
236789
236825
236860
236893
236924
236955
236725
236761
236797
236831
236864
236895
236925
236699
236734
236770
236803
236835
236866
236896
236674
236708
236743
236776
236807
236838
236867
236650
236683
236717
236749
236780
236810
236839
236624
236658
236691
236723
236754
236784
236813
236607
236638
236670
236701
236730
236759
236787
236089
236138
236185
236228
236269
236309
236345
236379
236411
236440
236467
236492
236514
236540
236104
236150
236198
236243
236286
236327
236366
236401
236434
236465
236493
236519
236542
236568
236122
236169
236217
236262
236305
236345
236384
236419
236452
236482
236511
236537
236561
236587
236135
236181
236230
236274
236318
236359
236398
236434
236468
236499
236528
236555
236580
236607
236147
236194
236243
236287
236331
236371
236409
236445
236479
236510
236540
236567
236593
236619
236156
236204
236251
236296
236339
236380
236418
236455
236489
236521
236551
236579
236606
236632
236163
236212
236259
236304
236346
236387
236425
236461
236496
236527
236558
236586
236614
236639
236170
236218
236264
236309
236351
236392
236430
236466
236501
236533
236564
236592
236620
236646
236175
236223
236268
236313
236354
236395
236433
236469
236503
236535
236566
236594
236622
236648
236179
236226
236271
236315
236356
236396
236433
236469
236503
236535
236566
236595
236622
236648
236182
236228
236272
236315
236355
236395
236432
236467
236501
236532
236563
236591
236619
236645
236183
236229
236272
236314
236353
236392
236429
236464
236496
236527
236557
236586
236613
236639
236184
236229
236270
236312
236351
236389
236424
236458
236490
236520
236550
236577
236603
236630
236192
236235
236274
236314
236350
236386
236419
236451
236482
236511
236539
236566
236592
236617
235171
235210
235251
235289
235328
235364
235400
235433
235465
235495
235522
235547
235571
235597
235205
235243
235286
235326
235366
235404
235442
235476
235509
235540
235569
235595
235618
235647
235244
235283
235327
235367
235408
235446
235483
235518
235550
235581
235610
235636
235660
235687
235278
235319
235363
235405
235446
235485
235523
235558
235592
235623
235652
235679
235704
235730
235313
235356
235401
235443
235484
235524
235561
235597
235631
235662
235691
235718
235743
235768
235347
235392
235436
235479
235521
235560
235599
235635
235669
235701
235730
235758
235783
235807
235380
235426
235471
235514
235556
235596
235634
235670
235704
235736
235766
235793
235819
235842
235413
235459
235504
235547
235589
235629
235667
235704
235738
235770
235800
235827
235853
235875
235443
235490
235534
235578
235619
235660
235698
235734
235768
235799
235829
235856
235882
235904
235472
235519
235562
235606
235647
235687
235725
235761
235794
235826
235855
235882
235908
235930
235499
235545
235588
235631
235672
235712
235749
235784
235817
235848
235877
235904
235930
235952
235526
235571
235613
235655
235695
235734
235770
235805
235837
235867
235896
235922
235947
235970
235550
235594
235635
235677
235716
235753
235789
235823
235854
235884
235912
235937
235962
235985
235577
235621
235660
235700
235736
235772
235806
235838
235868
235897
235924
235949
235974
235998
234233
234256
234284
234311
234339
234366
234393
234419
234444
234468
234491
234513
234533
234555
234271
234295
234324
234352
234381
234409
234437
234464
234490
234515
234539
234561
234581
234606
234313
234338
234369
234397
234426
234454
234482
234509
234535
234560
234584
234606
234626
234650
234355
234381
234412
234441
234471
234500
234529
234557
234583
234609
234632
234655
234675
234698
234397
234426
234458
234488
234518
234547
234576
234604
234631
234656
234680
234703
234723
234744
234440
234471
234503
234534
234565
234595
234624
234652
234679
234705
234729
234751
234772
234792
234483
234516
234548
234580
234611
234641
234671
234699
234726
234752
234776
234798
234819
234838
234527
234560
234593
234625
234656
234687
234716
234744
234772
234797
234822
234844
234865
234883
234569
234603
234635
234668
234699
234730
234759
234788
234815
234840
234864
234886
234908
234925
234611
234646
234678
234710
234741
234772
234801
234829
234856
234881
234905
234926
234948
234965
234651
234685
234717
234750
234781
234811
234840
234868
234894
234919
234942
234963
234985
235001
234692
234726
234757
234789
234819
234849
234877
234904
234929
234954
234976
234998
235019
235036
234728
234762
234793
234824
234854
234883
234911
234938
234963
234987
235009
235030
235051
235069
234769
234801
234831
234861
234890
234917
234944
234969
234993
235016
235038
235058
235080
235101
233348
233358
233373
233388
233403
233419
233434
233450
233465
233480
233495
233509
233522
233538
233381
233391
233407
233421
233437
233453
233469
233485
233501
233516
233531
233545
233558
233575
233416
233427
233443
233458
233474
233490
233506
233522
233538
233553
233567
233581
233594
233611
233453
233464
233481
233496
233512
233529
233545
233561
233577
233592
233607
233621
233634
233649
233490
233503
233520
233536
233552
233568
233585
233601
233617
233632
233646
233661
233674
233688
233528
233543
233559
233576
233592
233609
233625
233642
233658
233673
233688
233702
233715
233728
233567
233583
233599
233616
233633
233649
233666
233682
233698
233714
233728
233742
233756
233768
233606
233623
233639
233656
233673
233690
233706
233723
233739
233754
233769
233783
233797
233808
233645
233663
233679
233696
233713
233730
233746
233763
233779
233794
233809
233822
233836
233847
233685
233703
233719
233736
233752
233769
233786
233802
233818
233833
233847
233861
233875
233885
233723
233742
233758
233775
233791
233808
233825
233841
233856
233871
233885
233898
233912
233922
233762
233781
233797
233813
233830
233846
233863
233878
233893
233908
233922
233935
233949
233960
233799
233817
233833
233850
233867
233883
233899
233915
233930
233944
233958
233971
233985
233995
233840
233855
233871
233887
233903
233919
233935
233950
233964
233978
233991
234005
234019
234034
232540
232542
232547
232553
232559
232565
232571
232577
232583
232588
232593
232599
232604
232613
232565
232566
232571
232576
232582
232588
232594
232600
232606
232611
232617
232622
232627
232636
232590
232591
232597
232602
232607
232613
232619
232624
232630
232635
232640
232645
232650
232658
232616
232618
232623
232627
232633
232639
232644
232650
232655
232660
232666
232671
232675
232682
232641
232644
232649
232654
232659
232665
232670
232676
232681
232686
232691
232696
232701
232706
232668
232671
232676
232681
232686
232691
232696
232702
232707
232712
232717
232722
232727
232732
232694
232698
232703
232708
232713
232718
232723
232728
232733
232738
232743
232748
232753
232757
232721
232725
232730
232735
232740
232745
232750
232755
232760
232765
232770
232775
232779
232783
232747
232753
232757
232762
232767
232772
232777
232782
232787
232792
232797
232801
232806
232809
232774
232780
232784
232789
232794
232799
232804
232809
232814
232819
232824
232828
232833
232836
232801
232807
232811
232817
232822
232827
232832
232837
232841
232846
232851
232855
232860
232862
232828
232834
232839
232844
232849
232854
232859
232864
232869
232873
232878
232883
232888
232889
232854
232860
232865
232870
232876
232881
232886
232891
232896
232901
232905
232910
232914
232916
232882
232887
232891
232896
232902
232907
232912
232917
232922
232927
232932
232937
232941
232946
231784
231784
231784
231784
231784
231784
231783
231782
231781
231780
231778
231777
231775
231775
231801
231799
231799
231799
231798
231798
231797
231796
231795
231793
231791
231790
231788
231788
231816
231814
231814
231813
231813
231812
231811
231810
231808
231806
231804
231803
231800
231800
231831
231829
231829
231828
231827
231826
231825
231823
231822
231820
231818
231816
231813
231812
231846
231844
231843
231842
231841
231840
231838
231837
231835
231833
231831
231828
231826
231824
231860
231858
231857
231856
231855
231853
231852
231850
231848
231846
231843
231841
231838
231836
231874
231872
231871
231870
231868
231867
231865
231863
231861
231859
231856
231854
231851
231848
231887
231886
231885
231883
231882
231880
231878
231876
231874
231872
231869
231866
231863
231860
231901
231900
231898
231897
231895
231893
231892
231889
231887
231885
231882
231879
231876
231872
231914
231913
231912
231910
231909
231907
231905
231903
231900
231898
231895
231892
231889
231885
231926
231926
231925
231923
231922
231920
231918
231916
231914
231911
231909
231905
231903
231898
231939
231938
231937
231936
231935
231933
231931
231929
231927
231925
231922
231919
231916
231911
231950
231950
231949
231948
231947
231946
231944
231943
231941
231938
231936
231933
231930
231925
231961
231961
231960
231959
231959
231958
231957
231955
231954
231952
231950
231947
231944
231940
231044
231043
231041
231039
231036
231033
231029
231024
231020
231015
231010
231004
230998
230992
231053
231051
231049
231047
231044
231040
231036
231032
231027
231021
231016
231010
231004
230998
231061
231058
231057
231054
231051
231047
231043
231038
231033
231028
231022
231016
231010
231003
231067
231065
231063
231061
231057
231054
231049
231045
231039
231034
231028
231022
231015
231008
231073
231071
231069
231066
231063
231059
231055
231050
231045
231039
231033
231027
231020
231013
231079
231077
231074
231071
231068
231064
231060
231055
231049
231044
231037
231031
231024
231016
231084
231081
231079
231076
231073
231069
231064
231059
231054
231048
231041
231035
231027
231020
231088
231085
231083
231080
231076
231072
231068
231063
231057
231051
231045
231038
231031
231023
231091
231089
231086
231083
231080
231076
231071
231066
231061
231055
231048
231041
231034
231026
231094
231091
231089
231086
231082
231078
231074
231069
231063
231057
231051
231044
231036
231028
231096
231093
231091
231088
231085
231081
231076
231071
231066
231060
231053
231046
231039
231031
231097
231095
231092
231089
231086
231082
231078
231073
231068
231062
231056
231049
231041
231033
231098
231096
231093
231090
231087
231084
231080
231075
231070
231064
231058
231051
231044
231035
231097
231095
231093
231090
231088
231084
231081
231076
231072
231066
231061
231054
231047
231038
230298
230297
230295
230292
230289
230285
230280
230275
230270
230264
230258
230251
230244
230235
230301
230300
230298
230296
230292
230288
230284
230279
230273
230267
230260
230253
230245
230237
230304
230302
230301
230298
230295
230291
230287
230281
230276
230269
230263
230255
230248
230239
230306
230304
230302
230300
230297
230293
230289
230283
230278
230271
230264
230257
230249
230241
230306
230305
230303
230301
230298
230294
230290
230284
230279
230272
230265
230258
230250
230241
230307
230305
230304
230301
230298
230294
230290
230285
230279
230272
230265
230258
230250
230241
230306
230305
230303
230301
230298
230294
230290
230284
230279
230272
230265
230257
230249
230241
230305
230304
230302
230300
230297
230293
230288
230283
230278
230271
230264
230256
230248
230240
230303
230302
230300
230298
230295
230291
230287
230281
230276
230269
230262
230255
230246
230238
230300
230299
230297
230295
230292
230288
230284
230279
230273
230267
230260
230252
230244
230236
230297
230295
230293
230291
230288
230285
230280
230275
230270
230263
230256
230249
230241
230233
230292
230291
230289
230287
230284
230281
230276
230272
230266
230260
230253
230245
230237
230229
230288
230286
230284
230282
230279
230276
230272
230267
230262
230256
230249
230241
230234
230225
230282
230280
230279
230277
230274
230271
230267
230263
230257
230252
230245
230238
230230
230222
229555
229553
229551
229549
229546
229543
229539
229535
229531
229526
229521
229516
229511
229504
229555
229553
229551
229549
229547
229544
229540
229536
229532
229526
229521
229515
229509
229504
229554
229553
229551
229549
229547
229544
229540
229536
229532
229527
229521
229516
229510
229504
229553
229552
229550
229549
229546
229543
229540
229536
229531
229526
229521
229515
229509
229503
229551
229551
229549
229547
229545
229542
229539
229535
229531
229526
229520
229514
229509
229502
229549
229549
229547
229546
229544
229541
229538
229534
229529
229524
229519
229513
229507
229501
229547
229546
229545
229544
229541
229539
229536
229532
229527
229522
229517
229511
229505
229499
229544
229543
229542
229541
229539
229536
229533
229529
229525
229520
229514
229509
229503
229497
229540
229540
229539
229537
229535
229533
229529
229526
229521
229517
229511
229506
229500
229494
229536
229536
229535
229533
229531
229529
229525
229522
229518
229513
229508
229502
229496
229491
229532
229531
229530
229529
229527
229524
229521
229517
229513
229509
229503
229498
229492
229487
229527
229526
229525
229524
229522
229519
229516
229513
229508
229504
229499
229494
229488
229483
229523
229521
229520
229519
229517
229514
229511
229508
229504
229499
229494
229489
229483
229478
229517
229516
229515
229513
229511
229509
229506
229502
229498
229494
229489
229484
229479
229473
228845
228843
228840
228838
228835
228833
228831
228828
228826
228824
228821
228819
228817
228816
228843
228840
228838
228836
228833
228831
228829
228826
228824
228822
228819
228817
228815
228813
228840
228838
228836
228833
228831
228829
228827
228824
228822
228820
228817
228815
228813
228811
228837
228836
228833
228831
228829
228827
228825
228823
228820
228818
228816
228813
228811
228809
228835
228833
228831
228829
228827
228825
228823
228821
228818
228816
228814
228811
228810
228807
228833
228831
228829
228827
228825
228823
228821
228819
228816
228814
228812
228810
228808
228805
228830
228828
228827
228825
228823
228821
228819
228817
228814
228812
228810
228808
228806
228804
228827
228826
228824
228822
228821
228819
228817
228814
228812
228810
228808
228805
228804
228802
228825
228823
228822
228820
228818
228816
228814
228812
228810
228808
228805
228803
228802
228800
228822
228821
228819
228817
228815
228814
228812
228810
228807
228805
228803
228801
228799
228798
228820
228818
228817
228815
228813
228811
228809
228807
228805
228803
228801
228799
228797
228796
228818
228816
228814
228813
228811
228809
228807
228805
228803
228801
228799
228797
228795
228794
228816
228814
228812
228811
228809
228807
228805
228803
228801
228799
228796
228795
228793
228792
228815
228813
228811
228809
228807
228805
228803
228801
228798
228796
228794
228793
228791
228790
228200
228196
228192
228189
228186
228184
228183
228182
228182
228182
228183
228184
228185
228187
228195
228191
228188
228185
228183
228181
228179
228178
228178
228178
228179
228180
228181
228183
228192
228188
228184
228181
228179
228177
228175
228174
228174
228174
228175
228176
228178
228180
228188
228185
228181
228178
228175
228173
228172
228171
228171
228171
228172
228173
228175
228177
228186
228182
228178
228175
228172
228170
228169
228168
228168
228168
228169
228170
228172
228174
228183
228180
228176
228173
228170
228168
228167
228166
228166
228166
228167
228168
228170
228172
228181
228178
228174
228171
228168
228166
228165
228164
228164
228164
228165
228166
228169
228171
228180
228176
228173
228170
228167
228165
228164
228163
228163
228163
228164
228165
228167
228170
228179
228175
228172
228169
228167
228165
228163
228162
228162
228162
228163
228165
228167
228169
228179
228175
228172
228169
228167
228165
228163
228162
228162
228162
228163
228165
228167
228169
228179
228176
228172
228170
228167
228165
228164
228163
228163
228163
228164
228165
228167
228169
228180
228177
228173
228171
228168
228166
228165
228164
228164
228164
228165
228166
228168
228170
228182
228178
228175
228173
228170
228168
228167
228166
228165
228166
228166
228167
228169
228171
228184
228180
228177
228174
228172
228170
228169
228168
228167
228167
228168
228169
228171
228173
227631
227626
227621
227618
227615
227613
227612
227613
227613
227615
227617
227620
227623
227627
227626
227621
227617
227613
227610
227608
227607
227607
227608
227610
227612
227615
227618
227621
227622
227617
227612
227609
227606
227604
227603
227602
227603
227605
227607
227610
227614
227617
227618
227614
227609
227605
227602
227600
227599
227598
227599
227601
227603
227606
227610
227614
227616
227611
227606
227602
227599
227597
227595
227595
227596
227598
227600
227603
227607
227611
227613
227608
227604
227600
227596
227594
227593
227593
227594
227595
227598
227601
227605
227610
227612
227607
227602
227598
227595
227593
227592
227591
227592
227594
227597
227600
227604
227609
227611
227606
227602
227598
227595
227593
227591
227591
227592
227594
227596
227600
227604
227609
227612
227607
227602
227599
227596
227593
227592
227592
227593
227594
227597
227600
227605
227609
227613
227608
227604
227600
227597
227595
227594
227594
227594
227596
227599
227602
227606
227610
227615
227611
227606
227603
227600
227598
227596
227596
227597
227598
227601
227604
227608
227612
227618
227614
227609
227606
227603
227601
227600
227599
227600
227601
227604
227607
227611
227615
227621
227617
227613
227610
227607
227605
227604
227603
227604
227605
227607
227610
227614
227618
227626
227622
227618
227614
227612
227610
227608
227608
227608
227609
227611
227614
227617
227622
227132
227127
227123
227120
227118
227117
227116
227116
227117
227118
227120
227123
227126
227129
227128
227124
227120
227117
227114
227113
227112
227112
227113
227114
227116
227119
227122
227125
227124
227120
227116
227113
227110
227109
227108
227108
227109
227110
227112
227115
227118
227121
227122
227117
227113
227110
227107
227106
227105
227105
227105
227107
227109
227112
227115
227118
227119
227115
227111
227108
227105
227103
227102
227102
227103
227104
227107
227109
227113
227116
227118
227113
227109
227106
227103
227101
227100
227100
227101
227103
227105
227108
227111
227115
227117
227112
227108
227105
227102
227101
227100
227099
227100
227102
227104
227107
227111
227115
227117
227112
227108
227105
227102
227101
227100
227099
227100
227102
227104
227107
227111
227115
227117
227113
227109
227106
227103
227102
227101
227100
227101
227103
227105
227108
227112
227116
227119
227115
227111
227108
227105
227103
227102
227102
227103
227104
227107
227110
227113
227117
227121
227117
227113
227110
227108
227106
227105
227105
227105
227107
227109
227112
227115
227119
227124
227120
227116
227113
227111
227109
227108
227108
227108
227110
227112
227114
227118
227122
227127
227124
227120
227117
227115
227113
227112
227111
227112
227113
227115
227118
227121
227125
227131
227127
227124
227121
227119
227117
227116
227115
227116
227117
227118
227121
227124
227128
226687
226685
226683
226682
226681
226680
226679
226679
226679
226680
226680
226681
226682
226683
226685
226684
226682
226680
226679
226678
226677
226677
226677
226678
226678
226679
226680
226681
226684
226682
226680
226679
226677
226676
226676
226675
226675
226676
226676
226677
226679
226680
226682
226681
226679
226677
226676
226675
226674
226674
226674
226674
226675
226676
226677
226678
226681
226680
226678
226676
226675
226674
226673
226673
226673
226673
226674
226675
226676
226677
226681
226679
226677
226675
226674
226673
226672
226672
226672
226673
226673
226674
226675
226677
226680
226678
226677
226675
226674
226673
226672
226672
226672
226672
226673
226674
226675
226677
226680
226678
226677
226675
226674
226673
226672
226672
226672
226672
226673
226674
226675
226677
226681
226679
226677
226675
226674
226673
226672
226672
226672
226673
226673
226674
226676
226677
226681
226679
226678
226676
226675
226674
226673
226673
226673
226673
226674
226675
226676
226678
226682
226681
226679
226677
226676
226675
226674
226674
226674
226674
226675
226676
226677
226679
226683
226682
226680
226678
226677
226676
226675
226675
226675
226675
226676
226677
226679
226680
226685
226684
226682
226680
226679
226677
226677
226676
226676
226677
226678
226679
226680
226681
226687
226685
226683
226681
226680
226679
226678
226678
226678
226678
226679
226680
226681
226682
226282
226283
226283
226284
226284
226284
226283
226283
226282
226282
226281
226280
226279
226277
226283
226284
226284
226284
226284
226284
226284
226284
226283
226282
226281
226280
226280
226278
226283
226284
226284
226285
226285
226285
226285
226284
226284
226283
226282
226281
226280
226278
226284
226284
226285
226285
226286
226286
226285
226285
226284
226284
226283
226281
226280
226279
226284
226285
226285
226286
226286
226286
226286
226285
226285
226284
226283
226282
226280
226279
226284
226285
226286
226286
226286
226286
226286
226286
226285
226284
226283
226282
226280
226279
226284
226285
226286
226286
226286
226286
226286
226286
226285
226284
226283
226282
226280
226279
226284
226285
226285
226286
226286
226286
226286
226285
226285
226284
226283
226282
226280
226279
226284
226284
226285
226285
226286
226286
226286
226285
226284
226284
226282
226281
226280
226278
226283
226284
226285
226285
226285
226285
226285
226284
226284
226283
226282
226281
226279
226278
226283
226283
226284
226284
226284
226284
226284
226284
226283
226282
226281
226280
226279
226277
226282
226283
226283
226283
226283
226283
226283
226282
226282
226281
226280
226279
226278
226277
226281
226282
226282
226282
226282
226282
226282
226281
226281
226280
226279
226278
226277
226276
226280
226280
226281
226281
226281
226281
226280
226280
226279
226279
226278
226277
226276
226275
225903
225906
225908
225910
225911
225911
225911
225911
225910
225908
225907
225904
225902
225899
225905
225908
225910
225912
225913
225914
225914
225914
225913
225911
225909
225907
225904
225901
225907
225910
225912
225914
225916
225917
225917
225916
225915
225914
225912
225909
225906
225903
225909
225912
225914
225916
225918
225918
225919
225918
225917
225916
225914
225911
225908
225905
225910
225913
225916
225918
225919
225920
225920
225920
225919
225917
225915
225912
225909
225906
225911
225914
225917
225919
225920
225921
225921
225921
225920
225918
225916
225913
225910
225906
225912
225914
225917
225919
225920
225921
225921
225921
225920
225918
225916
225913
225910
225906
225911
225914
225917
225919
225920
225921
225921
225921
225919
225918
225915
225913
225909
225906
225911
225913
225916
225918
225919
225920
225920
225920
225918
225917
225915
225912
225908
225905
225910
225912
225914
225916
225917
225918
225918
225918
225917
225915
225913
225910
225907
225904
225908
225910
225912
225914
225915
225916
225916
225916
225915
225913
225911
225908
225905
225902
225905
225908
225910
225911
225913
225913
225914
225913
225912
225911
225909
225906
225903
225900
225903
225905
225907
225908
225909
225910
225910
225910
225909
225908
225906
225903
225900
225897
225899
225901
225903
225905
225906
225906
225907
225906
225906
225904
225903
225900
225898
225894
225540
225543
225546
225549
225551
225552
225552
225551
225550
225549
225546
225544
225540
225537
225543
225546
225549
225552
225554
225555
225556
225555
225554
225552
225550
225547
225544
225540
225545
225549
225552
225555
225557
225558
225559
225558
225557
225556
225553
225550
225546
225543
225548
225552
225555
225558
225560
225561
225561
225561
225560
225558
225556
225552
225549
225545
225550
225553
225557
225559
225561
225563
225563
225563
225562
225560
225557
225554
225550
225546
225551
225554
225558
225561
225563
225564
225564
225564
225563
225561
225558
225555
225551
225547
225551
225555
225558
225561
225563
225564
225565
225564
225563
225561
225559
225556
225552
225547
225551
225555
225558
225561
225563
225564
225564
225564
225563
225561
225558
225555
225551
225547
225550
225554
225557
225559
225561
225562
225563
225563
225562
225560
225557
225554
225550
225545
225548
225552
225555
225557
225559
225561
225561
225561
225560
225558
225555
225552
225548
225543
225546
225549
225552
225555
225557
225558
225558
225558
225557
225555
225552
225549
225545
225541
225543
225546
225549
225551
225553
225554
225555
225555
225554
225552
225549
225546
225542
225538
225539
225542
225545
225547
225549
225550
225551
225551
225550
225548
225546
225542
225539
225535
225535
225538
225540
225543
225544
225546
225546
225546
225545
225544
225542
225539
225535
225531
225185
225189
225192
225194
225196
225197
225198
225198
225197
225195
225193
225190
225188
225192
225195
225198
225200
225201
225201
225201
225200
225198
225196
225193
225191
225195
225198
225201
225203
225204
225204
225204
225203
225202
225199
225196
225193
225197
225200
225203
225205
225206
225207
225206
225206
225204
225202
225199
225195
225199
225202
225205
225207
225208
225208
225208
225207
225206
225203
225200
225196
225200
225203
225206
225208
225209
225209
225209
225208
225207
225204
225201
225196
225200
225203
225206
225208
225209
225210
225210
225209
225207
225205
225202
225196
225200
225203
225206
225207
225209
225209
225209
225208
225207
225204
225201
225195
225199
225202
225204
225206
225208
225208
225208
225207
225205
225203
225200
225193
225197
225200
225202
225204
225206
225206
225206
225205
225204
225201
225198
225191
225194
225197
225200
225202
225203
225204
225203
225203
225201
225199
225196
225188
225191
225194
225197
225199
225200
225200
225200
225199
225198
225195
225192
225184
225187
225190
225193
225195
225196
225197
225197
225196
225194
225192
225189
225180
225183
225186
225188
225190
225191
225192
225192
225191
225190
225188
225185
237712
237739
237770
237802
237833
237864
237728
237770
237814
237857
237900
237942
237750
237804
237857
237908
237958
238007
237769
237830
237889
237946
238001
238054
236920
236907
236899
236885
236875
236863
236963
236955
236949
236941
236935
236929
237005
237001
236999
236995
236993
236991
237045
237045
237047
237045
237047
237047
237080
237084
237089
237090
237093
237094
237114
237121
237127
237130
237132
237133
237144
237154
237161
237163
237164
237164
236056
236010
235976
235935
235899
235862
236106
236060
236022
235979
235941
235903
236149
236103
236064
236022
235985
235948
236194
236150
236110
236068
236031
235995
236237
236194
236154
236113
236077
236042
236278
236237
236198
236158
236122
236088
236316
236278
236240
236201
236165
236132
236351
236317
236279
236242
236207
236174
236384
236353
236318
236282
236247
236215
236414
236387
236354
236321
236287
236254
236443
236420
236389
236359
236327
236294
236468
236450
236423
236396
236367
236337
236494
236480
236458
236436
236412
236386
236518
236509
236491
236475
236457
236438
235126
235070
235025
234976
234931
234887
235165
235105
235055
235002
234954
234906
235200
235139
235086
235030
234980
234931
235239
235176
235120
235063
235012
234962
235276
235213
235156
235099
235047
234999
235313
235251
235193
235137
235086
235038
235349
235289
235232
235177
235127
235081
235383
235328
235272
235219
235170
235126
235417
235365
235312
235262
235215
235173
235448
235402
235353
235306
235262
235221
235479
235439
235394
235351
235310
235270
235506
235473
235433
235396
235358
235322
235535
235509
235475
235444
235411
235378
235558
235540
235513
235489
235463
235438
234191
234142
234101
234058
234018
233979
234215
234162
234117
234069
234025
233981
234237
234181
234132
234082
234035
233989
234263
234205
234153
234100
234052
234005
234288
234230
234176
234123
234074
234027
234315
234257
234203
234150
234100
234054
234342
234286
234232
234180
234132
234086
234369
234315
234263
234213
234166
234123
234396
234346
234297
234249
234205
234164
234422
234377
234331
234288
234247
234208
234448
234409
234368
234328
234291
234255
234472
234440
234403
234370
234336
234304
234497
234472
234442
234413
234385
234357
234517
234501
234476
234455
234433
234411
233315
233280
233249
233218
233189
233160
233327
233289
233255
233220
233187
233153
233336
233296
233259
233221
233185
233150
233350
233308
233268
233228
233190
233153
233364
233321
233280
233239
233200
233162
233379
233336
233295
233254
233215
233177
233395
233353
233313
233273
233234
233196
233412
233371
233332
233294
233256
233219
233428
233391
233354
233318
233282
233247
233445
233411
233377
233344
233311
233279
233462
233432
233402
233372
233343
233314
233478
233453
233427
233402
233377
233352
233495
233476
233455
233434
233414
233393
233510
233497
233480
233464
233449
233434
232517
232495
232474
232455
232437
232418
232521
232497
232475
232451
232429
232407
232522
232497
232472
232447
232422
232398
232527
232499
232473
232446
232419
232393
232532
232504
232476
232448
232421
232394
232538
232510
232482
232454
232425
232398
232545
232517
232489
232461
232433
232405
232551
232524
232498
232471
232443
232415
232558
232532
232507
232482
232456
232429
232565
232541
232518
232494
232470
232445
232571
232550
232530
232509
232488
232465
232579
232561
232543
232525
232507
232489
232588
232573
232558
232543
232529
232514
232595
232583
232571
232560
232550
232539
231770
231758
231746
231735
231724
231713
231771
231756
231742
231728
231715
231701
231768
231753
231737
231722
231706
231691
231768
231751
231734
231717
231700
231684
231768
231750
231732
231714
231696
231679
231767
231749
231731
231712
231694
231675
231767
231748
231730
231711
231693
231674
231766
231748
231730
231711
231693
231674
231765
231748
231730
231712
231694
231675
231764
231748
231732
231715
231697
231679
231764
231749
231734
231718
231702
231686
231764
231750