/*--------------------------------*- C++ -*----------------------------------*\
| =========                 |                                                 |
| \\      /  F ield         | OpenFOAM: The Open Source CFD Toolbox           |
|  \\    /   O peration     | Version:  v2106                                 |
|   \\  /    A nd           | Website:  www.openfoam.com                      |
|    \\/     M anipulation  |                                                 |
\*---------------------------------------------------------------------------*/
FoamFile
{
    version     2.0;
    format      ascii;
    arch        "LSB;label=32;scalar=64";
    class       volScalarField;
    location    "0.000159";
    object      T;
}
// * * * * * * * * * * * * * * * * * * * * * * * * * * * * * * * * * * * * * //

dimensions      [0 0 0 1 0 0 0];

internalField   nonuniform List<scalar> 
17924
(
306.705
306.711
306.716
306.722
306.431
306.447
306.461
306.475
306.487
306.499
306.509
306.424
306.44
306.454
306.467
306.48
306.491
306.503
306.416
306.432
306.446
306.459
306.472
306.484
306.495
306.407
306.422
306.436
306.45
306.462
306.474
306.486
306.398
306.413
306.427
306.44
306.453
306.465
306.476
306.389
306.403
306.417
306.43
306.442
306.454
306.466
306.379
306.393
306.407
306.42
306.432
306.444
306.455
306.369
306.383
306.396
306.409
306.421
306.433
306.444
306.359
306.372
306.386
306.398
306.41
306.422
306.433
306.349
306.362
306.376
306.388
306.4
306.411
306.422
306.34
306.353
306.366
306.378
306.389
306.401
306.412
306.331
306.343
306.356
306.368
306.379
306.391
306.401
306.322
306.334
306.346
306.358
306.37
306.381
306.392
306.315
306.327
306.339
306.35
306.361
306.372
306.382
306.123
306.141
306.159
306.175
306.19
306.205
306.218
306.231
306.243
306.253
306.263
306.273
306.281
306.291
306.129
306.146
306.164
306.18
306.196
306.211
306.226
306.239
306.251
306.263
306.273
306.283
306.291
306.301
306.135
306.153
306.171
306.187
306.203
306.218
306.232
306.246
306.258
306.269
306.28
306.289
306.298
306.308
306.14
306.157
306.175
306.192
306.208
306.223
306.238
306.251
306.264
306.275
306.286
306.296
306.305
306.315
306.145
306.162
306.18
306.197
306.213
306.228
306.242
306.255
306.268
306.279
306.29
306.301
306.31
306.32
306.148
306.166
306.183
306.2
306.216
306.231
306.245
306.259
306.271
306.283
306.295
306.305
306.315
306.325
306.151
306.169
306.186
306.203
306.219
306.234
306.248
306.261
306.274
306.286
306.297
306.308
306.318
306.327
306.153
306.171
306.188
306.205
306.22
306.236
306.25
306.263
306.276
306.288
306.299
306.31
306.32
306.33
306.155
306.173
306.19
306.206
306.222
306.237
306.251
306.264
306.277
306.289
306.3
306.311
306.321
306.331
306.156
306.174
306.191
306.207
306.222
306.237
306.251
306.264
306.277
306.289
306.3
306.311
306.321
306.33
306.158
306.175
306.191
306.207
306.222
306.237
306.25
306.263
306.276
306.288
306.299
306.31
306.32
306.329
306.158
306.175
306.191
306.207
306.221
306.236
306.249
306.262
306.274
306.286
306.297
306.307
306.317
306.327
306.158
306.175
306.19
306.206
306.22
306.234
306.248
306.26
306.272
306.283
306.294
306.304
306.314
306.324
306.161
306.177
306.192
306.207
306.22
306.233
306.246
306.258
306.269
306.28
306.29
306.3
306.31
306.319
305.782
305.796
305.812
305.826
305.84
305.854
305.867
305.88
305.891
305.902
305.913
305.922
305.931
305.94
305.795
305.809
305.825
305.84
305.855
305.869
305.883
305.896
305.908
305.919
305.93
305.94
305.948
305.959
305.809
305.823
305.84
305.855
305.87
305.884
305.898
305.911
305.923
305.934
305.945
305.955
305.964
305.974
305.822
305.837
305.854
305.869
305.884
305.899
305.913
305.926
305.938
305.95
305.961
305.971
305.98
305.99
305.835
305.851
305.868
305.883
305.899
305.913
305.927
305.94
305.953
305.965
305.975
305.986
305.995
306.004
305.848
305.864
305.881
305.896
305.912
305.927
305.941
305.954
305.967
305.979
305.99
306
306.01
306.018
305.86
305.877
305.894
305.91
305.925
305.94
305.954
305.968
305.98
305.992
306.003
306.013
306.023
306.031
305.872
305.889
305.906
305.922
305.937
305.952
305.967
305.98
305.993
306.005
306.016
306.026
306.035
306.044
305.883
305.9
305.917
305.933
305.949
305.964
305.978
305.991
306.004
306.016
306.027
306.037
306.046
306.055
305.894
305.911
305.928
305.944
305.959
305.974
305.988
306.001
306.014
306.025
306.036
306.046
306.056
306.064
305.904
305.921
305.937
305.953
305.968
305.983
305.997
306.01
306.022
306.034
306.045
306.054
306.064
306.072
305.914
305.931
305.946
305.962
305.977
305.991
306.005
306.018
306.03
306.041
306.051
306.061
306.071
306.079
305.923
305.939
305.955
305.97
305.984
305.999
306.012
306.024
306.036
306.047
306.057
306.067
306.076
306.085
305.933
305.949
305.964
305.979
305.992
306.005
306.018
306.03
306.041
306.052
306.062
306.071
306.08
306.089
305.432
305.441
305.451
305.462
305.472
305.482
305.492
305.502
305.511
305.52
305.529
305.537
305.544
305.552
305.447
305.455
305.466
305.477
305.487
305.498
305.508
305.518
305.528
305.537
305.546
305.555
305.562
305.571
305.462
305.472
305.483
305.493
305.504
305.515
305.525
305.535
305.545
305.554
305.563
305.571
305.579
305.588
305.478
305.488
305.499
305.51
305.521
305.532
305.543
305.553
305.563
305.572
305.581
305.59
305.597
305.606
305.494
305.504
305.516
305.527
305.539
305.55
305.56
305.571
305.581
305.59
305.599
305.607
305.615
305.623
305.51
305.521
305.533
305.544
305.556
305.567
305.578
305.589
305.599
305.608
305.617
305.626
305.633
305.641
305.526
305.538
305.55
305.562
305.573
305.585
305.596
305.606
305.616
305.626
305.635
305.643
305.651
305.658
305.542
305.554
305.566
305.578
305.59
305.601
305.612
305.623
305.633
305.643
305.652
305.66
305.668
305.675
305.558
305.57
305.582
305.595
305.606
305.618
305.629
305.639
305.649
305.659
305.668
305.676
305.684
305.69
305.573
305.586
305.598
305.61
305.622
305.633
305.644
305.655
305.664
305.674
305.683
305.691
305.699
305.705
305.588
305.601
305.613
305.625
305.637
305.648
305.659
305.669
305.679
305.688
305.697
305.705
305.713
305.719
305.603
305.616
305.628
305.64
305.651
305.662
305.672
305.682
305.692
305.701
305.71
305.717
305.725
305.732
305.617
305.63
305.641
305.653
305.664
305.675
305.685
305.695
305.704
305.713
305.722
305.729
305.737
305.744
305.632
305.644
305.655
305.667
305.677
305.687
305.697
305.707
305.716
305.724
305.732
305.74
305.748
305.756
305.101
305.105
305.111
305.116
305.122
305.128
305.134
305.14
305.145
305.151
305.156
305.162
305.167
305.172
305.114
305.118
305.123
305.129
305.135
305.141
305.147
305.153
305.159
305.164
305.17
305.175
305.18
305.187
305.127
305.131
305.137
305.143
305.149
305.155
305.161
305.167
305.172
305.178
305.183
305.189
305.193
305.2
305.141
305.145
305.151
305.157
305.163
305.169
305.175
305.181
305.187
305.193
305.198
305.204
305.208
305.214
305.155
305.159
305.166
305.172
305.178
305.184
305.19
305.196
305.202
305.208
305.213
305.218
305.223
305.229
305.169
305.174
305.181
305.187
305.193
305.199
305.205
305.211
305.217
305.223
305.229
305.234
305.239
305.244
305.183
305.189
305.195
305.202
305.208
305.214
305.22
305.227
305.233
305.238
305.244
305.249
305.254
305.259
305.198
305.204
305.21
305.217
305.223
305.229
305.236
305.242
305.248
305.253
305.259
305.264
305.269
305.274
305.213
305.219
305.225
305.232
305.238
305.244
305.25
305.257
305.263
305.268
305.274
305.279
305.284
305.288
305.227
305.234
305.24
305.247
305.253
305.259
305.265
305.271
305.277
305.283
305.288
305.293
305.299
305.302
305.242
305.249
305.255
305.261
305.267
305.274
305.28
305.286
305.292
305.297
305.302
305.307
305.312
305.316
305.256
305.264
305.269
305.276
305.282
305.288
305.294
305.3
305.305
305.311
305.316
305.321
305.326
305.33
305.27
305.277
305.283
305.289
305.295
305.302
305.308
305.313
305.319
305.324
305.329
305.334
305.339
305.343
305.285
305.291
305.297
305.303
305.309
305.315
305.321
305.326
305.332
305.337
305.342
305.347
305.352
305.358
304.799
304.799
304.801
304.803
304.806
304.808
304.81
304.813
304.815
304.817
304.819
304.821
304.823
304.826
304.808
304.808
304.81
304.812
304.815
304.817
304.819
304.821
304.823
304.825
304.827
304.829
304.831
304.835
304.817
304.818
304.82
304.822
304.824
304.826
304.828
304.83
304.832
304.834
304.836
304.838
304.84
304.843
304.827
304.828
304.83
304.831
304.834
304.836
304.838
304.84
304.842
304.844
304.846
304.848
304.849
304.852
304.837
304.838
304.84
304.841
304.843
304.845
304.847
304.849
304.851
304.853
304.855
304.857
304.859
304.861
304.847
304.848
304.85
304.851
304.853
304.855
304.857
304.859
304.861
304.863
304.865
304.867
304.869
304.871
304.856
304.858
304.86
304.861
304.863
304.865
304.867
304.869
304.871
304.873
304.875
304.877
304.879
304.88
304.866
304.868
304.87
304.872
304.873
304.875
304.877
304.879
304.881
304.883
304.885
304.887
304.888
304.89
304.876
304.878
304.88
304.882
304.884
304.886
304.888
304.889
304.891
304.893
304.895
304.897
304.898
304.9
304.887
304.889
304.89
304.892
304.894
304.896
304.898
304.9
304.901
304.903
304.905
304.907
304.909
304.909
304.896
304.899
304.9
304.902
304.904
304.906
304.908
304.91
304.912
304.913
304.915
304.917
304.919
304.919
304.907
304.909
304.911
304.913
304.915
304.916
304.918
304.92
304.922
304.924
304.926
304.927
304.929
304.929
304.916
304.919
304.921
304.923
304.925
304.926
304.928
304.93
304.932
304.934
304.936
304.937
304.939
304.939
304.927
304.929
304.93
304.932
304.934
304.936
304.938
304.94
304.942
304.944
304.946
304.947
304.949
304.951
304.515
304.515
304.515
304.515
304.515
304.515
304.514
304.514
304.514
304.513
304.513
304.512
304.511
304.511
304.521
304.52
304.52
304.52
304.52
304.52
304.52
304.519
304.519
304.518
304.517
304.517
304.516
304.516
304.527
304.526
304.526
304.526
304.526
304.525
304.525
304.524
304.524
304.523
304.522
304.522
304.521
304.521
304.532
304.532
304.531
304.531
304.531
304.53
304.53
304.529
304.529
304.528
304.527
304.527
304.526
304.525
304.538
304.537
304.537
304.537
304.536
304.536
304.535
304.534
304.534
304.533
304.532
304.531
304.53
304.53
304.543
304.543
304.542
304.542
304.541
304.541
304.54
304.539
304.539
304.538
304.537
304.536
304.535
304.534
304.548
304.548
304.547
304.547
304.546
304.546
304.545
304.544
304.544
304.543
304.542
304.541
304.54
304.539
304.553
304.553
304.553
304.552
304.551
304.551
304.55
304.549
304.549
304.548
304.547
304.546
304.545
304.543
304.559
304.558
304.558
304.557
304.556
304.556
304.555
304.554
304.553
304.553
304.552
304.55
304.549
304.548
304.563
304.563
304.563
304.562
304.561
304.561
304.56
304.559
304.558
304.557
304.556
304.555
304.554
304.553
304.568
304.568
304.568
304.567
304.566
304.566
304.565
304.564
304.563
304.563
304.562
304.56
304.559
304.557
304.573
304.573
304.572
304.572
304.571
304.571
304.57
304.569
304.569
304.568
304.567
304.565
304.564
304.563
304.577
304.577
304.577
304.576
304.576
304.576
304.575
304.574
304.574
304.573
304.572
304.571
304.569
304.568
304.581
304.581
304.581
304.581
304.58
304.58
304.58
304.579
304.579
304.578
304.577
304.576
304.575
304.573
304.236
304.236
304.235
304.234
304.233
304.232
304.23
304.229
304.227
304.225
304.223
304.221
304.219
304.216
304.24
304.239
304.238
304.237
304.236
304.235
304.233
304.231
304.23
304.227
304.225
304.223
304.221
304.219
304.242
304.241
304.241
304.24
304.239
304.237
304.236
304.234
304.232
304.23
304.228
304.226
304.223
304.221
304.245
304.244
304.243
304.242
304.241
304.24
304.238
304.236
304.234
304.232
304.23
304.228
304.225
304.223
304.247
304.246
304.246
304.244
304.243
304.242
304.24
304.238
304.236
304.234
304.232
304.229
304.227
304.224
304.249
304.248
304.247
304.246
304.245
304.244
304.242
304.24
304.238
304.236
304.234
304.231
304.228
304.226
304.251
304.25
304.249
304.248
304.247
304.245
304.244
304.242
304.24
304.237
304.235
304.233
304.23
304.227
304.252
304.252
304.251
304.25
304.248
304.247
304.245
304.243
304.241
304.239
304.236
304.234
304.231
304.228
304.254
304.253
304.252
304.251
304.25
304.248
304.246
304.244
304.242
304.24
304.238
304.235
304.232
304.229
304.255
304.254
304.253
304.252
304.251
304.249
304.247
304.245
304.243
304.241
304.239
304.236
304.233
304.23
304.255
304.255
304.254
304.253
304.251
304.25
304.248
304.246
304.244
304.242
304.24
304.237
304.234
304.231
304.256
304.255
304.254
304.253
304.252
304.251
304.249
304.247
304.245
304.243
304.24
304.238
304.235
304.232
304.256
304.255
304.255
304.254
304.252
304.251
304.249
304.248
304.246
304.244
304.241
304.239
304.236
304.233
304.256
304.255
304.254
304.254
304.252
304.251
304.25
304.248
304.246
304.244
304.242
304.24
304.237
304.234
303.955
303.954
303.953
303.952
303.951
303.95
303.948
303.946
303.944
303.942
303.939
303.937
303.934
303.931
303.956
303.955
303.955
303.954
303.952
303.951
303.949
303.947
303.945
303.943
303.94
303.937
303.935
303.932
303.957
303.956
303.956
303.955
303.953
303.952
303.95
303.948
303.946
303.944
303.941
303.938
303.935
303.932
303.957
303.957
303.956
303.955
303.954
303.953
303.951
303.949
303.947
303.944
303.942
303.939
303.936
303.933
303.958
303.957
303.957
303.956
303.955
303.953
303.951
303.949
303.947
303.945
303.942
303.939
303.936
303.933
303.958
303.957
303.957
303.956
303.955
303.953
303.951
303.95
303.947
303.945
303.942
303.939
303.936
303.933
303.958
303.957
303.957
303.956
303.954
303.953
303.951
303.949
303.947
303.945
303.942
303.939
303.936
303.933
303.957
303.957
303.956
303.955
303.954
303.953
303.951
303.949
303.947
303.944
303.942
303.939
303.936
303.932
303.956
303.956
303.955
303.954
303.953
303.952
303.95
303.948
303.946
303.944
303.941
303.938
303.935
303.932
303.955
303.955
303.954
303.953
303.952
303.951
303.949
303.947
303.945
303.943
303.94
303.937
303.934
303.931
303.954
303.953
303.953
303.952
303.951
303.949
303.948
303.946
303.944
303.941
303.939
303.936
303.933
303.93
303.952
303.952
303.951
303.95
303.949
303.948
303.946
303.945
303.942
303.94
303.937
303.935
303.932
303.929
303.951
303.95
303.949
303.949
303.947
303.946
303.945
303.943
303.941
303.938
303.936
303.933
303.93
303.927
303.948
303.948
303.947
303.947
303.946
303.944
303.943
303.941
303.939
303.937
303.935
303.932
303.929
303.926
303.673
303.673
303.672
303.671
303.67
303.669
303.668
303.666
303.664
303.663
303.661
303.659
303.657
303.654
303.673
303.673
303.672
303.671
303.67
303.669
303.668
303.666
303.665
303.663
303.661
303.658
303.656
303.654
303.673
303.673
303.672
303.671
303.67
303.669
303.668
303.666
303.665
303.663
303.661
303.659
303.656
303.654
303.673
303.672
303.672
303.671
303.67
303.669
303.668
303.666
303.665
303.663
303.661
303.658
303.656
303.654
303.672
303.672
303.671
303.671
303.67
303.669
303.667
303.666
303.664
303.662
303.66
303.658
303.656
303.653
303.671
303.671
303.671
303.67
303.669
303.668
303.667
303.665
303.664
303.662
303.66
303.658
303.655
303.653
303.67
303.67
303.67
303.669
303.668
303.667
303.666
303.665
303.663
303.661
303.659
303.657
303.655
303.652
303.669
303.669
303.669
303.668
303.667
303.666
303.665
303.664
303.662
303.66
303.658
303.656
303.654
303.651
303.668
303.668
303.667
303.667
303.666
303.665
303.664
303.662
303.661
303.659
303.657
303.655
303.653
303.65
303.666
303.666
303.666
303.665
303.664
303.663
303.662
303.661
303.659
303.658
303.656
303.653
303.651
303.649
303.665
303.664
303.664
303.663
303.663
303.662
303.661
303.659
303.658
303.656
303.654
303.652
303.65
303.648
303.663
303.663
303.662
303.662
303.661
303.66
303.659
303.657
303.656
303.654
303.652
303.65
303.648
303.646
303.661
303.661
303.66
303.66
303.659
303.658
303.657
303.656
303.654
303.652
303.65
303.648
303.646
303.644
303.659
303.659
303.658
303.658
303.657
303.656
303.655
303.654
303.652
303.65
303.649
303.647
303.645
303.642
303.404
303.403
303.402
303.401
303.401
303.4
303.399
303.398
303.397
303.396
303.395
303.395
303.394
303.393
303.403
303.402
303.402
303.401
303.4
303.399
303.398
303.397
303.396
303.395
303.395
303.394
303.393
303.392
303.402
303.402
303.401
303.4
303.399
303.398
303.397
303.397
303.396
303.395
303.394
303.393
303.392
303.391
303.401
303.401
303.4
303.399
303.398
303.398
303.397
303.396
303.395
303.394
303.393
303.392
303.392
303.391
303.401
303.4
303.399
303.398
303.398
303.397
303.396
303.395
303.394
303.393
303.392
303.392
303.391
303.39
303.4
303.399
303.398
303.398
303.397
303.396
303.395
303.394
303.393
303.393
303.392
303.391
303.39
303.389
303.399
303.398
303.397
303.397
303.396
303.395
303.394
303.394
303.393
303.392
303.391
303.39
303.389
303.389
303.398
303.397
303.396
303.396
303.395
303.394
303.394
303.393
303.392
303.391
303.39
303.389
303.389
303.388
303.397
303.396
303.395
303.395
303.394
303.393
303.393
303.392
303.391
303.39
303.389
303.388
303.388
303.387
303.396
303.395
303.394
303.394
303.393
303.392
303.392
303.391
303.39
303.389
303.388
303.388
303.387
303.386
303.395
303.394
303.394
303.393
303.392
303.391
303.391
303.39
303.389
303.388
303.388
303.387
303.386
303.386
303.394
303.393
303.393
303.392
303.391
303.391
303.39
303.389
303.388
303.387
303.387
303.386
303.385
303.385
303.393
303.393
303.392
303.391
303.391
303.39
303.389
303.388
303.388
303.387
303.386
303.385
303.384
303.384
303.393
303.392
303.391
303.391
303.39
303.389
303.388
303.387
303.387
303.386
303.385
303.384
303.384
303.383
303.159
303.158
303.156
303.155
303.154
303.153
303.153
303.153
303.152
303.152
303.153
303.153
303.154
303.155
303.158
303.156
303.155
303.154
303.153
303.152
303.151
303.151
303.151
303.151
303.151
303.152
303.152
303.153
303.156
303.155
303.153
303.152
303.151
303.15
303.15
303.149
303.149
303.149
303.15
303.15
303.151
303.152
303.155
303.153
303.152
303.151
303.15
303.149
303.149
303.148
303.148
303.148
303.149
303.149
303.15
303.15
303.154
303.152
303.151
303.15
303.149
303.148
303.147
303.147
303.147
303.147
303.147
303.148
303.149
303.149
303.153
303.151
303.15
303.149
303.148
303.147
303.147
303.146
303.146
303.146
303.147
303.147
303.148
303.149
303.152
303.151
303.149
303.148
303.147
303.146
303.146
303.146
303.146
303.146
303.146
303.147
303.147
303.148
303.152
303.15
303.149
303.148
303.147
303.146
303.145
303.145
303.145
303.145
303.146
303.146
303.147
303.148
303.151
303.15
303.149
303.147
303.147
303.146
303.145
303.145
303.145
303.145
303.145
303.146
303.147
303.147
303.151
303.15
303.149
303.148
303.147
303.146
303.145
303.145
303.145
303.145
303.145
303.146
303.147
303.147
303.151
303.15
303.149
303.148
303.147
303.146
303.146
303.145
303.145
303.145
303.146
303.146
303.147
303.148
303.152
303.15
303.149
303.148
303.147
303.146
303.146
303.146
303.145
303.146
303.146
303.146
303.147
303.148
303.152
303.151
303.15
303.149
303.148
303.147
303.147
303.146
303.146
303.146
303.146
303.147
303.147
303.148
303.153
303.152
303.151
303.15
303.149
303.148
303.147
303.147
303.147
303.147
303.147
303.147
303.148
303.149
302.943
302.941
302.939
302.938
302.937
302.936
302.936
302.936
302.936
302.937
302.937
302.938
302.94
302.941
302.941
302.939
302.937
302.936
302.935
302.934
302.934
302.934
302.934
302.935
302.935
302.937
302.938
302.939
302.939
302.937
302.936
302.934
302.933
302.932
302.932
302.932
302.932
302.933
302.934
302.935
302.936
302.937
302.938
302.936
302.934
302.933
302.932
302.931
302.93
302.93
302.931
302.931
302.932
302.933
302.935
302.936
302.937
302.935
302.933
302.932
302.93
302.93
302.929
302.929
302.929
302.93
302.931
302.932
302.934
302.935
302.936
302.934
302.932
302.931
302.93
302.929
302.928
302.928
302.928
302.929
302.93
302.931
302.933
302.935
302.935
302.933
302.932
302.93
302.929
302.928
302.928
302.928
302.928
302.929
302.93
302.931
302.932
302.934
302.935
302.933
302.932
302.93
302.929
302.928
302.928
302.927
302.928
302.928
302.929
302.931
302.932
302.934
302.935
302.934
302.932
302.93
302.929
302.928
302.928
302.928
302.928
302.929
302.93
302.931
302.933
302.934
302.936
302.934
302.932
302.931
302.93
302.929
302.928
302.928
302.929
302.929
302.93
302.932
302.933
302.935
302.937
302.935
302.933
302.932
302.931
302.93
302.929
302.929
302.93
302.93
302.931
302.932
302.934
302.936
302.938
302.936
302.934
302.933
302.932
302.931
302.931
302.931
302.931
302.931
302.932
302.933
302.935
302.937
302.939
302.937
302.936
302.935
302.934
302.933
302.932
302.932
302.932
302.933
302.934
302.935
302.936
302.938
302.941
302.939
302.938
302.936
302.935
302.935
302.934
302.934
302.934
302.934
302.935
302.936
302.937
302.939
302.752
302.751
302.749
302.748
302.747
302.747
302.746
302.746
302.747
302.747
302.748
302.749
302.75
302.751
302.751
302.749
302.748
302.747
302.746
302.745
302.745
302.745
302.745
302.746
302.746
302.747
302.748
302.75
302.75
302.748
302.746
302.745
302.744
302.744
302.743
302.743
302.744
302.744
302.745
302.746
302.747
302.748
302.748
302.747
302.745
302.744
302.743
302.742
302.742
302.742
302.742
302.743
302.744
302.745
302.746
302.747
302.748
302.746
302.744
302.743
302.742
302.741
302.741
302.741
302.741
302.742
302.743
302.744
302.745
302.746
302.747
302.745
302.744
302.742
302.741
302.741
302.74
302.74
302.741
302.741
302.742
302.743
302.745
302.746
302.747
302.745
302.743
302.742
302.741
302.74
302.74
302.74
302.74
302.741
302.742
302.743
302.744
302.746
302.747
302.745
302.743
302.742
302.741
302.74
302.74
302.74
302.74
302.741
302.742
302.743
302.744
302.746
302.747
302.745
302.744
302.742
302.741
302.741
302.74
302.74
302.741
302.741
302.742
302.743
302.745
302.746
302.747
302.746
302.744
302.743
302.742
302.741
302.741
302.741
302.741
302.742
302.743
302.744
302.745
302.747
302.748
302.747
302.745
302.744
302.743
302.742
302.742
302.742
302.742
302.743
302.744
302.745
302.746
302.748
302.749
302.748
302.746
302.745
302.744
302.744
302.743
302.743
302.743
302.744
302.745
302.746
302.747
302.748
302.751
302.749
302.748
302.747
302.746
302.745
302.745
302.745
302.745
302.745
302.746
302.747
302.748
302.75
302.752
302.751
302.749
302.748
302.747
302.747
302.746
302.746
302.746
302.747
302.747
302.748
302.749
302.751
302.582
302.582
302.581
302.581
302.58
302.58
302.58
302.579
302.58
302.58
302.58
302.58
302.581
302.581
302.582
302.581
302.581
302.58
302.579
302.579
302.579
302.579
302.579
302.579
302.579
302.58
302.58
302.58
302.581
302.581
302.58
302.579
302.579
302.578
302.578
302.578
302.578
302.578
302.578
302.579
302.579
302.58
302.581
302.58
302.579
302.579
302.578
302.578
302.578
302.578
302.578
302.578
302.578
302.578
302.579
302.579
302.58
302.58
302.579
302.578
302.578
302.577
302.577
302.577
302.577
302.577
302.578
302.578
302.578
302.579
302.58
302.579
302.579
302.578
302.578
302.577
302.577
302.577
302.577
302.577
302.577
302.578
302.578
302.579
302.58
302.579
302.579
302.578
302.577
302.577
302.577
302.577
302.577
302.577
302.577
302.578
302.578
302.579
302.58
302.579
302.579
302.578
302.577
302.577
302.577
302.577
302.577
302.577
302.577
302.578
302.578
302.579
302.58
302.579
302.579
302.578
302.578
302.577
302.577
302.577
302.577
302.577
302.577
302.578
302.578
302.579
302.58
302.58
302.579
302.578
302.578
302.577
302.577
302.577
302.577
302.577
302.578
302.578
302.578
302.579
302.581
302.58
302.579
302.579
302.578
302.578
302.578
302.577
302.577
302.578
302.578
302.578
302.579
302.579
302.581
302.581
302.58
302.579
302.579
302.578
302.578
302.578
302.578
302.578
302.578
302.579
302.579
302.58
302.582
302.581
302.58
302.58
302.579
302.579
302.579
302.578
302.578
302.579
302.579
302.579
302.58
302.58
302.582
302.582
302.581
302.58
302.58
302.579
302.579
302.579
302.579
302.579
302.579
302.58
302.58
302.581
302.428
302.428
302.428
302.428
302.428
302.428
302.428
302.428
302.428
302.427
302.427
302.427
302.426
302.426
302.428
302.428
302.428
302.429
302.429
302.429
302.428
302.428
302.428
302.428
302.427
302.427
302.427
302.426
302.428
302.428
302.429
302.429
302.429
302.429
302.429
302.429
302.428
302.428
302.428
302.427
302.427
302.426
302.428
302.429
302.429
302.429
302.429
302.429
302.429
302.429
302.429
302.428
302.428
302.427
302.427
302.426
302.428
302.429
302.429
302.429
302.429
302.429
302.429
302.429
302.429
302.428
302.428
302.428
302.427
302.427
302.428
302.429
302.429
302.429
302.429
302.429
302.429
302.429
302.429
302.428
302.428
302.428
302.427
302.427
302.428
302.429
302.429
302.429
302.429
302.429
302.429
302.429
302.429
302.428
302.428
302.428
302.427
302.426
302.428
302.429
302.429
302.429
302.429
302.429
302.429
302.429
302.429
302.428
302.428
302.428
302.427
302.426
302.428
302.429
302.429
302.429
302.429
302.429
302.429
302.429
302.429
302.428
302.428
302.427
302.427
302.426
302.428
302.428
302.429
302.429
302.429
302.429
302.429
302.429
302.428
302.428
302.428
302.427
302.427
302.426
302.428
302.428
302.428
302.428
302.429
302.429
302.428
302.428
302.428
302.428
302.427
302.427
302.426
302.426
302.428
302.428
302.428
302.428
302.428
302.428
302.428
302.428
302.428
302.427
302.427
302.427
302.426
302.426
302.427
302.428
302.428
302.428
302.428
302.428
302.428
302.427
302.427
302.427
302.427
302.426
302.426
302.425
302.427
302.427
302.427
302.427
302.427
302.427
302.427
302.427
302.427
302.426
302.426
302.426
302.425
302.425
302.283
302.284
302.284
302.285
302.286
302.286
302.286
302.286
302.285
302.285
302.284
302.283
302.282
302.281
302.283
302.285
302.285
302.286
302.287
302.287
302.287
302.287
302.286
302.286
302.285
302.284
302.283
302.282
302.284
302.285
302.286
302.287
302.287
302.288
302.288
302.288
302.287
302.287
302.286
302.285
302.284
302.283
302.285
302.286
302.287
302.288
302.288
302.289
302.289
302.288
302.288
302.287
302.287
302.286
302.285
302.283
302.285
302.286
302.287
302.288
302.289
302.289
302.289
302.289
302.289
302.288
302.287
302.286
302.285
302.284
302.286
302.287
302.288
302.289
302.289
302.289
302.289
302.289
302.289
302.288
302.287
302.286
302.285
302.284
302.286
302.287
302.288
302.289
302.289
302.29
302.29
302.289
302.289
302.288
302.288
302.286
302.285
302.284
302.286
302.287
302.288
302.289
302.289
302.289
302.289
302.289
302.289
302.288
302.287
302.286
302.285
302.284
302.286
302.287
302.287
302.288
302.289
302.289
302.289
302.289
302.288
302.288
302.287
302.286
302.285
302.283
302.285
302.286
302.287
302.288
302.288
302.288
302.288
302.288
302.288
302.287
302.286
302.285
302.284
302.283
302.284
302.285
302.286
302.287
302.287
302.288
302.288
302.287
302.287
302.286
302.286
302.285
302.283
302.282
302.284
302.284
302.285
302.286
302.286
302.287
302.287
302.286
302.286
302.285
302.285
302.284
302.283
302.281
302.282
302.283
302.284
302.285
302.285
302.285
302.285
302.285
302.285
302.284
302.284
302.283
302.282
302.28
302.281
302.282
302.283
302.283
302.284
302.284
302.284
302.284
302.284
302.283
302.282
302.282
302.28
302.279
302.143
302.145
302.146
302.147
302.148
302.148
302.148
302.148
302.147
302.147
302.146
302.145
302.143
302.142
302.144
302.146
302.147
302.148
302.149
302.149
302.149
302.149
302.149
302.148
302.147
302.146
302.145
302.143
302.146
302.147
302.148
302.149
302.15
302.15
302.151
302.151
302.15
302.149
302.148
302.147
302.146
302.144
302.146
302.148
302.149
302.15
302.151
302.151
302.152
302.151
302.151
302.15
302.149
302.148
302.147
302.145
302.147
302.149
302.15
302.151
302.152
302.152
302.152
302.152
302.152
302.151
302.15
302.149
302.147
302.146
302.148
302.149
302.15
302.151
302.152
302.153
302.153
302.153
302.152
302.152
302.151
302.149
302.148
302.146
302.148
302.149
302.15
302.151
302.152
302.153
302.153
302.153
302.152
302.152
302.151
302.149
302.148
302.146
302.148
302.149
302.15
302.151
302.152
302.153
302.153
302.153
302.152
302.151
302.15
302.149
302.148
302.146
302.147
302.149
302.15
302.151
302.152
302.152
302.152
302.152
302.152
302.151
302.15
302.149
302.147
302.145
302.147
302.148
302.149
302.15
302.151
302.151
302.152
302.151
302.151
302.15
302.149
302.148
302.146
302.145
302.146
302.147
302.148
302.149
302.15
302.15
302.15
302.15
302.15
302.149
302.148
302.147
302.145
302.144
302.145
302.146
302.147
302.148
302.148
302.149
302.149
302.149
302.149
302.148
302.147
302.146
302.144
302.143
302.143
302.144
302.145
302.146
302.147
302.147
302.148
302.148
302.147
302.146
302.146
302.144
302.143
302.141
302.141
302.142
302.144
302.144
302.145
302.146
302.146
302.146
302.145
302.145
302.144
302.143
302.142
302.14
302.007
302.009
302.01
302.011
302.012
302.012
302.012
302.012
302.012
302.011
302.01
302.009
302.008
302.01
302.011
302.012
302.013
302.013
302.013
302.013
302.013
302.012
302.012
302.01
302.009
302.011
302.012
302.013
302.014
302.014
302.015
302.015
302.014
302.014
302.013
302.012
302.01
302.012
302.013
302.014
302.015
302.015
302.016
302.015
302.015
302.015
302.014
302.013
302.011
302.012
302.014
302.015
302.016
302.016
302.016
302.016
302.016
302.015
302.014
302.013
302.011
302.013
302.014
302.015
302.016
302.016
302.017
302.017
302.016
302.016
302.015
302.014
302.012
302.013
302.014
302.015
302.016
302.017
302.017
302.017
302.016
302.016
302.015
302.014
302.011
302.013
302.014
302.015
302.016
302.016
302.017
302.016
302.016
302.016
302.015
302.013
302.011
302.012
302.014
302.015
302.015
302.016
302.016
302.016
302.016
302.015
302.014
302.013
302.01
302.012
302.013
302.014
302.015
302.015
302.015
302.015
302.015
302.014
302.013
302.012
302.01
302.011
302.012
302.013
302.014
302.014
302.014
302.014
302.014
302.013
302.012
302.011
302.008
302.01
302.011
302.012
302.012
302.013
302.013
302.013
302.013
302.012
302.011
302.01
302.007
302.008
302.009
302.01
302.011
302.011
302.012
302.012
302.011
302.011
302.01
302.009
302.005
302.006
302.008
302.008
302.009
302.01
302.01
302.01
302.01
302.009
302.008
302.007
306.724
306.734
306.745
306.757
306.769
306.78
306.73
306.746
306.762
306.778
306.793
306.809
306.738
306.758
306.778
306.796
306.815
306.833
306.745
306.768
306.789
306.811
306.831
306.85
306.431
306.426
306.423
306.418
306.414
306.41
306.447
306.444
306.442
306.439
306.437
306.435
306.463
306.461
306.461
306.459
306.458
306.458
306.477
306.477
306.478
306.478
306.478
306.478
306.491
306.492
306.494
306.494
306.495
306.496
306.503
306.506
306.508
306.509
306.51
306.51
306.514
306.518
306.52
306.521
306.522
306.521
306.111
306.094
306.081
306.066
306.053
306.039
306.129
306.112
306.098
306.082
306.068
306.054
306.145