/*--------------------------------*- C++ -*----------------------------------*\
| =========                 |                                                 |
| \\      /  F ield         | OpenFOAM: The Open Source CFD Toolbox           |
|  \\    /   O peration     | Version:  v2106                                 |
|   \\  /    A nd           | Website:  www.openfoam.com                      |
|    \\/     M anipulation  |                                                 |
\*---------------------------------------------------------------------------*/
FoamFile
{
    version     2.0;
    format      ascii;
    arch        "LSB;label=32;scalar=64";
    class       volScalarField;
    location    "0.000215";
    object      Ttot;
}
// * * * * * * * * * * * * * * * * * * * * * * * * * * * * * * * * * * * * * //

dimensions      [0 0 0 1 0 0 0];

internalField   nonuniform List<scalar> 
17920
(
306.947
306.96
306.985
307.001
307.018
307.035
307.054
307.071
307.087
307.103
307.12
307.136
307.151
307.166
307.181
307.196
307.209
307.223
307.236
307.25
307.261
307.275
307.285
307.3
307.308
307.324
307.328
307.347
306.598
306.605
306.615
306.625
306.635
306.646
306.656
306.667
306.677
306.686
306.696
306.705
306.715
306.725
306.626
306.633
306.645
306.655
306.666
306.677
306.688
306.699
306.71
306.72
306.731
306.741
306.751
306.763
306.655
306.663
306.675
306.686
306.697
306.709
306.72
306.732
306.743
306.754
306.764
306.775
306.785
306.798
306.685
306.694
306.706
306.717
306.729
306.741
306.753
306.765
306.776
306.788
306.799
306.81
306.821
306.834
306.714
306.724
306.736
306.748
306.761
306.773
306.786
306.798
306.81
306.822
306.833
306.845
306.856
306.869
306.745
306.755
306.767
306.78
306.793
306.806
306.818
306.831
306.844
306.856
306.868
306.88
306.892
306.904
306.774
306.786
306.798
306.811
306.824
306.838
306.851
306.864
306.877
306.889
306.902
306.914
306.926
306.938
306.805
306.817
306.829
306.842
306.856
306.869
306.883
306.896
306.91
306.923
306.936
306.948
306.961
306.972
306.834
306.847
306.859
306.873
306.886
306.901
306.914
306.928
306.942
306.955
306.968
306.981
306.994
307.005
306.864
306.877
306.889
306.903
306.917
306.931
306.945
306.959
306.973
306.987
307
307.013
307.027
307.038
306.893
306.906
306.918
306.932
306.946
306.961
306.975
306.989
307.004
307.018
307.032
307.045
307.059
307.07
306.922
306.935
306.947
306.961
306.975
306.99
307.004
307.019
307.033
307.047
307.062
307.075
307.091
307.102
306.95
306.962
306.974
306.988
307.002
307.017
307.032
307.047
307.062
307.076
307.091
307.106
307.121
307.134
306.979
306.99
307.002
307.016
307.03
307.045
307.059
307.074
307.089
307.104
307.118
307.133
307.149
307.164
306.488
306.487
306.489
306.492
306.494
306.498
306.501
306.505
306.509
306.514
306.518
306.523
306.528
306.534
306.512
306.51
306.512
306.515
306.518
306.521
306.525
306.53
306.534
306.539
306.544
306.549
306.554
306.562
306.535
306.533
306.536
306.539
306.543
306.546
306.551
306.555
306.56
306.565
306.57
306.576
306.581
306.589
306.559
306.558
306.562
306.565
306.569
306.573
306.577
306.582
306.587
306.592
306.598
306.604
306.61
306.618
306.584
306.584
306.587
306.591
306.595
306.6
306.604
306.61
306.615
306.621
306.627
306.633
306.639
306.647
306.609
306.611
306.614
306.618
306.623
306.627
306.633
306.638
306.644
306.65
306.656
306.663
306.67
306.677
306.635
306.638
306.642
306.646
306.651
306.656
306.661
306.667
306.674
306.68
306.687
306.694
306.701
306.708
306.662
306.665
306.669
306.674
306.679
306.685
306.691
306.697
306.704
306.711
306.718
306.725
306.733
306.739
306.688
306.693
306.697
306.702
306.708
306.714
306.72
306.727
306.734
306.742
306.749
306.756
306.765
306.771
306.715
306.72
306.724
306.73
306.736
306.743
306.75
306.757
306.765
306.773
306.78
306.788
306.797
306.803
306.742
306.747
306.752
306.758
306.765
306.772
306.78
306.787
306.796
306.804
306.812
306.819
306.829
306.835
306.769
306.775
306.78
306.786
306.793
306.801
306.809
306.817
306.826
306.835
306.843
306.851
306.862
306.868
306.795
306.801
306.807
306.814
306.822
306.83
306.838
306.847
306.856
306.865
306.874
306.883
306.894
306.9
306.824
306.829
306.835
306.842
306.85
306.858
306.867
306.876
306.886
306.895
306.905
306.914
306.925
306.934
306.417
306.411
306.406
306.402
306.399
306.397
306.395
306.394
306.393
306.393
306.393
306.393
306.393
306.396
306.433
306.427
306.422
306.418
306.415
306.412
306.41
306.409
306.408
306.407
306.407
306.408
306.408
306.411
306.449
306.443
306.438
306.434
306.431
306.428
306.426
306.425
306.424
306.423
306.423
306.424
306.424
306.427
306.467
306.46
306.456
306.452
306.449
306.446
306.444
306.442
306.441
306.441
306.441
306.441
306.442
306.444
306.484
306.478
306.474
306.47
306.467
306.465
306.462
306.461
306.46
306.46
306.46
306.46
306.461
306.463
306.503
306.497
306.494
306.49
306.487
306.484
306.482
306.481
306.48
306.48
306.48
306.481
306.482
306.483
306.522
306.517
306.513
306.51
306.507
306.505
306.503
306.502
306.501
306.501
306.501
306.502
306.503
306.505
306.541
306.537
306.534
306.531
306.528
306.526
306.525
306.524
306.523
306.523
306.524
306.525
306.526
306.527
306.561
306.558
306.555
306.552
306.55
306.548
306.547
306.546
306.546
306.546
306.547
306.549
306.551
306.551
306.581
306.579
306.576
306.574
306.572
306.571
306.57
306.57
306.57
306.571
306.572
306.573
306.576
306.575
306.602
306.601
306.598
306.597
306.595
306.595
306.594
306.594
306.595
306.595
306.597
306.599
306.601
306.601
306.623
306.623
306.621
306.619
306.619
306.618
306.619
306.619
306.62
306.621
306.623
306.625
306.628
306.627
306.645
306.645
306.644
306.643
306.643
306.643
306.643
306.644
306.646
306.647
306.649
306.652
306.655
306.654
306.67
306.668
306.666
306.666
306.666
306.667
306.668
306.67
306.672
306.674
306.676
306.679
306.683
306.684
306.367
306.357
306.349
306.341
306.334
306.328
306.322
306.318
306.314
306.31
306.307
306.303
306.3
306.298
306.376
306.366
306.358
306.35
306.342
306.336
306.33
306.325
306.32
306.316
306.312
306.308
306.305
306.302
306.385
306.375
306.367
306.358
306.351
306.344
306.338
306.332
306.327
306.323
306.319
306.315
306.311
306.309
306.395
306.385
306.376
306.368
306.36
306.353
306.346
306.34
306.335
306.331
306.326
306.322
306.319
306.316
306.405
306.395
306.386
306.378
306.37
306.363
306.356
306.35
306.345
306.34
306.335
306.331
306.327
306.324
306.415
306.406
306.397
306.389
306.381
306.374
306.367
306.36
306.355
306.35
306.345
306.341
306.337
306.333
306.426
306.417
306.409
306.4
306.393
306.385
306.378
306.372
306.366
306.361
306.356
306.352
306.348
306.344
306.438
306.429
306.421
306.413
306.405
306.397
306.39
306.384
306.378
306.373
306.368
306.364
306.36
306.356
306.449
306.441
306.433
306.425
306.418
306.41
306.404
306.397
306.391
306.386
306.381
306.377
306.373
306.368
306.462
306.454
306.446
306.439
306.431
306.424
306.417
306.411
306.405
306.4
306.395
306.39
306.387
306.382
306.474
306.467
306.46
306.452
306.445
306.439
306.432
306.426
306.42
306.415
306.41
306.405
306.401
306.396
306.487
306.481
306.474
306.467
306.46
306.454
306.447
306.441
306.436
306.43
306.425
306.42
306.417
306.412
306.502
306.496
306.489
306.482
306.475
306.469
306.463
306.457
306.452
306.446
306.442
306.437
306.433
306.429
306.518
306.51
306.503
306.497
306.491
306.485
306.479
306.474
306.469
306.464
306.459
306.454
306.451
306.447
306.317
306.305
306.295
306.286
306.277
306.269
306.262
306.255
306.248
306.242
306.236
306.23
306.225
306.219
306.319
306.308
306.298
306.288
306.279
306.271
306.263
306.255
306.248
306.241
306.235
306.228
306.222
306.217
306.322
306.311
306.3
306.29
306.281
306.272
306.264
306.256
306.248
306.241
306.234
306.228
306.221
306.215
306.324
306.314
306.303
306.293
306.283
306.274
306.265
306.257
306.249
306.242
306.235
306.227
306.221
306.214
306.327
306.316
306.306
306.296
306.286
306.276
306.267
306.259
306.251
306.243
306.235
306.228
306.221
306.214
306.33
306.319
306.309
306.299
306.289
306.279
306.27
306.261
306.252
306.244
306.236
306.228
306.221
306.214
306.333
306.323
306.312
306.302
306.292
306.282
306.272
306.263
306.254
306.246
306.238
306.23
306.222
306.215
306.336
306.326
306.316
306.305
306.295
306.285
306.275
306.266
306.257
306.248
306.24
306.232
306.224
306.216
306.34
306.33
306.319
306.309
306.299
306.289
306.279
306.269
306.26
306.251
306.243
306.234
306.226
306.219
306.344
306.334
306.323
306.313
306.303
306.293
306.283
306.273
306.264
306.255
306.246
306.237
306.229
306.221
306.348
306.338
306.328
306.318
306.307
306.297
306.287
306.278
306.268
306.259
306.25
306.241
306.233
306.224
306.352
306.343
306.333
306.322
306.312
306.302
306.292
306.282
306.273
306.263
306.254
306.245
306.237
306.228
306.357
306.347
306.337
306.327
306.317
306.307
306.297
306.287
306.278
306.268
306.259
306.25
306.241
306.232
306.361
306.351
306.341
306.332
306.322
306.312
306.303
306.293
306.283
306.274
306.265
306.256
306.247
306.237
306.244
306.233
306.223
306.214
306.204
306.196
306.187
306.178
306.17
306.161
306.153
306.145
306.138
306.131
306.24
306.23
306.22
306.21
306.201
306.192
306.183
306.174
306.165
306.156
306.148
306.139
306.132
306.123
306.236
306.226
306.216
306.206
306.197
306.187
306.178
306.169
306.16
306.151
306.142
306.133
306.125
306.117
306.232
306.223
306.212
306.202
306.193
306.183
306.174
306.164
306.155
306.146
306.137
306.128
306.119
306.11
306.228
306.219
306.208
306.199
306.189
306.179
306.169
306.159
306.15
306.14
306.131
306.122
306.113
306.104
306.224
306.215
306.204
306.194
306.184
306.174
306.164
306.154
306.145
306.135
306.125
306.116
306.107
306.097
306.22
306.211
306.2
306.19
306.18
306.17
306.16
306.149
306.139
306.129
306.12
306.11
306.1
306.091
306.216
306.206
306.196
306.186
306.175
306.165
306.155
306.144
306.134
306.124
306.114
306.104
306.094
306.084
306.212
306.202
306.192
306.181
306.171
306.16
306.15
306.139
306.129
306.118
306.108
306.098
306.088
306.078
306.207
306.197
306.187
306.177
306.166
306.155
306.145
306.134
306.123
306.113
306.102
306.092
306.081
306.072
306.203
306.193
306.183
306.172
306.162
306.151
306.14
306.129
306.118
306.107
306.096
306.086
306.075
306.065
306.198
306.188
306.178
306.167
306.157
306.146
306.135
306.124
306.113
306.102
306.091
306.08
306.069
306.059
306.194
306.184
306.174
306.163
306.152
306.141
306.13
306.119
306.108
306.096
306.085
306.074
306.063
306.053
306.189
306.179
306.169
306.158
306.147
306.136
306.125
306.114
306.103
306.092
306.081
306.07
306.059
306.049
306.121
306.112
306.103
306.095
306.087
306.078
306.069
306.06
306.051
306.042
306.033
306.024
306.016
306.006
306.112
306.104
306.095
306.087
306.078
306.07
306.061
306.052
306.043
306.033
306.024
306.014
306.006
305.996
306.102
306.095
306.086
306.078
306.069
306.061
306.052
306.043
306.034
306.024
306.015
306.005
305.996
305.987
306.093
306.085
306.077
306.069
306.06
306.051
306.043
306.033
306.024
306.014
306.005
305.995
305.986
305.976
306.083
306.076
306.067
306.059
306.05
306.042
306.033
306.023
306.014
306.004
305.995
305.985
305.975
305.965
306.073
306.066
306.057
306.049
306.04
306.032
306.022
306.013
306.004
305.994
305.984
305.974
305.964
305.954
306.063
306.056
306.047
306.039
306.03
306.021
306.012
306.002
305.993
305.983
305.973
305.963
305.953
305.943
306.053
306.045
306.037
306.028
306.019
306.01
306.001
305.991
305.982
305.972
305.962
305.951
305.941
305.931
306.043
306.035
306.026
306.017
306.008
305.999
305.989
305.98
305.97
305.96
305.95
305.939
305.929
305.919
306.031
306.023
306.014
306.006
305.997
305.987
305.978
305.968
305.958
305.948
305.937
305.927
305.916
305.907
306.021
306.012
306.003
305.994
305.985
305.975
305.966
305.956
305.945
305.935
305.925
305.914
305.904
305.895
306.009
306
305.991
305.982
305.973
305.963
305.953
305.943
305.933
305.923
305.912
305.902
305.891
305.882
305.998
305.988
305.98
305.971
305.961
305.951
305.941
305.931
305.92
305.91
305.899
305.889
305.878
305.869
305.986
305.976
305.967
305.958
305.948
305.938
305.928
305.918
305.908
305.898
305.887
305.877
305.866
305.857
305.922
305.916
305.91
305.904
305.898
305.891
305.884
305.877
305.869
305.861
305.852
305.844
305.836
305.827
305.908
305.904
305.899
305.893
305.887
305.88
305.873
305.865
305.858
305.849
305.841
305.832
305.824
305.815
305.896
305.892
305.886
305.881
305.875
305.868
305.861
305.854
305.846
305.838
305.83
305.821
305.813
305.804
305.883
305.879
305.874
305.868
305.862
305.856
305.849
305.841
305.834
305.825
305.817
305.809
305.801
305.792
305.871
305.867
305.861
305.856
305.85
305.843
305.836
305.829
305.821
305.813
305.805
305.796
305.788
305.779
305.857
305.853
305.848
305.842
305.836
305.83
305.823
305.815
305.808
305.8
305.791
305.783
305.775
305.766
305.844
305.84
305.834
305.828
305.822
305.816
305.809
305.801
305.794
305.786
305.778
305.769
305.761
305.753
305.83
305.825
305.82
305.814
305.808
305.801
305.794
305.787
305.779
305.771
305.763
305.755
305.747
305.738
305.816
305.811
305.805
305.799
305.793
305.786
305.779
305.772
305.765
305.757
305.748
305.74
305.732
305.724
305.802
305.796
305.79
305.784
305.778
305.771
305.764
305.757
305.749
305.742
305.733
305.725
305.717
305.709
305.788
305.781
305.776
305.769
305.763
305.756
305.749
305.742
305.734
305.726
305.718
305.71
305.701
305.695
305.772
305.766
305.76
305.754
305.747
305.74
305.733
305.726
305.718
305.71
305.702
305.694
305.685
305.679
305.758
305.751
305.745
305.739
305.732
305.725
305.717
305.71
305.702
305.694
305.686
305.678
305.67
305.664
305.742
305.735
305.729
305.722
305.715
305.709
305.701
305.694
305.687
305.679
305.671
305.663
305.655
305.649
305.637
305.636
305.634
305.632
305.629
305.625
305.621
305.617
305.612
305.607
305.601
305.595
305.59
305.583
305.624
305.624
305.622
305.62
305.617
305.614
305.61
305.605
305.601
305.595
305.59
305.584
305.579
305.572
305.612
305.612
305.61
305.608
305.605
305.602
305.598
305.594
305.589
305.584
305.579
305.573
305.568
305.562
305.6
305.6
305.598
305.596
305.593
305.589
305.586
305.582
305.577
305.572
305.567
305.562
305.557
305.55
305.588
305.587
305.585
305.583
305.58
305.577
305.573
305.569
305.564
305.56
305.555
305.55
305.545
305.539
305.575
305.574
305.572
305.569
305.567
305.564
305.56
305.556
305.552
305.547
305.542
305.537
305.532
305.526
305.562
305.56
305.558
305.556
305.553
305.55
305.546
305.542
305.538
305.534
305.529
305.524
305.519
305.514
305.548
305.547
305.544
305.542
305.539
305.536
305.532
305.529
305.524
305.52
305.515
305.511
305.506
305.501
305.535
305.533
305.53
305.528
305.525
305.522
305.518
305.514
305.51
305.506
305.501
305.497
305.492
305.488
305.521
305.518
305.516
305.513
305.511
305.507
305.504
305.5
305.496
305.492
305.487
305.483
305.478
305.474
305.507
305.504
305.501
305.499
305.496
305.493
305.489
305.486
305.481
305.477
305.473
305.469
305.464
305.461
305.493
305.489
305.487
305.484
305.481
305.478
305.475
305.471
305.467
305.463
305.458
305.454
305.449
305.447
305.48
305.475
305.472
305.47
305.467
305.463
305.46
305.456
305.452
305.448
305.444
305.44
305.435
305.433
305.464
305.46
305.457
305.455
305.452
305.449
305.445
305.441
305.438
305.433
305.429
305.425
305.421
305.419
305.287
305.289
305.29
305.291
305.292
305.293
305.293
305.292
305.291
305.29
305.288
305.286
305.284
305.281
305.278
305.281
305.282
305.283
305.284
305.284
305.284
305.284
305.283
305.282
305.28
305.278
305.276
305.274
305.27
305.273
305.274
305.275
305.276
305.276
305.276
305.275
305.275
305.274
305.272
305.27
305.269
305.266
305.261
305.264
305.265
305.266
305.267
305.267
305.267
305.267
305.266
305.265
305.264
305.262
305.261
305.258
305.253
305.255
305.256
305.257
305.258
305.258
305.258
305.258
305.257
305.256
305.255
305.254
305.252
305.25
305.244
305.245
305.247
305.248
305.248
305.248
305.248
305.248
305.248
305.247
305.246
305.245
305.244
305.242
305.234
305.236
305.237
305.238
305.238
305.239
305.239
305.239
305.238
305.237
305.237
305.236
305.235
305.233
305.225
305.226
305.227
305.228
305.228
305.229
305.229
305.229
305.228
305.228
305.227
305.226
305.225
305.224
305.215
305.216
305.217
305.218
305.218
305.219
305.219
305.219
305.218
305.218
305.217
305.217
305.216
305.215
305.205
305.205
305.207
305.208
305.208
305.209
305.209
305.209
305.208
305.208
305.208
305.207
305.206
305.206
305.195
305.195
305.196
305.197
305.198
305.198
305.199
305.199
305.198
305.198
305.198
305.197
305.196
305.197
305.186
305.185
305.186
305.187
305.188
305.188
305.188
305.188
305.188
305.188
305.187
305.187
305.186
305.187
305.176
305.175
305.176
305.177
305.177
305.178
305.178
305.178
305.178
305.178
305.177
305.177
305.176
305.178
305.165
305.165
305.166
305.167
305.167
305.168
305.168
305.168
305.168
305.167
305.167
305.167
305.166
305.167
304.906
304.911
304.914
304.918
304.921
304.925
304.928
304.93
304.933
304.934
304.936
304.938
304.939
304.939
304.904
304.908
304.912
304.915
304.919
304.922
304.925
304.927
304.93
304.932
304.933
304.935
304.936
304.937
304.901
304.905
304.909
304.912
304.915
304.919
304.921
304.924
304.927
304.929
304.93
304.932
304.933
304.934
304.898
304.902
304.905
304.909
304.912
304.915
304.918
304.921
304.923
304.925
304.927
304.929
304.93
304.931
304.894
304.898
304.902
304.905
304.908
304.912
304.914
304.917
304.92
304.922
304.924
304.925
304.927
304.928
304.891
304.894
304.898
304.901
304.905
304.908
304.911
304.913
304.916
304.918
304.92
304.922
304.924
304.925
304.887
304.89
304.894
304.897
304.901
304.904
304.907
304.909
304.912
304.914
304.916
304.918
304.92
304.921
304.883
304.886
304.89
304.893
304.897
304.9
304.902
304.905
304.908
304.91
304.912
304.914
304.916
304.918
304.878
304.882
304.886
304.889
304.892
304.895
304.898
304.901
304.904
304.906
304.908
304.91
304.912
304.914
304.874
304.878
304.881
304.885
304.888
304.891
304.894
304.897
304.899
304.902
304.904
304.906
304.908
304.91
304.87
304.873
304.877
304.88
304.883
304.886
304.889
304.892
304.895
304.897
304.9
304.902
304.904
304.906
304.865
304.869
304.872
304.876
304.879
304.882
304.885
304.887
304.89
304.893
304.895
304.897
304.899
304.902
304.861
304.864
304.867
304.871
304.874
304.877
304.88
304.883
304.886
304.888
304.891
304.893
304.895
304.898
304.857
304.86
304.863
304.866
304.869
304.872
304.875
304.878
304.881
304.883
304.886
304.888
304.89
304.893
304.531
304.535
304.54
304.544
304.548
304.552
304.557
304.56
304.564
304.568
304.571
304.574
304.577
304.58
304.532
304.537
304.541
304.546
304.55
304.554
304.559
304.563
304.566
304.57
304.573
304.576
304.579
304.582
304.535
304.539
304.543
304.548
304.552
304.556
304.561
304.564
304.568
304.572
304.575
304.578
304.581
304.583
304.536
304.54
304.545
304.549
304.554
304.558
304.562
304.566
304.57
304.574
304.577
304.58
304.583
304.585
304.537
304.542
304.547
304.551
304.555
304.56
304.564
304.568
304.571
304.575
304.578
304.581
304.584
304.586
304.539
304.543
304.548
304.552
304.557
304.561
304.565
304.569
304.573
304.576
304.58
304.583
304.585
304.588
304.54
304.544
304.549
304.553
304.558
304.562
304.566
304.57
304.574
304.577
304.581
304.584
304.586
304.589
304.54
304.545
304.55
304.554
304.559
304.563
304.567
304.571
304.575
304.578
304.582
304.585
304.587
304.59
304.541
304.546
304.55
304.555
304.559
304.564
304.568
304.572
304.576
304.579
304.582
304.585
304.588
304.591
304.542
304.546
304.551
304.556
304.56
304.564
304.568
304.572
304.576
304.58
304.583
304.586
304.589
304.592
304.542
304.547
304.551
304.556
304.56
304.565
304.569
304.573
304.576
304.58
304.583
304.586
304.59
304.592
304.542
304.547
304.551
304.556
304.56
304.565
304.569
304.573
304.577
304.58
304.584
304.587
304.59
304.593
304.542
304.547
304.551
304.556
304.56
304.565
304.569
304.573
304.577
304.58
304.584
304.587
304.59
304.593
304.542
304.547
304.552
304.556
304.56
304.565
304.568
304.572
304.576
304.58
304.583
304.586
304.59
304.593
304.179
304.182
304.186
304.189
304.193
304.197
304.2
304.204
304.207
304.211
304.214
304.217
304.22
304.222
304.183
304.186
304.19
304.194
304.198
304.201
304.205
304.209
304.212
304.215
304.219
304.221
304.224
304.227
304.187
304.191
304.195
304.198
304.202
304.206
304.21
304.213
304.217
304.22
304.223
304.226
304.228
304.231
304.191
304.195
304.199
304.203
304.207
304.211
304.214
304.218
304.221
304.225
304.227
304.23
304.233
304.235
304.195
304.199
304.203
304.207
304.211
304.215
304.219
304.222
304.226
304.229
304.232
304.234
304.237
304.239
304.199
304.203
304.207
304.211
304.215
304.219
304.223
304.227
304.23
304.233
304.236
304.239
304.241
304.243
304.203
304.207
304.211
304.215
304.219
304.223
304.227
304.231
304.234
304.237
304.24
304.242
304.245
304.247
304.206
304.211
304.215
304.219
304.223
304.227
304.231
304.234
304.238
304.241
304.244
304.246
304.249
304.25
304.21
304.214
304.218
304.223
304.227
304.231
304.234
304.238
304.241
304.244
304.247
304.25
304.252
304.254
304.213
304.218
304.222
304.226
304.23
304.234
304.238
304.241
304.245
304.248
304.25
304.253
304.255
304.257
304.216
304.221
304.225
304.229
304.233
304.237
304.241
304.244
304.248
304.251
304.254
304.256
304.259
304.26
304.219
304.223
304.228
304.232
304.236
304.24
304.244
304.247
304.25
304.254
304.256
304.259
304.262
304.264
304.221
304.226
304.23
304.234
304.238
304.242
304.246
304.25
304.253
304.256
304.259
304.262
304.264
304.267
304.224
304.229
304.233
304.237
304.241
304.245
304.248
304.252
304.255
304.259
304.261
304.264
304.267
304.27
303.856
303.858
303.86
303.863
303.865
303.867
303.869
303.871
303.873
303.876
303.877
303.879
303.881
303.883
303.861
303.863
303.865
303.867
303.869
303.872
303.874
303.876
303.878
303.88
303.882
303.884
303.886
303.888
303.865
303.867
303.869
303.872
303.874
303.877
303.879
303.881
303.883
303.885
303.887
303.888
303.89
303.892
303.869
303.871
303.874
303.876
303.879
303.881
303.883
303.886
303.888
303.89
303.891
303.893
303.894
303.896
303.873
303.876
303.878
303.881
303.883
303.886
303.888
303.89
303.892
303.894
303.896
303.897
303.899
303.9
303.878
303.88
303.883
303.885
303.888
303.89
303.893
303.895
303.897
303.899
303.9
303.902
303.903
303.905
303.882
303.884
303.887
303.89
303.892
303.895
303.897
303.899
303.901
303.903
303.905
303.906
303.907
303.909
303.886
303.888
303.891
303.894
303.896
303.899
303.901
303.903
303.905
303.907
303.909
303.91
303.912
303.913
303.889
303.892
303.895
303.898
303.9
303.903
303.905
303.907
303.909
303.911
303.913
303.914
303.916
303.917
303.893
303.896
303.899
303.902
303.904
303.907
303.909
303.911
303.913
303.915
303.917
303.918
303.92
303.92
303.897
303.9
303.902
303.905
303.908
303.91
303.913
303.915
303.917
303.919
303.92
303.922
303.923
303.924
303.9
303.903
303.906
303.909
303.911
303.914
303.916
303.918
303.92
303.922
303.924
303.925
303.927
303.928
303.903
303.906
303.909
303.912
303.915
303.917
303.92
303.922
303.924
303.926
303.927
303.929
303.93
303.931
303.907
303.91
303.913
303.915
303.918
303.92
303.923
303.925
303.927
303.929
303.931
303.932
303.934
303.935
303.564
303.565
303.565
303.566
303.566
303.567
303.568
303.568
303.569
303.57
303.57
303.571
303.572
303.572
303.567
303.567
303.568
303.569
303.569
303.57
303.571
303.571
303.572
303.573
303.573
303.574
303.575
303.576
303.57
303.57
303.571
303.571
303.572
303.573
303.574
303.574
303.575
303.576
303.576
303.577
303.577
303.578
303.572
303.573
303.574
303.574
303.575
303.576
303.577
303.577
303.578
303.579
303.579
303.58
303.58
303.581
303.575
303.576
303.577
303.577
303.578
303.579
303.579
303.58
303.581
303.582
303.582
303.583
303.583
303.584
303.578
303.579
303.58
303.58
303.581
303.582
303.583
303.583
303.584
303.585
303.585
303.586
303.586
303.587
303.581
303.582
303.582
303.583
303.584
303.585
303.586
303.586
303.587
303.588
303.588
303.589
303.589
303.59
303.584
303.585
303.585
303.586
303.587
303.588
303.589
303.589
303.59
303.591
303.591
303.592
303.592
303.593
303.587
303.588
303.588
303.589
303.59
303.591
303.592
303.592
303.593
303.594
303.594
303.595
303.595
303.596
303.589
303.59
303.591
303.592
303.593
303.594
303.595
303.595
303.596
303.597
303.597
303.598
303.598
303.598
303.592
303.593
303.594
303.595
303.596
303.597
303.598
303.598
303.599
303.6
303.6
303.601
303.601
303.601
303.595
303.596
303.597
303.598
303.599
303.6
303.6
303.601
303.602
303.602
303.603
303.603
303.604
303.604
303.598
303.599
303.6
303.601
303.602
303.602
303.603
303.604
303.605
303.605
303.606
303.606
303.607
303.607
303.601
303.602
303.603
303.603
303.604
303.605
303.606
303.607
303.607
303.608
303.609
303.609
303.61
303.61
303.3
303.299
303.299
303.298
303.298
303.297
303.297
303.297
303.297
303.296
303.296
303.296
303.296
303.296
303.301
303.3
303.3
303.299
303.299
303.298
303.298
303.298
303.297
303.297
303.297
303.297
303.297
303.298
303.302
303.301
303.3
303.3
303.299
303.299
303.299
303.298
303.298
303.298
303.298
303.298
303.298
303.299
303.303
303.302
303.301
303.301
303.3
303.3
303.299
303.299
303.299
303.299
303.299
303.299
303.299
303.3
303.304
303.303
303.302
303.302
303.301
303.301
303.3
303.3
303.3
303.3
303.3
303.3
303.3
303.301
303.305
303.304
303.303
303.303
303.302
303.302
303.302
303.301
303.301
303.301
303.301
303.301
303.302
303.302
303.306
303.305
303.305
303.304
303.304
303.303
303.303
303.303
303.302
303.302
303.302
303.303
303.303
303.303
303.307
303.307
303.306
303.305
303.305
303.304
303.304
303.304
303.304
303.304
303.304
303.304
303.304
303.304
303.309
303.308
303.307
303.307
303.306
303.306
303.306
303.305
303.305
303.305
303.305
303.305
303.306
303.306
303.31
303.31
303.309
303.308
303.308
303.308
303.307
303.307
303.307
303.307
303.307
303.307
303.307
303.307
303.312
303.311
303.311
303.31
303.31
303.309
303.309
303.309
303.309
303.308
303.308
303.308
303.309
303.308
303.314
303.313
303.312
303.312
303.311
303.311
303.311
303.311
303.31
303.31
303.31
303.31
303.31
303.31
303.315
303.315
303.314
303.314
303.313
303.313
303.313
303.312
303.312
303.312
303.312
303.312
303.312
303.312
303.317
303.317
303.316
303.315
303.315
303.315
303.315
303.314
303.314
303.314
303.314
303.314
303.314
303.313
303.062
303.061
303.06
303.059
303.058
303.058
303.057
303.056
303.056
303.055
303.055
303.055
303.054
303.054
303.062
303.061
303.06
303.059
303.058
303.057
303.056
303.056
303.055
303.055
303.054
303.054
303.054
303.054
303.061
303.06
303.059
303.058
303.057
303.056
303.056
303.055
303.054
303.054
303.054
303.054
303.054
303.054
303.061
303.06
303.059
303.058
303.057
303.056
303.055
303.054
303.054
303.054
303.054
303.053
303.054
303.054
303.061
303.06
303.058
303.057
303.056
303.056
303.055
303.054
303.054
303.053
303.053
303.053
303.053
303.054
303.061
303.059
303.058
303.057
303.056
303.055
303.055
303.054
303.054
303.053
303.053
303.053
303.053
303.054
303.061
303.06
303.058
303.057
303.056
303.055
303.055
303.054
303.054
303.053
303.053
303.053
303.053
303.054
303.061
303.06
303.058
303.057
303.056
303.055
303.055
303.054
303.054
303.053
303.053
303.053
303.053
303.054
303.061
303.06
303.059
303.058
303.057
303.056
303.055
303.054
303.054
303.054
303.054
303.053
303.054
303.054
303.062
303.061
303.059
303.058
303.057
303.056
303.055
303.055
303.054
303.054
303.054
303.054
303.054
303.054
303.062
303.061
303.06
303.059
303.058
303.057
303.056
303.055
303.055
303.055
303.054
303.054
303.054
303.054
303.063
303.062
303.06
303.059
303.058
303.058
303.057
303.056
303.056
303.055
303.055
303.055
303.055
303.055
303.064
303.062
303.061
303.06
303.059
303.058
303.058
303.057
303.057
303.056
303.056
303.056
303.056
303.055
303.064
303.063
303.062
303.061
303.06
303.059
303.059
303.058
303.058
303.057
303.057
303.056
303.056
303.056
302.849
302.848
302.847
302.847
302.846
302.846
302.845
302.844
302.844
302.843
302.843
302.843
302.843
302.842
302.848
302.847
302.847
302.846
302.845
302.845
302.844
302.843
302.843
302.843
302.842
302.842
302.842
302.842
302.847
302.847
302.846
302.845
302.844
302.844
302.843
302.843
302.842
302.842
302.841
302.841
302.841
302.841
302.847
302.846
302.845
302.844
302.844
302.843
302.842
302.842
302.841
302.841
302.841
302.841
302.841
302.841
302.846
302.845
302.844
302.844
302.843
302.842
302.842
302.841
302.841
302.84
302.84
302.84
302.84
302.84
302.846
302.845
302.844
302.843
302.842
302.842
302.841
302.84
302.84
302.84
302.84
302.839
302.839
302.839
302.845
302.844
302.843
302.843
302.842
302.841
302.84
302.84
302.84
302.839
302.839
302.839
302.839
302.839
302.845
302.844
302.843
302.842
302.841
302.841
302.84
302.84
302.839
302.839
302.839
302.839
302.839
302.839
302.845
302.844
302.843
302.842
302.841
302.84
302.84
302.839
302.839
302.839
302.838
302.838
302.838
302.838
302.845
302.844
302.843
302.842
302.841
302.84
302.84
302.839
302.839
302.838
302.838
302.838
302.838
302.838
302.844
302.843
302.842
302.842
302.841
302.84
302.839
302.839
302.838
302.838
302.838
302.838
302.838
302.838
302.844
302.843
302.842
302.842
302.841
302.84
302.839
302.839
302.838
302.838
302.838
302.838
302.838
302.837
302.844
302.843
302.843
302.842
302.841
302.84
302.839
302.839
302.838
302.838
302.838
302.838
302.838
302.837
302.844
302.843
302.842
302.842
302.841
302.84
302.84
302.839
302.839
302.838
302.838
302.838
302.837
302.837
306.917
306.89
306.861
306.831
306.801
306.77
306.928
306.911
306.888
306.867
306.844
306.822
306.569
306.541
306.515
306.491
306.469
306.449
306.577
306.547
306.518
306.49
306.464
306.439
306.583
306.548
306.517
306.486
306.458
306.432
306.592
306.554
306.519
306.487
306.457
306.43
306.6
306.56
306.524
306.49
306.459
306.431
306.609
306.568
306.53
306.495
306.463
306.434
306.619
306.578
306.539
306.503
306.47
306.44
306.629
306.588
306.549
306.513
306.479
306.449
306.639
306.6
306.561
306.525
306.491
306.46
306.65
306.613
306.576
306.54
306.507
306.476
306.661
306.627
306.592
306.559
306.527
306.496
306.673
306.643
306.611
306.581
306.551
306.523
306.686
306.661
306.634
306.608
306.582
306.556
306.694
306.677
306.655
306.635
306.615
306.595
306.467
306.449
306.433
306.419
306.406
306.393
306.468
306.447
306.428
306.409
306.392
306.376
306.466
306.443
306.421
306.401
306.382
306.364
306.467
306.441
306.417
306.395
306.375
306.356
306.468
306.441
306.416
306.392
306.371
306.352
306.471
306.442
306.416
306.392
306.371
306.352