/*--------------------------------*- C++ -*----------------------------------*\
| =========                 |                                                 |
| \\      /  F ield         | OpenFOAM: The Open Source CFD Toolbox           |
|  \\    /   O peration     | Version:  v2106                                 |
|   \\  /    A nd           | Website:  www.openfoam.com                      |
|    \\/     M anipulation  |                                                 |
\*---------------------------------------------------------------------------*/
FoamFile
{
    version     2.0;
    format      ascii;
    arch        "LSB;label=32;scalar=64";
    class       volScalarField;
    location    "0.00014";
    object      alphat;
}
// * * * * * * * * * * * * * * * * * * * * * * * * * * * * * * * * * * * * * //

dimensions      [1 -1 -1 0 0 0 0];

internalField   nonuniform List<scalar> 
18109
(
7.61466e-07
3.11676e-07
1.45604e-07
6.93285e-08
3.91401e-08
2.75278e-08
2.30597e-08
1.98015e-07
6.3104e-08
2.18581e-08
7.25154e-09
3.33933e-09
2.50359e-09
2.50723e-09
1.24745e-07
4.05105e-08
1.2727e-08
3.91195e-09
1.1383e-09
3.69075e-10
2.33594e-10
1.78416e-07
6.73136e-08
2.37866e-08
7.35863e-09
1.90111e-09
4.01197e-10
7.42786e-11
2.45543e-07
9.61545e-08
3.30998e-08
9.73415e-09
2.38391e-09
4.74512e-10
7.37701e-11
3.12265e-07
1.1621e-07
3.76869e-08
1.04512e-08
2.42636e-09
4.5921e-10
6.80713e-11
4.01362e-07
1.39026e-07
4.17815e-08
1.07427e-08
2.31925e-09
4.09928e-10
5.88709e-11
5.34273e-07
1.72276e-07
4.80532e-08
1.15088e-08
2.32467e-09
3.98205e-10
7.16434e-11
1.29393e-07
4.35413e-08
1.65324e-08
7.45112e-09
4.87141e-09
4.19907e-09
4.01359e-09
3.83567e-09
3.53473e-09
2.90463e-09
1.87819e-09
9.51399e-10
7.09501e-10
3.67599e-09
3.9383e-08
1.06273e-08
2.82206e-09
8.23854e-10
3.8019e-10
3.22845e-10
3.61865e-10
4.12608e-10
4.44603e-10
4.21382e-10
3.046e-10
1.6963e-10
3.63356e-10
3.45048e-09
3.92372e-08
1.18737e-08
3.48307e-09
9.58477e-10
2.34379e-10
5.84581e-11
3.02765e-11
3.43871e-11
4.26553e-11
4.63253e-11
3.76248e-11
3.2701e-11
2.56955e-10
2.96354e-09
6.04098e-08
2.06403e-08
6.36943e-09
1.69552e-09
3.76972e-10
6.86742e-11
1.07787e-11
3.06446e-12
3.1624e-12
3.91172e-12
3.72566e-12
9.36369e-12
1.48245e-10
1.94374e-09
8.01915e-08
2.76643e-08
8.30026e-09
2.12317e-09
4.52057e-10
7.84574e-11
1.07125e-11
1.1739e-12
2.39135e-13
2.48929e-13
3.21436e-13
3.49391e-12
7.51236e-11
1.05759e-09
1.00074e-07
3.26766e-08
9.23984e-09
2.22352e-09
4.47061e-10
7.34149e-11
9.52945e-12
9.5473e-13
8.75049e-14
2.47661e-14
3.82854e-14
1.16916e-12
3.33172e-11
5.23432e-10
1.27686e-07
3.86659e-08
1.01182e-08
2.2576e-09
4.22658e-10
6.49068e-11
8.16525e-12
1.02284e-12
2.77255e-13
1.50613e-13
9.19002e-14
4.57894e-13
1.40616e-11
2.51665e-10
1.68065e-07
4.70839e-08
1.14133e-08
2.37189e-09
4.1551e-10
6.19224e-11
9.8694e-12
3.51198e-12
2.38119e-12
1.65159e-12
1.0549e-12
8.36851e-13
7.07912e-12
1.30093e-10
2.22451e-07
5.83295e-08
1.31903e-08
2.55841e-09
4.2734e-10
7.65312e-11
3.0417e-11
2.39823e-11
1.98023e-11
1.50996e-11
1.05259e-11
7.54735e-12
8.57526e-12
7.41602e-11
2.97108e-07
7.44259e-08
1.60875e-08
3.00356e-09
5.51445e-10
1.9629e-10
1.64069e-10
1.57603e-10
1.3926e-10
1.1449e-10
8.66589e-11
6.74933e-11
5.19216e-11
7.62333e-11
3.798e-07
9.1289e-08
1.91488e-08
3.69644e-09
1.04869e-09
8.02903e-10
8.59765e-10
8.85187e-10
8.26376e-10
7.27123e-10
5.96944e-10
5.01283e-10
3.92829e-10
3.39404e-10
4.71995e-07
1.10738e-07
2.36478e-08
5.65811e-09
3.12733e-09
3.40062e-09
3.92736e-09
4.24605e-09
4.18187e-09
3.9285e-09
3.49593e-09
3.1216e-09
2.55221e-09
2.12112e-09
5.73135e-07
1.3533e-07
3.18873e-08
1.18567e-08
1.07649e-08
1.303e-08
1.55859e-08
1.75561e-08
1.8223e-08
1.82916e-08
1.75962e-08
1.65598e-08
1.4147e-08
1.1782e-08
7.95711e-07
2.04735e-07
5.80953e-08
3.26937e-08
3.57954e-08
4.44036e-08
5.42109e-08
6.31708e-08
6.91535e-08
7.43754e-08
7.6891e-08
7.60092e-08
6.80117e-08
5.74201e-08
2.25249e-06
6.6522e-06
1.4897e-05
2.65648e-05
3.98175e-05
5.21801e-05
4.70911e-07
1.86115e-06
5.41271e-06
1.21256e-05
2.2018e-05
3.36841e-05
3.59638e-07
1.6725e-06
5.31845e-06
1.24712e-05
2.29273e-05
3.49087e-05
2.29295e-07
1.27569e-06
4.49786e-06
1.12121e-05
2.12967e-05
3.30071e-05
1.1857e-07
8.36761e-07
3.36055e-06
9.06126e-06
1.81823e-05
2.9237e-05
7.04826e-08
5.24541e-07
2.31988e-06
6.76876e-06
1.44678e-05
2.44484e-05
4.92e-08
3.5225e-07
1.60993e-06
4.91732e-06
1.10022e-05
1.93893e-05
3.84729e-08
2.51224e-07
1.12675e-06
3.50567e-06
8.06942e-06
1.45717e-05
3.04876e-08
1.77576e-07
7.57936e-07
2.34121e-06
5.45786e-06
1.0092e-05
2.29461e-08
1.17552e-07
4.70919e-07
1.43596e-06
3.41684e-06
6.55713e-06
1.50614e-08
6.8581e-08
2.63449e-07
8.0931e-07
1.99784e-06
3.99315e-06
8.18541e-09
3.4963e-08
1.36054e-07
4.33625e-07
1.1221e-06
2.3395e-06
3.87956e-09
1.81189e-08
7.60733e-08
2.54189e-07
6.85944e-07
1.54151e-06
2.2957e-09
1.31966e-08
6.37153e-08
2.47392e-07
7.96364e-07
2.18461e-06
5.44504e-09
3.16164e-08
1.5481e-07
6.09515e-07
1.92208e-06
4.89899e-06
2.89678e-08
1.27968e-07
4.92749e-07
1.58601e-06
4.21597e-06
9.22465e-06
2.99189e-08
1.57784e-07
6.7766e-07
2.31073e-06
6.15835e-06
1.29814e-05
2.70976e-08
1.63431e-07
7.54472e-07
2.65725e-06
7.09823e-06
1.47291e-05
1.91599e-08
1.33341e-07
6.71361e-07
2.48073e-06
6.80101e-06
1.43387e-05
1.09153e-08
8.71875e-08
4.86654e-07
1.94027e-06
5.64198e-06
1.24785e-05
5.5393e-09
4.78508e-08
2.98024e-07
1.33719e-06
4.2449e-06
9.95828e-06
2.82756e-09
2.53891e-08
1.79116e-07
9.02963e-07
3.05798e-06
7.44954e-06
1.6339e-09
1.54994e-08
1.14434e-07
5.78314e-07
2.00856e-06
5.06704e-06
9.94625e-10
9.49625e-09
6.57723e-08
3.27842e-07
1.16904e-06
3.05678e-06
6.21839e-10
5.69635e-09
3.67932e-08
1.74252e-07
6.19981e-07
1.65329e-06
6.94438e-10
4.76342e-09
2.64218e-08
1.13024e-07
3.7618e-07
9.75735e-07
2.64325e-09
1.16335e-08
4.74594e-08
1.6654e-07
4.94296e-07
1.25683e-06
1.37136e-08
5.07707e-08
1.72736e-07
5.19214e-07
1.3679e-06
3.14734e-06
6.43656e-08
2.07504e-07
6.12062e-07
1.60515e-06
3.68142e-06
7.3255e-06
2.51467e-07
6.66489e-07
1.63244e-06
3.62633e-06
7.22126e-06
1.27703e-05
2.87515e-07
8.36051e-07
2.18503e-06
5.02019e-06
9.98322e-06
1.71714e-05
3.06194e-07
9.45819e-07
2.54185e-06
5.8667e-06
1.15394e-05
1.94274e-05
2.93109e-07
9.34224e-07
2.54957e-06
5.9101e-06
1.16232e-05
1.95317e-05
2.64679e-07
8.45329e-07
2.31283e-06
5.37904e-06
1.06306e-05
1.7957e-05
2.3001e-07
7.18851e-07
1.94754e-06
4.52496e-06
8.98865e-06
1.52903e-05
1.99067e-07
5.97499e-07
1.56713e-06
3.57571e-06
7.08694e-06
1.21528e-05
1.66579e-07
4.83371e-07
1.22626e-06
2.72668e-06
5.31528e-06
9.04465e-06
1.35537e-07
3.79594e-07
9.27305e-07
1.98678e-06
3.73232e-06
6.12704e-06
1.09309e-07
2.93263e-07
6.84497e-07
1.40709e-06
2.57086e-06
4.22734e-06
9.36199e-08
2.4619e-07
5.81397e-07
1.26481e-06
2.56858e-06
4.87058e-06
1.27594e-07
3.66184e-07
9.74146e-07
2.35457e-06
5.10097e-06
9.77889e-06
3.99121e-07
1.08766e-06
2.66304e-06
5.81964e-06
1.12706e-05
1.91545e-05
1.62516e-06
3.61199e-06
7.28062e-06
1.31136e-05
2.11719e-05
3.07426e-05
4.63319e-07
1.03735e-06
2.15658e-06
4.15058e-06
7.35332e-06
1.21097e-05
3.64595e-07
9.17868e-07
2.26377e-06
5.22844e-06
1.07649e-05
1.93674e-05
6.21711e-07
1.79707e-06
4.66481e-06
1.03997e-05
1.97139e-05
3.19358e-05
2.27493e-06
5.48327e-06
1.16408e-05
2.10168e-05
3.27862e-05
4.50925e-05
2.29872e-06
5.41126e-06
1.08221e-05
1.8671e-05
2.8318e-05
3.86272e-05
2.16495e-06
5.37836e-06
1.11139e-05
1.94516e-05
2.95442e-05
4.00854e-05
1.81056e-06
4.74522e-06
1.01765e-05
1.82411e-05
2.81187e-05
3.83436e-05
1.39849e-06
3.83095e-06
8.53501e-06
1.58037e-05
2.49757e-05
3.47225e-05
1.03446e-06
2.91007e-06
6.7041e-06
1.28624e-05
2.10362e-05
3.01046e-05
7.31163e-07
2.07976e-06
4.92325e-06
9.79731e-06
1.67984e-05
2.49083e-05
5.15943e-07
1.44781e-06
3.4697e-06
7.16135e-06
1.29577e-05
1.96537e-05
3.65868e-07
9.93022e-07
2.3717e-06
5.08573e-06
9.44253e-06
1.49338e-05
2.71401e-07
7.05105e-07
1.67557e-06
3.63414e-06
6.80589e-06
1.08958e-05
2.14468e-07
5.39259e-07
1.25316e-06
2.64768e-06
4.82966e-06
7.44897e-06
1.71309e-07
4.20217e-07
9.43263e-07
1.9177e-06
3.50254e-06
5.82171e-06
1.23725e-07
3.12242e-07
7.46729e-07
1.73264e-06
3.8864e-06
8.07147e-06
1.3962e-07
4.21487e-07
1.23033e-06
3.27348e-06
7.64932e-06
1.52011e-05
4.9233e-07
1.43645e-06
3.74155e-06
8.33506e-06
1.58903e-05
2.59587e-05
4.55175e-05
6.8869e-05
8.642e-05
9.50102e-05
9.1103e-05
4.64757e-05
6.73638e-05
8.31778e-05
9.0594e-05
7.89046e-05
4.44017e-05
6.42858e-05
8.09705e-05
8.88565e-05
7.41972e-05
4.02065e-05
5.86546e-05
7.46534e-05
8.21234e-05
6.90798e-05
3.50697e-05
5.03153e-05
6.40452e-05
7.10334e-05
6.20634e-05
2.90221e-05
4.0387e-05
5.16018e-05
5.85747e-05
5.42055e-05
2.24363e-05
3.08051e-05
3.94989e-05
4.63537e-05
4.76033e-05
1.63877e-05
2.26067e-05
2.90245e-05
3.55749e-05
4.3141e-05
4.88871e-05
1.13136e-05
1.58565e-05
2.07272e-05
2.6947e-05
3.99458e-05
5.17227e-05
7.20468e-06
1.0473e-05
1.4334e-05
2.08576e-05
3.74937e-05
5.5325e-05
4.18509e-06
6.93724e-06
1.15373e-05
2.00359e-05
3.79088e-05
6.28783e-05
8.11985e-05
3.1039e-06
7.69272e-06
1.61852e-05
2.83759e-05
4.61776e-05
7.67938e-05
0.00011748
8.56479e-05
5.0531e-06
1.4426e-05
2.93027e-05
4.68104e-05
6.52681e-05
9.57512e-05
0.000197843
0.000260942
1.01214e-05
2.57761e-05
4.67684e-05
6.78846e-05
8.51856e-05
0.000103253
0.000181024
0.000507015
1.67839e-05
3.68603e-05
5.92752e-05
7.80383e-05
8.90498e-05
9.50957e-05
0.000134598
0.000485801
2.22621e-05
4.31792e-05
6.36064e-05
7.9113e-05
8.39833e-05
7.59343e-05
9.40662e-05
0.000431487
2.46483e-05
4.48841e-05
6.47693e-05
8.09565e-05
8.44581e-05
6.6713e-05
6.69136e-05
0.000211854
2.42443e-05
4.34366e-05
6.35876e-05
8.09515e-05
8.49158e-05
6.33563e-05
5.90721e-05
0.000247847
2.16993e-05
3.89261e-05
5.76872e-05
7.42907e-05
7.69016e-05
5.76061e-05
5.40795e-05
0.000257309
1.80789e-05
3.25351e-05
4.84134e-05
6.26375e-05
6.54075e-05
5.13232e-05
5.11493e-05
0.00021811
1.41637e-05
2.5363e-05
3.78076e-05
4.94159e-05
5.36611e-05
4.67948e-05
5.02993e-05
8.85109e-05
1.01273e-05
1.82947e-05
2.75876e-05
3.70289e-05
4.36097e-05
4.42761e-05
5.22706e-05
8.70193e-05
6.40258e-06
1.20241e-05
1.87686e-05
2.65656e-05
3.53212e-05
4.40214e-05
3.49979e-06
7.13732e-06
1.2188e-05
1.87678e-05
2.96645e-05
4.61141e-05
2.04171e-06
4.96431e-06
1.00474e-05
1.75207e-05
2.99219e-05
5.22393e-05
2.76587e-06
7.73916e-06
1.62512e-05
2.73372e-05
4.13652e-05
6.66491e-05
6.29965e-06
1.61033e-05
3.0668e-05
4.68985e-05
6.31538e-05
8.98158e-05
1.27037e-05
2.82079e-05
4.79078e-05
6.67528e-05
8.16303e-05
2.01231e-05
3.91262e-05
5.92877e-05
7.54278e-05
8.36822e-05
2.58745e-05
4.50215e-05
6.31497e-05
7.6367e-05
7.78648e-05
2.85928e-05
4.67691e-05
6.43954e-05
7.78646e-05
7.60441e-05
2.85473e-05
4.54986e-05
6.3018e-05
7.71969e-05
7.39525e-05
2.60709e-05
4.12536e-05
5.74939e-05
7.131e-05
6.67114e-05
2.21754e-05
3.51712e-05
4.92592e-05
6.16558e-05
5.75592e-05
1.75313e-05
2.81481e-05
3.96104e-05
5.02958e-05
4.9811e-05
1.28092e-05
2.10473e-05
3.00901e-05
3.92959e-05
4.61519e-05
8.61663e-06
1.49032e-05
2.26652e-05
3.24647e-05
4.76674e-05
6.45757e-06
1.26738e-05
2.17134e-05
3.43707e-05
5.56182e-05
8.65482e-06
1.88353e-05
3.25396e-05
4.8158e-05
7.06788e-05
1.668e-05
3.36612e-05
5.32905e-05
7.15262e-05
9.21265e-05
2.90445e-05
5.19705e-05
7.45516e-05
9.25484e-05
0.000108987
4.11618e-05
6.52514e-05
8.51182e-05
9.78806e-05
0.00010457
4.84769e-05
6.91447e-05
8.41483e-05
9.16518e-05
8.74379e-05
4.97629e-05
6.78262e-05
8.1427e-05
8.72472e-05
7.48511e-05
4.79822e-05
6.49314e-05
7.88539e-05
8.50245e-05
6.88476e-05
4.39071e-05
5.92002e-05
7.24088e-05
7.90995e-05
6.43711e-05
3.81592e-05
5.10296e-05
6.26682e-05
6.9965e-05
6.01563e-05
3.17714e-05
4.1783e-05
5.15794e-05
5.99863e-05
5.63763e-05
2.54332e-05
3.29046e-05
4.11053e-05
4.98913e-05
5.45966e-05
1.96449e-05
2.53228e-05
3.19876e-05
4.19854e-05
5.61727e-05
1.43482e-05
1.90005e-05
2.54844e-05
3.86455e-05
6.11407e-05
9.93593e-06
1.54792e-05
2.50046e-05
4.19179e-05
6.94494e-05
9.45403e-06
1.9604e-05
3.46767e-05
5.42616e-05
8.27433e-05
1.49813e-05
3.24471e-05
5.36663e-05
7.49141e-05
0.000100449
2.56305e-05
4.99327e-05
7.48253e-05
9.53763e-05
0.00011427
3.73332e-05
6.39749e-05
8.68217e-05
0.000101455
0.000108941
7.68668e-09
2.51335e-09
9.09561e-10
4.28551e-10
3.7007e-10
3.91401e-10
4.2809e-10
4.521e-10
4.47931e-10
3.91513e-10
2.69361e-10
1.38063e-10
6.26609e-11
1.43025e-10
4.37343e-09
1.12023e-09
2.78354e-10
7.45867e-11
3.13732e-11
2.85227e-11
3.60159e-11
4.5085e-11
5.17007e-11
5.15463e-11
3.96679e-11
2.13952e-11
1.57562e-11
1.36344e-10
6.72572e-09
1.94279e-09
5.27608e-10
1.28782e-10
2.74573e-11
5.91252e-12
2.91306e-12
3.53492e-12
4.61484e-12
5.22583e-12
4.45325e-12
2.72037e-12
9.0837e-12
1.36574e-10
1.09607e-08
3.41588e-09
9.39083e-10
2.22599e-10
4.43544e-11
7.31582e-12
1.0581e-12
2.98586e-13
3.23761e-13
4.12255e-13
3.92434e-13
4.02346e-13
5.733e-12
1.0443e-10
1.49223e-08
4.59508e-09
1.23096e-09
2.81335e-10
5.38739e-11
8.48258e-12
1.06984e-12
1.11943e-13
2.36813e-14
2.51592e-14
2.71375e-14
1.066e-13
3.22246e-12
6.48689e-11
1.87093e-08
5.44142e-09
1.36961e-09
2.94068e-10
5.30614e-11
7.88508e-12
9.41795e-13
8.86359e-14
7.57514e-15
2.01177e-15
1.99322e-15
3.56442e-14
1.54706e-12
3.56001e-11
2.37087e-08
6.35108e-09
1.4721e-09
2.91956e-10
4.88055e-11
6.74474e-12
7.68775e-13
8.30959e-14
1.74309e-14
8.24394e-15
4.46596e-15
1.67111e-14
7.53313e-13
1.89572e-11
3.03839e-08
7.48561e-09
1.59864e-09
2.93093e-10
4.53978e-11
5.99248e-12
8.23212e-13
2.45693e-13
1.52914e-13
9.791e-14
5.66786e-14
3.80101e-14
3.97068e-13
1.01559e-11
3.86406e-08
8.83337e-09
1.74315e-09
2.94897e-10
4.31626e-11
6.77382e-12
2.46481e-12
1.82851e-12
1.43402e-12
1.00567e-12
6.30787e-13
3.92716e-13
4.41356e-13
5.7851e-12
4.81803e-08
1.0393e-08
1.93792e-09
3.12468e-10
5.05214e-11
1.77696e-11
1.50804e-11
1.37715e-11
1.1555e-11
8.70189e-12
5.89572e-12
3.98788e-12
2.68048e-12
4.75682e-12
5.70183e-08
1.1622e-08
2.0758e-09
3.48452e-10
9.98849e-11
8.48233e-11
9.17776e-11
8.94878e-11
7.92434e-11
6.37469e-11
4.66493e-11
3.40864e-11
2.31633e-11
1.76684e-11
6.4187e-08
1.25867e-08
2.27848e-09
5.23038e-10
3.55144e-10
4.19945e-10
4.87124e-10
4.98783e-10
4.66069e-10
3.99718e-10
3.16237e-10
2.46576e-10
1.75199e-10
1.24556e-10
6.83807e-08
1.33536e-08
2.82296e-09
1.28944e-09
1.45644e-09
1.86541e-09
2.24328e-09
2.40173e-09
2.36833e-09
2.16716e-09
1.85374e-09
1.52911e-09
1.13866e-09
8.13605e-10
8.23962e-08
1.79368e-08
5.4364e-09
4.36819e-09
5.62316e-09
7.33522e-09
9.03064e-09
1.00652e-08
1.04874e-08
1.02796e-08
9.47351e-09
8.22713e-09
6.41819e-09
4.67507e-09
6.03779e-10
1.83398e-10
7.26395e-11
4.84788e-11
5.33814e-11
6.38432e-11
7.61783e-11
8.61816e-11
8.98443e-11
8.21599e-11
5.94383e-11
3.14504e-11
1.2963e-11
1.04868e-11
7.16623e-10
1.78731e-10
4.29548e-11
1.07334e-11
4.52305e-12
4.61815e-12
6.35969e-12
8.3992e-12
1.00156e-11
1.03308e-11
8.23139e-12
4.58689e-12
1.99316e-12
7.13553e-12
1.36182e-09
3.69971e-10
9.11412e-11
2.01091e-11
3.92306e-12
8.29629e-13
4.83911e-13
6.45616e-13
8.7376e-13
1.01269e-12
8.80775e-13
5.25095e-13
5.63641e-13
8.1264e-12
2.34328e-09
6.63362e-10
1.651e-10
3.55892e-11
6.51704e-12
1.00596e-12
1.44183e-13
4.97801e-14
6.03611e-14
7.81857e-14
7.46922e-14
5.28638e-14
3.48187e-13
7.56176e-12
3.27467e-09
9.12575e-10
2.20976e-10
4.58909e-11
8.06621e-12
1.18393e-12
1.42482e-13
1.51959e-14
4.14471e-15
4.79736e-15
5.02671e-15
7.9106e-15
2.3389e-13
5.86025e-12
4.0967e-09
1.07578e-09
2.45109e-10
4.79622e-11
7.96816e-12
1.10686e-12
1.26056e-13
1.16679e-14
1.08574e-15
3.92869e-16
3.83716e-16
2.63735e-15
1.36759e-13
3.88689e-12
4.97956e-09
1.20608e-09
2.53635e-10
4.59579e-11
7.09074e-12
9.18369e-13
9.93631e-14
9.96676e-15
1.73522e-15
7.52369e-16
4.22705e-16
1.49388e-15
8.07464e-14
2.45457e-12
6.01167e-09
1.34006e-09
2.59682e-10
4.35483e-11
6.23212e-12
7.67583e-13
9.57515e-14
2.42274e-14
1.36448e-14
8.14348e-15
4.41532e-15
2.92009e-15
4.8289e-14
1.50291e-12
7.09234e-09
1.46256e-09
2.62042e-10
4.06613e-11
5.50932e-12
7.95524e-13
2.6303e-13
1.82812e-13
1.35384e-13
8.79143e-14
5.07713e-14
2.82915e-14
4.40094e-14
9.12131e-13
8.08211e-09
1.56522e-09
2.63614e-10
3.8762e-11
5.87307e-12
2.06442e-12
1.72376e-12
1.49806e-12
1.18436e-12
8.20382e-13
5.06648e-13
3.02549e-13
1.89839e-13
6.11168e-13
8.67082e-09
1.59042e-09
2.56865e-10
3.97739e-11
1.20869e-11
1.10185e-11
1.16597e-11
1.0749e-11
8.92623e-12
6.57557e-12
4.34098e-12
2.79052e-12
1.68609e-12
1.29578e-12
8.66015e-09
1.52754e-09
2.52615e-10
6.05268e-11
5.00331e-11
6.16623e-11
6.94766e-11
6.68699e-11
5.82816e-11
4.55732e-11
3.21828e-11
2.20333e-11
1.38178e-11
8.82218e-12
7.96011e-09
1.41731e-09
2.97529e-10
1.78559e-10
2.35227e-10
3.09247e-10
3.61143e-10
3.61876e-10
3.30914e-10
2.74129e-10
2.07171e-10
1.49911e-10
9.77527e-11
6.23503e-11
8.17848e-09
1.70441e-09
6.38173e-10
7.10149e-10
1.02396e-09
1.3742e-09
1.64839e-09
1.71657e-09
1.64774e-09
1.44729e-09
1.17131e-09
8.89763e-10
6.02932e-10
3.88823e-10
6.1228e-11
1.58657e-11
6.6678e-12
6.01731e-12
7.79287e-12
1.0387e-11
1.34488e-11
1.61915e-11
1.76158e-11
1.66453e-11
1.24015e-11
6.81025e-12
2.78587e-12
1.26391e-12
1.18386e-10
2.8306e-11
6.34634e-12
1.47512e-12
6.4618e-13
7.52024e-13
1.12355e-12
1.56285e-12
1.92784e-12
2.03707e-12
1.65539e-12
9.54034e-13
3.82708e-13
4.0749e-13
2.44715e-10
6.18196e-11
1.40424e-11
2.85831e-12
5.22298e-13
1.13762e-13
8.18689e-14
1.19249e-13
1.66623e-13
1.96447e-13
1.72817e-13
1.04769e-13
5.39752e-14
4.37537e-13
4.33466e-10
1.13063e-10
2.59064e-11
5.17369e-12
8.88703e-13
1.31123e-13
1.93617e-14
8.62073e-15
1.15138e-14
1.5098e-14
1.44681e-14
9.48494e-15
2.03352e-14
4.72561e-13
6.16312e-10
1.57569e-10
3.51187e-11
6.77076e-12
1.1181e-12
1.56384e-13
1.83651e-14
2.12087e-15
8.17594e-16
1.0012e-15
1.03801e-15
9.13475e-16
1.44357e-14
4.34152e-13
7.6271e-10
1.83951e-10
3.86929e-11
7.05025e-12
1.10286e-12
1.46223e-13
1.62206e-14
1.5641e-15
2.31925e-16
1.5062e-16
1.5056e-16
2.65133e-16
1.01957e-14
3.44752e-13
8.86424e-10
1.98121e-10
3.86579e-11
6.54956e-12
9.54515e-13
1.18326e-13
1.24545e-14
1.26383e-15
2.58566e-16
1.52533e-16
1.24313e-16
1.99546e-16
7.39156e-15
2.63864e-13
1.00179e-09
2.06844e-10
3.73568e-11
5.8782e-12
7.9691e-13
9.36965e-14
1.09403e-14
2.43744e-15
1.2775e-15
7.54199e-16
4.27422e-16
3.09086e-16
5.11962e-15
1.82723e-13
1.09209e-09
2.09068e-10
3.50207e-11
5.12014e-12
6.5744e-13
8.88536e-14
2.65443e-14
1.73722e-14
1.22446e-14
7.50678e-15
4.09861e-15
2.1443e-15
4.78476e-15
1.25962e-13
1.13552e-09
2.04169e-10
3.21613e-11
4.45799e-12
6.42246e-13
2.19992e-13
1.78178e-13
1.492e-13
1.11908e-13
7.23309e-14
4.15605e-14
2.24783e-14
1.42003e-14
8.5422e-14
1.09691e-09
1.86676e-10
2.81639e-11
4.16444e-12
1.33401e-12
1.2604e-12
1.29374e-12
1.14511e-12
8.96938e-13
6.11543e-13
3.72131e-13
2.14742e-13
1.17864e-13
1.06886e-13
9.71308e-10
1.59587e-10
2.49391e-11
6.48055e-12
6.19751e-12
7.73254e-12
8.3787e-12
7.70338e-12
6.29162e-12
4.52034e-12
2.91418e-12
1.78169e-12
1.00453e-12
5.90033e-13
7.77433e-10
1.30862e-10
2.88403e-11
2.25398e-11
3.24756e-11
4.27497e-11
4.77973e-11
4.55123e-11
3.87273e-11
2.92756e-11
1.99872e-11
1.28529e-11
7.48741e-12
4.31036e-12
6.99367e-10
1.46344e-10
7.27582e-11
1.02015e-10
1.56697e-10
2.10455e-10
2.41252e-10
2.37307e-10
2.10258e-10
1.67174e-10
1.20845e-10
8.11627e-11
4.87043e-11
2.82589e-11
7.45109e-12
1.72864e-12
6.71234e-13
6.80867e-13
9.9774e-13
1.46678e-12
2.05027e-12
2.6199e-12
2.97447e-12
2.89635e-12
2.21118e-12
1.2597e-12
5.2581e-13
1.9554e-13
1.74272e-11
3.93981e-12
8.2481e-13
1.79291e-13
8.18153e-14
1.0705e-13
1.72052e-13
2.5166e-13
3.21406e-13
3.47794e-13
2.8737e-13
1.70753e-13
7.00813e-14
3.21242e-14
3.73022e-11
8.82101e-12
1.86727e-12
3.54682e-13
6.14043e-14
1.40774e-14
1.23105e-14
1.92457e-14
2.77115e-14
3.32609e-14
2.95623e-14
1.83279e-14
7.83811e-15
2.10707e-14
6.72107e-11
1.62902e-11
3.46984e-12
6.48379e-13
1.05451e-13
1.50471e-14
2.40043e-15
1.40334e-15
1.98752e-15
2.61739e-15
2.52086e-15
1.6758e-15
1.35058e-15
2.42137e-14
9.57368e-11
2.27447e-11
4.72579e-12
8.55514e-13
1.3408e-13
1.80834e-14
2.1564e-15
3.42454e-16
2.13516e-16
2.5136e-16
2.57202e-16
2.12212e-16
7.91889e-16
2.5477e-14
1.15521e-10
2.5968e-11
5.11419e-12
8.78501e-13
1.30804e-13
1.67652e-14
1.89423e-15
2.61932e-16
1.16053e-16
1.08051e-16
1.08337e-16
1.10869e-16
6.58139e-16
2.37624e-14
1.27505e-10
2.66748e-11
4.89791e-12
7.86358e-13
1.096e-13
1.32051e-14
1.43557e-15
2.20417e-16
1.13808e-16
1.03889e-16
1.01897e-16
1.05189e-16
5.74011e-16
2.109e-14
1.34135e-10
2.6025e-11
4.44326e-12
6.65209e-13
8.65904e-14
9.90955e-15
1.17153e-15
2.96107e-16
1.85356e-16
1.4335e-16
1.19809e-16
1.12444e-16
4.94372e-16
1.6823e-14
1.34804e-10
2.43008e-11
3.85974e-12
5.39003e-13
6.65671e-14
8.61066e-15
2.38933e-15
1.49296e-15
1.02588e-15
6.3152e-16
3.65695e-16
2.24438e-16
5.18925e-16
1.33395e-14
1.28298e-10
2.17426e-11
3.25127e-12
4.31658e-13
6.00623e-14
2.0102e-14
1.57413e-14
1.26837e-14
9.0458e-15
5.53983e-15
3.01571e-15
1.54635e-15
1.09032e-15
1.01967e-14
1.11988e-10
1.80043e-11
2.58333e-12
3.72115e-13
1.26464e-13
1.21735e-13
1.20832e-13
1.02504e-13
7.57821e-14
4.83844e-14
2.74385e-14
1.45221e-14
7.45017e-15
9.49394e-15
8.9009e-11
1.38933e-11
2.09882e-12
6.09998e-13
6.50917e-13
8.06972e-13
8.39138e-13
7.35815e-13
5.63754e-13
3.76386e-13
2.24227e-13
1.24731e-13
6.42509e-14
3.61505e-14
6.34069e-11
1.03272e-11
2.50907e-12
2.48378e-12
3.74471e-12
4.84811e-12
5.17465e-12
4.67509e-12
3.70867e-12
2.58669e-12
1.61739e-12
9.40778e-13
4.97634e-13
2.63628e-13
5.15822e-11
1.13277e-11
7.69143e-12
1.25364e-11
1.97801e-11
2.60479e-11
2.83866e-11
2.63394e-11
2.16082e-11
1.57263e-11
1.03007e-11
6.22014e-12
3.36834e-12
1.79033e-12
8.71121e-13
1.84876e-13
6.3117e-14
6.76159e-14
1.10344e-13
1.77736e-13
2.67179e-13
3.61457e-13
4.27903e-13
4.28705e-13
3.33156e-13
1.95234e-13
8.38568e-14
2.95807e-14
2.20468e-12
4.70222e-13
9.25684e-14
1.89913e-14
9.08354e-15
1.31971e-14
2.26357e-14
3.47104e-14
4.58754e-14
5.08152e-14
4.25177e-14
2.58542e-14
1.10097e-14
3.92223e-15
4.82981e-12
1.07413e-12
2.13753e-13
3.82681e-14
6.38739e-15
1.61923e-15
1.67939e-15
2.73806e-15
4.02356e-15
4.90228e-15
4.39879e-15
2.79931e-15
1.24694e-15
1.16213e-15
8.80831e-12
2.00004e-12
3.99698e-13
7.04398e-14
1.09643e-14
1.58593e-15
3.4289e-16
2.73505e-16
3.67859e-16
4.62997e-16
4.49882e-16
3.28669e-16
2.15204e-16
1.20381e-15
1.25142e-11
2.79023e-12
5.45597e-13
9.34669e-14
1.40372e-14
1.8997e-15
3.01193e-16
1.25623e-16
1.15572e-16
1.21806e-16
1.22619e-16
1.15592e-16
1.3194e-16
1.40832e-15
1.46659e-11
3.10549e-12
5.78244e-13
9.4415e-14
1.35178e-14
1.74945e-15
2.72636e-16
1.15392e-16
1.01663e-16
1.01076e-16
1.01186e-16
1.01118e-16
1.27181e-16
1.51698e-15
1.53949e-11
3.04796e-12
5.31724e-13
8.15552e-14
1.0996e-14
1.36159e-15
2.24495e-16
1.10772e-16
1.01039e-16
1.00241e-16
1.00157e-16
1.00381e-16
1.2777e-16
1.54615e-15
1.51051e-11
2.78637e-12
4.54041e-13
6.52351e-14
8.26709e-15
9.94954e-16
1.91407e-16
1.14049e-16
1.05176e-16
1.02457e-16
1.01108e-16
1.00832e-16
1.29e-16
1.42759e-15
1.40323e-11
2.41279e-12
3.67233e-13
4.94353e-14
5.97588e-15
8.10907e-16
2.68761e-16
1.93365e-16
1.57624e-16
1.30514e-16
1.13916e-16
1.06325e-16
1.36457e-16
1.33549e-15
1.22338e-11
1.98221e-12
2.84731e-13
3.65743e-14
4.98606e-15
1.65357e-15
1.26321e-15
9.96247e-16
7.03253e-16
4.44213e-16
2.69984e-16
1.76152e-16
1.68327e-16
1.19584e-15
9.70205e-12
1.49594e-12
2.06714e-13
2.92389e-14
1.03751e-14
9.99409e-15
9.59264e-15
7.81231e-15
5.4956e-15
3.34056e-15
1.81359e-15
9.3344e-16
5.03949e-16
1.00631e-15
6.97386e-12
1.04947e-12
1.55513e-13
5.0433e-14
5.77608e-14
7.03981e-14
7.03291e-14
5.88272e-14
4.24989e-14
2.66167e-14
1.48085e-14
7.64274e-15
3.69479e-15
2.16003e-15
4.4832e-12
7.1722e-13
1.97625e-13
2.34645e-13
3.60345e-13
4.5481e-13
4.63776e-13
3.97535e-13
2.95647e-13
1.91992e-13
1.11088e-13
5.93614e-14
2.90104e-14
1.44033e-14
3.36462e-12
8.05175e-13
7.29414e-13
1.30189e-12
2.06471e-12
2.63969e-12
2.73366e-12
2.39296e-12
1.82955e-12
1.23041e-12
7.39138e-13
4.07637e-13
2.02932e-13
1.00063e-13
9.0055e-14
1.78637e-14
5.38452e-15
5.86727e-15
1.04898e-14
1.83635e-14
2.95416e-14
4.22078e-14
5.2067e-14
5.36802e-14
4.24274e-14
2.53484e-14
1.1215e-14
4.00565e-15
2.38449e-13
4.82088e-14
9.04883e-15
1.82641e-15
9.4644e-16
1.46109e-15
2.59976e-15
4.12941e-15
5.62302e-15
6.37084e-15
5.41033e-15
3.36812e-15
1.52067e-15
5.83971e-16
5.33477e-13
1.12315e-13
2.12364e-14
3.68052e-15
6.65451e-16
2.44507e-16
2.73328e-16
4.07324e-16
5.72458e-16
6.90699e-16
6.33409e-16
4.3755e-16
2.45865e-16
1.69697e-16
9.81266e-13
2.1057e-13
3.99119e-14
6.75817e-15
1.08348e-15
2.30097e-16
1.22692e-16
1.19748e-16
1.32201e-16
1.44486e-16
1.43017e-16
1.2812e-16
1.12927e-16
1.47114e-16
1.38699e-12
2.9295e-13
5.44562e-14
8.96669e-15
1.36871e-15
2.57973e-16
1.17209e-16
1.02321e-16
1.01762e-16
1.02614e-16
1.02736e-16
1.01882e-16
1.02042e-16
1.6362e-16
1.57735e-12
3.1758e-13
5.64478e-14
8.89296e-15
1.30173e-15
2.42286e-16
1.14426e-16
1.01194e-16
1.00077e-16
1.00069e-16
1.00111e-16
1.00118e-16
1.01601e-16
1.82464e-16
1.57813e-12
2.98373e-13
4.99177e-14
7.43216e-15
1.04478e-15
2.05114e-16
1.10026e-16
1.00768e-16
9.9998e-17
9.99646e-17
9.99908e-17
1.00042e-16
1.01908e-16
1.97901e-16
1.45099e-12
2.56819e-13
4.03074e-14
5.66091e-15
7.72257e-16
1.70174e-16
1.06751e-16
1.0083e-16
1.00219e-16
1.00087e-16
1.00047e-16
1.00082e-16
1.02401e-16
2.05428e-16
1.25175e-12
2.0735e-13
3.05417e-14
4.05587e-15
5.52933e-16
1.50595e-16
1.10434e-16
1.05169e-16
1.0299e-16
1.01513e-16
1.00681e-16
1.00367e-16
1.03422e-16
2.15335e-16
1.00572e-12
1.57521e-13
2.19851e-14
2.81467e-15
4.45121e-16
2.01128e-16
1.71427e-16
1.5206e-16
1.32709e-16
1.17236e-16
1.07836e-16
1.03361e-16
1.05431e-16
2.16435e-16
7.31068e-13
1.09314e-13
1.47322e-14
2.10895e-15
8.09202e-16
7.73383e-16
7.24866e-16
5.86055e-16
4.2157e-16
2.80303e-16
1.87063e-16
1.37734e-16
1.18568e-16
1.94789e-16
4.80548e-13
7.04497e-14
1.03568e-14
3.68919e-15
4.37614e-15
5.21107e-15
5.02523e-15
4.04034e-15
2.7966e-15
1.68817e-15
9.21284e-16
4.86743e-16
2.681e-16
2.14522e-16
2.82029e-13
4.47504e-14
1.4006e-14
1.87759e-14
2.89161e-14
3.55111e-14
3.47602e-14
2.84044e-14
1.99763e-14
1.22156e-14
6.63218e-15
3.32673e-15
1.55805e-15
7.80553e-16
1.97691e-13
5.28087e-14
6.02141e-14
1.13124e-13
1.78375e-13
2.20895e-13
2.18426e-13
1.81307e-13
1.3024e-13
8.17783e-14
4.55784e-14
2.32573e-14
1.07877e-14
5.03424e-15
8.1034e-15
1.59006e-15
4.87227e-16
5.16221e-16
9.26917e-16
1.68502e-15
2.8357e-15
4.23137e-15
5.41291e-15
5.73842e-15
4.6284e-15
2.83589e-15
1.32463e-15
5.35198e-16
2.20076e-14
4.31194e-15
8.4501e-16
2.36112e-16
1.66508e-16
2.17315e-16
3.31664e-16
4.93698e-16
6.60803e-16
7.53802e-16
6.61158e-16
4.48505e-16
2.536e-16
1.52539e-16
5.01502e-14
1.01208e-14
1.89807e-15
3.90607e-16
1.44047e-16
1.11708e-16
1.15822e-16
1.29836e-16
1.47708e-16
1.61211e-16
1.55818e-16
1.35426e-16
1.15456e-16
1.05918e-16
9.2888e-14
1.90373e-14
3.51504e-15
6.46203e-16
1.7742e-16
1.098e-16
1.01711e-16
1.01782e-16
1.0315e-16
1.045e-16
1.04387e-16
1.02858e-16
1.01263e-16
1.02123e-16
1.30466e-13
2.63552e-14
4.75749e-15
8.2832e-16
2.00194e-16
1.11953e-16
1.01138e-16
1.0005e-16
1.00053e-16
1.00165e-16
1.00198e-16
1.0013e-16
1.00106e-16
1.02998e-16
1.44133e-13
2.78526e-14
4.82498e-15
8.08543e-16
1.92999e-16
1.10561e-16
1.00918e-16
9.99505e-17
9.98881e-17
9.99093e-17
9.99344e-17
9.99578e-17
1.00066e-16
1.04577e-16
1.3784e-13
2.51307e-14
4.12688e-15
6.70667e-16
1.70373e-16
1.07506e-16
1.00582e-16
9.9926e-17
9.98895e-17
9.99086e-17
9.99335e-17
9.99633e-17
1.00113e-16
1.06308e-16
1.19481e-13
2.05009e-14
3.18806e-15
5.11248e-16
1.47247e-16
1.0472e-16
1.00327e-16
9.99316e-17
9.99113e-17
9.99274e-17
9.99503e-17
9.99815e-17
1.00188e-16
1.07939e-16
9.64051e-14
1.55657e-14
2.3023e-15
3.7486e-16
1.29588e-16
1.03087e-16
1.00462e-16
1.00152e-16
1.00056e-16
1.00007e-16
9.99941e-17
1.00012e-16
1.00314e-16
1.10007e-16
7.1991e-14
1.1052e-14
1.57822e-15
2.74578e-16
1.20502e-16
1.05472e-16
1.03591e-16
1.02482e-16
1.01475e-16
1.00736e-16
1.00322e-16
1.00155e-16
1.00484e-16
1.11209e-16
4.84659e-14
7.15048e-15
1.01549e-15
2.18662e-16
1.4085e-16
1.3773e-16
1.33545e-16
1.24673e-16
1.15249e-16
1.07951e-16
1.03599e-16
1.01517e-16
1.00997e-16
1.09413e-16
2.95033e-14
4.30956e-15
6.98038e-16
3.17967e-16
3.64452e-16
4.0885e-16
3.86906e-16
3.18881e-16
2.40963e-16
1.76807e-16
1.35932e-16
1.15113e-16
1.06145e-16
1.0735e-16
1.60332e-14
2.59823e-15
9.59164e-16
1.34979e-15
2.02247e-15
2.39939e-15
2.26653e-15
1.79033e-15
1.2252e-15
7.44688e-16
4.22259e-16
2.44667e-16
1.58191e-16
1.2559e-16
1.06065e-14
3.23527e-15
4.34439e-15
8.32215e-15
1.29286e-14
1.54847e-14
1.46723e-14
1.16111e-14
7.91435e-15
4.70944e-15
2.4951e-15
1.23083e-15
5.81483e-16
3.0542e-16
7.05181e-16
2.06778e-16
1.24156e-16
1.23828e-16
1.53312e-16
2.13773e-16
3.12392e-16
4.40004e-16
5.5644e-16
5.99077e-16
5.07564e-16
3.48505e-16
2.12186e-16
1.40082e-16
1.80739e-15
4.13452e-16
1.52581e-16
1.08867e-16
1.04124e-16
1.08134e-16
1.17553e-16
1.3182e-16
1.47506e-16
1.57146e-16
1.49726e-16
1.30968e-16
1.13645e-16
1.04578e-16
4.08042e-15
8.61449e-16
2.30449e-16
1.19916e-16
1.02627e-16
1.00505e-16
1.00938e-16
1.02171e-16
1.03794e-16
1.05086e-16
1.04677e-16
1.02902e-16
1.01159e-16
1.00284e-16
7.54664e-15
1.55258e-15
3.50691e-16
1.38264e-16
1.04951e-16
1.00333e-16
9.98191e-17
9.98596e-17
9.99971e-17
1.00135e-16
1.00143e-16
1.00025e-16
9.98992e-17
9.99142e-17
1.04964e-14
2.10615e-15
4.41304e-16
1.51118e-16
1.06545e-16
1.00493e-16
9.97835e-17
9.97277e-17
9.97446e-17
9.97702e-17
9.9789e-17
9.98003e-17
9.98127e-17
9.99668e-17
1.12707e-14
2.16906e-15
4.38363e-16
1.48534e-16
1.05949e-16
1.00409e-16
9.97842e-17
9.97359e-17
9.97469e-17
9.97649e-17
9.97836e-17
9.98041e-17
9.98292e-17
1.00088e-16
1.03386e-14
1.89541e-15
3.77645e-16
1.37473e-16
1.04293e-16
1.00214e-16
9.97794e-17
9.97523e-17
9.97652e-17
9.97836e-17
9.98032e-17
9.98254e-17
9.98558e-17
1.00242e-16
8.50694e-15
1.49074e-15
3.01915e-16
1.25427e-16
1.02676e-16
1.00042e-16
9.97816e-17
9.97724e-17
9.97873e-17
9.98064e-17
9.98272e-17
9.98508e-17
9.98882e-17
1.00429e-16
6.4817e-15
1.09425e-15
2.3499e-16
1.15815e-16
1.01509e-16
9.99476e-17
9.98044e-17
9.98027e-17
9.98155e-17
9.98328e-17
9.98537e-17
9.98783e-17
9.99266e-17
1.00682e-16
4.55917e-15
7.58908e-16
1.83773e-16
1.09238e-16
1.00901e-16
1.00056e-16
9.99646e-17