/*--------------------------------*- C++ -*----------------------------------*\
| =========                 |                                                 |
| \\      /  F ield         | OpenFOAM: The Open Source CFD Toolbox           |
|  \\    /   O peration     | Version:  v2106                                 |
|   \\  /    A nd           | Website:  www.openfoam.com                      |
|    \\/     M anipulation  |                                                 |
\*---------------------------------------------------------------------------*/
FoamFile
{
    version     2.0;
    format      ascii;
    arch        "LSB;label=32;scalar=64";
    class       surfaceScalarField;
    location    "0.00014";
    object      phi;
}
// * * * * * * * * * * * * * * * * * * * * * * * * * * * * * * * * * * * * * //

dimensions      [1 0 -1 0 0 0 0];

internalField   nonuniform List<scalar> 
52765
(
3.08874e-06
6.69683e-07
-6.52607e-07
-5.69152e-07
-3.53891e-06
2.71313e-06
2.98121e-07
-7.82777e-07
2.23673e-06
8.14575e-08
-7.99367e-07
1.73337e-06
-2.09202e-07
-8.53063e-07
1.20693e-06
-4.02579e-07
-8.85187e-07
6.80468e-07
-5.45069e-07
-9.14617e-07
-5.57142e-07
-9.15731e-07
2.65341e-06
7.48551e-07
-6.33023e-07
-3.08382e-06
2.27203e-06
3.11521e-07
-7.397e-07
1.88971e-06
8.48402e-08
-7.97857e-07
1.49314e-06
-2.02914e-07
-8.58662e-07
1.06191e-06
-3.64429e-07
-8.83515e-07
6.23371e-07
-4.9655e-07
-9.04594e-07
-5.2683e-07
-9.05424e-07
2.23315e-06
6.64263e-07
-6.76643e-07
-2.50988e-06
1.92185e-06
2.46781e-07
-7.46819e-07
1.61708e-06
-2.73081e-09
-8.08069e-07
1.28858e-06
-2.71837e-07
-8.56245e-07
9.352e-07
-4.08584e-07
-8.79875e-07
5.76774e-07
-5.26478e-07
-8.98048e-07
-5.52338e-07
-9.0144e-07
1.84395e-06
4.36171e-07
-7.2611e-07
-1.98968e-06
1.61924e-06
8.28304e-08
-7.7369e-07
1.38401e-06
-1.74548e-07
-8.26707e-07
1.10711e-06
-4.02542e-07
-8.61616e-07
8.19777e-07
-5.29054e-07
-8.83574e-07
5.27066e-07
-6.32524e-07
-8.96161e-07
-6.49426e-07
-8.97794e-07
1.5091e-06
8.15404e-08
-7.82525e-07
1.37925e-06
-1.96565e-07
-8.20042e-07
1.20186e-06
-4.19436e-07
-8.5388e-07
9.74382e-07
-5.9346e-07
-8.77676e-07
7.37948e-07
-7.08583e-07
-8.92231e-07
4.89572e-07
-7.90294e-07
-8.97809e-07
-8.05155e-07
-8.96976e-07
1.22497e-06
-3.59241e-07
-8.17022e-07
1.16531e-06
-5.58301e-07
-8.39767e-07
1.03897e-06
-7.17686e-07
-8.59724e-07
8.65169e-07
-8.41849e-07
-8.76105e-07
6.71249e-07
-9.35593e-07
-8.84847e-07
4.60529e-07
-9.93288e-07
-8.87813e-07
-1.00494e-06
-8.87283e-07
1.0113e-06
-8.51406e-07
-8.45695e-07
1.00028e-06
-9.74065e-07
-8.56027e-07
9.18206e-07
-1.06277e-06
-8.70416e-07
7.88817e-07
-1.13583e-06
-8.7762e-07
6.29142e-07
-1.19597e-06
-8.79999e-07
4.45956e-07
-1.22444e-06
-8.80829e-07
-1.22571e-06
-8.77749e-07
8.83631e-07
-8.42984e-07
9.01564e-07
-8.41578e-07
8.57083e-07
-8.52782e-07
7.61771e-07
-8.53546e-07
6.27666e-07
-8.56185e-07
4.6185e-07
-8.57902e-07
-8.55327e-07
2.58738e-06
5.1175e-07
-4.27274e-07
-2.97874e-06
-3.15101e-07
2.26424e-06
2.04954e-07
-2.11134e-07
-4.35522e-07
1.87345e-06
9.84793e-09
5.47917e-08
-4.62367e-07
1.47138e-06
-2.29679e-07
3.0005e-07
-5.17422e-07
1.05077e-06
-3.9154e-07
4.78844e-07
-5.52087e-07
6.27662e-07
-5.03485e-07
5.97364e-07
-5.84135e-07
2.3547e-07
-5.2211e-07
5.93596e-07
-5.90188e-07
-1.26471e-07
-5.29418e-07
5.8519e-07
-5.80959e-07
-4.72799e-07
-4.61875e-07
5.19959e-07
-5.54616e-07
-7.84208e-07
-3.18181e-07
3.58979e-07
-5.03193e-07
-1.04703e-06
-1.76407e-07
1.84309e-07
-4.55553e-07
-1.22642e-06
3.63358e-08
-9.24306e-08
-3.88434e-07
-1.30312e-06
2.19936e-07
-3.60443e-07
-3.46009e-07
4.88498e-07
-6.79542e-07
-1.32157e-06
-2.84286e-07
2.22592e-06
5.50107e-07
-2.5685e-06
-3.13126e-07
1.91299e-06
1.92759e-07
-4.09329e-07
1.59961e-06
-7.74671e-09
-4.70377e-07
1.27634e-06
-2.45062e-07
-5.28288e-07
9.28678e-07
-3.81411e-07
-5.55367e-07
5.77795e-07
-4.86179e-07
-5.77486e-07
2.46613e-07
-5.11069e-07
-5.81063e-07
-6.40542e-08
-5.22324e-07
-5.75937e-07
-3.4767e-07
-4.62156e-07
-5.58055e-07
-5.92985e-07
-3.39561e-07
-5.16496e-07
-7.9277e-07
-2.28622e-07
-4.79777e-07
-9.35176e-07
-5.58279e-08
-4.22017e-07
-1.03122e-06
9.62464e-08
-3.93034e-07
3.44881e-07
-1.10778e-06
-3.39734e-07
1.89595e-06
4.5103e-07
-2.11532e-06
-3.59048e-07
1.64242e-06
1.14816e-07
-4.24491e-07
1.39137e-06
-9.78019e-08
-4.86053e-07
1.11749e-06
-3.14804e-07
-5.31778e-07
8.26213e-07
-4.30359e-07
-5.58173e-07
5.35386e-07
-5.26767e-07
-5.78612e-07
2.53714e-07
-5.46606e-07
-5.84534e-07
-1.31358e-08
-5.6083e-07
-5.80707e-07
-2.43343e-07
-5.20072e-07
-5.66877e-07
-4.36444e-07
-4.17074e-07
-5.32675e-07
-6.00246e-07
-3.25351e-07
-5.05382e-07
-7.20395e-07
-1.80635e-07
-4.54401e-07
-8.05342e-07
-5.08789e-08
-4.27812e-07
1.57806e-07
-8.51016e-07
-3.81969e-07
1.5863e-06
2.37131e-07
-1.7037e-06
-4.06007e-07
1.40172e-06
-4.0481e-08
-4.53524e-07
1.20283e-06
-2.50215e-07
-5.06381e-07
9.70002e-07
-4.30283e-07
-5.41255e-07
7.3091e-07
-5.37749e-07
-5.65391e-07
4.87761e-07
-6.21247e-07
-5.79259e-07
2.53748e-07
-6.35753e-07
-5.82625e-07
2.87515e-08
-6.43229e-07
-5.79822e-07
-1.64974e-07
-6.17844e-07
-5.6976e-07
-3.19385e-07
-5.38949e-07
-5.41343e-07
-4.40947e-07
-4.72432e-07
-5.19794e-07
-5.25604e-07
-3.53463e-07
-4.79321e-07
-5.84013e-07
-2.4066e-07
-4.56993e-07
-7.32684e-08
-6.0462e-07
-4.31963e-07
1.32596e-06
-7.23805e-08
-1.35724e-06
-4.5589e-07
1.21886e-06
-2.83726e-07
-4.92631e-07
1.06658e-06
-4.5898e-07
-5.27929e-07
8.77552e-07
-5.98337e-07
-5.53193e-07
6.79002e-07
-6.92202e-07
-5.72169e-07
4.68392e-07
-7.54617e-07
-5.81407e-07
2.67948e-07
-7.65745e-07
-5.84282e-07
7.67479e-08
-7.66575e-07
-5.80309e-07
-9.28133e-08
-7.47257e-07
-5.71737e-07
-2.29644e-07
-6.87841e-07
-5.48428e-07
-3.39918e-07
-6.42821e-07
-5.30685e-07
-4.11567e-07
-5.53395e-07
-4.98331e-07
-4.43672e-07
-4.70641e-07
-4.76716e-07
-3.52276e-07
-4.27025e-07
-4.64038e-07
1.10169e-06
-4.3083e-07
-1.09319e-06
-4.85066e-07
1.04296e-06
-5.79294e-07
-5.12551e-07
9.29753e-07
-7.03566e-07
-5.36338e-07
7.82451e-07
-8.06171e-07
-5.56015e-07
6.16903e-07
-8.79051e-07
-5.69073e-07
4.37709e-07
-9.21205e-07
-5.75399e-07
2.65938e-07
-9.2986e-07
-5.77832e-07
1.03678e-07
-9.2667e-07
-5.73624e-07
-4.09167e-08
-9.10142e-07
-5.66734e-07
-1.57487e-07
-8.66234e-07
-5.48153e-07
-2.55496e-07
-8.3364e-07
-5.33421e-07
-3.17185e-07
-7.72495e-07
-5.10167e-07
-3.41645e-07
-7.19942e-07
-4.90869e-07
-6.54166e-07
-3.15327e-07
-4.83028e-07
9.47559e-07
-8.27181e-07
-9.07006e-07
-5.07002e-07
9.27233e-07
-9.15894e-07
-5.24118e-07
8.48179e-07
-9.84484e-07
-5.42245e-07
7.33633e-07
-1.0478e-06
-5.56159e-07
5.91862e-07
-1.09125e-06
-5.63993e-07
4.32737e-07
-1.1104e-06
-5.69253e-07
2.73724e-07
-1.11022e-06
-5.70236e-07
1.22231e-07
-1.10247e-06
-5.64894e-07
-1.4951e-08
-1.08679e-06
-5.57538e-07
-1.25143e-07
-1.05735e-06
-5.40734e-07
-2.17467e-07
-1.03669e-06
-5.26828e-07
-2.74604e-07
-1.00295e-06
-5.0734e-07
-2.94595e-07
-9.87226e-07
-4.923e-07
-9.71506e-07
-2.71081e-07
-4.79475e-07
8.52827e-07
-1.23484e-06
-8.00002e-07
-4.99078e-07
8.54412e-07
-1.27073e-06
-5.0791e-07
8.04607e-07
-1.2906e-06
-5.24591e-07
7.12502e-07
-1.30742e-06
-5.3453e-07
5.89879e-07
-1.3181e-06
-5.43212e-07
4.44826e-07
-1.31064e-06
-5.49051e-07
2.932e-07
-1.29588e-06
-5.50753e-07
1.45914e-07
-1.28195e-06
-5.46386e-07
9.24759e-09
-1.26488e-06
-5.40088e-07
-1.01385e-07
-1.25015e-06
-5.2492e-07
-1.95795e-07
-1.24161e-06
-5.10017e-07
-2.49761e-07
-1.2422e-06
-4.90675e-07
-2.6718e-07
-1.26448e-06
-4.74814e-07
-1.29214e-06
-2.47555e-07
-4.58169e-07
8.15317e-07
-1.65469e-06
-7.45292e-07
-4.83973e-07
8.24184e-07
-1.62724e-06
-4.91476e-07
7.90863e-07
-1.60496e-06
-5.06655e-07
7.02754e-07
-1.56568e-06
-5.16024e-07
5.82983e-07
-1.54088e-06
-5.23957e-07
4.41525e-07
-1.50752e-06
-5.28414e-07
2.93878e-07
-1.4786e-06
-5.29903e-07
1.48773e-07
-1.45738e-06
-5.24742e-07
1.11913e-08
-1.43796e-06
-5.18072e-07
-1.01609e-07
-1.43785e-06
-5.01423e-07
-2.00762e-07
-1.43858e-06
-4.84004e-07
-2.59549e-07
-1.47657e-06
-4.6356e-07
-2.88574e-07
-1.53092e-06
-4.44037e-07
-1.60618e-06
-2.73722e-07
-4.26824e-07
8.72066e-07
-2.09008e-06
-7.77339e-07
-4.34562e-07
8.87383e-07
-1.9837e-06
-4.39261e-07
8.46583e-07
-1.90262e-06
-4.58173e-07
7.55259e-07
-1.81121e-06
-4.73999e-07
6.30224e-07
-1.74859e-06
-4.85458e-07
4.81149e-07
-1.68801e-06
-4.93195e-07
3.24031e-07
-1.64366e-06
-4.97661e-07
1.68058e-07
-1.61429e-06
-4.93671e-07
1.77711e-08
-1.59182e-06
-4.8827e-07
-1.1126e-07
-1.60358e-06
-4.70742e-07
-2.25848e-07
-1.61442e-06
-4.52451e-07
-3.03186e-07
-1.68774e-06
-4.30755e-07
-3.56155e-07
-1.76839e-06
-4.04027e-07
-1.89967e-06
-3.59474e-07
-3.82306e-07
9.50891e-07
-2.52446e-06
-8.52138e-07
-3.99026e-07
9.58907e-07
-2.32841e-06
-4.07748e-07
9.05088e-07
-2.18093e-06
-4.14623e-07
8.1125e-07
-2.04489e-06
-4.27728e-07
6.82419e-07
-1.94166e-06
-4.413e-07
5.2536e-07
-1.84864e-06
-4.54822e-07
3.53151e-07
-1.78251e-06
-4.65505e-07
1.78463e-07
-1.74248e-06
-4.65059e-07
7.34775e-09
-1.71613e-06
-4.60335e-07
-1.47992e-07
-1.73482e-06
-4.40893e-07
-2.80012e-07
-1.76383e-06
-4.21165e-07
-3.75063e-07
-1.86955e-06
-3.93856e-07
-4.48873e-07
-1.97138e-06
-3.59101e-07
-2.15495e-06
-4.81022e-07
-3.337e-07
1.10661e-06
-2.93405e-06
-1.01973e-06
-3.41695e-07
1.11808e-06
-2.66364e-06
-3.48553e-07
1.06516e-06
-2.44949e-06
-3.53789e-07
9.59374e-07
-2.25585e-06
-3.72207e-07
8.03897e-07
-2.0993e-06
-3.93644e-07
6.12434e-07
-1.96654e-06
-4.09969e-07
4.0397e-07
-1.87631e-06
-4.24512e-07
1.9414e-07
-1.82419e-06
-4.26322e-07
-1.06364e-08
-1.79365e-06
-4.24161e-07
-1.99854e-07
-1.81729e-06
-4.02687e-07
-3.5461e-07
-1.87562e-06
-3.79288e-07
-4.78709e-07
-2.0093e-06
-3.44804e-07
-5.87627e-07
-2.13059e-06
-3.13414e-07
-2.33807e-06
-6.82782e-07
-2.78917e-07
1.23984e-06
-3.25369e-06
-1.24267e-06
-3.1597e-07
1.25019e-06
-2.98925e-06
-2.99471e-07
1.20757e-06
-2.71763e-06
-2.91165e-07
1.1042e-06
-2.45712e-06
-3.06526e-07
9.33141e-07
-2.2305e-06
-3.36748e-07
7.13412e-07
-2.04745e-06
-3.62208e-07
4.67787e-07
-1.92555e-06
-3.84052e-07
2.18238e-07
-1.85745e-06
-3.8857e-07
-2.96979e-08
-1.81676e-06
-3.91174e-07
-2.60546e-07
-1.84519e-06
-3.75357e-07
-4.45776e-07
-1.94316e-06
-3.51862e-07
-5.99718e-07
-2.10541e-06
-3.12126e-07
-7.33292e-07
-2.25329e-06
-2.85223e-07
-2.43634e-06
-8.99526e-07
-2.30254e-07
1.45219e-06
-3.60834e-06
-1.41163e-06
-2.04974e-07
1.519e-06
-3.35299e-06
-1.82677e-07
1.47508e-06
-2.97197e-06
-2.07523e-07
1.33201e-06
-2.60644e-06
-2.38951e-07
1.10429e-06
-2.29704e-06
-2.85162e-07
8.28517e-07
-2.06516e-06
-3.15144e-07
5.32536e-07
-1.91699e-06
-3.40245e-07
2.33207e-07
-1.83386e-06
-3.47621e-07
-6.34881e-08
-1.78382e-06
-3.52941e-07
-3.40927e-07
-1.81929e-06
-3.3847e-07
-5.80563e-07
-1.94654e-06
-3.0709e-07
-7.84264e-07
-2.13965e-06
-2.5936e-07
-9.46531e-07
-2.33574e-06
-2.3224e-07
-1.17371e-06
-2.45905e-06
-1.85624e-07
-1.49082e-06
-4.34685e-07
-1.54768e-06
-2.64109e-06
-4.63076e-07
-1.63644e-06
-4.03365e-06
-3.96211e-07
-1.67602e-06
-5.66199e-06
-3.76303e-07
-1.60092e-06
-7.46279e-06
-2.48196e-07
-1.36002e-06
-2.00802e-07
-9.66977e-07
-1.20447e-06
1.91513e-06
-1.33485e-06
-2.09948e-07
-2.16699e-06
2.18874e-06
-1.44101e-06
-1.98811e-07
-3.36888e-06
2.48525e-06
-1.51419e-06
-1.02327e-07
-4.81247e-06
2.68848e-06
-1.51187e-06
-2.83086e-08
-6.45745e-06
2.82304e-06
-1.46035e-06
1.29825e-07
2.80051e-06
-1.32607e-06
-8.2408e-06
2.23058e-07
-7.58929e-07
2.2029e-06
-3.09672e-07
-1.45283e-06
2.60209e-06
-3.14234e-07
-2.32295e-06
3.03665e-06
-2.68762e-07
-3.38462e-06
3.36941e-06
-2.31486e-07
-4.55033e-06
3.56251e-06
-1.74971e-07
3.52583e-06
-5.76496e-06
-1.79244e-07
-2.75515e-07
2.22043e-06
-4.29618e-07
-6.9379e-07
2.6699e-06
-4.69501e-07
-1.20734e-06
3.13655e-06
-4.83317e-07
-1.81096e-06
3.47193e-06
-5.09181e-07
-2.42911e-06
3.59955e-06
-5.57692e-07
3.484e-06
-3.0793e-06
-6.38669e-07
1.79042e-07
1.97438e-06
-5.579e-07
4.69454e-08
2.38121e-06
-6.3243e-07
-9.72773e-08
2.78017e-06
-7.12532e-07
-2.73311e-07
3.04416e-06
-8.12141e-07
-4.85994e-07
3.08618e-06
-9.56104e-07
2.78506e-06
-6.34377e-07
-1.12951e-06
5.24984e-07
1.52494e-06
-6.55621e-07
6.20953e-07
1.81907e-06
-7.59747e-07
7.62165e-07
2.08078e-06
-8.80817e-07
9.12617e-07
2.21431e-06
-1.02805e-06
1.06265e-06
2.11298e-06
-1.23133e-06
1.63598e-06
1.24615e-06
-1.50609e-06
7.72077e-07
9.27914e-07
-7.26801e-07
1.03021e-06
1.072e-06
-8.42355e-07
1.34913e-06
1.17559e-06
-9.7979e-07
1.69955e-06
1.15453e-06
-1.14818e-06
2.07034e-06
8.96042e-07
-1.3652e-06
2.94635e-07
2.42317e-06
-1.67615e-06
8.11525e-07
2.90474e-07
-7.47431e-07
1.12783e-06
2.67679e-07
-8.55088e-07
1.52185e-06
1.99921e-07
-9.81104e-07
1.97644e-06
3.86772e-09
-1.13575e-06
2.44901e-06
-3.94351e-07
-1.31056e-06
-1.08391e-06
2.87127e-06
-1.58709e-06
7.84918e-07
-3.05456e-07
-7.25281e-07
1.07148e-06
-4.79855e-07
-8.10388e-07
1.43078e-06
-7.01117e-07
-8.99084e-07
1.84127e-06
-1.05106e-06
-1.00268e-06
2.26072e-06
-1.55732e-06
-1.09804e-06
-2.30768e-06
2.63246e-06
-1.2832e-06
6.53414e-07
-7.97837e-07
-6.65282e-07
8.20752e-07
-1.06255e-06
-7.21479e-07
1.02623e-06
-1.3861e-06
-7.59235e-07
1.2464e-06
-1.83288e-06
-7.99834e-07
1.45926e-06
-2.40174e-06
-7.9808e-07
-3.19056e-06
1.63731e-06
-8.58589e-07
3.68449e-07
-1.12258e-06
-5.60505e-07
3.40063e-07
-1.3933e-06
-5.80979e-07
3.05343e-07
-1.75275e-06
-5.60978e-07
2.47676e-07
-2.23111e-06
-5.30831e-07
1.59873e-07
-2.81366e-06
-4.3225e-07
-3.59945e-06
3.05411e-08
-3.7731e-07
2.4676e-08
-1.22796e-06
-4.43181e-07
-2.48461e-07
-1.41918e-06
-4.34663e-07
-5.7631e-07
-1.75227e-06
-3.67427e-07
-9.74682e-07
-2.1914e-06
-2.76083e-07
-1.45539e-06
-2.71351e-06
-1.06602e-07
-3.42047e-06
-2.02528e-06
4.31256e-08
-4.57445e-07
-1.07891e-06
-3.16022e-07
-9.42738e-07
-1.17762e-06
-2.94169e-07
-1.51859e-06
-1.43512e-06
-2.11063e-07
-2.22299e-06
-1.76442e-06
-8.8413e-08
-3.07716e-06
-2.14981e-06
1.08975e-07
-2.67809e-06
-4.10275e-06
3.25822e-07
-9.07378e-07
-7.06749e-07
-2.288e-07
-1.53657e-06
-7.45817e-07
-2.04454e-07
-2.29647e-06
-8.79551e-07
-1.11985e-07
-3.22595e-06
-1.04452e-06
1.771e-08
-4.33735e-06
-1.25464e-06
1.98912e-07
-1.54724e-06
-5.66563e-06
4.28671e-07
-1.23801e-06
-2.84682e-07
-1.72824e-07
-1.88259e-06
-2.554e-07
-1.5339e-07
-2.72017e-06
-2.05419e-07
-6.94441e-08
-3.74869e-06
-2.00069e-07
3.31969e-08
-4.98192e-06
-2.09561e-07
1.99862e-07
-2.83395e-07
-6.44023e-06
3.985e-07
-1.7209e-06
-1.91401e-08
-1.78042e-07
-2.25239e-06
1.2541e-07
-1.67748e-07
-2.9857e-06
3.62572e-07
-7.80499e-08
-3.91457e-06
5.3102e-07
9.20585e-09
-5.05491e-06
7.16947e-07
1.57314e-07
8.12979e-07
-6.4036e-06
2.8931e-07
-1.44611e-06
1.42449e-07
-2.51245e-07
-1.90356e-06
3.90089e-07
-2.42574e-07
-2.52412e-06
7.67833e-07
-1.76435e-07
-3.34789e-06
1.09383e-06
-1.05681e-07
-4.33986e-06
1.40772e-06
5.72367e-10
1.58361e-06
-5.47888e-06
8.70809e-08
-1.10097e-06
1.67999e-07
-3.37992e-07
-1.43471e-06
4.7362e-07
-3.46104e-07
-1.86637e-06
9.12208e-07
-3.17269e-07
-2.43384e-06
1.32392e-06
-2.85846e-07
-3.06408e-06
1.6391e-06
-2.40278e-07
1.76264e-06
-3.71178e-06
-2.14665e-07
-7.41342e-07
3.06145e-08
-4.34871e-07
-9.30735e-07
3.57389e-07
-4.59478e-07
-1.14931e-06
7.76952e-07
-4.73467e-07
-1.39945e-06
1.1585e-06
-4.86975e-07
-1.62192e-06
1.3832e-06
-5.05031e-07
1.40952e-06
-1.85287e-06
-5.43872e-07
-4.43354e-07
-2.66278e-07
-5.0956e-07
-4.72369e-07
2.97344e-08
-5.55295e-07
-4.7142e-07
3.64152e-07
-6.01947e-07
-4.3753e-07
6.42972e-07
-6.60025e-07
-3.83589e-07
7.59449e-07
-7.4228e-07
6.57094e-07
-3.12005e-07
-8.65053e-07
-2.55219e-07
-6.79011e-07
-5.61293e-07
-1.56374e-07
-4.79713e-07
-6.13068e-07
1.43077e-09
-2.72671e-07
-6.8343e-07
2.07139e-07
-1.2356e-07
-7.74509e-07
4.53866e-07
-1.33717e-07
-8.98465e-07
-3.52256e-07
7.20089e-07
-1.08241e-06
-2.07706e-07
-1.12644e-06
-5.74337e-07
-7.61399e-08
-1.05539e-06
-6.2339e-07
1.30201e-07
-9.90996e-07
-6.96786e-07
4.17969e-07
-1.00083e-06
-7.86547e-07
7.86936e-07
-1.1652e-06
-9.11424e-07
-1.50425e-06
1.19172e-06
-1.09273e-06
-2.17212e-07
-1.54678e-06
-5.51573e-07
-1.1707e-07
-1.60477e-06
-5.84334e-07
5.84199e-08
-1.68295e-06
-6.32895e-07
3.22995e-07
-1.85342e-06
-6.9444e-07
6.71917e-07
-2.15776e-06
-7.76754e-07
-2.62435e-06
1.08545e-06
-9.10911e-07
-3.32221e-07
-1.86671e-06
-4.97624e-07
-3.52755e-07
-2.01496e-06
-5.11946e-07
-3.19913e-07
-2.20312e-06
-5.22676e-07
-2.20993e-07
-2.49632e-06
-5.31936e-07
-4.70261e-08
-2.91337e-06
-5.42626e-07
-3.50468e-06
2.09643e-07
-5.93174e-07
-5.38353e-07
-2.03963e-06
-4.08962e-07
-7.36391e-07
-2.21089e-06
-4.0504e-07
-9.22811e-07
-2.44939e-06
-3.64322e-07
-1.08859e-06
-2.80413e-06
-3.14079e-07
-1.22074e-06
-3.27978e-06
-2.50138e-07
-3.9403e-06
-1.30455e-06
-2.19112e-07
-8.39138e-07
-1.9881e-06
-3.08705e-07
-1.2812e-06
-2.1137e-06
-2.85927e-07
-1.74008e-06
-2.35793e-06
-2.01163e-07
-2.22397e-06
-2.71335e-06
-9.31621e-08
-2.74574e-06
-3.16878e-06
4.98709e-08
-3.80051e-06
-3.298e-06
1.7852e-07
-1.24614e-06
-1.68602e-06
-2.12652e-07
-1.88741e-06
-1.76682e-06
-1.8373e-07
-2.583e-06
-1.97536e-06
-8.89988e-08
-3.37115e-06
-2.25597e-06
3.91781e-08
-4.2772e-06
-2.60487e-06
2.16885e-07
-3.09252e-06
-5.31852e-06
4.0854e-07
-1.62644e-06
-1.17531e-06
-1.46257e-07
-2.4023e-06
-1.23174e-06
-1.174e-07
-3.28633e-06
-1.3417e-06
-1.47012e-08
-4.31562e-06
-1.49503e-06
1.15605e-07
-5.49701e-06
-1.69754e-06
2.861e-07
-1.97766e-06
-6.87204e-06
5.03291e-07
-1.91175e-06
-6.00499e-07
-1.08707e-07
-2.74661e-06
-5.78883e-07
-8.23157e-08
-3.7462e-06
-5.36785e-07
1.54339e-08
-4.91154e-06
-5.52097e-07
1.17503e-07
-6.2476e-06
-5.9028e-07
2.79673e-07
-6.92945e-07
-7.77214e-06
4.70835e-07
-2.9227e-06
-2.89052e-07
-1.07261e-07
-3.52355e-06
-1.50537e-07
-7.97177e-08
-4.29612e-06
4.67923e-08
1.24981e-08
-5.23801e-06
1.70674e-07
9.81635e-08
-6.35266e-06
2.89023e-07
2.42355e-07
3.20883e-07
-7.63728e-06
3.57547e-07
-2.73538e-06
-7.47216e-08
-1.5238e-07
-3.23101e-06
1.39126e-07
-1.29175e-07
-3.86194e-06
4.43184e-07
-6.28151e-08
-4.65721e-06
6.90214e-07
1.48976e-09
-5.58069e-06
8.91305e-07
1.06804e-07
9.75255e-07
-6.59746e-06
1.69767e-07
-2.46229e-06
2.57245e-08
-2.219e-07
-2.83834e-06
2.68757e-07
-2.12608e-07
-3.27143e-06
5.89595e-07
-1.74453e-07
-3.79081e-06
8.67816e-07
-1.39656e-07
-4.34865e-06
1.03204e-06
-9.15474e-08
1.05737e-06
-4.87786e-06
-6.54643e-08
-2.15755e-06
-2.33678e-08
-2.90786e-07
-2.38141e-06
2.03277e-07
-3.00283e-07
-2.60073e-06
4.65871e-07
-2.90941e-07
-2.82027e-06
6.73492e-07
-2.83605e-07
-3.04888e-06
7.48535e-07
-2.91773e-07
6.39015e-07
-3.20785e-06
-3.24461e-07
-1.94033e-06
-1.96037e-07
-3.47168e-07
-2.02179e-06
-4.56022e-08
-3.646e-07
-2.04213e-06
9.06239e-08
-3.74291e-07
-2.00141e-06
1.58742e-07
-4.04713e-07
-1.90595e-06
9.00028e-08
-4.77569e-07
-2.08175e-07
-1.71839e-06
-5.81759e-07
-1.86037e-06
-4.43286e-07
-3.84803e-07
-1.86976e-06
-4.05541e-07
-3.96694e-07
-1.79536e-06
-4.19409e-07
-4.16732e-07
-1.61128e-06
-5.40297e-07
-4.52248e-07
-1.32619e-06
-8.10881e-07
-5.22404e-07
-1.32395e-06
-9.38807e-07
-6.61227e-07
-1.92014e-06
-6.97027e-07
-3.80828e-07
-1.91167e-06
-7.99247e-07
-3.73514e-07
-1.79605e-06
-9.82756e-07
-3.77063e-07
-1.54613e-06
-1.30965e-06
-3.94028e-07
-1.1743e-06
-1.78264e-06
-4.50009e-07
-2.49405e-06
-6.89607e-07
-5.83137e-07
-2.06424e-06
-8.96346e-07
-3.55458e-07
-2.13281e-06
-1.10948e-06
-3.18016e-07
-2.10431e-06
-1.44335e-06
-2.87308e-07
-1.95015e-06
-1.95058e-06
-2.52025e-07
-1.65189e-06
-2.62978e-06
-2.3716e-07
-3.54112e-06
-1.22015e-06
-2.65003e-07
-2.33023e-06
-9.71032e-07
-2.95386e-07
-2.57913e-06
-1.22646e-06
-2.27721e-07
-2.75112e-06
-1.66486e-06
-1.43675e-07
-2.83178e-06
-2.28868e-06
-3.62243e-08
-2.80522e-06
-3.10674e-06
5.19268e-08
-4.14841e-06
-2.68252e-06
1.42667e-07
-2.7275e-06
-8.55387e-07
-2.20645e-07
-3.20462e-06
-1.08434e-06
-1.35254e-07
-3.66868e-06
-1.55324e-06
2.79471e-09
-4.12488e-06
-2.20314e-06
1.82369e-07
-4.54643e-06
-3.0661e-06
3.85792e-07
-4.12283e-06
-4.95028e-06
6.16951e-07
-3.23623e-06
-5.16723e-07
-1.35487e-07
-3.93833e-06
-6.91815e-07
-4.90292e-08
-4.68468e-06
-1.12628e-06
1.2486e-07
-5.51981e-06
-1.69618e-06
3.45642e-07
-6.44787e-06
-2.46254e-06
6.03016e-07
-3.37479e-06
-7.49989e-06
9.3669e-07
-3.76672e-06
7.30155e-09
-1.02498e-07
-4.627e-06
-1.19096e-07
-1.73186e-08
-5.59943e-06
-4.5107e-07
1.62334e-07
-6.74179e-06
-8.5842e-07
3.84019e-07
-8.07519e-06
-1.41762e-06
6.70851e-07
-2.06131e-06
-9.64721e-06
1.06482e-06
-4.18742e-06
6.09137e-07
-9.19484e-08
-5.10476e-06
5.43049e-07
-2.59518e-09
-6.20885e-06
3.91657e-07
1.66032e-07
-7.51224e-06
1.73272e-07
3.48551e-07
-9.05117e-06
-1.36945e-07
6.23093e-07
-5.40074e-07
-1.08403e-05
1.00034e-06
-4.3453e-06
1.15265e-06
-1.04387e-07
-5.22647e-06
1.21374e-06
-5.68262e-08
-6.32606e-06
1.26382e-06
6.41716e-08
-7.61873e-06
1.2128e-06
1.88109e-07
-9.10494e-06
1.09615e-06
4.10024e-07
8.42026e-07
-1.0766e-05
6.39007e-07
-2.57624e-06
-1.33568e-07
-6.52069e-07
-3.36106e-06
-3.60978e-07
-6.12456e-07
-4.27828e-06
-1.04747e-06
-4.73281e-07
-5.39546e-06
-1.91595e-06
-2.88146e-07
-6.70401e-06
-3.02545e-06
-2.50337e-08
-4.2919e-06
3.09276e-07
-3.34713e-06
3.76706e-07
-5.23838e-07
-4.3186e-06
2.63744e-07
-4.94837e-07
-5.48633e-06
-2.37795e-07
-3.53919e-07
-6.94668e-06
-8.1858e-07
-1.62463e-07
-8.67614e-06
-1.62424e-06
1.17225e-07
-2.57377e-06
5.28697e-07
-3.98857e-06
1.01078e-06
-4.4096e-07
-4.99933e-06
9.7857e-07
-4.07877e-07
-6.26791e-06
7.31573e-07
-2.68873e-07
-7.8371e-06
4.37701e-07
-1.2138e-07
-9.70687e-06
-5.0904e-08
1.45213e-07
-6.70804e-07
5.29482e-07
-4.30014e-06
-3.87139e-07
-5.20112e-06
-3.98166e-07
-6.40765e-06
-3.14679e-07
-7.85577e-06
-2.51208e-07
-9.56073e-06
-3.9036e-08
1.84555e-07
-2.28305e-06
1.83112e-06
-1.31716e-07
-3.32976e-06
2.04787e-06
-1.01982e-07
-4.55795e-06
2.25074e-06
2.5825e-09
-5.98192e-06
2.35667e-06
8.5912e-08
-7.5207e-06
2.34291e-06
2.27629e-07
2.12333e-06
-9.137e-06
3.14169e-07
-1.892e-06
2.22077e-06
-2.11367e-07
-2.65731e-06
2.52591e-06
-1.91937e-07
-3.54746e-06
2.8018e-06
-1.46012e-07
-4.55305e-06
2.9633e-06
-1.21331e-07
-5.62734e-06
2.96403e-06
-8.14296e-08
2.69805e-06
-6.70933e-06
-8.86722e-08
-1.44418e-06
2.33119e-06
-3.19215e-07
-1.92096e-06
2.64267e-06
-3.42539e-07
-2.444e-06
2.89824e-06
-3.58181e-07
-3.0008e-06
3.00342e-06
-3.94283e-07
-3.56479e-06
2.92624e-06
-4.56628e-07
2.46654e-06
-4.00139e-06
-5.44037e-07
-1.06189e-06
2.16327e-06
-4.38057e-07
-1.24058e-06
2.38756e-06
-4.95735e-07
-1.40163e-06
2.54157e-06
-5.7046e-07
-1.56292e-06
2.54525e-06
-6.76459e-07
-1.6571e-06
2.29744e-06
-8.30774e-07
1.58916e-06
-1.60645e-06
-1.00402e-06
-8.38503e-07
1.8079e-06
-5.24335e-07
-8.21714e-07
1.88786e-06
-6.06701e-07
-7.3603e-07
1.8793e-06
-7.08832e-07
-5.83225e-07
1.69841e-06
-8.44301e-07
-3.54398e-07
1.23477e-06
-1.03924e-06
2.96201e-07
-7.45683e-09
-1.30119e-06
-7.13726e-07
1.33234e-06
-5.98422e-07
-5.75542e-07
1.23742e-06
-6.84623e-07
-3.33382e-07
1.03761e-06
-7.88008e-07
6.8629e-09
6.49813e-07
-9.22865e-07
4.12661e-07
-5.07994e-09
-1.11459e-06
-1.09506e-06
8.62028e-07
-1.40395e-06
-7.50779e-07
8.27873e-07
-6.15975e-07
-5.97786e-07
5.64015e-07
-6.84562e-07
-3.36893e-07
1.81351e-07
-7.61302e-07
3.62347e-08
-4.05653e-07
-8.57999e-07
4.80793e-07
-1.22922e-06
-9.8347e-07
-2.4214e-06
9.50944e-07
-1.21617e-06
-8.92343e-07
3.6656e-07
-6.0173e-07
-8.1778e-07
-8.61781e-09
-6.30144e-07
-6.6322e-07
-5.30479e-07
-6.49671e-07
-4.22037e-07
-1.26536e-06
-6.76211e-07
-1.19421e-07
-2.21077e-06
-6.99712e-07
-3.46146e-06
2.02682e-07
-8.08029e-07
-1.17541e-06
2.85367e-08
-5.40101e-07
-1.28158e-06
-3.62442e-07
-5.26664e-07
-1.35873e-06
-9.48879e-07
-4.80701e-07
-1.39974e-06
-1.75131e-06
-4.22689e-07
-1.40123e-06
-2.75876e-06
-3.23607e-07
-4.02297e-06
-1.38934e-06
-2.75881e-07
-1.60018e-06
-1.07806e-07
-4.56793e-07
-1.95813e-06
-4.07128e-07
-4.00327e-07
-2.34207e-06
-9.82623e-07
-2.80088e-07
-2.75759e-06
-1.76146e-06
-1.33214e-07
-3.19998e-06
-2.74006e-06
8.399e-08
-3.93599e-06
-3.68636e-06
2.79081e-07
-2.15058e-06
1.47294e-08
-3.27351e-07
-2.75221e-06
-1.48867e-07
-2.56537e-07
-3.4372e-06
-6.50646e-07
-9.37216e-08
-4.25017e-06
-1.30006e-06
1.0626e-07
-5.19866e-06
-2.13184e-06
3.7819e-07
-3.1297e-06
-6.29838e-06
6.80857e-07
-2.76713e-06
3.80933e-07
-2.28465e-07
-3.53827e-06
3.16984e-07
-1.64457e-07
-4.45175e-06
-4.47069e-08
7.17654e-10
-5.57997e-06
-4.71301e-07
2.13459e-07
-6.91905e-06
-1.06447e-06
4.91105e-07
-1.74759e-06
-8.51576e-06
8.65609e-07
-3.31399e-06
8.87558e-07
-1.8322e-07
-4.14014e-06
8.88239e-07
-1.2091e-07
-5.15821e-06
7.20645e-07
3.66337e-08
-6.43138e-06
5.37584e-07
2.1434e-07
-7.96323e-06
2.36537e-07
4.69285e-07
-1.21999e-07
-9.79773e-06
8.50698e-07
-3.62606e-06
-1.59982e-07
-4.39997e-06
-1.32757e-07
-5.42473e-06
-1.96417e-08
-6.65625e-06
8.61461e-08
-8.11774e-06
2.97592e-07
-9.80996e-06
5.50292e-07
-1.16309e-05
4.1151e-06
-1.53094e-06
2.24954e-06
-1.45161e-05
-2.95079e-06
5.25434e-06
4.66418e-06
-1.55972e-05
-1.49005e-05
1.62783e-05
8.49196e-06
-1.32918e-05
-3.24171e-05
3.18978e-05
1.41168e-05
-5.36341e-05
5.06832e-05
2.37691e-05
-7.78933e-06
4.84275e-06
4.70163e-07
-9.22423e-06
-2.71208e-06
1.32492e-06
-9.20545e-06
-1.54104e-05
2.87041e-06
-7.05491e-06
-3.33207e-05
5.82006e-06
-5.41715e-05
1.41607e-05
-3.89545e-06
3.95515e-06
-1.41883e-06
-4.396e-06
-4.07913e-06
-2.05237e-06
-4.10854e-06
-1.70176e-05
-2.53823e-06
-2.64249e-06
-3.4589e-05
-1.84872e-06
-5.46978e-05
4.19544e-06
-6.11523e-07
1.9652e-06
-3.02996e-06
-6.78456e-07
-6.30771e-06
-4.69668e-06
-3.01716e-07
-1.91196e-05
-6.42992e-06
1.28042e-06
-3.62556e-05
-6.03616e-06
-5.65804e-05
-1.08648e-06
1.62492e-06
-5.68146e-07
-3.98303e-06
1.49104e-06
-8.63686e-06
-6.2049e-06
1.46659e-06
-2.08634e-05
-8.20835e-06
2.76515e-06
-3.74238e-05
-7.18472e-06
-5.79328e-05
-1.30498e-06
2.84275e-06
-3.06867e-06
-4.33943e-06
2.50123e-06
-1.05168e-05
-6.53724e-06
1.72406e-06
-2.15867e-05
-8.18212e-06
1.50998e-06
-3.67042e-05
-5.98038e-06
-5.59953e-05
1.91147e-06
3.33257e-06
-5.43656e-06
-4.02334e-06
2.86582e-06
-1.1927e-05
-5.78426e-06
1.42141e-06
-2.12593e-05
-6.74748e-06
-4.54376e-07
-3.41276e-05
-3.25759e-06
-5.20258e-05
5.06818e-06
3.05381e-06
-7.49253e-06
-3.17715e-06
2.64256e-06
-1.30344e-05
-4.27325e-06
1.21e-06
-2.07637e-05
-4.62641e-06
-9.96201e-07
-3.15412e-05
-8.04483e-07
-4.09098e-06
-4.82429e-05
6.4644e-06
-7.05323e-05
1.13447e-05
1.8863e-06
-9.08594e-06
-1.95803e-06
1.50491e-06
-1.3844e-05
-2.21891e-06
6.76155e-08
-2.00834e-05
-1.72997e-06
-2.7698e-06
-2.8534e-05
2.50975e-06
-7.79766e-06
-4.27897e-05
9.95088e-06
-6.41044e-05
1.50228e-05
-1.82106e-07
-9.92228e-06
-5.37309e-07
-7.92488e-07
-1.40777e-05
1.38935e-07
-2.31719e-06
-1.89915e-05
1.61312e-06
-5.40025e-06
-2.55221e-05
6.05055e-06
-1.17649e-05
-3.63744e-05
1.34832e-05
-5.43775e-05
1.95203e-05
-3.14996e-06
-9.55028e-06
8.2208e-07
-4.47286e-06
-1.32492e-05
2.50191e-06
-6.12811e-06
-1.75386e-05
5.16699e-06
-8.66432e-06
-2.32315e-05
9.89558e-06
-1.42382e-05
-3.10479e-05
1.73233e-05
-2.60506e-05
-4.32904e-05
2.56012e-05
-6.27548e-05
2.88491e-05
-6.40839e-06
-7.78485e-06
1.96609e-06
-8.81305e-06
-1.11352e-05
4.47962e-06
-1.0673e-05
-1.57701e-05
8.44161e-06
-1.2185e-05
-2.20627e-05
1.39384e-05
-1.49411e-05
-2.9144e-05
2.15135e-05
-2.17671e-05
-3.77293e-05
3.19718e-05
-4.13429e-05
-4.52903e-05
4.0653e-05
-1.53477e-05
4.57953e-05
-1.94977e-05
-1.39703e-05
-1.74415e-05
-8.98847e-06
-4.89181e-06
2.60154e-06
-1.22857e-05
-8.06204e-06
5.69757e-06
-1.44896e-05
-1.36344e-05
1.02299e-05
-1.5048e-05
-2.13057e-05
1.65646e-05
-1.40066e-05
-3.04003e-05
2.52447e-05
-1.33531e-05
-4.01407e-05
3.56822e-05
-7.13071e-06
-1.18033e-05
4.64402e-05
-2.13383e-06
-5.41442e-06
-1.84437e-06
-1.12303e-05
-1.13188e-05
-1.07676e-05
-1.43494e-05
-9.77172e-06
1.37424e-05
-1.03081e-05
-1.52819e-06
2.73232e-06
-1.40285e-05
-4.71015e-06
5.82339e-06
-1.66586e-05
-1.10843e-05
1.04305e-05
-1.72379e-05
-2.07575e-05
1.71511e-05
-1.36493e-05
-3.45353e-05
2.65901e-05
-1.61215e-06
-5.16302e-05
3.83149e-05
-7.44853e-07
-1.21026e-06
-6.94337e-07
2.18512e-07
-1.47123e-05
1.21917e-05
7.66965e-06
-1.74825e-05
1.65299e-05
1.18021e-05
-3.4478e-06
-9.83448e-06
1.25672e-06
2.166e-06
-1.32797e-05
-1.80978e-06
4.46972e-06
-1.59323e-05
-8.54764e-06
8.26441e-06
-1.62023e-05
-2.03761e-05
1.43296e-05
-1.26804e-05
-3.77317e-05
2.25165e-05
-1.77583e-06
-5.9331e-05
3.46925e-05
-1.86594e-06
-1.18764e-06
-9.98271e-07
1.76481e-05
-3.03514e-07
1.11815e-05
-1.95558e-05
1.54302e-05
1.21328e-05
-1.68223e-05
-2.91083e-07
-7.73021e-06
2.67757e-06
1.13667e-06
-9.98344e-06
-4.67657e-07
2.45876e-06
-1.13979e-05
-7.96384e-06
4.77916e-06
-1.12962e-05
-2.10289e-05
7.93575e-06
-9.10714e-06
-3.94247e-05
1.37204e-05
-1.92661e-06
-6.09919e-05
2.6071e-05
-1.33826e-06
-1.7032e-06
-7.80414e-07
2.07555e-05
-1.77051e-06
-2.12904e-05
1.07533e-05
1.81512e-05
-2.1925e-05
1.31437e-05
1.7851e-06
-4.87752e-06
2.69218e-06
-1.09872e-07
-5.80367e-06
-9.2332e-07
1.05286e-07
-6.14448e-06
-9.26428e-06
6.00826e-07
-5.73608e-06
-2.31797e-05
1.1704e-06
-4.0486e-06
-4.1858e-05
3.62558e-06
-1.85359e-06
-6.20753e-05
1.39668e-05
6.48282e-07
-1.08399e-06
9.41007e-07
2.10663e-05
-2.38347e-06
-2.01991e-05
8.21544e-06
2.54445e-05
-1.28646e-05
-2.0825e-05
1.89206e-05
4.81785e-06
-2.14434e-06
1.53303e-06
-1.33993e-06
-2.14652e-06
-2.68403e-06
-2.13633e-06
-2.03443e-06
-1.14966e-05
-3.11882e-06
-1.25779e-06
-2.59157e-05
-3.88276e-06
1.55094e-06
-4.55228e-05
-2.58637e-06
1.39299e-06
-6.7612e-05
5.08254e-06
3.35768e-06
1.22964e-06
2.62236e-06
2.03446e-05
2.54891e-06
-2.11089e-05
3.33702e-06
2.11575e-05
2.94439e-06
-2.14309e-05
6.84915e-06
-2.63528e-06
5.77547e-08
-3.83407e-07
-2.37588e-06
4.38636e-07
-5.01113e-06
-3.79763e-06
6.15569e-07
-1.38338e-05
-5.64371e-06
1.27981e-06
-2.82002e-05
-6.53688e-06
3.34698e-06
-4.79127e-05
-4.21746e-06
2.03287e-06
-7.0929e-05
4.09334e-06
2.38488e-06
1.26805e-06
1.9885e-06
2.2339e-05
3.20275e-06
-2.35953e-05
2.80678e-06
2.7965e-05
-2.45879e-05
4.41528e-06
-3.97287e-06
1.34334e-06
-2.60254e-06
-2.84375e-06
1.74338e-06
-7.29766e-06
-4.59357e-06
1.56189e-06
-1.5646e-05
-6.57224e-06
1.17714e-06
-2.90316e-05
-6.89985e-06
1.19115e-06
-4.73345e-05
-2.71231e-06
-8.10981e-08
-6.8412e-05
6.9098e-06
-1.11555e-07
-4.3065e-08
1.82469e-07
2.38835e-05
-5.70487e-07
-2.35627e-05
3.73177e-06
2.21108e-05
-2.44048e-05
5.19281e-06
1.51859e-06
1.93942e-06
-4.86554e-06
-2.86e-06
2.2832e-06
-9.31252e-06
-4.54452e-06
1.72987e-06
-1.67221e-05
-6.18947e-06
3.05885e-07
-2.83413e-05
-5.64469e-06