/*--------------------------------*- C++ -*----------------------------------*\
| =========                 |                                                 |
| \\      /  F ield         | OpenFOAM: The Open Source CFD Toolbox           |
|  \\    /   O peration     | Version:  v2106                                 |
|   \\  /    A nd           | Website:  www.openfoam.com                      |
|    \\/     M anipulation  |                                                 |
\*---------------------------------------------------------------------------*/
FoamFile
{
    version     2.0;
    format      ascii;
    arch        "LSB;label=32;scalar=64";
    class       volScalarField;
    location    "0.00015";
    object      alphat;
}
// * * * * * * * * * * * * * * * * * * * * * * * * * * * * * * * * * * * * * //

dimensions      [1 -1 -1 0 0 0 0];

internalField   nonuniform List<scalar> 
17924
(
9.74559e-17
9.74626e-17
9.74719e-17
9.74808e-17
9.7124e-17
9.7126e-17
9.71302e-17
9.71345e-17
9.71388e-17
9.71433e-17
9.71476e-17
9.71399e-17
9.71418e-17
9.71462e-17
9.71501e-17
9.71543e-17
9.71587e-17
9.71631e-17
9.71554e-17
9.71576e-17
9.71622e-17
9.71661e-17
9.71702e-17
9.71745e-17
9.71786e-17
9.71714e-17
9.7174e-17
9.71783e-17
9.7182e-17
9.7186e-17
9.719e-17
9.7194e-17
9.71873e-17
9.71902e-17
9.71941e-17
9.71978e-17
9.72016e-17
9.72055e-17
9.72093e-17
9.72036e-17
9.72066e-17
9.721e-17
9.72136e-17
9.72172e-17
9.72209e-17
9.72244e-17
9.72195e-17
9.72226e-17
9.72257e-17
9.72292e-17
9.72327e-17
9.72362e-17
9.72396e-17
9.72355e-17
9.72388e-17
9.72415e-17
9.72449e-17
9.72482e-17
9.72515e-17
9.72548e-17
9.72514e-17
9.72548e-17
9.72572e-17
9.72605e-17
9.72637e-17
9.7267e-17
9.72701e-17
9.72675e-17
9.72707e-17
9.72729e-17
9.72762e-17
9.72793e-17
9.72825e-17
9.72856e-17
9.72832e-17
9.72865e-17
9.72886e-17
9.72918e-17
9.72949e-17
9.72981e-17
9.73013e-17
9.72991e-17
9.73024e-17
9.73044e-17
9.73074e-17
9.73105e-17
9.73137e-17
9.7317e-17
9.73144e-17
9.73175e-17
9.73197e-17
9.73227e-17
9.73258e-17
9.73291e-17
9.73326e-17
9.73311e-17
9.73333e-17
9.73353e-17
9.7338e-17
9.73413e-17
9.73447e-17
9.73484e-17
9.68155e-17
9.68156e-17
9.68162e-17
9.68171e-17
9.68178e-17
9.68182e-17
9.68185e-17
9.68185e-17
9.68185e-17
9.68185e-17
9.68184e-17
9.68186e-17
9.68188e-17
9.68202e-17
9.68266e-17
9.68258e-17
9.68264e-17
9.68272e-17
9.68278e-17
9.68283e-17
9.68285e-17
9.68285e-17
9.68284e-17
9.68283e-17
9.68281e-17
9.68284e-17
9.68282e-17
9.68298e-17
9.68367e-17
9.68358e-17
9.68366e-17
9.68373e-17
9.68379e-17
9.68382e-17
9.68384e-17
9.68384e-17
9.68381e-17
9.68379e-17
9.68376e-17
9.68377e-17
9.68374e-17
9.68385e-17
9.68472e-17
9.68463e-17
9.68469e-17
9.68475e-17
9.68479e-17
9.68481e-17
9.68482e-17
9.6848e-17
9.68477e-17
9.68474e-17
9.68469e-17
9.68469e-17
9.68466e-17
9.68473e-17
9.68573e-17
9.68568e-17
9.68572e-17
9.68576e-17
9.68579e-17
9.68579e-17
9.68579e-17
9.68576e-17
9.68572e-17
9.68568e-17
9.68563e-17
9.6856e-17
9.68555e-17
9.68558e-17
9.68676e-17
9.68674e-17
9.68676e-17
9.68677e-17
9.68678e-17
9.68678e-17
9.68676e-17
9.68672e-17
9.68668e-17
9.68662e-17
9.68656e-17
9.68651e-17
9.68645e-17
9.68643e-17
9.68779e-17
9.68777e-17
9.68777e-17
9.68777e-17
9.68777e-17
9.68775e-17
9.68772e-17
9.68768e-17
9.68763e-17
9.68757e-17
9.68751e-17
9.68743e-17
9.68736e-17
9.68727e-17
9.68879e-17
9.68879e-17
9.68877e-17
9.68876e-17
9.68874e-17
9.68872e-17
9.68869e-17
9.68864e-17
9.68859e-17
9.68852e-17
9.68845e-17
9.68837e-17
9.68828e-17
9.68815e-17
9.68975e-17
9.68976e-17
9.68973e-17
9.68971e-17
9.6897e-17
9.68967e-17
9.68964e-17
9.68959e-17
9.68955e-17
9.68947e-17
9.68941e-17
9.6893e-17
9.68921e-17
9.68904e-17
9.69067e-17
9.69069e-17
9.69065e-17
9.69064e-17
9.69062e-17
9.6906e-17
9.69058e-17
9.69054e-17
9.6905e-17
9.69043e-17
9.69036e-17
9.69024e-17
9.69015e-17
9.68996e-17
9.69154e-17
9.69157e-17
9.69153e-17
9.69152e-17
9.69152e-17
9.69151e-17
9.6915e-17
9.69147e-17
9.69144e-17
9.69138e-17
9.69131e-17
9.69119e-17
9.69109e-17
9.6909e-17
9.69239e-17
9.69242e-17
9.69238e-17
9.69237e-17
9.69238e-17
9.69238e-17
9.69239e-17
9.69239e-17
9.69238e-17
9.69233e-17
9.69228e-17
9.69216e-17
9.69208e-17
9.69189e-17
9.69321e-17
9.69322e-17
9.6932e-17
9.6932e-17
9.69322e-17
9.69325e-17
9.69328e-17
9.69329e-17
9.6933e-17
9.69327e-17
9.69323e-17
9.69312e-17
9.69305e-17
9.69287e-17
9.69408e-17
9.69403e-17
9.69399e-17
9.694e-17
9.69405e-17
9.69411e-17
9.69417e-17
9.69421e-17
9.69425e-17
9.69425e-17
9.69423e-17
9.69416e-17
9.69411e-17
9.694e-17
9.65149e-17
9.65131e-17
9.65114e-17
9.65098e-17
9.6508e-17
9.6506e-17
9.65039e-17
9.65017e-17
9.64994e-17
9.64971e-17
9.64949e-17
9.64927e-17
9.64904e-17
9.64887e-17
9.65206e-17
9.65184e-17
9.65168e-17
9.6515e-17
9.65133e-17
9.65112e-17
9.65091e-17
9.65068e-17
9.65045e-17
9.65021e-17
9.64998e-17
9.64975e-17
9.64951e-17
9.64934e-17
9.65259e-17
9.65238e-17
9.65221e-17
9.65203e-17
9.65184e-17
9.65163e-17
9.65141e-17
9.65119e-17
9.65096e-17
9.65072e-17
9.65048e-17
9.65026e-17
9.65e-17
9.64983e-17
9.65313e-17
9.65292e-17
9.65275e-17
9.65256e-17
9.65236e-17
9.65215e-17
9.65193e-17
9.65169e-17
9.65146e-17
9.65122e-17
9.65098e-17
9.65075e-17
9.65049e-17
9.6503e-17
9.65365e-17
9.65345e-17
9.65327e-17
9.65308e-17
9.65288e-17
9.65266e-17
9.65244e-17
9.6522e-17
9.65197e-17
9.65173e-17
9.65149e-17
9.65125e-17
9.65098e-17
9.65077e-17
9.65417e-17
9.65397e-17
9.65379e-17
9.6536e-17
9.65339e-17
9.65318e-17
9.65295e-17
9.65271e-17
9.65248e-17
9.65224e-17
9.65199e-17
9.65174e-17
9.65147e-17
9.65123e-17
9.65467e-17
9.65448e-17
9.6543e-17
9.65411e-17
9.6539e-17
9.65369e-17
9.65346e-17
9.65322e-17
9.65299e-17
9.65274e-17
9.65249e-17
9.65223e-17
9.65196e-17
9.65168e-17
9.65514e-17
9.65497e-17
9.65479e-17
9.6546e-17
9.6544e-17
9.65418e-17
9.65396e-17
9.65372e-17
9.65349e-17
9.65324e-17
9.65298e-17
9.65271e-17
9.65243e-17
9.65213e-17
9.65558e-17
9.65541e-17
9.65524e-17
9.65505e-17
9.65486e-17
9.65465e-17
9.65444e-17
9.6542e-17
9.65397e-17
9.65371e-17
9.65346e-17
9.65317e-17
9.65288e-17
9.65256e-17
9.65596e-17
9.65581e-17
9.65565e-17
9.65547e-17
9.65529e-17
9.65509e-17
9.65488e-17
9.65465e-17
9.65442e-17
9.65416e-17
9.6539e-17
9.6536e-17
9.6533e-17
9.65296e-17
9.65631e-17
9.65617e-17
9.65601e-17
9.65585e-17
9.65568e-17
9.65549e-17
9.6553e-17
9.65508e-17
9.65485e-17
9.65459e-17
9.65432e-17
9.65401e-17
9.6537e-17
9.65335e-17
9.65663e-17
9.65649e-17
9.65634e-17
9.65619e-17
9.65603e-17
9.65586e-17
9.65568e-17
9.65547e-17
9.65525e-17
9.65499e-17
9.65472e-17
9.6544e-17
9.65409e-17
9.65371e-17
9.65694e-17
9.65679e-17
9.65666e-17
9.65652e-17
9.65638e-17
9.65622e-17
9.65606e-17
9.65586e-17
9.65564e-17
9.65538e-17
9.65511e-17
9.65477e-17
9.65447e-17
9.65408e-17
9.65725e-17
9.65709e-17
9.65695e-17
9.65683e-17
9.65671e-17
9.65657e-17
9.65642e-17
9.65624e-17
9.65604e-17
9.65579e-17
9.65552e-17
9.65519e-17
9.65488e-17
9.65449e-17
9.62075e-17
9.6204e-17
9.62009e-17
9.61977e-17
9.61948e-17
9.61919e-17
9.61891e-17
9.61863e-17
9.61835e-17
9.61807e-17
9.6178e-17
9.61751e-17
9.61724e-17
9.61694e-17
9.62089e-17
9.62054e-17
9.62024e-17
9.61994e-17
9.61965e-17
9.61935e-17
9.61906e-17
9.61877e-17
9.61849e-17
9.6182e-17
9.61791e-17
9.61762e-17
9.61734e-17
9.61707e-17
9.62103e-17
9.6207e-17
9.62039e-17
9.62009e-17
9.61979e-17
9.6195e-17
9.61921e-17
9.61892e-17
9.61864e-17
9.61836e-17
9.61807e-17
9.61778e-17
9.61749e-17
9.61722e-17
9.62117e-17
9.62085e-17
9.62056e-17
9.62026e-17
9.61996e-17
9.61967e-17
9.61938e-17
9.6191e-17
9.61881e-17
9.61852e-17
9.61824e-17
9.61794e-17
9.61764e-17
9.61737e-17
9.6213e-17
9.62101e-17
9.62072e-17
9.62043e-17
9.62013e-17
9.61984e-17
9.61956e-17
9.61927e-17
9.61899e-17
9.6187e-17
9.61841e-17
9.61811e-17
9.61782e-17
9.61753e-17
9.62143e-17
9.62115e-17
9.62087e-17
9.62059e-17
9.6203e-17
9.62002e-17
9.61974e-17
9.61945e-17
9.61917e-17
9.61888e-17
9.61859e-17
9.61829e-17
9.61799e-17
9.6177e-17
9.62154e-17
9.62127e-17
9.62101e-17
9.62074e-17
9.62046e-17
9.62019e-17
9.61991e-17
9.61962e-17
9.61934e-17
9.61905e-17
9.61876e-17
9.61845e-17
9.61815e-17
9.61786e-17
9.62163e-17
9.62139e-17
9.62113e-17
9.62088e-17
9.62061e-17
9.62034e-17
9.62007e-17
9.61978e-17
9.6195e-17
9.6192e-17
9.61891e-17
9.61861e-17
9.61831e-17
9.618e-17
9.62172e-17
9.62149e-17
9.62125e-17
9.621e-17
9.62074e-17
9.62048e-17
9.62021e-17
9.61992e-17
9.61964e-17
9.61934e-17
9.61905e-17
9.61874e-17
9.61844e-17
9.61813e-17
9.62179e-17
9.62157e-17
9.62134e-17
9.6211e-17
9.62085e-17
9.62059e-17
9.62032e-17
9.62004e-17
9.61976e-17
9.61946e-17
9.61916e-17
9.61885e-17
9.61854e-17
9.61823e-17
9.62185e-17
9.62163e-17
9.62142e-17
9.62118e-17
9.62094e-17
9.62069e-17
9.62043e-17
9.62015e-17
9.61986e-17
9.61956e-17
9.61925e-17
9.61893e-17
9.61862e-17
9.61831e-17
9.62191e-17
9.62169e-17
9.62148e-17
9.62126e-17
9.62103e-17
9.62078e-17
9.62052e-17
9.62024e-17
9.61995e-17
9.61964e-17
9.61933e-17
9.61901e-17
9.61869e-17
9.61837e-17
9.62198e-17
9.62175e-17
9.62155e-17
9.62133e-17
9.62111e-17
9.62087e-17
9.62061e-17
9.62033e-17
9.62004e-17
9.61972e-17
9.6194e-17
9.61906e-17
9.61875e-17
9.61842e-17
9.62203e-17
9.62182e-17
9.62162e-17
9.62141e-17
9.62119e-17
9.62095e-17
9.62069e-17
9.62041e-17
9.62012e-17
9.61981e-17
9.61949e-17
9.61915e-17
9.61883e-17
9.61848e-17
9.58918e-17
9.58875e-17
9.58837e-17
9.58803e-17
9.58774e-17
9.58747e-17
9.58721e-17
9.58697e-17
9.58675e-17
9.58652e-17
9.58632e-17
9.58612e-17
9.58594e-17
9.58574e-17
9.58903e-17
9.58863e-17
9.58828e-17
9.58796e-17
9.58766e-17
9.58737e-17
9.58711e-17
9.58687e-17
9.58663e-17
9.5864e-17
9.58619e-17
9.58598e-17
9.58579e-17
9.58561e-17
9.58889e-17
9.58852e-17
9.58818e-17
9.58785e-17
9.58755e-17
9.58728e-17
9.58702e-17
9.58677e-17
9.58654e-17
9.58631e-17
9.5861e-17
9.58589e-17
9.58571e-17
9.58552e-17
9.58878e-17
9.58843e-17
9.58809e-17
9.58778e-17
9.58748e-17
9.58721e-17
9.58695e-17
9.5867e-17
9.58647e-17
9.58624e-17
9.58603e-17
9.58582e-17
9.58564e-17
9.58545e-17
9.58868e-17
9.58834e-17
9.58801e-17
9.58771e-17
9.58742e-17
9.58715e-17
9.58689e-17
9.58665e-17
9.58642e-17
9.58619e-17
9.58597e-17
9.58577e-17
9.58559e-17
9.5854e-17
9.58859e-17
9.58826e-17
9.58795e-17
9.58765e-17
9.58737e-17
9.5871e-17
9.58685e-17
9.58661e-17
9.58637e-17
9.58615e-17
9.58593e-17
9.58573e-17
9.58555e-17
9.58537e-17
9.5885e-17
9.58819e-17
9.58789e-17
9.5876e-17
9.58732e-17
9.58706e-17
9.58681e-17
9.58657e-17
9.58633e-17
9.58611e-17
9.5859e-17
9.58569e-17
9.58552e-17
9.58535e-17
9.58843e-17
9.58813e-17
9.58784e-17
9.58755e-17
9.58728e-17
9.58702e-17
9.58677e-17
9.58653e-17
9.5863e-17
9.58608e-17
9.58587e-17
9.58567e-17
9.58549e-17
9.58533e-17
9.58838e-17
9.58809e-17
9.5878e-17
9.58752e-17
9.58725e-17
9.58699e-17
9.58675e-17
9.5865e-17
9.58627e-17
9.58605e-17
9.58584e-17
9.58564e-17
9.58547e-17
9.58531e-17
9.58833e-17
9.58805e-17
9.58777e-17
9.58749e-17
9.58723e-17
9.58697e-17
9.58672e-17
9.58648e-17
9.58625e-17
9.58602e-17
9.58581e-17
9.58562e-17
9.58545e-17
9.5853e-17
9.5883e-17
9.58802e-17
9.58775e-17
9.58748e-17
9.58722e-17
9.58696e-17
9.58671e-17
9.58647e-17
9.58623e-17
9.58601e-17
9.5858e-17
9.5856e-17
9.58543e-17
9.58528e-17
9.5883e-17
9.58802e-17
9.58776e-17
9.58749e-17
9.58723e-17
9.58697e-17
9.58672e-17
9.58647e-17
9.58623e-17
9.586e-17
9.58579e-17
9.58559e-17
9.58541e-17
9.58526e-17
9.58833e-17
9.58803e-17
9.58778e-17
9.58752e-17
9.58726e-17
9.587e-17
9.58674e-17
9.58649e-17
9.58624e-17
9.58601e-17
9.58578e-17
9.58557e-17
9.58539e-17
9.58524e-17
9.58838e-17
9.58807e-17
9.58781e-17
9.58754e-17
9.58728e-17
9.58702e-17
9.58677e-17
9.58651e-17
9.58626e-17
9.58601e-17
9.58579e-17
9.58559e-17
9.58541e-17
9.58523e-17
9.55811e-17
9.55769e-17
9.55735e-17
9.55706e-17
9.55681e-17
9.55659e-17
9.55641e-17
9.55624e-17
9.55611e-17
9.55599e-17
9.55591e-17
9.55584e-17
9.5558e-17
9.55577e-17
9.55781e-17
9.55744e-17
9.55712e-17
9.55683e-17
9.55658e-17
9.55635e-17
9.55615e-17
9.55598e-17
9.55585e-17
9.55573e-17
9.55564e-17
9.55558e-17
9.55553e-17
9.55549e-17
9.55756e-17
9.55721e-17
9.55688e-17
9.55659e-17
9.55633e-17
9.5561e-17
9.55591e-17
9.55574e-17
9.5556e-17
9.55549e-17
9.55541e-17
9.55535e-17
9.55532e-17
9.55529e-17
9.55734e-17
9.557e-17
9.55667e-17
9.55638e-17
9.55611e-17
9.55589e-17
9.55569e-17
9.55552e-17
9.55539e-17
9.55528e-17
9.5552e-17
9.55515e-17
9.55514e-17
9.55511e-17
9.55716e-17
9.55682e-17
9.55648e-17
9.55619e-17
9.55592e-17
9.55569e-17
9.5555e-17
9.55533e-17
9.5552e-17
9.55509e-17
9.55502e-17
9.55498e-17
9.55498e-17
9.55496e-17
9.557e-17
9.55665e-17
9.55632e-17
9.55603e-17
9.55576e-17
9.55553e-17
9.55534e-17
9.55517e-17
9.55504e-17
9.55494e-17
9.55487e-17
9.55484e-17
9.55484e-17
9.55484e-17
9.55687e-17
9.55653e-17
9.5562e-17
9.5559e-17
9.55563e-17
9.5554e-17
9.55521e-17
9.55504e-17
9.55492e-17
9.55482e-17
9.55476e-17
9.55473e-17
9.55474e-17
9.55475e-17
9.55677e-17
9.55643e-17
9.55611e-17
9.55581e-17
9.55554e-17
9.55531e-17
9.55512e-17
9.55496e-17
9.55483e-17
9.55473e-17
9.55468e-17
9.55466e-17
9.55467e-17
9.55469e-17
9.55671e-17
9.55637e-17
9.55605e-17
9.55576e-17
9.55549e-17
9.55526e-17
9.55507e-17
9.5549e-17
9.55478e-17
9.55468e-17
9.55463e-17
9.55461e-17
9.55463e-17
9.55466e-17
9.55668e-17
9.55635e-17
9.55603e-17
9.55575e-17
9.55548e-17
9.55525e-17
9.55506e-17
9.55489e-17
9.55476e-17
9.55467e-17
9.55462e-17
9.5546e-17
9.55462e-17
9.55464e-17
9.55668e-17
9.55637e-17
9.55606e-17
9.55577e-17
9.55551e-17
9.55528e-17
9.55509e-17
9.55492e-17
9.55479e-17
9.55469e-17
9.55463e-17
9.55462e-17
9.55463e-17
9.55465e-17
9.55673e-17
9.55641e-17
9.55611e-17
9.55583e-17
9.55557e-17
9.55534e-17
9.55514e-17
9.55497e-17
9.55484e-17
9.55473e-17
9.55467e-17
9.55465e-17
9.55465e-17
9.55468e-17
9.55681e-17
9.55648e-17
9.5562e-17
9.55592e-17
9.55567e-17
9.55544e-17
9.55524e-17
9.55506e-17
9.55492e-17
9.55481e-17
9.55473e-17
9.5547e-17
9.55469e-17
9.55472e-17
9.55694e-17
9.55658e-17
9.55629e-17
9.55601e-17
9.55576e-17
9.55554e-17
9.55533e-17
9.55516e-17
9.55501e-17
9.55489e-17
9.5548e-17
9.55476e-17
9.55476e-17
9.55477e-17
9.52929e-17
9.52897e-17
9.5287e-17
9.52847e-17
9.52828e-17
9.52812e-17
9.528e-17
9.52791e-17
9.52785e-17
9.52782e-17
9.52784e-17
9.52787e-17
9.52794e-17
9.528e-17
9.52902e-17
9.52873e-17
9.52846e-17
9.52822e-17
9.52802e-17
9.52784e-17
9.52771e-17
9.52762e-17
9.52756e-17
9.52754e-17
9.52756e-17
9.5276e-17
9.52766e-17
9.52771e-17
9.52877e-17
9.52849e-17
9.52821e-17
9.52796e-17
9.52775e-17
9.52757e-17
9.52744e-17
9.52734e-17
9.52728e-17
9.52727e-17
9.52729e-17
9.52734e-17
9.52742e-17
9.52749e-17
9.52856e-17
9.52827e-17
9.52798e-17
9.52773e-17
9.52751e-17
9.52733e-17
9.5272e-17
9.5271e-17
9.52704e-17
9.52703e-17
9.52706e-17
9.52712e-17
9.52721e-17
9.52729e-17
9.52838e-17
9.52808e-17
9.52779e-17
9.52753e-17
9.52731e-17
9.52712e-17
9.52698e-17
9.52689e-17
9.52684e-17
9.52683e-17
9.52687e-17
9.52693e-17
9.52704e-17
9.52714e-17
9.52824e-17
9.52793e-17
9.52763e-17
9.52737e-17
9.52714e-17
9.52696e-17
9.52682e-17
9.52672e-17
9.52667e-17
9.52667e-17
9.52672e-17
9.52679e-17
9.52691e-17
9.52703e-17
9.52813e-17
9.52782e-17
9.52752e-17
9.52725e-17
9.52703e-17
9.52684e-17
9.5267e-17
9.52661e-17
9.52656e-17
9.52657e-17
9.52662e-17
9.5267e-17
9.52682e-17
9.52695e-17
9.52806e-17
9.52775e-17
9.52745e-17
9.52718e-17
9.52695e-17
9.52677e-17
9.52663e-17
9.52654e-17
9.52649e-17
9.5265e-17
9.52656e-17
9.52665e-17
9.52677e-17
9.52691e-17
9.52804e-17
9.52773e-17
9.52743e-17
9.52717e-17
9.52694e-17
9.52676e-17
9.52662e-17
9.52653e-17
9.52649e-17
9.5265e-17
9.52655e-17
9.52664e-17
9.52677e-17
9.52691e-17
9.52806e-17
9.52776e-17
9.52747e-17
9.52721e-17
9.52699e-17
9.5268e-17
9.52667e-17
9.52657e-17
9.52653e-17
9.52654e-17
9.52659e-17
9.52668e-17
9.52681e-17
9.52695e-17
9.52812e-17
9.52783e-17
9.52755e-17
9.52729e-17
9.52707e-17
9.52689e-17
9.52675e-17
9.52666e-17
9.52661e-17
9.52661e-17
9.52666e-17
9.52675e-17
9.52688e-17
9.52701e-17
9.52822e-17
9.52794e-17
9.52766e-17
9.52741e-17
9.5272e-17
9.52701e-17
9.52687e-17
9.52678e-17
9.52672e-17
9.52672e-17
9.52677e-17
9.52685e-17
9.52697e-17
9.5271e-17
9.52835e-17
9.52807e-17
9.52782e-17
9.52758e-17
9.52736e-17
9.52718e-17
9.52703e-17
9.52693e-17
9.52687e-17
9.52686e-17
9.5269e-17
9.52697e-17
9.52707e-17
9.5272e-17
9.52854e-17
9.52823e-17
9.52797e-17
9.52773e-17
9.52752e-17
9.52734e-17
9.5272e-17
9.5271e-17
9.52703e-17
9.52701e-17
9.52703e-17
9.52709e-17
9.52719e-17
9.52732e-17
9.50371e-17
9.50352e-17
9.50336e-17
9.50321e-17
9.50308e-17
9.50298e-17
9.5029e-17
9.50285e-17
9.50282e-17
9.50283e-17
9.50286e-17
9.50291e-17
9.50299e-17
9.50306e-17
9.50355e-17
9.50338e-17
9.50321e-17
9.50305e-17
9.50291e-17
9.5028e-17
9.50271e-17
9.50266e-17
9.50264e-17
9.50265e-17
9.50268e-17
9.50274e-17
9.50281e-17
9.50287e-17
9.50339e-17
9.50322e-17
9.50304e-17
9.50288e-17
9.50274e-17
9.50262e-17
9.50254e-17
9.50248e-17
9.50246e-17
9.50247e-17
9.50251e-17
9.50256e-17
9.50265e-17
9.50272e-17
9.50325e-17
9.50308e-17
9.5029e-17
9.50274e-17
9.50259e-17
9.50247e-17
9.50239e-17
9.50233e-17
9.50231e-17
9.50232e-17
9.50236e-17
9.50242e-17
9.50251e-17
9.50258e-17
9.50314e-17
9.50296e-17
9.50278e-17
9.50261e-17
9.50247e-17
9.50235e-17
9.50226e-17
9.50221e-17
9.50219e-17
9.5022e-17
9.50224e-17
9.5023e-17
9.50239e-17
9.50248e-17
9.50306e-17
9.50287e-17
9.50268e-17
9.50252e-17
9.50237e-17
9.50225e-17
9.50217e-17
9.50211e-17
9.50209e-17
9.50211e-17
9.50215e-17
9.50222e-17
9.50231e-17
9.50241e-17
9.503e-17
9.5028e-17
9.50262e-17
9.50246e-17
9.50231e-17
9.50219e-17
9.50211e-17
9.50205e-17
9.50203e-17
9.50205e-17
9.50209e-17
9.50216e-17
9.50226e-17
9.50237e-17
9.50297e-17
9.50277e-17
9.50259e-17
9.50243e-17
9.50228e-17
9.50217e-17
9.50208e-17
9.50203e-17
9.50201e-17
9.50203e-17
9.50207e-17
9.50215e-17
9.50224e-17
9.50236e-17
9.50298e-17
9.50279e-17
9.5026e-17
9.50244e-17
9.50229e-17
9.50218e-17
9.50209e-17
9.50204e-17
9.50203e-17
9.50204e-17
9.50209e-17
9.50216e-17
9.50227e-17
9.50238e-17
9.50302e-17
9.50283e-17
9.50265e-17
9.50248e-17
9.50234e-17
9.50222e-17
9.50214e-17
9.50209e-17
9.50207e-17
9.50209e-17
9.50214e-17
9.50221e-17
9.50232e-17
9.50242e-17
9.50308e-17
9.50291e-17
9.50272e-17
9.50256e-17
9.50242e-17
9.5023e-17
9.50222e-17
9.50217e-17
9.50215e-17
9.50217e-17
9.50222e-17
9.50229e-17
9.50239e-17
9.50249e-17
9.50318e-17
9.50301e-17
9.50282e-17
9.50266e-17
9.50252e-17
9.5024e-17
9.50232e-17
9.50227e-17
9.50225e-17
9.50226e-17
9.50231e-17
9.50239e-17
9.50249e-17
9.50259e-17
9.5033e-17
9.50313e-17
9.50295e-17
9.50279e-17
9.50265e-17
9.50253e-17
9.50244e-17
9.50239e-17
9.50237e-17
9.50239e-17
9.50244e-17
9.50251e-17
9.5026e-17
9.5027e-17
9.50345e-17
9.50325e-17
9.50307e-17
9.50291e-17
9.50277e-17
9.50266e-17
9.50257e-17
9.50252e-17
9.5025e-17
9.50251e-17
9.50255e-17
9.50262e-17
9.50271e-17
9.50282e-17
9.4813e-17
9.48126e-17
9.48121e-17
9.48117e-17
9.48112e-17
9.48108e-17
9.48103e-17
9.481e-17
9.48096e-17
9.48094e-17
9.48092e-17
9.48091e-17
9.48092e-17
9.48092e-17
9.48128e-17
9.48125e-17
9.48119e-17
9.48115e-17
9.4811e-17
9.48105e-17
9.48101e-17
9.48097e-17
9.48094e-17
9.48092e-17
9.4809e-17
9.48089e-17
9.48089e-17
9.48088e-17
9.48124e-17
9.48121e-17
9.48116e-17
9.48112e-17
9.48108e-17
9.48103e-17
9.48099e-17
9.48095e-17
9.48092e-17
9.48089e-17
9.48087e-17
9.48086e-17
9.48085e-17
9.48084e-17
9.48121e-17
9.48118e-17
9.48114e-17
9.4811e-17
9.48106e-17
9.48102e-17
9.48098e-17
9.48094e-17
9.48091e-17
9.48088e-17
9.48085e-17
9.48083e-17
9.48083e-17
9.48081e-17
9.48119e-17
9.48116e-17
9.48112e-17
9.48109e-17
9.48105e-17
9.48101e-17
9.48097e-17
9.48093e-17
9.4809e-17
9.48086e-17
9.48084e-17
9.48082e-17
9.4808e-17
9.48079e-17
9.48118e-17
9.48115e-17
9.48111e-17
9.48108e-17
9.48104e-17
9.481e-17
9.48096e-17
9.48092e-17
9.48089e-17
9.48086e-17
9.48083e-17
9.4808e-17
9.48078e-17
9.48077e-17
9.48118e-17
9.48114e-17
9.48111e-17
9.48107e-17
9.48104e-17
9.481e-17
9.48096e-17
9.48092e-17
9.48089e-17
9.48085e-17
9.48082e-17
9.4808e-17
9.48077e-17
9.48076e-17
9.48118e-17
9.48114e-17
9.48111e-17
9.48107e-17
9.48104e-17
9.481e-17
9.48096e-17
9.48092e-17
9.48088e-17
9.48085e-17
9.48082e-17
9.48079e-17
9.48077e-17
9.48075e-17
9.48119e-17
9.48115e-17
9.48111e-17
9.48107e-17
9.48104e-17
9.481e-17
9.48096e-17
9.48092e-17
9.48088e-17
9.48085e-17
9.48082e-17
9.48079e-17
9.48077e-17
9.48076e-17
9.4812e-17
9.48116e-17
9.48111e-17
9.48108e-17
9.48104e-17
9.481e-17
9.48096e-17
9.48092e-17
9.48089e-17
9.48086e-17
9.48083e-17
9.4808e-17
9.48079e-17
9.48077e-17
9.48121e-17
9.48117e-17
9.48112e-17
9.48108e-17
9.48104e-17
9.481e-17
9.48096e-17
9.48093e-17
9.4809e-17
9.48087e-17
9.48084e-17
9.48082e-17
9.48081e-17
9.48079e-17
9.48124e-17
9.48119e-17
9.48114e-17
9.48109e-17
9.48105e-17
9.481e-17
9.48097e-17
9.48094e-17
9.48091e-17
9.48088e-17
9.48086e-17
9.48085e-17
9.48084e-17
9.48082e-17
9.48127e-17
9.48123e-17
9.48116e-17
9.48111e-17
9.48106e-17
9.48101e-17
9.48097e-17
9.48094e-17
9.48092e-17
9.48091e-17
9.48089e-17
9.48088e-17
9.48089e-17
9.48087e-17
9.48129e-17
9.48123e-17
9.48116e-17
9.48111e-17
9.48106e-17
9.48102e-17
9.48098e-17
9.48096e-17
9.48094e-17
9.48093e-17
9.48092e-17
9.48092e-17
9.48092e-17
9.48092e-17
9.46141e-17
9.46149e-17
9.46155e-17
9.46159e-17
9.46162e-17
9.46163e-17
9.46161e-17
9.46158e-17
9.46153e-17
9.46147e-17
9.46139e-17
9.4613e-17
9.46121e-17
9.46111e-17
9.4615e-17
9.46159e-17
9.46164e-17
9.46169e-17
9.46172e-17
9.46173e-17
9.46172e-17
9.46169e-17
9.46164e-17
9.46157e-17
9.46149e-17
9.4614e-17
9.46131e-17
9.4612e-17
9.46157e-17
9.46166e-17
9.46172e-17
9.46178e-17
9.46182e-17
9.46184e-17
9.46183e-17
9.46179e-17
9.46174e-17
9.46167e-17
9.46159e-17
9.46149e-17
9.46138e-17
9.46127e-17
9.46164e-17
9.46173e-17
9.4618e-17
9.46186e-17
9.4619e-17
9.46192e-17
9.46192e-17
9.46188e-17
9.46183e-17
9.46176e-17
9.46167e-17
9.46156e-17
9.46145e-17
9.46133e-17
9.4617e-17
9.46179e-17
9.46187e-17
9.46193e-17
9.46197e-17
9.46199e-17
9.46199e-17
9.46195e-17
9.4619e-17
9.46183e-17
9.46173e-17
9.46162e-17
9.4615e-17
9.46137e-17
9.46174e-17
9.46183e-17
9.46191e-17
9.46198e-17
9.46202e-17
9.46204e-17
9.46204e-17
9.462e-17
9.46195e-17
9.46187e-17
9.46177e-17
9.46166e-17
9.46153e-17
9.4614e-17
9.46177e-17
9.46186e-17
9.46194e-17
9.46201e-17
9.46205e-17
9.46207e-17
9.46207e-17
9.46203e-17
9.46198e-17
9.4619e-17
9.4618e-17
9.46168e-17
9.46154e-17
9.4614e-17
9.46178e-17
9.46186e-17
9.46195e-17
9.46201e-17
9.46205e-17
9.46207e-17
9.46207e-17
9.46203e-17
9.46198e-17
9.4619e-17
9.46179e-17
9.46167e-17
9.46153e-17
9.46139e-17
9.46176e-17
9.46185e-17
9.46193e-17
9.46199e-17
9.46203e-17
9.46205e-17
9.46204e-17
9.46201e-17
9.46195e-17
9.46187e-17
9.46177e-17
9.46165e-17
9.46151e-17
9.46137e-17
9.46173e-17
9.46181e-17
9.46188e-17
9.46194e-17
9.46198e-17
9.462e-17
9.46199e-17
9.46196e-17
9.46191e-17
9.46183e-17
9.46173e-17
9.46161e-17
9.46147e-17
9.46133e-17
9.46168e-17
9.46175e-17
9.46182e-17
9.46187e-17
9.46191e-17
9.46193e-17
9.46192e-17
9.46189e-17
9.46184e-17
9.46176e-17
9.46167e-17
9.46155e-17
9.46142e-17
9.46128e-17
9.46161e-17
9.46167e-17
9.46173e-17
9.46178e-17
9.46181e-17
9.46183e-17
9.46183e-17
9.4618e-17
9.46175e-17
9.46168e-17
9.46159e-17
9.46148e-17
9.46136e-17
9.46123e-17
9.46152e-17
9.46159e-17
9.46164e-17
9.46168e-17
9.46171e-17
9.46172e-17
9.46172e-17
9.46169e-17
9.46165e-17
9.46159e-17
9.46151e-17
9.46141e-17
9.4613e-17
9.46117e-17
9.46141e-17
9.46147e-17
9.46151e-17
9.46155e-17
9.46158e-17
9.4616e-17
9.4616e-17
9.46158e-17
9.46155e-17
9.46149e-17
9.46142e-17
9.46133e-17
9.46123e-17
9.4611e-17
9.44326e-17
9.4434e-17
9.44352e-17
9.44362e-17
9.44368e-17
9.44372e-17
9.44372e-17
9.44369e-17
9.44363e-17
9.44354e-17
9.44343e-17
9.4433e-17
9.44315e-17
9.44299e-17
9.4434e-17
9.44355e-17
9.44367e-17
9.44377e-17
9.44384e-17
9.44388e-17
9.44389e-17
9.44386e-17
9.4438e-17
9.44371e-17
9.44359e-17
9.44345e-17
9.4433e-17
9.44314e-17
9.44353e-17
9.44367e-17
9.4438e-17
9.44391e-17
9.44399e-17
9.44403e-17
9.44404e-17
9.44401e-17
9.44396e-17
9.44386e-17
9.44374e-17
9.4436e-17
9.44343e-17
9.44326e-17
9.44364e-17
9.44379e-17
9.44392e-17
9.44403e-17
9.44411e-17
9.44416e-17
9.44417e-17
9.44414e-17
9.44408e-17
9.44399e-17
9.44387e-17
9.44372e-17
9.44355e-17
9.44337e-17
9.44372e-17
9.44388e-17
9.44402e-17
9.44413e-17
9.44421e-17
9.44426e-17
9.44427e-17
9.44424e-17
9.44418e-17
9.44409e-17
9.44396e-17
9.44381e-17
9.44363e-17
9.44344e-17
9.44379e-17
9.44394e-17
9.44408e-17
9.44419e-17
9.44427e-17
9.44432e-17
9.44433e-17
9.44431e-17
9.44425e-17
9.44415e-17
9.44402e-17
9.44386e-17
9.44368e-17
9.44348e-17
9.44382e-17
9.44398e-17
9.44412e-17
9.44423e-17
9.44431e-17
9.44436e-17
9.44437e-17
9.44434e-17
9.44428e-17
9.44418e-17
9.44405e-17
9.44389e-17
9.4437e-17
9.4435e-17
9.44383e-17
9.44398e-17
9.44411e-17
9.44422e-17
9.4443e-17
9.44435e-17
9.44436e-17
9.44433e-17
9.44427e-17
9.44417e-17
9.44404e-17
9.44388e-17
9.44368e-17
9.44348e-17
9.44379e-17
9.44394e-17
9.44407e-17
9.44418e-17
9.44425e-17
9.4443e-17
9.44431e-17
9.44429e-17
9.44422e-17
9.44413e-17
9.44399e-17
9.44383e-17
9.44364e-17
9.44343e-17
9.44373e-17
9.44387e-17
9.44399e-17
9.4441e-17
9.44417e-17
9.44422e-17
9.44423e-17
9.44421e-17
9.44414e-17
9.44405e-17
9.44391e-17
9.44375e-17
9.44356e-17
9.44335e-17
9.44363e-17
9.44376e-17
9.44388e-17
9.44398e-17
9.44406e-17
9.4441e-17
9.44412e-17
9.44409e-17
9.44403e-17
9.44394e-17
9.44381e-17
9.44365e-17
9.44346e-17
9.44326e-17
9.4435e-17
9.44362e-17
9.44374e-17
9.44384e-17
9.44391e-17
9.44396e-17
9.44397e-17
9.44395e-17
9.44389e-17
9.4438e-17
9.44367e-17
9.44351e-17
9.44333e-17
9.44314e-17
9.44334e-17
9.44346e-17
9.44357e-17
9.44366e-17
9.44373e-17
9.44378e-17
9.44379e-17
9.44377e-17
9.44372e-17
9.44363e-17
9.44351e-17
9.44336e-17
9.4432e-17
9.443e-17
9.44315e-17
9.44327e-17
9.44337e-17
9.44347e-17
9.44354e-17
9.44358e-17
9.4436e-17
9.44359e-17
9.44354e-17
9.44346e-17
9.44335e-17
9.44321e-17
9.44305e-17
9.44286e-17
9.42616e-17
9.42632e-17
9.42646e-17
9.42657e-17
9.42664e-17
9.42669e-17
9.4267e-17
9.42667e-17
9.42661e-17
9.42653e-17
9.42641e-17
9.42627e-17
9.42611e-17
9.42594e-17
9.42631e-17
9.42647e-17
9.42661e-17
9.42672e-17
9.4268e-17
9.42685e-17
9.42686e-17
9.42684e-17
9.42678e-17
9.42669e-17
9.42658e-17
9.42643e-17
9.42627e-17
9.42609e-17
9.42644e-17
9.4266e-17
9.42675e-17
9.42686e-17
9.42694e-17
9.427e-17
9.42701e-17
9.42699e-17
9.42693e-17
9.42684e-17
9.42672e-17
9.42658e-17
9.42641e-17
9.42622e-17
9.42655e-17
9.42672e-17
9.42686e-17
9.42698e-17
9.42706e-17
9.42711e-17
9.42713e-17
9.42711e-17
9.42705e-17
9.42696e-17
9.42684e-17
9.42669e-17
9.42652e-17
9.42633e-17
9.42664e-17
9.4268e-17
9.42695e-17
9.42706e-17
9.42715e-17
9.4272e-17
9.42722e-17
9.4272e-17
9.42714e-17
9.42705e-17
9.42693e-17
9.42678e-17
9.4266e-17
9.42641e-17
9.4267e-17
9.42686e-17
9.42701e-17
9.42712e-17
9.4272e-17
9.42726e-17
9.42727e-17
9.42725e-17
9.4272e-17
9.42711e-17
9.42698e-17
9.42683e-17
9.42665e-17
9.42645e-17
9.42673e-17
9.42689e-17
9.42703e-17
9.42714e-17
9.42722e-17
9.42727e-17
9.42729e-17
9.42727e-17
9.42722e-17
9.42713e-17
9.427e-17
9.42685e-17
9.42666e-17
9.42646e-17
9.42672e-17
9.42687e-17
9.42701e-17
9.42712e-17
9.4272e-17
9.42726e-17
9.42727e-17
9.42725e-17
9.42719e-17
9.4271e-17
9.42698e-17
9.42682e-17
9.42664e-17
9.42643e-17
9.42667e-17
9.42682e-17
9.42696e-17
9.42707e-17
9.42715e-17
9.4272e-17
9.42722e-17
9.4272e-17
9.42714e-17
9.42705e-17
9.42692e-17
9.42677e-17
9.42658e-17
9.42637e-17
9.42659e-17
9.42674e-17
9.42687e-17
9.42698e-17
9.42706e-17
9.42711e-17
9.42713e-17
9.42711e-17
9.42705e-17
9.42696e-17
9.42684e-17
9.42668e-17
9.42649e-17
9.42628e-17
9.42648e-17
9.42662e-17
9.42675e-17
9.42685e-17
9.42694e-17
9.42699e-17
9.427e-17
9.42698e-17
9.42693e-17
9.42684e-17
9.42671e-17
9.42656e-17
9.42637e-17
9.42617e-17
9.42633e-17
9.42646e-17
9.42659e-17
9.4267e-17
9.42678e-17
9.42683e-17
9.42685e-17
9.42683e-17
9.42678e-17
9.42669e-17
9.42656e-17
9.42641e-17
9.42622e-17
9.42602e-17
9.42615e-17
9.42628e-17
9.4264e-17
9.42651e-17
9.42659e-17
9.42664e-17
9.42666e-17
9.42665e-17
9.4266e-17
9.42651e-17
9.42639e-17
9.42624e-17
9.42606e-17
9.42586e-17
9.42594e-17
9.42607e-17
9.42619e-17
9.4263e-17
9.42638e-17
9.42643e-17
9.42646e-17
9.42645e-17
9.4264e-17
9.42632e-17
9.42621e-17
9.42606e-17
9.42588e-17
9.42569e-17
9.40973e-17
9.40988e-17
9.41e-17
9.4101e-17
9.41017e-17
9.41021e-17
9.41023e-17
9.41021e-17
9.41016e-17
9.41009e-17
9.40999e-17
9.40986e-17
9.40972e-17
9.40955e-17
9.40986e-17
9.41e-17
9.41013e-17
9.41023e-17
9.4103e-17
9.41034e-17
9.41036e-17
9.41034e-17
9.4103e-17
9.41022e-17
9.41012e-17
9.40999e-17
9.40985e-17
9.40968e-17
9.40997e-17
9.41012e-17
9.41024e-17
9.41034e-17
9.41041e-17
9.41046e-17
9.41047e-17
9.41046e-17
9.41041e-17
9.41034e-17
9.41024e-17
9.41011e-17
9.40997e-17
9.4098e-17
9.41007e-17
9.41021e-17
9.41033e-17
9.41043e-17
9.4105e-17
9.41054e-17
9.41056e-17
9.41054e-17
9.4105e-17
9.41043e-17
9.41033e-17
9.41021e-17
9.41006e-17
9.40989e-17
9.41013e-17
9.41027e-17
9.41039e-17
9.41049e-17
9.41056e-17
9.4106e-17
9.41062e-17
9.4106e-17
9.41056e-17
9.41049e-17
9.41039e-17
9.41027e-17
9.41012e-17
9.40995e-17
9.41017e-17
9.41031e-17
9.41043e-17
9.41053e-17
9.41059e-17
9.41064e-17
9.41065e-17
9.41064e-17
9.41059e-17
9.41053e-17
9.41043e-17
9.41031e-17
9.41016e-17
9.40999e-17
9.41019e-17
9.41032e-17
9.41044e-17
9.41053e-17
9.4106e-17
9.41064e-17
9.41066e-17
9.41064e-17
9.4106e-17
9.41053e-17
9.41043e-17
9.41031e-17
9.41016e-17
9.40999e-17
9.41017e-17
9.4103e-17
9.41042e-17
9.41051e-17
9.41057e-17
9.41062e-17
9.41063e-17
9.41061e-17
9.41057e-17
9.4105e-17
9.41041e-17
9.41028e-17
9.41013e-17
9.40996e-17
9.41012e-17
9.41025e-17
9.41036e-17
9.41045e-17
9.41052e-17
9.41056e-17
9.41058e-17
9.41056e-17
9.41052e-17
9.41045e-17
9.41035e-17
9.41023e-17
9.41008e-17
9.40991e-17
9.41004e-17
9.41017e-17
9.41028e-17
9.41037e-17
9.41044e-17
9.41048e-17
9.4105e-17
9.41048e-17
9.41044e-17
9.41037e-17
9.41027e-17
9.41015e-17
9.40999e-17
9.40982e-17
9.40994e-17
9.41006e-17
9.41017e-17
9.41026e-17
9.41033e-17
9.41037e-17
9.41039e-17
9.41038e-17
9.41033e-17
9.41026e-17
9.41016e-17
9.41004e-17
9.40988e-17
9.40972e-17
9.4098e-17
9.40992e-17
9.41003e-17
9.41013e-17
9.4102e-17
9.41024e-17
9.41026e-17
9.41024e-17
9.4102e-17
9.41013e-17
9.41003e-17
9.4099e-17
9.40975e-17
9.40958e-17
9.40964e-17
9.40976e-17
9.40987e-17
9.40996e-17
9.41003e-17
9.41008e-17
9.4101e-17
9.41009e-17
9.41005e-17
9.40998e-17
9.40988e-17
9.40975e-17
9.4096e-17
9.40943e-17
9.40945e-17
9.40957e-17
9.40968e-17
9.40978e-17
9.40985e-17