/*--------------------------------*- C++ -*----------------------------------*\
| =========                 |                                                 |
| \\      /  F ield         | OpenFOAM: The Open Source CFD Toolbox           |
|  \\    /   O peration     | Version:  v2106                                 |
|   \\  /    A nd           | Website:  www.openfoam.com                      |
|    \\/     M anipulation  |                                                 |
\*---------------------------------------------------------------------------*/
FoamFile
{
    version     2.0;
    format      ascii;
    arch        "LSB;label=32;scalar=64";
    class       volScalarField;
    location    "0.000185";
    object      alphat;
}
// * * * * * * * * * * * * * * * * * * * * * * * * * * * * * * * * * * * * * //

dimensions      [1 -1 -1 0 0 0 0];

internalField   nonuniform List<scalar> 
17920
(
9.43658e-17
9.43673e-17
9.4372e-17
9.43733e-17
9.43779e-17
9.43793e-17
9.43841e-17
9.43853e-17
9.43902e-17
9.43913e-17
9.43962e-17
9.43971e-17
9.4402e-17
9.44029e-17
9.44076e-17
9.44084e-17
9.4413e-17
9.44137e-17
9.44182e-17
9.44187e-17
9.44231e-17
9.44234e-17
9.44277e-17
9.44279e-17
9.44319e-17
9.44322e-17
9.4436e-17
9.44364e-17
9.4048e-17
9.40484e-17
9.40492e-17
9.40499e-17
9.40506e-17
9.4051e-17
9.40513e-17
9.40514e-17
9.40513e-17
9.4051e-17
9.40503e-17
9.40495e-17
9.40483e-17
9.40476e-17
9.4052e-17
9.40525e-17
9.40533e-17
9.4054e-17
9.40547e-17
9.40551e-17
9.40554e-17
9.40554e-17
9.40552e-17
9.40548e-17
9.40541e-17
9.40532e-17
9.4052e-17
9.40512e-17
9.40558e-17
9.40563e-17
9.40572e-17
9.4058e-17
9.40587e-17
9.40591e-17
9.40593e-17
9.40594e-17
9.40592e-17
9.40587e-17
9.40579e-17
9.40569e-17
9.40557e-17
9.40548e-17
9.40594e-17
9.40601e-17
9.40611e-17
9.40619e-17
9.40626e-17
9.4063e-17
9.40632e-17
9.40632e-17
9.4063e-17
9.40625e-17
9.40617e-17
9.40607e-17
9.40595e-17
9.40584e-17
9.40628e-17
9.40637e-17
9.40648e-17
9.40656e-17
9.40663e-17
9.40668e-17
9.4067e-17
9.4067e-17
9.40667e-17
9.40662e-17
9.40654e-17
9.40644e-17
9.40631e-17
9.40619e-17
9.40661e-17
9.40672e-17
9.40683e-17
9.40692e-17
9.40699e-17
9.40704e-17
9.40706e-17
9.40705e-17
9.40703e-17
9.40697e-17
9.40689e-17
9.40679e-17
9.40667e-17
9.40654e-17
9.40693e-17
9.40705e-17
9.40716e-17
9.40726e-17
9.40733e-17
9.40738e-17
9.40739e-17
9.40739e-17
9.40736e-17
9.40731e-17
9.40723e-17
9.40713e-17
9.407e-17
9.40687e-17
9.40723e-17
9.40736e-17
9.40747e-17
9.40757e-17
9.40765e-17
9.40769e-17
9.40771e-17
9.4077e-17
9.40767e-17
9.40762e-17
9.40754e-17
9.40744e-17
9.40732e-17
9.40719e-17
9.40751e-17
9.40765e-17
9.40777e-17
9.40787e-17
9.40794e-17
9.40798e-17
9.408e-17
9.40799e-17
9.40796e-17
9.4079e-17
9.40783e-17
9.40773e-17
9.40762e-17
9.40748e-17
9.40778e-17
9.40793e-17
9.40804e-17
9.40814e-17
9.40821e-17
9.40825e-17
9.40826e-17
9.40825e-17
9.40822e-17
9.40816e-17
9.40809e-17
9.40799e-17
9.40789e-17
9.40776e-17
9.40804e-17
9.4082e-17
9.4083e-17
9.40839e-17
9.40846e-17
9.40849e-17
9.4085e-17
9.40849e-17
9.40846e-17
9.4084e-17
9.40833e-17
9.40823e-17
9.40814e-17
9.408e-17
9.40829e-17
9.40845e-17
9.40854e-17
9.40863e-17
9.40868e-17
9.40871e-17
9.40871e-17
9.4087e-17
9.40866e-17
9.4086e-17
9.40853e-17
9.40844e-17
9.40836e-17
9.40823e-17
9.40854e-17
9.40868e-17
9.40877e-17
9.40885e-17
9.40889e-17
9.40891e-17
9.40891e-17
9.40888e-17
9.40884e-17
9.40878e-17
9.40871e-17
9.40863e-17
9.40854e-17
9.40842e-17
9.40879e-17
9.40891e-17
9.40898e-17
9.40904e-17
9.40907e-17
9.40908e-17
9.40907e-17
9.40905e-17
9.409e-17
9.40893e-17
9.40886e-17
9.40878e-17
9.40871e-17
9.4086e-17
9.37694e-17
9.37695e-17
9.37696e-17
9.37696e-17
9.37694e-17
9.37691e-17
9.37686e-17
9.37679e-17
9.3767e-17
9.37658e-17
9.37645e-17
9.37629e-17
9.37612e-17
9.37593e-17
9.37718e-17
9.37719e-17
9.3772e-17
9.37719e-17
9.37718e-17
9.37714e-17
9.37708e-17
9.377e-17
9.3769e-17
9.37678e-17
9.37663e-17
9.37646e-17
9.37628e-17
9.37608e-17
9.37737e-17
9.37739e-17
9.3774e-17
9.3774e-17
9.37739e-17
9.37735e-17
9.37729e-17
9.37721e-17
9.3771e-17
9.37697e-17
9.37682e-17
9.37664e-17
9.37645e-17
9.37624e-17
9.37756e-17
9.37758e-17
9.3776e-17
9.3776e-17
9.37758e-17
9.37754e-17
9.37748e-17
9.3774e-17
9.37729e-17
9.37715e-17
9.37699e-17
9.37681e-17
9.37661e-17
9.37639e-17
9.37771e-17
9.37774e-17
9.37777e-17
9.37777e-17
9.37776e-17
9.37772e-17
9.37765e-17
9.37756e-17
9.37745e-17
9.37731e-17
9.37715e-17
9.37697e-17
9.37676e-17
9.37654e-17
9.37785e-17
9.37789e-17
9.37792e-17
9.37793e-17
9.37791e-17
9.37787e-17
9.3778e-17
9.37771e-17
9.3776e-17
9.37746e-17
9.37729e-17
9.37711e-17
9.3769e-17
9.37667e-17
9.37798e-17
9.37802e-17
9.37805e-17
9.37806e-17
9.37804e-17
9.378e-17
9.37793e-17
9.37784e-17
9.37772e-17
9.37758e-17
9.37742e-17
9.37723e-17
9.37702e-17
9.37679e-17
9.37808e-17
9.37813e-17
9.37816e-17
9.37816e-17
9.37815e-17
9.3781e-17
9.37803e-17
9.37794e-17
9.37782e-17
9.37768e-17
9.37752e-17
9.37733e-17
9.37712e-17
9.3769e-17
9.37816e-17
9.37821e-17
9.37824e-17
9.37825e-17
9.37822e-17
9.37818e-17
9.37811e-17
9.37802e-17
9.3779e-17
9.37776e-17
9.37759e-17
9.37741e-17
9.37721e-17
9.37698e-17
9.37822e-17
9.37827e-17
9.3783e-17
9.3783e-17
9.37828e-17
9.37823e-17
9.37816e-17
9.37806e-17
9.37794e-17
9.3778e-17
9.37764e-17
9.37746e-17
9.37727e-17
9.37705e-17
9.37826e-17
9.37831e-17
9.37833e-17
9.37833e-17
9.3783e-17
9.37825e-17
9.37818e-17
9.37808e-17
9.37797e-17
9.37783e-17
9.37767e-17
9.37749e-17
9.37731e-17
9.37709e-17
9.37828e-17
9.37833e-17
9.37834e-17
9.37834e-17
9.3783e-17
9.37825e-17
9.37818e-17
9.37808e-17
9.37796e-17
9.37783e-17
9.37767e-17
9.3775e-17
9.37732e-17
9.37711e-17
9.3783e-17
9.37834e-17
9.37835e-17
9.37833e-17
9.37829e-17
9.37823e-17
9.37815e-17
9.37805e-17
9.37794e-17
9.3778e-17
9.37766e-17
9.37749e-17
9.37732e-17
9.37712e-17
9.37828e-17
9.37831e-17
9.3783e-17
9.37828e-17
9.37824e-17
9.37818e-17
9.3781e-17
9.378e-17
9.37789e-17
9.37776e-17
9.37762e-17
9.37747e-17
9.37731e-17
9.37711e-17
9.35072e-17
9.35074e-17
9.35074e-17
9.35072e-17
9.35069e-17
9.35064e-17
9.35058e-17
9.35049e-17
9.35039e-17
9.35027e-17
9.35013e-17
9.34997e-17
9.3498e-17
9.34958e-17
9.35084e-17
9.35086e-17
9.35086e-17
9.35085e-17
9.35081e-17
9.35076e-17
9.35069e-17
9.3506e-17
9.35049e-17
9.35036e-17
9.35021e-17
9.35004e-17
9.34985e-17
9.34962e-17
9.35092e-17
9.35094e-17
9.35095e-17
9.35094e-17
9.3509e-17
9.35085e-17
9.35078e-17
9.35069e-17
9.35057e-17
9.35044e-17
9.35028e-17
9.3501e-17
9.34991e-17
9.34968e-17
9.35099e-17
9.35101e-17
9.35102e-17
9.35101e-17
9.35097e-17
9.35092e-17
9.35085e-17
9.35075e-17
9.35063e-17
9.3505e-17
9.35034e-17
9.35015e-17
9.34995e-17
9.34972e-17
9.35103e-17
9.35106e-17
9.35107e-17
9.35106e-17
9.35103e-17
9.35097e-17
9.35089e-17
9.3508e-17
9.35068e-17
9.35054e-17
9.35037e-17
9.35019e-17
9.34998e-17
9.34975e-17
9.35106e-17
9.35109e-17
9.3511e-17
9.35109e-17
9.35105e-17
9.351e-17
9.35092e-17
9.35082e-17
9.3507e-17
9.35055e-17
9.35039e-17
9.3502e-17
9.34999e-17
9.34976e-17
9.35106e-17
9.35109e-17
9.3511e-17
9.35109e-17
9.35105e-17
9.351e-17
9.35092e-17
9.35082e-17
9.35069e-17
9.35055e-17
9.35038e-17
9.35019e-17
9.34998e-17
9.34975e-17
9.35105e-17
9.35108e-17
9.35109e-17
9.35107e-17
9.35104e-17
9.35098e-17
9.3509e-17
9.3508e-17
9.35067e-17
9.35053e-17
9.35036e-17
9.35017e-17
9.34996e-17
9.34974e-17
9.35102e-17
9.35104e-17
9.35105e-17
9.35103e-17
9.35099e-17
9.35094e-17
9.35085e-17
9.35075e-17
9.35063e-17
9.35048e-17
9.35032e-17
9.35013e-17
9.34992e-17
9.3497e-17
9.35096e-17
9.35098e-17
9.35098e-17
9.35097e-17
9.35093e-17
9.35087e-17
9.35079e-17
9.35069e-17
9.35056e-17
9.35042e-17
9.35025e-17
9.35007e-17
9.34987e-17
9.34965e-17
9.35088e-17
9.3509e-17
9.3509e-17
9.35088e-17
9.35084e-17
9.35078e-17
9.3507e-17
9.3506e-17
9.35047e-17
9.35033e-17
9.35017e-17
9.34999e-17
9.34979e-17
9.34958e-17
9.35077e-17
9.35078e-17
9.35078e-17
9.35076e-17
9.35072e-17
9.35066e-17
9.35058e-17
9.35048e-17
9.35036e-17
9.35022e-17
9.35007e-17
9.34989e-17
9.34969e-17
9.34949e-17
9.35065e-17
9.35067e-17
9.35066e-17
9.35063e-17
9.35059e-17
9.35052e-17
9.35044e-17
9.35034e-17
9.35023e-17
9.35009e-17
9.34994e-17
9.34977e-17
9.34958e-17
9.34938e-17
9.35049e-17
9.3505e-17
9.35048e-17
9.35046e-17
9.35041e-17
9.35035e-17
9.35028e-17
9.35018e-17
9.35007e-17
9.34995e-17
9.3498e-17
9.34964e-17
9.34946e-17
9.34926e-17
9.32594e-17
9.326e-17
9.32603e-17
9.32604e-17
9.32603e-17
9.326e-17
9.32596e-17
9.3259e-17
9.32582e-17
9.32572e-17
9.32561e-17
9.32548e-17
9.32533e-17
9.32514e-17
9.32602e-17
9.32608e-17
9.3261e-17
9.32612e-17
9.32611e-17
9.32608e-17
9.32603e-17
9.32597e-17
9.32588e-17
9.32578e-17
9.32566e-17
9.32552e-17
9.32537e-17
9.32517e-17
9.32606e-17
9.32612e-17
9.32615e-17
9.32617e-17
9.32616e-17
9.32613e-17
9.32608e-17
9.32602e-17
9.32593e-17
9.32583e-17
9.3257e-17
9.32556e-17
9.3254e-17
9.32521e-17
9.32609e-17
9.32615e-17
9.32618e-17
9.3262e-17
9.32619e-17
9.32616e-17
9.32611e-17
9.32604e-17
9.32596e-17
9.32585e-17
9.32573e-17
9.32558e-17
9.32541e-17
9.32522e-17
9.3261e-17
9.32615e-17
9.32619e-17
9.3262e-17
9.3262e-17
9.32617e-17
9.32612e-17
9.32605e-17
9.32596e-17
9.32585e-17
9.32573e-17
9.32558e-17
9.32541e-17
9.32522e-17
9.32608e-17
9.32613e-17
9.32617e-17
9.32618e-17
9.32618e-17
9.32615e-17
9.3261e-17
9.32603e-17
9.32594e-17
9.32583e-17
9.3257e-17
9.32555e-17
9.32538e-17
9.32519e-17
9.32604e-17
9.3261e-17
9.32613e-17
9.32615e-17
9.32614e-17
9.32611e-17
9.32606e-17
9.32599e-17
9.3259e-17
9.32579e-17
9.32566e-17
9.32551e-17
9.32534e-17
9.32515e-17
9.32599e-17
9.32604e-17
9.32608e-17
9.32609e-17
9.32608e-17
9.32605e-17
9.326e-17
9.32594e-17
9.32585e-17
9.32574e-17
9.32561e-17
9.32546e-17
9.32528e-17
9.32509e-17
9.32592e-17
9.32596e-17
9.326e-17
9.32601e-17
9.326e-17
9.32597e-17
9.32593e-17
9.32586e-17
9.32577e-17
9.32566e-17
9.32553e-17
9.32538e-17
9.32521e-17
9.32502e-17
9.32582e-17
9.32586e-17
9.32589e-17
9.32591e-17
9.3259e-17
9.32587e-17
9.32583e-17
9.32576e-17
9.32567e-17
9.32556e-17
9.32543e-17
9.32528e-17
9.32511e-17
9.32493e-17
9.3257e-17
9.32574e-17
9.32577e-17
9.32578e-17
9.32578e-17
9.32575e-17
9.3257e-17
9.32564e-17
9.32555e-17
9.32544e-17
9.32532e-17
9.32517e-17
9.325e-17
9.32482e-17
9.32555e-17
9.32559e-17
9.32562e-17
9.32564e-17
9.32563e-17
9.32561e-17
9.32556e-17
9.3255e-17
9.32541e-17
9.32531e-17
9.32518e-17
9.32504e-17
9.32487e-17
9.32469e-17
9.32539e-17
9.32543e-17
9.32545e-17
9.32547e-17
9.32546e-17
9.32544e-17
9.32539e-17
9.32533e-17
9.32525e-17
9.32515e-17
9.32503e-17
9.32488e-17
9.32473e-17
9.32455e-17
9.32519e-17
9.32522e-17
9.32525e-17
9.32527e-17
9.32527e-17
9.32525e-17
9.32521e-17
9.32515e-17
9.32507e-17
9.32498e-17
9.32486e-17
9.32473e-17
9.32457e-17
9.3244e-17
9.3027e-17
9.30279e-17
9.30285e-17
9.3029e-17
9.30292e-17
9.30293e-17
9.30291e-17
9.30288e-17
9.30283e-17
9.30276e-17
9.30268e-17
9.30257e-17
9.30246e-17
9.30232e-17
9.30277e-17
9.30286e-17
9.30293e-17
9.30297e-17
9.303e-17
9.30301e-17
9.30299e-17
9.30296e-17
9.3029e-17
9.30283e-17
9.30275e-17
9.30265e-17
9.30253e-17
9.30239e-17
9.30282e-17
9.30291e-17
9.30298e-17
9.30303e-17
9.30306e-17
9.30307e-17
9.30305e-17
9.30302e-17
9.30297e-17
9.3029e-17
9.30281e-17
9.30271e-17
9.30258e-17
9.30244e-17
9.30285e-17
9.30295e-17
9.30302e-17
9.30307e-17
9.30309e-17
9.3031e-17
9.30309e-17
9.30305e-17
9.303e-17
9.30294e-17
9.30285e-17
9.30274e-17
9.30262e-17
9.30248e-17
9.30287e-17
9.30296e-17
9.30303e-17
9.30308e-17
9.30311e-17
9.30312e-17
9.30311e-17
9.30307e-17
9.30302e-17
9.30295e-17
9.30287e-17
9.30276e-17
9.30263e-17
9.30249e-17
9.30286e-17
9.30295e-17
9.30302e-17
9.30307e-17
9.3031e-17
9.30311e-17
9.3031e-17
9.30307e-17
9.30302e-17
9.30295e-17
9.30286e-17
9.30275e-17
9.30262e-17
9.30248e-17
9.30283e-17
9.30292e-17
9.30299e-17
9.30304e-17
9.30307e-17
9.30308e-17
9.30307e-17
9.30304e-17
9.30299e-17
9.30292e-17
9.30283e-17
9.30272e-17
9.30259e-17
9.30244e-17
9.30278e-17
9.30287e-17
9.30294e-17
9.30299e-17
9.30302e-17
9.30304e-17
9.30303e-17
9.303e-17
9.30295e-17
9.30288e-17
9.30279e-17
9.30268e-17
9.30254e-17
9.30239e-17
9.30272e-17
9.3028e-17
9.30287e-17
9.30292e-17
9.30296e-17
9.30297e-17
9.30296e-17
9.30293e-17
9.30288e-17
9.30281e-17
9.30272e-17
9.30261e-17
9.30248e-17
9.30233e-17
9.30263e-17
9.30271e-17
9.30278e-17
9.30283e-17
9.30287e-17
9.30288e-17
9.30288e-17
9.30285e-17
9.3028e-17
9.30273e-17
9.30264e-17
9.30253e-17
9.30239e-17
9.30225e-17
9.30252e-17
9.3026e-17
9.30267e-17
9.30272e-17
9.30276e-17
9.30277e-17
9.30277e-17
9.30274e-17
9.3027e-17
9.30263e-17
9.30254e-17
9.30243e-17
9.30229e-17
9.30215e-17
9.30239e-17
9.30246e-17
9.30254e-17
9.30259e-17
9.30263e-17
9.30265e-17
9.30264e-17
9.30262e-17
9.30258e-17
9.30251e-17
9.30242e-17
9.30231e-17
9.30218e-17
9.30203e-17
9.30224e-17
9.30232e-17
9.30238e-17
9.30244e-17
9.30248e-17
9.3025e-17
9.3025e-17
9.30248e-17
9.30243e-17
9.30237e-17
9.30228e-17
9.30217e-17
9.30205e-17
9.3019e-17
9.30206e-17
9.30214e-17
9.30221e-17
9.30227e-17
9.30231e-17
9.30233e-17
9.30233e-17
9.30231e-17
9.30227e-17
9.30221e-17
9.30213e-17
9.30203e-17
9.3019e-17
9.30176e-17
9.28112e-17
9.28123e-17
9.28132e-17
9.28138e-17
9.28143e-17
9.28145e-17
9.28145e-17
9.28144e-17
9.28141e-17
9.28136e-17
9.2813e-17
9.28123e-17
9.28115e-17
9.28104e-17
9.2812e-17
9.28131e-17
9.28139e-17
9.28146e-17
9.2815e-17
9.28153e-17
9.28154e-17
9.28153e-17
9.2815e-17
9.28145e-17
9.28139e-17
9.28132e-17
9.28124e-17
9.28115e-17
9.28126e-17
9.28137e-17
9.28146e-17
9.28152e-17
9.28157e-17
9.2816e-17
9.28161e-17
9.2816e-17
9.28158e-17
9.28153e-17
9.28147e-17
9.2814e-17
9.28131e-17
9.28122e-17
9.28131e-17
9.28142e-17
9.28151e-17
9.28157e-17
9.28162e-17
9.28165e-17
9.28166e-17
9.28166e-17
9.28163e-17
9.28159e-17
9.28153e-17
9.28146e-17
9.28137e-17
9.28128e-17
9.28134e-17
9.28145e-17
9.28154e-17
9.2816e-17
9.28166e-17
9.28169e-17
9.2817e-17
9.28169e-17
9.28167e-17
9.28163e-17
9.28157e-17
9.2815e-17
9.28141e-17
9.28131e-17
9.28136e-17
9.28146e-17
9.28155e-17
9.28162e-17
9.28167e-17
9.2817e-17
9.28172e-17
9.28171e-17
9.28169e-17
9.28165e-17
9.28159e-17
9.28152e-17
9.28142e-17
9.28132e-17
9.28135e-17
9.28146e-17
9.28154e-17
9.28161e-17
9.28166e-17
9.2817e-17
9.28171e-17
9.28171e-17
9.28169e-17
9.28165e-17
9.28159e-17
9.28151e-17
9.28142e-17
9.28131e-17
9.28133e-17
9.28143e-17
9.28152e-17
9.28159e-17
9.28164e-17
9.28167e-17
9.28169e-17
9.28169e-17
9.28167e-17
9.28163e-17
9.28157e-17
9.28149e-17
9.28139e-17
9.28128e-17
9.28128e-17
9.28138e-17
9.28147e-17
9.28154e-17
9.2816e-17
9.28163e-17
9.28165e-17
9.28165e-17
9.28163e-17
9.28159e-17
9.28153e-17
9.28145e-17
9.28135e-17
9.28124e-17
9.28122e-17
9.28132e-17
9.28141e-17
9.28148e-17
9.28154e-17
9.28157e-17
9.28159e-17
9.28159e-17
9.28157e-17
9.28153e-17
9.28147e-17
9.28139e-17
9.28129e-17
9.28118e-17
9.28115e-17
9.28124e-17
9.28133e-17
9.2814e-17
9.28146e-17
9.28149e-17
9.28151e-17
9.28152e-17
9.2815e-17
9.28146e-17
9.2814e-17
9.28132e-17
9.28122e-17
9.28111e-17
9.28105e-17
9.28114e-17
9.28123e-17
9.2813e-17
9.28136e-17
9.2814e-17
9.28142e-17
9.28143e-17
9.28141e-17
9.28137e-17
9.28131e-17
9.28123e-17
9.28113e-17
9.28102e-17
9.28093e-17
9.28102e-17
9.28111e-17
9.28118e-17
9.28124e-17
9.28129e-17
9.28131e-17
9.28132e-17
9.2813e-17
9.28126e-17
9.28121e-17
9.28113e-17
9.28104e-17
9.28092e-17
9.2808e-17
9.28089e-17
9.28098e-17
9.28105e-17
9.28111e-17
9.28116e-17
9.28118e-17
9.28119e-17
9.28118e-17
9.28115e-17
9.2811e-17
9.28103e-17
9.28093e-17
9.28081e-17
9.26127e-17
9.26137e-17
9.26144e-17
9.26149e-17
9.26153e-17
9.26156e-17
9.26157e-17
9.26157e-17
9.26155e-17
9.26152e-17
9.26149e-17
9.26144e-17
9.26139e-17
9.26132e-17
9.26134e-17
9.26141e-17
9.26149e-17
9.26154e-17
9.26159e-17
9.26162e-17
9.26164e-17
9.26164e-17
9.26162e-17
9.26159e-17
9.26156e-17
9.26151e-17
9.26146e-17
9.26141e-17
9.26139e-17
9.26147e-17
9.26154e-17
9.2616e-17
9.26164e-17
9.26167e-17
9.26169e-17
9.26169e-17
9.26168e-17
9.26166e-17
9.26162e-17
9.26158e-17
9.26152e-17
9.26147e-17
9.26143e-17
9.26151e-17
9.26158e-17
9.26164e-17
9.26168e-17
9.26171e-17
9.26173e-17
9.26174e-17
9.26173e-17
9.2617e-17
9.26167e-17
9.26163e-17
9.26158e-17
9.26152e-17
9.26146e-17
9.26154e-17
9.26161e-17
9.26167e-17
9.26171e-17
9.26175e-17
9.26176e-17
9.26177e-17
9.26176e-17
9.26174e-17
9.26171e-17
9.26167e-17
9.26161e-17
9.26156e-17
9.26148e-17
9.26156e-17
9.26163e-17
9.26169e-17
9.26173e-17
9.26176e-17
9.26178e-17
9.26179e-17
9.26178e-17
9.26176e-17
9.26173e-17
9.26169e-17
9.26164e-17
9.26157e-17
9.26149e-17
9.26157e-17
9.26164e-17
9.26169e-17
9.26174e-17
9.26177e-17
9.26179e-17
9.2618e-17
9.26179e-17
9.26177e-17
9.26174e-17
9.2617e-17
9.26164e-17
9.26158e-17
9.26149e-17
9.26157e-17
9.26163e-17
9.26169e-17
9.26173e-17
9.26176e-17
9.26178e-17
9.26179e-17
9.26178e-17
9.26177e-17
9.26173e-17
9.26169e-17
9.26164e-17
9.26157e-17
9.26147e-17
9.26154e-17
9.26161e-17
9.26166e-17
9.26171e-17
9.26174e-17
9.26176e-17
9.26177e-17
9.26177e-17
9.26175e-17
9.26171e-17
9.26167e-17
9.26161e-17
9.26155e-17
9.26144e-17
9.26151e-17
9.26158e-17
9.26163e-17
9.26168e-17
9.26171e-17
9.26173e-17
9.26174e-17
9.26174e-17
9.26172e-17
9.26168e-17
9.26164e-17
9.26158e-17
9.26151e-17
9.26139e-17
9.26146e-17
9.26153e-17
9.26158e-17
9.26163e-17
9.26166e-17
9.26169e-17
9.2617e-17
9.26169e-17
9.26167e-17
9.26164e-17
9.2616e-17
9.26153e-17
9.26147e-17
9.26133e-17
9.2614e-17
9.26147e-17
9.26152e-17
9.26157e-17
9.26161e-17
9.26163e-17
9.26164e-17
9.26164e-17
9.26162e-17
9.26159e-17
9.26155e-17
9.26148e-17
9.26141e-17
9.26126e-17
9.26132e-17
9.26139e-17
9.26145e-17
9.2615e-17
9.26154e-17
9.26157e-17
9.26158e-17
9.26158e-17
9.26156e-17
9.26153e-17
9.26148e-17
9.26142e-17
9.26135e-17
9.26116e-17
9.26124e-17
9.26131e-17
9.26137e-17
9.26142e-17
9.26146e-17
9.26149e-17
9.26151e-17
9.26151e-17
9.2615e-17
9.26147e-17
9.26143e-17
9.26137e-17
9.26128e-17
9.24309e-17
9.24312e-17
9.24314e-17
9.24316e-17
9.24318e-17
9.24319e-17
9.2432e-17
9.2432e-17
9.2432e-17
9.24319e-17
9.24318e-17
9.24316e-17
9.24315e-17
9.24313e-17
9.2431e-17
9.24312e-17
9.24315e-17
9.24317e-17
9.24319e-17
9.2432e-17
9.24321e-17
9.24321e-17
9.24321e-17
9.2432e-17
9.24319e-17
9.24318e-17
9.24316e-17
9.24317e-17
9.24311e-17
9.24313e-17
9.24316e-17
9.24318e-17
9.2432e-17
9.24321e-17
9.24322e-17
9.24322e-17
9.24322e-17
9.24322e-17
9.24321e-17
9.2432e-17
9.24318e-17
9.24318e-17
9.24313e-17
9.24315e-17
9.24317e-17
9.24319e-17
9.2432e-17
9.24322e-17
9.24323e-17
9.24323e-17
9.24323e-17
9.24323e-17
9.24322e-17
9.24321e-17
9.2432e-17
9.24319e-17
9.24314e-17
9.24316e-17
9.24318e-17
9.24319e-17
9.24321e-17
9.24322e-17
9.24323e-17
9.24323e-17
9.24324e-17
9.24323e-17
9.24323e-17
9.24322e-17
9.24321e-17
9.2432e-17
9.24314e-17
9.24317e-17
9.24318e-17
9.2432e-17
9.24321e-17
9.24322e-17
9.24323e-17
9.24324e-17
9.24324e-17
9.24324e-17
9.24323e-17
9.24322e-17
9.24322e-17
9.24321e-17
9.24315e-17
9.24317e-17
9.24318e-17
9.2432e-17
9.24321e-17
9.24322e-17
9.24323e-17
9.24324e-17
9.24324e-17
9.24324e-17
9.24323e-17
9.24323e-17
9.24322e-17
9.24321e-17
9.24315e-17
9.24317e-17
9.24318e-17
9.2432e-17
9.24321e-17
9.24322e-17
9.24323e-17
9.24323e-17
9.24323e-17
9.24323e-17
9.24323e-17
9.24322e-17
9.24322e-17
9.24321e-17
9.24314e-17
9.24316e-17
9.24317e-17
9.24319e-17
9.2432e-17
9.24321e-17
9.24322e-17
9.24322e-17
9.24323e-17
9.24322e-17
9.24322e-17
9.24321e-17
9.24321e-17
9.2432e-17
9.24313e-17
9.24315e-17
9.24316e-17
9.24317e-17
9.24319e-17
9.2432e-17
9.24321e-17
9.24321e-17
9.24321e-17
9.24321e-17
9.24321e-17
9.2432e-17
9.2432e-17
9.24318e-17
9.24312e-17
9.24313e-17
9.24314e-17
9.24316e-17
9.24317e-17
9.24318e-17
9.24319e-17
9.2432e-17
9.2432e-17
9.2432e-17
9.2432e-17
9.24319e-17
9.24318e-17
9.24317e-17
9.2431e-17
9.24311e-17
9.24313e-17
9.24314e-17
9.24316e-17
9.24317e-17
9.24318e-17
9.24319e-17
9.24319e-17
9.24319e-17
9.24318e-17
9.24318e-17
9.24316e-17
9.24315e-17
9.24308e-17
9.24308e-17
9.2431e-17
9.24312e-17
9.24314e-17
9.24316e-17
9.24317e-17
9.24318e-17
9.24318e-17
9.24318e-17
9.24317e-17
9.24316e-17
9.24314e-17
9.24313e-17
9.24304e-17
9.24306e-17
9.24308e-17
9.2431e-17
9.24312e-17
9.24314e-17
9.24315e-17
9.24316e-17
9.24316e-17
9.24316e-17
9.24316e-17
9.24315e-17
9.24314e-17
9.24312e-17
9.22644e-17
9.22639e-17
9.22635e-17
9.22633e-17
9.22631e-17
9.2263e-17
9.2263e-17
9.2263e-17
9.22631e-17
9.22632e-17
9.22633e-17
9.22635e-17
9.22638e-17
9.22643e-17
9.22638e-17
9.22634e-17
9.22631e-17
9.22629e-17
9.22627e-17
9.22626e-17
9.22625e-17
9.22625e-17
9.22626e-17
9.22627e-17
9.22629e-17
9.22631e-17
9.22633e-17
9.22637e-17
9.22634e-17
9.2263e-17
9.22627e-17
9.22624e-17
9.22622e-17
9.22621e-17
9.22621e-17
9.22621e-17
9.22621e-17
9.22622e-17
9.22624e-17
9.22627e-17
9.2263e-17
9.22633e-17
9.22631e-17
9.22627e-17
9.22624e-17
9.22621e-17
9.22619e-17
9.22618e-17
9.22617e-17
9.22617e-17
9.22618e-17
9.22619e-17
9.22621e-17
9.22623e-17
9.22627e-17
9.2263e-17
9.22629e-17
9.22625e-17
9.22621e-17
9.22618e-17
9.22616e-17
9.22615e-17
9.22614e-17
9.22614e-17
9.22615e-17
9.22616e-17
9.22618e-17
9.22621e-17
9.22624e-17
9.22628e-17
9.22627e-17
9.22623e-17
9.22619e-17
9.22616e-17
9.22614e-17
9.22613e-17
9.22612e-17
9.22612e-17
9.22612e-17
9.22614e-17
9.22616e-17
9.22618e-17
9.22622e-17
9.22626e-17
9.22626e-17
9.22622e-17
9.22618e-17
9.22615e-17
9.22613e-17
9.22611e-17
9.2261e-17
9.2261e-17
9.22611e-17
9.22612e-17
9.22614e-17
9.22617e-17
9.22621e-17
9.22625e-17
9.22625e-17
9.22621e-17
9.22617e-17
9.22614e-17
9.22612e-17
9.2261e-17
9.22609e-17
9.22609e-17
9.2261e-17
9.22611e-17
9.22613e-17
9.22616e-17
9.2262e-17
9.22624e-17
9.22625e-17
9.22621e-17
9.22617e-17
9.22614e-17
9.22611e-17
9.2261e-17
9.22609e-17
9.22609e-17
9.22609e-17
9.22611e-17
9.22613e-17
9.22616e-17
9.2262e-17
9.22624e-17
9.22626e-17
9.22622e-17
9.22618e-17
9.22614e-17
9.22612e-17
9.2261e-17
9.22609e-17
9.22609e-17
9.2261e-17
9.22611e-17
9.22614e-17
9.22617e-17
9.22621e-17
9.22625e-17
9.22627e-17
9.22623e-17
9.22619e-17
9.22616e-17
9.22613e-17
9.22612e-17
9.22611e-17
9.22611e-17
9.22611e-17
9.22613e-17
9.22615e-17
9.22618e-17
9.22622e-17
9.22626e-17
9.22629e-17
9.22624e-17
9.22621e-17
9.22618e-17
9.22616e-17
9.22614e-17
9.22613e-17
9.22613e-17
9.22613e-17
9.22614e-17
9.22617e-17
9.22619e-17
9.22623e-17
9.22627e-17
9.22632e-17
9.22627e-17
9.22624e-17
9.22621e-17
9.22619e-17
9.22617e-17
9.22616e-17
9.22616e-17
9.22616e-17
9.22618e-17
9.22619e-17
9.22622e-17
9.22625e-17
9.2263e-17
9.22635e-17
9.2263e-17
9.22627e-17
9.22624e-17
9.22622e-17
9.22621e-17
9.2262e-17
9.22619e-17
9.2262e-17
9.22621e-17
9.22622e-17
9.22625e-17
9.22629e-17
9.22634e-17
9.21117e-17
9.21107e-17
9.211e-17
9.21094e-17
9.2109e-17
9.21087e-17
9.21086e-17
9.21086e-17
9.21087e-17
9.21089e-17
9.21093e-17
9.21097e-17
9.21103e-17
9.21111e-17
9.21108e-17
9.21099e-17
9.21092e-17
9.21087e-17
9.21082e-17
9.21079e-17
9.21077e-17
9.21077e-17
9.21078e-17
9.21081e-17
9.21084e-17
9.21089e-17
9.21094e-17
9.211e-17
9.211e-17
9.21092e-17
9.21085e-17
9.21079e-17
9.21075e-17
9.21071e-17
9.2107e-17
9.21069e-17
9.2107e-17
9.21073e-17
9.21076e-17
9.2108e-17
9.21086e-17
9.21092e-17
9.21094e-17
9.21086e-17
9.21079e-17
9.21073e-17
9.21068e-17
9.21065e-17
9.21063e-17
9.21063e-17
9.21064e-17
9.21066e-17
9.21069e-17
9.21074e-17
9.2108e-17
9.21086e-17
9.21089e-17
9.21081e-17
9.21074e-17
9.21068e-17
9.21063e-17
9.2106e-17
9.21058e-17
9.21057e-17
9.21058e-17
9.21061e-17
9.21064e-17
9.21069e-17
9.21075e-17
9.21081e-17
9.21085e-17
9.21077e-17
9.2107e-17
9.21064e-17
9.21059e-17
9.21056e-17
9.21054e-17
9.21054e-17
9.21054e-17
9.21057e-17
9.2106e-17
9.21065e-17
9.21071e-17
9.21077e-17
9.21083e-17
9.21075e-17
9.21067e-17
9.21061e-17
9.21057e-17
9.21054e-17
9.21051e-17
9.21051e-17
9.21052e-17
9.21054e-17
9.21057e-17
9.21062e-17
9.21068e-17
9.21075e-17
9.21081e-17
9.21073e-17
9.21066e-17
9.2106e-17
9.21055e-17
9.21052e-17
9.2105e-17
9.21049e-17
9.2105e-17
9.21053e-17
9.21056e-17
9.21061e-17
9.21067e-17
9.21074e-17
9.21081e-17
9.21073e-17
9.21066e-17
9.2106e-17
9.21055e-17
9.21052e-17
9.2105e-17
9.21049e-17
9.2105e-17
9.21053e-17
9.21056e-17
9.21061e-17
9.21068e-17
9.21075e-17
9.21082e-17
9.21075e-17
9.21068e-17
9.21062e-17
9.21057e-17
9.21054e-17
9.21052e-17
9.21051e-17
9.21052e-17
9.21054e-17
9.21058e-17
9.21063e-17
9.21069e-17
9.21077e-17
9.21085e-17
9.21078e-17
9.21071e-17
9.21065e-17
9.2106e-17
9.21057e-17
9.21054e-17
9.21054e-17
9.21054e-17
9.21057e-17
9.2106e-17
9.21065e-17
9.21072e-17
9.21079e-17
9.21089e-17
9.21082e-17
9.21075e-17
9.21069e-17
9.21064e-17
9.21061e-17
9.21059e-17
9.21058e-17
9.21058e-17
9.2106e-17
9.21064e-17
9.21069e-17
9.21076e-17
9.21083e-17
9.21095e-17
9.21088e-17
9.21081e-17
9.21075e-17
9.21071e-17
9.21067e-17
9.21064e-17
9.21063e-17
9.21064e-17
9.21066e-17
9.21069e-17
9.21074e-17
9.2108e-17
9.21088e-17
9.21104e-17
9.21095e-17
9.21088e-17
9.21082e-17
9.21077e-17
9.21073e-17
9.21071e-17
9.21069e-17
9.21069e-17
9.21071e-17
9.21074e-17
9.21079e-17
9.21086e-17
9.21095e-17
9.19716e-17
9.19706e-17
9.19698e-17
9.19692e-17
9.19687e-17
9.19684e-17
9.19683e-17
9.19683e-17
9.19684e-17
9.19686e-17
9.19689e-17
9.19694e-17
9.19699e-17
9.19706e-17
9.19707e-17
9.19698e-17
9.19691e-17
9.19684e-17
9.1968e-17
9.19676e-17
9.19674e-17
9.19674e-17
9.19675e-17
9.19677e-17
9.1968e-17
9.19685e-17
9.1969e-17
9.19696e-17
9.19699e-17
9.19691e-17
9.19683e-17
9.19677e-17
9.19672e-17
9.19668e-17
9.19666e-17
9.19666e-17
9.19666e-17
9.19669e-17
9.19672e-17
9.19676e-17
9.19682e-17
9.19687e-17
9.19692e-17
9.19684e-17
9.19676e-17
9.1967e-17
9.19665e-17
9.19662e-17
9.1966e-17
9.19659e-17
9.1966e-17
9.19662e-17
9.19665e-17
9.19669e-17
9.19675e-17
9.19681e-17
9.19687e-17
9.19679e-17
9.19671e-17
9.19665e-17
9.1966e-17
9.19656e-17
9.19654e-17
9.19653e-17
9.19654e-17
9.19656e-17
9.1966e-17
9.19664e-17
9.1967e-17
9.19676e-17
9.19683e-17
9.19675e-17
9.19667e-17
9.19661e-17
9.19656e-17
9.19652e-17
9.1965e-17
9.19649e-17
9.1965e-17
9.19652e-17
9.19655e-17
9.1966e-17
9.19666e-17
9.19672e-17
9.1968e-17
9.19672e-17
9.19664e-17
9.19658e-17
9.19653e-17
9.1965e-17
9.19647e-17
9.19646e-17
9.19647e-17
9.19649e-17
9.19653e-17
9.19657e-17
9.19663e-17
9.1967e-17
9.19678e-17
9.1967e-17
9.19663e-17
9.19657e-17
9.19652e-17
9.19648e-17
9.19646e-17
9.19645e-17
9.19646e-17
9.19648e-17
9.19651e-17
9.19656e-17
9.19662e-17
9.19669e-17
9.19678e-17
9.1967e-17
9.19663e-17
9.19657e-17
9.19652e-17
9.19648e-17
9.19646e-17
9.19645e-17
9.19646e-17
9.19648e-17
9.19651e-17
9.19656e-17
9.19662e-17
9.19669e-17
9.19679e-17
9.19672e-17
9.19664e-17
9.19659e-17
9.19654e-17
9.1965e-17
9.19648e-17
9.19647e-17
9.19647e-17
9.19649e-17
9.19653e-17
9.19658e-17
9.19664e-17
9.19671e-17
9.19682e-17
9.19675e-17
9.19667e-17
9.19661e-17
9.19657e-17
9.19653e-17
9.19651e-17
9.1965e-17
9.1965e-17
9.19652e-17
9.19656e-17
9.1966e-17
9.19667e-17
9.19674e-17
9.19686e-17
9.19679e-17
9.19672e-17
9.19666e-17
9.19661e-17
9.19657e-17
9.19655e-17
9.19653e-17
9.19654e-17
9.19656e-17
9.19659e-17
9.19664e-17
9.19671e-17
9.19678e-17
9.19692e-17
9.19685e-17
9.19678e-17
9.19672e-17
9.19667e-17
9.19663e-17
9.1966e-17
9.19659e-17
9.19659e-17
9.19661e-17
9.19664e-17
9.19669e-17
9.19675e-17
9.19683e-17
9.197e-17
9.19692e-17
9.19684e-17
9.19678e-17
9.19673e-17
9.19669e-17
9.19666e-17
9.19665e-17
9.19665e-17
9.19666e-17
9.19669e-17
9.19674e-17
9.1968e-17
9.19689e-17
9.18422e-17
9.18417e-17
9.18412e-17
9.18409e-17
9.18406e-17
9.18404e-17
9.18403e-17
9.18402e-17
9.18403e-17
9.18404e-17
9.18405e-17
9.18408e-17
9.1841e-17
9.18413e-17
9.18418e-17
9.18413e-17
9.18408e-17
9.18404e-17
9.18401e-17
9.18398e-17
9.18397e-17
9.18396e-17
9.18397e-17
9.18398e-17
9.184e-17
9.18402e-17
9.18405e-17
9.18407e-17
9.18412e-17
9.18408e-17
9.18403e-17
9.18399e-17
9.18396e-17
9.18393e-17
9.18392e-17
9.18391e-17
9.18391e-17
9.18392e-17
9.18394e-17
9.18396e-17
9.18399e-17
9.18401e-17
9.18408e-17
9.18404e-17
9.18399e-17
9.18395e-17
9.18391e-17
9.18389e-17
9.18387e-17
9.18387e-17
9.18387e-17
9.18388e-17
9.18389e-17
9.18392e-17
9.18395e-17
9.18397e-17
9.18405e-17
9.184e-17
9.18395e-17
9.18391e-17
9.18388e-17
9.18385e-17
9.18384e-17
9.18383e-17
9.18383e-17
9.18384e-17
9.18385e-17
9.18388e-17
9.18391e-17
9.18394e-17
9.18402e-17
9.18397e-17
9.18392e-17
9.18388e-17
9.18385e-17
9.18382e-17
9.18381e-17
9.1838e-17
9.1838e-17
9.18381e-17
9.18383e-17
9.18385e-17
9.18388e-17
9.18391e-17
9.18399e-17
9.18394e-17
9.1839e-17
9.18386e-17
9.18383e-17
9.1838e-17
9.18379e-17
9.18378e-17
9.18378e-17
9.18379e-17
9.18381e-17
9.18383e-17
9.18386e-17
9.1839e-17
9.18398e-17
9.18393e-17
9.18389e-17
9.18385e-17
9.18382e-17
9.18379e-17
9.18377e-17
9.18377e-17
9.18377e-17
9.18378e-17
9.1838e-17
9.18382e-17
9.18385e-17
9.18389e-17
9.18398e-17
9.18393e-17
9.18388e-17
9.18385e-17
9.18381e-17
9.18379e-17
9.18377e-17
9.18376e-17
9.18377e-17
9.18377e-17
9.18379e-17
9.18382e-17
9.18385e-17
9.18389e-17
9.18398e-17
9.18394e-17
9.18389e-17
9.18385e-17
9.18382e-17
9.1838e-17
9.18378e-17
9.18377e-17
9.18377e-17
9.18378e-17
9.1838e-17
9.18382e-17
9.18386e-17
9.18389e-17
9.18399e-17
9.18395e-17
9.18391e-17
9.18387e-17
9.18383e-17
9.18381e-17
9.18379e-17
9.18378e-17
9.18378e-17
9.18379e-17
9.18381e-17
9.18383e-17
9.18387e-17
9.18391e-17
9.18401e-17
9.18398e-17
9.18393e-17
9.18389e-17
9.18386e-17
9.18383e-17
9.18381e-17
9.1838e-17
9.1838e-17
9.18381e-17
9.18383e-17
9.18385e-17
9.18389e-17
9.18392e-17
9.18404e-17
9.18401e-17
9.18396e-17
9.18392e-17
9.18389e-17
9.18386e-17
9.18384e-17
9.18383e-17
9.18383e-17
9.18384e-17
9.18385e-17
9.18388e-17
9.18392e-17
9.18395e-17
9.18407e-17
9.18403e-17
9.18399e-17
9.18395e-17
9.18392e-17
9.18389e-17
9.18387e-17
9.18386e-17
9.18386e-17
9.18386e-17
9.18387e-17
9.1839e-17
9.18393e-17
9.18397e-17
9.17214e-17
9.17214e-17
9.17214e-17
9.17214e-17
9.17214e-17
9.17214e-17
9.17213e-17
9.17213e-17
9.17212e-17
9.17211e-17
9.1721e-17
9.17209e-17
9.17208e-17
9.17205e-17
9.17214e-17
9.17215e-17
9.17214e-17
9.17214e-17
9.17214e-17
9.17214e-17
9.17213e-17
9.17212e-17
9.17212e-17
9.17211e-17
9.1721e-17
9.17209e-17
9.17208e-17
9.17205e-17
9.17213e-17
9.17214e-17
9.17214e-17
9.17214e-17
9.17213e-17
9.17213e-17
9.17213e-17
9.17212e-17
9.17211e-17
9.1721e-17
9.17209e-17
9.17208e-17
9.17207e-17
9.17204e-17
9.17213e-17
9.17213e-17
9.17213e-17
9.17213e-17
9.17213e-17
9.17212e-17
9.17212e-17
9.17211e-17
9.1721e-17
9.17209e-17
9.17208e-17
9.17207e-17
9.17206e-17
9.17204e-17
9.17212e-17
9.17212e-17
9.17212e-17
9.17212e-17
9.17212e-17
9.17212e-17
9.17211e-17
9.1721e-17
9.1721e-17
9.17209e-17
9.17208e-17