/*--------------------------------*- C++ -*----------------------------------*\
| =========                 |                                                 |
| \\      /  F ield         | OpenFOAM: The Open Source CFD Toolbox           |
|  \\    /   O peration     | Version:  v2106                                 |
|   \\  /    A nd           | Website:  www.openfoam.com                      |
|    \\/     M anipulation  |                                                 |
\*---------------------------------------------------------------------------*/
FoamFile
{
    version     2.0;
    format      ascii;
    arch        "LSB;label=32;scalar=64";
    class       volScalarField;
    location    "0.000215";
    object      alphat;
}
// * * * * * * * * * * * * * * * * * * * * * * * * * * * * * * * * * * * * * //

dimensions      [1 -1 -1 0 0 0 0];

internalField   nonuniform List<scalar> 
144746
(
9.17691e-05
7.11943e-05
5.54037e-05
4.64161e-05
4.41455e-05
4.55306e-05
4.87997e-05
5.17975e-05
5.44606e-05
5.80244e-05
6.261e-05
7.08994e-05
8.50502e-05
0.000100447
6.31985e-05
4.52986e-05
3.30701e-05
2.55578e-05
2.2459e-05
2.22975e-05
2.4368e-05
2.75707e-05
3.14039e-05
3.59037e-05
4.22013e-05
4.98527e-05
6.11694e-05
7.81124e-05
4.16431e-05
2.88926e-05
2.10311e-05
1.56758e-05
1.27748e-05
1.176e-05
1.2469e-05
1.45952e-05
1.78686e-05
2.19546e-05
2.69404e-05
3.38121e-05
4.15648e-05
5.54585e-05
2.88901e-05
2.01002e-05
1.43402e-05
1.03148e-05
7.87163e-06
6.69011e-06
6.68938e-06
7.84633e-06
1.01532e-05
1.34617e-05
1.74967e-05
2.1712e-05
2.69925e-05
3.73268e-05
2.22092e-05
1.49143e-05
1.00458e-05
6.81785e-06
4.86728e-06
3.85394e-06
3.6325e-06
4.21242e-06
5.71609e-06
8.1816e-06
1.14152e-05
1.49582e-05
1.91491e-05
2.65169e-05
1.79018e-05
1.10936e-05
6.8557e-06
4.29471e-06
2.84745e-06
2.11526e-06
1.90532e-06
2.21082e-06
3.18137e-06
4.95176e-06
7.4784e-06
1.04957e-05
1.39502e-05
2.02719e-05
1.43285e-05
7.96328e-06
4.41729e-06
2.51127e-06
1.53395e-06
1.07317e-06
9.43695e-07
1.1351e-06
1.78273e-06
3.05581e-06
5.0192e-06
7.58765e-06
1.08083e-05
1.67871e-05
1.13037e-05
5.57692e-06
2.73118e-06
1.38065e-06
7.64484e-07
5.03906e-07
4.49162e-07
5.98172e-07
1.0668e-06
2.02373e-06
3.59294e-06
5.81207e-06
8.91942e-06
1.51069e-05
9.1428e-06
4.07479e-06
1.769e-06
7.82051e-07
3.8196e-07
2.36932e-07
2.30175e-07
3.68597e-07
7.5209e-07
1.53678e-06
2.872e-06
4.89809e-06
8.11512e-06
1.49076e-05
8.40918e-06
3.57446e-06
1.44896e-06
5.82012e-07
2.56416e-07
1.5494e-07
1.70797e-07
3.12832e-07
6.7173e-07
1.3962e-06
2.66194e-06
4.73522e-06
8.43343e-06
1.60503e-05
9.48789e-06
4.15702e-06
1.73687e-06
7.19016e-07
3.32973e-07
2.14384e-07
2.32256e-07
3.87403e-07
7.68353e-07
1.53354e-06
2.91647e-06
5.38388e-06
1.00283e-05
1.84879e-05
1.31639e-05
6.40656e-06
3.03982e-06
1.42078e-06
7.24214e-07
4.7896e-07
4.64329e-07
6.39758e-07
1.08952e-06
2.00574e-06
3.73866e-06
7.02291e-06
1.30444e-05
2.23797e-05
1.96711e-05
1.07207e-05
5.87116e-06
3.20721e-06
1.81178e-06
1.1955e-06
1.04703e-06
1.22957e-06
1.79106e-06
2.96205e-06
5.23923e-06
9.70866e-06
1.73861e-05
2.75438e-05
2.811e-05
1.66573e-05
1.03093e-05
6.59962e-06
4.27091e-06
2.94229e-06
2.41395e-06
2.50177e-06
3.17127e-06
4.64169e-06
7.50344e-06
1.31583e-05
2.23185e-05
3.31996e-05
7.68937e-05
5.58278e-05
4.10459e-05
3.22773e-05
2.86353e-05
2.78535e-05
2.86533e-05
2.98201e-05
3.11269e-05
3.25508e-05
3.66175e-05
4.32579e-05
5.72365e-05
7.42346e-05
4.71004e-05
3.19344e-05
2.3372e-05
1.7971e-05
1.52708e-05
1.44754e-05
1.50474e-05
1.63583e-05
1.81902e-05
2.02412e-05
2.29764e-05
2.83273e-05
3.79398e-05
5.35466e-05
2.66076e-05
1.83407e-05
1.34821e-05
1.02985e-05
8.48163e-06
7.75481e-06
7.95536e-06
8.87826e-06
1.04486e-05
1.25192e-05
1.514e-05
1.85977e-05
2.50642e-05
3.54526e-05
1.75095e-05
1.17182e-05
8.29165e-06
6.15759e-06
4.88369e-06
4.27033e-06
4.25074e-06
4.78981e-06
5.91405e-06
7.60287e-06
9.85317e-06
1.26254e-05
1.63808e-05
2.35219e-05
1.34683e-05
8.32953e-06
5.44533e-06
3.78059e-06
2.82865e-06
2.34659e-06
2.25008e-06
2.53169e-06
3.2703e-06
4.54128e-06
6.34996e-06
8.6848e-06
1.17256e-05
1.68286e-05
1.10387e-05
6.19608e-06
3.64721e-06
2.2972e-06
1.58511e-06
1.23585e-06
1.14018e-06
1.28804e-06
1.76609e-06
2.6802e-06
4.09336e-06
6.03167e-06
8.60564e-06
1.2671e-05
9.0781e-06
4.62135e-06
2.41734e-06
1.3484e-06
8.37852e-07
6.06836e-07
5.42207e-07
6.3024e-07
9.45193e-07
1.60105e-06
2.69558e-06
4.30344e-06
6.54396e-06
1.0092e-05
7.66657e-06
3.55266e-06
1.63792e-06
7.8751e-07
4.24347e-07
2.78348e-07
2.44382e-07
3.09184e-07
5.32474e-07
1.02051e-06
1.88973e-06
3.24693e-06
5.2587e-06
8.62036e-06
6.87612e-06
2.95963e-06
1.22181e-06
5.03048e-07
2.25424e-07
1.28299e-07
1.1471e-07
1.73488e-07
3.54215e-07
7.52358e-07
1.48852e-06
2.69786e-06
4.61355e-06
7.99709e-06
6.99357e-06
2.91341e-06
1.13661e-06
4.23973e-07
1.63053e-07
8.05652e-08
7.59408e-08
1.36728e-07
3.07562e-07
6.78598e-07
1.37465e-06
2.55998e-06
4.54834e-06
8.13263e-06
8.10486e-06
3.39956e-06
1.34068e-06
5.07806e-07
2.01181e-07
1.04716e-07
9.96723e-08
1.6802e-07
3.54027e-07
7.51712e-07
1.50069e-06
2.80918e-06
5.05545e-06
9.04425e-06
1.09005e-05
4.80094e-06
2.04476e-06
8.65506e-07
3.95343e-07
2.32323e-07
2.10293e-07
2.91567e-07
5.19422e-07
1.00191e-06
1.91237e-06
3.52934e-06
6.27765e-06
1.09588e-05
1.55647e-05
7.27634e-06
3.45103e-06
1.71224e-06
9.14593e-07
5.84899e-07
5.06818e-07
6.02684e-07
9.0255e-07
1.53308e-06
2.73492e-06
4.91492e-06
8.71702e-06
1.43531e-05
2.22278e-05
1.0919e-05
5.71813e-06
3.30016e-06
2.04737e-06
1.42047e-06
1.20893e-06
1.30619e-06
1.71222e-06
2.5726e-06
4.19657e-06
7.23546e-06
1.25159e-05
1.94505e-05
5.474e-05
3.83018e-05
2.72989e-05
2.05517e-05
1.71056e-05
1.58084e-05
1.58765e-05
1.66431e-05
1.79759e-05
1.93737e-05
2.07975e-05
2.27117e-05
2.8787e-05
4.32647e-05
2.85797e-05
1.97111e-05
1.40487e-05
1.05482e-05
8.66811e-06
7.93816e-06
8.04283e-06
8.66925e-06
9.76342e-06
1.11107e-05
1.26825e-05
1.45238e-05
1.80725e-05
2.81016e-05
1.64845e-05
1.05213e-05
7.24548e-06
5.39488e-06
4.40029e-06
3.99139e-06
4.04362e-06
4.44731e-06
5.20561e-06
6.2575e-06
7.6339e-06
9.36715e-06
1.22269e-05
1.76424e-05
1.21487e-05
6.74919e-06
4.15194e-06
2.89586e-06
2.28092e-06
2.0204e-06
2.01878e-06
2.23783e-06
2.71222e-06
3.46365e-06
4.544e-06
6.0304e-06
8.35127e-06
1.21959e-05
9.80373e-06
4.87511e-06
2.63069e-06
1.64113e-06
1.20033e-06
1.01563e-06
9.87937e-07
1.09422e-06
1.37375e-06
1.88218e-06
2.69234e-06
3.90238e-06
5.77643e-06
8.7635e-06
8.00499e-06
3.67859e-06
1.76439e-06
9.59266e-07
6.26769e-07
4.93644e-07
4.62921e-07
5.12846e-07
6.75285e-07
1.01284e-06
1.6071e-06
2.56863e-06
4.08545e-06
6.5189e-06
6.59572e-06
2.85881e-06
1.23915e-06
5.7963e-07
3.22867e-07
2.27409e-07
2.03533e-07
2.29501e-07
3.28166e-07
5.55729e-07
9.93643e-07
1.75455e-06
3.00245e-06
5.04966e-06
5.83904e-06
2.42244e-06
9.64946e-07
3.88157e-07
1.75467e-07
1.02639e-07
8.53959e-08
1.02427e-07
1.69613e-07
3.33541e-07
6.69884e-07
1.28893e-06
2.34982e-06
4.13237e-06
5.58884e-06
2.25473e-06
8.49349e-07
3.05445e-07
1.12742e-07
5.11071e-08
3.8175e-08
5.30354e-08
1.08078e-07
2.43182e-07
5.27652e-07
1.06716e-06
2.02196e-06
3.65962e-06
6.00868e-06
2.40791e-06
8.90745e-07
3.06563e-07
1.01886e-07
3.81898e-08
2.58416e-08
4.15388e-08
9.62851e-08
2.28002e-07
5.0364e-07
1.02641e-06
1.95914e-06
3.56906e-06
6.97674e-06
2.79995e-06
1.04443e-06
3.68378e-07
1.28687e-07
5.2533e-08
3.75155e-08
5.61359e-08
1.19533e-07
2.68198e-07
5.72504e-07
1.13884e-06
2.13864e-06
3.84894e-06
9.08372e-06
3.69658e-06
1.43465e-06
5.54632e-07
2.27363e-07
1.14591e-07
8.87876e-08
1.12596e-07
1.96026e-07
3.85765e-07
7.60985e-07
1.43827e-06
2.60241e-06
4.54124e-06
1.22425e-05
5.04758e-06
2.08739e-06
9.31449e-07
4.67522e-07
2.85207e-07
2.34543e-07
2.66906e-07
3.8769e-07
6.52577e-07
1.15582e-06
2.04741e-06
3.55052e-06
5.91933e-06
1.71985e-05
7.13397e-06
3.18328e-06
1.6509e-06
9.94529e-07
7.02902e-07
6.08239e-07
6.58462e-07
8.52215e-07
1.2577e-06
1.98872e-06
3.28324e-06
5.47917e-06
8.70562e-06
0.000119218
0.000142683
0.000160403
0.000170277
0.000173532
0.00023037
9.78333e-05
0.000126879
0.000151882
0.000168203
0.000181343
0.000256328
7.75398e-05
0.000112468
0.000143376
0.000163718
0.000184421
0.000280491
5.97392e-05
9.93582e-05
0.00013498
0.00015688
0.000182568
0.000301263
4.582e-05
8.76334e-05
0.000125893
0.000148649
0.000177813
0.000318798
3.76913e-05
7.68239e-05
0.000115835
0.000140113
0.000172273
0.000332376
3.38018e-05
6.79013e-05
0.000104285
0.000131178
0.00016714
0.000341632
3.17722e-05
6.0487e-05
9.2613e-05
0.000121792
0.000162144
0.000345558
3.05495e-05
5.36135e-05
8.14615e-05
0.000112312
0.000157446
0.000342356
2.99613e-05
4.79165e-05
7.18018e-05
0.000103305
0.000152314
0.000331268
3.04015e-05
4.45846e-05
6.51238e-05
9.60747e-05
0.00014681
0.000313005
3.22425e-05
4.40455e-05
6.21268e-05
9.16219e-05
0.000141059
0.000288328
3.52158e-05
4.57064e-05
6.28742e-05
9.09217e-05
0.000137128
0.000260014
3.81629e-05
4.86816e-05
6.63412e-05
9.32265e-05
0.000135274
0.000227864
9.39716e-05
0.000118714
0.000141278
0.000159021
0.000171454
0.000210766
6.98204e-05
9.46461e-05
0.000122346
0.000148778
0.000173797
0.000233914
5.03868e-05
7.54264e-05
0.000106382
0.000138651
0.000173275
0.000254754
3.59716e-05
6.03465e-05
9.3245e-05
0.000128709
0.00016808
0.000272172
2.67285e-05
4.93201e-05
8.27673e-05
0.000119275
0.000160698
0.000287147
2.11108e-05
4.1386e-05
7.44788e-05
0.00011089
0.000154357
0.000299325
1.79328e-05
3.59508e-05
6.67597e-05
0.000102476
0.000148991
0.000308658
1.61865e-05
3.24298e-05
5.97392e-05
9.42849e-05
0.000144973
0.000312713
1.53867e-05
2.95406e-05
5.30247e-05
8.62771e-05
0.000141227
0.000309757
1.52397e-05
2.70588e-05
4.69259e-05
7.86631e-05
0.000136503
0.00029869
1.57719e-05
2.55927e-05
4.25442e-05
7.2478e-05
0.000130972
0.000280525
1.72824e-05
2.57826e-05
4.07687e-05
6.88251e-05
0.000125289
0.000256957
1.99453e-05
2.78728e-05
4.20807e-05
6.8732e-05
0.000121878
0.00022992
2.30195e-05
3.11375e-05
4.58881e-05
7.17764e-05
0.000120329
0.000199509
6.07462e-05
8.57845e-05
0.000112177
0.000135572
0.000160151
0.000181864
4.17439e-05
6.15591e-05
8.60188e-05
0.000113822
0.000149867
0.000199637
2.76655e-05
4.40008e-05
6.60592e-05
9.58378e-05
0.000140164
0.000215813
1.85212e-05
3.2054e-05
5.17781e-05
8.17225e-05
0.000128899
0.000230176
1.38435e-05
2.41934e-05
4.20738e-05
7.13563e-05
0.000118954
0.000243406
1.0836e-05
1.92906e-05
3.55081e-05
6.38747e-05
0.000111267
0.000255972
8.79214e-06
1.60909e-05
3.11336e-05
5.79225e-05
0.000105667
0.000266648
7.48236e-06
1.41322e-05
2.80628e-05
5.33546e-05
0.000103029
0.000272362
6.80355e-06
1.30049e-05
2.56241e-05
4.95511e-05
0.000101512
0.000270925
6.63301e-06
1.2318e-05
2.35466e-05
4.62493e-05
9.96082e-05
0.000260917
6.90982e-06
1.20548e-05
2.20374e-05
4.34975e-05
9.68263e-05
0.000243181
7.66093e-06
1.23934e-05
2.15157e-05
4.18457e-05
9.34857e-05
0.000219779
9.01484e-06
1.36608e-05
2.25871e-05
4.23685e-05
9.12744e-05
0.000193244
1.07382e-05
1.56391e-05
2.53521e-05
4.55672e-05
9.07036e-05
0.000164735
4.027e-05
5.34409e-05
7.29426e-05
9.94462e-05
0.000139388
0.000229014
2.8286e-05
4.01243e-05
5.95562e-05
8.88925e-05
0.000136489
0.000247355
1.82857e-05
2.86024e-05
4.75269e-05
7.84004e-05
0.000130936
0.000263547
1.18315e-05
2.04796e-05
3.83265e-05
6.92796e-05
0.000124038
0.000277155
8.33847e-06
1.58875e-05
3.23032e-05
6.17746e-05
0.000117412
0.000290164
6.58791e-06
1.38894e-05
2.92607e-05
5.68224e-05
0.000112793
0.00030238
5.92026e-06
1.33119e-05
2.80473e-05
5.37779e-05
0.000112493
0.000314488
6.12515e-06
1.35878e-05
2.76279e-05
5.30035e-05
0.000117571
0.000324678
7.09264e-06
1.43315e-05
2.75347e-05
5.41388e-05
0.000128926
0.0003308
8.73938e-06
1.54894e-05
2.82748e-05
5.84253e-05
0.000144638
0.000329974
1.10611e-05
1.75195e-05
3.13096e-05
6.75197e-05
0.000163214
0.000320991
1.45959e-05
2.18427e-05
3.90497e-05
8.31651e-05
0.000184313
0.000303603
2.08424e-05
3.10496e-05
5.46633e-05
0.000107092
0.000209584
0.000278775
3.16028e-05
4.80579e-05
8.08582e-05
0.000140174
0.000239806
0.000246925
2.56332e-05
3.59468e-05
5.19718e-05
7.7993e-05
0.000123232
0.000197957
1.74951e-05
2.61252e-05
4.03654e-05
6.52515e-05
0.000112468
0.000211767
1.10518e-05
1.80132e-05
3.03934e-05
5.39655e-05
0.000101492
0.000223699
7.12197e-06
1.25097e-05
2.30529e-05
4.48033e-05
9.20058e-05
0.000233906
4.93105e-06
9.41926e-06
1.85778e-05
3.85332e-05
8.59127e-05
0.000244481
3.70729e-06
7.71188e-06
1.61654e-05
3.50984e-05
8.42935e-05
0.000256096
3.1176e-06
6.90745e-06
1.51048e-05
3.41538e-05
8.8965e-05
0.000269565
3.00877e-06
6.75665e-06
1.50682e-05
3.58979e-05
0.00010054
0.000283662
3.34935e-06
7.14934e-06
1.61033e-05
4.09914e-05
0.000119622
0.000295299
4.15186e-06
8.17644e-06
1.86954e-05
5.04807e-05
0.000144334
0.000300292
5.52594e-06
1.0236e-05
2.3999e-05
6.51032e-05
0.000171327
0.000296325
8.02359e-06
1.44639e-05
3.34978e-05
8.49859e-05
0.000197489
0.000282611
1.32629e-05
2.33819e-05
4.98642e-05
0.000110544
0.000220864
0.000260431
2.40367e-05
4.1296e-05
7.71061e-05
0.000142586
0.000240167
0.000229945
1.26679e-05
1.92177e-05
3.06301e-05
5.20807e-05
9.26614e-05
0.000159046
8.71702e-06
1.41803e-05
2.3886e-05
4.28407e-05
8.24768e-05
0.000168825
5.67024e-06
1.00265e-05
1.80515e-05
3.48204e-05
7.39267e-05
0.000177151
3.78413e-06
7.1504e-06
1.36996e-05
2.86948e-05
6.83588e-05
0.00018545
2.66896e-06
5.42436e-06
1.10555e-05
2.51747e-05
6.68159e-05
0.000195184
1.99484e-06
4.34761e-06
9.55582e-06
2.39582e-05
7.0063e-05
0.000208074
1.64366e-06
3.79983e-06
9.13968e-06
2.54392e-05
7.94823e-05
0.000224113
1.53695e-06
3.7177e-06
9.94727e-06
3.04456e-05
9.66191e-05
0.000241855
1.68406e-06
4.2427e-06
1.25503e-05
4.02314e-05
0.00012156
0.0002578
2.14779e-06
5.67695e-06
1.772e-05
5.54374e-05
0.000152138
0.000267982
3.11466e-06
8.44907e-06
2.59819e-05
7.52387e-05
0.000184383
0.000269286
4.98251e-06
1.30371e-05
3.72184e-05
9.75685e-05
0.000213747
0.000259523
8.80196e-06
2.08782e-05
5.21031e-05
0.000121143
0.000234178
0.000240104
1.77024e-05
3.68778e-05
7.59611e-05
0.000146726
0.000236397
0.000210631
0.000239692
0.000235861
0.000212838
0.000172038
0.000130531
0.000100966
0.000272534
0.000234031
0.000191716
0.000139225
9.81983e-05
7.444e-05
0.000300905
0.000234681
0.000170099
0.000112083
7.28074e-05
5.23754e-05
0.000327084
0.000236187
0.000155818
9.57538e-05
5.80493e-05
3.89853e-05
0.000344562
0.000233128
0.000149632
8.86216e-05
5.13262e-05
3.18219e-05
0.000353227
0.00023286
0.000146931
8.61386e-05
4.88865e-05
2.83405e-05
0.00035584
0.000235883
0.000144822
8.54015e-05
4.72204e-05
2.53059e-05
0.000353646
0.000241239
0.000144476
8.3252e-05
4.43341e-05
2.21338e-05
0.000345788
0.00025068
0.000145525
8.03594e-05
4.10227e-05
1.94357e-05
0.000333728
0.00026157
0.000148298
7.93658e-05
3.97181e-05
1.85488e-05
0.000317114
0.000269561
0.000154364
8.33187e-05
4.25438e-05
2.05312e-05
0.000297019
0.00027258
0.000162218
9.23519e-05
5.0252e-05
2.63178e-05
0.000272721
0.000269713
0.000169565
0.000103668
6.1297e-05
3.56865e-05
0.000246173
0.000261003
0.00017501
0.000115602
7.45131e-05
4.76413e-05
0.000227875
0.000260952
0.000214982
0.000162386
0.000115773
8.42251e-05
0.000259895
0.000260401
0.000195189
0.000130914
8.36218e-05
5.67987e-05
0.00028786
0.000263392
0.000177915
0.000106627
6.01304e-05
3.71523e-05
0.000311327
0.000267258
0.000166252
9.24111e-05
4.83063e-05
2.68728e-05
0.000327662
0.000268216
0.000159124
8.3887e-05
4.26951e-05
2.27372e-05
0.000337142
0.000265983
0.000150725
7.92363e-05
4.00767e-05
2.01867e-05
0.000340042
0.000259554
0.000143139
7.46791e-05
3.70617e-05
1.78333e-05
0.000336997
0.000252946
0.000136983
7.03449e-05
3.44089e-05
1.60325e-05
0.000327967
0.000249634
0.000133867
6.79531e-05
3.29515e-05
1.50858e-05
0.000314785
0.000250065
0.000135181
6.91598e-05
3.39046e-05
1.56487e-05
0.000297733
0.000252034
0.000141315
7.48596e-05
3.78897e-05
1.80553e-05
0.000277621
0.00025369
0.000151232
8.53273e-05
4.58842e-05
2.33578e-05
0.000254288
0.000253241
0.000161683
9.79648e-05
5.67727e-05
3.15774e-05
0.000228784
0.000250774
0.000173252
0.000113325
7.10204e-05
4.31305e-05
0.000212769
0.000269159
0.000209638
0.000146854
9.53497e-05
5.96333e-05
0.000243901
0.000274477
0.00019324
0.000118494
6.7427e-05
3.68526e-05
0.000271663
0.000279458
0.000181932
0.000100549
5.02239e-05
2.68343e-05
0.000295731
0.000283451
0.000172113
8.92615e-05
4.48038e-05
2.28511e-05
0.000313712
0.000281823
0.000163081
8.37017e-05
4.12171e-05
1.98256e-05
0.000324785
0.000273277
0.000153604
7.7568e-05
3.71932e-05
1.70597e-05
0.000327923
0.000259248
0.000142097
7.04544e-05
3.2976e-05
1.46179e-05
0.000323701
0.000243892
0.000131454
6.48485e-05
3.02727e-05
1.3272e-05
0.000312805
0.000230796
0.000124345
6.19763e-05
2.92409e-05
1.28867e-05
0.000296864
0.000222388
0.000122588
6.30033e-05
3.06109e-05
1.38555e-05
0.000277422
0.000218773
0.000126539
6.7997e-05
3.42311e-05
1.60328e-05
0.000255781
0.000218045
0.000136126
7.79309e-05
4.15209e-05
2.06274e-05
0.000232184
0.000219494
0.000148532
9.05631e-05
5.1423e-05
2.74281e-05
0.000207292
0.00022356
0.000166688
0.00010929
6.67864e-05
3.86312e-05
0.000225423
0.000171989
0.000165943
0.000150915
0.000130439
0.000110132
0.000254875
0.000172732
0.000161786
0.000142009
0.000119158
9.94991e-05
0.000281352
0.000173941
0.000158174
0.000135064
0.000109533
8.81508e-05
0.000304053
0.000175815
0.000156792
0.000132352
0.000104761
8.16553e-05
0.000322184
0.000178795
0.000157992
0.000135108
0.000107222
8.14381e-05
0.00033543
0.000182961
0.00016183
0.000142973
0.000116136
8.41075e-05
0.000343425
0.000188275
0.000167663
0.000154265
0.000126924
8.71895e-05
0.000345251
0.000195593
0.00017611
0.00016642
0.000136779
8.91467e-05
0.000339985
0.000205034
0.00018736
0.000177564
0.000142157
8.79031e-05
0.00032887
0.000216437
0.000199634
0.00018431
0.00014173
8.5448e-05
0.000312266
0.000228921
0.0002109
0.00018639
0.000139036
8.52129e-05
0.000292372
0.000238449
0.000219014
0.000187623
0.000140621
9.19055e-05
0.000267901
0.000240189
0.000226371
0.000194851
0.000150568
0.00010678
0.000241343
0.000235613
0.000229786
0.000204614
0.00016728
0.000128638
0.00020686
0.000172562
0.000157958
0.000136067
0.000108452
8.48282e-05
0.000235298
0.000176416
0.000158474
0.000129192
9.69881e-05
7.34993e-05
0.000260526
0.000180987
0.000159304
0.000123965
8.69224e-05
6.13351e-05
0.000282543
0.000186395
0.000162563
0.000123871
8.2572e-05
5.45537e-05
0.000300014
0.000192317
0.000168314
0.000129008
8.39597e-05
5.28106e-05
0.000313033
0.000198447
0.000175666
0.000136753
8.92869e-05
5.15371e-05
0.00032114
0.000204315
0.00018261
0.000145092
9.22469e-05
5.2394e-05
0.000324291
0.000210646
0.000189275
0.000150418
9.55204e-05
5.30511e-05
0.000321273
0.000217975
0.000195288
0.000153735
9.70658e-05
5.30424e-05
0.00031136
0.000228498
0.000200284
0.000153895
9.72348e-05
5.39306e-05
0.000296461
0.000242307
0.000204776
0.000153908
9.95826e-05
5.81523e-05
0.000277696
0.000254123
0.000209999
0.000158868
0.00010867
6.8896e-05
0.000253935
0.000257697
0.000220183
0.000172887
0.000125831
8.68414e-05
0.000227805
0.000259489
0.000231352
0.00019252
0.000151026
0.000112689
0.000183402
0.000169276
0.000142609
0.000111346
7.72107e-05
5.29079e-05
0.000213731
0.000180188
0.000149356
0.000105179
6.62301e-05
4.35393e-05
0.00024211
0.000192129
0.000156068
0.000103628
6.0496e-05
3.62757e-05
0.000267956
0.000205065
0.000165484
0.000107381
6.01191e-05
3.33436e-05
0.000289541
0.000217856
0.000175873
0.000113098
6.02364e-05
3.29073e-05
0.000306309
0.000229349
0.000184528
0.000114213
6.17448e-05
3.24332e-05
0.000316968
0.000237324
0.000186239
0.000113596
6.1498e-05
3.13865e-05
0.000320988
0.000240571
0.000182638
0.000112491
6.0937e-05
3.08473e-05
0.000316538
0.000239422
0.000178301
0.000111275
6.09327e-05
3.10843e-05
0.000305326
0.000240496
0.000174494
0.000110628
6.25555e-05
3.30415e-05
0.00028763
0.000244706
0.000176279
0.000115211
6.8785e-05
3.81895e-05
0.00026583
0.000250154
0.000185073
0.000127433
8.17704e-05
4.91541e-05
0.000239561
0.000253143
0.000200354
0.000147562
0.000102244
6.70619e-05
0.000212198
0.000259217
0.000220776
0.000174268
0.000129836
9.23413e-05
2.71312e-05
1.87279e-05
1.31505e-05
9.76706e-06
7.99772e-06
7.33234e-06
7.45943e-06
8.11218e-06
9.18771e-06
1.04758e-05
1.18653e-05
1.32301e-05
1.47414e-05
1.75336e-05
1.52302e-05
9.49688e-06
6.34662e-06
4.60083e-06
3.71098e-06
3.3777e-06
3.45524e-06
3.83971e-06
4.50846e-06
5.39587e-06
6.46796e-06
7.64386e-06
9.05474e-06
1.13885e-05
1.09487e-05
5.70042e-06
3.30434e-06
2.20792e-06
1.71641e-06
1.54107e-06
1.57506e-06
1.77444e-06
2.14361e-06
2.683e-06
3.40251e-06
4.28896e-06
5.47866e-06
7.41576e-06
8.78732e-06
3.99601e-06
1.94118e-06
1.1182e-06
8.01386e-07
6.96845e-07
7.05658e-07
8.00112e-07
9.8765e-07
1.28963e-06
1.73939e-06
2.37377e-06
3.31507e-06
4.88997e-06
7.14337e-06
2.96936e-06
1.2444e-06
5.99316e-07
3.76586e-07
3.08801e-07
3.0733e-07
3.49611e-07
4.40437e-07
6.03119e-07
8.77285e-07
1.322e-06
2.0515e-06
3.31637e-06
5.77727e-06
2.25513e-06
8.48952e-07
3.43994e-07
1.80048e-07
1.3321e-07
1.28521e-07
1.4682e-07
1.90579e-07
2.78927e-07
4.4845e-07
7.6169e-07
1.32329e-06
2.3386e-06
4.70668e-06
1.76248e-06
6.1883e-07
2.17963e-07
9.15354e-08
5.65722e-08
5.11831e-08
5.9063e-08
8.13738e-08
1.32583e-07
2.43229e-07
4.69866e-07
9.06274e-07
1.7269e-06
4.01977e-06
1.46807e-06
4.9559e-07
1.59375e-07
5.44137e-08
2.54319e-08
1.99085e-08
2.35011e-08
3.66641e-08
7.04512e-08
1.49992e-07
3.24016e-07
6.76222e-07
1.35688e-06
3.64118e-06
1.31551e-06
4.37297e-07
1.34949e-07
4.04727e-08
1.40832e-08
8.4976e-09
1.05567e-08
2.04334e-08
4.7462e-08
1.13558e-07
2.6186e-07
5.69037e-07
1.16954e-06
3.67006e-06
1.33161e-06
4.4488e-07
1.36961e-07
3.94538e-08
1.17331e-08
5.61018e-09
7.44094e-09
1.72722e-08
4.42776e-08
1.09658e-07
2.54651e-07
5.53572e-07
1.13468e-06
4.02908e-06
1.45996e-06
4.89487e-07
1.53389e-07
4.61008e-08
1.50616e-08
8.26258e-09
1.08587e-08
2.319e-08
5.57643e-08
1.31619e-07
2.94935e-07
6.2387e-07
1.2504e-06
5.16751e-06
1.86788e-06
6.32324e-07
2.07497e-07
7.07727e-08
3.0414e-08
2.18733e-08
2.66517e-08
4.53779e-08
9.13946e-08
1.91852e-07
3.99654e-07
8.01518e-07
1.5434e-06
6.94774e-06
2.50089e-06
8.77871e-07
3.23103e-07
1.38186e-07
7.9874e-08
6.73364e-08
7.74471e-08
1.10847e-07
1.85223e-07
3.32985e-07
6.245e-07
1.15545e-06
2.09974e-06
1.03402e-05
3.85463e-06
1.53962e-06
6.84532e-07
3.55909e-07
2.37048e-07
2.0912e-07
2.32079e-07
3.02119e-07
4.42415e-07
6.87986e-07
1.13834e-06
1.88487e-06
3.10794e-06
1.50464e-05
1.03851e-05
7.52684e-06
5.80241e-06
4.9156e-06
4.66501e-06
4.92667e-06
5.57139e-06
6.51251e-06
7.64174e-06
8.8977e-06
1.02366e-05
1.17112e-05
1.38494e-05
9.59999e-06
5.72841e-06
3.80946e-06
2.79915e-06
2.29025e-06
2.1199e-06
2.22062e-06
2.5542e-06
3.09974e-06
3.83295e-06
4.73998e-06
5.79173e-06
7.04249e-06
8.85199e-06
7.34284e-06
3.70503e-06
2.10466e-06
1.39698e-06
1.07686e-06
9.60638e-07
9.87427e-07
1.14137e-06
1.4244e-06
1.84841e-06
2.42977e-06
3.1747e-06
4.15481e-06
5.61288e-06
5.92614e-06
2.64552e-06
1.26515e-06
7.20876e-07
5.06363e-07
4.29873e-07
4.31013e-07
4.96942e-07
6.33208e-07
8.60338e-07
1.2077e-06
1.70991e-06
2.44601e-06
3.59752e-06
4.83219e-06
1.97049e-06
8.1288e-07
3.86206e-07
2.36457e-07
1.87206e-07
1.82442e-07
2.09571e-07
2.72494e-07
3.89595e-07
5.91524e-07
9.24744e-07
1.46915e-06
2.37301e-06
3.93094e-06
1.50185e-06
5.54194e-07
2.20058e-07
1.11468e-07
7.89457e-08
7.39969e-08
8.5016e-08
1.14038e-07
1.74819e-07
2.93722e-07
5.16537e-07
9.17463e-07
1.62736e-06
3.19362e-06
1.16853e-06
4.01263e-07
1.38201e-07
5.60728e-08
3.29205e-08
2.87055e-08
3.32219e-08
4.73703e-08
8.08228e-08
1.54505e-07
3.07906e-07
6.0688e-07
1.1683e-06
2.64651e-06
9.43918e-07
3.12309e-07
9.87959e-08
3.2982e-08
1.47184e-08
1.09933e-08
1.29362e-08
2.08238e-08
4.16325e-08
9.17665e-08
2.04002e-07
4.3623e-07
8.92726e-07
2.28687e-06
8.11265e-07
2.67098e-07
8.21864e-08
2.45337e-08
8.29853e-09
4.70676e-09
5.69856e-09
1.12355e-08
2.68874e-08
6.63806e-08
1.57998e-07
3.54285e-07
7.50392e-07
2.14159e-06
7.72274e-07
2.60142e-07
8.13998e-08
2.38153e-08
7.09513e-09
3.23606e-09
4.04041e-09
9.31154e-09
2.43318e-08
6.20922e-08
1.4941e-07
3.37286e-07
7.18044e-07
2.19221e-06
8.05427e-07
2.79257e-07
9.09769e-08
2.82215e-08
9.40887e-09
5.10619e-09
6.35813e-09
1.30542e-08
3.12649e-08
7.51967e-08
1.73892e-07
3.81778e-07
7.9626e-07
2.59644e-06
9.66793e-07
3.45417e-07
1.2004e-07
4.28518e-08
1.90517e-08
1.40022e-08
1.69059e-08
2.78621e-08
5.49091e-08
1.1539e-07
2.44886e-07
5.05838e-07
1.00934e-06
3.24388e-06
1.22156e-06
4.6173e-07
1.82902e-07
8.27002e-08
4.97173e-08
4.34565e-08
5.09841e-08
7.25953e-08
1.19607e-07
2.13933e-07
4.03474e-07
7.60834e-07
1.42124e-06
4.55383e-06
1.7876e-06
7.56573e-07
3.56605e-07
1.99367e-07
1.42538e-07
1.33125e-07
1.53568e-07
2.03277e-07
2.97461e-07
4.60787e-07
7.58809e-07
1.26911e-06
2.1492e-06
8.89887e-06
6.24285e-06
4.66647e-06
3.69792e-06
3.19318e-06
3.08926e-06
3.34078e-06
3.89119e-06
4.68507e-06
5.66914e-06
6.80136e-06
8.06551e-06
9.48167e-06
1.1393e-05
5.93513e-06
3.63363e-06
2.50117e-06
1.87945e-06
1.54086e-06
1.41976e-06
1.49185e-06
1.74568e-06
2.17496e-06
2.77751e-06
3.55138e-06
4.48955e-06
5.6225e-06
7.18679e-06
4.47516e-06
2.33546e-06
1.39908e-06
9.63105e-07
7.4232e-07
6.48995e-07
6.56777e-07
7.62154e-07
9.72479e-07
1.3045e-06
1.77891e-06
2.415e-06
3.26123e-06
4.48322e-06
3.52941e-06
1.60949e-06
8.15513e-07
4.92116e-07
3.49673e-07
2.89504e-07
2.82219e-07
3.23258e-07
4.20108e-07
5.91381e-07
8.64652e-07
1.27586e-06
1.88694e-06
2.82206e-06
2.83845e-06
1.16405e-06
5.00717e-07
2.53775e-07
1.60083e-07
1.24084e-07
1.1682e-07
1.32452e-07
1.75686e-07
2.61339e-07
4.15346e-07
6.77793e-07
1.11259e-06
1.82734e-06
2.28343e-06
8.67026e-07
3.26397e-07
1.36618e-07
7.24954e-08
5.09239e-08
4.60941e-08
5.21605e-08
7.16126e-08
1.1494e-07
2.03097e-07
3.72578e-07
6.82027e-07
1.22898e-06
1.82685e-06
6.59403e-07
2.27023e-07
8.05301e-08
3.42768e-08
2.03889e-08
1.73066e-08
1.97998e-08
2.91054e-08
5.23487e-08
1.05317e-07
2.18039e-07
4.41358e-07
8.63059e-07
1.47901e-06
5.20586e-07
1.71669e-07
5.4941e-08
1.89097e-08
8.65867e-09
6.40186e-09
7.52103e-09
1.25844e-08
2.65174e-08
6.10985e-08
1.40294e-07
3.07633e-07
6.41264e-07
1.24218e-06
4.38946e-07
1.44911e-07
4.49312e-08
1.35926e-08
4.67638e-09
2.6599e-09
3.24661e-09
6.63858e-09
1.65536e-08
4.23677e-08
1.04044e-07
2.40084e-07
5.21523e-07
1.12813e-06
4.13515e-07
1.42016e-07
4.51206e-08
1.33291e-08
4.01453e-09
1.8577e-09
2.31943e-09
5.3889e-09
1.44076e-08
3.79237e-08
9.44191e-08
2.20674e-07
4.85583e-07
1.13328e-06
4.36077e-07
1.57621e-07
5.26839e-08
1.65559e-08
5.65513e-09
3.20763e-09
3.96429e-09
7.87347e-09
1.86946e-08
4.57116e-08
1.08871e-07
2.47501e-07
5.34781e-07
1.28836e-06
5.20163e-07
1.98658e-07
7.16887e-08
2.60766e-08
1.20099e-08
9.29595e-09
1.13715e-08
1.8265e-08
3.50631e-08
7.34653e-08
1.58351e-07
3.36117e-07
6.91138e-07
1.5584e-06
6.57174e-07
2.70955e-07
1.11606e-07
5.10635e-08
3.16406e-08
2.91235e-08
3.52927e-08
5.03252e-08
8.1716e-08
1.45209e-07
2.74931e-07
5.28128e-07
1.00751e-06
2.01894e-06
8.97298e-07
4.19247e-07
2.09127e-07
1.2033e-07
8.90967e-08
8.77058e-08
1.05688e-07
1.4266e-07
2.08983e-07
3.24146e-07
5.33743e-07
9.08136e-07
1.57127e-06
6.23065e-06
4.54717e-06
3.46465e-06
2.75273e-06
2.34325e-06
2.22188e-06
2.37262e-06
2.77485e-06
3.40665e-06
4.24323e-06
5.25398e-06
6.42455e-06
7.77996e-06
9.55338e-06
4.06195e-06
2.64025e-06
1.89432e-06
1.44121e-06
1.16439e-06
1.039e-06
1.05821e-06
1.22415e-06
1.54509e-06
2.0317e-06
2.69129e-06
3.52654e-06
4.56187e-06
5.97665e-06
2.88899e-06
1.60847e-06
1.03439e-06
7.37607e-07
5.65927e-07
4.78281e-07
4.63944e-07
5.25501e-07
6.74893e-07
9.32319e-07
1.3222e-06
1.86978e-06
2.61808e-06
3.6945e-06
2.14986e-06
1.02865e-06
5.68749e-07
3.66769e-07
2.64207e-07
2.12302e-07
1.97269e-07
2.18711e-07
2.8497e-07
4.13932e-07
6.32507e-07
9.76711e-07
1.5018e-06
2.30857e-06
1.64072e-06
6.90955e-07
3.22162e-07
1.79467e-07
1.18055e-07
8.96856e-08
8.03091e-08
8.77677e-08
1.16806e-07
1.80219e-07
3.01106e-07
5.15715e-07
8.80002e-07
1.48565e-06
1.26022e-06
4.82613e-07
1.92569e-07
8.92808e-08
5.11858e-08
3.59745e-08
3.10609e-08
3.38835e-08
4.69688e-08
7.88414e-08
1.47142e-07
2.83021e-07
5.37088e-07
9.92756e-07
9.70332e-07
3.4967e-07
1.24422e-07
4.79168e-08
2.25675e-08
1.39283e-08
1.14297e-08
1.2678e-08
1.9024e-08
3.6074e-08
7.65828e-08
1.65225e-07
3.44948e-07
6.89899e-07
7.64828e-07
2.68767e-07
9.01876e-08
3.02658e-08
1.13212e-08
5.56611e-09
4.11188e-09
4.76327e-09
8.24461e-09
1.83281e-08
4.41851e-08
1.04887e-07
2.36202e-07
5.03098e-07
6.38277e-07
2.27725e-07
7.64317e-08
2.42748e-08
7.64092e-09
2.7869e-09
1.64473e-09
2.03254e-09
4.30992e-09
1.12104e-08
2.974e-08
7.52721e-08
1.78522e-07
3.97754e-07
5.94881e-07
2.23486e-07
7.81873e-08
2.50977e-08
7.48148e-09
2.31578e-09
1.13178e-09
1.44757e-09
3.40437e-09
9.33224e-09
2.53666e-08
6.53216e-08
1.57856e-07
3.58865e-07
6.30113e-07
2.50911e-07
9.20103e-08
3.07199e-08
9.64831e-09
3.41562e-09
2.09255e-09
2.62297e-09
5.0812e-09
1.20039e-08
2.99423e-08
7.35799e-08
1.73283e-07
3.88269e-07
7.49691e-07
3.13263e-07
1.20157e-07
4.28465e-08
1.56088e-08
7.62425e-09
6.39555e-09
7.9949e-09
1.25998e-08
2.36805e-08
4.96796e-08
1.09051e-07
2.38221e-07
5.06192e-07
9.40511e-07
4.09554e-07
1.67849e-07
6.77858e-08
3.12392e-08
2.06532e-08
2.04258e-08
2.55143e-08
3.64156e-08
5.84925e-08
1.03767e-07
1.98054e-07
3.88533e-07
7.60473e-07
1.21788e-06
5.65071e-07
2.60988e-07
1.2677e-07
7.35455e-08
5.7913e-08
6.10398e-08
7.62659e-08
1.04284e-07
1.53237e-07
2.39391e-07
3.98041e-07
6.9171e-07
1.22599e-06
4.97199e-06
3.74996e-06
2.89342e-06
2.2924e-06
1.90961e-06
1.7416e-06
1.79085e-06
2.06282e-06
2.5561e-06
3.25338e-06
4.14391e-06
5.21481e-06
6.50217e-06
8.18592e-06
3.10281e-06
2.13092e-06
1.57926e-06
1.21172e-06
9.66096e-07
8.30916e-07
8.07053e-07
9.04902e-07
1.14185e-06
1.53345e-06
2.09502e-06
2.83605e-06
3.78897e-06
5.10039e-06
2.05622e-06
1.22789e-06
8.39647e-07
6.15437e-07
4.70956e-07
3.85776e-07
3.5601e-07
3.86766e-07
4.92213e-07
6.93612e-07
1.01734e-06
1.49191e-06
2.16327e-06
3.1418e-06
1.41898e-06
7.25858e-07
4.39041e-07
2.99456e-07
2.18414e-07
1.71134e-07
1.5129e-07
1.59999e-07
2.05474e-07
3.04506e-07
4.83164e-07
7.77002e-07
1.23969e-06
1.96446e-06
1.00191e-06
4.44112e-07
2.30132e-07
1.40767e-07
9.61043e-08
7.18578e-08
6.12683e-08
6.37179e-08
8.35457e-08