/*--------------------------------*- C++ -*----------------------------------*\
| =========                 |                                                 |
| \\      /  F ield         | OpenFOAM: The Open Source CFD Toolbox           |
|  \\    /   O peration     | Version:  v2106                                 |
|   \\  /    A nd           | Website:  www.openfoam.com                      |
|    \\/     M anipulation  |                                                 |
\*---------------------------------------------------------------------------*/
FoamFile
{
    version     2.0;
    format      ascii;
    arch        "LSB;label=32;scalar=64";
    class       volScalarField;
    location    "0.000215";
    object      nut;
}
// * * * * * * * * * * * * * * * * * * * * * * * * * * * * * * * * * * * * * //

dimensions      [0 2 -1 0 0 0 0];

internalField   nonuniform List<scalar> 
144746
(
3.92246e-05
3.04527e-05
2.37256e-05
1.98917e-05
1.89309e-05
1.9528e-05
2.09323e-05
2.22177e-05
2.33545e-05
2.48665e-05
2.68115e-05
3.0325e-05
3.63653e-05
4.28573e-05
2.70441e-05
1.93812e-05
1.41633e-05
1.09511e-05
9.62774e-06
9.55937e-06
1.04469e-05
1.18182e-05
1.34578e-05
1.53799e-05
1.80655e-05
2.13211e-05
2.61451e-05
3.3338e-05
1.78219e-05
1.2363e-05
9.00542e-06
6.71433e-06
5.47323e-06
5.03847e-06
5.34184e-06
6.25173e-06
7.65203e-06
9.39921e-06
1.15288e-05
1.44612e-05
1.77693e-05
2.3685e-05
1.2366e-05
8.60205e-06
6.13934e-06
4.41607e-06
3.37008e-06
2.86374e-06
2.86289e-06
3.35745e-06
4.34381e-06
5.7582e-06
7.48281e-06
9.28399e-06
1.15396e-05
1.59504e-05
9.50561e-06
6.38248e-06
4.29974e-06
2.91765e-06
2.08227e-06
1.64809e-06
1.55291e-06
1.8004e-06
2.44275e-06
3.49624e-06
4.87817e-06
6.39293e-06
8.18471e-06
1.13333e-05
7.6601e-06
4.74673e-06
2.9332e-06
1.83684e-06
1.21719e-06
9.03653e-07
8.13563e-07
9.43716e-07
1.35786e-06
2.1136e-06
3.19255e-06
4.48215e-06
5.95924e-06
8.66168e-06
6.12918e-06
3.4066e-06
1.88926e-06
1.0735e-06
6.55236e-07
4.5806e-07
4.02551e-07
4.84006e-07
7.6004e-07
1.30293e-06
2.14051e-06
3.23712e-06
4.61328e-06
7.16733e-06
4.83357e-06
2.38509e-06
1.16772e-06
5.89907e-07
3.26352e-07
2.1492e-07
1.91435e-07
2.54827e-07
4.54379e-07
8.62013e-07
1.53079e-06
2.47725e-06
3.80367e-06
6.44442e-06
3.90826e-06
1.74221e-06
7.56092e-07
3.34014e-07
1.62975e-07
1.00995e-07
9.80401e-08
1.56924e-07
3.20115e-07
6.54096e-07
1.22257e-06
2.08576e-06
3.45725e-06
6.35321e-06
3.59327e-06
1.5278e-06
6.19066e-07
2.48483e-07
1.09363e-07
6.6018e-08
7.27189e-08
1.33128e-07
2.8578e-07
5.93937e-07
1.13247e-06
2.01484e-06
3.58957e-06
6.83318e-06
4.05191e-06
1.77585e-06
7.41749e-07
3.06854e-07
1.41967e-07
9.13251e-08
9.88691e-08
1.64837e-07
3.26829e-07
6.52192e-07
1.24026e-06
2.28951e-06
4.26489e-06
7.86272e-06
5.61816e-06
2.73543e-06
1.29753e-06
6.061e-07
3.08712e-07
2.04015e-07
1.97665e-07
2.72223e-07
4.63434e-07
8.52939e-07
1.58956e-06
2.98531e-06
5.54411e-06
9.50998e-06
8.38879e-06
4.57429e-06
2.50463e-06
1.3676e-06
7.72138e-07
5.09201e-07
4.45762e-07
5.23269e-07
7.61939e-07
1.25971e-06
2.2273e-06
4.12571e-06
7.38561e-06
1.1699e-05
1.19824e-05
7.10551e-06
4.39609e-06
2.81315e-06
1.81971e-06
1.25312e-06
1.02779e-06
1.06474e-06
1.34917e-06
1.97391e-06
3.18874e-06
5.5874e-06
9.47153e-06
1.40836e-05
3.29388e-05
2.38798e-05
1.75581e-05
1.38065e-05
1.22466e-05
1.19076e-05
1.22451e-05
1.27391e-05
1.32917e-05
1.38902e-05
1.56115e-05
1.84187e-05
2.43505e-05
3.15077e-05
2.01955e-05
1.36721e-05
1.00064e-05
7.69137e-06
6.53263e-06
6.18912e-06
6.43029e-06
6.98708e-06
7.76509e-06
8.63391e-06
9.7902e-06
1.20533e-05
1.61266e-05
2.27144e-05
1.14082e-05
7.85485e-06
5.77432e-06
4.40902e-06
3.62884e-06
3.31577e-06
3.39918e-06
3.79123e-06
4.45879e-06
5.3381e-06
6.44979e-06
7.91395e-06
1.06555e-05
1.50454e-05
7.50871e-06
5.02072e-06
3.55202e-06
2.63648e-06
2.08941e-06
1.82575e-06
1.81597e-06
2.0448e-06
2.52282e-06
3.24087e-06
4.1967e-06
5.37244e-06
6.96407e-06
9.98717e-06
5.77514e-06
3.56939e-06
2.3328e-06
1.61868e-06
1.21017e-06
1.00311e-06
9.61056e-07
1.08049e-06
1.39466e-06
1.93527e-06
2.7041e-06
3.69562e-06
4.98541e-06
7.14802e-06
4.73175e-06
2.65494e-06
1.56229e-06
9.83361e-07
6.77997e-07
5.28144e-07
4.86851e-07
5.4955e-07
7.52957e-07
1.14191e-06
1.74287e-06
2.56655e-06
3.65938e-06
5.38345e-06
3.8908e-06
1.98011e-06
1.03547e-06
5.77146e-07
3.58311e-07
2.59272e-07
2.31458e-07
2.68824e-07
4.02885e-07
6.82003e-07
1.14753e-06
1.83104e-06
2.78269e-06
4.28814e-06
3.28587e-06
1.52233e-06
7.01592e-07
3.37039e-07
1.81439e-07
1.18895e-07
1.04294e-07
1.31849e-07
2.26922e-07
4.34659e-07
8.04435e-07
1.38152e-06
2.23639e-06
3.66347e-06
2.94757e-06
1.26845e-06
5.23391e-07
2.15304e-07
9.63843e-08
5.47996e-08
4.89504e-08
7.39758e-08
1.50945e-07
3.20437e-07
6.33682e-07
1.14802e-06
1.96236e-06
3.39947e-06
2.99863e-06
1.24894e-06
4.86944e-07
1.81468e-07
6.97163e-08
3.44113e-08
3.24065e-08
5.83023e-08
1.31071e-07
2.89048e-07
5.85292e-07
1.08956e-06
1.93511e-06
3.45811e-06
3.47551e-06
1.45758e-06
5.74443e-07
2.17375e-07
8.60288e-08
4.47338e-08
4.25423e-08
7.16624e-08
1.50909e-07
3.20259e-07
6.39104e-07
1.19584e-06
2.15139e-06
3.84657e-06
4.67482e-06
2.05856e-06
8.76185e-07
3.70526e-07
1.69081e-07
9.92694e-08
8.97855e-08
1.24401e-07
2.21492e-07
4.26996e-07
8.14654e-07
1.50269e-06
2.67195e-06
4.66167e-06
6.67495e-06
3.11988e-06
1.47871e-06
7.33063e-07
3.91216e-07
2.49991e-07
2.16472e-07
2.57265e-07
3.85044e-07
6.53645e-07
1.16538e-06
2.0931e-06
3.71043e-06
6.10667e-06
9.53663e-06
4.68308e-06
2.45052e-06
1.41312e-06
8.75945e-07
6.07289e-07
5.16532e-07
5.57785e-07
7.30741e-07
1.09725e-06
1.78861e-06
3.08127e-06
5.3262e-06
8.27362e-06
2.34905e-05
1.63959e-05
1.16761e-05
8.78159e-06
7.30328e-06
6.74339e-06
6.76712e-06
7.08828e-06
7.65049e-06
8.23936e-06
8.83721e-06
9.6402e-06
1.22082e-05
1.83102e-05
1.22622e-05
8.43956e-06
6.01009e-06
4.50773e-06
3.70051e-06
3.38533e-06
3.42683e-06
3.69058e-06
4.15299e-06
4.72206e-06
5.38509e-06
6.15985e-06
7.65517e-06
1.18778e-05
7.06716e-06
4.503e-06
3.09784e-06
2.3041e-06
1.87731e-06
1.70096e-06
1.72153e-06
1.89168e-06
2.2124e-06
2.65744e-06
3.23919e-06
3.97085e-06
5.17732e-06
7.45729e-06
5.20329e-06
2.88661e-06
1.77384e-06
1.23583e-06
9.72339e-07
8.60313e-07
8.58756e-07
9.51051e-07
1.1517e-06
1.46963e-06
1.92649e-06
2.5546e-06
3.53434e-06
5.15478e-06
4.19434e-06
2.08324e-06
1.12292e-06
6.99757e-07
5.11252e-07
4.32098e-07
4.19882e-07
4.64616e-07
5.82804e-07
7.97894e-07
1.14048e-06
1.65193e-06
2.44327e-06
3.70351e-06
3.42157e-06
1.57062e-06
7.52523e-07
4.08688e-07
2.66732e-07
2.09845e-07
1.96584e-07
2.17581e-07
2.86252e-07
4.29005e-07
6.8022e-07
1.08653e-06
1.72701e-06
2.75413e-06
2.81801e-06
1.22002e-06
5.2823e-07
2.46799e-07
1.37309e-07
9.65998e-08
8.6367e-08
9.72938e-08
1.39004e-07
2.35214e-07
4.20268e-07
7.41679e-07
1.26851e-06
2.13255e-06
2.49398e-06
1.03345e-06
4.11171e-07
1.65187e-07
7.45777e-08
4.35705e-08
3.62112e-08
4.33914e-08
7.17941e-08
1.4108e-07
2.83165e-07
5.44547e-07
9.92317e-07
1.74444e-06
2.38714e-06
9.61829e-07
3.61839e-07
1.29946e-07
4.78975e-08
2.1684e-08
1.61785e-08
2.24539e-08
4.57201e-08
1.02802e-07
2.22936e-07
4.50664e-07
8.53552e-07
1.54431e-06
2.56676e-06
1.02721e-06
3.79419e-07
1.30382e-07
4.32684e-08
1.6196e-08
1.09463e-08
1.75778e-08
4.07117e-08
9.63421e-08
2.12713e-07
4.33323e-07
8.26832e-07
1.50574e-06
2.98138e-06
1.19461e-06
4.44878e-07
1.56651e-07
5.46392e-08
2.22739e-08
1.58874e-08
2.37487e-08
5.05285e-08
1.13296e-07
2.41735e-07
4.80663e-07
9.0239e-07
1.62359e-06
3.8839e-06
1.57763e-06
6.11106e-07
2.35825e-07
9.65188e-08
4.85785e-08
3.75956e-08
4.76291e-08
8.28533e-08
1.62941e-07
3.21274e-07
6.06967e-07
1.09796e-06
1.91573e-06
5.23874e-06
2.1555e-06
8.89437e-07
3.96121e-07
1.98499e-07
1.20924e-07
9.93269e-08
1.12918e-07
1.63877e-07
2.75642e-07
4.87936e-07
8.63939e-07
1.49784e-06
2.49684e-06
7.3732e-06
3.04967e-06
1.35743e-06
7.02392e-07
4.22397e-07
2.98111e-07
2.5766e-07
2.78655e-07
3.60344e-07
5.31398e-07
8.39764e-07
1.38582e-06
2.31192e-06
3.67389e-06
5.06934e-05
6.04101e-05
6.78423e-05
7.1808e-05
7.31664e-05
9.66833e-05
4.1788e-05
5.4008e-05
6.45291e-05
7.11672e-05
7.65912e-05
0.000107857
3.31175e-05
4.79135e-05
6.09921e-05
6.93779e-05
7.80603e-05
0.000118117
2.55258e-05
4.23765e-05
5.75078e-05
6.66136e-05
7.74346e-05
0.000127064
1.95788e-05
3.73905e-05
5.366e-05
6.31606e-05
7.55082e-05
0.000134539
1.61028e-05
3.27809e-05
4.93799e-05
5.9549e-05
7.31743e-05
0.000140224
1.44326e-05
2.89603e-05
4.44361e-05
5.57209e-05
7.0912e-05
0.000144241
1.35553e-05
2.57798e-05
3.94376e-05
5.16996e-05
6.8746e-05
0.000145741
1.30207e-05
2.2825e-05
3.46451e-05
4.75956e-05
6.66515e-05
0.000144344
1.2756e-05
2.0376e-05
3.04932e-05
4.37125e-05
6.43469e-05
0.000139556
1.29254e-05
1.89284e-05
2.75998e-05
4.05839e-05
6.19132e-05
0.000131687
1.36923e-05
1.86802e-05
2.63038e-05
3.86769e-05
5.94379e-05
0.000121249
1.49425e-05
1.93655e-05
2.65868e-05
3.83388e-05
5.77248e-05
0.000109319
1.62141e-05
2.06534e-05
2.8097e-05
3.9376e-05
5.70317e-05
9.59454e-05
3.97308e-05
5.00348e-05
5.94887e-05
6.6784e-05
7.19994e-05
8.8329e-05
2.96307e-05
4.00345e-05
5.16793e-05
6.26167e-05
7.30591e-05
9.80598e-05
2.13726e-05
3.1894e-05
4.49217e-05
5.83218e-05
7.27895e-05
0.00010682
1.52615e-05
2.55397e-05
3.94126e-05
5.42187e-05
7.06824e-05
0.000114348
1.13419e-05
2.08836e-05
3.49937e-05
5.02715e-05
6.76127e-05
0.000120698
8.96014e-06
1.75322e-05
3.14981e-05
4.67641e-05
6.49803e-05
0.000125905
7.61177e-06
1.52339e-05
2.82406e-05
4.32392e-05
6.27616e-05
0.000129901
6.87178e-06
1.37466e-05
2.52806e-05
3.98084e-05
6.11179e-05
0.000131705
6.53406e-06
1.25268e-05
2.24486e-05
3.64487e-05
5.95788e-05
0.00013053
6.47396e-06
1.14793e-05
1.98751e-05
3.32517e-05
5.76077e-05
0.000125926
6.70192e-06
1.08624e-05
1.80253e-05
3.06487e-05
5.52855e-05
0.000118315
7.34419e-06
1.09468e-05
1.72795e-05
2.91199e-05
5.29151e-05
0.000108448
8.47567e-06
1.18373e-05
1.78422e-05
2.90854e-05
5.14877e-05
9.70987e-05
9.79922e-06
1.32463e-05
1.94921e-05
3.0437e-05
5.09454e-05
8.44332e-05
2.56094e-05
3.60791e-05
4.71013e-05
5.68124e-05
6.71236e-05
7.61366e-05
1.76448e-05
2.59513e-05
3.62213e-05
4.78129e-05
6.29374e-05
8.37385e-05
1.16894e-05
1.85495e-05
2.78255e-05
4.02849e-05
5.89006e-05
9.0552e-05
7.82489e-06
1.352e-05
2.18243e-05
3.43873e-05
5.42025e-05
9.66743e-05
5.84759e-06
1.02078e-05
1.77403e-05
3.00486e-05
5.00502e-05
0.000102342
4.57579e-06
8.1399e-06
1.49749e-05
2.69161e-05
4.68484e-05
0.00010774
3.7114e-06
6.7887e-06
1.31294e-05
2.44187e-05
4.45207e-05
0.000112383
3.15755e-06
5.96095e-06
1.18338e-05
2.25033e-05
4.34432e-05
0.000114974
2.87041e-06
5.48438e-06
1.08062e-05
2.09094e-05
4.28405e-05
0.000114547
2.79794e-06
5.19417e-06
9.93107e-06
1.95276e-05
4.20804e-05
0.00011048
2.91425e-06
5.08326e-06
9.29714e-06
1.83787e-05
4.09491e-05
0.000103119
3.231e-06
5.22677e-06
9.08072e-06
1.76951e-05
3.9587e-05
9.33495e-05
3.80176e-06
5.76386e-06
9.54057e-06
1.79364e-05
3.87036e-05
8.22232e-05
4.53443e-06
6.61132e-06
1.07354e-05
1.93443e-05
3.85887e-05
7.03193e-05
1.70565e-05
2.25781e-05
3.07835e-05
4.18469e-05
5.86138e-05
9.60949e-05
1.20087e-05
1.69925e-05
2.51891e-05
3.74816e-05
5.75149e-05
0.000104159
7.76397e-06
1.21192e-05
2.01119e-05
3.30694e-05
5.51741e-05
0.0001109
5.02711e-06
8.68671e-06
1.62328e-05
2.92577e-05
5.23185e-05
0.000116788
3.54487e-06
6.74458e-06
1.36908e-05
2.61159e-05
4.95622e-05
0.000122345
2.80198e-06
5.90103e-06
1.24136e-05
2.40618e-05
4.771e-05
0.000127793
2.51906e-06
5.65955e-06
1.19105e-05
2.28081e-05
4.76664e-05
0.000133121
2.60721e-06
5.78021e-06
1.17422e-05
2.25106e-05
4.9908e-05
0.000137688
3.01986e-06
6.09904e-06
1.17084e-05
2.30091e-05
5.4769e-05
0.000140367
3.7218e-06
6.59399e-06
1.20266e-05
2.48379e-05
6.14659e-05
0.000140052
4.7112e-06
7.45984e-06
1.33191e-05
2.86999e-05
6.93398e-05
0.000136136
6.21681e-06
9.29972e-06
1.66085e-05
3.53242e-05
7.82319e-05
0.000128656
8.8756e-06
1.32119e-05
2.32373e-05
4.54498e-05
8.8864e-05
0.00011791
1.3488e-05
2.04943e-05
3.44417e-05
5.95875e-05
0.000101776
0.000104537
1.08919e-05
1.52547e-05
2.20305e-05
3.2998e-05
5.20837e-05
8.35806e-05
7.44646e-06
1.11055e-05
1.71417e-05
2.76588e-05
4.76324e-05
8.97282e-05
4.70697e-06
7.66423e-06
1.29186e-05
2.28979e-05
4.30142e-05
9.48005e-05
3.03585e-06
5.32801e-06
9.80801e-06
1.90353e-05
3.90477e-05
9.92996e-05
2.10335e-06
4.01529e-06
7.91134e-06
1.63923e-05
3.65148e-05
0.000103907
1.5824e-06
3.29011e-06
6.89111e-06
1.49533e-05
3.58978e-05
0.000109111
1.33155e-06
2.94927e-06
6.44616e-06
1.45744e-05
3.79575e-05
0.000115092
1.28575e-06
2.88734e-06
6.43781e-06
1.53426e-05
4.29683e-05
0.00012135
1.43211e-06
3.05793e-06
6.88745e-06
1.75423e-05
5.11745e-05
0.00012644
1.77633e-06
3.50069e-06
8.00355e-06
2.16242e-05
6.17898e-05
0.000128617
2.36573e-06
4.38628e-06
1.02813e-05
2.79004e-05
7.33473e-05
0.00012681
3.43694e-06
6.20151e-06
1.43562e-05
3.64115e-05
8.45024e-05
0.000120888
5.68244e-06
1.00268e-05
2.13694e-05
4.73317e-05
9.43915e-05
0.000111167
1.0327e-05
1.77575e-05
3.31339e-05
6.1174e-05
0.000102803
9.83277e-05
5.34246e-06
8.11025e-06
1.29441e-05
2.20774e-05
3.93823e-05
6.78926e-05
3.67946e-06
5.98987e-06
1.01026e-05
1.81815e-05
3.5104e-05
7.22357e-05
2.39447e-06
4.23813e-06
7.64129e-06
1.47975e-05
3.15213e-05
7.6009e-05
1.59884e-06
3.02426e-06
5.80353e-06
1.22078e-05
2.91988e-05
7.97991e-05
1.12839e-06
2.2959e-06
4.68803e-06
1.07225e-05
2.85939e-05
8.42573e-05
8.4409e-07
1.84186e-06
4.05699e-06
1.02199e-05
3.00492e-05
9.01129e-05
6.96155e-07
1.61174e-06
3.88663e-06
1.08746e-05
3.41779e-05
9.74229e-05
6.51715e-07
1.57919e-06
4.23849e-06
1.30467e-05
4.16608e-05
0.000105531
7.15082e-07
1.80517e-06
5.35971e-06
1.72866e-05
5.25443e-05
0.000112847
9.13435e-07
2.42022e-06
7.58496e-06
2.38849e-05
6.58751e-05
0.000117518
1.32697e-06
3.61076e-06
1.11451e-05
3.24875e-05
7.98992e-05
0.000118062
2.12668e-06
5.58666e-06
1.59967e-05
4.2196e-05
9.26776e-05
0.000113803
3.76454e-06
8.96998e-06
2.24319e-05
5.24208e-05
0.000101514
0.000105034
7.61045e-06
1.59349e-05
3.28847e-05
6.37737e-05
0.000102786
9.23252e-05
0.000101211
0.000100184
9.05665e-05
7.34851e-05
5.58811e-05
4.32756e-05
0.000115068
9.91458e-05
8.13226e-05
5.92568e-05
4.18926e-05
3.17941e-05
0.000127333
9.95949e-05
7.22965e-05
4.77951e-05
3.11048e-05
2.23923e-05
0.000138142
0.00010045
6.63312e-05
4.08767e-05
2.48123e-05
1.66735e-05
0.0001455
9.93506e-05
6.38219e-05
3.78741e-05
2.19488e-05
1.36122e-05
0.000149682
9.91063e-05
6.26318e-05
3.67959e-05
2.09003e-05
1.21207e-05
0.000150935
0.000100431
6.17172e-05
3.64607e-05
2.01769e-05
1.08189e-05
0.000149932
0.000102677
6.15182e-05
3.55028e-05
1.89254e-05
9.45757e-06
0.000146567
0.000106608
6.19031e-05
3.42313e-05
1.74958e-05
8.3006e-06
0.000141177
0.000110973
6.2951e-05
3.37544e-05
1.69205e-05
7.91746e-06
0.000134071
0.000114259
6.54733e-05
3.54101e-05
1.8111e-05
8.75933e-06
0.000125469
0.000115477
6.87352e-05
3.92191e-05
2.13743e-05
1.12233e-05
0.000115333
0.000114311
7.18696e-05
4.40362e-05
2.60678e-05
1.5215e-05
0.000103878
0.000110392
7.40178e-05
4.89751e-05
3.16274e-05
2.02685e-05
9.66137e-05
0.000111269
9.18887e-05
6.96702e-05
4.97733e-05
3.62035e-05
0.000110306
0.000110912
8.32509e-05
5.59854e-05
3.58162e-05
2.43159e-05
0.000122358
0.000112329
7.602e-05
4.56817e-05
2.57911e-05
1.59211e-05
0.000132255
0.000114112
7.11152e-05
3.96226e-05
2.07261e-05
1.15197e-05
0.000139531
0.000114737
6.81698e-05
3.59926e-05
1.832e-05
9.74764e-06
0.0001439
0.000113899
6.46033e-05
3.39874e-05
1.71885e-05
8.65214e-06
0.000145318
0.000111252
6.13711e-05
3.20244e-05
1.5889e-05
7.64244e-06
0.000144059
0.000108385
5.86998e-05
3.01459e-05
1.47444e-05
6.87002e-06
0.00014018
0.000106912
5.73311e-05
2.91057e-05
1.41166e-05
6.46477e-06
0.000134379
0.000106926
5.78229e-05
2.96023e-05
1.45221e-05
6.70722e-06
0.000127049
0.000107713
6.04314e-05
3.20412e-05
1.62303e-05
7.74045e-06
0.000118426
0.000108341
6.46423e-05
3.65245e-05
1.96592e-05
1.00177e-05
0.000108513
0.000108193
6.91585e-05
4.19635e-05
2.43337e-05
1.35478e-05
9.74662e-05
0.000106902
7.39539e-05
4.84343e-05
3.04041e-05
1.84803e-05
9.14787e-05
0.000115692
9.03848e-05
6.34132e-05
4.11988e-05
2.56933e-05
0.000105027
0.000117889
8.31538e-05
5.09514e-05
2.89994e-05
1.57994e-05
0.000117452
0.000120313
7.84786e-05
4.32951e-05
2.16194e-05
1.15097e-05
0.000128115
0.000122195
7.43422e-05
3.84577e-05
1.92817e-05
9.79821e-06
0.000136422
0.000121742
7.05322e-05
3.60774e-05
1.77264e-05
8.49607e-06
0.000141455
0.000118156
6.64139e-05
3.34144e-05
1.59755e-05
7.30513e-06
0.000142895
0.000112093
6.13899e-05
3.0324e-05
1.41507e-05
6.25594e-06
0.000140928
0.000105367
5.67241e-05
2.78803e-05
1.29796e-05
5.67746e-06
0.000136046
9.96423e-05
5.36053e-05
2.66283e-05
1.25329e-05
5.51231e-06
0.000129035
9.59925e-05
5.28205e-05
2.70604e-05
1.31189e-05
5.92752e-06
0.000120658
9.44934e-05
5.4547e-05
2.92168e-05
1.46777e-05
6.86201e-06
0.000111326
9.42239e-05
5.87133e-05
3.3508e-05
1.78186e-05
8.83539e-06
0.000101212
9.49796e-05
6.42001e-05
3.90016e-05
2.20982e-05
1.17627e-05
9.05507e-05
9.68542e-05
7.20589e-05
4.70704e-05
2.87197e-05
1.65771e-05
9.46216e-05
7.25347e-05
7.01617e-05
6.4167e-05
5.56574e-05
4.71114e-05
0.000106946
7.28049e-05
6.83571e-05
6.02868e-05
5.07505e-05
4.24711e-05
0.000118044
7.33564e-05
6.69012e-05
5.74368e-05
4.67201e-05
3.76707e-05
0.000127598
7.42295e-05
6.63801e-05
5.63484e-05
4.47377e-05
3.49457e-05
0.000135354
7.56361e-05
6.70206e-05
5.7641e-05
4.58651e-05
3.4899e-05
0.000141171
7.75552e-05
6.87746e-05
6.10829e-05
4.97243e-05
3.60749e-05
0.000144831
7.99719e-05
7.13928e-05
6.59907e-05
5.43868e-05
3.74134e-05
0.00014587
8.31698e-05
7.50787e-05
7.12346e-05
5.86283e-05
3.82538e-05
0.000143846
8.72312e-05
7.99239e-05
7.60127e-05
6.09243e-05
3.77117e-05
0.000139139
9.20658e-05
8.51083e-05
7.88458e-05
6.07093e-05
3.66467e-05
0.000132231
9.73307e-05
8.98463e-05
7.9684e-05
5.95169e-05
3.65249e-05
0.000123544
0.000101255
9.31699e-05
8.00998e-05
6.01038e-05
3.93584e-05
0.000113248
0.00010206
9.62218e-05
8.30873e-05
6.42925e-05
4.57184e-05
0.000101699
9.97589e-05
9.72806e-05
8.68141e-05
7.10127e-05
5.48068e-05
8.68924e-05
7.26751e-05
6.6722e-05
5.77156e-05
4.61206e-05
3.61322e-05
9.88077e-05
7.43523e-05
6.69306e-05
5.47278e-05
4.11705e-05
3.12242e-05
0.000109543
7.64203e-05
6.73923e-05
5.26323e-05
3.69708e-05
2.61002e-05
0.000118876
7.88642e-05
6.8872e-05
5.26752e-05
3.51728e-05
2.32535e-05
0.000126482
8.15597e-05
7.14498e-05
5.49618e-05
3.58096e-05
2.25372e-05
0.000132236
8.43331e-05
7.4683e-05
5.83225e-05
3.81089e-05
2.20091e-05
0.000135934
8.6995e-05
7.77641e-05
6.19436e-05
3.9394e-05
2.23843e-05
0.00013748
8.97374e-05
8.06615e-05
6.42419e-05
4.08038e-05
2.26724e-05
0.000136359
9.28421e-05
8.32264e-05
6.56494e-05
4.14644e-05
2.26731e-05
0.000132171
9.73017e-05
8.53128e-05
6.56941e-05
4.15312e-05
2.30576e-05
0.000125856
0.000103112
8.71807e-05
6.56896e-05
4.25301e-05
2.48673e-05
0.000117574
0.000108044
8.93269e-05
6.77773e-05
4.63901e-05
2.94663e-05
0.000107599
0.00010966
9.36835e-05
7.37809e-05
5.3756e-05
3.71695e-05
9.63384e-05
0.000110137
9.81765e-05
8.18619e-05
6.42858e-05
4.80933e-05
7.70148e-05
7.12483e-05
6.01936e-05
4.71194e-05
3.27293e-05
2.24512e-05
8.96348e-05
7.5805e-05
6.29758e-05
4.44707e-05
2.80539e-05
1.84407e-05
0.000101713
8.10276e-05
6.59764e-05
4.39223e-05
2.56715e-05
1.53921e-05
0.000112762
8.66726e-05
7.00859e-05
4.55978e-05
2.55522e-05
1.4172e-05
0.000122186
9.23528e-05
7.46547e-05
4.81152e-05
2.56338e-05
1.4002e-05
0.000129555
9.74697e-05
7.84686e-05
4.86497e-05
2.62998e-05
1.38118e-05
0.000134401
0.000101084
7.93331e-05
4.84383e-05
2.6217e-05
1.3376e-05
0.000136349
0.000102549
7.78809e-05
4.80049e-05
2.59967e-05
1.31552e-05
0.000134699
0.000102097
7.60538e-05
4.75007e-05
2.60074e-05
1.32643e-05
0.000129963
0.000102561
7.4449e-05
4.72439e-05
2.67132e-05
1.41103e-05
0.000122584
0.000104477
7.52833e-05
4.92344e-05
2.9395e-05
1.63228e-05
0.0001132
0.000106798
7.90342e-05
5.44821e-05
3.49732e-05
2.10334e-05
0.000102324
0.00010816
8.56499e-05
6.31443e-05
4.37822e-05
2.87378e-05
9.06209e-05
0.00011069
9.42732e-05
7.43573e-05
5.55156e-05
3.95001e-05
1.16185e-05
8.00656e-06
5.61774e-06
4.16913e-06
3.41168e-06
3.12557e-06
3.17738e-06
3.45272e-06
3.90702e-06
4.45037e-06
5.03496e-06
5.60604e-06
6.23836e-06
7.40582e-06
6.51716e-06
4.05863e-06
2.71042e-06
1.96307e-06
1.58206e-06
1.43864e-06
1.4703e-06
1.63242e-06
1.91488e-06
2.28951e-06
2.74153e-06
3.23593e-06
3.82809e-06
4.80367e-06
4.68039e-06
2.43381e-06
1.40977e-06
9.41138e-07
7.30983e-07
6.55673e-07
6.6948e-07
7.53522e-07
9.09436e-07
1.13724e-06
1.44082e-06
1.81428e-06
2.31462e-06
3.12668e-06
3.75209e-06
1.70416e-06
8.27182e-07
4.76055e-07
3.4087e-07
2.96119e-07
2.99568e-07
3.39346e-07
4.18498e-07
5.45961e-07
7.35673e-07
1.003e-06
1.3992e-06
2.06052e-06
3.0461e-06
1.26479e-06
5.29604e-07
2.54839e-07
1.59984e-07
1.31062e-07
1.3031e-07
1.48101e-07
1.86408e-07
2.55034e-07
3.70625e-07
5.5799e-07
8.65009e-07
1.39642e-06
2.4607e-06
9.59611e-07
3.60946e-07
1.46119e-07
7.64062e-08
5.6474e-08
5.44335e-08
6.21261e-08
8.0569e-08
1.17811e-07
1.89239e-07
3.21128e-07
5.57351e-07
9.83831e-07
2.003e-06
7.49395e-07
2.6289e-07
9.25025e-08
3.88077e-08
2.39599e-08
2.16559e-08
2.49662e-08
3.4365e-08
5.59396e-08
1.02529e-07
1.97883e-07
3.81325e-07
7.25844e-07
1.70943e-06
6.23792e-07
2.10385e-07
6.75859e-08
2.30501e-08
1.07614e-08
8.41537e-09
9.92408e-09
1.54677e-08
2.96938e-08
6.31614e-08
1.36317e-07
2.84254e-07
5.69789e-07
1.54757e-06
5.58666e-07
1.85527e-07
5.71885e-08
1.71313e-08
5.95416e-09
3.58862e-09
4.45354e-09
8.61167e-09
1.99839e-08
4.77717e-08
1.10059e-07
2.38974e-07
4.90656e-07
1.55872e-06
5.65101e-07
1.88601e-07
5.7994e-08
1.66856e-08
4.95606e-09
2.36699e-09
3.13601e-09
7.27212e-09
1.86245e-08
4.60858e-08
1.06924e-07
2.32253e-07
4.75559e-07
1.7104e-06
6.19187e-07
2.07359e-07
6.48977e-08
1.94799e-08
6.35638e-09
3.48284e-09
4.57212e-09
9.75434e-09
2.34332e-08
5.52614e-08
1.23713e-07
2.61478e-07
5.23509e-07
2.1918e-06
7.91468e-07
2.67602e-07
8.77027e-08
2.98756e-08
1.28233e-08
9.21138e-09
1.12113e-08
1.90689e-08
3.83673e-08
8.04666e-08
1.6745e-07
3.35548e-07
6.4541e-07
2.94639e-06
1.05903e-06
3.71247e-07
1.36458e-07
5.82861e-08
3.36494e-08
2.83332e-08
3.255e-08
4.65367e-08
7.76772e-08
1.39511e-07
2.61348e-07
4.83126e-07
8.7677e-07
4.38162e-06
1.63074e-06
6.50365e-07
2.88747e-07
1.49936e-07
9.97458e-08
8.78916e-08
9.74302e-08
1.26694e-07
1.85313e-07
2.87878e-07
4.75676e-07
7.86969e-07
1.29539e-06
6.42409e-06
4.4293e-06
3.20919e-06
2.47322e-06
2.0944e-06
1.98665e-06
2.09681e-06
2.36967e-06
2.7679e-06
3.24515e-06
3.77488e-06
4.33736e-06
4.95584e-06
5.85001e-06
4.09347e-06
2.44073e-06
1.62273e-06
1.19179e-06
9.74659e-07
9.01621e-07
9.43777e-07
1.0847e-06
1.31526e-06
1.62484e-06
2.00731e-06
2.44989e-06
2.9756e-06
3.73308e-06
3.12732e-06
1.57651e-06
8.9522e-07
5.93916e-07
4.57585e-07
4.07944e-07
4.19007e-07
4.83946e-07
6.03456e-07
7.82424e-07
1.02759e-06
1.3413e-06
1.75342e-06
2.36479e-06
2.52039e-06
1.12424e-06
5.37379e-07
3.06027e-07
2.1484e-07
1.82267e-07
1.82614e-07
2.10381e-07
2.67849e-07
3.63615e-07
5.09965e-07
7.21344e-07
1.03082e-06
1.51397e-06
2.05247e-06
8.36376e-07
3.4484e-07
1.63735e-07
1.00184e-07
7.92613e-08
7.71858e-08
8.85938e-08
1.151e-07
1.64423e-07
2.49425e-07
3.8959e-07
6.18354e-07
9.97602e-07
1.66784e-06
6.36807e-07
2.3485e-07
9.31875e-08
4.71692e-08
3.33814e-08
3.12644e-08
3.58913e-08
4.8104e-08
7.36789e-08
1.23682e-07
2.17313e-07
3.8563e-07
6.83301e-07
1.35376e-06
4.95036e-07
1.69882e-07
5.84634e-08
2.37015e-08
1.39037e-08
1.21135e-08
1.40077e-08
1.99562e-08
3.40189e-08
6.49741e-08
1.29369e-07
2.54756e-07
4.8996e-07
1.12084e-06
3.99538e-07
1.32102e-07
4.17536e-08
1.39267e-08
6.20926e-09
4.63364e-09
5.44772e-09
8.76157e-09
1.75009e-08
3.8541e-08
8.56016e-08
1.82884e-07
3.73914e-07
9.67607e-07
3.43069e-07
1.12869e-07
3.46988e-08
1.03483e-08
3.49693e-09
1.98149e-09
2.39678e-09
4.72127e-09
1.12879e-08
2.78431e-08
6.62115e-08
1.48338e-07
3.13887e-07
9.05136e-07
3.26224e-07
1.09807e-07
3.43279e-08
1.00336e-08
2.98623e-09
1.36064e-09
1.69718e-09
3.90765e-09
1.02015e-08
2.601e-08
6.25295e-08
1.41033e-07
2.99946e-07
9.25455e-07
3.39809e-07
1.17725e-07
3.83185e-08
1.18749e-08
3.95502e-09
2.14418e-09
2.66721e-09
5.47097e-09
1.30905e-08
3.14565e-08
7.26757e-08
1.59416e-07
3.32145e-07
1.09448e-06
4.0729e-07
1.45403e-07
5.04882e-08
1.8006e-08
7.99753e-09
5.87177e-09
7.08223e-09
1.16606e-08
2.29578e-08
4.82008e-08
1.02195e-07
2.109e-07
4.20359e-07
1.36603e-06
5.13971e-07
1.94106e-07
7.68237e-08
3.47027e-08
2.08419e-08
1.81983e-08
2.13284e-08
3.03384e-08
4.9934e-08
8.9228e-08
1.68107e-07
3.16702e-07
5.90822e-07
1.91382e-06
7.50709e-07
3.1746e-07
1.49509e-07
8.35104e-08
5.96508e-08
5.56573e-08
6.41397e-08
8.48159e-08
1.23979e-07
1.91857e-07
3.15565e-07
5.27279e-07
8.91489e-07
3.78667e-06
2.65519e-06
1.98529e-06
1.5736e-06
1.35884e-06
1.31447e-06
1.421e-06
1.6543e-06
1.99063e-06
2.40722e-06
2.8859e-06
3.41862e-06
4.01455e-06
4.81662e-06
2.52186e-06
1.54337e-06
1.06253e-06
7.98511e-07
6.54662e-07
6.03117e-07
6.33488e-07
7.40845e-07
9.22388e-07
1.177e-06
1.5036e-06
1.89887e-06
2.37573e-06
3.03223e-06
1.8988e-06
9.90572e-07
5.9344e-07
4.08523e-07
3.1485e-07
2.75205e-07
2.78386e-07
3.22863e-07
4.11674e-07
5.51803e-07
7.5187e-07
1.01982e-06
1.37588e-06
1.88877e-06
1.49536e-06
6.81763e-07
3.45418e-07
2.08418e-07
1.48066e-07
1.22552e-07
1.19415e-07
1.36698e-07
1.7753e-07
2.4971e-07
3.64793e-07
5.37804e-07
7.94682e-07
1.18722e-06
1.20109e-06
4.92467e-07
2.11806e-07
1.07323e-07
6.7682e-08
5.24427e-08
4.93489e-08
5.59186e-08
7.41183e-08
1.10166e-07
1.7494e-07
2.85242e-07
4.67841e-07
7.6767e-07
9.65089e-07
3.66381e-07
1.37898e-07
5.77003e-08
3.06072e-08
2.14903e-08
1.94418e-08
2.19865e-08
3.01637e-08
4.83744e-08
8.54051e-08
1.56542e-07
2.86324e-07
5.15514e-07
7.71241e-07
2.78328e-07
9.57998e-08
3.39684e-08
1.44519e-08
8.59204e-09
7.28884e-09
8.33319e-09
1.22404e-08
2.19975e-08
4.4218e-08
9.14685e-08
1.85001e-07
3.6146e-07
6.23644e-07
2.1947e-07
7.23506e-08
2.31442e-08
7.96183e-09
3.64358e-09
2.69218e-09
3.16056e-09
5.28423e-09
1.11256e-08
2.5613e-08
5.87633e-08
1.28744e-07
2.68141e-07
5.23097e-07
1.84807e-07
6.09907e-08
1.89012e-08
5.71486e-09
1.96491e-09
1.11686e-09
1.36219e-09
2.78318e-09
6.93429e-09
1.77327e-08
4.35106e-08
1.00311e-07
2.17714e-07
4.74351e-07
1.73829e-07
5.96792e-08
1.89512e-08
5.59517e-09
1.68409e-09
7.78745e-10
9.71565e-10
2.25554e-09
6.02539e-09
1.58465e-08
3.94196e-08
9.20437e-08
2.0236e-07
4.75702e-07
1.82996e-07
6.61227e-08
2.20904e-08
6.93797e-09
2.3683e-09
1.34234e-09
1.65773e-09
3.28982e-09
7.80482e-09
1.90676e-08
4.53732e-08
1.03046e-07
2.22461e-07
5.39741e-07
2.17858e-07
8.31786e-08
3.00031e-08
1.09075e-08
5.02038e-09
3.88314e-09
4.74656e-09
7.61808e-09
1.46123e-08
3.05891e-08
6.58738e-08
1.39674e-07
2.86947e-07
6.51553e-07
2.74698e-07
1.13229e-07
4.66216e-08
2.13195e-08
1.32021e-08
1.21432e-08
1.4704e-08
2.09502e-08
3.39889e-08
6.03424e-08
1.14139e-07
2.19015e-07
4.17386e-07
8.42154e-07
3.74224e-07
1.74813e-07
8.71734e-08
5.01336e-08
3.70992e-08
3.64957e-08
4.39454e-08
5.92715e-08
8.67529e-08
1.34431e-07
2.2113e-07
3.75785e-07
6.49504e-07
2.64435e-06
1.92992e-06
1.47109e-06
1.16945e-06
9.95879e-07
9.4451e-07
1.00856e-06
1.17933e-06
1.44741e-06
1.80196e-06
2.22995e-06
2.72488e-06
3.29732e-06
4.04451e-06
1.72143e-06
1.11894e-06
8.03077e-07
6.11234e-07
4.93999e-07
4.40872e-07
4.49007e-07
5.193e-07
6.55174e-07
8.60976e-07
1.13966e-06
1.49217e-06
1.92878e-06
2.52417e-06
1.22267e-06
6.80705e-07
4.37849e-07
3.12306e-07
2.39667e-07
2.02569e-07
1.96483e-07
2.22494e-07
2.85609e-07
3.94304e-07
5.58824e-07
7.89688e-07
1.10493e-06
1.55749e-06
9.08562e-07
4.34738e-07
2.40397e-07
1.55045e-07
1.11699e-07
8.97579e-08
8.33925e-08
9.2427e-08
1.20366e-07
1.74725e-07
2.66802e-07
4.11691e-07
6.32575e-07
9.71585e-07
6.92411e-07
2.91618e-07
1.35976e-07
7.57498e-08
4.98291e-08
3.78534e-08
3.38901e-08
3.70235e-08
4.92461e-08
7.59309e-08
1.26774e-07
2.1698e-07
3.70018e-07
6.24242e-07
5.31088e-07
2.03406e-07
8.11634e-08
3.76275e-08
2.15711e-08
1.5159e-08
1.30853e-08
1.42682e-08
1.97669e-08
3.31581e-08
6.18388e-08
1.18863e-07
2.25428e-07
4.16431e-07
4.08345e-07
1.47162e-07
5.23653e-08
2.01645e-08
9.4959e-09
5.85965e-09
4.80695e-09
5.32937e-09
7.99215e-09
1.51446e-08
3.21279e-08
6.92685e-08
1.44529e-07
2.88895e-07
3.21392e-07
1.12942e-07
3.78994e-08
1.27168e-08
4.75612e-09
2.33781e-09
1.72637e-09
1.99881e-09
3.45752e-09
7.68093e-09
1.85034e-08
4.38938e-08
9.87865e-08
2.10294e-07
2.67799e-07
9.55407e-08
3.20663e-08
1.01826e-08
3.20457e-09
1.16848e-09
6.89305e-10
8.5138e-10
1.80418e-09
4.68958e-09
1.24316e-08
3.14425e-08
7.45227e-08
1.65951e-07
2.4916e-07
9.35946e-08
3.27439e-08
1.05087e-08
3.13195e-09
9.69148e-10
4.73439e-10
6.05215e-10
1.42245e-09
3.89666e-09
1.05836e-08
2.72342e-08
6.57655e-08
1.4943e-07
2.63418e-07
1.04877e-07
3.84579e-08
1.28378e-08
4.03117e-09
1.42663e-09
8.73631e-10
1.09451e-09
2.11897e-09
5.00251e-09
1.24683e-08
3.06165e-08
7.20447e-08
1.61347e-07
3.12752e-07
1.3066e-07
5.01165e-08
1.78683e-08
6.50809e-09
3.17802e-09
2.66473e-09
3.32948e-09
5.2441e-09
9.84934e-09
2.06463e-08
4.52857e-08
9.88367e-08
2.09913e-07
3.91498e-07
1.70451e-07
6.98574e-08
2.82085e-08
1.29977e-08
8.59092e-09
8.4928e-09
1.06035e-08
1.5125e-08
2.42777e-08
4.30328e-08
8.2069e-08
1.60849e-07
3.14653e-07
5.05843e-07
2.34635e-07
1.08376e-07
5.26377e-08
3.05332e-08
2.40372e-08
2.53255e-08
3.16288e-08
4.32237e-08
6.34714e-08
9.90715e-08
1.64598e-07
2.85745e-07
5.06168e-07
2.10689e-06
1.58936e-06
1.22697e-06
9.72864e-07
8.10936e-07
7.39994e-07
7.61138e-07
8.76822e-07
1.08638e-06
1.38234e-06
1.75977e-06
2.21362e-06
2.75882e-06
3.47125e-06
1.31278e-06
9.01822e-07
6.68634e-07
5.13335e-07
4.09512e-07
3.52384e-07
3.42341e-07
3.8388e-07
4.84321e-07
6.50132e-07
8.87639e-07
1.2009e-06
1.60363e-06
2.15722e-06
8.68744e-07
5.18906e-07
3.54957e-07
2.60295e-07
1.99271e-07
1.63292e-07
1.50721e-07
1.63747e-07
2.08344e-07
2.93447e-07
4.30152e-07
6.30457e-07
9.1376e-07
1.32618e-06
5.98574e-07
3.06286e-07
1.85311e-07
1.2644e-07
9.22524e-08
7.23035e-08
6.39288e-08
6.76052e-08
8.6794e-08
1.28562e-07
2.03874e-07
3.27675e-07
5.22568e-07
8.27652e-07
4.21949e-07
1.87102e-07
9.69763e-08
5.93345e-08
4.05203e-08
3.03036e-08
2.58403e-08
2.687e-08
3.52187e-08