/*--------------------------------*- C++ -*----------------------------------*\
| =========                 |                                                 |
| \\      /  F ield         | OpenFOAM: The Open Source CFD Toolbox           |
|  \\    /   O peration     | Version:  v2106                                 |
|   \\  /    A nd           | Website:  www.openfoam.com                      |
|    \\/     M anipulation  |                                                 |
\*---------------------------------------------------------------------------*/
FoamFile
{
    version     2.0;
    format      ascii;
    arch        "LSB;label=32;scalar=64";
    class       volScalarField;
    location    "0.000215";
    object      rho;
}
// * * * * * * * * * * * * * * * * * * * * * * * * * * * * * * * * * * * * * //

dimensions      [1 -3 0 0 0 0 0];

internalField   nonuniform List<scalar> 
144746
(
2.33958
2.33787
2.33518
2.33343
2.33193
2.33155
2.33131
2.33136
2.33191
2.33344
2.33519
2.33798
2.33877
2.34375
2.33687
2.33725
2.33492
2.33381
2.33273
2.33253
2.33257
2.33289
2.33351
2.33446
2.33602
2.33819
2.33962
2.34304
2.33663
2.33702
2.33538
2.33467
2.33406
2.33403
2.33421
2.33458
2.33514
2.33579
2.33679
2.33812
2.33914
2.3415
2.33625
2.33668
2.33579
2.33574
2.33574
2.33614
2.33658
2.33699
2.3374
2.33783
2.33826
2.33865
2.33912
2.34019
2.33643
2.33675
2.33637
2.33676
2.33749
2.33842
2.33916
2.33972
2.34002
2.34012
2.34005
2.33981
2.33961
2.33973
2.33702
2.3371
2.33728
2.33809
2.33936
2.34079
2.34194
2.34267
2.34293
2.3428
2.34245
2.34166
2.34094
2.34041
2.33776
2.3376
2.33811
2.33932
2.34106
2.34285
2.34429
2.34522
2.34557
2.34533
2.34486
2.34395
2.34287
2.34216
2.33857
2.33824
2.3389
2.34045
2.34251
2.34462
2.34629
2.34736
2.34782
2.34768
2.34712
2.34618
2.34495
2.34418
2.33935
2.33887
2.33967
2.34137
2.34368
2.34598
2.34776
2.34889
2.34944
2.34948
2.34915
2.34835
2.34728
2.34647
2.34026
2.33961
2.34057
2.34226
2.34464
2.34694
2.34872
2.34986
2.35051
2.35075
2.35057
2.35017
2.34943
2.34887
2.34159
2.34087
2.34159
2.34319
2.34543
2.34749
2.34912
2.35022
2.35093
2.35136
2.35151
2.35154
2.35135
2.35133
2.34309
2.34207
2.34278
2.34413
2.34592
2.34767
2.34908
2.35013
2.35096
2.35156
2.352
2.35249
2.35284
2.35329
2.34493
2.3437
2.34412
2.34514
2.34644
2.3478
2.34886
2.34978
2.35066
2.35138
2.35228
2.35321
2.35405
2.35437
2.34595
2.34428
2.34512
2.34599
2.34702
2.34797
2.34869
2.34965
2.35053
2.35152
2.3531
2.35499
2.35637
2.35732
2.33444
2.33786
2.33772
2.33783
2.33822
2.33913
2.33999
2.34083
2.34182
2.34344
2.34554
2.34858
2.35052
2.35608
2.33222
2.33574
2.3357
2.33652
2.33762
2.33884
2.34008
2.34122
2.34256
2.34438
2.34688
2.35016
2.35262
2.35739
2.33231
2.33495
2.33483
2.33578
2.33728
2.33877
2.34038
2.34179
2.34336
2.34525
2.34737
2.34999
2.35224
2.35638
2.33189
2.33397
2.33435
2.33554
2.33736
2.33894
2.34075
2.34243
2.34422
2.34593
2.34784
2.35004
2.3522
2.35521
2.33211
2.3336
2.33425
2.3356
2.3374
2.33931
2.34126
2.34309
2.34486
2.34659
2.34828
2.35002
2.35199
2.3543
2.33289
2.33379
2.33453
2.33607
2.33794
2.33999
2.34195
2.3438
2.34554
2.34713
2.34863
2.35011
2.35167
2.3537
2.33322
2.33389
2.33453
2.33632
2.33834
2.34054
2.34257
2.34443
2.34606
2.34757
2.34902
2.35027
2.35167
2.35347
2.3332
2.3337
2.33458
2.33655
2.33878
2.34112
2.34319
2.34498
2.34651
2.34785
2.34914
2.35025
2.35142
2.35306
2.33281
2.33326
2.33442
2.33645
2.3388
2.34123
2.34339
2.3452
2.34665
2.34791
2.349
2.35001
2.35102
2.35245
2.33226
2.33271
2.33417
2.33635
2.3388
2.34124
2.34338
2.34515
2.34653
2.3477
2.34866
2.34955
2.35043
2.35176
2.332
2.33233
2.33388
2.33608
2.33853
2.34086
2.3429
2.3446
2.34596
2.3472
2.34811
2.34913
2.34985
2.35125
2.33175
2.33218
2.33371
2.33588
2.33819
2.34033
2.34217
2.34375
2.34511
2.34641
2.34746
2.34868
2.34947
2.35083
2.3318
2.33225
2.33381
2.33574
2.33782
2.33968
2.34126
2.34266
2.34402
2.34544
2.3468
2.34815
2.34933
2.35039
2.33078
2.33158
2.33343
2.33537
2.33733
2.33904
2.34048
2.34174
2.34313
2.34459
2.34627
2.34821
2.34987
2.35091
2.33031
2.33606
2.33802
2.34032
2.34218
2.34428
2.34612
2.34798
2.34964
2.35136
2.3534
2.35593
2.35801
2.36287
2.33071
2.33556
2.33752
2.34004
2.34241
2.34487
2.34702
2.34902
2.35094
2.35293
2.35511
2.35782
2.36082
2.36589
2.33255
2.33651
2.33888
2.34142
2.34393
2.34655
2.34885
2.35098
2.35293
2.35471
2.35673
2.35898
2.36164
2.3658
2.33482
2.33811
2.34065
2.34325
2.34581
2.34845
2.35082
2.35301
2.35498
2.35683
2.3587
2.3606
2.36289
2.36593
2.33737
2.34016
2.34272
2.34528
2.34783
2.35047
2.35289
2.35511
2.35713
2.35894
2.36071
2.36231
2.36422
2.36627
2.33956
2.34212
2.34463
2.34719
2.3498
2.35242
2.35482
2.35703
2.35906
2.3609
2.36262
2.36407
2.36562
2.36696
2.34056
2.34326
2.34586
2.34859
2.3514
2.35413
2.35661
2.35884
2.36083
2.36266
2.36431
2.36565
2.36691
2.3679
2.34125
2.34403
2.34682
2.3498
2.35281
2.35571
2.35827
2.36054
2.3625
2.3642
2.3657
2.36697
2.36801
2.36888
2.34123
2.34421
2.34731
2.35056
2.35381
2.3569
2.35961
2.36197
2.36391
2.36555
2.36683
2.36798
2.36887
2.36974
2.34096
2.34412
2.34765
2.35128
2.35475
2.35797
2.36076
2.36315
2.36505
2.36659
2.3677
2.3687
2.36946
2.3703
2.3401
2.34382
2.34768
2.35159
2.35522
2.3585
2.36133
2.36375
2.36566
2.36723
2.36831
2.3693
2.36997
2.37064
2.33881
2.34313
2.34763
2.35188
2.35563
2.35888
2.36165
2.36402
2.36594
2.36751
2.36865
2.3696
2.37023
2.3705
2.33691
2.34173
2.34687
2.35143
2.35529
2.35856
2.36132
2.36371
2.36574
2.36748
2.3688
2.36985
2.37043
2.37073
2.33257
2.33926
2.34507
2.35039
2.35449
2.35785
2.36063
2.363
2.36501
2.36677
2.36819
2.36917
2.36996
2.36959
2.35175
2.36191
2.36435
2.37128
2.37174
2.38272
2.34118
2.34926
2.3537
2.36348
2.36767
2.37655
2.34136
2.34732
2.35073
2.3598
2.36255
2.37468
2.34035
2.34465
2.34716
2.35508
2.35771
2.37096
2.34028
2.34374
2.34613
2.35351
2.35488
2.36957
2.34066
2.34355
2.34578
2.3529
2.35428
2.37032
2.34205
2.34463
2.34685
2.35419
2.357
2.36849
2.3439
2.3463
2.34834
2.35576
2.3586
2.37104
2.34622
2.34889
2.35131
2.35971
2.36222
2.37181
2.3488
2.35162
2.35469
2.36328
2.36708
2.37373
2.35207
2.35543
2.35957
2.36731
2.37122
2.37689
2.35479
2.35787
2.36189
2.3689
2.37321
2.37799
2.35675
2.3602
2.36487
2.37154
2.37555
2.37848
2.35369
2.35708
2.36115
2.3676
2.3719
2.37493
2.36521
2.37263
2.37488
2.38112
2.38133
2.38614
2.35636
2.36412
2.36741
2.37602
2.37886
2.38542
2.35754
2.36491
2.36816
2.37735
2.3805
2.38489
2.35702
2.36285
2.36587
2.37388
2.37797
2.3802
2.35661
2.36166
2.36521
2.37261
2.37675
2.37905
2.35608
2.36057
2.36455
2.37126
2.37544
2.37739
2.35593
2.35993
2.36396
2.36997
2.37391
2.37611
2.3555
2.35912
2.36304
2.36846
2.37202
2.37435
2.35485
2.3582
2.36205
2.36708
2.37042
2.37307
2.35401
2.35718
2.36104
2.36569
2.36953
2.37195
2.35334
2.35608
2.36024
2.36479
2.36901
2.371
2.35321
2.35527
2.35937
2.3635
2.36774
2.3694
2.35324
2.35467
2.35849
2.36311
2.36713
2.3679
2.34912
2.35066
2.35419
2.35819
2.36191
2.36292
2.37203
2.37768
2.38161
2.38631
2.38591
2.38866
2.36579
2.3721
2.37482
2.38057
2.38121
2.38405
2.36671
2.37207
2.37405
2.379
2.37967
2.3833
2.36696
2.37086
2.3725
2.37653
2.37811
2.38094
2.36738
2.37009
2.37165
2.3747
2.3767
2.37836
2.36812
2.36988
2.37117
2.3731
2.37504
2.37583
2.36896
2.37025
2.3713
2.37205
2.37343
2.37267
2.36967
2.3708
2.37141
2.37096
2.37158
2.3689
2.37024
2.37126
2.37124
2.3698
2.36953
2.36519
2.37068
2.37151
2.371
2.36841
2.36709
2.36166
2.37105
2.37147
2.37034
2.36673
2.36455
2.35826
2.37107
2.37114
2.36939
2.36482
2.36153
2.35437
2.37123
2.37008
2.36748
2.36215
2.35829
2.35024
2.36815
2.36551
2.36154
2.35559
2.35052
2.34267
2.36097
2.36693
2.36954
2.37643
2.37808
2.38321
2.35546
2.36129
2.36436
2.37163
2.37311
2.37477
2.3552
2.36008
2.36312
2.37078
2.37315
2.37644
2.35354
2.35757
2.36105
2.36791
2.37083
2.37315
2.35226
2.3556
2.35948
2.3654
2.36899
2.37169
2.35116
2.35372
2.35715
2.36152
2.36413
2.36617
2.35019
2.35211
2.35483
2.35785
2.36
2.36242
2.34931
2.35075
2.35288
2.3546
2.35575
2.35807
2.34867
2.3498
2.35171
2.35293
2.354
2.35668
2.34816
2.34902
2.35103
2.35226
2.35315
2.35608
2.34784
2.34851
2.35073
2.35261
2.35383
2.35787
2.34781
2.34875
2.35118
2.35434
2.35599
2.3598
2.34829
2.35012
2.3524
2.35626
2.35847
2.36431
2.34302
2.34494
2.34768
2.35241
2.35621
2.36208
2.35341
2.35645
2.35909
2.36357
2.36603
2.36846
2.34946
2.35245
2.3548
2.35915
2.36117
2.36009
2.34797
2.35029
2.35269
2.35678
2.3595
2.35968
2.34596
2.34792
2.35042
2.35369
2.35624
2.35556
2.34438
2.34585
2.34824
2.35068
2.35282
2.35289
2.34283
2.34395
2.34583
2.34721
2.34815
2.34711
2.34133
2.34209
2.34322
2.3434
2.3438
2.34217
2.34009
2.34009
2.34057
2.33976
2.33986
2.33756
2.33876
2.33797
2.33807
2.33672
2.33753
2.33548
2.33733
2.33567
2.33589
2.33445
2.33589
2.33477
2.33583
2.33365
2.33423
2.33341
2.33583
2.33676
2.33452
2.33232
2.33334
2.33404
2.33708
2.3378
2.33401
2.33193
2.33344
2.33551
2.33987
2.3427
2.32755
2.32556
2.32711
2.33083
2.33617
2.33856
2.37117
2.36955
2.36634
2.35901
2.35287
2.34261
2.36911
2.36738
2.36434
2.35627
2.3495
2.33714
2.36806
2.36579
2.36237
2.35312
2.3453
2.33066
2.3668
2.36434
2.36057
2.35052
2.34115
2.32396
2.36528
2.36263
2.35823
2.34783
2.33672
2.31652
2.3633
2.36044
2.3554
2.34428
2.33161
2.30904
2.36106
2.35759
2.35157
2.33933
2.32555
2.30042
2.35831
2.35419
2.34689
2.33359
2.31919
2.29179
2.35505
2.3503
2.3416
2.32731
2.31347
2.28452
2.35133
2.34563
2.3362
2.32102
2.3095
2.28035
2.34719
2.33997
2.33125
2.31593
2.3077
2.28088
2.34286
2.33361
2.32663
2.31227
2.30635
2.28045
2.33812
2.32756
2.32273
2.31096
2.30684
2.28597
2.32606
2.31427
2.30992
2.30073
2.29991
2.2814
2.36825
2.35429
2.35007
2.34113
2.33588
2.3331
2.36846
2.36047
2.35747
2.34951
2.34405
2.34132
2.36313
2.35636
2.3528
2.34508
2.34071
2.33899
2.36773
2.35129
2.34909
2.3425
2.33953
2.33816
2.36813
2.34652
2.34452
2.3399
2.33846
2.33775
2.35985
2.3496
2.34595
2.34098
2.33903
2.33819
2.35757
2.3487
2.34655
2.34229
2.34032
2.33904
2.35871
2.34948
2.34852
2.34494
2.34257
2.34032
2.35924
2.35141
2.35085
2.34754
2.34471
2.34148
2.36389
2.35706
2.35576
2.35127
2.34734
2.34277
2.36528
2.3592
2.35766
2.35296
2.34906
2.34392
2.36727
2.36047
2.36004
2.35477
2.35105
2.34493
2.36465
2.35946
2.35934
2.35416
2.35145
2.34548
2.36982
2.36434
2.36443
2.36042
2.35597
2.35051
2.35862
2.34524
2.33959
2.33078
2.326
2.32644
2.35613
2.34782
2.34459
2.33836
2.33475
2.33586
2.3526
2.34483
2.34037
2.33414
2.33144
2.33353
2.35399
2.34206
2.33778
2.33228
2.33071
2.33277
2.34832
2.33766
2.33423
2.33067
2.33052
2.33258
2.3429
2.33524
2.33308
2.33134
2.3316
2.33314
2.33998
2.33302
2.33236
2.33194
2.33253
2.33346
2.3393
2.33376
2.33362
2.33348
2.33369
2.33368
2.33961
2.33495
2.33498
2.3347
2.33424
2.33354
2.34251
2.33867
2.33784
2.3363
2.33468
2.33311
2.34345
2.33986
2.33844
2.33635
2.33449
2.33259
2.34425
2.34157
2.33952
2.33617
2.33398
2.33165
2.34339
2.34064
2.33787
2.33452
2.33309
2.33081
2.34731
2.34583
2.34271
2.33976
2.33588
2.33387
2.32588
2.32652
2.3194
2.31582
2.31438
2.32097
2.32227
2.32827
2.32388
2.32562
2.32512
2.33253
2.31298
2.32276
2.31823
2.3224
2.3231
2.33145
2.30833
2.31965
2.31514
2.32103
2.32364
2.33217
2.29957
2.31491
2.31215
2.32006
2.32518
2.3335
2.29602
2.31285
2.31282
2.3214
2.32813
2.3353
2.29485
2.31278
2.31467
2.32338
2.33034
2.33665
2.29692
2.31469
2.31743
2.32596
2.33232
2.33767
2.29926
2.31625
2.31964
2.32746
2.33312
2.33779
2.30065
2.31673
2.32085
2.32825
2.33335
2.33749
2.29924
2.31522
2.31981
2.32732
2.33218
2.33645
2.29758
2.31412
2.31848
2.32574
2.3302
2.33463
2.29405
2.31096
2.31358
2.32204
2.32702
2.33179
2.28924
2.30821
2.31322
2.32184
2.32546
2.33039
2.38236
2.37113
2.36515
2.35191
2.34361
2.3377
2.38321
2.37254
2.36678
2.35556
2.34792
2.34275
2.38346
2.37117
2.3643
2.35153
2.34445
2.34003
2.3829
2.36853
2.36203
2.34882
2.34166
2.33663
2.3803
2.36388
2.35737
2.34395
2.33777
2.33354
2.37605
2.35911
2.35305
2.34064
2.33559
2.33147
2.37122
2.35427
2.34845
2.33767
2.33373
2.33044
2.36684
2.35173
2.34568
2.33622
2.33299
2.3304
2.36354
2.35046
2.34423
2.33598
2.33333
2.33093
2.3636
2.35089
2.34564
2.3376
2.33456
2.33167
2.36152
2.35199
2.34735
2.33912
2.33607
2.33301
2.36654
2.35495
2.35069
2.34236
2.33964
2.33509
2.36561
2.3534
2.3526
2.34514
2.34193
2.33561
2.37311
2.36182
2.3621
2.35692
2.35564
2.34711
2.38065
2.37443
2.3674
2.35754
2.35149
2.34772
2.38137
2.3727
2.36773
2.36062
2.35576
2.35392
2.37829
2.36831
2.36384
2.35531
2.35111
2.34999
2.37679
2.3635
2.36037
2.3516
2.34761
2.34604
2.37199
2.35799
2.3557
2.34723
2.34461
2.34327
2.36722
2.35313
2.35216
2.34477
2.34294
2.34162
2.36247
2.34859
2.34826
2.34232
2.34165
2.34066
2.35883
2.34736
2.34654
2.34144
2.34097
2.3399
2.35608
2.3478
2.34647
2.34176
2.34094
2.33944
2.35575
2.34834
2.34764
2.3426
2.34125
2.33895
2.35555
2.34994
2.34887
2.34297
2.34146
2.33851
2.36188
2.35203
2.3509
2.34397
2.34254
2.33813
2.36
2.34996
2.35028
2.34325
2.34079
2.33636
2.36463
2.35605
2.35649
2.35176
2.34929
2.34313
2.38138
2.37586
2.36917
2.36307
2.35907
2.35657
2.38447
2.37699
2.37164
2.36512
2.36081
2.36105
2.38033
2.37115
2.36551
2.35934
2.35655
2.35677
2.3763
2.36597
2.36116
2.35497
2.3528
2.35278
2.36967
2.35896
2.35582
2.35057
2.34988
2.35019
2.36432
2.35303
2.35161
2.34766
2.34773
2.34822
2.35837
2.34779
2.34756
2.34516
2.34573
2.34648
2.35417
2.34592
2.34509
2.34333
2.34403
2.34488
2.34996
2.34504
2.34441
2.3426
2.3429
2.34345
2.34934
2.3449
2.3438
2.34164
2.34175
2.34167
2.3464
2.34221
2.34154
2.34005
2.34002
2.33964
2.34832
2.34231
2.34168
2.33898
2.33809
2.33695
2.3412
2.34045
2.33922
2.3369
2.33529
2.33358
2.3416
2.34183
2.34188
2.34365
2.33874
2.33775
2.33517
2.33906
2.34089
2.34271
2.34422
2.34592
2.34767
2.34951
2.35159
2.35392
2.35658
2.35997
2.36303
2.36754
2.33694
2.33993
2.34157
2.3437
2.34567
2.34785
2.35002
2.35216
2.35443
2.35678
2.35925
2.36219
2.36534
2.3708
2.33926
2.34218
2.34388
2.34602
2.34808
2.35036
2.35266
2.35486
2.35707
2.35921
2.3615
2.364
2.36698
2.37177
2.34198
2.34486
2.34674
2.3489
2.351
2.35326
2.35559
2.35781
2.35999
2.36212
2.36436
2.36668
2.36927
2.37318
2.34509
2.3477
2.34967
2.35175
2.35389
2.35615
2.35844
2.36062
2.36276
2.36486
2.36704
2.36921
2.37165
2.37491
2.34782
2.35005
2.35202
2.3542
2.35646
2.35878
2.36106
2.36325
2.36541
2.36757
2.36975
2.37192
2.37424
2.37703
2.34982
2.35186
2.35395
2.35629
2.35869
2.36112
2.36347
2.36572
2.36793
2.37012
2.3723
2.37446
2.37664
2.37917
2.35153
2.35346
2.35563
2.35811
2.36067
2.36326
2.36573
2.36809
2.37036
2.37259
2.37473
2.37692
2.37894
2.38138
2.35284
2.35473
2.35706
2.35973
2.3625
2.36528
2.36793
2.37042
2.37276
2.37501
2.37709
2.37927
2.38116
2.38362
2.35454
2.3564
2.35884
2.36163
2.36454
2.36742
2.37018
2.37274
2.37512
2.37739
2.37942
2.38161
2.38348
2.38599
2.35564
2.35787
2.36057
2.36355
2.36658
2.36953
2.37237
2.37499
2.3774
2.37971
2.38175
2.38403
2.38594
2.3885
2.35766
2.36002
2.36292
2.36591
2.36891
2.37178
2.37459
2.37721
2.37968
2.38209
2.38424
2.38671
2.38869
2.39135
2.35805
2.36148
2.36465
2.36779
2.37083
2.37371
2.3766
2.37933
2.38193
2.38452
2.3868
2.38953
2.39162
2.39486
2.35991
2.36373
2.36731
2.3707
2.37373
2.37652
2.37929
2.382
2.38463
2.38739
2.38985
2.39309
2.3951
2.39924
2.34219
2.34463
2.3454
2.34609
2.34702
2.34818
2.3496
2.35112
2.35287
2.35482
2.35708
2.3601
2.36311
2.36742
2.34519
2.347
2.34757
2.34869
2.34979
2.3512
2.3529
2.35475
2.35676
2.35896
2.36136
2.36408
2.36674
2.37123
2.34797
2.35015
2.35099
2.35215
2.35335
2.35483
2.35659
2.35847
2.36041
2.36241
2.36453
2.36689
2.36954
2.37352
2.35128
2.35316
2.3543
2.3556
2.35693
2.35847
2.36024
2.36211
2.36405
2.36607
2.3682
2.37045
2.37289
2.37622
2.35433
2.35598
2.35727
2.35872
2.36023
2.36188
2.36367
2.36553
2.36746
2.36946
2.37155
2.37363
2.3759
2.37871
2.3569
2.35841
2.35978
2.36145
2.36316
2.36496
2.36681
2.36871
2.37066
2.37271
2.37482
2.37693
2.37913
2.38161
2.35908
2.3605
2.36201
2.36388
2.36579
2.36775
2.36971
2.37169
2.37372
2.37582
2.37794
2.38007
2.3822
2.38449
2.36118
2.36252
2.36414
2.36617
2.36825
2.37039
2.37251
2.37461
2.37672
2.37888
2.38101
2.38316
2.38528
2.38752
2.36342
2.36472
2.36643
2.36856
2.3708
2.37309
2.37536
2.37759
2.37977
2.38197
2.38409
2.38626
2.38836
2.39065
2.36604
2.36731
2.36908
2.37124
2.37357
2.37595
2.37834
2.38067
2.3829
2.38513
2.38725
2.38943
2.39154
2.39391
2.36879
2.37024
2.3721
2.37423
2.37658
2.37897
2.38142
2.38381
2.38609
2.38836
2.3905
2.39272
2.39485
2.39733
2.37231
2.37372
2.37557
2.37758
2.37986
2.3822
2.38466
2.38709
2.38942
2.39174
2.39394
2.39626
2.39848
2.40113
2.37468
2.37672
2.37875
2.3808
2.3831
2.38545
2.38794
2.39044
2.39285
2.3953
2.3976
2.40011
2.40237
2.40552
2.37944
2.38121
2.38321
2.38518
2.38734
2.38953
2.39186
2.39427
2.39669
2.39928
2.40172
2.40461
2.40691
2.4108
2.35006
2.35119
2.35053
2.34998
2.34993
2.35019
2.35101
2.35217
2.35356
2.35506
2.35676
2.35928
2.36183
2.36535
2.35348
2.35435
2.35398
2.3537
2.35367
2.35404
2.35497
2.35633
2.35797
2.35981
2.36191
2.36432
2.36664
2.37014
2.35684
2.35769
2.35759
2.35753
2.35769
2.35823
2.35923
2.36061
2.36225
2.36407
2.36598
2.36807
2.37029
2.37361
2.36024
2.36077
2.36094
2.3612
2.3616
2.3623
2.36336
2.36475
2.36641
2.36827
2.37026
2.37234
2.37445
2.37703
2.36324
2.36372
2.36404
2.36459
2.36523
2.36609
2.36723
2.36866
2.37035
2.37224
2.37422
2.3762
2.37813
2.38037
2.36603
2.36646
2.36694
2.36772
2.36857
2.36962
2.37087
2.37239
2.37413
2.37604
2.37805
2.38006
2.38201
2.38399
2.36872
2.36916
2.36976
2.37073
2.37178
2.373
2.3744
2.37602
2.37782
2.37976
2.38176
2.38376
2.38571
2.3877
2.37156
2.37202
2.37273
2.37385
2.37505
2.37642
2.37795
2.37965
2.3815
2.38345
2.38545
2.38743
2.3895
2.39152
2.37466
2.37516
2.37595
2.37716
2.37847
2.37995
2.3816
2.38337
2.38525
2.38721
2.38924
2.39124
2.39339
2.39545
2.37827
2.37885
2.37966
2.38088
2.38225
2.3838
2.3855
2.38731
2.38919
2.39114
2.39319
2.39523
2.39749
2.3996
2.38233
2.38299
2.38376
2.38492
2.38628
2.38784
2.38957
2.3914
2.39329
2.39526
2.39734
2.39945
2.40184
2.40393
2.38699
2.38763
2.38833
2.38938
2.3907
2.39223
2.39393
2.39573
2.39759
2.39955
2.40168
2.40385
2.40644
2.40859
2.39182
2.39235
2.39298
2.39387
2.39516
2.39664
2.39835
2.4002
2.40213
2.4042
2.40641
2.40874
2.41138
2.41385
2.39735
2.39776
2.39827
2.39898
2.40018
2.40158
2.40318
2.40497
2.40689
2.40895
2.41125
2.41371
2.41664
2.41918
2.35621
2.35614
2.35516
2.35386
2.35294
2.35241
2.35248
2.35291
2.35361
2.35479
2.3561
2.35774
2.35948
2.36206
2.35963
2.35959
2.35883
2.35788
2.35708
2.35668
2.35678
2.3573
2.3583
2.35977
2.36147
2.36336
2.36516
2.36777
2.36285
2.36294
2.36244
2.36181
2.36131
2.36108
2.36124
2.36186
2.36299
2.36447
2.36605
2.36775
2.36946
2.37209
2.36622
2.36614
2.36588
2.36557
2.36534
2.36528
2.36555
2.36631
2.36752
2.36904
2.3707
2.37244
2.37411
2.37608
2.36958
2.36938
2.36925
2.36921
2.36919
2.36929
2.36969
2.37059
2.37189
2.37346
2.37513
2.37678
2.37827
2.37993
2.3729
2.37266
2.3726
2.37276
2.37289
2.37314
2.37373
2.37476
2.37614
2.37774
2.37945
2.38106
2.38252
2.38396
2.37626
2.37608
2.37603
2.3763
2.37656
2.37698
2.37774
2.37889
2.38034
2.38196
2.38369
2.38529
2.38671
2.38806
2.37974
2.37969
2.37966
2.37999
2.38035
2.38091
2.38181
2.38305
2.38454
2.38619
2.38794
2.38957
2.39103
2.39235
2.38342
2.38354
2.38355
2.38395
2.38438
2.38506
2.38607
2.38735
2.38886
2.39049
2.39229
2.39396
2.39553
2.39681
2.38754
2.3878
2.38784
2.38828
2.38876
2.3895
2.39055
2.39182
2.39332
2.39493
2.39677
2.39851
2.40028
2.40156
2.39207
2.39244
2.3925
2.39293
2.39343
2.39418
2.39523
2.39649
2.39795
2.39958
2.40147
2.40328
2.40521
2.40642
2.39708
2.39754
2.39754
2.39791
2.39837
2.39906
2.40007
2.40125
2.40267
2.40427
2.40623
2.40806
2.41024
2.41144
2.40234
2.40277
2.40274
2.40302
2.40344
2.40407
2.40507
2.40621
2.40763
2.40931
2.41135
2.41326
2.41551
2.41686
2.40763
2.40829
2.40817
2.40834
2.4087
2.4093
2.41022
2.41128
2.41265
2.41426
2.41635
2.41826
2.42072
2.4221
2.35987
2.35941
2.35818
2.35634
2.35483
2.35353
2.35286
2.35261
2.35285
2.35353
2.35479
2.35578
2.35686
2.3582
2.36354
2.36291
2.36193
2.36048
2.35914
2.35798
2.35746
2.35725
2.35764
2.35867
2.36022
2.36161
2.36275
2.36433
2.36689
2.36631
2.36549
2.36438
2.36339
2.36248
2.36204
2.36197
2.3625
2.36367
2.36508
2.36639
2.36744
2.36906
2.3706
2.36987
2.36922
2.36837
2.36757
2.36689
2.36654
2.36667
2.36737
2.36856
2.36991
2.37126
2.37231
2.37354
2.37448
2.37364
2.37307
2.37243
2.37176
2.37127
2.37104
2.37134
2.37219
2.37337
2.37463
2.37585
2.37677
2.37778
2.37842
2.37761
2.377
2.37647
2.37592
2.37559
2.37556
2.37601
2.37695
2.37817
2.37935
2.38044
2.3813
2.38213
2.38233
2.38163
2.38094
2.38052
2.38011
2.37993
2.38009
2.38073
2.38172
2.38295
2.38409
2.38505
2.38584
2.38656
2.38621
2.38565
2.38495
2.38464
2.38436
2.38434
2.38467
2.38545
2.38651
2.38773
2.38887
2.38978
2.39059
2.39124
2.39004
2.38967
2.38905
2.3889
2.38876
2.3889
2.38937
2.39022
2.39131
2.39254
2.39369
2.39463
2.39551
2.39607
2.39403
2.3939
2.39339
2.39338
2.39335
2.39359
2.39414
2.39502
2.39613
2.39738
2.39859
2.39961
2.40067
2.40114
2.39833
2.39843
2.39804
2.39815
2.39819
2.39845
2.39899
2.39985
2.40096
2.40224
2.40356
2.40465
2.40592
2.40623
2.403
2.40329
2.4029
2.40305
2.4031
2.40332
2.40381
2.40462
2.40573
2.40701
2.40848
2.40965
2.41116
2.41138
2.40812
2.40845
2.40811
2.40817
2.40816
2.40823
2.40865
2.40943
2.41055
2.41189
2.41348
2.41477
2.41642
2.41677
2.41336
2.41382
2.41338
2.41325
2.41316
2.41315
2.41349
2.41422
2.41532
2.41662
2.41828
2.41973
2.42147
2.42202
2.36269
2.36178
2.36033
2.35824
2.35625
2.35434
2.35298
2.35209
2.35196
2.352
2.35278
2.35348
2.35412
2.35441
2.36687
2.3654
2.36406
2.36226
2.36048
2.35875
2.35759
2.357
2.35697
2.35729
2.35833
2.3594
2.35993
2.36065
2.3707
2.36915
2.3679
2.36632
2.36477
2.36332
2.36235
2.36193
2.36204
2.3625
2.36353
2.36441
2.36476
2.36537
2.37482
2.37328
2.37204
2.37057
2.36915
2.36793
2.36716
2.36687
2.36712
2.36776
2.36865
2.36944
2.3698
2.37014
2.37904
2.37756
2.37632
2.37498
2.37368
2.37266
2.37207
2.37191
2.37222
2.37289
2.37365
2.37427
2.37453
2.37473
2.3833
2.3819
2.3806
2.37937
2.3782
2.37742
2.37702
2.377
2.37736
2.37795
2.37862
2.37913
2.37937
2.37947
2.38739
2.38607
2.38472
2.38364
2.3827
2.38221
2.38198
2.38212
2.38252
2.38302
2.38358
2.38399
2.38421
2.38429
2.39129
2.39005
2.38875
2.38787
2.38718
2.38695
2.38693
2.38721
2.38764
2.38811
2.38859
2.38896
2.38923
2.38928
2.39503
2.3939
2.39274
2.39213
2.39172
2.3917
2.39185
2.39226
2.3927
2.39317
2.39361
2.39399
2.39437
2.39434
2.39874
2.39786
2.39687
2.39652
2.39629
2.39642
2.3967
2.39718
2.39767
2.39817
2.39867
2.39911
2.39966
2.39958
2.40269
2.40215
2.40132
2.40116
2.401
2.40116
2.40146
2.40196
2.40249
2.40308
2.40369
2.40419
2.40496
2.40479
2.40693
2.40676
2.40597
2.40585
2.4057
2.4058
2.40606
2.40657
2.40715
2.40785
2.40862
2.40923
2.4102
2.40999
2.41188
2.4119
2.41113
2.41081
2.4105
2.41038
2.41056
2.4111
2.41173
2.41256
2.41348
2.41417
2.41528
2.4151
2.41714
2.41705
2.41619
2.41557
2.41513
2.41487
2.41499
2.41555
2.41624
2.41713
2.41818
2.41895
2.42009
2.42012
2.36515
2.36343
2.36174
2.35957
2.35743
2.35524
2.35344
2.35191
2.35114
2.35052
2.35048
2.35067
2.35097
2.35099
2.36994
2.36756
2.36578
2.36366
2.36165
2.35963
2.35804
2.35691
2.35632
2.35605
2.35621
2.35672
2.35687
2.35723
2.37409
2.37171
2.36995
2.36791
2.36606
2.36427
2.3629
2.36199
2.36156
2.36147
2.36166
2.36196
2.36184
2.3621
2.37842
2.37621
2.37439
2.3724
2.37062
2.36905
2.36787
2.36716
2.36686
2.36683
2.36705
2.36725
2.36709
2.36709
2.38264
2.38064
2.37885
2.37701
2.37536
2.37399
2.37299
2.37241
2.37215
2.37215
2.37224
2.37228
2.37201
2.37181
2.38688
2.385
2.38322
2.38155
2.38009
2.37898
2.37818
2.3777
2.37744
2.37738
2.37739
2.37732
2.37704
2.37669
2.39087
2.38906
2.38733
2.38595
2.38477
2.38397
2.38337
2.38298
2.3827
2.38254
2.38244
2.38229
2.38203
2.38164
2.39464
2.39292
2.39136
2.39024
2.38937
2.38888
2.38847
2.38818
2.3879
2.38765
2.3875
2.38735
2.38715
2.38682
2.39826
2.39669
2.39532
2.39452
2.39392
2.3937
2.39344
2.39325
2.39296
2.39267
2.39252
2.39241
2.39236
2.39199
2.40184
2.40056
2.39936
2.39882
2.39842
2.39838
2.39821
2.39812
2.39786
2.39763
2.39758
2.39752
2.39768
2.39728
2.40568
2.40476
2.4037
2.40331
2.40299
2.40299
2.40283
2.40276
2.40257
2.40246
2.40252
2.4025
2.40287
2.40244
2.40983
2.40924
2.40816
2.40777
2.40745
2.40739
2.40724
2.4072
2.40711
2.40714
2.40736
2.4074
2.40799
2.40762
2.4147
2.41424
2.41308
2.41246
2.41195
2.41171
2.41152
2.4115
2.41154
2.4117
2.41202
2.4121
2.41283
2.41253
2.41995
2.41906
2.41774
2.4168
2.41616
2.41585
2.41566
2.41571
2.41588
2.41611
2.41651
2.41675
2.41746
2.41739
2.3678
2.36536
2.36332
2.36102
2.35891
2.35667
2.35464
2.35261
2.35113
2.3497
2.34877
2.34808
2.34767
2.34761
2.37274
2.36978
2.36752
2.3651
2.36299
2.36089
2.35909
2.3575
2.3563
2.35529
2.35457
2.35415
2.35377
2.35382
2.37698
2.37409
2.37181
2.36941
2.36736
2.36543
2.36385
2.36251
2.36152
2.36074
2.36003
2.35948
2.35899
2.3588
2.38131
2.37862
2.37628
2.37391
2.37191
2.37015
2.36875
2.36761
2.36673
2.36606
2.36542
2.36495
2.36446
2.36399
2.38542
2.38292
2.38065
2.37847
2.37661
2.37504
2.37377
2.37272
2.3719
2.37123
2.37062
2.3701
2.36951
2.36896
2.38943
2.38707
2.38491
2.38299
2.38136
2.37999
2.37884
2.37785
2.37704
2.37633
2.37575
2.37521
2.37462
2.37403
2.39318
2.39098
2.38905
2.38746
2.3861
2.38496
2.38391
2.38298
2.38215
2.38139
2.38073
2.38018
2.37963
2.37904
2.39687
2.39487
2.39318
2.3919
2.39078
2.38985
2.38893
2.38807
2.38721
2.38639
2.3857
2.3852
2.38473
2.38419
2.40052
2.39881
2.39733
2.39633
2.39541
2.39465
2.3938
2.39297
2.39211
2.39129
2.39063
2.39021
2.38988
2.38934
2.40428
2.40291
2.40154
2.40074
2.3999
2.39925
2.39843
2.39765
2.39689
2.39616
2.39564
2.39529
2.39517
2.39462
2.40827
2.40726
2.40599
2.40527
2.4044
2.40373
2.40288
2.40216
2.4015
2.40091
2.40053
2.40022
2.40035
2.39978
2.41255
2.41178
2.41046
2.40968
2.40872
2.40799
2.40713
2.40649
2.40594
2.40554
2.40536
2.4051
2.40545
2.40495
2.41729
2.4165
2.41508
2.41412
2.41301
2.41216
2.41129
2.41071
2.41023
2.40999
2.40995
2.40975
2.41023
2.4098
2.42219
2.42085
2.41926
2.41806
2.41694
2.4161
2.41533
2.41481
2.41443
2.41425
2.41424
2.41421
2.4147
2.41469
2.36963
2.36688
2.36454
2.36209
2.36005
2.35802
2.35619
2.35417
2.35234
2.35047
2.34888
2.34718
2.34585
2.34504
2.3745
2.37133
2.36879
2.36618
2.36405
2.36207
2.36042
2.35881
2.3573
2.35583
2.35448
2.35318
2.35184
2.35092
2.37874
2.37561
2.37305
2.37043
2.36832
2.36645
2.36493
2.3635
2.36221
2.36097
2.35968
2.35834
2.35704
2.35588
2.3831
2.38008
2.37745
2.37486
2.37277
2.37098
2.36955
2.36825
2.36707
2.36592
2.36473
2.36351
2.36229
2.3611
2.38711
2.38427
2.38172
2.37932
2.37734
2.37565
2.37427
2.37299
2.37181
2.37067
2.36954
2.36833
2.36716
2.36605
2.39095
2.38832
2.38596
2.38382
2.38199
2.3804
2.37901
2.37772
2.37652
2.37536
2.3742
2.37306
2.37207
2.3711
2.3946
2.39227
2.39021
2.38837
2.3867
2.38519
2.38377
2.38246
2.38116
2.37991
2.37873
2.37772
2.3769
2.37607
2.39836
2.39637
2.39455
2.39295
2.39138
2.38992
2.38845
2.38706
2.3857
2.38444
2.38335
2.38256
2.38188
2.38118
2.40225
2.40061
2.39895
2.39751
2.39599
2.39449
2.39295
2.39154
2.3902
2.38903
2.38811
2.38753
2.38698
2.38636
2.40636
2.40498
2.40334
2.40193
2.40038
2.39885
2.39731
2.39596
2.39476
2.39378
2.39309
2.39267
2.39235
2.39173
2.41054
2.40937
2.4077
2.40634
2.40471
2.40316
2.40166
2.40041
2.39937
2.39855
2.39805
2.39773
2.39768
2.39702
2.41478
2.41367
2.41195
2.41054
2.40885
2.40732
2.40588
2.40477
2.40386
2.40325
2.40299
2.40275
2.40293
2.40229
2.41915
2.41797
2.41618
2.4147
2.41297
2.41146
2.41007
2.40905
2.40821
2.40774
2.40764
2.4075
2.40775
2.40721
2.42354
2.4219
2.41999
2.41843
2.41679
2.41541
2.41413
2.41317
2.41238
2.41196
2.41191
2.41188
2.41218
2.41212
2.34105
2.34472
2.34924
2.34901
2.35702
2.36546
2.33704
2.33898
2.34136
2.34403
2.35238
2.36119
2.33954
2.3404
2.34223
2.34459
2.35246
2.36042
2.34167
2.34173
2.34231
2.34284
2.34764
2.35362
2.34341
2.34276
2.34256
2.34191
2.34428
2.34642
2.34492
2.34349
2.34258
2.34137
2.34256
2.34279
2.34641
2.34403
2.34276
2.34135
2.34275
2.34416
2.34819
2.34528
2.34419
2.34274
2.34422
2.34503
2.35037
2.34755
2.34715
2.34629
2.34926
2.34875
2.35283
2.35049
2.3507
2.35097
2.35715
2.35658
2.35573
2.35427
2.35586
2.35782
2.36775
2.36787
2.3599
2.35876
2.36143
2.3635
2.37438
2.3746
2.36496
2.36378
2.36895
2.37256
2.38182
2.38144
2.3648
2.36604
2.36888
2.37285
2.38232
2.38825
2.34521
2.34745
2.34914
2.35013
2.35236
2.35791
2.34202
2.34302
2.34369
2.34589
2.34847
2.35554
2.34297
2.34303
2.34317
2.34556
2.34918
2.35797
2.34376
2.34322
2.34304
2.34482
2.34796
2.35776
2.34467
2.34381
2.34351
2.34473
2.3467
2.35419
2.3455
2.34414
2.34303
2.3422
2.34151
2.34731
2.34658
2.3441
2.34176
2.33947
2.33827
2.34559
2.348
2.34442
2.34137
2.33846
2.33705
2.34466
2.34997
2.34579
2.34294
2.34031
2.33953
2.34591
2.35225
2.34808
2.34582
2.34388
2.34423
2.34821
2.35503
2.35184
2.35072
2.3499
2.35139
2.35265
2.35851
2.35636
2.35596
2.35564
2.35845
2.35912
2.36328
2.36174
2.36331
2.36442
2.36665
2.36652
2.36427
2.36433
2.3647
2.36549
2.36907
2.37254
2.35069
2.35122
2.35223
2.35168
2.35162
2.35381
2.34803
2.34723
2.34584
2.34549
2.34751
2.35112
2.34735
2.34573
2.34475
2.34536
2.34766
2.35233
2.34644
2.34444
2.34354
2.34467
2.34802
2.35518
2.34653
2.34474
2.34395
2.34549
2.34895
2.35568
2.34665
2.34465
2.34383
2.34404
2.345
2.34976
2.34722
2.34454
2.34241
2.3407
2.34009
2.34583
2.3482
2.34451
2.34117
2.33835
2.33746
2.3439
2.34976
2.34511
2.34138
2.33826
2.33734
2.34299
2.35174
2.34653
2.34301
2.33974
2.33914
2.34334
2.35426
2.34945
2.34687
2.34397
2.34315
2.34537
2.35704
2.35317
2.35111
2.34864
2.34841
2.3495
2.36118
2.35841
2.3578
2.35671
2.35588
2.35548
2.36166
2.35985
2.35881
2.35813
2.35931
2.36147
2.35537
2.35428
2.35401
2.35247
2.35115
2.35169
2.35314
2.35097
2.34873
2.34698
2.3467
2.34865
2.35178
2.34924
2.34691
2.34484
2.34395
2.3458
2.34985
2.34675
2.34409
2.34285
2.3429
2.34718
2.34859
2.34551
2.3431
2.34269
2.34383
2.35066
2.3478
2.34461
2.34209
2.34173
2.34303
2.34937
2.34786
2.3444
2.34123
2.33982
2.33963
2.34518
2.34823
2.34425
2.34033
2.33765
2.33648
2.34244
2.34916
2.34458
2.34033
2.33707
2.3355
2.34071
2.35068
2.3456
2.34122
2.33769
2.33644
2.3401
2.35281
2.34763
2.34392
2.34045
2.33877
2.34057
2.35487
2.35004
2.34679
2.3435
2.34239
2.3432
2.35806