/*--------------------------------*- C++ -*----------------------------------*\
| =========                 |                                                 |
| \\      /  F ield         | OpenFOAM: The Open Source CFD Toolbox           |
|  \\    /   O peration     | Version:  v2106                                 |
|   \\  /    A nd           | Website:  www.openfoam.com                      |
|    \\/     M anipulation  |                                                 |
\*---------------------------------------------------------------------------*/
FoamFile
{
    version     2.0;
    format      ascii;
    arch        "LSB;label=32;scalar=64";
    class       volScalarField;
    location    "0.000215";
    object      Ttot;
}
// * * * * * * * * * * * * * * * * * * * * * * * * * * * * * * * * * * * * * //

dimensions      [0 0 0 1 0 0 0];

internalField   nonuniform List<scalar> 
144746
(
294.3
294.077
294.02
294.209
294.265
294.267
294.173
294.048
293.909
293.798
293.628
293.533
293.384
293.524
294.395
294.709
294.726
294.97
295.112
295.162
295.125
295.041
294.934
294.777
294.571
294.347
293.946
293.463
294.661
295.126
295.245
295.483
295.628
295.709
295.724
295.686
295.602
295.447
295.213
294.894
294.418
293.825
294.948
295.4
295.577
295.801
295.95
296.047
296.089
296.087
296.032
295.922
295.747
295.45
295.04
294.444
295.193
295.615
295.813
296.011
296.145
296.228
296.27
296.29
296.275
296.207
296.086
295.875
295.563
295.037
295.393
295.781
296.012
296.191
296.293
296.346
296.373
296.397
296.404
296.375
296.306
296.164
295.946
295.47
295.549
295.914
296.153
296.305
296.385
296.422
296.44
296.456
296.466
296.459
296.428
296.342
296.161
295.734
295.697
296.037
296.263
296.394
296.459
296.493
296.505
296.512
296.516
296.51
296.492
296.439
296.277
295.873
295.807
296.133
296.343
296.453
296.51
296.541
296.553
296.556
296.558
296.547
296.523
296.479
296.336
295.957
295.864
296.193
296.4
296.493
296.551
296.583
296.598
296.602
296.602
296.585
296.546
296.48
296.322
295.951
295.872
296.216
296.418
296.514
296.577
296.612
296.631
296.635
296.626
296.601
296.555
296.462
296.276
295.902
295.824
296.168
296.401
296.513
296.578
296.62
296.642
296.646
296.633
296.592
296.519
296.385
296.183
295.828
295.826
296.113
296.331
296.473
296.549
296.592
296.608
296.606
296.587
296.52
296.38
296.151
295.929
295.701
295.868
295.953
296.173
296.339
296.44
296.481
296.493
296.487
296.45
296.352
296.155
295.911
295.687
295.652
294.52
294.594
294.678
294.844
294.952
294.995
294.974
294.919
294.824
294.729
294.606
294.52
294.441
294.704
294.469
295.012
295.196
295.386
295.526
295.59
295.605
295.584
295.531
295.453
295.369
295.287
295.073
294.775
294.756
295.3
295.528
295.734
295.872
295.932
295.967
295.958
295.928
295.852
295.736
295.61
295.392
295.071
295.074
295.518
295.741
295.933
296.087
296.158
296.195
296.183
296.16
296.109
296.045
295.944
295.797
295.521
295.31
295.671
295.883
296.072
296.208
296.276
296.307
296.305
296.3
296.276
296.253
296.198
296.125
295.925
295.502
295.809
296.02
296.188
296.291
296.346
296.37
296.376
296.383
296.386
296.4
296.388
296.354
296.193
295.635
295.925
296.106
296.24
296.311
296.356
296.385
296.411
296.439
296.47
296.507
296.517
296.497
296.351
295.75
296.028
296.196
296.308
296.357
296.392
296.419
296.454
296.496
296.542
296.58
296.599
296.578
296.438
295.836
296.108
296.26
296.349
296.385
296.415
296.445
296.489
296.541
296.596
296.637
296.662
296.638
296.504
295.895
296.173
296.326
296.405
296.438
296.465
296.493
296.538
296.589
296.644
296.682
296.705
296.681
296.55
295.935
296.212
296.37
296.434
296.467
296.495
296.528
296.577
296.629
296.684
296.714
296.745
296.713
296.59
295.957
296.236
296.398
296.469
296.512
296.55
296.59
296.637
296.68
296.714
296.724
296.749
296.707
296.564
295.993
296.205
296.391
296.488
296.543
296.58
296.621
296.661
296.692
296.705
296.688
296.67
296.622
296.494
295.944
296.096
296.337
296.467
296.53
296.565
296.607
296.634
296.646
296.632
296.587
296.523
296.448
296.403
294.914
295.126
295.147
295.22
295.285
295.361
295.401
295.427
295.398
295.334
295.232
295.101
294.941
295.177
295.074
295.463
295.597
295.691
295.743
295.796
295.83
295.845
295.832
295.793
295.753
295.699
295.602
295.47
295.511
295.743
295.917
296.03
296.086
296.125
296.139
296.141
296.13
296.096
296.06
295.989
295.914
295.768
295.839
295.998
296.141
296.259
296.32
296.352
296.351
296.341
296.33
296.314
296.303
296.265
296.238
296.126
296.063
296.209
296.33
296.423
296.472
296.495
296.491
296.48
296.478
296.477
296.495
296.493
296.508
296.434
296.265
296.404
296.501
296.555
296.583
296.595
296.597
296.593
296.596
296.612
296.652
296.679
296.715
296.671
296.422
296.544
296.616
296.648
296.661
296.669
296.678
296.693
296.715
296.746
296.791
296.833
296.871
296.852
296.608
296.701
296.749
296.764
296.762
296.764
296.772
296.796
296.835
296.883
296.928
296.972
296.995
296.997
296.751
296.834
296.867
296.871
296.86
296.859
296.868
296.902
296.952
297.015
297.068
297.111
297.114
297.126
296.9
296.972
297.005
297.012
297
296.997
297.004
297.039
297.086
297.148
297.197
297.24
297.234
297.239
297.038
297.115
297.138
297.131
297.12
297.124
297.142
297.184
297.232
297.29
297.329
297.365
297.36
297.356
297.205
297.269
297.301
297.3
297.293
297.295
297.316
297.353
297.392
297.432
297.443
297.45
297.44
297.417
297.354
297.418
297.461
297.447
297.421
297.413
297.431
297.466
297.504
297.544
297.553
297.555
297.54
297.551
297.352
297.598
297.642
297.638
297.604
297.582
297.582
297.599
297.617
297.634
297.622
297.608
297.618
297.574
292.976
292.616
291.767
291.4
290.963
291.343
292.342
291.903
291.116
291.037
290.792
291.075
292.93
292.301
291.473
291.382
290.991
291.372
293.519
292.644
291.701
291.494
291.083
291.513
294.158
293.13
292.08
291.788
291.337
291.887
294.557
293.45
292.336
291.985
291.545
292.122
294.866
293.805
292.699
292.323
291.887
292.161
295.067
294.08
292.961
292.53
292.017
292.303
295.243
294.387
293.291
292.831
292.253
292.212
295.327
294.585
293.521
292.977
292.407
292.057
295.368
294.713
293.71
293.065
292.482
292.012
295.312
294.667
293.705
293.081
292.582
291.959
295.22
294.643
293.769
293.216
292.764
291.931
294.868
294.359
293.515
293.079
292.701
291.767
294.301
293.612
292.582
292.075
291.611
291.667
293.838
293.217
292.216
291.926
291.531
291.69
294.42
293.801
292.897
292.648
292.182
291.924
294.942
294.276
293.423
293.006
292.524
291.959
295.454
294.804
293.961
293.415
292.886
292.283
295.744
295.077
294.231
293.564
293.088
292.42
295.932
295.285
294.453
293.702
293.219
292.529
296.046
295.419
294.603
293.799
293.266
292.519
296.155
295.553
294.743
293.887
293.309
292.427
296.241
295.677
294.878
293.994
293.389
292.325
296.321
295.795
295.031
294.136
293.524
292.283
296.34
295.831
295.093
294.21
293.638
292.265
296.263
295.795
295.043
294.246
293.732
292.256
295.916
295.473
294.738
294.052
293.64
292.103
295.178
294.528
293.619
292.956
292.486
292.029
294.924
294.322
293.376
292.949
292.644
292.208
295.341
294.774
293.988
293.658
293.371
292.73
295.778
295.272
294.642
294.226
293.894
293.001
296.196
295.773
295.244
294.732
294.305
293.097
296.522
296.165
295.678
295.062
294.531
293.104
296.753
296.468
296.021
295.339
294.727
293.052
296.911
296.694
296.297
295.597
294.91
292.962
297.04
296.889
296.54
295.846
295.111
292.958
297.168
297.083
296.79
296.102
295.345
293.089
297.326
297.29
297.043
296.364
295.599
293.289
297.449
297.471
297.274
296.598
295.804
293.437
297.63
297.658
297.472
296.779
295.963
293.546
297.567
297.542
297.293
296.562
295.768
293.441
295.254
294.926
293.992
293.571
292.971
292.124
294.976
294.593
293.618
293.25
292.632
291.565
295.307
294.829
293.841
293.475
292.875
291.685
295.622
295.07
294.095
293.553
292.992
291.472
295.941
295.381
294.488
293.823
293.338
291.705
296.109
295.554
294.75
294.037
293.608
291.924
296.183
295.655
294.944
294.33
294.026
292.367
296.219
295.714
295.106
294.502
294.268
292.597
296.233
295.759
295.27
294.659
294.388
292.673
296.239
295.785
295.361
294.704
294.356
292.572
296.199
295.753
295.291
294.574
294.097
292.377
296.063
295.608
294.986
294.243
293.645
291.973
295.757
295.257
294.447
293.758
293.067
291.653
295.21
294.654
293.78
293.232
292.567
291.181
296.172
295.823
295.03
294.41
293.891
292.393
296.021
295.661
294.848
294.253
293.673
291.993
296.198
295.814
295.047
294.479
294.008
292.163
296.332
295.98
295.298
294.67
294.252
292.148
296.45
296.124
295.553
294.915
294.585
292.432
296.501
296.192
295.719
295.128
294.871
292.653
296.505
296.218
295.821
295.318
295.163
292.917
296.487
296.215
295.89
295.399
295.27
292.959
296.459
296.188
295.929
295.406
295.252
292.882
296.445
296.13
295.894
295.275
295.014
292.591
296.41
296.029
295.755
294.998
294.524
292.141
296.296
295.836
295.436
294.566
293.917
291.567
296.061
295.509
294.93
294.057
293.333
291.229
295.501
294.902
294.248
293.424
292.808
290.757
297.802
297.843
297.663
296.868
296.042
293.581
297.699
297.723
297.571
296.806
296.047
293.664
297.695
297.711
297.615
296.971
296.374
293.913
297.707
297.74
297.727
297.212
296.646
294.124
297.724
297.783
297.816
297.428
296.853
294.206
297.709
297.801
297.875
297.55
296.943
294.159
297.698
297.804
297.892
297.552
296.832
293.855
297.696
297.816
297.876
297.463
296.543
293.332
297.715
297.841
297.819
297.22
296.027
292.644
297.748
297.855
297.743
296.806
295.313
291.744
297.781
297.791
297.617
296.26
294.5
290.798
297.81
297.543
297.281
295.602
293.72
290.004
297.833
297.255
296.745
294.912
293.098
289.587
297.297
296.5
295.764
293.974
292.455
289.2
291.681
291.182
291.613
291.783
292.526
293.302
291.883
291.68
292.151
292.579
293.388
294.062
291.676
292.016
292.434
292.949
293.776
294.457
292.154
292.119
292.726
293.241
294.031
294.722
292.732
291.987
292.641
293.216
294.049
294.847
292.526
292.321
292.814
293.377
294.145
294.969
292.36
292.319
292.892
293.509
294.293
295.089
292.178
292.282
292.988
293.664
294.465
295.219
291.682
292.081
292.863
293.642
294.538
295.292
291.298
292.044
292.854
293.602
294.562
295.305
290.882
291.899
292.711
293.441
294.493
295.24
290.999
292.068
292.943
293.511
294.568
295.155
290.866
292.107
292.996
293.591
294.645
295.119
291.298
292.696
293.594
294.203
295.039
295.475
290.707
290.49
291.002
291.488
292.416
293.424
290.789
290.748
291.378
292.187
293.253
294.161
290.718
291.137
291.725
292.632
293.636
294.536
291.055
291.464
292.156
293.064
293.939
294.823
291.401
291.658
292.393
293.339
294.166
295.006
291.676
291.97
292.627
293.614
294.428
295.17
291.712
292.095
292.763
293.8
294.619
295.273
291.665
292.279
292.961
293.97
294.76
295.377
291.431
292.308
292.989
293.975
294.791
295.432
291.203
292.418
293.062
293.979
294.809
295.459
290.918
292.361
293.017
293.922
294.81
295.468
290.861
292.512
293.182
293.972
294.854
295.457
290.731
292.449
293.224
294.091
294.967
295.488
291.01
293
293.828
294.693
295.327
295.762
288.619
289.653
290.347
291.434
292.568
293.863
288.414
289.849
290.795
292.287
293.535
294.868
288.196
290.035
291.143
292.927
294.046
295.314
288.393
290.453
291.705
293.561
294.531
295.604
288.692
290.875
292.285
294.127
294.988
295.79
289.196
291.407
292.907
294.636
295.447
296.004
289.665
291.881
293.371
294.977
295.756
296.215
290.054
292.378
293.855
295.345
296.049
296.439
290.35
292.748
294.256
295.604
296.256
296.597
290.533
293.051
294.565
295.822
296.428
296.753
290.526
293.125
294.626
295.883
296.521
296.885
290.322
293.057
294.571
295.983
296.663
297.062
289.948
292.676
294.276
295.995
296.842
297.252
289.633
292.752
294.424
296.237
297.097
297.496
291.212
290.852
291.147
291.212
291.853
292.435
291.145
290.825
291.21
291.479
292.194
292.836
291.06
290.704
291.107
291.352
292.131
292.917
291.044
290.632
291.062
291.275
292.044
292.873
291.095
290.566
290.95
291.006
291.766
292.75
291.213
290.625
290.924
290.835
291.564
292.645
291.248
290.616
290.812
290.658
291.385
292.642
291.136
290.566
290.713
290.591
291.394
292.753
290.943
290.453
290.594
290.636
291.552
292.919
290.936
290.49
290.719
290.878
291.803
293.036
290.8
290.528
290.866
291.098
292.019
293.103
291.121
290.808
291.197
291.364
292.244
293.065
291.189
290.743
291.15
291.334
292.283
292.888
291.754
291.409
291.947
292.311
293.178
293.673
291.155
291.137
291.365
291.737
292.644
293.495
290.92
290.732
291.137
291.881
292.973
293.914
290.583
290.378
290.909
291.647
292.825
293.919
290.572
290.207
290.783
291.489
292.681
293.838
290.551
290.096
290.629
291.215
292.467
293.759
290.645
290.122
290.583
291.07
292.345
293.738
290.691
290.097
290.508
290.989
292.327
293.795
290.657
290.169
290.517
291.062
292.414
293.875
290.595
290.249
290.571
291.217
292.573
293.96
290.615
290.403
290.802
291.447
292.731
293.984
290.539
290.484
291.002
291.607
292.803
293.924
290.781
290.633
291.216
291.675
292.814
293.773
290.668
290.386
290.97
291.498
292.634
293.515
290.907
290.92
291.583
292.216
293.257
294.028
291.116
291.526
291.75
292.383
293.386
294.266
290.538
290.671
291.265
292.395
293.553
294.545
289.96
289.985
290.738
292.032
293.358
294.493
289.844
289.814
290.612
291.917
293.319
294.516
289.85
289.751
290.562
291.843
293.352
294.605
290.047
289.831
290.624
291.907
293.447
294.681
290.135
289.872
290.696
292.04
293.558
294.721
290.232
290.038
290.821
292.17
293.624
294.711
290.227
290.231
291.019
292.302
293.653
294.681
290.252
290.441
291.25
292.391
293.621
294.592
290.07
290.383
291.22
292.291
293.46
294.454
290.028
290.317
291.149
292.132
293.304
294.318
289.436
290.021
290.872
292.043
293.231
294.213
289.24
290.268
291.288
292.63
293.661
294.621
295.061
295.237
295.323
295.382
295.414
295.451
295.48
295.499
295.507
295.501
295.48
295.451
295.366
295.407
295.319
295.513
295.599
295.657
295.698
295.747
295.787
295.815
295.836
295.839
295.838
295.863
295.866
295.841
295.642
295.777
295.838
295.897
295.931
295.967
295.994
296.017
296.041
296.054
296.077
296.103
296.14
296.121
295.91
296.001
296.029
296.079
296.105
296.125
296.143
296.162
296.193
296.225
296.275
296.325
296.388
296.397
296.125
296.172
296.188
296.214
296.225
296.232
296.241
296.257
296.288
296.333
296.404
296.477
296.575
296.623
296.313
296.314
296.31
296.313
296.309
296.309
296.316
296.335
296.372
296.431
296.516
296.611
296.733
296.815
296.471
296.438
296.415
296.401
296.383
296.377
296.383
296.408
296.454
296.523
296.616
296.728
296.86
296.975
296.624
296.566
296.523
296.494
296.464
296.453
296.458
296.488
296.543
296.624
296.722
296.846
296.973
297.122
296.755
296.682
296.628
296.592
296.557
296.545
296.553
296.589
296.649
296.738
296.837
296.965
297.083
297.247
296.941
296.844
296.775
296.73
296.694
296.679
296.686
296.722
296.781
296.869
296.965
297.094
297.204
297.365
297.106
297.001
296.917
296.865
296.836
296.83
296.848
296.888
296.947
297.031
297.119
297.242
297.34
297.492
297.424
297.272
297.161
297.078
297.042
297.031
297.054
297.091
297.145
297.22
297.297
297.41
297.493
297.639
297.706
297.558
297.394
297.278
297.23
297.22
297.253
297.3
297.36
297.439
297.511
297.617
297.69
297.87
298.062
298.018
297.826
297.673
297.589
297.549
297.557
297.585
297.631
297.703
297.773
297.902
297.966
298.165
295.07
295.207
295.273
295.323
295.378
295.428
295.472
295.499
295.521
295.528
295.524
295.516
295.457
295.455
295.295
295.429
295.498
295.57
295.617
295.668
295.719
295.76
295.799
295.833
295.863
295.897
295.903
295.886
295.542
295.677
295.734
295.801
295.845
295.882
295.918
295.953
295.989
296.025
296.063
296.107
296.146
296.157
295.82
295.899
295.939
295.995
296.029
296.052
296.073
296.099
296.136
296.182
296.244
296.306
296.368
296.399
296.024
296.074
296.109
296.153
296.175
296.186
296.197
296.216
296.252
296.303
296.373
296.444
296.525
296.578
296.19
296.222
296.243
296.275
296.285
296.29
296.297
296.315
296.354
296.413
296.493
296.581
296.681
296.748
296.327
296.346
296.351
296.369
296.369
296.373
296.381
296.405
296.45
296.519
296.606
296.708
296.817
296.902
296.445
296.453
296.447
296.455
296.452
296.456
296.468
296.499
296.551
296.628
296.72
296.831
296.944
297.051
296.563
296.566
296.554
296.556
296.551
296.558
296.574
296.611
296.665
296.744
296.836
296.95
297.058
297.179
296.687
296.685
296.675
296.676
296.675
296.684
296.705
296.743
296.797
296.874
296.961
297.072
297.174
297.295
296.822
296.816
296.807
296.806
296.815
296.831
296.863
296.906
296.958
297.03
297.109
297.209
297.295
297.406
297.014
296.989
296.969
296.957
296.977
297.003
297.046
297.093
297.143
297.207
297.276
297.361
297.43
297.529
297.155
297.144
297.12
297.106
297.137
297.179
297.241
297.299
297.354
297.413
297.471
297.536
297.588
297.695
297.472
297.455
297.404
297.364
297.379
297.412
297.465
297.517
297.567
297.626
297.682
297.746
297.789
297.921
295.048
295.147
295.172
295.209
295.268
295.327
295.39
295.441
295.482
295.507
295.516
295.53
295.507
295.498
295.272
295.366
295.418
295.467
295.505
295.55
295.603
295.656
295.709
295.766
295.823
295.877
295.891
295.885
295.502
295.594
295.649
295.698
295.73
295.756
295.789
295.831
295.88
295.938
296.002
296.067
296.11
296.135
295.752
295.812
295.858
295.903
295.924
295.934
295.948
295.975
296.016
296.076
296.154
296.239
296.308
296.342
295.951
296.003
296.036
296.07
296.077
296.077
296.08
296.098
296.137
296.196
296.273
296.356
296.439
296.503
296.124
296.165
296.179
296.198
296.194
296.191
296.193
296.21
296.252
296.314
296.394
296.485
296.581
296.655
296.274
296.297
296.296
296.302
296.294
296.291
296.297
296.32
296.368
296.434
296.518
296.614
296.717
296.804
296.412
296.423
296.413
296.41
296.399
296.399
296.41
296.439
296.489
296.559
296.645
296.747
296.855
296.961
296.547
296.548
296.533
296.525
296.516
296.52
296.537
296.571
296.623
296.693
296.779
296.88
296.989
297.106
296.69
296.686
296.672
296.666
296.662
296.668
296.688
296.723
296.772
296.839
296.921
297.019
297.127
297.244
296.837
296.831
296.82
296.817
296.82
296.835
296.863
296.901
296.948
297.01
297.085
297.174
297.271
297.375
296.997
296.99
296.992
296.994
297.009
297.031
297.065
297.103
297.146
297.199
297.266
297.341
297.429
297.517
297.163
297.156
297.162
297.16
297.189
297.225
297.274
297.323
297.37
297.42
297.478
297.536
297.613
297.698
297.402
297.385
297.37
297.357
297.389
297.436
297.493
297.544
297.591
297.64
297.697
297.743
297.819
297.897
295.029
295.096
295.124
295.155
295.2
295.246
295.297
295.348
295.391
295.43
295.449
295.457
295.439
295.439
295.267
295.33
295.375
295.411
295.432
295.457
295.49
295.534
295.586
295.65
295.716
295.774
295.796
295.793
295.482
295.556
295.606
295.641
295.651
295.655
295.668
295.7
295.75
295.814
295.881
295.948
295.993
296.029
295.714
295.776
295.816
295.842
295.841
295.829
295.827
295.846
295.889
295.952
296.029
296.112
296.178
296.219
295.922
295.97
295.991
296.006
295.992
295.976
295.97
295.982
296.021
296.083
296.161
296.244
296.318
296.378
296.111
296.139
296.138
296.134
296.114
296.101
296.099
296.114
296.155
296.217
296.296
296.384
296.472
296.542
296.274
296.284
296.264
296.248
296.228
296.219
296.223
296.246
296.292
296.355
296.435
296.526
296.621
296.702
296.427
296.421
296.392
296.368
296.348
296.345
296.355
296.384
296.435
296.5
296.582
296.673
296.772
296.869
296.574
296.554
296.523
296.498
296.482
296.486
296.503
296.537
296.589
296.653
296.734
296.823
296.921
297.028
296.723
296.697
296.668
296.648
296.638
296.645
296.665
296.7
296.75
296.812
296.89
296.977
297.075
297.183
296.872
296.844
296.822
296.809
296.809
296.823
296.85
296.885
296.933
296.991
297.064
297.143
297.237
297.333
297.033
297.011
297
296.993
297
297.017
297.048
297.083
297.127
297.18
297.25
297.318
297.411
297.492
297.206
297.19
297.179
297.173
297.188
297.215
297.257
297.3
297.346
297.398
297.468
297.524
297.611
297.682
297.405
297.415
297.39
297.374
297.39
297.424
297.47
297.513
297.559
297.611
297.683
297.733
297.822
297.879
295.017
295.073
295.113
295.128
295.144
295.163
295.203
295.244
295.287
295.33
295.372
295.376
295.37
295.359
295.273
295.325
295.368
295.379
295.373
295.369
295.388
295.414
295.456
295.519
295.6
295.661
295.685
295.687
295.484
295.547
295.588
295.598
295.581
295.565
295.563
295.577
295.615
295.675
295.748
295.82
295.865
295.897
295.722
295.77
295.794
295.794
295.767
295.741
295.723
295.73
295.766
295.822
295.891
295.969
296.03
296.07
295.952
295.972
295.968
295.955
295.922
295.893
295.873
295.881
295.914
295.97
296.034
296.103
296.162
296.217
296.154
296.15
296.119
296.092
296.057
296.029
296.017
296.029
296.064
296.12
296.185
296.252
296.316
296.372
296.324
296.303
296.254
296.218
296.182
296.159
296.157
296.176
296.216
296.272
296.34
296.407
296.474
296.533
296.479
296.444
296.388
296.346
296.311
296.297
296.305
296.328
296.371
296.429
296.496
296.567
296.639
296.706
296.622
296.574
296.517
296.478
296.45
296.444
296.461
296.489
296.535
296.593
296.658
296.73
296.807
296.88
296.758
296.707
296.656
296.625
296.606
296.606
296.626
296.656
296.702
296.759
296.824
296.895
296.978
297.055
296.897
296.847
296.806
296.787
296.777
296.782
296.805
296.835
296.881
296.937
297.004
297.069
297.154
297.226
297.051
297.011
296.981
296.969
296.965
296.971
296.995
297.024
297.068
297.122
297.195
297.255
297.34
297.403
297.232
297.201
297.175
297.162
297.16
297.167
297.195
297.23
297.276
297.331
297.41
297.467
297.548
297.603
297.437
297.43
297.396
297.37
297.365
297.374
297.401
297.434
297.483
297.541
297.625
297.686
297.762
297.805
295.06
295.1
295.137
295.137
295.126
295.117
295.131
295.154
295.19
295.211
295.241
295.246
295.243
295.225
295.34
295.361
295.385
295.37
295.339
295.308
295.3
295.315
295.344
295.38
295.444
295.505
295.525
295.534
295.566
295.587
295.597
295.572
295.528
295.493
295.474
295.478
295.5
295.533
295.595
295.66
295.696
295.721
295.804
295.808
295.791
295.755
295.704
295.665
295.64
295.634
295.654
295.691
295.746
295.812
295.86
295.885
296.028
296.002
295.957
295.911
295.858
295.821
295.797
295.793
295.813
295.851
295.898
295.952
295.998
296.036
296.219
296.171
296.103
296.049
295.999
295.968
295.951
295.953
295.975
296.014
296.06
296.108
296.157
296.2
296.38
296.315
296.233
296.177
296.133
296.111
296.104
296.115
296.141
296.182
296.225
296.269
296.32
296.37
296.521
296.443
296.361
296.306
296.27
296.258
296.262
296.281
296.312
296.353
296.394
296.437
296.491
296.553
296.646
296.558
296.481
296.436
296.413
296.412
296.427
296.452
296.485
296.527
296.568
296.609
296.665
296.736
296.762
296.678
296.61
296.578
296.566
296.574
296.596
296.623
296.659
296.702
296.746
296.786
296.848
296.916
296.886
296.812
296.755
296.736
296.732
296.746
296.771
296.799
296.836
296.884
296.932
296.972
297.036
297.09
297.034
296.975
296.926
296.913
296.913
296.926
296.951
296.98
297.02
297.071
297.127
297.17
297.235
297.272
297.227
297.18
297.133
297.111
297.105
297.113
297.139
297.174
297.22
297.276
297.337
297.379
297.446
297.472
297.447
297.41
297.357
297.318
297.305
297.309
297.335
297.37
297.425
297.485
297.549
297.593
297.66
297.69
295.128
295.139
295.155
295.138
295.122
295.104
295.106
295.105
295.122
295.123
295.131
295.124
295.128
295.119
295.428
295.407
295.403
295.365
295.327
295.29
295.27
295.265
295.274
295.288
295.32
295.365
295.391
295.408
295.655
295.627
295.607
295.559
295.511
295.47
295.443
295.43
295.432
295.445
295.475
295.522
295.555
295.584
295.879
295.838
295.793
295.737
295.681
295.64
295.609
295.592
295.592
295.606
295.637
295.684
295.722
295.747
296.08
296.019
295.951
295.89
295.834
295.797
295.769
295.754
295.754
295.772
295.798
295.834
295.869
295.898
296.254
296.178
296.093
296.03
295.979
295.948
295.926
295.916
295.922
295.939
295.964
295.996
296.032
296.068
296.404
296.314
296.222
296.162
296.12
296.097
296.084
296.08
296.091
296.107
296.131
296.16
296.198
296.241
296.537
296.437
296.349
296.294
296.261
296.249
296.244
296.248
296.262
296.276
296.299
296.33
296.374
296.423
296.656
296.552
296.47
296.426
296.405
296.403
296.406
296.417
296.432
296.444
296.468
296.504
296.555
296.603
296.77
296.674
296.6
296.567
296.555
296.56
296.569
296.586
296.601
296.613
296.641
296.683
296.741
296.78
296.898
296.816
296.748
296.722
296.715
296.724
296.737
296.757
296.771
296.787
296.822
296.867
296.928
296.948
297.05
296.982
296.916
296.891
296.886
296.894
296.91
296.933
296.947
296.968
297.015
297.067
297.129
297.129
297.25
297.191
297.123
297.086
297.07
297.074
297.093
297.121
297.141
297.166
297.22
297.275
297.338
297.328
297.482
297.411
297.334
297.28
297.257
297.261
297.282
297.315
297.345
297.378
297.436
297.491
297.552
297.562
295.258
295.233
295.226
295.194
295.172
295.142
295.124
295.097
295.079
295.048
295.035
295.012
295.011
295.011
295.55
295.496
295.464
295.405
295.359
295.311
295.276
295.244
295.219
295.202
295.211
295.231
295.251
295.276
295.765
295.702
295.653
295.583
295.525
295.474
295.435
295.402
295.374
295.358
295.36
295.382
295.409
295.443
295.972
295.895
295.821
295.743
295.679
295.629
295.591
295.559
295.53
295.516
295.519
295.545
295.577
295.606
296.147
296.054
295.962
295.882
295.819
295.776
295.742
295.712
295.686
295.675
295.68
295.702
295.731
295.76
296.296
296.191
296.089
296.014
295.959
295.922
295.892
295.864
295.843
295.837
295.847
295.867
295.898
295.932
296.424
296.313
296.213
296.148
296.101
296.07
296.043
296.019
296.003
296.002
296.013
296.033
296.066
296.107
296.545
296.432
296.341
296.285
296.246
296.221
296.199
296.178
296.168
296.17
296.182
296.204
296.244
296.29
296.66
296.554
296.472
296.427
296.396
296.377
296.359
296.339
296.334
296.34
296.353
296.379
296.426
296.469
296.781
296.688
296.612
296.575
296.549
296.535
296.519
296.504
296.504
296.512
296.532
296.563
296.616
296.648
296.922
296.844
296.771
296.737
296.712
296.701
296.685
296.673
296.678
296.689
296.716
296.754
296.81
296.82
297.088
297.019
296.943
296.906
296.88
296.87
296.856
296.85
296.859
296.876
296.912
296.959
297.019
297.01
297.294
297.225
297.142
297.096
297.063
297.05
297.038
297.038
297.05
297.074
297.116
297.168
297.231
297.217
297.519
297.427
297.335
297.276
297.243
297.232
297.225
297.233
297.253
297.284
297.33
297.384
297.448
297.469
295.382
295.328
295.297
295.247
295.218
295.185
295.168
295.138
295.106
295.065
295.037
294.979
294.957
294.951
295.652
295.571
295.516
295.44
295.389
295.338
295.305
295.271
295.236
295.206
295.189
295.178
295.174
295.196
295.842
295.752
295.683
295.598
295.538
295.486
295.45
295.414
295.38
295.346
295.324
295.322
295.327
295.352
296.026
295.923
295.834
295.744
295.678
295.628
295.591
295.557
295.521
295.487
295.469
295.475
295.487
295.51
296.179
296.065
295.963
295.875
295.81
295.764
295.729
295.694
295.658
295.63
295.618
295.621
295.636
295.661
296.31
296.194
296.088
296.007
295.946
295.902
295.865
295.831
295.799
295.778
295.769
295.775
295.796
295.826
296.432
296.319
296.221
296.148
296.09
296.045
296.006
295.973
295.945
295.927
295.921
295.931
295.958
295.995
296.558
296.451
296.362
296.296
296.24
296.194
296.153
296.119
296.093
296.079
296.08
296.098
296.132
296.174
296.687
296.594
296.511
296.45
296.395
296.347
296.303
296.269
296.248
296.239
296.247
296.272
296.315
296.358
296.834
296.749
296.666
296.605
296.549
296.497
296.456
296.426
296.411
296.41
296.429
296.461
296.512
296.55
296.992
296.917
296.83
296.77
296.711
296.659
296.621
296.596
296.588
296.594
296.621
296.66
296.717
296.736
297.165
297.09
296.997
296.934
296.873
296.824
296.793
296.777
296.776
296.788
296.823
296.873
296.936
296.935
297.36
297.284
297.186
297.116
297.049
297.004
296.976
296.967
296.971
296.989
297.03
297.087
297.151
297.146
297.566
297.466
297.362
297.287
297.223
297.184
297.16
297.16
297.173
297.199
297.244
297.303
297.37
297.399
294.992
294.362
293.381
292.256
291.251
290.054
294.701
293.963
292.898
291.877
291.022
290.068
294.774
294.004
293.042
292.075
291.207
290.136
294.861
294.125
293.181
292.131
291.048
289.836
294.938
294.247
293.32
292.186
291.009
289.725
294.992
294.289
293.326
292.064
290.782
289.51
295.027
294.275
293.278
291.89
290.537
289.311
295.054
294.244
293.204
291.681
290.283
289.009
295.07
294.207
293.101
291.476
290.175
288.814
295.057
294.162
292.97
291.281
290.082
288.624
295.002
294.119
292.946
291.243
290.065
288.56
294.976
294.082
292.935
291.248
290.26
289.063
295.021
294.188
293.225
291.826
290.975
289.986
294.92
294.22
293.342
292.393
291.931
291.321
295.051
294.682
293.969
293.131
292.115
291.216
294.871
294.428
293.653
292.867
291.938
291.226
294.906
294.427
293.706
292.999
292.104
291.393
294.944
294.459
293.741
293.028
292.1
291.33
294.998
294.522
293.812
293.053
292.02
291.049
295.039
294.553
293.801
292.848
291.554
290.32
295.076
294.529
293.706
292.574
291.054
289.714
295.106
294.482
293.591
292.274
290.561
289.202
295.136
294.439
293.501
292.062
290.281
288.953
295.143
294.402
293.451
291.984
290.22
288.884
295.126
294.406
293.469
292.059
290.363
289.02
295.099
294.395
293.462
292.143
290.735
289.613
295.12
294.486
293.692
292.591
291.404
290.481
295.015
294.492
293.769
292.896
292.127
291.535
295.007
294.798
294.411
293.822
293.063
292.302
294.902
294.609
294.08
293.465
292.878
292.17
294.911
294.573
294.04
293.465
292.853
292.127
294.91
294.549
294.004
293.43
292.77
292.003
294.964
294.606
294.046
293.437
292.655
291.62
295.018
294.655
294.063
293.305
292.236
290.777
295.075
294.68
294.02
293.069
291.698
289.997
295.128
294.671
293.939
292.804
291.215
289.422
295.181
294.657
293.879
292.632
290.975
289.163
295.22
294.639
293.879
292.622
290.999
289.224
295.239
294.659
293.953
292.752
291.205
289.562
295.217
294.642
293.966
292.871
291.578
290.223
295.263
294.742
294.164
293.266
292.166
291.076
295.153
294.721
294.191
293.452
292.776
292.143
294.955
294.789
294.564
294.157
293.554
292.99
294.889
294.658
294.318
293.926
293.368
292.811
294.897
294.634
294.256
293.825
293.15
292.438
294.888
294.598
294.179
293.694
292.938
292.165
294.919
294.634
294.173
293.615
292.794
291.906
294.959
294.672
294.167
293.52
292.56
291.245
295.021
294.719
294.169
293.389
292.175
290.466
295.08
294.732
294.13
293.212
291.766
289.878
295.136
294.726
294.08
293.062
291.542
289.631
295.18
294.712
294.055
293.009
291.546
289.668
295.207
294.724
294.111
293.11
291.695
289.933
295.178
294.669
294.075
293.158
291.977
290.513
295.224
294.756
294.244
293.467