/*--------------------------------*- C++ -*----------------------------------*\
| =========                 |                                                 |
| \\      /  F ield         | OpenFOAM: The Open Source CFD Toolbox           |
|  \\    /   O peration     | Version:  v2106                                 |
|   \\  /    A nd           | Website:  www.openfoam.com                      |
|    \\/     M anipulation  |                                                 |
\*---------------------------------------------------------------------------*/
FoamFile
{
    version     2.0;
    format      ascii;
    arch        "LSB;label=32;scalar=64";
    class       volVectorField;
    location    "0.000207";
    object      U;
}
// * * * * * * * * * * * * * * * * * * * * * * * * * * * * * * * * * * * * * //

dimensions      [0 1 -1 0 0 0 0];

internalField   nonuniform List<vector> 
18265
(
(-0.00784593 -0.00710186 0.933154)
(-0.0062778 -0.00680921 0.933602)
(-0.00498132 -0.00704183 0.934239)
(-0.0037042 -0.00689416 0.934769)
(-0.00245178 -0.00685837 0.935169)
(-0.00121999 -0.00678994 0.935416)
(2.71275e-05 -0.00675801 0.935534)
(0.00122607 -0.00675955 0.93555)
(0.00246454 -0.00678237 0.935476)
(0.00369985 -0.00684621 0.93528)
(0.00496627 -0.00687774 0.934933)
(0.00625645 -0.00701843 0.934427)
(0.00757691 -0.00674828 0.933854)
(0.00914879 -0.00704167 0.93343)
(-0.0075839 -0.00554112 0.933639)
(-0.00620918 -0.00544982 0.934077)
(-0.00504476 -0.00557197 0.934783)
(-0.00380937 -0.005496 0.935353)
(-0.00255168 -0.00549723 0.935833)
(-0.00127559 -0.00548265 0.936164)
(3.0323e-05 -0.00548298 0.936334)
(0.00129097 -0.00548138 0.936349)
(0.0025839 -0.00547143 0.936226)
(0.00385106 -0.00548286 0.935945)
(0.00510263 -0.00548083 0.935542)
(0.00631748 -0.00556013 0.935021)
(0.00749269 -0.00541968 0.934412)
(0.00885456 -0.00552268 0.933961)
(-0.00779545 -0.00425017 0.934318)
(-0.00632408 -0.00428728 0.934822)
(-0.0051224 -0.00436123 0.935609)
(-0.00381984 -0.00429705 0.936131)
(-0.00254079 -0.00427801 0.936584)
(-0.00125707 -0.00424441 0.93687)
(3.58021e-05 -0.00423324 0.937024)
(0.0012844 -0.00423023 0.937042)
(0.00256911 -0.00423141 0.93694)
(0.00385087 -0.00426536 0.936711)
(0.00513133 -0.00427798 0.93634)
(0.00641761 -0.00435199 0.93587)
(0.00762779 -0.00426244 0.935171)
(0.00907053 -0.00425168 0.934672)
(-0.00764337 -0.00297265 0.934889)
(-0.00624879 -0.00304317 0.935431)
(-0.00506171 -0.00304646 0.936169)
(-0.00378723 -0.00301305 0.936677)
(-0.0025275 -0.00299385 0.937122)
(-0.00125392 -0.00297381 0.937414)
(3.59092e-05 -0.00296686 0.937577)
(0.00128687 -0.00296463 0.937599)
(0.00256957 -0.00296392 0.937492)
(0.00384192 -0.00298419 0.937255)
(0.00510347 -0.00299209 0.936889)
(0.00635991 -0.00303551 0.936424)
(0.00755158 -0.00302003 0.935774)
(0.00890958 -0.00297456 0.935253)
(-0.00760344 -0.00171906 0.935341)
(-0.00625199 -0.0017813 0.935966)
(-0.00504139 -0.00176404 0.936672)
(-0.00376563 -0.0017506 0.937168)
(-0.00250724 -0.00173227 0.937597)
(-0.00123874 -0.00171737 0.937879)
(4.31488e-05 -0.00170938 0.938037)
(0.00128764 -0.00170764 0.938058)
(0.00256157 -0.00170812 0.937953)
(0.00382874 -0.00172493 0.937727)
(0.00508863 -0.00172959 0.937371)
(0.00634933 -0.00175701 0.936919)
(0.00756374 -0.00176258 0.936301)
(0.00887505 -0.00171651 0.935701)
(-0.00753603 -0.000482037 0.93564)
(-0.00623983 -0.000499362 0.936349)
(-0.00500907 -0.000478005 0.937011)
(-0.00374471 -0.000475349 0.93751)
(-0.0024922 -0.000462303 0.937931)
(-0.0012312 -0.000455761 0.938216)
(4.51548e-05 -0.000449985 0.938375)
(0.00128617 -0.000449419 0.938398)
(0.00255464 -0.000449343 0.938291)
(0.0038158 -0.000459951 0.938063)
(0.00506975 -0.000460251 0.937708)
(0.00632286 -0.000479626 0.937255)
(0.0075525 -0.000486155 0.936668)
(0.00881081 -0.000480036 0.935986)
(-0.00750741 0.000755459 0.935823)
(-0.00624512 0.000796324 0.936586)
(-0.00499896 0.000803343 0.937231)
(-0.00373782 0.000804353 0.937737)
(-0.00248404 0.000810539 0.93815)
(-0.00122523 0.000811324 0.938434)
(4.84348e-05 0.000815052 0.93859)
(0.00128728 0.000814651 0.938613)
(0.00255202 0.000814944 0.938506)
(0.00381054 0.000808318 0.938281)
(0.00506262 0.000811919 0.937927)
(0.0063144 0.000791983 0.937472)
(0.00755223 0.000800985 0.936887)
(0.00878547 0.000750698 0.936161)
(-0.00750272 0.0019997 0.935918)
(-0.00624315 0.00209553 0.936675)
(-0.00499773 0.00208553 0.937322)
(-0.00373869 0.00208839 0.937829)
(-0.0024852 0.00208696 0.938241)
(-0.00122655 0.00208258 0.938526)
(4.73271e-05 0.00208413 0.938683)
(0.00128733 0.00208335 0.938705)
(0.00255154 0.00208454 0.938597)
(0.00380938 0.00208302 0.938372)
(0.00505798 0.00208961 0.938014)
(0.0063088 0.00206642 0.937563)
(0.00754076 0.00208567 0.936964)
(0.00878275 0.00197816 0.936258)
(-0.00752521 0.00318991 0.935924)
(-0.00623172 0.00333451 0.936618)
(-0.0049971 0.00332124 0.937283)
(-0.0037376 0.00332501 0.937785)
(-0.00248482 0.00331576 0.938195)
(-0.00122627 0.00330534 0.938478)
(4.72943e-05 0.00330355 0.938634)
(0.00128768 0.00330092 0.938655)
(0.00255101 0.00330188 0.938546)
(0.003808 0.00330622 0.938323)
(0.00505323 0.00331629 0.937962)
(0.00630386 0.00329401 0.937519)
(0.00751924 0.0033111 0.936892)
(0.00880376 0.00316031 0.936268)
(-0.00758679 0.00443496 0.935791)
(-0.00624646 0.00459832 0.936394)
(-0.00503623 0.00460114 0.937114)
(-0.0037643 0.004596 0.93761)
(-0.00250638 0.00458092 0.93803)
(-0.00124042 0.00456418 0.938313)
(3.87075e-05 0.00456007 0.938471)
(0.00128615 0.00455606 0.938493)
(0.00255622 0.00455668 0.938384)
(0.00382268 0.00456872 0.938164)
(0.00507418 0.00457945 0.93779)
(0.00633703 0.00456828 0.937348)
(0.00752585 0.0045568 0.936661)
(0.00885809 0.00439332 0.936139)
(-0.0076084 0.00569712 0.935497)
(-0.00624215 0.00583355 0.936053)
(-0.00504917 0.00586672 0.936804)
(-0.00377482 0.00584124 0.937307)
(-0.00251298 0.00582278 0.937734)
(-0.00124302 0.00580049 0.938021)
(4.01158e-05 0.0057948 0.938179)
(0.00129156 0.00578782 0.938197)
(0.00256377 0.00578552 0.938087)
(0.00383128 0.00580345 0.937857)
(0.0050824 0.00581364 0.937473)
(0.00634042 0.0058259 0.937013)
(0.00750763 0.00577474 0.936298)
(0.00886151 0.00564546 0.935829)
(-0.00774636 0.00697753 0.935043)
(-0.00632259 0.00703493 0.935592)
(-0.00512716 0.00713688 0.936401)
(-0.00381982 0.00707812 0.936911)
(-0.00253953 0.00706293 0.937355)
(-0.00125938 0.00703363 0.937639)
(2.40506e-05 0.00702739 0.937795)
(0.00127555 0.00701996 0.93782)
(0.00254906 0.00701676 0.937719)
(0.00382997 0.00704509 0.937492)
(0.00510338 0.00704904 0.937087)
(0.00639623 0.00709737 0.93661)
(0.00757474 0.00696927 0.93584)
(0.00898496 0.00691469 0.935365)
(-0.00747719 0.00827261 0.93451)
(-0.00616998 0.00819104 0.935014)
(-0.00503093 0.00832771 0.935738)
(-0.00380325 0.00824498 0.936299)
(-0.00255355 0.00825135 0.936783)
(-0.00127883 0.00824071 0.937112)
(2.25849e-05 0.00824286 0.937276)
(0.00129409 0.00823134 0.937294)
(0.00257172 0.00821395 0.937173)
(0.00382969 0.00821864 0.93689)
(0.00506355 0.00820035 0.936454)
(0.00627497 0.0082679 0.935923)
(0.007405 0.00809727 0.935245)
(0.00870797 0.0081833 0.934821)
(-0.00777969 0.00979235 0.934143)
(-0.00628827 0.00952359 0.934617)
(-0.00502153 0.00974068 0.935292)
(-0.00374063 0.0095809 0.93585)
(-0.00247366 0.00954566 0.93626)
(-0.00123001 0.00947552 0.936484)
(1.10019e-05 0.00944715 0.936596)
(0.0012238 0.00944169 0.936632)
(0.00244629 0.00946592 0.936593)
(0.00368505 0.00952651 0.936438)
(0.00494798 0.00953273 0.93607)
(0.00622436 0.00966422 0.935535)
(0.00749113 0.00940217 0.934907)
(0.00898117 0.00967202 0.934475)
(-0.00541175 -0.00464572 0.743661)
(-0.00426044 -0.00444471 0.744006)
(-0.00332291 -0.00457045 0.744503)
(-0.00242186 -0.00445244 0.744938)
(-0.00153631 -0.00440436 0.745268)
(-0.000660684 -0.00434694 0.74546)
(0.000211613 -0.00431229 0.745541)
(0.00105805 -0.00430909 0.745517)
(0.0019294 -0.00431966 0.745417)
(0.00280638 -0.00437285 0.745203)
(0.00370782 -0.00440653 0.744855)
(0.00462015 -0.00452344 0.744367)
(0.00558534 -0.0043626 0.743849)
(0.00676409 -0.00455956 0.743418)
(-0.00523108 -0.00350275 0.743993)
(-0.00422075 -0.00343756 0.744388)
(-0.00337036 -0.003492 0.744951)
(-0.00248284 -0.00342565 0.745414)
(-0.00158861 -0.00340977 0.745796)
(-0.000682807 -0.00338829 0.746041)
(0.000226317 -0.00337743 0.746157)
(0.00111089 -0.0033695 0.746128)
(0.00202018 -0.00335768 0.745987)
(0.00291834 -0.00337134 0.745711)
(0.00381284 -0.00337711 0.745325)
(0.00467844 -0.00344569 0.744823)
(0.00554306 -0.00337544 0.744276)
(0.0065333 -0.00346742 0.743765)
(-0.00533637 -0.00255591 0.74448)
(-0.004273 -0.00257557 0.744951)
(-0.00339841 -0.00259924 0.745563)
(-0.00247037 -0.00254239 0.745991)
(-0.0015666 -0.00251428 0.746346)
(-0.000660999 -0.00248156 0.746559)
(0.000236257 -0.00246543 0.746661)
(0.00110688 -0.00246023 0.746636)
(0.00200721 -0.00246015 0.746509)
(0.00291134 -0.00249178 0.746276)
(0.00382019 -0.0025094 0.745918)
(0.00473512 -0.00257621 0.745453)
(0.00562108 -0.00253693 0.744844)
(0.0066585 -0.00255944 0.744278)
(-0.00521807 -0.00163346 0.744901)
(-0.00421015 -0.00165923 0.7454)
(-0.00334389 -0.00164561 0.745977)
(-0.00243346 -0.00161048 0.746389)
(-0.00154429 -0.00158561 0.746735)
(-0.000648993 -0.00156373 0.746948)
(0.0002426 -0.00155326 0.747054)
(0.00110842 -0.00155049 0.74703)
(0.00200277 -0.00155084 0.746899)
(0.00289559 -0.00157255 0.746661)
(0.00378799 -0.00158536 0.746307)
(0.00468135 -0.00163188 0.745851)
(0.00555188 -0.00163565 0.745272)
(0.0065277 -0.00164297 0.7447)
(-0.00517669 -0.000723777 0.745226)
(-0.00420452 -0.00074047 0.745779)
(-0.00331964 -0.000719818 0.746326)
(-0.00240983 -0.000700286 0.746726)
(-0.00152309 -0.000678481 0.747055)
(-0.000633753 -0.000662957 0.747259)
(0.000250822 -0.000654706 0.747359)
(0.00110816 -0.000654161 0.747334)
(0.00199397 -0.000656675 0.747205)
(0.00288014 -0.000675498 0.746975)
(0.00376855 -0.000685372 0.746632)
(0.00466357 -0.000720374 0.74619)
(0.00554995 -0.000733988 0.745636)
(0.00648772 -0.000736268 0.74502)
(-0.00512794 0.000180492 0.745411)
(-0.00418935 0.000193361 0.746014)
(-0.0032906 0.000209311 0.746534)
(-0.00238878 0.00021845 0.746932)
(-0.00150824 0.000233118 0.747255)
(-0.000626342 0.000239853 0.747459)
(0.000252882 0.000243835 0.747559)
(0.001104 0.000242454 0.747534)
(0.00198405 0.000239518 0.747403)
(0.00286367 0.000225687 0.747173)
(0.00374526 0.000220533 0.74683)
(0.00463481 0.000192831 0.746393)
(0.00552952 0.000184978 0.745856)
(0.00643224 0.000160745 0.745196)
(-0.00510895 0.00106535 0.745492)
(-0.00418749 0.00111202 0.746127)
(-0.00327962 0.00111262 0.746639)
(-0.0023806 0.00111595 0.747039)
(-0.00150094 0.00112225 0.747355)
(-0.000622112 0.0011221 0.747558)
(0.00025499 0.00112352 0.747654)
(0.00110166 0.00112249 0.747629)
(0.00197837 0.00112078 0.747497)
(0.00285502 0.00111278 0.74727)
(0.00373292 0.00111286 0.746928)
(0.00462192 0.00108938 0.746494)
(0.00551822 0.00109669 0.745954)
(0.00640824 0.00104052 0.745274)
(-0.00511438 0.0019203 0.745483)
(-0.0041836 0.00200498 0.746105)
(-0.00328038 0.00199325 0.746624)
(-0.00238259 0.00199558 0.747024)
(-0.00150421 0.00199294 0.747341)
(-0.000625611 0.00198593 0.747544)
(0.000253234 0.00198317 0.74764)
(0.00109914 0.00198047 0.747614)
(0.00197647 0.0019789 0.747479)
(0.0028532 0.00197511 0.747253)
(0.00372668 0.00198022 0.746905)
(0.00461622 0.00195677 0.746478)
(0.00550105 0.0019763 0.745923)
(0.00640941 0.00188277 0.745268)
(-0.00513519 0.00279505 0.745397)
(-0.00417383 0.00291145 0.745968)
(-0.00328236 0.00289291 0.746504)
(-0.00238397 0.00289238 0.746901)
(-0.0015062 0.00288072 0.747216)
(-0.00062748 0.00286757 0.747418)
(0.000252924 0.00286193 0.747513)
(0.00109795 0.00285909 0.747484)
(0.00197587 0.00285899 0.747348)
(0.00285221 0.00286238 0.747123)
(0.00372163 0.00287286 0.746771)
(0.00461202 0.00285426 0.746351)
(0.00547679 0.00287432 0.745774)
(0.00642782 0.00275026 0.74519)
(-0.00519952 0.00366925 0.74519)
(-0.00419201 0.00379601 0.74569)
(-0.00332343 0.00379011 0.746278)
(-0.00241269 0.00378123 0.746672)
(-0.00152983 0.00376363 0.746997)
(-0.000644106 0.00374461 0.7472)
(0.000243727 0.00373723 0.747297)
(0.00109326 0.00373455 0.747269)
(0.0019795 0.00373585 0.747132)
(0.00286594 0.00374861 0.746909)
(0.00374119 0.00376208 0.746544)
(0.00464666 0.0037558 0.746124)
(0.00548344 0.00375431 0.745492)
(0.00648703 0.00362536 0.744993)
(-0.00522715 0.00455745 0.744846)
(-0.00419477 0.00466516 0.74531)
(-0.00334231 0.00467725 0.745928)
(-0.00242766 0.00465263 0.746329)
(-0.00154034 0.00463112 0.746663)
(-0.000649391 0.0046079 0.746871)
(0.000244754 0.00459938 0.746968)
(0.00109807 0.0045946 0.746936)
(0.00198956 0.00459451 0.746795)
(0.00287814 0.00461339 0.74656)
(0.00375288 0.00462839 0.746181)
(0.00465442 0.00464218 0.745744)
(0.00546753 0.00461496 0.745085)
(0.00649283 0.00451464 0.744632)
(-0.00535377 0.00544879 0.744366)
(-0.0042682 0.00550279 0.744823)
(-0.00341593 0.00556953 0.745489)
(-0.00247351 0.00551953 0.745899)
(-0.00156925 0.00550035 0.74625)
(-0.000667614 0.00547159 0.746458)
(0.000231368 0.00546412 0.746556)
(0.00108401 0.00546165 0.746529)
(0.0019814 0.00546469 0.746396)
(0.00288321 0.00549821 0.746162)
(0.00377687 0.00551034 0.745763)
(0.00470821 0.00555563 0.745308)
(0.00552693 0.00546629 0.744602)
(0.0066051 0.00541487 0.744147)
(-0.0051695 0.00636085 0.743832)
(-0.0041753 0.00631112 0.744253)
(-0.00336491 0.00639877 0.744858)
(-0.00247701 0.00633029 0.745306)
(-0.00159059 0.00633266 0.745692)
(-0.000685272 0.00632243 0.745929)
(0.0002345 0.00632313 0.74603)
(0.00110677 0.00631619 0.745996)
(0.00201439 0.00630394 0.745847)
(0.00290163 0.00631348 0.745565)
(0.00376688 0.00630324 0.745136)
(0.00463169 0.00636373 0.744635)
(0.00541237 0.00624668 0.743997)
(0.00640281 0.00631057 0.743593)
(-0.00539319 0.0074907 0.743428)
(-0.00428656 0.00727769 0.743784)
(-0.00338119 0.00741801 0.744332)
(-0.00245856 0.00728591 0.744783)
(-0.00155116 0.00724911 0.745118)
(-0.000660811 0.00718897 0.745287)
(0.000224992 0.00716695 0.745354)
(0.00105593 0.00717466 0.745334)
(0.00192674 0.00720571 0.745252)
(0.00280337 0.00727818 0.745067)
(0.00369542 0.00729798 0.744695)
(0.00460018 0.00741883 0.744192)
(0.00548847 0.00722991 0.74361)
(0.00660468 0.00744052 0.743225)
(-0.00350994 -0.00283925 0.56014)
(-0.00274272 -0.00273516 0.560347)
(-0.00210116 -0.00278019 0.560675)
(-0.00149623 -0.00269496 0.560982)
(-0.000896479 -0.00265912 0.56121)
(-0.000306435 -0.00261774 0.56133)
(0.000243996 -0.00259672 0.56135)
(0.000817079 -0.00259104 0.561302)
(0.00139211 -0.00259582 0.561205)
(0.00197446 -0.00263417 0.561005)
(0.00257834 -0.0026586 0.560698)
(0.00317821 -0.00274598 0.56028)
(0.0038463 -0.00266995 0.559868)
(0.00463967 -0.00278382 0.559483)
(-0.00341164 -0.00209145 0.560296)
(-0.0027296 -0.00204735 0.560589)
(-0.00213584 -0.00205999 0.560968)
(-0.00153297 -0.00200599 0.561287)
(-0.000925461 -0.00198937 0.561541)
(-0.000317844 -0.00196834 0.561693)
(0.000257797 -0.00195781 0.561734)
(0.000861585 -0.00194999 0.561678)
(0.00146387 -0.00194035 0.561547)
(0.00205731 -0.00195357 0.561303)
(0.00265486 -0.00196081 0.560976)
(0.00322433 -0.00201673 0.560551)
(0.0038322 -0.00199275 0.560124)
(0.00446868 -0.00207408 0.55964)
(-0.0034521 -0.00144008 0.560574)
(-0.0027537 -0.00144295 0.560938)
(-0.00214349 -0.00144099 0.56134)
(-0.00151698 -0.00139508 0.561629)
(-0.000903549 -0.00137284 0.561857)
(-0.000298941 -0.00134792 0.561981)
(0.000265759 -0.00133609 0.562011)
(0.000857202 -0.00133237 0.561957)
(0.00145077 -0.00133135 0.561837)
(0.0020481 -0.00135621 0.561629)
(0.00265393 -0.00137161 0.56133)
(0.00325641 -0.00142523 0.560935)
(0.00387527 -0.00141356 0.560466)
(0.00453235 -0.00144964 0.559932)
(-0.00337108 -0.000805691 0.560828)
(-0.0027033 -0.000810129 0.5612)
(-0.00209982 -0.000792035 0.561574)
(-0.0014862 -0.000761972 0.561845)
(-0.000884636 -0.000743833 0.562059)
(-0.000288807 -0.000727341 0.562178)
(0.00027015 -0.00071983 0.562208)
(0.000858476 -0.000719558 0.562154)
(0.00144727 -0.000720282 0.562031)
(0.00203518 -0.000739663 0.561824)
(0.00262674 -0.00075171 0.561533)
(0.00321233 -0.000791234 0.561152)
(0.00381137 -0.000801543 0.560704)
(0.00443969 -0.000822012 0.560187)
(-0.00334082 -0.000174059 0.561008)
(-0.00269504 -0.000176933 0.561407)
(-0.00208209 -0.000155325 0.561753)
(-0.00146908 -0.000137599 0.562007)
(-0.000870354 -0.000123459 0.562204)
(-0.000278783 -0.000113624 0.562313)
(0.0002741 -0.000109377 0.562336)
(0.000857127 -0.000112479 0.562281)
(0.00144003 -0.000115069 0.56216)
(0.00202345 -0.000132289 0.561961)
(0.00261105 -0.000141973 0.561682)
(0.00319982 -0.000171106 0.561321)
(0.00380518 -0.000186861 0.560894)
(0.00441539 -0.00019604 0.560366)
(-0.00330581 0.000425076 0.561072)
(-0.00267826 0.000435605 0.561501)
(-0.00206038 0.000452173 0.561827)
(-0.00145257 0.000462546 0.562075)
(-0.000860137 0.000472644 0.562265)
(-0.000274494 0.00047731 0.562372)
(0.000273081 0.000479475 0.562394)
(0.00085163 0.000474498 0.562339)
(0.00142978 0.000471476 0.562216)
(0.00200849 0.000456611 0.56202)
(0.0025897 0.000448577 0.561742)
(0.00317723 0.00042569 0.561391)
(0.0037851 0.000415498 0.560974)
(0.00437883 0.000398956 0.560428)
(-0.00329264 0.0010336 0.561048)
(-0.00266953 0.00106923 0.561493)
(-0.00204994 0.00107358 0.561816)
(-0.00144411 0.00107955 0.562062)
(-0.00085491 0.00108344 0.562246)
(-0.000272884 0.00108134 0.56235)
(0.000271521 0.00107899 0.562368)
(0.000846501 0.00107169 0.562314)
(0.00142121 0.00106884 0.562189)
(0.00199796 0.00105648 0.561997)
(0.00257545 0.00105281 0.561721)
(0.00316528 0.00103145 0.561376)
(0.00377212 0.00103541 0.560956)
(0.00436522 0.000995724 0.560404)
(-0.0032968 0.00162828 0.560958)
(-0.00266059 0.00169555 0.561389)
(-0.00204778 0.0016891 0.561723)
(-0.00144372 0.001694 0.561967)
(-0.000858448 0.00169247 0.562152)
(-0.000278542 0.00168601 0.562257)
(0.000265756 0.00168109 0.562275)
(0.000839789 0.00167297 0.56222)
(0.00141385 0.00167051 0.562092)
(0.00199151 0.00166115 0.561901)
(0.00256502 0.00166039 0.561618)
(0.00315853 0.00163896 0.561282)
(0.0037547 0.0016543 0.560849)
(0.00437136 0.00158371 0.560321)
(-0.00330917 0.00221181 0.560817)
(-0.00264573 0.00230571 0.561205)
(-0.00204446 0.00229151 0.561556)
(-0.00144296 0.00229369 0.561798)
(-0.000861323 0.00228496 0.561984)
(-0.00028326 0.00227392 0.562088)
(0.00026151 0.00226655 0.562105)
(0.000834862 0.00225815 0.562048)
(0.00140837 0.00225676 0.561917)
(0.00198617 0.00225258 0.561726)
(0.00255565 0.00225692 0.561438)
(0.00315106 0.00223902 0.561107)
(0.00372887 0.00225831 0.560655)
(0.00438898 0.0021627 0.560186)
(-0.00336288 0.00278605 0.560574)
(-0.00266016 0.00288736 0.560911)
(-0.00207584 0.00288324 0.561309)
(-0.0014652 0.00287804 0.561554)
(-0.000879819 0.00286521 0.56175)
(-0.000296917 0.00285031 0.561856)
(0.000253117 0.00284257 0.561876)
(0.000829944 0.00283577 0.56182)
(0.00140827 0.00283653 0.561687)
(0.00199455 0.00284133 0.561496)
(0.00256904 0.00284918 0.561194)
(0.00318034 0.00284156 0.56086)
(0.00373469 0.00284335 0.560358)
(0.00444716 0.00274308 0.559953)
(-0.00337758 0.00337209 0.560221)
(-0.00265714 0.00345939 0.560536)
(-0.00208804 0.00346433 0.560965)
(-0.00147665 0.00344594 0.561221)
(-0.000889852 0.00342906 0.561428)
(-0.000303849 0.0034106 0.561539)
(0.00025054 0.0034019 0.561561)
(0.000831416 0.00339438 0.561501)
(0.00141366 0.00339438 0.561362)
(0.0020023 0.00340501 0.561158)
(0.00257642 0.00341503 0.56084)
(0.00318503 0.00342338 0.560486)
(0.00371713 0.00340949 0.559957)
(0.00444877 0.00333282 0.559587)
(-0.0034748 0.00395323 0.559766)
(-0.00271353 0.00400067 0.56008)
(-0.00214585 0.00404539 0.560549)
(-0.00151363 0.0040071 0.560819)
(-0.000912585 0.00399435 0.561046)
(-0.000318004 0.00397259 0.561162)
(0.000239454 0.00396675 0.561188)
(0.000819667 0.00396402 0.561131)
(0.00140464 0.00396883 0.560997)
(0.00200378 0.00399551 0.56079)
(0.00259372 0.00400467 0.560449)
(0.00322764 0.00403955 0.560074)
(0.00376336 0.00397715 0.559503)
(0.00453932 0.00393299 0.55913)
(-0.00336063 0.00456323 0.559292)
(-0.00266262 0.00454265 0.55959)
(-0.00212047 0.00459713 0.560018)
(-0.00152421 0.0045386 0.560315)
(-0.000935968 0.00454027 0.560567)
(-0.00033569 0.00453078 0.560703)
(0.000239744 0.00452932 0.560729)
(0.000840467 0.00452262 0.560666)
(0.00143832 0.00451435 0.56052)
(0.00202889 0.00452177 0.560272)
(0.00259882 0.00451204 0.559904)
(0.00318045 0.00456078 0.559488)
(0.00368907 0.00448375 0.558965)
(0.00439965 0.00452883 0.558636)
(-0.003507 0.00533297 0.55891)
(-0.00276475 0.0051662 0.559117)
(-0.00215247 0.00524855 0.559487)
(-0.00152689 0.00514997 0.559803)
(-0.000914395 0.00512647 0.560036)
(-0.000317975 0.00508277 0.560136)
(0.000236246 0.00506972 0.560143)
(0.000806403 0.005077 0.560089)
(0.00137744 0.00511051 0.559989)
(0.00196054 0.00517942 0.559805)
(0.00255488 0.00520018 0.559474)
(0.00316335 0.00529966 0.559053)
(0.00375786 0.00516985 0.558586)
(0.00454156 0.00532534 0.558307)
(-0.002191 -0.00169064 0.383462)
(-0.00172781 -0.00166509 0.383563)
(-0.00131911 -0.00167495 0.383763)
(-0.000926275 -0.00162687 0.383954)
(-0.000543566 -0.00161745 0.384095)
(-0.000174426 -0.00159947 0.38415)
(0.000194178 -0.00159192 0.384128)
(0.000550355 -0.00158654 0.384068)
(0.000908234 -0.00158506 0.383979)
(0.00127121 -0.00160444 0.383809)
(0.00165001 -0.00160942 0.383552)
(0.00201784 -0.0016688 0.383218)
(0.00243494 -0.00164463 0.382897)
(0.00289651 -0.00168583 0.382579)
(-0.00215677 -0.00125874 0.383493)
(-0.00173879 -0.00123895 0.383684)
(-0.00135916 -0.00124296 0.383919)
(-0.000971107 -0.00121321 0.384113)
(-0.000583395 -0.00121361 0.384264)
(-0.000203273 -0.00120567 0.384339)
(0.000194888 -0.00120378 0.384331)
(0.000585902 -0.00119867 0.384264)
(0.00097439 -0.0011883 0.384146)
(0.00134644 -0.0011938 0.383941)
(0.00171887 -0.00118732 0.383673)
(0.00206259 -0.00121938 0.383335)
(0.00244897 -0.00120594 0.383008)
(0.00280094 -0.00125366 0.382613)
(-0.00217917 -0.000847109 0.383614)
(-0.00175945 -0.000859034 0.383869)
(-0.00136348 -0.000852683 0.384112)
(-0.000957847 -0.000827478 0.384275)
(-0.000562691 -0.000821933 0.384403)
(-0.00018648 -0.000811152 0.384454)
(0.000200134 -0.000808059 0.384438)
(0.000578724 -0.00080786 0.384371)
(0.000956579 -0.00080437 0.38426)
(0.00133202 -0.000819865 0.384087)
(0.00171372 -0.000823348 0.38385)
(0.00208428 -0.000850358 0.383539)
(0.00248385 -0.00084181 0.383189)
(0.00284832 -0.000853055 0.38274)
(-0.00212412 -0.000440463 0.383743)
(-0.00172487 -0.000458505 0.383996)
(-0.00133784 -0.000440431 0.384211)
(-0.000945581 -0.000429946 0.384358)
(-0.000558538 -0.000426542 0.384467)
(-0.000187718 -0.000419926 0.384509)
(0.000198905 -0.000417595 0.384489)
(0.000580951 -0.00042039 0.384423)
(0.000960752 -0.000417973 0.384313)
(0.00133347 -0.000427755 0.384145)
(0.00170507 -0.000430339 0.383918)
(0.00206048 -0.000447059 0.383625)
(0.00243655 -0.000456425 0.383293)
(0.00279 -0.000452907 0.382872)
(-0.00211591 -2.58528e-05 0.383814)
(-0.00172937 -4.50926e-05 0.384078)
(-0.0013356 -2.07063e-05 0.384263)
(-0.000943108 -1.59826e-05 0.384396)
(-0.000554484 -1.42771e-05 0.384488)
(-0.000184532 -1.38395e-05 0.38452)
(0.000198376 -1.38307e-05 0.384495)
(0.000578612 -2.04166e-05 0.384428)
(0.000956543 -1.98569e-05 0.384319)
(0.00132961 -2.90029e-05 0.384159)
(0.00170074 -3.36813e-05 0.383945)
(0.00206236 -4.49907e-05 0.383672)
(0.0024421 -6.15322e-05 0.383361)
(0.00279057 -4.62524e-05 0.382945)
(-0.0020961 0.000378356 0.38379)
(-0.00171993 0.000372608 0.384069)
(-0.00132543 0.000391914 0.384238)
(-0.000937951 0.000396161 0.384366)
(-0.000553658 0.000398762 0.38445)
(-0.000186155 0.000397244 0.384479)
(0.000193063 0.000396394 0.384453)
(0.000572425 0.000386908 0.384386)
(0.000948928 0.00038409 0.384277)
(0.001321 0.000372907 0.384121)
(0.00168809 0.000365176 0.383909)
(0.00205159 0.000353637 0.383647)
(0.00243257 0.000340523 0.383344)
(0.00277597 0.000348042 0.382924)
(-0.00208772 0.000770205 0.383702)
(-0.00171112 0.000791285 0.383987)
(-0.00131878 0.000798567 0.384155)
(-0.000934037 0.000806028 0.384277)
(-0.00055327 0.000807466 0.384356)
(-0.000187619 0.000803959 0.384382)
(0.000188037 0.000801861 0.384353)
(0.000566019 0.000790148 0.384286)
(0.000940809 0.000785088 0.384176)
(0.00131281 0.000772641 0.384024)
(0.00167782 0.000765304 0.383815)
(0.00204589 0.000748898 0.383561)
(0.00242544 0.000747504 0.383257)
(0.00277416 0.000731151 0.382837)
(-0.00208704 0.00114809 0.383568)
(-0.00169724 0.0012026 0.383838)
(-0.00131343 0.00119764 0.384018)
(-0.000931849 0.0012096 0.384136)
(-0.000555909 0.0012102 0.384217)
(-0.000192818 0.00120622 0.384244)
(0.000179805 0.00120389 0.384214)
(0.000556332 0.00119147 0.384148)
(0.00092949 0.00118473 0.384036)
(0.00130227 0.00117122 0.383885)
(0.00166497 0.00116437 0.383671)
(0.00203948 0.00114137 0.383424)
(0.00241005 0.00115298 0.38311)
(0.00278348 0.00110379 0.382707)
(-0.00208724 0.00152043 0.383395)
(-0.00167476 0.00160467 0.38363)
(-0.00130277 0.00158872 0.383824)
(-0.000925889 0.00160208 0.383939)
(-0.00055542 0.00159885 0.384023)
(-0.000196279 0.00159301 0.38405)
(0.00017455 0.00158973 0.38402)
(0.000549054 0.00157707 0.383952)
(0.000919851 0.00156931 0.383838)
(0.00129178 0.00155711 0.383686)
(0.00165046 0.00155309 0.383467)
(0.00202803 0.00152782 0.383224)
(0.00238302 0.00154919 0.382895)
(0.00279781 0.00147171 0.382534)
(-0.00211795 0.0018804 0.383138)
(-0.00167337 0.00197679 0.383338)
(-0.00131489 0.0019703 0.383574)
(-0.0009331 0.0019807 0.383693)
(-0.00056221 0.00197707 0.383789)
(-0.000203451 0.00197047 0.383821)
(0.000166766 0.00196832 0.383793)
(0.00053927 0.0019582 0.383726)
(0.000908763 0.0019513 0.38361)
(0.00128389 0.00194441 0.383456)
(0.00164546 0.0019419 0.383224)
(0.00203886 0.00192033 0.382977)
(0.00237682 0.00192693 0.382603)
(0.00284628 0.00183782 0.382287)
(-0.0021103 0.00224338 0.382795)
(-0.00165326 0.00233339 0.382982)
(-0.0013143 0.00233531 0.38325)
(-0.000935471 0.00233462 0.383383)
(-0.000567676 0.00232908 0.383491)
(-0.000211123 0.00232038 0.38353)
(0.000161892 0.00231794 0.383504)
(0.000534848 0.00230769 0.383433)
(0.000905549 0.00229883 0.383312)
(0.00128141 0.00229515 0.383147)
(0.00164074 0.00229156 0.382897)
(0.00203312 0.00228054 0.38263)
(0.0023493 0.00227428 0.382228)
(0.00284002 0.00220367 0.381935)
(-0.00217018 0.00259706 0.382385)
(-0.00167958 0.00265601 0.382573)
(-0.00134685 0.00268949 0.382875)
(-0.000951221 0.00267149 0.383027)
(-0.000572851 0.00267329 0.383155)
(-0.000212502 0.00266313 0.383201)
(0.000157188 0.0026651 0.383181)
(0.000522605 0.00266063 0.383113)
(0.000889003 0.00265634 0.382993)
(0.00126815 0.00266743 0.382822)
(0.00163789 0.0026633 0.382552)
(0.00205197 0.00267468 0.38226)
(0.00237172 0.00262801 0.38182)
(0.00290407 0.00257949 0.381525)
(-0.00210543 0.00297104 0.381974)
(-0.00165046 0.00298566 0.382156)
(-0.00133309 0.0030328 0.382434)
(-0.000961188 0.00298775 0.382608)
(-0.000595933 0.00300005 0.382757)
(-0.000228931 0.00299643 0.382817)
(0.000154176 0.00300054 0.382797)
(0.00053558 0.00299238 0.382723)
(0.000916498 0.002978 0.382596)
(0.00129214 0.00297412 0.382393)
(0.00164691 0.00295142 0.382096)
(0.00201966 0.00297685 0.381769)
(0.00231741 0.00291951 0.38136)
(0.00280487 0.0029397 0.381103)
(-0.00217211 0.00346308 0.38164)
(-0.00172201 0.00332974 0.381721)
(-0.00134534 0.00339437 0.381938)
(-0.000947717 0.00332981 0.382143)
(-0.000563089 0.00333096 0.382294)
(-0.000198488 0.00330517 0.382343)
(0.000160266 0.00330288 0.382314)
(0.000510249 0.00330827 0.382245)
(0.000864006 0.003329 0.382141)
(0.0012276 0.0033818 0.38197)
(0.00160223 0.0033894 0.381692)
(0.00199416 0.00346088 0.381358)
(0.0023682 0.00336751 0.381005)
(0.00289391 0.00347291 0.380825)
(-0.00128651 -0.00101806 0.214482)
(-0.00102958 -0.00102121 0.21453)
(-0.000813286 -0.00102163 0.214675)
(-0.000595062 -0.00099681 0.214818)
(-0.000370832 -0.00100081 0.214925)
(-0.000142907 -0.00099023 0.214946)
(7.32432e-05 -0.000991942 0.21491)
(0.000283185 -0.000996466 0.214851)
(0.000489195 -0.000995643 0.214761)
(0.000694098 -0.00101279 0.21461)
(0.00089053 -0.00100552 0.214379)
(0.00108708 -0.00104082 0.214104)
(0.0012817 -0.0010354 0.213828)
(0.00153745 -0.00103328 0.2136)
(-0.0012743 -0.000769645 0.214458)
(-0.00105904 -0.000768392 0.214603)
(-0.000869108 -0.000773878 0.214779)
(-0.000649881 -0.000775396 0.214918)
(-0.000438963 -0.000794274 0.215035)
(-0.000190446 -0.000794046 0.215063)
(5.70697e-05 -0.000800524 0.215039)
(0.000303848 -0.00080123 0.214978)
(0.000542004 -0.000790265 0.214867)
(0.00076291 -0.000782612 0.214693)
(0.000959034 -0.000759264 0.214455)
(0.00113793 -0.000757126 0.214174)
(0.0013196 -0.000756157 0.213888)
(0.00148337 -0.000780672 0.213586)
(-0.00128926 -0.000545693 0.21452)
(-0.00108107 -0.000581185 0.21473)
(-0.000866111 -0.000572951 0.214906)
(-0.000631683 -0.000575193 0.215013)
(-0.0004135 -0.000583457 0.215106)
(-0.000173261 -0.000590136 0.215117)
(6.5023e-05 -0.000594733 0.215089)
(0.000297237 -0.000596758 0.215029)
(0.000520303 -0.00059193 0.214923)
(0.000739898 -0.000588664 0.214774)
(0.000950015 -0.000580007 0.214569)
(0.00115044 -0.000579377 0.214314)
(0.00136137 -0.000584206 0.214019)
(0.00151723 -0.000557692 0.213649)
(-0.00125396 -0.000320012 0.214602)
(-0.00106788 -0.000362296 0.214803)
(-0.000866834 -0.000341359 0.214954)
(-0.000648687 -0.000351339 0.215051)
(-0.000427109 -0.000354146 0.215124)
(-0.000188372 -0.000368048 0.215127)
(5.81748e-05 -0.000370388 0.215095)
(0.00030078 -0.000371762 0.215035)
(0.000534575 -0.000370651 0.214931)
(0.000760546 -0.000366637 0.214787)
(0.000968552 -0.000361591 0.214593)
(0.00115454 -0.000353791 0.214354)
(0.00133687 -0.000368804 0.214076)
(0.00147894 -0.000331704 0.21373)
(-0.00125962 -7.71202e-05 0.214631)
(-0.00107951 -0.00012234 0.21483)
(-0.00087047 -9.7448e-05 0.214956)
(-0.000655213 -0.000110106 0.215045)
(-0.000428528 -0.000110635 0.2151)
(-0.000194036 -0.000127462 0.215099)
(5.46636e-05 -0.000129902 0.215063)
(0.000298907 -0.000132893 0.215002)
(0.000533204 -0.000135173 0.2149)
(0.000758916 -0.00013309 0.214761)
(0.000969243 -0.000131761 0.214578)
(0.00116138 -0.000121248 0.214355)
(0.00135308 -0.000140385 0.214097)
(0.00149829 -9.35214e-05 0.213763)