/*--------------------------------*- C++ -*----------------------------------*\
| =========                 |                                                 |
| \\      /  F ield         | OpenFOAM: The Open Source CFD Toolbox           |
|  \\    /   O peration     | Version:  v2106                                 |
|   \\  /    A nd           | Website:  www.openfoam.com                      |
|    \\/     M anipulation  |                                                 |
\*---------------------------------------------------------------------------*/
FoamFile
{
    version     2.0;
    format      ascii;
    arch        "LSB;label=32;scalar=64";
    class       volScalarField;
    location    "0.000213";
    object      Ttot;
}
// * * * * * * * * * * * * * * * * * * * * * * * * * * * * * * * * * * * * * //

dimensions      [0 0 0 1 0 0 0];

internalField   nonuniform List<scalar> 
18109
(
295.278
295.256
295.233
295.183
295.141
295.093
295.054
295.559
295.509
295.47
295.403
295.342
295.273
295.206
295.767
295.696
295.644
295.572
295.503
295.43
295.355
295.971
295.883
295.81
295.73
295.653
295.573
295.491
296.158
296.058
295.964
295.875
295.788
295.704
295.619
296.339
296.233
296.12
296.019
295.922
295.831
295.745
296.527
296.414
296.288
296.171
296.061
295.962
295.876
296.722
296.598
296.459
296.328
296.207
296.103
296.02
295.396
295.38
295.362
295.31
295.257
295.186
295.126
295.054
294.983
294.903
294.828
294.727
294.663
294.604
295.667
295.617
295.581
295.511
295.44
295.354
295.268
295.18
295.094
295.016
294.953
294.9
294.856
294.85
295.866
295.794
295.744
295.665
295.587
295.497
295.406
295.311
295.222
295.143
295.083
295.044
295.028
295.053
296.062
295.975
295.899
295.811
295.722
295.627
295.532
295.436
295.348
295.275
295.226
295.205
295.215
295.251
296.242
296.144
296.044
295.943
295.842
295.743
295.647
295.556
295.477
295.417
295.383
295.376
295.4
295.439
296.414
296.307
296.186
296.072
295.96
295.856
295.761
295.678
295.612
295.568
295.552
295.56
295.59
295.629
296.585
296.467
296.332
296.203
296.081
295.973
295.882
295.81
295.759
295.732
295.731
295.748
295.778
295.816
296.755
296.623
296.477
296.338
296.21
296.102
296.018
295.957
295.922
295.91
295.919
295.941
295.972
296.004
296.915
296.774
296.624
296.482
296.355
296.251
296.174
296.125
296.101
296.098
296.11
296.135
296.163
296.19
297.07
296.925
296.773
296.635
296.514
296.419
296.351
296.313
296.297
296.297
296.309
296.333
296.361
296.379
297.229
297.091
296.941
296.813
296.702
296.618
296.558
296.524
296.508
296.505
296.51
296.528
296.554
296.546
297.4
297.266
297.119
297.002
296.901
296.829
296.779
296.752
296.734
296.727
296.727
296.74
296.764
296.741
297.599
297.48
297.34
297.231
297.136
297.069
297.02
296.989
296.966
296.953
296.949
296.956
296.978
296.946
297.832
297.701
297.562
297.451
297.362
297.299
297.254
297.226
297.207
297.201
297.204
297.218
297.237
297.216
295.198
295.081
294.943
294.853
294.72
294.726
295.314
295.192
295.048
294.942
294.816
294.824
295.23
295.094
294.919
294.84
294.703
294.738
295.198
295.051
294.864
294.787
294.585
294.477
295.144
294.996
294.796
294.706
294.423
294.092
295.096
294.958
294.746
294.614
294.233
293.649
295.026
294.89
294.674
294.484
293.987
293.186
294.969
294.831
294.618
294.338
293.739
292.747
294.892
294.75
294.523
294.149
293.407
292.243
294.835
294.695
294.431
293.969
293.087
291.859
294.759
294.556
294.234
293.689
292.783
291.631
294.701
294.456
294.129
293.531
292.631
291.488
294.593
294.284
293.895
293.246
292.407
291.44
294.525
294.167
293.749
293.162
292.461
291.607
294.316
293.911
293.493
292.949
292.4
291.928
294.471
294.171
293.854
293.379
292.962
292.639
294.75
294.483
294.198
293.804
293.459
293.243
294.98
294.774
294.576
294.298
294.062
293.891
295.213
295.071
294.957
294.77
294.598
294.398
295.432
295.352
295.297
295.172
295.044
294.806
295.643
295.612
295.602
295.537
295.431
295.176
295.85
295.86
295.876
295.857
295.764
295.479
296.057
296.103
296.128
296.138
296.057
295.772
296.256
296.333
296.376
296.401
296.335
296.076
296.451
296.557
296.62
296.657
296.583
296.347
296.633
296.77
296.842
296.877
296.808
296.587
296.84
296.992
297.07
297.086
297.013
296.807
297.044
297.198
297.26
297.251
297.176
297.018
297.315
297.452
297.484
297.456
297.373
297.259
297.47
297.594
297.663
297.647
297.57
297.509
297.452
297.623
297.742
297.776
297.754
297.745
297.468
297.676
297.844
297.94
297.983
298.024
297.459
297.692
297.893
298.035
298.125
298.215
297.458
297.702
297.917
298.08
298.19
298.314
297.458
297.702
297.918
298.087
298.211
298.356
297.475
297.718
297.934
298.103
298.237
298.389
297.507
297.756
297.975
298.147
298.286
298.435
297.558
297.816
298.04
298.219
298.359
298.486
297.626
297.892
298.12
298.305
298.434
298.52
297.715
297.976
298.198
298.375
298.479
298.506
297.819
298.062
298.256
298.405
298.482
298.46
297.931
298.144
298.291
298.402
298.453
298.435
298.049
298.222
298.322
298.399
298.399
298.338
296.043
296.019
296.025
295.956
295.84
295.582
295.814
295.739
295.685
295.551
295.407
295.151
295.578
295.456
295.389
295.251
295.121
294.938
295.292
295.127
295.021
294.884
294.802
294.777
298.016
298.178
298.248
298.322
298.346
298.353
297.756
297.937
298.046
298.187
298.272
298.351
297.579
297.776
297.921
298.097
298.214
298.333
297.397
297.598
297.77
297.959
298.081
298.204
297.234
297.425
297.595
297.756
297.851
297.955
297.064
297.236
297.372
297.484
297.547
297.604
296.889
297.017
297.119
297.196
297.232
297.212
296.708
296.794
296.869
296.918
296.93
296.85
296.519
296.572
296.625
296.648
296.652
296.526
296.327
296.344
296.379
296.389
296.359
296.152
296.124
296.104
296.122
296.095
296.021
295.776
295.908
295.847
295.823
295.73
295.616
295.36
295.685
295.573
295.535
295.42
295.299
295.101
295.406
295.237
295.143
295.002
294.91
294.883
293.975
292.116
291.507
293.228
296.434
293.618
291.364
290.419
292.495
295.956
293.03
290.293
289.541
292.164
295.858
292.271
289.131
289.01
292.057
294.975
291.539
288.207
288.932
292.607
295.58
290.868
287.479
288.423
292.235
295.665
290.266
287.048
288.197
291.743
295.023
289.802
286.867
287.823
290.967
294.478
295.51
289.508
286.731
287.858
290.694
294.239
296.096
289.479
286.836
287.742
290.315
294.573
297.19
289.441
287.094
287.787
290.047
294.831
297.65
296.944
289.644
287.591
287.818
289.358
294.183
297.417
296.919
298.506
289.9
288.249
288.11
289.033
293.364
297.044
298.472
302.538
290.469
289.057
288.43
289.379
294.023
298.876
300.659
298.021
291.302
290.138
289.02
290.254
295.297
300.99
302.132
296.639
292.263
291.14
289.313
290.938
296.227
300.829
301.259
298.686
292.85
291.64
289.819
291.845
296.714
299.852
301.941
299.231
293.259
291.613
290.322
293.131
297.885
300.335
300.516
296.299
293.646
291.781
291.301
294.771
299.12
300.241
300.494
295.26
293.969
291.891
291.615
295.313
300.033
301.477
299.859
296.578
294.274
292.223
292.041
294.913
298.899
300.564
301.254
298.555
294.556
292.57
292.381
295.11
298.783
301.393
301.875
300.664
294.834
293.035
293.006
295.963
299.583
301.933
295.161
293.541
293.506
296.433
300.969
303.936
295.541
294.147
294.118
296.565
301.473
305.75
295.976
294.817
294.838
296.587
300.996
305.711
296.439
295.536
295.678
296.597
299.946
304.277
296.899
296.23
296.482
296.846
300.212
297.4
296.908
297.148
297.462
301.568
297.844
297.571
297.527
297.683
301.78
298.222
298.089
297.487
297.529
301.536
298.431
298.292
297.486
298.082
302.719
298.518
298.291
297.483
299.029
304.098
298.52
298.18
297.467
299.763
304.716
298.49
298.097
297.561
299.767
303.49
298.439
298.032
297.737
299.647
302.109
298.398
298.016
297.931
299.801
301.477
298.382
298.063
298.013
299.563
301.342
298.376
298.081
297.979
299.19
301.628
298.363
298.108
298.002
298.848
301.557
298.383
298.172
298.129
298.74
301.188
298.405
298.255
298.33
299.358
302.079
298.446
298.328
298.4
299.862
303.06
298.482
298.232
298.051
299.737
302.924
298.379
297.865
297.405
299.118
302.323
298.051
297.141
296.648
298.838
302.009
297.547
296.265
295.883
298.814
302.016
296.931
295.395
295.225
298.556
301.954
296.417
294.783
294.772
297.765
300.164
295.936
294.313
294.415
297.076
299.115
295.595
294.047
294.227
296.723
298.777
295.238
293.758
293.829
295.844
298.041
294.966
293.491
293.347
294.912
297.77
294.677
293.228
292.933
293.795
296.338
294.469
292.928
292.493
293.496
296.012
294.229
292.559
292.046
293.034
295.556
295.651
295.638
295.627
295.576
295.512
295.411
295.308
295.199
295.098
295.011
294.951
294.882
294.839
294.79
295.888
295.84
295.81
295.739
295.658
295.546
295.426
295.306
295.195
295.106
295.047
295.007
294.982
294.989
296.052
295.985
295.94
295.86
295.771
295.658
295.541
295.422
295.315
295.228
295.168
295.133
295.124
295.154
296.215
296.135
296.064
295.974
295.877
295.767
295.653
295.538
295.436
295.355
295.3
295.277
295.283
295.322
296.366
296.274
296.179
296.077
295.972
295.864
295.758
295.654
295.564
295.494
295.451
295.436
295.448
295.487
296.512
296.407
296.292
296.181
296.07
295.965
295.866
295.776
295.7
295.645
295.613
295.606
295.619
295.65
296.655
296.535
296.408
296.288
296.175
296.074
295.985
295.909
295.85
295.808
295.787
295.783
295.791
295.811
296.794
296.66
296.527
296.405
296.293
296.198
296.119
296.058
296.013
295.982
295.967
295.961
295.966
295.973
296.926
296.789
296.654
296.536
296.429
296.343
296.272
296.221
296.186
296.162
296.149
296.14
296.139
296.135
297.071
296.933
296.796
296.681
296.58
296.501
296.438
296.395
296.366
296.346
296.333
296.322
296.314
296.302
297.233
297.103
296.964
296.856
296.758
296.684
296.624
296.582
296.552
296.53
296.512
296.495
296.485
296.461
297.412
297.28
297.132
297.027
296.933
296.867
296.812
296.776
296.747
296.722
296.701
296.682
296.675
296.646
297.62
297.496
297.343
297.238
297.139
297.07
297.014
296.972
296.941
296.916
296.895
296.876
296.871
296.839
297.826
297.678
297.521
297.41
297.316
297.251
297.203
297.17
297.145
297.131
297.121
297.118
297.118
297.09
296.045
296.018
295.993
295.936
295.861
295.74
295.606
295.466
295.345
295.255
295.201
295.15
295.108
295.052
296.234
296.159
296.117
296.043
295.956
295.834
295.7
295.563
295.437
295.337
295.271
295.232
295.206
295.206
296.331
296.247
296.194
296.117
296.03
295.918
295.797
295.67
295.551
295.453
295.383
295.343
295.32
295.333
296.436
296.349
296.28
296.2
296.113
296.012
295.901
295.785
295.673
295.577
295.506
295.467
295.447
295.463
296.54
296.448
296.366
296.283
296.195
296.103
296.003
295.901
295.802
295.716
295.649
295.61
295.588
295.597
296.655
296.558
296.468
296.383
296.295
296.207
296.117
296.027
295.941
295.865
295.804
295.764
295.735
295.734
296.784
296.68
296.584
296.494
296.405
296.322
296.239
296.161
296.089
296.022
295.967
295.921
295.885
295.869
296.917
296.806
296.705
296.615
296.529
296.451
296.375
296.307
296.244
296.185
296.132
296.079
296.036
296.002
297.053
296.94
296.833
296.745
296.661
296.587
296.517
296.454
296.396
296.338
296.284
296.224
296.178
296.135
297.203
297.087
296.968
296.88
296.796
296.724
296.656
296.595
296.539
296.483
296.429
296.366
296.323
296.272
297.375
297.259
297.127
297.033
296.943
296.869
296.796
296.731
296.673
296.615
296.563
296.503
296.467
296.418
297.536
297.411
297.265
297.17
297.076
297.003
296.931
296.866
296.81
296.76
296.718
296.667
296.646
296.593
297.702
297.586
297.435
297.332
297.228
297.148
297.075
297.013
296.962
296.92
296.888
296.846
296.827
296.764
297.821
297.675
297.53
297.43
297.343
297.271
297.214
297.166
297.125
297.098
297.077
297.06
297.052
296.988
296.572
296.53
296.497
296.428
296.351
296.238
296.122
296.006
295.901
295.826
295.774
295.724
295.659
295.547
296.714
296.624
296.579
296.503
296.428
296.327
296.215
296.099
295.984
295.89
295.812
295.755
295.694
295.653
296.782
296.689
296.638
296.566
296.494
296.409
296.309
296.201
296.087
295.989
295.901
295.839
295.779
295.752
296.86
296.768
296.711
296.643
296.578
296.5
296.408
296.306
296.193
296.09
295.996
295.929
295.868
295.845
296.937
296.853
296.79
296.725
296.663
296.591
296.506
296.413
296.307
296.208
296.115
296.045
295.979
295.947
297.014
296.944
296.884
296.825
296.763
296.694
296.614
296.527
296.429
296.335
296.243
296.169
296.096
296.053
297.11
297.043
296.984
296.926
296.864
296.798
296.722
296.642
296.554
296.468
296.378
296.297
296.218
296.163
297.209
297.144
297.085
297.029
296.969
296.907
296.837
296.761
296.68
296.596
296.509
296.421
296.338
296.267
297.31
297.247
297.183
297.127
297.068
297.009
296.944
296.872
296.794
296.709
296.62
296.526
296.443
296.365
297.409
297.343
297.27
297.215
297.16
297.108
297.048
296.978
296.904
296.822
296.735
296.635
296.552
296.463
297.518
297.442
297.356
297.301
297.246
297.197
297.14
297.073
297.003
296.921
296.837
296.739
296.663
296.571
297.601
297.507
297.411
297.359
297.308
297.264
297.214
297.156
297.097
297.026
296.956
296.864
296.793
296.697
297.698
297.603
297.492
297.427
297.37
297.326
297.28
297.232
297.187
297.133
297.079
296.994
296.925
296.828
297.735
297.64
297.536
297.469
297.418
297.38
297.351
297.321
297.287
297.252
297.215
297.155
297.108
297.018
297.219
297.203
297.149
297.07
296.995
296.89
296.812
296.711
296.631
296.568
296.52
296.47
296.381
296.215
297.314
297.235
297.182
297.097
297.033
296.931
296.857
296.761
296.672
296.594
296.517
296.447
296.363
296.282
297.371
297.266
297.212
297.123
297.068
296.981
296.914
296.831
296.744
296.663
296.574
296.502
296.421
296.37
297.431
297.321
297.267
297.177
297.122
297.041
296.975
296.897
296.807
296.724
296.627
296.555
296.473
296.433
297.506
297.394
297.337
297.245
297.191
297.116
297.052
296.98
296.893
296.812
296.716
296.641
296.549
296.503
297.595
297.487
297.429
297.338
297.28
297.204
297.137
297.065
296.978
296.898
296.802
296.723
296.628
296.571
297.692
297.592
297.53
297.435
297.374
297.297
297.228
297.159
297.079
297.002
296.909
296.825
296.726
296.656
297.786
297.703
297.638
297.542
297.477
297.401
297.327
297.257
297.177
297.099
297.006
296.917
296.816
296.737
297.899
297.821
297.743
297.644
297.575
297.493
297.414
297.342
297.264
297.186
297.093
297.001
296.904
296.82
297.993
297.908
297.828
297.737
297.668
297.589
297.513
297.443
297.368
297.289
297.198
297.1
297.002
296.909
298.077
297.992
297.91
297.83
297.761
297.685
297.61
297.536
297.458
297.376
297.285
297.188
297.101
297.014
298.111
298.046
297.968
297.9
297.837
297.77
297.704
297.636
297.566
297.489
297.407
297.309
297.227
297.128
298.126
298.074
298.007
297.96
297.911
297.854
297.79
297.718
297.647
297.577
297.514
297.433
297.361
297.248
298.06
298.037
297.996
297.965
297.936
297.9
297.857
297.806
297.755
297.708
297.662
297.59
297.517
297.347
298.204
298.197
298.152
298.073
298.019
297.947
297.905
297.828
297.793
297.742
297.711
297.677
297.594
297.398
298.271
298.215
298.158
298.084
298.035
297.964
297.92
297.843
297.799
297.736
297.678
297.611
297.551
297.455
298.329
298.242
298.199
298.122
298.077
298.012
297.97
297.899
297.846
297.775
297.7
297.63
297.553
297.495
298.386
298.289
298.249
298.167
298.12
298.053
298.008
297.937
297.877
297.8
297.718
297.647
297.565
297.513
298.435
298.337
298.298
298.215
298.17
298.105
298.058
297.989
297.925
297.848
297.762
297.687
297.591
297.536
298.497
298.4
298.361
298.277
298.231
298.166
298.115
298.044
297.975
297.895
297.805
297.724
297.62
297.553
298.538
298.455
298.417
298.332
298.286
298.22
298.164
298.094
298.022
297.943
297.854
297.77
297.666
297.593
298.58
298.515
298.475
298.392
298.344
298.276
298.216
298.144
298.067
297.986
297.894
297.807
297.7
297.621
298.612
298.561
298.517
298.437
298.391
298.32
298.256
298.184
298.104
298.023
297.93
297.843
297.741
297.663
298.635
298.581
298.541
298.47
298.429
298.362
298.298
298.228
298.146
298.063
297.967
297.879
297.778
297.699
298.68
298.613
298.565
298.495
298.456
298.395
298.33
298.26
298.174
298.088
297.99
297.901
297.807
297.737
298.695
298.625
298.578
298.516
298.484
298.429
298.368
298.302
298.219
298.135
298.04
297.949
297.858
297.786
298.69
298.621
298.573
298.528
298.5
298.446
298.389
298.322
298.239
298.157
298.077
297.995
297.916
297.827
298.567
298.548
298.539
298.516
298.491
298.444
298.395
298.348
298.286
298.226
298.162
298.082
297.998
297.82
299.633
299.56
299.509
299.441
299.395
299.34
299.302
299.246
299.226
299.184
299.176
299.155
299.108
298.993
299.639
299.557
299.498
299.429
299.379
299.324
299.284
299.23
299.202
299.153
299.126
299.085
299.059
298.985
299.626
299.545
299.499
299.432
299.386
299.333
299.293
299.242
299.209
299.158
299.122
299.072
299.03
298.972
299.646
299.563
299.525
299.455
299.407
299.35
299.306
299.252
299.211
299.154
299.108
299.054
299.004
298.956
299.657
299.578
299.545
299.476
299.43
299.374
299.327
299.271
299.223
299.163
299.11
299.054
298.995
298.955
299.679
299.604
299.574
299.506
299.461
299.403
299.351
299.292
299.238
299.175
299.116
299.057
298.991
298.947
299.68
299.622
299.598
299.533
299.488
299.43
299.376
299.316
299.257
299.193
299.132
299.072
299.003
298.96
299.697
299.648
299.628
299.565
299.521
299.462
299.404
299.341
299.276
299.21
299.142
299.079
299.002
298.955
299.702
299.666
299.65
299.594
299.55
299.491
299.43
299.367
299.299
299.232
299.163
299.102
299.029
298.982
299.703
299.671
299.668
299.624
299.584
299.528
299.464
299.4
299.327
299.257
299.182
299.12
299.045
298.999
299.709
299.681
299.682
299.644
299.609
299.558
299.491
299.427
299.347
299.271
299.193
299.127
299.062
299.025
299.692
299.663
299.684
299.656
299.629
299.586
299.524
299.464
299.385
299.309
299.228
299.16
299.091
299.061
299.672
299.66
299.675
299.651
299.631
299.593
299.529
299.473
299.395
299.32
299.246
299.178
299.125
299.068
299.552
299.603
299.647
299.639
299.627
299.591
299.538
299.5
299.436
299.375
299.312
299.239
299.168
299.026
301.194
301.104
301.059
300.998
300.954
300.909
300.882
300.854
300.851
300.843
300.862
300.872
300.875
300.869
301.147
301.071
301.022
300.962
300.916
300.871
300.841
300.812
300.801
300.786
300.79
300.793
300.805
300.795
301.097
301.028
300.988
300.935
300.893
300.851
300.822
300.794
300.779
300.762
300.757
300.75
300.753
300.743
301.071
301.003
300.972
300.922
300.88
300.838
300.805
300.774
300.755
300.733
300.721
300.708
300.701
300.697
301.049
300.984
300.956
300.909
300.87
300.829
300.795
300.762
300.737
300.712
300.694
300.678
300.667
300.667
301.045
300.982
300.953
300.905
300.867
300.826
300.789
300.753
300.723
300.695
300.673
300.654
300.638
300.638
301.033
300.976
300.948
300.903
300.866
300.826
300.787
300.749
300.715
300.684
300.659
300.639
300.621
300.621
301.03
300.98
300.953
300.91
300.872
300.831
300.79
300.749
300.71
300.676
300.647
300.624
300.602
300.598
301.015
300.975
300.956
300.917
300.879
300.839
300.795
300.753
300.711
300.674
300.644
300.621
300.602
300.599
301.007
300.971
300.962
300.928
300.891
300.852
300.806
300.762
300.715
300.674
300.64
300.614
300.591
300.589
300.998
300.966
300.965
300.935
300.9
300.864
300.816
300.771
300.721
300.677
300.64
300.61
300.595
300.596
300.985
300.946
300.96
300.939
300.909
300.878
300.831
300.788
300.736
300.691
300.65
300.618
300.599
300.606
300.969
300.945
300.953
300.933
300.907
300.88
300.833
300.793
300.74
300.696
300.656
300.623
300.614
300.593
300.903
300.912
300.937
300.929
300.907
300.884
300.844
300.815
300.767
300.728
300.69
300.654
300.63
300.568
302.69
302.618
302.582
302.531
302.487
302.445
302.419
302.403
302.409
302.42
302.453
302.486
302.525
302.568
302.616
302.564
302.525
302.476
302.432
302.391
302.363
302.346
302.347
302.354
302.378
302.408
302.445
302.472
302.563
302.512
302.478
302.433
302.393
302.354
302.326
302.309
302.308
302.314
302.334
302.363
302.399
302.434
302.526
302.474
302.442
302.399
302.359
302.32
302.291
302.272
302.268
302.273
302.29
302.316
302.35
302.389
302.5
302.447
302.415
302.373
302.334
302.296
302.267
302.248
302.242
302.246
302.261
302.286
302.32
302.362
302.491
302.436
302.401
302.358
302.318
302.281
302.25
302.229
302.221
302.225
302.238
302.262
302.295
302.34
302.483
302.43
302.395
302.352
302.313
302.276
302.244
302.222
302.212
302.216
302.229
302.252
302.286
302.332
302.489
302.436
302.4
302.358
302.318
302.281
302.248
302.225
302.213
302.215
302.227
302.249
302.282
302.325
302.49
302.441
302.41
302.37
302.332
302.295
302.261
302.237
302.224
302.224
302.235
302.256
302.289
302.332
302.501
302.453
302.427
302.39
302.353
302.316
302.281
302.256
302.238
302.235
302.243
302.261
302.292
302.335
302.51
302.466
302.444
302.411
302.378
302.342
302.305
302.278
302.257
302.25
302.255
302.271
302.303
302.348
302.526
302.482
302.463
302.434
302.404
302.371
302.333
302.305
302.278
302.266
302.268
302.281
302.314
302.362
302.524
302.497
302.48
302.454
302.427
302.399
302.359
302.329
302.297
302.281
302.278
302.29
302.322
302.35
302.543
302.514
302.503
302.485
302.457
302.431
302.392
302.363
302.327
302.309
302.301
302.309
302.337
302.369
303.968
303.916
303.878
303.834
303.796
303.762
303.741
303.734
303.748
303.777
303.827
303.881
303.946
304.02
303.903
303.858
303.819
303.773
303.734
303.701
303.681
303.675
303.69
303.72
303.768
303.822
303.887
303.949
303.856
303.808
303.769
303.725
303.689
303.658
303.64
303.636
303.651
303.682
303.73
303.788
303.855
303.925
303.826
303.773
303.731
303.687
303.651
303.622
303.606
303.603
303.617
303.647
303.693
303.752
303.821
303.897
303.811
303.752
303.709
303.665
303.631
303.604
303.589
303.587
303.601
303.63
303.676
303.736
303.808
303.889
303.812
303.747
303.701
303.655
303.622
303.595
303.581
303.578
303.591
303.62
303.665
303.726
303.801
303.887
303.818
303.751
303.703
303.658
303.626
303.601
303.586
303.584
303.596
303.626
303.672
303.736
303.814
303.905
303.839
303.77
303.72
303.675
303.643
303.62
303.606
303.605
303.618
303.649
303.698
303.764
303.843
303.932
303.866
303.798
303.749
303.706
303.675
303.653
303.64
303.641
303.657
303.69
303.739
303.805
303.883
303.968
303.901
303.835
303.789
303.747
303.717
303.696
303.683
303.686
303.702
303.735
303.783
303.847
303.921
304.001
303.937
303.874
303.833
303.793
303.763
303.742
303.73
303.733
303.747
303.779
303.825
303.886
303.956
304.035
303.974
303.915
303.878
303.84
303.811
303.79
303.777
303.779
303.79
303.818
303.86
303.917
303.983
304.058
304
303.95
303.92
303.886
303.858
303.837
303.822
303.823
303.829
303.851
303.885
303.935
303.995
304.063
304.059
303.995
303.968
303.938
303.91
303.89
303.87
303.868
303.869
303.887
303.915
303.958
304.014
304.094
305.018
304.975
304.934
304.897
304.868
304.845
304.834
304.834
304.849
304.874
304.916
304.964
305.028
305.094
304.978
304.93
304.888
304.847
304.817
304.795
304.784
304.786
304.803
304.831
304.876
304.928
304.994
305.059
304.937
304.888
304.843
304.804
304.776
304.757
304.749
304.754
304.772
304.803
304.849
304.905
304.974
305.042
304.91
304.856
304.811
304.772
304.745
304.728
304.722
304.729
304.748
304.779
304.825
304.883
304.953
305.026
304.893
304.836
304.791
304.754
304.73
304.714
304.711
304.719
304.739
304.771
304.817
304.876
304.948
305.028
304.891
304.829
304.783
304.746
304.724
304.709
304.707
304.716
304.735
304.768
304.815
304.878
304.955
305.043
304.895
304.831
304.786
304.75
304.729
304.717
304.716
304.727
304.747
304.783
304.833
304.902
304.985
305.079
304.912
304.846
304.802
304.767
304.748
304.739
304.74
304.753
304.777
304.817
304.871
304.943
305.029
305.127
304.945
304.878
304.834
304.8
304.782
304.776
304.781
304.797
304.826
304.87
304.928
305.004
305.093
305.192
304.99
304.924
304.88
304.846
304.83
304.825
304.832
304.852
304.884
304.933
304.996
305.075
305.166
305.263
305.041
304.977
304.934
304.901
304.885
304.882
304.89
304.913
304.949
305.003
305.07
305.153
305.243
305.34
305.103
305.038
304.997
304.962
304.945
304.943
304.952
304.978
305.017
305.075
305.143
305.229
305.318
305.414
305.167
305.1
305.062
305.027
305.009
305.006
305.016
305.044
305.084
305.143
305.21
305.294
305.376
305.47
305.258
305.171
305.136
305.099
305.079
305.075
305.083
305.111
305.149
305.206
305.272
305.353
305.429
305.543
305.895
305.865
305.837
305.816
305.8
305.789
305.783
305.782
305.79
305.802
305.824
305.846
305.882
305.919
305.873
305.838
305.806
305.781
305.763
305.751
305.747
305.748
305.757
305.772
305.796
305.824
305.864
305.904
305.843
305.805
305.771
305.745
305.729
305.719
305.717
305.721
305.734
305.753
305.78
305.811
305.853
305.896
305.821
305.779
305.744
305.717
305.701
305.693
305.692
305.699
305.714
305.735
305.764
305.798
305.843
305.891
305.799
305.755
305.72
305.695
305.681
305.674
305.677
305.687
305.705
305.728
305.759
305.796
305.845
305.9
305.788
305.74
305.706
305.681
305.668
305.664
305.668
305.68
305.698
305.723
305.757
305.8
305.853
305.914
305.78
305.732
305.699
305.675
305.664
305.661
305.668
305.682
305.702
305.731
305.77
305.819
305.879
305.945
305.782
305.733
305.7
305.677
305.667
305.666
305.675
305.692
305.716
305.751
305.794
305.85
305.914
305.985
305.798
305.747
305.714
305.691
305.683
305.685
305.697
305.718
305.747
305.788
305.836
305.897
305.967
306.043
305.829
305.778
305.744
305.72
305.714
305.717
305.731
305.756
305.789
305.836
305.89
305.957
306.033
306.111
305.872
305.821
305.787
305.762
305.755
305.76
305.776
305.805
305.843
305.896
305.957
306.03
306.111
306.191
305.929
305.876
305.84
305.813
305.805
305.811
305.828
305.862
305.905
305.964
306.03
306.111
306.194
306.276
305.994
305.938
305.903
305.873
305.864
305.87
305.889
305.926
305.973
306.037
306.107
306.19
306.272
306.352
306.073
306.006
305.97
305.938
305.927
305.934
305.953
305.991
306.04
306.108
306.179
306.267
306.347
306.446
306.592
306.583
306.575
306.571
306.567
306.564
306.56
306.556
306.554
306.55
306.55
306.548
306.554
306.56
306.594
306.578
306.565
306.554
306.548
306.543
306.539
306.535
306.534
306.533
306.535
306.539
306.549
306.558
306.583
306.56
306.544
306.532
306.524
306.52
306.517
306.517
306.519
306.522
306.528
306.535
306.547
306.561
306.571
306.544
306.526
306.51
306.502
306.497
306.496
306.498
306.502
306.509
306.519
306.53
306.546
306.565
306.553
306.524
306.504
306.488
306.48
306.477
306.478
306.483
306.492
306.502
306.516
306.532
306.553
306.576
306.541
306.509
306.488
306.471
306.463
306.461
306.464
306.472
306.483
306.497
306.515
306.537
306.562
306.59
306.529
306.496
306.474
306.458
306.451
306.45
306.456
306.466
306.481
306.5
306.525
306.551
306.581
306.614
306.524
306.49
306.468
306.451
306.445
306.445
306.452
306.466
306.485
306.51
306.538
306.57
306.606
306.643
306.527
306.492
306.469
306.452
306.447
306.449
306.459
306.477
306.5
306.53
306.564
306.601
306.642
306.684
306.541
306.506
306.481
306.464
306.46
306.464
306.477
306.498
306.525
306.559
306.598
306.64
306.688
306.733
306.567
306.532
306.507
306.49
306.485
306.491
306.505
306.53
306.561
306.6
306.644
306.691
306.746
306.793
306.603
306.569
306.542
306.523
306.519
306.526
306.542
306.571
306.606
306.65
306.699
306.753
306.812
306.862
306.651
306.615
306.589
306.569
306.565
306.571
306.589
306.62
306.659
306.708
306.761
306.819
306.88
306.929
306.703
306.666
306.638
306.618
306.613
306.622
306.641
306.676
306.717
306.771
306.827
306.892
306.956
307.015
307.105
307.099
307.099
307.099
307.098
307.098
307.097
307.093
307.089
307.082
307.074
307.062
307.051
307.039
307.125
307.115
307.111
307.105
307.102
307.1
307.097
307.092
307.087
307.079
307.072
307.061
307.054
307.045
307.134
307.117
307.112
307.104
307.1
307.096
307.094
307.09
307.086
307.08
307.074
307.066
307.06
307.055
307.14
307.119
307.111
307.101
307.096
307.092
307.088
307.085
307.082
307.078
307.073
307.069
307.065
307.064
307.139
307.117
307.107
307.096
307.09
307.085
307.083
307.081
307.08
307.078
307.077
307.076
307.076
307.077
307.138
307.116
307.103
307.091
307.085
307.08
307.078
307.078
307.079
307.08
307.083
307.085
307.088
307.093
307.138
307.115
307.101
307.088
307.082
307.078
307.078
307.08
307.084
307.089
307.096
307.102
307.109
307.116
307.139
307.117
307.101
307.088
307.083
307.08
307.081
307.086
307.093
307.103
307.112
307.123
307.133
307.144
307.146
307.124
307.107
307.094
307.09
307.089
307.092
307.1
307.111
307.123
307.137
307.151
307.166
307.178
307.158
307.136
307.118
307.106
307.103
307.103
307.109
307.121
307.135
307.151
307.169
307.187
307.206
307.217
307.178
307.157
307.14
307.128
307.125
307.128
307.136
307.15
307.167
307.187
307.209
307.229
307.252
307.261
307.203
307.184
307.167
307.156
307.154
307.159
307.169
307.187
307.207
307.231
307.257
307.281
307.306
307.315
307.238
307.22
307.205
307.194
307.194
307.2
307.211
307.231
307.253
307.28
307.309
307.335
307.361
307.37
307.277
307.26
307.245
307.236
307.237
307.245
307.259
307.282
307.308
307.338
307.369
307.399
307.427
307.446
307.458
307.442
307.438
307.43
307.427
307.423
307.42
307.416
307.413
307.407
307.401
307.39
307.379
307.362
307.494
307.474
307.468
307.457
307.452
307.447
307.442
307.436
307.43
307.422
307.413
307.402
307.39
307.376
307.522
307.499
307.492
307.479
307.473
307.466
307.46
307.453
307.446
307.437
307.428
307.417
307.403
307.391
307.546
307.522
307.513
307.5
307.492
307.484
307.476
307.468
307.46
307.451
307.44
307.429
307.415
307.403
307.567
307.544
307.533
307.519
307.509
307.5
307.492
307.483
307.475
307.466
307.456
307.444
307.431
307.419
307.586
307.563
307.551
307.537
307.526
307.516
307.507
307.498
307.49
307.481
307.472
307.461
307.449
307.437
307.605
307.584
307.57
307.555
307.544
307.534
307.526
307.518
307.51
307.502
307.493
307.483
307.472
307.46
307.623
307.604
307.588
307.574
307.563
307.554
307.546
307.54
307.534
307.527
307.52
307.511
307.5
307.489
307.644
307.626
307.609
307.596
307.587
307.579
307.572
307.568
307.563
307.558
307.552
307.544
307.535
307.522
307.666
307.65
307.633
307.621
307.613
307.607
307.603
307.6
307.598
307.595
307.59
307.583
307.576
307.562
307.693
307.679
307.663
307.652
307.646
307.641
307.639
307.638
307.637
307.635
307.633
307.627
307.62
307.605
307.722
307.71
307.696
307.687
307.683
307.68
307.68
307.681
307.683
307.683
307.682
307.677
307.671
307.654
307.756
307.747
307.735
307.728
307.726
307.725
307.725
307.728
307.73
307.732
307.732
307.728
307.723
307.704
307.794
307.786
307.777
307.771
307.77
307.772
307.775
307.78
307.785
307.788
307.79
307.787
307.782
307.767
307.728
307.698
307.681
307.661
307.648
307.636