/*--------------------------------*- C++ -*----------------------------------*\
| =========                 |                                                 |
| \\      /  F ield         | OpenFOAM: The Open Source CFD Toolbox           |
|  \\    /   O peration     | Version:  v2106                                 |
|   \\  /    A nd           | Website:  www.openfoam.com                      |
|    \\/     M anipulation  |                                                 |
\*---------------------------------------------------------------------------*/
FoamFile
{
    version     2.0;
    format      ascii;
    arch        "LSB;label=32;scalar=64";
    class       volScalarField;
    location    "0.000161";
    object      T;
}
// * * * * * * * * * * * * * * * * * * * * * * * * * * * * * * * * * * * * * //

dimensions      [0 0 0 1 0 0 0];

internalField   nonuniform List<scalar> 
18273
(
292.858
292.939
292.674
292.546
292.396
292.325
292.208
292.093
292.011
292.039
292.141
292.406
292.75
293.263
292.13
292.234
292.175
292.265
292.281
292.279
292.208
292.11
292.055
292.072
292.158
292.415
292.774
293.264
291.566
291.728
291.868
292.09
292.187
292.221
292.188
292.116
292.07
292.067
292.122
292.294
292.559
292.927
291.068
291.313
291.661
291.996
292.122
292.162
292.141
292.102
292.086
292.092
292.138
292.246
292.426
292.672
290.743
291.15
291.609
291.966
292.081
292.109
292.088
292.063
292.046
292.057
292.087
292.153
292.278
292.398
290.558
291.079
291.636
291.985
292.076
292.089
292.067
292.045
292.031
292.033
292.052
292.091
292.176
292.272
290.519
291.102
291.704
292.022
292.089
292.087
292.069
292.053
292.044
292.037
292.042
292.055
292.11
292.2
290.518
291.141
291.746
292.04
292.104
292.099
292.085
292.078
292.083
292.075
292.074
292.06
292.107
292.204
290.55
291.175
291.744
291.983
292.034
292.041
292.061
292.092
292.12
292.113
292.118
292.103
292.149
292.245
290.578
291.168
291.649
291.783
291.805
291.816
291.869
291.948
292.032
292.075
292.117
292.13
292.209
292.332
290.709
291.169
291.496
291.47
291.403
291.37
291.427
291.55
291.726
291.873
292.014
292.1
292.262
292.419
290.824
291.131
291.342
291.17
290.933
290.8
290.826
290.941
291.183
291.439
291.724
291.945
292.272
292.457
291.147
291.268
291.309
291.014
290.626
290.355
290.297
290.335
290.523
290.78
291.165
291.51
292.087
292.376
291.434
291.361
291.292
290.993
290.554
290.192
290.063
290.064
290.179
290.371
290.73
291.137
291.767
292.326
291.795
291.789
291.417
291.28
291.067
290.87
290.677
290.564
290.567
290.745
291.089
291.466
291.866
292.346
291.147
291.279
291.23
291.331
291.342
291.3
291.185
291.075
291.039
291.101
291.265
291.537
291.889
292.233
290.628
290.848
291.055
291.329
291.443
291.477
291.425
291.349
291.285
291.279
291.328
291.435
291.6
291.711
290.064
290.475
290.935
291.312
291.458
291.493
291.479
291.432
291.404
291.39
291.404
291.426
291.435
291.356
289.598
290.28
290.924
291.333
291.454
291.476
291.457
291.411
291.382
291.367
291.367
291.325
291.22
290.955
289.272
290.156
290.935
291.344
291.448
291.459
291.431
291.39
291.365
291.346
291.326
291.215
290.994
290.656
289.109
290.136
290.986
291.379
291.463
291.454
291.42
291.383
291.355
291.318
291.27
291.094
290.822
290.508
289.046
290.142
291
291.359
291.444
291.437
291.407
291.371
291.349
291.302
291.24
291.037
290.78
290.521
289.024
290.128
290.941
291.25
291.335
291.348
291.353
291.344
291.335
291.289
291.209
291.032
290.844
290.677
288.998
290.079
290.784
291.031
291.09
291.1
291.134
291.167
291.2
291.187
291.137
291.025
290.961
290.894
289.101
290.017
290.543
290.64
290.648
290.638
290.672
290.738
290.844
290.923
290.974
290.969
291.027
291.004
289.206
289.916
290.225
290.158
290.006
289.882
289.874
289.945
290.127
290.331
290.554
290.71
290.959
291.002
289.588
290.016
290.051
289.795
289.433
289.111
288.965
288.94
289.065
289.291
289.645
289.98
290.561
290.756
289.826
289.927
289.916
289.624
289.135
288.654
288.358
288.232
288.26
288.383
288.685
289.066
289.8
290.429
291.188
291.21
290.733
290.58
290.282
289.906
289.565
289.369
289.376
289.642
290.121
290.707
291.226
291.632
290.638
290.862
290.799
290.933
290.91
290.791
290.619
290.497
290.476
290.61
290.773
291.055
291.373
291.61
290.005
290.45
290.766
291.075
291.173
291.157
291.078
290.993
290.948
290.954
290.982
290.986
291.05
290.947
289.336
290.157
290.765
291.14
291.267
291.282
291.256
291.191
291.152
291.119
291.082
291.007
290.894
290.538
288.767
290.013
290.801
291.182
291.283
291.285
291.25
291.201
291.154
291.1
291.045
290.915
290.631
289.994
288.331
289.907
290.847
291.224
291.302
291.281
291.219
291.172
291.125
291.069
290.972
290.746
290.26
289.417
288.1
289.832
290.844
291.211
291.299
291.268
291.218
291.151
291.083
291.025
290.885
290.556
289.939
289.023
287.996
289.762
290.807
291.182
291.242
291.214
291.171
291.101
291.037
290.933
290.759
290.401
289.783
288.889
287.993
289.677
290.66
291.029
291.139
291.119
291.102
291.053
290.992
290.903
290.688
290.337
289.792
288.98
288.012
289.561
290.388
290.689
290.794
290.841
290.862
290.864
290.838
290.756
290.573
290.29
289.933
289.285
288.101
289.37
289.983
290.145
290.183
290.211
290.276
290.345
290.403
290.423
290.364
290.211
290.057
289.601
288.1
289.08
289.415
289.388
289.305
289.216
289.235
289.338
289.52
289.719
289.862
289.858
289.95
289.674
288.504
289.044
288.996
288.646
288.204
287.87
287.772
287.828
288.035
288.353
288.713
288.965
289.44
289.357
288.685
288.816
288.639
288.022
287.216
286.565
286.258
286.194
286.325
286.608
287.095
287.516
288.35
288.851
294.043
294.663
295.223
295.922
296.351
296.76
293.502
294.074
294.764
295.571
296.196
296.677
293.27
293.795
294.436
295.182
295.877
296.451
292.961
293.398
294.014
294.769
295.435
296.015
292.745
293.228
293.835
294.602
295.229
295.838
292.596
293.108
293.707
294.535
295.139
295.766
292.511
293.067
293.716
294.607
295.241
295.874
292.532
293.123
293.781
294.747
295.424
296.077
292.601
293.268
294.007
294.954
295.64
296.337
292.712
293.338
294.133
295.065
295.839
296.506
292.881
293.443
294.205
295.087
295.912
296.508
292.986
293.449
294.115
294.978
295.842
296.471
292.942
293.282
293.799
294.579
295.415
296.04
292.759
292.973
293.336
294.009
294.839
295.512
293.22
293.965
294.599
295.456
296.063
296.503
292.264
292.71
293.291
293.979
294.683
295.202
291.726
291.867
292.207
292.677
293.355
293.8
291.13
291.051
291.239
291.678
292.312
292.947
290.656
290.605
290.858
291.462
292.061
292.861
290.389
290.506
290.899
291.78
292.355
293.645
290.386
290.689
291.285
292.414
293.199
294.575
290.47
290.885
291.695
293.128
294.16
295.595
290.741
291.249
292.18
293.728
294.962
296.469
291.097
291.664
292.664
294.21
295.57
296.862
291.338
291.877
292.849
294.28
295.676
296.857
291.422
291.834
292.64
293.885
295.246
296.43
291.258
291.51
292.023
292.915
294.026
294.945
290.78
290.834
291.022
291.58
292.412
293.191
292.68
293.3
293.734
294.077
294.287
294.193
291.438
291.706
291.949
291.995
292.073
291.359
290.732
290.544
290.352
290.012
289.93
288.756
289.935
289.31
288.78
288.263
288.265
287.01
289.1
288.238
287.692
287.398
287.589
286.593
288.402
287.572
287.246
287.286
287.533
287.547
288.073
287.47
287.41
288.073
288.717
289.903
288.002
287.477
287.751
289.24
290.737
293.07
288.275
287.968
288.473
290.318
292.457
295.465
288.872
288.774
289.419
291.27
293.561
296.344
289.528
289.527
290.165
291.705
293.789
296.068
289.787
289.781
290.341
291.488
293.048
294.696
289.668
289.573
289.868
290.462
291.248
292.163
288.837
288.576
288.452
288.495
288.691
289.023
292.442
292.815
293.064
293.694
294.206
294.712
291.492
291.865
292.288
293.122
293.85
294.353
290.997
291.418
291.917
292.898
293.775
294.487
290.527
290.994
291.645
292.81
293.812
294.752
290.262
290.831
291.676
293.001
294.095
295.108
290.103
290.688
291.644
293.123
294.376
295.444
290.067
290.702
291.837
293.403
294.715
295.897
290.146
290.792
292.015
293.698
295.072
296.308
290.403
291.094
292.33
294.006
295.404
296.58
290.836
291.57
292.689
294.198
295.547
296.618
291.327
291.943
292.832
294.167
295.498
296.518
291.624
292.036
292.703
293.826
295.093
295.991
291.667
291.907
292.314
293.247
294.441
295.406
291.478
291.677
291.947
292.807
293.875
294.676
290.146
290.249
290.129
290.493
290.968
291.573
288.894
288.899
288.959
289.618
290.285
291.064
288.388
288.416
288.663
289.575
290.421
291.509
288.058
288.183
288.625
289.846
290.961
292.498
287.953
288.27
289.01
290.47
291.92
293.775
287.937
288.276
289.235
291.064
292.862
294.966
288.011
288.499
289.615
291.631
293.562
296.334
288.197
288.732
289.909
292.136
294.165
297.212
288.596
289.19
290.408
292.728
294.881
297.393
289.18
289.767
290.895
293.013
295.038
297.298
289.758
290.231
291.128
292.913
294.708
296.721
290.082
290.413
291.008
292.237
293.644
295.073
290.13
290.221
290.408
291.086
292.09
293.157
289.681
289.678
289.514
289.893
290.549
291.28
288.488
288.11
287.453
286.982
286.731
286.778
286.731
286.071
285.554
285.392
285.328
285.494
285.962
285.152
284.758
284.906
285.053
285.173
285.359
284.559
284.291
284.823
285.432
286.413
285.055
284.519
284.585
285.808
287.418
289.296
284.955
284.514
284.898
286.963
289.669
292.82
285.006
284.686
285.419
288.115
291.62
295.821
285.205
284.983
285.954
288.954
292.805
297.423
285.716
285.696
286.77
289.724
293.379
297.839
286.635
286.77
287.768
290.269
293.443
297.444
287.784
287.957
288.656
290.381
292.818
296.196
288.643
288.688
289.06
290.147
291.422
293.404
288.867
288.731
288.659
288.937
289.232
290.118
288.325
287.954
287.286
286.9
286.586
286.836
297.019
296.312
295.426
294.432
293.588
293.011
296.737
295.949
294.897
293.789
292.968
292.508
296.691
295.682
294.379
293.054
292.216
291.732
296.396
295.211
293.764
292.309
291.496
291.11
296.037
294.674
293.166
291.644
290.89
290.617
295.575
294.077
292.631
291.18
290.517
290.319
295.339
293.477
292.1
290.832
290.289
290.187
295.197
292.88
291.679
290.642
290.246
290.147
294.631
292.817
291.622
290.521
290.23
290.136
294.253
292.921
291.731
290.571
290.29
290.146
294.098
292.886
291.701
290.571
290.34
290.242
293.988
293.031
291.862
290.805
290.616
290.478
293.806
293.123
292.078
291.113
290.907
290.701
294.078
293.451
292.697
291.936
291.76
291.441
297.28
296.282
294.817
293.578
292.581
291.954
297.415
296.209
294.835
293.359
292.225
291.612
297.776
295.965
294.27
292.445
291.299
290.767
297.591
295.383
293.499
291.472
290.396
289.991
297.203
294.522
292.546
290.457
289.529
289.274
296.678
293.463
291.604
289.626
288.892
288.772
295.489
292.594
290.821
288.982
288.451
288.447
294.15
291.66
290.088
288.531
288.143
288.245
292.861
290.757
289.392
288.097
287.846
288.085
291.827
290.054
288.99
287.933
287.737
287.987
291.328
289.395
288.516
287.634
287.621
287.969
290.759
289.33
288.489
287.65
287.778
288.162
290.297
289.264
288.465
287.771
288.097
288.467
290.374
289.702
289.208
288.894
289.33
289.499
296.171
295.237
293.853
292.685
291.705
291.188
297.739
295.932
294.148
292.442
291.403
291.069
298.74
295.597
293.074
291.081
290.163
290.043
298.533
294.753
291.742
289.451
288.649
288.777
298.288
293.74
290.366
287.88
287.237
287.662
297.623
292.742
289.161
286.576
286.094
286.836
296.505
291.667
288.027
285.546
285.298
286.274
294.68
290.269
286.984
284.806
284.837
285.955
291.916
288.217
285.676
284.024
284.433
285.83
288.42
286.089
284.62
283.579
284.258
285.81
285.624
284.202
283.652
283.283
284.254
285.906
284.069
283.412
283.614
283.646
284.789
286.255
283.894
283.501
283.88
284.354
285.646
286.837
284.847
284.728
285.354
286.271
287.655
288.377
296.867
296.325
295.593
294.793
294.062
293.568
296.605
295.987
295.157
294.33
293.636
293.201
296.177
295.575
294.662
293.771
293.108
292.712
295.921
295.207
294.303
293.378
292.737
292.38
295.728
294.916
294.101
293.139
292.529
292.181
295.611
294.75
294.001
293.048
292.499
292.128
295.629
294.786
294.015
293.032
292.554
292.183
295.643
294.846
294.093
293.138
292.668
292.301
295.593
294.865
294.121
293.242
292.789
292.443
295.661
294.974
294.227
293.386
292.922
292.548
295.729
295.08
294.344
293.568
293.158
292.756
296.098
295.511
294.812
294.079
293.567
293.023
296.594
295.919
295.282
294.461
293.766
293.111
296.78
296.365
295.813
295.029
294.372
293.66
297.474
296.659
295.446
294.291
293.271
292.685
297.524
296.576
295.387
294.175
293.1
292.478
297.334
296.192
294.854
293.457
292.41
291.846
297.034
295.571
294.109
292.595
291.67
291.267
296.393
294.711
293.24
291.673
290.938
290.719
295.597
293.715
292.376
290.926
290.424
290.307
294.686
292.879
291.768
290.454
290.171
290.177
294.022
292.038
291.136
290.199
290.05
290.152
293.307
291.665
290.874
290.078
290.035
290.261
292.519
291.494
290.757
290.184
290.217
290.554
292.181
291.495
290.934
290.604
290.71
291.015
292.883
292.399
291.916
291.623
291.52
291.405
294.275
293.734
293.279
292.744
292.231
291.775
295.851
295.4
294.85
294.056
293.404
292.701
296.051
295.247
294.031
293.013
292.152
291.75
297.024
295.739
294.274
292.961
292.04
291.801
297.685
295.468
293.351
291.781
290.971
290.909
297.53
294.588
291.876
290.122
289.494
289.772
296.445
292.945
290.266
288.39
288.032
288.695
294.503
290.975
288.657
287.068
287.095
288.064
291.544
288.859
287.351
286.241
286.553
287.825
288.511
286.922
286.301
285.849
286.483
287.971
286.227
285.657
285.655
285.746
286.701
288.38
285.217
285.8
285.759
286.328
287.529
289.089
285.686
286.507
286.802
287.732
288.756
289.801
287.551
288.511
288.97
289.638
290.128
290.462
290.383
291.054
291.37
291.49
291.299
291.05
293.746
293.827
293.834
293.454
292.992
292.27
292.151
292.131
291.726
291.528
291.162
290.557
289.985
289.667
289.61
289.835
290.313
291.035
291.809
292.696
291.312
291.648
291.777
291.9
291.916
291.681
291.358
291.147
291.13
291.211
291.437
291.757
292.16
292.679
290.578
291.333
291.747
292.031
292.15
292.087
291.969
291.877
291.834
291.87
291.938
292.015
292.122
292.115
289.839
291.071
291.756
292.068
292.176
292.146
292.1
292.072
292.094
292.114
292.131
292.145
292.061
291.687
289.279
290.873
291.702
292.057
292.145
292.123
292.079
292.089
292.114
292.136
292.148
292.117
291.84
291.034
288.901
290.736
291.668
292.03
292.098
292.057
292.056
292.048
292.061
292.085
292.083
291.924
291.348
290.119
288.657
290.601
291.619
291.985
292.053
292.022
292.001
291.988
291.993
291.966
291.946
291.624
290.783
289.321
288.542
290.528
291.514
291.886
291.972
291.949
291.945
291.92
291.919
291.881
291.717
291.278
290.336
288.882
288.604
290.493
291.399
291.745
291.863
291.882
291.887
291.856
291.842
291.776
291.567
291.068
290.137
288.794
288.757
290.45
291.204
291.492
291.617
291.689
291.727
291.714
291.713
291.631
291.397
290.918
290.182
289.055
288.887
290.203
290.782
291.029
291.146
291.231
291.292
291.368
291.408
291.35
291.176
290.832
290.333
289.5
288.81
289.748
290.09
290.195
290.231
290.289
290.349
290.518
290.689
290.777
290.757
290.603
290.399
289.844
289.216
289.424
289.325
289.081
288.815
288.662
288.67
288.864
289.215
289.585
289.829
289.957
290.202
289.943
289.363
289.1
288.63
287.883
287.127
286.565
286.386
286.517
286.921
287.468
288.092
288.6
289.477
289.82
292.639
292.919
292.757
292.708
292.448
291.855
291.165
290.615
290.385
290.454
290.712
291.349
292.099
293.158
291.889
292.532
292.864
292.995
292.987
292.749
292.412
292.132
292.037
292.062
292.216
292.486
292.824
293.453
291.316
292.394
292.877
293.093
293.131
293.015
292.881
292.79
292.78
292.815
292.924
293.019
293.173
293.231
290.773
292.229
292.854
293.097
293.109
293.057
292.996
292.998
293.026
293.093
293.176
293.231
293.244
293.041
290.386
292.054
292.805
293.052
293.049
292.992
292.986
292.991
293.03
293.086
293.147
293.178
293.095
292.551
290.189
291.931
292.712
292.963
292.955
292.926
292.921
292.935
292.977
293.026
293.066
293.004
292.643
291.626
290.085
291.839
292.621
292.863
292.873
292.846
292.845
292.865
292.902
292.926
292.896
292.703
292.022
290.58
290.151
291.788
292.52
292.767
292.796
292.773
292.776
292.786
292.807
292.805
292.704
292.311
291.361
289.712
290.38
291.81
292.421
292.641
292.72
292.723
292.725
292.713
292.704
292.664
292.493
291.968
290.905
289.289
290.595
291.789
292.28
292.456
292.555
292.608
292.631
292.619
292.585
292.508
292.271
291.715
290.719
289.245
290.649
291.512
291.876
292.064
292.186
292.283
292.375
292.421
292.409
292.327
292.083
291.571
290.789
289.597
290.439
290.941
291.169
291.313
291.425
291.536
291.683
291.873
291.999
291.996
291.862
291.47
290.956
290.142
290.525
290.266
290.153
290.026
289.959
290.044
290.248
290.636
291.052
291.323
291.396
291.237
291.04
290.576
290.263
289.591
288.976
288.294
287.827
287.706
287.895
288.414
289.133
289.813
290.323
290.595
291.091
290.989
293.588
294.045
294.122
294.131
293.999
293.65
293.214
292.773
292.508
292.397
292.481
292.845
293.446
294.379
293.006
293.816
294.17
294.242
294.196
294.036
293.851
293.697
293.652
293.712
293.816
294.034
294.321
294.827
292.555
293.678
294.124
294.253
294.215
294.131
294.067
294.057
294.105
294.201
294.334
294.509
294.69
294.836
292.235
293.538
294.046
294.203
294.151
294.123
294.103
294.153
294.234
294.354
294.5
294.658
294.765
294.772
292.057
293.415
293.935
294.088
294.063
294.045
294.079
294.137
294.223
294.326
294.439
294.554
294.615
294.491
292.008
293.306
293.797
293.932
293.943
293.966
294.007
294.076
294.166
294.263
294.349
294.4
294.336
293.925
292.006
293.216
293.676
293.802
293.836
293.871
293.918
293.993
294.081
294.154
294.184
294.185
293.923
293.165
292.112
293.155
293.568
293.703
293.753
293.793
293.837
293.904
293.977
294.025
294.031
293.885
293.406
292.335
292.323
293.13
293.462
293.62
293.69
293.737
293.775
293.822
293.866
293.887
293.842
293.585
292.925
291.678
292.488
293.092
293.357
293.481
293.593
293.663
293.707
293.738
293.751
293.739
293.636
293.288
292.564
291.332
292.388
292.827
293.071
293.237
293.379
293.508
293.602
293.636
293.615
293.594
293.46
293.079
292.424
291.265
292.056
292.3
292.503
292.703
292.88
293.05
293.239
293.378
293.45
293.433
293.313
292.948
292.43
291.534
291.823
291.525
291.558
291.621
291.819
292.061
292.37
292.736
293.024
293.144
293.108
292.898
292.541
291.916
291.196
290.515
290.09
289.828
289.881
290.171
290.655
291.335
292
292.474
292.692
292.703
292.866
292.542
294.516
295.02
295.141
295.165
295.108
294.964
294.81
294.611
294.496
294.483
294.477
294.589
294.952
295.548
294.14
294.918
295.16
295.187
295.121
295.027
294.975
294.948
294.998
295.111
295.292
295.502
295.744
296.009
293.901
294.835
295.092
295.137
295.066
295.015
295.009
295.056
295.166
295.318
295.502
295.689
295.9
296.037
293.761
294.731
294.965
295.019
294.968
294.96
294.977
295.062
295.184
295.345
295.526
295.716
295.896
296.002
293.696
294.585
294.804
294.855
294.844
294.862
294.926
295.021
295.139
295.285
295.442
295.604
295.756
295.862
293.661
294.425
294.626
294.685
294.712
294.774
294.851
294.952
295.068
295.205
295.347
295.488
295.582
295.584
293.656
294.295
294.477
294.548
294.6
294.679
294.767
294.87
294.981
295.102
295.213
295.318
295.342
295.191
293.705
294.2
294.367
294.451
294.519
294.599
294.683
294.783
294.894
295.009
295.101
295.138
295.071
294.703
293.779
294.154
294.277
294.39
294.468
294.542
294.611
294.7
294.804
294.904
294.967
294.949
294.762
294.176
293.816
294.106
294.233
294.329
294.431
294.501
294.557
294.629
294.712
294.787
294.824
294.726
294.445
293.692
293.659
293.907
294.084
294.237
294.371
294.459
294.513
294.568
294.622
294.669
294.677
294.519
294.206
293.365
293.318
293.506
293.721
293.942
294.135
294.298
294.426
294.497
294.54
294.568
294.552
294.365
294.068
293.268
292.92
292.834
293.033
293.272
293.555
293.8
294.07
294.291
294.436
294.492
294.463
294.314
294.022
293.383
292.218
291.772
291.717
291.837
292.204
292.658
293.159
293.671
294.052
294.253
294.303
294.274
294.208
293.801
295.564
296.043
296.157
296.177
296.182
296.124
296.117
296.076
296.095
296.152
296.239
296.341
296.57
296.9
295.371
296.003
296.127
296.142
296.102
296.078
296.09
296.119
296.217
296.366
296.572
296.826
297.075
297.256
295.278
295.951
296.011
296.036
295.996
296.011
296.038
296.119
296.246
296.414
296.623
296.849
297.081
297.284
295.15
295.8
295.866
295.897
295.883
295.908
295.972
296.082
296.219
296.392
296.588
296.806
297.022
297.21
295.064
295.594
295.679
295.726
295.761
295.829
295.909
296.019
296.152
296.314
296.491
296.685
296.889
297.101
295.004
295.396
295.502
295.569
295.641
295.741
295.84
295.952
296.076
296.221
296.385
296.565
296.766
296.959
294.968
295.25
295.351
295.441
295.537
295.652
295.762
295.877
295.997
296.132
296.279
296.442
296.612
296.73
294.963
295.148
295.255
295.357
295.459
295.571
295.678
295.794
295.919
296.055
296.204
296.346
296.457
296.481
294.989
295.11
295.192
295.316
295.411
295.507
295.598
295.708
295.838
295.982
296.124
296.235
296.284
296.169
294.927
295.066
295.177
295.292
295.393
295.467
295.535
295.632
295.76
295.906
296.032
296.097
296.089
295.836
294.764
294.965
295.149
295.297
295.396
295.452
295.502
295.583
295.697
295.829
295.93
295.949
295.911
295.515
294.521
294.746
294.981
295.172
295.322
295.422
295.487
295.564
295.654
295.766
295.85
295.821
295.764
295.265
294.175
294.309
294.559
294.805
295.043
295.261
295.423
295.535
295.629
295.727
295.789
295.779
295.679
295.217
293.511
293.432
293.558
293.858
294.28
294.675
295.055
295.367
295.559
295.685
295.73
295.775
295.697
295.341
296.598
296.96
297.063
297.074
297.075
297.075
297.1
297.137
297.224
297.336
297.495
297.665
297.868
298.113
296.53
296.979
296.974
296.995
296.975
297.003
297.044
297.119
297.223
297.373
297.589
297.861
298.161
298.364
296.412
296.873
296.841
296.87
296.873
296.921
296.978
297.082
297.217
297.385
297.597
297.837
298.098
298.318
296.258
296.642
296.676
296.727
296.768
296.835
296.908
297.028
297.174
297.351
297.555
297.776
298.007
298.219
296.132
296.406
296.494
296.574
296.656
296.756
296.851
296.968
297.106
297.271
297.458
297.657
297.868
298.085
296.021
296.218
296.329
296.437
296.549
296.672
296.785
296.904
297.034
297.182
297.352
297.537
297.747
297.97
295.938
296.087
296.2
296.326
296.456
296.588
296.71
296.833
296.959
297.1
297.255
297.426
297.626
297.837
295.873
295.991
296.12
296.254
296.381
296.506
296.626
296.753
296.884
297.029
297.186
297.352
297.539
297.701
295.834
295.952
296.092
296.224
296.33
296.435
296.543
296.668
296.811
296.97
297.135
297.303
297.452
297.535
295.798
295.957
296.094
296.214
296.304
296.382
296.47
296.592
296.747
296.92
297.097
297.249
297.348
297.35
295.699
295.944
296.122
296.237
296.307
296.358
296.424
296.536
296.694
296.875
297.046
297.169
297.243
297.128
295.607
295.881
296.074
296.208
296.303
296.351
296.41
296.509
296.653
296.828
296.989
297.087
297.163
296.925
295.415
295.67
295.907
296.078
296.232
296.34
296.413
296.507
296.631
296.791
296.933
297.028
297.087
296.86
295.012
295.09
295.277
295.537
295.858
296.132
296.349
296.512
296.632
296.77
296.88
296.986
297
296.833
297.627
297.895
297.954
297.997
298.009
298.049
298.105
298.184
298.275
298.4
298.572
298.774
299.012
299.243
297.54
297.861
297.838
297.887
297.913
297.976
298.043
298.138
298.249
298.389
298.582
298.821
299.125
299.382
297.382
297.673
297.683
297.755
297.817
297.897
297.98
298.094
298.228
298.389
298.585
298.811
299.071
299.313
297.21
297.435
297.52
297.62
297.717
297.821
297.919
298.039
298.183
298.355
298.55
298.766
298.993
299.211
297.058
297.232
297.357
297.486
297.615
297.744
297.86
297.984
298.124
298.288
298.472
298.665
298.867
299.069
296.927
297.078
297.224
297.374
297.522
297.664
297.791
297.92
298.055
298.206
298.374
298.549
298.739
298.943
296.83
296.975
297.128
297.287
297.44
297.584
297.715
297.848
297.982
298.126
298.277
298.434
298.617
298.824
296.773
296.906
297.072
297.227
297.37
297.506
297.635
297.771
297.909
298.053
298.199
298.351
298.531
298.734
296.73
296.887
297.055
297.198
297.317
297.433
297.553
297.692
297.84
297.994
298.148
298.308
298.487
298.664
296.753
296.919
297.075
297.189
297.283
297.37
297.477
297.617
297.779
297.952
298.124
298.292
298.453
298.569
296.739
296.968
297.125
297.213
297.275
297.329
297.416
297.551
297.726
297.919
298.11
298.281
298.417
298.467
296.766
297.003
297.153
297.237
297.279
297.313
297.381
297.504
297.681
297.888
298.092
298.254
298.375
298.347
296.741
297.001
297.158
297.242
297.286
297.315
297.374
297.486
297.65
297.857
298.057
298.214
298.34
298.273
296.552
296.671
296.806
296.989
297.157
297.275
297.378
297.498
297.646
297.836
298.016
298.178
298.271
298.247
299.115
299.219
299.351
299.523
299.722
299.968
300.204
299.103
299.22
299.358
299.534
299.744
300.019
300.282
299.081
299.215
299.368
299.548
299.752
299.992
300.227
299.039
299.182
299.345
299.528
299.729
299.945
300.151
298.987
299.132
299.294
299.471
299.654
299.843
300.022
298.923
299.068
299.223
299.388
299.552
299.721
299.889
298.852
298.996
299.144
299.294
299.438
299.59
299.756
298.777
298.923
299.068
299.208
299.341
299.488
299.663
297.666
297.856
298.031
298.175
298.296
298.422
298.554
298.702
298.854
299.002
299.142
299.279
299.436
299.613
297.727
297.908
298.049
298.158
298.252
298.355
298.479
298.63
298.794
298.956
299.109
299.256
299.417
299.578
297.787
297.987
298.104
298.172
298.228
298.298
298.409
298.562
298.741
298.925
299.1
299.261
299.414
299.539
297.89
298.072
298.165
298.199
298.22
298.26
298.353
298.504
298.696
298.903
299.102
299.269
299.411
299.484
297.942
298.143
298.224
298.225
298.225
298.246
298.323
298.465
298.656
298.876
299.094
299.269
299.406
299.438
297.856
297.957
298.055
298.145
298.195
298.238
298.317
298.448
298.63
298.851
299.065
299.246
299.382
299.428
293.401
294.446
295.478
296.522
297.349
297.497
292.01
292.384
292.799
293.321
293.687
293.372
291.379
290.948
290.249
289.737
289.526
288.978
290.486
289.105
287.546
286.315
285.467
284.643
289.447
287.185
285.134
283.712
282.706
281.747
288.315
285.669
283.641
282.446
281.723
280.713
287.602
285.017
283.236
282.371
282.16
281.707
287.307
284.853
283.402
283.129
284.044
284.746
287.44
285.264
284.314
284.68
286.688
288.599
288.185
286.446
286.043
286.934
289.822
292.531
289.453
288.326
288.515
289.875
293.01
295.911
290.995
290.428
291.122
292.769
295.739
298.413
292.306
292.37
293.498
295.146
297.693
299.667
292.707
293.374
294.764
296.303
298.319
299.892
293.797
294.639
295.413
296.097
296.674
297.139
292.815
293.082
293.368
293.648
293.807
293.541
292.525
292.181
291.453
290.552
289.761
288.752
291.917
290.643
288.849
286.93
285.28
283.761
290.98
288.67
285.872
283.349
281.485
280.127
289.722
286.625
283.463
281.137
279.754
278.847
288.63
285.232
282.393
280.614
279.887
279.74
288.02
284.77
282.371
281.282
281.261
282.024
287.917
284.989
283.139
282.582
283.32
285.054
288.272
285.922
284.706
284.522
285.988
288.475
289.27
287.619
287.086
287.337
289.267
292.063
290.705
289.809
289.785
290.488
292.53
295.133
292.228
291.953
292.472
293.509
295.413
297.334
292.79
293.129
294.063
295.202
296.758
298.173
294.456
295.147
295.802
296.529
297.097
297.653
293.988
294.382
294.866
295.382
295.809
295.921
294.096
294.178
294.063
293.718
293.138
292.282
293.889
293.43
292.452
291.001
289.277
287.424
293.382
292.096
290.043
287.405
284.789
282.562
292.515
290.377
287.378
284.121
281.432
279.578
291.566
288.776
285.324
282.236
280.129
278.943
290.794
287.691
284.308
281.722
280.33
280.088
290.491
287.318
284.261
282.241
281.58
282.101
290.567
287.615
285.068
283.607
283.529
284.581
291.006
288.703
286.92
285.938
286.379
287.858
291.866
290.339
289.389
288.922
289.674
291.335
293.015
292.332
292.185
292.309
293.356
294.843
293.823
293.751
294.195
294.866
296.001
297.247
294.978
295.293
295.661
296.125
296.667
297.298
294.912
295.191
295.607
296.206
296.869
297.33
295.132
295.377
295.725
296.046
296.119
295.885
295.167
295.244
295.198
294.786
293.922
292.516
295.033
294.777
293.998
292.504
290.405
287.726
294.68
293.866
292.138
289.452
286.101
282.936
294.197
292.696
290.069
286.395
282.763
280.145
293.642
291.532
288.304
284.374
281.319
279.65
293.28
290.796
287.349
283.722
281.357
280.512
293.214
290.662
287.256
284.141
282.431
282.17
293.371
290.913
288.072
285.752
284.763
284.934
293.733
291.73
289.699
288.243
287.862
288.275
294.322
293.032
291.951
291.381
291.504
292.156
294.892
294.35
294.095
294.17
294.675
295.539
295.699
295.586
295.61
295.789
296.205
296.858
295.912
296.01
296.228
296.68
297.309
297.961
296.2
296.392
296.699
297.172
297.671
297.915
296.262
296.457
296.727
296.951
296.986
296.458
296.299
296.43
296.456
296.108
295.072
293.166
296.161
296.086
295.602
294.241
291.865
288.502
296.027
295.558
294.26
291.768
288.069
284.124
295.778
294.827
292.77
289.384
285.184
281.881
295.583
294.195
291.621
287.82
284.019
281.702
295.527
293.894
291.142
287.342
284.165
282.696
295.591
293.947
291.197
287.921
285.641
284.772
295.8
294.21
291.888
289.503
288.076
287.664
296.086
294.847
293.232
291.81
291.204
291.181
296.354
295.611
294.827
294.257
294.2
294.602
296.564
296.273
296.04
295.845
295.992
296.468
296.861
296.796
296.815
297.005
297.52
298.196
297.137
297.202
297.401
297.793
298.372
298.858
297.172
297.34
297.616
298.024
298.408
298.496
297.207
297.406
297.677
297.884
297.79
296.952
297.178
297.305
297.398
297.147
296.104
293.8
297.17
297.15
296.877
295.812
293.471
289.689
297.137
296.874
296.052
294.062
290.579
286.325
297.147
296.611
295.224
292.551
288.575
284.828
297.182
296.453
294.693
291.726
287.869
284.809
297.274
296.469
294.586
291.647
288.348
286.286
297.439
296.586
294.794
292.209
289.867
288.743
297.671
296.868
295.409
293.518
292.116
291.6
297.862
297.267
296.3
295.208
294.634
294.561
297.632
297.318
296.912
296.418
296.251
296.385
297.842
297.705
297.602
297.558
297.812
298.364
298.066
298.065
298.17
298.41
298.901
299.45
298.113
298.242
298.469
298.816
299.283
299.579
298.141
298.307
298.577
298.915
299.195
299.113
298.169
298.317
298.528
298.676
298.544
297.565
298.198
298.289
298.378
298.188
297.251
294.952
298.24
298.241
298.088
297.294
295.357
291.821
298.311
298.206
297.716
296.29
293.594
289.626
298.429
298.221
297.407
295.536
292.535
288.84
298.592
298.29
297.334
295.289
292.313
289.248
298.783
298.43
297.397
295.43
292.841
290.777
299.006
298.645
297.702
296.018
294.188