/*--------------------------------*- C++ -*----------------------------------*\
| =========                 |                                                 |
| \\      /  F ield         | OpenFOAM: The Open Source CFD Toolbox           |
|  \\    /   O peration     | Version:  v2106                                 |
|   \\  /    A nd           | Website:  www.openfoam.com                      |
|    \\/     M anipulation  |                                                 |
\*---------------------------------------------------------------------------*/
FoamFile
{
    version     2.0;
    format      ascii;
    arch        "LSB;label=32;scalar=64";
    class       volScalarField;
    location    "0.00018";
    object      k;
}
// * * * * * * * * * * * * * * * * * * * * * * * * * * * * * * * * * * * * * //

dimensions      [0 2 -2 0 0 0 0];

internalField   nonuniform List<scalar> 
18109
(
0.0198729
0.0103669
0.0062319
0.00430151
0.0035763
0.00347148
0.00385214
0.00826718
0.00294309
0.0014254
0.000942009
0.000799864
0.000792096
0.000902657
0.00403532
0.000949951
0.000298871
0.000169425
0.000143573
0.000145927
0.0001805
0.00256461
0.000504102
9.81901e-05
3.12952e-05
2.15224e-05
2.32376e-05
3.85609e-05
0.00209317
0.000427581
7.69957e-05
1.35822e-05
3.9437e-06
4.58193e-06
1.41006e-05
0.00206982
0.000444548
8.14218e-05
1.24647e-05
2.00412e-06
2.30975e-06
1.03126e-05
0.00243843
0.000523787
9.23051e-05
1.34994e-05
2.49213e-06
3.11444e-06
1.21672e-05
0.00319595
0.00065995
0.000111745
1.91099e-05
7.794e-06
9.86094e-06
2.33321e-05
0.0131384
0.00660522
0.00374397
0.00236465
0.00176607
0.00153711
0.00156152
0.00180951
0.00258682
0.00468617
0.0102413
0.0238981
0.0543242
0.116744
0.00518103
0.00169846
0.000742616
0.000434249
0.000326077
0.00028972
0.000308125
0.000398888
0.000734629
0.00185601
0.00529263
0.0146052
0.0367932
0.0839458
0.00247055
0.000535242
0.000141699
6.46751e-05
4.67688e-05
4.29884e-05
5.29619e-05
9.9179e-05
0.000287911
0.000970197
0.0031571
0.00932566
0.0246984
0.0590654
0.00164336
0.000322458
5.79471e-05
1.29422e-05
5.89852e-06
5.75923e-06
1.15371e-05
3.90626e-05
0.000154138
0.000579308
0.00197504
0.00606323
0.0168268
0.0426946
0.00146495
0.000307148
5.56816e-05
8.89196e-06
1.54482e-06
1.27065e-06
4.93707e-06
2.30642e-05
0.000100479
0.000393121
0.00137996
0.00437637
0.0126683
0.0338956
0.00157575
0.000340359
6.1942e-05
9.25762e-06
1.22113e-06
8.06334e-07
3.66889e-06
1.79894e-05
7.96317e-05
0.000315499
0.00112512
0.00364555
0.0108436
0.0299005
0.0019802
0.000418596
7.20635e-05
1.02793e-05
1.70346e-06
1.39664e-06
4.37146e-06
1.8828e-05
8.04352e-05
0.000315256
0.00112091
0.00362925
0.0107796
0.0296047
0.00269453
0.000540838
8.84552e-05
1.46634e-05
5.79418e-06
6.28616e-06
1.08839e-05
3.02995e-05
0.000108705
0.000397876
0.00136277
0.00427756
0.0123063
0.0326479
0.003739
0.000734472
0.000133376
3.90704e-05
2.98474e-05
3.42194e-05
4.60746e-05
8.26556e-05
0.000209853
0.000642727
0.00200235
0.00587313
0.0159146
0.0398674
0.00542183
0.00119821
0.000319338
0.000158862
0.000143444
0.0001636
0.000206646
0.000303288
0.000562427
0.0013186
0.00346546
0.00909435
0.0225946
0.0525619
0.00892601
0.00268422
0.00107616
0.000659068
0.00059392
0.0006643
0.000825497
0.00113278
0.0017722
0.00328536
0.0070109
0.0158794
0.0354316
0.0756494
0.0175547
0.0073002
0.00368962
0.00242343
0.00212475
0.00232022
0.00285843
0.0038298
0.00554103
0.00884917
0.0157286
0.0303616
0.0599859
0.116888
0.0371763
0.0193086
0.011104
0.00765373
0.00662255
0.00708404
0.00864336
0.0114376
0.0159546
0.0234978
0.0367912
0.061487
0.107098
0.190057
0.0772059
0.0457764
0.0286294
0.0208324
0.0181962
0.0192312
0.0231798
0.0302476
0.0412246
0.0579512
0.0834448
0.123679
0.18957
0.304458
0.0521077
0.119115
0.256814
0.510746
0.971418
1.85986
0.036614
0.0885
0.199956
0.410516
0.788574
1.49558
0.0234974
0.0674863
0.170062
0.375176
0.763326
1.5391
0.0151777
0.0496983
0.137424
0.328083
0.720961
1.5697
0.0100908
0.0363072
0.108949
0.282503
0.67108
1.5659
0.00752552
0.0283736
0.0898371
0.248028
0.628962
1.54957
0.00643979
0.0244526
0.0791007
0.226922
0.60136
1.52858
0.00638833
0.0238055
0.0768272
0.223225
0.600793
1.53219
0.00720072
0.0259662
0.0817815
0.232977
0.613625
1.52425
0.00956041
0.0327563
0.0979683
0.264439
0.65842
1.53316
0.0146874
0.0466727
0.12873
0.318628
0.724745
1.53895
0.025281
0.0722818
0.179835
0.400563
0.819426
1.57251
0.0462587
0.116365
0.258037
0.516136
0.957278
1.68684
0.0849141
0.185773
0.367707
0.672016
1.16626
1.96383
0.148352
0.28234
0.506833
0.872273
1.47256
2.45696
0.2441
0.402155
0.656789
1.07516
1.78791
3.00045
0.176176
0.32515
0.589377
1.06441
1.92723
3.46209
0.130556
0.269756
0.54203
1.07182
2.08659
3.94089
0.101342
0.232616
0.511055
1.08057
2.19532
4.23585
0.0852235
0.210281
0.488719
1.07364
2.22846
4.32307
0.0771472
0.1975
0.470656
1.04657
2.18042
4.20906
0.0756864
0.193594
0.458605
1.00846
2.07566
3.98232
0.0804382
0.198802
0.456299
0.975844
1.9614
3.74718
0.0929945
0.216927
0.473185
0.971234
1.89653
3.57605
0.115038
0.249887
0.512177
0.999949
1.89258
3.51928
0.15398
0.308857
0.591187
1.09415
2.00031
3.66377
0.220962
0.407997
0.72868
1.27992
2.2612
4.07094
0.33356
0.565758
0.946755
1.59045
2.72571
4.75491
0.504213
0.790682
1.24981
2.01754
3.34174
5.62903
0.400258
0.715584
1.21796
2.07149
3.55961
6.08954
0.320401
0.598619
1.05885
1.87768
3.39583
6.15493
0.245933
0.475265
0.878585
1.6402
3.13316
6.02342
0.18245
0.368035
0.713109
1.39788
2.79627
5.64823
0.133457
0.282259
0.577457
1.18985
2.484
5.27302
0.0977913
0.216761
0.467772
1.01114
2.19052
4.73912
0.0730752
0.169158
0.382925
0.858458
1.90428
4.1553
0.0566872
0.135983
0.320041
0.736251
1.64056
3.58766
0.0472325
0.115939
0.278281
0.648469
1.44045
3.16536
0.044294
0.108582
0.259435
0.596395
1.30382
2.84149
0.0489767
0.114793
0.264408
0.584748
1.23229
2.65078
0.0636225
0.137304
0.292442
0.61096
1.22117
2.63477
0.0950671
0.188033
0.365835
0.703728
1.37174
2.91211
0.149819
0.274264
0.495951
0.892786
1.6414
3.21152
0.0108437
0.0356856
0.104935
0.276941
0.661381
1.55301
0.0134454
0.0400429
0.110391
0.275224
0.6345
1.50241
0.0178717
0.0458995
0.119172
0.289177
0.682924
1.5708
0.0276107
0.0613914
0.147281
0.357836
0.808297
1.73277
0.108883
0.216133
0.468719
0.92437
1.69991
3.24256
0.0697154
0.17178
0.409892
0.827165
1.55399
3.10086
0.046201
0.136574
0.338141
0.693585
1.35592
2.8918
0.0324966
0.104644
0.26444
0.561748
1.16862
2.66453
0.0236259
0.0773592
0.199465
0.44627
0.998857
2.43709
0.017012
0.0555785
0.146646
0.350142
0.850461
2.19569
0.011971
0.039428
0.108289
0.279266
0.729489
1.94243
0.00851507
0.0286966
0.0838466
0.234121
0.638808
1.69568
0.00672294
0.023238
0.0719566
0.210637
0.576694
1.48606
0.00634651
0.0220644
0.0694875
0.201663
0.530806
1.30601
0.00710869
0.0239765
0.0729449
0.200564
0.496402
1.1692
0.008975
0.0279133
0.0796036
0.204589
0.478949
1.11638
0.0121426
0.0330806
0.088988
0.219729
0.516951
1.19588
0.018787
0.0444797
0.1119
0.279247
0.636638
1.36322
2.93604
9.50184
32.798
26.543
18.4975
3.24306
10.896
32.3541
25.9033
18.1101
3.53074
12.238
31.3209
25.1745
18.2377
3.73523
13.0139
30.2327
25.2544
19.0259
3.87531
13.047
28.7575
25.2527
19.6964
3.84856
12.0929
26.0529
24.8603
20.1457
3.68496
10.6394
22.6372
24.2654
20.5934
3.39617
9.1529
19.7215
24.0717
21.0346
24.6221
3.15178
7.89302
17.4773
23.8133
21.327
26.3853
2.9339
7.09402
15.9519
22.7267
20.5358
27.1499
2.77577
6.68621
15.4621
21.0314
18.8367
26.4328
37.478
2.81022
6.95783
16.0653
19.4613
16.725
23.7661
42.4847
49.6445
3.19576
8.1649
17.9722
18.5035
15.5445
20.12
41.0258
107.679
3.96715
10.2218
20.7366
18.3412
15.8495
18.8418
25.6394
82.4385
4.93423
12.4027
22.9343
18.5683
16.4187
19.1755
24.3583
81.1549
5.91868
13.9329
23.8167
18.8772
16.8748
20.1645
25.2235
68.7029
6.87095
15.0459
24.4373
19.8529
17.9199
21.4718
25.6474
57.1593
7.39079
15.3194
24.9788
21.6639
19.5858
23.1109
24.4432
40.5211
7.51387
14.9512
25.018
23.3474
20.9774
24.6709
24.8937
31.2991
7.26795
14.0899
24.6467
24.4647
21.785
26.1326
26.2086
25.5323
6.81431
13.1695
24.569
25.1702
22.4203
27.9138
28.8284
21.5796
6.39558
12.8079
25.9584
25.8685
23.0675
30.069
32.7451
19.9497
6.17455
13.0969
27.9965
25.6368
23.3489
32.1175
6.2128
14.1424
29.6908
23.6684
22.5459
32.9377
6.50656
15.5354
29.5357
20.5258
20.5401
32.7084
7.1066
17.1927
28.4105
17.9706
17.9693
29.893
8.05283
19.1167
27.1178
16.6193
16.0762
25.1142
9.20049
21.3433
26.8201
16.9794
15.6938
10.1029
23.5972
26.9283
18.6066
16.8772
10.6252
25.0695
26.6189
20.0518
17.7273
11.0518
24.9151
26.309
21.7314
19.0373
11.2001
22.5729
26.3022
24.2141
20.7375
10.9498
19.8476
26.0622
26.5567
22.042
9.97828
16.9995
25.568
28.3001
22.4335
8.73174
14.7084
25.9196
29.3422
21.9856
7.52182
13.1667
28.2753
30.553
21.6781
6.57821
12.2917
32.7296
31.0086
20.8137
5.78726
11.9931
37.8404
29.4042
18.9323
5.23297
12.7018
40.8921
26.3567
17.3176
5.13985
14.7415
41.1912
24.8174
16.5004
5.53483
17.6793
39.2958
24.6962
16.9685
6.06719
20.7238
37.6601
25.9114
18.1967
6.44836
23.1025
37.0461
27.0195
18.981
6.89899
24.2524
35.6903
26.5771
18.97
7.37675
23.776
33.6619
26.2279
19.5395
7.53556
21.5236
31.3669
26.7975
20.6833
7.37159
18.6626
28.799
27.4818
21.6024
6.75673
15.4554
25.2545
27.6585
21.9666
5.90313
12.5657
21.5657
27.4007
21.6561
4.98875
10.2245
18.7413
27.639
21.3794
4.15467
8.37294
17.1339
28.321
20.9162
3.43197
6.89905
16.848
28.4909
19.6913
2.84593
5.91667
18.1214
27.6366
18.2864
2.49846
5.77664
21.1641
26.4108
17.3987
2.43552
6.55804
25.743
25.5997
17.5114
2.63498
8.01949
30.3889
26.0203
18.2175
0.0100952
0.00523975
0.00298981
0.00182175
0.00125786
0.000975319
0.000879192
0.000928434
0.00130753
0.00254076
0.00606979
0.0152993
0.0369632
0.0832005
0.00373883
0.00124218
0.000548504
0.000304974
0.000206696
0.000160363
0.00015059
0.000183868
0.000363499
0.00103363
0.00321311
0.00943679
0.024987
0.0594065
0.00173904
0.000373572
9.73403e-05
4.07297e-05
2.55307e-05
2.00315e-05
2.26589e-05
4.62674e-05
0.000154936
0.000570276
0.00195806
0.00604028
0.0166493
0.0412862
0.00121699
0.000241171
4.29966e-05
8.54563e-06
2.88815e-06
2.30111e-06
5.09154e-06
2.02286e-05
8.69776e-05
0.000343842
0.00121877
0.00387865
0.0111443
0.0291661
0.00116748
0.000246164
4.45609e-05
6.96844e-06
1.01388e-06
5.63112e-07
2.37557e-06
1.19813e-05
5.50384e-05
0.000225495
0.000825069
0.00271728
0.0081357
0.0224081
0.00132965
0.000284096
5.09541e-05
7.51603e-06
9.36451e-07
4.04768e-07
1.70273e-06
8.69387e-06
4.05184e-05
0.00016912
0.000632784
0.00213951
0.00660968
0.0188699
0.00173756
0.000359574
6.05454e-05
8.48694e-06
1.36584e-06
9.00635e-07
2.14903e-06
8.58483e-06
3.76758e-05
0.00015544
0.000582927
0.00198426
0.0061774
0.0177406
0.00242482
0.000474745
7.54253e-05
1.21873e-05
4.82098e-06
5.03934e-06
7.21624e-06
1.56884e-05
5.09125e-05
0.00018825
0.000674458
0.00223066
0.00676387
0.0188792
0.00343831
0.00065491
0.000113233
3.19897e-05
2.49214e-05
2.89015e-05
3.65957e-05
5.53547e-05
0.000116202
0.00032757
0.00102501
0.00312592
0.00888399
0.0233573
0.00505464
0.00105869
0.000261797
0.000127425
0.000118477
0.000138528
0.000172722
0.000235688
0.00038236
0.000792919
0.00198381
0.00524999
0.0134468
0.0324285
0.00822305
0.00228428
0.000858244
0.000521831
0.000484012
0.000557367
0.000695829
0.00092971
0.00136294
0.00231679
0.00463805
0.0103118
0.0232286
0.0506508
0.0156815
0.00604029
0.00290988
0.00190091
0.00170985
0.00192574
0.00240246
0.00319936
0.00450926
0.00689094
0.011685
0.021946
0.0431315
0.0848813
0.0323774
0.0158202
0.00873005
0.00597243
0.00528266
0.00582915
0.00724148
0.0096272
0.0133388
0.01931
0.0294978
0.0482555
0.0831801
0.148381
0.0670735
0.0377147
0.0225921
0.0162361
0.0144299
0.0157187
0.019392
0.0256354
0.035093
0.0492304
0.070353
0.103103
0.156139
0.250001
0.00462908
0.00289563
0.00189417
0.00121327
0.000809383
0.000568781
0.000444601
0.000385315
0.00042213
0.000698505
0.00173486
0.00499625
0.0140467
0.0361962
0.00131937
0.000549898
0.000308995
0.000186787
0.000120801
8.35835e-05
6.65016e-05
6.23083e-05
9.36062e-05
0.000260704
0.000928451
0.00319614
0.00982699
0.0265907
0.000576001
0.00013558
4.441e-05
2.14812e-05
1.29236e-05
8.89962e-06
7.76791e-06
1.12707e-05
3.61053e-05
0.000153656
0.000620175
0.00221599
0.00696144
0.0193443
0.000532577
0.000107803
1.95679e-05
3.91933e-06
1.21141e-06
7.30512e-07
1.09346e-06
4.25862e-06
2.16841e-05
0.000102119
0.000421852
0.00153048
0.00491831
0.0141637
0.000647143
0.000132618
2.30116e-05
3.4326e-06
4.48551e-07
1.183e-07
4.24157e-07
2.60379e-06
1.44697e-05
7.00032e-05
0.000295678
0.00110102
0.00365639
0.0109835
0.00084471
0.00016927
2.81606e-05
3.87248e-06
4.43907e-07
9.44022e-08
3.12821e-07
1.90034e-06
1.05888e-05
5.16962e-05
0.000221761
0.000844934
0.00289598
0.00905021
0.0011962
0.000228906
3.52509e-05
4.5039e-06
6.4589e-07
3.23302e-07
5.24234e-07
1.82125e-06
8.8411e-06
4.22398e-05
0.00018251
0.000708448
0.00249018
0.0079973
0.00174939
0.000315691
4.49984e-05
6.31901e-06
2.26466e-06
2.27969e-06
2.81133e-06
4.43622e-06
1.1752e-05
4.49983e-05
0.000183199
0.000700481
0.00245032
0.00782841
0.00255438
0.000441619
6.46443e-05
1.54438e-05
1.20915e-05
1.42325e-05
1.73566e-05
2.2464e-05
3.59498e-05
8.40868e-05
0.000266102
0.000911708
0.00299016
0.00905271
0.00376477
0.000671061
0.000131026
5.98103e-05
5.97578e-05
7.22453e-05
8.9835e-05
0.000115008
0.000159692
0.000266566
0.000586212
0.0015866
0.00450658
0.0123233
0.00578415
0.00126044
0.000391122
0.000246667
0.000253395
0.000306099
0.000386998
0.000503246
0.000681814
0.00100323
0.00172339
0.00361126
0.00843683
0.0200689
0.00997262
0.00304154
0.00130785
0.000915337
0.000924827
0.00110902
0.00141617
0.00186693
0.00252648
0.00355526
0.00538608
0.00932544
0.0180532
0.0371307
0.0191702
0.00795509
0.00404211
0.00295548
0.00293875
0.00349933
0.00449135
0.00596484
0.00807879
0.011171
0.015936
0.0244263
0.0406082
0.0733572
0.0399465
0.0200396
0.0110503
0.00835112
0.00826948
0.00979753
0.0125876
0.0167498
0.0226678
0.0310657
0.0428674
0.060341
0.0877029
0.137045
0.0014335
0.000868205
0.000578913
0.000372197
0.000244003
0.000162319
0.000121072
9.86914e-05
9.61883e-05
0.000139129
0.000349565
0.00113822
0.00371104
0.01111
0.000357643
0.000137777
7.95547e-05
4.87613e-05
3.10395e-05
2.01649e-05
1.50449e-05
1.26751e-05
1.59423e-05
4.31995e-05
0.000176905
0.000715398
0.00256485
0.0080212
0.000196759
4.09896e-05
1.10044e-05
4.67929e-06
2.64578e-06
1.6673e-06
1.30496e-06
1.58749e-06
5.10726e-06
2.56998e-05
0.000123716
0.000518221
0.00187493
0.00588891
0.000245649
4.75194e-05
7.89321e-06
1.25512e-06
2.54641e-07
9.89199e-08
1.17486e-07
5.06932e-07
3.18341e-06
1.81658e-05
8.89538e-05
0.000374242
0.00136295
0.00433918
0.000338419
6.52278e-05
1.07159e-05
1.47009e-06
1.72995e-07
2.20769e-08
4.36652e-08
3.33768e-07
2.276e-06
1.31671e-05
6.49995e-05
0.000276406
0.00102339
0.00334392
0.000477114
8.84182e-05
1.38363e-05
1.74448e-06
1.87947e-07
2.64275e-08
4.02529e-08
2.55441e-07
1.69674e-06
9.81917e-06
4.88595e-05
0.000210887
0.000800168
0.00271435
0.000711543
0.000125406
1.81369e-05
2.09836e-06
2.70474e-07
1.21284e-07
1.45488e-07
3.22729e-07
1.45079e-06
7.80921e-06
3.87544e-05
0.000170245
0.000666511
0.00236351
0.00107187
0.000178618
2.36511e-05
2.87014e-06
9.14168e-07
9.40098e-07
1.12772e-06
1.42673e-06
2.53866e-06
8.19827e-06
3.56446e-05
0.00015492
0.000620765
0.00227721
0.00159564
0.000253379
3.27636e-05
6.3459e-06
4.97568e-06
6.1827e-06
7.65037e-06
9.30733e-06
1.20698e-05
2.04486e-05
5.49612e-05
0.000198802
0.00075112
0.00268525
0.00236893
0.000373841
5.8779e-05
2.35365e-05
2.55488e-05
3.27935e-05
4.15968e-05
5.18555e-05
6.53947e-05
9.00129e-05
0.000158395
0.0003979
0.0012289
0.00391348
0.00356494
0.000646979
0.000160133
9.97005e-05
0.000113247
0.000145278
0.000187244
0.00023907
0.000305484
0.00040398
0.000596967
0.00112116
0.00266381
0.00707589
0.00599311
0.00148391
0.000546453
0.000393
0.00043538
0.000551884
0.000716895
0.0009305
0.00120575
0.00158656
0.00219132
0.00347549
0.00661444
0.0145797
0.0111004
0.00398181
0.00183018
0.00138087
0.0014792
0.0018411
0.00239011
0.00312508
0.00408225
0.00538271
0.00723966
0.0104533
0.0168829
0.031583
0.022541
0.0107526
0.00557742
0.00433667
0.00452366
0.0055163
0.00710798
0.00929244
0.0121561
0.0160207
0.0212599
0.0290238
0.0413146
0.0649511
0.000271909
0.000136865
8.84112e-05
5.88314e-05
3.95333e-05
2.76242e-05
2.11281e-05
1.71081e-05
1.49676e-05
1.6669e-05
3.62353e-05
0.000131122
0.000511237
0.00183316
9.04243e-05
2.22724e-05
9.69329e-06
5.87648e-06
3.81136e-06
2.63636e-06
2.02842e-06
1.66179e-06
1.69711e-06
3.78305e-06
1.73676e-05
8.46978e-05
0.000363607
0.00134515
8.05527e-05
1.44476e-05
2.36172e-06
5.57946e-07
2.3407e-07
1.46203e-07
1.14619e-07
1.22818e-07
3.70746e-07
2.21885e-06
1.30652e-05
6.59678e-05
0.000283403
0.00104292
0.000116314
2.16454e-05
3.2191e-06
4.41159e-07
5.51137e-08
8.71024e-09
5.76055e-09
2.96513e-08
2.40219e-07
1.71065e-06
1.0216e-05
5.14564e-05
0.000220577
0.00081271
0.000168928
3.10036e-05
4.53984e-06
5.92686e-07
6.44844e-08
6.30156e-09
2.66723e-09
2.17053e-08
1.87046e-07
1.34057e-06
8.02254e-06
4.0523e-05
0.000174673
0.000650404
0.000244324
4.31207e-05
5.92267e-06
7.01248e-07
7.04334e-08
9.42818e-09
6.22833e-09
2.1453e-08
1.514e-07
1.05846e-06
6.33064e-06
3.21545e-05
0.000140165
0.000532293
0.000365795
6.16905e-05
7.78675e-06
8.30635e-07
9.99867e-08
4.76363e-08
5.28921e-08
7.07978e-08
1.77833e-07
9.03009e-07
5.13473e-06
2.61684e-05
0.000116512
0.000458647
0.000548586
8.77206e-05
1.01227e-05
1.09032e-06
3.28357e-07
3.60257e-07
4.43087e-07
5.2411e-07
6.69184e-07
1.33258e-06
5.00869e-06
2.35313e-05
0.000106007
0.000435458
0.000802417
0.000123562
1.36844e-05
2.22477e-06
1.76668e-06
2.3318e-06
2.95659e-06
3.5591e-06
4.21071e-06
5.45109e-06
1.01472e-05
3.20694e-05
0.000129174
0.000523199
0.00115093
0.000178982
2.27267e-05
7.96547e-06
9.20411e-06
1.24617e-05
1.60798e-05
1.98538e-05
2.38442e-05
2.90638e-05
4.03043e-05
8.00571e-05
0.000236474
0.000828085
0.00164033
0.000291884
5.70677e-05
3.45919e-05
4.2018e-05
5.63593e-05
7.33943e-05
9.24282e-05
0.00011334
0.000138854
0.000179157
0.000281129
0.000607968
0.00169278
0.00251546
0.000620298
0.000196028
0.000144866
0.000169126
0.000221107
0.000287878
0.000366699
0.000456795
0.000567029
0.000719577
0.0010146
0.00176469
0.0039351
0.00436622
0.00161971
0.000705741
0.000555611
0.000613659
0.000771928
0.000992748
0.00126522
0.00158818
0.00199332
0.00252914
0.00339035
0.00511059
0.00944979
0.0090873
0.00453847
0.00238721
0.00194402
0.00204887
0.00246363
0.00309088
0.00389126
0.00486887
0.00613206
0.00779657
0.0102051
0.0140099
0.0219358
4.28009e-05
1.34056e-05
7.01638e-06
4.58385e-06
3.11337e-06
2.2623e-06
1.87722e-06
1.60893e-06
1.38853e-06
1.29471e-06
2.23099e-06
8.712e-06
4.08321e-05
0.000175817
2.31446e-05
3.93745e-06
7.7902e-07
2.99431e-07
1.81835e-07
1.33604e-07
1.16752e-07
1.0456e-07
1.0319e-07
1.99825e-07
1.0165e-06
5.98095e-06
3.07684e-05
0.000134951
2.78045e-05
5.11333e-06
7.59348e-07
1.00313e-07
1.53405e-08
4.29363e-09
3.1678e-09
3.96915e-09
1.50187e-08
1.13274e-07
8.17532e-07
4.981e-06
2.55458e-05
0.000111162
4.17844e-05
8.05121e-06
1.23779e-06
1.60738e-07
1.93827e-08
1.91529e-09
2.52777e-10
9.78988e-10
1.03536e-08
9.22929e-08
6.7647e-07
4.12248e-06
2.1119e-05
9.18829e-05
6.05767e-05
1.16476e-05
1.75367e-06
2.182e-07
2.48673e-08
2.31984e-09
3.0677e-10
8.54492e-10
8.60295e-09
7.68811e-08
5.66516e-07
3.46734e-06
1.78271e-05
7.7843e-05
8.6806e-05
1.63828e-05
2.3179e-06
2.62353e-07
2.76348e-08
3.19876e-09
1.37829e-09
1.87576e-09
8.20109e-09
6.42922e-08
4.69476e-07
2.88743e-06
1.49571e-05
6.59284e-05
0.000125801
2.32558e-05
3.05322e-06
3.11828e-07
3.55998e-08
1.2408e-08
1.26361e-08
1.4168e-08
1.98366e-08
6.59382e-08
3.9971e-07
2.41139e-06
1.26042e-05
5.65896e-05
0.000179022
3.22699e-05
3.94975e-06
3.90476e-07
8.88462e-08
8.495e-08
1.01969e-07
1.15438e-07
1.28358e-07
1.73007e-07
4.59462e-07
2.18504e-06
1.10986e-05
5.08897e-05
0.000247044
4.35695e-05
5.1743e-06
6.65629e-07
4.19144e-07
5.408e-07
6.72023e-07
7.80659e-07
8.70282e-07
9.83028e-07
1.34573e-06
3.25488e-06
1.29663e-05
5.72104e-05
0.000334757
5.93422e-05
7.83847e-06
2.00379e-06
2.15452e-06
2.92399e-06
3.69175e-06
4.39153e-06
5.01087e-06
5.64332e-06
6.65834e-06
1.016e-05
2.56558e-05
9.26873e-05
0.000455101
8.88881e-05
1.6911e-05
8.28686e-06
1.0026e-05
1.35596e-05
1.72734e-05
2.09459e-05
2.44252e-05
2.80055e-05
3.25104e-05
4.26749e-05
7.77884e-05
0.00021285
0.000676741
0.000174593
5.35049e-05
3.52862e-05
4.16142e-05
5.49345e-05
7.0066e-05
8.60802e-05
0.000102133
0.000119339
0.000139714
0.000174391
0.000264468
0.000568042
0.00119853
0.000450072
0.000193161
0.000141425
0.000156766
0.000198575
0.000250697
0.000309377
0.000371305
0.000441074
0.000524061
0.000644464
0.000877138
0.00154703
0.00265415
0.00130241
0.000686274
0.000526902
0.000548138
0.000656458
0.000807274
0.000988136
0.00118959
0.00142974
0.00172514
0.00212748
0.00272774
0.004106
7.49248e-06
1.44201e-06
4.04306e-07
2.14169e-07
1.49021e-07
1.21374e-07
1.1829e-07
1.15053e-07
1.05685e-07
9.3461e-08
1.38302e-07
6.01333e-07
3.37011e-06
1.68981e-05
5.16867e-06
9.17217e-07
1.31421e-07
1.87238e-08
4.78652e-09
3.32166e-09
3.88323e-09
4.56371e-09
5.36432e-09
1.11869e-08
6.52386e-08
4.51173e-07
2.69485e-06
1.36003e-05
6.97288e-06
1.41635e-06
2.28216e-07
3.09945e-08
3.84688e-09
4.54573e-10
1.27406e-10
1.84113e-10
7.54284e-10
6.37782e-09
5.41909e-08
3.87571e-07
2.31252e-06
1.16134e-05
1.04112e-05
2.19355e-06
3.66099e-07
5.07943e-08
6.2143e-09
6.43674e-10
6.32165e-11
4.83065e-11
4.85813e-10
5.15181e-09
4.51335e-08
3.25475e-07
1.95381e-06
9.86648e-06
1.48276e-05
3.10449e-06
5.09243e-07
6.80234e-08
7.88318e-09
7.77215e-10
8.19404e-11
5.1789e-11
4.04691e-10
4.26578e-09
3.78312e-08
2.76045e-07
1.67415e-06
8.53113e-06
2.06937e-05
4.22617e-06
6.59237e-07
8.1021e-08
8.65982e-09
9.34513e-10
2.75385e-10
2.56161e-10
5.37571e-10
3.68249e-09
3.14908e-08
2.31677e-07
1.42272e-06
7.33883e-06
2.90173e-05
5.7524e-06
8.46246e-07
9.45186e-08
1.01182e-08
2.45534e-09
2.17892e-09
2.33495e-09
2.61163e-09
5.17537e-09
2.82086e-08
1.96234e-07
1.21003e-06
6.32566e-06
3.99385e-05
7.6535e-06
1.06662e-06
1.12382e-07
1.88712e-08
1.44257e-08
1.70039e-08
1.89167e-08
2.00639e-08
2.26299e-08
4.22311e-08
1.85542e-07
1.05931e-06
5.5488e-06
5.31243e-05
9.8493e-06
1.33076e-06
1.60406e-07
7.33844e-08
9.08923e-08
1.12482e-07
1.28193e-07
1.38518e-07
1.4747e-07
1.71979e-07
3.24366e-07
1.22298e-06
5.85685e-06
6.9108e-05
1.2626e-05
1.80365e-06
3.8107e-07
3.68415e-07
5.03849e-07
6.32579e-07
7.35631e-07
8.12919e-07
8.77285e-07
9.57152e-07
1.24032e-06
2.6204e-06
9.3317e-06
8.97069e-05
1.74489e-05
3.28071e-06
1.42777e-06
1.75602e-06
2.42438e-06
3.06574e-06
3.62601e-06
4.08826e-06
4.50191e-06
4.93563e-06
5.8656e-06
9.14023e-06
2.3339e-05
0.000128496
3.18189e-05
9.34876e-06
6.03031e-06
7.52126e-06
1.0222e-05
1.29557e-05
1.55267e-05
1.7808e-05
2.00009e-05
2.22989e-05
2.60032e-05
3.51871e-05
7.0204e-05
0.00022876
8.09693e-05
3.3438e-05
2.45882e-05
2.90917e-05
3.8282e-05
4.82955e-05
5.83747e-05
6.79003e-05
7.76851e-05
8.83402e-05
0.000103219
0.000129518
0.000213965
0.000530114
0.000242108
0.000122579
9.40553e-05
0.000103465
0.000129524
0.000160776
0.000194534
0.000228542
0.000265834
0.000308514
0.000365361
0.000442437
0.000635393
1.63452e-06
2.9637e-07
5.81385e-08
2.08918e-08
1.33552e-08
1.20426e-08
1.33533e-08
1.44263e-08
1.42518e-08
1.25722e-08
1.50416e-08
6.07519e-08
3.71816e-07
2.02749e-06
1.2385e-06
2.36218e-07
3.67994e-08
5.15165e-09
9.14045e-10
4.83256e-10
6.26256e-10
8.40385e-10
1.02433e-09
1.51975e-09
6.52845e-09
4.70472e-08
3.06195e-07
1.67762e-06
1.73858e-06
3.70366e-07
6.4427e-08
9.49375e-09
1.25899e-09
1.56241e-10
4.1164e-11
4.85115e-11
1.04018e-10
5.94287e-10
5.19231e-09
4.07807e-08
2.66788e-07
1.46053e-06
2.58146e-06
5.64339e-07
1.01098e-07
1.51568e-08
1.98772e-09
2.20257e-10
2.32465e-11
8.73444e-12
4.22343e-11
4.45529e-10
4.29927e-09
3.43573e-08
2.27232e-07
1.25894e-06
3.61583e-06
7.81365e-07
1.37353e-07
1.98924e-08
2.49046e-09
2.62651e-10
2.81275e-11
1.00972e-11
3.58513e-11
3.67141e-10
3.59703e-09
2.92154e-08
1.96325e-07
1.10437e-06
4.92364e-06
1.0316e-06
1.72061e-07
2.3128e-08
2.69525e-09
2.9393e-10
6.83898e-11
5.38745e-11
7.3698e-11
3.40541e-10
3.01126e-09
2.46009e-08
1.68151e-07
9.62722e-07
6.70329e-06
1.35425e-06
2.12008e-07
2.61593e-08
2.98625e-09
5.89628e-10
4.49399e-10
4.69095e-10
4.91651e-10
6.99852e-10
2.90286e-09
2.10588e-08
1.43888e-07
8.35698e-07
8.96886e-06
1.74223e-06
2.56631e-07
2.99574e-08
4.69028e-09
2.92677e-09
3.35585e-09
3.69074e-09
3.85076e-09
4.04416e-09
5.87595e-09
2.12937e-08
1.26867e-07
7.29292e-07
1.16374e-05
2.17817e-06
3.0797e-07
3.95851e-08
1.53241e-08
1.78782e-08
2.1992e-08
2.4767e-08
2.63861e-08
2.7348e-08
2.95564e-08
4.54712e-08
1.51181e-07
7.50048e-07
1.48129e-05
2.71519e-06
3.96973e-07
8.27043e-08
7.34883e-08
9.95813e-08
1.24428e-07
1.42758e-07
1.5529e-07
1.63981e-07
1.72334e-07
2.01813e-07
3.59027e-07
1.19058e-06
1.87839e-05
3.61219e-06
6.67983e-07
2.86411e-07
3.51414e-07
4.87213e-07
6.12774e-07
7.144e-07
7.91744e-07
8.53262e-07
9.07004e-07
1.01361e-06
1.39165e-06
3.17641e-06
2.63002e-05
6.28685e-06
1.78529e-06
1.18428e-06
1.52665e-06
2.10068e-06
2.64947e-06
3.12946e-06
3.52423e-06
3.86993e-06
4.18692e-06
4.66555e-06
5.77818e-06
1.04173e-05
4.70126e-05
1.57205e-05
6.2851e-06
4.80383e-06
5.97906e-06
8.04823e-06
1.01405e-05
1.21021e-05
1.38223e-05
1.54491e-05
1.70372e-05
1.91579e-05
2.25371e-05
3.43368e-05
0.000112231
4.76648e-05
2.32389e-05
1.83332e-05
2.13751e-05
2.77248e-05
3.46362e-05
4.15483e-05
4.79889e-05
5.45131e-05
6.13033e-05
7.00357e-05
8.07248e-05
0.000109298
3.25059e-07
6.05473e-08
1.20269e-08
3.99791e-09
2.52865e-09
2.43887e-09
2.87641e-09
3.26741e-09
3.36166e-09
2.9544e-09
2.56401e-09
6.24178e-09
3.72657e-08
2.16771e-07
2.68689e-07
5.34768e-08
9.02237e-09
1.36679e-09
2.46788e-10
1.25097e-10
1.64143e-10
2.26942e-10
2.77536e-10
3.16248e-10
7.07411e-10
4.52395e-09
3.13562e-08
1.8451e-07
3.95576e-07
8.66359e-08
1.60108e-08
2.52871e-09
3.57717e-10
4.80623e-11
1.41444e-11
1.58243e-11
2.37297e-11
6.53311e-11
4.73626e-10
3.93993e-09
2.78741e-08
1.64522e-07
5.93085e-07
1.32772e-07
2.51397e-08
4.01943e-09
5.61665e-10
6.69471e-11
8.8339e-12
3.85402e-12
6.33266e-12
3.95454e-11
3.85665e-10
3.34207e-09
2.40368e-08
1.44354e-07
8.27094e-07
1.82775e-07
3.39185e-08
5.2489e-09
7.03218e-10
7.95067e-11
9.89233e-12
3.85845e-12
5.42562e-12
3.25238e-11
3.2306e-10
2.85377e-09
2.09372e-08
1.28349e-07
1.10933e-06
2.3697e-07
4.1709e-08
6.03264e-09
7.55977e-10
8.45348e-11
1.63219e-11
1.0992e-11
1.19845e-11
3.3384e-11
2.73216e-10
2.41021e-09
1.80369e-08
1.1307e-07
1.47939e-06
3.03658e-07
5.01313e-08
6.70898e-09
8.05858e-10
1.30064e-10
7.77216e-11
7.74505e-11
7.81394e-11
9.22035e-11
2.87562e-10
2.0838e-09
1.54929e-08
9.86817e-08
1.93872e-06
3.81798e-07
5.9264e-08
7.50193e-09
1.08243e-09
5.08114e-10
5.49133e-10
5.92204e-10
6.04661e-10
6.03936e-10
7.50059e-10
2.25185e-09
1.37029e-08
8.55899e-08
2.46678e-06
4.67377e-07
6.93617e-08
9.25662e-09
2.83882e-09
2.97537e-09
3.61013e-09
3.99342e-09
4.16198e-09
4.17554e-09
4.27542e-09
5.70676e-09
1.68001e-08
8.58469e-08
3.07844e-06
5.68238e-07
8.53196e-08
1.66176e-08
1.26655e-08
1.67741e-08
2.0786e-08
2.33975e-08
2.48583e-08
2.54647e-08
2.58195e-08
2.81425e-08
4.36674e-08
1.34468e-07
3.79976e-06
7.21634e-07
1.29962e-07
5.1206e-08
6.08165e-08
8.41127e-08
1.04908e-07
1.19894e-07
1.29634e-07
1.35611e-07
1.39469e-07
1.48297e-07
1.84567e-07
3.77322e-07
5.11347e-06
1.16197e-06
3.12674e-07
2.05358e-07
2.69905e-07
3.73483e-07
4.6707e-07
5.40603e-07
5.93548e-07
6.32678e-07
6.62248e-07
7.08083e-07
8.16747e-07
1.33478e-06
8.85377e-06
2.74497e-06
1.05688e-06
8.31456e-07
1.07991e-06
1.47432e-06
1.84521e-06
2.16014e-06
2.40596e-06
2.6104e-06
2.78305e-06
3.01385e-06
3.35762e-06
4.72483e-06
2.11805e-05
8.26709e-06
3.89614e-06
3.17705e-06
3.91992e-06
5.21767e-06
6.50704e-06
7.67575e-06
8.65351e-06
9.54204e-06
1.03653e-05
1.1412e-05
1.25825e-05
1.60227e-05
5.77201e-08
1.11271e-08
2.30739e-09
7.72943e-10
5.11422e-10
5.27672e-10
6.50645e-10
7.65537e-10
8.13293e-10
7.27982e-10
5.47221e-10
6.97844e-10
3.37069e-09
2.06156e-08
5.20209e-08
1.0746e-08
1.92586e-09
3.12404e-10
6.06108e-11
3.26055e-11
4.30874e-11
6.01073e-11
7.42649e-11
7.81032e-11
9.60896e-11
4.03192e-10
2.86051e-09
1.80493e-08
8.02418e-08
1.804e-08
3.49121e-09
5.82155e-10
8.78119e-11
1.39686e-11
5.62165e-12
6.14183e-12
7.78586e-12
1.1327e-11
4.29315e-11
3.41512e-10
2.59175e-09
1.64901e-08
1.22064e-07
2.7993e-08
5.53334e-09
9.30081e-10
1.37577e-10
1.87344e-11
4.14634e-12
2.8206e-12
2.98861e-12
5.44886e-12
3.29375e-11
2.90329e-10
2.25742e-09
1.46905e-08
1.70323e-07
3.85169e-08
7.4565e-09
1.21549e-09
1.72545e-10
2.20118e-11
4.35747e-12
2.73139e-12
2.74164e-12
4.6961e-12
2.77666e-11
2.48316e-10
1.9745e-09
1.3185e-08
2.25727e-07
4.92008e-08
9.03827e-09
1.3866e-09
1.84624e-10
2.26903e-11
5.15229e-12
3.6499e-12
3.59887e-12
5.07825e-12
2.39965e-11
2.0968e-10
1.7022e-09
1.16824e-08
2.95553e-07
6.16728e-08
1.063e-08
1.52055e-09
1.91361e-10
2.8064e-11
1.31756e-11
1.23222e-11
1.21051e-11
1.26576e-11
2.76531e-11
1.82982e-10
1.46274e-09
1.02261e-08
3.80087e-07
7.59224e-08
1.2307e-08
1.66459e-09
2.27822e-10
7.8506e-11
7.65464e-11
8.05217e-11
8.05372e-11
7.7593e-11
8.61683e-11
2.12898e-10
1.29731e-09
8.82221e-09
4.74565e-07
9.11083e-08
1.40924e-08
1.93953e-09
4.70534e-10
4.19739e-10
4.9798e-10
5.40973e-10
5.52335e-10
5.38858e-10
5.29295e-10
6.32906e-10
1.64477e-09
8.6639e-09
5.80842e-07
1.0817e-07
1.66636e-08
3.01274e-09
1.87421e-09
2.38754e-09
2.93052e-09
3.24039e-09
3.37019e-09
3.36029e-09
3.30212e-09
3.39953e-09
4.68208e-09
1.33854e-08
6.97201e-07
1.31177e-07
2.30748e-08
8.03187e-09
8.96797e-09
1.23147e-08
1.52386e-08
1.71021e-08
1.80902e-08
1.84189e-08
1.8378e-08
1.87009e-08
2.13928e-08
3.93172e-08
8.94548e-07
1.93206e-07
4.88499e-08
3.0804e-08
4.07846e-08
5.65648e-08
7.01965e-08
7.97599e-08
8.5608e-08
8.87628e-08
9.00591e-08
9.25516e-08
1.00211e-07
1.49184e-07
1.46151e-06
4.19397e-07
1.54535e-07
1.24624e-07
1.67787e-07
2.31326e-07
2.87593e-07
3.30598e-07
3.59817e-07
3.7944e-07
3.91555e-07
4.08259e-07
4.32468e-07
5.64379e-07
3.42247e-06
1.22999e-06
5.61306e-07
4.78879e-07
6.24009e-07
8.47467e-07
1.05301e-06
1.22108e-06
1.34501e-06
1.44009e-06