/*--------------------------------*- C++ -*----------------------------------*\
| =========                 |                                                 |
| \\      /  F ield         | OpenFOAM: The Open Source CFD Toolbox           |
|  \\    /   O peration     | Version:  v2106                                 |
|   \\  /    A nd           | Website:  www.openfoam.com                      |
|    \\/     M anipulation  |                                                 |
\*---------------------------------------------------------------------------*/
FoamFile
{
    version     2.0;
    format      ascii;
    arch        "LSB;label=32;scalar=64";
    class       volScalarField;
    location    "0.000135";
    object      p;
}
// * * * * * * * * * * * * * * * * * * * * * * * * * * * * * * * * * * * * * //

dimensions      [1 -1 -2 0 0 0 0];

internalField   nonuniform List<scalar> 
18109
(
232105
231319
231108
230749
230645
230609
230802
232253
231517
231250
230917
230806
230743
230846
232183
231618
231300
231018
230886
230815
230854
231908
231509
231201
230979
230865
230814
230841
231607
231272
231027
230842
230762
230740
230784
231180
230965
230828
230702
230670
230668
230718
230724
230600
230550
230457
230474
230515
230594
230248
230237
230291
230255
230316
230374
230457
233568
232874
232631
232282
232155
232088
232193
232312
232554
232757
233015
233274
233431
233779
233578
232948
232687
232386
232257
232170
232198
232278
232455
232620
232815
232996
233097
233294
233441
232970
232678
232420
232284
232200
232199
232236
232339
232476
232646
232816
232922
233164
233186
232831
232554
232351
232231
232166
232172
232212
232306
232420
232566
232717
232795
232979
232904
232610
232393
232233
232157
232124
232141
232180
232262
232367
232503
232662
232759
232942
232536
232344
232212
232105
232070
232058
232087
232137
232226
232337
232470
232641
232777
232961
232153
232034
231979
231912
231922
231946
232000
232070
232176
232304
232457
232654
232844
233058
231778
231760
231785
231763
231806
231844
231905
231989
232107
232252
232430
232645
232878
233108
231394
231449
231529
231576
231642
231704
231772
231870
231997
232163
232368
232611
232868
233160
231162
231299
231422
231488
231542
231598
231649
231738
231858
232031
232254
232525
232828
233163
230933
231109
231286
231389
231447
231497
231527
231597
231703
231883
232125
232428
232768
233161
230953
231127
231309
231397
231412
231443
231449
231492
231569
231735
231959
232275
232618
233093
230953
231150
231384
231471
231454
231439
231404
231407
231437
231585
231783
232130
232434
232972
231298
231576
231683
231672
231608
231524
231438
231397
231339
231455
231611
231947
232179
232779
231741
232255
232177
232283
232093
231913
233335
233846
233893
234124
234161
234189
232639
232817
232672
232560
232224
231710
232324
232239
231861
231429
230723
229786
232047
231825
231361
230793
229943
228869
231966
231698
231240
230671
229793
228762
231947
231741
231403
230919
230188
229399
232175
232117
231957
231720
231387
231023
232358
232444
232527
232600
232657
232690
232697
232933
233231
233586
233995
234406
233001
233381
233865
234452
235117
235783
233325
233814
234402
235122
235906
236739
233613
234143
234742
235523
236355
237286
233731
234273
234851
235606
236346
237257
233921
234500
234924
235542
236036
236679
233836
234455
234677
235092
235397
235779
233293
233632
233852
234116
234293
234397
233126
233264
233314
233356
233250
232944
232989
233049
233025
232876
232520
231869
232992
233012
232909
232638
232130
231244
233081
233114
233014
232730
232191
231495
233277
233428
233488
233324
232854
232231
233398
233618
233768
233798
233625
233353
233520
233864
234156
234383
234498
234541
233543
233967
234387
234828
235245
235610
233562
234023
234522
235067
235656
236241
233459
233907
234395
234990
235624
236364
233190
233613
234038
234599
235140
235885
232962
233351
233608
233987
234311
234784
232552
232955
232988
233190
233293
233463
231924
232086
232062
232099
232028
231899
231657
231605
231420
231230
230919
230471
231402
231261
231038
230750
230335
229696
231299
231147
230933
230642
230243
229565
231245
231147
231046
230888
230625
230044
231421
231499
231548
231555
231439
231210
231525
231741
231944
232212
232404
232505
231684
232029
232391
232913
233402
233887
231841
232290
232784
233489
234211
234990
231921
232416
232973
233762
234597
235571
231865
232337
232855
233614
234391
235411
231684
232085
232465
233059
233601
234416
231301
231585
231705
231973
232230
232644
232429
233277
234177
235346
236498
237764
232648
233499
234327
235447
236495
237805
232598
233376
234059
234978
235733
236762
232264
232858
233111
233567
233972
234521
230895
231125
230996
230976
230833
230712
230537
230377
229985
229629
229076
228453
230489
230148
229569
228940
228003
227136
230562
230119
229475
228775
227621
226664
230875
230457
229879
229169
228153
227129
231261
231016
230617
230095
229441
228797
231744
231709
231612
231468
231260
230959
232264
232477
232680
232903
233121
233269
232774
233205
233703
234293
234908
235476
233301
233931
234632
235475
236338
237189
233632
234338
235110
236094
237085
238173
233884
234625
235367
236354
237292
238447
233895
234587
235241
236124
236890
237892
233774
234362
234643
235112
235525
236122
234236
234641
236226
239274
243904
230757
229271
228737
230937
236628
228150
225577
223695
224665
229970
226775
223658
221404
222179
226315
226765
223980
222036
222452
225360
228152
226354
225332
226340
229132
230442
229614
229455
231019
234537
232738
232850
233352
234750
237586
241777
235008
235882
236980
238653
240998
243659
236786
238213
239772
242017
244318
246037
238053
240020
241947
244761
247760
250680
255540
238814
241034
243277
246017
249695
252412
257796
261289
238776
241020
243418
246319
249538
254910
259276
279837
237847
239734
241971
244705
248345
252370
256515
257441
236383
237431
239109
241367
244936
249964
254313
253709
234353
234197
234094
235882
239209
244061
250786
257189
232067
230636
228739
228636
230923
237479
247556
254454
230539
228134
225399
224393
225771
231002
240080
253262
229773
226915
224151
223068
224380
228581
233164
237010
229864
227589
225432
224839
226398
230587
234558
239801
230990
229598
228347
228877
231687
237818
244081
245842
232715
232042
231767
233091
235726
239771
245413
258859
234525
234702
235378
237425
239910
243114
236163
237094
238619
241289
244189
246886
237257
238885
241001
244006
247476
249705
237675
239744
242243
245338
249400
253027
237168
239285
241965
245462
249347
254594
235697
237404
239935
243119
247226
233829
234843
236579
239302
243281
231708
231444
231731
233863
237418
229650
228262
226972
227348
230226
228670
226503
224394
223850
225891
228330
225853
223649
222938
224532
229040
227191
225522
225061
226623
230766
229649
228592
228865
231388
232493
232236
231899
232453
234832
234429
235081
235591
236529
238626
236060
237445
238752
240596
242741
237056
239127
241162
243576
246485
236998
239461
242111
245368
248905
235732
238095
240955
244714
248867
233326
235105
237461
241486
246583
230588
231008
233015
236296
241134
227194
225829
225703
228170
234040
225091
222831
221184
222849
228377
224251
221537
219754
221242
225646
225248
222717
221231
222205
225243
227636
225882
225184
226550
229286
230446
229740
229808
231500
234860
233420
233617
234190
235544
238257
236205
237162
238190
239544
241482
238365
239897
241303
242976
244428
239731
241826
243604
245858
247707
240158
242567
244774
247310
250494
239322
241477
243898
246987
250443
237000
238647
240708
244166
248919
235426
234892
234651
234330
234169
234059
234056
234113
234262
234392
234606
234842
235059
235425
235274
234809
234547
234283
234137
234030
234002
234004
234091
234234
234426
234622
234821
235056
235130
234771
234502
234270
234120
234007
233964
233958
234009
234115
234278
234466
234659
234933
234897
234607
234366
234172
234036
233943
233910
233907
233958
234059
234210
234387
234562
234796
234660
234415
234215
234063
233962
233896
233871
233871
233922
234021
234167
234350
234528
234773
234387
234212
234069
233955
233883
233839
233826
233836
233898
234006
234155
234351
234548
234794
234091
233975
233884
233812
233775
233759
233763
233792
233873
233996
234162
234384
234621
234881
233841
233791
233747
233708
233692
233692
233704
233751
233849
233989
234171
234405
234675
234939
233605
233599
233601
233596
233599
233613
233632
233692
233800
233955
234160
234411
234717
235011
233471
233512
233530
233535
233538
233558
233580
233643
233753
233915
234136
234399
234723
235057
233373
233444
233495
233508
233507
233523
233536
233588
233694
233862
234098
234384
234735
235111
233457
233510
233558
233555
233535
233538
233538
233570
233662
233819
234042
234338
234687
235112
233527
233585
233662
233668
233622
233592
233570
233563
233629
233772
233979
234298
234626
235081
233869
233943
233934
233872
233788
233710
233666
233605
233627
233740
233901
234223
234493
235020
237241
236903
236699
236463
236301
236159
236087
236052
236073
236113
236217
236352
236536
236807
236999
236762
236543
236341
236187
236051
235967
235909
235890
235936
236046
236176
236362
236557
236826
236613
236417
236238
236085
235949
235861
235806
235793
235816
235908
236044
236234
236467
236628
236450
236272
236110
235963
235840
235756
235707
235699
235729
235826
235968
236152
236376
236415
236259
236107
235967
235842
235739
235668
235628
235628
235668
235774
235931
236116
236363
236219
236096
235970
235849
235739
235652
235591
235562
235573
235635
235753
235923
236120
236370
236001
235910
235813
235714
235625
235559
235514
235497
235529
235616
235752
235945
236175
236435
235844
235776
235701
235617
235543
235493
235460
235458
235506
235619
235774
235981
236229
236497
235710
235658
235609
235538
235476
235437
235409
235423
235493
235617
235792
236017
236303
236599
235648
235595
235560
235496
235440
235411
235391
235416
235501
235632
235826
236065
236372
236687
235664
235611
235582
235515
235454
235422
235400
235425
235510
235646
235856
236115
236448
236792
235783
235705
235667
235588
235515
235474
235447
235464
235547
235683
235893
236153
236483
236851
235904
235833
235802
235716
235622
235561
235521
235516
235585
235718
235919
236203
236540
236936
236183
236089
236014
235888
235773
235689
235637
235598
235648
235769
235939
236234
236518
236951
238228
238099
238017
237909
237827
237737
237673
237609
237576
237562
237570
237587
237645
237729
238109
238026
237923
237813
237716
237616
237540
237469
237426
237401
237406
237416
237475
237531
237991
237905
237808
237705
237606
237503
237419
237340
237292
237259
237257
237276
237342
237440
237896
237812
237710
237604
237498
237393
237304
237225
237178
237149
237149
237176
237246
237353
237760
237681
237585
237482
237380
237280
237194
237122
237080
237059
237067
237112
237190
237322
237644
237570
237481
237384
237285
237191
237108
237045
237010
236998
237021
237087
237173
237305
237520
237453
237371
237278
237186
237101
237029
236979
236956
236960
237000
237088
237200
237354
237437
237371
237294
237205
237117
237041
236977
236940
236924
236948
237014
237119
237251
237408
237364
237301
237229
237143
237059
236991
236936
236911
236914
236958
237040
237159
237326
237508
237345
237276
237202
237116
237032
236971
236923
236906
236924
236986
237084
237219
237411
237610
237362
237290
237211
237124
237037
236977
236930
236916
236943
237020
237140
237295
237515
237733
237431
237339
237251
237158
237065
237003
236955
236947
236983
237068
237205
237371
237607
237838
237517
237425
237323
237224
237116
237047
236992
236985
237026
237119
237265
237454
237710
237976
237663
237537
237418
237306
237186
237111
237047
237036
237075
237172
237318
237522
237762
238046
238356
238336
238339
238323
238323
238312
238319
238315
238329
238346
238370
238383
238413
238437
238340
238331
238323
238301
238288
238272
238270
238265
238275
238279
238293
238299
238320
238334
238313
238297
238283
238263
238254
238237
238228
238215
238213
238207
238213
238221
238235
238280
238307
238288
238269
238247
238230
238207
238189
238170
238162
238153
238153
238164
238177
238226
238282
238265
238247
238223
238199
238171
238148
238127
238115
238107
238106
238122
238140
238201
238266
238252
238234
238207
238179
238147
238120
238097
238083
238078
238079
238104
238128
238194
238252
238239
238220
238193
238163
238131
238104
238083
238070
238069
238079
238115
238154
238225
238258
238245
238223
238195
238162
238131
238103
238085
238077
238084
238101
238144
238194
238270
238269
238255
238229
238200
238166
238135
238109
238095
238093
238110
238137
238188
238261
238343
238306
238288
238257
238226
238187
238157
238131
238120
238123
238150
238188
238248
238340
238432
238348
238329
238292
238258
238216
238186
238161
238154
238165
238198
238250
238321
238438
238546
238415
238388
238342
238303
238257
238227
238201
238199
238215
238256
238319
238407
238542
238666
238484
238455
238398
238355
238303
238271
238245
238247
238269
238320
238398
238506
238652
238795
238572
238528
238461
238414
238357
238321
238295
238299
238327
238385
238472
238588
238738
238906
238082
238147
238206
238250
238293
238326
238363
238394
238431
238465
238502
238535
238568
238608
238154
238194
238242
238271
238305
238333
238364
238392
238426
238456
238490
238520
238548
238590
238195
238223
238261
238285
238314
238338
238366
238390
238419
238446
238477
238510
238536
238589
238230
238254
238284
238304
238329
238349
238374
238396
238423
238450
238479
238514
238538
238590
238257
238281
238307
238326
238347
238364
238386
238407
238432
238458
238487
238524
238552
238608
238291
238316
238339
238356
238374
238389
238408
238429
238453
238481
238510
238551
238583
238637
238329
238354
238374
238390
238405
238420
238438
238458
238483
238513
238544
238589
238628
238684
238377
238402
238420
238434
238447
238461
238477
238498
238524
238557
238591
238638
238685
238741
238427
238453
238467
238481
238492
238505
238521
238544
238571
238608
238648
238697
238756
238811
238490
238514
238524
238537
238545
238558
238574
238598
238627
238667
238714
238766
238837
238896
238552
238574
238581
238592
238599
238612
238629
238655
238688
238732
238787
238845
238924
238991
238627
238647
238648
238657
238662
238674
238691
238718
238754
238802
238861
238932
239015
239098
238701
238716
238714
238721
238724
238737
238755
238785
238826
238879
238949
239025
239119
239209
238784
238801
238794
238797
238797
238809
238826
238857
238898
238956
239027
239113
239207
239331
237435
237510
237586
237658
237728
237797
237864
237929
237994
238054
238112
238165
238211
238262
237541
237593
237663
237731
237797
237862
237926
237988
238050
238108
238163
238214
238253
238301
237629
237676
237745
237807
237869
237928
237988
238045
238103
238158
238210
238259
238295
238346
237712
237762
237825
237880
237937
237993
238051
238106
238162
238214
238263
238312
238346
238395
237797
237848
237903
237954
238007
238060
238114
238167
238219
238270
238316
238366
238402
238450
237886
237935
237985
238032
238081
238131
238182
238232
238283
238332
238377
238427
238465
238512
237974
238020
238066
238110
238156
238202
238251
238299
238347
238395
238440
238490
238531
238577
238066
238110
238151
238192
238235
238278
238324
238370
238417
238465
238510
238560
238606
238649
238153
238197
238233
238272
238312
238354
238398
238443
238489
238537
238584
238633
238686
238728
238245
238287
238319
238356
238393
238433
238475
238520
238566
238615
238665
238715
238773
238817
238332
238373
238401
238436
238472
238511
238553
238599
238647
238697
238751
238804
238864
238911
238425
238465
238490
238523
238556
238595
238636
238682
238730
238783
238839
238897
238962
239018
238511
238551
238574
238606
238638
238677
238720
238768
238819
238878
238937
239001
239070
239131
238612
238649
238669
238698
238729
238768
238810
238860
238912
238971
239033
239102
239173
239258
236708
236774
236847
236922
236995
237071
237144
237215
237285
237352
237416
237476
237528
237589
236836
236881
236953
237025
237098
237170
237242
237311
237378
237442
237502
237559
237604
237657
236951
236996
237066
237134
237203
237270
237338
237401
237463
237522
237578
237631
237672
237725
237061
237108
237175
237238
237304
237367
237432
237492
237552
237607
237659
237710
237749
237798
237166
237218
237281
237340
237403
237462
237523
237580
237636
237689
237738
237787
237825
237872
237275
237328
237386
237442
237501
237558
237616
237671
237725
237775
237822
237870
237909
237953
237381
237433
237488
237543
237598
237653
237708
237761
237812
237861
237907
237954
237994
238036
237489
237541
237592
237644
237697
237750
237803
237854
237904
237952
237998
238044
238087
238126
237592
237644
237692
237743
237794
237846
237898
237948
237997
238044
238091
238136
238182
238217
237696
237750
237794
237845
237894
237945
237995
238045
238094
238142
238191
238235
238286
238319
237795
237850
237891
237941
237990
238041
238092
238144
238194
238244
238294
238340
238391
238424
237897
237952
237991
238041
238090
238142
238193
238245
238297
238349
238400
238450
238503
238538
237992
238045
238084
238134
238184
238238
238292
238348
238404
238461
238514
238568
238621
238660
238099
238146
238186
238235
238285
238340
238396
238454
238511
238571
238626
238684
238740
238794
235959
235997
236039
236089
236140
236196
236253
236311
236370
236428
236486
236542
236594
236654
236082
236105
236149
236196
236248
236301
236358
236414
236472
236529
236585
236638
236685
236738
236194
236218
236264
236308
236358
236408
236462
236515
236570
236622
236674
236724
236766
236817
236305
236332
236375
236419
236466
236514
236567
236619
236671
236721
236770
236818
236856
236903
236411
236443
236485
236528
236574
236620
236671
236720
236769
236817
236863
236908
236944
236988
236521
236555
236595
236636
236681
236726
236775
236822
236870
236916
236960
237003
237039
237079
236628
236663
236702
236743
236786
236831
236878
236924
236970
237014
237056
237098
237133
237169
236736
236772
236809
236850
236892
236937
236982
237027
237072
237116
237157
237197
237233
237265
236841
236878
236914
236955
236997
237041
237086
237131
237175
237217
237258
237297
237334
237362
236948
236987
237022
237063
237104
237148
237193
237237
237281
237323
237365
237402
237442
237466
237051
237092
237125
237167
237209
237254
237299
237344
237389
237431
237473
237510
237551
237570
237157
237201
237233
237275
237318
237364
237409
237454
237499
237542
237585
237624
237665
237684
237258
237299
237334
237378
237424
237470
237518
237566
237612
237658
237701
237742
237782
237802
237367
237405
237445
237488
237536
237583
237631
237680
237726
237774
237817
237860
237901
237934
235251
235258
235270
235291
235316
235344
235376
235410
235447
235486
235528
235570
235611
235658
235352
235350
235363
235382
235406
235433
235464
235497
235534
235572
235613
235653
235691
235734
235446
235441
235456
235475
235498
235524
235554
235585
235619
235654
235692
235729
235763
235805
235540
235537
235551
235569
235592
235617
235645
235675
235708
235741
235777
235812
235844
235883
235630
235631
235644
235663
235685
235710
235737
235766
235797
235828
235861
235894
235924
235959
235722
235727
235740
235759
235780
235804
235830
235858
235888
235919
235950
235981
236010
236041
235812
235821
235835
235853
235874
235898
235924
235952
235981
236010
236040
236069
236096
236125
235905
235917
235931
235949
235970
235994
236020
236048
236076
236105
236134
236162
236189
236213
235997
236011
236026
236046
236067
236091
236118
236145
236173
236202
236230
236256
236283
236304
236092
236108
236123
236144
236166
236191
236217
236245
236273
236302
236330
236356
236383
236400
236185
236204
236220
236242
236266
236291
236319
236346
236375
236403
236431
236456
236484
236496
236282
236304
236321
236343
236368
236395
236422
236450
236480
236508
236537
236562
236591
236599
236375
236397
236418
236442
236469
236497
236527
236556
236586
236615
236643
236669
236695
236704
236479
236499
236522
236547
236575
236604
236633
236664
236693
236723
236750
236778
236803
236823
234610
234596
234591
234589
234592
234597
234606
234619
234636
234655
234677
234700
234725
234753
234684
234667
234661
234658
234659
234663
234672
234684
234700
234719
234740
234763
234785
234813
234752
234734
234729
234726
234727
234731
234738
234749
234764
234780
234800
234821
234841
234868
234822
234805
234799
234796
234796
234799
234806
234816
234830
234846
234864
234884
234902
234927
234889
234875
234869
234866
234866
234869
234876
234885
234897
234912
234928
234947
234964
234987
234958
234946
234940
234937
234938
234941
234947
234956
234967
234981
234997
235013
235030
235050
235026
235018
235012
235010
235010
235014
235020
235029
235040
235053
235067
235083
235099
235116
235097
235091
235086
235085
235086
235089
235096
235105
235116
235128
235142
235156
235171
235186
235167
235165
235161
235161
235163
235167
235174
235183
235194
235206
235219
235232
235247
235259
235241
235242
235239
235240
235242
235247
235255
235264
235275
235287
235300
235312
235327
235337
235316
235320
235317
235320
235324
235330
235338
235347
235359
235370
235383
235394
235409
235415
235395
235400
235399
235403
235408
235415
235423
235433
235444
235456
235469
235481
235497
235497
235473
235479
235482
235487
235494
235501
235510
235520
235531
235542
235555
235566
235580
235580
235563
235566
235569
235574
235581
235589
235599
235609
235620
235631
235642
235654
235667
235676
234005
233981
233966
233952
233942
233934
233928
233927
233927
233931
233936
233944
233953
233964
234056
234030
234015
234000
233989
233980
233974
233972
233972
233975
233980
233988
233995
234009
234101
234077
234061
234047
234036
234027
234020
234018
234017
234019
234023
234029
234036
234050
234147
234124
234109
234094
234083
234074
234067
234064
234063
234064
234068
234073
234079
234091
234192
234171
234156
234142
234131
234122
234115
234112
234110
234111
234113
234118
234123
234132
234239
234220
234205
234191
234180
234172
234165
234161
234159
234159
234161
234164
234169
234177
234285
234269
234254
234242
234232
234223
234217
234213
234210
234210
234211
234214
234218
234223
234334
234320
234306
234294
234285
234277
234271
234267
234264
234263
234263
234265
234269
234273
234384
234372
234359
234349
234340
234332
234327
234323
234320
234318
234319
234320
234323
234324
234436
234427
234415
234405
234397
234390
234385
234381
234378
234376
234377
234377
234379
234379
234490
234483
234472
234463
234456
234450
234445
234441
234438
234436
234436
234435
234437
234435
234548
234541
234530
234523
234516
234510
234506
234502
234500
234497
234496
234495
234497
234495
234606
234600
234591
234585
234578
234573
234568
234564
234561
234558
234557
234555
234556
234552
234673
234663
234653
234647
234641
234636
234632
234627
234624
234621
234619
234618
234618
234619
233379
233355
233338
233320
233305
233290
233277
233266
233256
233249
233242
233238
233233
233235
233410
233386
233369
233351
233336
233321
233308
233296
233286
233278
233271
233267
233262
233264
233437
233414
233398
233380
233365
233351
233338
233327
233316
233308
233301
233296
233290
233292
233466
233444
233428
233411
233396
233382
233369
233358
233347
233338
233330
233325
233319
233319
233493
233474
233458
233442
233427
233414
233401
233390
233379
233370
233362
233356
233350
233348
233523
233505
233489
233474
233460
233447
233434
233423
233412
233403
233394
233388
233381
233378
233552
233536
233521
233507
233493
233481
233469
233457
233447
233437
233428
233421
233414
233409
233584
233569
233555
233541
233528
233516
233504
233493
233482
233472
233463
233455
233448
233441
233616
233603
233589
233576
233564
233552
233540
233529
233519
233508
233499
233489
233482
233474
233650
233638
233625
233612
233600
233589
233577
233566
233555
233544
233535
233525
233517
233507
233684
233673
233660
233649
233637
233625
233614
233603
233592
233581
233571
233560
233552
233542
233719
233709
233697
233685
233674
233662
233651
233640
233629
233618
233607
233596
233587
233577
233756
233746
233734
233723
233711
233700
233689
233677
233666
233654
233643
233631
233622
233610
233797
233783
233770
233759
233748
233737
233726
233714
233703
233691
233681
233668
233659
233649
232686
232667
232652
232636
232620
232604
232588
232573
232558
232544
232530
232519
232507
232498
232702
232684
232669
232653
232638
232623
232607
232591
232576
232562
232548
232536
232523
232515
232716
232699
232685
232671
232656
232641
232626
232611
232596
232582
232567
232555
232542
232533
232732
232717
232703
232689
232675
232660
232646
232631
232616
232601
232587
232574
232561
232552
232748
232734
232721
232708
232694
232680
232666
232652
232637
232623
232608
232595
232582
232571
232765
232752
232740
232727
232714
232701
232687
232673
232658
232644
232630
232616
232603
232591
232783
232771
232760
232747
232735
232722
232708
232694
232680
232666
232651
232638
232624
232611
232802
232791
232779
232768
232756
232743
232730
232716
232702
232687
232672
232658
232644
232629
232820
232810
232799
232788
232776
232763
232750
232736
232722
232707
232693
232677
232663
232647
232839
232829
232818
232807
232795
232783
232770
232756
232741
232726
232711
232696
232681
232664
232857
232848
232837
232825
232814
232801
232788
232774
232759
232744
232729
232713
232698
232680
232875
232865
232854
232843
232831
232818
232805
232791
232776
232760
232745
232728
232713
232696
232892
232882
232871
232859
232847
232834
232821
232807
232792
232777
232761
232744
232728
232710
232909
232898
232886
232874
232862
232849
232836
232822
232808
232793
232778
232761
232745
232727
231915
231903
231892
231880
231867
231853
231839
231823
231808
231792
231776
231761
231745
231732
231922
231911
231901
231889
231877
231864
231849
231834
231818
231802
231785
231770
231754
231741
231929
231919
231909
231899
231887
231874
231860
231846
231830
231815
231798
231783
231767
231753
231937
231929
231919
231909
231898
231886
231872
231858
231843
231827
231811
231795
231779
231765
231946
231938
231930
231920
231909
231897
231885
231871
231856
231841
231825
231809
231792
231777
231956
231949
231940
231931
231921
231909
231897
231883
231869
231853
231837
231821
231805
231789
231965
231958
231951
231942
231931
231920
231908
231895
231880
231865
231849
231833
231816
231800
231975
231968
231960
231951
231941
231930
231918
231905
231891
231876
231860
231843
231826
231809
231983
231976
231968
231959
231950
231938
231926
231913
231899
231884
231868
231852
231834
231817
231990
231983
231976
231967
231957
231945
231933
231920
231906
231891
231875
231858
231841
231823
231997
231989
231981
231972
231962
231951
231939
231925
231911
231896
231880
231863
231846
231827
232002
231994
231986
231976
231966
231955
231942
231929
231915
231899
231884
231867
231849
231830
232005
231997
231989
231979
231968
231957
231944
231931
231917
231902
231886
231868
231851
231832
232007
231998
231989
231979
231969
231957
231945
231932
231919
231904
231888
231872
231854
231836
231104
231098
231092
231084
231075
231066
231055
231043
231030
231016
231002
230987
230972
230958
231108
231103
231097
231090
231082
231072
231061
231049
231037
231022
231008
230993
230978
230963
231112
231108
231103
231096
231088
231079
231068
231057
231044
231031
231016
231001
230986
230972
231118
231114
231109
231102
231094
231085
231075
231064
231052
231038
231024
231009
230994
230979
231123
231119
231114
231108
231100
231091
231082
231071
231059
231045
231031
231016
231001
230985
231127
231124
231119
231113
231105
231096
231087
231076
231064
231051
231037
231022
231007
230991
231131
231127
231123
231116
231109
231100
231091
231080
231068
231056
231042
231027
231011
230995
231133
231130
231125
231119
231111
231103
231093
231083
231071
231059
231045
231030
231015
230998
231135
231131
231126
231120
231112
231104
231094
231084
231072
231060
231046
231032
231016
231000
231135
231131
231126
231120
231112
231104
231094
231084
231072
231060
231046
231032
231016
231000
231134
231130
231125
231118
231111
231102
231093
231082
231071
231058
231045
231031
231015
230999
231132
231127
231122
231115
231108
231099
231090
231079
231068
231056
231042
231028
231013
230997
231129
231124
231118
231112
231104
231095
231086
231075
231063
231051
231038
231024
231009
230993
231124
231118
231112
231105
231098
231089
231080
231069
231058
231047
231034
231021
231006
230990
230315
230314
230311
230308
230303
230297
230291
230283
230274
230264
230254
230243
230230
230218
230320
230319
230316
230313
230308
230303
230296
230288
230279
230269
230258
230247
230235
230222
230323
230322
230320
230317
230313
230307
230300
230293
230284
230274
230264
230252
230240
230227
230327
230326
230324
230321
230316
230311
230304
230296
230288
230278
230268
230256
230244
230231
230329
230328
230326
230323
230319
230313
230307
230299
230291
230281
230270
230259
230247
230234
230331
230330
230328
230325
230320
230315
230308
230301
230292
230283
230272
230261
230249
230236
230332
230331
230328
230325
230320
230315
230308
230301
230292
230283
230273
230261
230249
230236
230331
230330
230328
230324
230319
230314
230307
230300
230292
230282
230272
230261
230249
230236
230329
230328
230326
230322
230318
230312
230306
230298
230290
230281
230271
230260
230248
230236
230327
230325
230323
230319
230315
230309
230303
230296
230288
230278
230268
230258
230246
230234
230323
230322
230319
230315
230311
230306
230299
230292
230284
230275
230265
230254
230243
230231
230319
230317
230314
230310
230306
230301
230294
230287
230279
230270
230260
230250
230239
230228
230313
230311
230308
230305
230300
230295
230288
230281
230273
230264
230254
230244
230233
230222
230306
230303
230300
230297
230292
230287
230281
230274
230266
230258
230249
230239
230228
230218
229592
229589
229586
229581
229576
229570
229563
229555
229546
229537
229598
229599
229599
229598
229596
229593
229590
229585
229580
229573
229566
229558
229549
229540
229601
229602
229602
229601
229599
229597
229593
229588
229583
229576
229569
229561
229552
229543
229603
229604
229604
229603
229602
229599
229595
229591
229585
229579
229571
229563
229555
229545
229605
229606
229606
229605
229603
229600
229596
229592
229586
229580
229573
229565
229556
229546
229606
229607
229607
229605
229604
229601
229597
229592
229587
229580
229573
229565
229556