/*--------------------------------*- C++ -*----------------------------------*\
| =========                 |                                                 |
| \\      /  F ield         | OpenFOAM: The Open Source CFD Toolbox           |
|  \\    /   O peration     | Version:  v2106                                 |
|   \\  /    A nd           | Website:  www.openfoam.com                      |
|    \\/     M anipulation  |                                                 |
\*---------------------------------------------------------------------------*/
FoamFile
{
    version     2.0;
    format      ascii;
    arch        "LSB;label=32;scalar=64";
    class       volScalarField;
    location    "0.000135";
    object      T;
}
// * * * * * * * * * * * * * * * * * * * * * * * * * * * * * * * * * * * * * //

dimensions      [0 0 0 1 0 0 0];

internalField   nonuniform List<scalar> 
18109
(
304.715
304.412
304.361
304.222
304.161
304.137
304.202
304.755
304.454
304.353
304.224
304.177
304.152
304.189
304.714
304.479
304.35
304.24
304.191
304.164
304.179
304.597
304.432
304.306
304.22
304.178
304.16
304.171
304.483
304.34
304.238
304.166
304.137
304.131
304.149
304.333
304.232
304.167
304.114
304.104
304.106
304.127
304.177
304.106
304.068
304.025
304.032
304.049
304.081
304.013
303.978
303.977
303.955
303.974
303.995
304.028
305.242
304.984
304.889
304.752
304.698
304.669
304.705
304.742
304.825
304.895
304.988
305.085
305.144
305.28
305.228
304.984
304.885
304.767
304.715
304.68
304.689
304.715
304.778
304.839
304.912
304.981
305.02
305.1
305.163
304.979
304.868
304.769
304.717
304.685
304.683
304.695
304.733
304.785
304.85
304.915
304.958
305.056
305.062
304.92
304.812
304.738
304.695
304.671
304.673
304.689
304.725
304.768
304.822
304.878
304.906
304.982
304.959
304.837
304.75
304.692
304.666
304.656
304.664
304.68
304.711
304.75
304.8
304.857
304.889
304.965
304.829
304.742
304.686
304.645
304.635
304.633
304.646
304.666
304.7
304.74
304.788
304.849
304.897
304.97
304.697
304.634
304.603
304.574
304.58
304.592
304.614
304.642
304.682
304.728
304.783
304.854
304.922
305.002
304.566
304.538
304.535
304.521
304.536
304.552
304.577
304.61
304.655
304.708
304.773
304.851
304.935
305.019
304.432
304.425
304.439
304.45
304.473
304.497
304.525
304.563
304.612
304.673
304.749
304.838
304.931
305.038
304.354
304.369
304.397
304.415
304.434
304.454
304.475
304.51
304.557
304.622
304.705
304.805
304.917
305.039
304.273
304.298
304.344
304.376
304.396
304.414
304.426
304.454
304.497
304.566
304.657
304.77
304.895
305.04
304.279
304.303
304.351
304.378
304.382
304.393
304.397
304.414
304.446
304.511
304.597
304.715
304.843
305.02
304.271
304.309
304.38
304.406
304.397
304.392
304.383
304.388
304.401
304.459
304.536
304.667
304.781
304.983
304.402
304.482
304.506
304.491
304.458
304.427
304.401
304.393
304.374
304.419
304.48
304.609
304.698
304.924
304.58
304.761
304.631
304.322
303.577
302.498
305.166
305.377
305.417
305.461
305.321
304.955
304.924
305.016
304.96
304.817
304.399
303.581
304.805
304.825
304.689
304.402
303.753
302.628
304.701
304.681
304.529
304.203
303.519
302.413
304.668
304.63
304.489
304.188
303.547
302.571
304.657
304.638
304.548
304.32
303.838
303.148
304.736
304.762
304.745
304.658
304.446
304.118
304.789
304.863
304.94
304.996
305.014
304.985
304.898
305.018
305.17
305.346
305.538
305.731
304.998
305.161
305.372
305.629
305.923
306.234
305.111
305.306
305.546
305.842
306.169
306.532
305.216
305.423
305.661
305.973
306.313
306.698
305.26
305.47
305.702
306.007
306.312
306.681
305.336
305.56
305.735
305.998
306.219
306.47
305.315
305.567
305.686
305.872
306.006
306.112
305.114
305.271
305.399
305.526
305.582
305.543
305.05
305.133
305.196
305.242
305.202
304.961
305.003
305.052
305.079
305.069
304.953
304.576
305.005
305.033
305.033
304.984
304.819
304.388
305.035
305.071
305.071
305.016
304.84
304.524
305.097
305.186
305.241
305.221
305.092
304.877
305.133
305.236
305.332
305.384
305.37
305.338
305.173
305.31
305.443
305.573
305.686
305.782
305.18
305.341
305.511
305.708
305.919
306.126
305.189
305.364
305.56
305.785
306.039
306.301
305.157
305.328
305.519
305.758
306.018
306.322
305.066
305.229
305.4
305.625
305.845
306.137
304.989
305.145
305.264
305.425
305.561
305.724
304.845
305.018
305.068
305.156
305.184
305.198
304.625
304.705
304.729
304.757
304.703
304.533
304.52
304.53
304.492
304.442
304.29
303.921
304.42
304.399
304.351
304.268
304.077
303.638
304.378
304.352
304.311
304.23
304.054
303.631
304.356
304.35
304.35
304.32
304.213
303.885
304.417
304.474
304.529
304.566
304.539
304.415
304.447
304.551
304.66
304.802
304.913
304.971
304.498
304.647
304.811
305.045
305.28
305.535
304.559
304.748
304.958
305.255
305.571
305.934
304.603
304.812
305.047
305.372
305.718
306.122
304.598
304.799
305.022
305.337
305.657
306.053
304.549
304.728
304.904
305.152
305.357
305.593
304.418
304.548
304.612
304.679
304.666
304.596
304.817
305.169
305.539
306.003
306.458
306.964
304.921
305.271
305.614
306.057
306.457
306.914
304.929
305.253
305.537
305.879
306.089
306.235
304.82
305.063
305.131
305.174
305.009
304.644
304.265
304.353
304.267
304.125
303.793
303.242
304.15
304.092
303.864
303.497
302.832
301.844
304.146
304.032
303.731
303.235
302.34
301.173
304.176
304.029
303.713
303.208
302.269
301.134
304.29
304.162
303.89
303.42
302.618
301.618
304.422
304.369
304.205
303.883
303.361
302.719
304.589
304.618
304.599
304.499
304.284
303.962
304.77
304.89
304.999
305.087
305.135
305.138
304.945
305.141
305.362
305.611
305.867
306.125
305.129
305.392
305.686
306.034
306.401
306.796
305.247
305.535
305.853
306.255
306.667
307.133
305.346
305.646
305.955
306.359
306.751
307.219
305.357
305.638
305.923
306.299
306.628
306.988
305.315
305.563
305.717
305.917
306.042
306.113
303.463
300.714
297.515
294.256
291.115
301.289
297.505
293.678
290.381
287.262
300.175
296.511
293.069
290.165
287.263
300.116
296.833
294.009
291.812
288.834
300.687
298.179
296.138
294.393
291
301.96
300.413
299.253
298.105
294.588
303.548
302.827
302.343
301.573
298.042
304.917
304.861
304.821
304.195
300.7
291.482
306.042
306.483
306.772
306.513
303.404
293.629
306.764
307.523
308.128
308.378
306.278
297.551
307.163
308.121
309.004
309.691
309.07
303.645
290.826
307.355
308.315
309.251
310.107
310.621
308.538
299.84
279.071
307.285
308.141
308.979
309.83
310.507
311.123
309.085
302.526
306.806
307.204
307.465
307.611
307.899
308.491
309.98
309.965
306.005
305.534
304.683
303.42
302.263
301.451
301.93
302.117
304.935
303.463
301.232
298.76
295.987
293.177
291.152
291.667
303.879
301.76
298.8
295.541
291.715
287.868
284.264
285.383
303.376
301.139
298.246
294.979
290.6
285.098
278.956
276.124
303.317
301.202
298.56
295.547
291.212
284.684
275.363
268.164
303.581
302.02
300.014
297.638
293.71
286.992
276.343
268.688
304.293
303.393
302.163
300.653
297.462
291.438
282.383
272.174
305.124
304.734
304.239
303.572
300.969
294.323
284.496
277.023
305.856
305.983
306.133
306.196
304.298
297.483
306.454
306.981
307.684
308.249
307.349
301.442
306.779
307.563
308.57
309.499
309.672
305.885
306.868
307.731
308.769
309.948
310.869
309.933
306.615
307.369
308.293
309.501
310.594
311.372
305.905
306.147
306.44
306.781
307.323
304.925
304.333
303.437
302.373
301.443
303.789
302.253
300.172
297.946
295.478
302.833
300.81
298.188
295.204
291.739
302.565
300.491
297.967
294.894
290.646
302.605
300.667
298.422
295.599
291.041
303.12
301.73
300.077
297.756
293.151
304.061
303.27
302.221
300.499
296.3
304.945
304.724
304.24
303.058
299.399
305.842
306.131
306.157
305.62
302.755
306.474
307.14
307.56
307.666
305.975
306.739
307.558
308.236
308.625
308.118
306.612
307.361
307.991
308.538
308.628
305.721
305.815
305.7
305.582
305.467
303.859
302.631
300.974
299.309
297.984
301.565
298.809
295.94
292.957
290.112
299.438
295.881
292.495
289.547
286.654
298.664
295.335
292.192
289.624
286.805
298.8
295.862
293.428
291.565
288.533
299.878
297.677
296.019
294.496
290.84
301.674
300.321
299.406
298.245
294.104
303.483
302.937
302.617
301.679
297.297
305.152
305.208
305.243
304.37
299.818
306.525
307.033
307.274
306.659
302.363
307.409
308.174
308.569
308.339
305.098
307.816
308.66
309.122
309.275
307.651
307.862
308.62
309.008
309.114
308.83
307.246
307.351
307.05
306.589
306.122
305.595
304.438
302.642
300.691
299.121
305.901
305.708
305.62
305.5
305.438
305.392
305.384
305.402
305.454
305.501
305.581
305.671
305.754
305.892
305.84
305.669
305.573
305.473
305.415
305.371
305.358
305.357
305.389
305.443
305.516
305.59
305.666
305.755
305.781
305.646
305.546
305.46
305.403
305.361
305.344
305.342
305.361
305.401
305.463
305.533
305.605
305.709
305.692
305.58
305.49
305.42
305.371
305.338
305.326
305.326
305.345
305.383
305.439
305.505
305.568
305.656
305.605
305.509
305.434
305.379
305.344
305.322
305.315
305.315
305.334
305.371
305.424
305.491
305.554
305.646
305.508
305.435
305.38
305.34
305.316
305.302
305.299
305.303
305.326
305.366
305.42
305.491
305.562
305.652
305.405
305.351
305.313
305.287
305.276
305.273
305.276
305.287
305.317
305.362
305.423
305.503
305.589
305.683
305.319
305.288
305.265
305.248
305.244
305.247
305.253
305.271
305.308
305.359
305.426
305.511
305.609
305.704
305.234
305.221
305.213
305.207
305.208
305.215
305.224
305.247
305.288
305.345
305.421
305.513
305.624
305.731
305.185
305.188
305.187
305.184
305.183
305.192
305.202
305.226
305.268
305.329
305.411
305.508
305.627
305.748
305.147
305.162
305.174
305.173
305.171
305.177
305.184
305.204
305.245
305.308
305.396
305.502
305.631
305.769
305.178
305.186
305.197
305.19
305.179
305.181
305.183
305.196
305.231
305.292
305.376
305.486
305.615
305.771
305.209
305.215
305.235
305.23
305.208
305.199
305.194
305.194
305.22
305.276
305.355
305.474
305.595
305.763
305.333
305.35
305.339
305.306
305.27
305.243
305.232
305.212
305.223
305.269
305.332
305.452
305.551
305.746
306.558
306.434
306.36
306.273
306.212
306.158
306.129
306.115
306.123
306.138
306.177
306.229
306.299
306.401
306.468
306.38
306.3
306.226
306.169
306.118
306.086
306.064
306.057
306.075
306.117
306.166
306.236
306.309
306.402
306.324
306.253
306.188
306.133
306.082
306.049
306.029
306.024
306.034
306.068
306.119
306.189
306.275
306.328
306.263
306.199
306.141
306.089
306.044
306.013
305.995
305.992
306.004
306.039
306.091
306.158
306.24
306.248
306.191
306.138
306.089
306.044
306.008
305.982
305.967
305.967
305.981
306.02
306.077
306.145
306.234
306.176
306.131
306.087
306.045
306.006
305.976
305.954
305.943
305.947
305.97
306.013
306.074
306.146
306.236
306.098
306.064
306.029
305.995
305.964
305.941
305.925
305.919
305.93
305.962
306.012
306.082
306.166
306.26
306.044
306.016
305.988
305.958
305.933
305.916
305.904
305.904
305.921
305.963
306.02
306.096
306.186
306.283
305.998
305.974
305.955
305.929
305.907
305.893
305.884
305.89
305.916
305.962
306.027
306.109
306.213
306.32
305.976
305.951
305.937
305.913
305.893
305.883
305.876
305.886
305.918
305.967
306.039
306.127
306.239
306.353
305.982
305.958
305.946
305.92
305.897
305.886
305.878
305.888
305.92
305.971
306.049
306.145
306.267
306.392
306.025
305.994
305.977
305.946
305.918
305.903
305.893
305.9
305.932
305.983
306.061
306.158
306.28
306.414
306.068
306.04
306.025
305.99
305.954
305.932
305.918
305.917
305.943
305.994
306.069
306.175
306.301
306.446
306.166
306.131
306.099
306.05
306.007
305.977
305.96
305.947
305.966
306.012
306.077
306.187
306.292
306.452
306.918
306.871
306.841
306.801
306.771
306.737
306.712
306.688
306.676
306.672
306.676
306.683
306.706
306.737
306.873
306.844
306.807
306.767
306.731
306.694
306.666
306.639
306.624
306.616
306.618
306.623
306.644
306.665
306.828
306.799
306.765
306.728
306.692
306.654
306.623
306.594
306.577
306.565
306.565
306.572
306.596
306.631
306.792
306.764
306.729
306.692
306.654
306.615
306.582
306.553
306.536
306.526
306.526
306.535
306.56
306.598
306.741
306.715
306.682
306.647
306.611
306.574
306.542
306.516
306.5
306.492
306.495
306.511
306.539
306.586
306.698
306.674
306.644
306.61
306.575
306.541
306.511
306.487
306.474
306.47
306.478
306.502
306.532
306.579
306.654
306.631
306.603
306.571
306.538
306.508
306.481
306.463
306.454
306.455
306.47
306.502
306.542
306.598
306.625
306.602
306.575
306.544
306.512
306.485
306.462
306.448
306.442
306.451
306.475
306.513
306.561
306.617
306.6
306.577
306.551
306.521
306.491
306.466
306.446
306.437
306.438
306.455
306.485
306.528
306.589
306.654
306.594
306.568
306.542
306.511
306.481
306.459
306.441
306.435
306.442
306.465
306.501
306.55
306.621
306.692
306.601
306.574
306.545
306.514
306.482
306.46
306.443
306.438
306.448
306.476
306.521
306.578
306.659
306.738
306.626
306.592
306.56
306.526
306.491
306.468
306.451
306.448
306.461
306.493
306.544
306.606
306.693
306.777
306.655
306.623
306.584
306.547
306.507
306.482
306.462
306.459
306.474
306.51
306.565
306.636
306.73
306.827
306.706
306.66
306.615
306.573
306.529
306.502
306.479
306.475
306.49
306.527
306.583
306.659
306.748
306.852
306.962
306.956
306.958
306.952
306.952
306.947
306.949
306.947
306.952
306.959
306.969
306.975
306.986
306.995
306.956
306.954
306.953
306.945
306.94
306.934
306.933
306.931
306.934
306.937
306.943
306.945
306.953
306.958
306.944
306.942
306.938
306.932
306.928
306.922
306.919
306.913
306.913
306.911
306.914
306.917
306.923
306.938
306.942
306.938
306.933
306.926
306.92
306.911
306.904
306.897
306.894
306.892
306.892
306.896
306.901
306.918
306.932
306.929
306.925
306.917
306.909
306.898
306.889
306.881
306.877
306.874
306.874
306.881
306.887
306.908
306.927
306.924
306.919
306.911
306.901
306.889
306.879
306.87
306.865
306.863
306.864
306.874
306.882
306.905
306.922
306.919
306.914
306.905
306.895
306.883
306.873
306.865
306.86
306.86
306.864
306.877
306.891
306.916
306.925
306.921
306.915
306.906
306.894
306.883
306.872
306.866
306.862
306.865
306.872
306.888
306.906
306.933
306.93
306.926
306.917
306.908
306.895
306.884
306.874
306.869
306.868
306.875
306.885
306.904
306.931
306.96
306.944
306.939
306.928
306.918
306.904
306.892
306.883
306.879
306.88
306.89
306.904
306.927
306.96
306.993
306.961
306.954
306.942
306.93
306.914
306.903
306.894
306.891
306.895
306.908
306.927
306.954
306.997
307.035
306.986
306.976
306.96
306.946
306.929
306.918
306.908
306.907
306.913
306.929
306.952
306.985
307.035
307.08
307.01
307
306.979
306.963
306.944
306.932
306.923
306.924
306.932
306.951
306.981
307.021
307.075
307.127
307.04
307.024
306.999
306.982
306.961
306.948
306.939
306.94
306.951
306.974
307.006
307.05
307.105
307.167
306.859
306.885
306.907
306.924
306.939
306.951
306.964
306.975
306.989
307.002
307.016
307.029
307.041
307.056
306.886
306.902
306.921
306.932
306.944
306.954
306.965
306.976
306.988
307
307.013
307.025
307.035
307.05
306.9
306.913
306.928
306.937
306.948
306.956
306.967
306.975
306.986
306.996
307.008
307.021
307.031
307.05
306.913
306.924
306.936
306.944
306.954
306.961
306.969
306.977
306.988
306.998
307.009
307.022
307.032
307.05
306.923
306.934
306.945
306.952
306.96
306.966
306.974
306.981
306.991
307.001
307.012
307.026
307.036
307.056
306.935
306.946
306.956
306.963
306.969
306.975
306.982
306.989
306.998
307.009
307.02
307.035
307.047
307.066
306.949
306.96
306.969
306.975
306.981
306.986
306.992
307
307.009
307.02
307.033
307.049
307.063
307.084
306.967
306.978
306.986
306.992
306.996
307.001
307.007
307.015
307.024
307.037
307.05
307.068
307.085
307.105
306.986
306.997
307.003
307.009
307.013
307.018
307.023
307.031
307.042
307.056
307.071
307.089
307.111
307.131
307.01
307.02
307.024
307.029
307.033
307.037
307.043
307.052
307.063
307.078
307.095
307.115
307.141
307.163
307.033
307.043
307.046
307.05
307.053
307.057
307.064
307.073
307.085
307.102
307.122
307.144
307.173
307.198
307.062
307.07
307.071
307.074
307.076
307.08
307.086
307.096
307.11
307.127
307.149
307.176
307.207
307.237
307.089
307.095
307.094
307.097
307.099
307.103
307.11
307.121
307.136
307.155
307.181
307.21
307.245
307.278
307.118
307.125
307.122
307.124
307.124
307.128
307.135
307.146
307.161
307.183
307.209
307.242
307.277
307.322
306.621
306.649
306.677
306.704
306.729
306.754
306.779
306.803
306.827
306.85
306.872
306.892
306.909
306.927
306.66
306.68
306.706
306.731
306.755
306.779
306.803
306.826
306.849
306.87
306.891
306.91
306.924
306.942
306.692
306.71
306.736
306.759
306.781
306.803
306.825
306.847
306.868
306.888
306.908
306.926
306.94
306.959
306.723
306.742
306.765
306.786
306.807
306.827
306.848
306.869
306.889
306.909
306.927
306.946
306.959
306.976
306.754
306.774
306.794
306.813
306.832
306.852
306.872
306.891
306.911
306.929
306.947
306.965
306.979
306.997
306.787
306.806
306.824
306.842
306.86
306.878
306.897
306.915
306.934
306.952
306.969
306.988
307.002
307.019
306.819
306.837
306.854
306.87
306.887
306.904
306.922
306.94
306.957
306.976
306.992
307.011
307.027
307.043
306.852
306.87
306.885
306.901
306.916
306.932
306.949
306.966
306.983
307.001
307.018
307.037
307.054
307.07
306.885
306.902
306.916
306.93
306.945
306.96
306.976
306.993
307.01
307.028
307.046
307.064
307.084
307.1
306.919
306.935
306.948
306.961
306.975
306.99
307.005
307.022
307.039
307.057
307.076
307.094
307.116
307.133
306.951
306.967
306.978
306.991
307.004
307.019
307.034
307.051
307.068
307.087
307.107
307.127
307.15
307.168
306.986
307.002
307.011
307.024
307.036
307.05
307.065
307.082
307.099
307.119
307.14
307.162
307.186
307.207
307.018
307.033
307.042
307.054
307.066
307.08
307.096
307.114
307.132
307.154
307.176
307.2
307.226
307.248
307.056
307.069
307.077
307.088
307.099
307.114
307.129
307.147
307.166
307.188
307.211
307.237
307.263
307.295
306.353
306.377
306.404
306.431
306.458
306.486
306.513
306.54
306.566
306.591
306.615
306.637
306.656
306.679
306.4
306.417
306.443
306.47
306.496
306.523
306.55
306.575
306.6
306.624
306.646
306.667
306.684
306.703
306.443
306.46
306.485
306.51
306.535
306.56
306.585
306.608
306.631
306.653
306.674
306.693
306.709
306.728
306.484
306.501
306.525
306.548
306.572
306.595
306.619
306.642
306.664
306.684
306.703
306.722
306.737
306.755
306.523
306.541
306.564
306.586
306.609
306.63
306.653
306.674
306.695
306.714
306.732
306.751
306.765
306.783
306.562
306.582
306.603
306.624
306.645
306.666
306.687
306.708
306.727
306.746
306.764
306.782
306.796
306.813
306.601
306.621
306.641
306.661
306.681
306.701
306.721
306.741
306.76
306.778
306.795
306.813
306.828
306.844
306.641
306.66
306.679
306.698
306.718
306.737
306.756
306.775
306.794
306.812
306.828
306.846
306.862
306.877
306.679
306.698
306.716
306.735
306.753
306.772
306.791
306.81
306.828
306.846
306.863
306.88
306.897
306.911
306.717
306.737
306.753
306.772
306.79
306.809
306.828
306.846
306.864
306.882
306.9
306.916
306.936
306.949
306.753
306.774
306.789
306.808
306.826
306.845
306.863
306.882
306.901
306.919
306.938
306.955
306.974
306.987
306.791
306.812
306.826
306.845
306.863
306.882
306.901
306.92
306.939
306.958
306.977
306.996
307.015
307.029
306.827
306.847
306.861
306.88
306.898
306.918
306.938
306.958
306.979
307
307.019
307.039
307.059
307.074
306.867
306.884
306.9
306.918
306.936
306.956
306.977
306.998
307.019
307.041
307.061
307.082
307.103
307.123
306.075
306.089
306.105
306.123
306.142
306.163
306.184
306.205
306.227
306.249
306.27
306.291
306.31
306.332
306.121
306.129
306.145
306.163
306.181
306.201
306.222
306.243
306.265
306.286
306.307
306.326
306.344
306.363
306.163
306.171
306.188
306.204
306.222
306.241
306.261
306.281
306.301
306.32
306.339
306.358
306.373
306.393
306.204
306.214
306.229
306.245
306.262
306.28
306.3
306.319
306.338
306.357
306.375
306.393
306.407
306.424
306.243
306.255
306.27
306.285
306.302
306.32
306.338
306.356
306.375
306.392
306.409
306.426
306.439
306.456
306.284
306.296
306.31
306.326
306.342
306.359
306.377
306.394
306.412
306.429
306.445
306.461
306.475
306.49
306.323
306.336
306.35
306.365
306.381
306.398
306.415
306.432
306.449
306.466
306.481
306.496
306.509
306.523
306.363
306.376
306.39
306.405
306.42
306.437
306.454
306.47
306.487
306.503
306.518
306.533
306.547
306.559
306.402
306.415
306.429
306.444
306.459
306.476
306.492
306.509
306.525
306.541
306.556
306.57
306.584
306.595
306.441
306.456
306.468
306.483
306.499
306.515
306.532
306.548
306.564
306.58
306.595
306.609
306.624
306.633
306.479
306.495
306.507
306.522
306.538
306.554
306.571
306.587
306.604
306.62
306.635
306.649
306.664
306.672
306.519
306.535
306.546
306.562
306.578
306.595
306.612
306.628
306.645
306.661
306.677
306.691
306.706
306.713
306.556
306.571
306.584
306.6
306.617
306.634
306.652
306.67
306.687
306.704
306.72
306.735
306.749
306.757
306.597
306.611
306.625
306.641
306.659
306.676
306.694
306.712
306.729
306.747
306.762
306.778
306.793
306.806
305.812
305.814
305.819
305.827
305.836
305.846
305.858
305.871
305.885
305.899
305.915
305.93
305.945
305.963
305.849
305.849
305.853
305.86
305.869
305.879
305.891
305.903
305.917
305.931
305.946
305.961
305.975
305.991
305.884
305.883
305.888
305.895
305.903
305.913
305.924
305.936
305.948
305.961
305.975
305.989
306.002
306.017
305.919
305.918
305.923
305.93
305.938
305.948
305.958
305.969
305.982
305.994
306.007
306.02
306.032
306.046
305.953
305.953
305.958
305.965
305.973
305.982
305.992
306.003
306.014
306.026
306.038
306.05
306.062
306.075
305.987
305.989
305.993
306
306.008
306.017
306.027
306.037
306.049
306.06
306.071
306.083
306.093
306.105
306.02
306.024
306.029
306.035
306.043
306.052
306.062
306.072
306.083
306.094
306.105
306.116
306.126
306.136
306.055
306.059
306.064
306.071
306.079
306.088
306.098
306.108
306.118
306.129
306.14
306.15
306.16
306.169
306.089
306.094
306.099
306.107
306.115
306.124
306.134
306.144
306.154
306.165
306.175
306.185
306.195
306.203
306.124
306.13
306.136
306.143
306.152
306.161
306.171
306.181
306.191
306.202
306.212
306.222
306.232
306.238
306.159
306.166
306.171
306.18
306.189
306.198
306.208
306.218
306.229
306.24
306.25
306.259
306.269
306.274
306.195
306.203
306.209
306.217
306.227
306.236
306.247
306.257
306.268
306.278
306.289
306.299
306.309
306.312
306.229
306.237
306.245
306.254
306.264
306.274
306.285
306.296
306.307
306.318
306.328
306.338
306.348
306.351
306.268
306.275
306.284
306.293
306.303
306.314
306.325
306.336
306.347
306.358
306.368
306.378
306.388
306.395
305.573
305.568
305.566
305.565
305.566
305.568
305.571
305.576
305.583
305.59
305.598
305.606
305.616
305.626
305.601
305.594
305.592
305.591
305.591
305.593
305.596
305.6
305.606
305.613
305.621
305.63
305.638
305.649
305.626
305.619
305.617
305.616
305.616
305.618
305.621
305.625
305.63
305.636
305.643
305.651
305.659
305.669
305.652
305.646
305.643
305.642
305.642
305.644
305.646
305.65
305.655
305.661
305.667
305.675
305.682
305.691
305.677
305.671
305.669
305.668
305.668
305.669
305.672
305.675
305.68
305.685
305.692
305.698
305.705
305.713
305.703
305.698
305.696
305.695
305.695
305.696
305.698
305.702
305.706
305.711
305.717
305.723
305.729
305.737
305.728
305.725
305.723
305.722
305.722
305.723
305.726
305.729
305.733
305.738
305.743
305.749
305.755
305.761
305.754
305.752
305.75
305.75
305.75
305.751
305.754
305.757
305.761
305.766
305.771
305.776
305.782
305.787
305.781
305.78
305.778
305.778
305.779
305.78
305.783
305.786
305.791
305.795
305.8
305.805
305.81
305.815
305.808
305.808
305.807
305.807
305.808
305.81
305.813
305.817
305.821
305.825
305.83
305.835
305.84
305.844
305.836
305.837
305.836
305.837
305.839
305.841
305.844
305.848
305.852
305.856
305.861
305.865
305.87
305.872
305.865
305.867
305.867
305.868
305.87
305.873
305.876
305.879
305.884
305.888
305.893
305.897
305.903
305.903
305.894
305.896
305.898
305.899
305.902
305.905
305.908
305.912
305.916
305.92
305.925
305.929
305.934
305.934
305.928
305.929
305.93
305.932
305.934
305.937
305.941
305.945
305.949
305.953
305.957
305.961
305.966
305.97
305.347
305.338
305.333
305.327
305.324
305.32
305.319
305.318
305.318
305.319
305.321
305.324
305.328
305.332
305.366
305.357
305.351
305.345
305.341
305.338
305.336
305.335
305.335
305.336
305.338
305.341
305.344
305.348
305.383
305.374
305.368
305.363
305.359
305.355
305.353
305.352
305.352
305.352
305.354
305.356
305.359
305.364
305.4
305.392
305.386
305.38
305.376
305.373
305.37
305.369
305.369
305.369
305.371
305.373
305.375
305.379
305.417
305.409
305.403
305.398
305.394
305.391
305.388
305.387
305.386
305.387
305.388
305.389
305.391
305.395
305.434
305.427
305.422
305.417
305.413
305.409
305.407
305.405
305.405
305.405
305.405
305.407
305.408
305.411
305.452
305.446
305.44
305.436
305.432
305.429
305.426
305.425
305.424
305.424
305.424
305.425
305.427
305.429
305.47
305.465
305.46
305.455
305.452
305.449
305.447
305.445
305.444
305.443
305.444
305.444
305.446
305.447
305.489
305.484
305.479
305.475
305.472
305.469
305.467
305.466
305.465
305.464
305.464
305.465
305.466
305.466
305.508
305.505
305.5
305.497
305.493
305.491
305.489
305.487
305.487
305.486
305.486
305.486
305.487
305.487
305.528
305.526
305.521
305.518
305.515
305.513
305.511
305.51
305.509
305.508
305.508
305.508
305.508
305.508
305.55
305.547
305.543
305.54
305.538
305.536
305.534
305.533
305.532
305.531
305.531
305.53
305.531
305.53
305.571
305.569
305.566
305.563
305.561
305.559
305.557
305.556
305.555
305.554
305.553
305.552
305.553
305.551
305.596
305.592
305.589
305.586
305.584
305.582
305.581
305.579
305.578
305.577
305.576
305.576
305.576
305.576
305.113
305.104
305.098
305.091
305.085
305.08
305.075
305.071
305.067
305.064
305.062
305.06
305.059
305.059
305.124
305.116
305.109
305.103
305.097
305.091
305.086
305.082
305.078
305.075
305.073
305.071
305.069
305.07
305.135
305.126
305.12
305.114
305.108
305.103
305.098
305.094
305.09
305.087
305.084
305.082
305.08
305.08
305.145
305.137
305.131
305.125
305.12
305.114
305.109
305.105
305.101
305.098
305.095
305.093
305.091
305.091
305.156
305.148
305.142
305.137
305.131
305.126
305.121
305.117
305.113
305.11
305.107
305.105
305.102
305.101
305.167
305.16
305.154
305.149
305.143
305.138
305.134
305.129
305.125
305.122
305.119
305.116
305.114
305.113
305.178
305.172
305.166
305.161
305.156
305.151
305.147
305.142
305.138
305.135
305.132
305.129
305.126
305.124
305.19
305.184
305.179
305.174
305.169
305.164
305.16
305.156
305.152
305.148
305.145
305.141
305.139
305.136
305.202
305.197
305.192
305.187
305.182
305.178
305.173
305.169
305.165
305.161
305.158
305.154
305.152
305.149
305.214
305.21
305.205
305.2
305.196
305.191
305.187
305.183
305.179
305.175
305.171
305.168
305.165
305.161
305.227
305.223
305.218
305.214
305.21
305.205
305.201
305.197
305.193
305.189
305.185
305.181
305.178
305.174
305.24
305.237
305.232
305.228
305.223
305.219
305.215
305.211
305.207
305.202
305.199
305.194
305.191
305.187
305.254
305.25
305.246
305.242
305.237
305.233
305.229
305.225
305.22
305.216
305.212
305.207
305.204
305.2
305.269
305.264
305.259
305.255
305.251
305.247
305.243
305.238
305.234
305.23
305.226
305.221
305.218
305.214
304.854
304.846
304.841
304.835
304.829
304.823
304.817
304.811
304.805
304.8
304.795
304.791
304.786
304.783
304.859
304.853
304.847
304.841
304.836
304.83
304.824
304.818
304.812
304.807
304.802
304.797
304.792
304.789
304.865
304.858
304.853
304.848
304.842
304.837
304.831
304.825
304.82
304.814
304.809
304.804
304.799
304.796
304.871
304.865
304.86
304.855
304.849
304.844
304.838
304.833
304.827
304.822
304.816
304.812
304.807
304.803
304.877
304.871
304.867
304.862
304.857
304.851
304.846
304.841
304.835
304.83
304.824
304.819
304.814
304.81
304.883
304.878
304.874
304.869
304.864
304.859
304.854
304.849
304.843
304.838
304.832
304.827
304.822
304.818
304.89
304.885
304.881
304.876
304.872
304.867
304.862
304.857
304.851
304.846
304.84
304.835
304.83
304.825
304.897
304.893
304.888
304.884
304.88
304.875
304.87
304.865
304.859
304.854
304.848
304.843
304.838
304.832
304.904
304.9
304.896
304.892
304.887
304.882
304.877
304.872
304.867
304.861
304.856
304.85
304.845
304.839
304.911
304.907
304.903
304.899
304.894
304.89
304.885
304.88
304.874
304.869
304.863
304.857
304.852
304.845
304.918
304.914
304.91
304.906
304.901
304.897
304.892
304.886
304.881
304.875
304.87
304.863
304.858
304.851
304.924
304.921
304.917
304.912
304.908
304.903
304.898
304.893
304.887
304.881
304.876
304.869
304.864
304.857
304.931
304.927
304.923
304.918
304.914
304.909
304.904
304.899
304.893
304.887
304.882
304.875
304.869
304.862
304.937
304.933
304.928
304.924
304.919
304.915
304.91
304.905
304.899
304.894
304.888
304.881
304.876
304.869
304.564
304.559
304.555
304.551
304.546
304.541
304.535
304.529
304.524
304.518
304.512
304.506
304.5
304.495
304.567
304.563
304.559
304.554
304.55
304.545
304.539
304.533
304.528
304.521
304.515
304.509
304.503
304.498
304.569
304.565
304.562
304.558
304.553
304.549
304.543
304.538
304.532
304.526
304.52
304.514
304.508
304.503
304.572
304.569
304.566
304.562
304.558
304.553
304.548
304.543
304.537
304.531
304.525
304.519
304.513
304.507
304.576
304.573
304.569
304.566
304.562
304.557
304.552
304.547
304.542
304.536
304.53
304.524
304.518
304.512
304.579
304.577
304.573
304.57
304.566
304.562
304.557
304.552
304.546
304.541
304.535
304.529
304.522
304.516
304.583
304.58
304.577
304.574
304.57
304.566
304.561
304.556
304.551
304.545
304.539
304.533
304.527
304.521
304.586
304.584
304.581
304.578
304.574
304.57
304.565
304.56
304.555
304.549
304.543
304.537
304.531
304.524
304.589
304.587
304.584
304.581
304.577
304.573
304.568
304.563
304.558
304.552
304.546
304.54
304.534
304.527
304.592
304.59
304.587
304.583
304.58
304.575
304.571
304.566
304.561
304.555
304.549
304.543
304.536
304.529
304.595
304.592
304.589
304.585
304.582
304.577
304.573
304.568
304.562
304.557
304.551
304.544
304.538
304.531
304.596
304.594
304.591
304.587
304.583
304.579
304.574
304.569
304.564
304.558
304.552
304.546
304.539
304.532
304.598
304.595
304.592
304.588
304.584
304.58
304.575
304.57
304.565
304.559
304.553
304.546
304.54
304.533
304.599
304.595
304.592
304.588
304.584
304.58
304.575
304.57
304.565
304.56
304.554
304.548
304.541
304.534
304.259
304.256