/*--------------------------------*- C++ -*----------------------------------*\
| =========                 |                                                 |
| \\      /  F ield         | OpenFOAM: The Open Source CFD Toolbox           |
|  \\    /   O peration     | Version:  v2106                                 |
|   \\  /    A nd           | Website:  www.openfoam.com                      |
|    \\/     M anipulation  |                                                 |
\*---------------------------------------------------------------------------*/
FoamFile
{
    version     2.0;
    format      ascii;
    arch        "LSB;label=32;scalar=64";
    class       volScalarField;
    location    "0.000135";
    object      Ttot;
}
// * * * * * * * * * * * * * * * * * * * * * * * * * * * * * * * * * * * * * //

dimensions      [0 0 0 1 0 0 0];

internalField   nonuniform List<scalar> 
18109
(
304.91
304.606
304.525
304.371
304.292
304.252
304.297
304.886
304.585
304.473
304.34
304.285
304.248
304.273
304.808
304.572
304.444
304.335
304.283
304.251
304.259
304.663
304.504
304.387
304.306
304.265
304.244
304.251
304.538
304.407
304.315
304.248
304.222
304.216
304.232
304.391
304.303
304.248
304.203
304.195
304.197
304.216
304.256
304.194
304.164
304.125
304.132
304.148
304.177
304.124
304.092
304.093
304.072
304.088
304.106
304.134
305.361
305.101
304.987
304.839
304.772
304.731
304.754
304.782
304.855
304.919
305.01
305.11
305.177
305.322
305.305
305.061
304.953
304.832
304.774
304.731
304.732
304.751
304.807
304.861
304.93
305
305.043
305.128
305.216
305.032
304.921
304.822
304.768
304.731
304.724
304.731
304.763
304.809
304.868
304.931
304.976
305.073
305.097
304.959
304.856
304.785
304.741
304.716
304.714
304.726
304.757
304.794
304.844
304.895
304.921
304.994
304.987
304.872
304.792
304.737
304.713
304.703
304.708
304.721
304.747
304.781
304.826
304.878
304.907
304.978
304.86
304.782
304.732
304.695
304.686
304.685
304.695
304.712
304.741
304.777
304.821
304.876
304.92
304.988
304.743
304.686
304.66
304.633
304.639
304.65
304.67
304.694
304.73
304.772
304.823
304.89
304.953
305.029
304.636
304.61
304.608
304.594
304.606
304.62
304.64
304.669
304.71
304.76
304.822
304.896
304.977
305.058
304.535
304.523
304.532
304.538
304.555
304.574
304.596
304.63
304.675
304.733
304.807
304.894
304.987
305.093
304.495
304.498
304.513
304.521
304.529
304.541
304.554
304.584
304.627
304.691
304.774
304.875
304.989
305.116
304.462
304.462
304.485
304.5
304.504
304.511
304.514
304.535
304.574
304.643
304.736
304.853
304.986
305.14
304.513
304.499
304.516
304.52
304.503
304.498
304.49
304.499
304.528
304.595
304.685
304.813
304.955
305.148
304.554
304.542
304.572
304.566
304.53
304.502
304.478
304.476
304.487
304.549
304.634
304.782
304.914
305.139
304.716
304.744
304.726
304.669
304.599
304.537
304.494
304.479
304.458
304.511
304.586
304.739
304.858
305.109
304.867
305.139
305.099
304.927
304.323
303.46
305.346
305.619
305.732
305.875
305.848
305.644
305.095
305.254
305.281
305.24
304.939
304.263
304.949
305.027
304.973
304.786
304.238
303.194
304.823
304.854
304.775
304.531
303.908
302.823
304.77
304.772
304.689
304.441
303.823
302.839
304.74
304.754
304.706
304.515
304.053
303.353
304.798
304.846
304.856
304.797
304.604
304.281
304.836
304.926
305.022
305.101
305.141
305.139
304.933
305.064
305.231
305.427
305.646
305.883
305.027
305.198
305.423
305.701
306.025
306.393
305.139
305.344
305.597
305.916
306.281
306.712
305.25
305.469
305.724
306.067
306.452
306.913
305.305
305.53
305.787
306.134
306.5
306.958
305.392
305.635
305.844
306.159
306.446
306.786
305.373
305.651
305.799
306.037
306.235
306.432
305.156
305.34
305.496
305.674
305.799
305.859
305.077
305.179
305.268
305.359
305.383
305.225
305.019
305.079
305.124
305.15
305.08
304.753
305.015
305.046
305.054
305.026
304.884
304.468
305.046
305.078
305.078
305.032
304.865
304.552
305.117
305.197
305.247
305.226
305.101
304.893
305.168
305.262
305.351
305.4
305.392
305.377
305.227
305.361
305.489
305.619
305.744
305.87
305.26
305.424
305.596
305.8
306.033
306.284
305.298
305.484
305.691
305.936
306.224
306.548
305.3
305.491
305.706
305.98
306.291
306.671
305.243
305.434
305.639
305.916
306.207
306.592
305.192
305.384
305.549
305.776
305.993
306.256
305.052
305.27
305.362
305.52
305.628
305.752
304.809
304.933
304.998
305.096
305.127
305.072
304.671
304.718
304.717
304.727
304.645
304.369
304.539
304.544
304.523
304.483
304.334
303.944
304.474
304.461
304.432
304.372
304.211
303.797
304.437
304.429
304.428
304.399
304.29
303.954
304.497
304.545
304.59
304.614
304.575
304.442
304.533
304.627
304.723
304.851
304.952
305.009
304.603
304.748
304.902
305.132
305.369
305.644
304.697
304.895
305.107
305.42
305.756
306.171
304.788
305.024
305.282
305.651
306.045
306.538
304.845
305.097
305.368
305.759
306.166
306.689
304.863
305.114
305.36
305.715
306.041
306.434
304.792
305.001
305.15
305.342
305.467
305.578
304.874
305.237
305.63
306.154
306.721
307.415
305.024
305.411
305.803
306.34
306.89
307.562
305.1
305.49
305.85
306.322
306.708
307.081
305.065
305.39
305.546
305.739
305.751
305.62
304.657
304.829
304.828
304.809
304.606
304.243
304.5
304.53
304.393
304.142
303.6
302.752
304.433
304.395
304.175
303.777
302.97
301.854
304.402
304.314
304.062
303.614
302.703
301.561
304.454
304.365
304.133
303.686
302.883
301.845
304.536
304.501
304.352
304.035
303.5
302.817
304.661
304.692
304.673
304.566
304.338
304.001
304.81
304.924
305.024
305.105
305.15
305.171
304.966
305.152
305.365
305.613
305.882
306.186
305.147
305.404
305.695
306.054
306.451
306.919
305.275
305.569
305.899
306.331
306.8
307.366
305.404
305.729
306.068
306.524
306.998
307.586
305.461
305.787
306.122
306.578
307.017
307.519
305.469
305.77
305.985
306.28
306.522
306.748
304.56
302.589
300.747
300.139
301.038
302.2
298.815
296.038
295.675
298.381
300.747
297.135
294.489
294.867
298.917
300.391
297.018
295.131
297.044
302.277
300.81
298.303
297.579
300.495
306.478
302.077
300.71
301.065
304.458
310.075
303.723
303.335
304.33
307.538
312.054
305.162
305.496
306.674
309.184
312.874
314.751
306.336
307.171
308.406
310.428
313.094
313.991
307.091
308.225
309.549
311.295
313.14
313.258
307.52
308.827
310.243
311.881
313.524
313.874
312.314
307.766
309.103
310.536
312.081
313.871
314.732
313.169
307.894
307.789
309.096
310.543
312.161
313.828
315.557
314.859
315.025
307.374
308.331
309.415
310.643
312.307
314.41
316.725
317.007
306.595
306.728
306.774
307.012
308.247
310.448
313.516
311.405
305.49
304.521
303.078
302.305
302.735
304.714
307.563
308.627
304.302
302.462
300.005
298.337
298.187
300.284
303.913
307.091
303.617
301.447
298.925
297.515
297.898
299.916
301.341
299
303.404
301.282
299.059
298.294
300.09
303.493
304.941
298.459
303.602
302.077
300.596
300.6
303.047
306.889
309.026
303.744
304.329
303.562
302.979
303.813
306.383
309.438
311.54
306.5
305.226
305.054
305.232
306.662
309.361
311.906
311.141
308.248
306.047
306.442
307.232
309.01
311.598
313.801
306.744
307.574
308.856
310.662
312.941
314.56
307.188
308.3
309.797
311.575
313.668
314.64
307.414
308.655
310.19
312.068
314.134
315.589
307.32
308.553
310.11
312.061
314.138
315.953
306.719
307.543
308.665
310.092
311.989
305.785
305.817
305.832
306.366
307.828
304.594
303.585
302.4
302.046
302.909
303.458
301.76
299.846
298.797
299.407
302.95
301.021
299.135
298.496
299.556
302.778
300.928
299.448
299.612
301.737
303.177
301.925
301.152
301.874
304.241
304.107
303.553
303.484
304.684
306.867
305.043
305.124
305.578
306.953
309.206
306.053
306.682
307.551
309.156
311.381
306.856
307.903
309.06
310.791
312.94
307.362
308.637
309.973
311.605
313.667
307.558
308.924
310.353
311.997
313.804
306.976
307.868
308.807
310.039
311.566
305.305
304.922
304.604
304.929
305.979
302.989
301.011
299.63
299.416
300.613
300.558
297.504
295.371
295.697
298.756
299.331
296.229
294.228
295.56
299.93
299.078
296.28
295.302
298.276
303.568
299.953
298.005
298.192
301.987
307.711
301.711
300.813
301.928
305.883
310.856
303.579
303.605
305.208
308.723
312.515
305.327
305.974
307.602
310.318
313.164
306.783
307.867
309.382
311.522
313.437
307.762
309.082
310.488
312.257
313.604
308.314
309.715
311.007
312.614
314.04
308.556
309.988
311.288
312.61
314.25
308.184
309.123
309.956
310.889
312.13
306.68
306.419
305.914
305.977
306.882
305.991
305.796
305.695
305.566
305.493
305.435
305.418
305.428
305.474
305.517
305.596
305.689
305.779
305.929
305.907
305.734
305.629
305.525
305.46
305.409
305.389
305.382
305.409
305.458
305.529
305.606
305.685
305.782
305.834
305.697
305.594
305.506
305.445
305.397
305.375
305.367
305.382
305.418
305.477
305.547
305.621
305.73
305.734
305.623
305.534
305.462
305.41
305.373
305.358
305.353
305.368
305.402
305.456
305.52
305.583
305.672
305.642
305.549
305.476
305.422
305.385
305.36
305.349
305.345
305.36
305.394
305.444
305.509
305.571
305.661
305.55
305.48
305.427
305.387
305.361
305.345
305.338
305.338
305.357
305.394
305.445
305.514
305.583
305.67
305.458
305.406
305.368
305.341
305.327
305.321
305.32
305.328
305.354
305.396
305.455
305.533
305.616
305.708
305.392
305.359
305.333
305.313
305.305
305.303
305.304
305.319
305.352
305.401
305.466
305.549
305.646
305.739
305.332
305.312
305.297
305.284
305.279
305.28
305.283
305.302
305.34
305.395
305.47
305.561
305.673
305.779
305.313
305.302
305.29
305.276
305.266
305.267
305.27
305.29
305.329
305.388
305.471
305.568
305.69
305.814
305.309
305.302
305.296
305.281
305.265
305.262
305.26
305.275
305.314
305.377
305.467
305.576
305.711
305.856
305.373
305.352
305.339
305.314
305.286
305.275
305.267
305.274
305.308
305.369
305.458
305.574
305.714
305.882
305.437
305.406
305.398
305.369
305.326
305.3
305.284
305.278
305.304
305.362
305.448
305.578
305.713
305.898
305.583
305.565
305.522
305.46
305.397
305.349
305.326
305.3
305.312
305.363
305.436
305.574
305.693
305.905
306.679
306.552
306.47
306.375
306.305
306.24
306.203
306.182
306.185
306.197
306.237
306.291
306.367
306.477
306.579
306.487
306.399
306.319
306.255
306.197
306.158
306.131
306.12
306.134
306.176
306.227
306.301
306.38
306.505
306.423
306.347
306.278
306.216
306.16
306.121
306.096
306.087
306.094
306.127
306.18
306.251
306.344
306.425
306.358
306.291
306.229
306.171
306.121
306.085
306.063
306.056
306.065
306.1
306.153
306.221
306.306
306.344
306.286
306.229
306.177
306.128
306.087
306.056
306.037
306.034
306.046
306.084
306.141
306.208
306.299
306.277
306.23
306.182
306.136
306.093
306.058
306.032
306.017
306.018
306.038
306.08
306.141
306.212
306.302
306.208
306.169
306.13
306.091
306.056
306.028
306.008
305.998
306.006
306.036
306.085
306.154
306.237
306.33
306.168
306.133
306.099
306.064
306.032
306.01
305.994
305.99
306.004
306.043
306.1
306.174
306.264
306.36
306.139
306.106
306.078
306.044
306.015
305.996
305.981
305.983
306.006
306.05
306.114
306.196
306.301
306.408
306.136
306.099
306.074
306.04
306.011
305.994
305.981
305.987
306.017
306.064
306.136
306.224
306.338
306.455
306.163
306.123
306.097
306.06
306.026
306.006
305.991
305.997
306.027
306.077
306.156
306.254
306.381
306.511
306.227
306.176
306.143
306.098
306.056
306.032
306.014
306.017
306.047
306.099
306.179
306.28
306.409
306.551
306.289
306.239
306.205
306.154
306.102
306.069
306.047
306.042
306.067
306.12
306.199
306.311
306.446
306.602
306.4
306.345
306.294
306.226
306.164
306.122
306.097
306.079
306.098
306.148
306.219
306.339
306.456
306.626
307.089
307.039
307.005
306.959
306.922
306.881
306.85
306.82
306.804
306.798
306.801
306.809
306.834
306.869
307.043
307.009
306.966
306.921
306.879
306.836
306.802
306.771
306.752
306.74
306.742
306.747
306.77
306.794
306.994
306.96
306.922
306.88
306.839
306.795
306.759
306.725
306.705
306.69
306.689
306.696
306.72
306.759
306.956
306.925
306.886
306.844
306.801
306.757
306.718
306.685
306.665
306.651
306.649
306.659
306.684
306.724
306.906
306.877
306.84
306.8
306.758
306.716
306.679
306.649
306.63
306.62
306.621
306.637
306.664
306.712
306.869
306.84
306.805
306.766
306.725
306.686
306.651
306.623
306.607
306.599
306.606
306.629
306.659
306.706
306.831
306.802
306.769
306.731
306.692
306.656
306.624
306.602
306.59
306.589
306.602
306.632
306.673
306.727
306.812
306.781
306.748
306.71
306.672
306.639
306.61
306.592
306.583
306.589
306.612
306.649
306.696
306.751
306.798
306.766
306.732
306.694
306.656
306.626
306.6
306.587
306.585
306.599
306.627
306.67
306.731
306.796
306.804
306.768
306.732
306.692
306.654
306.625
306.601
306.591
306.595
306.615
306.651
306.7
306.771
306.844
306.824
306.785
306.745
306.703
306.662
306.633
306.61
306.6
306.608
306.635
306.68
306.737
306.821
306.902
306.861
306.813
306.769
306.724
306.679
306.648
306.624
306.617
306.628
306.66
306.712
306.776
306.867
306.955
306.9
306.853
306.802
306.753
306.702
306.668
306.642
306.636
306.65
306.685
306.742
306.816
306.917
307.02
306.955
306.899
306.841
306.786
306.73
306.695
306.666
306.659
306.674
306.713
306.771
306.852
306.947
307.056
307.169
307.16
307.159
307.15
307.146
307.137
307.136
307.13
307.132
307.136
307.145
307.151
307.163
307.174
307.163
307.159
307.154
307.143
307.135
307.124
307.119
307.114
307.115
307.114
307.119
307.121
307.128
307.135
307.151
307.146
307.14
307.13
307.123
307.112
307.105
307.097
307.094
307.09
307.091
307.093
307.097
307.115
307.149
307.144
307.136
307.126
307.116
307.103
307.093
307.082
307.077
307.071
307.069
307.073
307.076
307.094
307.144
307.138
307.131
307.119
307.106
307.092
307.079
307.068
307.061
307.055
307.053
307.059
307.063
307.085
307.144
307.138
307.129
307.116
307.102
307.086
307.071
307.059
307.051
307.046
307.045
307.053
307.06
307.082
307.146
307.138
307.129
307.115
307.099
307.083
307.068
307.057
307.049
307.046
307.048
307.06
307.072
307.096
307.156
307.147
307.135
307.121
307.104
307.087
307.072
307.062
307.055
307.055
307.06
307.074
307.091
307.116
307.169
307.159
307.145
307.129
307.11
307.094
307.079
307.07
307.066
307.07
307.078
307.096
307.121
307.149
307.193
307.181
307.163
307.146
307.125
307.108
307.093
307.085
307.083
307.09
307.103
307.124
307.157
307.19
307.219
307.205
307.184
307.165
307.142
307.125
307.11
307.104
307.105
307.115
307.133
307.159
307.202
307.242
307.251
307.235
307.21
307.188
307.163
307.146
307.131
307.126
307.129
307.143
307.166
307.199
307.25
307.297
307.282
307.265
307.236
307.212
307.185
307.166
307.152
307.149
307.155
307.174
307.203
307.245
307.301
307.356
307.315
307.294
307.261
307.236
307.207
307.189
307.175
307.174
307.183
307.205
307.238
307.283
307.34
307.405
307.08
307.104
307.124
307.138
307.151
307.16
307.171
307.18
307.192
307.203
307.217
307.229
307.242
307.258
307.107
307.123
307.14
307.149
307.158
307.165
307.174
307.182
307.192
307.202
307.214
307.225
307.236
307.252
307.123
307.135
307.149
307.155
307.163
307.169
307.177
307.183
307.192
307.201
307.211
307.223
307.233
307.253
307.139
307.149
307.159
307.165
307.171
307.175
307.182
307.187
307.196
307.204
307.214
307.227
307.235
307.254
307.154
307.163
307.171
307.175
307.18
307.183
307.188
307.194
307.201
307.21
307.219
307.233
307.243
307.263
307.171
307.179
307.186
307.189
307.193
307.195
307.199
307.205
307.212
307.221
307.231
307.245
307.256
307.275
307.189
307.197
307.203
307.206
307.208
307.21
307.214
307.219
307.226
307.236
307.246
307.262
307.275
307.295
307.213
307.22
307.224
307.226
307.228
307.229
307.232
307.238
307.245
307.256
307.267
307.284
307.3
307.32
307.238
307.245
307.247
307.249
307.249
307.25
307.253
307.259
307.267
307.279
307.292
307.31
307.331
307.351
307.267
307.274
307.274
307.275
307.274
307.275
307.278
307.284
307.293
307.306
307.322
307.341
307.367
307.388
307.297
307.303
307.302
307.302
307.3
307.301
307.304
307.311
307.321
307.336
307.355
307.376
307.406
307.431
307.331
307.336
307.332
307.331
307.329
307.329
307.332
307.34
307.351
307.367
307.389
307.415
307.447
307.478
307.363
307.366
307.361
307.36
307.357
307.358
307.361
307.37
307.383
307.402
307.427
307.456
307.492
307.526
307.395
307.399
307.393
307.391
307.387
307.388
307.392
307.402
307.416
307.437
307.462
307.494
307.529
307.576
306.837
306.865
306.893
306.918
306.942
306.966
306.99
307.013
307.036
307.058
307.079
307.099
307.116
307.137
306.878
306.898
306.924
306.948
306.971
306.993
307.016
307.038
307.06
307.081
307.101
307.119
307.133
307.152
306.913
306.932
306.957
306.979
307
307.021
307.042
307.062
307.082
307.102
307.12
307.138
307.151
307.171
306.948
306.967
306.99
307.009
307.028
307.047
307.067
307.087
307.106
307.125
307.142
307.16
307.173
307.191
306.983
307.002
307.022
307.039
307.057
307.075
307.094
307.112
307.13
307.148
307.165
307.183
307.196
307.214
307.02
307.038
307.055
307.071
307.088
307.104
307.122
307.139
307.156
307.174
307.19
307.208
307.222
307.239
307.056
307.073
307.089
307.103
307.118
307.134
307.15
307.166
307.183
307.2
307.216
307.235
307.25
307.266
307.094
307.11
307.124
307.137
307.151
307.165
307.181
307.196
307.212
307.229
307.246
307.264
307.281
307.296
307.131
307.146
307.158
307.171
307.184
307.197
307.212
307.227
307.243
307.26
307.277
307.294
307.314
307.33
307.169
307.185
307.195
307.207
307.218
307.231
307.245
307.26
307.276
307.292
307.311
307.329
307.351
307.368
307.207
307.222
307.231
307.241
307.252
307.264
307.278
307.293
307.31
307.327
307.347
307.367
307.39
307.408
307.246
307.261
307.268
307.278
307.288
307.3
307.313
307.329
307.345
307.364
307.384
307.406
307.431
307.454
307.282
307.297
307.303
307.313
307.323
307.335
307.349
307.366
307.383
307.404
307.425
307.449
307.476
307.501
307.322
307.335
307.341
307.35
307.36
307.373
307.387
307.404
307.422
307.443
307.465
307.491
307.518
307.55
306.556
306.58
306.607
306.633
306.66
306.687
306.713
306.74
306.765
306.79
306.813
306.836
306.855
306.879
306.606
306.623
306.649
306.675
306.7
306.727
306.753
306.778
306.803
306.826
306.848
306.869
306.885
306.906
306.652
306.668
306.694
306.718
306.743
306.766
306.791
306.814
306.837
306.858
306.878
306.898
306.913
306.934
306.696
306.713
306.737
306.759
306.783
306.805
306.829
306.85
306.872
306.893
306.912
306.93
306.944
306.963
306.738
306.757
306.779
306.8
306.822
306.844
306.866
306.886
306.907
306.926
306.944
306.962
306.976
306.994
306.782
306.801
306.821
306.841
306.862
306.882
306.903
306.923
306.942
306.961
306.978
306.996
307.01
307.027
306.824
306.843
306.862
306.882
306.901
306.921
306.94
306.959
306.978
306.996
307.013
307.03
307.045
307.061
306.868
306.886
306.904
306.923
306.941
306.96
306.979
306.997
307.015
307.033
307.05
307.067
307.083
307.097
306.909
306.928
306.945
306.963
306.981
306.999
307.018
307.036
307.053
307.071
307.087
307.104
307.121
307.135
306.951
306.971
306.987
307.004
307.021
307.039
307.057
307.075
307.093
307.11
307.128
307.144
307.163
307.176
306.992
307.012
307.026
307.044
307.061
307.079
307.097
307.116
307.134
307.152
307.17
307.187
307.206
307.219
307.034
307.054
307.068
307.085
307.102
307.12
307.139
307.157
307.176
307.194
307.213
307.231
307.251
307.266
307.073
307.093
307.106
307.124
307.141
307.16
307.18
307.2
307.22
307.24
307.259
307.279
307.299
307.315
307.116
307.133
307.148
307.165
307.183
307.203
307.223
307.243
307.264
307.285
307.304
307.326
307.346
307.367
306.262
306.275
306.291
306.309
306.327
306.347
306.368
306.389
306.411
306.432
306.453
306.474
306.494
306.516
306.31
306.318
306.334
306.351
306.369
306.388
306.409
306.43
306.451
306.472
306.492
306.512
306.529
306.55
306.354
306.363
306.379
306.395
306.413
306.431
306.451
306.47
306.49
306.509
306.528
306.547
306.562
306.582
306.399
306.408
306.423
306.439
306.456
306.473
306.492
306.511
306.531
306.549
306.567
306.584
306.599
306.616
306.441
306.452
306.467
306.482
306.498
306.515
306.534
306.552
306.57
306.587
306.604
306.621
306.634
306.651
306.484
306.496
306.51
306.525
306.541
306.558
306.575
306.593
306.61
306.627
306.643
306.659
306.672
306.687
306.527
306.539
306.553
306.567
306.583
306.599
306.617
306.634
306.65
306.667
306.682
306.697
306.71
306.724
306.57
306.582
306.596
306.61
306.625
306.642
306.658
306.675
306.691
306.707
306.722
306.737
306.75
306.762
306.611
306.625
306.638
306.652
306.667
306.684
306.7
306.716
306.733
306.748
306.763
306.777
306.79
306.801
306.654
306.668
306.681
306.695
306.71
306.726
306.743
306.759
306.775
306.79
306.805
306.819
306.833
306.842
306.696
306.711
306.722
306.737
306.752
306.769
306.785
306.802
306.818
306.833
306.848
306.862
306.876
306.884
306.739
306.754
306.766
306.78
306.796
306.813
306.829
306.846
306.862
306.877
306.893
306.907
306.922
306.929
306.779
306.794
306.806
306.822
306.839
306.856
306.873
306.89
306.907
306.923
306.939
306.953
306.968
306.976
306.822
306.836
306.851
306.866
306.884
306.901
306.919
306.936
306.953
306.97
306.985
307
307.015
307.028
305.982
305.985
305.988
305.995
306.004
306.014
306.025
306.037
306.051
306.065
306.08
306.096
306.111
306.129
306.021
306.021
306.025
306.031
306.039
306.049
306.06
306.072
306.085
306.099
306.114
306.128
306.143
306.159
306.058
306.057
306.061
306.068
306.076
306.085
306.096
306.107
306.119
306.132
306.145
306.159
306.171
306.187
306.096
306.094
306.099
306.105
306.113
306.122
306.132
306.143
306.155
306.167
306.179
306.192
306.204
306.218
306.132
306.132
306.136
306.142
306.15
306.159
306.168
306.179
306.19
306.201
306.213
306.225
306.236
306.249
306.168
306.169
306.174
306.18
306.187
306.196
306.205
306.216
306.226
306.237
306.249
306.26
306.27
306.282
306.203
306.207
306.211
306.217
306.225
306.233
306.243
306.253
306.263
306.274
306.285
306.295
306.305
306.315
306.241
306.244
306.249
306.255
306.263
306.271
306.281
306.291
306.301
306.312
306.322
306.332
306.341
306.35
306.277
306.282
306.287
306.294
306.301
306.31
306.32
306.329
306.34
306.35
306.36
306.369
306.378
306.386
306.315
306.32
306.325
306.332
306.341
306.349
306.359
306.369
306.379
306.389
306.399
306.408
306.418
306.424
306.352
306.358
306.364
306.371
306.38
306.389
306.399
306.409
306.419
306.429
306.439
306.448
306.458
306.462
306.391
306.398
306.404
306.412
306.421
306.43
306.44
306.45
306.46
306.47
306.48
306.489
306.5
306.503
306.427
306.435
306.442
306.451
306.461
306.471
306.481
306.492
306.502
306.512
306.522
306.531
306.541
306.544
306.468
306.475
306.484
306.492
306.503
306.513
306.523
306.534
306.544
306.555
306.564
306.574
306.583
306.59
305.728
305.723
305.72
305.719
305.719
305.72
305.723
305.727
305.733
305.739
305.747
305.756
305.765
305.775
305.757
305.75
305.747
305.746
305.745
305.746
305.749
305.753
305.758
305.765
305.772
305.78
305.788
305.799
305.784
305.777
305.774
305.772
305.772
305.773
305.775
305.779
305.784
305.789
305.796
305.803
305.811
305.821
305.811
305.805
305.802
305.8
305.8
305.8
305.802
305.806
305.81
305.815
305.822
305.829
305.835
305.844
305.838
305.832
305.829
305.828
305.827
305.828
305.83
305.833
305.837
305.842
305.848
305.854
305.86
305.868
305.865
305.86
305.857
305.856
305.855
305.856
305.858
305.861
305.865
305.869
305.875
305.881
305.886
305.893
305.892
305.888
305.886
305.884
305.884
305.885
305.887
305.89
305.894
305.898
305.903
305.908
305.913
305.92
305.92
305.917
305.915
305.914
305.914
305.915
305.917
305.92
305.923
305.928
305.932
305.937
305.942
305.947
305.948
305.947
305.945
305.944
305.944
305.945
305.948
305.951
305.954
305.958
305.963
305.967
305.972
305.976
305.977
305.977
305.975
305.975
305.976
305.977
305.98
305.982
305.986
305.99
305.994
305.998
306.003
306.006
306.007
306.008
306.006
306.007
306.008
306.01
306.012
306.015
306.019
306.023
306.027
306.03
306.035
306.037
306.038
306.039
306.039
306.039
306.041
306.043
306.046
306.049
306.052
306.056
306.06
306.064
306.069
306.069
306.069
306.071
306.071
306.073
306.074
306.077
306.08
306.083
306.086
306.09
306.094
306.097
306.102
306.102
306.104
306.104
306.105
306.107
306.109
306.111
306.114
306.118
306.121
306.124
306.128
306.131
306.136
306.139
305.488
305.479
305.473
305.467
305.462
305.459
305.456
305.455
305.454
305.455
305.457
305.459
305.462
305.466
305.508
305.498
305.492
305.486
305.481
305.477
305.474
305.473
305.472
305.473
305.474
305.476
305.479
305.484
305.526
305.516
305.51
305.504
305.499
305.495
305.492
305.491
305.49
305.49
305.491
305.493
305.495
305.5
305.544
305.535
305.529
305.523
305.518
305.514
305.511
305.509
305.508
305.508
305.509
305.511
305.512
305.516
305.562
305.554
305.547
305.542
305.537
305.533
305.53
305.528
305.527
305.527
305.527
305.528
305.53
305.533
305.58
305.573
305.567
305.561
305.556
305.553
305.55
305.548
305.546
305.546
305.546
305.547
305.548
305.551
305.599
305.592
305.586
305.581
305.577
305.573
305.57
305.568
305.567
305.566
305.566
305.566
305.567
305.569
305.618
305.612
305.607
305.602
305.598
305.594
305.591
305.589
305.588
305.587
305.587
305.587
305.587
305.588
305.638
305.633
305.627
305.623
305.619
305.616
305.613
305.611
305.61
305.609
305.608
305.608
305.609
305.609
305.658
305.654
305.649
305.645
305.642
305.638
305.636
305.634
305.633
305.631
305.631
305.63
305.63
305.63
305.68
305.676
305.672
305.668
305.665
305.662
305.66
305.657
305.656
305.654
305.654
305.653
305.653
305.652
305.702
305.699
305.695
305.691
305.688
305.685
305.683
305.681
305.68
305.678
305.677
305.676
305.677
305.675
305.725
305.722
305.718
305.715
305.713
305.71
305.708
305.706
305.704
305.702
305.701
305.7
305.699
305.698
305.751
305.747
305.743
305.74
305.737
305.734
305.732
305.73
305.729
305.727
305.725
305.724
305.724
305.723
305.241
305.231
305.224
305.217
305.211
305.205
305.199
305.195
305.19
305.187
305.184
305.182
305.18
305.18
305.253
305.243
305.236
305.229
305.223
305.217
305.211
305.207
305.202
305.199
305.195
305.193
305.191
305.192
305.263
305.255
305.248
305.241
305.235
305.229
305.223
305.219
305.214
305.211
305.207
305.205
305.202
305.203
305.275
305.266
305.26
305.253
305.247
305.241
305.236
305.231
305.226
305.223
305.219
305.217
305.214
305.214
305.286
305.278
305.271
305.265
305.259
305.253
305.248
305.243
305.239
305.235
305.232
305.229
305.226
305.225
305.297
305.29
305.284
305.278
305.272
305.266
305.261
305.256
305.252
305.248
305.244
305.241
305.238
305.237
305.309
305.302
305.296
305.29
305.285
305.28
305.275
305.27
305.266
305.261
305.258
305.254
305.251
305.249
305.321
305.315
305.31
305.304
305.299
305.294
305.289
305.284
305.279
305.275
305.271
305.268
305.265
305.262
305.334
305.329
305.323
305.318
305.313
305.308
305.303
305.298
305.294
305.289
305.285
305.281
305.278
305.274
305.347
305.342
305.337
305.332
305.327
305.322
305.317
305.312
305.308
305.303
305.299
305.295
305.292
305.287
305.36
305.356
305.351
305.346
305.341
305.336
305.332
305.327
305.322
305.318
305.313
305.309
305.305
305.301
305.374
305.37
305.365
305.36
305.356
305.351
305.346
305.341
305.337
305.332
305.327
305.322
305.319
305.314
305.389
305.384
305.38
305.375
305.37
305.365
305.361
305.356
305.351
305.346
305.341
305.336
305.332
305.328
305.405
305.399
305.394
305.389
305.384
305.38
305.375
305.37
305.366
305.36
305.356
305.351
305.347
305.342
304.967
304.96
304.954
304.947
304.941
304.935
304.928
304.922
304.916
304.91
304.904
304.9
304.895
304.891
304.974
304.967
304.961
304.954
304.948
304.942
304.935
304.929
304.923
304.917
304.911
304.906
304.901
304.898
304.979
304.973
304.967
304.961
304.955
304.949
304.943
304.937
304.931
304.925
304.919
304.914
304.909
304.905
304.985
304.979
304.974
304.968
304.962
304.957
304.951
304.945
304.938
304.933
304.927
304.922
304.916
304.912
304.992
304.986
304.981
304.975
304.97
304.964
304.959
304.953
304.947
304.941
304.935
304.93
304.924
304.92
304.999
304.993
304.988
304.983
304.978
304.972
304.967
304.961
304.955
304.949
304.943
304.938
304.932
304.928
305.005
305.001
304.996
304.991
304.986
304.981
304.975
304.969
304.964
304.958
304.952
304.946
304.941
304.935
305.013
305.008
305.004
304.999
304.994
304.989
304.983
304.978
304.972
304.966
304.96
304.954
304.948
304.943
305.02
305.016
305.011
305.007
305.002
304.997
304.991
304.986
304.98
304.974
304.968
304.962
304.956
304.95
305.027
305.023
305.019
305.014
305.009
305.004
304.999
304.993
304.987
304.981
304.975
304.969
304.963
304.956
305.034
305.03
305.026
305.021
305.016
305.011
305.006
305
304.994
304.988
304.982
304.975
304.969
304.962
305.041
305.037
305.033
305.028
305.023
305.018
305.013
305.007
305.001
304.995
304.988
304.982
304.975
304.968
305.048
305.044
305.039
305.034
305.03
305.024
305.019
305.013
305.007
305.001
304.994
304.987
304.981
304.974
305.054
305.05
305.045
305.04
305.035
305.03
305.025
305.019
305.013
305.007
305.001
304.994
304.988
304.981
304.664
304.659
304.655
304.65
304.645
304.639
304.633
304.627
304.621
304.614
304.608
304.602
304.596
304.591
304.667
304.663
304.658
304.654
304.649
304.643
304.637
304.631
304.625
304.618
304.612
304.606
304.599
304.594
304.669
304.665
304.662
304.657
304.652
304.647
304.642
304.636
304.63
304.623
304.617
304.611
304.604
304.599
304.673
304.669
304.665
304.661
304.657
304.652
304.646
304.641
304.635
304.628
304.622
304.616
304.609
304.603
304.676
304.673
304.669
304.665
304.661
304.656
304.651
304.646
304.64
304.634
304.627
304.621
304.614
304.608
304.68
304.677
304.674
304.67
304.665
304.661
304.656
304.65
304.645
304.638
304.632
304.626
304.619
304.613
304.684
304.681
304.677
304.674
304.67
304.665
304.66
304.655
304.649
304.643
304.637
304.63
304.623
304.617
304.687
304.684
304.681
304.677
304.673
304.669
304.664
304.659
304.653
304.647
304.641
304.634
304.627
304.62
304.69
304.688
304.684
304.681
304.677
304.672
304.667
304.662
304.656
304.65
304.644
304.637
304.631
304.623
304.693
304.69
304.687
304.683
304.679
304.675
304.67
304.665
304.659
304.653
304.647
304.64
304.633
304.626
304.696
304.693
304.689
304.686
304.681
304.677
304.672
304.667
304.661
304.655
304.649
304.642
304.635
304.627
304.697
304.695
304.691
304.687
304.683
304.678
304.673
304.668
304.662
304.656
304.65
304.643
304.636
304.629
304.699
304.696
304.692
304.688
304.684
304.679
304.674
304.669
304.663
304.657
304.651
304.644
304.637
304.629
304.7
304.696
304.692
304.688
304.684
304.679
304.675
304.669
304.664
304.658
304.652
304.645
304.638
304.631
304.345
304.343
304.34
304.337
304.334
304.33