/*--------------------------------*- C++ -*----------------------------------*\
| =========                 |                                                 |
| \\      /  F ield         | OpenFOAM: The Open Source CFD Toolbox           |
|  \\    /   O peration     | Version:  v2106                                 |
|   \\  /    A nd           | Website:  www.openfoam.com                      |
|    \\/     M anipulation  |                                                 |
\*---------------------------------------------------------------------------*/
FoamFile
{
    version     2.0;
    format      ascii;
    arch        "LSB;label=32;scalar=64";
    class       volScalarField;
    location    "0.000193";
    object      k;
}
// * * * * * * * * * * * * * * * * * * * * * * * * * * * * * * * * * * * * * //

dimensions      [0 2 -2 0 0 0 0];

internalField   nonuniform List<scalar> 
17924
(
2.36268e-12
2.30638e-12
2.29481e-12
2.29268e-12
2.298e-12
2.29227e-12
2.29117e-12
2.291e-12
2.29104e-12
2.29116e-12
2.29133e-12
2.30149e-12
2.29298e-12
2.29104e-12
2.29067e-12
2.2906e-12
2.29062e-12
2.29067e-12
2.31067e-12
2.29508e-12
2.2913e-12
2.29052e-12
2.29036e-12
2.29036e-12
2.2904e-12
2.32342e-12
2.29793e-12
2.2917e-12
2.29039e-12
2.29015e-12
2.29014e-12
2.29018e-12
2.33694e-12
2.30069e-12
2.29201e-12
2.29023e-12
2.28992e-12
2.28991e-12
2.28994e-12
2.34926e-12
2.30278e-12
2.29213e-12
2.29005e-12
2.2897e-12
2.28969e-12
2.28971e-12
2.36119e-12
2.30451e-12
2.29215e-12
2.28985e-12
2.28949e-12
2.28947e-12
2.28949e-12
2.37319e-12
2.30607e-12
2.29213e-12
2.28968e-12
2.28931e-12
2.28929e-12
2.2893e-12
2.38452e-12
2.30745e-12
2.29213e-12
2.28955e-12
2.28918e-12
2.28916e-12
2.28917e-12
2.3952e-12
2.30878e-12
2.29219e-12
2.28952e-12
2.2892e-12
2.28922e-12
2.28926e-12
2.40384e-12
2.31009e-12
2.29255e-12
2.28992e-12
2.28985e-12
2.29012e-12
2.29035e-12
2.41495e-12
2.31347e-12
2.29439e-12
2.29217e-12
2.29327e-12
2.29485e-12
2.296e-12
2.45045e-12
2.32749e-12
2.3026e-12
2.30212e-12
2.3083e-12
2.31557e-12
2.32074e-12
2.59398e-12
2.38161e-12
2.33483e-12
2.3414e-12
2.36734e-12
2.39699e-12
2.41801e-12
2.29037e-12
2.29012e-12
2.29025e-12
2.29039e-12
2.29051e-12
2.29064e-12
2.29076e-12
2.29087e-12
2.29098e-12
2.29107e-12
2.29116e-12
2.29121e-12
2.29125e-12
2.2912e-12
2.29077e-12
2.29021e-12
2.29021e-12
2.29032e-12
2.29043e-12
2.29054e-12
2.29065e-12
2.29076e-12
2.29087e-12
2.29099e-12
2.29112e-12
2.2912e-12
2.29127e-12
2.29132e-12
2.29173e-12
2.29039e-12
2.29016e-12
2.29023e-12
2.29033e-12
2.29045e-12
2.29056e-12
2.29068e-12
2.29081e-12
2.29093e-12
2.29107e-12
2.29117e-12
2.29128e-12
2.29137e-12
2.293e-12
2.29058e-12
2.2901e-12
2.29012e-12
2.29023e-12
2.29035e-12
2.29048e-12
2.2906e-12
2.29072e-12
2.29084e-12
2.29096e-12
2.29106e-12
2.29117e-12
2.29129e-12
2.29432e-12
2.29075e-12
2.29002e-12
2.29e-12
2.29011e-12
2.29024e-12
2.29036e-12
2.29049e-12
2.29061e-12
2.29073e-12
2.29084e-12
2.29094e-12
2.29104e-12
2.29116e-12
2.29546e-12
2.29085e-12
2.28992e-12
2.28988e-12
2.28999e-12
2.29013e-12
2.29026e-12
2.29038e-12
2.29049e-12
2.29061e-12
2.29072e-12
2.29081e-12
2.2909e-12
2.29102e-12
2.29655e-12
2.29094e-12
2.28985e-12
2.28979e-12
2.28989e-12
2.29002e-12
2.29014e-12
2.29027e-12
2.29037e-12
2.29048e-12
2.29058e-12
2.29068e-12
2.29075e-12
2.29089e-12
2.29762e-12
2.29101e-12
2.28977e-12
2.2897e-12
2.2898e-12
2.28993e-12
2.29004e-12
2.29015e-12
2.29024e-12
2.29034e-12
2.29043e-12
2.29053e-12
2.29061e-12
2.29075e-12
2.29862e-12
2.29109e-12
2.28973e-12
2.28964e-12
2.28972e-12
2.28984e-12
2.28993e-12
2.29003e-12
2.29011e-12
2.2902e-12
2.29028e-12
2.29039e-12
2.29047e-12
2.29061e-12
2.29955e-12
2.29118e-12
2.28971e-12
2.28959e-12
2.28967e-12
2.28977e-12
2.28985e-12
2.28993e-12
2.29e-12
2.29008e-12
2.29015e-12
2.29026e-12
2.29033e-12
2.29047e-12
2.30025e-12
2.29127e-12
2.28973e-12
2.2896e-12
2.28967e-12
2.28977e-12
2.28984e-12
2.28991e-12
2.28996e-12
2.29002e-12
2.29008e-12
2.29019e-12
2.29024e-12
2.29038e-12
2.30098e-12
2.29149e-12
2.28986e-12
2.28974e-12
2.28989e-12
2.29007e-12
2.2902e-12
2.29027e-12
2.2903e-12
2.29031e-12
2.29032e-12
2.29037e-12
2.29034e-12
2.29047e-12
2.30343e-12
2.29248e-12
2.29048e-12
2.29051e-12
2.29107e-12
2.29169e-12
2.29211e-12
2.29228e-12
2.29226e-12
2.29213e-12
2.29195e-12
2.29179e-12
2.29153e-12
2.2916e-12
2.31438e-12
2.29661e-12
2.29303e-12
2.29374e-12
2.29602e-12
2.29853e-12
2.30024e-12
2.30093e-12
2.30082e-12
2.30017e-12
2.29922e-12
2.29829e-12
2.29731e-12
2.2971e-12
2.28809e-12
2.28851e-12
2.28887e-12
2.28918e-12
2.28941e-12
2.28962e-12
2.2898e-12
2.28995e-12
2.29009e-12
2.29022e-12
2.29034e-12
2.29042e-12
2.29047e-12
2.29043e-12
2.28832e-12
2.28866e-12
2.28898e-12
2.28926e-12
2.28949e-12
2.28971e-12
2.28991e-12
2.29008e-12
2.29023e-12
2.29039e-12
2.29054e-12
2.29064e-12
2.29072e-12
2.29076e-12
2.28853e-12
2.28877e-12
2.28905e-12
2.28932e-12
2.28957e-12
2.2898e-12
2.29001e-12
2.2902e-12
2.29037e-12
2.29054e-12
2.2907e-12
2.29081e-12
2.29092e-12
2.29101e-12
2.28872e-12
2.28883e-12
2.28909e-12
2.28937e-12
2.28963e-12
2.28987e-12
2.29009e-12
2.29029e-12
2.29047e-12
2.29063e-12
2.29079e-12
2.29091e-12
2.29103e-12
2.29114e-12
2.28888e-12
2.28888e-12
2.28912e-12
2.28941e-12
2.28968e-12
2.28993e-12
2.29015e-12
2.29035e-12
2.29053e-12
2.29069e-12
2.29083e-12
2.29095e-12
2.29106e-12
2.29117e-12
2.28901e-12
2.28892e-12
2.28915e-12
2.28943e-12
2.2897e-12
2.28995e-12
2.29017e-12
2.29037e-12
2.29055e-12
2.29071e-12
2.29085e-12
2.29096e-12
2.29107e-12
2.29117e-12
2.28917e-12
2.289e-12
2.2892e-12
2.28948e-12
2.28973e-12
2.28997e-12
2.29018e-12
2.29037e-12
2.29054e-12
2.2907e-12
2.29084e-12
2.29096e-12
2.29105e-12
2.29117e-12
2.28933e-12
2.28906e-12
2.28923e-12
2.2895e-12
2.28974e-12
2.28998e-12
2.29017e-12
2.29036e-12
2.29051e-12
2.29067e-12
2.29079e-12
2.29092e-12
2.29101e-12
2.29114e-12
2.28951e-12
2.28914e-12
2.28928e-12
2.28954e-12
2.28976e-12
2.28997e-12
2.29015e-12
2.29032e-12
2.29046e-12
2.2906e-12
2.29072e-12
2.29085e-12
2.29094e-12
2.29108e-12
2.28969e-12
2.28921e-12
2.28933e-12
2.28956e-12
2.28976e-12
2.28994e-12
2.2901e-12
2.29025e-12
2.29037e-12
2.29051e-12
2.29062e-12
2.29076e-12
2.29085e-12
2.29099e-12
2.28985e-12
2.28928e-12
2.28938e-12
2.28957e-12
2.28974e-12
2.2899e-12
2.29003e-12
2.29016e-12
2.29027e-12
2.29039e-12
2.29051e-12
2.29065e-12
2.29073e-12
2.29088e-12
2.28995e-12
2.28932e-12
2.2894e-12
2.28956e-12
2.28971e-12
2.28985e-12
2.28997e-12
2.29008e-12
2.29018e-12
2.29028e-12
2.29039e-12
2.29052e-12
2.29057e-12
2.29067e-12
2.2901e-12
2.28937e-12
2.28943e-12
2.28957e-12
2.28973e-12
2.28988e-12
2.28999e-12
2.29009e-12
2.29016e-12
2.29024e-12
2.29031e-12
2.29039e-12
2.29037e-12
2.2904e-12
2.29084e-12
2.28962e-12
2.28957e-12
2.28975e-12
2.29004e-12
2.2903e-12
2.29051e-12
2.29061e-12
2.29064e-12
2.29064e-12
2.2906e-12
2.29052e-12
2.29038e-12
2.29032e-12
2.28543e-12
2.28597e-12
2.28643e-12
2.28681e-12
2.28712e-12
2.2874e-12
2.28764e-12
2.28786e-12
2.28804e-12
2.28821e-12
2.28837e-12
2.28849e-12
2.28857e-12
2.28858e-12
2.28575e-12
2.28622e-12
2.28665e-12
2.28702e-12
2.28735e-12
2.28765e-12
2.28792e-12
2.28815e-12
2.28837e-12
2.28856e-12
2.28875e-12
2.28889e-12
2.289e-12
2.2891e-12
2.28606e-12
2.28649e-12
2.2869e-12
2.28726e-12
2.2876e-12
2.28791e-12
2.2882e-12
2.28845e-12
2.28868e-12
2.28889e-12
2.2891e-12
2.28924e-12
2.28938e-12
2.28951e-12
2.28629e-12
2.28669e-12
2.2871e-12
2.28747e-12
2.28783e-12
2.28815e-12
2.28845e-12
2.28871e-12
2.28896e-12
2.28917e-12
2.28937e-12
2.28952e-12
2.28968e-12
2.28983e-12
2.28649e-12
2.28689e-12
2.2873e-12
2.28769e-12
2.28805e-12
2.28838e-12
2.28868e-12
2.28895e-12
2.28919e-12
2.28941e-12
2.28961e-12
2.28976e-12
2.28992e-12
2.29006e-12
2.28669e-12
2.28709e-12
2.2875e-12
2.28788e-12
2.28824e-12
2.28857e-12
2.28887e-12
2.28914e-12
2.28939e-12
2.28961e-12
2.28981e-12
2.28997e-12
2.29012e-12
2.29026e-12
2.28691e-12
2.28731e-12
2.28769e-12
2.28807e-12
2.28842e-12
2.28874e-12
2.28904e-12
2.2893e-12
2.28954e-12
2.28976e-12
2.28995e-12
2.29013e-12
2.29027e-12
2.29042e-12
2.28713e-12
2.2875e-12
2.28786e-12
2.28823e-12
2.28856e-12
2.28888e-12
2.28916e-12
2.28942e-12
2.28965e-12
2.28987e-12
2.29006e-12
2.29024e-12
2.29038e-12
2.29055e-12
2.28734e-12
2.28768e-12
2.28802e-12
2.28838e-12
2.28869e-12
2.28898e-12
2.28925e-12
2.28949e-12
2.2897e-12
2.28992e-12
2.2901e-12
2.2903e-12
2.29045e-12
2.29063e-12
2.28755e-12
2.28783e-12
2.28815e-12
2.28848e-12
2.28876e-12
2.28904e-12
2.28928e-12
2.28952e-12
2.28973e-12
2.28994e-12
2.29012e-12
2.29033e-12
2.29048e-12
2.29068e-12
2.28774e-12
2.28797e-12
2.28826e-12
2.28855e-12
2.28881e-12
2.28906e-12
2.28929e-12
2.28951e-12
2.2897e-12
2.28991e-12
2.2901e-12
2.29033e-12
2.29048e-12
2.29069e-12
2.28785e-12
2.28804e-12
2.28831e-12
2.28857e-12
2.28882e-12
2.28904e-12
2.28925e-12
2.28945e-12
2.28965e-12
2.28985e-12
2.29004e-12
2.29027e-12
2.2904e-12
2.29059e-12
2.2879e-12
2.28806e-12
2.28833e-12
2.28857e-12
2.28878e-12
2.28898e-12
2.28916e-12
2.28935e-12
2.28953e-12
2.28972e-12
2.28991e-12
2.29011e-12
2.29019e-12
2.29032e-12
2.28791e-12
2.28804e-12
2.28831e-12
2.28852e-12
2.28873e-12
2.28891e-12
2.2891e-12
2.28927e-12
2.28944e-12
2.2896e-12
2.28976e-12
2.28987e-12
2.28991e-12
2.28999e-12
2.28185e-12
2.28234e-12
2.2828e-12
2.2832e-12
2.28355e-12
2.28387e-12
2.28417e-12
2.28444e-12
2.28468e-12
2.28491e-12
2.28513e-12
2.28532e-12
2.28548e-12
2.28555e-12
2.28228e-12
2.28272e-12
2.28316e-12
2.28355e-12
2.28391e-12
2.28425e-12
2.28457e-12
2.28486e-12
2.28513e-12
2.28538e-12
2.28563e-12
2.28584e-12
2.28602e-12
2.2862e-12
2.28273e-12
2.28313e-12
2.28355e-12
2.28394e-12
2.28431e-12
2.28465e-12
2.28498e-12
2.28528e-12
2.28556e-12
2.28583e-12
2.28609e-12
2.2863e-12
2.28651e-12
2.28672e-12
2.2831e-12
2.28349e-12
2.28391e-12
2.2843e-12
2.28468e-12
2.28503e-12
2.28537e-12
2.28568e-12
2.28597e-12
2.28624e-12
2.28651e-12
2.28673e-12
2.28696e-12
2.28718e-12
2.28345e-12
2.28385e-12
2.28427e-12
2.28466e-12
2.28504e-12
2.2854e-12
2.28575e-12
2.28606e-12
2.28636e-12
2.28664e-12
2.2869e-12
2.28713e-12
2.28736e-12
2.28757e-12
2.2838e-12
2.28421e-12
2.28461e-12
2.285e-12
2.28538e-12
2.28575e-12
2.28609e-12
2.28641e-12
2.28671e-12
2.28699e-12
2.28726e-12
2.28751e-12
2.28774e-12
2.28795e-12
2.28415e-12
2.28456e-12
2.28494e-12
2.28533e-12
2.2857e-12
2.28606e-12
2.2864e-12
2.28672e-12
2.28702e-12
2.28731e-12
2.28759e-12
2.28785e-12
2.28808e-12
2.2883e-12
2.28448e-12
2.28488e-12
2.28525e-12
2.28563e-12
2.28599e-12
2.28634e-12
2.28667e-12
2.287e-12
2.2873e-12
2.2876e-12
2.28788e-12
2.28815e-12
2.28838e-12
2.28863e-12
2.2848e-12
2.28517e-12
2.28553e-12
2.2859e-12
2.28624e-12
2.28658e-12
2.28691e-12
2.28723e-12
2.28753e-12
2.28783e-12
2.28811e-12
2.2884e-12
2.28865e-12
2.28892e-12
2.2851e-12
2.28544e-12
2.28577e-12
2.28612e-12
2.28645e-12
2.28679e-12
2.28711e-12
2.28742e-12
2.28772e-12
2.28803e-12
2.28832e-12
2.28863e-12
2.28889e-12
2.28918e-12
2.28538e-12
2.28568e-12
2.28599e-12
2.28632e-12
2.28664e-12
2.28695e-12
2.28727e-12
2.28757e-12
2.28788e-12
2.28818e-12
2.28849e-12
2.28882e-12
2.2891e-12
2.28942e-12
2.28559e-12
2.28586e-12
2.28616e-12
2.28647e-12
2.28677e-12
2.28708e-12
2.28738e-12
2.28769e-12
2.288e-12
2.28831e-12
2.28863e-12
2.28899e-12
2.28926e-12
2.28957e-12
2.28572e-12
2.28598e-12
2.28628e-12
2.28658e-12
2.28687e-12
2.28716e-12
2.28746e-12
2.28776e-12
2.28807e-12
2.28839e-12
2.28872e-12
2.28906e-12
2.28931e-12
2.28958e-12
2.28576e-12
2.28603e-12
2.28634e-12
2.28662e-12
2.28691e-12
2.2872e-12
2.28751e-12
2.28781e-12
2.28813e-12
2.28846e-12
2.28877e-12
2.28905e-12
2.28926e-12
2.2895e-12
2.2779e-12
2.27826e-12
2.27863e-12
2.27898e-12
2.27931e-12
2.27963e-12
2.27995e-12
2.28026e-12
2.28056e-12
2.28085e-12
2.28114e-12
2.28141e-12
2.28164e-12
2.28182e-12
2.27847e-12
2.27876e-12
2.27912e-12
2.27944e-12
2.27977e-12
2.28009e-12
2.28042e-12
2.28074e-12
2.28106e-12
2.28137e-12
2.28168e-12
2.28197e-12
2.28222e-12
2.28249e-12
2.27901e-12
2.27928e-12
2.27962e-12
2.27994e-12
2.28027e-12
2.28058e-12
2.28091e-12
2.28124e-12
2.28156e-12
2.28188e-12
2.28219e-12
2.28248e-12
2.28276e-12
2.28304e-12
2.2795e-12
2.27976e-12
2.2801e-12
2.28041e-12
2.28074e-12
2.28107e-12
2.2814e-12
2.28173e-12
2.28206e-12
2.28238e-12
2.2827e-12
2.283e-12
2.28329e-12
2.28359e-12
2.27997e-12
2.28024e-12
2.28057e-12
2.28089e-12
2.28122e-12
2.28155e-12
2.28188e-12
2.28222e-12
2.28255e-12
2.28288e-12
2.2832e-12
2.28351e-12
2.2838e-12
2.28409e-12
2.28045e-12
2.28073e-12
2.28105e-12
2.28136e-12
2.28169e-12
2.28202e-12
2.28236e-12
2.2827e-12
2.28304e-12
2.28338e-12
2.28371e-12
2.28402e-12
2.28432e-12
2.28461e-12
2.28091e-12
2.28121e-12
2.28151e-12
2.28182e-12
2.28215e-12
2.28248e-12
2.28282e-12
2.28317e-12
2.28352e-12
2.28386e-12
2.2842e-12
2.28452e-12
2.28483e-12
2.28513e-12
2.28136e-12
2.28166e-12
2.28195e-12
2.28227e-12
2.28259e-12
2.28293e-12
2.28328e-12
2.28363e-12
2.28398e-12
2.28433e-12
2.28468e-12
2.28502e-12
2.28534e-12
2.28565e-12
2.28179e-12
2.28208e-12
2.28237e-12
2.2827e-12
2.28302e-12
2.28336e-12
2.28371e-12
2.28407e-12
2.28443e-12
2.28479e-12
2.28514e-12
2.2855e-12
2.28583e-12
2.28615e-12
2.28222e-12
2.2825e-12
2.28278e-12
2.28311e-12
2.28343e-12
2.28377e-12
2.28413e-12
2.28449e-12
2.28486e-12
2.28523e-12
2.2856e-12
2.28597e-12
2.28632e-12
2.28666e-12
2.28263e-12
2.28289e-12
2.28317e-12
2.28349e-12
2.28382e-12
2.28417e-12
2.28453e-12
2.2849e-12
2.28527e-12
2.28565e-12
2.28604e-12
2.28643e-12
2.2868e-12
2.28717e-12
2.28299e-12
2.28325e-12
2.28353e-12
2.28385e-12
2.28418e-12
2.28453e-12
2.2849e-12
2.28528e-12
2.28566e-12
2.28605e-12
2.28645e-12
2.28687e-12
2.28725e-12
2.28762e-12
2.28327e-12
2.28354e-12
2.28385e-12
2.28417e-12
2.28451e-12
2.28487e-12
2.28525e-12
2.28563e-12
2.28603e-12
2.28644e-12
2.28685e-12
2.28728e-12
2.28763e-12
2.28797e-12
2.28348e-12
2.28377e-12
2.28412e-12
2.28446e-12
2.28482e-12
2.28518e-12
2.28557e-12
2.28597e-12
2.28638e-12
2.28679e-12
2.2872e-12
2.28758e-12
2.2879e-12
2.28823e-12
2.27483e-12
2.27495e-12
2.27517e-12
2.27538e-12
2.27562e-12
2.27588e-12
2.27615e-12
2.27644e-12
2.27674e-12
2.27704e-12
2.27734e-12
2.27764e-12
2.2779e-12
2.27813e-12
2.27547e-12
2.27553e-12
2.27572e-12
2.2759e-12
2.27613e-12
2.27638e-12
2.27666e-12
2.27695e-12
2.27725e-12
2.27757e-12
2.27788e-12
2.27819e-12
2.27846e-12
2.27876e-12
2.27603e-12
2.27609e-12
2.27627e-12
2.27645e-12
2.27667e-12
2.27692e-12
2.2772e-12
2.27748e-12
2.27778e-12
2.27809e-12
2.2784e-12
2.27871e-12
2.27899e-12
2.2793e-12
2.27657e-12
2.27664e-12
2.27682e-12
2.277e-12
2.27722e-12
2.27747e-12
2.27775e-12
2.27804e-12
2.27834e-12
2.27865e-12
2.27896e-12
2.27926e-12
2.27955e-12
2.27987e-12
2.27708e-12
2.27719e-12
2.27737e-12
2.27756e-12
2.27779e-12
2.27804e-12
2.27831e-12
2.2786e-12
2.2789e-12
2.27921e-12
2.27952e-12
2.27983e-12
2.28013e-12
2.28044e-12
2.27762e-12
2.27776e-12
2.27793e-12
2.27813e-12
2.27836e-12
2.27862e-12
2.2789e-12
2.27919e-12
2.27949e-12
2.27981e-12
2.28012e-12
2.28044e-12
2.28074e-12
2.28104e-12
2.27815e-12
2.27831e-12
2.27849e-12
2.2787e-12
2.27894e-12
2.2792e-12
2.27949e-12
2.27978e-12
2.28009e-12
2.28041e-12
2.28073e-12
2.28105e-12
2.28136e-12
2.28166e-12
2.27869e-12
2.27887e-12
2.27905e-12
2.27928e-12
2.27952e-12
2.2798e-12
2.28008e-12
2.28039e-12
2.28071e-12
2.28103e-12
2.28136e-12
2.28168e-12
2.282e-12
2.2823e-12
2.27921e-12
2.2794e-12
2.2796e-12
2.27985e-12
2.2801e-12
2.28039e-12
2.28068e-12
2.281e-12
2.28132e-12
2.28165e-12
2.28199e-12
2.28232e-12
2.28265e-12
2.28295e-12
2.27975e-12
2.27995e-12
2.28016e-12
2.28042e-12
2.28068e-12
2.28098e-12
2.28129e-12
2.28161e-12
2.28194e-12
2.28228e-12
2.28263e-12
2.28297e-12
2.28332e-12
2.28362e-12
2.28027e-12
2.28047e-12
2.28069e-12
2.28097e-12
2.28125e-12
2.28156e-12
2.28188e-12
2.28222e-12
2.28257e-12
2.28292e-12
2.28328e-12
2.28364e-12
2.284e-12
2.28431e-12
2.28077e-12
2.28099e-12
2.28123e-12
2.28152e-12
2.28182e-12
2.28213e-12
2.28247e-12
2.28282e-12
2.28318e-12
2.28354e-12
2.28391e-12
2.28429e-12
2.28466e-12
2.28498e-12
2.28119e-12
2.28143e-12
2.28172e-12
2.28202e-12
2.28235e-12
2.28268e-12
2.28304e-12
2.2834e-12
2.28378e-12
2.28416e-12
2.28455e-12
2.28494e-12
2.2853e-12
2.28559e-12
2.28158e-12
2.28186e-12
2.2822e-12
2.28253e-12
2.28288e-12
2.28322e-12
2.2836e-12
2.28397e-12
2.28436e-12
2.28474e-12
2.28512e-12
2.28549e-12
2.28581e-12
2.28611e-12
2.27329e-12
2.27328e-12
2.27332e-12
2.2734e-12
2.27351e-12
2.27365e-12
2.27381e-12
2.27399e-12
2.27419e-12
2.27441e-12
2.27464e-12
2.27487e-12
2.27508e-12
2.27528e-12
2.27389e-12
2.27382e-12
2.27386e-12
2.27392e-12
2.27401e-12
2.27414e-12
2.27429e-12
2.27448e-12
2.27468e-12
2.2749e-12
2.27513e-12
2.27536e-12
2.27557e-12
2.27582e-12
2.2744e-12
2.27432e-12
2.27437e-12
2.27443e-12
2.27453e-12
2.27466e-12
2.27482e-12
2.27499e-12
2.27519e-12
2.2754e-12
2.27562e-12
2.27585e-12
2.27606e-12
2.27631e-12
2.27491e-12
2.27485e-12
2.2749e-12
2.27497e-12
2.27508e-12
2.27521e-12
2.27536e-12
2.27554e-12
2.27573e-12
2.27594e-12
2.27615e-12
2.27638e-12
2.2766e-12
2.27685e-12
2.27539e-12
2.27538e-12
2.27544e-12
2.27552e-12
2.27563e-12
2.27577e-12
2.27592e-12
2.2761e-12
2.2763e-12
2.2765e-12
2.27672e-12
2.27694e-12
2.27715e-12
2.27739e-12
2.27591e-12
2.27594e-12
2.276e-12
2.27609e-12
2.27621e-12
2.27635e-12
2.27651e-12
2.27669e-12
2.27689e-12
2.2771e-12
2.27731e-12
2.27753e-12
2.27775e-12
2.27798e-12
2.27643e-12
2.27649e-12
2.27656e-12
2.27667e-12
2.27679e-12
2.27694e-12
2.27711e-12
2.2773e-12
2.2775e-12
2.27771e-12
2.27793e-12
2.27815e-12
2.27837e-12
2.27859e-12
2.27697e-12
2.27705e-12
2.27714e-12
2.27726e-12
2.27739e-12
2.27755e-12
2.27773e-12
2.27793e-12
2.27813e-12
2.27835e-12
2.27857e-12
2.2788e-12
2.27903e-12
2.27924e-12
2.2775e-12
2.2776e-12
2.27771e-12
2.27785e-12
2.278e-12
2.27818e-12
2.27837e-12
2.27857e-12
2.27878e-12
2.279e-12
2.27923e-12
2.27945e-12
2.27969e-12
2.27989e-12
2.27805e-12
2.27817e-12
2.27829e-12
2.27845e-12
2.27862e-12
2.2788e-12
2.27901e-12
2.27922e-12
2.27944e-12
2.27966e-12
2.2799e-12
2.28013e-12
2.28038e-12
2.28058e-12
2.27859e-12
2.27872e-12
2.27886e-12
2.27904e-12
2.27923e-12
2.27943e-12
2.27966e-12
2.27988e-12
2.28011e-12
2.28034e-12
2.28058e-12
2.28083e-12
2.28108e-12
2.28128e-12
2.27914e-12
2.27928e-12
2.27944e-12
2.27964e-12
2.27985e-12
2.28007e-12
2.2803e-12
2.28054e-12
2.28078e-12
2.28102e-12
2.28128e-12
2.28153e-12
2.2818e-12
2.282e-12
2.27962e-12
2.27979e-12
2.28e-12
2.28021e-12
2.28045e-12
2.28069e-12
2.28094e-12
2.2812e-12
2.28145e-12
2.28171e-12
2.28197e-12
2.28224e-12
2.2825e-12
2.28269e-12
2.28009e-12
2.28031e-12
2.28056e-12
2.2808e-12
2.28106e-12
2.28131e-12
2.28158e-12
2.28185e-12
2.28212e-12
2.28238e-12
2.28264e-12
2.2829e-12
2.28314e-12
2.28332e-12
2.27308e-12
2.27299e-12
2.27294e-12
2.27292e-12
2.27292e-12
2.27293e-12
2.27297e-12
2.27303e-12
2.2731e-12
2.2732e-12
2.2733e-12
2.27342e-12
2.27353e-12
2.27364e-12
2.27353e-12
2.27342e-12
2.27338e-12
2.27334e-12
2.27333e-12
2.27334e-12
2.27337e-12
2.27343e-12
2.2735e-12
2.2736e-12
2.2737e-12
2.27382e-12
2.27392e-12
2.27405e-12
2.27393e-12
2.27382e-12
2.27378e-12
2.27375e-12
2.27375e-12
2.27376e-12
2.2738e-12
2.27385e-12
2.27392e-12
2.27401e-12
2.27411e-12
2.27422e-12
2.27432e-12
2.27445e-12
2.27435e-12
2.27425e-12
2.27422e-12
2.27419e-12
2.27419e-12
2.27421e-12
2.27424e-12
2.2743e-12
2.27437e-12
2.27445e-12
2.27454e-12
2.27465e-12
2.27474e-12
2.27488e-12
2.27475e-12
2.27468e-12
2.27466e-12
2.27464e-12
2.27465e-12
2.27467e-12
2.27471e-12
2.27477e-12
2.27483e-12
2.27491e-12
2.275e-12
2.2751e-12
2.27519e-12
2.27532e-12
2.27518e-12
2.27513e-12
2.27512e-12
2.27511e-12
2.27513e-12
2.27515e-12
2.27519e-12
2.27525e-12
2.27532e-12
2.2754e-12
2.27549e-12
2.27558e-12
2.27567e-12
2.27578e-12
2.27561e-12
2.27558e-12
2.27558e-12
2.27559e-12
2.27561e-12
2.27565e-12
2.27569e-12
2.27575e-12
2.27582e-12
2.2759e-12
2.27599e-12
2.27608e-12
2.27618e-12
2.27627e-12
2.27605e-12
2.27605e-12
2.27606e-12
2.27608e-12
2.27611e-12
2.27615e-12
2.27621e-12
2.27627e-12
2.27635e-12
2.27643e-12
2.27652e-12
2.27661e-12
2.27671e-12
2.27679e-12
2.27649e-12
2.27652e-12
2.27654e-12
2.27658e-12
2.27662e-12
2.27668e-12
2.27674e-12
2.27681e-12
2.27689e-12
2.27698e-12
2.27707e-12
2.27716e-12
2.27726e-12
2.27733e-12
2.27695e-12
2.277e-12
2.27703e-12
2.27709e-12
2.27714e-12
2.27721e-12
2.27728e-12
2.27736e-12
2.27745e-12
2.27754e-12
2.27764e-12
2.27773e-12
2.27784e-12
2.2779e-12
2.27742e-12
2.27748e-12
2.27753e-12
2.2776e-12
2.27768e-12
2.27776e-12
2.27784e-12
2.27793e-12
2.27803e-12
2.27813e-12
2.27823e-12
2.27833e-12
2.27844e-12
2.27848e-12
2.2779e-12
2.27799e-12
2.27805e-12
2.27813e-12
2.27822e-12
2.27831e-12
2.27841e-12
2.27851e-12
2.27861e-12
2.27873e-12
2.27884e-12
2.27894e-12
2.27906e-12
2.27909e-12
2.27837e-12
2.27846e-12
2.27855e-12
2.27866e-12
2.27876e-12
2.27887e-12
2.27898e-12
2.27909e-12
2.27921e-12
2.27933e-12
2.27944e-12
2.27955e-12
2.27967e-12
2.27969e-12
2.27884e-12
2.27895e-12
2.27908e-12
2.2792e-12
2.27933e-12
2.27944e-12
2.27957e-12
2.27969e-12
2.27981e-12
2.27994e-12
2.28004e-12
2.28015e-12
2.28026e-12
2.2803e-12
2.27352e-12
2.2734e-12
2.27331e-12
2.27323e-12
2.27317e-12
2.27311e-12
2.27306e-12
2.27302e-12
2.273e-12
2.27299e-12
2.27299e-12
2.27299e-12
2.273e-12
2.27302e-12
2.27385e-12
2.27371e-12
2.27363e-12
2.27353e-12
2.27346e-12
2.27339e-12
2.27334e-12
2.2733e-12
2.27328e-12
2.27326e-12
2.27325e-12
2.27326e-12
2.27325e-12
2.2733e-12
2.27412e-12
2.27399e-12
2.27391e-12
2.27382e-12
2.27375e-12
2.27369e-12
2.27364e-12
2.2736e-12
2.27357e-12
2.27355e-12
2.27353e-12
2.27353e-12
2.27352e-12
2.27356e-12
2.27442e-12
2.27429e-12
2.27421e-12
2.27413e-12
2.27406e-12
2.27399e-12
2.27394e-12
2.2739e-12
2.27387e-12
2.27384e-12
2.27382e-12
2.27382e-12
2.2738e-12
2.27385e-12
2.27469e-12
2.27458e-12
2.27451e-12
2.27443e-12
2.27437e-12
2.27431e-12
2.27426e-12
2.27422e-12
2.27419e-12
2.27416e-12
2.27414e-12
2.27412e-12
2.27411e-12
2.27413e-12
2.27499e-12
2.2749e-12
2.27483e-12
2.27476e-12
2.2747e-12
2.27464e-12
2.2746e-12
2.27456e-12
2.27452e-12
2.27449e-12
2.27447e-12
2.27445e-12
2.27443e-12
2.27443e-12
2.27529e-12
2.27521e-12
2.27515e-12
2.27509e-12
2.27504e-12
2.27499e-12
2.27494e-12
2.2749e-12
2.27487e-12
2.27484e-12
2.27481e-12
2.27479e-12
2.27477e-12
2.27475e-12
2.2756e-12
2.27554e-12
2.27549e-12
2.27544e-12
2.27539e-12
2.27534e-12
2.2753e-12
2.27527e-12
2.27523e-12
2.2752e-12
2.27517e-12
2.27514e-12
2.27512e-12
2.27509e-12
2.27592e-12
2.27588e-12
2.27584e-12
2.2758e-12
2.27575e-12
2.27571e-12
2.27568e-12
2.27564e-12
2.27561e-12
2.27558e-12
2.27555e-12
2.27552e-12
2.27549e-12
2.27545e-12
2.27626e-12
2.27624e-12
2.2762e-12
2.27617e-12
2.27613e-12
2.2761e-12
2.27606e-12
2.27603e-12
2.276e-12
2.27597e-12
2.27594e-12
2.2759e-12
2.27589e-12
2.27585e-12
2.2766e-12
2.2766e-12
2.27657e-12
2.27655e-12
2.27652e-12
2.27649e-12
2.27646e-12
2.27644e-12
2.27641e-12
2.27638e-12
2.27635e-12
2.27631e-12
2.27631e-12
2.27626e-12
2.27697e-12
2.27698e-12
2.27696e-12
2.27694e-12
2.27692e-12
2.2769e-12
2.27688e-12
2.27686e-12
2.27683e-12
2.2768e-12
2.27678e-12
2.27674e-12
2.27674e-12
2.27669e-12
2.27734e-12
2.27736e-12
2.27735e-12
2.27734e-12
2.27733e-12
2.27732e-12
2.2773e-12
2.27729e-12
2.27727e-12
2.27724e-12
2.27721e-12
2.27718e-12
2.27717e-12
2.2771e-12
2.27773e-12
2.27774e-12
2.27775e-12
2.27775e-12
2.27776e-12
2.27775e-12
2.27774e-12
2.27773e-12
2.27771e-12
2.27768e-12
2.27765e-12
2.27762e-12
2.2776e-12
2.27755e-12
2.27417e-12
2.27403e-12
2.27393e-12
2.27382e-12
2.27372e-12
2.27362e-12
2.27352e-12
2.27342e-12
2.27333e-12
2.27325e-12
2.27317e-12
2.2731e-12
2.27302e-12
2.27294e-12
2.27437e-12
2.27423e-12
2.27413e-12
2.274e-12
2.27389e-12
2.27378e-12
2.27368e-12
2.27358e-12
2.27349e-12
2.2734e-12
2.27332e-12
2.27324e-12
2.27315e-12
2.27309e-12
2.27453e-12
2.27439e-12
2.27429e-12
2.27417e-12
2.27406e-12
2.27395e-12
2.27385e-12
2.27375e-12
2.27366e-12
2.27356e-12
2.27348e-12
2.27339e-12
2.2733e-12
2.27324e-12
2.2747e-12
2.27457e-12
2.27447e-12
2.27435e-12
2.27424e-12
2.27413e-12
2.27403e-12
2.27392e-12
2.27383e-12
2.27373e-12
2.27364e-12
2.27355e-12
2.27346e-12
2.27339e-12
2.27485e-12
2.27473e-12
2.27463e-12
2.27452e-12
2.27442e-12
2.27431e-12
2.27421e-12
2.2741e-12
2.274e-12
2.2739e-12
2.27381e-12
2.27372e-12
2.27362e-12
2.27354e-12
2.27502e-12
2.27491e-12
2.27482e-12
2.27471e-12
2.2746e-12
2.2745e-12
2.27439e-12
2.27429e-12
2.27419e-12
2.27408e-12
2.27399e-12
2.27389e-12
2.27379e-12
2.2737e-12
2.2752e-12
2.2751e-12
2.275e-12
2.2749e-12
2.2748e-12
2.2747e-12
2.27459e-12
2.27449e-12
2.27438e-12
2.27428e-12
2.27417e-12
2.27407e-12
2.27397e-12
2.27386e-12
2.27539e-12
2.2753e-12
2.27521e-12
2.27511e-12
2.27501e-12
2.2749e-12
2.2748e-12
2.27469e-12
2.27458e-12
2.27448e-12
2.27437e-12
2.27426e-12
2.27415e-12
2.27404e-12
2.27558e-12
2.2755e-12
2.27541e-12
2.27532e-12
2.27522e-12
2.27512e-12
2.27501e-12
2.27491e-12
2.2748e-12
2.27469e-12
2.27458e-12
2.27446e-12
2.27435e-12
2.27423e-12
2.27579e-12
2.27572e-12
2.27563e-12
2.27554e-12
2.27544e-12
2.27534e-12
2.27523e-12
2.27513e-12
2.27502e-12
2.2749e-12
2.27479e-12
2.27467e-12
2.27456e-12
2.27442e-12
2.276e-12
2.27594e-12
2.27585e-12
2.27577e-12
2.27567e-12
2.27557e-12
2.27546e-12
2.27536e-12
2.27524e-12
2.27513e-12
2.27501e-12
2.27488e-12
2.27477e-12
2.27462e-12
2.27623e-12
2.27617e-12
2.27608e-12
2.276e-12
2.2759e-12
2.2758e-12
2.2757e-12
2.27559e-12
2.27547e-12
2.27535e-12
2.27523e-12
2.2751e-12
2.27498e-12
2.27483e-12
2.27645e-12
2.2764e-12
2.27632e-12
2.27624e-12
2.27615e-12
2.27604e-12
2.27594e-12
2.27583e-12
2.27571e-12
2.27558e-12
2.27545e-12
2.27531e-12
2.27519e-12
2.27503e-12
2.2767e-12
2.27663e-12
2.27656e-12
2.27648e-12
2.27639e-12
2.27629e-12
2.27619e-12
2.27607e-12
2.27595e-12
2.27583e-12
2.27569e-12
2.27555e-12
2.27541e-12
2.27526e-12
2.27478e-12
2.27465e-12
2.27453e-12
2.27441e-12
2.27428e-12
2.27415e-12
2.27401e-12
2.27388e-12
2.27374e-12
2.2736e-12
2.27348e-12
2.27334e-12
2.27321e-12
2.27307e-12
2.27485e-12
2.27472e-12
2.27461e-12
2.27447e-12
2.27434e-12
2.2742e-12
2.27407e-12
2.27393e-12
2.27379e-12
2.27365e-12
2.27353e-12
2.27339e-12
2.27326e-12
2.27312e-12
2.27491e-12
2.27477e-12
2.27466e-12
2.27453e-12
2.2744e-12
2.27426e-12
2.27413e-12
2.27399e-12
2.27385e-12
2.27371e-12
2.27358e-12
2.27344e-12
2.27331e-12
2.27318e-12
2.27497e-12
2.27484e-12
2.27473e-12
2.27459e-12
2.27446e-12
2.27433e-12
2.27419e-12
2.27405e-12
2.27391e-12
2.27377e-12
2.27364e-12
2.27349e-12
2.27335e-12
2.27322e-12
2.27502e-12
2.2749e-12
2.27479e-12
2.27466e-12
2.27453e-12
2.27439e-12
2.27426e-12
2.27412e-12
2.27397e-12
2.27383e-12
2.27368e-12
2.27354e-12
2.27339e-12
2.27325e-12
2.27508e-12
2.27497e-12
2.27486e-12
2.27473e-12
2.2746e-12
2.27446e-12
2.27432e-12
2.27418e-12
2.27403e-12
2.27388e-12
2.27373e-12
2.27358e-12
2.27343e-12
2.27328e-12
2.27514e-12
2.27503e-12
2.27492e-12
2.2748e-12
2.27466e-12
2.27453e-12
2.27438e-12
2.27424e-12
2.27409e-12
2.27393e-12
2.27378e-12
2.27362e-12
2.27347e-12
2.27331e-12
2.27521e-12
2.2751e-12
2.27499e-12
2.27486e-12
2.27473e-12
2.27459e-12
2.27445e-12
2.2743e-12
2.27414e-12
2.27398e-12
2.27383e-12
2.27367e-12
2.27351e-12
2.27334e-12
2.27528e-12
2.27517e-12
2.27506e-12
2.27493e-12
2.2748e-12
2.27466e-12
2.27451e-12
2.27436e-12
2.2742e-12
2.27403e-12
2.27387e-12
2.2737e-12
2.27354e-12
2.27336e-12
2.27535e-12
2.27525e-12
2.27513e-12
2.275e-12
2.27486e-12
2.27472e-12
2.27457e-12
2.27441e-12
2.27425e-12
2.27408e-12
2.27392e-12
2.27374e-12
2.27357e-12
2.2734e-12
2.27543e-12
2.27532e-12
2.2752e-12
2.27507e-12
2.27493e-12
2.27478e-12
2.27463e-12
2.27447e-12
2.2743e-12
2.27413e-12
2.27396e-12
2.27378e-12
2.2736e-12
2.27342e-12
2.2755e-12
2.2754e-12
2.27527e-12
2.27514e-12
2.275e-12
2.27485e-12
2.27469e-12
2.27452e-12
2.27435e-12
2.27417e-12
2.27399e-12
2.27381e-12
2.27363e-12
2.27344e-12
2.27557e-12
2.27546e-12
2.27534e-12
2.2752e-12
2.27506e-12
2.2749e-12
2.27474e-12
2.27458e-12
2.2744e-12
2.27422e-12
2.27403e-12
2.27384e-12
2.27365e-12
2.27344e-12
2.27563e-12
2.27553e-12
2.2754e-12
2.27527e-12
2.27512e-12
2.27496e-12
2.2748e-12
2.27463e-12
2.27445e-12
2.27427e-12
2.27408e-12
2.27388e-12
2.27368e-12
2.27347e-12
2.2751e-12
2.27498e-12
2.27486e-12
2.27473e-12
2.27459e-12
2.27444e-12
2.27429e-12
2.27413e-12
2.27396e-12
2.27379e-12
2.27363e-12
2.27345e-12
2.27328e-12
2.27308e-12
2.27509e-12
2.27496e-12
2.27485e-12
2.27471e-12
2.27456e-12
2.27441e-12
2.27425e-12
2.27409e-12
2.27393e-12
2.27375e-12
2.27359e-12
2.27341e-12
2.27324e-12
2.27306e-12
2.27505e-12
2.27492e-12
2.2748e-12
2.27466e-12
2.27452e-12
2.27437e-12
2.27422e-12
2.27405e-12
2.27389e-12
2.27371e-12
2.27355e-12
2.27337e-12
2.2732e-12
2.27302e-12
2.27501e-12
2.27488e-12
2.27476e-12
2.27462e-12
2.27448e-12
2.27433e-12
2.27417e-12
2.27401e-12
2.27384e-12
2.27367e-12
2.2735e-12
2.27332e-12
2.27314e-12
2.27297e-12
2.27495e-12
2.27483e-12
2.27471e-12
2.27457e-12
2.27443e-12
2.27428e-12
2.27412e-12
2.27395e-12
2.27378e-12
2.27361e-12
2.27343e-12
2.27325e-12
2.27307e-12
2.27289e-12
2.27489e-12
2.27478e-12
2.27466e-12
2.27452e-12
2.27437e-12
2.27422e-12
2.27406e-12
2.27389e-12
2.27372e-12
2.27354e-12
2.27336e-12
2.27318e-12
2.273e-12
2.27281e-12
2.27484e-12
2.27472e-12
2.2746e-12
2.27446e-12
2.27432e-12
2.27416e-12
2.274e-12
2.27382e-12
2.27365e-12
2.27346e-12
2.27328e-12
2.27309e-12
2.27291e-12
2.27272e-12
2.27478e-12
2.27466e-12
2.27454e-12
2.2744e-12
2.27425e-12
2.27409e-12
2.27392e-12
2.27375e-12
2.27357e-12
2.27338e-12
2.2732e-12
2.27301e-12
2.27282e-12
2.27262e-12
2.27472e-12
2.27461e-12
2.27447e-12
2.27433e-12
2.27418e-12
2.27401e-12
2.27384e-12
2.27366e-12
2.27348e-12
2.27329e-12
2.2731e-12
2.27291e-12
2.27271e-12
2.27252e-12
2.27466e-12
2.27454e-12
2.2744e-12
2.27425e-12
2.27409e-12
2.27393e-12
2.27375e-12
2.27357e-12
2.27338e-12
2.27319e-12
2.273e-12
2.2728e-12
2.2726e-12
2.27241e-12
2.2746e-12
2.27447e-12
2.27433e-12
2.27418e-12
2.27401e-12
2.27384e-12
2.27366e-12
2.27347e-12
2.27328e-12
2.27308e-12
2.27288e-12
2.27268e-12
2.27248e-12
2.27229e-12
2.27453e-12
2.27439e-12
2.27424e-12
2.27409e-12
2.27392e-12
2.27374e-12
2.27356e-12
2.27337e-12
2.27317e-12
2.27297e-12
2.27277e-12
2.27257e-12
2.27236e-12
2.27217e-12
2.27445e-12
2.2743e-12
2.27416e-12
2.274e-12
2.27382e-12
2.27364e-12
2.27345e-12
2.27326e-12
2.27305e-12
2.27285e-12
2.27263e-12
2.27243e-12
2.27222e-12
2.27202e-12
2.27436e-12
2.27421e-12
2.27406e-12
2.2739e-12
2.27372e-12
2.27353e-12
2.27334e-12
2.27315e-12
2.27294e-12
2.27274e-12
2.27253e-12