/*--------------------------------*- C++ -*----------------------------------*\
| =========                 |                                                 |
| \\      /  F ield         | OpenFOAM: The Open Source CFD Toolbox           |
|  \\    /   O peration     | Version:  v2106                                 |
|   \\  /    A nd           | Website:  www.openfoam.com                      |
|    \\/     M anipulation  |                                                 |
\*---------------------------------------------------------------------------*/
FoamFile
{
    version     2.0;
    format      ascii;
    arch        "LSB;label=32;scalar=64";
    class       surfaceScalarField;
    location    "0.000144";
    object      phi;
}
// * * * * * * * * * * * * * * * * * * * * * * * * * * * * * * * * * * * * * //

dimensions      [1 0 -1 0 0 0 0];

internalField   nonuniform List<scalar> 
53237
(
-2.9489e-11
-4.73975e-11
-2.51508e-08
6.83928e-11
-1.94868e-11
-4.71751e-11
-2.51469e-08
6.70914e-11
-9.52087e-12
-4.87359e-11
-2.51444e-08
6.84934e-11
-4.4333e-14
-5.03252e-11
-2.51431e-08
7.05114e-11
9.47127e-12
-5.12039e-11
-2.51424e-08
7.17701e-11
2.01594e-11
-5.15975e-11
-2.51425e-08
7.17107e-11
3.12615e-11
-5.1728e-11
-2.51439e-08
7.2141e-11
4.27537e-11
-5.32248e-11
-2.51469e-08
7.44319e-11
5.37257e-11
-5.1136e-11
-2.51518e-08
7.23937e-11
6.43875e-11
-6.66927e-11
-2.51567e-08
8.89071e-11
-6.1034e-11
-2.51583e-08
7.82607e-11
7.85763e-11
-5.00251e-11
-4.37086e-11
-2.51587e-08
-3.61655e-11
-3.07442e-11
-2.51529e-08
-2.45804e-11
-3.16707e-11
-2.51465e-08
-1.54911e-11
-3.01601e-11
-2.51412e-08
-7.90729e-12
-3.05016e-11
-2.51367e-08
-1.1159e-12
-3.11172e-11
-2.51345e-08
6.00904e-12
-3.16641e-11
-2.51338e-08
1.46936e-11
-3.26555e-11
-2.51349e-08
2.54197e-11
-3.36248e-11
-2.51382e-08
3.9062e-11
-3.63257e-11
-2.51425e-08
5.49256e-11
-3.63303e-11
-2.51482e-08
6.98441e-11
-4.97443e-11
-2.51538e-08
-4.91157e-11
-2.51571e-08
8.94433e-11
-4.6734e-11
-3.26082e-11
-2.51576e-08
6.31428e-11
-3.71246e-11
-2.80333e-11
-2.51539e-08
-2.70581e-11
-1.84822e-11
-2.51455e-08
-1.87403e-11
-1.84019e-11
-2.5139e-08
-1.23096e-11
-1.66804e-11
-2.5133e-08
-6.95089e-12
-1.6469e-11
-2.51284e-08
-1.82866e-12
-1.64976e-11
-2.5126e-08
3.67873e-12
-1.66357e-11
-2.51255e-08
1.01312e-11
-1.75024e-11
-2.51268e-08
1.83141e-11
-1.84711e-11
-2.51303e-08
2.89494e-11
-2.11417e-11
-2.51353e-08
4.14993e-11
-2.20636e-11
-2.51411e-08
5.34673e-11
-3.24933e-11
-2.51491e-08
-3.73421e-11
-2.51529e-08
7.12814e-11
-4.88856e-11
-2.3427e-11
-2.51531e-08
6.42722e-11
-3.77827e-11
-1.67811e-11
-2.51486e-08
-2.71572e-11
-1.03469e-11
-2.51401e-08
-1.84231e-11
-9.63905e-12
-2.51333e-08
-1.19074e-11
-7.84927e-12
-2.51271e-08
-6.92058e-12
-7.06079e-12
-2.51222e-08
-2.11853e-12
-6.53658e-12
-2.51196e-08
3.0369e-12
-6.25483e-12
-2.51192e-08
9.02375e-12
-6.89642e-12
-2.51209e-08
1.71652e-11
-7.80359e-12
-2.51248e-08
2.81151e-11
-1.01447e-11
-2.51302e-08
4.12914e-11
-1.14948e-11
-2.51363e-08
5.48854e-11
-1.89902e-11
-2.51443e-08
-2.62764e-11
-2.51488e-08
7.22247e-11
-4.77173e-11
-1.56037e-11
-2.51503e-08
6.1552e-11
-3.56895e-11
-1.01069e-11
-2.51446e-08
-2.51594e-11
-6.40113e-12
-2.51355e-08
-1.65208e-11
-5.6443e-12
-2.51284e-08
-1.03866e-11
-4.14324e-12
-2.51217e-08
-6.09986e-12
-3.09586e-12
-2.51165e-08
-1.99443e-12
-2.29686e-12
-2.51138e-08
2.36982e-12
-1.63836e-12
-2.51136e-08
7.41902e-12
-1.85933e-12
-2.51157e-08
1.48406e-11
-2.38681e-12
-2.51202e-08
2.53409e-11
-3.97299e-12
-2.51262e-08
3.82018e-11
-5.18547e-12
-2.51326e-08
5.26281e-11
-9.95952e-12
-2.51411e-08
-1.65589e-11
-2.51466e-08
6.86651e-11
-4.82849e-11
-8.90467e-12
-2.51487e-08
6.17528e-11
-3.53845e-11
-6.25607e-12
-2.51413e-08
-2.46785e-11
-4.95848e-12
-2.51323e-08
-1.57349e-11
-4.71544e-12
-2.5125e-08
-9.50976e-12
-3.90155e-12
-2.51181e-08
-5.4305e-12
-3.04936e-12
-2.51127e-08
-1.63096e-12
-2.40079e-12
-2.511e-08
2.33486e-12
-1.51038e-12
-2.51098e-08
6.89697e-12
-1.09643e-12
-2.51121e-08
1.40061e-11
-9.7908e-13
-2.5117e-08
2.43482e-11
-1.47348e-12
-2.51234e-08
3.6993e-11
-1.98588e-12
-2.51301e-08
5.20598e-11
-4.19913e-12
-2.51386e-08
-8.0939e-12
-2.51458e-08
6.76161e-11
-4.95511e-11
-2.65926e-12
-2.5148e-08
6.352e-11
-3.56516e-11
-3.71954e-12
-2.51396e-08
-2.44321e-11
-4.49571e-12
-2.51306e-08
-1.50079e-11
-4.96723e-12
-2.51232e-08
-8.50069e-12
-5.01715e-12
-2.51162e-08
-4.34696e-12
-4.66906e-12
-2.51109e-08
-7.21904e-13
-4.39478e-12
-2.51083e-08
2.90066e-12
-3.38449e-12
-2.51082e-08
7.0694e-12
-2.30744e-12
-2.51107e-08
1.3805e-11
-1.44992e-12
-2.51157e-08
2.38241e-11
-7.71634e-13
-2.51224e-08
3.61663e-11
-4.11727e-13
-2.51293e-08
5.16081e-11
-4.14149e-13
-2.51378e-08
-8.49682e-13
-2.51459e-08
6.73279e-11
-5.04664e-11
4.84476e-12
-2.51476e-08
6.44921e-11
-3.64567e-11
1.90124e-13
-2.51394e-08
-2.4922e-11
-2.73945e-12
-2.51306e-08
-1.50364e-11
-4.00018e-12
-2.51234e-08
-8.04099e-12
-4.95535e-12
-2.51165e-08
-3.44946e-12
-5.14085e-12
-2.51113e-08
2.89209e-13
-5.16633e-12
-2.51088e-08
3.85142e-12
-4.16314e-12
-2.51087e-08
7.96612e-12
-2.67432e-12
-2.51113e-08
1.44636e-11
-1.25643e-12
-2.51163e-08
2.41263e-11
4.30362e-13
-2.51229e-08
3.60183e-11
1.60557e-12
-2.51297e-08
5.09499e-11
3.84428e-12
-2.51382e-08
7.01327e-12
-2.51461e-08
6.61334e-11
-5.1341e-11
1.45056e-11
-2.51475e-08
6.50469e-11
-3.7883e-11
7.35977e-12
-2.51404e-08
-2.62047e-11
2.12418e-12
-2.51318e-08
-1.61173e-11
3.81676e-13
-2.51248e-08
-8.66283e-12
-1.33214e-12
-2.51182e-08
-3.42122e-12
-1.8842e-12
-2.51133e-08
8.77315e-13
-2.14261e-12
-2.51109e-08
4.90148e-12
-1.31307e-12
-2.51109e-08
9.36157e-12
2.79052e-13
-2.51134e-08
1.58684e-11
1.87705e-12
-2.51181e-08
2.52629e-11
4.23351e-12
-2.51245e-08
3.68202e-11
5.82918e-12
-2.51311e-08
5.08917e-11
1.04303e-11
-2.51394e-08
1.63607e-11
-2.51464e-08
6.56909e-11
-5.2392e-11
2.59567e-11
-2.51484e-08
6.68931e-11
-3.94304e-11
1.85964e-11
-2.51431e-08
-2.75563e-11
1.10535e-11
-2.51345e-08
-1.73129e-11
9.58028e-12
-2.5128e-08
-9.36604e-12
7.42262e-12
-2.51218e-08
-3.33826e-12
6.78826e-12
-2.51173e-08
1.69054e-12
6.45207e-12
-2.51151e-08
6.30155e-12
7.01971e-12
-2.51151e-08
1.11739e-11
8.37738e-12
-2.51175e-08
1.76168e-11
9.75157e-12
-2.51219e-08
2.65433e-11
1.23121e-11
-2.5128e-08
3.76506e-11
1.35731e-11
-2.51343e-08
5.05882e-11
2.0578e-11
-2.51425e-08
2.70296e-11
-2.51476e-08
6.57688e-11
-5.48598e-11
3.88158e-11
-2.51506e-08
7.09079e-11
-4.25707e-11
3.44723e-11
-2.51463e-08
-3.02005e-11
2.44322e-11
-2.51384e-08
-1.93347e-11
2.38985e-11
-2.51322e-08
-1.06047e-11
2.17504e-11
-2.51266e-08
-3.6149e-12
2.13778e-11
-2.51226e-08
2.2305e-12
2.11642e-11
-2.51207e-08
7.53972e-12
2.14203e-11
-2.51207e-08
1.31154e-11
2.21402e-11
-2.51229e-08
1.99818e-11
2.28157e-11
-2.51269e-08
2.91214e-11
2.50193e-11
-2.51324e-08
4.0306e-11
2.52562e-11
-2.51384e-08
5.21949e-11
3.49262e-11
-2.51461e-08
3.87824e-11
-2.51501e-08
6.86072e-11
-5.34354e-11
5.19429e-11
-2.51547e-08
7.01641e-11
-4.26188e-11
5.36657e-11
-2.5151e-08
-3.07288e-11
4.10397e-11
-2.51431e-08
-2.00756e-11
4.18716e-11
-2.51371e-08
-1.12314e-11
4.00292e-11
-2.5132e-08
-3.77747e-12
3.98682e-11
-2.51284e-08
2.50936e-12
3.98028e-11
-2.51267e-08
8.14869e-12
3.97523e-11
-2.51268e-08
1.40607e-11
3.96175e-11
-2.51288e-08
2.08171e-11
3.95465e-11
-2.51325e-08
2.94407e-11
4.10915e-11
-2.51377e-08
3.98382e-11
3.98788e-11
-2.51435e-08
5.00407e-11
5.23013e-11
-2.51511e-08
5.04777e-11
-2.51544e-08
6.71048e-11
-6.91974e-11
6.46601e-11
-2.51587e-08
8.77532e-11
-5.52832e-11
7.17223e-11
-2.51555e-08
-3.99783e-11
5.72458e-11
-2.51499e-08
-2.6328e-11
6.0502e-11
-2.5144e-08
-1.50389e-11
6.00003e-11
-2.51395e-08
-5.47551e-12
6.07206e-11
-2.5136e-08
2.5011e-12
6.13413e-11
-2.51344e-08
9.69489e-12
6.10428e-11
-2.51346e-08
1.75867e-11
5.94482e-11
-2.51365e-08
2.67564e-11
5.78749e-11
-2.51403e-08
3.84462e-11
5.76356e-11
-2.5145e-08
5.24466e-11
5.38186e-11
-2.51507e-08
6.58939e-11
6.82772e-11
-2.5156e-08
6.15692e-11
-2.51588e-08
8.48511e-11
-6.29573e-11
-2.51595e-08
8.16928e-11
7.59028e-11
-5.32114e-11
-2.51579e-08
9.38121e-11
-4.26956e-11
-2.51529e-08
7.8422e-11
-3.12772e-11
-2.51478e-08
8.18677e-11
-1.97227e-11
-2.51445e-08
8.04758e-11
-8.32832e-12
-2.51429e-08
8.07975e-11
2.01799e-12
-2.51424e-08
8.17798e-11
1.16824e-11
-2.51427e-08
8.11534e-11
2.1531e-11
-2.51437e-08
7.8555e-11
3.12735e-11
-2.51457e-08
7.66659e-11
4.10431e-11
-2.51491e-08
7.68675e-11
5.0392e-11
-2.51541e-08
7.28386e-11
5.93976e-11
-2.51588e-08
8.87615e-11
-2.516e-08
7.32213e-11
7.66632e-11
-6.60715e-11
-6.63961e-11
-2.8022e-08
8.86591e-11
8.56339e-11
-5.14425e-11
-6.84203e-11
-2.80197e-08
9.5754e-11
-3.62956e-11
-4.67919e-11
-2.80156e-08
7.41933e-11
-2.41513e-11
-4.44669e-11
-2.80095e-08
7.21957e-11
-1.29016e-11
-3.96224e-11
-2.80064e-08
6.65575e-11
-3.19982e-12
-3.76651e-11
-2.80043e-08
6.42028e-11
4.79629e-12
-3.70953e-11
-2.80033e-08
6.38627e-11
1.23876e-11
-3.84113e-11
-2.80026e-08
6.51757e-11
2.16329e-11
-4.11413e-11
-2.80024e-08
6.66976e-11
3.2259e-11
-4.4738e-11
-2.80036e-08
6.95582e-11
4.37747e-11
-5.04205e-11
-2.80063e-08
7.4733e-11
5.77466e-11
-5.2549e-11
-2.80126e-08
7.5519e-11
6.96367e-11
-7.27308e-11
-2.80175e-08
9.56376e-11
-6.94123e-11
-2.8021e-08
8.60238e-11
8.61493e-11
-6.79816e-11
-5.126e-11
-2.80204e-08
9.38245e-11
-4.86318e-11
-4.85527e-11
-2.80165e-08
-2.80794e-11
-2.91116e-11
-2.80122e-08
-1.39454e-11
-2.46132e-11
-2.80054e-08
-4.31078e-12
-1.82021e-11
-2.80012e-08
1.07552e-12
-1.49223e-11
-2.7997e-08
3.56465e-12
-1.34403e-11
-2.79949e-08
6.05299e-12
-1.47466e-11
-2.79938e-08
1.17539e-11
-1.89373e-11
-2.79943e-08
2.15919e-11
-2.43685e-11
-2.79972e-08
3.57213e-11
-3.22364e-11
-2.80007e-08
5.56086e-11
-3.72303e-11
-2.80075e-08
7.34285e-11
-5.60136e-11
-2.80126e-08
-5.81786e-11
-2.80178e-08
9.66963e-11
-4.59567e-11
-3.62426e-11
-2.80175e-08
7.1858e-11
-2.90946e-11
-2.79471e-11
-2.80135e-08
-1.21526e-11
-1.20846e-11
-2.8007e-08
-2.23282e-12
-6.89957e-12
-2.80005e-08
2.93955e-12
-4.7251e-13
-2.79958e-08
3.87396e-12
3.02244e-12
-2.79917e-08
2.16937e-12
4.7463e-12
-2.79895e-08
6.31943e-13
3.65865e-12
-2.79884e-08
2.26466e-12
-7.06104e-13
-2.79887e-08
8.39309e-12
-6.38104e-12
-2.79913e-08
1.92798e-11
-1.45661e-11
-2.79949e-08
3.65736e-11
-2.07163e-11
-2.80011e-08
5.27933e-11
-3.67637e-11
-2.80082e-08
-4.47109e-11
-2.80136e-08
7.63312e-11
-4.37101e-11
-2.52181e-11
-2.80127e-08
7.00435e-11
-2.47547e-11
-1.48685e-11
-2.80083e-08
-7.12864e-12
-3.30376e-12
-2.80022e-08
2.51521e-12
1.54252e-12
-2.79959e-08
6.45491e-12
7.26228e-12
-2.79914e-08
5.23045e-12
1.06043e-11
-2.79872e-08
9.56285e-13
1.23781e-11
-2.7985e-08
-3.08075e-12
1.1731e-11
-2.79839e-08
-3.36591e-12
7.89586e-12
-2.79842e-08
2.00622e-12
2.82828e-12
-2.79867e-08
1.32355e-11
-4.54042e-12
-2.799e-08
3.1971e-11
-1.05336e-11
-2.79959e-08
5.10587e-11
-2.29731e-11
-2.80024e-08
-3.3354e-11
-2.8008e-08
7.58942e-11
-3.91441e-11
-1.55271e-11
-2.80108e-08
6.4811e-11
-1.84316e-11
-7.22212e-12
-2.80056e-08
-6.74334e-13
-3.82428e-13
-2.79993e-08
8.34067e-12
3.06537e-12
-2.79933e-08
1.06871e-11
7.22807e-12
-2.79886e-08
7.05102e-12
9.9108e-12
-2.79844e-08
5.96179e-14
1.13426e-11
-2.79823e-08
-6.69006e-12
1.12738e-11
-2.79813e-08
-9.30472e-12
8.64709e-12
-2.79817e-08
-5.3438e-12
5.10171e-12
-2.79843e-08
5.52781e-12
-1.79088e-13
-2.79879e-08
2.47936e-11
-4.77321e-12
-2.79934e-08
4.60496e-11
-1.29803e-11
-2.79999e-08
-2.21573e-11
-2.80061e-08
7.10852e-11
-3.76186e-11
-7.30822e-12
-2.80097e-08
6.3242e-11
-1.52789e-11
-3.85068e-12
-2.80028e-08
2.79422e-12
-1.78517e-12
-2.79969e-08
1.16505e-11
-8.53294e-13
-2.7991e-08
1.31918e-11
7.65561e-13
-2.79865e-08
8.0937e-12
2.2293e-12
-2.79823e-08
-5.152e-13
3.02887e-12
-2.79804e-08
-8.88209e-12
3.57613e-12
-2.79795e-08
-1.2955e-11
2.71716e-12
-2.798e-08
-9.8123e-12
1.40818e-12
-2.79827e-08
8.99911e-13
-8.38566e-13
-2.79863e-08
2.05722e-11
-2.9193e-12
-2.79917e-08
4.35908e-11
-6.63809e-12
-2.79978e-08
-1.18113e-11
-2.80054e-08
6.90512e-11
-3.82572e-11
-1.38697e-13
-2.80091e-08
6.41753e-11
-1.47536e-11
-2.31773e-12
-2.80012e-08
3.96691e-12
-4.40212e-12
-2.79953e-08
1.32972e-11
-6.08421e-12
-2.79894e-08
1.48464e-11
-7.3248e-12
-2.7985e-08
9.25143e-12
-7.89284e-12
-2.79811e-08
-1.10224e-13
-8.35078e-12
-2.79793e-08
-9.32959e-12
-7.32774e-12
-2.79788e-08
-1.43915e-11
-6.21531e-12
-2.79797e-08
-1.19322e-11
-5.07592e-12
-2.79826e-08
-1.52529e-12
-4.01447e-12
-2.79863e-08
1.82104e-11
-3.20319e-12
-2.79916e-08
4.22535e-11
-2.63813e-12
-2.79975e-08
-2.36004e-12
-2.80057e-08
6.82632e-11
-4.04252e-11
8.18216e-12
-2.80083e-08
6.62819e-11
-1.69207e-11
8.26768e-13
-2.80004e-08
2.2084e-12
-5.10825e-12
-2.79944e-08
1.22476e-11
-9.16612e-12
-2.79886e-08
1.45699e-11
-1.30368e-11
-2.79843e-08
9.67525e-12
-1.55222e-11
-2.79807e-08
8.10499e-13
-1.71932e-11
-2.79791e-08
-8.10144e-12
-1.59806e-11
-2.79789e-08
-1.31366e-11
-1.32874e-11
-2.79802e-08
-1.08449e-11
-1.00971e-11
-2.79832e-08
-7.47798e-13
-6.06034e-12
-2.7987e-08
1.85505e-11
-2.58052e-12
-2.79923e-08
4.2101e-11
2.19616e-12
-2.7998e-08
7.85439e-12
-2.80061e-08
6.77063e-11
-4.34999e-11
1.91097e-11
-2.80074e-08
6.88266e-11
-2.12041e-11
8.40518e-12
-2.80001e-08
-2.16607e-12
-1.45013e-12
-2.79941e-08
8.33947e-12
-7.35464e-12
-2.79882e-08
1.17383e-11
-1.32487e-11
-2.7984e-08
8.36096e-12
-1.6856e-11
-2.79807e-08
1.21603e-12
-1.91937e-11
-2.79793e-08
-6.08928e-12
-1.81458e-11
-2.79792e-08
-9.94251e-12
-1.46484e-11
-2.79808e-08
-7.04409e-12
-1.01841e-11
-2.7984e-08
3.0892e-12
-4.00586e-12
-2.79879e-08
2.19644e-11
1.32081e-12
-2.79933e-08
4.41353e-11
1.01631e-11
-2.7999e-08
1.95733e-11
-2.80062e-08
6.89685e-11
-4.76342e-11
3.20369e-11
-2.80078e-08
7.26294e-11
-2.68726e-11
2.1438e-11
-2.80019e-08
-7.91193e-12
8.38932e-12
-2.79954e-08
3.15396e-12
2.07156e-12
-2.79895e-08
7.94611e-12
-4.88226e-12
-2.79854e-08
6.61231e-12
-9.16083e-12
-2.79822e-08
2.00434e-12
-1.19785e-11
-2.7981e-08
-2.93522e-12
-1.13743e-11
-2.79812e-08
-5.24719e-12
-7.86568e-12
-2.7983e-08
-1.66921e-12
-3.06014e-12
-2.79863e-08
8.31348e-12
4.074e-12
-2.79903e-08
2.64782e-11
9.86181e-12
-2.79958e-08
4.67529e-11
2.21667e-11
-2.80018e-08
3.22025e-11
-2.80072e-08
7.13264e-11
-5.34413e-11
4.603e-11
-2.80095e-08
7.84203e-11
-3.44659e-11
3.91819e-11
-2.80042e-08
-1.56285e-11
2.36582e-11
-2.79978e-08
-3.78379e-12
1.8219e-11
-2.79916e-08
2.75352e-12
1.12142e-11
-2.79877e-08
4.03374e-12
6.90134e-12
-2.79847e-08
2.42503e-12
4.06893e-12
-2.79837e-08
3.50085e-13
4.04482e-12
-2.7984e-08
3.50576e-13
6.72948e-12
-2.79859e-08
5.2841e-12
1.08852e-11
-2.79892e-08
1.56802e-11
1.7635e-11
-2.79931e-08
3.34675e-11
2.25248e-11
-2.79989e-08
5.18149e-11
3.76498e-11
-2.80047e-08
4.46853e-11
-2.80093e-08
7.64533e-11
-5.52871e-11
6.23729e-11
-2.80149e-08
7.90563e-11
-3.88548e-11
6.22588e-11
-2.80098e-08
-2.10704e-11
4.48831e-11
-2.80028e-08
-9.289e-12
4.14012e-11
-2.79964e-08
-1.7419e-12
3.51245e-11
-2.79924e-08
1.57241e-12
3.11815e-11
-2.79894e-08
2.35949e-12
2.87182e-11
-2.79884e-08
2.63202e-12
2.79789e-11
-2.79889e-08
4.58225e-12
2.92707e-11
-2.79909e-08
1.04395e-11
3.22173e-11
-2.79943e-08
2.06905e-11
3.76997e-11
-2.79983e-08
3.73619e-11
4.05469e-11
-2.80043e-08
5.32007e-11
5.78078e-11
-2.80106e-08
5.85392e-11
-2.80149e-08
7.69831e-11
-7.47681e-11
7.63339e-11
-2.80191e-08
9.78823e-11
-5.66298e-11
8.17692e-11
-2.80141e-08
-3.60754e-11
6.34179e-11
-2.80091e-08
-2.10902e-11
6.32613e-11
-2.80022e-08
-9.96124e-12
5.91303e-11
-2.79984e-08
-2.74978e-12
5.67634e-11
-2.79953e-08
1.7412e-12
5.55356e-11
-2.79944e-08
5.74741e-12
5.41243e-11
-2.79949e-08
1.16627e-11
5.3258e-11
-2.79968e-08
2.14025e-11
5.36771e-11
-2.80004e-08
3.53045e-11
5.64214e-11
-2.80043e-08
5.51884e-11
5.58745e-11
-2.80107e-08
7.29835e-11
7.46141e-11
-2.80149e-08
6.97779e-11
-2.80189e-08
9.6687e-11
-6.9767e-11
-2.80221e-08
9.39097e-11
8.62527e-11
-5.71901e-11
-2.80188e-08
1.05362e-10
-4.23606e-11
-2.80142e-08
8.72046e-11
-3.01313e-11
-2.80079e-08
8.85522e-11
-1.851e-11
-2.80051e-08
8.44907e-11
-8.33241e-12
-2.80038e-08
8.23882e-11
3.55035e-13
-2.80037e-08
8.16436e-11
8.99767e-12
-2.80043e-08
7.95146e-11
1.85703e-11
-2.80051e-08
7.74846e-11
2.95379e-11
-2.80068e-08
7.69256e-11
4.12777e-11
-2.80096e-08
7.92395e-11
5.57603e-11
-2.80155e-08
7.73303e-11
6.80081e-11
-2.80193e-08
9.66028e-11
-2.80216e-08
8.57731e-11
8.47917e-11
-7.76773e-11
-8.33566e-11
-3.11157e-08
1.0168e-10
9.91769e-11
-5.84226e-11
-8.43478e-11
-3.11141e-08
1.09019e-10
-4.01475e-11
-5.96248e-11
-3.11088e-08
8.44476e-11
-2.34091e-11
-5.44173e-11
-3.11043e-08
8.01992e-11
-9.71533e-12
-4.59731e-11
-3.11013e-08
7.11335e-11
1.4647e-12
-4.0921e-11
-3.11004e-08
6.54039e-11
1.00377e-11
-3.77129e-11
-3.11003e-08
6.20648e-11
1.74611e-11
-3.77562e-11
-3.11002e-08
6.14802e-11
2.59046e-11
-4.05039e-11
-3.11004e-08
6.23491e-11
3.54416e-11
-4.42633e-11
-3.11018e-08
6.48794e-11
4.70968e-11
-5.10829e-11
-3.11056e-08
7.05039e-11
5.91871e-11
-5.39015e-11
-3.11113e-08
7.15009e-11
7.00057e-11
-7.64795e-11
-3.1118e-08
9.53187e-11
-7.26183e-11
-3.11209e-08
8.36404e-11
8.54027e-11
-7.98662e-11
-6.66134e-11
-3.11141e-08
1.08421e-10
-5.42249e-11
-6.31762e-11
-3.1111e-08
-2.93869e-11
-4.08374e-11
-3.11062e-08
-9.62299e-12
-3.37006e-11
-3.11019e-08
2.88807e-12
-2.40503e-11
-3.10985e-08
8.98662e-12
-1.80164e-11
-3.10957e-08
1.02624e-11
-1.42469e-11
-3.10945e-08
1.0891e-11
-1.49228e-11
-3.10939e-08
1.47811e-11
-2.0009e-11
-3.10945e-08
2.31801e-11
-2.6372e-11
-3.10971e-08
3.76865e-11
-3.58518e-11
-3.1101e-08
5.63765e-11
-4.18329e-11
-3.11066e-08
7.50852e-11
-6.25263e-11
-3.11133e-08
-6.50043e-11
-3.1118e-08
9.82403e-11
-5.58603e-11
-5.03697e-11
-3.11091e-08
8.61735e-11
-3.15917e-11
-4.1639e-11
-3.11067e-08
-9.56674e-12
-2.31262e-11
-3.11004e-08
6.10936e-12
-1.58505e-11
-3.1097e-08
1.34688e-11
-7.26337e-12
-3.10937e-08
1.38337e-11
-2.09765e-12
-3.10915e-08
9.33337e-12
1.00009e-12
-3.10905e-08
4.85541e-12
-2.4147e-13
-3.10896e-08
3.92518e-12
-6.02482e-12
-3.10892e-08
7.8269e-12
-1.27506e-11
-3.10907e-08
1.89344e-11
-2.24101e-11
-3.10941e-08
3.53083e-11
-2.96068e-11
-3.10984e-08
5.29727e-11
-4.71882e-11
-3.11066e-08
-5.51406e-11
-3.11111e-08
7.61215e-11
-5.29252e-11
-3.44366e-11
-3.11051e-08
8.50407e-11
-2.57902e-11
-2.3553e-11
-3.1103e-08
-2.57101e-12
-9.86857e-12
-3.10978e-08
1.2899e-11
-3.75131e-12
-3.10953e-08
1.86872e-11
2.76016e-12
-3.10929e-08
1.61961e-11
6.54609e-12
-3.1091e-08
8.00402e-12
8.57538e-12
-3.10901e-08
2.35451e-13
7.08843e-12
-3.10889e-08
-2.97923e-12
1.55249e-12
-3.10879e-08
-3.8632e-14
-4.64127e-12
-3.10886e-08
1.18353e-11
-1.34631e-11
-3.10908e-08
3.03871e-11
-2.0081e-11
-3.1094e-08
5.18237e-11
-3.34533e-11
-3.11009e-08
-4.34272e-11
-3.11054e-08
7.71971e-11
-4.73942e-11
-2.00201e-11
-3.11027e-08
7.96642e-11
-1.81092e-11
-1.0621e-11
-3.11003e-08
5.397e-12
-2.26291e-12
-3.10952e-08
1.9934e-11
1.71735e-12
-3.10936e-08
2.36015e-11
5.83865e-12
-3.10915e-08
1.81178e-11
7.59282e-12
-3.10899e-08
6.37451e-12
8.18165e-12
-3.10892e-08
-4.95004e-12
6.97978e-12
-3.1088e-08
-1.05495e-11
2.47596e-12
-3.10867e-08
-8.89447e-12
-2.3152e-12
-3.10868e-08
2.92027e-12
-8.96123e-12
-3.10885e-08
2.2927e-11
-1.38789e-11
-3.10906e-08
4.74219e-11
-2.24327e-11
-3.1097e-08
-3.11545e-11
-3.11016e-08
7.40075e-11
-4.53801e-11
-6.61423e-12
-3.11021e-08
7.76858e-11
-1.42378e-11
-1.91758e-12
-3.10981e-08
9.50064e-12
1.20556e-12
-3.10937e-08
2.33302e-11
2.38691e-12
-3.10926e-08
2.55457e-11
3.49716e-12
-3.10909e-08
1.83072e-11
3.05373e-12
-3.10896e-08
4.53474e-12
2.09797e-12
-3.10892e-08
-8.85938e-12
8.35594e-13
-3.10879e-08
-1.55448e-11
-2.2268e-12
-3.10864e-08
-1.43804e-11
-4.66276e-12
-3.10864e-08
-2.46396e-12
-7.74202e-12
-3.10875e-08
1.88244e-11
-1.00427e-11
-3.10889e-08
4.60891e-11
-1.35729e-11
-3.10944e-08
-1.78407e-11
-3.11003e-08
7.3816e-11
-4.50405e-11
5.67835e-12
-3.11019e-08
7.75002e-11
-1.28026e-11
3.96809e-12
-3.10968e-08
1.10813e-11
2.00614e-12
-3.10925e-08
2.45329e-11
4.48551e-14
-3.10916e-08
2.59309e-11
-2.1585e-12
-3.10901e-08
1.77433e-11
-4.38105e-12
-3.1089e-08
3.13067e-12
-6.62394e-12
-3.1089e-08
-1.10793e-11
-7.60422e-12
-3.10881e-08
-1.87067e-11
-8.4806e-12
-3.10868e-08
-1.76884e-11
-8.47455e-12
-3.10867e-08
-5.27817e-12
-8.16469e-12
-3.10877e-08
1.68079e-11
-7.1188e-12
-3.10889e-08
4.59076e-11
-5.72684e-12
-3.10938e-08
-3.99781e-12
-3.11002e-08
7.46179e-11
-4.65904e-11
1.74146e-11
-3.11015e-08
7.87113e-11
-1.47531e-11
1.00963e-11
-3.10962e-08
8.95538e-12
3.53588e-12
-3.10917e-08
2.24615e-11
-1.16785e-12
-3.10906e-08
2.39898e-11
-6.34241e-12
-3.10891e-08
1.60136e-11
-1.02724e-11
-3.10882e-08
2.31152e-12
-1.36291e-11
-3.10884e-08
-1.12205e-11
-1.39547e-11
-3.10877e-08
-1.89881e-11
-1.26593e-11
-3.10869e-08
-1.73063e-11
-1.04492e-11
-3.10869e-08
-4.20512e-12
-6.70668e-12
-3.10881e-08
1.80585e-11
-2.58809e-12
-3.10892e-08
4.71672e-11
3.47816e-12
-3.10941e-08
1.06261e-11
-3.11003e-08
7.58462e-11
-4.93957e-11
2.98623e-11
-3.11008e-08
8.05443e-11
-1.94735e-11
1.97126e-11
-3.10959e-08
3.48428e-12
9.19271e-12
-3.1091e-08
1.70773e-11
2.38342e-12
-3.10893e-08
1.94617e-11
-5.09351e-12
-3.10876e-08
1.28314e-11
-1.03912e-11
-3.10866e-08
9.01734e-13
-1.47132e-11
-3.10868e-08
-1.05673e-11
-1.50303e-11
-3.10865e-08
-1.63426e-11
-1.22842e-11
-3.10861e-08
-1.31548e-11
-8.25124e-12
-3.10867e-08
5.91657e-13
-1.84458e-12
-3.10883e-08
2.27507e-11
4.41463e-12
-3.10898e-08
5.05505e-11
1.50404e-11
-3.1095e-08
2.58041e-11
-3.11003e-08
7.85693e-11
-5.25175e-11
4.3125e-11
-3.11016e-08
8.25024e-11
-2.53823e-11
3.33314e-11
-3.10976e-08
-3.39781e-12
1.91081e-11
-3.10917e-08
1.02973e-11
1.1621e-11
-3.10893e-08
1.38983e-11
2.87293e-12
-3.10871e-08
9.54403e-12
-3.26874e-12
-3.10862e-08
1.3692e-13
-8.08522e-12
-3.10864e-08
-8.64244e-12
-8.64702e-12
-3.10864e-08
-1.18303e-11
-5.40877e-12
-3.10866e-08
-7.1531e-12
-2.93333e-13
-3.10876e-08
6.97781e-12
7.8733e-12
-3.10899e-08
2.84542e-11
1.4964e-11
-3.10919e-08
5.41075e-11
2.94311e-11
-3.10977e-08
4.04045e-11
-3.11016e-08
8.16343e-11
-5.77778e-11
5.69195e-11
-3.1105e-08
8.63134e-11
-3.34831e-11
5.04566e-11
-3.11011e-08
-1.26164e-11
3.31422e-11
-3.10945e-08
1.22424e-12
2.63445e-11
-3.10913e-08
6.56102e-12
1.73708e-11
-3.10886e-08
5.25795e-12
1.10709e-11
-3.10874e-08
-5.47529e-13
6.41136e-12
-3.10874e-08
-5.67072e-12
5.6514e-12
-3.10876e-08
-5.64907e-12
8.83467e-12
-3.10882e-08
1.09835e-12
1.41856e-11
-3.10897e-08
1.58863e-11
2.28248e-11
-3.10923e-08
3.68093e-11
2.93068e-11
-3.10953e-08
6.01219e-11
4.67388e-11
-3.11015e-08
5.44935e-11
-3.11051e-08
8.68291e-11
-5.87607e-11
6.98451e-11
-3.11107e-08
8.45781e-11
-3.8284e-11
6.95058e-11
-3.11066e-08
-1.94408e-11
4.99869e-11
-3.10989e-08
-6.1145e-12
4.49145e-11
-3.10948e-08
3.56722e-13
3.65421e-11
-3.10914e-08
1.49845e-12
3.08529e-11
-3.10894e-08
-1.18965e-12
2.70048e-11
-3.1089e-08
-3.15978e-12
2.60841e-11
-3.10893e-08
-6.21548e-13
2.87869e-11
-3.10903e-08
7.59354e-12
3.33989e-11
-3.10923e-08
2.24018e-11
4.0924e-11
-3.10957e-08
4.19288e-11
4.53907e-11
-3.10995e-08
6.20561e-11
6.50951e-11
-3.11068e-08
6.63998e-11
-3.11104e-08
8.68119e-11
-7.94794e-11
8.1003e-11
-3.11176e-08
1.04338e-10
-5.84031e-11
8.68591e-11
-3.11136e-08
-3.73877e-11
6.57918e-11
-3.11075e-08
-2.09083e-11
6.42697e-11
-3.11022e-08
-1.02732e-11
5.83108e-11
-3.10984e-08
-4.38513e-12
5.49098e-11
-3.10958e-08
-1.91906e-12
5.27452e-11
-3.10952e-08
1.28214e-12
5.13064e-11
-3.10953e-08
8.72016e-12
5.20774e-11
-3.10963e-08
2.14338e-11
5.40143e-11
-3.10988e-08
3.99541e-11
5.88784e-11
-3.11024e-08
6.22261e-11
6.00089e-11
-3.11073e-08
8.34121e-11
8.16078e-11
-3.11129e-08
7.62691e-11
-3.11166e-08
1.07851e-10
-7.31744e-11
-3.11209e-08
9.38768e-11
9.04351e-11
-5.99234e-11
-3.11187e-08
1.07257e-10
-4.54832e-11
-3.11128e-08
8.48846e-11
-3.20821e-11
-3.11076e-08
8.52445e-11
-2.08545e-11
-3.11043e-08
7.98775e-11
-1.12853e-11
-3.11031e-08
7.73117e-11
-2.94574e-12
-3.11029e-08
7.58088e-11
6.35829e-12
-3.11029e-08
7.38014e-11
1.79655e-11
-3.1103e-08
7.36615e-11
3.16616e-11
-3.11038e-08
7.4897e-11
4.74493e-11
-3.11068e-08
7.92947e-11
6.34425e-11
-3.11114e-08
7.89198e-11
7.77439e-11
-3.1117e-08
1.01549e-10
-3.11188e-08
9.53271e-11
8.82308e-11
-8.33109e-11
-9.04241e-11
-3.44648e-08
1.01598e-10
1.04541e-10
-6.82002e-11
-9.61991e-11
-3.44615e-08
1.15503e-10
-4.8622e-11
-7.37302e-11
-3.44571e-08
9.04731e-11
-3.13262e-11
-7.15202e-11
-3.44514e-08
8.84589e-11
-1.51339e-11
-6.47217e-11
-3.44492e-08
8.05523e-11
-8.57555e-13
-5.96644e-11
-3.44491e-08
7.42866e-11
1.12326e-11
-5.51785e-11
-3.44502e-08
6.92885e-11
2.11341e-11
-5.19589e-11
-3.44512e-08
6.51093e-11
3.00328e-11
-4.98939e-11
-3.44523e-08
6.24454e-11
3.87738e-11
-4.94473e-11
-3.44542e-08
6.18821e-11
4.7075e-11
-5.16089e-11
-3.44581e-08
6.43929e-11
5.70994e-11
-5.02524e-11
-3.44652e-08
6.31158e-11
6.24467e-11
-7.21596e-11
-3.44706e-08
8.94703e-11
-6.50373e-11
-3.44741e-08
7.43229e-11
7.85541e-11
-9.11322e-11
-8.10219e-11
-3.44604e-08
1.19697e-10
-6.74214e-11
-8.11443e-11
-3.44554e-08
-4.02433e-11
-6.20613e-11
-3.44516e-08
-1.87539e-11
-5.84887e-11
-3.44466e-08
-2.23852e-12
-5.1134e-11
-3.44447e-08
8.57597e-12
-4.61729e-11
-3.44432e-08
1.44049e-11
-4.16266e-11
-3.44433e-08
1.81512e-11
-3.97726e-11
-3.4444e-08
2.30805e-11
-4.07012e-11
-3.44457e-08
3.02942e-11
-4.20328e-11
-3.44488e-08
4.08453e-11
-4.60264e-11
-3.44527e-08
5.71456e-11
-4.66372e-11
-3.44596e-08
7.07851e-11
-6.44089e-11
-3.4465e-08
-6.40582e-11
-3.44704e-08
9.41616e-11
-7.03628e-11
-6.50831e-11
-3.44549e-08
9.92458e-11
-4.74039e-11
-5.99777e-11
-3.44506e-08
-2.28052e-11
-4.466e-11
-3.44456e-08
-4.68755e-12
-4.13141e-11
-3.44421e-08
8.22295e-12
-3.5097e-11
-3.4441e-08
1.46301e-11
-3.14721e-11
-3.44407e-08
1.6684e-11
-2.83811e-11
-3.44414e-08
1.58608e-11
-2.78181e-11
-3.44417e-08
1.6035e-11
-3.08791e-11
-3.4442e-08
1.96594e-11
-3.25654e-11
-3.44437e-08
2.62613e-11
-3.74887e-11
-3.44466e-08
3.8705e-11
-3.91416e-11
-3.4452e-08
4.96572e-11
-5.22627e-11
-3.4459e-08
-5.70472e-11
-3.44643e-08
7.01811e-11
-7.14879e-11
-4.80664e-11
-3.44484e-08
1.02261e-10
-4.60587e-11
-4.01016e-11
-3.44446e-08
-1.9565e-11
-2.9077e-11
-3.44409e-08
-4.17353e-13
-2.68696e-11
-3.44395e-08
1.17609e-11
-2.28801e-11
-3.44396e-08
1.66404e-11
-2.11015e-11
-3.44398e-08
1.7077e-11
-2.0023e-11
-3.44407e-08
1.49776e-11
-2.11203e-11
-3.44406e-08
1.33567e-11
-2.47039e-11
-3.44401e-08
1.71779e-11
-2.6951e-11
-3.44406e-08
2.50513e-11
-3.13866e-11
-3.44417e-08
3.88208e-11
-3.35338e-11
-3.44455e-08
5.27186e-11
-4.2475e-11
-3.44512e-08
-4.88043e-11
-3.44564e-08
7.41199e-11
-6.94851e-11
-2.88727e-11
-3.44456e-08
1.00006e-10
-4.18022e-11
-2.08318e-11
-3.44417e-08
-1.44175e-11
-1.41335e-11
-3.44387e-08
3.81042e-12
-1.28285e-11
-3.44383e-08
1.45474e-11
-1.0949e-11
-3.44389e-08
1.7305e-11
-1.13137e-11
-3.44395e-08
1.57074e-11
-1.23182e-11
-3.44406e-08
1.23087e-11
-1.47995e-11
-3.44403e-08
9.80823e-12
-1.92095e-11
-3.44391e-08
1.22952e-11
-2.20738e-11
-3.44389e-08
2.10143e-11
-2.51976e-11
-3.44389e-08
3.67071e-11
-2.67285e-11
-3.44411e-08
5.2523e-11
-3.18533e-11
-3.44464e-08
-3.68446e-11
-3.44519e-08
7.41446e-11
-6.91362e-11
-8.95535e-12
-3.4445e-08
9.91123e-11
-4.01616e-11
-3.70124e-12
-3.44396e-08
-1.28035e-11
-5.90982e-13
-3.44376e-08
4.59238e-12
-4.93192e-13
-3.44378e-08
1.39613e-11
-1.09504e-12
-3.4439e-08
1.54448e-11
-3.36012e-12
-3.44397e-08
1.29515e-11
-6.06785e-12
-3.44409e-08
9.15318e-12
-9.24995e-12
-3.44402e-08
6.60143e-12
-1.36902e-11
-3.44385e-08
9.6428e-12
-1.62859e-11
-3.44376e-08
1.97157e-11
-1.84218e-11
-3.4437e-08
3.7002e-11
-1.87682e-11
-3.44381e-08
5.53077e-11
-2.02371e-11
-3.44421e-08
-2.17855e-11
-3.44494e-08
7.73594e-11
-6.82492e-11
9.49106e-12
-3.44454e-08
9.81328e-11
-3.88776e-11
1.09908e-11
-3.44388e-08
-1.21126e-11
1.10132e-11
-3.44371e-08
4.23676e-12
9.89627e-12
-3.44374e-08
1.23916e-11
7.15187e-12
-3.44388e-08
1.28474e-11
3.6116e-12
-3.44397e-08
9.37767e-12
-2.87024e-13
-3.4441e-08
5.27806e-12
-3.68078e-12
-3.44403e-08
3.48622e-12
-7.56947e-12
-3.44384e-08
7.61809e-12
-9.49558e-12
-3.44372e-08
1.84304e-11
-1.01384e-11
-3.44363e-08
3.74159e-11
-9.39527e-12
-3.44369e-08
5.81643e-11
-7.33168e-12
-3.444e-08
-4.35139e-12
-3.44484e-08
8.09271e-11
-6.73621e-11
2.57804e-11
-3.44461e-08
9.68657e-11
-3.88097e-11
2.31135e-11
-3.44394e-08
-1.32843e-11
2.01467e-11
-3.44372e-08
1.96647e-12
1.8255e-11
-3.44372e-08
9.37226e-12
1.45155e-11
-3.44383e-08
9.39801e-12
1.04123e-11
-3.44392e-08
5.53519e-12
5.65416e-12
-3.44405e-08
1.78848e-12
2.4456e-12
-3.44399e-08
1.33843e-12
-1.53012e-13
-3.44381e-08
7.05295e-12
-1.18369e-12
-3.44367e-08
1.92573e-11
-2.05119e-13
-3.44359e-08
3.92221e-11
1.71888e-12
-3.44365e-08
6.08352e-11
6.90396e-12
-3.44397e-08
1.41131e-11
-3.44479e-08
8.40465e-11
-6.54304e-11
3.97894e-11
-3.4447e-08
9.39069e-11
-3.99871e-11
3.41458e-11
-3.44408e-08
-1.67411e-11
2.73961e-11
-3.44377e-08
-2.28255e-12
2.49395e-11
-3.44372e-08
4.61508e-12
2.06594e-11
-3.44377e-08
4.95746e-12
1.6397e-11
-3.44381e-08
1.77123e-12
1.13156e-11
-3.44391e-08
-8.34955e-13
8.83397e-12
-3.44385e-08
4.91687e-13
8.30759e-12
-3.44369e-08
8.01129e-12
8.70554e-12
-3.44359e-08
2.20643e-11
1.10397e-11
-3.44355e-08
4.29472e-11
1.37819e-11
-3.44367e-08
6.40003e-11
2.225e-11
-3.44407e-08
3.16706e-11
-3.44479e-08
8.74692e-11
-6.35073e-11
5.10645e-11
-3.44494e-08
9.10351e-11
-4.10434e-11
4.51136e-11
-3.44444e-08
-1.95716e-11
3.50492e-11
-3.44401e-08
-6.21762e-12
3.21497e-11
-3.44382e-08
4.52065e-14
2.69242e-11
-3.44382e-08
1.07391e-12
2.2424e-11
-3.44382e-08
-1.01584e-12
1.79827e-11
-3.44388e-08
-2.03978e-12
1.639e-11
-3.44384e-08
1.21053e-12
1.74481e-11
-3.44372e-08
9.95353e-12
1.95096e-11
-3.44367e-08
2.47314e-11
2.36027e-11
-3.44369e-08
4.58141e-11
2.64489e-11
-3.44389e-08
6.58152e-11
3.81512e-11
-3.4444e-08
4.67329e-11
-3.44496e-08
8.95978e-11
-6.38413e-11
5.973e-11
-3.44538e-08
9.02838e-11
-4.37844e-11
5.62127e-11
-3.44491e-08
-2.4478e-11
4.29178e-11
-3.44442e-08
-1.23624e-11
4.03623e-11
-3.44407e-08
-4.84193e-12
3.46259e-11
-3.44396e-08
-2.64235e-12
3.07595e-11
-3.4439e-08
-2.80444e-12
2.73241e-11
-3.44392e-08
-1.57089e-12
2.63924e-11
-3.44387e-08
3.69623e-12
2.82895e-11
-3.4438e-08
1.47902e-11
3.09243e-11
-3.4438e-08
2.98606e-11
3.61271e-11
-3.44389e-08
5.03377e-11
3.85656e-11
-3.44427e-08
6.90789e-11
5.34895e-11
-3.44481e-08
5.86405e-11
-3.44535e-08
9.23541e-11
-6.04131e-11
6.82268e-11
-3.44619e-08
8.47622e-11
-4.44175e-11