/*--------------------------------*- C++ -*----------------------------------*\
| =========                 |                                                 |
| \\      /  F ield         | OpenFOAM: The Open Source CFD Toolbox           |
|  \\    /   O peration     | Version:  v2106                                 |
|   \\  /    A nd           | Website:  www.openfoam.com                      |
|    \\/     M anipulation  |                                                 |
\*---------------------------------------------------------------------------*/
FoamFile
{
    version     2.0;
    format      ascii;
    arch        "LSB;label=32;scalar=64";
    class       volScalarField;
    location    "0.000197";
    object      epsilon;
}
// * * * * * * * * * * * * * * * * * * * * * * * * * * * * * * * * * * * * * //

dimensions      [0 2 -3 0 0 0 0];

internalField   nonuniform List<scalar> 
17920
(
1.23674e-08
1.23668e-08
1.23657e-08
1.23652e-08
1.23643e-08
1.23637e-08
1.23626e-08
1.23621e-08
1.23611e-08
1.23605e-08
1.23594e-08
1.2359e-08
1.23578e-08
1.23574e-08
1.23562e-08
1.23558e-08
1.23545e-08
1.23543e-08
1.23529e-08
1.23527e-08
1.23513e-08
1.23512e-08
1.23496e-08
1.23496e-08
1.2348e-08
1.23481e-08
1.23464e-08
1.23464e-08
1.23412e-08
1.23414e-08
1.23415e-08
1.23417e-08
1.23419e-08
1.23421e-08
1.23422e-08
1.23424e-08
1.23425e-08
1.23426e-08
1.23427e-08
1.23427e-08
1.23428e-08
1.23428e-08
1.23402e-08
1.23403e-08
1.23405e-08
1.23407e-08
1.23409e-08
1.2341e-08
1.23412e-08
1.23413e-08
1.23414e-08
1.23415e-08
1.23416e-08
1.23416e-08
1.23416e-08
1.23415e-08
1.23391e-08
1.23393e-08
1.23395e-08
1.23397e-08
1.23398e-08
1.234e-08
1.23402e-08
1.23403e-08
1.23404e-08
1.23405e-08
1.23405e-08
1.23406e-08
1.23406e-08
1.23405e-08
1.23381e-08
1.23383e-08
1.23384e-08
1.23386e-08
1.23388e-08
1.2339e-08
1.23391e-08
1.23392e-08
1.23393e-08
1.23394e-08
1.23395e-08
1.23395e-08
1.23396e-08
1.23395e-08
1.2337e-08
1.23372e-08
1.23374e-08
1.23376e-08
1.23377e-08
1.23379e-08
1.2338e-08
1.23382e-08
1.23383e-08
1.23384e-08
1.23384e-08
1.23385e-08
1.23385e-08
1.23385e-08
1.2336e-08
1.23362e-08
1.23363e-08
1.23365e-08
1.23367e-08
1.23368e-08
1.2337e-08
1.23371e-08
1.23372e-08
1.23373e-08
1.23374e-08
1.23374e-08
1.23375e-08
1.23375e-08
1.2335e-08
1.23351e-08
1.23353e-08
1.23354e-08
1.23356e-08
1.23357e-08
1.23359e-08
1.2336e-08
1.23361e-08
1.23362e-08
1.23363e-08
1.23364e-08
1.23365e-08
1.23365e-08
1.23339e-08
1.2334e-08
1.23342e-08
1.23343e-08
1.23345e-08
1.23347e-08
1.23348e-08
1.23349e-08
1.23351e-08
1.23352e-08
1.23353e-08
1.23354e-08
1.23354e-08
1.23355e-08
1.23328e-08
1.2333e-08
1.23331e-08
1.23333e-08
1.23334e-08
1.23336e-08
1.23337e-08
1.23339e-08
1.2334e-08
1.23341e-08
1.23342e-08
1.23344e-08
1.23344e-08
1.23345e-08
1.23318e-08
1.23318e-08
1.2332e-08
1.23322e-08
1.23323e-08
1.23325e-08
1.23326e-08
1.23328e-08
1.23329e-08
1.23331e-08
1.23332e-08
1.23333e-08
1.23334e-08
1.23336e-08
1.23307e-08
1.23308e-08
1.23309e-08
1.23311e-08
1.23312e-08
1.23314e-08
1.23315e-08
1.23317e-08
1.23318e-08
1.2332e-08
1.23321e-08
1.23323e-08
1.23324e-08
1.23326e-08
1.23297e-08
1.23296e-08
1.23298e-08
1.233e-08
1.23301e-08
1.23303e-08
1.23305e-08
1.23306e-08
1.23308e-08
1.2331e-08
1.23311e-08
1.23313e-08
1.23314e-08
1.23316e-08
1.23286e-08
1.23286e-08
1.23288e-08
1.23289e-08
1.23291e-08
1.23292e-08
1.23294e-08
1.23296e-08
1.23297e-08
1.23299e-08
1.23301e-08
1.23302e-08
1.23304e-08
1.23307e-08
1.23275e-08
1.23275e-08
1.23277e-08
1.23278e-08
1.2328e-08
1.23282e-08
1.23283e-08
1.23285e-08
1.23287e-08
1.23289e-08
1.2329e-08
1.23292e-08
1.23294e-08
1.23296e-08
1.23091e-08
1.23095e-08
1.23099e-08
1.23103e-08
1.23108e-08
1.23112e-08
1.23117e-08
1.23121e-08
1.23125e-08
1.2313e-08
1.23134e-08
1.23138e-08
1.23143e-08
1.23147e-08
1.23087e-08
1.23091e-08
1.23095e-08
1.231e-08
1.23104e-08
1.23109e-08
1.23113e-08
1.23118e-08
1.23122e-08
1.23126e-08
1.2313e-08
1.23135e-08
1.23139e-08
1.23142e-08
1.23083e-08
1.23088e-08
1.23092e-08
1.23096e-08
1.23101e-08
1.23105e-08
1.2311e-08
1.23114e-08
1.23119e-08
1.23123e-08
1.23127e-08
1.23131e-08
1.23135e-08
1.23138e-08
1.2308e-08
1.23084e-08
1.23088e-08
1.23093e-08
1.23097e-08
1.23102e-08
1.23106e-08
1.23111e-08
1.23115e-08
1.23119e-08
1.23124e-08
1.23128e-08
1.23131e-08
1.23134e-08
1.23076e-08
1.23081e-08
1.23085e-08
1.23089e-08
1.23094e-08
1.23098e-08
1.23103e-08
1.23107e-08
1.23112e-08
1.23116e-08
1.2312e-08
1.23124e-08
1.23128e-08
1.23131e-08
1.23073e-08
1.23077e-08
1.23081e-08
1.23086e-08
1.2309e-08
1.23095e-08
1.23099e-08
1.23104e-08
1.23108e-08
1.23112e-08
1.23116e-08
1.2312e-08
1.23124e-08
1.23127e-08
1.23069e-08
1.23073e-08
1.23078e-08
1.23082e-08
1.23087e-08
1.23091e-08
1.23096e-08
1.231e-08
1.23104e-08
1.23109e-08
1.23113e-08
1.23117e-08
1.23121e-08
1.23124e-08
1.23065e-08
1.2307e-08
1.23074e-08
1.23078e-08
1.23083e-08
1.23087e-08
1.23092e-08
1.23096e-08
1.23101e-08
1.23105e-08
1.23109e-08
1.23113e-08
1.23117e-08
1.23121e-08
1.23062e-08
1.23066e-08
1.2307e-08
1.23075e-08
1.23079e-08
1.23084e-08
1.23088e-08
1.23093e-08
1.23097e-08
1.23101e-08
1.23106e-08
1.2311e-08
1.23113e-08
1.23117e-08
1.23058e-08
1.23062e-08
1.23066e-08
1.23071e-08
1.23075e-08
1.2308e-08
1.23084e-08
1.23089e-08
1.23093e-08
1.23098e-08
1.23102e-08
1.23106e-08
1.2311e-08
1.23114e-08
1.23054e-08
1.23058e-08
1.23062e-08
1.23067e-08
1.23071e-08
1.23076e-08
1.2308e-08
1.23085e-08
1.2309e-08
1.23094e-08
1.23098e-08
1.23103e-08
1.23106e-08
1.23111e-08
1.2305e-08
1.23054e-08
1.23058e-08
1.23063e-08
1.23067e-08
1.23072e-08
1.23077e-08
1.23081e-08
1.23086e-08
1.2309e-08
1.23095e-08
1.23099e-08
1.23103e-08
1.23107e-08
1.23046e-08
1.2305e-08
1.23054e-08
1.23059e-08
1.23063e-08
1.23068e-08
1.23073e-08
1.23077e-08
1.23082e-08
1.23087e-08
1.23091e-08
1.23095e-08
1.231e-08
1.23105e-08
1.23042e-08
1.23046e-08
1.2305e-08
1.23055e-08
1.23059e-08
1.23064e-08
1.23069e-08
1.23073e-08
1.23078e-08
1.23083e-08
1.23087e-08
1.23092e-08
1.23096e-08
1.23101e-08
1.22772e-08
1.22776e-08
1.22781e-08
1.22786e-08
1.22791e-08
1.22796e-08
1.22801e-08
1.22806e-08
1.22812e-08
1.22817e-08
1.22823e-08
1.22829e-08
1.22835e-08
1.22841e-08
1.22773e-08
1.22777e-08
1.22782e-08
1.22787e-08
1.22792e-08
1.22798e-08
1.22803e-08
1.22809e-08
1.22814e-08
1.2282e-08
1.22825e-08
1.22831e-08
1.22836e-08
1.22842e-08
1.22775e-08
1.22779e-08
1.22784e-08
1.22789e-08
1.22795e-08
1.228e-08
1.22805e-08
1.22811e-08
1.22816e-08
1.22822e-08
1.22827e-08
1.22833e-08
1.22838e-08
1.22844e-08
1.22776e-08
1.22781e-08
1.22786e-08
1.22791e-08
1.22797e-08
1.22802e-08
1.22807e-08
1.22813e-08
1.22818e-08
1.22824e-08
1.22829e-08
1.22835e-08
1.2284e-08
1.22846e-08
1.22778e-08
1.22783e-08
1.22788e-08
1.22793e-08
1.22799e-08
1.22804e-08
1.2281e-08
1.22815e-08
1.2282e-08
1.22826e-08
1.22831e-08
1.22837e-08
1.22842e-08
1.22847e-08
1.2278e-08
1.22785e-08
1.2279e-08
1.22795e-08
1.22801e-08
1.22806e-08
1.22812e-08
1.22817e-08
1.22823e-08
1.22828e-08
1.22833e-08
1.22839e-08
1.22844e-08
1.22849e-08
1.22782e-08
1.22787e-08
1.22792e-08
1.22797e-08
1.22803e-08
1.22808e-08
1.22814e-08
1.22819e-08
1.22825e-08
1.2283e-08
1.22835e-08
1.22841e-08
1.22846e-08
1.22851e-08
1.22783e-08
1.22789e-08
1.22794e-08
1.22799e-08
1.22805e-08
1.2281e-08
1.22816e-08
1.22821e-08
1.22827e-08
1.22832e-08
1.22837e-08
1.22843e-08
1.22848e-08
1.22853e-08
1.22785e-08
1.2279e-08
1.22795e-08
1.22801e-08
1.22806e-08
1.22812e-08
1.22817e-08
1.22823e-08
1.22828e-08
1.22834e-08
1.22839e-08
1.22844e-08
1.2285e-08
1.22854e-08
1.22787e-08
1.22792e-08
1.22797e-08
1.22803e-08
1.22808e-08
1.22814e-08
1.22819e-08
1.22825e-08
1.2283e-08
1.22836e-08
1.22841e-08
1.22846e-08
1.22851e-08
1.22856e-08
1.22788e-08
1.22794e-08
1.22799e-08
1.22804e-08
1.2281e-08
1.22816e-08
1.22821e-08
1.22827e-08
1.22832e-08
1.22838e-08
1.22843e-08
1.22848e-08
1.22853e-08
1.22858e-08
1.2279e-08
1.22795e-08
1.228e-08
1.22806e-08
1.22812e-08
1.22817e-08
1.22823e-08
1.22829e-08
1.22834e-08
1.2284e-08
1.22845e-08
1.2285e-08
1.22855e-08
1.2286e-08
1.22792e-08
1.22797e-08
1.22802e-08
1.22808e-08
1.22813e-08
1.22819e-08
1.22825e-08
1.2283e-08
1.22836e-08
1.22841e-08
1.22847e-08
1.22852e-08
1.22857e-08
1.22863e-08
1.22793e-08
1.22798e-08
1.22804e-08
1.22809e-08
1.22815e-08
1.22821e-08
1.22826e-08
1.22832e-08
1.22838e-08
1.22843e-08
1.22848e-08
1.22854e-08
1.22859e-08
1.22865e-08
1.22465e-08
1.22468e-08
1.22472e-08
1.22476e-08
1.2248e-08
1.22484e-08
1.22489e-08
1.22493e-08
1.22498e-08
1.22503e-08
1.22508e-08
1.22513e-08
1.22518e-08
1.22524e-08
1.22469e-08
1.22472e-08
1.22476e-08
1.2248e-08
1.22484e-08
1.22489e-08
1.22493e-08
1.22498e-08
1.22503e-08
1.22508e-08
1.22513e-08
1.22518e-08
1.22523e-08
1.22529e-08
1.22473e-08
1.22477e-08
1.22481e-08
1.22485e-08
1.22489e-08
1.22494e-08
1.22498e-08
1.22503e-08
1.22507e-08
1.22512e-08
1.22517e-08
1.22523e-08
1.22528e-08
1.22533e-08
1.22478e-08
1.22481e-08
1.22485e-08
1.22489e-08
1.22494e-08
1.22498e-08
1.22503e-08
1.22508e-08
1.22512e-08
1.22517e-08
1.22522e-08
1.22528e-08
1.22533e-08
1.22538e-08
1.22482e-08
1.22486e-08
1.2249e-08
1.22494e-08
1.22499e-08
1.22503e-08
1.22508e-08
1.22512e-08
1.22517e-08
1.22522e-08
1.22527e-08
1.22532e-08
1.22537e-08
1.22543e-08
1.22487e-08
1.22491e-08
1.22495e-08
1.22499e-08
1.22503e-08
1.22508e-08
1.22513e-08
1.22517e-08
1.22522e-08
1.22527e-08
1.22532e-08
1.22537e-08
1.22542e-08
1.22547e-08
1.22491e-08
1.22495e-08
1.225e-08
1.22504e-08
1.22508e-08
1.22513e-08
1.22518e-08
1.22522e-08
1.22527e-08
1.22532e-08
1.22537e-08
1.22542e-08
1.22547e-08
1.22552e-08
1.22496e-08
1.225e-08
1.22504e-08
1.22509e-08
1.22513e-08
1.22518e-08
1.22523e-08
1.22527e-08
1.22532e-08
1.22537e-08
1.22542e-08
1.22547e-08
1.22552e-08
1.22557e-08
1.22501e-08
1.22505e-08
1.22509e-08
1.22514e-08
1.22518e-08
1.22523e-08
1.22528e-08
1.22532e-08
1.22537e-08
1.22542e-08
1.22547e-08
1.22552e-08
1.22557e-08
1.22561e-08
1.22506e-08
1.2251e-08
1.22514e-08
1.22519e-08
1.22523e-08
1.22528e-08
1.22533e-08
1.22538e-08
1.22542e-08
1.22547e-08
1.22552e-08
1.22557e-08
1.22562e-08
1.22566e-08
1.2251e-08
1.22515e-08
1.22519e-08
1.22524e-08
1.22528e-08
1.22533e-08
1.22538e-08
1.22543e-08
1.22548e-08
1.22552e-08
1.22557e-08
1.22562e-08
1.22566e-08
1.22571e-08
1.22515e-08
1.2252e-08
1.22524e-08
1.22529e-08
1.22534e-08
1.22538e-08
1.22543e-08
1.22548e-08
1.22553e-08
1.22558e-08
1.22562e-08
1.22567e-08
1.22572e-08
1.22576e-08
1.2252e-08
1.22525e-08
1.22529e-08
1.22534e-08
1.22539e-08
1.22543e-08
1.22548e-08
1.22553e-08
1.22558e-08
1.22563e-08
1.22567e-08
1.22572e-08
1.22577e-08
1.22582e-08
1.22525e-08
1.2253e-08
1.22534e-08
1.22539e-08
1.22544e-08
1.22549e-08
1.22553e-08
1.22558e-08
1.22563e-08
1.22568e-08
1.22572e-08
1.22577e-08
1.22582e-08
1.22587e-08
1.22177e-08
1.22179e-08
1.22181e-08
1.22183e-08
1.22186e-08
1.22188e-08
1.22191e-08
1.22193e-08
1.22196e-08
1.22199e-08
1.22203e-08
1.22206e-08
1.2221e-08
1.22214e-08
1.22181e-08
1.22183e-08
1.22185e-08
1.22187e-08
1.2219e-08
1.22192e-08
1.22195e-08
1.22198e-08
1.22201e-08
1.22204e-08
1.22208e-08
1.22211e-08
1.22215e-08
1.22219e-08
1.22185e-08
1.22187e-08
1.22189e-08
1.22192e-08
1.22194e-08
1.22197e-08
1.222e-08
1.22203e-08
1.22206e-08
1.22209e-08
1.22212e-08
1.22216e-08
1.2222e-08
1.22224e-08
1.2219e-08
1.22192e-08
1.22194e-08
1.22196e-08
1.22199e-08
1.22202e-08
1.22204e-08
1.22207e-08
1.2221e-08
1.22214e-08
1.22217e-08
1.22221e-08
1.22225e-08
1.22229e-08
1.22195e-08
1.22197e-08
1.22199e-08
1.22201e-08
1.22204e-08
1.22206e-08
1.22209e-08
1.22212e-08
1.22215e-08
1.22219e-08
1.22222e-08
1.22226e-08
1.2223e-08
1.22234e-08
1.222e-08
1.22202e-08
1.22204e-08
1.22206e-08
1.22209e-08
1.22211e-08
1.22214e-08
1.22217e-08
1.2222e-08
1.22224e-08
1.22227e-08
1.22231e-08
1.22235e-08
1.22239e-08
1.22205e-08
1.22207e-08
1.22209e-08
1.22211e-08
1.22214e-08
1.22217e-08
1.22219e-08
1.22223e-08
1.22226e-08
1.22229e-08
1.22233e-08
1.22236e-08
1.2224e-08
1.22244e-08
1.2221e-08
1.22212e-08
1.22214e-08
1.22217e-08
1.22219e-08
1.22222e-08
1.22225e-08
1.22228e-08
1.22231e-08
1.22234e-08
1.22238e-08
1.22241e-08
1.22245e-08
1.22249e-08
1.22215e-08
1.22218e-08
1.2222e-08
1.22222e-08
1.22225e-08
1.22228e-08
1.2223e-08
1.22234e-08
1.22237e-08
1.2224e-08
1.22243e-08
1.22247e-08
1.2225e-08
1.22254e-08
1.22221e-08
1.22223e-08
1.22225e-08
1.22228e-08
1.22231e-08
1.22233e-08
1.22236e-08
1.22239e-08
1.22242e-08
1.22246e-08
1.22249e-08
1.22252e-08
1.22256e-08
1.22259e-08
1.22226e-08
1.22229e-08
1.22231e-08
1.22234e-08
1.22236e-08
1.22239e-08
1.22242e-08
1.22245e-08
1.22248e-08
1.22251e-08
1.22255e-08
1.22258e-08
1.22261e-08
1.22264e-08
1.22232e-08
1.22235e-08
1.22237e-08
1.2224e-08
1.22242e-08
1.22245e-08
1.22248e-08
1.22251e-08
1.22254e-08
1.22257e-08
1.22261e-08
1.22264e-08
1.22267e-08
1.2227e-08
1.22238e-08
1.2224e-08
1.22243e-08
1.22246e-08
1.22248e-08
1.22251e-08
1.22254e-08
1.22257e-08
1.2226e-08
1.22263e-08
1.22266e-08
1.2227e-08
1.22273e-08
1.22276e-08
1.22244e-08
1.22246e-08
1.22249e-08
1.22252e-08
1.22255e-08
1.22257e-08
1.2226e-08
1.22263e-08
1.22266e-08
1.22269e-08
1.22272e-08
1.22275e-08
1.22279e-08
1.22282e-08
1.21911e-08
1.21912e-08
1.21912e-08
1.21913e-08
1.21914e-08
1.21915e-08
1.21916e-08
1.21917e-08
1.21918e-08
1.21919e-08
1.2192e-08
1.21922e-08
1.21923e-08
1.21926e-08
1.21914e-08
1.21914e-08
1.21915e-08
1.21916e-08
1.21917e-08
1.21917e-08
1.21918e-08
1.2192e-08
1.21921e-08
1.21922e-08
1.21924e-08
1.21925e-08
1.21927e-08
1.21929e-08
1.21917e-08
1.21917e-08
1.21918e-08
1.21919e-08
1.21919e-08
1.2192e-08
1.21921e-08
1.21923e-08
1.21924e-08
1.21925e-08
1.21927e-08
1.21928e-08
1.2193e-08
1.21933e-08
1.21921e-08
1.21921e-08
1.21921e-08
1.21922e-08
1.21923e-08
1.21924e-08
1.21925e-08
1.21926e-08
1.21927e-08
1.21929e-08
1.2193e-08
1.21932e-08
1.21934e-08
1.21936e-08
1.21924e-08
1.21924e-08
1.21925e-08
1.21925e-08
1.21926e-08
1.21927e-08
1.21928e-08
1.21929e-08
1.2193e-08
1.21932e-08
1.21934e-08
1.21935e-08
1.21937e-08
1.2194e-08
1.21928e-08
1.21928e-08
1.21928e-08
1.21929e-08
1.2193e-08
1.2193e-08
1.21932e-08
1.21933e-08
1.21934e-08
1.21936e-08
1.21937e-08
1.21939e-08
1.21941e-08
1.21943e-08
1.21931e-08
1.21932e-08
1.21932e-08
1.21933e-08
1.21933e-08
1.21934e-08
1.21935e-08
1.21937e-08
1.21938e-08
1.21939e-08
1.21941e-08
1.21943e-08
1.21945e-08
1.21947e-08
1.21935e-08
1.21936e-08
1.21936e-08
1.21937e-08
1.21937e-08
1.21938e-08
1.21939e-08
1.21941e-08
1.21942e-08
1.21943e-08
1.21945e-08
1.21947e-08
1.21949e-08
1.21951e-08
1.2194e-08
1.2194e-08
1.2194e-08
1.21941e-08
1.21942e-08
1.21943e-08
1.21944e-08
1.21945e-08
1.21946e-08
1.21948e-08
1.21949e-08
1.21951e-08
1.21953e-08
1.21955e-08
1.21944e-08
1.21944e-08
1.21945e-08
1.21945e-08
1.21946e-08
1.21947e-08
1.21948e-08
1.21949e-08
1.2195e-08
1.21952e-08
1.21954e-08
1.21955e-08
1.21957e-08
1.21959e-08
1.21948e-08
1.21949e-08
1.21949e-08
1.2195e-08
1.21951e-08
1.21952e-08
1.21953e-08
1.21954e-08
1.21955e-08
1.21956e-08
1.21958e-08
1.2196e-08
1.21961e-08
1.21963e-08
1.21953e-08
1.21953e-08
1.21954e-08
1.21955e-08
1.21955e-08
1.21956e-08
1.21957e-08
1.21958e-08
1.2196e-08
1.21961e-08
1.21962e-08
1.21964e-08
1.21966e-08
1.21967e-08
1.21957e-08
1.21958e-08
1.21959e-08
1.21959e-08
1.2196e-08
1.21961e-08
1.21962e-08
1.21963e-08
1.21964e-08
1.21966e-08
1.21967e-08
1.21968e-08
1.2197e-08
1.21971e-08
1.21963e-08
1.21963e-08
1.21964e-08
1.21964e-08
1.21965e-08
1.21966e-08
1.21967e-08
1.21968e-08
1.21969e-08
1.21971e-08
1.21972e-08
1.21973e-08
1.21975e-08
1.21976e-08
1.21669e-08
1.21668e-08
1.21668e-08
1.21668e-08
1.21668e-08
1.21667e-08
1.21667e-08
1.21667e-08
1.21667e-08
1.21667e-08
1.21667e-08
1.21667e-08
1.21667e-08
1.21667e-08
1.2167e-08
1.2167e-08
1.21669e-08
1.21669e-08
1.21669e-08
1.21669e-08
1.21669e-08
1.21668e-08
1.21668e-08
1.21668e-08
1.21668e-08
1.21668e-08
1.21669e-08
1.21669e-08
1.21672e-08
1.21671e-08
1.21671e-08
1.21671e-08
1.2167e-08
1.2167e-08
1.2167e-08
1.2167e-08
1.2167e-08
1.2167e-08
1.2167e-08
1.2167e-08
1.2167e-08
1.21671e-08
1.21674e-08
1.21673e-08
1.21673e-08
1.21672e-08
1.21672e-08
1.21672e-08
1.21672e-08
1.21671e-08
1.21671e-08
1.21671e-08
1.21672e-08
1.21672e-08
1.21672e-08
1.21672e-08
1.21675e-08
1.21675e-08
1.21674e-08
1.21674e-08
1.21674e-08
1.21673e-08
1.21673e-08
1.21673e-08
1.21673e-08
1.21673e-08
1.21673e-08
1.21674e-08
1.21674e-08
1.21674e-08
1.21677e-08
1.21677e-08
1.21676e-08
1.21676e-08
1.21675e-08
1.21675e-08
1.21675e-08
1.21675e-08
1.21675e-08
1.21675e-08
1.21675e-08
1.21675e-08
1.21676e-08
1.21676e-08
1.21679e-08
1.21679e-08
1.21678e-08
1.21678e-08
1.21677e-08
1.21677e-08
1.21677e-08
1.21677e-08
1.21677e-08
1.21677e-08
1.21677e-08
1.21677e-08
1.21678e-08
1.21678e-08
1.21681e-08
1.21681e-08
1.2168e-08
1.2168e-08
1.2168e-08
1.21679e-08
1.21679e-08
1.21679e-08
1.21679e-08
1.21679e-08
1.21679e-08
1.2168e-08
1.2168e-08
1.2168e-08
1.21684e-08
1.21683e-08
1.21683e-08
1.21682e-08
1.21682e-08
1.21682e-08
1.21681e-08
1.21681e-08
1.21681e-08
1.21681e-08
1.21681e-08
1.21682e-08
1.21682e-08
1.21682e-08
1.21686e-08
1.21685e-08
1.21685e-08
1.21684e-08
1.21684e-08
1.21684e-08
1.21684e-08
1.21683e-08
1.21683e-08
1.21684e-08
1.21684e-08
1.21684e-08
1.21684e-08
1.21684e-08
1.21688e-08
1.21688e-08
1.21687e-08
1.21687e-08
1.21687e-08
1.21686e-08
1.21686e-08
1.21686e-08
1.21686e-08
1.21686e-08
1.21686e-08
1.21686e-08
1.21686e-08
1.21686e-08
1.21691e-08
1.2169e-08
1.2169e-08
1.21689e-08
1.21689e-08
1.21689e-08
1.21688e-08
1.21688e-08
1.21688e-08
1.21688e-08
1.21688e-08
1.21688e-08
1.21689e-08
1.21689e-08
1.21693e-08
1.21693e-08
1.21692e-08
1.21692e-08
1.21691e-08
1.21691e-08
1.21691e-08
1.21691e-08
1.21691e-08
1.21691e-08
1.21691e-08
1.21691e-08
1.21691e-08
1.21691e-08
1.21696e-08
1.21695e-08
1.21695e-08
1.21694e-08
1.21694e-08
1.21694e-08
1.21693e-08
1.21693e-08
1.21693e-08
1.21693e-08
1.21693e-08
1.21693e-08
1.21693e-08
1.21693e-08
1.21448e-08
1.21447e-08
1.21446e-08
1.21446e-08
1.21445e-08
1.21445e-08
1.21444e-08
1.21444e-08
1.21443e-08
1.21443e-08
1.21442e-08
1.21441e-08
1.2144e-08
1.21439e-08
1.21448e-08
1.21448e-08
1.21447e-08
1.21447e-08
1.21446e-08
1.21446e-08
1.21445e-08
1.21444e-08
1.21444e-08
1.21443e-08
1.21442e-08
1.21441e-08
1.21441e-08
1.2144e-08
1.21449e-08
1.21448e-08
1.21448e-08
1.21447e-08
1.21447e-08
1.21446e-08
1.21446e-08
1.21445e-08
1.21444e-08
1.21443e-08
1.21443e-08
1.21442e-08
1.21441e-08
1.2144e-08
1.21449e-08
1.21449e-08
1.21448e-08
1.21448e-08
1.21447e-08
1.21447e-08
1.21446e-08
1.21445e-08
1.21445e-08
1.21444e-08
1.21443e-08
1.21442e-08
1.21442e-08
1.21441e-08
1.2145e-08
1.2145e-08
1.21449e-08
1.21449e-08
1.21448e-08
1.21447e-08
1.21447e-08
1.21446e-08
1.21445e-08
1.21445e-08
1.21444e-08
1.21443e-08
1.21442e-08
1.21441e-08
1.21451e-08
1.2145e-08
1.2145e-08
1.21449e-08
1.21449e-08
1.21448e-08
1.21447e-08
1.21447e-08
1.21446e-08
1.21445e-08
1.21444e-08
1.21443e-08
1.21443e-08
1.21442e-08
1.21451e-08
1.21451e-08
1.2145e-08
1.2145e-08
1.21449e-08
1.21449e-08
1.21448e-08
1.21447e-08
1.21446e-08
1.21446e-08
1.21445e-08
1.21444e-08
1.21443e-08
1.21442e-08
1.21452e-08
1.21451e-08
1.21451e-08
1.2145e-08
1.2145e-08
1.21449e-08
1.21448e-08
1.21448e-08
1.21447e-08
1.21446e-08
1.21445e-08
1.21445e-08
1.21444e-08
1.21443e-08
1.21452e-08
1.21452e-08
1.21451e-08
1.21451e-08
1.2145e-08
1.2145e-08
1.21449e-08
1.21448e-08
1.21447e-08
1.21447e-08
1.21446e-08
1.21445e-08
1.21444e-08
1.21444e-08
1.21453e-08
1.21452e-08
1.21452e-08
1.21451e-08
1.21451e-08
1.2145e-08
1.21449e-08
1.21449e-08
1.21448e-08
1.21447e-08
1.21446e-08
1.21446e-08
1.21445e-08
1.21444e-08
1.21453e-08
1.21453e-08
1.21452e-08
1.21452e-08
1.21451e-08
1.2145e-08
1.2145e-08
1.21449e-08
1.21448e-08
1.21448e-08
1.21447e-08
1.21446e-08
1.21445e-08
1.21444e-08
1.21454e-08
1.21453e-08
1.21453e-08
1.21452e-08
1.21451e-08
1.21451e-08
1.2145e-08
1.21449e-08
1.21449e-08
1.21448e-08
1.21447e-08
1.21446e-08
1.21446e-08
1.21445e-08
1.21454e-08
1.21454e-08
1.21453e-08
1.21452e-08
1.21452e-08
1.21451e-08
1.2145e-08
1.2145e-08
1.21449e-08
1.21448e-08
1.21447e-08
1.21447e-08
1.21446e-08
1.21445e-08
1.21455e-08
1.21454e-08
1.21453e-08
1.21453e-08
1.21452e-08
1.21451e-08
1.21451e-08
1.2145e-08
1.21449e-08
1.21448e-08
1.21448e-08
1.21447e-08
1.21446e-08
1.21446e-08
1.21245e-08
1.21245e-08
1.21244e-08
1.21244e-08
1.21244e-08
1.21243e-08
1.21243e-08
1.21242e-08
1.21242e-08
1.21241e-08
1.2124e-08
1.21239e-08
1.21238e-08
1.21236e-08
1.21245e-08
1.21245e-08
1.21245e-08
1.21245e-08
1.21244e-08
1.21244e-08
1.21244e-08
1.21243e-08
1.21242e-08
1.21241e-08
1.2124e-08
1.21239e-08
1.21238e-08
1.21236e-08
1.21246e-08
1.21246e-08
1.21245e-08
1.21245e-08
1.21245e-08
1.21244e-08
1.21244e-08
1.21243e-08
1.21243e-08
1.21242e-08
1.2124e-08
1.21239e-08
1.21238e-08
1.21236e-08
1.21246e-08
1.21246e-08
1.21246e-08
1.21246e-08
1.21245e-08
1.21245e-08
1.21244e-08
1.21244e-08
1.21243e-08
1.21242e-08
1.21241e-08
1.21239e-08
1.21238e-08
1.21236e-08
1.21246e-08
1.21246e-08
1.21246e-08
1.21246e-08
1.21245e-08
1.21245e-08
1.21244e-08
1.21244e-08
1.21243e-08
1.21242e-08
1.21241e-08
1.21239e-08
1.21238e-08
1.21237e-08
1.21246e-08
1.21246e-08
1.21246e-08
1.21246e-08
1.21245e-08
1.21245e-08
1.21244e-08
1.21244e-08
1.21243e-08
1.21242e-08
1.21241e-08
1.21239e-08
1.21238e-08
1.21237e-08
1.21246e-08
1.21246e-08
1.21246e-08
1.21246e-08
1.21245e-08
1.21245e-08
1.21244e-08
1.21244e-08
1.21243e-08
1.21242e-08
1.21241e-08
1.21239e-08
1.21238e-08
1.21236e-08
1.21245e-08
1.21245e-08
1.21245e-08
1.21245e-08
1.21245e-08
1.21245e-08
1.21244e-08
1.21243e-08
1.21242e-08
1.21241e-08
1.2124e-08
1.21239e-08
1.21238e-08
1.21236e-08
1.21245e-08
1.21245e-08
1.21245e-08
1.21245e-08
1.21245e-08
1.21244e-08
1.21244e-08
1.21243e-08
1.21242e-08
1.21241e-08
1.2124e-08
1.21239e-08
1.21237e-08
1.21236e-08
1.21244e-08
1.21244e-08
1.21244e-08
1.21244e-08
1.21244e-08
1.21244e-08
1.21243e-08
1.21242e-08
1.21241e-08
1.2124e-08
1.21239e-08
1.21238e-08
1.21237e-08
1.21235e-08
1.21244e-08
1.21244e-08
1.21244e-08
1.21244e-08
1.21243e-08
1.21243e-08
1.21242e-08
1.21241e-08
1.21241e-08
1.2124e-08
1.21239e-08
1.21237e-08
1.21236e-08
1.21235e-08
1.21243e-08
1.21243e-08
1.21243e-08
1.21243e-08
1.21242e-08
1.21242e-08
1.21241e-08
1.21241e-08
1.2124e-08
1.21239e-08
1.21238e-08
1.21237e-08
1.21235e-08
1.21234e-08
1.21242e-08
1.21242e-08
1.21242e-08
1.21242e-08
1.21241e-08
1.21241e-08
1.2124e-08
1.2124e-08
1.21239e-08
1.21238e-08
1.21237e-08
1.21236e-08
1.21234e-08
1.21233e-08
1.21241e-08
1.21241e-08
1.21241e-08
1.21241e-08
1.2124e-08
1.2124e-08
1.21239e-08
1.21238e-08
1.21238e-08
1.21237e-08
1.21236e-08
1.21235e-08
1.21234e-08
1.21233e-08
1.21058e-08
1.21058e-08
1.21059e-08
1.21059e-08
1.21059e-08
1.21059e-08
1.21059e-08
1.21059e-08
1.21058e-08
1.21057e-08
1.21056e-08
1.21055e-08
1.21054e-08
1.21053e-08
1.21059e-08
1.21059e-08
1.21059e-08
1.2106e-08
1.2106e-08
1.2106e-08
1.2106e-08
1.21059e-08
1.21059e-08
1.21058e-08
1.21057e-08
1.21056e-08
1.21054e-08
1.21053e-08
1.21059e-08
1.2106e-08
1.2106e-08
1.2106e-08
1.2106e-08
1.2106e-08
1.2106e-08
1.2106e-08
1.21059e-08
1.21058e-08
1.21057e-08
1.21056e-08
1.21055e-08
1.21053e-08
1.21059e-08
1.2106e-08
1.2106e-08
1.21061e-08
1.21061e-08
1.21061e-08
1.21061e-08
1.2106e-08
1.2106e-08
1.21059e-08
1.21058e-08
1.21056e-08
1.21055e-08
1.21053e-08
1.2106e-08
1.2106e-08
1.21061e-08
1.21061e-08
1.21061e-08
1.21061e-08
1.21061e-08
1.2106e-08
1.2106e-08
1.21059e-08
1.21058e-08
1.21057e-08
1.21055e-08
1.21054e-08
1.21059e-08
1.2106e-08
1.21061e-08
1.21061e-08
1.21061e-08
1.21061e-08
1.21061e-08
1.2106e-08
1.2106e-08
1.21059e-08
1.21058e-08
1.21056e-08
1.21055e-08
1.21053e-08
1.21059e-08
1.2106e-08
1.2106e-08
1.21061e-08
1.21061e-08
1.21061e-08
1.2106e-08
1.2106e-08
1.21059e-08
1.21059e-08
1.21057e-08
1.21056e-08
1.21055e-08
1.21053e-08
1.21059e-08
1.21059e-08
1.2106e-08
1.2106e-08
1.2106e-08
1.2106e-08
1.2106e-08
1.2106e-08
1.21059e-08
1.21058e-08
1.21057e-08
1.21056e-08
1.21054e-08
1.21053e-08
1.21058e-08
1.21059e-08
1.21059e-08
1.2106e-08
1.2106e-08
1.2106e-08
1.21059e-08
1.21059e-08
1.21058e-08
1.21057e-08
1.21056e-08
1.21055e-08
1.21054e-08
1.21052e-08
1.21057e-08
1.21058e-08
1.21058e-08
1.21059e-08
1.21059e-08
1.21059e-08
1.21058e-08
1.21058e-08
1.21057e-08
1.21056e-08
1.21055e-08
1.21054e-08
1.21053e-08
1.21051e-08
1.21056e-08
1.21057e-08
1.21057e-08
1.21058e-08
1.21058e-08
1.21058e-08
1.21057e-08
1.21057e-08
1.21056e-08
1.21055e-08
1.21054e-08
1.21053e-08
1.21052e-08
1.21051e-08
1.21055e-08
1.21056e-08
1.21056e-08
1.21056e-08
1.21056e-08
1.21056e-08
1.21056e-08
1.21056e-08
1.21055e-08
1.21054e-08
1.21053e-08
1.21052e-08
1.21051e-08
1.21049e-08
1.21054e-08
1.21054e-08
1.21055e-08
1.21055e-08
1.21055e-08
1.21055e-08
1.21055e-08
1.21054e-08
1.21053e-08
1.21053e-08
1.21052e-08
1.21051e-08
1.21049e-08
1.21048e-08
1.21052e-08
1.21053e-08
1.21053e-08
1.21053e-08
1.21053e-08
1.21053e-08
1.21053e-08
1.21052e-08
1.21052e-08
1.21051e-08
1.2105e-08
1.21049e-08
1.21048e-08
1.21047e-08
1.20886e-08
1.20887e-08
1.20887e-08
1.20888e-08
1.20888e-08
1.20889e-08
1.20889e-08
1.20889e-08
1.20888e-08
1.20888e-08
1.20887e-08
1.20886e-08
1.20885e-08
1.20884e-08
1.20887e-08
1.20888e-08
1.20888e-08
1.20889e-08
1.20889e-08
1.2089e-08
1.2089e-08
1.2089e-08
1.20889e-08
1.20889e-08
1.20888e-08
1.20887e-08
1.20886e-08
1.20885e-08
1.20887e-08
1.20888e-08
1.20889e-08
1.2089e-08
1.2089e-08
1.2089e-08
1.20891e-08
1.2089e-08
1.2089e-08
1.20889e-08
1.20889e-08
1.20888e-08
1.20887e-08
1.20885e-08
1.20888e-08
1.20889e-08
1.2089e-08
1.2089e-08
1.20891e-08
1.20891e-08
1.20891e-08
1.20891e-08
1.20891e-08
1.2089e-08
1.20889e-08
1.20888e-08
1.20887e-08
1.20886e-08
1.20888e-08
1.20889e-08
1.2089e-08
1.20891e-08
1.20891e-08
1.20891e-08
1.20892e-08
1.20891e-08
1.20891e-08
1.2089e-08
1.2089e-08
1.20889e-08
1.20887e-08
1.20886e-08
1.20888e-08
1.20889e-08
1.2089e-08
1.20891e-08
1.20891e-08
1.20892e-08
1.20892e-08
1.20892e-08
1.20891e-08
1.20891e-08
1.2089e-08
1.20889e-08
1.20888e-08
1.20886e-08
1.20888e-08
1.20889e-08
1.2089e-08
1.20891e-08
1.20891e-08
1.20892e-08
1.20892e-08
1.20892e-08
1.20891e-08
1.20891e-08
1.2089e-08
1.20889e-08
1.20887e-08
1.20886e-08
1.20888e-08
1.20889e-08
1.2089e-08
1.20891e-08
1.20891e-08
1.20891e-08
1.20891e-08
1.20891e-08
1.20891e-08
1.2089e-08
1.20889e-08
1.20888e-08
1.20887e-08
1.20886e-08
1.20887e-08
1.20888e-08
1.20889e-08
1.2089e-08
1.20891e-08
1.20891e-08
1.20891e-08
1.20891e-08
1.2089e-08
1.2089e-08
1.20889e-08
1.20888e-08
1.20887e-08
1.20885e-08
1.20887e-08
1.20888e-08
1.20889e-08
1.20889e-08
1.2089e-08
1.2089e-08
1.2089e-08
1.2089e-08
1.2089e-08
1.20889e-08
1.20888e-08
1.20887e-08
1.20886e-08
1.20885e-08
1.20886e-08
1.20887e-08
1.20888e-08
1.20888e-08
1.20889e-08
1.20889e-08
1.20889e-08
1.20889e-08
1.20889e-08
1.20888e-08
1.20887e-08
1.20886e-08
1.20885e-08
1.20884e-08
1.20885e-08
1.20886e-08
1.20887e-08
1.20887e-08
1.20888e-08
1.20888e-08
1.20888e-08
1.20888e-08
1.20887e-08
1.20887e-08
1.20886e-08
1.20885e-08
1.20884e-08
1.20883e-08
1.20883e-08
1.20884e-08
1.20885e-08
1.20886e-08
1.20886e-08
1.20887e-08
1.20887e-08
1.20886e-08
1.20886e-08
1.20885e-08
1.20885e-08
1.20884e-08
1.20883e-08
1.20882e-08
1.20882e-08
1.20883e-08
1.20884e-08
1.20884e-08
1.20885e-08
1.20885e-08
1.20885e-08
1.20885e-08
1.20884e-08
1.20884e-08
1.20883e-08
1.20882e-08
1.20881e-08
1.2088e-08
1.20727e-08
1.20728e-08
1.20728e-08
1.20729e-08
1.2073e-08
1.2073e-08
1.2073e-08
1.2073e-08
1.2073e-08
1.2073e-08
1.20729e-08
1.20729e-08
1.20728e-08
1.20727e-08
1.20727e-08
1.20729e-08
1.20729e-08
1.2073e-08
1.20731e-08
1.20731e-08
1.20731e-08
1.20731e-08
1.20731e-08
1.20731e-08
1.2073e-08
1.2073e-08
1.20729e-08
1.20728e-08
1.20728e-08
1.20729e-08
1.2073e-08
1.20731e-08
1.20732e-08
1.20732e-08
1.20732e-08
1.20732e-08
1.20732e-08
1.20732e-08
1.20731e-08
1.20731e-08
1.2073e-08
1.20729e-08
1.20729e-08
1.2073e-08
1.20731e-08
1.20732e-08
1.20732e-08
1.20733e-08
1.20733e-08
1.20733e-08
1.20733e-08
1.20733e-08
1.20732e-08
1.20731e-08
1.2073e-08
1.20729e-08
1.20729e-08
1.20731e-08
1.20732e-08
1.20732e-08
1.20733e-08
1.20733e-08
1.20734e-08
1.20734e-08
1.20734e-08
1.20733e-08
1.20733e-08
1.20732e-08
1.20731e-08
1.2073e-08
1.2073e-08
1.20731e-08
1.20732e-08
1.20733e-08
1.20733e-08
1.20734e-08
1.20734e-08
1.20734e-08
1.20734e-08
1.20734e-08
1.20733e-08
1.20732e-08
1.20731e-08
1.2073e-08
1.2073e-08
1.20731e-08
1.20732e-08
1.20733e-08
1.20734e-08
1.20734e-08
1.20734e-08
1.20734e-08
1.20734e-08
1.20734e-08
1.20733e-08
1.20732e-08
1.20731e-08
1.2073e-08
1.2073e-08
1.20731e-08
1.20732e-08
1.20733e-08
1.20733e-08
1.20734e-08
1.20734e-08
1.20734e-08
1.20734e-08
1.20734e-08
1.20733e-08
1.20732e-08
1.20731e-08
1.2073e-08
1.2073e-08
1.20731e-08
1.20732e-08
1.20733e-08
1.20733e-08
1.20734e-08
1.20734e-08
1.20734e-08
1.20734e-08
1.20733e-08
1.20733e-08
1.20732e-08
1.20731e-08
1.2073e-08
1.20729e-08
1.2073e-08
1.20731e-08
1.20732e-08
1.20733e-08
1.20733e-08
1.20733e-08
1.20733e-08
1.20733e-08
1.20733e-08
1.20732e-08
1.20732e-08
1.20731e-08
1.2073e-08
1.20729e-08
1.2073e-08
1.20731e-08
1.20731e-08
1.20732e-08
1.20733e-08
1.20733e-08
1.20733e-08
1.20733e-08
1.20732e-08
1.20732e-08
1.20731e-08
1.2073e-08
1.20729e-08
1.20728e-08
1.20729e-08
1.2073e-08
1.20731e-08
1.20731e-08
1.20732e-08
1.20732e-08
1.20732e-08
1.20732e-08
1.20731e-08
1.20731e-08
1.2073e-08
1.20729e-08
1.20728e-08
1.20727e-08
1.20728e-08
1.20729e-08
1.2073e-08
1.2073e-08
1.20731e-08
1.20731e-08
1.20731e-08
1.20731e-08
1.2073e-08
1.2073e-08
1.20729e-08
1.20728e-08
1.20727e-08
1.20726e-08
1.20727e-08
1.20728e-08
1.20728e-08
1.20729e-08
1.20729e-08
1.2073e-08
1.2073e-08
1.20729e-08
1.20729e-08
1.20729e-08
1.20728e-08
1.20727e-08
1.20726e-08
1.20579e-08
1.20579e-08
1.2058e-08
1.20581e-08
1.20581e-08
1.20582e-08
1.20582e-08
1.20582e-08
1.20582e-08
1.20582e-08
1.20581e-08
1.20581e-08
1.2058e-08
1.2058e-08
1.20579e-08
1.2058e-08
1.20581e-08
1.20582e-08
1.20582e-08
1.20583e-08
1.20583e-08
1.20583e-08
1.20583e-08
1.20583e-08
1.20582e-08
1.20582e-08
1.20581e-08
1.20581e-08
1.2058e-08
1.20581e-08
1.20582e-08
1.20583e-08
1.20583e-08
1.20584e-08
1.20584e-08
1.20584e-08
1.20584e-08
1.20584e-08
1.20583e-08
1.20583e-08
1.20582e-08
1.20581e-08
1.20581e-08
1.20582e-08
1.20583e-08
1.20583e-08
1.20584e-08
1.20584e-08
1.20584e-08
1.20585e-08
1.20585e-08
1.20584e-08
1.20584e-08
1.20583e-08
1.20583e-08
1.20582e-08
1.20581e-08
1.20582e-08
1.20583e-08
1.20584e-08
1.20584e-08
1.20585e-08
1.20585e-08
1.20585e-08
1.20585e-08
1.20585e-08
1.20585e-08