/*--------------------------------*- C++ -*----------------------------------*\
| =========                 |                                                 |
| \\      /  F ield         | OpenFOAM: The Open Source CFD Toolbox           |
|  \\    /   O peration     | Version:  v2106                                 |
|   \\  /    A nd           | Website:  www.openfoam.com                      |
|    \\/     M anipulation  |                                                 |
\*---------------------------------------------------------------------------*/
FoamFile
{
    version     2.0;
    format      ascii;
    arch        "LSB;label=32;scalar=64";
    class       volScalarField;
    location    "0.000197";
    object      p;
}
// * * * * * * * * * * * * * * * * * * * * * * * * * * * * * * * * * * * * * //

dimensions      [1 -1 -2 0 0 0 0];

internalField   nonuniform List<scalar> 
17920
(
235402
235388
235360
235344
235321
235305
235279
235263
235237
235223
235195
235182
235152
235141
235109
235099
235066
235058
235022
235016
234978
234976
234934
234934
234892
234894
234849
234850
234580
234584
234588
234593
234598
234603
234607
234611
234614
234616
234618
234619
234621
234621
234552
234557
234561
234567
234572
234577
234581
234585
234588
234590
234592
234593
234593
234590
234526
234532
234536
234541
234546
234550
234554
234558
234560
234563
234564
234565
234566
234563
234499
234505
234509
234514
234519
234524
234527
234531
234533
234536
234537
234538
234539
234537
234472
234478
234482
234487
234492
234496
234500
234503
234506
234508
234510
234511
234512
234511
234445
234450
234455
234460
234464
234468
234472
234476
234479
234481
234483
234484
234485
234485
234418
234423
234427
234432
234436
234440
234444
234448
234451
234454
234456
234458
234459
234459
234391
234395
234399
234404
234408
234412
234416
234420
234423
234426
234428
234431
234432
234434
234363
234367
234371
234375
234379
234384
234388
234391
234395
234398
234401
234404
234406
234408
234335
234338
234343
234347
234351
234355
234359
234363
234367
234370
234373
234377
234379
234382
234307
234309
234314
234318
234322
234326
234330
234335
234339
234342
234346
234350
234352
234357
234280
234280
234285
234289
234293
234298
234302
234306
234310
234314
234318
234322
234325
234331
234252
234251
234256
234260
234265
234269
234274
234278
234283
234287
234291
234296
234299
234306
234223
234224
234228
234233
234237
234241
234245
234250
234254
234259
234264
234268
234272
234278
233611
233622
233633
233645
233657
233668
233680
233691
233703
233714
233725
233736
233747
233758
233602
233614
233625
233636
233648
233660
233672
233684
233695
233706
233717
233728
233738
233748
233594
233606
233616
233628
233640
233652
233664
233675
233687
233698
233709
233719
233729
233738
233585
233597
233608
233620
233631
233643
233655
233667
233678
233689
233700
233710
233720
233729
233576
233588
233599
233611
233622
233634
233646
233658
233669
233680
233691
233701
233711
233719
233567
233578
233590
233602
233614
233626
233637
233649
233660
233671
233682
233692
233702
233710
233558
233569
233581
233592
233604
233616
233628
233640
233651
233662
233673
233683
233693
233701
233548
233560
233571
233583
233595
233607
233619
233630
233642
233653
233664
233674
233684
233693
233539
233550
233562
233573
233585
233597
233609
233621
233632
233644
233655
233665
233675
233684
233529
233540
233552
233563
233575
233587
233599
233611
233623
233634
233645
233656
233666
233676
233519
233530
233541
233553
233565
233577
233589
233601
233613
233624
233636
233646
233657
233667
233508
233519
233531
233543
233555
233567
233579
233591
233603
233615
233626
233637
233647
233659
233498
233509
233520
233532
233544
233556
233569
233581
233593
233605
233617
233628
233638
233651
233488
233499
233510
233522
233534
233546
233558
233570
233582
233594
233606
233618
233629
233642
232661
232672
232685
232698
232711
232724
232738
232751
232765
232780
232795
232810
232824
232841
232664
232676
232689
232702
232716
232730
232744
232758
232772
232787
232801
232816
232830
232845
232670
232682
232695
232708
232722
232736
232750
232764
232778
232792
232806
232821
232835
232850
232675
232687
232700
232713
232727
232741
232756
232770
232784
232798
232812
232827
232840
232855
232680
232692
232706
232719
232733
232747
232761
232776
232790
232804
232818
232832
232845
232859
232684
232697
232711
232724
232739
232753
232767
232781
232796
232810
232824
232837
232851
232864
232689
232702
232716
232730
232744
232758
232772
232787
232801
232815
232829
232842
232856
232869
232694
232707
232721
232735
232749
232763
232778
232792
232806
232820
232834
232848
232861
232873
232698
232712
232725
232740
232754
232768
232783
232797
232812
232825
232839
232853
232866
232878
232703
232716
232730
232744
232759
232773
232788
232802
232817
232831
232844
232858
232871
232883
232707
232721
232734
232749
232763
232778
232793
232807
232822
232835
232849
232862
232876
232888
232711
232725
232739
232753
232768
232783
232797
232812
232826
232840
232854
232867
232881
232894
232715
232729
232742
232757
232772
232787
232802
232817
232831
232846
232859
232873
232886
232900
232720
232734
232748
232762
232777
232792
232806
232821
232835
232849
232863
232877
232891
232905
231753
231761
231772
231782
231792
231803
231814
231825
231837
231850
231863
231876
231890
231905
231763
231772
231782
231792
231803
231815
231826
231838
231851
231863
231877
231890
231903
231919
231775
231783
231794
231805
231816
231827
231839
231851
231863
231876
231889
231902
231915
231930
231786
231795
231806
231817
231828
231839
231851
231864
231876
231889
231902
231915
231928
231943
231798
231807
231818
231829
231841
231852
231864
231876
231889
231901
231914
231927
231940
231955
231810
231820
231831
231842
231853
231865
231877
231889
231902
231914
231927
231940
231953
231967
231822
231832
231843
231855
231866
231878
231890
231902
231915
231927
231940
231953
231966
231978
231834
231845
231856
231867
231879
231891
231903
231915
231928
231940
231953
231965
231978
231990
231846
231858
231869
231880
231892
231904
231916
231929
231941
231953
231966
231978
231991
232002
231859
231870
231881
231893
231905
231917
231930
231942
231954
231967
231979
231991
232004
232015
231871
231883
231894
231906
231918
231931
231943
231955
231968
231980
231992
232004
232017
232027
231885
231896
231907
231920
231932
231944
231956
231969
231981
231993
232006
232017
232030
232040
231897
231909
231920
231932
231945
231957
231970
231982
231995
232007
232019
232031
232043
232054
231911
231923
231934
231947
231959
231971
231983
231996
232008
232020
232032
232044
232057
232070
230901
230906
230912
230917
230923
230930
230936
230943
230951
230959
230967
230976
230985
230996
230912
230916
230922
230928
230934
230941
230948
230955
230963
230971
230980
230989
230999
231010
230923
230928
230934
230940
230946
230953
230960
230967
230975
230983
230992
231001
231011
231022
230935
230940
230946
230952
230958
230965
230972
230980
230988
230996
231005
231015
231024
231035
230947
230952
230958
230964
230971
230977
230985
230992
231000
231009
231018
231027
231037
231048
230960
230965
230971
230977
230984
230990
230998
231005
231014
231022
231031
231041
231050
231061
230973
230979
230984
230991
230997
231004
231011
231019
231027
231036
231045
231054
231063
231073
230987
230992
230998
231004
231011
231018
231025
231033
231041
231049
231058
231067
231077
231086
231001
231007
231012
231019
231025
231032
231040
231047
231055
231064
231072
231081
231091
231099
231015
231021
231027
231033
231040
231047
231054
231062
231070
231078
231087
231095
231105
231113
231029
231036
231041
231048
231055
231062
231070
231077
231085
231093
231102
231110
231119
231126
231044
231051
231057
231063
231070
231078
231085
231093
231101
231109
231117
231125
231134
231140
231059
231065
231072
231079
231086
231093
231101
231109
231116
231124
231132
231140
231148
231155
231075
231082
231088
231095
231102
231109
231117
231124
231132
231140
231147
231155
231164
231172
230115
230116
230118
230119
230122
230124
230126
230129
230132
230135
230138
230142
230146
230151
230123
230123
230125
230127
230129
230131
230134
230136
230139
230143
230147
230151
230155
230161
230131
230131
230132
230134
230136
230139
230141
230144
230147
230151
230155
230159
230163
230169
230139
230139
230141
230142
230144
230147
230149
230152
230155
230159
230163
230168
230173
230179
230148
230148
230150
230151
230153
230155
230158
230161
230164
230168
230172
230177
230182
230188
230157
230158
230159
230161
230162
230165
230167
230170
230174
230177
230182
230186
230192
230197
230167
230168
230169
230170
230172
230174
230177
230180
230183
230187
230192
230196
230201
230207
230177
230178
230179
230181
230183
230185
230187
230190
230194
230198
230202
230206
230212
230217
230188
230189
230190
230192
230193
230196
230198
230201
230204
230208
230212
230217
230222
230227
230199
230201
230202
230203
230205
230207
230209
230212
230216
230219
230223
230228
230233
230237
230210
230212
230213
230215
230217
230219
230221
230224
230227
230231
230235
230239
230243
230247
230222
230224
230225
230227
230229
230231
230233
230236
230239
230243
230246
230250
230254
230257
230234
230236
230237
230239
230241
230243
230246
230249
230252
230255
230258
230262
230265
230268
230247
230248
230250
230252
230254
230256
230258
230261
230264
230267
230270
230273
230277
230280
229395
229394
229394
229393
229393
229392
229392
229392
229391
229391
229391
229391
229391
229391
229400
229399
229398
229397
229396
229396
229396
229395
229395
229395
229395
229395
229395
229396
229404
229402
229402
229401
229400
229400
229399
229399
229399
229398
229399
229399
229399
229400
229408
229407
229406
229405
229404
229404
229403
229403
229403
229403
229403
229403
229404
229404
229413
229411
229410
229409
229409
229408
229408
229407
229407
229407
229407
229408
229408
229409
229418
229416
229415
229414
229413
229413
229412
229412
229412
229412
229412
229413
229413
229414
229423
229422
229420
229419
229419
229418
229417
229417
229417
229417
229417
229418
229418
229419
229428
229427
229426
229425
229424
229423
229423
229422
229422
229422
229423
229423
229424
229425
229434
229433
229432
229430
229430
229429
229428
229428
229428
229428
229428
229428
229429
229430
229440
229439
229437
229436
229435
229435
229434
229434
229433
229433
229434
229434
229435
229435
229446
229445
229444
229442
229441
229441
229440
229440
229439
229439
229439
229440
229441
229441
229452
229451
229450
229449
229448
229447
229446
229446
229445
229445
229445
229445
229446
229446
229458
229458
229456
229455
229454
229453
229452
229452
229452
229451
229451
229451
229452
229451
229465
229464
229463
229461
229460
229460
229459
229458
229458
229457
229457
229457
229457
229457
228737
228736
228735
228734
228733
228731
228730
228729
228727
228725
228723
228721
228718
228716
228740
228738
228737
228736
228735
228733
228732
228730
228728
228726
228724
228722
228719
228717
228741
228740
228739
228738
228736
228735
228733
228732
228730
228728
228725
228723
228721
228718
228743
228742
228741
228739
228738
228737
228735
228733
228731
228729
228727
228725
228722
228719
228745
228743
228742
228741
228740
228738
228736
228735
228733
228731
228728
228726
228724
228721
228746
228745
228744
228743
228741
228740
228738
228736
228734
228732
228730
228727
228725
228722
228747
228746
228745
228744
228743
228741
228739
228738
228736
228733
228731
228729
228726
228724
228749
228748
228747
228745
228744
228742
228741
228739
228737
228735
228733
228730
228728
228726
228750
228749
228748
228747
228745
228744
228742
228740
228738
228736
228734
228731
228729
228727
228751
228750
228749
228748
228746
228745
228743
228741
228739
228737
228735
228732
228730
228728
228752
228751
228750
228749
228747
228745
228744
228742
228740
228738
228736
228733
228731
228729
228753
228752
228751
228749
228748
228746
228744
228743
228740
228738
228736
228734
228732
228730
228755
228753
228752
228750
228749
228747
228745
228743
228741
228739
228737
228735
228733
228730
228755
228754
228752
228751
228749
228747
228745
228743
228741
228739
228737
228735
228733
228731
228132
228132
228132
228132
228131
228130
228129
228127
228126
228124
228121
228118
228114
228110
228134
228134
228134
228133
228133
228132
228130
228129
228127
228124
228122
228118
228115
228111
228135
228135
228135
228135
228134
228133
228132
228130
228128
228125
228122
228119
228115
228111
228136
228136
228136
228136
228135
228134
228133
228131
228129
228126
228123
228120
228116
228111
228136
228137
228137
228136
228136
228135
228133
228131
228129
228126
228123
228120
228116
228112
228136
228136
228137
228136
228136
228135
228133
228131
228129
228126
228123
228120
228116
228112
228136
228136
228136
228136
228135
228134
228133
228131
228129
228126
228123
228119
228115
228111
228135
228135
228135
228135
228135
228134
228132
228130
228128
228125
228122
228119
228115
228111
228134
228134
228134
228134
228133
228132
228131
228129
228127
228124
228121
228117
228114
228110
228132
228132
228132
228132
228132
228131
228129
228127
228125
228122
228119
228116
228112
228109
228130
228130
228131
228130
228130
228128
228127
228125
228123
228120
228117
228114
228110
228107
228128
228128
228128
228128
228127
228126
228124
228123
228120
228118
228115
228112
228108
228105
228126
228126
228126
228125
228124
228123
228121
228120
228117
228115
228112
228109
228106
228103
228123
228123
228123
228122
228121
228120
228118
228116
228114
228112
228109
228106
228103
228100
227574
227575
227576
227577
227578
227578
227577
227576
227575
227573
227571
227568
227564
227560
227576
227578
227579
227579
227580
227580
227579
227578
227577
227575
227572
227569
227565
227561
227577
227579
227580
227581
227582
227582
227581
227580
227578
227576
227573
227570
227566
227562
227578
227580
227581
227582
227583
227583
227582
227581
227579
227577
227574
227571
227567
227563
227579
227581
227582
227583
227584
227584
227583
227582
227580
227578
227575
227571
227568
227563
227579
227581
227582
227583
227584
227584
227583
227582
227580
227578
227575
227571
227567
227563
227578
227580
227581
227582
227583
227583
227582
227581
227579
227577
227574
227571
227567
227562
227577
227579
227580
227581
227582
227582
227581
227580
227578
227576
227573
227570
227566
227561
227575
227577
227578
227579
227580
227580
227579
227578
227576
227574
227571
227568
227564
227560
227573
227574
227576
227577
227578
227577
227577
227576
227574
227571
227569
227565
227562
227558
227570
227572
227573
227574
227575
227574
227574
227572
227571
227568
227566
227563
227559
227555
227566
227568
227570
227571
227571
227571
227570
227569
227567
227565
227562
227559
227556
227552
227563
227565
227566
227567
227567
227567
227566
227565
227563
227561
227558
227555
227552
227549
227559
227560
227561
227562
227563
227562
227561
227560
227559
227556
227554
227551
227548
227545
227057
227060
227062
227064
227065
227066
227066
227066
227065
227063
227062
227059
227056
227052
227060
227063
227065
227066
227068
227068
227069
227068
227068
227066
227064
227061
227058
227055
227062
227065
227067
227069
227070
227071
227071
227071
227070
227068
227066
227063
227060
227056
227063
227066
227069
227071
227072
227073
227073
227073
227072
227070
227068
227065
227062
227058
227064
227067
227070
227072
227073
227074
227074
227074
227073
227071
227069
227066
227063
227059
227065
227068
227070
227072
227074
227074
227075
227074
227073
227072
227069
227067
227063
227059
227065
227068
227070
227072
227073
227074
227075
227074
227073
227072
227069
227066
227063
227059
227064
227067
227069
227071
227073
227073
227074
227073
227072
227071
227068
227066
227062
227058
227062
227065
227068
227070
227071
227072
227072
227072
227071
227069
227067
227064
227061
227057
227060
227063
227066
227068
227069
227070
227070
227070
227069
227067
227065
227062
227059
227055
227058
227061
227063
227065
227067
227067
227068
227067
227066
227065
227063
227060
227057
227053
227055
227058
227060
227062
227064
227064
227064
227064
227063
227062
227059
227057
227054
227050
227052
227054
227057
227059
227060
227060
227061
227060
227059
227058
227056
227053
227050
227047
227048
227050
227053
227054
227056
227056
227056
227056
227055
227053
227052
227049
227046
227043
226578
226581
226584
226586
226587
226588
226589
226589
226589
226588
226586
226585
226582
226580
226581
226584
226587
226589
226590
226591
226592
226592
226592
226591
226589
226588
226585
226582
226583
226586
226589
226591
226593
226594
226595
226595
226595
226594
226592
226590
226588
226585
226585
226588
226591
226593
226595
226596
226597
226597
226597
226596
226594
226592
226589
226587
226587
226590
226593
226595
226597
226598
226599
226599
226598
226597
226596
226594
226591
226588
226587
226591
226594
226596
226598
226599
226600
226600
226599
226598
226597
226595
226592
226589
226588
226591
226594
226596
226598
226599
226600
226600
226600
226599
226597
226595
226592
226589
226588
226591
226594
226596
226598
226599
226600
226600
226600
226599
226597
226595
226592
226589
226587
226590
226593
226595
226597
226598
226599
226599
226599
226598
226596
226594
226591
226588
226586
226589
226592
226594
226596
226597
226598
226598
226598
226597
226595
226593
226590
226587
226584
226587
226590
226592
226594
226595
226596
226596
226596
226595
226593
226591
226589
226586
226582
226585
226588
226590
226592
226593
226594
226594
226593
226593
226591
226589
226586
226583
226579
226582
226585
226587
226589
226590
226591
226591
226591
226590
226588
226586
226584
226581
226576
226579
226582
226584
226585
226587
226587
226587
226587
226586
226585
226583
226581
226578
226132
226135
226137
226139
226141
226142
226142
226142
226142
226141
226141
226139
226138
226135
226135
226138
226140
226142
226143
226144
226145
226145
226145
226144
226143
226142
226140
226138
226137
226140
226142
226144
226145
226147
226147
226147
226147
226147
226146
226144
226142
226141
226139
226141
226144
226146
226147
226148
226149
226149
226149
226149
226148
226146
226144
226142
226140
226143
226145
226147
226149
226150
226151
226151
226151
226150
226149
226148
226146
226144
226141
226144
226146
226148
226150
226151
226152
226152
226152
226151
226150
226149
226147
226144
226142
226144
226147
226149
226150
226152
226152
226153
226153
226152
226151
226149
226147
226145
226142
226145
226147
226149
226151
226152
226153
226153
226153
226152
226151
226149
226148
226145
226142
226144
226147
226149
226150
226152
226152
226153
226153
226152
226151
226149
226147
226145
226141
226144
226146
226148
226150
226151
226152
226152
226152
226151
226150
226149
226147
226144
226140
226143
226145
226147
226149
226150
226151
226151
226151
226150
226149
226148
226146
226143
226139
226141
226143
226145
226147
226148
226149
226149
226149
226149
226148
226146
226144
226142
226137
226139
226141
226143
226145
226146
226147
226148
226147
226147
226146
226144
226142
226140
226134
226137
226139
226141
226143
226144
226145
226145
226145
226145
226144
226142
226140
226138
225716
225718
225719
225720
225721
225722
225722
225722
225722
225721
225721
225720
225719
225718
225717
225719
225720
225722
225723
225723
225724
225724
225723
225723
225722
225722
225721
225720
225718
225720
225722
225723
225724
225725
225725
225725
225725
225725
225724
225723
225722
225721
225720
225721
225723
225724
225725
225726
225726
225726
225726
225726
225725
225725
225724
225723
225720
225722
225724
225725
225726
225727
225727
225727
225727
225727
225726
225725
225724
225723
225721
225723
225724
225726
225727
225727
225728
225728
225728
225727
225727
225726
225725
225724
225722
225723
225725
225726
225727
225728
225728
225728
225728
225728
225727
225727
225726
225724
225722
225724
225725
225726
225727
225728
225728
225728
225728
225728
225728
225727
225726
225724
225722
225724
225725
225726
225727
225728
225728
225728
225728
225728
225727
225727
225725
225724
225722
225723
225725
225726
225727
225727
225728
225728
225728
225728
225727
225726
225725
225724
225721
225723
225724
225725
225726
225727
225727
225728
225728
225727
225727
225726
225724
225723
225720
225722
225723
225724
225725
225726
225727
225727
225727
225726
225726
225725
225724
225722
225719
225720
225722
225723
225724
225725
225726
225726
225726
225726
225725
225724
225723
225721
225717
225719
225720
225722
225723
225724
225724
225725
225725
225724
225724
225723
225722
225720
225326
225327
225327
225327
225327
225327
225327
225327
225327
225327
225327
225326
225326
225326
225326
225326
225327
225327
225327
225327
225328
225327
225327
225327
225327
225327
225327
225327
225326
225327
225327
225327
225327
225328
225328
225328
225327
225327
225327
225327
225327
225327
225326
225327
225327
225327
225328
225328
225328
225328
225328
225328
225327
225327
225327
225327
225327
225327
225327
225327
225328
225328
225328
225328
225328
225328
225328
225328
225328
225327
225327
225327
225327
225327
225328
225328
225328
225328
225328
225328
225328
225328
225328
225328
225327
225327
225327
225327
225328
225328
225328
225328
225328
225328
225328
225328
225328
225328
225327
225327
225327
225327
225328
225328
225328
225328
225328
225328
225328
225328
225328
225327
225327
225327
225327
225327
225327
225328
225328
225328
225328
225328
225328
225327
225327
225327
225327
225327
225327
225327
225327
225327
225327
225328
225327
225327
225327
225327
225327
225327
225327
225327
225327
225327
225327
225327
225327
225327
225327
225327
225327
225327
225327
225327
225326
225326
225327
225327
225327
225327
225327
225327
225327
225327
225327
225327
225327
225326
225326
225326
225326
225327
225327
225327
225327
225327
225327
225327
225327
225327
225326
225326
225325
225326
225326
225326
225327
225327
225327
225327
225327
225327
225327
225327
225326
225326
224963
224962
224961
224960
224960
224960
224959
224959
224959
224959
224960
224960
224960
224961
224962
224961
224960
224959
224959
224959
224958
224958
224958
224958
224959
224959
224960
224960
224961
224960
224959
224958
224958
224958
224957
224957
224957
224957
224958
224958
224959
224960
224960
224959
224958
224958
224957
224957
224956
224956
224956
224957
224957
224957
224958
224959
224959
224959
224958
224957
224956
224956
224956
224956
224956
224956
224956
224957
224958
224958
224959
224958
224957
224956
224956
224955
224955
224955
224955
224955
224956
224956
224957
224958
224959
224958
224957
224956
224955
224955
224955
224955
224955
224955
224955
224956
224957
224958
224958
224957
224957
224956
224955
224955
224955
224954
224954
224955
224955
224956
224956
224957
224958
224957
224956
224956
224955
224955
224954
224954
224954
224955
224955
224956
224956
224957
224958
224957
224956
224956
224955
224955
224955
224954
224954
224955
224955
224956
224956
224957
224958
224958
224957
224956
224955
224955
224955
224955
224955
224955
224955
224956
224957
224957
224959
224958
224957
224956
224956
224955
224955
224955
224955
224955
224956
224956
224957
224957
224959
224958
224958
224957
224956
224956
224956
224956
224956
224956
224956
224957
224957
224958
224960
224959
224958
224958
224957
224957
224957
224956
224956
224957
224957
224957
224958
224958
224626
224624
224623
224622
224621
224620
224620
224620
224620
224620
224621
224622
224623
224624
224624
224623
224621
224620
224619
224619
224618
224618
224618
224619
224619
224620
224621
224622
224623
224621
224620
224619
224618
224617
224617
224617
224617
224617
224618
224618
224620
224621
224621
224620
224619
224618
224617
224616
224616
224615
224616
224616
224616
224617
224618
224619
224620
224619
224618
224616
224616
224615
224615
224614
224614
224615
224615
224616
224617
224618
224620
224618
224617
224616
224615
224614
224614
224614
224614
224614
224615
224615
224617
224618
224619
224618
224616
224615
224614
224614
224613
224613
224613
224613
224614
224615
224616
224617
224619
224617
224616
224615
224614
224613
224613
224613
224613
224613
224614
224615
224616
224617
224619
224617
224616
224615
224614
224613
224613
224613
224613
224613
224614
224614
224616
224617
224619
224617
224616
224615
224614
224613
224613
224613
224613
224613
224614
224615
224616
224617
224619
224618
224616
224615
224614
224614
224613
224613
224613
224614
224614
224615
224616
224617
224620
224618
224617
224616
224615
224614
224614
224614
224614
224614
224615
224616
224617
224618
224621
224619
224618
224617
224616
224615
224615
224615
224615
224615
224616
224616
224617
224619
224622
224620
224619
224618
224617
224616
224616
224616
224616
224616
224617
224617
224618
224620
224315
224313
224312
224311
224310
224310
224310
224310
224310
224310
224310
224311
224312
224313
224313
224312
224311
224310
224309
224308
224308
224308
224308
224308
224309
224310
224310
224311
224312
224311
224309
224308
224308
224307
224307
224306
224307
224307
224307
224308
224309
224310
224311
224310
224308
224307
224306
224306
224305
224305
224305
224306
224306
224307
224308
224308
224310
224309
224307
224306
224305
224305
224304
224304
224304
224305
224305
224306
224307
224308
224309
224308
224306
224305
224305
224304
224304
224303
224304
224304
224304
224305
224306
224307
224309
224307
224306
224305
224304
224303
224303
224303
224303
224303
224304
224305
224306
224307
224308
224307
224306
224305
224304
224303
224303
224303
224303
224303
224304
224304
224305
224306
224308
224307
224305
224304
224304
224303
224303
224303
224303
224303
224303
224304
224305
224306
224308
224307
224306
224305
224304
224303
224303
224303
224303
224303
224304
224304
224305
224306
224308
224307
224306
224305
224304
224304
224303
224303
224303
224303
224304
224305
224306
224307
224309
224308
224307
224306
224305
224304
224304
224304
224304
224304
224304
224305
224306
224307
224310
224309
224308
224307
224306
224305
224305
224304
224304
224305
224305
224306
224307
224308
224311
224310
224308
224307
224307
224306
224305
224305
224305
224305
224306
224306
224307
224309
235433
235457
235480
235501
235521
235539
235417
235431
235445
235457
235468
235478
234600
234611
234624
234635
234646
234657
234605
234622
234639
234655
234669
234682
234613
234634
234655
234674
234691
234707
234620
234645
234670
234692
234713
234731
234626
234655
234683
234709
234733
234755
234633
234664
234695
234724
234752
234777
234638
234672
234705
234737
234767
234794
234642
234678
234712
234745
234777
234807
234645
234681
234716
234750
234782
234813
234647
234682
234715
234749
234781
234812
234647
234679
234711
234742
234773
234803
234646
234675
234702
234730
234757
234784
234643
234667
234690
234713
234735
234757
234645
234663
234678
234694
234709
234724
233615
233614
233613
233613
233612
233611
233626
233626
233627
233627
233627
233626
233638
233639
233641
233642
233643
233643
233650
233653
233656
233658
233660
233661
233663
233668
233672
233676
233679
233682
233676
233682
233689
233695
233700
233705
233688
233697
233706
233714
233722
233729
233701
233712
233723
233734
233744
233753
233714
233727
233740
233753
233766
233777
233726
233741
233755
233770
233785
233799
233738
233753
233769
233785
233801
233817
233749
233765
233780
233797
233813
233830
233759
233774
233789
233804
233820
233836
233770
233784
233796
233810
233823
233836
232652
232639
232630
232619
232610
232601
232665
232651
232640
232629
232619
232609
232676
232662
232651
232639
232629
232618
232689
232675
232663
232651
232640
232629
232702
232689
232677
232665
232654
232643
232715
232704
232693
232681
232670
232659
232730
232719
232709
232699
232689
232679
232744
232736
232728
232720
232711
232703
232759
232753
232748
232741
232736
232729
232775
232772
232768
232765
232762
232758
232791
232790
232789
232789
232789
232787
232807
232809
232810
232813
232815
232817
232824
232827
232831
232835
232840
232844
232841
232846
232851
232857
232863
232869
231741
231724
231711
231697
231685
231672
231749
231732
231717
231702
231689
231676
231757
231739
231724
231708
231694
231680
231767
231749
231732
231716
231700
231686
231777
231758
231741
231724
231708
231693
231788
231769
231752
231735
231718
231702
231799
231781
231764
231747
231730
231714
231811
231794
231778
231762
231746
231729
231823
231809
231794
231778
231763
231748
231837
231824
231811
231798
231785
231770
231851
231841
231830
231819
231808
231796
231866
231859
231851
231843
231835
231825
231882
231878
231873
231868
231863
231857
231899
231897
231894
231893
231892
231890
230891
230878
230866
230855
230845
230834
230896
230882
230870
230857
230846
230835
230899
230885
230872
230860
230848
230836
230905
230890
230876
230863
230851
230839
230910
230895
230881
230867
230854
230842
230916
230901
230886
230872
230859
230846
230923
230908
230893
230878
230864
230851
230930
230915
230900
230886
230871
230857
230938
230923
230909
230895
230880
230865
230946
230933
230919
230905
230891
230877
230955
230943
230931
230918
230905
230891
230965
230955
230945
230934
230923
230910
230976
230969
230961
230952
230943
230934
230987
230982
230977
230972
230966
230960
230108
230101
230094
230088
230081
230075
230110
230102
230095
230088
230081
230074
230110
230102
230095
230088
230081
230074
230112
230104
230096
230088
230081
230075
230114
230105
230097
230090
230082
230075
230116
230107
230099
230091
230084
230076
230118
230109
230101
230093
230085
230077
230121
230112
230103
230094
230086
230077
230123
230114
230105
230096
230087
230078
230127
230118
230109
230100
230090
230081
230130
230122
230113
230104
230095
230085
230134
230127
230119
230111
230102
230093
230139
230133
230126
230119
230112
230103
230144
230140
230135
230129
230124
230117
229392
229389
229386
229383
229380
229377
229392
229388
229385
229382
229378
229375
229391
229387
229384
229380
229377
229374
229390
229386
229383
229380
229377
229374
229389
229386
229383
229379
229377
229374
229389
229385
229382
229379
229376
229373
229388
229385
229381
229378
229375
229372
229388
229384
229380
229377
229374
229370
229388
229384
229380
229376
229372
229369
229387
229383
229379
229375
229371
229367
229387
229383
229379
229374
229370
229365
229387
229383
229379
229374
229370
229365
229388
229383
229379
229375
229371
229366
229388
229384
229381
229377
229372
229368