/*--------------------------------*- C++ -*----------------------------------*\
| =========                 |                                                 |
| \\      /  F ield         | OpenFOAM: The Open Source CFD Toolbox           |
|  \\    /   O peration     | Version:  v2106                                 |
|   \\  /    A nd           | Website:  www.openfoam.com                      |
|    \\/     M anipulation  |                                                 |
\*---------------------------------------------------------------------------*/
FoamFile
{
    version     2.0;
    format      ascii;
    arch        "LSB;label=32;scalar=64";
    class       volScalarField;
    location    "0.000184";
    object      nut;
}
// * * * * * * * * * * * * * * * * * * * * * * * * * * * * * * * * * * * * * //

dimensions      [0 2 -1 0 0 0 0];

internalField   nonuniform List<scalar> 
144746
(
8.04329e-05
6.56507e-05
4.91999e-05
3.29892e-05
2.18007e-05
1.61405e-05
1.62016e-05
2.19497e-05
3.44237e-05
5.30463e-05
7.20225e-05
8.16877e-05
7.87847e-05
7.06611e-05
7.7883e-05
5.85426e-05
3.90735e-05
2.35175e-05
1.45152e-05
1.00713e-05
9.39091e-06
1.25178e-05
2.06972e-05
3.45516e-05
5.26807e-05
6.64556e-05
6.87652e-05
6.27306e-05
6.25842e-05
4.19114e-05
2.48756e-05
1.37644e-05
8.22302e-06
5.57633e-06
5.05009e-06
6.84963e-06
1.20896e-05
2.16172e-05
3.51332e-05
4.90142e-05
5.54047e-05
5.3941e-05
4.08039e-05
2.40611e-05
1.28508e-05
6.65717e-06
3.88001e-06
2.66287e-06
2.52574e-06
3.70686e-06
7.02925e-06
1.32529e-05
2.22879e-05
3.3024e-05
4.05634e-05
4.30228e-05
2.25166e-05
1.16047e-05
5.5615e-06
2.68162e-06
1.52254e-06
1.10684e-06
1.22823e-06
2.13846e-06
4.45791e-06
8.82594e-06
1.52104e-05
2.27197e-05
2.92112e-05
3.38478e-05
1.13298e-05
5.12066e-06
2.17547e-06
9.52461e-07
5.30141e-07
4.49882e-07
6.77263e-07
1.44881e-06
3.2312e-06
6.49407e-06
1.11978e-05
1.65752e-05
2.2047e-05
2.79891e-05
6.1654e-06
2.53779e-06
9.787e-07
4.09875e-07
2.38618e-07
2.69331e-07
5.39122e-07
1.25263e-06
2.75792e-06
5.37681e-06
9.06675e-06
1.33586e-05
1.9129e-05
2.75261e-05
4.75403e-06
1.95414e-06
8.14968e-07
4.02791e-07
2.75214e-07
3.39383e-07
6.47539e-07
1.365e-06
2.74311e-06
4.98809e-06
8.08017e-06
1.23447e-05
2.00953e-05
3.27069e-05
5.50433e-06
2.39753e-06
1.19397e-06
7.24462e-07
5.52771e-07
6.16671e-07
9.60696e-07
1.70355e-06
3.0183e-06
5.05937e-06
7.9924e-06
1.40458e-05
2.58467e-05
4.40384e-05
8.63123e-06
3.8079e-06
2.11308e-06
1.471e-06
1.18825e-06
1.20036e-06
1.55537e-06
2.33479e-06
3.67462e-06
5.83139e-06
9.96543e-06
2.01777e-05
3.70894e-05
5.90876e-05
1.74059e-05
7.88592e-06
3.9447e-06
2.93707e-06
2.49795e-06
2.40119e-06
2.738e-06
3.62032e-06
5.28421e-06
8.65381e-06
1.59357e-05
3.16158e-05
5.19122e-05
7.18594e-05
3.30417e-05
2.10367e-05
1.10886e-05
6.36539e-06
5.05507e-06
4.78026e-06
5.16182e-06
6.40244e-06
9.03745e-06
1.49034e-05
2.66532e-05
4.52172e-05
6.33587e-05
7.56499e-05
4.94568e-05
4.00691e-05
2.64278e-05
1.53964e-05
1.01912e-05
8.77294e-06
9.16358e-06
1.10586e-05
1.5185e-05
2.36176e-05
3.76018e-05
5.38411e-05
6.539e-05
7.08532e-05
6.18456e-05
5.84327e-05
4.73393e-05
3.26725e-05
2.15677e-05
1.59556e-05
1.4786e-05
1.67713e-05
2.176e-05
3.10708e-05
4.30871e-05
5.39365e-05
5.99685e-05
6.37261e-05
7.06233e-05
5.4675e-05
3.90215e-05
2.55261e-05
1.69795e-05
1.26516e-05
1.244e-05
1.67892e-05
2.67616e-05
4.19178e-05
5.91168e-05
7.13999e-05
7.38908e-05
6.87743e-05
6.37486e-05
4.57866e-05
2.97313e-05
1.80721e-05
1.15319e-05
8.16651e-06
7.43921e-06
9.73667e-06
1.63155e-05
2.73545e-05
4.14534e-05
5.44972e-05
6.04067e-05
5.86685e-05
4.81404e-05
3.15526e-05
1.87474e-05
1.07861e-05
6.72022e-06
4.66647e-06
4.13676e-06
5.47236e-06
9.76779e-06
1.75025e-05
2.78411e-05
3.89494e-05
4.61829e-05
4.80015e-05
2.99895e-05
1.76217e-05
9.67092e-06
5.32502e-06
3.26063e-06
2.28465e-06
2.11208e-06
3.03349e-06
5.84707e-06
1.11049e-05
1.83316e-05
2.61936e-05
3.28172e-05
3.6528e-05
1.57562e-05
8.11562e-06
4.10337e-06
2.15212e-06
1.30248e-06
9.61931e-07
1.03422e-06
1.77854e-06
3.76195e-06
7.48566e-06
1.27267e-05
1.84752e-05
2.36908e-05
2.78911e-05
7.40864e-06
3.31573e-06
1.50467e-06
7.34741e-07
4.43057e-07
3.80672e-07
5.60925e-07
1.20629e-06
2.72809e-06
5.50347e-06
9.42615e-06
1.37729e-05
1.7951e-05
2.24109e-05
3.82872e-06
1.52465e-06
6.0041e-07
2.65424e-07
1.65653e-07
1.99329e-07
4.19352e-07
1.01208e-06
2.27742e-06
4.47489e-06
7.54964e-06
1.10608e-05
1.50531e-05
2.09486e-05
3.00286e-06
1.17485e-06
4.57211e-07
2.09966e-07
1.47463e-07
2.11444e-07
4.57366e-07
1.03669e-06
2.16663e-06
4.0202e-06
6.58364e-06
9.76365e-06
1.4829e-05
2.34415e-05
3.63688e-06
1.49502e-06
6.72181e-07
3.76954e-07
2.91389e-07
3.63162e-07
6.35057e-07
1.22247e-06
2.28625e-06
3.96658e-06
6.38783e-06
1.02444e-05
1.79359e-05
3.06643e-05
5.7545e-06
2.42827e-06
1.23572e-06
8.15232e-07
6.65408e-07
7.22845e-07
1.02101e-06
1.64604e-06
2.74108e-06
4.5279e-06
7.53436e-06
1.38383e-05
2.53155e-05
4.13816e-05
1.14291e-05
4.87012e-06
2.39996e-06
1.74377e-06
1.48608e-06
1.50435e-06
1.84535e-06
2.60338e-06
3.99147e-06
6.48919e-06
1.12568e-05
2.14468e-05
3.58784e-05
5.31779e-05
2.35007e-05
1.36426e-05
6.77187e-06
3.83483e-06
3.14347e-06
3.083e-06
3.53342e-06
4.61876e-06
6.66559e-06
1.0649e-05
1.83294e-05
3.12038e-05
4.66905e-05
6.19866e-05
3.87976e-05
2.81968e-05
1.71331e-05
9.3942e-06
6.37725e-06
5.83921e-06
6.39022e-06
7.97665e-06
1.10266e-05
1.67412e-05
2.64221e-05
4.02259e-05
5.39411e-05
6.44842e-05
5.33268e-05
4.47588e-05
3.26864e-05
2.09011e-05
1.34687e-05
1.05416e-05
1.04915e-05
1.23703e-05
1.61988e-05
2.30482e-05
3.35057e-05
4.57603e-05
5.55779e-05
6.22772e-05
4.88505e-05
3.61334e-05
2.53396e-05
1.70939e-05
1.20492e-05
9.27967e-06
8.7154e-06
1.08287e-05
1.66267e-05
2.59495e-05
3.77246e-05
4.99928e-05
5.94471e-05
6.30694e-05
3.94764e-05
2.7959e-05
1.8342e-05
1.1749e-05
8.03232e-06
5.96597e-06
5.35847e-06
6.59196e-06
1.07574e-05
1.80557e-05
2.74797e-05
3.72482e-05
4.52038e-05
4.96913e-05
2.7504e-05
1.82863e-05
1.13592e-05
6.99627e-06
4.64693e-06
3.39114e-06
3.0082e-06
3.8001e-06
6.67517e-06
1.2072e-05
1.93159e-05
2.70958e-05
3.38592e-05
3.90565e-05
1.63794e-05
1.00518e-05
5.84832e-06
3.4673e-06
2.2573e-06
1.65924e-06
1.53594e-06
2.14032e-06
4.12237e-06
7.95912e-06
1.33382e-05
1.9286e-05
2.47011e-05
2.93378e-05
8.43996e-06
4.56788e-06
2.45642e-06
1.39949e-06
9.08491e-07
6.98057e-07
7.45394e-07
1.26102e-06
2.687e-06
5.4302e-06
9.43212e-06
1.40566e-05
1.84906e-05
2.26456e-05
3.95311e-06
1.80743e-06
8.63119e-07
4.6701e-07
3.0719e-07
2.70922e-07
3.95481e-07
8.53574e-07
1.95315e-06
4.00313e-06
7.05084e-06
1.07151e-05
1.44335e-05
1.81281e-05
2.11287e-06
8.08208e-07
3.16855e-07
1.49718e-07
1.01972e-07
1.28691e-07
2.81473e-07
7.03779e-07
1.62149e-06
3.26032e-06
5.68492e-06
8.70163e-06
1.20048e-05
1.58312e-05
1.76156e-06
6.30613e-07
2.19962e-07
9.19079e-08
6.75808e-08
1.14998e-07
2.83227e-07
6.92502e-07
1.51531e-06
2.91766e-06
4.96544e-06
7.60064e-06
1.08007e-05
1.54525e-05
2.17712e-06
8.11373e-07
3.19424e-07
1.61177e-07
1.26513e-07
1.8174e-07
3.67365e-07
7.83584e-07
1.57021e-06
2.86497e-06
4.77039e-06
7.42172e-06
1.13195e-05
1.79112e-05
3.38791e-06
1.32511e-06
6.16858e-07
3.83897e-07
3.16207e-07
3.71844e-07
5.82383e-07
1.03281e-06
1.85537e-06
3.22217e-06
5.38586e-06
8.83637e-06
1.45465e-05
2.31903e-05
6.58543e-06
2.60895e-06
1.29172e-06
9.13659e-07
7.79976e-07
8.2724e-07
1.08719e-06
1.6503e-06
2.69596e-06
4.51974e-06
7.61523e-06
1.27428e-05
2.05415e-05
3.08458e-05
1.36916e-05
7.26117e-06
3.48934e-06
2.06831e-06
1.78329e-06
1.82622e-06
2.20158e-06
3.03502e-06
4.5781e-06
7.26285e-06
1.17357e-05
1.88741e-05
2.84093e-05
4.01065e-05
2.38988e-05
1.53719e-05
8.65309e-06
4.76302e-06
3.65942e-06
3.68352e-06
4.24435e-06
5.47887e-06
7.67792e-06
1.13521e-05
1.72018e-05
2.59221e-05
3.69502e-05
4.86304e-05
3.44928e-05
2.53164e-05
1.68389e-05
1.03774e-05
7.32409e-06
6.71814e-06
7.36607e-06
8.98543e-06
1.1768e-05
1.62824e-05
2.34098e-05
3.3674e-05
4.48444e-05
5.58498e-05
6.46989e-05
6.7174e-05
7.19087e-05
7.99856e-05
8.87469e-05
9.25572e-05
5.67558e-05
5.88228e-05
6.39029e-05
7.45262e-05
9.12941e-05
0.000104909
4.9874e-05
5.1027e-05
5.62144e-05
6.81874e-05
9.10441e-05
0.000115203
4.2466e-05
4.50544e-05
5.13551e-05
6.3782e-05
8.96779e-05
0.000123173
3.71408e-05
4.21475e-05
5.02946e-05
6.29116e-05
8.92672e-05
0.000128663
3.51961e-05
4.34669e-05
5.35367e-05
6.58946e-05
9.01534e-05
0.000131685
3.8789e-05
5.00661e-05
6.10392e-05
7.20684e-05
9.23671e-05
0.000132448
4.80697e-05
6.13873e-05
7.11593e-05
7.91978e-05
9.4462e-05
0.000131724
6.13896e-05
7.3437e-05
7.91111e-05
8.34246e-05
9.41673e-05
0.000129345
7.31118e-05
7.97864e-05
8.08502e-05
8.2944e-05
9.08927e-05
0.000125458
7.75005e-05
7.84567e-05
7.75087e-05
7.94322e-05
8.61439e-05
0.000120113
7.45088e-05
7.31831e-05
7.26895e-05
7.54599e-05
8.16637e-05
0.000113557
6.84578e-05
6.76036e-05
6.84281e-05
7.1983e-05
7.82565e-05
0.00010535
6.27922e-05
6.31378e-05
6.46764e-05
6.91446e-05
7.6429e-05
9.49573e-05
6.20561e-05
6.37508e-05
6.6534e-05
7.20917e-05
8.05618e-05
9.10937e-05
5.35413e-05
5.50913e-05
5.88496e-05
6.68285e-05
8.18177e-05
0.000101275
4.5567e-05
4.72989e-05
5.17512e-05
6.119e-05
8.13383e-05
0.000109612
3.73318e-05
4.07729e-05
4.69789e-05
5.75658e-05
8.08374e-05
0.000116053
3.11883e-05
3.65965e-05
4.5146e-05
5.73474e-05
8.2152e-05
0.000120664
2.80436e-05
3.58175e-05
4.67209e-05
6.01325e-05
8.52228e-05
0.000123936
2.91801e-05
3.93824e-05
5.22421e-05
6.58666e-05
8.86521e-05
0.000125477
3.48352e-05
4.74726e-05
6.1531e-05
7.35964e-05
9.09237e-05
0.000125815
4.44028e-05
5.85235e-05
7.16202e-05
7.98198e-05
9.01815e-05
0.000124801
5.5244e-05
6.823e-05
7.74898e-05
8.09091e-05
8.60912e-05
0.000122136
6.38169e-05
7.27388e-05
7.71538e-05
7.76188e-05
8.06219e-05
0.00011726
6.73856e-05
7.17818e-05
7.32254e-05
7.32294e-05
7.62378e-05
0.000110413
6.6215e-05
6.79065e-05
6.85653e-05
6.95457e-05
7.34306e-05
0.000101627
6.24913e-05
6.36455e-05
6.43456e-05
6.6807e-05
7.23416e-05
9.0779e-05
6.20546e-05
6.56541e-05
6.73425e-05
6.89946e-05
7.28311e-05
8.38838e-05
5.01281e-05
5.45082e-05
5.88711e-05
6.40215e-05
7.31518e-05
9.17976e-05
4.13358e-05
4.60756e-05
5.1729e-05
5.89637e-05
7.23142e-05
9.8602e-05
3.29927e-05
3.8687e-05
4.60177e-05
5.56661e-05
7.27208e-05
0.000104489
2.68562e-05
3.33538e-05
4.24985e-05
5.44701e-05
7.53513e-05
0.000109635
2.26835e-05
3.00643e-05
4.10693e-05
5.52831e-05
7.9836e-05
0.000113778
2.12415e-05
2.9974e-05
4.27986e-05
5.8404e-05
8.41956e-05
0.000116532
2.25097e-05
3.28768e-05
4.78231e-05
6.45e-05
8.68427e-05
0.000117405
2.6447e-05
3.87403e-05
5.55945e-05
7.1844e-05
8.72503e-05
0.000116683
3.25647e-05
4.62871e-05
6.37538e-05
7.65571e-05
8.46688e-05
0.000114333
3.97222e-05
5.38086e-05
6.93767e-05
7.7704e-05
8.07055e-05
0.00011028
4.69646e-05
5.97022e-05
7.21055e-05
7.6957e-05
7.74406e-05
0.000104105
5.36245e-05
6.40273e-05
7.31613e-05
7.5816e-05
7.59509e-05
9.54285e-05
5.87466e-05
6.72543e-05
7.30885e-05
7.42506e-05
7.56568e-05
8.44713e-05
5.84638e-05
5.95527e-05
6.18373e-05
6.76283e-05
7.67395e-05
9.75249e-05
5.37513e-05
5.40848e-05
5.67274e-05
6.44285e-05
7.87106e-05
0.00010953
4.91243e-05
4.85905e-05
5.14753e-05
6.05277e-05
7.92561e-05
0.0001194
4.21163e-05
4.30031e-05
4.7604e-05
5.77739e-05
7.93419e-05
0.000126957
3.43385e-05
3.78796e-05
4.53606e-05
5.74232e-05
8.0301e-05
0.00013222
2.75261e-05
3.43688e-05
4.52992e-05
5.97174e-05
8.26672e-05
0.000135135
2.40778e-05
3.41344e-05
4.8332e-05
6.46263e-05
8.66157e-05
0.000135738
2.45631e-05
3.84355e-05
5.55238e-05
7.20001e-05
9.06403e-05
0.000134137
2.99266e-05
4.7774e-05
6.62225e-05
7.9837e-05
9.24621e-05
0.000130381
4.0011e-05
5.98435e-05
7.61403e-05
8.4309e-05
9.05482e-05
0.000124994
5.22253e-05
6.96608e-05
8.03894e-05
8.32453e-05
8.54833e-05
0.000118144
6.22421e-05
7.36221e-05
7.87118e-05
7.88664e-05
7.97148e-05
0.000110353
6.62281e-05
7.18793e-05
7.36539e-05
7.35675e-05
7.47052e-05
0.000101438
6.43309e-05
6.6748e-05
6.70989e-05
6.79792e-05
7.09469e-05
9.1024e-05
5.78114e-05
5.95171e-05
6.11524e-05
6.54404e-05
7.29989e-05
9.25116e-05
5.21167e-05
5.38322e-05
5.67522e-05
6.26541e-05
7.47229e-05
0.000102927
4.55406e-05
4.7968e-05
5.20717e-05
5.93124e-05
7.48562e-05
0.000111548
3.69664e-05
4.11615e-05
4.75571e-05
5.68142e-05
7.464e-05
0.00011813
2.84305e-05
3.43711e-05
4.34137e-05
5.56115e-05
7.56296e-05
0.000122717
2.18758e-05
2.90677e-05
4.04505e-05
5.57537e-05
7.83996e-05
0.000125869
1.81831e-05
2.6613e-05
4.00897e-05
5.80028e-05
8.28134e-05
0.000127453
1.72161e-05
2.77347e-05
4.37796e-05
6.34585e-05
8.75383e-05
0.00012687
1.97636e-05
3.3408e-05
5.23846e-05
7.18327e-05
9.00827e-05
0.000124162
2.63131e-05
4.29454e-05
6.33949e-05
7.91502e-05
8.87361e-05
0.000119771
3.59755e-05
5.33558e-05
7.15706e-05
8.11111e-05
8.38549e-05
0.000113729
4.64976e-05
6.13141e-05
7.41292e-05
7.84154e-05
7.84266e-05
0.000106109
5.46541e-05
6.49563e-05
7.21013e-05
7.35456e-05
7.38403e-05
9.70632e-05
5.7857e-05
6.402e-05
6.67625e-05
6.74708e-05
6.99257e-05
8.65556e-05
6.09582e-05
6.69806e-05
7.03007e-05
7.22857e-05
7.53487e-05
8.47869e-05
4.92791e-05
5.6492e-05
6.3435e-05
6.96139e-05
7.70833e-05
9.43579e-05
3.96172e-05
4.77963e-05
5.68827e-05
6.57971e-05
7.64453e-05
0.000102552
3.03406e-05
3.89e-05
4.98807e-05
6.18513e-05
7.56066e-05
0.000109007
2.25276e-05
3.09533e-05
4.3212e-05
5.79167e-05
7.54709e-05
0.000113801
1.71994e-05
2.49707e-05
3.73419e-05
5.41843e-05
7.60086e-05
0.000117204
1.38695e-05
2.126e-05
3.35179e-05
5.18615e-05
7.81211e-05
0.000119064
1.20737e-05
1.94838e-05
3.22474e-05
5.23491e-05
8.10866e-05
0.000118726
1.18974e-05
2.0296e-05
3.47875e-05
5.66553e-05
8.31912e-05
0.000116094
1.39569e-05
2.38884e-05
4.08987e-05
6.32986e-05
8.32994e-05
0.000111609
1.84291e-05
2.96736e-05
4.83213e-05
6.82895e-05
8.06852e-05
0.000105621
2.48884e-05
3.64943e-05
5.45027e-05
7.04081e-05
7.74744e-05
9.85739e-05
3.2309e-05
4.33775e-05
5.85935e-05
7.00105e-05
7.46022e-05
9.02265e-05
3.89002e-05
4.88917e-05
6.01264e-05
6.71734e-05
7.20549e-05
8.02763e-05
9.0515e-05
8.73416e-05
8.57578e-05
8.53379e-05
8.47248e-05
8.24255e-05
0.000102278
9.6079e-05
9.52609e-05
9.44641e-05
9.10039e-05
8.50538e-05
0.000113576
0.000106561
0.000102658
9.75208e-05
8.779e-05
7.5932e-05
0.000123809
0.000115142
0.000102797
8.94119e-05
7.27902e-05
5.70165e-05
0.000131559
0.000116136
9.12944e-05
7.08136e-05
5.19349e-05
3.68754e-05
0.000136157
0.000106365
7.26075e-05
5.05625e-05
3.38928e-05
2.18683e-05
0.000137686
9.06366e-05
5.6025e-05
3.62985e-05
2.29155e-05
1.35401e-05
0.000135987
7.6336e-05
4.56807e-05
2.93681e-05
1.86242e-05
1.07736e-05
0.00013265
6.71237e-05
4.12583e-05
2.82947e-05
1.94618e-05
1.18909e-05
0.00012825
6.36503e-05
4.15329e-05
3.17667e-05
2.48623e-05
1.68775e-05
0.000122322
6.40884e-05
4.53547e-05
3.83069e-05
3.38331e-05
2.68632e-05
0.000114685
6.6472e-05
5.11947e-05
4.60406e-05
4.37647e-05
3.93851e-05
0.000105063
6.88082e-05
5.77945e-05
5.3919e-05
5.26457e-05
5.01658e-05
9.35153e-05
6.90381e-05
6.28232e-05
6.04199e-05
6.02226e-05
5.87967e-05
8.89866e-05
8.22205e-05
8.04337e-05
8.02854e-05
7.83305e-05
7.37944e-05
0.000101102
9.19881e-05
9.10784e-05
8.82267e-05
8.05979e-05
7.16659e-05
0.000112229
0.000103276
9.8033e-05
8.80575e-05
7.29736e-05
5.95592e-05
0.000121364
0.00011278
9.60655e-05
7.69583e-05
5.68844e-05
4.22586e-05
0.00012758
0.000113771
8.25782e-05
5.83296e-05
3.8766e-05
2.61011e-05
0.000130278
0.000103217
6.3858e-05
4.02945e-05
2.46034e-05
1.47942e-05
0.000130089
8.73958e-05
4.85316e-05
2.83927e-05
1.63932e-05
8.90394e-06
0.000127825
7.31969e-05
3.99376e-05
2.34099e-05
1.35819e-05
7.21692e-06
0.000123592
6.36738e-05
3.71787e-05
2.3559e-05
1.47273e-05
8.26219e-06
0.000118788
5.96197e-05
3.8715e-05
2.77099e-05
1.94537e-05
1.18987e-05
0.000113538
5.96877e-05
4.30277e-05
3.48357e-05
2.80276e-05
1.98246e-05
0.000106877
6.24166e-05
4.89471e-05
4.33438e-05
3.86417e-05
3.15071e-05
9.84481e-05
6.56645e-05
5.56686e-05
5.19201e-05
4.90172e-05
4.36034e-05
8.82975e-05
6.69289e-05
6.15296e-05
5.98894e-05
5.92592e-05
5.55247e-05
8.32098e-05
7.78443e-05
7.39612e-05
6.97017e-05
6.08131e-05
5.18434e-05
9.55661e-05
8.6337e-05
8.02316e-05
6.97616e-05
5.51466e-05
4.43126e-05
0.000106204
9.51012e-05
8.13732e-05
6.31088e-05
4.44114e-05
3.31402e-05
0.000114503
0.000101845
7.57271e-05
5.12798e-05
3.21603e-05
2.20801e-05
0.000119894
0.000100514
6.33983e-05
3.76532e-05
2.14344e-05
1.33801e-05
0.000122131
9.07137e-05
4.92519e-05
2.62899e-05
1.41124e-05
7.78931e-06
0.000121498
7.7861e-05
3.88045e-05
1.9761e-05
1.03428e-05
5.12226e-06
0.000118949
6.72343e-05
3.39759e-05
1.78686e-05
9.49592e-06
4.57642e-06
0.000114966
6.04601e-05
3.34831e-05
1.90053e-05
1.06758e-05
5.37168e-06
0.000110059
5.80201e-05
3.63521e-05
2.28481e-05
1.39963e-05
7.58982e-06
0.000104485
5.86793e-05
4.11713e-05
2.91183e-05
2.02608e-05
1.28408e-05
9.81333e-05
6.16481e-05
4.76857e-05
3.76128e-05
2.90225e-05
2.10137e-05
9.03807e-05
6.58647e-05
5.52279e-05
4.72223e-05
3.91892e-05
3.10942e-05
8.09714e-05
6.83932e-05
6.26432e-05
5.78852e-05
5.11639e-05
4.2831e-05
9.02305e-05
9.05955e-05
8.32232e-05
7.6433e-05
7.25788e-05
7.07353e-05
0.000100925
9.54391e-05
8.85109e-05
8.31127e-05
8.01236e-05
7.87739e-05
0.000110907
0.0001024
9.51616e-05
9.05483e-05
8.74468e-05
8.48351e-05
0.000120137
0.000110289
0.000100557
9.46374e-05
8.87115e-05
8.19734e-05
0.000127542
0.000114926
9.90482e-05
8.89612e-05
7.82043e-05
6.73985e-05
0.000132197
0.000111934
8.72561e-05
7.29105e-05
5.96359e-05
4.83956e-05
0.000133902
0.000102215
7.10862e-05
5.48479e-05
4.2222e-05
3.28816e-05
0.000133701
9.06849e-05
5.809e-05
4.25515e-05
3.20244e-05
2.4434e-05
0.000131411
8.14454e-05
5.11054e-05
3.75149e-05
2.92253e-05
2.29127e-05
0.000127521
7.71115e-05
4.98312e-05
3.8812e-05
3.2955e-05
2.78734e-05
0.000121811
7.75547e-05
5.38943e-05
4.51798e-05
4.15414e-05
3.78238e-05
0.000114037
8.03287e-05
6.16659e-05
5.48078e-05
5.26725e-05
5.06212e-05
0.000104108
8.26072e-05
7.06387e-05
6.56355e-05
6.39373e-05
6.23878e-05
9.21519e-05
8.19385e-05
7.71469e-05
7.49618e-05
7.48298e-05
7.40528e-05
9.01492e-05
8.31266e-05
7.72936e-05
7.32449e-05
7.08937e-05
6.91785e-05
0.000101857
8.8971e-05
8.48125e-05
8.16523e-05
7.87428e-05
7.61529e-05
0.000111955
9.74858e-05
9.33194e-05
8.90823e-05
8.34506e-05
7.75715e-05
0.000120124
0.000107423
9.93371e-05
9.0847e-05
7.98743e-05
6.96641e-05
0.000125716
0.00011433
9.65065e-05
8.18659e-05
6.6174e-05
5.413e-05
0.000128042
0.00011194
8.30215e-05
6.45556e-05
4.84929e-05
3.75735e-05
0.000127714
0.000101535
6.60768e-05
4.72513e-05
3.37652e-05
2.50705e-05
0.000125953
8.90653e-05
5.31111e-05
3.6164e-05
2.54907e-05
1.86206e-05
0.000123177
7.81494e-05
4.63272e-05
3.19959e-05
2.35755e-05
1.77329e-05
0.000119028
7.11425e-05
4.4774e-05
3.35746e-05
2.71854e-05
2.19515e-05
0.000113859
6.92531e-05
4.78821e-05
3.96275e-05
3.51934e-05
3.05546e-05
0.000107303
7.12817e-05
5.45106e-05
4.86307e-05
4.5989e-05
4.25584e-05
9.91531e-05
7.42714e-05
6.29924e-05
5.90454e-05
5.7441e-05
5.4884e-05
8.92141e-05
7.52547e-05
7.03602e-05
6.93747e-05
6.98798e-05
6.83553e-05
8.52947e-05
7.73816e-05
7.55518e-05
7.41625e-05
7.00353e-05
6.44331e-05
9.8096e-05
8.4695e-05
8.32622e-05
7.91478e-05
7.07663e-05
6.27139e-05
0.00010849
9.41468e-05
8.97436e-05
8.03333e-05
6.65974e-05
5.55634e-05
0.000115738
0.00010319
9.17931e-05
7.54266e-05
5.69905e-05
4.45956e-05
0.000120106
0.0001078
8.51035e-05
6.33658e-05
4.41357e-05
3.2773e-05
0.00012149
0.000103562
7.08457e-05
4.85417e-05
3.20919e-05
2.2614e-05
0.000120444
9.29759e-05
5.60663e-05
3.59584e-05
2.32079e-05
1.58068e-05
0.000117803
8.16624e-05
4.59581e-05
2.86176e-05
1.87915e-05
1.28472e-05
0.000113785
7.15797e-05
4.13769e-05
2.64815e-05
1.83563e-05
1.30872e-05
0.000108727
6.44234e-05
4.10726e-05
2.86796e-05
2.14737e-05
1.62312e-05
0.00010297
6.17923e-05
4.3965e-05
3.40229e-05
2.74283e-05
2.19529e-05
9.67372e-05
6.31853e-05
4.97689e-05
4.22245e-05
3.62402e-05
3.05401e-05
8.97586e-05
6.68781e-05
5.7617e-05
5.20803e-05
4.67808e-05
4.09276e-05
8.15784e-05
6.9611e-05
6.58847e-05
6.38185e-05
6.02065e-05
5.41763e-05
1.90753e-05
1.41472e-05
1.03679e-05
7.71226e-06
6.28677e-06
5.42041e-06
5.06506e-06
5.26501e-06
6.61601e-06
9.55423e-06
1.42315e-05
2.07953e-05
2.94944e-05
4.00246e-05
1.22779e-05
8.96268e-06
6.38134e-06
4.60947e-06
3.68007e-06
3.11759e-06
2.8834e-06
3.05968e-06
4.15623e-06
6.64532e-06
1.07047e-05
1.6296e-05
2.32875e-05
3.11171e-05
7.24619e-06
5.00062e-06
3.40495e-06
2.39431e-06
1.88067e-06
1.57359e-06
1.46661e-06
1.66074e-06
2.54285e-06
4.53802e-06
7.84348e-06
1.23784e-05
1.79836e-05
2.43194e-05
3.89583e-06
2.38234e-06
1.51155e-06
1.04491e-06
8.15551e-07
6.83897e-07
6.70159e-07
8.75262e-07
1.57727e-06
3.11978e-06
5.71546e-06
9.34963e-06
1.38762e-05
1.9098e-05
1.95092e-06
9.7662e-07
5.56399e-07
3.78244e-07
2.95287e-07
2.57764e-07
2.94135e-07
4.94024e-07
1.05787e-06
2.25347e-06
4.29874e-06
7.24789e-06
1.104e-05
1.55953e-05
1.02656e-06
3.92282e-07
1.83804e-07
1.15374e-07
9.08036e-08
9.25799e-08
1.48914e-07
3.37096e-07
8.10254e-07
1.77973e-06
3.44533e-06
5.91252e-06
9.17834e-06
1.3232e-05
7.03103e-07
2.17522e-07
7.33145e-08
3.49167e-08
2.82e-08
4.33763e-08
1.07081e-07
2.88583e-07
7.14641e-07
1.5599e-06
2.99912e-06
5.15824e-06
8.08342e-06
1.18384e-05
6.84087e-07
2.04368e-07
5.85551e-08
2.09591e-08
1.76723e-08
3.8048e-08
1.07571e-07
2.91361e-07
7.01679e-07
1.48839e-06
2.80203e-06
4.76594e-06
7.45479e-06
1.10037e-05
8.37181e-07
2.65436e-07
8.74712e-08
3.93913e-08
3.39805e-08
5.83557e-08
1.37006e-07
3.33409e-07
7.51737e-07
1.52501e-06
2.78546e-06
4.65441e-06
7.24427e-06
1.07942e-05
1.19092e-06
4.17824e-07
1.83013e-07
1.11362e-07
9.80532e-08
1.26951e-07
2.20494e-07
4.4038e-07
8.84731e-07
1.67555e-06
2.93887e-06
4.80498e-06
7.45495e-06
1.12588e-05
2.00618e-06
7.88886e-07
4.36678e-07
3.16855e-07
2.83093e-07
3.16745e-07
4.37818e-07
7.06133e-07
1.21902e-06
2.10417e-06
3.5103e-06
5.60116e-06
8.62044e-06
1.29334e-05
3.91381e-06
1.76328e-06
1.02014e-06
8.18312e-07
7.48396e-07
7.89199e-07
9.63383e-07
1.33541e-06
2.01581e-06
3.16077e-06
4.95569e-06
7.59091e-06
1.13388e-05
1.61349e-05
7.35937e-06
3.74338e-06
2.25453e-06
1.86254e-06
1.76024e-06
1.82563e-06
2.0989e-06
2.66164e-06
3.65246e-06
5.26354e-06
7.7264e-06
1.12763e-05
1.61888e-05
2.17878e-05
1.15372e-05
6.93112e-06
4.66787e-06
3.82814e-06
3.66253e-06
3.79503e-06
4.22646e-06
5.07008e-06
6.49389e-06
8.74004e-06
1.2123e-05
1.71617e-05
2.38719e-05
3.13526e-05
8.61406e-06
6.78951e-06
5.41694e-06
4.35609e-06
3.86521e-06
3.58103e-06
3.47567e-06
3.52197e-06
3.97608e-06
5.19034e-06
7.47754e-06
1.0928e-05
1.58875e-05
2.31718e-05
5.08066e-06
3.84447e-06
2.96266e-06
2.34549e-06
2.06862e-06
1.90354e-06
1.84285e-06
1.90374e-06
2.29939e-06
3.35626e-06
5.40846e-06
8.63507e-06
1.32245e-05
1.94953e-05
2.81681e-06
1.91113e-06
1.39106e-06
1.09299e-06
9.6256e-07
8.83027e-07
8.6575e-07
9.52046e-07
1.30949e-06
2.2102e-06
3.96306e-06
6.776e-06
1.0767e-05
1.60436e-05
1.48137e-06
8.28068e-07
5.55839e-07
4.30717e-07
3.79745e-07
3.51831e-07
3.64125e-07
4.62122e-07
7.74327e-07
1.51506e-06
2.95226e-06
5.30677e-06
8.69531e-06
1.31724e-05
7.82981e-07
3.37465e-07
1.93537e-07
1.43404e-07
1.26066e-07
1.22632e-07
1.48933e-07
2.46986e-07
5.17133e-07
1.12965e-06
2.31207e-06
4.28572e-06
7.19715e-06
1.11416e-05
4.80528e-07
1.57759e-07
6.65097e-08
4.21238e-08
3.66283e-08
4.23341e-08
7.3348e-08
1.68285e-07
4.11308e-07
9.44655e-07
1.9621e-06
3.66901e-06
6.22787e-06
9.76062e-06
3.80648e-07
1.08427e-07
3.20706e-08
1.36681e-08
1.17294e-08
2.06744e-08
5.41548e-08
1.49785e-07
3.84391e-07
8.84207e-07
1.81829e-06
3.37058e-06
5.70373e-06
8.96163e-06
3.86921e-07
1.0995e-07
2.93109e-08
9.76575e-09
8.53795e-09
1.95236e-08
5.68129e-08
1.58909e-07
4.00218e-07
8.97337e-07
1.79978e-06
3.26805e-06
5.45078e-06
8.50057e-06
4.62784e-07
1.39642e-07
4.38177e-08
1.96389e-08
1.77878e-08
3.12532e-08
7.50666e-08
1.89778e-07
4.49818e-07
9.65447e-07
1.87069e-06
3.30769e-06
5.41361e-06
8.36014e-06
6.16781e-07
2.13617e-07
9.37316e-08
5.84315e-08
5.34913e-08
7.03144e-08
1.24331e-07
2.57785e-07
5.44704e-07
1.08948e-06
2.01258e-06
3.44026e-06
5.50795e-06
8.42343e-06
9.26442e-07
4.01295e-07
2.37112e-07
1.76676e-07
1.61335e-07
1.81755e-07
2.52778e-07
4.16118e-07
7.43738e-07
1.33545e-06
2.30415e-06
3.77102e-06
5.89723e-06
8.94565e-06
1.62952e-06
8.38356e-07
5.90927e-07
4.86728e-07
4.47857e-07
4.70244e-07
5.6946e-07
7.85394e-07
1.18697e-06
1.87507e-06
2.96742e-06
4.58823e-06
6.91018e-06
1.0206e-05
3.08672e-06
1.73169e-06
1.33334e-06
1.18031e-06
1.11253e-06
1.14109e-06
1.29135e-06
1.60798e-06
2.1628e-06
3.06897e-06
4.46052e-06
6.46268e-06
9.20837e-06
1.27789e-05
5.21373e-06
3.37354e-06
2.70575e-06
2.50323e-06
2.43956e-06
2.5108e-06
2.75968e-06
3.2576e-06
4.09715e-06
5.43171e-06
7.41691e-06
1.01865e-05
1.39166e-05
1.79688e-05
3.59823e-06
2.86124e-06
2.42928e-06
2.13125e-06
2.05075e-06
2.03233e-06
2.06562e-06
2.12681e-06
2.30762e-06
2.77534e-06
3.80031e-06
5.58586e-06
8.3954e-06
1.28548e-05
1.95278e-06
1.42693e-06
1.17143e-06
1.02045e-06
9.89102e-07
9.83853e-07
1.00332e-06
1.05201e-06
1.21033e-06
1.62991e-06
2.55571e-06
4.23388e-06
6.93884e-06
1.10628e-05
1.01775e-06
6.35729e-07
4.89904e-07
4.22405e-07
4.11884e-07
4.12111e-07
4.28112e-07
4.76232e-07
6.23805e-07
9.99005e-07
1.81133e-06
3.31179e-06
5.76794e-06
9.48047e-06
5.3979e-07
2.62995e-07
1.78109e-07
1.49063e-07
1.45266e-07
1.47774e-07
1.63219e-07
2.09834e-07
3.41211e-07
6.6256e-07
1.35164e-06
2.64771e-06
4.81202e-06
8.1022e-06
3.21159e-07
1.14568e-07
5.95134e-08
4.52792e-08
4.34864e-08
4.67927e-08
6.15691e-08
1.05466e-07
2.23126e-07
5.03694e-07
1.10018e-06
2.23065e-06
4.14488e-06
7.09234e-06
2.3039e-07
6.50948e-08
2.25157e-08
1.28525e-08
1.18121e-08
1.54839e-08
2.97696e-08
7.19984e-08
1.83109e-07
4.44136e-07
9.91548e-07
2.01914e-06
3.75187e-06
6.42348e-06
2.00402e-07
5.3105e-08
1.37596e-08
4.75003e-09
4.02879e-09
8.16081e-09
2.31838e-08
6.72989e-08
1.81635e-07
4.44667e-07
9.81919e-07
1.96492e-06
3.5914e-06
6.07393e-06
2.0914e-07
5.64012e-08
1.39779e-08
4.24332e-09
3.65137e-09
8.67314e-09
2.60987e-08
7.60489e-08
2.01901e-07
4.81734e-07
1.03252e-06
2.00602e-06
3.57426e-06
5.91671e-06
2.47501e-07
7.04615e-08
2.08606e-08
9.2395e-09
8.58747e-09
1.51272e-08
3.69012e-08
9.67165e-08
2.41139e-07
5.48595e-07
1.1293e-06
2.11836e-06
3.66737e-06
5.93186e-06
3.18759e-07
1.06291e-07
4.58286e-08
2.90578e-08
2.73246e-08
3.6146e-08
6.46128e-08
1.38128e-07
3.05918e-07
6.46332e-07
1.26344e-06
2.27697e-06
3.81897e-06
6.03469e-06
4.62356e-07
2.05847e-07
1.23892e-07
9.35545e-08
8.66231e-08
9.80733e-08
1.373e-07
2.30499e-07
4.27735e-07
8.06396e-07
1.46417e-06
2.50752e-06
4.05852e-06
6.28101e-06
7.88401e-07
4.56744e-07
3.32996e-07
2.74751e-07
2.52894e-07
2.64992e-07
3.21053e-07
4.45208e-07
6.84178e-07
1.11302e-06
1.82564e-06
2.92369e-06
4.53089e-06
6.83728e-06
1.44073e-06
9.91677e-07
8.05572e-07
7.08588e-07
6.61252e-07
6.72394e-07
7.55947e-07
9.34625e-07
1.24947e-06
1.77383e-06
2.60213e-06
3.83701e-06
5.59939e-06
8.0816e-06
2.57199e-06
1.97055e-06
1.70111e-06
1.58153e-06
1.52509e-06
1.55281e-06
1.6911e-06
1.97253e-06
2.44075e-06
3.17608e-06
4.26659e-06
5.80012e-06
7.84865e-06
1.05003e-05
1.51019e-06
1.1639e-06
9.93815e-07
9.20853e-07
9.46477e-07
9.99822e-07
1.07049e-06
1.1467e-06
1.267e-06
1.50928e-06
2.02849e-06
2.98751e-06
4.59669e-06
7.26884e-06
7.69025e-07
5.23651e-07
4.27994e-07
3.96043e-07
4.1183e-07
4.3936e-07
4.74642e-07
5.17784e-07
6.0282e-07
8.02569e-07
1.25375e-06
2.12845e-06
3.65421e-06
6.17298e-06
3.93085e-07
2.15448e-07
1.61306e-07
1.47353e-07
1.54206e-07
1.66326e-07
1.84023e-07
2.1314e-07
2.8232e-07
4.53575e-07
8.42413e-07
1.61477e-06
2.99807e-06
5.31101e-06
2.19e-07
8.76979e-08
5.40715e-08
4.70094e-08
4.90042e-08
5.39782e-08
6.39489e-08
8.62536e-08
1.4392e-07
2.87827e-07
6.15507e-07
1.28296e-06
2.51625e-06
4.62494e-06
1.43532e-07
4.21804e-08
1.79287e-08
1.31854e-08
1.33798e-08
1.57461e-08
2.25917e-08
4.13316e-08
9.18071e-08
2.18199e-07
5.06836e-07
1.10325e-06
2.22316e-06
4.15868e-06
1.11797e-07
2.83523e-08
7.97258e-09
3.75269e-09
3.4729e-09
5.13451e-09
1.10075e-08
2.86013e-08
7.70585e-08
1.98613e-07
4.74836e-07
1.04188e-06
2.09559e-06
3.89363e-06
1.02557e-07
2.57176e-08
5.9791e-09
1.66699e-09
1.31961e-09
3.0074e-09
9.22e-09
2.82653e-08
8.06472e-08
2.10058e-07
4.9654e-07
1.06725e-06
2.09685e-06
3.80889e-06
1.10215e-07
2.80527e-08
6.40328e-09
1.76132e-09
1.47059e-09
3.58268e-09
1.11604e-08
3.39978e-08
9.52072e-08
2.41249e-07
5.51003e-07
1.14192e-06
2.16861e-06
3.82103e-06
1.31327e-07
3.47443e-08
9.5045e-09
4.078e-09
3.85039e-09
6.78301e-09
1.68422e-08
4.58916e-08
1.20348e-07
2.89751e-07
6.32075e-07
1.25549e-06
2.29805e-06
3.9263e-06
1.67991e-07
5.25127e-08
2.16082e-08
1.36717e-08
1.30991e-08
1.74066e-08
3.14214e-08
6.92253e-08
1.60389e-07
3.56951e-07
7.36043e-07
1.39788e-06
2.46765e-06
4.09644e-06
2.45266e-07
1.06767e-07
6.29563e-08
4.72268e-08
4.40655e-08
5.02453e-08
7.08567e-08
1.21233e-07
2.33054e-07
4.60096e-07
8.79049e-07
1.58463e-06
2.69212e-06
4.34565e-06
4.34258e-07
2.55063e-07
1.82804e-07
1.48303e-07
1.36046e-07
1.43241e-07
1.7507e-07
2.45935e-07
3.86874e-07
6.52292e-07
1.11954e-06
1.88185e-06
3.04903e-06
4.76763e-06
8.37605e-07
5.92102e-07
4.72585e-07
4.05514e-07
3.74008e-07
3.80133e-07
4.30544e-07
5.38086e-07
7.30381e-07
1.06007e-06
1.60392e-06
2.45546e-06
3.72685e-06
5.58265e-06
1.56795e-06
1.23227e-06
1.05175e-06
9.53773e-07
9.04537e-07
9.15352e-07
9.99271e-07
1.17212e-06
1.46132e-06
1.91594e-06
2.59989e-06
3.59399e-06
4.9946e-06
6.98804e-06
7.0385e-07
5.09297e-07
4.12516e-07
3.78079e-07
3.93306e-07
4.30435e-07
4.83481e-07
5.45711e-07
6.3669e-07
7.97932e-07
1.11867e-06
1.70989e-06
2.71876e-06
4.42541e-06
3.38385e-07
2.08367e-07
1.59801e-07
1.4636e-07
1.53907e-07
1.70058e-07
1.92936e-07
2.22504e-07
2.75739e-07
3.91363e-07
6.46613e-07
1.1515e-06
2.06292e-06
3.62913e-06
1.70058e-07
7.97454e-08
5.42561e-08
4.88539e-08
5.16082e-08
5.75791e-08
6.71202e-08
8.31288e-08
1.1959e-07
2.08669e-07
4.13986e-07
8.36896e-07
1.63134e-06
3.03433e-06
9.77294e-08
3.2379e-08
1.68453e-08
1.40577e-08
1.47261e-08
1.67946e-08
2.12123e-08
3.1446e-08
5.85049e-08
1.27955e-07
2.92385e-07
6.44695e-07
1.3362e-06
2.60253e-06
6.7798e-08
1.73041e-08
5.77155e-09
3.67036e-09
3.66455e-09
4.53336e-09
7.1972e-09
1.49532e-08
3.7021e-08
9.51937e-08
2.35746e-07