/*--------------------------------*- C++ -*----------------------------------*\
| =========                 |                                                 |
| \\      /  F ield         | OpenFOAM: The Open Source CFD Toolbox           |
|  \\    /   O peration     | Version:  v2106                                 |
|   \\  /    A nd           | Website:  www.openfoam.com                      |
|    \\/     M anipulation  |                                                 |
\*---------------------------------------------------------------------------*/
FoamFile
{
    version     2.0;
    format      ascii;
    arch        "LSB;label=32;scalar=64";
    class       volScalarField;
    location    "0.000184";
    object      Ttot;
}
// * * * * * * * * * * * * * * * * * * * * * * * * * * * * * * * * * * * * * //

dimensions      [0 0 0 1 0 0 0];

internalField   nonuniform List<scalar> 
144746
(
293.867
293.755
294.39
295.282
296.343
297.128
297.639
297.815
297.482
296.335
294.726
293.279
292.454
292.996
294.119
294.563
295.171
295.909
296.631
297.108
297.544
297.728
297.605
296.791
295.413
293.915
292.883
292.817
295.28
295.78
296.328
296.783
297.206
297.431
297.702
297.815
297.748
297.161
296.025
294.57
293.324
293.048
296.58
296.963
297.313
297.508
297.689
297.79
297.929
297.958
297.88
297.422
296.526
295.296
294.125
293.656
297.595
297.811
298.009
298.077
298.107
298.123
298.148
298.118
298
297.618
296.92
295.907
294.923
294.514
298.061
298.2
298.36
298.395
298.368
298.33
298.304
298.245
298.092
297.731
297.114
296.315
295.574
295.178
298.189
298.327
298.497
298.542
298.501
298.451
298.405
298.326
298.146
297.805
297.262
296.641
296.012
295.512
298.1
298.266
298.472
298.553
298.54
298.512
298.466
298.368
298.17
297.836
297.325
296.74
296.092
295.512
297.732
297.987
298.281
298.433
298.478
298.481
298.446
298.347
298.143
297.811
297.308
296.703
295.946
295.063
297.15
297.538
297.951
298.206
298.337
298.381
298.354
298.244
298.018
297.636
297.062
296.289
295.241
293.983
296.242
296.807
297.384
297.81
298.082
298.19
298.165
298.01
297.711
297.203
296.43
295.355
294.059
292.665
295.254
295.869
296.682
297.284
297.652
297.829
297.815
297.609
297.189
296.467
295.427
294.066
292.779
291.646
294.332
294.934
295.816
296.601
297.087
297.31
297.28
296.975
296.381
295.452
294.204
292.808
291.86
291.159
294.406
294.219
294.98
295.834
296.501
296.744
296.781
296.419
295.711
294.725
293.451
292.402
291.945
292.066
293.771
293.802
294.558
295.486
296.413
297.13
297.685
297.933
297.739
296.869
295.413
293.808
292.531
292.397
294.369
294.869
295.519
296.202
296.854
297.345
297.816
298.034
297.937
297.309
296.056
294.513
293.045
292.226
295.584
296.127
296.659
297.114
297.552
297.816
298.101
298.225
298.129
297.666
296.648
295.274
293.764
292.864
296.83
297.236
297.536
297.799
298.042
298.191
298.338
298.378
298.265
297.894
297.075
295.929
294.622
293.733
297.701
297.916
298.046
298.205
298.35
298.436
298.483
298.465
298.329
297.997
297.364
296.442
295.426
294.747
298.054
298.177
298.266
298.389
298.489
298.519
298.535
298.475
298.337
298.028
297.515
296.802
296.067
295.527
298.038
298.179
298.312
298.453
298.54
298.544
298.538
298.457
298.301
298.009
297.566
297.05
296.499
296.034
297.885
298.074
298.278
298.434
298.533
298.534
298.512
298.423
298.262
297.977
297.587
297.154
296.679
296.238
297.489
297.8
298.133
298.361
298.475
298.476
298.449
298.355
298.194
297.906
297.533
297.117
296.608
296.043
296.961
297.437
297.913
298.211
298.354
298.378
298.35
298.236
298.06
297.746
297.326
296.823
296.139
295.29
296.156
296.821
297.491
297.94
298.155
298.197
298.166
298.014
297.807
297.395
296.847
296.125
295.167
294.081
295.297
296.105
296.974
297.526
297.82
297.881
297.846
297.662
297.36
296.809
296.059
295.068
293.876
292.807
294.446
295.319
296.271
297.013
297.401
297.486
297.38
297.121
296.625
295.908
294.923
293.736
292.565
291.747
294.333
294.649
295.508
296.335
296.852
297.017
296.877
296.555
295.89
295.04
293.86
292.691
291.771
291.703
295.841
295.631
295.969
296.447
296.993
297.345
297.718
297.856
297.793
297.227
296.047
294.434
292.928
292.126
296.522
296.804
297.042
297.306
297.641
297.82
298.044
298.103
298.04
297.534
296.474
294.969
293.385
291.955
297.552
297.846
297.988
298.052
298.209
298.244
298.325
298.307
298.197
297.747
296.86
295.491
293.947
292.547
298.318
298.464
298.472
298.478
298.485
298.453
298.453
298.385
298.24
297.813
297.045
295.871
294.545
293.284
298.681
298.733
298.692
298.631
298.56
298.472
298.419
298.328
298.181
297.785
297.157
296.202
295.115
294.081
298.769
298.76
298.699
298.622
298.519
298.397
298.315
298.22
298.061
297.686
297.111
296.321
295.496
294.698
298.692
298.677
298.633
298.543
298.424
298.287
298.184
298.089
297.924
297.607
297.091
296.444
295.795
295.193
298.547
298.583
298.545
298.45
298.317
298.172
298.053
297.947
297.769
297.47
296.995
296.464
295.933
295.454
298.215
298.367
298.405
298.34
298.21
298.069
297.946
297.831
297.644
297.353
296.912
296.456
295.984
295.518
297.803
298.076
298.186
298.163
298.077
297.965
297.852
297.721
297.508
297.206
296.791
296.34
295.852
295.299
297.219
297.646
297.917
297.956
297.892
297.804
297.683
297.523
297.272
296.953
296.522
296.015
295.421
294.699
296.629
297.148
297.532
297.622
297.59
297.533
297.407
297.191
296.893
296.511
295.997
295.37
294.586
293.734
296.048
296.65
297.081
297.247
297.25
297.176
296.992
296.676
296.293
295.775
295.133
294.326
293.448
292.624
295.924
296.053
296.368
296.606
296.695
296.674
296.446
296.042
295.573
294.948
294.114
293.164
292.236
292.013
294.46
295.858
296.822
298.266
299.166
300.027
293.12
294.629
295.748
297.488
298.642
300.02
293.566
294.95
295.636
297.004
297.731
299.138
293.799
294.761
295.128
296.148
296.392
297.777
294.416
294.967
294.949
295.584
295.318
296.463
294.754
294.808
294.41
294.832
294.316
295.417
294.832
294.542
293.926
294.186
293.54
294.61
294.581
293.834
293.061
293.261
292.808
293.777
293.781
292.847
292.353
292.754
292.7
293.611
292.644
291.975
291.979
292.752
293.316
294.434
291.694
291.541
292.113
293.404
294.624
296.062
291.244
291.567
292.706
294.467
295.998
297.42
291.5
292.282
293.647
295.521
297.072
298.254
292.07
293.042
294.639
296.556
297.915
298.911
292.984
294.272
295.232
296.6
297.381
298.422
291.865
293.051
294.211
296.001
296.825
298.361
292.748
293.53
294.217
295.675
295.998
297.602
293.44
293.759
293.918
294.938
294.788
296.381
294.427
294.415
294.109
294.576
293.943
295.081
295.047
294.709
294.054
294.064
293.307
293.828
295.467
294.954
293.968
293.475
292.488
293.039
295.533
294.66
293.36
292.617
291.7
292.329
295.022
293.798
292.511
291.982
291.378
292.016
293.979
292.682
291.743
291.78
291.652
292.643
292.756
291.793
291.424
292.101
292.544
293.804
291.739
291.252
291.417
292.702
293.49
294.98
291.151
291.116
291.808
293.364
294.413
295.784
290.857
291.234
292.29
293.994
295.16
296.278
291.932
292.678
293.305
294.748
296.273
297.484
290.815
291.3
292.119
293.964
295.67
297.551
291.688
291.837
292.587
294.013
294.969
296.609
292.421
292.199
292.642
293.672
293.895
295.142
293.365
292.934
292.975
293.463
293.051
293.829
294.077
293.529
293.187
292.967
292.128
292.253
294.654
294.04
293.353
292.522
291.284
290.853
294.949
294.172
293.038
291.584
290.149
289.773
294.935
293.787
292.258
290.623
289.369
289.178
294.435
292.905
291.208
289.924
289.009
289.436
293.506
291.857
290.409
289.813
289.582
290.51
292.403
290.963
289.99
290.105
290.585
291.898
291.393
290.39
289.934
290.616
291.852
293.294
290.584
289.85
289.918
291.202
292.971
294.192
293.215
294.73
295.823
297.293
298.207
299.137
291.976
293.454
294.622
296.422
297.453
298.851
292.553
293.882
294.691
296.122
296.538
297.905
293.094
293.87
294.253
295.359
295.431
296.848
294.168
294.462
294.425
295.081
294.697
296.069
294.958
294.748
294.204
294.425
293.85
295.204
295.59
295.134
294.254
294.112
293.301
294.47
295.844
295.145
293.886
293.444
292.556
293.548
295.751
294.819
293.397
292.844
291.997
292.933
295.377
294.141
292.824
292.426
291.854
292.671
294.635
293.453
292.58
292.529
292.38
293.246
293.958
293.112
292.694
293.083
293.389
294.219
293.541
293.145
293.221
293.982
294.611
295.438
293.395
293.563
294.082
295.19
295.984
296.654
291.767
292.763
293.526
294.82
295.533
296.636
290.947
291.69
292.487
294.194
294.961
296.571
291.987
292.283
292.771
294.214
294.418
295.989
292.937
292.704
292.741
293.785
293.666
295.201
294.152
293.617
293.274
293.802
293.198
294.587
295.037
294.294
293.47
293.434
292.526
293.681
295.756
294.901
293.774
293.343
292.158
292.85
296.044
295.14
293.723
292.877
291.546
291.947
296.166
295.055
293.27
292.195
290.92
291.291
295.842
294.434
292.537
291.556
290.591
291.099
295.129
293.585
291.964
291.423
290.83
291.737
294.272
292.93
291.828
291.82
291.613
292.616
293.588
292.693
292.159
292.639
292.816
293.779
293.055
292.559
292.664
293.693
294.295
294.347
291.293
291.194
291.327
292.476
293.973
295.21
290.604
290.294
290.395
291.874
293.501
295.338
291.768
291.071
291.09
292.316
293.372
294.99
292.82
291.877
291.665
292.483
292.92
294.203
293.871
292.847
292.448
292.816
292.632
293.551
294.663
293.663
292.985
292.724
291.997
292.456
295.309
294.413
293.525
292.755
291.482
291.479
295.758
294.866
293.811
292.567
290.766
290.455
296.011
295.158
293.737
292.078
290.131
289.873
295.961
295.03
293.314
291.478
289.624
289.6
295.798
294.647
292.841
291.231
289.842
290.257
295.536
294.254
292.665
291.515
290.659
291.487
295.127
293.956
292.728
292.124
291.852
292.803
294.603
293.69
292.879
292.951
293.209
293.307
297.172
296.506
295.579
294.437
293.591
293.342
295.886
295.065
294.46
293.87
293.603
293.83
294.952
294.063
293.997
293.867
294.108
294.702
294.738
293.957
294.329
294.537
295.177
295.898
295.319
294.54
295.347
295.663
296.463
296.998
296.766
295.645
296.769
296.867
297.518
297.708
298.241
296.91
297.846
297.616
297.907
297.932
299.443
298.266
298.666
298.052
298.054
297.929
300.463
298.951
298.767
297.829
297.661
297.503
301.137
299.381
298.733
297.466
297.09
296.88
300.994
299.256
298.201
296.605
296.082
295.818
300.535
298.928
297.786
296.052
295.416
294.822
299.565
298.109
296.811
295.068
294.418
293.588
298.038
297.333
296.487
295.378
295.098
294.289
295.32
295.423
294.647
293.565
292.911
292.992
294.518
293.728
293.535
293.176
293.223
293.723
293.582
292.822
293.171
293.286
293.879
294.755
292.95
292.74
293.613
294.134
295.08
296.057
293.329
293.514
294.658
295.403
296.409
297.162
294.338
294.849
296.052
296.622
297.366
297.779
295.688
296.228
297.077
297.171
297.581
297.86
296.921
297.355
297.66
297.337
297.476
297.676
298.189
297.633
297.523
296.951
296.985
297.182
299.035
297.742
297.272
296.391
296.293
296.538
298.961
297.497
296.678
295.463
295.273
295.599
298.493
297.021
296.197
294.741
294.371
294.595
297.453
296.014
295.121
293.688
293.316
293.35
296.043
295.402
294.854
293.994
293.887
293.781
293.837
294.414
293.941
293.582
294.023
294.842
293.113
292.659
293.09
293.749
294.776
295.763
291.739
292.018
292.977
294.34
295.731
296.861
290.977
292.152
293.471
295.476
296.885
297.869
291.117
292.928
294.574
296.721
297.832
298.401
292.082
294.39
295.935
297.7
298.375
298.621
293.388
295.89
296.891
298.093
298.458
298.632
294.947
296.901
297.366
298.067
298.253
298.444
296.457
297.425
297.473
297.7
297.751
297.977
297.453
297.589
297.109
296.99
297.037
297.389
297.749
297.102
296.239
295.913
296.081
296.558
297.328
296.389
295.425
294.899
295.208
295.756
296.363
295.135
294.236
293.716
294.274
294.86
294.958
294.528
294.081
294.02
294.72
295.349
299.457
298.659
297.509
295.908
294.517
293.426
298.817
297.815
296.562
295.051
293.807
293.044
297.906
296.647
295.631
294.524
293.675
293.318
296.682
295.733
295.329
294.66
294.298
294.355
296.18
295.469
295.675
295.392
295.54
295.845
296.939
296.329
296.909
296.755
297.123
297.228
297.887
297.758
298.308
297.958
298.133
297.882
299.452
299.043
299.234
298.544
298.37
297.8
300.636
299.997
299.489
298.415
297.998
297.339
301.893
300.046
299.362
297.999
297.256
296.433
301.875
300.069
298.952
297.153
296.114
295.14
301.464
299.855
298.557
296.622
295.46
294.224
300.473
299.037
297.52
295.56
294.362
293.111
298.797
298.027
296.986
295.696
295.12
294.135
297.855
296.907
295.822
294.131
292.788
292.135
297.305
296.08
295.007
293.516
292.634
292.389
296.151
294.95
294.242
293.32
292.999
293.258
294.922
294.041
294.118
293.795
294.013
294.671
294.444
294.158
294.705
294.835
295.437
296.213
294.909
295.309
296.061
296.347
296.843
297.41
295.831
296.768
297.517
297.544
297.659
297.878
297.445
298.084
298.545
297.961
297.746
297.691
298.758
299.051
298.809
297.688
297.299
297.143
300.245
299.051
298.653
297.159
296.446
296.302
300.579
298.859
298.099
296.278
295.291
295.108
300.145
298.594
297.626
295.667
294.465
294.037
299.093
297.71
296.495
294.596
293.453
292.83
297.389
296.642
295.945
294.84
294.286
293.602
296.403
295.333
293.555
291.964
291.258
291.467
295.379
294.073
292.947
292.047
291.934
292.394
293.586
292.851
292.596
292.53
292.912
293.708
292.359
292.483
292.939
293.618
294.322
295.315
291.907
292.97
293.905
295.169
295.85
296.749
292.595
294.326
295.423
296.761
297.103
297.614
293.976
296.063
296.808
297.713
297.703
297.813
295.732
297.72
297.706
297.869
297.703
297.654
298.021
298.411
297.885
297.504
297.222
297.132
299.568
298.895
297.732
296.874
296.51
296.573
299.929
298.912
297.246
296.003
295.582
295.786
299.561
298.369
296.624
295.261
294.928
295.135
298.369
297.058
295.427
294.168
294.146
294.39
296.266
295.919
295.188
294.691
295.024
295.234
297.678
297.588
297.672
297.694
297.84
297.875
297.943
297.927
297.877
297.625
297.038
295.923
294.551
293.595
298.069
298.262
298.296
298.282
298.326
298.274
298.238
298.143
298.031
297.762
297.265
296.366
295.059
293.469
298.467
298.61
298.625
298.584
298.54
298.45
298.375
298.272
298.154
297.905
297.464
296.686
295.456
293.924
298.647
298.696
298.699
298.624
298.539
298.425
298.341
298.247
298.141
297.921
297.525
296.814
295.736
294.378
298.655
298.658
298.647
298.541
298.421
298.291
298.207
298.14
298.068
297.884
297.518
296.875
295.981
294.863
298.609
298.595
298.544
298.391
298.241
298.095
298.013
297.966
297.919
297.767
297.419
296.825
296.016
295.069
298.509
298.477
298.399
298.217
298.046
297.893
297.813
297.775
297.732
297.594
297.262
296.729
296.03
295.237
298.4
298.363
298.266
298.064
297.883
297.728
297.646
297.596
297.53
297.377
297.037
296.537
295.907
295.219
298.218
298.218
298.136
297.952
297.778
297.631
297.54
297.469
297.369
297.189
296.834
296.358
295.788
295.15
297.987
298.047
297.998
297.86
297.698
297.564
297.467
297.373
297.233
297.011
296.634
296.16
295.612
294.984
297.67
297.828
297.825
297.748
297.602
297.489
297.382
297.26
297.082
296.827
296.44
295.968
295.39
294.692
297.324
297.539
297.557
297.523
297.403
297.308
297.193
297.051
296.838
296.561
296.16
295.657
294.993
294.163
296.931
297.19
297.218
297.187
297.085
296.99
296.851
296.672
296.415
296.103
295.665
295.109
294.433
293.515
296.487
296.566
296.603
296.609
296.573
296.508
296.352
296.133
295.816
295.449
294.917
294.301
293.586
293.106
298.618
298.574
298.534
298.427
298.407
298.316
298.241
298.154
298.06
297.893
297.603
296.951
296.001
295.054
298.772
298.849
298.822
298.731
298.648
298.532
298.417
298.282
298.151
297.961
297.721
297.239
296.373
295.016
298.801
298.851
298.832
298.745
298.655
298.547
298.435
298.309
298.192
298.038
297.836
297.412
296.578
295.279
298.765
298.774
298.744
298.649
298.547
298.431
298.322
298.214
298.12
297.994
297.813
297.423
296.644
295.476
298.693
298.666
298.609
298.478
298.35
298.225
298.13
298.054
298.001
297.921
297.768
297.39
296.672
295.632
298.614
298.553
298.45
298.272
298.118
297.983
297.898
297.846
297.824
297.772
297.634
297.253
296.572
295.619
298.508
298.425
298.291
298.082
297.902
297.759
297.682
297.643
297.634
297.587
297.444
297.049
296.407
295.566
298.38
298.297
298.145
297.923
297.733
297.589
297.512
297.469
297.448
297.38
297.202
296.792
296.178
295.424
298.217
298.158
298.014
297.804
297.619
297.48
297.4
297.345
297.297
297.198
296.978
296.566
295.983
295.31
298.025
298.004
297.885
297.708
297.541
297.415
297.331
297.264
297.188
297.064
296.803
296.396
295.809
295.162
297.794
297.826
297.742
297.61
297.465
297.359
297.28
297.206
297.111
296.965
296.663
296.261
295.646
294.971
297.532
297.598
297.543
297.456
297.34
297.263
297.19
297.112
296.992
296.808
296.496
296.058
295.404
294.612
297.22
297.3
297.256
297.184
297.091
297.025
296.956
296.869
296.716
296.496
296.16
295.701
295.014
294.078
296.737
296.815
296.781
296.721
296.657
296.602
296.529
296.428
296.23
295.952
295.525
295.017
294.391
293.718
299.063
299.068
299.05
298.964
298.863
298.71
298.556
298.378
298.219
298.042
297.854
297.539
297.035
296.323
299.029
299.059
299.045
298.966
298.867
298.738
298.593
298.417
298.246
298.065
297.908
297.683
297.233
296.319
298.946
298.951
298.921
298.835
298.745
298.64
298.528
298.393
298.264
298.122
297.985
297.779
297.322
296.4
298.848
298.816
298.754
298.641
298.535
298.434
298.343
298.248
298.161
298.062
297.959
297.769
297.319
296.425
298.759
298.679
298.57
298.415
298.29
298.184
298.108
298.047
298.001
297.951
297.886
297.714
297.266
296.422
298.661
298.538
298.389
298.201
298.054
297.938
297.864
297.819
297.795
297.776
297.73
297.562
297.096
296.301
298.547
298.4
298.218
298.006
297.845
297.724
297.652
297.614
297.599
297.587
297.534
297.348
296.86
296.105
298.41
298.253
298.057
297.84
297.673
297.551
297.479
297.439
297.416
297.389
297.305
297.076
296.56
295.842
298.243
298.099
297.904
297.699
297.542
297.425
297.35
297.301
297.262
297.212
297.084
296.812
296.267
295.607
298.047
297.934
297.76
297.584
297.442
297.336
297.258
297.198
297.141
297.063
296.89
296.583
296.025
295.409
297.825
297.764
297.624
297.484
297.364
297.274
297.198
297.13
297.055
296.952
296.74
296.413
295.856
295.241
297.573
297.56
297.455
297.358
297.267
297.204
297.143
297.077
296.984
296.848
296.602
296.254
295.703
295.018
297.306
297.304
297.224
297.164
297.104
297.067
297.021
296.958
296.841
296.665
296.384
296.007
295.444
294.674
296.926
296.886
296.822
296.784
296.756
296.742
296.714
296.654
296.513
296.288
295.951
295.538
295.014
294.373
299.265
299.239
299.228
299.169
299.093
298.963
298.809
298.61
298.411
298.207
298.021
297.835
297.584
297.094
299.19
299.171
299.133
299.064
298.989
298.886
298.756
298.581
298.394
298.194
298.015
297.852
297.626
297.076
299.049
299.011
298.949
298.862
298.782
298.693
298.6
298.481
298.347
298.195
298.056
297.908
297.675
297.117
298.936
298.866
298.766
298.642
298.539
298.447
298.37
298.284
298.191
298.09
298.004
297.884
297.665
297.118
298.829
298.718
298.579
298.423
298.302
298.202
298.127
298.06
298.001
297.941
297.896
297.806
297.599
297.059
298.724
298.578
298.408
298.227
298.089
297.979
297.899
297.836
297.791
297.753
297.732
297.657
297.441
296.894
298.594
298.419
298.225
298.034
297.895
297.784
297.703
297.641
297.603
297.571
297.554
297.473
297.215
296.665
298.437
298.248
298.05
297.858
297.717
297.608
297.527
297.465
297.425
297.389
297.351
297.238
296.912
296.355
298.247
298.063
297.872
297.692
297.558
297.453
297.373
297.309
297.262
297.215
297.144
296.986
296.581
296.029
298.029
297.872
297.704
297.547
297.427
297.328
297.246
297.175
297.114
297.048
296.934
296.726
296.273
295.74
297.799
297.683
297.548
297.425
297.323
297.236
297.153
297.073
296.991
296.898
296.74
296.501
296.045
295.542
297.552
297.481
297.385
297.302
297.229
297.165
297.092
297.009
296.906
296.78
296.58
296.305
295.867
295.367
297.31
297.266
297.187
297.138
297.1
297.067
297.012
296.936
296.816
296.657
296.417
296.107
295.697
295.147
297.001
296.916
296.868
296.848
296.843
296.843
296.823
296.774
296.651
296.464
296.181
295.848
295.422
294.878
299.384
299.354
299.35
299.327
299.286
299.195
299.073
298.889
298.678
298.445
298.227
298.037
297.849
297.555
299.289
299.265
299.214
299.156
299.101
299.023
298.928
298.782
298.606
298.392
298.192
298.012
297.84
297.546
299.17
299.099
299.013
298.926
298.856
298.784
298.713
298.61
298.482
298.324
298.174
298.029
297.883
297.594
299.054
298.955
298.832
298.709
298.611
298.526
298.457
298.373
298.277
298.166
298.075
297.979
297.864
297.577
298.939
298.805
298.653
298.504
298.39
298.292
298.216
298.138
298.064
297.989
297.94
297.882
297.793
297.509
298.813
298.651
298.48
298.319
298.194
298.087
298
297.916
297.848
297.792
297.762
297.722
297.638
297.348
298.658
298.471
298.287
298.125
298.005
297.899
297.808
297.72
297.653
297.603
297.581
297.544
297.432
297.121
298.471
298.273
298.094
297.936
297.817
297.711
297.619
297.531
297.465
297.415
297.384
297.33
297.159
296.812
298.259
298.064
297.896
297.747
297.632
297.528
297.436
297.349
297.282
297.228
297.179
297.096
296.848
296.461
298.028
297.853
297.706
297.571
297.463
297.36
297.268
297.18
297.107
297.044
296.967
296.843
296.522
296.099
297.792
297.648
297.532
297.421
297.327
297.231
297.136
297.041
296.952
296.869
296.753
296.59
296.231
295.804
297.547
297.446
297.37
297.293
297.225
297.149
297.06
296.961
296.849
296.734
296.569
296.357
295.997
295.581
297.309
297.235
297.189
297.153
297.122
297.076
296.998
296.903
296.772
296.623
296.411
296.151
295.808
295.42
297.019
296.953
296.932
296.937
296.943
296.942
296.898
296.831
296.7
296.527
296.275
295.973
295.622
295.192
299.5
299.446
299.433
299.428
299.413
299.364
299.288
299.147
298.96
298.716
298.472
298.243
298.063
297.829
299.408
299.355
299.288
299.238
299.2
299.149
299.086
298.967
298.809
298.595
298.378
298.174
298.012
297.811
299.301
299.204
299.108
299.025
298.961
298.897
298.835
298.74
298.624
298.465
298.305
298.153
298.033
297.857
299.186
299.065
298.941
298.829
298.738
298.656
298.583
298.491
298.389
298.266
298.162
298.067
297.989
297.835
299.065
298.918
298.775
298.646
298.543
298.448
298.362
298.265
298.17
298.073
298.006
297.955
297.906
297.769
298.927
298.759
298.603
298.469
298.363
298.26
298.162
298.055
297.957
297.87
297.82
297.79
297.755
297.618
298.752
298.572
298.412
298.281
298.177
298.073
297.971
297.86
297.762
297.682
297.639
297.615
297.573
297.423
298.545
298.358
298.203
298.073
297.972
297.87
297.767
297.658
297.564
297.49
297.446
297.413
297.334
297.147
298.316
298.13
297.987
297.863
297.763
297.658
297.558
297.454
297.365
297.293
297.241
297.194
297.054
296.826
298.08
297.906
297.782
297.664
297.564
297.454
297.354
297.254
297.167
297.096
297.03
296.957
296.748
296.462
297.85
297.698
297.599
297.491
297.396
297.286
297.182
297.078
296.981
296.901
296.809
296.706
296.443
296.129
297.612
297.505
297.44
297.352
297.275
297.178
297.074
296.965
296.851
296.749
296.615
296.459
296.162
295.837
297.381
297.3
297.271
297.221
297.18
297.11
297.011
296.9
296.761
296.625
296.441
296.23
295.924
295.612
297.091
297.056
297.061
297.062
297.061
297.037
296.964
296.868
296.719
296.553
296.32
296.059
295.729
295.382
299.618
299.552
299.532
299.541
299.547
299.531
299.488
299.375
299.214
298.979
298.714
298.465
298.277
298.055
299.528
299.459
299.39
299.355
299.331
299.301
299.257
299.156
299.013
298.8
298.565
298.343
298.178
298
299.427
299.326
299.237
299.168
299.114
299.062
299.004
298.909
298.789
298.625
298.452
298.285
298.161
298.029
299.319
299.197
299.089
298.996
298.918
298.845
298.768
298.665
298.547
298.405
298.278
298.166
298.085
297.992
299.199
299.059
298.936
298.831
298.742
298.655
298.564
298.452
298.334
298.208
298.112
298.042
297.993
297.925
299.055
298.9
298.765
298.657
298.567
298.473
298.372
298.254
298.131
298.013
297.928
297.877
297.842
297.777
298.87
298.704
298.567
298.462
298.375
298.28
298.177
298.056
297.935
297.827
297.751
297.71
297.68
297.608
298.652
298.48
298.349
298.244
298.159
298.063
297.961
297.844
297.731
297.635
297.564
297.522
297.481
297.376
298.415
298.243
298.123
298.018
297.93
297.831
297.733
297.626
297.522
297.433
297.366
297.322
297.241
297.115
298.171
298.01
297.904
297.8
297.707
297.599
297.5
297.398
297.304
297.226
297.158
297.11
296.973
296.807
297.945
297.797
297.71
297.609
297.516
297.403
297.299
297.195
297.097
297.02
296.939
296.868
296.681
296.482
297.716
297.604
297.55
297.46
297.374
297.267
297.156
297.046
296.934
296.847
296.74
296.629
296.402
296.165
297.49
297.408
297.39
297.332
297.273
297.189
297.079
296.963
296.826
296.705
296.548
296.38
296.122
295.885
297.219
297.188
297.216
297.209
297.188
297.134
297.039
296.939
296.793
296.643
296.437
296.214
295.906
295.628
299.74
299.666
299.649
299.67
299.696
299.709
299.692
299.611
299.479
299.268
299.002
298.737
298.533
298.321
299.642
299.574
299.522
299.503
299.496
299.484
299.455
299.372
299.243
299.044
298.805
298.563
298.379
298.21
299.554
299.458
299.388
299.335
299.296
299.258
299.207
299.117
298.998
298.833
298.65
298.462
298.316
298.19
299.447
299.335
299.248
299.174
299.111
299.049
298.975
298.872
298.75
298.598
298.45
298.313
298.209
298.122
299.319
299.195
299.093
299.009
298.934
298.857
298.769
298.655
298.532
298.394
298.271
298.172
298.106
298.053
299.162
299.025
298.91
298.826
298.749
298.665
298.568
298.447
298.319
298.19
298.079
298.003
297.96
297.921
298.964
298.816
298.699
298.617
298.544
298.46
298.362
298.24
298.114
297.995
297.899
297.841
297.812
297.775
298.737
298.586
298.473
298.391
298.317
298.231
298.133
298.016
297.898
297.79
297.705
297.657
297.629
297.575
298.493
298.346
298.24
298.154
298.077
297.987
297.894
297.786
297.68
297.581
297.503
297.458
297.418
297.361
298.251
298.111
298.017
297.927
297.844
297.745
297.653
297.554
297.456
297.373
297.299
297.261
297.174
297.098
298.032
297.892
297.815
297.726
297.64
297.535
297.439
297.344
297.249
297.173
297.094
297.042
296.904
296.798
297.801
297.695
297.652
297.568
297.484
297.38
297.274
297.177
297.074
296.995
296.901
296.823
296.64
296.482
297.576
297.502
297.496
297.433
297.371
297.289
297.178
297.074
296.951
296.847
296.714
296.579
296.345
296.174
297.344
297.313
297.348
297.322
297.287
297.233
297.132
297.03
296.89
296.761
296.588
296.404
296.125
295.892
299.854
299.779
299.764
299.78
299.808
299.831
299.831
299.781
299.689
299.527
299.302
299.046
298.836
298.625
299.766
299.692
299.651
299.637
299.637
299.636
299.618
299.557
299.457
299.295
299.086
298.847
298.652
298.466
299.704
299.609
299.553
299.507
299.476
299.446
299.401
299.323
299.218
299.07
298.896
298.7
298.54
298.392
299.6
299.498
299.427
299.365
299.314
299.261
299.192
299.095
298.979
298.832
298.675
298.517
298.398
298.299
299.477
299.368
299.278
299.209
299.146
299.08
298.997
298.887
298.767
298.628
298.49
298.366
298.284
298.22
299.313
299.193
299.094
299.029
298.963
298.891
298.799
298.68
298.557
298.423
298.301
298.202
298.147
298.107
299.111
298.982
298.883
298.822
298.76
298.688
298.593
298.472
298.351
298.228
298.123
298.05
298.014
297.989
298.881
298.754
298.658
298.6
298.537
298.463
298.371
298.253
298.137
298.024
297.93
297.877
297.843
297.82
298.638
298.517
298.426
298.366
298.303
298.229
298.144
298.033
297.923
297.819
297.729
297.687
297.656
297.639
298.404
298.287
298.212
298.144
298.078
297.995
297.915
297.816
297.712
297.621
297.532
297.498
297.433
297.409
298.188
298.07
298.015
297.945
297.874
297.788
297.703
297.614
297.514
297.433
297.341
297.292
297.177
297.133
297.959
297.881
297.855
297.778
297.708
297.625
297.529
297.444
297.34
297.26
297.16
297.093
296.929
296.825
297.735
297.679
297.693
297.635
297.58
297.516
297.415
297.327
297.208
297.11
296.985
296.865
296.643
296.501
297.527
297.504
297.547
297.512
297.481
297.448
297.355
297.266
297.129
297.006
296.846
296.68
296.43
296.217
297.168
296.444
295.445
295.159
295.814
297.009
296.451
295.593
294.753
294.936
296.779
299.346
296.648
295.954
295.425
296.032
298.298
300.997
296.864
296.312
296.061
296.894
299.191
301.476
297.231
296.905
296.92
297.81
299.694
300.978
297.44
297.307
297.493
298.319
299.507
299.642
297.646
297.569
297.78
298.321
298.776
297.847
297.709
297.608
297.651
297.658
297.381
295.692
297.69
297.454
297.114
296.319
295.482
293.603
297.316
296.72
295.94
294.481
293.552
291.873
296.456
295.402
294.339
292.809
292.253
291.021
295.124
293.873
292.776
291.757
291.866
291.36
293.665
292.518
291.73
291.491
292.249
292.782
292.381
291.282
290.898
291.542
293.06
294.821
298.376
297.75
296.455
295.336
294.672
295.331
297.919
297.049
295.781
295.004
295.203
296.934
297.899
297.046
296.126
295.68
296.348
298.452
297.827
297.067
296.435
296.295
297.305
299.456
297.91
297.317
296.925
297.01
297.996
299.636
297.896
297.464
297.272
297.476
298.278
299.171
297.915
297.618
297.539
297.693
298.11
297.914
297.903
297.699
297.615
297.535
297.285
295.909
297.851
297.656
297.459
296.936
295.804
293.767
297.647
297.322
296.81
295.632
293.954
291.854
297.26
296.555
295.625
293.925
292.216
290.76
296.384
295.263
294.036
292.36
291.202
290.537
295.088
293.728
292.418
291.257
290.911
291.311
293.782
292.296
291.164
290.608
291.049
292.42
298.975
298.63
297.798
296.589
295.429
294.914
298.81
298.29
297.332
296.28
295.548
295.701
298.825
298.251
297.371
296.567
296.165
296.79
298.728
298.159
297.401
296.896
296.814
297.782
298.643
298.127
297.553
297.263
297.433
298.441
298.478
298.047
297.67
297.553
297.861
298.815
298.314
297.986
297.775
297.749
298.045
298.616
298.144
297.914
297.786
297.74
297.854
297.523
298.01
297.833
297.685
297.485
297.095
295.81
297.842
297.633
297.371
296.805
295.765
293.938
297.637
297.251
296.732
295.636
294.143
292.304
297.209
296.5
295.654
294.122
292.577
291.283
296.476
295.39
294.175
292.562
291.405
290.796
295.469
294.146
292.719
291.349
290.65
290.738
299.268
299.131
298.573
297.565
296.366
295.543
299.261
299.037
298.405
297.415
296.413
295.753
299.261
299.008
298.342
297.424
296.599
296.2
299.182
298.911
298.275
297.505
296.891
296.807
299.073
298.79
298.22
297.64
297.288
297.541
298.897
298.61
298.143
297.778
297.656
298.135
298.698
298.432
298.115
297.927
297.931
298.425
298.463
298.24
298.06
297.969
298.002
298.172
298.26
298.096
297.987
297.884
297.786
297.34
298.063
297.94
297.822
297.619
297.087
296.001
297.889
297.721
297.477
296.954
295.908
294.321
297.67
297.331
296.828
295.83
294.334
292.683
297.317
296.692
295.813
294.354
292.752