/*--------------------------------*- C++ -*----------------------------------*\
| =========                 |                                                 |
| \\      /  F ield         | OpenFOAM: The Open Source CFD Toolbox           |
|  \\    /   O peration     | Version:  v2106                                 |
|   \\  /    A nd           | Website:  www.openfoam.com                      |
|    \\/     M anipulation  |                                                 |
\*---------------------------------------------------------------------------*/
FoamFile
{
    version     2.0;
    format      ascii;
    arch        "LSB;label=32;scalar=64";
    class       volScalarField;
    location    "0.000158";
    object      p;
}
// * * * * * * * * * * * * * * * * * * * * * * * * * * * * * * * * * * * * * //

dimensions      [1 -1 -2 0 0 0 0];

internalField   nonuniform List<scalar> 
144746
(
198967
199277
199051
199153
199286
199526
199662
199812
199755
199517
199239
199127
199020
199212
198381
198539
198532
198843
199095
199368
199538
199673
199666
199514
199295
199222
199135
199422
198183
198449
198478
198739
198981
199261
199454
199619
199583
199474
199294
199187
199102
199340
197914
198208
198382
198698
198942
199213
199415
199587
199606
199516
199351
199241
199195
199317
197910
198128
198312
198622
198883
199134
199339
199494
199528
199449
199356
199284
199284
199349
197862
198025
198221
198509
198752
198964
199167
199300
199340
199286
199219
199168
199240
199296
197885
197933
198080
198281
198507
198706
198903
199026
199066
199030
199010
198966
199061
199180
197812
197745
197788
197947
198161
198356
198548
198663
198713
198666
198641
198566
198709
198905
197818
197521
197446
197527
197706
197893
198097
198208
198256
198208
198242
198183
198364
198549
197576
197110
196936
196957
197162
197372
197599
197740
197820
197748
197785
197691
197860
198010
197646
196882
196548
196433
196584
196794
197060
197239
197360
197304
197409
197325
197502
197634
197578
196590
196178
195939
196025
196227
196534
196760
196988
196954
197134
197038
197292
197372
197891
196722
196073
195656
195671
195828
196172
196487
196790
196853
197106
197070
197416
197512
197867
196713
196080
195651
195573
195654
196032
196395
196826
197015
197352
197478
197774
197891
200526
200537
199873
199767
199589
199537
199387
199209
199069
199068
199134
199453
199660
199945
199987
199969
199585
199730
199745
199797
199760
199646
199563
199566
199635
199838
199830
200045
199633
199772
199515
199674
199800
199940
199968
199903
199815
199716
199703
199678
199512
199552
199145
199337
199332
199556
199767
199972
200087
200065
200049
199945
199856
199741
199527
199332
198806
198977
199060
199361
199629
199858
200011
200061
200070
199998
199825
199565
199324
198933
198416
198614
198845
199171
199443
199656
199832
199920
199933
199811
199682
199369
199071
198582
198192
198375
198615
198906
199173
199376
199565
199666
199679
199539
199334
198981
198657
198118
198026
198147
198346
198591
198828
199028
199200
199291
199313
199174
198970
198559
198232
197690
197950
197950
198091
198246
198436
198607
198754
198810
198797
198633
198466
198057
197779
197313
197773
197687
197783
197901
198001
198122
198237
198286
198276
198117
197973
197639
197499
197148
197922
197600
197530
197524
197569
197633
197707
197735
197722
197603
197537
197306
197331
197083
197842
197362
197209
197133
197105
197116
197164
197169
197215
197126
197191
197053
197288
197108
198405
197699
197245
196906
196794
196688
196728
196765
196825
196758
196957
196919
197334
197284
198569
197624
197062
196674
196475
196301
196348
196448
196625
196659
196947
196997
197397
197556
201294
201912
201197
201004
200425
199988
199376
198835
198436
198262
198382
198802
199282
199987
200554
201248
201144
201238
200922
200685
200321
199952
199754
199695
199871
200187
200351
200818
199962
200805
200921
201182
201102
201075
200876
200617
200487
200329
200290
200359
200333
200310
199209
200149
200643
201005
201117
201237
201238
201054
200997
200900
200761
200604
200407
200000
198627
199607
200279
200714
200960
201157
201227
201157
201103
200931
200739
200411
200027
199401
198178
199117
199875
200383
200698
200900
201041
201068
201003
200834
200588
200130
199563
198709
197931
198779
199521
200010
200353
200589
200778
200829
200739
200518
200202
199626
198825
197816
197816
198522
199179
199667
199975
200143
200357
200389
200303
200079
199653
198967
198102
196949
197760
198296
198810
199181
199488
199680
199855
199885
199814
199580
199119
198394
197473
196164
197698
198052
198360
198635
198863
199041
199164
199216
199177
198970
198531
197833
197094
195742
197870
197874
197938
198001
198094
198213
198345
198442
198475
198377
198067
197422
196920
195592
197665
197413
197328
197283
197211
197212
197327
197466
197603
197598
197511
196972
196832
195684
198274
197565
197185
196748
196358
196131
196189
196384
196657
196798
196962
196592
196778
195936
198105
196991
196488
195920
195418
195086
195148
195423
195823
196112
196492
196390
196871
196507
199837
200363
200512
200977
201098
201717
199083
199651
200067
200625
200973
201568
199377
199830
200266
200811
201248
201882
199456
199824
200403
200979
201582
202301
199650
200055
200849
201437
202056
202688
199762
200205
200956
201535
202088
202789
199754
200227
200986
201660
202175
202935
199430
199952
200734
201493
202111
202967
199001
199470
200220
201122
201903
202788
198471
199009
199860
200801
201602
202585
198229
198666
199472
200319
201253
202168
198130
198607
199409
200168
200986
201680
198324
198702
199332
200065
200737
201639
198420
198895
199558
200199
200712
201375
200976
201757
202026
202554
202937
203710
199514
200173
200616
201290
201981
202795
199446
199834
200234
200576
201271
201562
199151
198993
199193
199351
200159
200471
198660
198408
198661
198884
199742
200121
198183
197825
198163
198735
199555
200556
197687
197566
198100
199044
199768
201467
197401
197522
198147
199318
200248
202336
197183
197575
198283
199713
200686
202621
197231
197656
198309
199754
200873
203031
197572
197892
198758
200043
201461
203079
197749
198182
199198
200370
201708
202978
198279
198637
199537
200492
201534
202915
197951
198383
199367
200269
201098
202045
201525
201972
201840
201488
201191
201032
200042
200115
200147
199747
199515
198787
200080
199913
199696
198795
198327
195830
199548
198994
198613
197646
197295
194026
198879
198249
197838
196802
196778
193009
197870
196892
196375
195562
196076
193234
196782
195625
195085
194787
195673
194197
195831
194563
194098
194649
195426
196573
195184
194002
193899
195314
196532
199644
194980
194140
194479
195938
197291
201323
195172
194935
195494
196975
198350
201639
195685
195536
196413
197651
199065
201704
196611
196542
197362
198110
198945
200857
196021
196197
196911
197603
198278
199314
198699
199518
199787
200334
200430
201081
197919
198690
199352
200321
200832
201380
198051
198904
199556
200504
201037
201954
197622
198598
199319
200577
201255
202292
197461
198539
199295
200658
201471
202731
197151
198207
199077
200648
201532
202999
196643
197763
198840
200626
201799
203295
196215
197284
198628
200682
202039
203584
195963
196988
198451
200556
202042
203668
195982
196943
198500
200552
202065
203539
196305
197340
198801
200551
202020
203231
197014
198029
199314
200781
202045
203206
197776
198657
199716
200944
201901
202750
198505
199510
200345
201486
202427
203413
198394
199277
199467
200243
200265
201102
197116
197646
198056
199006
199840
200761
197148
197603
198092
199085
199634
201012
196667
197059
197477
198727
199442
201374
196507
197021
197599
199058
199782
202525
196417
196889
197557
199034
199905
202980
196310
196749
197509
199208
200271
203630
196198
196647
197593
199599
200818
204273
196253
196904
197983
200211
201562
205016
196495
197263
198586
200924
202367
205612
197042
197988
199418
201598
203047
205812
197801
198848
200295
202206
203664
205820
198734
199649
200848
202319
203533
204986
198887
199873
200942
202408
203646
204932
198097
198467
198181
198056
197900
198260
196099
196388
196483
196493
196682
196809
196217
196349
196621
196834
197125
197158
195675
195664
195681
196177
196791
197425
195363
195129
195095
196197
196871
199252
194889
194542
194649
196417
197900
201769
194438
194224
194685
197087
198859
204048
194208
194005
194671
197516
199636
206086
194331
194344
195399
198355
200334
207128
194883
195178
196427
199096
200986
207229
195861
196435
197708
199905
201757
207494
196784
197437
198661
200606
202167
206873
197890
198443
199572
201326
202339
205260
197547
198325
199412
201051
202218
204093
203186
202408
201548
200420
199614
198960
203455
202246
201281
200159
199340
198899
203446
202281
201187
199866
198983
198369
203847
202398
201185
199649
198724
198079
204110
202389
201190
199479
198524
197957
204199
202449
201293
199548
198548
197905
204119
202430
201357
199597
198711
197967
203857
202245
201425
199735
198914
198043
203727
202086
201339
199806
199043
198166
203564
202201
201405
199949
199129
198077
203181
202165
201327
199900
199174
198079
203445
202281
201599
200297
199543
198208
202788
202176
201369
200068
199212
198009
202814
202021
201876
200924
200301
199028
206146
204896
203735
202362
201261
200528
206691
204780
203780
202341
201322
200699
206954
204367
203306
201613
200650
199895
206984
203792
202681
200833
200006
199343
206844
202768
201807
199930
199265
198835
206345
201825
201118
199341
198712
198399
205984
200986
200418
198739
198247
198108
204913
200641
200214
198581
198120
197932
204496
200292
199893
198482
198132
197857
204020
200643
200135
198700
198295
197701
203610
200833
200292
198817
198441
197773
203214
201545
200962
199533
199032
198004
203106
201895
200950
199659
199053
198050
203491
202768
202556
201527
201140
199788
206703
204666
203465
202014
200939
200555
208518
204713
203714
202272
201263
201006
209185
204271
202689
201045
200058
199730
209087
203417
202048
200044
199086
198891
208653
202206
200875
198561
197876
198065
208119
201526
200041
197509
197102
197445
207069
200920
199243
196798
196674
197075
205920
200514
199055
196713
196587
196959
204378
200146
198705
196691
196682
197018
202633
199422
198584
197152
197163
197133
201660
199296
198758
197714
197676
197348
201599
200268
199669
198736
198414
197682
201647
200264
199585
198777
198297
197634
203081
202081
201799
201151
201068
200066
202164
201469
200921
200249
199685
199325
202176
201373
200677
200111
199659
199483
202448
201582
200857
200180
199630
199362
202684
201661
201075
200306
199780
199480
202928
201885
201366
200507
200077
199762
203023
202134
201686
200901
200454
200050
203082
202109
201777
201075
200629
200218
203019
202199
201793
201072
200582
200050
202847
202077
201633
200917
200342
199837
202872
202136
201520
200753
200063
199559
202749
201810
201243
200430
199825
199256
202631
201810
201312
200448
199850
199103
202605
201645
201123
200250
199575
198789
202659
201957
201871
201208
200791
199892
204959
203835
202803
201691
200664
200118
205108
203714
202537
201479
200645
200308
204873
203304
202071
200835
199974
199623
204557
202448
201388
200056
199529
199318
203924
201477
200682
199346
199017
198934
203184
201064
200356
198979
198782
198798
202931
199975
199597
198704
198563
198725
201988
199849
199355
198545
198485
198885
201157
199862
199261
198697
198672
199154
201021
200390
199575
199181
199104
199462
201324
200909
200102
199789
199671
199570
202768
202202
201406
200853
200385
199789
203845
202842
202112
201319
200691
199847
205117
204281
203889
203191
202759
201743
203489
201907
200965
200015
199277
199364
204195
201877
200777
199908
199345
199676
204275
201069
199551
198314
197805
198348
204117
199728
198204
196937
196896
197729
202279
198252
197098
195814
195955
197160
199934
196948
196143
195162
195656
197105
196769
195559
195119
195075
195989
197503
194798
195746
195257
195889
196781
198197
194112
196420
195986
197116
197944
199100
194558
197351
197365
198576
199080
199848
196007
198354
198533
199520
200000
200505
198353
200018
200297
200972
201045
201004
201403
201619
201648
201692
201423
201085
204473
204031
204027
203908
203836
203127
204972
205728
204894
204667
204109
203401
202496
201637
201059
200728
200822
201459
202227
203757
203277
204296
204299
204370
204231
203901
203377
202825
202509
202416
202610
203303
203830
204959
202141
203326
203536
203876
204045
204017
203781
203497
203330
203276
203383
203597
203976
204398
200925
202272
202833
203361
203704
203899
203910
203785
203766
203773
203848
203935
204125
204131
200105
201334
202190
202846
203266
203602
203693
203784
203853
203912
203960
203923
203813
203489
199511
200721
201646
202396
202857
203212
203468
203614
203710
203733
203699
203552
203209
202532
199178
200356
201235
201942
202452
202827
203115
203315
203427
203384
203246
202933
202195
201213
199155
200185
200986
201583
202002
202366
202691
202898
203006
202882
202599
201986
201105
199915
199256
200072
200719
201208
201561
201880
202177
202367
202464
202333
202011
201320
200217
198729
199450
199986
200406
200764
201014
201277
201543
201730
201828
201695
201400
200630
199589
197970
199726
199897
200095
200268
200415
200579
200759
201037
201139
201067
200795
200180
199375
197651
199781
199698
199664
199615
199523
199598
199757
200048
200264
200343
200191
199737
199483
197830
200823
199966
199430
198855
198393
198234
198403
198768
199212
199528
199636
199434
199619
198251
200278
198847
198183
197470
196894
196680
196914
197413
198040
198644
199174
199287
200015
199211
206573
207703
207235
207165
206797
206082
205281
204322
203600
203172
203121
203502
204272
205977
204604
205950
206339
206534
206506
206173
205738
205204
204822
204629
204768
205368
206051
207563
203393
204837
205302
205809
206043
206064
205878
205627
205450
205419
205550
205932
206591
207378
202206
203789
204517
205157
205481
205692
205776
205718
205745
205792
205992
206277
206769
207170
201604
202962
203841
204577
204986
205295
205442
205590
205681
205776
205968
206151
206442
206584
201131
202466
203390
204050
204513
204862
205140
205330
205473
205563
205650
205664
205722
205615
201042
202214
203067
203650
204108
204465
204764
204986
205144
205195
205125
205083
204762
204252
201211
202144
202833
203280
203688
204009
204343
204577
204740
204749
204623
204197
203620
202798
201477
202134
202633
202970
203263
203565
203866
204090
204245
204223
204035
203512
202716
201578
201763
202113
202326
202541
202750
202999
203286
203539
203711
203694
203468
202900
202009
200618
201978
201965
201959
202029
202123
202374
202651
202954
203150
203199
202994
202519
201638
200134
201948
201669
201443
201303
201319
201458
201793
202195
202561
202695
202610
202154
201740
200061
202714
201540
201013
200482
200218
200340
200734
201263
201826
202183
202302
202089
201934
200315
201681
200236
199667
199012
198713
198849
199392
200141
200975
201670
202100
202202
202684
201405
208910
210015
210081
210186
210041
209585
209130
208446
207845
207349
207085
207299
207939
209576
206743
208247
208978
209357
209444
209332
209157
208838
208626
208557
208725
209057
209666
211069
205440
207059
207827
208493
208756
208930
209009
208915
208903
208956
209118
209452
210212
211071
204470
206154
206944
207721
208135
208445
208662
208795
208936
209117
209352
209746
210388
210949
203884
205478
206328
207098
207608
208021
208294
208562
208777
208992
209228
209553
209971
210419
203636
205028
205903
206602
207131
207593
207941
208253
208511
208723
208918
209119
209349
209590
203671
204804
205600
206218
206721
207180
207556
207883
208149
208335
208468
208580
208654
208674
203876
204742
205378
205878
206332
206763
207148
207475
207727
207880
207924
207858
207702
207420
204181
204772
205249
205572
205952
206337
206711
207028
207264
207379
207365
207188
206823
206284
204533
204818
205021
205220
205499
205834
206193
206527
206764
206884
206837
206593
206095
205274
204752
204723
204693
204787
204974
205263
205616
205974
206271
206434
206395
206108
205536
204481
204843
204503
204176
204116
204209
204521
204910
205381
205778
206041
206056
205817
205370
204043
205391
204105
203608
203270
203247
203547
204044
204616
205225
205649
205830
205730
205416
203991
204361
202754
202154
201788
201928
202253
202892
203700
204533
205256
205703
205920
206222
205010
210534
211786
212110
212427
212467
212300
212045
211631
211235
210882
210679
210675
211116
212430
208686
210370
211085
211625
211790
211889
211839
211721
211628
211577
211712
212083
212575
213484
207608
209368
210035
210746
211097
211381
211558
211617
211707
211839
212044
212382
212917
213668
206896
208522
209301
210029
210501
210879
211145
211394
211614
211862
212157
212529
213047
213625
206457
207851
208713
209445
209982
210432
210763
211097
211388
211681
211995
212339
212761
213251
206244
207450
208297
208977
209510
210003
210404
210771
211096
211397
211690
211979
212308
212674
206249
207250
207987
208605
209120
209611
210035
210417
210745
211021
211264
211480
211707
211913
206382
207209
207783
208289
208768
209238
209660
210039
210351
210594
210767
210878
210927
210877
206608
207223
207658
208011
208429
208866
209265
209632
209927
210136
210247
210221
210101
209817
206899
207253
207436
207713
208047
208427
208815
209188
209483
209681
209749
209667
209424
208834
207079
207170
207204
207377
207602
207939
208317
208708
209040
209257
209321
209192
208881
208011
207142
206919
206700
206755
206987
207330
207731
208176
208553
208853
208982
208831
208522
207486
207295
206403
206179
206080
206246
206544
207005
207565
208114
208490
208741
208681
208351
207259
206524
205073
204711
204658
204982
205459
206086
206773
207471
208087
208459
208659
208721
207832
212323
213578
214168
214650
214895
215008
214951
214811
214625
214407
214312
214368
214669
215414
210932
212504
213207
213904
214259
214546
214692
214745
214766
214768
214887
215179
215660
216261
210047
211670
212385
213154
213655
214063
214345
214571
214745
214913
215130
215415
215885
216390
209519
210910
211764
212542
213125
213604
213968
214306
214594
214866
215157
215492
215931
216419
209174
210371
211275
212042
212654
213188
213619
214016
214363
214686
215002
215342
215730
216174
209033
210053
210916
211648
212247
212804
213275
213703
214078
214414
214732
215040
215374
215762
209046
209893
210657
211333
211906
212452
212932
213365
213744
214068
214358
214605
214851
215112
209243
209903
210475
211046
211585
212111
212582
213006
213371
213668
213904
214066
214230
214320
209401
209906
210335
210790
211273
211758
212204
212613
212959
213228
213415
213516
213517
213434
209610
209865
210141
210500
210906
211343
211772
212176
212514
212762
212916
212952
212854
212563
209715
209814
209922
210164
210491
210878
211296
211702
212049
212304
212459
212461
212333
211855
209689
209512
209418
209623
209928
210310
210739
211179
211569
211872
212057
212055
211949
211259
209532
208987
208930
209033
209245
209634
210105
210606
211075
211456
211731
211778
211679
210938
208643
207703
207601
207776
208148
208684
209315
209986
210593
211106
211444
211634
211724
211052
214042
215400
216046
216672
217018
217287
217385
217405
217370
217285
217251
217302
217510
217832
212961
214564
215281
216037
216506
216896
217147
217329
217440
217520
217641
217839
218214
218645
212299
213785
214620
215422
216005
216489
216851
217167
217402
217614
217834
218069
218425
218784
211970
213184
214109
214918
215560
216101
216539
216930
217267
217564
217861
218154
218514
218900
211732
212798
213712
214508
215162
215744
216233
216676
217062
217405
217730
218043
218386
218737
211642
212576
213427
214185
214827
215418
215933
216401
216810
217167
217495
217795
218099
218412
211665
212476
213229
213929
214541
215118
215634
216103
216514
216864
217171
217428
217671
217900
211784
212455
213077
213683
214259
214814
215317
215777
216176
216506
216776
216971
217143
217277
211915
212461
212920
213440
213967
214487
214967
215407
215787
216096
216325
216459
216541
216541
212044
212344
212713
213141
213602
214088
214557
214987
215357
215646
215843
215924
215911
215777
212094
212253
212464
212782
213182
213630
214084
214510
214880
215163
215345
215404
215356
215080
212005
211905
211980
212266
212639
213065
213527
213971
214364
214673
214864
214927
214887
214453
211686
211474
211515
211666
211982
212403
212901
213391
213823
214174
214421
214533
214542
214056
210824
210251
210229
210603
211072
211595
212194
212779
213300
213733
214046
214209
214295
213990
215956
217337
218004
218736
219229
219611
219846
219977
220010
220012
219985
220052
220208
220407
215200
216633
217426
218219
218801
219279
219631
219886
220047
220171
220291
220447
220734
221003
214789
216028
216922
217737
218391
218940
219373
219726
220005
220237
220456
220665
220962
221215
214509
215609
216535
217351
218031
218622
219108
219529
219883
220187
220477
220753
221070
221387
214347
215346
216244
217040
217720
218333
218853
219314
219715
220057
220376
220669
220981
221284
214306
215208
216039
216797
217460
218073
218605
219083
219503
219859
220182
220466
220752
221015
214372
215138
215893
216595
217228
217824
218352
218829
219248
219602
219906
220157
220388
220604
214462
215119
215744
216387
216983
217557
218073
218542
218949
219287
219557
219754
219922
220067
214624
215096
215622
216161
216714
217255
217750
218201
218587
218904
219140
219289
219390
219464
214653
214980
215403
215860
216367
216874
217356
217795
218167
218466
218674
218785
218829
218786
214649
214826
215126
215493
215945
216421
216884
217314
217681
217975
218166
218267
218273
218163
214463
214446
214665
214999
215409
215869
216324
216769
217152
217463
217663
217767
217778
217570
214133
214046
214157
214399
214765
215227
215707
216180
216596
216944
217195
217347
217405
217150
213231
212916
213126
213526
213964
214492
215036
215584
216068
216474
216793
216982
217119
216871
217974
219274
219986
220761
221321
221766
222073
222260
222340
222377
222364
222421
222543
222676
217482
218729
219571
220366
220989
221504
221892
222171
222363
222493
222605
222735
222971
223155
217211
218314
219205
220012
220674
221237
221682
222036
222319
222540
222746
222928
223180
223387
217022
218039
218929
219727
220401
220989
221470
221877
222216
222495
222761
223012
223300
223575
216937
217879
218729
219500
220163
220759
221263
221701
222075
222390
222684
222957
223249
223529
216973
217814
218591
219320
219959
220546
221055
221505
221895
222225
222527
222800
223079
223332
217025
217771
218483
219155
219763
220331
220834
221282
221672
222002
222291
222542
222781
222997
217121
217756
218332
218965
219540
220087
220578
221018
221399
221718
221984
222196
222382
222550
217235
217690
218218
218752
219281
219799
220271
220698
221063
221365
221604
221776
221909
222042
217189
217561
217993
218449
218943
219432
219893
220311
220666
220958
221176
221317
221409
221468
217111
217362
217689
218077
218528
218989
219438
219852
220207
220496
220700
220829
220891
220908
216821
216994
217250
217596
218007
218458
218903
219333
219708
220017
220231
220353
220403
220370
216503
216547
216708
217000
217397
217856
218317
218777
219188
219535
219794
219961
220042
219969
215643
215622
215897
216249
216677
217174
217692
218216
218697
219105
219417
219594
219710
219566
220178
221374
222108
222870
223436
223902
224234
224471
224597
224665
224671
224712
224792
224865
219939
221031
221844
222597
223206
223719
224103
224402
224606
224756
224863
224965
225146
225256
219760
220766
221604
222363
222991
223530
223952
224299
224568
224780
224966
225118
225318
225471
219667
220603
221429
222174
222803
223352
223797
224172
224483
224735
224966
225180
225424
225650
219649
220517
221296
222014
222629
223175
223633
224024
224359
224638
224896
225133
225391
225640
219696
220475
221199
221872
222463
222995
223453
223849
224196
224490
224760
225006
225265
225507
219751
220438
221091
221718
222279
222794
223246
223642
223990
224288
224556
224795
225033
225257
219846
220384
220958
221531
222057
222553
222996
223389
223733
224028
224286
224508
224716
224905
219860
220308
220806
221303
221788
222263
222694
223084
223420
223708
223952
224151
224326
224481
219802
220160
220563
220994
221451
221906
222332
222721
223056
223343
223575
223754
223902
224020
219660
219925
220245
220623
221047
221483
221907
222300
222641
222935
223163
223330
223459
223545
219356
219564
219824
220165
220558
220991
221422
221837
222203
222519
222753
222919
223020
223083
219013
219111
219305
219614
220005
220449
220901
221348
221754
222111
222379
222578
222696
222734
218225
218347
218606
218959
219374
219848
220350
220857
221329
221737
222049
222240
222359
222317
207693
209435
210985
212424
214617
216007
205546
206701
208186
210130
213050
215693
205378
206310
207374
208745
211218
214026
204693
205068
205468
206279
208528
212172
203828
203715
203765
204116
205796
209309
202635
201847
201342
201388
202800
206175
201211
199802
198961
198831
199987
202257
200051
198127
196947
196645
197592
198823
199302
197074
195988
195867
197205
197985
199046
196856
195978
195982
197692
198504
199819
197863
197331
197448
199926
201495
201163
199455
199567
200298
202773
204708
203003
201904
202905
203913
206180
207706
202865
202829
204500
206350
209108
210961
209266
210870
212316
213363
214533
216217
207859
209005
210610
212505
215012
216963
208060
209265
210748
212441
214714
216356
207727
208520
209538
210894
213136
214887
207030
207403
208075
208997
210627
212073
205793
205577
205490
205747
207009
208510
204436
203355
202425
202015
202501
203583
203007
201140
199609
198536
198549
199315
202093
199677
197927
196647
196778
197709
201589
198948
197192
195880
196189
197237
201877
199418
197961
196809
197544
198955
203108
200827
199981
199375
200657
202655
204874
203167
203246
203604
205131
207108
204502
203715
204556
206068
208325
210790
211135
212644
213987
215006
215844
217147
210588
211879
213317
215099
216926
218807
211141
212390
213895
215529
217300
219193
211186
212241
213508
214842
216707
218506
210762
211499
212415
213366
214809
216090
209841
210035
210452
210820
211459
212270
208906
208531
208096
207532
207282
207467
207777
206659
205233
203924
202983
202591
206896
205129
203171
201453
200353
200222
206433
204005
201913
199995
199051
199088
206493
203805
202097
200250
199658
200183
207092
204747
203631
202190
202367
203347
208489
206692
206374
205966
206763
207963
208341
207223
207559
208395
210039
211952
212283
213043
214133
214677
215290
216245
212512
213365
214411
215623
216963
218383
213123
214266
215664
217041
218510
219839
213416
214496
215795
217036
218498
219802
213306
214195
215221
216201
217401
218401
212781
213223
213744
214369
215108
215563
212199
212135
212083
211958
211664
211529
211358
210585
209790
208584
207472
206480
210616
209318
207868
206028
204476
203196
210140
208485
206603
204390
202636
201380
210131
208194
206330
204225
202646
201575
210558
208515
207181
205578
204439
203917
211341
209888
209219
208342
207882
208005
211433
210479
210372
210301
210792
211683
213615
213853
214698
214962
215414
216172
214154
214726
215507
216353
217279
218388
215181
215942
216950
218001
219176
220329
215537
216395
217468
218509
219703
220840
215700
216489
217415
218268
219298
220171
215531
215975
216499
216966
217508
218064
215200
215254
215236
215129
215203
215097
214744
214252
213566
212821
211845
210779
214278
213284
212117
210740
208940
207426
213887
212609
211197
209275
207220
205494
213778
212424
211047
208860
206949
205292
213964
212709
211424
209594
208287
206937
214503
213465
212669
211567
210868
210168
214762
213971
213656
213192
213183
213305
214991
214902
215470
215581
215880
216226
215915
216226
216868
217351
218093
218965
216862
217352
218160
218955
219968
220955
217375
218012
218884
219756
220834
221782
217653
218292
219103
219911
220835
221630
217758
218154
218668
219159
219697
220125
217609
217697
217849
217875
217868
217900
217412
217121
216795
216198
215512
214668
217173
216516
215660
214402
213032
211259
216875
215928
214741
213216
211309
209341
216744
215707
214398
212867
210815
208966
216844
215910
214663
213281
211558
210254
217217
216362
215565
214515
213639
212893
217692
216929
216555
216003
215803
215586
216712
216446
216745
216613
216861
216945
217822
217860
218347
218572
219121
219642
218710
219012
219687
220237
221048
221886
219363
219826
220543
221218
222097
222929
219748
220262
220922
221561
222380
223129
220029
220384
220818
221198
221740
222206
220103
220186
220263
220309
220379
220538
220027
219844
219584
219155
218621
218103
219914
219465
218857
217870
216701
215309
219737
219011
218066
216695
215208
213207
219596
218806
217703
216213
214734
212574
219638
218856
217874
216492
215198
213344
219885
219194
218419
217513
216504
215504
220343
219671
219289
218756
218366
217989
218574
218149
218203
217951
218092
218028
219715
219560
219854
219936
220341
220689
220537
220685
221195
221592
222191
222855
221252
221567
222108
222655
223394
224142
221730
222089
222615
223174
223899
224609
222090
222363
222749
223140
223673
224217
222295
222373
222487
222575
222755
222945
222331
222186
222058
221757
221425
221036
222269
221929
221544
220901
220034
219053
222201
221688
221003
219972
218640
217233
222075
221488
220717
219535
218068
216560
222098
221510
220744
219677
218338
216987
222238
221746
221090
220313
219338
218287
222615
222120
221777
221258
220734
220214
220622
220104
219987
219691
219634
219468
221717
221465
221567
221543
221782
221939
222503
222532
222869
223139
223606
224059
223204
223416
223825
224253
224863
225498
223728
223996
224421
224909
225556
226180
224147
224367
224710
225096
225600
226086
224414
224513
224675
224819
225006
225254
224548
224481
224435
224277
224040
223842
224596
224362
224077
223592
222983
222250
224560
224198
223715
222936
221945
220722
224468
224012
223426
222547
221364
219881
224491
224022
223431
222544
221474
220142
224539
224150
223721
222998
222218
221180
224825
224481
224228
223743
223302
222693
206216
207854
209316
210541
212928
214007
204629
205777
207276
209133
212165
214653
204823
205786
206966
208316
211062
214013
204188
204689
205316
206393
209032
213049
203328
203525
204002
204849
207125
211461
201842
201492
201546
202285
204536
209143
200111
199232
199056
199726