/*--------------------------------*- C++ -*----------------------------------*\
| =========                 |                                                 |
| \\      /  F ield         | OpenFOAM: The Open Source CFD Toolbox           |
|  \\    /   O peration     | Version:  v2106                                 |
|   \\  /    A nd           | Website:  www.openfoam.com                      |
|    \\/     M anipulation  |                                                 |
\*---------------------------------------------------------------------------*/
FoamFile
{
    version     2.0;
    format      ascii;
    arch        "LSB;label=32;scalar=64";
    class       volScalarField;
    location    "0.000158";
    object      T;
}
// * * * * * * * * * * * * * * * * * * * * * * * * * * * * * * * * * * * * * //

dimensions      [0 0 0 1 0 0 0];

internalField   nonuniform List<scalar> 
144746
(
292.782
292.962
292.884
292.958
293.021
293.065
293.025
293.012
292.939
292.833
292.796
292.913
293.102
293.492
292.089
292.28
292.395
292.659
292.864
292.986
293.007
293.016
292.974
292.898
292.861
292.99
293.197
293.61
291.63
291.902
292.174
292.521
292.775
292.926
292.976
293.017
292.985
292.944
292.923
293.008
293.172
293.534
291.237
291.615
292.056
292.48
292.743
292.891
292.95
293
293.001
292.984
292.974
293.036
293.182
293.457
291.052
291.539
292.044
292.474
292.729
292.853
292.909
292.954
292.968
292.958
292.98
293.051
293.196
293.396
290.954
291.525
292.084
292.499
292.722
292.808
292.854
292.885
292.903
292.906
292.937
293.001
293.14
293.29
290.975
291.576
292.143
292.51
292.7
292.766
292.803
292.827
292.842
292.849
292.885
292.915
293.013
293.156
291.022
291.637
292.149
292.472
292.64
292.702
292.744
292.772
292.794
292.79
292.805
292.791
292.878
293.035
291.154
291.695
292.114
292.344
292.475
292.548
292.626
292.685
292.723
292.722
292.751
292.729
292.826
292.986
291.227
291.657
291.925
292.043
292.15
292.237
292.372
292.51
292.616
292.639
292.688
292.66
292.768
292.937
291.501
291.684
291.706
291.66
291.682
291.734
291.898
292.119
292.329
292.446
292.592
292.62
292.763
292.95
291.762
291.671
291.503
291.275
291.179
291.15
291.273
291.525
291.85
292.079
292.37
292.489
292.729
292.922
292.128
291.8
291.449
291.058
290.834
290.71
290.762
290.958
291.297
291.616
292.046
292.34
292.741
293.009
292.312
291.875
291.463
291.035
290.736
290.543
290.553
290.641
290.912
291.239
291.717
292.214
292.775
293.174
292.175
292.248
292.041
292.09
292.054
292.004
291.822
291.588
291.422
291.392
291.499
291.836
292.23
292.783
291.335
291.562
291.634
291.943
292.138
292.233
292.209
292.087
291.962
291.91
291.932
292.132
292.381
292.84
290.695
291.074
291.428
291.884
292.179
292.342
292.378
292.337
292.264
292.19
292.175
292.212
292.286
292.58
290.099
290.697
291.329
291.869
292.193
292.376
292.446
292.438
292.425
292.37
292.326
292.307
292.317
292.421
289.695
290.527
291.302
291.872
292.184
292.343
292.417
292.436
292.438
292.404
292.331
292.257
292.238
292.167
289.415
290.442
291.331
291.892
292.169
292.289
292.357
292.385
292.386
292.337
292.295
292.193
292.096
291.877
289.335
290.456
291.351
291.867
292.114
292.211
292.275
292.302
292.302
292.247
292.172
292.019
291.834
291.527
289.33
290.477
291.315
291.769
291.989
292.092
292.158
292.187
292.191
292.131
292.035
291.815
291.578
291.291
289.404
290.493
291.205
291.55
291.749
291.878
291.977
292.019
292.022
291.95
291.855
291.619
291.403
291.177
289.47
290.418
290.942
291.173
291.314
291.464
291.622
291.737
291.792
291.746
291.68
291.497
291.374
291.201
289.721
290.342
290.582
290.638
290.689
290.801
290.986
291.184
291.339
291.405
291.448
291.369
291.36
291.253
289.936
290.196
290.189
290.049
289.933
289.926
290.056
290.283
290.577
290.807
291.052
291.142
291.329
291.31
290.488
290.351
290.048
289.612
289.28
289.078
289.092
289.234
289.528
289.869
290.367
290.725
291.18
291.37
290.869
290.432
289.943
289.405
288.943
288.578
288.418
288.4
288.556
288.848
289.458
290.081
290.839
291.399
291.391
291.645
291.511
291.633
291.524
291.375
291.013
290.595
290.292
290.186
290.312
290.673
291.189
291.945
290.366
290.923
291.278
291.687
291.812
291.879
291.783
291.569
291.387
291.317
291.379
291.519
291.712
292.184
289.559
290.463
291.137
291.717
291.966
292.104
292.105
292.016
291.91
291.791
291.748
291.785
291.819
291.978
288.825
290.12
291.124
291.761
292.047
292.207
292.269
292.215
292.179
292.111
292.026
291.958
291.908
291.838
288.347
289.984
291.145
291.779
292.062
292.209
292.267
292.251
292.231
292.145
292.046
291.91
291.778
291.51
288.084
289.908
291.144
291.775
292.035
292.143
292.206
292.223
292.198
292.125
292.023
291.84
291.576
291.049
288.016
289.894
291.114
291.703
291.947
292.053
292.128
292.149
292.115
292.031
291.909
291.651
291.194
290.462
288.079
289.89
291.013
291.563
291.791
291.887
291.984
291.999
291.969
291.882
291.7
291.353
290.802
289.956
288.222
289.868
290.797
291.247
291.501
291.655
291.778
291.811
291.791
291.695
291.474
291.089
290.527
289.649
288.368
289.745
290.405
290.743
290.984
291.204
291.384
291.482
291.503
291.425
291.215
290.856
290.425
289.592
288.6
289.526
289.87
290.014
290.164
290.386
290.66
290.892
291.025
291.053
290.955
290.665
290.384
289.659
288.693
289.137
289.156
289.076
289.027
289.13
289.402
289.748
290.079
290.304
290.435
290.301
290.29
289.815
289.192
289.044
288.65
288.113
287.721
287.588
287.724
288.058
288.553
289.053
289.546
289.735
290.061
289.892
289.415
288.818
288.108
287.231
286.484
286.101
286.085
286.261
286.701
287.306
288.086
288.736
289.592
289.929
294.112
294.688
295.172
295.745
296.076
296.447
293.782
294.407
295.079
295.778
296.296
296.696
293.872
294.465
295.14
295.85
296.427
296.864
293.801
294.318
295.002
295.71
296.348
296.823
293.722
294.163
294.864
295.551
296.188
296.638
293.629
294.036
294.675
295.297
295.882
296.358
293.537
293.957
294.565
295.177
295.7
296.179
293.403
293.843
294.451
295.075
295.591
296.078
293.345
293.792
294.389
295.038
295.558
296.016
293.321
293.854
294.521
295.156
295.625
296.087
293.402
293.915
294.58
295.159
295.684
296.129
293.481
293.987
294.617
295.176
295.688
296.067
293.607
294.005
294.541
295.101
295.591
296.09
293.617
293.931
294.422
294.944
295.389
295.804
293.816
294.726
295.504
296.356
296.955
297.393
293.062
293.898
294.827
295.828
296.647
297.19
292.88
293.522
294.292
295.064
295.866
296.237
292.577
292.773
293.172
293.662
294.449
294.832
292.129
292.045
292.236
292.612
293.366
293.782
291.654
291.466
291.691
292.182
292.871
293.429
291.3
291.299
291.658
292.307
292.866
293.661
291.203
291.389
291.893
292.654
293.29
294.316
291.207
291.597
292.287
293.282
294.026
295.037
291.344
291.856
292.671
293.85
294.764
295.881
291.622
292.189
293.161
294.377
295.475
296.363
291.775
292.378
293.386
294.551
295.66
296.441
292.023
292.438
293.288
294.337
295.441
296.353
291.791
292.08
292.751
293.609
294.559
295.31
293.27
294.171
294.968
295.747
296.335
296.546
292.415
293.171
294.054
294.762
295.306
295.275
292.235
292.679
293.149
293.339
293.65
292.838
291.781
291.68
291.642
291.402
291.466
290.178
291.148
290.608
290.162
289.622
289.653
288.003
290.313
289.394
288.761
288.265
288.416
287.098
289.528
288.538
288.045
287.833
288.093
287.189
288.997
288.144
287.869
288.087
288.343
288.687
288.798
288.1
288.135
289.025
289.962
291.534
288.9
288.414
288.83
290.187
291.755
294.038
289.28
289.193
289.813
291.412
293.256
295.299
289.826
289.833
290.597
292.061
293.827
295.611
290.254
290.26
290.961
292.094
293.483
294.929
289.814
289.822
290.281
291.057
291.96
292.814
293.449
293.846
294.078
294.53
294.838
295.244
292.658
292.942
293.245
293.858
294.397
294.817
292.155
292.362
292.676
293.363
294.043
294.664
291.49
291.763
292.177
293.103
293.921
294.617
291.098
291.469
292.009
293.059
293.984
294.799
290.8
291.252
291.931
293.122
294.084
295.003
290.619
291.173
292.009
293.296
294.332
295.239
290.603
291.21
292.203
293.623
294.696
295.583
290.721
291.402
292.512
293.985
295.112
296.033
291.008
291.733
292.911
294.393
295.589
296.488
291.478
292.249
293.352
294.67
295.872
296.687
292.034
292.726
293.659
294.801
295.915
296.752
292.422
292.926
293.672
294.714
295.699
296.391
292.589
293.015
293.571
294.541
295.571
296.352
291.607
291.937
291.899
292.412
292.837
293.46
290.275
290.217
290.107
290.537
291.187
291.834
289.375
289.116
289.113
289.673
290.338
291.151
288.521
288.343
288.504
289.334
290.169
291.225
288.146
288.211
288.57
289.673
290.701
292.22
288.032
288.24
288.85
290.203
291.502
293.252
288.083
288.422
289.314
290.994
292.524
294.397
288.257
288.715
289.848
291.852
293.624
295.609
288.604
289.246
290.556
292.804
294.773
296.837
289.093
289.907
291.406
293.73
295.71
297.665
289.769
290.719
292.23
294.36
296.165
297.842
290.508
291.372
292.655
294.49
296.187
297.617
291.045
291.599
292.521
293.93
295.331
296.489
290.979
291.312
291.836
292.815
293.984
294.971
290.247
290.131
289.82
289.618
289.526
289.739
288.483
287.815
287.162
286.735
286.618
286.622
287.29
286.146
285.49
285.18
285.116
285.057
286.097
284.821
284.198
284.247
284.377
284.509
285.371
284.204
283.808
284.265
284.672
285.645
284.918
284.064
284.019
285.097
286.413
288.378
284.783
284.274
284.671
286.636
288.969
291.993
284.861
284.591
285.322
288.034
291.329
295.465
285.173
285.185
286.288
289.408
293.031
297.603
285.872
286.118
287.467
290.537
294.104
298.387
287.054
287.464
288.772
291.392
294.593
298.496
288.286
288.719
289.735
291.76
294.338
297.509
289.208
289.416
290.096
291.572
293.174
295.148
289.099
289.17
289.404
290.115
290.862
291.896
296.827
296.325
295.557
294.477
293.546
292.913
296.71
295.942
294.922
293.732
292.841
292.385
296.354
295.511
294.263
292.947
292.11
291.708
295.963
294.947
293.608
292.256
291.505
291.203
295.397
294.271
293.021
291.7
291.058
290.859
294.875
293.757
292.593
291.366
290.828
290.663
294.555
293.438
292.288
291.124
290.744
290.614
294.361
293.232
292.128
291.015
290.743
290.633
294.322
293.157
292.033
290.983
290.787
290.74
294.313
293.279
292.112
291.083
290.905
290.837
294.248
293.381
292.219
291.225
291.141
291.093
294.578
293.688
292.64
291.75
291.655
291.518
294.762
294.158
293.206
292.326
292.098
291.858
295.456
294.807
294.161
293.353
293.028
292.597
298.174
297.339
296.145
294.618
293.252
292.4
298.23
296.939
295.465
293.766
292.48
291.76
298.049
296.311
294.551
292.635
291.42
290.776
297.537
295.454
293.517
291.507
290.443
289.974
296.705
294.263
292.357
290.414
289.576
289.332
295.548
292.976
291.285
289.55
288.928
288.864
294.49
291.771
290.277
288.799
288.389
288.546
293.212
290.841
289.584
288.317
288.062
288.356
292.36
290.123
288.995
287.948
287.874
288.281
291.723
289.896
288.785
287.81
287.848
288.269
291.258
289.629
288.606
287.728
287.953
288.533
291.026
289.878
288.972
288.247
288.617
289.11
291.349
290.454
289.673
289.2
289.554
289.8
292.657
292.025
291.529
291.118
291.32
291.086
298.928
297.321
295.511
293.552
292.044
291.29
299.405
296.716
294.454
292.336
291.05
290.599
299.231
295.724
292.739
290.457
289.395
289.18
298.606
294.504
291.289
288.778
287.876
287.96
297.562
293.067
289.751
287.134
286.438
286.953
295.985
291.547
288.321
285.829
285.428
286.268
293.574
289.662
286.763
284.72
284.73
285.879
290.622
287.53
285.408
283.854
284.233
285.778
287.545
285.448
284.176
283.213
283.961
285.846
285.179
283.873
283.473
283.121
284.121
286.077
284.105
283.292
283.343
283.436
284.714
286.567
284.251
283.87
284.092
284.597
285.901
287.339
285.409
285.072
285.402
286.072
287.2
288.151
288.277
287.954
288.265
288.774
289.53
289.797
296.168
295.773
295.265
294.631
294.039
293.638
295.694
295.239
294.643
294.065
293.602
293.34
295.333
294.846
294.27
293.714
293.27
293.031
295.046
294.508
294.069
293.555
293.162
292.926
294.994
294.467
294.054
293.508
293.182
292.955
295.08
294.58
294.14
293.594
293.269
293.039
295.311
294.722
294.238
293.677
293.344
293.128
295.571
294.993
294.391
293.772
293.399
293.139
295.802
295.228
294.573
293.903
293.472
293.204
296.151
295.596
294.885
294.169
293.631
293.255
296.529
295.887
295.198
294.423
293.802
293.247
296.8
296.233
295.572
294.724
293.971
293.24
296.882
296.303
295.662
294.773
293.912
293.123
296.814
296.372
295.973
295.2
294.451
293.615
297.525
296.907
296.027
294.92
293.802
293.088
297.215
296.398
295.309
294.162
293.19
292.646
296.505
295.607
294.475
293.239
292.347
291.939
295.626
294.512
293.498
292.324
291.701
291.495
294.655
293.41
292.582
291.565
291.185
291.131
293.781
292.673
291.981
291.104
290.913
291.016
293.4
291.934
291.368
290.816
290.772
291.017
292.901
291.796
291.19
290.713
290.795
291.22
292.596
291.849
291.261
290.953
291.086
291.578
292.86
292.398
291.828
291.644
291.704
291.951
293.982
293.599
292.994
292.658
292.418
292.172
295.803
295.34
294.587
293.849
293.102
292.372
297.106
296.477
295.63
294.56
293.473
292.482
297.905
297.356
296.597
295.512
294.498
293.379
297.481
296.326
295.073
293.725
292.571
291.995
297.411
295.724
293.993
292.537
291.647
291.498
296.589
294.365
292.241
290.65
290.025
290.266
295.059
292.358
290.31
288.967
288.724
289.363
292.279
289.95
288.551
287.576
287.696
288.827
289.146
287.699
287.118
286.665
287.255
288.785
286.368
286.027
286.014
286.285
287.345
289.065
285.186
285.862
285.843
286.508
287.855
289.65
285.1
286.305
286.419
287.501
288.93
290.41
286.264
287.759
288.228
289.309
290.218
291.055
288.926
290.105
290.481
291.071
291.343
291.507
292.351
292.974
292.896
292.805
292.33
291.799
295.459
295.331
294.761
293.864
292.788
291.913
297.685
297.184
296.265
295.022
293.943
292.894
292.216
292.762
292.781
293.011
292.949
292.6
291.941
291.213
290.722
290.514
290.616
291.019
291.567
292.715
290.848
291.822
292.507
293.016
293.204
293.195
292.98
292.596
292.265
292.139
292.192
292.408
292.575
293.287
289.985
291.407
292.306
292.949
293.239
293.334
293.295
293.159
292.994
292.903
292.901
292.923
293.025
293.226
289.204
291.067
292.21
292.889
293.193
293.322
293.361
293.312
293.274
293.245
293.246
293.237
293.268
293.256
288.698
290.814
292.141
292.818
293.084
293.23
293.268
293.303
293.321
293.332
293.34
293.307
293.217
292.941
288.433
290.694
292.056
292.729
292.959
293.085
293.175
293.232
293.271
293.28
293.268
293.204
292.971
292.263
288.382
290.667
291.959
292.58
292.817
292.942
293.043
293.124
293.176
293.17
293.124
292.956
292.388
291.257
288.554
290.705
291.865
292.407
292.628
292.772
292.896
292.981
293.03
292.985
292.855
292.466
291.659
290.313
288.861
290.723
291.676
292.151
292.39
292.569
292.71
292.788
292.825
292.752
292.545
292.037
291.09
289.673
289.173
290.632
291.313
291.699
291.964
292.213
292.414
292.513
292.548
292.451
292.207
291.645
290.806
289.472
289.374
290.337
290.732
290.979
291.239
291.541
291.831
292.067
292.141
292.079
291.858
291.398
290.764
289.552
289.348
289.797
289.871
289.905
289.999
290.27
290.637
291.048
291.335
291.449
291.377
291.075
290.749
289.813
289.736
289.396
288.951
288.515
288.264
288.292
288.619
289.208
289.856
290.352
290.61
290.595
290.642
290.107
289.614
288.652
287.772
286.866
286.189
285.941
286.141
286.682
287.518
288.413
289.212
289.763
290.434
290.39
292.442
293.513
293.931
294.289
294.309
293.964
293.309
292.404
291.61
291.168
291.077
291.273
291.722
292.868
291.217
292.742
293.765
294.299
294.456
294.369
294.151
293.734
293.288
293.013
292.96
293.086
293.224
293.981
290.569
292.474
293.57
294.206
294.415
294.443
294.366
294.219
294.04
293.929
293.903
293.959
294.114
294.348
290.029
292.234
293.459
294.08
294.266
294.335
294.346
294.303
294.277
294.259
294.296
294.341
294.449
294.503
289.83
292.084
293.331
293.919
294.087
294.175
294.206
294.243
294.26
294.284
294.34
294.374
294.419
294.305
289.753
292.04
293.229
293.722
293.89
293.981
294.061
294.125
294.182
294.221
294.254
294.237
294.151
293.683
289.918
292.063
293.125
293.547
293.715
293.811
293.901
293.982
294.056
294.092
294.062
293.985
293.571
292.559
290.303
292.128
293.005
293.36
293.537
293.638
293.748
293.831
293.898
293.905
293.833
293.484
292.707
291.248
290.728
292.148
292.831
293.156
293.344
293.485
293.593
293.657
293.702
293.663
293.484
292.952
291.897
290.208
290.975
292.018
292.474
292.775
293.027
293.233
293.38
293.449
293.474
293.39
293.101
292.444
291.317
289.66
290.926
291.557
291.833
292.1
292.402
292.747
293.012
293.155
293.174
293.087
292.76
292.107
291.061
289.582
290.517
290.696
290.766
290.927
291.248
291.657
292.117
292.487
292.677
292.655
292.416
291.826
291.06
289.758
290.33
289.699
289.431
289.29
289.373
289.745
290.388
291.124
291.714
291.967
291.957
291.622
291.083
290.082
289.551
288.46
287.771
287.133
286.857
287.053
287.724
288.768
289.862
290.693
291.133
291.218
291.35
290.748
293.335
294.661
295.342
295.738
295.819
295.655
295.347
294.771
294.11
293.517
293.202
293.181
293.355
294.15
292.387
294.178
295.223
295.69
295.801
295.768
295.685
295.463
295.192
294.977
294.896
294.883
294.95
295.457
291.966
293.971
295.028
295.544
295.657
295.701
295.713
295.641
295.58
295.543
295.539
295.578
295.759
295.947
291.779
293.856
294.839
295.325
295.452
295.534
295.59
295.613
295.65
295.705
295.769
295.87
296.035
296.13
291.791
293.783
294.673
295.087
295.232
295.343
295.42
295.51
295.586
295.663
295.742
295.839
295.946
296.009
291.945
293.746
294.532
294.862
295.013
295.143
295.252
295.367
295.473
295.566
295.651
295.718
295.742
295.617
292.237
293.738
294.4
294.673
294.826
294.963
295.086
295.21
295.326
295.419
295.484
295.507
295.395
294.944
292.595
293.74
294.263
294.505
294.667
294.809
294.937
295.055
295.159
295.228
295.242
295.137
294.778
293.916
292.88
293.706
294.128
294.342
294.527
294.677
294.801
294.899
294.973
295.003
294.945
294.685
294.056
292.872
292.988
293.553
293.856
294.1
294.33
294.516
294.646
294.73
294.77
294.759
294.611
294.2
293.379
292.025
292.77
293.109
293.343
293.636
293.958
294.239
294.429
294.524
294.557
294.513
294.29
293.762
292.853
291.513
292.157
292.247
292.384
292.707
293.116
293.564
293.945
294.196
294.28
294.249
294.009
293.455
292.601
291.324
291.544
290.985
290.997
291.178
291.59
292.194
292.877
293.443
293.779
293.87
293.742
293.291
292.51
291.355
290.369
289.339
288.994
288.89
289.211
289.88
290.878
291.933
292.772
293.249
293.372
293.2
292.912
292.042
294.354
295.773
296.444
296.827
296.934
296.901
296.82
296.612
296.311
295.941
295.609
295.402
295.361
295.687
293.9
295.586
296.352
296.716
296.793
296.836
296.817
296.768
296.703
296.624
296.592
296.616
296.636
296.793
293.777
295.506
296.162
296.507
296.59
296.669
296.726
296.738
296.771
296.815
296.874
296.962
297.082
297.22
293.795
295.398
295.979
296.264
296.368
296.464
296.547
296.638
296.726
296.828
296.943
297.07
297.215
297.333
293.905
295.27
295.771
296.011
296.139
296.264
296.372
296.499
296.62
296.746
296.874
296.999
297.13
297.261
294.067
295.171
295.579
295.78
295.919
296.072
296.212
296.355
296.49
296.622
296.752
296.874
296.993
297.077
294.265
295.092
295.407
295.592
295.744
295.908
296.061
296.209
296.346
296.472
296.59
296.693
296.762
296.731
294.422
295.035
295.274
295.445
295.608
295.773
295.923
296.065
296.195
296.308
296.397
296.442
296.404
296.152
294.487
294.949
295.173
295.334
295.505
295.663
295.794
295.92
296.033
296.123
296.172
296.128
295.937
295.42
294.444
294.79
294.996
295.21
295.398
295.549
295.668
295.775
295.864
295.92
295.92
295.79
295.424
294.62
294.18
294.456
294.703
294.993
295.23
295.415
295.54
295.633
295.694
295.718
295.66
295.415
294.889
293.86
293.591
293.767
294.02
294.402
294.796
295.124
295.341
295.47
295.511
295.512
295.413
295.066
294.439
293.347
292.806
292.584
292.88
293.321
293.877
294.41
294.868
295.183
295.323
295.307
295.2
294.849
294.197
293.125
291.406
290.836
290.943
291.344
292.069
292.921
293.779
294.46
294.859
295.006
294.947
294.715
294.337
293.453
295.782
296.98
297.53
297.848
297.99
298.07
298.087
298.063
297.994
297.848
297.698
297.585
297.517
297.518
295.651
296.94
297.41
297.697
297.799
297.898
297.97
298.016
298.045
298.056
298.106
298.186
298.265
298.293
295.594
296.868
297.237
297.48
297.591
297.706
297.807
297.908
297.998
298.081
298.176
298.281
298.421
298.518
295.613
296.691
297.034
297.241
297.376
297.512
297.637
297.773
297.903
298.032
298.159
298.294
298.442
298.569
295.668
296.504
296.81
297.003
297.163
297.331
297.486
297.642
297.789
297.933
298.076
298.219
298.359
298.499
295.765
296.341
296.605
296.798
296.975
297.168
297.345
297.512
297.665
297.808
297.949
298.084
298.227
298.389
295.863
296.226
296.442
296.638
296.826
297.026
297.21
297.379
297.531
297.667
297.797
297.92
298.05
298.181
295.932
296.168
296.331
296.516
296.708
296.902
297.077
297.24
297.388
297.518
297.635
297.732
297.828
297.862
295.873
296.089
296.257
296.438
296.62
296.791
296.944
297.093
297.233
297.358
297.461
297.527
297.539
297.439
295.766
295.965
296.168
296.369
296.538
296.681
296.81
296.94
297.068
297.179
297.259
297.28
297.2
296.891
295.522
295.781
296.044
296.275
296.451
296.582
296.692
296.799
296.901
296.986
297.036
296.997
296.807
296.274
295.069
295.339
295.63
295.966
296.247
296.442
296.574
296.673
296.747
296.794
296.803
296.689
296.401
295.672
294.338
294.468
294.86
295.34
295.781
296.149
296.397
296.539
296.605
296.62
296.594
296.421
296.091
295.308
293.009
292.905
293.253
293.88
294.621
295.325
295.902
296.286
296.451
296.479
296.404
296.248
295.984
295.245
297.265
298.143
298.483
298.749
298.876
298.985
299.053
299.112
299.122
299.108
299.09
299.09
299.104
299.05
297.149
298.115
298.364
298.584
298.7
298.821
298.921
299.016
299.085
299.137
299.218
299.329
299.465
299.52
297.054
297.929
298.166
298.365
298.508
298.652
298.78
298.91
299.026
299.132
299.243
299.356
299.497
299.605
297.013
297.665
297.936
298.14
298.315
298.488
298.644
298.798
298.945
299.087
299.225
299.358
299.505
299.638
296.988
297.452
297.713
297.932
298.134
298.337
298.52
298.693
298.851
299
299.148
299.291
299.433
299.563
296.99
297.303
297.537
297.765
297.982
298.202
298.401
298.584
298.747
298.892
299.032
299.163
299.296
299.44
296.988
297.208
297.417
297.644
297.864
298.084
298.285
298.469
298.63
298.769
298.895
299.01
299.132
299.273
296.964
297.15
297.34
297.551
297.763
297.971
298.163
298.341
298.499
298.634
298.752
298.851
298.961
299.075
296.906
297.109
297.285
297.485
297.677
297.86
298.031
298.196
298.35
298.485
298.599
298.687
298.764
298.799
296.83
297.024
297.234
297.425
297.587
297.738
297.886
298.039
298.189
298.323
298.433
298.499
298.524
298.465
296.685
296.941
297.179
297.365
297.502
297.621
297.744
297.878
298.018
298.143
298.236
298.276
298.259
298.063
296.419
296.701
296.969
297.209
297.375
297.495
297.608
297.726
297.847
297.953
298.015
298.024
297.959
297.598
295.901
296.252
296.589
296.885
297.142
297.328
297.478
297.596
297.69
297.759
297.796
297.771
297.675
297.218
294.886
295.071
295.425
295.969
296.518
296.96
297.275
297.465
297.563
297.6
297.603
297.545
297.436
297.054
298.491
299.15
299.392
299.634
299.775
299.896
299.99
300.078
300.125
300.15
300.164
300.223
300.306
300.35
298.385
299.032
299.236
299.451
299.61
299.756
299.881
299.99
300.073
300.138
300.215
300.318
300.464
300.571
298.27
298.782
299.022
299.243
299.435
299.615
299.768
299.904
300.026
300.134
300.243
300.353
300.498
300.618
298.162
298.546
298.809
299.05
299.271
299.48
299.659
299.819
299.964
300.101
300.234
300.365
300.512
300.65
298.082
298.377
298.635
298.889
299.129
299.359
299.558
299.736
299.894
300.036
300.176
300.311
300.452
300.582
298.038
298.27
298.514
298.772
299.017
299.253
299.461
299.648
299.811
299.952
300.083
300.203
300.326
300.446
298.006
298.202
298.439
298.688
298.927
299.156
299.362
299.549
299.712
299.849
299.967
300.067
300.168
300.285
297.966
298.169
298.383
298.619
298.84
299.056
299.253
299.435
299.595
299.728
299.834
299.916
300.003
300.111
297.97
298.151
298.357
298.558
298.755
298.947
299.127
299.3
299.455
299.585
299.686
299.761
299.836
299.927
297.928
298.114
298.315
298.488
298.653
298.813
298.976
299.142
299.294
299.425
299.527
299.6
299.656
299.685
297.862
298.077
298.277
298.417
298.543
298.669
298.808
298.963
299.116
299.25
299.35
299.422
299.455
299.437
297.72
297.953
298.162
298.307
298.411
298.516
298.635
298.78
298.93
299.068
299.165
299.227
299.248
299.142
297.481
297.773
297.977
298.12
298.239
298.362
298.484
298.617
298.752
298.881
298.979
299.035
299.053
298.87
296.789
296.967
297.285
297.635
297.927
298.172
298.348
298.493
298.613
298.718
298.801
298.837
298.863
298.678
299.505
299.973
300.209
300.451
300.605
300.734
300.837
300.924
300.976
301.014
301.029
301.088
301.189
301.297
299.366
299.791
300.032
300.272
300.462
300.627
300.758
300.863
300.946
301.008
301.067
301.148
301.285
301.417
299.239
299.576
299.835
300.091
300.316
300.514
300.673
300.803
300.916
301.011
301.106
301.2
301.332
301.455
299.122
299.404
299.67
299.94
300.186
300.407
300.588
300.741
300.873
300.989
301.105
301.223
301.362
301.498
299.045
299.292
299.555
299.828
300.08
300.311
300.507
300.675
300.819
300.944
301.066
301.188
301.322
301.451
299.009
299.232
299.485
299.751
299.997
300.226
300.425
300.6
300.751
300.878
300.996
301.107
301.223
301.333
298.972
299.197
299.444
299.693
299.924
300.143
300.338
300.513
300.664
300.791
300.899
300.993
301.086
301.181
298.965
299.187
299.398
299.633
299.846
300.05
300.237
300.408
300.557
300.68
300.78
300.857
300.93
301.016
298.988
299.173
299.379
299.572
299.757
299.941
300.116
300.281
300.426
300.545
300.637
300.704
300.766
300.863
298.968
299.154
299.33
299.484
299.641
299.802
299.966
300.128
300.273
300.393
300.483
300.548
300.612
300.688
298.941
299.129
299.273
299.387
299.506
299.638
299.79
299.951
300.101
300.228
300.322
300.394
300.454
300.502
298.851
299.05
299.179
299.265
299.35
299.461
299.598
299.76
299.921
300.065
300.172
300.246
300.292
300.305
298.749
298.946
299.034
299.104
299.186
299.295
299.424
299.579
299.743
299.902
300.032
300.118
300.159
300.137
298.276
298.457
298.66
298.838
298.997
299.144
299.284
299.435
299.595
299.754
299.889
299.968
300.016
299.956
300.431
300.796
301.02
301.256
301.422
301.561
301.665
301.754
301.813
301.854
301.872
301.916
301.997
302.102
300.296
300.615
300.862
301.108
301.311
301.484
301.614
301.721
301.8
301.863
301.911
301.97
302.08
302.199
300.17
300.449
300.708
300.973
301.203
301.402
301.555
301.682
301.783
301.868
301.948
302.021
302.126
302.229
300.083
300.337
300.6
300.87
301.111
301.324
301.494
301.635
301.752
301.851
301.947
302.042
302.158
302.276
300.031
300.272
300.53
300.797
301.036
301.251
301.429
301.579
301.707
301.814
301.916
302.017
302.133
302.25
300.003
300.237
300.49
300.744
300.972
301.18
301.359
301.512
301.646
301.757
301.86
301.957
302.062
302.165
299.985
300.217
300.457
300.694
300.906
301.103
301.277
301.431
301.566
301.679
301.779
301.867
301.955
302.042
300.004
300.205
300.422
300.634
300.827
301.01
301.179
301.331
301.465
301.578
301.673
301.751
301.824
301.899
300.014
300.196
300.385
300.56
300.728
300.898
301.059
301.21
301.343
301.454
301.544
301.614
301.678
301.752
300.008
300.172
300.32
300.458
300.603
300.758
300.915
301.068
301.203
301.316
301.404
301.471
301.537
301.619
299.981
300.132
300.24
300.34
300.456
300.593
300.746
300.904
301.047
301.17
301.263
301.335
301.407
301.485
299.913
300.055
300.133
300.202
300.289
300.412
300.563
300.728
300.887
301.029
301.138
301.219
301.285
301.344
299.835
299.941
299.994
300.047
300.127
300.243
300.388
300.557
300.73
300.897
301.031
301.131
301.199
301.232
299.494
299.621
299.747
299.863
299.973
300.098
300.244
300.413
300.595
300.772
300.92
301.019
301.082
301.082
294.004
295.27
296.813
298.56
300.351
301.39
293.113
294.059
295.329
296.836
298.388
299.167
293.132
293.679
294.191
294.713
295.287
295.285
292.847
292.563
291.973
291.428
291.213
290.815
292.209
290.913
289.338
288.004
287.123
286.253
291.112
288.847
286.601
284.979
283.887
282.857
289.812
287.062
284.79
283.349
282.553
281.457
288.845
286.086
284.057
282.938
282.454
281.484
288.391
285.774
284.181
283.699
284.119
284.042
288.308
285.998
285.028
285.175
286.65
287.879
288.904
287.148
286.835
287.544
290.11
292.652
290.138
288.961
289.272
290.667
293.623
296.587
291.776
291.328
292.28
293.996
296.679
299.092
292.45
292.973
294.482
296.305
298.67
300.565
294.06
294.997
296.063
297.255
298.503
299.684
293.717
294.344
295.285
296.443
297.7
298.545
294.07
294.516
294.968
295.238
295.446
295.24
294.151
293.919
293.32
292.374
291.574
290.591
293.754
292.533
290.726
288.698
287.018
285.428
292.652
290.276
287.353
284.681
282.771
281.191
291.17
287.866
284.489
281.948
280.35
279.162
289.744
286.14
283.092
281.05
279.916
279.098
288.903
285.531
283.018
281.6
281.251
281.321
288.58
285.577
283.729
282.968
283.429
284.646
288.851
286.46
285.421
285.146
286.409
288.582
289.894
288.197
287.897
288.197
290.067
292.723
291.439
290.551
290.88
291.847
293.842
296.12
292.044
292.16
293.024
294.484
296.43
298.318
294.32
295.058
295.748
296.542
297.461
298.47
294.697
295.189
295.914
296.914
297.971
298.925
295.453
295.772
296.307
296.851
297.231
297.426
295.802
295.857
295.81
295.403
294.787
293.953
295.725
295.274
294.23
292.549
290.722
288.875
295.127
293.746
291.516
288.681
285.959
283.664
294.168
291.777
288.487
285.012
282.125
280.133
292.975
289.823
286.074
282.736
280.412
278.974
291.968
288.584
285.052
282.268
280.646
280.074
291.421
288.112
284.977
282.781
281.988
282.077
291.373
288.316
285.832
284.317
284.132
284.88
291.778
289.365
287.748
286.831
287.239
288.491
292.665
291.134
290.505
290.271
291.059
292.491
292.974
292.457
292.705
293.247
294.421
295.906
294.739
294.703
295.003
295.252
295.785
296.714
295.662
295.766
296.129
296.808
297.651
298.52
296.519
296.772
297.239
297.813
298.483
298.953
296.974
297.181
297.516
297.75
297.843
297.544
297.086
297.155
297.104
296.628
295.658
294.117
296.899
296.59
295.723
294.104
291.823
289.063
296.556
295.592
293.653
290.696
287.162
283.914
295.932
294.147
291.163
287.192
283.394
280.569
295.189
292.77
289.187
285.058
281.828
279.882
294.549
291.814
288.158
284.394
281.802
280.694
294.232
291.478
288.095
284.905
283.052
282.516
294.234
291.641
288.893
286.573
285.557
285.528
294.459
292.507
290.723
289.407
289.045
289.377
294.462