/*--------------------------------*- C++ -*----------------------------------*\
| =========                 |                                                 |
| \\      /  F ield         | OpenFOAM: The Open Source CFD Toolbox           |
|  \\    /   O peration     | Version:  v2106                                 |
|   \\  /    A nd           | Website:  www.openfoam.com                      |
|    \\/     M anipulation  |                                                 |
\*---------------------------------------------------------------------------*/
FoamFile
{
    version     2.0;
    format      ascii;
    arch        "LSB;label=32;scalar=64";
    class       volScalarField;
    location    "0.000158";
    object      Ttot;
}
// * * * * * * * * * * * * * * * * * * * * * * * * * * * * * * * * * * * * * //

dimensions      [0 0 0 1 0 0 0];

internalField   nonuniform List<scalar> 
144746
(
299.837
300.023
300.15
300.454
300.643
300.694
300.528
300.302
299.949
299.521
299.198
299.219
299.656
300.693
298.159
298.657
298.943
299.629
300.098
300.387
300.436
300.404
300.28
300.065
299.838
299.858
300.13
300.892
297.104
297.962
298.475
299.255
299.767
300.102
300.231
300.291
300.258
300.177
300.082
300.136
300.414
301.166
296.418
297.525
298.356
299.165
299.606
299.896
300.042
300.153
300.226
300.269
300.296
300.423
300.724
301.268
296.272
297.515
298.419
299.1
299.475
299.698
299.845
299.977
300.095
300.197
300.338
300.533
300.857
301.204
296.378
297.649
298.547
299.086
299.383
299.53
299.667
299.807
299.948
300.089
300.267
300.461
300.75
300.851
296.739
297.898
298.655
299.056
299.297
299.397
299.528
299.672
299.82
299.969
300.165
300.286
300.437
300.294
297.139
298.074
298.607
298.914
299.134
299.248
299.396
299.553
299.701
299.808
299.943
299.91
299.903
299.552
297.672
298.188
298.466
298.63
298.826
299.005
299.231
299.44
299.587
299.623
299.683
299.477
299.357
298.886
297.936
297.985
297.948
297.974
298.214
298.493
298.839
299.171
299.382
299.368
299.357
299.018
298.855
298.394
298.479
298.043
297.484
297.139
297.267
297.591
298.084
298.594
298.968
299.042
299.115
298.789
298.703
298.388
298.931
297.921
296.9
296.134
296.029
296.301
296.882
297.586
298.256
298.563
298.868
298.71
298.911
298.778
299.358
298.304
296.915
295.61
295
295.008
295.539
296.335
297.273
298.011
298.69
298.919
299.385
299.509
299.876
298.506
296.853
295.304
294.346
294.04
294.41
295.098
296.106
297.143
298.235
299.056
299.65
300.218
300.511
300.475
300.284
300.457
300.363
300.191
299.696
299.069
298.494
298.15
298.08
298.668
299.723
301.332
298.501
298.957
299.035
299.647
299.955
300.122
300.017
299.725
299.409
299.228
299.16
299.541
300.194
301.326
297.143
298.002
298.398
299.166
299.61
299.888
299.927
299.827
299.687
299.577
299.542
299.759
300.227
301.194
296.12
297.311
298.121
298.924
299.357
299.641
299.744
299.749
299.775
299.794
299.866
300.095
300.489
301.069
295.61
297.065
298.06
298.824
299.19
299.4
299.519
299.601
299.701
299.806
299.931
300.109
300.432
300.619
295.389
297.025
298.148
298.798
299.093
299.219
299.337
299.45
299.586
299.716
299.894
300.025
300.16
299.876
295.523
297.182
298.22
298.751
298.992
299.074
299.193
299.316
299.458
299.584
299.726
299.732
299.592
298.88
295.821
297.348
298.18
298.602
298.81
298.902
299.035
299.164
299.302
299.393
299.471
299.278
298.874
297.935
296.274
297.512
298.053
298.294
298.498
298.663
298.853
299.011
299.138
299.147
299.124
298.728
298.191
297.218
296.662
297.435
297.668
297.735
297.874
298.139
298.435
298.697
298.869
298.828
298.713
298.222
297.784
296.905
297.336
297.511
297.242
296.989
297.024
297.277
297.671
298.071
298.365
298.428
298.385
297.964
297.788
297.137
297.835
297.292
296.58
295.97
295.77
295.932
296.357
296.899
297.455
297.805
298.083
297.932
298.235
297.928
298.66
297.844
296.687
295.398
294.611
294.369
294.67
295.249
296.06
296.836
297.644
297.986
298.701
298.903
299.6
298.109
296.425
294.781
293.595
292.967
292.992
293.427
294.231
295.254
296.599
297.662
298.69
299.671
300.363
300.39
300.055
300.085
299.656
299.188
298.431
297.584
296.948
296.69
296.926
297.796
299.167
301.256
297.965
298.622
298.827
299.346
299.352
299.303
299.042
298.647
298.301
298.176
298.408
299.026
299.828
301.281
296.384
297.589
298.1
298.794
298.995
299.104
299.052
298.908
298.757
298.643
298.74
299.183
299.843
300.946
295.141
296.814
297.812
298.494
298.752
298.896
298.946
298.895
298.91
298.933
299.067
299.392
299.961
300.597
294.478
296.503
297.705
298.318
298.563
298.701
298.765
298.782
298.848
298.904
299.029
299.26
299.666
299.934
294.166
296.373
297.642
298.231
298.431
298.507
298.586
298.65
298.722
298.811
298.943
299.096
299.263
299.018
294.181
296.424
297.647
298.153
298.313
298.386
298.495
298.546
298.598
298.667
298.782
298.813
298.586
297.815
294.469
296.555
297.603
298.032
298.157
298.201
298.329
298.374
298.438
298.492
298.519
298.341
297.798
296.612
295.016
296.774
297.492
297.761
297.909
298.015
298.168
298.242
298.322
298.348
298.26
297.927
297.226
295.801
295.669
296.909
297.228
297.31
297.434
297.63
297.826
297.987
298.116
298.126
297.962
297.547
297.021
295.626
296.438
296.94
296.782
296.584
296.614
296.827
297.152
297.48
297.737
297.873
297.811
297.402
297.23
296.015
296.84
296.532
295.974
295.494
295.304
295.422
295.795
296.302
296.813
297.24
297.559
297.378
297.684
296.902
297.824
296.917
295.873
294.607
293.786
293.518
293.747
294.324
295.182
296.12
297.066
297.379
298.093
298.074
298.812
296.892
295.103
293.274
291.916
291.274
291.355
291.856
292.871
294.205
295.742
296.891
298.182
299.23
301.68
302.332
302.47
302.153
301.121
298.265
301.184
302.059
302.594
302.454
301.459
298.621
301.767
302.48
302.934
302.657
301.549
298.807
301.786
302.168
302.561
302.202
301.186
298.76
301.622
301.692
301.99
301.54
300.603
298.47
301.101
300.851
300.948
300.456
299.707
298.091
300.351
299.93
299.974
299.586
299.102
297.936
299.423
299.031
299.188
299.039
298.917
297.92
298.783
298.561
298.902
299.043
299.139
297.983
298.563
298.741
299.318
299.616
299.567
298.131
298.955
299.371
300.051
300.27
300.057
298.221
299.579
300.161
300.769
300.836
300.399
298.217
300.287
300.728
301.112
301.03
300.429
298.108
300.518
300.833
300.93
300.672
299.892
297.465
302.941
304.011
304.591
304.536
303.862
300.215
301.801
302.948
303.757
303.892
303.307
300.062
301.924
302.728
303.222
302.872
302.111
298.969
301.475
301.461
301.28
300.529
299.855
297.356
300.506
299.788
299.215
298.397
297.953
296.122
299.212
298.07
297.48
296.989
296.778
295.833
297.953
296.944
296.634
296.584
296.572
296.465
297.138
296.397
296.501
296.955
297.375
297.575
296.721
296.455
297.137
298.237
298.919
298.668
296.915
297.208
298.22
299.714
300.348
299.711
297.865
298.462
299.769
301.192
301.725
300.245
298.893
299.673
300.962
302.003
302.351
300.305
299.953
300.418
301.336
301.989
302.192
299.82
299.96
300.226
300.609
300.826
300.723
297.985
303.504
304.878
306.064
306.549
306.868
303.231
302.092
303.488
304.702
305.01
305.158
302.047
301.918
302.905
303.615
303.228
303.053
299.369
301.093
301.293
301.186
300.344
300.043
296.332
299.838
299.234
298.529
297.523
297.366
293.731
298.143
296.708
295.67
294.965
295.176
292.666
296.378
294.607
293.87
293.778
294.276
293.1
295.053
293.442
293.219
293.84
294.458
295.098
294.591
293.285
293.608
295.251
296.706
298.361
294.951
294.141
295.104
297.431
299.438
301.324
296.007
296.049
297.283
299.715
302.031
303.004
297.68
297.922
299.273
301.406
303.448
303.518
299.1
299.262
300.436
301.95
303.514
302.563
299.112
299.305
300.12
300.893
301.735
299.299
300.339
300.589
300.261
299.805
298.862
296.623
299.245
299.448
299.344
299.176
298.567
296.383
298.727
298.746
298.655
298.603
298.176
296.395
297.481
297.442
297.449
297.939
297.857
296.404
296.323
296.317
296.544
297.472
297.719
296.708
295.213
295.298
295.915
297.226
297.771
297.25
294.365
294.728
295.793
297.4
298.191
297.881
293.931
294.629
296.126
298.038
298.931
298.568
294.061
295.215
297.01
298.996
299.883
299.284
294.89
296.337
298.273
300.196
300.986
299.93
296.392
297.988
299.767
301.343
301.904
300.262
298.193
299.547
300.907
302.018
302.305
300.242
299.589
300.494
301.392
302.166
302.098
299.387
300.182
300.851
301.255
301.697
301.359
298.614
299.617
299.796
299.213
298.969
298.263
295.604
297.708
297.522
296.847
296.574
296.414
294.289
296.606
295.953
295.412
295.401
295.194
293.694
294.906
294.126
293.774
294.37
294.592
293.993
293.597
293.055
293.148
294.388
295.022
295.553
292.662
292.287
292.992
294.75
295.997
297.237
292.119
292.069
293.431
295.804
297.439
298.963
292.04
292.387
294.264
297.222
299.176
300.714
292.635
293.567
295.767
299.023
301.08
302.31
293.915
295.364
297.754
300.962
302.8
303.392
295.828
297.587
299.853
302.57
303.954
303.633
297.874
299.405
301.181
303.242
304.285
303.053
299.361
300.302
301.417
302.756
303.298
300.86
299.599
300.206
300.527
301.048
301.047
298.092
299.6
299.628
299.279
298.838
298.419
295.376
296.96
296.591
295.738
295.064
294.794
292.658
295.446
294.249
293.304
292.821
292.565
290.848
293.228
291.547
290.532
290.609
290.739
290.201
291.416
289.642
289.062
289.941
290.473
291.654
290.058
288.431
288.507
290.439
292.333
294.601
289.254
288.047
288.984
292.172
295.308
298.71
289.093
288.306
289.777
293.931
298.142
302.778
289.72
289.507
291.495
296.145
300.668
305.732
291.31
291.726
293.952
298.419
302.68
307.356
293.732
294.643
296.758
300.472
303.982
307.909
296.193
297.236
298.929
301.703
304.402
306.771
298.15
298.801
299.883
301.796
303.595
303.218
298.508
298.974
299.356
300.123
300.809
298.368
300.143
303.376
303.716
302.643
301.387
300.177
300.778
303.038
302.667
301.154
299.778
298.858
300.604
302.055
301.207
299.377
298.027
297.223
300.041
300.743
299.633
297.688
296.498
295.996
299.254
299.272
298.143
296.266
295.389
295.341
298.462
298.207
297.14
295.442
294.857
295.149
297.847
297.459
296.43
294.95
294.772
295.392
297.307
297.078
296.252
294.983
295.114
295.877
296.873
296.978
296.352
295.313
295.725
296.574
296.529
297.321
296.993
296.135
296.684
297.272
296.298
297.832
297.704
297.061
297.655
297.924
296.571
298.532
298.775
298.46
298.941
298.837
296.692
299.235
299.491
299.274
299.48
299.095
297.171
299.84
300.735
300.685
300.812
300.315
302.84
306.171
305.848
304.31
302.499
300.982
304.289
305.877
304.84
302.696
300.781
299.546
304.567
304.726
303.151
300.467
298.58
297.501
303.9
303.019
301.045
298.056
296.433
295.822
302.738
300.832
298.728
295.771
294.609
294.623
301.082
298.793
296.829
294.134
293.35
293.931
299.555
296.872
295.152
292.918
292.573
293.685
297.861
295.464
294.121
292.381
292.418
293.808
296.565
294.344
293.373
292.185
292.696
294.233
295.429
294.06
293.523
292.673
293.502
294.842
294.36
294.11
293.881
293.413
294.554
295.758
293.733
295.056
295.181
295.072
296.289
297.05
294.034
296.19
296.267
296.549
297.612
297.794
295.012
298.122
298.892
299.221
300.042
299.796
307.067
308.743
306.692
304.36
302.14
300.682
309.249
307.613
305.091
302.191
300.118
299.083
309.343
305.855
302.424
299.017
297.182
296.591
308.295
303.672
299.502
295.712
294.302
294.496
306.524
301.228
296.633
292.632
291.692
292.736
304.034
298.76
294.218
290.355
289.914
291.63
300.763
296.089
292.043
288.808
288.943
291.143
297.145
293.499
290.511
287.99
288.59
291.245
293.65
291.108
289.185
287.602
288.821
291.813
291.08
289.413
288.813
288.263
289.897
292.781
289.81
289.147
289.391
289.678
291.723
294.095
289.843
290.985
291.534
292.34
294.242
295.709
291.234
293.149
293.702
294.635
296.094
296.67
293.699
296.873
297.604
298.334
299.297
299.212
298.387
301.161
301.751
301.731
301.276
300.648
298.198
300.546
300.746
300.557
300.158
299.889
297.793
299.697
299.704
299.403
299.122
299.118
297.418
298.833
298.797
298.536
298.544
298.845
297.242
298.304
298.252
298.126
298.454
299.049
297.196
298.08
298.159
298.31
298.828
299.533
297.308
298.032
298.445
298.867
299.48
300.137
297.543
298.583
299.244
299.777
300.266
300.611
297.788
299.443
300.296
300.818
300.997
301.013
298.281
300.616
301.575
301.938
301.667
301.276
298.853
301.527
302.502
302.569
302.015
301.17
299.244
302.446
303.47
303.266
302.39
301.099
299.44
302.735
303.593
303.05
301.955
300.592
299.339
302.892
304.097
303.711
302.838
301.507
301.099
304.395
304.472
303.868
302.643
301.612
301.537
303.91
303.404
302.34
301.109
300.488
300.869
302.554
301.833
300.301
299.185
298.889
299.963
300.651
299.789
298.177
297.616
297.84
298.772
298.676
297.856
296.57
296.542
297.269
297.515
297.172
296.52
295.689
296.181
297.355
296.794
295.566
295.457
295.455
296.385
297.825
295.814
295.269
295.5
295.924
297.118
298.688
295.106
295.76
296.289
297.151
298.391
299.75
295.333
297.171
297.996
299.127
300.046
300.663
296.64
299.377
300.374
301.304
301.481
301.035
298.781
302.222
303.102
303.362
302.612
301.341
300.428
303.995
304.527
304.054
302.801
301.202
301.318
305.394
306.054
305.467
304.275
302.597
305.189
307.374
306.037
304.468
302.6
301.564
306.102
306.407
304.183
302.023
300.505
300.2
305.151
304.139
301.325
298.755
297.595
297.855
303.14
300.68
297.911
295.564
295.104
296.086
299.769
297.172
294.974
293.095
293.202
295.035
296.027
294.08
292.698
291.601
292.398
294.878
292.794
291.782
291.253
291.25
292.714
295.503
291.101
291.593
291.336
292.041
294.041
296.791
290.65
292.679
292.71
294.21
296.312
298.348
291.894
295.17
295.79
297.488
298.777
299.697
294.905
298.499
299.253
300.546
300.883
300.648
298.819
302.33
302.699
303.202
302.477
301.289
302.254
305.213
304.959
304.432
303.005
301.336
304.474
307.984
307.243
306.165
304.631
302.853
300.498
300.659
300.297
300.336
300.105
299.552
298.709
297.731
297.018
296.679
296.845
297.585
298.896
301.358
297.775
298.771
299.245
299.646
299.74
299.629
299.342
298.896
298.505
298.353
298.539
299.161
299.92
301.579
296.289
297.857
298.557
299.08
299.285
299.338
299.281
299.149
298.98
298.941
299.137
299.485
300.158
301.228
295.129
297.161
298.201
298.744
298.953
299.032
299.069
299.035
299.036
299.106
299.325
299.673
300.269
301.01
294.48
296.728
297.984
298.538
298.698
298.799
298.826
298.88
298.944
299.072
299.319
299.657
300.115
300.52
294.168
296.586
297.856
298.41
298.506
298.564
298.659
298.724
298.818
298.953
299.203
299.517
299.776
299.62
294.17
296.599
297.789
298.277
298.377
298.421
298.526
298.595
298.705
298.831
299.066
299.28
299.129
298.344
294.522
296.73
297.767
298.144
298.215
298.255
298.374
298.449
298.581
298.674
298.821
298.76
298.25
296.996
295.08
296.916
297.686
297.988
298.079
298.149
298.247
298.314
298.442
298.521
298.559
298.321
297.54
295.959
295.779
297.068
297.502
297.676
297.785
297.943
298.089
298.197
298.317
298.355
298.301
297.893
297.114
295.464
296.401
297.007
297.054
297.049
297.181
297.435
297.715
297.983
298.117
298.161
298.092
297.724
297.137
295.578
296.688
296.544
296.207
295.964
295.973
296.255
296.671
297.171
297.535
297.793
297.846
297.636
297.568
296.346
297.672
296.6
295.578
294.606
294.174
294.203
294.63
295.383
296.203
296.948
297.449
297.649
298.126
297.635
298.346
295.941
294.171
292.647
291.732
291.46
291.759
292.548
293.741
295.114
296.386
297.397
298.568
299.279
298.835
299.572
299.712
299.887
299.818
299.356
298.668
297.683
296.807
296.278
296.203
296.498
297.334
299.276
296.782
298.274
299.157
299.546
299.606
299.434
299.195
298.771
298.339
298.081
298.096
298.391
298.873
300.144
295.85
297.801
298.744
299.23
299.329
299.306
299.217
299.082
298.916
298.84
298.937
299.169
299.639
300.341
295.203
297.417
298.518
299.006
299.061
299.067
299.07
299.035
299.037
299.069
299.238
299.468
299.875
300.332
294.984
297.205
298.315
298.775
298.833
298.873
298.886
298.928
298.956
299.027
299.209
299.439
299.771
300.067
294.916
297.155
298.182
298.54
298.612
298.649
298.73
298.785
298.858
298.939
299.106
299.294
299.491
299.404
295.097
297.155
298.085
298.377
298.459
298.491
298.583
298.643
298.735
298.815
298.934
299.078
298.948
298.255
295.524
297.243
297.997
298.217
298.308
298.322
298.431
298.491
298.6
298.662
298.745
298.607
298.095
296.851
296.034
297.343
297.887
298.092
298.19
298.243
298.319
298.355
298.444
298.477
298.452
298.114
297.278
295.672
296.474
297.349
297.635
297.808
297.973
298.1
298.2
298.257
298.326
298.319
298.152
297.649
296.677
294.964
296.606
297.008
297.099
297.242
297.461
297.77
298.007
298.136
298.184
298.168
297.943
297.401
296.391
294.806
296.357
296.194
296.1
296.143
296.43
296.825
297.292
297.687
297.896
297.951
297.808
297.247
296.546
295.023
296.559
295.374
294.887
294.571
294.64
295.054
295.719
296.484
297.104
297.439
297.555
297.281
296.883
295.77
296.324
294.121
293.026
292.249
292.038
292.283
293.042
294.186
295.369
296.334
296.948
297.219
297.595
297.447
298.059
299.169
299.669
299.887
299.881
299.648
299.343
298.784
298.175
297.635
297.387
297.427
297.788
298.766
296.916
298.481
299.396
299.741
299.749
299.651
299.551
299.339
299.112
298.96
299
299.068
299.233
299.888
296.41
298.243
299.155
299.553
299.555
299.559
299.558
299.488
299.444
299.43
299.488
299.62
299.912
300.288
296.149
298.142
298.947
299.323
299.351
299.384
299.424
299.442
299.483
299.556
299.653
299.819
300.092
300.353
296.115
298.015
298.734
299.057
299.137
299.212
299.266
299.348
299.413
299.495
299.598
299.743
299.944
300.201
296.25
297.918
298.577
298.82
298.921
299.015
299.115
299.215
299.315
299.399
299.517
299.647
299.787
299.864
296.47
297.862
298.441
298.636
298.756
298.858
298.975
299.077
299.189
299.272
299.382
299.486
299.52
299.261
296.79
297.86
298.315
298.481
298.618
298.714
298.839
298.933
299.047
299.114
299.189
299.183
298.982
298.285
297.087
297.856
298.208
298.371
298.526
298.625
298.736
298.806
298.89
298.937
298.954
298.789
298.322
297.297
297.296
297.777
297.995
298.205
298.392
298.531
298.626
298.688
298.745
298.769
298.699
298.394
297.736
296.488
297.167
297.432
297.583
297.85
298.127
298.369
298.511
298.566
298.609
298.613
298.474
298.048
297.272
295.995
296.684
296.669
296.768
297.048
297.4
297.811
298.161
298.395
298.469
298.462
298.288
297.824
297.025
295.782
296.269
295.482
295.503
295.645
296.041
296.591
297.222
297.763
298.087
298.191
298.12
297.739
297.017
295.864
295.335
293.876
293.495
293.433
293.746
294.364
295.313
296.306
297.114
297.62
297.821
297.736
297.531
296.854
297.885
299.126
299.689
299.958
299.988
299.901
299.806
299.604
299.336
299.017
298.738
298.53
298.51
298.87
297.418
298.959
299.587
299.871
299.859
299.85
299.796
299.733
299.672
299.61
299.634
299.701
299.741
299.874
297.25
298.916
299.425
299.685
299.682
299.715
299.736
299.73
299.753
299.796
299.865
299.97
300.109
300.271
297.285
298.819
299.251
299.454
299.49
299.539
299.592
299.66
299.729
299.82
299.932
300.057
300.206
300.351
297.381
298.653
299.037
299.207
299.288
299.374
299.452
299.553
299.645
299.749
299.869
299.99
300.11
300.284
297.515
298.52
298.843
298.982
299.085
299.202
299.32
299.434
299.544
299.648
299.773
299.9
300.027
300.171
297.654
298.409
298.665
298.803
298.932
299.064
299.199
299.315
299.43
299.524
299.64
299.759
299.865
299.891
297.772
298.34
298.533
298.666
298.817
298.942
299.078
299.186
299.302
299.387
299.483
299.551
299.578
299.387
297.817
298.255
298.442
298.591
298.744
298.862
298.977
299.067
299.165
299.234
299.298
299.28
299.164
298.732
297.789
298.121
298.3
298.513
298.675
298.788
298.875
298.947
299.028
299.077
299.094
298.995
298.71
297.999
297.557
297.84
298.079
298.373
298.58
298.731
298.811
298.857
298.897
298.919
298.884
298.674
298.231
297.272
297.038
297.19
297.475
297.861
298.221
298.522
298.696
298.78
298.779
298.758
298.665
298.351
297.767
296.704
296.317
296.008
296.388
296.89
297.422
297.906
298.311
298.57
298.655
298.598
298.485
298.145
297.502
296.485
295.005
294.415
294.544
294.969
295.697
296.516
297.309
297.928
298.253
298.337
298.249
298.021
297.637
296.825
298.638
299.679
300.126
300.328
300.382
300.408
300.393
300.348
300.273
300.147
300.026
299.932
299.885
299.892
298.489
299.703
300.024
300.215
300.226
300.275
300.307
300.323
300.333
300.332
300.386
300.485
300.585
300.615
298.409
299.628
299.856
300.019
300.057
300.122
300.186
300.257
300.323
300.385
300.464
300.552
300.691
300.783
298.411
299.421
299.652
299.792
299.874
299.966
300.055
300.16
300.259
300.362
300.467
300.581
300.709
300.834
298.444
299.208
299.433
299.568
299.687
299.817
299.94
300.064
300.175
300.284
300.403
300.529
300.636
300.781
298.514
299.021
299.229
299.375
299.52
299.677
299.826
299.961
300.082
300.189
300.308
300.428
300.549
300.724
298.578
298.884
299.066
299.228
299.394
299.561
299.72
299.853
299.977
300.076
300.185
300.293
300.421
300.561
298.616
298.818
298.956
299.117
299.293
299.451
299.606
299.731
299.856
299.951
300.051
300.134
300.248
300.298
298.544
298.748
298.893
299.067
299.23
299.364
299.498
299.609
299.724
299.816
299.903
299.963
300.002
299.936
298.453
298.652
298.835
299.033
299.173
299.281
299.382
299.477
299.583
299.667
299.731
299.751
299.703
299.454
298.265
298.522
298.783
299
299.142
299.236
299.31
299.373
299.445
299.504
299.542
299.509
299.361
298.896
297.895
298.142
298.455
298.765
299.002
299.16
299.25
299.302
299.334
299.345
299.333
299.233
298.985
298.291
297.221
297.34
297.768
298.252
298.631
298.949
299.143
299.221
299.229
299.205
299.159
298.995
298.691
297.939
295.95
295.886
296.195
296.847
297.56
298.213
298.736
299.058
299.153
299.105
298.999
298.839
298.577
297.882
299.499
300.292
300.523
300.707
300.758
300.823
300.862
300.894
300.878
300.857
300.841
300.852
300.865
300.807
299.383
300.301
300.425
300.574
300.618
300.697
300.761
300.826
300.872
300.9
300.964
301.071
301.206
301.264
299.268
300.096
300.232
300.372
300.459
300.561
300.654
300.755
300.844
300.926
301.012
301.099
301.221
301.313
299.219
299.815
300.011
300.161
300.291
300.426
300.55
300.673
300.788
300.903
301.015
301.124
301.244
301.366
299.18
299.589
299.795
299.967
300.132
300.3
300.452
300.594
300.719
300.835
300.957
301.082
301.193
301.318
299.165
299.43
299.624
299.812
299.999
300.185
300.356
300.507
300.64
300.752
300.869
300.985
301.096
301.237
299.141
299.325
299.507
299.701
299.898
300.087
300.264
300.413
300.548
300.653
300.76
300.857
300.972
301.106
299.091
299.263
299.433
299.617
299.81
299.986
300.157
300.301
300.436
300.541
300.641
300.722
300.834
300.947
299.025
299.226
299.387
299.572
299.743
299.895
300.047
300.18
300.309
300.416
300.511
300.583
300.669
300.714
298.959
299.16
299.356
299.537
299.67
299.792
299.92
300.041
300.168
300.277
300.364
300.419
300.456
300.426
298.854
299.12
299.352
299.523
299.63
299.722
299.814
299.913
300.022
300.119
300.189
300.223
300.219
300.069
298.645
298.937
299.209
299.426
299.556
299.648
299.724
299.801
299.884
299.953
299.983
299.988
299.943
299.618
298.179
298.569
298.917
299.191
299.4
299.546
299.648
299.713
299.753
299.778
299.784
299.754
299.671
299.241
297.254
297.463
297.794
298.344
298.854
299.246
299.512
299.643
299.676
299.647
299.608
299.534
299.422
299.059
300.289
300.888
301.021
301.192
301.263
301.343
301.41
301.469
301.485
301.491
301.498
301.562
301.638
301.684
300.177
300.765
300.866
301.024
301.121
301.23
301.32
301.402
301.46
301.501
301.558
301.653
301.793
301.901
300.032
300.487
300.651
300.825
300.97
301.113
301.234
301.344
301.438
301.523
301.61
301.698
301.824
301.93
299.904
300.236
300.444
300.642
300.825
300.999
301.148
301.282
301.397
301.508
301.618
301.73
301.854
301.983
299.801
300.055
300.274
300.492
300.699
300.896
301.067
301.217
301.348
301.462
301.578
301.699
301.815
301.94
299.744
299.943
300.158
300.384
300.6
300.805
300.987
301.145
301.284
301.397
301.508
301.616
301.72
301.837
299.7
299.87
300.086
300.307
300.523
300.724
300.907
301.064
301.205
301.315
301.415
301.499
301.589
301.702
299.646
299.836
300.033
300.245
300.447
300.634
300.811
300.963
301.104
301.211
301.302
301.366
301.449
301.553
299.65
299.819
300.016
300.2
300.378
300.543
300.704
300.849
300.983
301.089
301.172
301.228
301.304
301.399
299.62
299.801
299.992
300.149
300.29
300.425
300.57
300.708
300.84
300.949
301.029
301.085
301.147
301.19
299.589
299.807
299.995
300.115
300.213
300.317
300.431
300.557
300.683
300.794
300.871
300.931
300.967
300.976
299.503
299.746
299.937
300.052
300.124
300.202
300.287
300.405
300.524
300.634
300.703
300.753
300.782
300.707
299.333
299.66
299.839
299.942
300.016
300.099
300.178
300.273
300.369
300.463
300.532
300.577
300.598
300.44
298.73
298.934
299.219
299.535
299.769
299.963
300.093
300.192
300.269
300.329
300.374
300.391
300.411
300.236
300.896
301.323
301.472
301.663
301.763
301.861
301.94
302.003
302.029
302.047
302.05
302.106
302.202
302.308
300.751
301.13
301.296
301.491
301.634
301.768
301.873
301.955
302.018
302.059
302.1
302.171
302.302
302.433
300.603
300.893
301.096
301.315
301.502
301.672
301.806
301.916
302.007
302.081
302.158
302.234
302.35
302.463
300.467
300.709
300.933
301.172
301.386
301.58
301.738
301.87
301.979
302.074
302.171
302.274
302.395
302.526
300.374
300.59
300.821
301.067
301.292
301.497
301.671
301.818
301.941
302.044
302.148
302.258
302.375
302.501
300.33
300.527
300.756
300.997
301.22
301.424
301.603
301.755
301.888
301.994
302.097
302.198
302.301
302.41
300.289
300.489
300.717
300.945
301.158
301.353
301.531
301.683
301.818
301.923
302.018
302.101
302.183
302.277
300.271
300.477
300.675
300.891
301.088
301.27
301.441
301.589
301.723
301.827
301.914
301.978
302.045
302.129
300.292
300.467
300.661
300.84
301.012
301.176
301.337
301.48
301.609
301.71
301.787
301.836
301.896
301.992
300.282
300.464
300.625
300.767
300.906
301.05
301.201
301.342
301.471
301.573
301.646
301.692
301.758
301.838
300.284
300.473
300.6
300.7
300.796
300.914
301.048
301.188
301.318
301.426
301.499
301.555
301.615
301.675
300.238
300.445
300.552
300.614
300.671
300.763
300.877
301.02
301.159
301.282
301.366
301.424
301.468
301.503
300.199
300.415
300.476
300.513
300.561
300.637
300.735
300.864
301
301.132
301.234
301.308
301.344
301.341
299.783
299.995
300.168
300.314
300.424
300.527
300.631
300.753
300.884
301.013
301.112
301.171
301.207
301.159
301.492
301.829
301.988
302.184
302.308
302.424
302.507
302.576
302.613
302.636
302.643
302.683
302.76
302.865
301.351
301.637
301.827
302.038
302.204
302.353
302.462
302.551
302.612
302.658
302.693
302.742
302.848
302.969
301.207
301.45
301.668
301.905
302.104
302.281
302.415
302.525
302.609
302.678
302.743
302.803
302.896
302.996
301.104
301.329
301.559
301.805
302.021
302.213
302.364
302.489
302.59
302.672
302.754
302.839
302.943
303.059
301.044
301.259
301.491
301.736
301.954
302.149
302.31
302.444
302.557
302.647
302.736
302.829
302.934
303.05
301.01
301.222
301.455
301.688
301.898
302.086
302.25
302.386
302.506
302.603
302.695
302.786
302.882
302.985
300.99
301.201
301.425
301.643
301.84
302.019
302.18
302.317
302.44
302.539
302.629
302.709
302.789
302.877
301.004
301.189
301.392
301.588
301.769
301.936
302.091
302.226
302.35
302.449
302.535
302.604
302.671
302.746
301.014
301.185
301.361
301.525
301.683
301.837
301.987
302.121
302.242
302.339
302.419
302.476
302.537
302.609
301.019
301.174
301.307
301.435
301.566
301.708
301.854
301.991
302.114
302.214
302.29
302.342
302.408
302.491
301.017
301.162
301.252
301.341
301.438
301.565
301.705
301.846
301.974
302.082
302.162
302.219
302.292
302.374
300.985
301.124
301.181
301.231
301.293
301.405
301.539
301.689
301.832
301.959
302.05
302.12
302.183
302.254
300.955
301.063
301.093
301.122
301.173
301.268
301.39
301.539
301.691
301.838
301.951
302.043
302.106
302.149
300.653
300.793
300.902
300.989
301.063
301.156
301.274
301.422
301.584
301.74
301.861
301.946
301.998
302.007
303.187
305.258
307.576
309.527
311.212
311.611
301.707
303.627
305.713
307.342
308.526
308.717
301.699
303.188
304.449
304.954
304.969
304.3
301.071
301.675
301.614
300.943
300.228
299.507
300.136
299.453
298.097
296.649
295.529
294.639
298.585
296.534
294.083
292.377
291.44
291.097
296.763
293.712
290.923
289.491
289.226
289.166
295.222
291.786
289.208
288.201
288.504
288.638
294.412
290.877
288.875
288.787
290.475
291.482
294.277
291.167
290.126
290.975
294.128
296.316
295.271
293.033
292.935
294.629
299.008
302.421
297.265
296.001
296.967
299.53
303.983
307.691
299.896
299.647
301.447
304.134
307.863
310.591
301.52
302.465
304.951
307.379
310.104
311.732
301.116
302.639
304.658
306.547
308.306
309.668
300.319
301.726
303.665
305.496
307.058
307.808
300.564
301.83
303.264
304.104
304.366
303.875
300.401
300.983
301.245
300.699
299.849
298.82
299.871
299.395
298.232
296.379
294.646
293.345
298.533
296.712
293.986
291.34
289.675
288.872
296.872
293.673
290.031
287.457
286.363
286.18
295.172
291.202
287.636
285.505
285.053
285.368
294.091
290.032
286.934
285.461
286.162
287.658
293.639
289.894
287.608
287.01
288.932
291.856
293.967
291.087
289.921
290.04
293.055
297.022
295.369
293.503
293.504
294.598
298.201
302.476
297.506
296.721
297.621
299.59
303.037
306.524
298.775
299.154
300.931
303.499
306.424
308.843
299.336
300.234
301.557
303.147
304.992
306.788
299.493
300.249
301.615
303.384
305.26
306.822
300.08
300.766
302.024
303.34
304.425
305.057
300.239
300.686
301.334
301.623
301.656
301.266
300.067
300.044
299.629
298.508
297.118
295.7
299.368
298.391
296.61
294.071
291.679
290.019
298.402
296.302
293.094
289.537
286.903
285.791
297.205
294.134
290.067
286.359
284.247
283.76
296.227
292.656
288.535
285.23
283.878
284.422
295.679
292.02
288.241
285.531
285.33
286.719
295.66
292.289
289.345
287.515
288.091
290.314
296.138
293.553
291.793
290.946
292.306
295.043
297.229
295.682
295.215
295.3
297.133
299.856
297.748
297.28
297.971
299.181
301.475
303.962
298.313
298.271
298.942
299.575
300.745
302.374
299.144
299.274
299.991
301.05
302.496
303.97
299.883
300.236
301.092
302.083
303.396
304.412
300.178
300.501
301.204
301.902
302.636
302.854
300.205
300.426
300.742
300.737
300.3
299.209
299.949
299.814
299.292
298.092
296.194
293.831
299.608
298.841
297.168
294.406
291.008
288.213
299.019
297.391
294.483
290.345
286.431
284.036
298.339
295.979
292.235
287.629
284.13
282.643
297.746
294.937
290.954
286.565
283.661
283.112
297.436
294.524
290.81
287.009
284.979
285.042
297.367
294.702
291.738
289.008
288.035
288.642
297.628
295.673
293.828