/*--------------------------------*- C++ -*----------------------------------*\
| =========                 |                                                 |
| \\      /  F ield         | OpenFOAM: The Open Source CFD Toolbox           |
|  \\    /   O peration     | Version:  v2106                                 |
|   \\  /    A nd           | Website:  www.openfoam.com                      |
|    \\/     M anipulation  |                                                 |
\*---------------------------------------------------------------------------*/
FoamFile
{
    version     2.0;
    format      ascii;
    arch        "LSB;label=32;scalar=64";
    class       volScalarField;
    location    "0.000159";
    object      rho;
}
// * * * * * * * * * * * * * * * * * * * * * * * * * * * * * * * * * * * * * //

dimensions      [1 -3 0 0 0 0 0];

internalField   nonuniform List<scalar> 
144746
(
2.36277
2.36513
2.36331
2.36426
2.36513
2.3677
2.36921
2.37081
2.37002
2.36757
2.36436
2.36172
2.35887
2.35786
2.36094
2.36147
2.36053
2.36208
2.36299
2.3651
2.3664
2.36792
2.36782
2.36649
2.36409
2.36199
2.35921
2.3594
2.36185
2.363
2.36126
2.36139
2.36175
2.3634
2.3645
2.36589
2.36563
2.36473
2.36282
2.36072
2.3585
2.35872
2.36138
2.36203
2.36054
2.36043
2.36066
2.36203
2.36302
2.36445
2.36439
2.36365
2.36242
2.36081
2.35934
2.35923
2.36238
2.36152
2.35914
2.35878
2.3593
2.36058
2.36157
2.36261
2.36269
2.36211
2.3615
2.36017
2.3593
2.35906
2.36244
2.36025
2.35732
2.35672
2.35733
2.35846
2.35943
2.36018
2.36034
2.35976
2.35947
2.35864
2.35885
2.3597
2.36246
2.35856
2.35494
2.35357
2.3542
2.35532
2.35635
2.35702
2.35721
2.35662
2.35655
2.35607
2.35706
2.35866
2.36178
2.35609
2.35164
2.34991
2.35049
2.3515
2.35249
2.35304
2.35322
2.35264
2.35268
2.3524
2.35389
2.35552
2.3613
2.35341
2.34824
2.3462
2.34654
2.34737
2.34832
2.34871
2.34885
2.34814
2.34832
2.34784
2.34929
2.35093
2.35906
2.34973
2.34445
2.34247
2.34301
2.34396
2.34489
2.34507
2.3451
2.34402
2.34399
2.34322
2.34434
2.34578
2.35896
2.34751
2.34221
2.33992
2.34052
2.3416
2.34284
2.34303
2.34268
2.34123
2.34128
2.34028
2.34147
2.3427
2.35679
2.34513
2.34014
2.33779
2.33878
2.34031
2.34238
2.34302
2.34317
2.34141
2.34154
2.33991
2.34141
2.34154
2.35822
2.34651
2.33986
2.33657
2.33789
2.33957
2.34268
2.34499
2.34628
2.34518
2.3455
2.34345
2.34506
2.34402
2.35707
2.34578
2.33995
2.33708
2.33771
2.33912
2.3429
2.34658
2.35009
2.3511
2.3524
2.35094
2.35128
2.35007
2.38226
2.3823
2.37695
2.37582
2.37424
2.37469
2.37467
2.37463
2.37435
2.37455
2.37426
2.37363
2.3722
2.37014
2.38312
2.38117
2.37668
2.3761
2.37466
2.37452
2.37455
2.37463
2.37486
2.3753
2.37529
2.37533
2.37251
2.37081
2.38455
2.38303
2.37765
2.37602
2.37465
2.37488
2.37472
2.3745
2.37424
2.37388
2.37353
2.3723
2.36909
2.36692
2.38379
2.38115
2.3765
2.3747
2.37406
2.3746
2.37494
2.37492
2.37499
2.37403
2.37344
2.37159
2.36889
2.36614
2.38312
2.37876
2.37355
2.37227
2.37246
2.37324
2.37388
2.37418
2.37397
2.37312
2.37215
2.36963
2.36734
2.36405
2.38112
2.3753
2.37034
2.36945
2.37017
2.37118
2.37192
2.37227
2.37219
2.3713
2.37039
2.36784
2.3659
2.36294
2.37943
2.37243
2.36732
2.36631
2.3672
2.36828
2.36922
2.36963
2.36962
2.36861
2.36746
2.36519
2.36359
2.36056
2.37802
2.3699
2.36474
2.3634
2.36412
2.36504
2.36582
2.3661
2.36596
2.36495
2.36418
2.36205
2.36094
2.35784
2.37741
2.36801
2.36317
2.36141
2.36167
2.36203
2.36239
2.36226
2.36175
2.36056
2.35992
2.35804
2.35747
2.3546
2.37614
2.36663
2.36244
2.36102
2.36056
2.36024
2.35996
2.35917
2.35839
2.35701
2.35622
2.35467
2.35509
2.35313
2.37693
2.36698
2.36308
2.36152
2.36109
2.36044
2.35954
2.35805
2.35649
2.35468
2.35391
2.35245
2.35335
2.35261
2.37486
2.36628
2.36337
2.36255
2.36288
2.36249
2.36173
2.36006
2.35826
2.35561
2.35475
2.35268
2.35414
2.35334
2.37714
2.36952
2.36523
2.36393
2.36517
2.36506
2.36522
2.36484
2.36364
2.3608
2.35958
2.3564
2.35809
2.35606
2.37669
2.36806
2.3644
2.36367
2.36485
2.36538
2.36679
2.36819
2.36951
2.36885
2.36834
2.36452
2.36396
2.36189
2.3979
2.40256
2.39452
2.3912
2.386
2.38258
2.37945
2.37728
2.37535
2.37512
2.37624
2.37745
2.37845
2.37836
2.39869
2.40165
2.39645
2.39342
2.38861
2.38543
2.38286
2.38146
2.38084
2.38185
2.38444
2.38573
2.38573
2.38567
2.39846
2.40046
2.39548
2.39291
2.38948
2.38784
2.38615
2.38481
2.38536
2.38392
2.38451
2.38454
2.38375
2.38072
2.39557
2.39573
2.39244
2.39099
2.3895
2.3893
2.38885
2.38776
2.38737
2.38703
2.38661
2.38527
2.38299
2.37855
2.39212
2.39029
2.38773
2.38734
2.38762
2.38839
2.38874
2.38836
2.38821
2.3872
2.38586
2.38305
2.37946
2.37479
2.38879
2.38469
2.38257
2.3833
2.38452
2.38589
2.38685
2.38719
2.387
2.38574
2.38365
2.37986
2.37548
2.37034
2.38658
2.38055
2.37843
2.37899
2.38089
2.38269
2.38423
2.38463
2.38414
2.3825
2.38022
2.37562
2.3706
2.3653
2.38494
2.37757
2.37547
2.37633
2.37769
2.3787
2.38029
2.38053
2.37999
2.3784
2.37518
2.37088
2.36583
2.35956
2.384
2.37588
2.37333
2.37351
2.37471
2.37547
2.37635
2.37644
2.37595
2.37437
2.37133
2.36695
2.36156
2.35407
2.38338
2.37519
2.37226
2.3719
2.37215
2.37217
2.37213
2.37186
2.37131
2.36989
2.36704
2.36287
2.35907
2.35113
2.38453
2.37579
2.37264
2.37131
2.37064
2.36996
2.36935
2.36857
2.36779
2.36673
2.36452
2.36066
2.35848
2.35007
2.3828
2.37487
2.37252
2.37168
2.37074
2.36949
2.3686
2.36753
2.36639
2.36479
2.36318
2.35922
2.35927
2.35096
2.38647
2.37883
2.37554
2.37411
2.37264
2.37063
2.36987
2.36963
2.36882
2.36707
2.36557
2.3606
2.36165
2.35442
2.38453
2.3748
2.373
2.37278
2.37298
2.37191
2.37201
2.37345
2.37475
2.37453
2.374
2.36812
2.36792
2.36274
2.3605
2.36229
2.36027
2.36118
2.35946
2.36346
2.35449
2.35602
2.35579
2.35706
2.35678
2.36048
2.35731
2.35854
2.35914
2.36041
2.36084
2.36494
2.35937
2.36048
2.36307
2.36506
2.36703
2.37187
2.36191
2.36515
2.3699
2.37236
2.37398
2.37806
2.3639
2.36699
2.37123
2.37457
2.37617
2.38162
2.36321
2.36689
2.37137
2.37607
2.37821
2.38405
2.35907
2.36312
2.36777
2.37359
2.3775
2.38433
2.35365
2.35749
2.36243
2.36967
2.3746
2.38245
2.34884
2.35215
2.35716
2.36407
2.37017
2.37861
2.34695
2.34934
2.35436
2.36017
2.36683
2.37393
2.34722
2.34978
2.35431
2.35899
2.36442
2.36999
2.35012
2.35263
2.35673
2.36088
2.36365
2.36911
2.35346
2.35751
2.36222
2.36571
2.36837
2.37337
2.37358
2.375
2.37147
2.3706
2.36984
2.37479
2.36279
2.36332
2.36126
2.36126
2.36235
2.3666
2.36391
2.36377
2.36292
2.36142
2.36397
2.36513
2.36341
2.36118
2.36198
2.36198
2.36562
2.36672
2.36194
2.36097
2.36349
2.36566
2.3699
2.37466
2.36045
2.35945
2.36248
2.36787
2.37142
2.38373
2.35759
2.35809
2.36218
2.37077
2.37402
2.39247
2.35556
2.35672
2.36004
2.3698
2.3756
2.39223
2.35348
2.35521
2.35811
2.3676
2.37206
2.38938
2.35369
2.35481
2.35643
2.36408
2.36931
2.38648
2.35609
2.35692
2.36032
2.36609
2.37304
2.38463
2.35852
2.36048
2.3651
2.36955
2.37525
2.38419
2.36315
2.36536
2.3706
2.37395
2.37591
2.38293
2.3634
2.36731
2.37369
2.37845
2.38173
2.38771
2.38536
2.38254
2.37342
2.36168
2.35279
2.34776
2.37451
2.36939
2.36222
2.35159
2.34418
2.33206
2.37637
2.37212
2.36666
2.35609
2.34905
2.32505
2.37413
2.37043
2.3687
2.36104
2.35848
2.33026
2.37234
2.37025
2.37032
2.36426
2.36645
2.34026
2.36714
2.36407
2.36312
2.3598
2.36756
2.35106
2.36125
2.35637
2.35369
2.35564
2.36347
2.36616
2.35452
2.34724
2.34514
2.35394
2.36089
2.38005
2.35019
2.34328
2.34279
2.35413
2.35895
2.38865
2.34847
2.34349
2.34431
2.35096
2.35327
2.38493
2.34907
2.34757
2.35004
2.35526
2.35667
2.3792
2.35247
2.35178
2.35657
2.35908
2.36026
2.37536
2.36029
2.35992
2.36449
2.36483
2.36272
2.37144
2.35866
2.36132
2.3662
2.3691
2.37029
2.37485
2.36028
2.36837
2.37088
2.37448
2.37276
2.37719
2.35543
2.36406
2.37062
2.37855
2.38047
2.38351
2.35976
2.3702
2.37595
2.38289
2.38389
2.39123
2.35871
2.36934
2.37438
2.38232
2.38425
2.39163
2.35791
2.3682
2.37343
2.38212
2.38445
2.39438
2.35479
2.36412
2.36983
2.37999
2.38345
2.39531
2.3498
2.35897
2.36568
2.37775
2.38405
2.39592
2.34489
2.35272
2.36099
2.37416
2.38212
2.39477
2.34191
2.34837
2.35669
2.36971
2.37795
2.38987
2.34022
2.34627
2.35522
2.36763
2.37577
2.38563
2.34161
2.34835
2.35712
2.36709
2.37391
2.38174
2.34721
2.35472
2.36287
2.3709
2.37655
2.38297
2.35484
2.36244
2.36927
2.37511
2.37789
2.38238
2.36284
2.37202
2.37801
2.38398
2.38624
2.39117
2.37214
2.38115
2.3849
2.39139
2.38905
2.39386
2.3669
2.37474
2.38148
2.39047
2.39572
2.40295
2.37342
2.38173
2.3878
2.39629
2.39771
2.40864
2.37327
2.38004
2.38451
2.39415
2.39529
2.41203
2.37326
2.37897
2.38364
2.39128
2.38998
2.41365
2.37184
2.37497
2.37711
2.38097
2.37608
2.4164
2.36921
2.37152
2.3723
2.37639
2.37315
2.4151
2.36636
2.36872
2.36937
2.37642
2.37596
2.40427
2.36491
2.36806
2.36862
2.37615
2.3751
2.40089
2.36426
2.36728
2.37021
2.37876
2.37891
2.40226
2.36548
2.36961
2.37505
2.38344
2.38412
2.4032
2.36922
2.37528
2.38262
2.39036
2.39276
2.40528
2.37642
2.38326
2.39056
2.39752
2.40088
2.40866
2.37928
2.38863
2.39784
2.40885
2.41429
2.42087
2.38039
2.3876
2.3883
2.38935
2.38852
2.39055
2.36968
2.37983
2.38689
2.39133
2.3953
2.39878
2.37956
2.3919
2.40031
2.40571
2.40908
2.41122
2.381
2.392
2.39676
2.40375
2.40934
2.41984
2.38087
2.3883
2.39154
2.40244
2.40721
2.42935
2.37774
2.38103
2.383
2.39622
2.40074
2.43295
2.3735
2.3752
2.37768
2.38961
2.38903
2.42895
2.3709
2.37038
2.3735
2.38455
2.38135
2.42363
2.37085
2.37128
2.37614
2.3849
2.3773
2.41968
2.37244
2.37477
2.38005
2.38687
2.38004
2.4182
2.37454
2.37916
2.38485
2.39009
2.38621
2.42083
2.37652
2.38236
2.39005
2.39687
2.39462
2.42188
2.38236
2.38838
2.39774
2.4079
2.40882
2.42586
2.3809
2.39109
2.40264
2.41844
2.42678
2.43857
2.38112
2.37506
2.37113
2.36671
2.36415
2.36136
2.38084
2.37392
2.37204
2.36911
2.36649
2.36472
2.38395
2.37715
2.37525
2.37091
2.36751
2.3633
2.39137
2.38246
2.37978
2.3733
2.36877
2.36355
2.39908
2.38799
2.38458
2.37521
2.36908
2.36412
2.40641
2.39266
2.38871
2.37799
2.37044
2.36481
2.41018
2.3971
2.39309
2.38119
2.37298
2.36595
2.40943
2.39831
2.39686
2.38526
2.37675
2.3674
2.40778
2.39797
2.39826
2.38764
2.37934
2.36876
2.40634
2.39839
2.39887
2.38923
2.38048
2.36809
2.40354
2.39797
2.3973
2.38861
2.38043
2.36771
2.40448
2.39829
2.39845
2.39026
2.3818
2.36683
2.39633
2.39417
2.39248
2.38416
2.37583
2.36288
2.39294
2.38878
2.39284
2.3876
2.38274
2.3701
2.39884
2.39047
2.38634
2.38326
2.38143
2.37998
2.40396
2.39311
2.39383
2.39155
2.38968
2.38786
2.41066
2.39423
2.39686
2.39288
2.39104
2.38694
2.41649
2.39463
2.39832
2.39339
2.39183
2.38736
2.42182
2.39346
2.39851
2.39181
2.39008
2.38654
2.43273
2.3884
2.39579
2.39025
2.38906
2.3855
2.4299
2.3927
2.39864
2.39087
2.38826
2.38485
2.42637
2.39671
2.40293
2.39486
2.39083
2.38538
2.42569
2.4011
2.40623
2.39813
2.39363
2.38624
2.42889
2.40653
2.41139
2.40251
2.39656
2.38594
2.43116
2.41123
2.41458
2.40484
2.39818
2.38559
2.43231
2.41947
2.42047
2.40895
2.40093
2.38472
2.428
2.4204
2.41638
2.40461
2.39508
2.37985
2.42382
2.42003
2.42087
2.41139
2.40578
2.39051
2.39452
2.38628
2.38748
2.38818
2.3881
2.39108
2.41395
2.39438
2.40181
2.40214
2.40152
2.40288
2.42711
2.39883
2.40453
2.40445
2.40158
2.39969
2.43325
2.40055
2.41006
2.40717
2.40261
2.39905
2.43753
2.3982
2.40985
2.40388
2.40033
2.3971
2.4426
2.40118
2.41062
2.40156
2.39879
2.39518
2.4509
2.40879
2.41358
2.401
2.39874
2.39407
2.46199
2.42052
2.42213
2.40711
2.40274
2.39407
2.47129
2.43446
2.4309
2.41419
2.40736
2.3949
2.47638
2.44638
2.4378
2.42125
2.41229
2.39566
2.47122
2.44656
2.44141
2.42643
2.41597
2.39564
2.46756
2.45502
2.44644
2.43034
2.41674
2.39471
2.46332
2.44775
2.43756
2.42158
2.40649
2.38842
2.4573
2.44871
2.44269
2.42933
2.42114
2.40533
2.36998
2.36522
2.36338
2.36107
2.35922
2.358
2.37613
2.36957
2.3663
2.36433
2.36265
2.36264
2.38225
2.37605
2.37192
2.36849
2.36553
2.36397
2.38959
2.3816
2.37739
2.37212
2.36867
2.36658
2.39486
2.38581
2.38239
2.37576
2.37246
2.36993
2.39661
2.38914
2.38696
2.38002
2.37707
2.37344
2.39722
2.38959
2.38865
2.38303
2.37974
2.37519
2.39497
2.38865
2.38864
2.38361
2.37992
2.37443
2.391
2.38556
2.38583
2.38178
2.37769
2.37199
2.38829
2.38374
2.38279
2.37842
2.37354
2.36826
2.38253
2.37709
2.37585
2.372
2.36828
2.36449
2.37842
2.3733
2.37243
2.36822
2.36587
2.36207
2.37579
2.36873
2.36747
2.36383
2.36211
2.35872
2.37435
2.37158
2.3732
2.37105
2.37169
2.36733
2.38742
2.37981
2.37566
2.37266
2.36994
2.3697
2.39537
2.38534
2.38125
2.37873
2.37636
2.37684
2.40014
2.3888
2.38427
2.38007
2.37703
2.37573
2.40584
2.39003
2.38667
2.38035
2.37813
2.37725
2.40885
2.3885
2.3864
2.37862
2.37717
2.37607
2.40824
2.38931
2.38883
2.37912
2.3772
2.37549
2.41083
2.38737
2.38548
2.37802
2.3766
2.375
2.40741
2.38538
2.38604
2.37862
2.37588
2.37478
2.39899
2.38532
2.38396
2.37792
2.37531
2.37491
2.39477
2.38727
2.38313
2.3779
2.3744
2.37489
2.38797
2.3842
2.37866
2.37523
2.37423
2.37424
2.38543
2.38246
2.37823
2.37618
2.37568
2.37412
2.38358
2.37718
2.37528
2.37394
2.3746
2.37296
2.38875
2.385
2.38639
2.38652
2.38939
2.38692
2.36721
2.36008
2.36069
2.36323
2.36475
2.37169
2.38077
2.36832
2.37097
2.37408
2.37503
2.38092
2.39237
2.37292
2.37309
2.37293
2.37217
2.37641
2.40517
2.37677
2.37619
2.37243
2.37294
2.37728
2.41048
2.37821
2.37829
2.37019
2.37072
2.37541
2.41499
2.38442
2.38143
2.37094
2.37053
2.37416
2.40729
2.3857
2.37928
2.37225
2.37343
2.37578
2.39436
2.38523
2.38026
2.37846
2.37864
2.3786
2.38089
2.3913
2.3841
2.3861
2.38313
2.38194
2.37758
2.39294
2.38685
2.39015
2.38618
2.38521
2.3692
2.38583
2.38265
2.38635
2.38577
2.38774
2.36387
2.37831
2.38009
2.38661
2.38893
2.39085
2.36625
2.37217
2.3761
2.3834
2.38813
2.39122
2.38075
2.38196
2.38918
2.39832
2.40661
2.40705
2.43355
2.43628
2.42603
2.4205
2.41459
2.40912
2.40493
2.40207
2.40008
2.39906
2.40142
2.40578
2.4101
2.41753
2.4258
2.42831
2.422
2.41748
2.41378
2.40963
2.40613
2.40393
2.40366
2.40488
2.40854
2.4147
2.41903
2.4256
2.42009
2.42127
2.41534
2.41298
2.41192
2.41023
2.4084
2.40702
2.40722
2.4079
2.40956
2.41293
2.41637
2.41861
2.41191
2.41165
2.40809
2.40787
2.40874
2.40944
2.40951
2.409
2.40968
2.41038
2.41191
2.41352
2.41477
2.41459
2.40582
2.40235
2.40046
2.40216
2.40444
2.40673
2.40793
2.409
2.4103
2.41131
2.41197
2.41187
2.41092
2.40974
2.40063
2.39541
2.39439
2.39721
2.40042
2.40326
2.40579
2.40735
2.40856
2.40923
2.40913
2.40781
2.40523
2.40351
2.39637
2.39055
2.3897
2.39262
2.39648
2.3998
2.40251
2.40429
2.40543
2.40548
2.40511
2.40242
2.39902
2.39711
2.39435
2.38804
2.38714
2.38937
2.39253
2.3956
2.39845
2.40008
2.40141
2.40127
2.39929
2.39642
2.39333
2.39019
2.39369
2.38703
2.38592
2.38751
2.38952
2.39178
2.39412
2.39555
2.39703
2.39702
2.39568
2.39276
2.38853
2.38288
2.39424
2.38741
2.38575
2.38647
2.38719
2.38823
2.38971
2.39082
2.39255
2.39288
2.39196
2.38897
2.38521
2.37789
2.39699
2.38979
2.38793
2.38734
2.38683
2.38637
2.3862
2.38761
2.38882
2.38947
2.38888
2.38714
2.38471
2.37568
2.39893
2.3933
2.39147
2.39012
2.3876
2.38621
2.38504
2.38535
2.38612
2.38696
2.38693
2.3859
2.38719
2.37679
2.40919
2.4013
2.39762
2.39393
2.39019
2.38776
2.38679
2.38656
2.38692
2.38771
2.38814
2.38729
2.39042
2.38077
2.4064
2.39654
2.39514
2.39352
2.39179
2.39003
2.3906
2.39228
2.39349
2.39461
2.39579
2.39345
2.39794
2.39068
2.45056
2.45334
2.44355
2.43846
2.43336
2.42773
2.42413
2.42131
2.42043
2.42039
2.42155
2.42685
2.43257
2.44268
2.43859
2.4404
2.43555
2.43233
2.42967
2.42578
2.42279
2.42082
2.42092
2.42219
2.42674
2.43273
2.43958
2.45034
2.42982
2.43018
2.4257
2.4254
2.42551
2.42476
2.4233
2.42203
2.42217
2.42344
2.42576
2.43085
2.4377
2.44434
2.41946
2.41942
2.41729
2.4189
2.42043
2.42224
2.42252
2.42279
2.42376
2.42507
2.42766
2.43131
2.43564
2.4398
2.41287
2.41059
2.40969
2.41312
2.41598
2.41862
2.42033
2.42187
2.42323
2.42461
2.42671
2.42898
2.4314
2.4341
2.40686
2.40396
2.40454
2.40807
2.41189
2.41511
2.41779
2.41968
2.42117
2.42235
2.42371
2.42461
2.42567
2.42758
2.40366
2.39971
2.40096
2.40435
2.40836
2.41177
2.41455
2.41663
2.4181
2.41895
2.41898
2.41956
2.41914
2.42171
2.40251
2.39807
2.39883
2.40127
2.40473
2.40773
2.41073
2.41297
2.41475
2.41544
2.41505
2.4137
2.41384
2.41638
2.40242
2.39784
2.39791
2.3992
2.40131
2.40382
2.4065
2.40881
2.41093
2.41182
2.41174
2.4109
2.41098
2.41133
2.40469
2.39942
2.39783
2.39786
2.39829
2.39954
2.40178
2.40438
2.40705
2.4086
2.40915
2.40877
2.40887
2.40639
2.40913
2.40248
2.39956
2.39775
2.39648
2.39656
2.39776
2.40032
2.40364
2.40609
2.40745
2.40807
2.40819
2.40371
2.41382
2.40808
2.40399
2.40019
2.39731
2.3953
2.39553
2.39744
2.40122
2.40432
2.40655
2.40804
2.411
2.40341
2.42545
2.41657
2.41161
2.40572
2.40113
2.3987
2.3978
2.39847
2.40119
2.4048
2.40794
2.41004
2.41409
2.40504
2.42263
2.41412
2.41195
2.40875
2.40554
2.40439
2.40493
2.40568
2.40746
2.41041
2.41334
2.41502
2.42106
2.41213
2.47032
2.47091
2.46516
2.46179
2.45808
2.45324
2.45027
2.44775
2.44712
2.44717
2.4487
2.45374
2.46086
2.47361
2.45358
2.45512
2.45421
2.45362
2.45259
2.45055
2.44893
2.44727
2.44763
2.44942
2.45278
2.45844
2.46626
2.47866
2.44148
2.44309
2.44279
2.44508
2.44639
2.44758
2.44763
2.44739
2.44815
2.44957
2.4523
2.45725
2.46605
2.47467
2.43071
2.43273
2.43351
2.43775
2.44082
2.44338
2.44533
2.44659
2.44823
2.45028
2.4533
2.45798
2.46463
2.47049
2.42234
2.42466
2.42691
2.43199
2.43623
2.43987
2.44238
2.44481
2.44694
2.44918
2.45191
2.45551
2.45975
2.46463
2.41717
2.41858
2.4221
2.42741
2.43221
2.43641
2.43949
2.44216
2.44452
2.44672
2.4489
2.45139
2.45419
2.45815
2.41443
2.41519
2.41899
2.42398
2.4287
2.43291
2.43617
2.43902
2.44146
2.44341
2.44498
2.44685
2.44849
2.45206
2.41342
2.41393
2.41702
2.42117
2.4253
2.4292
2.43257
2.4356
2.43813
2.44004
2.44131
2.44187
2.44308
2.44677
2.41437
2.41432
2.41645
2.41872
2.42196
2.4253
2.4287
2.43193
2.43471
2.43679
2.4381
2.43893
2.44028
2.44345
2.41798
2.4165
2.41651
2.4171
2.41847
2.42094
2.42419
2.42785
2.43126
2.43389
2.4356
2.43702
2.4386
2.44015
2.42329
2.41992
2.41763
2.41626
2.41575
2.41692
2.41972
2.42359
2.42781
2.43144
2.43401
2.4361
2.43797
2.43716
2.43091
2.42614
2.42083
2.41705
2.41428
2.41424
2.41601
2.41964
2.42517
2.42965
2.43323
2.43625
2.43939
2.43575
2.44422
2.43407
2.42748
2.42126
2.41702
2.41461
2.41501
2.41774
2.42285
2.42877
2.43357
2.43803
2.44226
2.43646
2.44479
2.4342
2.42962
2.42467
2.42222
2.41959
2.41892
2.42036
2.42417
2.43003
2.43578
2.44142
2.44886
2.44294
2.48078
2.48214
2.47961
2.47871
2.477
2.47411
2.47155
2.46857
2.46687
2.46719
2.46916
2.47265
2.48032
2.49298
2.46293
2.46763
2.46893
2.47098
2.47133
2.47114
2.47012
2.46904
2.46856
2.46956
2.47284
2.47823
2.48512
2.49566
2.45123
2.45628
2.45816
2.46261
2.46522
2.4674
2.46804
2.46855
2.46964
2.47148
2.47436
2.47867
2.48521
2.49365
2.4416
2.44675
2.45052
2.45598
2.45989
2.46312
2.46518
2.46701
2.469
2.47151
2.47493
2.47924
2.48501
2.49128
2.43473
2.43927
2.44463
2.45065
2.45537
2.45925
2.46206
2.46469
2.46718
2.47002
2.47339
2.47718
2.48166
2.48666
2.42994
2.43448
2.44049
2.44651
2.45137
2.45564
2.4589
2.46189
2.46471
2.46768
2.47072
2.47385
2.4773
2.48093
2.42755
2.43192
2.43776
2.44336
2.448
2.45219
2.45566
2.45887
2.46181
2.46456
2.46704
2.46975
2.47198
2.47449
2.42696
2.43113
2.4359
2.4407
2.44488
2.44884
2.4524
2.45578
2.4588
2.46144
2.4636
2.46511
2.46635
2.46776
2.42889
2.43216
2.43551
2.43824
2.44177
2.44545
2.44903
2.45261
2.4558
2.45839
2.46038
2.4614
2.46192
2.46279
2.43273
2.43415
2.43484
2.43624
2.43845
2.44158
2.44526
2.44924
2.45283
2.45579
2.45781
2.45882
2.45971
2.45961
2.43772
2.43665
2.43512
2.43455
2.43514
2.43751
2.44114
2.4456
2.44987
2.45353
2.45597
2.4575
2.45923
2.4579
2.44479
2.4407
2.43612
2.43307
2.43229
2.43362
2.43682
2.44166
2.44684
2.45154
2.455
2.45696
2.45977
2.45757
2.45476
2.44641
2.44083
2.43539
2.43203
2.43127
2.43318
2.43782
2.44402
2.4501
2.45503
2.4586
2.46118
2.45835
2.45917
2.44754
2.4417
2.43679
2.43363
2.43162
2.43232
2.43556
2.44126
2.44861
2.45473
2.46063
2.46574
2.46351
2.48982
2.49298
2.49418
2.49585
2.4965
2.49597
2.49462
2.49296
2.49165
2.49174
2.49322
2.4963
2.50166
2.51154
2.47444
2.48099
2.48459
2.48901
2.49128
2.49293
2.49314
2.49305
2.49326
2.49414
2.49627
2.50026
2.50641
2.51393
2.46394
2.47175
2.47625
2.48214
2.48605
2.48909
2.49101
2.49216
2.49369
2.49564
2.49839
2.50204
2.50744
2.51362
2.45643
2.4638
2.47011
2.47656
2.48136
2.48519
2.48788
2.49043
2.49272
2.4953
2.4985
2.50247
2.50734
2.51274
2.45146
2.45805
2.46536
2.47199
2.47719
2.48154
2.48489
2.48795
2.49086
2.4939
2.49723
2.50096
2.50512
2.50965
2.44819
2.45485
2.46209
2.46843
2.47353
2.47804
2.48174
2.48515
2.48838
2.49162
2.49497
2.49831
2.5018
2.50524
2.44682
2.45322
2.45985
2.46563
2.4704
2.47479
2.47861
2.48222
2.48561
2.48886
2.49193
2.49469
2.49712
2.4992
2.44751
2.45308
2.45822
2.46318
2.46745
2.47168
2.47557
2.4793
2.48275
2.48586
2.48854
2.49046
2.49202
2.49291
2.44971
2.45385
2.45717
2.46075
2.4646
2.4686
2.47252
2.47637
2.47987
2.48285
2.48516
2.48663
2.48722
2.4873
2.45335
2.45492
2.45642
2.45852
2.46145
2.46515
2.46919
2.47331
2.47699
2.47999
2.48219
2.48348
2.48377
2.48327
2.45736
2.45658
2.45581
2.45612
2.458
2.46133
2.46554
2.47006
2.47419
2.4775
2.48005
2.48154
2.48236
2.48169
2.46208
2.45824
2.45477
2.45342
2.45423
2.45696
2.46124
2.46636
2.47125
2.47551
2.47878
2.48065
2.48252
2.48103
2.46792
2.46083
2.45637
2.45294
2.45139
2.45277
2.45656
2.46208
2.46815
2.47357
2.47806
2.48079
2.48305
2.48132
2.4708
2.46056
2.45556
2.4518
2.44946
2.44974
2.45251
2.45811
2.46486
2.47198
2.47773
2.4821
2.48532
2.48443
2.49774
2.50444
2.50813
2.51176
2.51363
2.51482
2.51462
2.51445
2.51441
2.51453
2.5155
2.51735
2.52058
2.52631
2.48595
2.49538
2.50043
2.50611
2.50946
2.51214
2.51352
2.5146
2.51574
2.51705
2.51889
2.52141
2.52572
2.53113
2.47813
2.48751
2.49412
2.50069
2.50521
2.50889
2.51152
2.51377
2.51585
2.5181
2.52064
2.52348
2.52729
2.53144
2.47359
2.48193
2.48948
2.49619
2.50133
2.50556
2.50891
2.512
2.51488
2.51769
2.52074
2.52403
2.52776
2.53183
2.47008
2.4782
2.48587
2.49245
2.49772
2.50233
2.50616
2.50976
2.51312
2.51638
2.51968
2.52296
2.52644
2.52994
2.468
2.47591
2.48315
2.48933
2.49447
2.49917
2.5033
2.5072
2.51084
2.51434
2.51777
2.52096
2.52403
2.52683
2.46732
2.47458
2.48113
2.48674
2.49159
2.4962
2.50044
2.5045
2.50829
2.51184
2.51518
2.51801
2.52041
2.52213
2.46855
2.4744
2.47961
2.48446
2.48888
2.49336
2.49762
2.50176
2.50558
2.50907
2.51212
2.51436
2.51611
2.51684
2.47018
2.47488
2.4784
2.48222
2.48628
2.49059
2.49483
2.49898
2.50279
2.50613
2.5088
2.51056
2.51146
2.51155
2.4731
2.47512
2.4772
2.47988
2.48333
2.4875
2.4919
2.49619
2.50003
2.50321
2.50555
2.50689
2.50732
2.50661
2.47566
2.47568
2.47582
2.47721
2.48007
2.48409
2.48866
2.4932
2.49723
2.50044
2.50269
2.50403
2.50438
2.50314
2.47833
2.4752
2.47328
2.47383
2.4761
2.47993
2.48473
2.48973
2.49423
2.49787
2.5005
2.50204
2.50265
2.50093
2.48067
2.47537
2.47247
2.47104
2.47189
2.47511
2.48005
2.48558
2.49085
2.49531
2.49876
2.50095
2.50213
2.50061
2.4814
2.47283
2.4687
2.46746
2.46788
2.47026
2.47493
2.48092
2.48708
2.49282
2.49737
2.50044
2.50227
2.50193
2.50995
2.5189
2.52366
2.52874
2.53202
2.53451
2.53571
2.53656
2.53731
2.5379
2.53872
2.53989
2.54214
2.54493
2.50144
2.51179
2.51804
2.52424
2.52851
2.53201
2.53448
2.53653
2.53825
2.54
2.54184
2.54367
2.54668
2.54969
2.49646
2.5061
2.51343
2.52002
2.52502
2.52919
2.53256
2.53562
2.53825
2.5408
2.54328
2.54556
2.54838
2.551
2.49305
2.50218
2.5099
2.51647
2.52179
2.5264
2.53034
2.53404
2.53736
2.5404
2.54338
2.54623
2.54916
2.55219
2.4906
2.4994
2.50698
2.51338
2.51877
2.52368
2.52801
2.5321
2.53585
2.53926
2.54248
2.5454
2.5483
2.55107
2.48947
2.49761
2.50465
2.5107
2.51602
2.52105
2.5256
2.52991
2.53389
2.53749
2.54084
2.54375
2.54644
2.54875
2.48975
2.4967
2.50294
2.50848
2.51357
2.51855
2.52317
2.52756
2.53162
2.53529
2.53859
2.5413
2.54355
2.54526
2.49095
2.49648
2.50172
2.50655
2.51126
2.5161
2.52069
2.52509
2.52913
2.53274
2.53582
2.53811
2.53984
2.5407
2.49285
2.49693
2.50051
2.50461
2.50905
2.51368
2.51816
2.5225
2.52643
2.52989
2.53268
2.53457
2.53565
2.53568
2.49457
2.49653
2.49937
2.5026
2.50659
2.51099
2.51546
2.51978
2.52362
2.5269
2.52936
2.53086
2.53143
2.53082
2.49621
2.4964
2.49776
2.50008
2.50369
2.50797
2.51248
2.5168
2.52064
2.5238
2.52604
2.5274
2.52779
2.52681
2.49683
2.49456
2.49465
2.4965
2.49986
2.50418
2.50884
2.51342
2.51744
2.52074
2.52305
2.52448
2.52492
2.52357
2.49647
2.49295
2.49177
2.49244
2.49518
2.49944
2.50437
2.50936
2.51387
2.51762
2.52038
2.52225
2.52319
2.52196
2.49445
2.4882
2.48659
2.48753
2.48982
2.49383
2.49899
2.5047
2.51005
2.51459
2.51828
2.52065
2.52214
2.52121
2.52426
2.53436
2.53984
2.54579
2.55001
2.55334
2.55543
2.55696
2.55797
2.55895
2.55979
2.56084
2.56255
2.56386
2.51864
2.52918
2.536
2.54237
2.54715
2.55113
2.55419
2.55675
2.55868
2.56058
2.56243
2.56413
2.56653
2.56827
2.51559
2.52521
2.53263
2.53912
2.54426
2.5487
2.55244
2.55581
2.55863
2.56119
2.56359
2.56561
2.568
2.56999
2.51327
2.52239
2.52989
2.53628
2.54158
2.54634
2.55053
2.55444
2.55788
2.5609
2.56378
2.56635
2.56895
2.57143
2.51182
2.52037
2.52754
2.53375
2.53909
2.54409
2.54861
2.55284
2.55665
2.56001
2.5631
2.5658
2.56844
2.57083
2.51141
2.51911
2.52566
2.53157
2.53686
2.54196
2.54666
2.55106
2.55506
2.55859
2.56177
2.5645
2.56702
2.56913
2.51185
2.51843
2.52428
2.52979
2.53489
2.53994
2.54466
2.54909
2.55313
2.55669
2.55985
2.56247
2.56471
2.56646
2.51307
2.51833
2.52334
2.52824
2.53303
2.5379
2.54253
2.54691
2.55089
2.55439
2.55741
2.55976
2.56158
2.56268
2.51481
2.51871
2.52234
2.52668
2.53117
2.53582
2.54027
2.54451
2.54834
2.55171
2.5545
2.55652
2.55777
2.55828
2.51556
2.51804
2.52122
2.52487
2.52905
2.53345
2.53776
2.54188
2.54558
2.54879
2.55134
2.553
2.5538
2.5536
2.51612
2.51732
2.51951
2.52257
2.52649
2.53071
2.53494
2.53896
2.54254
2.5456
2.5479
2.54936
2.54991
2.54954
2.51519
2.51507
2.51637
2.51916
2.52294
2.52721
2.53152
2.53564
2.53929
2.54233
2.54456
2.54594
2.54647
2.5458
2.51381
2.51222
2.51256
2.51471
2.51829
2.52271
2.52731
2.53178
2.53572
2.53895
2.54135
2.54297
2.54382
2.5432
2.51008
2.50695
2.50728
2.50913
2.5124
2.51692
2.52208
2.52731
2.53201
2.53583
2.53882
2.5406
2.54179
2.54085
2.54093
2.55119
2.5573
2.56362
2.56843
2.57237
2.57512
2.5771
2.57857
2.57948
2.58028
2.58109
2.58239
2.58291
2.53787
2.54779
2.55474
2.56116
2.56627
2.57061
2.57399
2.57677
2.57898
2.5807
2.58233
2.58385
2.58578
2.58674
2.53612
2.54527
2.55251
2.55885
2.56406
2.56867
2.57253
2.57595
2.5788
2.58115
2.58328
2.58508
2.58711
2.58875
2.53488
2.5435
2.55063
2.55679
2.56202
2.56681
2.571
2.57483
2.57816
2.58097
2.58355
2.58584
2.58814
2.59024
2.53433
2.54229
2.54901
2.55496
2.56015
2.56505
2.56948
2.57354
2.57718
2.58027
2.58306
2.58551
2.58789
2.59003
2.53466
2.54168
2.54778
2.55339
2.55848
2.56339
2.56792
2.5721
2.57588
2.57913
2.58203
2.58451
2.58686
2.58888
2.53532
2.54134
2.54683
2.55204
2.55694
2.56176
2.56628
2.57046
2.57425
2.57753
2.58043
2.58288
2.58507
2.58685
2.53651
2.54115
2.54595
2.55075
2.55538
2.56003
2.56442
2.56852
2.57225
2.5755
2.57833
2.58064
2.58253
2.58385
2.53774
2.54116
2.54511
2.54938
2.5537
2.55813
2.56234
2.56631
2.56989
2.57306
2.57576
2.57784
2.57933
2.58
2.5377
2.54049
2.54383
2.54757
2.55167
2.5559
2.55995
2.56379
2.56725
2.57033
2.57286
2.57466
2.5757
2.57595
2.53757
2.53928
2.5419
2.54526
2.54917
2.55322
2.55717
2.56093
2.5643
2.56729
2.56963
2.57119
2.57193
2.57189
2.53589
2.53679
2.53881
2.54192
2.54572
2.54981
2.55386
2.5577
2.56111
2.56408
2.5663
2.56776
2.56831
2.5681
2.53375
2.53361
2.53478
2.53746
2.54124
2.54553
2.54988
2.55402
2.55767
2.56076
2.56303
2.56467
2.56541
2.56521
2.52936
2.52817
2.5293
2.5318
2.53552
2.54009
2.54504
2.54984
2.5541
2.55757
2.56031
2.56192
2.56292
2.5621
2.45089
2.46142
2.46745
2.47238
2.48413
2.49529
2.43164
2.43823
2.44627
2.45879
2.48294
2.5116
2.4285
2.43688
2.44723
2.46089
2.4876
2.52675
2.42255
2.43193
2.44483
2.4623
2.4924
2.54082
2.41883
2.43075
2.44622
2.46355
2.49274
2.54385
2.41333
2.42418
2.43778
2.45293
2.47887
2.52398
2.40816
2.4147
2.42301
2.43247
2.44909
2.47594
2.40302
2.40269
2.40546
2.41027
2.42277
2.43548
2.39924
2.39504
2.3945
2.39547
2.40334
2.4045
2.39959
2.39283
2.38878
2.38553
2.392
2.38628
2.40559
2.39629
2.39296
2.38803
2.39492
2.38953
2.41067
2.40086
2.40073
2.39726
2.40159
2.39893
2.41745
2.40966
2.41413
2.4126
2.4185
2.41736
2.41029
2.40625
2.41305
2.42109
2.43586
2.4444
2.46887
2.48082
2.48966
2.49412
2.4991
2.50969
2.45327
2.4622
2.4743
2.48943
2.51037
2.52878
2.45069
2.46197
2.47717
2.49676
2.52465
2.55073
2.44524
2.45775
2.47755
2.50441
2.53962
2.57133
2.44056
2.45706
2.48129
2.50951
2.54394
2.57742
2.43547
2.45333
2.47589
2.50023
2.52916
2.55935
2.43201
2.44591
2.46128
2.47383
2.48866
2.50806
2.42768
2.43419
2.44018
2.44205
2.44897
2.46227
2.42479
2.42356
2.42257
2.41709
2.41827
2.42332
2.42364
2.41762
2.4108
2.40001
2.39715
2.39506
2.4274
2.41877
2.41018
2.39889
2.39608
2.39309
2.43459
2.42319
2.41696
2.40767
2.40593
2.40673
2.44171
2.43129
2.43108
2.42836
2.43064
2.43511
2.43299
2.42507
2.4289
2.43513
2.44724
2.46171
2.48767
2.49997
2.51055
2.51802
2.52239
2.53078
2.47721
2.48883
2.5009
2.51484
2.52935
2.54456
2.47586
2.48793
2.50069
2.51611
2.53727
2.56162
2.47139
2.48334
2.49927
2.52105
2.55162
2.58245
2.46589
2.47872
2.49987
2.52767
2.56157
2.59398
2.46
2.47427
2.49912
2.52738
2.55809
2.58671
2.45691
2.4725
2.49338
2.51422
2.5324
2.54755
2.45438
2.4666
2.47925
2.48976
2.49635
2.5022
2.45362
2.45956
2.46456
2.46561
2.46385
2.4649
2.45403
2.45269
2.45422
2.44819
2.44079
2.43882
2.45705
2.45244
2.45369
2.44343
2.43786
2.43695
2.46324
2.4577
2.4584
2.45
2.44831
2.44802
2.47253
2.4666
2.46891
2.46807
2.47175
2.47318
2.46851
2.46223
2.46538
2.47159
2.48254
2.49315
2.49782
2.50759
2.51799
2.52397
2.52848
2.53261
2.49136
2.50114
2.51073
2.52013
2.52995
2.54082
2.49
2.50113
2.51288
2.52442
2.53691
2.55146
2.48776
2.49796
2.50955
2.52286
2.54006
2.55999
2.48385
2.4925
2.50409
2.52091
2.54537
2.57305
2.47817
2.48509
2.49818
2.52071
2.5496
2.57956
2.47413
2.48008
2.49502
2.51774
2.54377
2.56846
2.47034
2.47543
2.49068
2.50833
2.52544
2.53428
2.46887
2.47391
2.48644
2.49763
2.50455
2.50328
2.47004
2.47362
2.48244
2.48737
2.48631
2.47858
2.47482
2.4749
2.48299
2.48544
2.48062
2.47146
2.48124
2.48075
2.48876
2.48986
2.48468
2.4792
2.48928
2.49115
2.49908
2.50069
2.49986
2.49941
2.49179