/*--------------------------------*- C++ -*----------------------------------*\
| =========                 |                                                 |
| \\      /  F ield         | OpenFOAM: The Open Source CFD Toolbox           |
|  \\    /   O peration     | Version:  v2106                                 |
|   \\  /    A nd           | Website:  www.openfoam.com                      |
|    \\/     M anipulation  |                                                 |
\*---------------------------------------------------------------------------*/
FoamFile
{
    version     2.0;
    format      ascii;
    arch        "LSB;label=32;scalar=64";
    class       volScalarField;
    location    "0.0002";
    object      epsilon;
}
// * * * * * * * * * * * * * * * * * * * * * * * * * * * * * * * * * * * * * //

dimensions      [0 2 -3 0 0 0 0];

internalField   nonuniform List<scalar> 
18109
(
1105.37
805.403
579.946
430.309
342.639
309.813
335.846
471.433
343.812
242.771
174.792
134.58
117.361
123.286
197.09
138.099
94.5554
65.9408
49.3415
41.9844
43.5405
81.9397
52.3622
34.1861
22.9925
16.7677
14.0502
14.6589
34.7543
18.9718
11.4875
7.39817
5.26386
4.38321
4.7225
16.2996
6.92521
3.65151
2.20399
1.52651
1.28214
1.497
9.94686
3.00849
1.19251
0.623117
0.412614
0.361347
0.504553
9.00596
2.05436
0.521848
0.188911
0.111266
0.111584
0.217747
1001.4
735.94
528.596
384.721
292.787
245.152
240.949
290.888
427.145
706.934
1208.43
2027.25
3334.16
5412.42
418.735
308.793
217.712
154.095
113.717
92.3372
88.7517
106.794
160.538
279.326
512.18
935.163
1670.27
2940.96
169.589
121.483
83.2636
57.1273
40.9886
32.5059
31.0344
38.107
60.3579
113.125
226.203
454.775
893.898
1734.72
67.026
44.8308
29.4925
19.535
13.6518
10.6485
10.279
13.3277
23.2687
48.8022
108.986
243.512
528.818
1126.86
26.4741
15.6438
9.67474
6.15417
4.1934
3.24527
3.26035
4.73175
9.66157
23.4174
58.901
145.287
343.938
787.997
11.4313
5.3955
2.97862
1.7915
1.18917
0.928352
1.02845
1.82525
4.56716
12.7946
35.6449
95.0907
240.242
578.664
6.6328
2.16825
0.922836
0.49153
0.314101
0.257483
0.353414
0.83972
2.56074
8.02533
24.0628
67.8247
179.161
445.651
6.11171
1.39977
0.370493
0.141203
0.0827019
0.0799097
0.159764
0.504273
1.75174
5.86096
18.338
53.3287
144.329
364.812
7.83546
1.52504
0.283563
0.0718187
0.0430835
0.057637
0.137751
0.449369
1.56818
5.26941
16.5473
48.1949
130.422
328.833
11.4698
2.16944
0.41284
0.141026
0.125158
0.170407
0.300625
0.711963
2.05977
6.29972
18.7318
52.5619
138.268
340.445
17.8524
3.72097
0.98313
0.539167
0.549193
0.711117
1.05599
1.8816
4.12385
10.4287
27.5361
71.4284
177.563
417.718
30.2707
8.08004
3.12744
2.14154
2.20285
2.76553
3.86113
6.01867
10.778
22.2793
50.4482
117.522
270.606
598.459
57.1443
20.8205
10.3499
7.70995
7.83068
9.60014
13.0202
19.124
30.5972
54.3701
106.165
219.407
461.543
947.026
120.505
56.7624
32.0228
24.7597
24.9173
30.0593
40.0265
56.8746
85.1807
136.2
233.473
425.519
808.626
1533.79
2519.1
4501.94
8022.78
14272.8
25627.4
47045.7
2312.18
4192.18
7574.73
13585.8
24283.1
43449.8
1649.04
3228.26
6180.14
11613.3
21747.6
41572.7
1199.35
2520.14
5109.12
10109.3
20066.4
41596.6
896.073
2013.16
4342.91
9184.63
19766.3
45343.4
705.23
1694.11
3922.68
9020.66
21512.1
55305.9
613.963
1579.62
3976.39
10143.2
27127.3
76559.7
627.8
1722.12
4701.97
13095.8
37771.1
109913
775.542
2212.81
6314.81
18175.2
52578.8
148295
1128.02
3190.95
8986.76
25200.1
69623.4
184327
1785.33
4748.87
12521.3
32692.7
83538.8
202450
2846.72
6882.55
16561
39561
92481.2
203576
4417.23
9581.83
20795.2
44962.6
95302.1
190079
6733.46
12985.2
25167.4
48927.6
93979.5
171032
10209.4
17546.7
30391.8
52789.9
90345.5
147825
6239.54
12196.8
23487.2
42939.2
74262.2
120796
4338.41
9054.03
17907.8
32813.8
57228.3
96399.9
3218.1
6867.35
13730
25515.2
45761
81602.3
2406.97
5204.09
10513.3
20024.8
37207.5
70793
1801.98
3976.31
8214.71
16098.1
31284.5
65731.3
1362.23
3075.83
6521.74
13191.4
26831.6
62204.7
1059.93
2440.75
5307.02
11099.5
23888.9
61690.3
866.988
2020.55
4484.39
9692.36
22167.4
65210.4
771.566
1797.25
4033.09
8983.92
21985.7
72918.9
775.74
1774.71
3960.66
8982.02
23026.5
79434.5
905.618
1986.23
4308.72
9696.47
24875.1
81949
1210.24
2481.68
5110.87
11033.1
26877.4
79339.6
1761.37
3328.97
6390.93
12855.8
28658.6
73931.5
2626.08
4550.18
8074.3
14944.1
29908.9
66209.3
2240.45
3552.52
6253.02
11927.3
24243.5
52076.2
1511.18
2633.9
4984.35
10005.2
20540
43297.9
958.775
1927.28
3999.55
8373.91
17293.4
36250
620.37
1416.42
3137.09
6741.8
14129.8
30320.3
411.362
1025.4
2383.79
5297.29
11420.6
25449.6
277.326
728.067
1762.55
4061.7
9048.43
21044.6
189.18
512.182
1286.11
3078.08
7127.9
17423.1
131.044
361.18
936.097
2326.64
5604.36
14414
95.3642
264.832
702.233
1803.3
4521.25
12312.9
77.8405
215.409
574.29
1497.25
3860.73
11065.5
79.416
215.16
558.061
1429.42
3699.24
10941.7
106.375
277.518
680.621
1659.11
4152.33
12141.4
165.684
416.036
985.734
2285.53
5392.43
14457.6
233.63
556.17
1325.37
3027.23
6758.25
16332.7
161.556
571.74
2019.46
6706.78
20883.9
60278.1
311.414
949.449
2921.13
8481.46
22990.1
57589.3
618.789
1588.66
4143.88
10369.5
24447.1
53704.2
1257.02
2691.79
5814.65
12371
25577
50614
275.219
710.054
1706.52
3840.66
8274.81
18460.7
181.195
562.141
1471.57
3482
7860.56
18156.7
119.732
412.848
1158.87
2888.47
6870.89
16689.6
79.399
283.947
849.907
2251.43
5706.46
14855.7
52.5696
190.758
593.758
1690.21
4612.6
13151.3
35.3895
131.248
425.373
1290.68
3846.15
12395.9
26.0324
99.1903
343.021
1140.53
3854.49
14564
24.0287
93.7289
349.007
1281.6
4849.51
19604.5
31.1704
121.119
473.727
1832.61
7121.54
27698.5
54.3367
201.359
776.142
2906.47
10554.6
36621.6
110.845
375.769
1330.89
4498.85
14425.1
43196.1
237.302
709.879
2206.21
6522.05
18064.4
46304.5
512.177
1317.37
3490.97
8887.67
21245.2
47054.3
1101.96
2388.58
5257.7
11365.1
23680.9
46565.4
74889.6
354101
1.24328e+06
1.1912e+06
801522
78909.8
383763
1.36195e+06
1.18632e+06
784484
88533.5
441307
1.55789e+06
1.17841e+06
788294
109035
530680
1.75935e+06
1.17089e+06
821852
148863
657603
1.89755e+06
1.14324e+06
845752
214997
826443
1.88326e+06
1.05231e+06
843542
299306
1.01076e+06
1.71814e+06
936183
848304
375997
1.11662e+06
1.53246e+06
894192
878039
1.15141e+06
430204
1.12953e+06
1.38541e+06
874630
891238
1.21619e+06
430970
1.02462e+06
1.25927e+06
837065
855811
1.24797e+06
393428
880526
1.18259e+06
810088
780604
1.22274e+06
1.88157e+06
336957
728655
1.15476e+06
835381
700838
1.0735e+06
2.11699e+06
3.1776e+06
276751
587613
1.15909e+06
920907
676019
850530
1.9229e+06
6.21924e+06
223527
484689
1.20992e+06
1.06642e+06
749587
782340
1.13909e+06
3.74388e+06
184138
447998
1.32431e+06
1.21914e+06
846451
827310
1.10326e+06
4.01175e+06
158852
465234
1.5071e+06
1.32339e+06
887253
887551
1.20725e+06
3.22933e+06
158353
522701
1.81042e+06
1.40019e+06
927518
974939
1.27198e+06
4.14087e+06
165511
636569
2.2016e+06
1.48139e+06
1.01156e+06
1.09009e+06
1.25564e+06
1.81868e+06
176305
810167
2.57212e+06
1.52152e+06
1.04258e+06
1.1652e+06
1.33306e+06
1.31189e+06
190718
1.01726e+06
2.6513e+06
1.42952e+06
986158
1.19366e+06
1.40678e+06
1.25396e+06
215710
1.22947e+06
2.48366e+06
1.2919e+06
941850
1.24931e+06
1.53187e+06
2.23321e+06
255506
1.3991e+06
2.33121e+06
1.27075e+06
976487
1.33103e+06
1.73708e+06
1.66623e+06
295801
1.46015e+06
2.19766e+06
1.27242e+06
996949
1.38662e+06
306355
1.34734e+06
1.97992e+06
1.23954e+06
964956
1.35856e+06
277499
1.09377e+06
1.6556e+06
1.20695e+06
895271
1.27325e+06
235304
828061
1.34079e+06
1.22307e+06
835896
1.08051e+06
197605
612291
1.06067e+06
1.24779e+06
856545
852273
165184
470346
917244
1.32242e+06
986459
139673
378259
878042
1.48491e+06
1.14753e+06
120376
316258
902386
1.67812e+06
1.23322e+06
105752
277053
1.01007e+06
1.91309e+06
1.28916e+06
92828.4
259352
1.24799e+06
2.27607e+06
1.42246e+06
82054.9
260273
1.64051e+06
2.67868e+06
1.45911e+06
72711.5
267907
2.09036e+06
2.84112e+06
1.3304e+06
64430.4
284892
2.46038e+06
2.77493e+06
1.19733e+06
57809.9
323845
2.67009e+06
2.71201e+06
1.17758e+06
54201.1
373860
2.66525e+06
2.58046e+06
1.12953e+06
53652.5
398931
2.28896e+06
2.2645e+06
1.06966e+06
56271.3
387801
1.72203e+06
1.88379e+06
1.03713e+06
61744.7
353215
1.23745e+06
1.55642e+06
1.0309e+06
67736.5
314327
928017
1.32086e+06
1.01652e+06
71655.9
279728
784116
1.25456e+06
1.03389e+06
72050.7
249251
734758
1.29441e+06
1.06649e+06
68867.1
227672
759532
1.36164e+06
1.02938e+06
64345
218772
883042
1.48393e+06
998432
60226.2
226751
1.13803e+06
1.66953e+06
1.00987e+06
56669.2
248498
1.49744e+06
1.8072e+06
955959
55093.8
282187
1.87496e+06
1.7702e+06
835009
62546.8
333587
2.1619e+06
1.61944e+06
745844
79311.7
428741
2.21827e+06
1.50287e+06
718761
102246
521364
2.08688e+06
1.39199e+06
693085
116520
530098
1.82606e+06
1.25971e+06
668966
115522
468817
1.5856e+06
1.1742e+06
645830
103516
382489
1.38318e+06
1.13285e+06
658601
90173.4
326837
1.23933e+06
1.11833e+06
716344
80166.5
333753
1.19362e+06
1.15011e+06
773757
898.602
665.328
479.701
347.169
259.193
208.72
193.627
219.308
308.705
508.681
895.393
1572.51
2699.17
4528
366.727
271.622
192.256
135.587
98.4509
77.1561
70.5271
80.2971
116.73
203.049
383.114
731.128
1363.2
2491.35
143.807
103.682
71.4289
48.9012
34.5878
26.5109
24.1795
28.3259
43.978
83.4948
172.941
363.51
746.641
1510.55
54.3466
36.9686
24.5404
16.2505
11.2131
8.45632
7.82593
9.78959
17.089
36.9454
86.1199
201.075
455.164
1008.77
20.2136
12.3831
7.79437
4.97269
3.35146
2.50914
2.43051
3.46932
7.26243
18.3807
48.3089
123.973
304.136
719.831
8.127
4.05439
2.3135
1.40553
0.925563
0.700447
0.75822
1.36407
3.56621
10.4394
30.2142
83.3036
216.712
535.73
4.51238
1.53127
0.683019
0.373191
0.238353
0.190981
0.263575
0.653242
2.08424
6.77208
20.9395
60.6278
164.033
416.625
4.22332
0.94859
0.255358
0.102216
0.0614642
0.0596749
0.123824
0.408213
1.4675
5.04909
16.2026
48.2013
133.157
342.53
5.58638
1.02962
0.184784
0.0502282
0.0337796
0.0465779
0.112072
0.371662
1.32701
4.56651
14.6751
43.6594
120.425
308.604
8.38312
1.4824
0.27713
0.109296
0.107382
0.147609
0.25633
0.599833
1.74592
5.43735
16.5204
47.3612
127.05
318.158
13.4743
2.6496
0.725309
0.449572
0.484261
0.632863
0.93213
1.63541
3.55234
9.03884
24.2622
64.2194
162.82
389.798
24.0539
6.18185
2.48977
1.84093
1.97161
2.50448
3.488
5.38167
9.52407
19.6197
44.8129
106.144
249.05
560.816
48.4841
17.1681
8.64688
6.76146
7.09765
8.81814
11.9643
17.4637
27.6769
48.8836
95.7506
200.444
429.156
896.437
106.793
49.3306
27.657
22.1196
22.8994
28.0331
37.4132
52.9323
78.687
125.048
214.135
393.44
758.84
1464.87
755.041
563.21
410.952
296.932
218.625
169.327
146.543
148.196
187.018
287.55
506.235
939.941
1738.49
3113.36
283.445
208.917
149.877
105.981
76.4865
58.0376
49.7395
50.8034
67.2391
111.804
215.159
435.509
879.278
1744.85
101.158
71.8906
50.2929
34.6983
24.5767
18.3165
15.6671
16.4845
23.7441
44.7297
97.8899
222.077
499.614
1115.27
34.0222
22.8432
15.4644
10.3815
7.23217
5.31747
4.59854
5.1843
8.68909
19.626
50.1478
128.435
319.892
780.748
11.0383
6.73487
4.34927
2.83082
1.94433
1.4229
1.28112
1.68189
3.60514
10.0455
29.5005
83.3108
223.814
577.691
3.99365
1.942
1.13212
0.704739
0.477531
0.354331
0.358199
0.63279
1.82501
6.03032
19.4636
58.6948
165.849
442.571
2.38961
0.705203
0.296526
0.163282
0.108119
0.0856188
0.116005
0.313342
1.1428
4.1748
14.2377
44.7236
130.358
354.374
2.73958
0.511171
0.110446
0.0399597
0.0249354
0.0249636
0.0559571
0.210263
0.854967
3.26459
11.4473
36.7683
108.911
298.408
4.14217
0.649188
0.0931518
0.0230437
0.0177477
0.0249802
0.0584218
0.203675
0.798273
3.02445
10.5983
34.0567
100.593
273.939
6.70664
1.01404
0.160939
0.068948
0.0746382
0.100816
0.162491
0.360307
1.07662
3.61923
11.9679
37.162
106.934
284.632
11.354
1.9112
0.470297
0.317186
0.362637
0.47459
0.673949
1.1188
2.3638
6.21419
17.8545
50.9685
138.394
351.437
21.1184
4.6998
1.75658
1.37791
1.54801
1.99002
2.72837
4.06911
6.96331
14.3382
34.0718
85.7938
214.314
509.97
43.3454
13.7704
6.55801
5.35015
5.8286
7.33979
9.88133
14.1264
21.8403
38.1971
76.1761
166.718
377.008
828.599
96.3437
42.3296
22.5333
18.5328
19.7047
24.4695
32.5513
45.4201
66.3076
104.162
178.702
336.613
677.379
1369.95
544.687
405.13
299.611
220.051
166.778
131.522
113.931
110.571
129.993
184.625
312.101
576.39
1101.55
2061.43
184.564
133.391
96.6977
69.2671
51.5537
39.9433
34.4917
34.0533
42.3295
65.9695
124.59
256.365
546.798
1182.99
59.4929
40.8271
28.7701
19.9566
14.5434
11.0368
9.52909
9.71482
13.2789
24.1001
53.6988
128.326
314.307
785.08
18.0247
11.5628
7.85887
5.24791
3.73248
2.76884
2.41007
2.63966
4.31536
9.88719
26.8346
74.5802
205.712
563.424
5.32916
3.05186
1.96507
1.25512
0.868869
0.630963
0.57027
0.747533
1.67623
5.03927
16.1666
50.2151
149.981
432.65
1.96645
0.820682
0.456664
0.273708
0.183357
0.132333
0.136655
0.262762
0.856535
3.14843
11.2028
37.2907
116.908
346.262
1.51514
0.341477
0.113993
0.055987
0.0353926
0.0271152
0.0411025
0.133761
0.563667
2.30429
8.70324
30.2697
97.6962
293.093
2.14091
0.332149
0.0523379
0.0136119
0.00763179
0.00798608
0.0213207
0.0944762
0.439466
1.88969
7.4
26.4411
86.5878
260.298
3.56086
0.489791
0.058281
0.0123451
0.0103002
0.014516
0.0300797
0.102376
0.438014
1.86618
7.3377
26.2413
85.208
252.158
6.16139
0.830281
0.113915
0.0489569
0.0562117
0.0765972
0.114618
0.227871
0.668003
2.42278
8.87318
30.375
94.9839
271.265
11.0335
1.66716
0.362729
0.246787
0.291489
0.389276
0.54307
0.854409
1.7231
4.631
14.2724
44.0807
128.009
344.002
21.9077
4.34519
1.46872
1.14909
1.3078
1.70755
2.33295
3.40127
5.64298
11.5965
28.645
76.5588
202.447
505.85
46.476
13.4012
5.90767
4.77171
5.17811
6.55992
8.80399
12.4393
18.8965
32.8468
66.6601
152.015
361.078
830.768
101.411
43.7596
21.8737
17.6529
18.4406
22.8703
30.2694
41.9089
60.5827
94.7035
162.775
311.46
647.064
1367.63
289.359
211.749
161.232
122.862
98.3402
79.9907
70.1908
66.8472
73.8032
97.401
158.002
287.94
581.382
1177.22
87.1687
60.7884
44.9868
33.177
26.1123
20.9634
18.4507
17.8761
20.7269
30.1946
56.3956
120.329
282.336
691.402
24.718
16.0721
11.4687
8.13159
6.26437
4.93226
4.34452
4.3199
5.48011
9.56625
22.3445
59.0858
165.836
478.18
6.54678
3.87586
2.64282
1.79452
1.34861
1.038
0.918085
0.969663
1.50091
3.58237
10.9592
35.1757
112.675
356.319
1.8481
0.880795
0.548453
0.354285
0.258864
0.194957
0.177392
0.225972
0.530613
1.84331
6.93871
25.1879
87.4064
290.863
0.965231
0.25475
0.109733
0.0629311
0.0440699
0.0329417
0.0344543
0.0720382
0.281403
1.24145
5.19991
20.1843
73.1865
248.6
1.18505
0.184328
0.0333834
0.0112056
0.00680332
0.00543858
0.00941708
0.0393914
0.205492
1.00326
4.44002
17.9022
66.2464
225.351
1.98764
0.258215
0.0282562
0.00397768
0.00184593
0.00218754
0.00623813
0.0324466
0.180458
0.915894
4.16915
17.0767
63.1868
211.782
3.49993
0.422287
0.0410826
0.00761796
0.00678896
0.00924019
0.0156483
0.0460148
0.208873
1.01465
4.55676
18.3794
66.3275
215.333
6.33936
0.781693
0.0888569
0.036611
0.0425073
0.0572444
0.0802512
0.139934
0.3812
1.45778
5.91074
22.3993
76.5685
236.235
11.766
1.66854
0.306369
0.198453
0.23101
0.306122
0.416342
0.618945
1.16495
3.10197
10.1364
33.8998
106.069
305.193
24.5989
4.46503
1.32227
0.987958
1.09074
1.40426
1.87954
2.65711
4.21638
8.40089
21.1261
59.7991
169.145
451.796
52.1588
13.7684
5.64167
4.40736
4.5965
5.69924
7.46462
10.2978
15.206
25.7077
51.8195
121.931
306.441
754.597
105.723
45.8332
22.436
17.5241
17.5001
21.1662
27.2131
36.7525
51.9943
79.6008
134.34
257.476
551.052
1241.95
73.3669
49.1132
35.9684
27.382
23.2479
20.8349
20.4202
21.177
24.3789
31.8544
50.3479
91.2782
192.983
431.639
19.8708
12.4015
8.75653
6.33297
5.1755
4.51341
4.39913
4.64098
5.62419
8.19533
15.3764
34.8017
90.9526
253.133
5.11147
2.83212
1.92035
1.32265
1.03843
0.874384
0.842023
0.908072
1.21111
2.206
5.61277
16.9936
55.07
180.862
1.38744
0.593245
0.372982
0.245005
0.185054
0.150144
0.143188
0.164893
0.283978
0.790793
2.85437
10.722
39.4331
141.028
0.642204
0.149394
0.0670503
0.039894
0.0288194
0.0226361
0.0222475
0.0337495
0.103409
0.45004
2.00708
8.44022
33.5133
126.92
0.719701
0.0996427
0.017476
0.00619526
0.00391257
0.0030318
0.00382019
0.0121273
0.0643347
0.343474
1.67549
7.49048
31.1024
120.595
1.17791
0.141833
0.0140641
0.00168629
0.000563772
0.00047775
0.00133246
0.00830538
0.0538511
0.310586
1.59709
7.4284
31.5201
122.189
2.16905
0.246586
0.0201835
0.00171312
0.000612471
0.000742616
0.00166424
0.00832639
0.0530987
0.315524
1.66914
7.87393
33.2494
125.934
4.05073
0.460448
0.0346275
0.00467031
0.00405741
0.00532836
0.00755502
0.0166616
0.0714909
0.387982
2.00207
9.2365
37.7742
137.41
7.73442
0.973924
0.0842016
0.0239728
0.0267063
0.0352252
0.0464987
0.0699701
0.162446
0.623303
2.80039
11.9514
45.7528
156.42
14.5612
2.13295
0.285371
0.138212
0.152557
0.196831
0.257156
0.354955
0.595244
1.4847
5.08051
18.7169
64.9623
205.828
27.891
5.30108
1.20703
0.746381
0.772508
0.95768
1.23142
1.65502
2.44115
4.51309
11.2053
33.5507
103.078
300.216
52.3747
14.3342
5.22545
3.64497
3.55383
4.21091
5.26683
6.94214
9.7476
15.5828
30.2752
72.1682
191.556
510.343
100.46
44.0089
22.0354
15.9241
14.8115
17.0907
20.9085
26.9809
36.676
54.1197
88.12
164.981
355.674
849.749
8.085
5.01017
3.49298
2.54373
2.1081
1.90534
1.96006
2.174
2.67603
3.6832
6.16598
12.3605
29.526
76.1694
2.00045
1.10383
0.744354
0.517155
0.407354
0.350894
0.349823
0.38643
0.495263
0.779625
1.6671
4.52817
14.0622
45.0123
0.541922
0.218926
0.137032
0.0914069
0.0691533
0.05702
0.0550844
0.0613527
0.0893022
0.198793
0.651831
2.44755
9.22679
33.6123
0.259888
0.0525752
0.0226883
0.0137938
0.010033
0.00798854
0.00761788
0.00953269
0.0218472
0.0866374
0.39602
1.73028
7.05214
27.2164
0.277893
0.0358384
0.00568665
0.00195226
0.00123155
0.000950013
0.00100075
0.00223752
0.0109294
0.0613056
0.316266
1.47778
6.39743
26.2708
0.423322
0.0522003
0.00496748
0.000548579
0.000152464
0.000104528
0.00020439
0.00119918
0.00836707
0.0518245
0.282833
1.3948
6.36335
27.2334
0.70849
0.0891429
0.0073046
0.00051742
6.72098e-05
4.53551e-05
0.000143066
0.00103118
0.00767387
0.0500237
0.287639
1.49012
7.05841
30.7449
1.23385
0.159498
0.012096
0.000790096
0.000255824
0.000296168
0.000446985
0.00138837
0.00842938
0.0551882
0.327675
1.73964
8.29774
35.6592
2.14178
0.286952
0.0220901
0.00222087
0.00183487
0.0023868
0.00307516
0.00480483
0.0146316
0.0773811
0.438923
2.27903
10.5628
43.6765
3.75457
0.537163
0.0509807
0.0116104
0.01259
0.0164033
0.0208565
0.0276559
0.0485794
0.15411
0.704414
3.31327
14.2796
55.273
6.65052
1.07772
0.161511
0.0706147
0.0764963
0.0966518
0.122243
0.158305
0.229198
0.46837
1.4812
5.73461
21.9744
77.9273
12.5023
2.63163
0.69648
0.414472
0.419159
0.503754
0.623132
0.799641
1.08927
1.76981
3.90987
11.4879
37.2536
118.489
24.3328
7.57679
3.21274
2.24489
2.13373
2.43274
2.88776
3.63296
4.81661
7.12276
12.5567
28.1607
74.8535
211.066
54.3492
26.3172
14.7083
11.0134
10.0725
11.1589
12.7797
15.7171
20.3054
28.6542
44.1579
77.9504
158.292
374.436
0.515956
0.301531
0.206348
0.146596
0.114074
0.0962847
0.0937928
0.102657
0.130106
0.194309
0.372598
0.888567
2.48959
7.43593
0.120685
0.055618
0.0362747
0.025061
0.0189594
0.0154486
0.0144996
0.0154777
0.0203155
0.0371745
0.102735
0.355889
1.30334
4.63998
0.0475327
0.0113345
0.00544514
0.0035011
0.00258146
0.00205604
0.00189158
0.00208201
0.00357931
0.011618
0.0514927
0.229297
0.948912
3.6334
0.0464872
0.00663396
0.00120651
0.000447079
0.000286712
0.000221716
0.000211124
0.00032959
0.00126612
0.00704508
0.0376154
0.179074
0.766898
3.02599
0.0672961
0.00908701
0.00103988
0.000132875
3.42375e-05
2.03556e-05
2.78192e-05
0.000126818
0.00089224
0.00575691
0.0321851
0.158525
0.707048
2.93972
0.106736
0.0142158
0.00143365
0.000131687
1.48312e-05
4.00715e-06
1.16739e-05
9.55974e-05
0.000754513
0.00506579
0.0293805
0.151298
0.711089
3.12234
0.174514
0.023027
0.00207527
0.000163759
2.31802e-05
1.4489e-05
2.36271e-05
0.000101486
0.000722202
0.00495453
0.0300549
0.163048
0.806764
3.69319
0.288298
0.0378729
0.00314255
0.000257976
0.000107021
0.000125261
0.000159232
0.000261125
0.000948738
0.00572534
0.0352228
0.197582
1.00409
4.64825
0.472841
0.0628269
0.00533566
0.000805218
0.000760579
0.00099128
0.00124186
0.0015878
0.00276227
0.00971023
0.0514069
0.278333
1.38634
6.25877
0.783532
0.111243
0.0127338
0.00450983
0.00514161
0.00666424
0.0083787
0.0104584
0.0142632
0.0284855
0.100066
0.457315
2.08412
8.78814
1.34837
0.233938
0.0488452
0.0285209
0.0315285
0.0392618
0.0488589
0.061027
0.0788154
0.120878
0.274004
0.924231
3.57076
13.5368
2.54653
0.648251
0.238263
0.169043
0.176298
0.2088
0.25345
0.314306
0.399916
0.556441
0.951924
2.27916
6.91517
22.5427
5.35225
2.1175
1.11584
0.869995
0.871088
0.986344
1.15766
1.40549
1.76305
2.36304
3.54082
6.5865
15.4946
42.6874
13.6466
7.52992
4.82843
3.99994
3.92668
4.32255
4.9264
5.82454
7.14486
9.32412
13.0337
20.525
37.2458
82.5198
0.03385
0.0185438
0.0125728
0.00894157
0.00681856
0.00558791
0.00520147
0.00538
0.00647294
0.00995784
0.021899
0.0636135
0.209804
0.714476
0.00887853
0.00300356
0.00173446
0.00118048
0.000884576
0.000717284
0.000660352
0.000679596
0.000895458
0.00199329
0.00727816
0.0307054
0.125889
0.481868
0.00639583
0.00112393
0.000284255
0.000132088
8.99757e-05
7.18591e-05
6.70157e-05
7.9306e-05
0.000188482
0.000883887
0.00467726
0.0226924
0.0987393
0.390055
0.00886161
0.00139712
0.000202205
3.31212e-05
9.59856e-06
5.83565e-06
6.1955e-06
1.64857e-05
9.94133e-05
0.000645076
0.00369203
0.0184206
0.0815372
0.326987
0.013689
0.00209787
0.00027923
3.44987e-05
4.32686e-06
7.95144e-07
1.29264e-06
9.84242e-06
7.91206e-05
0.000542936
0.00318256
0.0162409
0.073902
0.307073
0.0213777
0.00310456
0.000377932
4.18744e-05
4.76609e-06
8.81024e-07
1.29534e-06
8.43988e-06
6.73693e-05
0.000472285
0.00284996
0.0150752
0.0716358
0.31277
0.0336416
0.00461367
0.000506799
5.0989e-05
7.96786e-06
4.82747e-06
6.01078e-06
1.29274e-05
6.71729e-05
0.000451224
0.00280506
0.0155341
0.0777519
0.357777
0.0527519
0.00687742
0.000695241
7.72375e-05
3.37604e-05
3.93397e-05
4.8654e-05
6.23894e-05
0.000125045
0.000547257
0.00321264
0.0182366
0.0946366
0.449509
0.0817966
0.0104165
0.00108466
0.00022897
0.000221301
0.000289386
0.000361136
0.00043641
0.000580601
0.00123563
0.00504551
0.0262059
0.133072
0.624807
0.128078
0.0175796
0.00261813
0.00122698
0.0014292
0.00185559
0.00231616
0.00281066
0.0034735
0.00515448
0.0123913
0.0481451
0.215816
0.943148
0.211354
0.0383664
0.0105017
0.00719288
0.00824853
0.0103832
0.0128784
0.0157618
0.0193814
0.0258054
0.044083
0.116282
0.412358
1.57617
0.402727
0.115041
0.0496991
0.0382248
0.0415566
0.0500304
0.0608367
0.0742699
0.0914616
0.118105
0.172918
0.336637
0.900544
2.87451
0.909064
0.400465
0.225737
0.183489
0.190225
0.218224
0.257098
0.309108
0.378858
0.484566
0.665407
1.07775
2.23027
5.84104
2.4667
1.42298
0.942516
0.802994
0.808767
0.891491
1.01393
1.18919
1.43595
1.82002
2.42809
3.55187
5.92418
12.3306
0.00403804
0.00187939
0.00120864
0.000844311
0.000635088
0.000517748
0.000475617
0.000475599
0.00054316
0.000848373
0.00212915
0.00727832
0.0269023
0.0981849
0.00144802
0.000354075
0.000150226
9.12725e-05
6.6493e-05
5.41828e-05
5.01176e-05
5.14402e-05
7.13805e-05
0.00019739
0.000876337
0.00409666
0.0177382
0.0699961
0.00150892
0.000271012
4.96434e-05
1.24678e-05
5.85227e-06
4.35177e-06
4.17174e-06
5.78466e-06
1.94202e-05
0.000111093
0.000633881
0.00320344
0.0143481
0.0576247
0.00223807
0.000399843
6.43195e-05
9.57871e-06
1.46446e-06
3.93744e-07
4.04322e-07
1.70952e-06
1.23936e-05
8.49875e-05
0.000504869
0.00260079
0.0118319
0.0482098
0.00335859
0.000581703
8.9749e-05
1.24624e-05
1.53246e-06
1.93319e-07
1.62536e-07
1.20468e-06
9.92177e-06
7.03078e-05
0.000426919
0.00224984
0.0105027
0.0441064
0.00495422
0.000806741
0.000115485
1.48885e-05
1.77253e-06
3.15779e-07
2.868e-07
1.1402e-06
8.32883e-06
5.93475e-05
0.000369593
0.00201375
0.00977776
0.0429939
0.007313
0.00111031
0.000145669
1.76689e-05
2.78408e-06
1.5803e-06
1.82882e-06
2.76199e-06
9.24287e-06
5.5763e-05
0.000349329
0.00197899
0.0100884
0.0468588
0.0107081
0.0015183
0.000186237
2.53164e-05
1.03899e-05
1.17895e-05
1.44902e-05
1.74438e-05
2.58428e-05
7.62697e-05
0.000396097
0.00223809
0.0117885
0.0569814
0.0155083
0.00210413
0.000270194
6.68854e-05
6.22136e-05
8.10396e-05
0.000100988
0.00012034
0.000147269
0.000234501
0.000697443
0.00327723
0.0165342
0.0792189
0.0229139
0.00332919
0.000611488
0.000318848
0.000373361
0.000488145
0.00061003
0.000735637
0.000883279
0.00116337
0.00213369
0.00672083
0.0282915
0.124353
0.0369451
0.00723972
0.00230165
0.00168358
0.00197598
0.0025218
0.00314032
0.00382633
0.00462576
0.00583373
0.00859982
0.0185682
0.0587152
0.219955
0.0731237
0.0224805
0.0103858
0.00833126
0.00933876
0.0114655
0.014061
0.0171324
0.0208198
0.0260256
0.0351818
0.0597784
0.141241
0.431778
0.178224
0.0797917
0.045429
0.037771
0.0403398
0.0473375
0.0565807
0.0682619
0.0829245
0.10367
0.135609
0.201927
0.376565
0.931663
0.501984
0.281622
0.184024
0.157851
0.162582
0.182554
0.210915
0.249076
0.299793
0.374591
0.484862
0.676634
1.05693
2.08979
0.000613935
0.000217485
0.000121597
8.10772e-05
6.02374e-05
4.97421e-05
4.62041e-05
4.55898e-05
4.9678e-05
7.76979e-05
0.000219998
0.000861876
0.00348127
0.01336
0.000323359
6.62525e-05
1.77286e-05
7.83218e-06
5.21402e-06
4.29984e-06
4.09862e-06
4.32993e-06
6.56061e-06
2.19719e-05
0.000110698
0.000551656
0.00248201
0.0100279
0.000408495
8.04084e-05
1.42288e-05
2.45927e-06
5.95808e-07
3.16186e-07
3.05645e-07
5.23409e-07
2.28673e-06
1.44397e-05
8.59829e-05
0.000448307
0.00205995
0.0084231
0.000615663
0.0001229
2.16119e-05
3.28412e-06
4.54648e-07
7.38739e-08
4.89853e-08
2.169e-07
1.62447e-06
1.14047e-05
6.95918e-05
0.000368448
0.00171926
0.00713915
0.000900457
0.000174616
2.98058e-05
4.33893e-06
5.58665e-07
7.45648e-08
3.76094e-08
1.70995e-07
1.32439e-06
9.49616e-06
5.9103e-05
0.000319636
0.00152676
0.00650508
0.00127746
0.000234431
3.76481e-05
5.12374e-06
6.38896e-07
1.16421e-07
8.48921e-08
1.97625e-07
1.1532e-06
8.05942e-06
5.10892e-05
0.000284405
0.00140568
0.00623157
0.0018013
0.000310309
4.64399e-05
5.9946e-06
9.37448e-07
4.89752e-07
5.46527e-07
7.0603e-07
1.59286e-06
7.8568e-06
4.79934e-05
0.000274409
0.00141307
0.00658271
0.00250842
0.000406312
5.7688e-05
8.19766e-06
3.04136e-06
3.32403e-06
4.07495e-06
4.79794e-06
6.19028e-06
1.31374e-05
5.62839e-05
0.000306267
0.0016097
0.0077915
0.00344025
0.000535811
7.92433e-05
1.9079e-05
1.65985e-05
2.15557e-05
2.68866e-05
3.18156e-05
3.75375e-05
5.12898e-05
0.000115311
0.000465124
0.00226018
0.010786
0.00482248
0.000795328
0.000159356
8.0046e-05
9.31721e-05
0.000122832
0.000153787
0.000184325
0.000217143
0.000268516
0.000414608
0.00106149
0.00406065
0.017447
0.0075184
0.00162346
0.000536023
0.000393168
0.000470091
0.000608176
0.00075941
0.000919287
0.00109345
0.00132898
0.00178753
0.00328817
0.00914915
0.0326546
0.015061
0.00485357
0.00227509
0.00185755
0.00213922
0.00267699
0.00330367
0.00400563
0.00479622
0.00582945
0.00745605
0.011422
0.023984
0.0686648
0.0383875
0.0169599
0.00961969
0.00811406
0.00890981
0.010698
0.0129353
0.0155954
0.0187202
0.0228596
0.028761
0.0400705
0.0682194
0.156969
0.109853
0.0588313
0.0379465
0.0327863
0.0345771
0.0397178
0.0466047
0.0552692
0.0660586
0.0810334
0.101857
0.136016
0.200312
0.371802
0.000114591
2.97983e-05
1.26131e-05
7.57498e-06
5.54898e-06
4.74847e-06
4.58631e-06
4.56904e-06
4.77844e-06
7.23828e-06
2.2386e-05
9.80141e-05
0.000425917
0.00170322
7.97668e-05
1.55497e-05
3.05516e-06
8.2103e-07
4.18909e-07
3.45396e-07
3.52512e-07
3.9728e-07
6.50463e-07
2.42833e-06
1.31822e-05
6.89339e-05
0.000321384
0.00133166
0.000111311
2.30372e-05
4.16859e-06
6.78573e-07
1.18639e-07
3.97427e-08
3.47429e-08
6.10611e-08
2.6919e-07
1.73674e-06
1.0673e-05
5.74999e-05
0.000272227
0.00113986
0.000168578
3.55102e-05
6.5031e-06
1.03087e-06
1.51649e-07
2.89185e-08
1.68193e-08
3.55741e-08
2.02654e-07
1.39699e-06
8.74688e-06
4.78163e-05
0.000230112
0.000980344
0.000242708
4.99751e-05
8.87961e-06
1.35122e-06
1.87359e-07
3.23656e-08
1.71e-08
3.1719e-08
1.68759e-07
1.16798e-06
7.44242e-06
4.15399e-05
0.000204507
0.000892354
0.000336334
6.61726e-05
1.10909e-05
1.58126e-06
2.10505e-07
4.35048e-08
3.01286e-08
4.32496e-08
1.57312e-07
1.00058e-06
6.4214e-06
3.67434e-05
0.000186477
0.00084268
0.000460651
8.6028e-05
1.35041e-05
1.82308e-06
2.8468e-07
1.35346e-07
1.4452e-07
1.71203e-07
2.82294e-07
1.04329e-06
6.0232e-06
3.48257e-05
0.000182709
0.000862514
0.000620895
0.000110351
1.64966e-05
2.37104e-06
7.76684e-07
7.9983e-07
9.72496e-07
1.12712e-06
1.34576e-06
2.21926e-06
7.50442e-06
3.85214e-05
0.000202521
0.000987883
0.000821196
0.000141429
2.16888e-05
4.81203e-06
3.80403e-06
4.89762e-06
6.09853e-06
7.15246e-06
8.22166e-06
1.02109e-05
1.82593e-05
6.14224e-05
0.000283892
0.00134946
0.00110165
0.000197905
3.87839e-05
1.76566e-05
2.01845e-05
2.67766e-05
3.35061e-05
3.97935e-05
4.60309e-05
5.43839e-05
7.43168e-05
0.000156946
0.00053567
0.00223488
0.00162984
0.000364886
0.00011418
8.11087e-05
9.84472e-05
0.000128986
0.000161188
0.000193397
0.000226273
0.000266468
0.000334797
0.000538662
0.00131236
0.00441739
0.00311693
0.000995846
0.00045112
0.000368951
0.000436175
0.000555846
0.000688611
0.000828919
0.000977378
0.00115702
0.00141468
0.00198747
0.00372734
0.00990827
0.00782889
0.00333235
0.00184189
0.00156465
0.00176834
0.00217287
0.00265026
0.00318455
0.00377314
0.0045008
0.00547118
0.00719013
0.0112533
0.0239518
0.0221612
0.0112932
0.00709752
0.00615421
0.00666391
0.00785143
0.00933886
0.0110937
0.0131399
0.0157998
0.0193054
0.0247173
0.0344379
0.0597741
2.30177e-05
4.94268e-06
1.51787e-06
7.68549e-07
5.60635e-07
5.17173e-07
5.39435e-07
5.60624e-07
5.7226e-07
7.68235e-07
2.27822e-06
1.05879e-05
4.86766e-05
0.000201801
1.87313e-05
3.70663e-06
6.76914e-07
1.3825e-07
5.25332e-08
4.28964e-08
4.74558e-08
5.61208e-08
8.45392e-08
2.73184e-07
1.46348e-06
7.90383e-06
3.8144e-05
0.000162627
2.76203e-05
5.91215e-06
1.11113e-06
1.91155e-07
3.85618e-08
1.65489e-08
1.45725e-08
1.74667e-08
3.97495e-08
1.99741e-07
1.20913e-06
6.70324e-06
3.27973e-05
0.000141373
4.20749e-05
9.14537e-06
1.73507e-06
2.91691e-07
5.14807e-08
1.68384e-08
1.29222e-08
1.46298e-08
3.24343e-08
1.63714e-07
1.00148e-06
5.62964e-06
2.80311e-05
0.000123224
6.02182e-05
1.27998e-05