/*--------------------------------*- C++ -*----------------------------------*\
| =========                 |                                                 |
| \\      /  F ield         | OpenFOAM: The Open Source CFD Toolbox           |
|  \\    /   O peration     | Version:  v2106                                 |
|   \\  /    A nd           | Website:  www.openfoam.com                      |
|    \\/     M anipulation  |                                                 |
\*---------------------------------------------------------------------------*/
FoamFile
{
    version     2.0;
    format      ascii;
    arch        "LSB;label=32;scalar=64";
    class       volScalarField;
    location    "0.0002";
    object      T;
}
// * * * * * * * * * * * * * * * * * * * * * * * * * * * * * * * * * * * * * //

dimensions      [0 0 0 1 0 0 0];

internalField   nonuniform List<scalar> 
18109
(
293.678
293.519
293.362
293.209
293.061
292.909
292.754
293.701
293.543
293.383
293.223
293.069
292.919
292.766
293.711
293.54
293.369
293.203
293.049
292.906
292.764
293.752
293.559
293.372
293.197
293.04
292.901
292.767
293.792
293.587
293.391
293.208
293.046
292.908
292.779
293.857
293.638
293.423
293.235
293.077
292.942
292.819
293.92
293.686
293.475
293.288
293.131
293.001
292.885
294
293.759
293.537
293.351
293.198
293.075
292.965
293.945
293.826
293.705
293.583
293.455
293.31
293.152
292.976
292.784
292.582
292.388
292.199
292.039
291.886
293.981
293.849
293.72
293.584
293.446
293.303
293.146
292.972
292.778
292.579
292.384
292.208
292.057
291.926
294.001
293.85
293.702
293.553
293.406
293.263
293.112
292.948
292.765
292.578
292.395
292.234
292.11
292
294.037
293.858
293.688
293.522
293.366
293.22
293.072
292.919
292.751
292.579
292.412
292.271
292.161
292.067
294.071
293.873
293.685
293.505
293.342
293.195
293.053
292.908
292.751
292.594
292.445
292.325
292.233
292.155
294.11
293.89
293.679
293.495
293.338
293.197
293.059
292.922
292.776
292.634
292.503
292.4
292.319
292.25
294.134
293.901
293.696
293.516
293.359
293.223
293.093
292.965
292.831
292.703
292.587
292.493
292.418
292.345
294.179
293.942
293.731
293.554
293.405
293.276
293.155
293.034
292.911
292.792
292.685
292.596
292.52
292.438
294.228
293.983
293.768
293.598
293.46
293.342
293.23
293.117
293.001
292.891
292.791
292.701
292.617
292.521
294.288
294.048
293.832
293.671
293.538
293.426
293.318
293.209
293.1
292.994
292.896
292.802
292.707
292.595
294.386
294.15
293.933
293.774
293.642
293.529
293.421
293.312
293.203
293.097
292.996
292.895
292.79
292.664
294.496
294.272
294.061
293.907
293.775
293.66
293.548
293.436
293.324
293.213
293.103
292.989
292.872
292.735
294.664
294.45
294.244
294.083
293.944
293.818
293.698
293.577
293.458
293.339
293.22
293.094
292.97
292.82
294.817
294.59
294.405
294.248
294.114
293.989
293.869
293.749
293.625
293.499
293.37
293.226
293.09
292.927
293.706
293.693
293.672
293.648
293.603
293.535
293.962
293.94
293.919
293.879
293.793
293.664
293.824
293.792
293.755
293.725
293.677
293.612
293.727
293.682
293.644
293.624
293.6
293.556
293.603
293.56
293.519
293.507
293.516
293.501
293.469
293.431
293.387
293.364
293.355
293.291
293.312
293.271
293.216
293.175
293.12
292.961
293.139
293.083
293.01
292.936
292.814
292.507
292.944
292.874
292.78
292.649
292.444
292.002
292.739
292.659
292.548
292.352
292.046
291.444
292.532
292.437
292.313
292.053
291.615
290.862
292.343
292.224
292.064
291.72
291.174
290.369
292.13
291.966
291.753
291.345
290.726
289.909
291.97
291.736
291.438
290.963
290.356
289.62
291.727
291.422
291.068
290.542
289.925
289.294
291.775
291.569
291.222
290.682
289.998
289.334
291.835
291.572
291.188
290.669
290.068
289.507
291.905
291.675
291.298
290.807
290.287
289.823
291.971
291.764
291.418
290.982
290.535
290.129
292.06
291.869
291.557
291.177
290.771
290.361
292.156
291.973
291.69
291.352
290.97
290.503
292.244
292.066
291.809
291.502
291.136
290.601
292.322
292.147
291.915
291.625
291.249
290.627
292.39
292.223
292.007
291.727
291.302
290.552
292.458
292.299
292.1
291.802
291.324
290.52
292.531
292.392
292.196
291.896
291.38
290.549
292.616
292.506
292.334
292.002
291.432
290.619
292.728
292.643
292.46
292.126
291.569
290.838
292.813
292.724
292.537
292.198
291.665
291.039
292.999
292.9
292.761
292.459
292.023
291.461
293.184
293.129
293.039
292.803
292.41
291.927
293.345
293.344
293.312
293.163
292.879
292.494
293.503
293.555
293.556
293.493
293.323
293.073
293.651
293.747
293.778
293.778
293.709
293.566
293.787
293.911
293.974
294.012
293.985
293.925
293.92
294.067
294.148
294.205
294.181
294.159
294.048
294.212
294.305
294.361
294.32
294.295
294.179
294.361
294.47
294.532
294.484
294.435
294.322
294.526
294.659
294.742
294.7
294.6
294.475
294.707
294.868
294.97
294.937
294.786
294.659
294.905
295.079
295.181
295.163
294.961
294.83
295.071
295.238
295.323
295.298
295.108
295.05
295.24
295.376
295.431
295.387
295.257
293.918
294.008
294.041
294.027
293.986
293.787
293.842
293.905
293.927
293.927
293.871
293.705
293.801
293.851
293.856
293.86
293.8
293.679
293.799
293.792
293.772
293.734
293.673
293.589
295.063
295.272
295.429
295.505
295.488
295.432
294.933
295.179
295.36
295.487
295.547
295.586
294.801
295.08
295.302
295.482
295.611
295.725
294.693
295.008
295.271
295.497
295.667
295.804
294.598
294.935
295.233
295.501
295.691
295.819
294.531
294.869
295.18
295.467
295.672
295.775
294.466
294.788
295.085
295.347
295.521
295.602
294.406
294.688
294.935
295.131
295.237
295.278
294.341
294.554
294.727
294.845
294.899
294.881
294.261
294.407
294.503
294.553
294.582
294.443
294.195
294.29
294.327
294.321
294.293
294.089
294.119
294.161
294.164
294.161
294.09
293.903
294.066
294.103
294.087
294.068
293.968
293.808
294.033
294.026
294.002
293.947
293.845
293.712
293.222
292.351
290.411
285.69
277.202
293.206
292.25
289.851
284.266
275.427
293.171
292.055
288.96
282.993
275.695
292.988
291.331
287.389
281.143
274.143
292.427
290.19
285.57
278.764
270.968
291.723
288.799
283.66
276.144
267.569
290.984
287.545
282.304
274.935
267.243
290.172
286.526
281.417
273.853
265.522
259.723
289.482
285.853
280.816
272.964
263.708
256.777
288.905
285.647
281.162
273.949
265.256
258.697
288.513
285.715
282.118
275.935
268.024
261.826
259.7
288.304
286.035
283.262
278.264
271.3
265.249
263.245
267.956
288.216
286.367
284.137
279.956
273.847
269.013
269.128
276.057
288.19
286.728
284.761
280.935
274.788
267.602
265.734
265.339
288.306
287.039
284.995
280.394
272.39
262.693
257.079
255.247
288.624
287.399
285.256
280.279
272.167
263.206
255.562
253.887
289.048
287.666
285.139
279.991
273.03
266.382
263.372
260.377
289.317
287.643
284.427
278.723
271.576
264.741
261.353
262.91
289.423
287.447
283.688
277.169
268.231
258.759
253.717
251.44
289.328
286.905
282.939
276.266
267.2
257.652
249.731
247.666
289.252
286.61
282.747
276.367
268.469
261.113
256.584
254.543
289.07
286.505
282.828
276.46
268.101
261.309
259.76
262.607
288.927
286.519
282.825
276.032
265.85
256.428
288.884
286.706
283.518
277.193
267.011
256.916
288.994
287.092
284.665
279.575
270.768
261.749
289.209
287.58
285.904
282.289
275.252
267.387
289.557
288.217
287.036
284.434
279.026
272.659
290.023
288.91
287.888
285.588
280.882
290.622
289.679
288.662
285.976
279.93
291.274
290.472
289.425
286.429
280.371
291.972
291.198
290.07
287.054
281.759
292.62
291.779
290.45
286.835
280.852
293.209
292.317
290.804
286.917
279.389
293.564
292.626
290.817
286.638
278.525
293.734
292.826
290.959
286.854
279.452
293.787
292.841
290.91
286.882
278.927
293.854
292.861
290.967
286.862
277.959
293.93
292.929
291.293
287.746
279.196
294.08
293.174
291.994
289.202
281.839
294.327
293.571
292.845
290.602
284.513
294.649
294.136
293.745
291.613
286.105
295.012
294.761
294.435
292.142
286.744
295.36
295.336
294.833
292.049
285.2
295.63
295.645
294.908
291.552
284.188
295.799
295.726
294.685
291.094
284.759
295.867
295.538
294.126
289.876
283.122
295.868
295.331
293.372
288.415
280.166
295.726
294.922
292.498
287.15
278.297
295.371
294.403
291.692
286.335
277.927
294.841
293.634
290.897
285.462
276.513
294.303
292.952
290.213
284.585
275.01
293.811
292.429
290.059
284.936
276.091
293.476
292.201
290.264
285.829
278.274
293.293
292.212
290.592
286.752
280.267
293.258
292.344
290.851
287.282
281.465
293.239
292.417
290.726
286.91
280.019
294.281
294.21
294.141
294.07
293.988
293.883
293.757
293.602
293.415
293.208
292.994
292.783
292.604
292.418
294.327
294.225
294.139
294.047
293.953
293.844
293.716
293.561
293.376
293.175
292.967
292.766
292.598
292.446
294.342
294.219
294.108
293.996
293.887
293.77
293.64
293.489
293.315
293.124
292.929
292.753
292.609
292.495
294.363
294.214
294.077
293.945
293.82
293.691
293.555
293.404
293.239
293.063
292.886
292.733
292.609
292.521
294.381
294.211
294.054
293.903
293.764
293.631
293.495
293.347
293.185
293.021
292.86
292.728
292.624
292.553
294.386
294.195
294.023
293.873
293.737
293.604
293.467
293.319
293.163
293.008
292.861
292.744
292.653
292.59
294.391
294.192
294.02
293.871
293.735
293.605
293.47
293.324
293.17
293.021
292.883
292.776
292.693
292.629
294.409
294.211
294.038
293.894
293.763
293.635
293.501
293.356
293.206
293.062
292.933
292.832
292.75
292.679
294.44
294.24
294.067
293.927
293.804
293.684
293.555
293.414
293.268
293.13
293.007
292.905
292.815
292.729
294.488
294.292
294.118
293.982
293.861
293.744
293.617
293.481
293.34
293.207
293.087
292.981
292.883
292.781
294.563
294.368
294.191
294.054
293.931
293.813
293.685
293.551
293.414
293.284
293.164
293.055
292.948
292.834
294.638
294.447
294.275
294.137
294.013
293.893
293.765
293.633
293.497
293.369
293.247
293.129
293.011
292.884
294.725
294.538
294.373
294.234
294.11
293.991
293.863
293.73
293.597
293.467
293.34
293.213
293.087
292.95
294.768
294.586
294.454
294.326
294.212
294.1
293.98
293.854
293.727
293.599
293.47
293.331
293.19
293.013
294.899
294.857
294.816
294.775
294.731
294.666
294.581
294.457
294.307
294.108
293.888
293.649
293.418
293.177
294.936
294.852
294.794
294.739
294.684
294.609
294.519
294.392
294.239
294.048
293.84
293.617
293.399
293.21
294.94
294.832
294.752
294.676
294.608
294.523
294.428
294.3
294.154
293.977
293.781
293.579
293.394
293.236
294.928
294.798
294.697
294.6
294.517
294.42
294.322
294.197
294.052
293.88
293.699
293.523
293.366
293.236
294.9
294.761
294.646
294.538
294.445
294.339
294.232
294.106
293.965
293.804
293.634
293.475
293.337
293.226
294.869
294.728
294.604
294.491
294.391
294.282
294.17
294.039
293.896
293.74
293.581
293.438
293.315
293.214
294.836
294.696
294.574
294.458
294.36
294.251
294.136
294.005
293.861
293.708
293.556
293.42
293.302
293.203
294.815
294.676
294.559
294.444
294.347
294.24
294.123
293.991
293.845
293.694
293.548
293.415
293.296
293.19
294.806
294.668
294.554
294.448
294.348
294.244
294.125
293.993
293.846
293.698
293.553
293.419
293.293
293.176
294.804
294.672
294.559
294.459
294.357
294.252
294.13
293.998
293.852
293.706
293.562
293.426
293.294
293.162
294.803
294.68
294.569
294.469
294.372
294.264
294.142
294.008
293.863
293.717
293.57
293.429
293.287
293.144
294.791
294.681
294.578
294.483
294.385
294.279
294.156
294.023
293.88
293.736
293.586
293.436
293.282
293.126
294.766
294.668
294.581
294.495
294.404
294.303
294.188
294.058
293.918
293.773
293.618
293.455
293.283
293.115
294.728
294.648
294.584
294.508
294.427
294.333
294.231
294.119
293.987
293.845
293.689
293.518
293.327
293.08
296.071
296.039
296.04
296.031
296.014
295.972
295.911
295.8
295.669
295.478
295.265
295.015
294.743
294.44
296.09
296.029
296.008
295.98
295.952
295.897
295.829
295.719
295.591
295.409
295.205
294.96
294.711
294.454
296.073
295.984
295.944
295.895
295.863
295.81
295.749
295.644
295.518
295.342
295.147
294.921
294.697
294.476
296.027
295.935
295.881
295.818
295.775
295.707
295.638
295.53
295.402
295.233
295.049
294.845
294.652
294.463
295.976
295.884
295.818
295.741
295.688
295.609
295.535
295.426
295.301
295.139
294.967
294.781
294.604
294.432
295.918
295.83
295.751
295.671
295.605
295.516
295.434
295.319
295.19
295.033
294.868
294.697
294.533
294.373
295.864
295.772
295.684
295.601
295.523
295.431
295.34
295.219
295.087
294.934
294.774
294.612
294.456
294.304
295.812
295.71
295.619
295.529
295.443
295.347
295.248
295.124
294.988
294.836
294.677
294.521
294.364
294.213
295.747
295.643
295.55
295.455
295.366
295.267
295.162
295.035
294.896
294.745
294.586
294.43
294.269
294.116
295.669
295.57
295.479
295.381
295.29
295.188
295.079
294.951
294.81
294.661
294.5
294.341
294.171
294.007
295.582
295.492
295.407
295.312
295.221
295.119
295.005
294.874
294.727
294.573
294.403
294.237
294.057
293.889
295.468
295.392
295.322
295.244
295.152
295.055
294.943
294.812
294.661
294.503
294.323
294.144
293.954
293.769
295.322
295.277
295.233
295.173
295.103
295.005
294.899
294.774
294.615
294.447
294.252
294.05
293.838
293.651
295.171
295.15
295.131
295.095
295.04
294.956
294.863
294.756
294.608
294.45
294.256
294.042
293.796
293.515
297.869
297.812
297.809
297.791
297.778
297.741
297.691
297.6
297.479
297.306
297.129
296.899
296.656
296.361
297.825
297.75
297.733
297.695
297.674
297.63
297.578
297.49
297.373
297.204
297.023
296.795
296.57
296.323
297.771
297.688
297.665
297.617
297.595
297.549
297.497
297.412
297.301
297.14
296.962
296.739
296.52
296.279
297.687
297.613
297.576
297.517
297.489
297.435
297.379
297.292
297.181
297.026
296.854
296.645
296.443
296.226
297.601
297.537
297.487
297.423
297.387
297.326
297.266
297.176
297.065
296.916
296.753
296.558
296.365
296.159
297.516
297.451
297.39
297.325
297.281
297.213
297.144
297.048
296.933
296.787
296.628
296.446
296.262
296.067
297.415
297.347
297.28
297.215
297.166
297.094
297.019
296.919
296.8
296.656
296.499
296.328
296.149
295.966
297.305
297.23
297.167
297.096
297.047
296.971
296.89
296.786
296.663
296.519
296.359
296.192
296.008
295.828
297.178
297.102
297.047
296.968
296.922
296.842
296.756
296.65
296.523
296.38
296.219
296.055
295.869
295.694
297.042
296.972
296.923
296.838
296.797
296.714
296.623
296.516
296.386
296.242
296.076
295.907
295.708
295.527
296.893
296.837
296.797
296.713
296.675
296.591
296.493
296.382
296.245
296.096
295.92
295.743
295.535
295.349
296.721
296.677
296.659
296.592
296.558
296.478
296.375
296.264
296.122
295.967
295.782
295.59
295.367
295.16
296.522
296.517
296.522
296.478
296.446
296.375
296.267
296.154
296
295.833
295.629
295.416
295.179
294.957
296.313
296.33
296.366
296.354
296.329
296.273
296.17
296.068
295.914
295.747
295.539
295.31
295.036
294.736
300.227
300.139
300.133
300.096
300.068
300.021
299.962
299.877
299.771
299.634
299.494
299.317
299.151
298.935
300.143
300.057
300.034
299.986
299.953
299.905
299.847
299.765
299.663
299.527
299.376
299.19
299.025
298.836
300.068
299.989
299.961
299.905
299.866
299.811
299.75
299.669
299.57
299.442
299.296
299.118
298.947
298.756
299.986
299.911
299.87
299.805
299.76
299.701
299.636
299.554
299.453
299.325
299.18
299.008
298.837
298.651
299.88
299.817
299.768
299.7
299.651
299.589
299.521
299.436
299.334
299.208
299.065
298.899
298.731
298.549
299.772
299.711
299.655
299.585
299.532
299.467
299.396
299.308
299.203
299.077
298.934
298.774
298.607
298.429
299.639
299.581
299.526
299.458
299.404
299.337
299.263
299.173
299.066
298.941
298.8
298.645
298.48
298.308
299.499
299.439
299.391
299.322
299.267
299.199
299.121
299.029
298.921
298.796
298.655
298.504
298.336
298.166
299.345
299.287
299.247
299.176
299.122
299.053
298.972
298.879
298.77
298.647
298.508
298.36
298.191
298.025
299.184
299.128
299.097
299.03
298.976
298.908
298.822
298.728
298.617
298.492
298.35
298.199
298.019
297.851
299.015
298.966
298.952
298.891
298.834
298.763
298.672
298.574
298.459
298.331
298.185
298.03
297.848
297.68
298.826
298.784
298.8
298.754
298.699
298.626
298.53
298.429
298.308
298.175
298.022
297.855
297.657
297.479
298.631
298.626
298.646
298.61
298.565
298.495
298.393
298.284
298.148
298.002
297.835
297.652
297.455
297.25
298.392
298.423
298.471
298.454
298.426
298.364
298.262
298.154
298.01
297.858
297.68
297.477
297.246
296.991
302.749
302.634
302.587
302.521
302.464
302.396
302.326
302.245
302.161
302.069
301.982
301.889
301.812
301.727
302.627
302.53
302.476
302.402
302.338
302.267
302.195
302.115
302.032
301.941
301.851
301.751
301.668
301.573
302.54
302.443
302.382
302.302
302.234
302.159
302.085
302.006
301.924
301.836
301.746
301.649
301.561
301.463
302.435
302.34
302.272
302.189
302.118
302.041
301.966
301.886
301.802
301.712
301.619
301.519
301.423
301.32
302.318
302.23
302.16
302.078
302.006
301.929
301.853
301.771
301.686
301.594
301.497
301.395
301.293
301.189
302.191
302.107
302.039
301.959
301.888
301.812
301.734
301.651
301.563
301.468
301.368
301.263
301.156
301.05
302.05
301.972
301.911
301.836
301.767
301.693
301.614
301.53
301.44
301.344
301.242
301.136
301.025
300.917
301.907
301.83
301.779
301.709
301.641
301.568
301.489
301.404
301.313
301.216
301.112
301.006
300.89
300.78
301.757
301.685
301.644
301.578
301.51
301.439
301.359
301.275
301.183
301.087
300.983
300.877
300.759
300.647
301.613
301.547
301.511
301.448
301.38
301.309
301.227
301.143
301.051
300.954
300.849
300.74
300.615
300.501
301.467
301.411
301.378
301.318
301.248
301.176
301.092
301.008
300.916
300.819
300.713
300.602
300.474
300.359
301.322
301.271
301.248
301.196
301.126
301.053
300.965
300.878
300.781
300.681
300.57
300.45
300.314
300.193
301.183
301.149
301.118
301.068
301.001
300.93
300.836
300.745
300.641
300.535
300.416
300.288
300.154
300.009
300.994
300.987
300.986
300.945
300.884
300.817
300.721
300.63
300.519
300.407
300.278
300.135
299.979
299.814
304.903
304.794
304.723
304.641
304.565
304.481
304.394
304.301
304.209
304.122
304.052
303.996
303.974
303.957
304.788
304.686
304.612
304.525
304.444
304.355
304.264
304.169
304.077
303.991
303.921
303.866
303.839
303.803
304.679
304.584
304.507
304.419
304.335
304.245
304.154
304.062
303.973
303.889
303.82
303.765
303.732
303.699
304.559
304.467
304.388
304.302
304.218
304.13
304.04
303.948
303.86
303.776
303.703
303.643
303.601
303.565
304.43
304.345
304.271
304.188
304.108
304.023
303.936
303.847
303.759
303.675
303.598
303.532
303.479
303.439
304.295
304.215
304.147
304.07
303.994
303.913
303.829
303.742
303.655
303.57
303.489
303.417
303.354
303.306
304.157
304.082
304.022
303.953
303.882
303.806
303.726
303.642
303.556
303.47
303.387
303.31
303.238
303.182
304.024
303.951
303.899
303.834
303.768
303.697
303.62
303.539
303.454
303.368
303.283
303.203
303.125
303.061
303.897
303.825
303.779
303.719
303.655
303.587
303.513
303.435
303.352
303.268
303.183
303.101
303.019
302.951
303.779
303.709
303.665
303.606
303.543
303.477
303.405
303.33
303.249
303.167
303.082
302.999
302.913
302.842
303.668
303.601
303.557
303.498
303.434
303.368
303.297
303.224
303.146
303.066
302.983
302.901
302.814
302.744
303.571
303.507
303.458
303.398
303.332
303.266
303.193
303.12
303.043
302.964
302.881
302.797
302.709
302.639
303.466
303.414
303.36
303.299
303.233
303.168
303.094
303.021
302.943
302.866
302.783
302.7
302.613
302.533
303.378
303.32
303.271
303.214
303.149
303.086
303.012
302.938
302.859
302.781
302.695
302.609
302.514
302.444
306.454
306.373
306.297
306.222
306.15
306.072
305.989
305.897
305.801
305.705
305.623
305.553
305.524
305.495
306.35
306.267
306.194
306.117
306.043
305.962
305.874
305.777
305.678
305.582
305.501
305.437
305.408
305.379
306.231
306.161
306.087
306.013
305.939
305.859
305.772
305.678
305.582
305.49
305.411
305.35
305.318
305.295
306.11
306.042
305.974
305.903
305.832
305.753
305.669
305.577
305.483
305.392
305.313
305.251
305.214
305.192
305.984
305.922
305.861
305.795
305.729
305.656
305.576
305.489
305.399
305.311
305.231
305.167
305.123
305.099
305.859
305.799
305.746
305.686
305.625
305.558
305.483
305.402
305.315
305.229
305.147
305.08
305.028
304.998
305.739
305.681
305.634
305.58
305.525
305.465
305.396
305.321
305.238
305.155
305.072
305
304.94
304.906
305.629
305.57
305.527
305.477
305.426
305.371
305.309
305.239
305.161
305.08
304.996
304.922
304.854
304.814
305.53
305.469
305.428
305.379
305.331
305.28
305.222
305.158
305.085
305.006
304.923
304.846
304.773
304.728
305.443
305.379
305.338
305.288
305.24
305.191
305.136
305.076
305.006
304.931
304.849
304.771
304.695
304.647
305.369
305.303
305.258
305.205
305.154
305.105
305.051
304.993
304.927
304.854
304.774
304.699
304.623
304.578
305.307
305.239
305.19
305.133
305.079
305.027
304.971
304.914
304.848
304.778
304.7
304.627
304.553
304.512
305.252
305.182
305.13
305.071
305.012
304.959
304.9
304.842
304.776
304.707
304.633
304.564
304.495
304.456
305.218
305.131
305.082
305.025
304.964
304.909
304.847
304.787
304.72
304.653
304.58
304.515
304.443
304.429
307.451
307.405
307.341
307.285
307.227
307.165
307.098
307.022
306.939
306.847
306.759
306.671
306.614
306.543
307.347
307.3
307.242
307.186
307.128
307.066
306.996
306.916
306.828
306.734
306.646
306.563
306.51
306.447
307.229
307.191
307.135
307.083
307.027
306.965
306.897
306.819
306.733
306.643
306.559
306.481
306.431
306.375
307.117
307.078
307.028
306.977
306.924
306.864
306.796
306.719
306.634
306.547
306.463
306.389
306.339
306.292
307.005
306.967
306.92
306.873
306.823
306.766
306.702
306.628
306.547
306.463
306.382
306.311
306.26
306.218
306.898
306.857
306.815
306.769
306.722
306.669
306.607
306.537
306.459
306.379
306.298
306.23
306.177
306.138
306.799
306.754
306.716
306.671
306.627
306.576
306.518
306.453
306.379
306.303
306.224
306.156
306.099
306.064
306.709
306.66
306.622
306.577
306.534
306.486
306.431
306.37
306.3
306.227
306.149
306.083
306.021
305.988
306.631
306.576
306.537
306.49
306.447
306.4
306.348
306.291
306.224
306.155
306.079
306.013
305.949
305.916
306.565
306.503
306.461
306.411
306.366
306.319
306.268
306.213
306.148
306.082
306.009
305.946
305.879
305.848
306.511
306.444
306.397
306.342
306.293
306.244
306.192
306.137
306.074
306.011
305.94
305.881
305.815
305.788
306.471
306.398
306.346
306.285
306.231
306.178
306.123
306.066
306.003
305.941
305.874
305.82
305.756
305.733
306.44
306.363
306.307
306.241
306.181
306.124
306.063
306.003
305.938
305.877
305.813
305.764
305.706
305.686
306.431
306.328
306.277
306.208
306.144
306.083
306.019
305.956
305.889
305.829
305.766
305.72
305.661
305.666
308.054
308.031
307.982
307.942
307.896
307.85
307.8
307.744
307.685
307.617
307.548
307.468
307.4
307.312
307.95
307.926
307.882
307.843
307.797
307.75
307.699
307.641
307.578
307.508
307.437
307.359
307.296
307.217
307.842
307.821
307.776
307.738
307.693
307.646
307.595
307.539
307.478
307.409
307.343
307.271
307.212
307.143
307.741
307.716
307.673
307.633
307.588
307.541
307.489
307.432
307.37
307.303
307.238
307.17
307.116
307.059
307.644
307.613
307.57
307.529
307.483
307.436
307.384
307.328
307.268
307.204
307.142
307.08
307.032
306.985
307.552
307.513
307.471
307.426
307.38
307.332
307.279
307.224
307.165
307.104
307.044
306.988
306.944
306.907
307.466
307.421
307.377
307.329
307.281
307.232
307.18
307.126
307.068
307.01
306.953
306.903
306.862
306.833
307.386
307.334
307.288
307.236
307.187
307.136
307.084
307.031
306.974
306.92
306.865
306.82
306.78
306.759
307.314
307.254
307.205
307.15
307.099
307.047
306.994
306.942
306.886
306.835
306.782
306.742
306.702
306.687
307.249
307.183
307.131
307.071
307.018
306.964
306.91
306.859
306.803
306.755
306.703
306.667
306.628
306.62
307.191
307.121
307.065
307.002
306.945
306.889
306.834
306.782
306.726
306.679
306.629
306.596
306.56
306.56
307.144
307.068
307.009
306.941
306.881
306.822
306.765
306.711
306.655
306.609
306.561
306.532
306.499
306.505
307.106
307.028
306.965
306.894
306.83
306.767
306.706
306.65
306.593
306.547
306.501
306.475
306.448
306.455
307.076
306.977
306.919
306.847
306.782
306.717
306.654
306.597
306.539
306.495
306.45
306.426
306.397
306.418
308.397
308.386
308.35
308.321
308.285
308.25
308.214
308.175
308.136
308.091
308.046
307.992
307.941
307.862
308.3
308.288
308.252
308.221
308.185
308.149
308.111
308.071
308.029
307.982
307.936
307.882
307.832
307.757
308.204
308.189
308.15
308.119
308.08
308.044
308.005
307.965
307.925
307.879
307.836
307.784
307.737
307.668
308.112
308.091
308.051
308.016
307.976
307.937
307.897
307.856
307.814
307.769
307.726
307.676
307.633
307.573
308.024
307.995
307.953
307.915
307.872
307.831
307.789
307.747
307.706
307.661
307.621
307.575
307.535
307.485
307.938
307.9
307.857
307.814
307.77
307.726
307.682
307.639
307.596
307.554
307.514
307.472
307.437
307.398
307.856
307.811
307.765
307.718
307.671
307.624
307.578
307.534
307.491
307.45
307.411
307.376
307.345
307.317
307.776
307.724
307.676
307.625
307.575
307.526
307.478
307.433
307.39
307.35
307.314
307.284
307.257
307.24
307.699
307.642
307.591
307.537
307.485
307.434
307.384
307.339
307.295
307.259
307.224
307.201
307.179
307.171
307.626
307.564
307.512
307.454
307.4
307.348
307.297
307.252
307.208
307.175
307.142
307.124
307.107
307.108
307.556
307.492
307.438
307.378
307.323
307.27
307.218
307.174
307.131
307.1
307.071
307.057
307.044
307.052
307.493
307.425
307.37
307.308
307.252
307.198
307.146
307.103
307.061
307.033
307.006
306.996
306.987
307.001
307.436
307.368
307.312
307.249
307.192
307.137
307.085
307.043
307.003
306.977
306.954
306.947
306.942
306.958
307.381
307.302
307.25
307.188
307.132
307.079
307.029
306.989
306.951
306.928
306.906
306.901
306.898
306.922
308.6
308.601
308.579
308.56
308.536
308.512
308.487
308.461
308.436
308.409
308.382
308.351
308.321
308.277
308.516
308.512
308.487
308.466
308.44
308.413
308.387
308.358
308.332
308.303
308.274
308.24
308.211
308.162
308.432
308.424
308.394
308.37
308.341
308.313
308.284
308.255
308.228
308.199
308.172
308.138
308.11
308.06
308.347
308.333
308.302
308.273
308.242
308.211
308.181
308.151
308.123
308.093
308.065
308.032
308.003
307.956
308.266
308.244
308.211
308.179
308.145
308.112
308.08
308.048
308.019
307.989
307.961
307.929
307.9
307.859
308.182
308.154
308.119
308.084
308.048
308.014
307.98
307.947
307.917
307.886
307.858
307.827
307.799
307.763
308.102
308.067
308.031
307.993
307.955
307.919
307.883
307.849
307.817
307.786
307.758
307.73
307.703
307.674
308.022
307.982
307.944
307.904
307.865
307.827
307.79
307.755
307.722
307.691
307.663
307.638
307.613
307.592
307.943
307.899
307.861
307.819
307.779
307.74
307.701
307.666
307.632
307.603
307.576
307.555
307.533
307.519
307.867
307.82
307.781
307.737
307.697
307.657
307.618
307.583
307.549
307.522
307.497
307.479
307.462
307.455
307.792
307.743
307.704
307.66
307.62
307.581
307.541
307.508
307.475
307.45
307.428
307.414
307.401
307.4
307.721
307.67
307.631
307.587
307.547
307.509
307.471
307.439
307.409
307.387
307.368
307.359
307.35
307.354
307.654
307.605
307.565
307.522
307.482
307.446
307.41
307.381
307.354
307.335
307.321
307.316
307.313
307.321
307.587
307.533
307.496
307.456
307.42
307.386
307.355
307.329
307.307
307.292
307.281
307.279
307.278
307.289
308.728
308.735
308.73
308.724
308.718
308.71
308.702
308.691
308.68
308.668
308.657
308.644
308.632
308.61
308.659
308.664
308.657
308.649
308.64
308.629
308.618
308.604
308.591
308.577
308.563
308.547
308.535
308.508
308.59
308.593
308.583
308.572
308.559
308.546
308.532
308.516
308.501
308.485
308.471
308.453
308.44
308.411
308.518
308.517
308.504
308.491
308.475
308.459
308.443
308.426
308.41
308.392
308.376
308.356
308.341
308.313
308.448
308.44
308.425
308.409
308.391
308.373
308.355
308.336
308.318
308.299
308.282
308.261
308.243
308.214
308.374
308.361
308.344
308.326
308.306
308.286
308.267
308.247
308.228
308.208
308.188
308.167
308.146
308.118
308.3
308.283
308.264
308.244
308.223
308.202
308.181
308.16
308.139
308.118
308.097
308.075
308.052
308.026
308.226
308.206
308.186
308.164
308.141
308.12
308.098
308.076
308.054
308.032
308.01
307.987
307.963
307.939
308.153
308.13
308.108
308.086
308.063
308.04
308.017
307.995
307.973
307.951
307.928
307.906
307.882
307.861
308.08
308.055
308.034
308.011
307.987
307.965
307.941
307.919
307.897
307.875
307.852
307.831
307.809
307.792
308.009
307.983
307.962
307.939
307.915
307.893
307.87
307.848
307.826
307.805
307.783
307.764
307.744
307.731
307.94
307.914
307.893
307.87
307.847
307.825
307.803
307.783
307.761
307.742
307.722
307.706
307.689
307.68
307.874
307.849
307.828
307.806
307.783
307.763
307.743
307.724
307.705
307.687
307.67
307.656
307.642
307.637
307.806
307.782
307.763
307.743
307.723
307.706
307.688
307.671
307.655
307.64
307.627
307.615
307.604
307.597
308.782
308.793
308.802
308.81
308.818
308.825
308.831
308.834
308.835
308.834
308.833
308.83
308.828
308.82
308.734
308.745
308.754
308.761
308.768
308.773
308.777
308.778
308.777
308.774
308.771
308.766
308.763
308.752
308.685
308.696
308.703
308.709
308.715
308.718
308.72
308.718
308.715
308.711
308.706
308.7
308.695
308.684
308.632
308.642
308.648
308.654
308.658
308.659
308.658
308.655
308.651
308.644
308.638
308.63
308.623
308.611
308.578
308.586
308.592
308.596
308.598
308.597
308.595
308.59
308.583
308.576
308.568
308.558
308.549
308.535
308.52
308.526
308.531
308.534
308.535
308.532
308.529
308.522
308.515
308.505
308.495
308.484
308.472
308.455
308.462
308.466
308.47
308.472
308.471
308.467
308.462
308.454
308.444
308.433
308.421
308.408
308.392
308.373
308.401
308.405
308.407
308.408
308.405
308.401
308.393
308.383
308.372
308.36
308.346
308.33
308.311
308.291
308.341
308.343
308.345
308.344
308.339
308.333
308.323
308.312
308.3
308.286
308.27
308.252
308.232
308.211
308.28
308.281
308.281
308.279
308.273
308.264
308.254
308.242
308.228
308.213
308.196
308.177
308.156
308.136
308.22
308.218
308.217
308.213
308.206
308.197
308.186
308.173
308.159
308.144
308.126
308.107
308.086
308.069
308.16
308.156
308.154
308.15
308.142
308.133
308.121
308.108
308.094
308.078
308.06
308.04
308.021
308.006
308.102
308.097
308.093
308.089
308.081
308.072
308.06
308.046
308.032
308.015
307.998
307.979
307.961
307.949
308.039
308.037
308.035
308.03
308.022
308.013
308.001
307.988
307.973
307.957
307.941
307.924
307.909
307.899
308.782
308.798
308.811
308.825
308.839
308.851