/*--------------------------------*- C++ -*----------------------------------*\
| =========                 |                                                 |
| \\      /  F ield         | OpenFOAM: The Open Source CFD Toolbox           |
|  \\    /   O peration     | Version:  v2106                                 |
|   \\  /    A nd           | Website:  www.openfoam.com                      |
|    \\/     M anipulation  |                                                 |
\*---------------------------------------------------------------------------*/
FoamFile
{
    version     2.0;
    format      ascii;
    arch        "LSB;label=32;scalar=64";
    class       volScalarField;
    location    "0.000214";
    object      p;
}
// * * * * * * * * * * * * * * * * * * * * * * * * * * * * * * * * * * * * * //

dimensions      [1 -1 -2 0 0 0 0];

internalField   nonuniform List<scalar> 
144746
(
194456
194312
194070
193995
193914
193908
193889
193868
193873
193964
193981
194104
194063
194490
194284
194428
194258
194248
194204
194217
194231
194245
194262
194298
194314
194355
194341
194565
194399
194572
194474
194492
194484
194523
194563
194596
194615
194619
194604
194571
194491
194520
194471
194653
194630
194697
194749
194827
194889
194939
194963
194958
194925
194829
194698
194570
194547
194721
194772
194870
194966
195073
195157
195221
195253
195246
195205
195106
194928
194701
194604
194780
194896
195035
195173
195297
195401
195470
195501
195499
195454
195342
195162
194889
194644
194815
194987
195169
195334
195474
195584
195661
195695
195690
195646
195538
195360
195083
194692
194867
195073
195284
195461
195613
195730
195815
195853
195843
195791
195684
195506
195249
194743
194921
195149
195367
195553
195708
195826
195913
195955
195947
195897
195790
195633
195409
194810
194981
195220
195427
195613
195763
195881
195968
196016
196016
195959
195856
195716
195528
194895
195065
195268
195464
195635
195774
195889
195973
196025
196034
195987
195900
195786
195630
194978
195106
195290
195457
195611
195741
195853
195941
196002
196018
195985
195914
195820
195688
195091
195155
195295
195435
195564
195676
195779
195868
195934
195954
195944
195879
195812
195661
195120
195055
195221
195362
195490
195585
195681
195770
195840
195878
195910
195930
195945
195926
194032
194438
194431
194484
194555
194658
194744
194828
194923
195059
195164
195344
195413
195919
193926
194393
194460
194592
194708
194839
194985
195123
195258
195402
195554
195756
195855
196224
194077
194483
194553
194702
194858
195011
195195
195362
195515
195670
195800
195951
196029
196262
194157
194515
194629
194795
194983
195145
195352
195542
195714
195848
195974
196109
196210
196327
194247
194552
194701
194878
195067
195260
195477
195676
195838
195975
196086
196190
196311
196396
194325
194586
194758
194953
195149
195361
195576
195776
195941
196066
196169
196258
196350
196446
194341
194595
194770
194985
195195
195420
195639
195839
195998
196122
196228
196304
196391
196483
194334
194592
194790
195023
195247
195477
195692
195881
196033
196149
196244
196315
196386
196480
194318
194578
194798
195038
195268
195497
195704
195888
196035
196151
196238
196311
196379
196459
194319
194580
194820
195065
195296
195514
195709
195880
196017
196131
196213
196284
196345
196420
194345
194589
194834
195061
195285
195491
195675
195836
195967
196085
196163
196256
196303
196377
194344
194577
194809
195030
195245
195444
195623
195779
195907
196020
196099
196206
196260
196309
194349
194537
194760
194959
195157
195343
195516
195669
195804
195925
196028
196130
196211
196220
194168
194342
194616
194835
195030
195215
195391
195550
195694
195815
195943
196074
196201
196228
193783
194470
194681
194916
195094
195294
195456
195620
195759
195893
196025
196180
196252
196717
194043
194684
194921
195160
195356
195565
195766
195962
196146
196322
196485
196675
196842
197280
194471
194979
195254
195485
195682
195902
196124
196344
196534
196684
196836
196977
197123
197459
194818
195234
195514
195751
195956
196187
196427
196662
196862
197025
197159
197278
197410
197644
195105
195462
195745
195983
196204
196449
196707
196953
197161
197320
197448
197539
197662
197820
195312
195655
195939
196186
196426
196682
196946
197194
197404
197568
197697
197788
197893
197995
195429
195783
196082
196351
196614
196886
197156
197405
197612
197777
197910
198006
198100
198170
195581
195944
196256
196543
196816
197093
197356
197597
197799
197962
198094
198203
198287
198345
195687
196079
196417
196721
197002
197278
197535
197770
197967
198135
198267
198385
198465
198523
195821
196234
196598
196918
197199
197468
197713
197938
198129
198297
198431
198554
198638
198690
195919
196374
196749
197066
197348
197613
197852
198074
198266
198441
198583
198716
198809
198846
195940
196415
196822
197158
197453
197725
197971
198195
198390
198567
198711
198839
198939
198940
195867
196343
196776
197133
197447
197738
198006
198250
198460
198651
198805
198938
199046
199077
195460
196105
196597
197037
197386
197705
198000
198271
198501
198692
198837
198941
199093
199073
195195
195932
195721
195997
195757
197026
194010
194516
194544
195243
195407
196367
194178
194445
194383
195039
195057
196336
194257
194316
194144
194698
194746
196032
194421
194372
194187
194666
194540
196098
194569
194444
194230
194672
194538
196288
194740
194589
194382
194789
194711
196315
194914
194758
194539
194866
194735
196443
195102
194988
194762
195169
195036
196227
195270
195189
194964
195408
195411
196132
195477
195480
195351
195671
195704
196245
195606
195577
195477
195718
195792
196308
195687
195727
195741
195987
196069
196434
195246
195305
195287
195606
195772
196011
196779
197270
197065
197216
196808
197560
195768
196212
196096
196637
196577
197559
196045
196421
196320
197000
197001
197774
196198
196428
196350
196983
197167
197410
196356
196539
196528
197095
197270
197485
196449
196593
196616
197079
197253
197431
196514
196641
196682
197045
197223
197398
196530
196634
196678
196912
197042
197255
196516
196585
196607
196750
196812
197008
196461
196501
196484
196553
196615
196776
196408
196427
196441
196477
196546
196670
196399
196359
196371
196347
196433
196525
196366
196293
196286
196319
196423
196455
195879
195814
195780
195791
195945
195981
197679
197975
198012
198123
197829
198033
197014
197386
197283
197678
197587
197891
197325
197614
197499
197861
197755
198238
197578
197778
197695
197984
197982
198358
197817
197960
197916
198106
198120
198252
198042
198124
198071
198099
198068
198049
198241
198275
198215
198101
198003
197816
198412
198421
198353
198114
197926
197521
198573
198580
198482
198153
197856
197189
198731
198729
198605
198213
197802
196963
198901
198885
198747
198284
197760
196834
199032
199008
198853
198297
197678
196701
199175
199088
198868
198230
197605
196555
198946
198758
198371
197681
196965
196028
196227
196604
196395
196649
196529
197083
195557
195888
195730
196101
195988
196110
195677
195847
195655
196042
195995
196331
195696
195721
195526
195751
195735
195926
195722
195667
195526
195651
195726
195955
195696
195592
195467
195502
195540
195719
195629
195503
195395
195414
195479
195745
195554
195414
195328
195317
195369
195647
195465
195327
195278
195260
195322
195650
195415
195252
195224
195194
195241
195572
195366
195179
195137
195122
195168
195576
195321
195146
195072
195110
195106
195477
195275
195166
195032
195110
195129
195705
194545
194401
194305
194521
194707
195311
196476
196615
196481
196522
196496
196700
195997
196133
195989
196061
195998
195889
195914
195965
195806
195850
195888
195894
195793
195779
195631
195591
195633
195481
195692
195613
195488
195389
195459
195407
195560
195437
195313
195185
195209
195123
195400
195247
195121
194996
195046
194949
195233
195042
194922
194786
194838
194689
195065
194815
194707
194569
194705
194534
194909
194585
194497
194334
194491
194335
194764
194377
194302
194103
194228
194202
194613
194199
194112
193942
193997
193917
194477
194067
193947
193843
193977
194140
193642
193213
193083
193144
193407
193510
199385
199356
199098
198307
197479
196258
199072
199053
198875
198033
197215
195815
198967
198878
198638
197757
196945
195325
198820
198689
198411
197476
196572
194755
198653
198461
198098
197117
196074
193931
198407
198174
197748
196712
195517
193114
198129
197839
197340
196195
194862
192134
197804
197455
196836
195568
194112
191051
197447
197040
196271
194870
193336
189998
197091
196599
195728
194117
192584
189080
196747
196093
195223
193383
191930
188507
196425
195495
194684
192718
191359
187979
196066
194860
194104
192267
191043
188247
194775
193312
192496
190912
190118
187640
196441
194913
194678
193916
193604
193581
196413
195610
195521
194973
194694
194661
195776
195129
195025
194574
194476
194562
196507
194687
194750
194421
194448
194548
196787
194388
194443
194249
194358
194514
196027
194885
194696
194382
194385
194525
195704
194795
194703
194414
194421
194548
195728
194766
194744
194498
194511
194596
195530
194687
194689
194500
194562
194620
195630
194874
194827
194598
194661
194673
195381
194741
194755
194579
194713
194713
195592
194877
194998
194751
194899
194760
195373
194827
194999
194760
194977
194775
196108
195535
195728
195633
195586
195360
195017
193670
193357
192766
192626
192998
194855
194038
194006
193805
193852
194248
194472
193719
193665
193543
193693
194159
194827
193663
193665
193562
193718
194151
194531
193548
193591
193568
193752
194146
194321
193588
193627
193676
193836
194169
194163
193452
193555
193663
193844
194142
194120
193513
193600
193699
193866
194124
194003
193482
193544
193647
193824
194086
194034
193628
193604
193654
193820
194068
193840
193526
193523
193607
193821
194059
193945
193698
193687
193645
193846
194006
193859
193656
193653
193633
193887
193962
194461
194404
194398
194450
194374
194379
190514
191017
190759
190955
191336
192513
190207
191350
191481
192350
192904
194153
189200
190879
191159
192375
193000
194281
188983
190931
191290
192613
193273
194463
188579
190957
191474
192848
193591
194619
188867
191307
191939
193197
193970
194796
189285
191678
192301
193446
194210
194937
189755
192037
192666
193739
194456
195100
190074
192156
192837
193859
194580
195192
190165
192115
192897
193950
194704
195304
189884
191837
192749
193919
194730
195377
189551
191616
192631
193887
194704
195373
189031
191228
192196
193688
194584
195264
188579
191078
192285
193858
194629
195290
196891
195656
195367
194348
193878
193581
196818
195765
195557
194839
194498
194299
196923
195637
195330
194465
194187
194082
196959
195492
195235
194321
194031
193869
196925
195228
194956
193977
193782
193719
196822
195070
194794
193834
193682
193564
196646
194883
194557
193659
193546
193504
196375
194792
194409
193602
193536
193542
196094
194743
194298
193629
193598
193602
196060
194729
194408
193781
193724
193660
195804
194731
194494
193853
193808
193726
196308
195018
194810
194122
194094
193834
196145
194874
194952
194290
194236
193798
197039
195790
195992
195682
195804
195134
196727
196044
195614
194946
194682
194675
196678
195848
195742
195436
195345
195536
196406
195350
195293
194901
194928
195204
196309
194989
195058
194606
194664
194898
196062
194573
194704
194249
194453
194723
195872
194331
194532
194097
194327
194583
195671
194136
194342
193987
194267
194507
195476
194259
194348
194038
194282
194461
195255
194358
194429
194134
194312
194422
195251
194421
194585
194221
194333
194355
195114
194476
194589
194128
194263
194258
195636
194540
194616
194100
194293
194166
195302
194158
194387
193946
194086
193956
195779
194825
195135
195031
195173
194815
196858
196341
195812
195475
195465
195618
196854
196027
195864
195772
195832
196299
195953
195249
195212
195227
195453
195929
195729
194833
194890
194880
195181
195626
195364
194387
194568
194571
194984
195442
195234
194105
194342
194357
194787
195267
194970
193895
194156
194251
194676
195132
194768
193985
194140
194243
194626
195033
194476
194039
194208
194262
194578
194931
194494
194061
194175
194143
194438
194737
194013
193545
193717
193801
194144
194483
193827
193225
193393
193488
193841
194167
192626
192751
192964
193219
193553
193812
192484
192759
193294
194088
194110
194412
194519
195005
195196
195368
195504
195653
195799
195928
196062
196216
196408
196675
196875
197309
194877
195315
195503
195704
195857
196023
196197
196371
196556
196746
196937
197181
197429
197938
195271
195658
195848
196043
196193
196359
196545
196742
196946
197137
197332
197544
197792
198230
195602
195945
196144
196336
196493
196670
196878
197099
197321
197529
197726
197926
198146
198524
195928
196206
196400
196581
196756
196954
197184
197422
197656
197868
198069
198259
198478
198811
196227
196441
196622
196806
197000
197221
197469
197723
197967
198190
198396
198594
198822
199126
196497
196682
196860
197051
197256
197492
197749
198011
198260
198490
198703
198914
199143
199438
196805
196975
197147
197336
197542
197779
198034
198296
198547
198784
199005
199235
199461
199760
197102
197274
197453
197646
197851
198082
198331
198586
198838
199084
199313
199562
199788
200095
197480
197648
197819
198001
198197
198416
198653
198899
199148
199400
199639
199906
200144
200458
197788
197985
198165
198348
198543
198756
198988
199228
199478
199739
199990
200279
200532
200848
198201
198360
198533
198705
198896
199104
199337
199580
199837
200112
200380
200697
200966
201287
198425
198647
198805
198978
199182
199408
199667
199936
200216
200513
200795
201140
201423
201808
198756
198999
199188
199382
199589
199814
200076
200351
200640
200960
201263
201668
201942
202438
195388
195735
195874
195933
195967
196011
196068
196125
196192
196284
196413
196641
196894
197331
195751
196049
196182
196309
196373
196434
196511
196604
196724
196874
197055
197296
197548
198014
196108
196403
196536
196663
196746
196824
196922
197045
197191
197351
197529
197755
198031
198467
196493
196704
196838
196964
197065
197168
197298
197457
197634
197821
198021
198253
198521
198903
196846
196996
197115
197240
197358
197491
197654
197844
198046
198249
198455
198674
198933
199279
197182
197294
197396
197523
197655
197814
198005
198219
198440
198660
198874
199096
199350
199658
197533
197629
197718
197841
197980
198153
198360
198590
198824
199055
199277
199501
199745
200029
197930
198014
198088
198202
198340
198518
198730
198966
199207
199447
199675
199904
200146
200418
198368
198437
198503
198609
198742
198915
199124
199356
199598
199843
200077
200317
200560
200834
198836
198886
198948
199047
199175
199340
199543
199768
200007
200256
200498
200751
201006
201289
199283
199330
199398
199490
199619
199779
199976
200197
200434
200690
200945
201215
201485
201781
199752
199790
199855
199939
200071
200233
200434
200656
200896
201160
201432
201723
202015
202332
200082
200163
200242
200342
200496
200675
200893
201131
201387
201671
201959
202278
202581
202954
200613
200688
200774
200877
201031
201211
201424
201662
201924
202226
202532
202895
203205
203655
196216
196394
196435
196417
196374
196308
196267
196240
196240
196276
196347
196519
196724
197097
196591
196743
196786
196803
196783
196747
196729
196735
196781
196881
197034
197247
197474
197851
196995
197099
197139
197161
197162
197157
197170
197215
197297
197418
197572
197775
198015
198417
197423
197456
197479
197501
197518
197542
197591
197677
197795
197947
198126
198345
198595
198937
197828
197826
197824
197843
197872
197921
198003
198126
198280
198456
198647
198863
199103
199420
198243
198222
198198
198212
198246
198314
198424
198576
198758
198955
199158
199376
199616
199897
198685
198657
198620
198626
198659
198739
198866
199038
199239
199450
199660
199873
200102
200367
199170
199143
199097
199095
199126
199206
199339
199518
199727
199945
200160
200368
200598
200842
199685
199661
199610
199602
199629
199706
199835
200013
200223
200445
200665
200876
201109
201345
200234
200208
200154
200144
200169
200239
200363
200534
200738
200960
201187
201405
201657
201893
200789
200755
200698
200686
200712
200778
200899
201066
201267
201493
201732
201966
202244
202483
201357
201312
201257
201246
201276
201342
201462
201623
201821
202050
202306
202559
202874
203122
201910
201851
201804
201788
201821
201895
202025
202197
202407
202655
202932
203218
203553
203834
202536
202469
202423
202395
202427
202506
202630
202802
203019
203274
203572
203885
204256
204533
196856
196849
196871
196796
196684
196519
196373
196270
196208
196204
196242
196349
196488
196740
197265
197265
197241
197184
197090
196973
196867
196801
196771
196813
196926
197095
197264
197547
197712
197684
197641
197581
197499
197416
197354
197326
197335
197400
197519
197683
197860
198174
198197
198116
198046
197976
197904
197850
197827
197836
197886
197980
198112
198290
198487
198768
198670
198559
198464
198385
198320
198288
198294
198340
198425
198544
198691
198865
199053
199311
199146
199022
198906
198820
198759
198745
198775
198848
198961
199101
199262
199436
199623
199856
199634
199510
199382
199293
199236
199233
199279
199371
199503
199661
199828
200001
200181
200389
200149
200033
199901
199814
199759
199759
199810
199912
200056
200226
200401
200571
200749
200933
200692
200588
200459
200375
200319
200318
200370
200475
200626
200801
200983
201149
201329
201492
201269
201176
201048
200967
200909
200903
200952
201058
201211
201388
201578
201748
201939
202091
201863
201773
201646
201563
201504
201493
201544
201654
201809
201991
202193
202370
202574
202711
202474
202392
202260
202172
202109
202093
202142
202253
202412
202599
202817
203003
203235
203363
203095
203009
202875
202778
202712
202693
202753
202873
203041
203245
203482
203685
203928
204067
203699
203650
203509
203396
203329
203312
203379
203501
203678
203886
204137
204347
204615
204765
197304
197211
197149
197008
196842
196619
196407
196226
196128
196054
196068
196128
196251
196410
197829
197697
197596
197453
197286
197096
196928
196791
196724
196687
196745
196878
197004
197190
198337
198181
198049
197895
197737
197581
197450
197356
197319
197311
197377
197501
197621
197835
198884
198692
198526
198355
198198
198067
197971
197916
197906
197932
198007
198136
198269
198467
199395
199183
198999
198824
198672
198562
198497
198476
198491
198543
198627
198747
198874
199061
199883
199674
199477
199306
199165
199077
199037
199040
199076
199146
199239
199357
199486
199656
200354
200164
199970
199814
199689
199621
199597
199616
199668
199750
199850
199962
200086
200242
200846
200676
200493
200358
200246
200192
200177
200204
200269
200361
200466
200572
200698
200833
201375
201228
201055
200936
200833
200787
200775
200809
200883
200980
201087
201188
201314
201427
201947
201820
201648
201536
201436
201391
201382
201422
201505
201609
201720
201819
201953
202049
202545
202432
202257
202143
202041
201995
201991
202039
202131
202242
202358
202455
202603
202675
203153
203053
202866
202743
202637
202588
202590
202650
202754
202871
202999
203100
203269
203322
203783
203675
203481
203341
203229
203177
203192
203270
203386
203514
203658
203769
203950
203998
204386
204272
204071
203916
203810
203766
203797
203889
204017
204149
204307
204436
204621
204685
197772
197572
197422
197222
197011
196757
196509
196268
196099
195969
195897
195894
195968
196077
198402
198140
197945
197720
197497
197260
197043
196847
196703
196620
196576
196638
196728
196846
198951
198680
198455
198217
197996
197785
197597
197436
197320
197263
197234
197289
197365
197492
199503
199223
198971
198723
198502
198311
198150
198022
197937
197889
197893
197952
198034
198150
200001
199717
199462
199221
199010
198838
198702
198602
198543
198520
198533
198589
198666
198779
200457
200184
199934
199712
199519
199369
199256
199181
199141
199132
199160
199222
199304
199415
200892
200642
200410
200218
200047
199919
199822
199766
199737
199737
199775
199840
199928
200034
201358
201133
200922
200755
200601
200489
200404
200358
200338
200348
200393
200464
200554
200650
201877
201680
201479
201331
201185
201083
201004
200963
200949
200967
201017
201085
201177
201255
202445
202276
202070
201927
201781
201685
201613
201581
201575
201600
201657
201720
201819
201878
203045
202895
202681
202530
202379
202287
202224
202205
202207
202238
202298
202356
202464
202500
203656
203514
203285
203118
202964
202875
202826
202824
202841
202881
202949
203007
203127
203139
204283
204125
203884
203695
203541
203460
203431
203446
203476
203526
203600
203657
203787
203784
204858
204673
204430
204234
204100
204040
204032
204064
204108
204164
204244
204308
204437
204449
198207
197917
197690
197436
197203
196945
196695
196422
196195
195991
195824
195733
195704
195729
198868
198530
198268
197988
197735
197475
197234
196999
196792
196627
196499
196470
196471
196525
199410
199080
198806
198520
198268
198021
197797
197584
197401
197262
197150
197122
197126
197181
199943
199620
199332
199045
198792
198558
198351
198163
198002
197880
197798
197786
197808
197859
200427
200106
199822
199548
199304
199086
198894
198725
198586
198487
198429
198425
198447
198500
200875
200564
200291
200037
199806
199603
199423
199272
199156
199080
199046
199054
199087
199144
201310
201022
200766
200538
200321
200129
199956
199818
199719
199661
199643
199662
199707
199768
201778
201519
201279
201070
200860
200675
200503
200375
200287
200245
200243
200275
200328
200383
202298
202071
201839
201642
201433
201249
201076
200953
200870
200840
200849
200887
200948
200988
202867
202669
202431
202235
202021
201838
201668
201553
201479
201461
201481
201521
201588
201609
203465
203288
203041
202837
202616
202438
202276
202171
202107
202095
202120
202159
202233
202227
204067
203893
203630
203414
203196
203027
202883
202797
202749
202748
202781
202818
202901
202874
204667
204475
204204
203978
203771
203618
203497
203428
203392
203396
203433
203465
203553
203507
205198
204972
204711
204492
204320
204197
204107
204056
204029
204031
204070
204111
204198
204172
198548
198237
197973
197684
197432
197173
196933
196661
196404
196137
195904
195701
195569
195509
199190
198837
198551
198243
197973
197702
197456
197208
196968
196738
196543
196410
196300
196278
199720
199370
199083
198777
198506
198240
197996
197757
197536
197333
197159
197037
196949
196919
200247
199899
199601
199296
199022
198757
198518
198294
198091
197911
197763
197668
197610
197588
200734
200390
200093
199796
199520
199259
199022
198808
198624
198466
198345
198267
198229
198224
201203
200869
200571
200280
200003
199742
199507
199304
199138
199002
198909
198858
198848
198857
201664
201351
201059
200774
200492
200228
199991
199793
199638
199524
199459
199440
199451
199475
202154
201869
201577
201294
201002
200732
200488
200292
200148
200059
200023
200034
200061
200091
202680
202427
202137
201853
201549
201270
201018
200826
200691
200623
200608
200637
200679
200700
203244
203020
202719
202429
202115
201832
201581
201400
201280
201233
201236
201274
201327
201330
203825
203620
203310
203014
202698
202422
202181
202015
201909
201874
201886
201926
201986
201962
204392
204190
203869
203573
203269
203011
202794
202652
202568
202549
202571
202609
202675
202625
204938
204729
204414
204132
203850
203615
203422
203301
203230
203217
203242
203272
203337
203264
205439
205202
204913
204649
204408
204208
204045
203940
203877
203863
203887
203921
203983
203948
198782
198494
198229
197928
197661
197395
197163
196910
196666
196395
196134
195860
195647
195501
199415
199063
198786
198473
198195
197916
197669
197427
197191
196947
196717
196512
196312
196194
199931
199579
199304
198996
198719
198441
198184
197938
197709
197485
197276
197093
196927
196805
200457
200108
199820
199511
199225
198940
198675
198430
198209
198006
197824
197667
197535
197432
200949
200611
200318
200010
199711
199415
199141
198897
198688
198503
198348
198209
198105
198018
201438
201115
200810
200494
200177
199867
199584
199342
199144
198981
198851
198746
198675
198608
201930
201622
201307
200976
200635
200309
200018
199777
199588
199450
199348
199283
199238
199201
202443
202148
201813
201463
201100
200762
200463
200225
200050
199938
199872
199842
199820
199810
202967
202683
202334
201972
201595
201250
200948
200716
200555
200467
200428
200425
200427
200419
203494
203220
202858
202491
202110
201770
201476
201261
201119
201053
201034
201057
201077
201055
204010
203755
203389
203025
202654
202332
202057
201860
201736
201685
201685
201712
201743
201693
204520
204270
203901
203550
203200
202905
202658
202493
202395
202366
202376
202402
202441
202361
205027
204781
204426
204100
203776
203509
203290
203149
203068
203045
203055
203070
203100
203007
205530
205267
204935
204629
204341
204106
203914
203790
203717
203697
203705
203719
203741
203688
194993
195044
195075
194605
194908
195189
194454
194248
194078
193966
194469
194939
194690
194337
194112
194060
194590
195049
194913
194512
194220
194064
194412
194699
195117
194716
194411
194210
194405
194204
195296
194871
194548
194232
194122
193451
195442
194927
194526
194076
193798
193101
195556
194928
194477
193932
193596
192945
195684
195010
194576
194019
193786
193076
195842
195213
194803
194254
194236
193448
196028
195470
195150
194676
194943
194181
196324
195783
195535
195060
195537
194856
196786
196258
196295
196064
196553
195944
196648
196363
196274
196286
197071
197297
195681
195782
195738
195565
195368
195486
195307
195206
195031
195004
194975
195371
195407
195117
194822
194772
194808
195326
195429
195022
194620
194469
194496
195124
195471
195023
194610
194488
194629
195320
195517
195059
194664
194442
194380
194770
195588
195087
194625
194216
193875
194006
195648
195045
194487
193876
193299
193279
195727
195036
194451
193749
193094
192925
195831
195104
194524
193829
193223
192927
195996
195329
194828
194228
193719
193178
196222
195628
195164
194627
194365
193850
196655
196160
195942
195598
195366
194909
196694
196418
196155
195937
196006
196033
196284
196267
196297
196097
195843
195721
196049
195856
195622
195461
195498
195525
196069
195791
195561
195388
195254
195320
195975
195593
195185
194908
194802
195064
195871
195427
194970
194746
194783
195314
195778
195291
194850
194637
194695
195109
195737
195232
194780
194453
194268
194317
195716
195148
194609
194087
193621
193482
195736
195089
194500
193839
193249
193012
195800
195062
194459
193739
193143
192809
195936
195194
194655
193957
193341
192897
196090
195393
194887
194266
193800
193385
196453
195875
195540
195097
194652
194214
196469
196109
195790
195497
195383
195312
196735
196563
196488
196268
195976
195781
196554
196289
196034
195836
195703
195636
196537
196266
195995
195714
195432
195250
196399
196048
195644
195231
194861
194696
196206
195781
195272
194836
194464
194504
195965
195497
194930
194554
194300
194536
195783
195283
194710
194348
194082
194187
195663
195106
194523
194066
193620
193551
195628
195015
194412
193847
193303
193095
195658
194981
194364
193722
193170
192853
195776
195069
194501
193841
193216
192760
195907
195196
194642
193995
193475
193061
196198
195564
195135
194601
194047
193557
196118
195643
195266
194882
194622
194419
197200
196987
196823
196602
196228
195935
196941
196692
196441
196227
195995
195905
196825
196553
196302
196056
195782
195650
196643
196311
195962
195628
195283
195050
196399
195990
195527
195094
194650
194402
196085
195608
195074
194630
194187
194042
195811
195281
194714
194291
193878
193752
195593
195023
194419
193942
193467
193274
195484
194857
194234
193720
193176
192907
195455
194803
194171
193587
193075
192759
195549
194877
194308
193690
193102
192619
195692
195020
194484
193837
193295
192844
195950
195331
194902
194332
193723
193170
195820
195297
194881
194367
194043
193751
197606
197399
197213
196994
196655
196384
197249
196984
196711
196496
196228
196085
197068
196782
196497
196270
195996
195862
196836
196516
196197
195951
195689
195569
196573
196194
195820
195487
195176
194983
196241
195785
195340
194925
194564
194323
195927
195406
194902
194463
194035
193837
195634
195045
194462
193968
193477
193237
195466
194833
194191
193657
193115
192807
195315
194646
193983
193433
192942
192643
195334
194657
194059
193499
192957
192474
195429
194771
194256
193664
193155
192691
195634
195060
194667
194150
193581
192995
195531
195041
194669
194153
193765
193405
198005
197810
197635
197453
197193
196966
197560
197284
196974
196755
196509
196305
197307
197000
196674
196440
196156
195936
197016
196670
196342
196124
195854
195731
196747
196359
196011
195757
195478
195360
196430
195978
195578
195246
194940
194751
196119
195601
195133
194749
194367
194164
195796
195206
194647
194178
193712
193456
195559
194940
194306
193766
193230
192911
195332
194643
193976
193424
192925
192632
195254
194563
193950
193391
192855
192370
195236
194536
193997
193425
192939
192490
195331
194718
194313
193833
193328
192778
195164
194675
194348
193916
193529
193168
198373
198205
198079
197986
197846
197710
197918
197693
197434
197259
197071
196937
197597
197319
197018
196802
196550
196338
197248
196907
196575
196366
196101
195939
196955
196566
196216
195989
195743
195634
196652
196207
195820
195545
195304
195162
196375
195867
195426
195089
194758
194555
196064
195493
194966
194525
194112
193836
195793
195184
194571
194045
193536
193209
195503
194817
194149
193593
193100
192799
195329
194628
194020
193444
192915
192448
195190
194474
193895
193277
192769
192344
195170
194524
194057
193556
193069
192558
194903
194365
194003
193623
193298
192974
198613
198449
198329
198259
198168
198075
198199
198008
197791
197648
197499
197387
197868
197622
197352
197149
196910
196696
197498
197179
196857
196632
196346
196075
197184
196804
196444
196208
195925
195676
196874
196438
196048
195790
195507
195302
196620
196126
195699
195389
195056
194767
196342
195798
195302
194881
194443
194080
196093
195512
194927
194402
193847
193415
195804
195142
194478
193878
193300
192897
195584
194874
194256
193617
193012
192498
195357
194624
194002
193306
192699
192209
195239
194575
194017
193437
192896
192324
194884
194262
193778
193316
192944
192627
198213
198530
198999
198959
199388
198984
198083
198459
198867
199191
199960
200126
198494
198876
199327
199832
200723
201269
198881
199324
199868
200493
201432
202190
199206
199723
200359
201074
202015
202972
199524
200067
200764
201540
202430
203525
199831
200388
201076
201856