/*--------------------------------*- C++ -*----------------------------------*\
| =========                 |                                                 |
| \\      /  F ield         | OpenFOAM: The Open Source CFD Toolbox           |
|  \\    /   O peration     | Version:  v2106                                 |
|   \\  /    A nd           | Website:  www.openfoam.com                      |
|    \\/     M anipulation  |                                                 |
\*---------------------------------------------------------------------------*/
FoamFile
{
    version     2.0;
    format      ascii;
    arch        "LSB;label=32;scalar=64";
    class       volScalarField;
    location    "0.000206";
    object      Ttot;
}
// * * * * * * * * * * * * * * * * * * * * * * * * * * * * * * * * * * * * * //

dimensions      [0 0 0 1 0 0 0];

internalField   nonuniform List<scalar> 
18109
(
296.08
296.076
296.05
295.988
295.922
295.839
295.75
296.376
296.352
296.31
296.232
296.147
296.048
295.943
296.6
296.558
296.507
296.428
296.336
296.232
296.121
296.831
296.768
296.696
296.607
296.509
296.402
296.29
297.041
296.956
296.865
296.771
296.674
296.57
296.458
297.239
297.14
297.045
296.95
296.85
296.745
296.632
297.449
297.342
297.239
297.138
297.035
296.927
296.813
297.665
297.556
297.443
297.336
297.226
297.113
296.995
296.179
296.174
296.16
296.116
296.066
295.992
295.9
295.784
295.654
295.522
295.384
295.21
295.092
294.953
296.444
296.405
296.376
296.318
296.258
296.175
296.073
295.949
295.808
295.663
295.521
295.382
295.267
295.182
296.642
296.587
296.545
296.481
296.414
296.33
296.228
296.103
295.958
295.813
295.675
295.559
295.454
295.38
296.858
296.784
296.721
296.647
296.57
296.479
296.374
296.25
296.109
295.968
295.834
295.727
295.638
295.578
297.061
296.967
296.883
296.799
296.715
296.621
296.516
296.395
296.262
296.129
296.005
295.907
295.829
295.776
297.26
297.153
297.058
296.966
296.873
296.773
296.665
296.546
296.42
296.296
296.182
296.09
296.015
295.963
297.471
297.356
297.248
297.144
297.04
296.932
296.82
296.701
296.58
296.462
296.356
296.269
296.2
296.147
297.685
297.565
297.442
297.325
297.207
297.09
296.973
296.854
296.736
296.624
296.524
296.44
296.374
296.312
297.905
297.773
297.63
297.497
297.364
297.239
297.117
296.999
296.886
296.781
296.687
296.6
296.531
296.455
298.107
297.961
297.797
297.654
297.513
297.383
297.259
297.144
297.036
296.935
296.839
296.743
296.664
296.575
298.302
298.141
297.955
297.802
297.655
297.527
297.405
297.291
297.186
297.082
296.982
296.876
296.786
296.685
298.47
298.295
298.098
297.944
297.798
297.673
297.553
297.444
297.341
297.236
297.13
297.013
296.913
296.804
298.649
298.462
298.257
298.098
297.947
297.826
297.714
297.61
297.506
297.396
297.283
297.156
297.048
296.937
298.787
298.581
298.38
298.232
298.098
297.989
297.89
297.795
297.694
297.585
297.468
297.337
297.225
297.113
295.93
295.743
295.493
295.331
295.124
295.079
296.064
295.899
295.674
295.5
295.288
295.223
295.99
295.809
295.563
295.388
295.19
295.189
295.95
295.743
295.479
295.295
295.071
294.987
295.889
295.668
295.392
295.18
294.908
294.696
295.83
295.599
295.319
295.078
294.737
294.353
295.754
295.516
295.244
294.976
294.556
294.016
295.677
295.443
295.182
294.865
294.353
293.651
295.577
295.351
295.097
294.715
294.105
293.175
295.474
295.244
294.982
294.53
293.783
292.596
295.347
295.088
294.773
294.225
293.354
292.141
295.212
294.926
294.583
293.98
293.045
291.841
295.043
294.704
294.274
293.601
292.671
291.619
294.918
294.518
294.025
293.354
292.531
291.615
294.666
294.205
293.695
293.034
292.348
291.789
294.819
294.5
294.071
293.426
292.772
292.274
295.059
294.75
294.36
293.777
293.196
292.753
295.269
294.992
294.66
294.184
293.697
293.275
295.483
295.24
294.958
294.573
294.137
293.706
295.683
295.485
295.245
294.941
294.547
294.093
295.877
295.727
295.524
295.265
294.912
294.407
296.063
295.944
295.775
295.573
295.244
294.678
296.23
296.142
296.003
295.839
295.53
294.918
296.377
296.322
296.23
296.087
295.787
295.14
296.504
296.476
296.42
296.289
295.983
295.347
296.63
296.631
296.593
296.473
296.175
295.588
296.773
296.782
296.744
296.617
296.331
295.806
296.932
296.935
296.9
296.779
296.522
296.063
297.1
297.105
297.056
296.915
296.647
296.281
297.26
297.262
297.269
297.139
296.913
296.625
297.381
297.41
297.417
297.313
297.145
296.949
297.518
297.595
297.63
297.567
297.48
297.368
297.653
297.766
297.835
297.823
297.77
297.706
297.782
297.929
298.036
298.079
298.018
297.996
297.898
298.073
298.207
298.276
298.205
298.227
298.005
298.205
298.352
298.429
298.366
298.394
298.102
298.321
298.474
298.547
298.494
298.517
298.193
298.42
298.577
298.657
298.634
298.646
298.298
298.521
298.675
298.774
298.783
298.767
298.421
298.635
298.784
298.895
298.92
298.895
298.581
298.789
298.927
299.025
299.042
299.01
298.754
298.951
299.064
299.133
299.154
299.131
298.966
299.119
299.203
299.244
299.244
299.233
296.858
296.763
296.675
296.493
296.236
295.856
296.598
296.468
296.315
296.08
295.825
295.497
296.343
296.169
295.99
295.769
295.559
295.319
296.052
295.85
295.65
295.43
295.253
295.169
299.004
299.159
299.253
299.342
299.378
299.394
298.842
299.037
299.151
299.288
299.342
299.422
298.686
298.899
299.044
299.214
299.298
299.406
298.498
298.711
298.87
299.051
299.126
299.215
298.288
298.485
298.63
298.773
298.85
298.969
298.062
298.229
298.361
298.465
298.525
298.634
297.822
297.96
298.07
298.128
298.163
298.218
297.6
297.695
297.764
297.783
297.785
297.686
297.376
297.42
297.455
297.434
297.377
297.14
297.146
297.134
297.125
297.055
296.916
296.587
296.902
296.842
296.796
296.665
296.448
296.067
296.656
296.556
296.444
296.248
295.987
295.629
296.425
296.271
296.117
295.902
295.648
295.364
296.161
295.969
295.785
295.549
295.333
295.212
294.692
293.711
294.243
296.347
299.148
294.454
293.224
293.331
295.805
298.952
293.967
292.582
292.479
295.38
298.85
293.35
291.756
291.864
295.395
298.629
292.812
290.827
291.469
295.867
299.011
292.165
289.694
290.796
295.577
299.085
291.468
288.773
290.279
294.576
297.683
290.749
288.054
289.603
293.345
296.051
295.867
290.188
287.704
289.394
292.886
295.563
296.387
289.867
287.457
288.907
291.935
294.993
296.81
289.72
287.462
288.827
291.462
294.566
296.214
295.972
289.74
287.662
288.635
290.573
293.758
295.295
294.5
296.318
289.831
288.072
288.721
290.032
293.044
294.887
295.26
299.24
290.152
288.637
288.908
290.177
293.881
297.02
297.318
294.982
290.619
289.409
289.38
290.842
295.07
299.177
299.347
294.154
291.346
290.124
289.429
291.232
295.958
299.967
299.929
297.422
291.882
290.728
289.439
291.423
296.277
299.569
301.359
298.308
292.261
291.01
289.366
292.184
297.771
300.908
300.907
296.03
292.694
291.14
290.26
294.128
299.5
301.08
301.17
295.331
292.948
290.926
290.411
295.083
300.85
302.287
300.659
297.343
293.102
290.901
290.71
294.838
299.494
300.695
301.223
298.806
293.217
290.938
291.023
294.896
298.854
300.944
301.275
300.364
293.433
291.213
291.551
295.335
298.494
300.295
293.697
291.502
291.894
295.541
298.912
300.411
294.003
291.974
292.278
295.448
299.105
301.506
294.384
292.526
292.701
295.379
299.192
301.935
294.883
293.294
293.516
295.492
298.799
301.29
295.478
294.172
294.518
295.829
299.436
296.125
295.12
295.618
296.68
300.858
296.671
295.992
296.48
297.17
301.59
297.18
296.701
296.888
297.314
301.49
297.571
297.201
296.901
297.592
302.444
297.83
297.436
296.58
298.255
304.127
297.963
297.318
296.031
298.723
305.549
298.051
297.162
295.811
298.712
304.973
298.122
297.107
296.001
299.174
304.544
298.236
297.236
296.599
299.995
304.526
298.384
297.521
297.264
300.273
304.037
298.576
297.923
297.928
300.307
303.937
298.802
298.372
298.54
300.155
303.392
299.064
298.84
299.104
300.154
302.604
299.327
299.216
299.592
300.653
303.41
299.499
299.438
299.951
301.339
304.526
299.546
299.449
299.882
301.597
305.065
299.506
299.404
299.756
301.772
305.611
299.255
299.03
299.149
301.625
305.481
298.871
298.451
298.51
301.886
305.603
298.269
297.446
297.389
301.386
305.504
297.64
296.392
296.409
300.297
303.679
296.941
295.277
295.601
299.557
302.657
296.252
294.45
295.108
299.204
302.578
295.609
293.907
294.524
298.301
301.874
295.167
293.712
294.262
297.525
301.445
294.896
293.71
294.151
296.571
299.814
294.821
293.795
294.397
296.45
299.175
294.762
293.816
294.476
296.243
298.565
296.417
296.391
296.385
296.359
296.33
296.275
296.194
296.082
295.951
295.814
295.674
295.51
295.383
295.249
296.625
296.57
296.552
296.511
296.475
296.413
296.325
296.207
296.063
295.911
295.758
295.611
295.491
295.405
296.773
296.712
296.681
296.634
296.588
296.522
296.433
296.316
296.172
296.018
295.865
295.736
295.624
295.565
296.952
296.876
296.819
296.76
296.701
296.627
296.533
296.416
296.276
296.127
295.98
295.862
295.767
295.724
297.125
297.035
296.956
296.881
296.809
296.726
296.629
296.514
296.381
296.242
296.106
296.001
295.921
295.884
297.311
297.203
297.107
297.015
296.927
296.834
296.732
296.618
296.491
296.363
296.24
296.143
296.068
296.026
297.51
297.386
297.27
297.16
297.055
296.95
296.843
296.73
296.61
296.49
296.377
296.286
296.215
296.167
297.707
297.572
297.437
297.309
297.188
297.073
296.961
296.849
296.735
296.621
296.514
296.421
296.35
296.295
297.905
297.757
297.6
297.458
297.322
297.199
297.082
296.971
296.86
296.75
296.646
296.551
296.478
296.414
298.082
297.921
297.749
297.599
297.455
297.327
297.209
297.099
296.991
296.883
296.78
296.68
296.601
296.523
298.246
298.077
297.893
297.738
297.592
297.466
297.349
297.237
297.131
297.022
296.917
296.807
296.72
296.628
298.385
298.209
298.019
297.875
297.733
297.612
297.498
297.39
297.285
297.175
297.065
296.944
296.844
296.739
298.522
298.351
298.161
298.018
297.884
297.769
297.661
297.556
297.449
297.333
297.216
297.083
296.974
296.86
298.627
298.441
298.268
298.14
298.024
297.923
297.831
297.733
297.627
297.513
297.392
297.257
297.147
297.03
296.804
296.762
296.767
296.746
296.717
296.651
296.581
296.489
296.379
296.266
296.161
296.054
295.944
295.812
296.958
296.878
296.861
296.825
296.794
296.733
296.667
296.575
296.462
296.335
296.212
296.099
295.991
295.906
297.058
296.979
296.942
296.9
296.865
296.81
296.744
296.655
296.543
296.418
296.286
296.173
296.074
296.018
297.201
297.112
297.046
296.994
296.945
296.886
296.817
296.729
296.615
296.489
296.357
296.25
296.163
296.122
297.347
297.251
297.169
297.098
297.034
296.966
296.892
296.802
296.69
296.567
296.44
296.34
296.261
296.226
297.511
297.4
297.305
297.212
297.131
297.049
296.97
296.881
296.773
296.655
296.534
296.437
296.36
296.322
297.675
297.552
297.442
297.332
297.237
297.147
297.06
296.971
296.867
296.753
296.638
296.541
296.462
296.415
297.825
297.699
297.576
297.457
297.353
297.257
297.165
297.072
296.969
296.859
296.747
296.648
296.564
296.506
297.968
297.833
297.7
297.579
297.47
297.374
297.278
297.182
297.077
296.966
296.854
296.751
296.666
296.598
298.094
297.948
297.812
297.693
297.586
297.492
297.395
297.296
297.189
297.076
296.965
296.856
296.767
296.69
298.214
298.057
297.917
297.802
297.699
297.605
297.51
297.409
297.3
297.183
297.068
296.954
296.866
296.778
298.31
298.146
298.002
297.899
297.807
297.717
297.624
297.521
297.411
297.292
297.177
297.053
296.955
296.849
298.408
298.249
298.102
297.989
297.896
297.813
297.726
297.628
297.518
297.396
297.277
297.145
297.039
296.923
298.436
298.294
298.172
298.073
297.984
297.897
297.816
297.729
297.631
297.523
297.415
297.287
297.18
297.036
297.561
297.495
297.462
297.417
297.379
297.325
297.285
297.204
297.132
297.045
296.963
296.88
296.769
296.618
297.689
297.576
297.547
297.492
297.459
297.405
297.368
297.284
297.2
297.101
296.994
296.893
296.778
296.686
297.793
297.666
297.634
297.573
297.541
297.485
297.443
297.363
297.279
297.177
297.063
296.963
296.86
296.792
297.909
297.785
297.741
297.669
297.627
297.561
297.509
297.425
297.333
297.227
297.111
297.012
296.917
296.856
298.03
297.912
297.852
297.765
297.713
297.639
297.579
297.492
297.398
297.29
297.177
297.078
296.987
296.925
298.157
298.041
297.966
297.87
297.809
297.725
297.654
297.562
297.464
297.355
297.244
297.144
297.051
296.981
298.266
298.158
298.065
297.962
297.892
297.801
297.725
297.63
297.532
297.423
297.314
297.211
297.117
297.04
298.378
298.265
298.159
298.055
297.974
297.879
297.797
297.701
297.6
297.489
297.378
297.272
297.173
297.087
298.478
298.357
298.244
298.134
298.045
297.948
297.862
297.761
297.655
297.541
297.429
297.325
297.227
297.142
298.569
298.443
298.318
298.206
298.114
298.021
297.933
297.833
297.722
297.604
297.486
297.378
297.279
297.196
298.629
298.517
298.395
298.286
298.194
298.102
298.008
297.903
297.783
297.659
297.535
297.425
297.325
297.246
298.657
298.558
298.447
298.345
298.257
298.169
298.076
297.969
297.845
297.717
297.589
297.471
297.367
297.281
298.647
298.569
298.476
298.384
298.304
298.22
298.124
298.012
297.888
297.759
297.637
297.515
297.408
297.31
298.567
298.53
298.459
298.381
298.315
298.242
298.162
298.074
297.968
297.856
297.746
297.626
297.508
297.338
298.446
298.406
298.365
298.314
298.282
298.238
298.213
298.151
298.109
298.032
297.98
297.919
297.822
297.645
298.544
298.453
298.413
298.354
298.327
298.283
298.255
298.191
298.143
298.059
297.989
297.906
297.822
297.729
298.618
298.505
298.469
298.402
298.38
298.338
298.315
298.256
298.207
298.122
298.045
297.961
297.875
297.811
298.697
298.587
298.544
298.467
298.44
298.389
298.359
298.298
298.243
298.158
298.078
297.996
297.912
297.855
298.759
298.658
298.611
298.532
298.504
298.45
298.418
298.358
298.301
298.217
298.136
298.052
297.964
297.895
298.831
298.747
298.693
298.611
298.583
298.524
298.488
298.425
298.361
298.274
298.187
298.097
297.998
297.913
298.887
298.816
298.755
298.678
298.648
298.586
298.548
298.486
298.418
298.332
298.242
298.149
298.045
297.95
298.959
298.879
298.816
298.744
298.712
298.65
298.609
298.55
298.476
298.386
298.285
298.183
298.066
297.961
299.02
298.937
298.876
298.805
298.768
298.702
298.654
298.59
298.508
298.415
298.308
298.206
298.087
297.98
299.058
298.974
298.915
298.847
298.81
298.745
298.693
298.628
298.542
298.448
298.336
298.233
298.109
297.996
299.11
299.016
298.951
298.88
298.841
298.778
298.717
298.649
298.555
298.457
298.339
298.235
298.113
298.014
299.13
299.033
298.969
298.909
298.865
298.806
298.742
298.672
298.577
298.479
298.358
298.25
298.127
298.023
299.11
299.028
298.978
298.933
298.884
298.825
298.749
298.67
298.568
298.468
298.351
298.24
298.116
298.01
298.964
298.94
298.931
298.902
298.864
298.809
298.742
298.679
298.595
298.511
298.411
298.292
298.148
297.91
299.797
299.706
299.665
299.6
299.559
299.505
299.464
299.404
299.358
299.291
299.269
299.233
299.191
299.073
299.832
299.721
299.677
299.608
299.571
299.522
299.482
299.425
299.379
299.31
299.269
299.208
299.177
299.107
299.864
299.754
299.715
299.643
299.614
299.567
299.529
299.475
299.43
299.363
299.313
299.241
299.192
299.133
299.907
299.804
299.767
299.693
299.665
299.617
299.578
299.524
299.476
299.406
299.348
299.271
299.208
299.147
299.927
299.842
299.809
299.739
299.716
299.671
299.634
299.58
299.529
299.457
299.392
299.31
299.234
299.166
299.965
299.899
299.867
299.801
299.778
299.734
299.695
299.64
299.583
299.507
299.433
299.346
299.258
299.178
299.986
299.944
299.915
299.851
299.829
299.786
299.747
299.691
299.628
299.551
299.472
299.382
299.285
299.194
300.004
299.973
299.953
299.898
299.876
299.833
299.791
299.732
299.662
299.579
299.489
299.395
299.286
299.186
300.015
299.987
299.976
299.927
299.905
299.857
299.81
299.748
299.671
299.586
299.492
299.4
299.29
299.19
300.007
299.98
299.988
299.949
299.925
299.874
299.822
299.757
299.673
299.584
299.483
299.388
299.269
299.165
300.006
299.974
299.989
299.952
299.93
299.875
299.812
299.742
299.649
299.554
299.446
299.348
299.235
299.141
299.962
299.923
299.962
299.935
299.921
299.866
299.8
299.729
299.632
299.535
299.423
299.319
299.195
299.103
299.895
299.878
299.911
299.889
299.883
299.834
299.758
299.681
299.576
299.475
299.36
299.248
299.132
299.023
299.703
299.759
299.823
299.823
299.82
299.778
299.71
299.647
299.551
299.459
299.354
299.23
299.087
298.839
301.442
301.328
301.294
301.222
301.167
301.104
301.057
301.007
300.977
300.946
300.945
300.935
300.943
300.927
301.419
301.306
301.267
301.198
301.146
301.087
301.042
300.995
300.964
300.928
300.913
300.889
300.895
300.876
301.404
301.3
301.264
301.198
301.152
301.097
301.054
301.01
300.978
300.941
300.917
300.883
300.871
300.845
301.409
301.316
301.279
301.214
301.168
301.117
301.075
301.033
300.998
300.958
300.924
300.881
300.849
300.811
301.406
301.33
301.294
301.235
301.196
301.15
301.111
301.069
301.03
300.985
300.941
300.887
300.837
300.791
301.413
301.351
301.317
301.264
301.228
301.187
301.148
301.105
301.061
301.01
300.957
300.894
300.829
300.77
301.408
301.361
301.333
301.286
301.257
301.219
301.18
301.134
301.084
301.027
300.965
300.897
300.824
300.756
301.403
301.366
301.347
301.304
301.277
301.24
301.198
301.149
301.091
301.027
300.957
300.885
300.801
300.723
301.382
301.354
301.349
301.312
301.284
301.245
301.199
301.145
301.081
301.012
300.939
300.865
300.78
300.7
301.353
301.326
301.341
301.311
301.283
301.24
301.187
301.127
301.055
300.979
300.898
300.819
300.725
300.642
301.317
301.293
301.318
301.291
301.263
301.217
301.155
301.088
301.008
300.925
300.838
300.755
300.665
300.589
301.256
301.226
301.273
301.254
301.231
301.185
301.118
301.048
300.961
300.872
300.777
300.686
300.583
300.514
301.185
301.177
301.21
301.193
301.174
301.133
301.057
300.98
300.884
300.789
300.689
300.59
300.501
300.402
301.027
301.071
301.126
301.12
301.103
301.069
301
300.934
300.838
300.745
300.643
300.531
300.411
300.225
303.034
302.931
302.903
302.846
302.794
302.734
302.682
302.634
302.604
302.584
302.592
302.608
302.652
302.7
302.97
302.883
302.85
302.798
302.75
302.696
302.65
302.608
302.579
302.557
302.553
302.558
302.59
302.615
302.935
302.861
302.832
302.785
302.741
302.692
302.65
302.611
302.583
302.561
302.55
302.546
302.56
302.577
302.913
302.852
302.825
302.782
302.742
302.697
302.658
302.621
302.592
302.565
302.547
302.533
302.528
302.531
302.891
302.844
302.824
302.789
302.755
302.716
302.678
302.641
302.608
302.576
302.549
302.524
302.505
302.497
302.875
302.842
302.828
302.801
302.772
302.737
302.699
302.659
302.621
302.582
302.546
302.511
302.48
302.461
302.853
302.834
302.831
302.812
302.789
302.756
302.717
302.672
302.626
302.579
302.535
302.493
302.455
302.427
302.839
302.827
302.832
302.819
302.799
302.768
302.725
302.674
302.619
302.563
302.511
302.462
302.419
302.383
302.819
302.816
302.828
302.82
302.801
302.768
302.721
302.662
302.598
302.534
302.476
302.424
302.377
302.339
302.805
302.805
302.823
302.816
302.795
302.759
302.704
302.637
302.563
302.491
302.424
302.366
302.313
302.273
302.785
302.787
302.81
302.801
302.777
302.737
302.675
302.6
302.518
302.438
302.366
302.304
302.25
302.211
302.768
302.764
302.791
302.781
302.753
302.71
302.64
302.559
302.468
302.381
302.301
302.23
302.17
302.135
302.737
302.746
302.762
302.748
302.718
302.671
302.594
302.507
302.408
302.316
302.232
302.158
302.105
302.044
302.7
302.709
302.727
302.711
302.677
302.63
302.553
302.469
302.368
302.276
302.187
302.104
302.034
301.947
304.501
304.428
304.398
304.359
304.326
304.29
304.258
304.228
304.207
304.195
304.202
304.218
304.263
304.325
304.448
304.378
304.347
304.309
304.277
304.244
304.214
304.187
304.169
304.157
304.16
304.171
304.205
304.248
304.406
304.35
304.323
304.289
304.26
304.229
304.202
304.178
304.16
304.148
304.146
304.153
304.176
304.212
304.379
304.332
304.31
304.28
304.253
304.224
304.199
304.175
304.155
304.139
304.13
304.131
304.141
304.164
304.354
304.32
304.306
304.283
304.261
304.235
304.21
304.185
304.162
304.14
304.124
304.115
304.116
304.13
304.337
304.314
304.308
304.293
304.275
304.252
304.225
304.196
304.167
304.139
304.114
304.095
304.085
304.088
304.322
304.311
304.313
304.306
304.292
304.269
304.24
304.205
304.169
304.132
304.098
304.07
304.052
304.047
304.315
304.312
304.32
304.316
304.304
304.28
304.245
304.202
304.155
304.109
304.066
304.032
304.008
303.995
304.312
304.315
304.327
304.325
304.31
304.28
304.236
304.183
304.125
304.07
304.021
303.982
303.954
303.937
304.315
304.318
304.332
304.326
304.306
304.268
304.213
304.15
304.082
304.018
303.962
303.918
303.884
303.865
304.321
304.321
304.331
304.32
304.292
304.245
304.18
304.107
304.03
303.959
303.897
303.85
303.814
303.797
304.328
304.322
304.326
304.308
304.271
304.215
304.141
304.06
303.974
303.897
303.83
303.778
303.74
303.724
304.326
304.319
304.315
304.289
304.243
304.181
304.098
304.01
303.918
303.838
303.769
303.717
303.681
303.654
304.345
304.31
304.295
304.263
304.21
304.144
304.057
303.97
303.877
303.795
303.724
303.667
303.625
303.603
305.679
305.607
305.563
305.527
305.505
305.49
305.482
305.478
305.479
305.481
305.492
305.507
305.544
305.576
305.66
305.582
305.539
305.5
305.477
305.46
305.45
305.444
305.442
305.442
305.449
305.462
305.491
305.525
305.629
305.563
305.521
305.485
305.463
305.447
305.437
305.432
305.428
305.427
305.432
305.441
305.463
305.492
305.616
305.555
305.516
305.483
305.461
305.446
305.436
305.429
305.424
305.42
305.418
305.42
305.434
305.457
305.606
305.555
305.522
305.493
305.475
305.461
305.452
305.445
305.438
305.43
305.421
305.417
305.422
305.436
305.607
305.564
305.537
305.512
305.497
305.484
305.475
305.467
305.456
305.444
305.429
305.418
305.412
305.417
305.614
305.579
305.56
305.54
305.526
305.514
305.502
305.49
305.475
305.457
305.436
305.418
305.407
305.403
305.63
305.6
305.586
305.567
305.553
305.536
305.519
305.502
305.48
305.457
305.431
305.408
305.391
305.384
305.652
305.625
305.613
305.593
305.573
305.551
305.527
305.504
305.476
305.448
305.418
305.392
305.37
305.36
305.679
305.651
305.637
305.612
305.586
305.557
305.525
305.494
305.459
305.425
305.39
305.363
305.339
305.33
305.709
305.677
305.658
305.626
305.592
305.554
305.512
305.471
305.428
305.389
305.352
305.325
305.302
305.298
305.739
305.701
305.675
305.634
305.59
305.542
305.49
305.44
305.391
305.348
305.308
305.282
305.259
305.259
305.762
305.716
305.684
305.634
305.58
305.523
305.462
305.406
305.351
305.307
305.268
305.244
305.224
305.225
305.794
305.721
305.686
305.628
305.566
305.503
305.435
305.376
305.319
305.275
305.235
305.211
305.187
305.203
306.6
306.517
306.452
306.405
306.376
306.362
306.359
306.363
306.375
306.389
306.412
306.431
306.465
306.482
306.601
306.513
306.448
306.399
306.367
306.35
306.344
306.344
306.352
306.364
306.382
306.399
306.427
306.45
306.585
306.506
306.442
306.396
306.364
306.346
306.339
306.339
306.345
306.355
306.369
306.382
306.406
306.424
306.589
306.513
306.452
306.406
306.375
306.355
306.346
306.345
306.349
306.354
306.363
306.371
306.387
306.403
306.598
306.528
306.468
306.424
306.394
306.376
306.367
306.367
306.369
306.372
306.375
306.378
306.386
306.395
306.619
306.551
306.496
306.452
306.424
306.406
306.397
306.396
306.396
306.397
306.395
306.392
306.393
306.395
306.645
306.582
306.531
306.489
306.462
306.444
306.436
306.434
306.432
306.43
306.425
306.417
306.411
306.406
306.678
306.618
306.571
306.529
306.502
306.484
306.473
306.47
306.466
306.462
306.452
306.441
306.429
306.418
306.716
306.657
306.612
306.57
306.542
306.521
306.508
306.502
306.496
306.489
306.477
306.463
306.447
306.433
306.755
306.697
306.653
306.608
306.578
306.553
306.536
306.526
306.515
306.506
306.49
306.476
306.458
306.443
306.792
306.734
306.69
306.642
306.607
306.577
306.554
306.538
306.524
306.512
306.496
306.482
306.465
306.452
306.826
306.765
306.722
306.669
306.629
306.593
306.563
306.543
306.524
306.512
306.494
306.482
306.463
306.452
306.855
306.791
306.746
306.69
306.644
306.602
306.566
306.542
306.521
306.507
306.49
306.478
306.464
306.452
306.881
306.797
306.757
306.697
306.648
306.604
306.566
306.54
306.516
306.501
306.482
306.471
306.451
306.454
307.348
307.264
307.187
307.126
307.075
307.041
307.017
307.005
307.005
307.008
307.021
307.036
307.062
307.074
307.356
307.27
307.193
307.13
307.078
307.041
307.015
307
306.997
306.997
307.009
307.024
307.047
307.064
307.347
307.267
307.19
307.132
307.081
307.045
307.019
307.004
306.999
306.998
307.007
307.019
307.04
307.053
307.356
307.279
307.206
307.147
307.097
307.06
307.033
307.016
307.008
307.005
307.011
307.019
307.036
307.047
307.37
307.296
307.224
307.166
307.117
307.081
307.054
307.038
307.029
307.026
307.028
307.033
307.044
307.051
307.395
307.322
307.253
307.194
307.146
307.109
307.082
307.065
307.055
307.05
307.049
307.05
307.055
307.057
307.424
307.353
307.287
307.228
307.181
307.145
307.119
307.103
307.091
307.086
307.081
307.079
307.078
307.075
307.458
307.388
307.325
307.266
307.221
307.185
307.159
307.143
307.13
307.124
307.116
307.11
307.103
307.096
307.494
307.425
307.366
307.307
307.264
307.229
307.203
307.187
307.173
307.165
307.154
307.146
307.133
307.122
307.531
307.463
307.408
307.35
307.308
307.273
307.246
307.23
307.214
307.205
307.19
307.179
307.162
307.146
307.565
307.5
307.448
307.392
307.351
307.315
307.288
307.27
307.253
307.241
307.224
307.21
307.19
307.17
307.595
307.532
307.484
307.428
307.388
307.352
307.323
307.305
307.285
307.272
307.252
307.236
307.211
307.189
307.623
307.562
307.518
307.464
307.424
307.387
307.356
307.335
307.313
307.297
307.275
307.256
307.233
307.205
307.641
307.574
307.536
307.483
307.446
307.411
307.381
307.359
307.335
307.318
307.294
307.273
307.243
307.216
307.951
307.876
307.798
307.728
307.66
307.604
307.554
307.513
307.483
307.459
307.448
307.439
307.442
307.439
307.95
307.877
307.801
307.731
307.662
307.605
307.553
307.511
307.482
307.459
307.449
307.442
307.446
307.448
307.935
307.865
307.788
307.723
307.658
307.604
307.556
307.516
307.488
307.466
307.457
307.45
307.453
307.454
307.932
307.866
307.793
307.729
307.666
307.612
307.564
307.525
307.496
307.474
307.463
307.456
307.459
307.461
307.933
307.868
307.798
307.736
307.676
307.623
307.577
307.539
307.511
307.49
307.479
307.471
307.472
307.472
307.942
307.878
307.812
307.75
307.692
307.639
307.593
307.557
307.527
307.506
307.493
307.485
307.483
307.482
307.955
307.893
307.829
307.768
307.712
307.661
307.616
307.581
307.551
307.531
307.515
307.506
307.5
307.496
307.973
307.91
307.85
307.789
307.735
307.686
307.642
307.608
307.577
307.557
307.538
307.528
307.516
307.51
307.992
307.93
307.873
307.813
307.762
307.714
307.671
307.638
307.607
307.586
307.565
307.552
307.536
307.526
308.012
307.951
307.898
307.839
307.79
307.743
307.702
307.669
307.638
307.616
307.591
307.575
307.553
307.539
308.032
307.974
307.924
307.867
307.82
307.774
307.733
307.7
307.668
307.644
307.616
307.595
307.569
307.55
308.049
307.991
307.944
307.889
307.845
307.8
307.76
307.727
307.693
307.667
307.637
307.612
307.58
307.556
308.068
308.012
307.969
307.916
307.873
307.829
307.788
307.753
307.716
307.686
307.652
307.622
307.59
307.557
308.077
308.019
307.98
307.929
307.889
307.848
307.808
307.773
307.735
307.702
307.665
307.632
307.593
307.553
308.398
308.336
308.267
308.2
308.128
308.062
307.997
307.938
307.885
307.837
307.798
307.763
307.739
307.713
308.369
308.314
308.245
308.179
308.108
308.043
307.979
307.921
307.871
307.827
307.794
307.763
307.745
307.725
308.336
308.281
308.211
308.149
308.082
308.022
307.965
307.912
307.867
307.827
307.797
307.769
307.752
307.735
308.31
308.257
308.191
308.132
308.068
308.01
307.954
307.903
307.861
307.823
307.795
307.771
307.756
307.742
308.288
308.234
308.171
308.114
308.054
307.999
307.947
307.9
307.86
307.826
307.8
307.778
307.764
307.751
308.27
308.217
308.159
308.102
308.046
307.992
307.942
307.897
307.859
307.826
307.8
307.78
307.768
307.756
308.258
308.205
308.15
308.094
308.041
307.989
307.941
307.899
307.861
307.831
307.805
307.786
307.772
307.762
308.249
308.195
308.144
308.089
308.038
307.988
307.942
307.901
307.864
307.835
307.808
307.79
307.773
307.764
308.242
308.189
308.14
308.087
308.038
307.99
307.945
307.906
307.868
307.84
307.812
307.794
307.774
307.765
308.239
308.186
308.139
308.086
308.04
307.993
307.948
307.91
307.872
307.844
307.814
307.795
307.771
307.76
308.238
308.185
308.141
308.089
308.043
307.997
307.953
307.914
307.876
307.846
307.815
307.793
307.765
307.752
308.237
308.184
308.14
308.089
308.044
307.998
307.954
307.916
307.877
307.846
307.812
307.786
307.755
307.738
308.239
308.186
308.145
308.094
308.049
308.002
307.958
307.917
307.876
307.842
307.806
307.776
307.744
307.72
308.233
308.176
308.135
308.085
308.043
307.998
307.954
307.914
307.873
307.836
307.799
307.764
307.728
307.696
308.695
308.648
308.592
308.536
308.474
308.414
308.351
308.29
308.234
308.18
308.129
308.082
308.044
308.001
308.642
308.6
308.543
308.487
308.426
308.366
308.307
308.248
308.195
308.145
308.101
308.059
308.026
307.991
308.59
308.546
308.487
308.433
308.374
308.319
308.265
308.213
308.166
308.122
308.083
308.046
308.017
307.987
308.541
308.497
308.44
308.387
308.331
308.278
308.228
308.179
308.135
308.095
308.06
308.028
308.003
307.978
308.496
308.45
308.394
308.342
308.29
308.241
308.194
308.15
308.111
308.074
308.044
308.015
307.994
307.972
308.454
308.406
308.354
308.304
308.255
308.207
308.163
308.122
308.085
308.051
308.023
307.998
307.979
307.961
308.417
308.368
308.319
308.27
308.223
308.178
308.136
308.097
308.062
308.032
308.006
307.984
307.966
307.951
308.384
308.334
308.288
308.239
308.195
308.151
308.11
308.073
308.039
308.011
307.986
307.967
307.949
307.938
308.356
308.305
308.26
308.213
308.169
308.127
308.087
308.052
308.018
307.991
307.966
307.949
307.932
307.922
308.331
308.28
308.236
308.189
308.147
308.105
308.065
308.031
307.997
307.971
307.945
307.929
307.911
307.903
308.31
308.259
308.216
308.169
308.127
308.085
308.045
308.011
307.976
307.95
307.924
307.908
307.887
307.88
308.293
308.241
308.197
308.15
308.108
308.066
308.026
307.99
307.955
307.928
307.901
307.883
307.861
307.853
308.28
308.228
308.186
308.136
308.093
308.049
308.008
307.971
307.935
307.906
307.878
307.858
307.836
307.825
308.263
308.206
308.164
308.115
308.073
308.029
307.988
307.95
307.914
307.884
307.855
307.831
307.808
307.79
308.903
308.869
308.828
308.785
308.74