/*--------------------------------*- C++ -*----------------------------------*\
| =========                 |                                                 |
| \\      /  F ield         | OpenFOAM: The Open Source CFD Toolbox           |
|  \\    /   O peration     | Version:  v2106                                 |
|   \\  /    A nd           | Website:  www.openfoam.com                      |
|    \\/     M anipulation  |                                                 |
\*---------------------------------------------------------------------------*/
FoamFile
{
    version     2.0;
    format      ascii;
    arch        "LSB;label=32;scalar=64";
    class       volScalarField;
    location    "0.000143";
    object      alphat;
}
// * * * * * * * * * * * * * * * * * * * * * * * * * * * * * * * * * * * * * //

dimensions      [1 -1 -1 0 0 0 0];

internalField   nonuniform List<scalar> 
144746
(
0.000100124
8.7974e-05
7.62422e-05
6.21958e-05
4.85634e-05
3.4886e-05
2.46439e-05
1.70897e-05
1.1922e-05
8.94787e-06
9.24916e-06
1.44127e-05
2.56216e-05
4.35093e-05
7.91866e-05
6.76595e-05
5.69597e-05
4.45409e-05
3.30282e-05
2.22476e-05
1.51842e-05
1.01527e-05
6.93884e-06
5.35637e-06
6.42596e-06
1.1864e-05
2.24765e-05
3.81199e-05
5.62809e-05
4.59744e-05
3.68051e-05
2.66434e-05
1.7635e-05
1.08083e-05
6.79819e-06
4.29213e-06
2.92176e-06
2.53509e-06
4.09004e-06
9.44167e-06
1.93348e-05
3.33375e-05
3.6614e-05
2.80088e-05
2.00102e-05
1.23063e-05
6.53037e-06
3.55254e-06
1.93506e-06
1.11966e-06
7.97723e-07
9.43665e-07
2.43622e-06
7.06673e-06
1.57363e-05
2.79882e-05
2.45987e-05
1.74245e-05
1.09009e-05
5.77367e-06
2.83079e-06
1.2358e-06
4.88125e-07
2.00984e-07
1.44854e-07
3.4429e-07
1.49699e-06
5.09527e-06
1.22028e-05
2.24184e-05
2.09114e-05
1.5368e-05
1.03698e-05
6.10465e-06
2.93874e-06
1.14056e-06
3.5029e-07
8.97875e-08
4.15824e-08
1.73099e-07
9.73971e-07
3.59205e-06
9.10865e-06
1.7357e-05
2.36125e-05
1.90635e-05
1.39531e-05
8.28686e-06
3.90299e-06
1.45659e-06
4.51731e-07
1.56088e-07
9.37996e-08
1.70712e-07
7.24736e-07
2.62711e-06
6.80391e-06
1.32801e-05
3.07651e-05
2.61158e-05
1.95967e-05
1.19592e-05
5.81998e-06
2.2821e-06
8.37207e-07
4.46612e-07
3.68547e-07
4.20296e-07
7.90224e-07
2.11184e-06
5.13598e-06
1.00315e-05
4.08862e-05
3.51627e-05
2.68203e-05
1.7098e-05
8.83167e-06
3.77353e-06
1.70053e-06
1.23484e-06
1.22817e-06
1.36953e-06
1.69384e-06
2.62192e-06
4.64502e-06
8.0745e-06
5.4636e-05
4.70327e-05
3.60548e-05
2.36827e-05
1.29599e-05
6.10602e-06
3.32733e-06
2.94516e-06
3.28186e-06
3.81407e-06
4.39395e-06
5.23941e-06
6.51064e-06
8.68768e-06
7.00387e-05
6.04834e-05
4.65968e-05
3.13156e-05
1.81071e-05
9.44967e-06
6.00964e-06
5.98846e-06
7.12958e-06
8.58191e-06
9.92592e-06
1.11561e-05
1.20526e-05
1.32969e-05
8.66205e-05
7.51283e-05
5.8042e-05
3.96734e-05
2.41114e-05
1.3903e-05
9.93459e-06
1.0474e-05
1.28531e-05
1.58395e-05
1.85886e-05
2.08284e-05
2.1981e-05
2.284e-05
0.000100329
8.74875e-05
6.82524e-05
4.74566e-05
3.01472e-05
1.90805e-05
1.49382e-05
1.60714e-05
1.98311e-05
2.47909e-05
2.97464e-05
3.39783e-05
3.65096e-05
3.82358e-05
0.000113515
9.87127e-05
7.76984e-05
5.47911e-05
3.61136e-05
2.46637e-05
2.05988e-05
2.22733e-05
2.73934e-05
3.4631e-05
4.25105e-05
4.97222e-05
5.47281e-05
5.88914e-05
0.000122749
0.000104672
8.77735e-05
6.93632e-05
5.28699e-05
3.72683e-05
2.56028e-05
1.70589e-05
1.19882e-05
1.09619e-05
1.59058e-05
2.82231e-05
4.86225e-05
7.69517e-05
0.000108646
8.98977e-05
7.30694e-05
5.53175e-05
3.99631e-05
2.59164e-05
1.65297e-05
1.03073e-05
7.01206e-06
6.87016e-06
1.17944e-05
2.33219e-05
4.09692e-05
6.36e-05
8.59979e-05
6.8217e-05
5.30834e-05
3.75095e-05
2.39764e-05
1.36597e-05
7.6999e-06
4.35924e-06
2.96179e-06
3.57797e-06
8.11246e-06
1.83475e-05
3.35009e-05
5.19985e-05
6.04173e-05
4.54454e-05
3.21807e-05
1.95947e-05
9.94977e-06
4.78916e-06
2.23602e-06
1.11263e-06
8.32796e-07
1.59095e-06
5.08427e-06
1.32762e-05
2.57783e-05
4.08991e-05
4.01147e-05
2.77852e-05
1.69656e-05
8.44425e-06
3.83326e-06
1.57526e-06
5.58011e-07
1.93933e-07
1.79897e-07
7.22813e-07
3.08068e-06
9.05602e-06
1.89458e-05
3.10296e-05
2.88333e-05
1.98109e-05
1.24332e-05
7.31738e-06
3.60637e-06
1.40472e-06
4.1227e-07
1.00842e-07
7.40568e-08
3.89816e-07
1.86218e-06
5.90797e-06
1.32345e-05
2.27229e-05
2.71624e-05
2.14433e-05
1.59978e-05
1.0112e-05
4.9356e-06
1.86396e-06
5.80121e-07
2.24055e-07
1.69976e-07
3.53104e-07
1.27838e-06
3.96996e-06
9.17123e-06
1.63872e-05
3.2716e-05
2.89555e-05
2.33003e-05
1.5214e-05
7.7854e-06
3.13196e-06
1.18367e-06
7.03682e-07
6.52376e-07
8.18834e-07
1.43798e-06
3.2123e-06
6.80745e-06
1.21334e-05
4.23097e-05
3.92406e-05
3.26864e-05
2.26247e-05
1.24729e-05
5.51583e-06
2.52654e-06
1.95007e-06
2.10462e-06
2.55896e-06
3.29785e-06
4.75165e-06
7.29566e-06
1.10975e-05
5.58015e-05
5.27569e-05
4.47727e-05
3.23933e-05
1.92195e-05
9.39965e-06
5.01046e-06
4.48944e-06
5.34081e-06
6.71117e-06
8.28224e-06
1.02092e-05
1.23954e-05
1.5297e-05
7.15755e-05
6.84273e-05
5.90573e-05
4.42257e-05
2.79735e-05
1.51128e-05
9.01367e-06
8.66361e-06
1.08461e-05
1.39899e-05
1.72842e-05
2.06034e-05
2.32703e-05
2.6009e-05
9.093e-05
8.72836e-05
7.59502e-05
5.7877e-05
3.84485e-05
2.26876e-05
1.47444e-05
1.43616e-05
1.80766e-05
2.35939e-05
2.93934e-05
3.51788e-05
3.97437e-05
4.37309e-05
0.000109383
0.000105693
9.31051e-05
7.18487e-05
4.94435e-05
3.14862e-05
2.19267e-05
2.10692e-05
2.5772e-05
3.35559e-05
4.2606e-05
5.22309e-05
6.08177e-05
6.87115e-05
0.0001298
0.000125569
0.000110483
8.60395e-05
6.06445e-05
4.07619e-05
2.97727e-05
2.80502e-05
3.31171e-05
4.28618e-05
5.55223e-05
6.97881e-05
8.34718e-05
9.72122e-05
0.000110254
9.25481e-05
7.78511e-05
6.26823e-05
4.9093e-05
3.55166e-05
2.45574e-05
1.64417e-05
1.31228e-05
1.6472e-05
2.83905e-05
4.88087e-05
7.59318e-05
0.000106848
0.000108885
8.99868e-05
7.35218e-05
5.65447e-05
4.11456e-05
2.66552e-05
1.62582e-05
9.73442e-06
7.48933e-06
1.05153e-05
2.09974e-05
3.88377e-05
6.11306e-05
8.42477e-05
9.8527e-05
7.85057e-05
6.10946e-05
4.37566e-05
2.78351e-05
1.50847e-05
7.65627e-06
3.9933e-06
3.16592e-06
5.79653e-06
1.44697e-05
2.96679e-05
4.79469e-05
6.53048e-05
7.9192e-05
5.95855e-05
4.20675e-05
2.59308e-05
1.296e-05
5.48448e-06
2.17025e-06
9.73304e-07
9.60979e-07
2.80366e-06
8.94795e-06
2.07069e-05
3.5484e-05
4.92451e-05
5.80342e-05
3.95042e-05
2.34814e-05
1.16207e-05
4.61288e-06
1.68747e-06
5.14523e-07
1.62775e-07
2.70348e-07
1.33809e-06
5.14509e-06
1.33995e-05
2.49921e-05
3.63348e-05
4.04383e-05
2.57369e-05
1.43904e-05
7.65006e-06
3.71902e-06
1.39765e-06
3.77168e-07
9.03164e-08
1.25913e-07
6.91585e-07
2.86027e-06
8.09444e-06
1.64467e-05
2.5767e-05
3.24333e-05
2.32189e-05
1.61564e-05
1.03251e-05
5.05112e-06
1.8738e-06
5.6586e-07
2.38576e-07
2.28479e-07
5.64535e-07
1.87987e-06
5.20064e-06
1.09592e-05
1.82359e-05
3.43538e-05
2.96352e-05
2.40957e-05
1.6073e-05
8.32528e-06
3.3324e-06
1.26013e-06
8.19698e-07
8.43626e-07
1.19516e-06
2.16179e-06
4.45426e-06
8.52057e-06
1.41229e-05
4.1079e-05
3.91189e-05
3.42069e-05
2.47241e-05
1.40534e-05
6.24349e-06
2.85766e-06
2.35813e-06
2.74043e-06
3.64327e-06
5.07196e-06
7.47602e-06
1.10726e-05
1.5933e-05
5.06543e-05
5.06055e-05
4.63781e-05
3.63134e-05
2.29113e-05
1.14697e-05
5.95776e-06
5.4705e-06
6.891e-06
9.28784e-06
1.23308e-05
1.61191e-05
2.0419e-05
2.55651e-05
6.05476e-05
6.26292e-05
5.99797e-05
5.00332e-05
3.47299e-05
1.96187e-05
1.12162e-05
1.04286e-05
1.36147e-05
1.84871e-05
2.41274e-05
3.03331e-05
3.6372e-05
4.29738e-05
7.37546e-05
7.7408e-05
7.57027e-05
6.55594e-05
4.88725e-05
3.0774e-05
1.91026e-05
1.70433e-05
2.15556e-05
2.92572e-05
3.7824e-05
4.73925e-05
5.68197e-05
6.64266e-05
8.79612e-05
9.33538e-05
9.26559e-05
8.19906e-05
6.42588e-05
4.4178e-05
2.94806e-05
2.50786e-05
2.9186e-05
3.83867e-05
4.96425e-05
6.33147e-05
7.81252e-05
9.36459e-05
0.000106918
0.000113023
0.000111524
9.94165e-05
8.03216e-05
5.82845e-05
4.09498e-05
3.3618e-05
3.59215e-05
4.49881e-05
5.80351e-05
7.52877e-05
9.52893e-05
0.000118327
6.57455e-05
8.46766e-05
9.93346e-05
0.000105737
0.000130544
8.07543e-05
5.69415e-05
7.70748e-05
9.84193e-05
0.000113968
0.000141439
8.22544e-05
5.03908e-05
7.15291e-05
9.74233e-05
0.000123678
0.000164072
8.672e-05
4.31409e-05
6.37908e-05
9.19194e-05
0.000128405
0.000189646
9.3581e-05
3.51361e-05
5.32189e-05
7.9966e-05
0.000123795
0.000211644
0.000101381
2.76773e-05
4.22254e-05
6.46537e-05
0.000110669
0.000223814
0.000108867
2.15284e-05
3.27302e-05
5.06324e-05
9.35593e-05
0.000220964
0.000115913
1.65919e-05
2.53887e-05
3.9933e-05
7.75534e-05
0.00020827
0.000120388
1.31537e-05
2.05043e-05
3.29729e-05
6.56749e-05
0.00018932
0.000122184
1.24236e-05
1.91177e-05
3.0775e-05
5.94785e-05
0.000167601
0.000120728
1.60083e-05
2.30383e-05
3.52065e-05
6.01998e-05
0.000147036
0.000116984
2.50263e-05
3.3461e-05
4.7286e-05
6.79251e-05
0.000129173
0.00011211
4.01131e-05
5.07566e-05
6.64265e-05
8.10061e-05
0.000117235
0.000105484
6.00096e-05
7.34465e-05
8.91802e-05
9.66036e-05
0.000118793
9.23796e-05
0.000105954
0.000127543
0.00014012
0.000144612
0.000143856
8.30967e-05
8.65565e-05
0.000110749
0.000133913
0.000153331
0.000165936
9.41388e-05
7.17328e-05
9.58008e-05
0.000124044
0.000154773
0.000184599
0.000106015
5.73409e-05
7.87189e-05
0.000106763
0.000144738
0.000194753
0.000116112
4.40036e-05
6.10109e-05
8.48159e-05
0.000124825
0.000195023
0.000122835
3.28905e-05
4.56947e-05
6.38952e-05
0.000101127
0.000186719
0.000125642
2.43764e-05
3.4001e-05
4.77532e-05
7.94337e-05
0.000170985
0.000125147
1.8484e-05
2.64157e-05
3.81933e-05
6.43955e-05
0.000150574
0.000122658
1.61538e-05
2.38371e-05
3.55354e-05
5.88358e-05
0.000131518
0.000119676
1.9405e-05
2.8205e-05
4.19213e-05
6.44589e-05
0.000119195
0.000115297
2.98718e-05
4.16621e-05
5.92243e-05
8.11644e-05
0.000112839
0.000110276
4.79275e-05
6.38341e-05
8.52309e-05
0.000104432
0.000111563
0.000104979
7.29082e-05
9.19248e-05
0.000114608
0.000128675
0.000117036
9.84989e-05
9.98803e-05
0.00011945
0.000139133
0.00014675
0.000133066
8.715e-05
0.000131006
0.000147731
0.000158181
0.000165622
0.000153146
0.000106966
0.000100697
0.000117785
0.000134883
0.00015253
0.000159009
0.000119992
7.87552e-05
9.37947e-05
0.00011125
0.000132617
0.000154143
0.000128668
6.01961e-05
7.23878e-05
8.71969e-05
0.000107869
0.000138318
0.000132575
4.53904e-05
5.52802e-05
6.67921e-05
8.4804e-05
0.000120632
0.000131719
3.37563e-05
4.20088e-05
5.12194e-05
6.66115e-05
0.000104088
0.000126905
2.52639e-05
3.28149e-05
4.15452e-05
5.57702e-05
9.13553e-05
0.000120191
2.0461e-05
2.85626e-05
3.88233e-05
5.39941e-05
8.73091e-05
0.00011444
2.18744e-05
3.22278e-05
4.61051e-05
6.46358e-05
9.62728e-05
0.000112512
3.17821e-05
4.6589e-05
6.69164e-05
9.02915e-05
0.000118527
0.000115038
5.03782e-05
7.14132e-05
9.89757e-05
0.000125166
0.000142768
0.000118388
7.4243e-05
0.000100255
0.000131947
0.000158411
0.000160338
0.000119891
9.97949e-05
0.000126039
0.000156571
0.000182057
0.000169641
0.000117424
0.000120806
0.000141519
0.00016508
0.000185287
0.000169872
0.000108231
8.19858e-05
9.76097e-05
0.000107722
0.00010965
0.000129917
8.14123e-05
7.41995e-05
9.28021e-05
0.00011158
0.000124822
0.000149776
8.27748e-05
6.64746e-05
8.70533e-05
0.000111822
0.000137994
0.000178586
8.72514e-05
5.63555e-05
7.60695e-05
0.00010377
0.000142172
0.000206676
9.38995e-05
4.52823e-05
6.18645e-05
8.79053e-05
0.000134418
0.000225736
0.000100661
3.54815e-05
4.871e-05
7.11281e-05
0.000120007
0.000233101
0.000105903
2.89379e-05
3.99033e-05
5.8962e-05
0.000105891
0.000230905
0.000109303
2.67035e-05
3.67036e-05
5.36959e-05
9.61176e-05
0.000221787
0.000111342
3.02865e-05
4.02878e-05
5.65412e-05
9.41422e-05
0.000207599
0.000112048
4.06323e-05
5.16537e-05
6.7782e-05
9.96809e-05
0.000190365
0.000111028
5.74111e-05
7.00713e-05
8.57271e-05
0.000110103
0.000170541
0.000110011
7.80296e-05
9.13984e-05
0.000106062
0.000121173
0.000150944
0.000109182
9.90314e-05
0.000111653
0.0001254
0.000131988
0.000141221
0.000103784
0.000114437
0.000125531
0.000137216
0.000140577
0.000144891
8.86263e-05
0.000121591
0.000138978
0.000149338
0.000154266
0.000153816
8.40704e-05
0.000103034
0.000124624
0.000146712
0.000167321
0.000181679
9.57362e-05
8.60005e-05
0.000107604
0.000134808
0.00016757
0.000200427
0.000107668
6.78165e-05
8.58132e-05
0.000111955
0.000152303
0.000205752
0.000117018
5.1631e-05
6.53017e-05
8.73504e-05
0.000129214
0.00019944
0.000122528
4.01651e-05
5.12735e-05
6.97769e-05
0.000108919
0.000186827
0.000124435
3.50049e-05
4.56886e-05
6.26218e-05
9.73565e-05
0.000173906
0.000123987
3.73665e-05
4.91453e-05
6.65906e-05
9.73451e-05
0.000164099
0.00012283
4.88354e-05
6.27857e-05
8.22947e-05
0.000109751
0.000157362
0.000121603
6.88474e-05
8.56256e-05
0.000106878
0.000131144
0.000152933
0.000120041
9.29736e-05
0.000112192
0.000133328
0.000154511
0.000151414
0.000118493
0.000114923
0.000133164
0.000152882
0.000170446
0.000154422
0.000116139
0.000129746
0.000144644
0.000163049
0.000176788
0.000165033
0.00010976
0.000133925
0.000146649
0.000164331
0.000177729
0.000180844
9.61372e-05
0.000135043
0.000148983
0.000160434
0.000168891
0.000157959
0.000108962
0.000105506
0.000119409
0.000135827
0.000154246
0.000163267
0.000121348
8.2515e-05
9.31719e-05
0.000108351
0.000129826
0.000154089
0.000128993
6.31434e-05
7.07658e-05
8.26735e-05
0.000103397
0.00013616
0.000131999
4.94653e-05
5.61519e-05
6.62993e-05
8.54541e-05
0.000122122
0.00013206
4.17882e-05
4.99207e-05
6.10694e-05
8.00939e-05
0.000115567
0.000131776
4.21227e-05
5.34467e-05
6.78151e-05
8.78404e-05
0.000120824
0.000133865
5.20751e-05
6.75428e-05
8.66288e-05
0.000109053
0.000137747
0.000139683
7.11982e-05
9.06601e-05
0.000114582
0.000139113
0.00015844
0.000147091
9.38952e-05
0.000115132
0.000140984
0.000167376
0.000173859
0.000153515
0.000111266
0.000131025
0.000155504
0.000185031
0.000182312
0.000155962
0.000118983
0.00013393
0.000154504
0.000185112
0.000182263
0.000151383
0.000118483
0.00012811
0.000144165
0.000168952
0.000172734
0.000138367
0.000109872
0.000117322
0.000130199
0.000148057
0.000158406
0.000118479
8.95821e-05
0.000138805
0.000131298
0.000125853
0.000113239
0.000101365
0.000108309
0.000142616
0.000124634
0.00011293
9.57474e-05
8.2872e-05
0.000117968
0.000155852
0.000116465
9.5439e-05
7.55103e-05
6.19067e-05
0.000122101
0.000174132
0.000106568
7.76105e-05
5.73616e-05
4.39416e-05
0.000123419
0.000192696
9.66995e-05
6.27952e-05
4.3965e-05
3.20291e-05
0.000123195
0.000208758
9.06263e-05
5.37771e-05
3.69096e-05
2.68824e-05
0.000120324
0.000223757
9.14282e-05
5.1561e-05
3.61003e-05
2.78357e-05
0.000114336
0.000237175
0.00010041
5.63641e-05
4.11178e-05
3.38526e-05
0.000107724
0.000243868
0.000115976
6.88792e-05
5.21034e-05
4.42495e-05
0.000101476
0.000239874
0.000134958
8.87459e-05
6.9096e-05
5.9147e-05
9.46727e-05
0.000226288
0.000151827
0.000111662
8.9543e-05
7.62607e-05
8.77019e-05
0.000204995
0.000159959
0.000130246
0.000109003
9.39396e-05
8.18047e-05
0.000178676
0.000156085
0.000139237
0.000122798
0.000108783
7.80292e-05
0.000154072
0.000146154
0.000140602
0.000132824
0.000123156
9.45031e-05
0.00015578
0.000158888
0.000150743
0.000137028
0.000124878
0.000110237
0.000150649
0.000159406
0.000146989
0.000129034
0.000114054
0.000120032
0.00015025
0.000155455
0.00013594
0.000112783
9.41202e-05
0.000125372
0.000154635
0.000144208
0.000118427
9.21313e-05
7.15682e-05
0.000128613
0.000160046
0.000125798
9.67801e-05
7.11166e-05
5.21279e-05
0.000130138
0.000164675
0.000106885
7.6908e-05
5.48214e-05
3.88926e-05
0.000129002
0.00017065
9.36863e-05
6.35966e-05
4.55539e-05
3.36736e-05
0.000127146
0.000177958
9.01702e-05
5.84771e-05
4.37427e-05
3.57359e-05
0.000125258
0.000186339
9.64799e-05
6.22561e-05
4.89805e-05
4.32757e-05
0.000122812
0.000196546
0.000112126
7.51797e-05
6.10615e-05
5.58209e-05
0.000118528
0.000205747
0.000134426
9.66963e-05
7.97282e-05
7.21038e-05
0.000111728
0.000211284
0.000158554
0.000123728
0.000103627
9.2334e-05
0.000102576
0.000205506
0.000174715
0.000147374
0.000126188
0.000111874
9.15681e-05
0.000189902
0.000176652
0.000160243
0.000143933
0.000131061
0.000115682
0.000141973
0.000137796
0.000126425
0.000117648
0.000110815
0.000135124
0.000159878
0.000155461
0.000135995
0.000122714
0.000112823
0.000148837
0.000173188
0.00016906
0.000142156
0.00012222
0.000105762
0.000155277
0.000177571
0.000170733
0.000142071
0.000115883
9.2719e-05
0.000155492
0.000174907
0.000158712
0.000130592
0.000101143
7.5424e-05
0.000151517
0.000165685
0.000138107
0.000109213
8.12443e-05
5.71205e-05
0.000145111
0.000149731
0.000113236
8.60303e-05
6.31603e-05
4.44343e-05
0.000138272
0.000132618
9.19628e-05
6.8897e-05
5.22595e-05
4.02974e-05
0.000132981
0.000121079
7.87875e-05
5.94043e-05
4.82815e-05
4.2174e-05
0.000129836
0.000118448
7.50322e-05
5.76646e-05
5.03068e-05
4.85001e-05
0.000127401
0.000123933
8.05887e-05
6.34088e-05
5.73969e-05
5.68404e-05
0.000124523
0.000135726
9.50736e-05
7.72442e-05
7.02106e-05
6.87679e-05
0.000119799
0.000146081
0.000114971
9.74926e-05
8.76444e-05
8.30947e-05
0.000112512
0.000147364
0.000131563
0.000118123
0.000107677
0.000101281
9.53037e-05
0.000125525
9.43041e-05
8.02873e-05
6.05492e-05
4.69945e-05
0.000112366
0.000124523
7.8752e-05
5.86827e-05
4.03659e-05
3.00534e-05
0.000122178
0.000131911
6.52716e-05
4.20476e-05
2.67469e-05
1.85343e-05
0.000128107
0.000143674
5.66641e-05
3.2379e-05
1.98692e-05
1.30818e-05
0.000130992
0.000158849
5.47088e-05
2.95617e-05
1.8943e-05
1.28746e-05
0.000131049
0.000176563
5.97656e-05
3.26292e-05
2.27134e-05
1.66578e-05
0.000127581
0.000195664
7.12674e-05
4.04804e-05
3.01875e-05
2.33779e-05
0.000120532
0.000213889
8.87779e-05
5.29044e-05
4.10346e-05
3.28434e-05
0.000111316
0.000224024
0.00011062
7.05619e-05
5.53906e-05
4.50763e-05
0.000102859
0.000218984
0.000131546
9.22758e-05
7.29508e-05
6.00188e-05
9.4527e-05
0.000203495
0.00014496
0.000111864
9.0407e-05
7.48231e-05
8.67297e-05
0.00018141
0.000147648
0.000124414
0.000105133
8.90415e-05
8.06392e-05
0.000157204
0.000141433
0.000129236
0.000115212
0.000100726
7.68507e-05
0.000139428
0.000134158
0.000130736
0.000124811
0.000113994
8.85516e-05
0.000132287
0.000138802
0.000127299
0.000102759
8.16967e-05
0.000102994
0.000122235
0.000121858
0.000102262
7.48076e-05
5.58251e-05
0.000112277
0.00011662
9.94512e-05
7.53051e-05
5.03492e-05
3.48247e-05
0.000118807
0.000113835
7.74923e-05
5.28883e-05
3.33066e-05
2.16246e-05
0.000123073
0.000115246
6.10955e-05
3.89611e-05
2.46945e-05
1.5994e-05
0.000125634
0.000121535
5.42615e-05
3.43952e-05
2.37117e-05
1.68477e-05
0.000126501
0.000133653
5.67436e-05
3.71677e-05
2.85913e-05
2.25729e-05
0.000126343
0.000150744
6.70446e-05
4.55697e-05
3.78918e-05
3.20822e-05
0.000125148
0.00016732
8.52751e-05
5.97327e-05
5.08163e-05
4.44467e-05
0.000122537
0.000179559
0.000108854
7.97104e-05
6.73765e-05
5.98222e-05
0.000117697
0.000186794
0.000132692
0.000102819
8.64719e-05
7.61687e-05
0.000110363
0.000186893
0.000151639
0.00012489
0.000106462
9.37515e-05
0.000101178
0.000174682
0.000159339
0.000140057
0.000123141
0.000109716
9.02931e-05
0.000159111
0.0001571
0.000148144
0.000138046
0.000127386
0.000106386
0.000168978
0.000178682
0.000160069
0.000133657
0.000109817
0.000116442
0.000172948
0.000174845
0.000149311
0.000113069
8.42011e-05
0.000120422
0.000165818
0.000153887
0.000124748
8.67105e-05
5.82998e-05
0.000120667
0.000149433
0.000123544
9.24906e-05
6.02069e-05
3.75216e-05
0.000118378
0.000125615
9.09246e-05
6.34816e-05
4.00355e-05
2.4308e-05
0.000115609
0.000102396
6.59654e-05
4.55055e-05
3.02697e-05
1.95032e-05
0.000114744
8.73343e-05
5.32537e-05
3.92423e-05
2.94199e-05
2.20373e-05
0.000116631
8.32136e-05
5.0493e-05
4.07091e-05
3.47579e-05
2.97081e-05
0.000119922
8.81995e-05
5.47673e-05
4.68072e-05
4.30723e-05
3.98647e-05
0.000123
9.81202e-05
6.47862e-05
5.62761e-05
5.32814e-05
5.14967e-05
0.000124225
0.000111088
7.94605e-05
6.88374e-05
6.47263e-05
6.27618e-05
0.000122798
0.000124935
9.73871e-05
8.44247e-05
7.83398e-05
7.54198e-05
0.000118103
0.000130751
0.000113503
0.000101062
9.31712e-05
8.83338e-05
0.000110523
0.000128858
0.000124623
0.000116867
0.000110828
0.000105388
9.30598e-05
7.80228e-05
6.71249e-05
5.55071e-05
4.44258e-05
3.20816e-05
2.19288e-05
1.49966e-05
1.37587e-05
2.04662e-05
3.5617e-05
5.64234e-05
7.98575e-05
0.000106441
9.14891e-05
7.71024e-05
6.39004e-05
5.05322e-05
3.67825e-05
2.30356e-05
1.33154e-05
7.80208e-06
6.90854e-06
1.18905e-05
2.44485e-05
4.29939e-05
6.32644e-05
8.17534e-05
8.52948e-05
7.02057e-05
5.47474e-05
3.90964e-05
2.4157e-05
1.24902e-05
5.77928e-06
2.8134e-06
2.64101e-06
6.2019e-06
1.5975e-05
3.1846e-05
4.92681e-05
6.33463e-05
7.55999e-05
5.70028e-05
3.90622e-05
2.31211e-05
1.10492e-05
4.37903e-06
1.52146e-06
5.99782e-07
7.44435e-07
2.80696e-06
9.32494e-06
2.14632e-05
3.60088e-05
4.77903e-05
6.12894e-05
4.03141e-05
2.28703e-05
1.07066e-05
4.10392e-06
1.3887e-06
3.66613e-07
9.61541e-08
2.15236e-07
1.22684e-06
4.99935e-06
1.32448e-05
2.45588e-05
3.47935e-05
4.52751e-05
2.68289e-05
1.40141e-05
6.87371e-06
3.11976e-06
1.10908e-06
2.7247e-07
5.96043e-08
9.61911e-08
5.66358e-07
2.41257e-06
7.06564e-06
1.48201e-05
2.38493e-05
3.54329e-05
2.27981e-05
1.45457e-05
8.56526e-06
3.99045e-06
1.41238e-06
4.04852e-07
1.7056e-07
1.73942e-07
4.60502e-07
1.56019e-06
4.40405e-06
9.62671e-06
1.68446e-05
3.51675e-05
2.77725e-05
2.09944e-05
1.30801e-05
6.47098e-06
2.49804e-06
9.30946e-07
6.15267e-07
6.5191e-07
9.88598e-07
1.87701e-06
4.01392e-06
7.94685e-06
1.39212e-05
4.06665e-05
3.62456e-05
2.97206e-05
2.03422e-05
1.10858e-05
4.82147e-06
2.21526e-06
1.84014e-06
2.1686e-06
3.05215e-06
4.51989e-06
7.19005e-06
1.13716e-05
1.75512e-05
4.83596e-05
4.61773e-05
4.05049e-05
3.05686e-05
1.86942e-05
9.28039e-06
4.8731e-06
4.43466e-06
5.61737e-06
7.93271e-06
1.11292e-05
1.56676e-05
2.13761e-05
2.89525e-05
5.52385e-05
5.56841e-05
5.20838e-05
4.28231e-05
2.93433e-05
1.66043e-05
9.57605e-06
8.82482e-06
1.15536e-05
1.62175e-05
2.20302e-05
2.9189e-05
3.69065e-05
4.65021e-05
6.424e-05
6.65037e-05
6.45858e-05
5.66201e-05
4.29021e-05
2.74818e-05
1.71206e-05
1.50369e-05
1.92134e-05
2.64609e-05
3.48107e-05
4.46523e-05
5.49382e-05
6.69178e-05
7.30598e-05
7.79028e-05
7.78737e-05
7.12213e-05
5.83717e-05
4.16265e-05
2.80204e-05
2.33308e-05
2.66864e-05
3.56237e-05
4.56695e-05
5.80645e-05
7.19869e-05
8.84235e-05
8.77142e-05
9.23268e-05
9.15082e-05
8.62483e-05
7.47955e-05
5.76826e-05
4.15553e-05
3.34102e-05
3.42562e-05
4.18311e-05
5.22571e-05
6.72004e-05
8.5616e-05
0.000110819
7.89292e-05
6.93354e-05
6.02786e-05
4.93388e-05
3.84326e-05
2.67592e-05
1.76897e-05
1.17433e-05
1.00895e-05
1.41983e-05
2.43783e-05
3.84562e-05
5.32135e-05
6.68824e-05
7.44707e-05
6.46872e-05
5.33948e-05
4.10964e-05
2.8678e-05
1.72444e-05
9.52132e-06
5.46375e-06
4.64594e-06
7.58265e-06
1.59053e-05
2.91933e-05
4.421e-05
5.71053e-05
6.85374e-05
5.5554e-05
4.15871e-05
2.80944e-05
1.63662e-05
8.07501e-06
3.59356e-06
1.74834e-06
1.62868e-06
3.66464e-06
9.89249e-06
2.13828e-05
3.55668e-05
4.80184e-05
5.94614e-05
4.24766e-05
2.69537e-05
1.47286e-05
6.63261e-06
2.51755e-06
8.35615e-07
3.33402e-07
4.13701e-07
1.5594e-06
5.52609e-06
1.40426e-05
2.59066e-05
3.73979e-05
4.69936e-05
2.8711e-05
1.49965e-05
6.63334e-06
2.60064e-06
8.78448e-07
2.22036e-07
5.40132e-08
1.14048e-07
6.71846e-07
2.93135e-06
8.482e-06
1.74717e-05
2.74669e-05
3.47766e-05
1.95446e-05
1.00694e-05
5.0138e-06
2.18313e-06
7.35252e-07
1.71185e-07
3.42144e-08
5.12103e-08
3.14542e-07
1.41937e-06
4.50376e-06
1.03364e-05
1.82112e-05
2.8723e-05
1.82199e-05
1.13611e-05
6.12745e-06
2.6417e-06
8.76582e-07
2.38752e-07
9.56515e-08
9.20544e-08
2.49499e-07
9.1409e-07
2.77854e-06
6.58315e-06
1.25377e-05
3.08177e-05
2.32676e-05
1.59191e-05
8.9769e-06
4.04028e-06
1.45394e-06
5.39124e-07
3.57933e-07
3.56048e-07
5.19292e-07
1.04037e-06
2.43124e-06
5.23676e-06
9.91374e-06
3.72082e-05
3.09241e-05
2.2679e-05
1.38577e-05
6.77302e-06
2.75937e-06
1.32494e-06
1.12475e-06
1.23863e-06
1.6572e-06
2.45458e-06
4.11155e-06
6.98534e-06
1.17016e-05
4.49321e-05
3.97245e-05
3.16221e-05
2.13508e-05
1.16504e-05
5.41759e-06
3.02446e-06
2.86067e-06
3.40219e-06
4.61542e-06
6.45e-06
9.3508e-06
1.33204e-05
1.90462e-05
5.17294e-05
4.85356e-05
4.1575e-05
3.09335e-05
1.90178e-05
1.00255e-05
6.11904e-06
6.0305e-06
7.53194e-06
1.02843e-05
1.39919e-05
1.8843e-05
2.42555e-05
3.10639e-05
6.01214e-05
5.79962e-05
5.22639e-05
4.24177e-05
2.94242e-05
1.75923e-05
1.13074e-05
1.08386e-05
1.36921e-05
1.8455e-05
2.42531e-05
3.10226e-05
3.75331e-05
4.48318e-05
6.61543e-05
6.65167e-05
6.28047e-05
5.48611e-05
4.2349e-05
2.85527e-05
1.93227e-05
1.73605e-05
2.08023e-05
2.73203e-05
3.46203e-05
4.28418e-05
5.007e-05
5.76593e-05
7.4209e-05
7.45756e-05
7.23335e-05
6.71382e-05
5.65194e-05
4.22542e-05
3.04209e-05
2.58436e-05
2.79628e-05
3.45405e-05
4.24773e-05
5.16842e-05
5.95653e-05
6.83693e-05
6.85603e-05
5.905e-05
4.94499e-05
3.88706e-05
2.8878e-05
1.92385e-05
1.20141e-05
7.58493e-06
5.68639e-06
6.66171e-06
1.15984e-05
2.04962e-05
3.20075e-05
4.47105e-05
5.853e-05
4.83682e-05
3.79385e-05
2.75151e-05
1.80722e-05
1.0453e-05
5.60923e-06
3.1205e-06
2.38377e-06
3.15934e-06
6.77275e-06
1.44836e-05
2.57776e-05
3.8117e-05
4.9111e-05
3.62284e-05
2.49124e-05
1.55492e-05
8.58128e-06
4.08663e-06
1.80234e-06
8.67539e-07
7.29682e-07
1.34918e-06
3.90476e-06
1.01344e-05
2.02342e-05
3.18794e-05
3.82328e-05
2.42821e-05
1.38354e-05
6.9232e-06
3.01706e-06
1.12288e-06
3.72517e-07
1.4598e-07
1.52165e-07
5.1082e-07
2.07673e-06
6.4005e-06
1.42616e-05
2.43041e-05
2.76854e-05
1.53118e-05
7.5765e-06
3.40722e-06
1.40798e-06
4.8707e-07
1.24638e-07
2.5251e-08
3.42307e-08
2.14273e-07
1.09529e-06
3.8108e-06
9.32464e-06
1.73751e-05
2.07375e-05
1.15943e-05
6.29308e-06
3.17585e-06
1.33405e-06
4.37904e-07
1.02387e-07
1.77971e-08
1.61864e-08
1.08773e-07
5.7064e-07
2.06231e-06
5.48416e-06
1.11817e-05
1.965e-05
1.27664e-05
7.65947e-06
3.8441e-06
1.57104e-06
5.07534e-07
1.34642e-07
4.78927e-08
3.85216e-08
9.48155e-08
3.85658e-07
1.31813e-06
3.49366e-06
7.44035e-06
2.40047e-05
1.72238e-05
1.05474e-05
5.43387e-06
2.27924e-06
7.92882e-07
2.89574e-07
1.8211e-07
1.65332e-07
2.164e-07
4.38155e-07
1.12174e-06
2.67354e-06
5.56205e-06
3.07121e-05
2.29758e-05
1.4982e-05
8.1787e-06
3.65352e-06
1.44578e-06
7.17403e-07
5.95998e-07
6.04256e-07
7.31536e-07
1.02189e-06
1.73006e-06
3.11836e-06
5.72096e-06
3.81067e-05
3.01888e-05
2.11454e-05
1.24857e-05
6.11122e-06
2.77529e-06
1.68283e-06
1.59334e-06
1.75368e-06
2.18161e-06
2.861e-06
4.05742e-06
5.86897e-06
8.99041e-06
4.50746e-05
3.77171e-05
2.82724e-05
1.82097e-05
9.89825e-06
5.08614e-06
3.48556e-06
3.55284e-06
4.15922e-06
5.31332e-06
6.91828e-06
9.16511e-06
1.18739e-05
1.59377e-05
5.3243e-05
4.5934e-05
3.66065e-05
2.58465e-05
1.57437e-05
8.99277e-06
6.49653e-06
6.77595e-06
8.23971e-06
1.06054e-05
1.36278e-05
1.72786e-05
2.09252e-05
2.56636e-05
5.95625e-05
5.36522e-05
4.55905e-05
3.52256e-05
2.40033e-05
1.51242e-05
1.11371e-05
1.13536e-05
1.38641e-05
1.76619e-05
2.21486e-05
2.71836e-05
3.14981e-05
3.63392e-05
6.65518e-05
6.10275e-05
5.47701e-05
4.59519e-05
3.45962e-05
2.39392e-05
1.79157e-05
1.73657e-05
2.01776e-05
2.51468e-05
3.05539e-05
3.6709e-05
4.14756e-05
4.65762e-05
5.10106e-05
4.13456e-05
3.27635e-05
2.38957e-05
1.61148e-05
9.95743e-06
6.00079e-06
3.7808e-06
2.70393e-06
2.47385e-06
3.73409e-06
7.46163e-06
1.44589e-05
2.50483e-05
3.79217e-05
2.76435e-05
1.98076e-05
1.28698e-05
7.66093e-06
4.15334e-06
2.22172e-06
1.29525e-06
9.81877e-07
1.02209e-06
1.88299e-06
4.703e-06
1.07392e-05
2.03744e-05
2.69487e-05
1.68115e-05
1.01433e-05
5.5396e-06
2.78233e-06
1.24626e-06
5.56575e-07
2.97513e-07
2.47218e-07
3.58749e-07
9.82161e-07
3.11636e-06
8.03791e-06
1.62548e-05
1.82872e-05
9.824e-06
4.92999e-06
2.21862e-06
9.12005e-07
3.216e-07
1.03814e-07
4.40899e-08
4.35472e-08
1.10254e-07
4.89086e-07
1.88312e-06
5.38157e-06
1.17134e-05
1.28815e-05
6.70573e-06
3.32214e-06
1.54519e-06
6.3207e-07
2.08176e-07
4.97304e-08
8.92232e-09
7.56965e-09
4.32076e-08
2.58241e-07
1.11312e-06
3.40994e-06
7.95496e-06
1.11222e-05
6.38476e-06
3.44905e-06
1.62581e-06
6.29112e-07
1.91035e-07
4.17596e-08
6.69256e-09
3.57041e-09
2.25738e-08
1.43251e-07
6.21584e-07
1.99277e-06
4.92874e-06
1.23011e-05
7.61002e-06
4.10285e-06
1.85539e-06
6.89809e-07
2.04739e-07
5.03866e-08
1.6679e-08
1.14926e-08
2.22868e-08
1.00193e-07
4.09241e-07
1.28417e-06
3.21213e-06
1.60014e-05
1.00819e-05
5.4067e-06
2.44602e-06
9.17692e-07
2.94185e-07
1.04665e-07
6.54184e-08
5.52844e-08
6.16322e-08
1.16943e-07
3.37424e-07
9.46881e-07
2.30711e-06
2.11995e-05
1.3625e-05
7.54287e-06
3.52162e-06
1.3909e-06
5.23825e-07
2.73136e-07
2.30273e-07
2.18652e-07
2.36719e-07
2.98796e-07
5.03637e-07
9.9514e-07
2.11001e-06
2.74189e-05
1.84885e-05
1.07592e-05
5.32282e-06
2.29795e-06
1.04053e-06
6.96423e-07
6.69549e-07
6.89412e-07
7.8347e-07
9.43387e-07
1.27542e-06
1.84098e-06
3.06838e-06
3.3695e-05
2.39276e-05
1.47923e-05
7.89294e-06
3.7897e-06
2.01708e-06
1.57243e-06
1.6282e-06
1.78856e-06
2.12783e-06
2.61039e-06
3.3296e-06
4.22615e-06
5.95071e-06
4.07516e-05
3.02722e-05
2.01154e-05
1.17847e-05
6.32511e-06
3.77217e-06
3.16459e-06
3.40155e-06
3.91996e-06
4.80272e-06
5.97876e-06
7.44065e-06
8.91097e-06
1.13348e-05
4.69984e-05
3.68385e-05
2.66468e-05
1.72578e-05
1.02929e-05
6.64602e-06
5.74494e-06
6.25693e-06
7.39456e-06
9.18668e-06
1.14218e-05
1.39854e-05
1.62164e-05
1.92302e-05
5.41771e-05
4.44639e-05
3.49626e-05
2.49299e-05
1.63538e-05
1.1159e-05
9.58959e-06
1.03472e-05
1.21591e-05
1.51284e-05
1.85639e-05
2.2401e-05
2.55437e-05
2.91333e-05
3.1857e-05
2.2554e-05
1.59968e-05
1.04006e-05
6.41833e-06
3.81673e-06
2.37194e-06
1.5738e-06
1.15432e-06
9.0234e-07
9.56306e-07
1.8651e-06
4.55522e-06
1.03403e-05
1.96412e-05
1.1566e-05
7.02042e-06
3.9643e-06
2.15106e-06
1.14435e-06
6.66969e-07
4.41086e-07
3.53066e-07
3.15589e-07
3.95077e-07
1.00768e-06
3.03372e-06
7.87199e-06
1.15135e-05
5.62592e-06
2.76683e-06
1.28901e-06
5.81885e-07
2.5522e-07
1.28015e-07
8.41244e-08
7.40666e-08
8.39429e-08
1.67261e-07
6.16481e-07
2.14416e-06
5.90998e-06
7.23031e-06
3.31923e-06
1.48881e-06
6.37633e-07
2.49337e-07
8.44145e-08
2.62595e-08
1.16728e-08
1.10514e-08
1.76713e-08
7.0946e-08
3.53037e-07
1.3674e-06
4.01514e-06
5.80494e-06
2.99492e-06
1.49793e-06
6.82639e-07
2.62436e-07
8.00387e-08
1.79925e-08
2.95965e-09
1.38176e-09
5.17069e-09