/*--------------------------------*- C++ -*----------------------------------*\
| =========                 |                                                 |
| \\      /  F ield         | OpenFOAM: The Open Source CFD Toolbox           |
|  \\    /   O peration     | Version:  v2106                                 |
|   \\  /    A nd           | Website:  www.openfoam.com                      |
|    \\/     M anipulation  |                                                 |
\*---------------------------------------------------------------------------*/
FoamFile
{
    version     2.0;
    format      ascii;
    arch        "LSB;label=32;scalar=64";
    class       volScalarField;
    location    "0.000143";
    object      nut;
}
// * * * * * * * * * * * * * * * * * * * * * * * * * * * * * * * * * * * * * //

dimensions      [0 2 -1 0 0 0 0];

internalField   nonuniform List<scalar> 
144746
(
4.21603e-05
3.70396e-05
3.21192e-05
2.62205e-05
2.04827e-05
1.4714e-05
1.03873e-05
7.19561e-06
5.01452e-06
3.76004e-06
3.88489e-06
6.05257e-06
1.07593e-05
1.82842e-05
3.33371e-05
2.84701e-05
2.39791e-05
1.87502e-05
1.39078e-05
9.365e-06
6.38579e-06
4.2652e-06
2.91167e-06
2.2454e-06
2.69243e-06
4.97077e-06
9.42139e-06
1.59973e-05
2.37138e-05
1.93512e-05
1.54902e-05
1.12059e-05
7.41339e-06
4.5407e-06
2.85301e-06
1.79961e-06
1.22362e-06
1.06081e-06
1.71081e-06
3.95016e-06
8.09446e-06
1.39801e-05
1.54497e-05
1.17995e-05
8.42193e-06
5.17364e-06
2.74237e-06
1.4903e-06
8.10775e-07
4.68681e-07
3.33556e-07
3.94303e-07
1.01765e-06
2.95282e-06
6.58116e-06
1.1729e-05
1.03962e-05
7.34874e-06
4.58927e-06
2.42686e-06
1.1881e-06
5.1799e-07
2.0433e-07
8.4039e-08
6.05032e-08
1.43709e-07
6.24701e-07
2.1272e-06
5.10015e-06
9.39106e-06
8.85232e-06
6.48851e-06
4.36802e-06
2.56659e-06
1.23334e-06
4.77924e-07
1.46561e-07
3.75195e-08
1.73574e-08
7.22089e-08
4.06246e-07
1.49884e-06
3.80575e-06
7.26859e-06
1.00009e-05
8.05324e-06
5.8809e-06
3.48549e-06
1.63827e-06
6.10305e-07
1.88976e-07
6.52091e-08
3.91454e-08
7.11978e-08
3.02198e-07
1.09602e-06
2.8423e-06
5.56052e-06
1.30428e-05
1.1042e-05
8.26324e-06
5.03105e-06
2.44311e-06
9.56165e-07
3.50235e-07
1.86587e-07
1.53812e-07
1.75306e-07
3.2955e-07
8.81303e-07
2.14557e-06
4.20083e-06
1.73395e-05
1.48742e-05
1.13133e-05
7.19478e-06
3.7079e-06
1.58127e-06
7.11519e-07
5.16027e-07
5.12721e-07
5.71415e-07
7.06614e-07
1.09457e-06
1.94087e-06
3.38213e-06
2.31709e-05
1.98974e-05
1.5212e-05
9.96819e-06
5.44321e-06
2.55988e-06
1.39296e-06
1.23153e-06
1.37109e-06
1.59263e-06
1.8345e-06
2.18895e-06
2.72201e-06
3.6407e-06
2.96877e-05
2.55706e-05
1.96514e-05
1.31803e-05
7.60803e-06
3.96404e-06
2.51791e-06
2.50658e-06
2.98181e-06
3.58733e-06
4.14882e-06
4.66589e-06
5.04403e-06
5.57642e-06
3.66748e-05
3.17445e-05
2.44798e-05
1.67051e-05
1.01405e-05
5.83942e-06
4.16833e-06
4.39037e-06
5.38405e-06
6.6326e-06
7.78441e-06
8.72756e-06
9.21641e-06
9.59485e-06
4.24274e-05
3.6905e-05
2.87589e-05
1.99734e-05
1.26836e-05
8.02275e-06
6.27818e-06
6.74998e-06
8.32396e-06
1.0401e-05
1.24784e-05
1.42593e-05
1.53286e-05
1.60692e-05
4.79797e-05
4.16404e-05
3.27657e-05
2.30874e-05
1.52225e-05
1.03953e-05
8.68264e-06
9.38297e-06
1.15347e-05
1.45745e-05
1.78863e-05
2.09187e-05
2.3029e-05
2.4792e-05
5.143e-05
4.38031e-05
3.67392e-05
2.90537e-05
2.21497e-05
1.5623e-05
1.07227e-05
7.13757e-06
5.01304e-06
4.58746e-06
6.66652e-06
1.18574e-05
2.04662e-05
3.2416e-05
4.56239e-05
3.76859e-05
3.06394e-05
2.31819e-05
1.67389e-05
1.08502e-05
6.90932e-06
4.30494e-06
2.92671e-06
2.86848e-06
4.93096e-06
9.7677e-06
1.71929e-05
2.67045e-05
3.61296e-05
2.86112e-05
2.22663e-05
1.57223e-05
1.00387e-05
5.7139e-06
3.21541e-06
1.81897e-06
1.23475e-06
1.49176e-06
3.38522e-06
7.66553e-06
1.40228e-05
2.1782e-05
2.54087e-05
1.90886e-05
1.35102e-05
8.21894e-06
4.16593e-06
2.00205e-06
9.32941e-07
4.6384e-07
3.46878e-07
6.62626e-07
2.11896e-06
5.5392e-06
1.07722e-05
1.71082e-05
1.68796e-05
1.1683e-05
7.12619e-06
3.54163e-06
1.60465e-06
6.58374e-07
2.32805e-07
8.08411e-08
7.49091e-08
3.009e-07
1.2826e-06
3.77277e-06
7.90107e-06
1.29583e-05
1.21524e-05
8.3369e-06
5.2241e-06
3.06887e-06
1.50979e-06
5.87087e-07
1.72013e-07
4.20273e-08
3.08359e-08
1.62231e-07
7.7508e-07
2.46004e-06
5.51674e-06
9.48297e-06
1.14467e-05
9.02637e-06
6.72528e-06
4.24278e-06
2.06705e-06
7.79219e-07
2.42148e-07
9.33936e-08
7.07824e-08
1.4694e-07
5.31853e-07
1.65221e-06
3.81994e-06
6.8348e-06
1.38096e-05
1.2208e-05
9.80507e-06
6.38934e-06
3.26294e-06
1.31008e-06
4.94342e-07
2.93464e-07
2.71803e-07
3.40916e-07
5.98482e-07
1.33712e-06
2.83554e-06
5.06167e-06
1.7866e-05
1.6557e-05
1.37662e-05
9.5139e-06
5.23221e-06
2.30956e-06
1.05594e-06
8.13824e-07
8.7751e-07
1.06621e-06
1.37364e-06
1.97963e-06
3.04172e-06
4.63553e-06
2.35391e-05
2.22576e-05
1.88652e-05
1.36334e-05
8.0699e-06
3.94021e-06
2.09627e-06
1.87554e-06
2.22949e-06
2.79965e-06
3.45486e-06
4.26022e-06
5.17693e-06
6.40405e-06
3.01677e-05
2.88546e-05
2.48796e-05
1.86237e-05
1.17595e-05
6.34329e-06
3.776e-06
3.62439e-06
4.53377e-06
5.84474e-06
7.22262e-06
8.61531e-06
9.74193e-06
1.09195e-05
3.82754e-05
3.68032e-05
3.20076e-05
2.43849e-05
1.61782e-05
9.5331e-06
6.18525e-06
6.01733e-06
7.56954e-06
9.87839e-06
1.23143e-05
1.47538e-05
1.66905e-05
1.84212e-05
4.59839e-05
4.45028e-05
3.92063e-05
3.02635e-05
2.08197e-05
1.32435e-05
9.21069e-06
8.84031e-06
1.08084e-05
1.40735e-05
1.78784e-05
2.19441e-05
2.55817e-05
2.89699e-05
5.46121e-05
5.2923e-05
4.66023e-05
3.63008e-05
2.55873e-05
1.71782e-05
1.25317e-05
1.17906e-05
1.39125e-05
1.80015e-05
2.33201e-05
2.93292e-05
3.51258e-05
4.10115e-05
4.62925e-05
3.87089e-05
3.25365e-05
2.61575e-05
2.04114e-05
1.47236e-05
1.01518e-05
6.78945e-06
5.41692e-06
6.80727e-06
1.17702e-05
2.03194e-05
3.17902e-05
4.49621e-05
4.58368e-05
3.77196e-05
3.07678e-05
2.35889e-05
1.70944e-05
1.10409e-05
6.71152e-06
4.01277e-06
3.08483e-06
4.33458e-06
8.67887e-06
1.61043e-05
2.54489e-05
3.51796e-05
4.14e-05
3.2871e-05
2.55211e-05
1.82242e-05
1.15526e-05
6.24383e-06
3.15894e-06
1.6447e-06
1.30241e-06
2.38495e-06
5.96164e-06
1.22536e-05
1.98608e-05
2.71365e-05
3.3246e-05
2.49598e-05
1.75781e-05
1.08061e-05
5.38077e-06
2.26972e-06
8.95099e-07
4.00619e-07
3.94964e-07
1.15205e-06
3.67978e-06
8.53344e-06
1.46537e-05
2.04014e-05
2.43391e-05
1.65387e-05
9.8033e-06
4.83774e-06
1.91417e-06
6.98285e-07
2.12246e-07
6.69898e-08
1.11069e-07
5.49305e-07
2.11221e-06
5.50694e-06
1.02882e-05
1.49952e-05
1.69397e-05
1.07575e-05
6.0009e-06
3.18253e-06
1.54289e-06
5.78315e-07
1.55586e-07
3.71728e-08
5.17313e-08
2.83825e-07
1.17359e-06
3.3226e-06
6.76234e-06
1.06146e-05
1.35778e-05
9.69722e-06
6.73347e-06
4.29419e-06
2.09546e-06
7.75523e-07
2.33513e-07
9.82316e-08
9.38884e-08
2.31637e-07
7.70741e-07
2.13214e-06
4.49839e-06
7.49779e-06
1.43795e-05
1.23835e-05
1.00502e-05
6.69084e-06
3.45692e-06
1.38048e-06
5.20477e-07
3.37772e-07
3.46995e-07
4.908e-07
8.8696e-07
1.82744e-06
3.49851e-06
5.80882e-06
1.72367e-05
1.63753e-05
1.42867e-05
1.03054e-05
5.84173e-06
2.58995e-06
1.18185e-06
9.72753e-07
1.12852e-06
1.49783e-06
2.0838e-06
3.07193e-06
4.55338e-06
6.56439e-06
2.1325e-05
2.12465e-05
1.94141e-05
1.51618e-05
9.53846e-06
4.76412e-06
2.46764e-06
2.25984e-06
2.84263e-06
3.82506e-06
5.07744e-06
6.63981e-06
8.42334e-06
1.05687e-05
2.55535e-05
2.63739e-05
2.51713e-05
2.09338e-05
1.44899e-05
8.16339e-06
4.65359e-06
4.31588e-06
5.6267e-06
7.6314e-06
9.96395e-06
1.25362e-05
1.50631e-05
1.78369e-05
3.11428e-05
3.26705e-05
3.18442e-05
2.74881e-05
2.04258e-05
1.28258e-05
7.93849e-06
7.0677e-06
8.93019e-06
1.21099e-05
1.56657e-05
1.96493e-05
2.36202e-05
2.77274e-05
3.71214e-05
3.93903e-05
3.89799e-05
3.44274e-05
2.6913e-05
1.84513e-05
1.22736e-05
1.04224e-05
1.21198e-05
1.59412e-05
2.06469e-05
2.63807e-05
3.26372e-05
3.93e-05
4.51889e-05
4.78282e-05
4.70667e-05
4.18476e-05
3.37033e-05
2.43937e-05
1.70894e-05
1.40095e-05
1.49525e-05
1.87359e-05
2.42187e-05
3.14731e-05
3.99512e-05
4.99117e-05
2.76298e-05
3.55983e-05
4.17616e-05
4.44862e-05
5.49083e-05
3.39622e-05
2.39194e-05
3.24155e-05
4.13886e-05
4.79528e-05
5.94771e-05
3.45718e-05
2.11537e-05
3.00616e-05
4.09447e-05
5.20146e-05
6.89774e-05
3.64326e-05
1.81081e-05
2.68186e-05
3.86548e-05
5.40358e-05
7.97917e-05
3.93411e-05
1.47477e-05
2.23877e-05
3.36593e-05
5.21522e-05
8.91653e-05
4.2684e-05
1.1617e-05
1.77732e-05
2.72414e-05
4.66871e-05
9.44324e-05
4.59256e-05
9.0351e-06
1.37807e-05
2.13502e-05
3.95181e-05
9.33584e-05
4.89893e-05
6.96311e-06
1.06913e-05
1.68483e-05
3.27955e-05
8.81144e-05
5.09393e-05
5.52092e-06
8.63345e-06
1.39111e-05
2.7773e-05
8.007e-05
5.16785e-05
5.21585e-06
8.0514e-06
1.29839e-05
2.51431e-05
7.08302e-05
5.10073e-05
6.72413e-06
9.69976e-06
1.48409e-05
2.5413e-05
6.2055e-05
4.93809e-05
1.05241e-05
1.4095e-05
1.99272e-05
2.8657e-05
5.44812e-05
4.73011e-05
1.68692e-05
2.13692e-05
2.79742e-05
3.41471e-05
4.94096e-05
4.44761e-05
2.5271e-05
3.09633e-05
3.75937e-05
4.0759e-05
5.00892e-05
3.89435e-05
4.45592e-05
5.36711e-05
5.88877e-05
6.08327e-05
6.03879e-05
3.48936e-05
3.63428e-05
4.65063e-05
5.61318e-05
6.42652e-05
6.93855e-05
3.93135e-05
3.00419e-05
4.01172e-05
5.18713e-05
6.47213e-05
7.70362e-05
4.41755e-05
2.39852e-05
3.29371e-05
4.46233e-05
6.05014e-05
8.12497e-05
4.8374e-05
1.83915e-05
2.55317e-05
3.54674e-05
5.22264e-05
8.14704e-05
5.12641e-05
1.37448e-05
1.91338e-05
2.67511e-05
4.23969e-05
7.82095e-05
5.26267e-05
1.01827e-05
1.42463e-05
2.00319e-05
3.34085e-05
7.19014e-05
5.26564e-05
7.72199e-06
1.10812e-05
1.60565e-05
2.71839e-05
6.36058e-05
5.19392e-05
6.75816e-06
1.002e-05
1.49819e-05
2.49492e-05
5.5824e-05
5.09608e-05
8.13498e-06
1.18918e-05
1.77246e-05
2.74224e-05
5.07482e-05
4.92949e-05
1.25624e-05
1.7606e-05
2.50858e-05
3.45871e-05
4.81029e-05
4.72178e-05
2.02139e-05
2.70313e-05
3.61307e-05
4.44758e-05
4.74909e-05
4.48344e-05
3.07464e-05
3.88665e-05
4.84654e-05
5.45762e-05
4.96024e-05
4.18393e-05
4.21932e-05
5.05632e-05
5.88423e-05
6.2119e-05
5.62137e-05
3.68558e-05
5.52383e-05
6.25993e-05
6.72673e-05
7.07984e-05
6.53537e-05
4.61917e-05
4.22675e-05
4.96924e-05
5.69602e-05
6.45674e-05
6.71669e-05
5.09984e-05
3.2875e-05
3.93488e-05
4.67263e-05
5.58053e-05
6.4781e-05
5.42053e-05
2.50342e-05
3.02481e-05
3.64786e-05
4.52492e-05
5.7989e-05
5.56689e-05
1.87915e-05
2.29897e-05
2.78509e-05
3.55363e-05
5.0618e-05
5.545e-05
1.39421e-05
1.74172e-05
2.13175e-05
2.79276e-05
4.38249e-05
5.38493e-05
1.04178e-05
1.35888e-05
1.72967e-05
2.34532e-05
3.87258e-05
5.16416e-05
8.44183e-06
1.18546e-05
1.62136e-05
2.28382e-05
3.73362e-05
4.99799e-05
9.04508e-06
1.3424e-05
1.93743e-05
2.75909e-05
4.16093e-05
4.99637e-05
1.31947e-05
1.95191e-05
2.82877e-05
3.87836e-05
5.15234e-05
5.16209e-05
2.10018e-05
3.00769e-05
4.20629e-05
5.40337e-05
6.22444e-05
5.33817e-05
3.11105e-05
4.24531e-05
5.62951e-05
6.85025e-05
6.98462e-05
5.39107e-05
4.19355e-05
5.34709e-05
6.68023e-05
7.85263e-05
7.35067e-05
5.21959e-05
5.11742e-05
6.04511e-05
7.0698e-05
7.98293e-05
7.31958e-05
4.74062e-05
3.45119e-05
4.11076e-05
4.53807e-05
4.62187e-05
5.47439e-05
3.43003e-05
3.12612e-05
3.91419e-05
4.70499e-05
5.26628e-05
6.3161e-05
3.4897e-05
2.79993e-05
3.67264e-05
4.7193e-05
5.8284e-05
7.54337e-05
3.68276e-05
2.37573e-05
3.21321e-05
4.38632e-05
6.01553e-05
8.74527e-05
3.97071e-05
1.91024e-05
2.61676e-05
3.72166e-05
5.69804e-05
9.56958e-05
4.26579e-05
1.49778e-05
2.06267e-05
3.01569e-05
5.0962e-05
9.89784e-05
4.49682e-05
1.22182e-05
1.69063e-05
2.50148e-05
4.50045e-05
9.81319e-05
4.64457e-05
1.12785e-05
1.55534e-05
2.27808e-05
4.08491e-05
9.42281e-05
4.72855e-05
1.27815e-05
1.70462e-05
2.3941e-05
3.99148e-05
8.79744e-05
4.74745e-05
1.71347e-05
2.18233e-05
2.86454e-05
4.21703e-05
8.0494e-05
4.69291e-05
2.41813e-05
2.95499e-05
3.614e-05
4.64498e-05
7.19193e-05
4.6388e-05
3.28699e-05
3.85328e-05
4.46763e-05
5.10592e-05
6.35612e-05
4.59617e-05
4.17033e-05
4.70341e-05
5.27641e-05
5.55282e-05
5.93573e-05
4.35948e-05
4.82975e-05
5.2994e-05
5.78161e-05
5.91654e-05
6.08799e-05
3.71908e-05
5.11894e-05
5.85717e-05
6.28921e-05
6.50176e-05
6.47007e-05
3.53513e-05
4.33364e-05
5.24223e-05
6.16278e-05
7.03113e-05
7.62134e-05
4.01212e-05
3.61171e-05
4.52098e-05
5.65823e-05
7.03619e-05
8.4027e-05
4.50804e-05
2.84908e-05
3.60798e-05
4.70259e-05
6.40192e-05
8.63386e-05
4.90564e-05
2.17081e-05
2.74963e-05
3.67545e-05
5.44331e-05
8.38908e-05
5.15203e-05
1.68951e-05
2.16171e-05
2.94209e-05
4.60206e-05
7.8846e-05
5.25356e-05
1.47307e-05
1.92847e-05
2.64549e-05
4.1265e-05
7.3634e-05
5.25726e-05
1.57469e-05
2.0785e-05
2.81831e-05
4.13538e-05
6.96347e-05
5.21981e-05
2.05948e-05
2.65629e-05
3.48202e-05
4.6621e-05
6.67506e-05
5.16604e-05
2.90514e-05
3.62323e-05
4.51873e-05
5.56018e-05
6.47186e-05
5.08098e-05
3.91949e-05
4.73936e-05
5.62228e-05
6.52412e-05
6.38037e-05
4.98852e-05
4.83935e-05
5.61395e-05
6.43103e-05
7.17028e-05
6.4792e-05
4.86949e-05
5.4512e-05
6.07726e-05
6.83193e-05
7.39909e-05
6.88829e-05
4.57493e-05
5.62197e-05
6.15083e-05
6.86743e-05
7.41131e-05
7.52208e-05
3.9915e-05
5.70121e-05
6.31216e-05
6.82181e-05
7.21024e-05
6.73873e-05
4.69235e-05
4.44676e-05
5.04935e-05
5.74657e-05
6.54369e-05
6.92002e-05
5.16621e-05
3.46581e-05
3.92661e-05
4.56987e-05
5.4893e-05
6.51237e-05
5.46093e-05
2.64482e-05
2.97354e-05
3.47944e-05
4.36759e-05
5.75265e-05
5.59157e-05
2.06633e-05
2.35506e-05
2.78815e-05
3.61328e-05
5.17342e-05
5.6272e-05
1.74378e-05
2.09266e-05
2.57076e-05
3.398e-05
4.92288e-05
5.67481e-05
1.76129e-05
2.24644e-05
2.86366e-05
3.74378e-05
5.17732e-05
5.83442e-05
2.1802e-05
2.84411e-05
3.66536e-05
4.65701e-05
5.91097e-05
6.11989e-05
2.98888e-05
3.82605e-05
4.84899e-05
5.93538e-05
6.77834e-05
6.43847e-05
3.94731e-05
4.86338e-05
5.96188e-05
7.12566e-05
7.40384e-05
6.6713e-05
4.68577e-05
5.54094e-05
6.57305e-05
7.85669e-05
7.72828e-05
6.70758e-05
5.02065e-05
5.67169e-05
6.53452e-05
7.842e-05
7.69696e-05
6.43708e-05
4.99518e-05
5.41377e-05
6.08138e-05
7.12538e-05
7.25907e-05
5.82562e-05
4.64039e-05
4.96373e-05
5.49342e-05
6.23292e-05
6.64752e-05
4.96513e-05
3.75e-05
5.82066e-05
5.51523e-05
5.29258e-05
4.76944e-05
4.26871e-05
4.54048e-05
5.98263e-05
5.23488e-05
4.74604e-05
4.02828e-05
3.48633e-05
4.95773e-05
6.55427e-05
4.90253e-05
4.01892e-05
3.18218e-05
2.60816e-05
5.14567e-05
7.34377e-05
4.49828e-05
3.2765e-05
2.4227e-05
1.85494e-05
5.22146e-05
8.15947e-05
4.09829e-05
2.66052e-05
1.86262e-05
1.35523e-05
5.23312e-05
8.87413e-05
3.8562e-05
2.28657e-05
1.56842e-05
1.13996e-05
5.12791e-05
9.54116e-05
3.89996e-05
2.19655e-05
1.53594e-05
1.18124e-05
4.87528e-05
0.000101201
4.28394e-05
2.40205e-05
1.75045e-05
1.43794e-05
4.58993e-05
0.000103958
4.94399e-05
2.93385e-05
2.21744e-05
1.88e-05
4.3133e-05
0.000102059
5.74317e-05
3.77492e-05
2.93836e-05
2.51269e-05
4.01027e-05
9.59957e-05
6.44348e-05
4.7402e-05
3.80204e-05
3.2375e-05
3.70208e-05
8.66994e-05
6.76773e-05
5.51449e-05
4.61851e-05
3.98094e-05
3.44352e-05
7.53417e-05
6.58503e-05
5.87932e-05
5.19286e-05
4.60606e-05
3.27881e-05
6.48229e-05
6.15133e-05
5.92244e-05
5.59691e-05
5.19488e-05
3.91294e-05
6.46536e-05
6.61491e-05
6.29692e-05
5.74549e-05
5.23997e-05
4.57702e-05
6.2667e-05
6.65352e-05
6.14565e-05
5.40892e-05
4.78073e-05
5.00878e-05
6.27726e-05
6.51589e-05
5.70287e-05
4.7407e-05
3.95287e-05
5.24987e-05
6.48431e-05
6.06313e-05
4.97891e-05
3.87878e-05
3.00905e-05
5.40995e-05
6.73349e-05
5.30623e-05
4.07668e-05
2.99721e-05
2.19322e-05
5.49565e-05
6.94772e-05
4.5184e-05
3.2445e-05
2.31397e-05
1.63959e-05
5.46059e-05
7.21643e-05
3.96635e-05
2.68613e-05
1.92388e-05
1.41989e-05
5.37614e-05
7.52003e-05
3.81277e-05
2.46843e-05
1.8469e-05
1.50817e-05
5.27794e-05
7.85505e-05
4.07105e-05
2.62455e-05
2.06656e-05
1.82663e-05
5.14815e-05
8.25179e-05
4.71433e-05
3.16108e-05
2.57192e-05
2.3535e-05
4.94609e-05
8.60562e-05
5.63459e-05
4.05734e-05
3.35353e-05
3.03748e-05
4.64766e-05
8.81263e-05
6.62637e-05
5.17921e-05
4.35004e-05
3.88344e-05
4.25704e-05
8.55546e-05
7.28781e-05
6.16113e-05
5.28915e-05
4.70476e-05
3.79634e-05
7.89677e-05
7.35524e-05
6.6876e-05
6.01554e-05
5.48771e-05
4.85414e-05
5.95452e-05
5.79899e-05
5.33222e-05
4.97357e-05
4.67165e-05
5.70421e-05
6.71754e-05
6.55298e-05
5.72952e-05
5.17459e-05
4.74088e-05
6.34463e-05
7.31637e-05
7.1641e-05
6.00766e-05
5.16607e-05
4.44943e-05
6.69105e-05
7.53396e-05
7.25401e-05
6.00339e-05
4.89313e-05
3.89677e-05
6.768e-05
7.4612e-05
6.76538e-05
5.52588e-05
4.27058e-05
3.16943e-05
6.64238e-05
7.10624e-05
5.89773e-05
4.62301e-05
3.4271e-05
2.39894e-05
6.37386e-05
6.44529e-05
4.84373e-05
3.64741e-05
2.66638e-05
1.86535e-05
6.045e-05
5.70522e-05
3.93079e-05
2.91877e-05
2.20321e-05
1.6911e-05
5.75233e-05
5.18592e-05
3.35977e-05
2.51551e-05
2.03854e-05
1.7741e-05
5.53885e-05
5.03711e-05
3.18623e-05
2.43975e-05
2.12767e-05
2.04631e-05
5.37903e-05
5.23942e-05
3.41287e-05
2.68393e-05
2.43125e-05
2.40418e-05
5.22016e-05
5.71385e-05
4.01394e-05
3.26553e-05
2.96955e-05
2.9071e-05
5.00488e-05
6.13618e-05
4.84415e-05
4.11783e-05
3.70431e-05
3.51637e-05
4.69181e-05
6.17974e-05
5.52625e-05
4.96885e-05
4.52713e-05
4.26228e-05
4.01275e-05
5.2849e-05
3.97292e-05
3.38004e-05
2.54923e-05
1.97694e-05
4.73702e-05
5.24722e-05
3.31963e-05
2.47169e-05
1.69946e-05
1.26365e-05
5.15919e-05
5.56859e-05
2.75658e-05
1.77386e-05
1.12729e-05
7.79773e-06
5.41973e-05
6.07952e-05
2.39868e-05
1.36858e-05
8.38586e-06
5.50622e-06
5.55629e-05
6.7402e-05
2.32143e-05
1.25178e-05
8.00171e-06
5.42239e-06
5.57043e-05
7.50715e-05
2.53895e-05
1.3828e-05
9.60292e-06
7.02194e-06
5.42586e-05
8.32185e-05
3.02852e-05
1.7166e-05
1.27743e-05
9.86496e-06
5.12053e-05
9.08887e-05
3.77019e-05
2.24331e-05
1.73728e-05
1.38728e-05
4.7185e-05
9.50543e-05
4.69136e-05
2.98963e-05
2.34465e-05
1.90502e-05
4.34747e-05
9.27244e-05
5.56782e-05
3.9041e-05
3.08515e-05
2.53566e-05
3.98285e-05
8.59346e-05
6.12048e-05
4.72473e-05
3.8185e-05
3.15927e-05
3.64407e-05
7.63936e-05
6.21823e-05
5.24362e-05
4.43276e-05
3.75493e-05
3.38104e-05
6.60253e-05
5.94401e-05
5.4392e-05
4.8542e-05
4.24585e-05
3.21918e-05
5.84724e-05
5.62739e-05
5.48848e-05
5.24247e-05
4.794e-05
3.74452e-05
5.58563e-05
5.8766e-05
5.38466e-05
4.34948e-05
3.44968e-05
4.37444e-05
5.17809e-05
5.16875e-05
4.32698e-05
3.16374e-05
2.35202e-05
4.79872e-05
4.96517e-05
4.23572e-05
3.19204e-05
2.13011e-05
1.46628e-05
5.091e-05
4.85527e-05
3.30222e-05
2.23962e-05
1.40636e-05
9.08312e-06
5.2671e-05
4.91308e-05
2.60073e-05
1.64829e-05
1.04104e-05
6.70944e-06
5.35513e-05
5.16607e-05
2.30286e-05
1.45235e-05
9.97712e-06
7.06004e-06
5.36569e-05
5.6607e-05
2.4003e-05
1.56664e-05
1.20208e-05
9.4624e-06
5.32281e-05
6.35418e-05
2.82498e-05
1.91617e-05
1.59181e-05
1.34585e-05
5.24381e-05
7.02131e-05
3.58045e-05
2.50609e-05
2.1324e-05
1.86498e-05
5.10971e-05
7.50628e-05
4.55475e-05
3.33611e-05
2.82192e-05
2.5069e-05
4.88809e-05
7.78374e-05
5.53563e-05
4.29658e-05
3.61788e-05
3.19148e-05
4.57234e-05
7.76916e-05
6.30953e-05
5.20995e-05
4.44814e-05
3.92402e-05
4.18498e-05
7.25167e-05
6.6217e-05
5.83909e-05
5.14565e-05
4.59606e-05
3.73244e-05
6.59957e-05
6.52278e-05
6.16341e-05
5.74865e-05
5.3177e-05
4.68685e-05
7.30662e-05
7.72888e-05
6.87867e-05
5.7248e-05
4.65643e-05
5.20972e-05
7.52585e-05
7.56973e-05
6.38836e-05
4.80492e-05
3.53835e-05
5.46073e-05
7.26705e-05
6.68111e-05
5.33452e-05
3.67314e-05
2.44141e-05
5.49261e-05
6.56068e-05
5.3521e-05
3.93786e-05
2.53576e-05
1.56412e-05
5.36306e-05
5.50388e-05
3.92269e-05
2.69035e-05
1.67766e-05
1.0096e-05
5.17558e-05
4.45491e-05
2.82734e-05
1.91925e-05
1.26304e-05
8.0799e-06
5.05401e-05
3.76525e-05
2.26651e-05
1.64703e-05
1.22477e-05
9.12512e-06
5.04543e-05
3.5535e-05
2.13768e-05
1.70578e-05
1.44813e-05
1.23142e-05
5.11409e-05
3.73787e-05
2.31145e-05
1.96271e-05
1.79941e-05
1.65793e-05
5.18608e-05
4.13503e-05
2.72767e-05
2.36195e-05
2.23119e-05
2.14924e-05
5.1997e-05
4.66433e-05
3.33776e-05
2.89139e-05
2.71554e-05
2.62823e-05
5.1186e-05
5.23532e-05
4.08365e-05
3.5432e-05
3.28469e-05
3.15858e-05
4.91858e-05
5.47785e-05
4.75944e-05
4.24396e-05
3.9127e-05
3.70969e-05
4.60725e-05
5.39169e-05
5.21713e-05
4.88887e-05
4.63231e-05
4.41044e-05
3.82878e-05
3.20292e-05
2.75336e-05
2.27445e-05
1.81334e-05
1.30502e-05
8.87822e-06
6.05328e-06
5.54302e-06
8.24395e-06
1.43705e-05
2.28467e-05
3.2443e-05
4.34199e-05
3.77156e-05
3.17391e-05
2.62706e-05
2.07198e-05
1.50184e-05
9.37212e-06
5.39232e-06
3.15064e-06
2.78461e-06
4.79094e-06
9.8629e-06
1.73912e-05
2.56572e-05
3.32328e-05
3.50916e-05
2.88692e-05
2.24833e-05
1.60178e-05
9.86232e-06
5.08304e-06
2.34184e-06
1.13671e-06
1.06492e-06
2.49799e-06
6.43667e-06
1.28557e-05
1.99228e-05
2.56352e-05
3.10697e-05
2.34594e-05
1.6064e-05
9.48547e-06
4.5164e-06
1.78386e-06
6.17133e-07
2.42538e-07
3.00419e-07
1.13133e-06
3.75798e-06
8.65848e-06
1.45414e-05
1.93282e-05
2.51855e-05
1.658e-05
9.39235e-06
4.38771e-06
1.6767e-06
5.6575e-07
1.48807e-07
3.89089e-08
8.68865e-08
4.94395e-07
2.01309e-06
5.33376e-06
9.89213e-06
1.40352e-05
1.85918e-05
1.10157e-05
5.74787e-06
2.81497e-06
1.27461e-06
4.51997e-07
1.10692e-07
2.41481e-08
3.88747e-08
2.28428e-07
9.7191e-07
2.84432e-06
5.96573e-06
9.6094e-06
1.45471e-05
9.35364e-06
5.96188e-06
3.50675e-06
1.63085e-06
5.75894e-07
1.64582e-07
6.9147e-08
7.03312e-08
1.8572e-07
6.28223e-07
1.77061e-06
3.86847e-06
6.76943e-06
1.44569e-05
1.14132e-05
8.61792e-06
5.36193e-06
2.64751e-06
1.01968e-06
3.78832e-07
2.49656e-07
2.63869e-07
3.9898e-07
7.56242e-07
1.61428e-06
3.19326e-06
5.59178e-06
1.67727e-05
1.49336e-05
1.22204e-05
8.34932e-06
4.54132e-06
1.97069e-06
9.02653e-07
7.47472e-07
8.78724e-07
1.23294e-06
1.82302e-06
2.89443e-06
4.57451e-06
7.05645e-06
2.00091e-05
1.90711e-05
1.66843e-05
1.25617e-05
7.66739e-06
3.79592e-06
1.9872e-06
1.80263e-06
2.27842e-06
3.20837e-06
4.49683e-06
6.31921e-06
8.62023e-06
1.1667e-05
2.29197e-05
2.30624e-05
2.14996e-05
1.76236e-05
1.20547e-05
6.79893e-06
3.90863e-06
3.59031e-06
4.69169e-06
6.57048e-06
8.9219e-06
1.18049e-05
1.49296e-05
1.88002e-05
2.66661e-05
2.75786e-05
2.66974e-05
2.333e-05
1.76413e-05
1.12586e-05
6.99115e-06
6.12196e-06
7.81128e-06
1.07344e-05
1.41217e-05
1.81012e-05
2.22841e-05
2.71518e-05
3.03294e-05
3.22966e-05
3.21926e-05
2.93602e-05
2.40149e-05
1.70655e-05
1.14503e-05
9.50779e-06
1.08669e-05
1.44899e-05
1.8591e-05
2.36223e-05
2.9326e-05
3.6043e-05
3.64366e-05
3.83413e-05
3.78583e-05
3.55103e-05
3.07223e-05
2.36389e-05
1.69919e-05
1.36336e-05
1.3977e-05
1.70632e-05
2.13546e-05
2.74303e-05
3.50115e-05
4.53907e-05
3.20492e-05
2.80764e-05
2.43755e-05
1.9946e-05
1.54949e-05
1.0762e-05
7.08082e-06
4.68323e-06
4.01246e-06
5.63877e-06
9.68475e-06
1.53046e-05
2.12022e-05
2.66911e-05
3.02185e-05
2.62623e-05
2.16603e-05
1.66456e-05
1.15796e-05
6.94398e-06
3.81674e-06
2.18207e-06
1.85095e-06
3.01678e-06
6.33003e-06
1.16332e-05
1.76406e-05
2.27775e-05
2.77607e-05
2.25564e-05
1.68915e-05
1.14001e-05
6.61979e-06
3.25577e-06
1.44251e-06
6.99233e-07
6.49639e-07
1.45889e-06
3.93654e-06
8.51365e-06
1.4174e-05
1.91094e-05
2.40965e-05
1.72834e-05
1.0968e-05
5.98387e-06
2.68618e-06
1.01627e-06
3.35861e-07
1.33523e-07
1.65246e-07
6.21739e-07
2.20141e-06
5.59318e-06
1.03268e-05
1.48943e-05
1.90519e-05
1.16775e-05
6.09851e-06
2.69394e-06
1.0531e-06
3.547e-07
8.93199e-08
2.16544e-08
4.55926e-08
2.67991e-07
1.16768e-06
3.37583e-06
6.95093e-06
1.09279e-05
1.40999e-05
7.939e-06
4.09012e-06
2.03473e-06
8.83922e-07
2.96989e-07
6.89236e-08
1.37332e-08
2.04974e-08
1.256e-07
5.65816e-07
1.79289e-06
4.1112e-06
7.24179e-06
1.16471e-05
7.39556e-06
4.61216e-06
2.4861e-06
1.06994e-06
3.54242e-07
9.6194e-08
3.84245e-08
3.68716e-08
9.96561e-08
3.64351e-07
1.10508e-06
2.61462e-06
4.97466e-06
1.25155e-05
9.45659e-06
6.46924e-06
3.64571e-06
1.63822e-06
5.88129e-07
2.17419e-07
1.43909e-07
1.42738e-07
2.07542e-07
4.14879e-07
9.6707e-07
2.07956e-06
3.93063e-06
1.51625e-05
1.25926e-05
9.22741e-06
5.63398e-06
2.74975e-06
1.11746e-06
5.34916e-07
4.52649e-07
4.97027e-07
6.62859e-07
9.79674e-07
1.63649e-06
2.7761e-06
4.64099e-06
1.83316e-05
1.61858e-05
1.28756e-05
8.68767e-06
4.73477e-06
2.19557e-06
1.22174e-06
1.1518e-06
1.36611e-06
1.84787e-06
2.57786e-06
3.72744e-06
5.30408e-06
7.56473e-06
2.11617e-05
1.98136e-05
1.695e-05
1.25999e-05
7.73786e-06
4.06714e-06
2.47393e-06
2.4301e-06
3.02783e-06
4.12344e-06
5.60193e-06
7.52739e-06
9.68047e-06
1.23627e-05
2.46085e-05
2.3706e-05
2.13214e-05
1.72827e-05
1.19739e-05
7.13676e-06
4.57134e-06
4.3679e-06
5.50671e-06
7.40458e-06
9.72266e-06
1.24147e-05
1.50093e-05
1.78889e-05
2.712e-05
2.72103e-05
2.56181e-05
2.23373e-05
1.72261e-05
1.15802e-05
7.81102e-06
6.99709e-06
8.37305e-06
1.09748e-05
1.3898e-05
1.71668e-05
2.00593e-05
2.30522e-05
3.05128e-05
3.05585e-05
2.94898e-05
2.72428e-05
2.29074e-05
1.70972e-05
1.22843e-05
1.04143e-05
1.12618e-05
1.38943e-05
1.7086e-05
2.07388e-05
2.39204e-05
2.74314e-05
2.73303e-05
2.35227e-05
1.96827e-05
1.54798e-05
1.1475e-05
7.62895e-06
4.74433e-06
2.98366e-06
2.23005e-06
2.60628e-06
4.5352e-06
8.01789e-06
1.25352e-05
1.75044e-05
2.33275e-05
1.93383e-05
1.51639e-05
1.09894e-05
7.19947e-06
4.15385e-06
2.21969e-06
1.23003e-06
9.36873e-07
1.23924e-06
2.65503e-06
5.67847e-06
1.01123e-05
1.49329e-05
1.95809e-05
1.45082e-05
9.98319e-06
6.22684e-06
3.42644e-06
1.62658e-06
7.14408e-07
3.42584e-07
2.87231e-07
5.29883e-07
1.53145e-06
3.97269e-06
7.93101e-06
1.24751e-05
1.52657e-05
9.73459e-06
5.54845e-06
2.77421e-06
1.20566e-06
4.47434e-07
1.47859e-07
5.77377e-08
6.00009e-08
2.00975e-07
8.15768e-07
2.51159e-06
5.59357e-06
9.52083e-06
1.1061e-05
6.13706e-06
3.03706e-06
1.36478e-06
5.62588e-07
1.94162e-07
4.95176e-08
9.99934e-09
1.35132e-08
8.43747e-08
4.30503e-07
1.4951e-06
3.65452e-06
6.80183e-06
8.28198e-06
4.64139e-06
2.52079e-06
1.27165e-06
5.33114e-07
1.74657e-07
4.07155e-08
7.05623e-09
6.39833e-09
4.28826e-08
2.24507e-07
8.09709e-07
2.14956e-06
4.37717e-06
7.84975e-06
5.10904e-06
3.06764e-06
1.53917e-06
6.28069e-07
2.02532e-07
5.35821e-08
1.90055e-08
1.52412e-08
3.74064e-08
1.51779e-07
5.17486e-07
1.36865e-06
2.90959e-06
9.60624e-06
6.90188e-06
4.22867e-06
2.17773e-06
9.12225e-07
3.16687e-07
1.15343e-07
7.23288e-08
6.54716e-08
8.54337e-08
1.72545e-07
4.40463e-07
1.04753e-06
2.17435e-06
1.23156e-05
9.21589e-06
6.0123e-06
3.28122e-06
1.46413e-06
5.78064e-07
2.86025e-07
2.36906e-07
2.39484e-07
2.89021e-07
4.02736e-07
6.79715e-07
1.22266e-06
2.23674e-06
1.52805e-05
1.21106e-05
8.49103e-06
5.01343e-06
2.45123e-06
1.11043e-06
6.71253e-07
6.33598e-07
6.95427e-07
8.6259e-07
1.1287e-06
1.59588e-06
2.30449e-06
3.51813e-06
1.80946e-05
1.51482e-05
1.1365e-05
7.32095e-06
3.97441e-06
2.03686e-06
1.39119e-06
1.41357e-06
1.6504e-06
2.10257e-06
2.73249e-06
3.61024e-06
4.67025e-06
6.24451e-06
2.13689e-05
1.84617e-05
1.4713e-05
1.03898e-05
6.31984e-06
3.60043e-06
2.59217e-06
2.69536e-06
3.26965e-06
4.19877e-06
5.38729e-06
6.81411e-06
8.24114e-06
1.00711e-05
2.39427e-05
2.15806e-05
1.83105e-05
1.41516e-05
9.62976e-06
6.05269e-06
4.44154e-06
4.51398e-06
5.50037e-06
6.99148e-06
8.75681e-06
1.07238e-05
1.24154e-05
1.42772e-05
2.68161e-05
2.45147e-05
2.19336e-05
1.83837e-05
1.38281e-05
9.557e-06
7.13413e-06
6.89777e-06
8.00213e-06
9.95449e-06
1.20746e-05
1.44671e-05
1.63465e-05
1.83272e-05
2.01793e-05
1.63656e-05
1.29547e-05
9.44173e-06
6.34845e-06
3.9123e-06
2.34805e-06
1.47374e-06
1.05073e-06
9.59006e-07
1.44562e-06
2.88938e-06
5.60591e-06
9.7159e-06
1.50091e-05
1.09844e-05
7.85918e-06
5.09882e-06
3.02527e-06
1.63517e-06
8.71135e-07
5.05966e-07
3.82362e-07
3.97245e-07
7.30884e-07
1.82489e-06
4.16994e-06
7.90545e-06
1.06748e-05
6.68157e-06
4.02766e-06
2.19683e-06
1.10008e-06
4.91283e-07
2.1858e-07
1.1643e-07
9.64389e-08
1.3961e-07
3.81529e-07
1.20929e-06
3.11866e-06
6.29594e-06
7.23715e-06
3.89971e-06
1.95611e-06
8.79633e-07
3.60689e-07
1.26885e-07
4.0823e-08
1.72821e-08
1.70183e-08
4.29816e-08
1.90321e-07
7.31556e-07
2.08898e-06
4.5397e-06
5.09516e-06
2.6584e-06
1.31689e-06
6.1234e-07
2.49973e-07
8.21782e-08
1.95755e-08
3.50177e-09
2.96206e-09
1.68611e-08
1.00566e-07
4.32532e-07
1.32275e-06
3.08152e-06
4.3949e-06
2.52813e-06
1.3665e-06
6.44151e-07
2.48864e-07
7.54591e-08
1.6454e-08
2.62992e-09
1.39899e-09
8.82024e-09
5.58421e-08
2.41765e-07
7.73379e-07
1.90983e-06
4.86108e-06
3.01271e-06
1.62587e-06
7.35281e-07
2.7303e-07
8.09247e-08
1.98689e-08
6.56025e-09
4.50749e-09
8.71549e-09
3.90799e-08
1.59208e-07
4.9836e-07
1.24399e-06
6.33369e-06
3.99667e-06
2.14504e-06
9.70288e-07
3.63615e-07
1.16375e-07
4.13058e-08
2.57511e-08
2.17017e-08
2.41207e-08
4.56466e-08
1.31318e-07
3.67615e-07
8.93472e-07
8.4005e-06
5.40755e-06
2.99655e-06
1.39863e-06
5.51787e-07
2.074e-07
1.07878e-07
9.07064e-08
8.58938e-08
9.27084e-08
1.16716e-07
1.96113e-07
3.86619e-07
8.1727e-07
1.08719e-05
7.34703e-06
4.27983e-06
2.11636e-06
9.12441e-07
4.12177e-07
2.75134e-07
2.63791e-07
2.70917e-07
3.07023e-07
3.68797e-07
4.97087e-07
7.16128e-07
1.18935e-06
1.33832e-05
9.52929e-06
5.89445e-06
3.14292e-06
1.50625e-06
7.99577e-07
6.2151e-07
6.4176e-07
7.03208e-07
8.34389e-07
1.02137e-06
1.29929e-06
1.6465e-06
2.30933e-06
1.61876e-05
1.20669e-05
8.02009e-06
4.69472e-06
2.51384e-06
1.49495e-06
1.25028e-06
1.3402e-06
1.54088e-06
1.88381e-06
2.34089e-06
2.90678e-06
3.4767e-06
4.40541e-06
1.86956e-05
1.46959e-05
1.06238e-05
6.87652e-06
4.09061e-06
2.63347e-06
2.26886e-06
2.46407e-06
2.90603e-06
3.60268e-06
4.4734e-06
5.46765e-06
6.33429e-06
7.48629e-06
2.15598e-05
1.76813e-05
1.38922e-05
9.9044e-06
6.4839e-06
4.41358e-06
3.78177e-06
4.07013e-06
4.7746e-06
5.93112e-06
7.26765e-06
8.75181e-06
9.97518e-06
1.13541e-05
1.25284e-05
8.87312e-06
6.28209e-06
4.07803e-06
2.50806e-06
1.48714e-06
9.20782e-07
6.08788e-07
4.45301e-07
3.47338e-07
3.6747e-07
7.16667e-07
1.75251e-06
3.98436e-06
7.72412e-06
4.55891e-06
2.76181e-06
1.55649e-06
8.4179e-07
4.46489e-07
2.59335e-07
1.7094e-07
1.36442e-07
1.21724e-07
1.52165e-07
3.87938e-07
1.16843e-06
3.03082e-06
4.52268e-06
2.21433e-06
1.08732e-06
5.05888e-07
2.27766e-07
9.96642e-08
4.98359e-08
3.26491e-08
2.86658e-08
3.24112e-08
6.44679e-08
2.37307e-07
8.25088e-07
2.27226e-06
2.83705e-06
1.3046e-06
5.84513e-07
2.5015e-07
9.76061e-08
3.29828e-08
1.02333e-08
4.53657e-09
4.28381e-09
6.83319e-09
2.73841e-08
1.36027e-07
5.26365e-07
1.54368e-06
2.27362e-06
1.17496e-06
5.87383e-07
2.67666e-07
1.02735e-07
3.12878e-08
7.01797e-09
1.15157e-09
5.36241e-10
2.00139e-09
1.4142e-08
7.96794e-08