/*--------------------------------*- C++ -*----------------------------------*\
| =========                 |                                                 |
| \\      /  F ield         | OpenFOAM: The Open Source CFD Toolbox           |
|  \\    /   O peration     | Version:  v2106                                 |
|   \\  /    A nd           | Website:  www.openfoam.com                      |
|    \\/     M anipulation  |                                                 |
\*---------------------------------------------------------------------------*/
FoamFile
{
    version     2.0;
    format      ascii;
    arch        "LSB;label=32;scalar=64";
    class       volScalarField;
    location    "0.000143";
    object      p;
}
// * * * * * * * * * * * * * * * * * * * * * * * * * * * * * * * * * * * * * //

dimensions      [1 -1 -2 0 0 0 0];

internalField   nonuniform List<scalar> 
144746
(
201128
201081
200847
200622
200505
200509
200661
200898
201140
201411
201657
201944
202274
202375
201184
201239
201023
200955
200817
200856
201044
201260
201523
201794
202029
202261
202484
202554
200988
201168
201073
201121
201127
201192
201391
201565
201829
202052
202247
202410
202592
202559
200692
200956
201028
201147
201274
201422
201651
201827
202073
202269
202441
202564
202676
202543
200373
200673
200900
201111
201332
201538
201781
201990
202235
202433
202588
202657
202675
202464
199994
200389
200724
201000
201295
201565
201850
202099
202341
202536
202652
202706
202628
202398
199884
200256
200568
200883
201237
201567
201872
202149
202386
202577
202710
202707
202606
202344
199615
200035
200477
200853
201234
201588
201887
202159
202393
202568
202683
202631
202592
202285
199495
199920
200425
200843
201255
201608
201900
202154
202383
202551
202661
202597
202588
202259
199473
199920
200441
200890
201278
201602
201873
202117
202329
202490
202606
202560
202598
202296
199624
200173
200679
201073
201372
201636
201852
202055
202259
202459
202588
202587
202669
202449
200002
200439
200831
201171
201373
201578
201744
201956
202141
202326
202461
202513
202626
202463
200466
201068
201290
201534
201566
201633
201674
201816
201994
202228
202457
202588
202728
202760
200717
201254
201279
201459
201352
201365
201326
201481
201623
201859
202096
202335
202497
202557
200510
200937
201002
200977
201178
201274
201678
201998
202233
202172
202036
201698
201417
201300
199862
200433
200511
200892
201257
201572
202087
202324
202577
202609
202461
202295
202040
202011
199877
200466
200654
201051
201483
201782
202249
202459
202777
202871
202801
202748
202536
202499
199967
200459
200764
201097
201577
201935
202421
202640
202945
203064
203015
202935
202776
202717
200260
200532
200846
201214
201642
201970
202403
202627
202976
203141
203221
203201
203131
202997
200089
200462
200814
201209
201580
201947
202360
202671
202966
203182
203246
203248
203120
203046
200223
200424
200668
201060
201442
201861
202241
202624
202931
203192
203348
203364
203299
203148
199743
199951
200338
200783
201252
201722
202120
202512
202817
203075
203262
203334
203293
203093
199503
199576
199996
200397
201052
201509
201983
202382
202679
202940
203120
203165
203116
202825
199589
199382
199711
200108
200853
201305
201803
202203
202459
202736
202864
202906
202873
202502
199651
199337
199602
199881
200571
201089
201611
201985
202259
202519
202616
202644
202585
202127
199970
199294
199428
199684
200349
200934
201436
201785
202009
202175
202190
202159
202066
201510
200329
199688
199656
199749
200215
200823
201299
201668
201873
201977
202006
201897
201830
201422
200097
199447
199236
199348
199766
200490
201007
201465
201693
201859
201971
201981
201819
201286
197313
198809
199586
200621
202168
203398
204573
205201
205496
205307
204584
203576
202070
200731
196804
198454
199516
200918
202478
203659
204926
205605
206044
205963
205335
204568
203500
202690
197837
199384
200592
201845
203099
204054
205137
205820
206346
206439
206162
205584
204795
203879
198957
200125
201231
202237
203394
204338
205337
205991
206552
206747
206610
206092
205519
204573
200015
200892
201899
202794
203716
204471
205344
206038
206623
206966
207030
206755
206298
205564
200776
201541
202280
202995
203780
204506
205363
206020
206595
206999
207115
207019
206549
206059
201075
201740
202370
203014
203761
204434
205263
205920
206529
207027
207314
207357
207050
206669
201107
201492
202000
202626
203441
204170
205037
205720
206281
206806
207141
207202
207028
206648
200338
200789
201352
202047
203041
203787
204714
205471
206002
206549
206827
206847
206683
206276
199222
199658
200389
201318
202491
203416
204344
205144
205589
206146
206288
206255
205928
205477
198116
198421
199330
200469
201749
202885
203890
204684
205128
205535
205507
205389
204927
204485
197393
197287
198259
199582
201099
202370
203431
204134
204469
204776
204680
204512
203934
203005
197025
196843
197764
198874
200344
201723
202929
203561
203868
203908
203570
203217
202682
201634
196334
195791
196665
197955
199665
201117
202353
202937
203348
203292
202851
202507
201845
200345
202578
202603
202662
202471
202535
202560
202554
202349
202414
202254
202361
202467
202555
202368
202397
202197
202256
202424
202433
202169
202165
201991
202049
202272
202321
201992
201979
201804
201843
202042
202224
201855
201833
201638
201705
201790
202189
201792
201781
201578
201657
201609
202177
201780
201762
201502
201564
201569
202183
201887
201914
201679
201838
201831
202281
201997
202090
201949
202186
202251
202490
202361
202517
202447
202630
202570
202600
202529
202735
202640
202803
202699
202889
202828
202968
202834
202953
202835
202631
202488
202630
202449
202659
202721
201803
201687
202064
201715
202172
201996
202033
201997
202494
202470
203022
203318
202600
202656
203094
203133
203718
204151
202843
202885
203351
203505
204186
204618
203023
202909
203387
203545
204229
204575
203017
202814
203238
203269
203880
204009
203087
202696
202905
202709
203194
203206
203076
202456
202532
202072
202412
201932
202800
202083
202021
201231
201554
200880
202549
201510
201478
200623
200992
200029
202050
201118
201115
200158
200544
199497
201490
200645
200829
200112
200589
199808
201603
201084
201389
200935
201360
200792
201130
200782
201257
201196
201824
201522
200250
198880
197727
195777
195439
191736
201213
199707
199325
198375
198538
196554
202595
201224
200955
200434
200758
200041
203565
202419
202396
201966
202363
202020
204797
203783
203553
202829
202926
202174
205487
204719
204247
203031
202569
200710
206037
205172
204317
202461
201225
197999
205990
204717
203718
201252
199418
194294
205531
204010
202393
199138
196978
190357
204618
202666
201033
197632
195506
187592
203615
201319
199554
196016
194200
185612
202261
199772
198195
194957
193529
185314
201516
199136
197910
195164
194000
187159
199321
197224
196800
195218
194743
189963
202768
202763
202725
202564
202615
202633
202414
202218
202318
202156
202260
202316
202287
201991
201997
201847
201855
202063
201924
201626
201625
201495
201562
201753
201681
201328
201348
201217
201326
201446
201478
201095
201136
200979
201150
201172
201414
200994
201059
200873
201027
201100
201310
200934
201052
200875
201058
201178
201488
201252
201457
201362
201581
201596
201595
201461
201715
201650
201869
201958
201851
201776
202106
202072
202266
202314
201782
201709
202073
202064
202297
202399
201860
201784
202142
202170
202401
202569
201174
201074
201554
201759
202109
202428
202031
201978
202331
202137
202667
202739
202081
202284
202875
202890
203411
203687
202372
202523
203106
203247
203840
204239
202176
202304
202990
203185
203917
204240
201904
201925
202627
202816
203584
203768
201739
201605
202171
202205
202952
202977
201555
201242
201665
201442
202167
201889
201023
200453
200830
200451
201188
200906
200532
199877
200293
199791
200585
200241
199923
199327
199870
199532
200355
200380
199764
199372
200078
199977
200711
201018
199831
199690
200453
200567
201363
201574
200440
200623
201472
201765
202515
202921
200823
201230
202318
202864
203546
204064
200270
199480
198644
197415
197213
194355
200583
199854
199918
199267
199500
198190
201459
200809
200983
200696
201058
200652
202143
201708
201872
201434
201761
201115
202770
202209
202210
201422
201443
200015
202988
202304
201959
200669
200279
197593
202327
201422
200887
199165
198457
194164
201690
200434
199569
197557
196804
191434
200294
198842
198096
196047
195621
189565
198978
197396
196845
194912
194862
189341
197652
196252
196101
194647
194882
190742
196701
195584
195737
194998
195503
193266
196896
196276
196730
196634
197380
196639
196547
196364
197406
198184
199079
199404
202360
201944
201609
201427
201084
201133
202309
202164
201881
201784
201498
201469
202063
201882
201633
201510
201221
201152
201776
201582
201326
201180
200892
200800
201202
200969
200677
200580
200326
200362
200520
200320
199973
199906
199712
199896
199873
199704
199493
199539
199471
199751
199857
199628
199469
199434
199295
199471
199980
199819
199609
199440
199242
199321
200330
200040
199791
199561
199277
199264
200816
200390
200129
199814
199525
199387
201282
200741
200567
200277
199985
199859
201648
201182
201029
200812
200471
200158
201917
201597
201561
201450
201476
201290
203567
202913
202139
201369
200390
200115
202786
202299
201479
201156
200460
200417
201646
201369
200553
200351
199783
199978
201207
200851
200116
200058
199598
199965
200808
200741
199880
200042
199747
200221
200771
200970
200083
200218
199815
200087
201179
201255
200438
200477
200048
200223
202168
202107
201348
201064
200331
199997
203250
202942
202092
201543
200551
199896
204404
203837
202940
202167
200930
200092
205247
204493
203477
202528
201157
200174
205593
204739
203845
202888
201566
200565
205568
204598
203817
202888
201816
200569
205076
204181
203737
202991
202479
201772
197280
197476
196622
196088
195399
196031
194385
195952
195428
195909
195939
197048
191172
194034
193731
194926
195327
197058
188746
193243
193355
195251
195990
197977
187311
192867
193373
195740
196913
198915
187526
193353
194439
196949
198262
199819
189423
194589
195763
197857
198921
200365
192473
196426
197372
199051
199777
200615
196049
198381
198683
199559
199510
199972
199792
200327
199883
199847
199090
199082
202230
201582
200357
199509
198352
197992
203645
202210
200694
199303
198091
197435
203716
201924
200447
198846
197639
196618
202754
201032
200217
199281
198855
198041
202420
202432
202221
202366
202257
202308
202228
202358
202203
202291
202186
202264
201885
201986
201801
201872
201766
201847
201477
201462
201253
201329
201235
201497
200905
200833
200643
200771
200869
201175
200392
200296
200264
200438
200542
200885
200100
200024
199978
200115
200237
200610
200082
199954
199862
199913
200001
200337
200290
199955
199856
199826
199869
200140
200641
200079
199990
199892
199902
200136
201051
200387
200311
200113
200089
200202
201421
200804
200768
200576
200510
200530
201760
201313
201224
200968
200783
200737
201999
201712
201795
201762
201745
201463
200565
201007
200320
200577
200311
200845
199994
200673
200199
200669
200547
201400
198991
199918
199491
200286
200361
201407
198853
199925
199594
200545
200729
201804
199433
200232
199929
200698
200964
201855
200361
200817
200525
201044
201323
201960
201320
201461
201126
201324
201392
201765
202760
202386
201883
201740
201421
201434
203820
203218
202519
202044
201430
201142
204694
203820
203067
202363
201623
201186
205318
204195
203414
202397
201586
200937
205403
204280
203635
202492
201726
201061
205144
203990
203482
202356
201527
200718
204531
203522
203229
202697
202415
201663
186922
192442
193220
195243
196093
198801
184216
191714
193331
196579
198353
201298
182256
191025
193164
196982
199252
202157
182619
191683
194349
198361
200802
203271
184713
192874
195812
199694
202061
204081
187932
194819
197567
200885
203047
204633
191905
197036
199288
201986
203491
204624
196195
199222
200491
202217
203022
204032
199495
200823
201067
201768
201927
202696
202052
201822
201244
201101
200889
201296
203435
202159
201167
200233
199761
199777
203754
201841
200805
199623
199070
198941
202758
200768
199879
198678
197957
197585
200819
199678
199262
199106
199028
198408
200364
201712
202998
204520
206615
208323
210293
211604
212399
212519
212007
210717
209343
207731
200200
201621
203101
204836
206800
208406
210238
211415
212191
212391
212040
211130
209968
208748
201739
203081
204490
205920
207413
208666
210176
211238
212000
212432
212368
211759
210905
210123
203469
204249
205235
206362
207619
208699
210006
210983
211691
212171
212250
211913
211377
210514
204851
205451
206288
207065
207997
208809
209866
210779
211547
212146
212428
212384
212186
211506
205894
206293
206768
207297
208012
208719
209624
210419
211179
211841
212241
212451
212401
212055
206234
206523
206875
207291
207880
208567
209430
210223
211022
211830
212352
212822
212993
213012
205821
205880
206209
206726
207463
208237
209153
209982
210722
211624
212181
212759
213071
213260
204634
204716
205270
206033
206950
207835
208807
209717
210445
211391
211911
212541
212816
213062
203210
203378
204149
205277
206413
207595
208617
209572
210208
211091
211445
212046
212159
212415
201509
201750
202833
204373
205698
207187
208333
209325
209864
210565
210735
211169
211105
211281
200194
200369
201622
203449
205084
206884
208132
209062
209435
210037
210019
210204
210020
209924
199225
199505
200765
202643
204473
206448
207846
208736
208901
209149
208819
208895
208467
208295
198582
198549
199896
202212
204282
206191
207573
208392
208430
208436
207752
207853
207212
206766
202269
203967
205652
207326
209615
211483
213616
215101
216110
216557
216344
215334
214046
212471
203025
204417
206104
207876
209857
211437
213272
214635
215498
215965
215826
215189
214052
212982
205021
206131
207403
208662
210206
211482
212982
214191
215071
215698
215816
215519
214693
214104
206890
207300
208219
209220
210365
211381
212676
213769
214600
215192
215451
215441
214893
214476
208555
208613
209099
209686
210570
211372
212438
213437
214314
215022
215457
215680
215659
215286
209545
209412
209576
209925
210602
211259
212174
213068
213919
214672
215213
215609
215811
215770
209792
209639
209674
209915
210466
211105
211963
212819
213693
214556
215213
215892
216318
216625
209259
209044
209131
209465
210069
210817
211696
212574
213430
214370
215066
215863
216404
216937
207678
207817
208228
208850
209609
210492
211404
212321
213174
214147
214835
215705
216212
216885
206198
206537
207207
208180
209168
210282
211288
212228
213012
213899
214468
215297
215651
216418
204025
204686
205860
207290
208553
209893
211020
211978
212658
213440
213898
214563
214788
215525
202455
203042
204581
206419
208061
209714
210976
211913
212431
213059
213223
213628
213692
214105
200949
201696
203467
205619
207548
209514
210929
211829
212070
212428
212316
212538
212360
212651
199595
200529
202512
205294
207560
209652
211060
211836
211864
211853
211295
211421
210848
210903
207614
209153
210737
212071
214120
215809
217729
219202
220250
220989
221082
220629
219456
218398
209016
209893
211293
212625
214269
215620
217233
218572
219537
220160
220322
220083
219304
218606
210765
211237
212114
213024
214322
215483
216832
218013
219012
219721
220116
220158
219774
219423
212267
212347
212880
213467
214423
215287
216455
217516
218454
219153
219621
219883
219792
219653
213516
213215
213433
213776
214528
215186
216163
217131
218081
218879
219460
219976
220168
220290
214256
213816
213726
213879
214469
215010
215867
216747
217664
218497
219149
219769
220243
220544
214289
213886
213718
213839
214318
214843
215634
216471
217373
218262
219022
219791
220451
220989
213598
213260
213215
213467
213957
214578
215373
216219
217105
218040
218825
219730
220413
221140
212242
212301
212523
212990
213547
214287
215113
215991
216867
217826
218600
219571
220223
221128
210944
211242
211732
212472
213215
214087
214996
215892
216717
217614
218313
219259
219793
220821
209068
209734
210643
211672
212715
213760
214806
215728
216516
217358
217955
218768
219178
220216
207629
208346
209762
211100
212474
213715
214870
215770
216442
217093
217496
218121
218377
219197
205972
206928
208870
210443
212181
213671
214985
215885
216383
216872
216989
217353
217361
217984
204450
206011
208265
210377
212430
214030
215319
216107
216394
216565
216475
216735
216354
216548
211990
213257
214687
215902
217636
219043
220667
222004
223024
223784
224179
223979
223241
222423
213549
213919
215198
216210
217594
218763
220146
221356
222340
222957
223356
223383
222917
222546
214913
215051
215866
216530
217578
218534
219707
220788
221777
222531
223076
223358
223215
223363
216417
216101
216480
216819
217601
218315
219313
220280
221200
221971
222535
223023
223153
223476
217235
216767
216868
216993
217611
218142
218983
219875
220789
221648
222303
222972
223450
223814
217723
217198
217040
217042
217517
217933
218671
219482
220369
221246
221980
222685
223364
223807
217688
217212
216947
216955
217332
217729
218424
219194
220068
220976
221788
222609
223380
224019
216963
216624
216498
216633
217014
217487
218181
218950
219800
220731
221553
222482
223246
224035
216009
215861
215916
216230
216649
217237
217954
218749
219582
220522
221332
222314
223032
223992
214830
214896
215264
215808
216369
217101
217883
218703
219490
220353
221107
222056
222658
223760
213138
213539
214357
215177
215991
216863
217740
218577
219338
220164
220856
221686
222169
223307
211911
212488
213665
214736
215859
216883
217867
218697
219389
220048
220600
221257
221580
222579
210357
211297
212946
214227
215689
216885
217985
218826
219413
219987
220275
220683
220806
221603
209004
210730
212689
214300
216035
217325
218390
219146
219564
219864
220003
220272
220132
220523
216382
217283
218500
219481
220890
222001
223268
224414
225287
225983
226536
226517
226032
225342
217698
217932
218923
219679
220768
221726
222815
223842
224720
225323
225771
225918
225725
225663
218992
218910
219569
219989
220783
221497
222442
223380
224237
224982
225543
225940
226002
226196
219849
219483
219868
220092
220740
221307
222105
222934
223744
224509
225085
225644
225933
226305
220553
220079
220218
220229
220716
221139
221806
222566
223367
224194
224858
225553
226065
226565
220866
220336
220251
220203
220575
220897
221498
222198
222988
223825
224557
225279
225973
226514
220784
220302
220062
220030
220348
220649
221234
221914
222702
223549
224322
225129
225851
226562
220201
219846
219706
219758
220055
220403
220989
221667
222432
223278
224052
224915
225666
226463
219385
219170
219197
219380
219708
220160
220772
221465
222210
223056
223811
224711
225416
226333
218381
218393
218665
219017
219456
220042
220702
221407
222098
222877
223583
224456
225047
226087
216984
217313
217881
218469
219106
219810
220531
221257
221939
222683
223343
224114
224600
225700
215957
216552
217406
218214
219051
219867
220636
221355
221993
222594
223169
223786
224124
225044
214656
215477
216678
217740
218833
219832
220723
221451
222018
222584
222948
223333
223569
224228
213641
215065
216590
217912
219237
220270
221123
221774
222224
222643
222825
223061
223053
223318
220121
220953
221912
222692
223715
224517
225466
226350
227034
227650
228149
228311
227988
227598
221339
221475
222234
222822
223612
224320
225105
225903
226598
227146
227556
227807
227805
227792
222314
222219
222728
223007
223578
224092
224806
225543
226222
226875
227395
227825
227997
228153
223011
222613
222923
223043
223506
223929
224523
225181
225842
226513
227064
227617
227965
228305
223507
223040
223164
223119
223461
223757
224267
224871
225529
226247
226865
227505
228003
228454
223646
223189
223128
223052
223297
223514
223984
224545
225199
225926
226599
227301
227906
228480
223443
223055
222881
222835
223053
223263
223725
224274
224929
225662
226354
227089
227735
228445
223013
222707
222604
222605
222791
223031
223488
224031
224666
225383
226065
226821
227510
228261
222258
222099
222145
222220
222465
222789
223273
223822
224440
225146
225802
226581
227236
228062
221437
221472
221694
221904
222251
222678
223197
223744
224311
224962
225567
226329
226888
227803
220337
220607
221060
221452
221929
222445
223012
223579
224150
224787
225346
226029
226478
227459
219458
219974
220676
221249
221896
222499
223093
223650
224174
224703
225194
225744
226107
226957
218322
219091
220003
220797
221661
222450
223152
223716
224175
224671
225048
225411
225685
226221
217474
218757
219951
221034
222016
222825
223482
223997
224388
224777
225015
225168
225290
225486
223335
224111
224873
225507
226256
226870
227567
228210
228721
229240
229658
229869
229721
229412
224337
224562
225105
225593
226176
226702
227265
227864
228377
228848
229186
229455
229544
229541
225278
225149
225505
225720
226130
226498
227032
227576
228090
228641
229083
229489
229689
229829
225838
225469
225711
225747
226085
226378
226803
227302
227812
228375
228850
229341
229672
229979
226169
225782
225867
225783
226040
226233
226607
227062
227577
228172
228703
229253
229688
230082
226226
225873
225807
225718
225886
226021
226369
226798
227312
227911
228481
229086
229604
230135
226003
225715
225577
225515
225658
225793
226135
226557
227072
227674
228259
228887
229455
230085
225661
225422
225331
225297
225410
225573
225912
226328
226827
227411
227981
228620
229225
229897
225014
224893
224901
224935
225105
225335
225693
226115
226604
227179
227726
228380
228954
229680
224359
224359
224480
224631
224900
225212
225600
226018
226468
226996
227492
228132
228624
229405
223458
223614
223905
224222
224584
224978
225414
225859
226318
226833
227285
227872
228267
229091
222689
223034
223562
224031
224542
225007
225463
225899
226310
226733
227128
227606
227933
228694
221826
222291
223000
223624
224321
224940
225482
225922
226283
226675
226998
227325
227601
228106
220897
221955
222953
223843
224620
225243
225737
226133
226442
226762
226920
227064
227194
227450
226099
226720
227288
227820
228382
228883
229386
229856
230238
230656
230976
231196
231119
230899
226948
227117
227525
227904
228332
228720
229139
229582
229956
230347
230607
230841
230931
230931
227720
227565
227853
228000
228309
228573
228953
229348
229730
230181
230545
230890
231066
231173
228149
227836
228025
228019
228279
228476
228777
229145
229528
229986
230381
230788
231075
231332
228378
228079
228135
228050
228245
228369
228635
228970
229361
229840
230283
230735
231089
231420
228415
228145
228077
227997
228116
228205
228457
228774
229162
229638
230104
230602
231023
231465
228201
227990
227874
227818
227917
228012
228260
228573
228962
229439
229915
230432
230907
231425
227908
227729
227651
227609
227685
227803
228051
228362
228743
229207
229667
230191
230698
231264
227358
227267
227261
227279
227398
227567
227833
228157
228537
228994
229434
229964
230442
231053
226778
226776
226878
226989
227193
227425
227718
228041
228396
228817
229215
229733
230136
230789
225981
226140
226370
226615
226887
227188
227534
227893
228257
228660
229017
229496
229816
230507
225281
225588
226021
226427
226828
227190
227553
227901
228225
228551
228852
229234
229499
230169
224545
224990
225578
226080
226629
227113
227539
227896
228190
228475
228721
228978
229202
229674
223812
224684
225549
226273
226867
227339
227721
228036
228284
228496
228613
228723
228828
229121
228488
228986
229443
229871
230297
230705
231070
231425
231724
232045
232282
232497
232470
232284
229207
229300
229636
229922
230245
230524
230860
231187
231460
231769
231962
232161
232239
232229
229830
229669
229909
230006
230246
230432
230698
230988
231261
231617
231900
232182
232323
232402
230165
229909
230051
230024
230218
230354
230569
230832
231103
231460
231767
232091
232321
232532
230349
230116
230141
230060
230203
230281
230466
230704
230982
231350
231697
232062
232344
232609
230383
230175
230104
230031
230116
230175
230354
230578
230852
231213
231574
231963
232298
232625
230195
230038
229939
229892
229962
230033
230212
230436
230715
231076
231443
231845
232225
232604
229932
229803
229744
229714
229770
229863
230046
230276
230557
230913
231266
231673
232072
232503
229468
229405
229405
229428
229520
229655
229861
230110
230399
230752
231089
231499
231872
232350
228954
228981
229066
229166
229331
229515
229747
230004
230284
230615
230921
231321
231633
232147
228295
228434
228630
228824
229053
229301
229587
229882
230175
230488
230759
231133
231374
231922
227659
227924
228302
228652
228983
229281
229583
229872
230134
230389
230613
230910
231099
231651
227016
227426
227908
228352
228809
229206
229555
229854
230107
230318
230496
230695
230841
231241
226428
227167
227924
228506
228980
229368
229681
229942
230143
230283
230377
230459
230518
230780
201426
202386
202543
203066
204471
206170
200014
200595
201696
203299
205451
207659
201933
202148
203131
204670
207024
209448
203691
203762
204827
206528
209000
211444
206219
206280
207278
208604
211000
213348
208436
208750
209555
210382
212658
214818
210372
210607
211198
211667
213807
215995
211788
211847
211762
211996
213619
215801
212338
212087
211407
211067
212461
215257
212053
211437
210436
210019
211462
214587
211131
210054
208862
208335
209976
213240
209774
208276
207246
206886
208741
212276
208743
206804
206121
206013
207855
211128
206150
204578
204867
205401
207211
209895
202608
202814
202356
202571
203589
205248
201824
201399
201402
202428
204168
206558
204049
203303
203283
204373
206441
208970
206252
205567
205932
207194
209581
211933
209233
208793
209388
210568
213118
215161
211597
211867
212986
214146
216530
218107
214032
214463
215482
216762
219275
220686
215675
216365
217234
218210
220394
221763
216634
217192
217789
218758
220895
222281
216682
217012
217307
218130
220140
221950
216093
216027
216136
216994
218882
220823
214862
214506
214429
215104
216718
218726
213740
212859
212702
213068
214278
215751
211382
210027
210384
210828
211839
212799
207201
206465
205614
204881
204996
205782
207250
205786
204920
204677
205336
206968
209330
207669
206807
206829
207663
209716
211296
209931
209478
209936
211070
213338
213920
213179
213159
213837
215127
217384
215962
215922
216613
217759
219306
221369
218304
218892
219832
221049
222612
224590
219958
220906
221966
223136
224632
226425
221061
222111
222984
224079
225428
227177
221450
222215
222819
223736
224895
226520
221168
221583
221791
222435
223372
224717
220346
220304
220234
220581
221110
222150
219211
218897
218388
218204
218194
218671
217289
216196
215673
215466
215320
215399
210893
209826
208294
206828
205999
205588
211529
210045
208616
207158
206531
206695
213399
211902
210505
209438
209047
209537
215045
213954
213100
212641
212694
213552
217471
216847
216618
216599
217097
218091
219292
219324
219739
220318
221329
222563
221289
221895
222830
223721
224934
226214
222821
223805
224900
226027
227319
228541
223843
225008
226082
227315
228586
229852
224417
225382
226226
227373
228426
229575
224381
225127
225626
226403
227032
227909
223790
224080
224333
224861
225050
225545
223331
223265
222842
222408
221910
221704
221502
220794
219931
219360
218676
218069
214950
213994
211894
209966
208036
206909
215840
214569
212741
210968
208984
208276
217536
216298
214676
213203
211664
211317
218864
217882
216994
216154
215308
215408
220842
220268
219978
219687
219506
219939
222306
222333
222661
222933
223433
224169
223857
224398
225182
225969
226900
227847
225130
226023
227022
228077
229212
230333
225986
227040
228095
229310
230511
231802
226573
227473
228325
229417
230456
231776
226700
227359
227923
228645
229267
230303
226299
226553
226697
227085
227320
227892
226048
226164
225694
225178
224587
224302
224553
223891
223055
222363
221434
220714
218572
217482
215574
213527
211377
209428
219675
218117
216622
214620
212507
210712
220986
219751
218332
216789
215017
213644
222024
221147
220299
219355
218309
217524
223522
223140
222710
222331
221990
221716
224700
224781
224954
225165
225420
225834
225905
226381
227008
227687
228486
229295
226920
227683
228564
229553
230644
231747
227597
228485
229457
230645
231893
233240
228130
228939
229787
230913
232041
233479
228309
228940
229582
230416
231185
232380
228126
228457
228729
229107
229454
230114
227893
228220
228038
227673
227225
226976
227138
226645
225950
225273
224438
223613
222021
220987
219339
217524
215529
213486
223100
221796
220184
218469
216441
214343
224154
223060
221732
220308
218636
216862
225032
224228
223395
222508
221472
220404
226156
225785
225447
224983
224569
224172
227013
227067
227236
227325
227484
227626
227913
228300
228828
229384
230024
230707
228674
229307
230064
230946
231934
232957
229183
229914
230763
231838
233026
234333
229625
230337
231120
232187
233323
234762
229816
230412
231043
231910
232788
234042
229741
230136
230439
230855
231327
232111
229591
229968
229904
229844
229691
229659
229192
228963
228402
227913
227329
226619
225028
224179
222945
221373
219785
217932
226040
224839
223682
221976
220298
218357
226790
225926
224950
223571
222042
220353
227545
226899
226253
225317
224338
223263
228379
228092
227837
227393
226917
226393
229013
229063
229202
229272
229337
229383
229678
230004
230424
230906
231404
231955
230242
230760
231381
232146
232993
233908
230625
231217
231933
232868
233935
235128
230978
231582
232272
233239
234315
235665
231147
231673
232258
233112
234002
235288
231121
231505
231863
232376
232886
233740
230997
231375
231454
231586
231684
231956
230816
230777
230414
230140
229794
229410
227591
226940
226021
224837
223474
222030
228467
227516
226538
225310
223765
222281
229041
228387
227615
226620
225312
223847
229685
229233
228731
228022
227108
226155
230326
230166
230015
229677
229245
228771
230840
230932
231089
231167
231194
231193
231358
231664
232054
232479
232890
233332
231783
232241
232797
233463
234177
234955
232088
232605
233236
234045
234970
235997
232341
232894
233522
234370
235343
236524
232481
232957
233504
234292
235144
236313
232475
232845
233220
233766
234321
235191
232377
232739
232904
233138
233341
233781
232307
232386
232187
232112
231963
231872
207234
206738
206341
206550
207974
210303
206947
206101
206153
206758
208311
210584
208273
207398
207089
207830
209397
211864
208961
208373
208343
209416
211270
213441
210636
210009
210090
211048
212914
214989
211709
211374
211744
212438
214330
216421
212814
212590
212782
213026