/*--------------------------------*- C++ -*----------------------------------*\
| =========                 |                                                 |
| \\      /  F ield         | OpenFOAM: The Open Source CFD Toolbox           |
|  \\    /   O peration     | Version:  v2106                                 |
|   \\  /    A nd           | Website:  www.openfoam.com                      |
|    \\/     M anipulation  |                                                 |
\*---------------------------------------------------------------------------*/
FoamFile
{
    version     2.0;
    format      ascii;
    arch        "LSB;label=32;scalar=64";
    class       volScalarField;
    location    "0.000179";
    object      Ttot;
}
// * * * * * * * * * * * * * * * * * * * * * * * * * * * * * * * * * * * * * //

dimensions      [0 0 0 1 0 0 0];

internalField   nonuniform List<scalar> 
17924
(
307.496
307.487
307.489
307.494
307.435
307.427
307.424
307.421
307.42
307.419
307.42
307.476
307.468
307.467
307.466
307.465
307.465
307.465
307.514
307.508
307.509
307.509
307.509
307.51
307.51
307.553
307.549
307.551
307.552
307.553
307.554
307.555
307.59
307.589
307.592
307.594
307.596
307.598
307.6
307.628
307.63
307.634
307.636
307.639
307.642
307.644
307.665
307.669
307.674
307.678
307.682
307.685
307.687
307.703
307.71
307.715
307.72
307.724
307.727
307.73
307.742
307.75
307.756
307.761
307.766
307.77
307.773
307.781
307.79
307.797
307.803
307.809
307.813
307.817
307.822
307.831
307.839
307.846
307.852
307.857
307.861
307.865
307.874
307.881
307.889
307.895
307.9
307.905
307.908
307.916
307.924
307.932
307.939
307.945
307.95
307.955
307.961
307.971
307.978
307.985
307.99
307.996
307.431
307.423
307.417
307.411
307.404
307.397
307.39
307.383
307.377
307.371
307.366
307.361
307.358
307.357
307.46
307.452
307.447
307.441
307.435
307.429
307.422
307.415
307.409
307.402
307.397
307.391
307.387
307.388
307.486
307.479
307.476
307.47
307.465
307.458
307.452
307.446
307.439
307.433
307.426
307.42
307.414
307.415
307.512
307.507
307.504
307.499
307.494
307.488
307.482
307.475
307.469
307.462
307.455
307.449
307.443
307.442
307.538
307.534
307.532
307.527
307.522
307.517
307.511
307.504
307.498
307.491
307.484
307.478
307.471
307.468
307.564
307.562
307.56
307.555
307.551
307.545
307.539
307.533
307.526
307.519
307.513
307.506
307.5
307.495
307.591
307.589
307.587
307.583
307.579
307.574
307.568
307.562
307.555
307.548
307.541
307.535
307.528
307.523
307.618
307.618
307.615
307.612
307.607
307.602
307.597
307.59
307.584
307.577
307.57
307.563
307.557
307.551
307.647
307.646
307.644
307.641
307.636
307.631
307.625
307.619
307.613
307.606
307.599
307.592
307.587
307.58
307.676
307.675
307.673
307.67
307.666
307.661
307.655
307.649
307.643
307.636
307.629
307.622
307.617
307.61
307.705
307.706
307.703
307.7
307.696
307.691
307.685
307.679
307.673
307.666
307.66
307.653
307.649
307.642
307.737
307.737
307.734
307.731
307.727
307.722
307.717
307.711
307.705
307.698
307.692
307.685
307.682
307.675
307.77
307.77
307.767
307.764
307.759
307.754
307.749
307.743
307.737
307.73
307.725
307.719
307.716
307.709
307.807
307.803
307.8
307.796
307.792
307.787
307.782
307.776
307.771
307.765
307.759
307.755
307.752
307.747
307.44
307.43
307.423
307.413
307.404
307.393
307.383
307.371
307.361
307.349
307.339
307.328
307.319
307.31
307.455
307.446
307.439
307.43
307.42
307.41
307.399
307.388
307.377
307.366
307.355
307.345
307.335
307.326
307.468
307.46
307.453
307.444
307.435
307.425
307.415
307.404
307.393
307.382
307.371
307.361
307.351
307.342
307.483
307.476
307.469
307.46
307.451
307.441
307.431
307.42
307.409
307.397
307.386
307.376
307.365
307.356
307.497
307.491
307.484
307.475
307.466
307.456
307.446
307.435
307.424
307.412
307.401
307.39
307.379
307.369
307.513
307.507
307.5
307.491
307.482
307.471
307.461
307.449
307.438
307.427
307.415
307.404
307.393
307.382
307.529
307.523
307.516
307.507
307.497
307.487
307.476
307.464
307.453
307.441
307.429
307.418
307.406
307.395
307.546
307.54
307.532
307.523
307.513
307.503
307.491
307.48
307.468
307.456
307.444
307.432
307.42
307.409
307.563
307.557
307.549
307.54
307.529
307.518
307.507
307.495
307.483
307.471
307.459
307.446
307.435
307.422
307.581
307.575
307.566
307.557
307.546
307.535
307.523
307.511
307.499
307.486
307.474
307.461
307.449
307.436
307.6
307.593
307.584
307.574
307.563
307.552
307.54
307.527
307.515
307.502
307.489
307.476
307.464
307.45
307.619
307.612
307.602
307.592
307.581
307.569
307.557
307.544
307.531
307.518
307.505
307.492
307.48
307.466
307.641
307.633
307.623
307.612
307.6
307.588
307.575
307.562
307.549
307.536
307.522
307.508
307.497
307.483
307.665
307.654
307.642
307.631
307.619
307.607
307.594
307.581
307.568
307.555
307.542
307.528
307.517
307.503
307.442
307.432
307.423
307.412
307.4
307.387
307.374
307.359
307.346
307.331
307.317
307.301
307.288
307.273
307.445
307.436
307.427
307.416
307.404
307.391
307.377
307.363
307.349
307.334
307.32
307.306
307.293
307.278
307.447
307.439
307.43
307.419
307.407
307.394
307.381
307.367
307.353
307.339
307.325
307.311
307.297
307.283
307.45
307.443
307.433
307.422
307.41
307.398
307.385
307.371
307.357
307.342
307.329
307.314
307.301
307.287
307.455
307.447
307.437
307.426
307.414
307.401
307.388
307.374
307.36
307.346
307.332
307.317
307.304
307.289
307.46
307.452
307.442
307.43
307.418
307.405
307.392
307.378
307.363
307.349
307.334
307.32
307.306
307.291
307.465
307.457
307.446
307.435
307.422
307.409
307.395
307.381
307.366
307.351
307.337
307.322
307.307
307.292
307.471
307.462
307.451
307.439
307.426
307.413
307.398
307.384
307.369
307.354
307.338
307.323
307.308
307.293
307.478
307.468
307.456
307.444
307.43
307.416
307.402
307.387
307.371
307.356
307.34
307.324
307.309
307.294
307.485
307.475
307.462
307.449
307.435
307.42
307.405
307.39
307.374
307.358
307.342
307.326
307.309
307.294
307.492
307.481
307.468
307.455
307.44
307.424
307.409
307.393
307.377
307.36
307.343
307.327
307.31
307.293
307.5
307.488
307.474
307.46
307.445
307.429
307.413
307.396
307.38
307.363
307.345
307.328
307.31
307.293
307.508
307.495
307.481
307.466
307.45
307.433
307.417
307.4
307.383
307.366
307.348
307.33
307.311
307.293
307.517
307.502
307.486
307.471
307.455
307.438
307.421
307.404
307.387
307.369
307.351
307.333
307.315
307.296
307.423
307.413
307.404
307.391
307.378
307.363
307.347
307.331
307.314
307.297
307.28
307.261
307.244
307.225
307.416
307.407
307.397
307.385
307.371
307.357
307.341
307.325
307.309
307.292
307.275
307.256
307.239
307.221
307.408
307.4
307.39
307.377
307.364
307.35
307.335
307.319
307.303
307.286
307.269
307.251
307.235
307.217
307.402
307.394
307.382
307.37
307.357
307.343
307.328
307.312
307.296
307.279
307.263
307.246
307.229
307.212
307.395
307.387
307.376
307.363
307.35
307.336
307.321
307.305
307.289
307.272
307.256
307.238
307.222
307.204
307.39
307.38
307.369
307.356
307.343
307.329
307.313
307.298
307.281
307.265
307.248
307.23
307.214
307.196
307.385
307.375
307.363
307.35
307.336
307.321
307.306
307.29
307.274
307.257
307.239
307.222
307.205
307.187
307.38
307.369
307.356
307.343
307.329
307.314
307.298
307.282
307.265
307.248
307.23
307.213
307.195
307.177
307.376
307.364
307.351
307.337
307.322
307.306
307.29
307.273
307.256
307.239
307.22
307.203
307.184
307.167
307.371
307.358
307.344
307.33
307.314
307.298
307.282
307.265
307.247
307.229
307.21
307.192
307.172
307.155
307.367
307.353
307.339
307.323
307.307
307.29
307.273
307.255
307.237
307.218
307.199
307.18
307.16
307.142
307.362
307.347
307.332
307.316
307.299
307.282
307.264
307.246
307.227
307.208
307.188
307.168
307.147
307.129
307.357
307.341
307.326
307.309
307.291
307.274
307.255
307.236
307.216
307.196
307.176
307.155
307.134
307.115
307.352
307.335
307.318
307.301
307.283
307.264
307.245
307.226
307.206
307.186
307.166
307.145
307.124
307.103
307.36
307.351
307.341
307.328
307.314
307.3
307.284
307.267
307.249
307.23
307.211
307.19
307.171
307.148
307.344
307.336
307.325
307.313
307.299
307.284
307.268
307.252
307.234
307.215
307.196
307.176
307.156
307.135
307.328
307.32
307.308
307.296
307.283
307.268
307.253
307.236
307.219
307.2
307.182
307.162
307.143
307.122
307.312
307.304
307.292
307.28
307.266
307.252
307.236
307.22
307.203
307.185
307.166
307.147
307.128
307.108
307.297
307.288
307.276
307.264
307.25
307.236
307.22
307.204
307.187
307.169
307.151
307.132
307.113
307.093
307.282
307.272
307.26
307.247
307.233
307.219
307.203
307.187
307.17
307.152
307.134
307.115
307.096
307.076
307.268
307.257
307.244
307.231
307.217
307.202
307.186
307.169
307.152
307.134
307.116
307.097
307.078
307.059
307.252
307.241
307.228
307.214
307.199
307.184
307.168
307.151
307.134
307.116
307.097
307.079
307.059
307.04
307.238
307.225
307.212
307.197
307.182
307.166
307.15
307.133
307.115
307.096
307.078
307.059
307.039
307.021
307.222
307.208
307.194
307.179
307.164
307.147
307.131
307.113
307.095
307.076
307.057
307.038
307.018
307
307.207
307.192
307.177
307.162
307.146
307.129
307.111
307.093
307.074
307.055
307.035
307.016
306.995
306.978
307.19
307.174
307.159
307.143
307.126
307.109
307.091
307.072
307.053
307.034
307.013
306.994
306.972
306.955
307.174
307.157
307.141
307.124
307.107
307.089
307.07
307.051
307.031
307.01
306.989
306.969
306.947
306.93
307.155
307.138
307.121
307.104
307.086
307.067
307.048
307.029
307.009
306.989
306.968
306.947
306.925
306.906
307.228
307.219
307.209
307.198
307.186
307.173
307.158
307.143
307.127
307.109
307.091
307.072
307.052
307.03
307.205
307.198
307.187
307.176
307.164
307.151
307.136
307.121
307.104
307.087
307.068
307.049
307.03
307.009
307.183
307.176
307.165
307.154
307.141
307.128
307.114
307.099
307.082
307.065
307.047
307.028
307.009
306.99
307.162
307.154
307.142
307.131
307.118
307.105
307.091
307.075
307.059
307.042
307.024
307.005
306.987
306.967
307.14
307.132
307.12
307.108
307.095
307.082
307.067
307.052
307.036
307.019
307.001
306.983
306.965
306.946
307.119
307.109
307.097
307.084
307.071
307.058
307.043
307.028
307.011
306.995
306.977
306.959
306.941
306.922
307.097
307.086
307.073
307.061
307.047
307.033
307.018
307.003
306.987
306.97
306.953
306.935
306.917
306.899
307.074
307.062
307.049
307.036
307.022
307.008
306.993
306.977
306.961
306.944
306.927
306.91
306.892
306.874
307.051
307.038
307.025
307.011
306.997
306.982
306.967
306.951
306.935
306.918
306.901
306.884
306.866
306.849
307.026
307.013
306.999
306.985
306.971
306.956
306.94
306.924
306.908
306.891
306.873
306.856
306.838
306.823
307.002
306.988
306.974
306.96
306.945
306.929
306.913
306.897
306.88
306.863
306.845
306.828
306.81
306.796
306.976
306.961
306.947
306.932
306.917
306.901
306.885
306.869
306.851
306.834
306.816
306.8
306.781
306.768
306.952
306.936
306.921
306.906
306.89
306.874
306.857
306.84
306.822
306.804
306.786
306.769
306.751
306.738
306.923
306.907
306.892
306.876
306.86
306.844
306.827
306.81
306.793
306.775
306.758
306.74
306.723
306.709
307.02
307.013
307.003
306.994
306.985
306.975
306.964
306.953
306.941
306.928
306.914
306.9
306.886
306.87
306.995
306.989
306.979
306.97
306.96
306.95
306.939
306.927
306.914
306.901
306.887
306.872
306.858
306.842
306.971
306.964
306.954
306.944
306.934
306.924
306.912
306.9
306.888
306.875
306.861
306.847
306.833
306.817
306.946
306.939
306.928
306.919
306.908
306.897
306.886
306.874
306.861
306.848
306.834
306.82
306.806
306.791
306.921
306.913
306.902
306.892
306.881
306.87
306.859
306.847
306.834
306.821
306.807
306.793
306.78
306.765
306.896
306.887
306.876
306.865
306.854
306.843
306.831
306.819
306.806
306.793
306.78
306.766
306.753
306.738
306.87
306.86
306.849
306.838
306.827
306.815
306.803
306.791
306.778
306.766
306.752
306.739
306.726
306.712
306.843
306.832
306.821
306.81
306.798
306.787
306.775
306.762
306.75
306.737
306.724
306.711
306.698
306.686
306.816
306.804
306.793
306.781
306.77
306.758
306.746
306.734
306.721
306.708
306.696
306.683
306.671
306.659
306.787
306.775
306.764
306.752
306.74
306.729
306.716
306.704
306.692
306.679
306.667
306.654
306.642
306.632
306.759
306.746
306.735
306.723
306.711
306.699
306.687
306.675
306.662
306.65
306.637
306.626
306.614
306.606
306.729
306.716
306.705
306.693
306.681
306.669
306.657
306.645
306.632
306.62
306.608
306.597
306.585
306.578
306.7
306.687
306.676
306.664
306.652
306.639
306.627
306.614
306.602
306.59
306.578
306.567
306.556
306.55
306.667
306.656
306.644
306.632
306.62
306.609
306.596
306.584
306.572
306.56
306.549
306.539
306.528
306.521
306.752
306.745
306.737
306.731
306.725
306.719
306.713
306.707
306.701
306.695
306.689
306.682
306.675
306.67
306.727
306.722
306.714
306.707
306.701
306.694
306.688
306.682
306.675
306.668
306.661
306.654
306.647
306.64
306.702
306.697
306.689
306.682
306.676
306.669
306.662
306.655
306.649
306.642
306.635
306.627
306.621
306.613
306.678
306.672
306.664
306.657
306.65
306.643
306.636
306.629
306.622
306.615
306.608
306.601
306.594
306.586
306.653
306.647
306.639
306.631
306.624
306.617
306.61
306.603
306.596
306.589
306.582
306.575
306.568
306.561
306.628
306.621
306.613
306.605
306.598
306.591
306.584
306.577
306.57
306.563
306.556
306.549
306.543
306.535
306.602
306.595
306.587
306.579
306.572
306.564
306.557
306.55
306.543
306.537
306.53
306.524
306.517
306.511
306.576
306.568
306.56
306.552
306.545
306.538
306.531
306.524
306.517
306.511
306.504
306.498
306.492
306.487
306.55
306.541
306.533
306.526
306.518
306.511
306.504
306.498
306.491
306.485
306.479
306.473
306.468
306.463
306.523
306.514
306.506
306.499
306.492
306.485
306.478
306.471
306.465
306.459
306.453
306.448
306.443
306.44
306.496
306.487
306.48
306.472
306.465
306.458
306.452
306.445
306.439
306.434
306.428
306.423
306.419
306.418
306.469
306.459
306.452
306.445
306.439
306.432
306.426
306.42
306.414
306.409
306.403
306.399
306.395
306.395
306.443
306.434
306.427
306.42
306.413
306.406
306.4
306.394
306.389
306.384
306.379
306.375
306.372
306.373
306.414
306.407
306.399
306.393
306.386
306.38
306.374
306.369
306.364
306.359
306.355
306.352
306.349
306.35
306.442
306.438
306.434
306.431
306.429
306.427
306.426
306.426
306.426
306.426
306.427
306.428
306.43
306.432
306.419
306.417
306.413
306.41
306.408
306.406
306.405
306.404
306.404
306.404
306.405
306.405
306.407
306.406
306.399
306.397
306.392
306.39
306.387
306.385
306.384
306.383
306.382
306.382
306.382
306.383
306.384
306.383
306.377
306.375
306.371
306.368
306.366
306.364
306.362
306.361
306.361
306.36
306.361
306.361
306.362
306.361
306.357
306.354
306.35
306.347
306.345
306.343
306.341
306.34
306.339
306.339
306.339
306.34
306.341
306.34
306.336
306.333
306.329
306.326
306.324
306.322
306.32
306.319
306.318
306.318
306.319
306.319
306.32
306.32
306.316
306.312
306.308
306.305
306.303
306.301
306.299
306.299
306.298
306.298
306.298
306.299
306.3
306.301
306.295
306.291
306.288
306.285
306.283
306.281
306.279
306.279
306.278
306.278
306.279
306.28
306.281
306.283
306.275
306.27
306.267
306.265
306.262
306.261
306.26
306.259
306.259
306.259
306.26
306.262
306.263
306.266
306.254
306.25
306.247
306.245
306.243
306.241
306.24
306.24
306.24
306.241
306.242
306.244
306.245
306.249
306.234
306.23
306.227
306.225
306.223
306.222
306.222
306.222
306.222
306.223
306.224
306.227
306.229
306.233
306.215
306.21
306.208
306.206
306.205
306.204
306.203
306.204
306.204
306.206
306.207
306.21
306.212
306.217
306.196
306.191
306.189
306.187
306.186
306.186
306.186
306.186
306.187
306.189
306.191
306.194
306.198
306.203
306.177
306.173
306.17
306.169
306.169
306.168
306.169
306.17
306.171
306.173
306.176
306.179
306.183
306.188
306.108
306.108
306.108
306.109
306.111
306.114
306.118
306.122
306.127
306.132
306.139
306.146
306.153
306.161
306.093
306.094
306.094
306.095
306.097
306.1
306.104
306.108
306.113
306.119
306.125
306.131
306.138
306.145
306.079
306.08
306.08
306.081
306.083
306.086
306.09
306.094
306.099
306.104
306.11
306.117
306.123
306.129
306.065
306.066
306.066
306.068
306.07
306.073
306.076
306.08
306.085
306.091
306.097
306.103
306.11
306.115
306.052
306.053
306.053
306.055
306.057
306.059
306.063
306.067
306.072
306.077
306.083
306.09
306.096
306.102
306.039
306.039
306.04
306.042
306.044
306.047
306.05
306.054
306.059
306.065
306.071
306.077
306.084
306.09
306.026
306.026
306.027
306.029
306.031
306.034
306.038
306.042
306.047
306.052
306.058
306.065
306.072
306.078
306.013
306.014
306.015
306.017
306.019
306.022
306.026
306.03
306.035
306.041
306.047
306.053
306.06
306.067
306.002
306.002
306.004
306.006
306.008
306.011
306.015
306.019
306.024
306.03
306.036
306.043
306.049
306.057
305.99
305.991
305.993
305.995
305.997
306.001
306.005
306.009
306.014
306.02
306.026
306.033
306.04
306.047
305.979
305.98
305.982
305.984
305.987
305.991
305.995
306
306.005
306.011
306.017
306.024
306.031
306.038
305.969
305.97
305.972
305.974
305.977
305.981
305.986
305.991
305.996
306.002
306.009
306.016
306.023
306.031
305.959
305.96
305.962
305.965
305.968
305.972
305.977
305.983
305.988
305.995
306.002
306.009
306.016
306.024
305.95
305.951
305.953
305.956
305.96
305.964
305.969
305.975
305.981
305.987
305.994
306.002
306.01
306.018
305.762
305.766
305.771
305.776
305.781
305.787
305.794
305.801
305.808
305.816
305.825
305.834
305.843
305.854
305.755
305.761
305.765
305.77
305.776
305.782
305.788
305.796
305.803
305.812
305.821
305.83
305.84
305.849
305.75
305.755
305.76
305.765
305.77
305.776
305.783
305.79
305.798
305.807
305.816
305.825
305.835
305.844
305.745
305.75
305.754
305.76
305.765
305.771
305.778
305.785
305.793
305.802
305.811
305.82
305.83
305.84
305.741
305.745
305.75
305.755
305.76
305.767
305.773
305.781
305.789
305.797
305.806
305.816
305.825
305.835
305.736
305.741
305.745
305.75
305.756
305.762
305.769
305.777
305.785
305.793
305.802
305.811
305.821
305.83
305.732
305.737
305.741
305.747
305.752
305.759
305.766
305.773
305.781
305.789
305.798
305.807
305.817
305.826
305.729
305.733
305.738
305.743
305.749
305.755
305.762
305.77
305.778
305.786
305.795
305.804
305.813
305.822
305.726
305.73
305.735
305.74
305.746
305.753
305.76
305.767
305.775
305.783
305.792
305.801
305.81
305.819
305.723
305.727
305.732
305.738
305.744
305.75
305.757
305.765
305.773
305.781
305.79
305.798
305.807
305.816
305.721
305.725
305.73
305.736
305.742
305.749
305.756
305.763
305.771
305.779
305.788
305.797
305.805
305.814
305.719
305.723
305.729
305.734
305.741
305.747
305.754
305.762
305.77
305.778
305.787
305.796
305.804
305.813
305.717
305.722
305.727
305.733
305.739
305.746
305.754
305.762
305.77
305.778
305.787
305.796
305.804
305.813
305.716
305.721
305.727
305.733
305.739
305.746
305.753
305.761
305.769
305.778
305.786
305.795
305.804
305.813
305.412
305.418
305.426
305.432
305.439
305.446
305.454
305.461
305.469
305.477
305.485
305.494
305.503
305.513
305.413
305.42
305.427
305.434
305.441
305.448
305.456
305.464
305.472
305.481
305.489
305.498
305.507
305.517
305.416
305.422
305.429
305.436
305.444
305.451
305.459
305.467
305.475
305.483
305.492
305.501
305.51
305.52
305.418
305.425
305.432
305.439
305.446
305.454
305.462
305.47
305.478
305.487
305.496
305.505
305.514
305.523
305.421
305.428
305.435
305.442
305.449
305.457
305.465
305.473
305.481
305.49
305.498
305.507
305.517
305.526
305.424
305.43
305.437
305.445
305.452
305.46
305.468
305.476
305.484
305.493
305.502
305.511
305.52
305.529
305.427
305.434
305.441
305.448
305.455
305.463
305.471
305.479
305.487
305.496
305.505
305.513
305.522
305.531
305.43
305.437
305.444
305.451
305.459
305.466
305.474
305.483
305.491
305.499
305.508
305.517
305.525
305.534
305.434
305.44
305.447
305.455
305.462
305.47
305.478
305.486
305.494
305.503
305.511
305.52
305.528
305.536
305.437
305.444
305.451
305.458
305.466
305.474
305.482
305.49
305.498
305.506
305.515
305.523
305.531
305.539
305.441
305.448
305.455
305.462
305.47
305.478
305.486
305.494
305.502
305.51
305.518
305.526
305.535
305.542
305.446
305.453
305.459
305.467
305.474
305.482
305.49
305.498
305.506
305.514
305.522
305.53
305.538
305.546
305.45
305.457
305.464
305.471
305.479
305.487
305.495
305.503
305.511
305.519
305.526
305.534
305.542
305.55
305.455
305.462
305.469
305.477
305.484
305.492
305.499
305.507
305.515
305.523
305.53
305.538
305.546
305.554
305.063
305.069
305.076
305.083
305.09
305.096
305.103
305.109
305.115
305.121
305.128
305.134
305.14
305.147
305.07
305.076
305.083
305.089
305.097
305.103
305.11
305.117
305.124
305.13
305.136
305.143
305.149
305.156
305.077
305.083
305.09
305.097
305.104
305.111
305.118
305.125
305.131
305.138
305.144
305.15
305.157
305.164
305.084
305.09
305.098
305.105
305.112
305.119
305.126
305.133
305.139
305.146
305.152
305.159
305.165
305.172
305.091
305.098
305.105
305.112
305.12
305.127
305.134
305.14
305.147
305.153
305.16
305.166
305.173
305.179
305.098
305.105
305.112
305.12
305.127
305.134
305.141
305.148
305.155
305.161
305.168
305.174
305.181
305.187
305.105
305.112
305.12
305.127
305.134
305.141
305.148
305.155
305.162
305.168
305.175
305.181
305.188
305.194
305.112
305.12
305.127
305.134
305.141
305.149
305.156
305.162
305.169
305.176
305.182
305.188
305.195
305.201
305.119
305.127
305.134
305.141
305.148
305.156
305.163
305.169
305.176
305.183
305.189
305.195
305.201
305.207
305.126
305.134
305.141
305.148
305.155
305.163
305.169
305.176
305.183
305.189
305.196
305.202
305.208
305.213
305.133
305.141
305.148
305.155
305.162
305.17
305.176
305.183
305.19
305.196
305.202
305.208
305.214
305.219
305.141
305.148
305.155
305.163
305.169
305.176
305.183
305.19
305.196
305.202
305.208
305.214
305.22
305.225
305.147
305.155
305.162
305.169
305.176
305.183
305.19
305.196
305.203
305.209
305.214
305.22
305.225
305.23
305.155
305.163
305.17
305.177
305.184
305.19
305.197
305.203
305.209
305.215
305.22
305.226
305.231
305.237
304.725
304.729
304.735
304.74
304.745
304.749
304.754
304.758
304.762
304.766
304.769
304.772
304.775
304.778
304.733
304.738
304.743
304.748
304.753
304.758
304.763
304.767
304.771
304.775
304.778
304.782
304.784
304.788
304.742
304.746
304.752
304.757
304.763
304.768
304.772
304.777
304.78
304.784
304.787
304.79
304.793
304.797
304.75
304.755
304.761
304.766
304.771
304.776
304.781
304.786
304.79
304.793
304.797
304.8
304.803
304.806
304.758
304.763
304.769
304.775
304.78
304.785
304.79
304.794
304.798
304.802
304.805
304.809
304.811
304.815
304.766
304.772
304.778
304.783
304.789
304.794
304.798
304.803
304.807
304.811
304.814
304.817
304.82
304.823
304.774
304.78
304.786
304.791
304.797
304.802
304.807
304.811
304.815
304.819
304.822
304.825
304.828
304.831
304.782
304.788
304.794
304.799
304.805
304.81
304.815
304.819
304.823
304.827
304.83
304.833
304.836
304.839
304.789
304.796
304.801
304.807
304.812
304.818
304.822
304.827
304.831
304.834
304.838
304.841
304.844
304.847
304.797
304.803
304.809
304.815
304.82
304.825
304.83
304.834
304.838
304.842
304.845
304.848
304.851
304.854
304.804
304.81
304.816
304.822
304.827
304.832
304.837
304.841
304.845
304.848
304.852
304.855
304.858
304.86
304.811
304.818
304.823
304.829
304.834
304.839
304.843
304.847
304.851
304.855
304.858
304.861
304.864
304.866
304.818
304.825
304.83
304.836
304.841
304.845
304.85
304.854
304.857
304.861
304.864
304.867
304.87
304.872
304.826
304.832
304.837
304.843
304.848
304.852
304.856
304.86
304.863
304.866
304.869
304.872
304.875
304.878
304.408
304.41
304.413
304.416
304.418
304.42
304.423
304.424
304.426
304.427
304.428
304.429
304.429
304.43
304.415
304.417
304.42
304.423
304.425
304.428
304.43
304.432
304.434
304.435
304.436
304.436
304.436
304.437
304.422
304.424
304.427
304.43
304.433
304.435
304.438
304.439
304.441
304.442
304.443
304.443
304.443
304.444
304.428
304.431
304.434
304.437
304.44
304.443
304.445
304.447
304.448
304.449
304.45
304.451
304.451
304.451
304.435
304.438
304.441
304.444
304.447
304.45
304.452
304.454
304.455
304.456
304.457
304.458
304.458
304.458
304.441
304.445
304.448
304.451
304.454
304.457
304.459
304.461
304.462
304.463
304.464
304.464
304.465
304.465
304.448
304.451
304.455
304.458
304.461
304.463
304.465
304.467
304.469
304.47
304.471
304.471
304.471
304.471
304.454
304.458
304.461
304.464
304.467
304.47
304.472
304.474
304.475
304.476
304.477
304.477
304.478
304.478
304.46
304.464
304.467
304.47
304.473
304.476
304.478
304.48
304.481
304.482
304.483
304.483
304.484
304.484
304.465
304.47
304.473
304.476
304.479
304.481
304.483
304.485
304.487
304.488
304.488
304.489
304.49
304.489
304.471
304.475
304.478
304.481
304.484
304.487
304.489
304.49
304.492
304.493
304.494
304.494
304.495
304.495
304.476
304.48
304.484
304.487
304.489
304.492
304.494
304.495
304.497
304.498
304.498
304.499
304.5
304.5
304.482
304.486
304.488
304.491
304.494
304.496
304.498
304.5
304.501
304.502
304.503
304.503
304.504
304.504
304.487
304.491
304.494
304.496
304.499
304.501
304.502
304.504
304.505
304.506
304.507
304.507
304.508
304.508
304.113
304.113
304.114
304.115
304.115
304.116
304.116
304.116
304.116
304.116
304.115
304.114
304.113
304.112
304.117
304.118
304.119
304.12
304.12
304.121
304.121
304.121
304.121
304.12
304.12
304.119
304.118
304.117
304.121
304.122
304.123
304.124
304.125
304.125
304.125
304.125
304.125
304.125
304.124
304.123
304.122
304.121
304.126
304.126
304.128
304.128
304.129
304.13
304.13
304.13
304.13
304.129
304.128
304.127
304.126
304.125
304.13
304.131
304.132
304.133
304.133
304.134
304.134
304.134
304.134
304.133
304.132
304.131
304.13
304.129
304.133
304.135
304.136
304.137
304.137
304.138
304.138
304.138
304.138
304.137
304.136
304.135
304.134
304.132
304.137
304.139
304.14
304.141
304.141
304.142
304.142
304.142
304.142
304.141
304.14
304.139
304.138
304.136
304.141
304.142
304.143
304.144
304.145
304.146
304.146
304.146
304.145
304.145
304.144
304.143
304.141
304.14
304.144
304.146
304.147
304.148
304.148
304.149
304.149
304.149
304.149
304.148
304.147
304.146
304.145
304.143
304.147
304.149
304.15
304.151
304.152
304.152
304.152
304.152
304.152
304.151
304.15
304.149
304.148
304.146
304.151
304.152
304.153
304.154
304.155
304.155
304.155
304.155
304.155
304.154
304.153
304.152
304.151
304.149
304.153
304.155
304.156
304.157
304.157
304.157
304.158
304.157
304.157
304.156
304.156
304.155
304.154
304.152
304.156
304.157
304.158
304.159
304.159
304.16
304.16
304.16
304.159
304.159
304.158
304.157
304.156
304.154
304.158
304.16
304.16
304.161
304.161
304.162
304.162
304.161
304.161
304.161
304.16
304.159
304.158
304.157
303.835
303.835
303.835
303.835
303.834
303.834
303.833
303.832
303.831
303.83
303.829
303.827
303.826
303.824
303.838
303.838
303.837
303.837
303.837
303.836
303.835
303.834
303.833
303.832
303.831
303.829
303.828
303.826
303.84
303.839
303.839
303.839
303.839
303.838
303.837
303.836
303.835
303.834
303.833
303.831
303.829
303.827
303.842
303.841
303.841
303.841
303.841
303.84
303.839
303.838
303.837
303.836
303.834
303.833
303.831
303.829
303.843
303.843
303.843
303.843
303.842
303.842
303.841
303.84
303.839
303.837
303.836
303.834
303.832
303.83
303.845
303.845
303.845
303.844
303.844
303.843
303.843
303.842
303.84
303.839
303.837
303.836
303.834
303.832
303.846
303.846
303.846
303.846
303.845
303.845
303.844
303.843
303.842
303.84
303.839
303.837
303.835
303.833
303.848
303.848
303.847
303.847
303.847
303.846
303.845
303.844
303.843
303.842
303.84
303.838
303.836
303.834
303.849
303.849
303.849
303.848
303.848
303.847
303.846
303.845
303.844
303.843
303.841
303.839
303.838
303.835
303.85
303.85
303.849
303.849
303.849
303.848
303.847
303.846
303.845
303.844
303.842
303.84
303.838
303.836
303.85
303.85
303.85
303.85
303.849
303.849
303.848
303.847
303.846
303.844
303.843
303.841
303.839
303.837
303.851
303.851
303.851
303.85
303.85
303.849
303.848
303.847
303.846
303.845
303.843
303.842
303.84
303.838
303.851
303.851
303.851
303.851
303.85
303.849
303.849
303.847
303.846
303.845
303.844
303.842
303.84
303.838
303.851
303.851
303.851
303.85
303.85
303.849
303.848
303.847
303.846
303.845
303.844
303.842
303.841
303.838
303.571
303.571
303.57
303.57
303.569
303.569
303.568
303.567
303.566
303.564
303.563
303.561
303.572
303.572
303.571
303.571
303.57
303.57
303.569
303.568
303.566
303.565
303.564
303.562
303.573
303.572
303.572
303.572
303.571
303.57
303.569
303.568
303.567
303.566
303.564
303.562
303.573
303.573
303.573
303.572
303.572
303.571
303.57
303.569
303.567
303.566
303.565
303.563
303.574
303.573
303.573
303.573
303.572
303.571
303.57
303.569
303.568
303.566
303.565
303.563
303.574
303.574
303.573
303.573
303.572
303.571
303.57
303.569
303.568
303.566
303.565
303.563
303.574
303.574
303.573
303.573
303.572
303.571
303.57
303.569
303.568
303.566
303.565
303.563
303.574
303.573
303.573
303.573
303.572
303.571
303.57
303.569
303.568
303.566
303.565
303.563
303.573
303.573
303.573
303.572
303.572
303.571
303.57
303.569
303.567
303.566
303.564
303.563
303.573
303.573
303.572
303.572
303.571
303.57
303.569
303.568
303.567
303.565
303.564
303.562
303.572
303.572
303.572
303.571
303.57
303.57
303.569
303.567
303.566
303.565
303.563
303.562
303.571
303.571
303.571
303.57
303.569
303.569
303.568
303.567
303.565
303.564
303.562
303.561
303.57
303.57
303.569
303.569
303.568
303.568
303.567
303.566
303.564
303.563
303.561
303.56
303.568
303.568
303.568
303.567
303.567
303.566
303.565
303.564
303.563
303.562
303.561
303.559
307.451
307.425
307.396
307.373
307.351
307.331
307.444
307.405
307.367
307.332
307.297
307.264
307.438
307.389
307.342
307.297
307.253
307.208
307.438
307.382
307.328
307.274
307.222
307.17
307.401
307.381
307.359
307.342
307.326
307.314
307.391
307.361
307.332
307.304
307.279
307.255
307.381
307.343
307.305
307.268
307.233
307.199
307.375
307.329
307.283
307.238
307.195
307.152
307.37
307.318
307.266
307.215
307.166
307.117
307.368
307.311
307.255
307.201
307.148
307.096
307.367
307.309
307.252
307.196
307.143
307.091
307.409
307.397
307.383
307.374
307.365
307.358
307.398
307.38
307.361
307.344
307.33
307.317
307.388
307.363
307.337
307.312
307.291
307.271
307.379
307.347
307.314
307.282