/*--------------------------------*- C++ -*----------------------------------*\
| =========                 |                                                 |
| \\      /  F ield         | OpenFOAM: The Open Source CFD Toolbox           |
|  \\    /   O peration     | Version:  v2106                                 |
|   \\  /    A nd           | Website:  www.openfoam.com                      |
|    \\/     M anipulation  |                                                 |
\*---------------------------------------------------------------------------*/
FoamFile
{
    version     2.0;
    format      ascii;
    arch        "LSB;label=32;scalar=64";
    class       volScalarField;
    location    "0.000218";
    object      nut;
}
// * * * * * * * * * * * * * * * * * * * * * * * * * * * * * * * * * * * * * //

dimensions      [0 2 -1 0 0 0 0];

internalField   nonuniform List<scalar> 
18109
(
1.52516e-06
1.22108e-06
9.82545e-07
7.93638e-07
6.53825e-07
5.63499e-07
5.24361e-07
8.33526e-07
6.33526e-07
5.03683e-07
4.01895e-07
3.2332e-07
2.68705e-07
2.39731e-07
4.67819e-07
3.23261e-07
2.47484e-07
1.93463e-07
1.5202e-07
1.22257e-07
1.05097e-07
2.66681e-07
1.63505e-07
1.17356e-07
8.86964e-08
6.78146e-08
5.2847e-08
4.39527e-08
1.51436e-07
8.1951e-08
5.39516e-08
3.88133e-08
2.86764e-08
2.16359e-08
1.74768e-08
8.654e-08
4.12811e-08
2.43258e-08
1.62937e-08
1.15065e-08
8.38347e-09
6.59854e-09
5.27408e-08
2.21618e-08
1.12287e-08
6.70089e-09
4.41286e-09
3.08066e-09
2.37151e-09
3.83723e-08
1.44911e-08
6.02507e-09
2.92949e-09
1.67768e-09
1.08784e-09
8.19742e-10
1.43593e-06
1.15883e-06
9.34439e-07
7.55936e-07
6.24185e-07
5.38399e-07
4.99951e-07
5.10814e-07
5.82994e-07
7.21705e-07
9.40808e-07
1.24284e-06
1.66499e-06
2.26939e-06
7.52031e-07
5.85773e-07
4.69605e-07
3.76114e-07
3.03962e-07
2.53927e-07
2.2743e-07
2.2674e-07
2.59703e-07
3.34825e-07
4.65716e-07
6.61393e-07
9.49909e-07
1.37919e-06
4.01088e-07
2.88894e-07
2.25399e-07
1.77512e-07
1.40422e-07
1.13897e-07
9.87887e-08
9.62264e-08
1.10393e-07
1.48116e-07
2.20692e-07
3.40289e-07
5.30483e-07
8.32239e-07
2.15936e-07
1.40158e-07
1.04056e-07
7.97304e-08
6.15342e-08
4.84944e-08
4.08672e-08
3.90309e-08
4.50815e-08
6.34554e-08
1.02551e-07
1.74338e-07
2.99591e-07
5.16083e-07
1.15231e-07
6.68345e-08
4.63479e-08
3.41407e-08
2.55722e-08
1.95672e-08
1.60731e-08
1.51679e-08
1.78935e-08
2.69584e-08
4.82557e-08
9.1937e-08
1.76161e-07
3.35468e-07
6.17103e-08
3.1705e-08
2.0073e-08
1.39791e-08
1.00854e-08
7.48253e-09
6.00961e-09
5.67109e-09
7.02815e-09
1.17621e-08
2.39256e-08
5.15375e-08
1.09923e-07
2.29556e-07
3.54912e-08
1.58381e-08
8.73075e-09
5.54447e-09
3.7899e-09
2.71584e-09
2.14249e-09
2.06637e-09
2.82699e-09
5.51748e-09
1.29423e-08
3.12362e-08
7.3019e-08
1.64555e-07
2.50369e-08
9.63305e-09
4.26544e-09
2.25749e-09
1.38777e-09
9.43189e-10
7.35059e-10
7.564e-10
1.23183e-09
2.90608e-09
7.77136e-09
2.05396e-08
5.16149e-08
1.23546e-07
2.38525e-08
8.29985e-09
2.89147e-09
1.12387e-09
5.42189e-10
3.27206e-10
2.53597e-10
3.01977e-10
6.2971e-10
1.77235e-09
5.22547e-09
1.47576e-08
3.92064e-08
9.8312e-08
2.87486e-08
9.67326e-09
2.95008e-09
8.76633e-10
3.00602e-10
1.49239e-10
1.22564e-10
1.80121e-10
4.40866e-10
1.33431e-09
4.10562e-09
1.20319e-08
3.31122e-08
8.5539e-08
3.81837e-08
1.27698e-08
3.74932e-09
1.03607e-09
3.42028e-10
2.04115e-10
2.14238e-10
3.07501e-10
5.95195e-10
1.5017e-09
4.26499e-09
1.21819e-08
3.33544e-08
8.6086e-08
5.26194e-08
1.77801e-08
5.32749e-09
1.61922e-09
7.32222e-10
6.37549e-10
7.66886e-10
1.03055e-09
1.57044e-09
2.93058e-09
6.64846e-09
1.66982e-08
4.25589e-08
1.0467e-07
7.31713e-08
2.57681e-08
8.47523e-09
3.23453e-09
2.05866e-09
2.14754e-09
2.69177e-09
3.57492e-09
5.02996e-09
7.90504e-09
1.44556e-08
3.02437e-08
6.78802e-08
1.52391e-07
1.04785e-07
4.09675e-08
1.60766e-08
7.89171e-09
6.06837e-09
6.6609e-09
8.42648e-09
1.12025e-08
1.54076e-08
2.24677e-08
3.57665e-08
6.33419e-08
1.22654e-07
2.45979e-07
2.7099e-06
4.35857e-06
6.69861e-06
9.95467e-06
1.45671e-05
2.16456e-05
2.68859e-06
4.3396e-06
6.71227e-06
1.00284e-05
1.47576e-05
2.19888e-05
2.20573e-06
3.66067e-06
5.87239e-06
9.18997e-06
1.42599e-05
2.23469e-05
1.77058e-06
3.09217e-06
5.21628e-06
8.59746e-06
1.41069e-05
2.36736e-05
1.44957e-06
2.68187e-06
4.79496e-06
8.38931e-06
1.47439e-05
2.70565e-05
1.22936e-06
2.41419e-06
4.58697e-06
8.56608e-06
1.63541e-05
3.28996e-05
1.0992e-06
2.28557e-06
4.61138e-06
9.22785e-06
1.89973e-05
4.03456e-05
1.05782e-06
2.30081e-06
4.87288e-06
1.02921e-05
2.21967e-05
4.76392e-05
1.10157e-06
2.44905e-06
5.30627e-06
1.1474e-05
2.49449e-05
5.20825e-05
1.23849e-06
2.71662e-06
5.82205e-06
1.24474e-05
2.65274e-05
5.31556e-05
1.45857e-06
3.04617e-06
6.26016e-06
1.29105e-05
2.65982e-05
5.12891e-05
1.77336e-06
3.44062e-06
6.63242e-06
1.29012e-05
2.51975e-05
4.65915e-05
2.16986e-06
3.86761e-06
6.94445e-06
1.2595e-05
2.2937e-05
4.06267e-05
2.6955e-06
4.46375e-06
7.45907e-06
1.26421e-05
2.15619e-05
3.58912e-05
3.46387e-06
5.3274e-06
8.28743e-06
1.30642e-05
2.06396e-05
3.15791e-05
2.8146e-06
3.9992e-06
6.33172e-06
1.04447e-05
1.71393e-05
2.68131e-05
1.9652e-06
2.98584e-06
5.06635e-06
8.74771e-06
1.46496e-05
2.38378e-05
1.34095e-06
2.27659e-06
4.14632e-06
7.40964e-06
1.27427e-05
2.18757e-05
9.46247e-07
1.77754e-06
3.39509e-06
6.23285e-06
1.10317e-05
1.99384e-05
6.92817e-07
1.39899e-06
2.76784e-06
5.23628e-06
9.64047e-06
1.8255e-05
5.19529e-07
1.10115e-06
2.24681e-06
4.38014e-06
8.31798e-06
1.63414e-05
3.95896e-07
8.69521e-07
1.82674e-06
3.66964e-06
7.19808e-06
1.47394e-05
3.08022e-07
6.95394e-07
1.49895e-06
3.09238e-06
6.22046e-06
1.3123e-05
2.49347e-07
5.74137e-07
1.26134e-06
2.65335e-06
5.43973e-06
1.17877e-05
2.16882e-07
5.01942e-07
1.10807e-06
2.34463e-06
4.83582e-06
1.05587e-05
2.1309e-07
4.83002e-07
1.04642e-06
2.17847e-06
4.43344e-06
9.54253e-06
2.4542e-07
5.24091e-07
1.07451e-06
2.13251e-06
4.16582e-06
8.54961e-06
3.26309e-07
6.35527e-07
1.19703e-06
2.20573e-06
4.04241e-06
7.73556e-06
4.44467e-07
7.84258e-07
1.35308e-06
2.30528e-06
3.92545e-06
6.8977e-06
4.23874e-07
6.94334e-07
1.13908e-06
1.91158e-06
3.27602e-06
5.80308e-06
2.63556e-07
5.04165e-07
9.21554e-07
1.67142e-06
3.0247e-06
5.54906e-06
1.66465e-07
3.68554e-07
7.476e-07
1.45265e-06
2.75698e-06
5.24682e-06
1.11645e-07
2.7457e-07
5.96556e-07
1.21878e-06
2.42197e-06
4.82638e-06
7.78655e-08
2.03216e-07
4.63881e-07
9.97976e-07
2.0961e-06
4.40999e-06
5.49221e-08
1.47686e-07
3.52396e-07
8.01486e-07
1.7837e-06
3.96567e-06
3.89873e-08
1.06714e-07
2.66399e-07
6.42799e-07
1.51978e-06
3.58349e-06
2.81052e-08
7.82303e-08
2.04192e-07
5.21387e-07
1.306e-06
3.27775e-06
2.1892e-08
6.24223e-08
1.69264e-07
4.5209e-07
1.18679e-06
3.14751e-06
2.07721e-08
6.05019e-08
1.65803e-07
4.46412e-07
1.18416e-06
3.20858e-06
2.63511e-08
7.57205e-08
2.02513e-07
5.23691e-07
1.32903e-06
3.48126e-06
4.15874e-08
1.10678e-07
2.82608e-07
6.8464e-07
1.60352e-06
3.92973e-06
7.19833e-08
1.68175e-07
4.03132e-07
9.18222e-07
1.99263e-06
4.67657e-06
1.30868e-07
2.6917e-07
5.90379e-07
1.23738e-06
2.51324e-06
5.67124e-06
5.42567e-07
1.27102e-06
2.83823e-06
5.99787e-06
1.20434e-05
2.27761e-05
8.38528e-07
1.76484e-06
3.56457e-06
6.89197e-06
1.27981e-05
2.24847e-05
1.29523e-06
2.42782e-06
4.41162e-06
7.81438e-06
1.35259e-05
2.23742e-05
2.05702e-06
3.43282e-06
5.60918e-06
9.0728e-06
1.44584e-05
2.24325e-05
2.51381e-07
4.92939e-07
9.35739e-07
1.73425e-06
3.25379e-06
6.68748e-06
1.84264e-07
3.96516e-07
8.07976e-07
1.60035e-06
3.21521e-06
6.95278e-06
1.354e-07
3.12841e-07
6.79972e-07
1.44456e-06
3.11973e-06
7.11724e-06
9.9928e-08
2.45951e-07
5.72905e-07
1.31736e-06
3.07065e-06
7.39621e-06
7.68135e-08
2.01667e-07
5.08682e-07
1.27563e-06
3.20713e-06
8.12612e-06
6.53649e-08
1.84216e-07
5.05608e-07
1.3729e-06
3.67127e-06
9.61148e-06
6.86202e-08
2.04559e-07
5.9667e-07
1.69325e-06
4.62591e-06
1.20308e-05
9.27383e-08
2.78602e-07
8.13693e-07
2.27388e-06
6.01609e-06
1.48697e-05
1.48682e-07
4.27951e-07
1.18538e-06
3.10596e-06
7.65127e-06
1.75206e-05
2.52793e-07
6.71624e-07
1.70678e-06
4.0915e-06
9.21986e-06
1.93395e-05
4.25122e-07
1.02656e-06
2.36567e-06
5.15004e-06
1.06123e-05
2.04614e-05
6.93694e-07
1.50479e-06
3.13021e-06
6.21774e-06
1.18294e-05
2.12187e-05
1.12548e-06
2.17413e-06
4.05811e-06
7.36048e-06
1.30169e-05
2.20273e-05
1.8612e-06
3.1961e-06
5.35034e-06
8.83061e-06
1.43292e-05
2.26462e-05
3.45827e-05
0.000107236
0.000229712
0.00022572
0.000173362
3.84651e-05
0.000125549
0.000239537
0.000226474
0.000169561
4.54578e-05
0.000149487
0.000248888
0.000227702
0.00016717
5.62146e-05
0.000173671
0.000257783
0.000231739
0.000165525
6.93506e-05
0.000190877
0.000263836
0.000234322
0.000161054
8.23743e-05
0.000195363
0.000265183
0.000234805
0.000157107
9.22023e-05
0.000190798
0.000263791
0.000236594
0.000158979
9.48982e-05
0.000181367
0.000260756
0.000244054
0.000169343
0.000122675
9.19577e-05
0.000169323
0.000256527
0.000255461
0.000181842
0.000129417
8.46401e-05
0.000152799
0.000248638
0.000265364
0.000196567
0.00013828
7.30681e-05
0.000132525
0.000238218
0.000275155
0.000216293
0.000150929
0.000133029
6.15443e-05
0.00011299
0.000227714
0.000283604
0.000239357
0.000166065
0.000149954
0.000160359
5.27037e-05
9.80163e-05
0.00021958
0.000289309
0.000258634
0.000181704
0.000155436
0.000250551
4.76326e-05
9.21338e-05
0.00022367
0.000296806
0.00027117
0.000188645
0.000153456
0.00023119
4.4688e-05
9.23495e-05
0.000238173
0.000308055
0.000276303
0.000184515
0.000138403
0.000201027
4.27587e-05
9.7482e-05
0.000255492
0.000311957
0.00026705
0.000174372
0.000127901
0.000184404
4.14077e-05
0.000106731
0.000268892
0.000311218
0.000258015
0.000168272
0.000128384
0.000108849
4.01137e-05
0.000118061
0.000278092
0.000316872
0.000256105
0.000164424
0.00012554
0.000159562
3.91252e-05
0.000128091
0.0002789
0.000319174
0.000247302
0.000150389
0.00010861
0.000165479
3.8182e-05
0.000132681
0.000269003
0.000313947
0.000234078
0.000137655
9.79993e-05
0.0001398
3.76392e-05
0.000131528
0.000252263
0.000303526
0.000226985
0.000136107
0.000101775
6.98123e-05
3.66921e-05
0.000124035
0.000231283
0.000296997
0.000233795
0.000146199
0.000112319
9.36921e-05
3.53074e-05
0.000111645
0.000206712
0.000292281
0.000243502
0.00015351
3.3162e-05
9.66342e-05
0.00017987
0.000283255
0.000254469
0.000163374
3.03161e-05
8.13092e-05
0.000153127
0.000269593
0.000269295
0.000179044
2.72018e-05
6.77655e-05
0.000128261
0.000255411
0.000287046
0.000198781
2.4468e-05
5.71969e-05
0.000112698
0.000245677
0.000303027
0.000219847
2.20127e-05
4.96349e-05
0.000107308
0.000253896
0.000315049
1.97437e-05
4.43957e-05
0.000111116
0.000274035
0.000323826
1.81012e-05
4.07155e-05
0.000122031
0.000289133
0.000312718
1.66619e-05
3.87045e-05
0.000138448
0.000294749
0.00029584
1.52504e-05
3.93515e-05
0.000159864
0.000301162
0.000287498
1.40019e-05
4.24837e-05
0.000178277
0.000300201
0.000274625
1.29809e-05
4.66953e-05
0.000183386
0.000287814
0.000254646
1.2481e-05
5.07901e-05
0.000176012
0.000271188
0.000234746
1.25441e-05
5.36337e-05
0.000161961
0.00025781
0.000222662
1.31919e-05
5.43888e-05
0.000145393
0.000247903
0.000214936
1.42227e-05
5.32148e-05
0.000129123
0.000237001
0.000207424
1.53784e-05
5.09081e-05
0.00011606
0.000226179
0.00020379
1.63808e-05
4.82969e-05
0.000109267
0.000220153
0.00020422
1.7099e-05
4.62047e-05
0.000113182
0.00022438
0.000204528
1.74812e-05
4.53295e-05
0.000131935
0.000239751
0.000204625
1.74487e-05
4.59991e-05
0.000165239
0.000255283
0.000201962
1.71697e-05
4.86385e-05
0.000205258
0.000257728
0.000192543
1.71565e-05
5.43144e-05
0.000244234
0.000256679
0.000186095
1.80609e-05
6.32562e-05
0.000271928
0.000257347
0.000181983
2.03567e-05
7.39842e-05
0.000276006
0.000253707
0.000174045
2.40886e-05
8.38217e-05
0.000265299
0.000246435
0.000164152
2.89579e-05
9.07056e-05
0.000252749
0.000239081
0.000157326
3.30682e-05
9.33554e-05
0.000240338
0.000235047
0.000155505
3.55778e-05
9.42746e-05
0.000228737
0.000232666
0.000156012
3.59477e-05
9.27535e-05
0.000215724
0.000227106
0.000157729
3.48149e-05
8.93484e-05
0.000206353
0.000222989
0.000162502
3.32257e-05
8.68716e-05
0.000202488
0.000219877
0.000167976
3.23996e-05
8.84945e-05
0.000206873
0.000218684
0.000171667
3.26964e-05
9.53862e-05
0.00021718
0.00022149
0.000173795
1.38486e-06
1.1169e-06
8.99293e-07
7.27085e-07
6.01009e-07
5.18237e-07
4.804e-07
4.86333e-07
5.49332e-07
6.77547e-07
8.88479e-07
1.18446e-06
1.60996e-06
2.23101e-06
6.99558e-07
5.52053e-07
4.43404e-07
3.554e-07
2.88103e-07
2.41572e-07
2.17166e-07
2.15421e-07
2.4458e-07
3.13587e-07
4.37447e-07
6.25427e-07
9.09574e-07
1.33893e-06
3.57935e-07
2.64784e-07
2.08362e-07
1.64557e-07
1.30789e-07
1.06806e-07
9.34041e-08
9.09609e-08
1.03743e-07
1.38304e-07
2.06118e-07
3.19248e-07
5.02825e-07
7.99258e-07
1.84242e-07
1.24443e-07
9.40774e-08
7.25255e-08
5.63263e-08
4.47908e-08
3.82047e-08
3.66526e-08
4.22125e-08
5.90063e-08
9.51529e-08
1.6215e-07
2.81083e-07
4.91485e-07
9.3771e-08
5.72451e-08
4.09176e-08
3.04827e-08
2.30264e-08
1.78143e-08
1.48569e-08
1.41385e-08
1.66666e-08
2.49169e-08
4.44275e-08
8.47864e-08
1.63948e-07
3.17936e-07
4.77079e-08
2.60103e-08
1.72331e-08
1.22447e-08
8.94454e-09
6.72693e-09
5.49945e-09
5.2453e-09
6.49656e-09
1.07786e-08
2.18465e-08
4.72183e-08
1.01892e-07
2.17457e-07
2.59793e-08
1.22583e-08
7.19094e-09
4.73927e-09
3.31068e-09
2.41557e-09
1.94419e-09
1.89584e-09
2.58647e-09
5.00727e-09
1.17476e-08
2.85645e-08
6.78098e-08
1.56645e-07
1.75555e-08
6.915e-09
3.25668e-09
1.84033e-09
1.18474e-09
8.29587e-10
6.62034e-10
6.87297e-10
1.11283e-09
2.61588e-09
7.04096e-09
1.8844e-08
4.82708e-08
1.18695e-07
1.65353e-08
5.61965e-09
1.97999e-09
8.23507e-10
4.35521e-10
2.80794e-10
2.25664e-10
2.70317e-10
5.61086e-10
1.58729e-09
4.74382e-09
1.36418e-08
3.7086e-08
9.56262e-08
2.01816e-08
6.4553e-09
1.88218e-09
5.60307e-10
2.11121e-10
1.19646e-10
1.05443e-10
1.56755e-10
3.86126e-10
1.18797e-09
3.73516e-09
1.12123e-08
3.16757e-08
8.41013e-08
2.73079e-08
8.61745e-09
2.37152e-09
6.34589e-10
2.29235e-10
1.62003e-10
1.8224e-10
2.64023e-10
5.13991e-10
1.32378e-09
3.86929e-09
1.13855e-08
3.20723e-08
8.49715e-08
3.8299e-08
1.22283e-08
3.44832e-09
1.04545e-09
5.42389e-10
5.3505e-10
6.65819e-10
8.97069e-10
1.36377e-09
2.56921e-09
5.9769e-09
1.54936e-08
4.0705e-08
1.02723e-07
5.42347e-08
1.8221e-08
5.77168e-09
2.30158e-09
1.6577e-09
1.85794e-09
2.37406e-09
3.15904e-09
4.43016e-09
6.97505e-09
1.29333e-08
2.77515e-08
6.4136e-08
1.47744e-07
7.94504e-08
3.02748e-08
1.17909e-08
6.1322e-09
5.12378e-09
5.87649e-09
7.53443e-09
1.00384e-08
1.37759e-08
2.0081e-08
3.21429e-08
5.77729e-08
1.14449e-07
2.35153e-07
1.37648e-06
1.08509e-06
8.63135e-07
6.91733e-07
5.6993e-07
4.8764e-07
4.47826e-07
4.43189e-07
4.88502e-07
5.97343e-07
7.95288e-07
1.08813e-06
1.53844e-06
2.22322e-06
6.54032e-07
5.07844e-07
4.03407e-07
3.2128e-07
2.60593e-07
2.18357e-07
1.96305e-07
1.91681e-07
2.12766e-07
2.69061e-07
3.78691e-07
5.52874e-07
8.33093e-07
1.27439e-06
3.13208e-07
2.28957e-07
1.78722e-07
1.40562e-07
1.12128e-07
9.20223e-08
8.11592e-08
7.83904e-08
8.77744e-08
1.15047e-07
1.72117e-07
2.71127e-07
4.41589e-07
7.31996e-07
1.50189e-07
1.00628e-07
7.57932e-08
5.83102e-08
4.55637e-08
3.65764e-08
3.16918e-08
3.03731e-08
3.44919e-08
4.73011e-08
7.6283e-08
1.32007e-07
2.37264e-07
4.37598e-07
7.06074e-08
4.30164e-08
3.08462e-08
2.3002e-08
1.75265e-08
1.37403e-08
1.17086e-08
1.11893e-08
1.30372e-08
1.91017e-08
3.40796e-08
6.63608e-08
1.34258e-07
2.78901e-07
3.27662e-08
1.79711e-08
1.20848e-08
8.64966e-09
6.39795e-09
4.89299e-09
4.10314e-09
3.9381e-09
4.81772e-09
7.85261e-09
1.6083e-08
3.59391e-08
8.22555e-08
1.90703e-07
1.60879e-08
7.62349e-09
4.61881e-09
3.11388e-09
2.22158e-09
1.65533e-09
1.36915e-09
1.34111e-09
1.8049e-09
3.47842e-09
8.42459e-09
2.15759e-08
5.50915e-08
1.39478e-07
9.97514e-09
3.79408e-09
1.84573e-09
1.09844e-09
7.39094e-10
5.33888e-10
4.38257e-10
4.54772e-10
7.31612e-10
1.76383e-09
5.02916e-09
1.44274e-08
4.01891e-08
1.08589e-07
9.18589e-09
2.83115e-09
9.54708e-10
4.18573e-10
2.43406e-10
1.67486e-10
1.3949e-10
1.66985e-10
3.54463e-10
1.06767e-09
3.45546e-09
1.08062e-08
3.21469e-08
9.08057e-08
1.15827e-08
3.26461e-09
8.31502e-10
2.33844e-10
9.92291e-11
6.642e-11
6.35006e-11
9.54558e-11
2.44669e-10
8.16731e-10
2.82056e-09
9.29384e-09
2.87314e-08
8.28547e-08
1.65436e-08
4.61113e-09
1.08551e-09
2.62609e-10
1.13373e-10
1.04877e-10
1.2828e-10
1.83758e-10
3.52739e-10
9.55393e-10
3.05641e-09
9.88034e-09
3.02854e-08
8.61433e-08
2.45111e-08
6.99049e-09
1.72474e-09
5.15719e-10
3.40185e-10
3.96404e-10
5.13193e-10
6.88546e-10
1.0282e-09
1.96368e-09
4.86975e-09
1.37496e-08
3.9106e-08
1.05152e-07
3.65941e-08
1.12023e-08
3.27423e-09
1.40198e-09
1.19953e-09
1.46638e-09
1.91844e-09
2.5562e-09
3.55117e-09
5.60204e-09
1.07475e-08
2.46259e-08
6.12276e-08
1.49917e-07
5.61178e-08
2.02411e-08
7.77827e-09
4.42644e-09
4.06783e-09
4.88366e-09
6.34778e-09
8.47527e-09
1.1579e-08
1.68851e-08
2.7414e-08
5.11724e-08
1.07167e-07
2.3315e-07
1.39854e-06
1.07006e-06
8.34461e-07
6.58361e-07
5.40617e-07
4.59707e-07
4.21336e-07
4.12927e-07
4.51411e-07
5.50501e-07
7.44299e-07
1.04629e-06
1.542e-06
2.32077e-06
6.38742e-07
4.75541e-07
3.69757e-07
2.90617e-07
2.35449e-07
1.96843e-07
1.77532e-07
1.72342e-07
1.89962e-07
2.38522e-07
3.39029e-07
5.05101e-07
7.90387e-07
1.25753e-06
2.93704e-07
2.02646e-07
1.5432e-07
1.19941e-07
9.57199e-08
7.86146e-08
6.99193e-08
6.74686e-08
7.51878e-08
9.75428e-08
1.46775e-07
2.34794e-07
3.97227e-07
6.92154e-07
1.34659e-07
8.37191e-08
6.12176e-08
4.65782e-08
3.64752e-08
2.9377e-08
2.57831e-08
2.47969e-08
2.80813e-08
3.80042e-08
6.14722e-08
1.08052e-07
2.03399e-07
4.02551e-07
6.02441e-08
3.34416e-08
2.31345e-08
1.70771e-08
1.30707e-08
1.0304e-08
8.92206e-09
8.57561e-09
9.96137e-09
1.43677e-08
2.57673e-08
5.15256e-08
1.11199e-07
2.53901e-07
2.66518e-08
1.3016e-08
8.36188e-09
5.92959e-09
4.41928e-09
3.40442e-09
2.90531e-09
2.80219e-09
3.40569e-09
5.47321e-09
1.14368e-08
2.69e-08
6.72749e-08
1.74559e-07
1.26306e-08
5.18679e-09
2.9415e-09
1.9597e-09
1.41292e-09
1.06159e-09
8.93107e-10
8.75099e-10
1.16613e-09
2.25606e-09
5.76436e-09
1.60493e-08
4.57475e-08
1.30608e-07
7.81976e-09
2.54171e-09
1.10121e-09
6.32988e-10
4.30123e-10
3.13471e-10
2.60949e-10
2.6888e-10
4.32997e-10
1.09752e-09
3.43933e-09
1.10171e-08
3.46395e-08
1.05145e-07
7.31033e-09
1.99414e-09
5.7305e-10
2.24761e-10
1.291e-10
8.96959e-11
7.54851e-11
8.98266e-11
2.00314e-10
6.7251e-10
2.46771e-09
8.74329e-09
2.93107e-08
9.18199e-08
9.36918e-09
2.44198e-09
5.44315e-10
1.29132e-10
5.12722e-11
3.61017e-11
3.60088e-11
5.40506e-11
1.45946e-10
5.49623e-10
2.16692e-09
8.07016e-09
2.77389e-08
8.71144e-08
1.37258e-08
3.63298e-09
7.75579e-10
1.66652e-10
7.42954e-11
7.66803e-11
9.62295e-11
1.33834e-10
2.49426e-10
7.16089e-10
2.55739e-09
9.20715e-09
3.08189e-08
9.37355e-08
2.10187e-08
5.74101e-09
1.31198e-09
3.73813e-10
2.63074e-10
3.22524e-10
4.21126e-10
5.59784e-10
8.21931e-10
1.60115e-09
4.28249e-09
1.3267e-08
4.08141e-08
1.16267e-07
3.23871e-08
9.50718e-09
2.64663e-09
1.14041e-09
1.01086e-09
1.25945e-09
1.65092e-09
2.19351e-09
3.02721e-09
4.81725e-09
9.65184e-09
2.3811e-08
6.3753e-08
1.652e-07
5.0116e-08
1.76529e-08
6.85292e-09
4.03437e-09
3.71222e-09
4.44108e-09
5.73071e-09
7.62339e-09
1.03805e-08
1.52295e-08
2.52254e-08
4.92018e-08
1.09224e-07
2.5109e-07
1.34589e-06
9.9859e-07
7.60918e-07
5.87327e-07
4.80744e-07
4.07654e-07
3.77892e-07
3.69391e-07
4.04281e-07
4.89743e-07
6.73625e-07
9.792e-07
1.51876e-06
2.38434e-06
5.93804e-07
4.18094e-07
3.15565e-07
2.4266e-07
1.96408e-07
1.64568e-07
1.51085e-07
1.47294e-07
1.63065e-07
2.0314e-07
2.92396e-07
4.47402e-07
7.34412e-07
1.22713e-06
2.64509e-07
1.6729e-07
1.22249e-07
9.28249e-08
7.41599e-08
6.13234e-08
5.58484e-08
5.45395e-08
6.13256e-08
7.90122e-08
1.20206e-07
1.96884e-07
3.51334e-07
6.58577e-07
1.17083e-07
6.45081e-08
4.45837e-08
3.30652e-08
2.59809e-08
2.11694e-08
1.91201e-08
1.87476e-08
2.15111e-08
2.89574e-08
4.74394e-08
8.58911e-08
1.7366e-07
3.81221e-07
5.08211e-08
2.39836e-08
1.53364e-08
1.09898e-08
8.45933e-09
6.77807e-09
6.0672e-09
5.98343e-09
7.0631e-09
1.0169e-08
1.86651e-08
3.92988e-08
9.37946e-08
2.43427e-07
2.22408e-08
8.76282e-09
5.01237e-09
3.42081e-09
2.56716e-09
2.01735e-09
1.78721e-09
1.77713e-09
2.19922e-09
3.56769e-09
7.8514e-09
2.02073e-08
5.74922e-08
1.7087e-07
1.0841e-08
3.43007e-09
1.61061e-09
1.00438e-09
7.26523e-10
5.58001e-10
4.89219e-10
4.95853e-10
6.78e-10
1.37471e-09
3.89572e-09
1.23639e-08
4.06957e-08
1.32118e-07
7.23195e-09
1.86472e-09
6.01638e-10
2.91664e-10
1.93126e-10
1.43665e-10
1.25138e-10
1.34243e-10
2.30168e-10
6.59144e-10
2.40615e-09
8.96701e-09
3.23982e-08
1.09895e-07
7.13465e-09
1.72235e-09
3.82204e-10
1.05484e-10
5.14073e-11
3.57893e-11
3.17913e-11
4.06545e-11
1.05793e-10
4.29997e-10
1.87398e-09
7.6981e-09
2.91084e-08
9.96643e-08
9.35541e-09
2.3169e-09
4.55574e-10
8.1321e-11
2.40222e-11
1.76028e-11
1.92691e-11
2.98134e-11
8.82898e-11
3.92982e-10
1.80791e-09
7.6364e-09
2.88894e-08
9.71014e-08
1.40052e-08
3.6307e-09
7.27338e-10
1.34636e-10
5.46825e-11
5.95246e-11
7.51229e-11
1.00862e-10
1.83822e-10
5.73789e-10
2.3186e-09
9.26711e-09
3.34861e-08
1.07327e-07
2.19862e-08
5.92685e-09
1.29075e-09
3.29916e-10
2.20635e-10
2.73728e-10
3.55284e-10
4.64274e-10
6.70849e-10
1.35418e-09
3.97778e-09
1.35727e-08
4.49275e-08
1.34388e-07
3.46048e-08
9.9314e-09
2.65589e-09
1.06964e-09
9.08914e-10
1.12469e-09
1.46001e-09
1.92148e-09
2.62748e-09
4.24302e-09
8.99895e-09
2.41395e-08
6.96553e-08
1.90112e-07
5.30231e-08
1.85037e-08
7.24789e-09
4.15449e-09
3.62942e-09
4.22586e-09
5.34143e-09
7.03712e-09
9.52155e-09
1.40983e-08
2.3969e-08
4.91939e-08
1.16152e-07
2.82277e-07
1.05491e-06
7.56933e-07
5.58063e-07
4.17975e-07
3.40175e-07
2.86236e-07
2.69759e-07
2.6351e-07
2.94543e-07
3.56307e-07
5.09674e-07
7.81154e-07
1.30315e-06
2.15011e-06
4.39638e-07
2.90833e-07
2.10168e-07
1.55688e-07
1.2553e-07
1.05074e-07
9.88524e-08
9.71638e-08
1.10438e-07
1.37913e-07
2.06478e-07
3.33789e-07
5.92524e-07
1.074e-06
1.85623e-07
1.06093e-07
7.30634e-08
5.31123e-08
4.23426e-08
3.52256e-08
3.31476e-08
3.29123e-08
3.82181e-08
4.96671e-08
7.89434e-08
1.38001e-07
2.73274e-07
5.88053e-07
7.84942e-08
3.72396e-08
2.36696e-08
1.6698e-08
1.31129e-08
1.08112e-08
1.01659e-08
1.02105e-08
1.21701e-08
1.66846e-08
2.89604e-08
5.75543e-08
1.34782e-07
3.53153e-07
3.32951e-08
1.27221e-08
7.1871e-09
4.85143e-09
3.73425e-09
3.03879e-09
2.84976e-09
2.89758e-09
3.58276e-09
5.36694e-09
1.08341e-08
2.63665e-08
7.5873e-08
2.35929e-07
1.50931e-08
4.48574e-09
2.09216e-09
1.31052e-09
9.80173e-10
7.83212e-10
7.30504e-10
7.5422e-10
9.95555e-10
1.77025e-09
4.57925e-09
1.43026e-08
4.9353e-08
1.7099e-07
8.20747e-09
1.91742e-09
6.39957e-10
3.35764e-10
2.37466e-10
1.85023e-10
1.71449e-10
1.82773e-10
2.8118e-10
6.94842e-10
2.46705e-09
9.61318e-09
3.74729e-08
1.37e-07
6.47007e-09
1.35841e-09
2.93688e-10
9.34697e-11
5.40705e-11
4.01419e-11
3.71342e-11
4.37472e-11
9.68984e-11
3.74749e-10
1.71718e-09
7.63201e-09
3.14474e-08
1.16447e-07
7.02189e-09
1.53972e-09
2.76496e-10
4.66566e-11
1.39172e-11
8.96274e-12
8.69086e-12
1.38437e-11
5.33175e-11
2.88371e-10
1.51507e-09
7.1446e-09
2.98008e-08
1.08746e-07
9.69879e-09
2.27964e-09
4.11342e-10
5.86455e-11
1.19544e-11
9.1104e-12
1.0859e-11
1.7044e-11
5.65522e-11
3.01648e-10
1.6002e-09
7.50805e-09
3.05641e-08
1.07653e-07
1.4909e-08
3.72671e-09
7.11324e-10
1.1618e-10
4.10189e-11
4.56133e-11
5.76975e-11
7.58784e-11
1.3867e-10
4.81644e-10
2.19359e-09
9.57475e-09
3.67298e-08
1.22223e-07
2.41779e-08
6.30431e-09
1.31582e-09
2.98884e-10
1.80329e-10
2.23359e-10
2.89037e-10
3.7504e-10
5.40832e-10
1.15618e-09
3.77271e-09
1.41014e-08
4.9718e-08
1.54578e-07
3.92324e-08
1.08336e-08
2.78339e-09
1.02521e-09
8.06698e-10
9.77765e-10
1.25427e-09
1.64532e-09
2.2499e-09
3.74079e-09
8.52557e-09
2.49757e-08
7.71646e-08
2.20087e-07
6.02926e-08
2.0575e-08
8.11913e-09
4.45957e-09
3.61885e-09
4.02921e-09
4.9238e-09
6.43133e-09
8.68823e-09
1.3124e-08
2.31365e-08
5.03453e-08
1.26056e-07
3.22631e-07
5.62991e-07
3.85113e-07
2.75713e-07
2.04579e-07
1.69331e-07
1.44347e-07
1.38963e-07
1.37058e-07
1.5632e-07
1.88998e-07
2.78504e-07
4.49074e-07
8.15001e-07
1.44653e-06
2.16757e-07
1.32212e-07
9.13272e-08
6.65888e-08
5.45657e-08
4.64697e-08
4.49186e-08
4.49915e-08
5.25747e-08
6.64137e-08
1.03513e-07
1.80151e-07
3.56786e-07
7.40761e-07
8.53796e-08
4.29441e-08
2.76923e-08
1.96518e-08
1.58755e-08
1.3464e-08
1.30673e-08
1.33263e-08
1.60395e-08
2.14449e-08
3.63163e-08
7.14734e-08
1.66497e-07
4.32199e-07
3.49822e-08
1.36218e-08
7.76043e-09
5.27208e-09
4.17202e-09
3.50766e-09
3.41128e-09
3.54366e-09
4.42115e-09
6.41947e-09
1.25027e-08
3.0097e-08
8.73739e-08
2.76143e-07
1.53241e-08
4.43562e-09
2.046e-09
1.28849e-09
9.89912e-10
8.20557e-10
7.97282e-10
8.44698e-10
1.1152e-09
1.89351e-09
4.75307e-09
1.51478e-08
5.44878e-08
1.96415e-07
8.07128e-09
1.73925e-09
5.52803e-10
2.91197e-10
2.11877e-10
1.71965e-10
1.66412e-10
1.81234e-10
2.70754e-10
6.35174e-10
2.29134e-09
9.47091e-09
3.91062e-08
1.49977e-07
5.45326e-09
1.01448e-09
2.05216e-10
6.72252e-11
4.11594e-11
3.21301e-11
3.09726e-11
3.6294e-11
7.64093e-11
3.04029e-10
1.51583e-09
7.33469e-09
3.22844e-08
1.2603e-07
5.25212e-09
1.00392e-09
1.64691e-10
2.65733e-11
8.14572e-12
5.42545e-12
5.28688e-12
8.14929e-12
3.42108e-11
2.12419e-10
1.24705e-09
6.4222e-09
2.86789e-08
1.10793e-07
6.20814e-09
1.29648e-09
2.15866e-10
2.74334e-11
3.57148e-12
1.57601e-12
1.73569e-12
4.16249e-12
2.77155e-11
2.02996e-10
1.25619e-09
6.53405e-09
2.87213e-08
1.07615e-07
8.87916e-09
1.98508e-09
3.46754e-10
4.57084e-11
7.61873e-12
5.90576e-12
7.16163e-12
1.05899e-11
3.79985e-11
2.41117e-10
1.43382e-09
7.20185e-09
3.04131e-08
1.09064e-07
1.37237e-08
3.23876e-09
5.9908e-10
9.278e-11
3.07526e-11
3.46652e-11
4.37035e-11
5.62949e-11
1.05141e-10
4.13462e-10
2.08185e-09
9.62412e-09
3.809e-08
1.28845e-07
2.30803e-08
5.63954e-09
1.14196e-09
2.48895e-10
1.44235e-10
1.78359e-10
2.29499e-10
2.95497e-10
4.2807e-10
9.83922e-10
3.55088e-09
1.42384e-08
5.22323e-08
1.65609e-07
3.95991e-08
1.02798e-08
2.61667e-09
9.47588e-10
7.10489e-10
8.39324e-10
1.05756e-09
1.3826e-09
1.89511e-09
3.26863e-09
8.03564e-09
2.54103e-08
8.24313e-08
2.41875e-07
6.45579e-08
2.15471e-08
8.90129e-09
4.91078e-09
3.75439e-09
3.96716e-09
4.5799e-09
5.90316e-09
7.89377e-09
1.21641e-08
2.21533e-08
5.06286e-08
1.32586e-07
3.54453e-07
1.27453e-07
8.1456e-08
5.71669e-08
4.18652e-08
3.53003e-08
3.0603e-08
3.04066e-08
3.115e-08
3.68766e-08
4.63676e-08
7.11654e-08
1.22248e-07
2.47302e-07
5.15884e-07
4.27719e-08
2.34752e-08
1.56804e-08
1.12185e-08
9.28544e-09
8.02116e-09
8.01188e-09
8.40959e-09
1.02983e-08
1.37944e-08
2.3076e-08
4.50375e-08
1.05257e-07
2.71441e-07
1.54078e-08
6.51137e-09
3.94367e-09
2.72591e-09
2.20217e-09
1.88355e-09
1.88398e-09
2.02506e-09
2.58296e-09
3.7829e-09
7.32587e-09
1.77263e-08
5.24235e-08
1.70908e-07
6.36373e-09
1.87395e-09
9.25058e-10
6.00827e-10
4.70356e-10
3.95611e-10
3.94098e-10
4.3337e-10
5.86105e-10
1.00663e-09
2.54004e-09
8.30933e-09
3.11317e-08
1.18202e-07
3.2217e-09
6.55598e-10
2.16866e-10
1.20771e-10
9.00831e-11
7.3992e-11
7.30456e-11
8.28497e-11
1.28178e-10
3.12593e-10
1.17673e-09
5.12896e-09
2.2473e-08
9.22005e-08
2.28028e-09
3.76046e-10
7.08395e-11
2.40587e-11
1.54287e-11
1.22141e-11
1.19501e-11
1.4842e-11
3.40456e-11
1.46257e-10
7.68517e-10
3.92004e-09
1.83532e-08
7.69859e-08
2.10338e-09
3.50607e-10
5.11337e-11
7.73454e-12
2.53114e-12
1.76333e-12
1.75968e-12
3.23405e-12
1.6089e-11
1.05712e-10
6.46807e-10
3.50955e-09
1.67488e-08
6.99679e-08
2.53204e-09
4.54707e-10
6.66046e-11
7.37426e-12
7.74595e-13
2.83164e-13
3.37529e-13
1.49022e-12
1.26082e-11
9.64754e-11
6.2249e-10
3.42637e-09
1.61849e-08
6.59435e-08
3.37067e-09
6.51503e-10
1.00089e-10
1.109e-11
1.11624e-12
5.67042e-13
7.04327e-13
1.89167e-12
1.38746e-11
1.07222e-10
6.95613e-10
3.7793e-09
1.73675e-08
6.83067e-08
5.17426e-09
1.0462e-09
1.67726e-10
2.03387e-11
3.92381e-12
3.81257e-12
4.69641e-12
6.68373e-12
2.23546e-11
1.40111e-10
8.52967e-10
4.42127e-09
1.93942e-08
7.28647e-08
8.30175e-09
1.75051e-09
2.9826e-10
4.54378e-11
1.87822e-11
2.31108e-11
2.9289e-11
3.7222e-11
6.71341e-11
2.55894e-10
1.30412e-09
6.20449e-09
2.55652e-08
9.1047e-08
1.49251e-08
3.26812e-09
6.36651e-10
1.52064e-10
1.00926e-10
1.26743e-10
1.62373e-10
2.0695e-10
2.93881e-10
6.52325e-10
2.33745e-09
9.54405e-09
3.61712e-08
1.20958e-07
2.80397e-08
6.82823e-09
1.8372e-09
7.51023e-10
5.73114e-10
6.56946e-10
8.09086e-10
1.04869e-09
1.42467e-09
2.41052e-09
5.81026e-09
1.84029e-08
6.12511e-08
1.90389e-07
5.41786e-08
1.98104e-08
9.44602e-09
5.56514e-09
4.05468e-09
4.02045e-09
4.15769e-09
5.17714e-09
6.56538e-09
9.95768e-09
1.76433e-08
3.9621e-08
1.04931e-07
2.9702e-07
1.06679e-08
6.51557e-09
4.59033e-09
3.39305e-09
2.8719e-09
2.54313e-09
2.58051e-09
2.77588e-09
3.43908e-09
4.60126e-09
7.51709e-09
1.40955e-08
3.12128e-08
7.54106e-08
3.22516e-09
1.64585e-09
1.0967e-09
7.90205e-10
6.48456e-10
5.64634e-10
5.69704e-10
6.23937e-10
7.99244e-10
1.15757e-09
2.14545e-09
4.86233e-09
1.33644e-08
4.11869e-08
1.12383e-09
4.10762e-10
2.41297e-10
1.67741e-10
1.332e-10
1.13256e-10
1.12843e-10
1.252e-10
1.67834e-10
2.7954e-10
6.63754e-10
2.05024e-09
7.41087e-09
2.82023e-08
5.29602e-10
1.21329e-10
5.07961e-11
3.21028e-11
2.4537e-11
2.03044e-11
1.98872e-11
2.24281e-11
3.35069e-11
7.69954e-11
2.74865e-10
1.16087e-09
5.05812e-09
2.13949e-08
3.69362e-10
6.23566e-11
1.37129e-11
5.77741e-12
3.97985e-12
3.19164e-12
3.08476e-12
3.74739e-12
8.14958e-12
3.3671e-11
1.72363e-10
8.67603e-10
4.13437e-09
1.83826e-08
3.80356e-10
6.28316e-11
9.33193e-12
1.54827e-12
5.89637e-13
4.29706e-13
4.25544e-13
7.61042e-13
3.65617e-12
2.33376e-11
1.39241e-10
7.53499e-10
3.72965e-09
1.68316e-08
4.66138e-10
8.24742e-11
1.18773e-11
1.28229e-12
1.36039e-13
5.27379e-14
6.70183e-14
3.3145e-13
2.77029e-12
2.05167e-11
1.30729e-10
7.36067e-10
3.70525e-09
1.66726e-08
6.6864e-10
1.24019e-10
1.81681e-11
1.86712e-12
1.40155e-13
3.97588e-14
5.72768e-14
2.92506e-13
2.59794e-12
2.0385e-11
1.35383e-10
7.76798e-10
3.89446e-09
1.71543e-08
9.89793e-10
1.90503e-10
2.84848e-11
3.01132e-12
3.62111e-13
2.7113e-13
3.29206e-13
5.94973e-13
3.22274e-12
2.42025e-11
1.61555e-10
9.20881e-10
4.51561e-09
1.92577e-08
1.59095e-09
3.10768e-10
4.76545e-11
5.73047e-12
1.60181e-12
1.84712e-12
2.25184e-12