/*--------------------------------*- C++ -*----------------------------------*\
| =========                 |                                                 |
| \\      /  F ield         | OpenFOAM: The Open Source CFD Toolbox           |
|  \\    /   O peration     | Version:  v2106                                 |
|   \\  /    A nd           | Website:  www.openfoam.com                      |
|    \\/     M anipulation  |                                                 |
\*---------------------------------------------------------------------------*/
FoamFile
{
    version     2.0;
    format      ascii;
    arch        "LSB;label=32;scalar=64";
    class       volScalarField;
    location    "0.000218";
    object      p;
}
// * * * * * * * * * * * * * * * * * * * * * * * * * * * * * * * * * * * * * //

dimensions      [1 -1 -2 0 0 0 0];

internalField   nonuniform List<scalar> 
18109
(
198382
198326
198338
198359
198425
198486
198539
198858
198780
198781
198797
198861
198926
198985
199263
199203
199205
199228
199294
199363
199426
199667
199614
199616
199648
199716
199788
199857
200035
200000
200017
200065
200136
200213
200281
200396
200389
200423
200487
200564
200639
200699
200777
200805
200858
200941
201019
201081
201123
201206
201269
201344
201434
201499
201539
201556
198582
198492
198439
198372
198348
198299
198247
198128
197984
197774
197522
197239
196997
196856
199052
198933
198880
198821
198798
198754
198709
198619
198506
198336
198134
197930
197680
197555
199434
199331
199293
199253
199239
199211
199180
199119
199035
198895
198717
198533
198322
198192
199818
199725
199696
199676
199675
199666
199655
199618
199556
199446
199303
199154
198984
198858
200172
200110
200101
200106
200119
200128
200128
200103
200053
199969
199857
199735
199595
199481
200548
200520
200529
200552
200577
200592
200589
200566
200525
200466
200387
200299
200194
200093
200965
200974
201000
201035
201058
201060
201044
201015
200978
200935
200884
200825
200754
200667
201446
201488
201520
201548
201550
201530
201494
201456
201424
201398
201371
201338
201292
201216
201979
202040
202061
202074
202049
202000
201943
201902
201878
201865
201855
201838
201806
201728
202549
202612
202608
202598
202541
202463
202398
202362
202350
202349
202353
202342
202317
202216
203111
203167
203135
203098
203017
202929
202870
202848
202845
202851
202855
202834
202806
202674
203651
203689
203622
203563
203478
203400
203360
203352
203357
203370
203366
203339
203294
203139
204148
204165
204080
204016
203942
203886
203864
203865
203871
203879
203857
203813
203751
203580
204616
204610
204522
204457
204401
204372
204366
204374
204382
204389
204364
204307
204232
204091
198262
198067
197960
197842
197693
197495
198464
198275
198165
198077
197980
197834
198236
197991
197764
197569
197388
197236
198117
197806
197517
197249
196943
196642
197975
197585
197204
196890
196516
196163
197898
197450
196995
196623
196217
195830
197805
197307
196785
196358
195868
195371
197734
197185
196595
196034
195392
194786
197575
196969
196317
195658
194958
194335
197415
196756
196056
195327
194557
193870
197181
196460
195707
194944
194222
193604
196978
196203
195506
194779
194097
193446
196704
195948
195272
194575
193969
193400
196580
195917
195326
194764
194233
193648
196226
195575
195075
194603
194194
193873
196645
196155
195837
195409
195025
194604
197355
196878
196521
196035
195557
195063
197976
197537
197175
196693
196213
195679
198650
198243
197881
197373
196919
196350
199295
198948
198625
198147
197713
197236
199940
199663
199392
198977
198584
198125
200543
200341
200120
199797
199484
199090
201119
200988
200803
200577
200328
200055
201653
201573
201415
201275
201111
200967
202161
202116
202010
201944
201883
201888
202633
202624
202579
202585
202622
202742
203119
203158
203182
203253
203357
203533
203574
203678
203759
203888
204035
204250
204107
204275
204401
204578
204734
204926
204462
204639
204865
205086
205324
205542
204580
204856
205166
205468
205777
206074
204729
205093
205470
205835
206206
206561
204830
205256
205682
206091
206504
206883
204891
205372
205832
206263
206692
207071
204908
205427
205910
206350
206789
207174
204909
205445
205945
206394
206841
207247
204899
205438
205948
206410
206866
207294
204893
205419
205930
206409
206885
207349
204892
205392
205883
206363
206847
207336
204910
205372
205826
206283
206745
207234
204940
205360
205776
206193
206608
207040
204958
205351
205695
206070
206447
206817
205042
205370
205655
205981
206281
206584
199729
199659
199682
199610
199639
199817
199327
199164
199152
199082
199101
199227
198934
198688
198692
198644
198678
198762
198413
198096
198061
197953
197975
198011
204874
205189
205432
205720
206008
206322
204322
204636
204891
205198
205480
205773
203803
204070
204289
204557
204796
205074
203195
203396
203571
203801
204027
204316
202593
202733
202883
203118
203387
203782
201998
202113
202278
202558
202894
203330
201472
201585
201794
202120
202486
202921
201009
201136
201385
201720
202087
202428
200612
200749
200998
201266
201520
201706
200255
200347
200535
200649
200752
200837
199916
199893
199988
199958
199963
200027
199524
199388
199400
199298
199252
199276
199138
198893
198864
198760
198736
198766
198613
198286
198231
198108
198117
198184
197939
198412
200922
206059
216213
197133
197249
200489
206766
218197
196482
196707
200475
207351
222234
196126
196354
199692
206114
219111
195829
195873
198642
203873
212247
195318
195435
198040
202947
210465
194713
194961
197851
203520
213555
194261
194503
197331
202511
212027
222837
193544
193763
196309
200085
206181
212860
193296
193556
196049
199571
206210
213737
192870
193153
195719
199594
208244
219061
228715
192797
193197
195982
200545
211191
225284
243143
262171
192908
193139
195611
200419
212908
233148
266471
302885
193239
193155
195292
199681
210399
228261
253527
275373
193825
193392
194724
198256
205031
215441
230045
238933
194329
193916
195580
199920
207134
218706
224433
231761
194925
194490
196503
201879
212765
231733
255019
262934
195618
195405
197263
202140
212427
229222
250563
282341
196541
196512
197940
201620
208421
217572
229656
237600
197451
197469
198692
201685
207138
214869
218721
222890
198496
198642
200111
203860
212424
224649
235781
236945
199692
199872
201229
204705
211861
223014
238595
259513
200885
201191
202434
205365
209804
216887
202029
202619
203934
206575
210292
217234
203073
203930
205603
208752
213815
222119
203978
204992
206873
210376
216748
228148
204722
205681
207485
210980
218536
234057
205324
206113
207731
210675
217308
205930
206443
207518
209649
214605
206557
207015
207908
210232
215229
207094
207672
208701
211497
218419
207463
208159
209490
212453
219703
207707
208561
210110
213189
219903
207838
208778
210384
213407
218239
207970
209064
210871
214437
221224
208060
209254
211122
214817
221057
208170
209461
211305
214427
218609
208176
209450
211348
214638
219074
208045
209294
211317
214597
220449
207812
209032
211030
214416
221847
207540
208649
210456
213766
221988
207275
208229
209662
212836
220286
206928
207941
209602
213051
219548
206340
207237
209023
213080
220779
205566
206630
208924
213751
224460
204838
206101
208517
213609
224080
204456
205953
208470
213583
222399
204035
205439
207962
213059
221056
203542
204837
207377
213060
222318
202828
204210
207010
212647
221080
202040
203409
206078
210525
216711
201264
202707
205662
210152
217322
200586
201966
205046
209523
218948
199872
201302
204628
209545
220723
199302
200584
203589
209005
222045
198656
199617
202115
207211
219517
198855
198714
198614
198472
198348
198173
198003
197792
197580
197329
197067
196777
196504
196332
199279
199111
199011
198886
198772
198621
198466
198272
198081
197858
197629
197405
197146
196987
199613
199469
199387
199284
199189
199066
198934
198770
198595
198400
198192
197994
197771
197620
199969
199840
199770
199691
199618
199520
199408
199270
199119
198951
198776
198609
198420
198279
200338
200233
200176
200117
200058
199979
199885
199769
199640
199500
199351
199204
199039
198903
200750
200666
200614
200566
200512
200445
200362
200264
200156
200040
199916
199790
199647
199516
201207
201141
201088
201042
200986
200920
200841
200752
200658
200559
200454
200342
200217
200088
201717
201660
201598
201539
201470
201396
201315
201232
201148
201061
200971
200871
200763
200631
202249
202193
202111
202033
201949
201866
201784
201706
201630
201554
201471
201375
201270
201134
202783
202719
202613
202518
202419
202330
202250
202180
202110
202041
201959
201863
201760
201615
203284
203211
203086
202982
202878
202791
202718
202656
202591
202521
202434
202328
202213
202046
203758
203676
203532
203422
203321
203245
203183
203130
203067
202995
202899
202784
202660
202473
204209
204118
203966
203860
203766
203702
203646
203595
203524
203440
203326
203197
203062
202871
204652
204536
204385
204276
204191
204135
204085
204036
203964
203876
203757
203625
203481
203323
199071
198949
198846
198694
198529
198313
198085
197824
197547
197240
196933
196600
196285
196034
199449
199291
199178
199034
198886
198699
198491
198249
197988
197706
197426
197159
196867
196657
199763
199606
199500
199370
199244
199084
198902
198685
198445
198196
197943
197707
197440
197248
200117
199966
199857
199740
199630
199491
199328
199132
198917
198695
198470
198261
198022
197846
200507
200356
200242
200135
200032
199907
199763
199591
199402
199206
199003
198808
198588
198408
200936
200788
200668
200563
200458
200342
200211
200060
199892
199713
199527
199341
199140
198954
201395
201244
201116
201007
200899
200787
200664
200525
200371
200203
200028
199847
199658
199460
201878
201725
201586
201468
201352
201237
201114
200978
200830
200669
200503
200327
200152
199954
202358
202204
202052
201925
201801
201683
201560
201425
201280
201123
200960
200788
200621
200424
202835
202680
202513
202378
202248
202130
202007
201872
201726
201567
201403
201234
201075
200875
203285
203138
202961
202827
202696
202580
202456
202321
202169
202003
201829
201655
201498
201291
203734
203593
203399
203259
203122
203009
202886
202751
202592
202416
202232
202056
201905
201698
204177
204032
203831
203692
203549
203428
203299
203155
202984
202798
202604
202426
202270
202092
204611
204418
204204
204050
203913
203795
203669
203524
203351
203165
202967
202799
202661
202510
199443
199382
199319
199213
199088
198921
198702
198446
198155
197843
197522
197160
196795
196418
199860
199732
199653
199539
199418
199260
199059
198822
198550
198260
197953
197641
197288
196995
200200
200046
199959
199843
199730
199590
199414
199205
198961
198702
198419
198136
197802
197527
200582
200418
200308
200185
200071
199940
199780
199591
199367
199124
198856
198593
198286
198042
200959
200790
200656
200531
200417
200297
200153
199982
199775
199549
199298
199050
198766
198521
201361
201186
201034
200903
200781
200661
200521
200360
200166
199953
199719
199482
199224
198979
201758
201576
201413
201276
201146
201022
200883
200729
200548
200348
200131
199903
199663
199410
202175
201978
201801
201652
201512
201381
201240
201087
200915
200725
200526
200307
200087
199832
202591
202377
202187
202026
201880
201744
201602
201450
201284
201101
200912
200698
200494
200239
203032
202804
202584
202407
202252
202112
201970
201817
201654
201472
201288
201079
200888
200637
203448
203246
203013
202815
202637
202488
202342
202186
202021
201835
201647
201437
201252
201011
203832
203636
203394
203196
203010
202853
202703
202539
202363
202170
201976
201774
201591
201358
204172
203997
203759
203570
203378
203206
203038
202859
202670
202474
202277
202084
201893
201695
204478
204232
203995
203818
203649
203487
203318
203143
202952
202753
202551
202381
202216
202056
200992
201000
201006
200948
200888
200746
200572
200340
200037
199691
199294
198846
198374
197815
201495
201419
201405
201325
201256
201115
200941
200716
200427
200098
199713
199312
198855
198431
201898
201812
201773
201673
201593
201463
201297
201094
200827
200527
200166
199798
199358
198964
202325
202214
202147
202032
201935
201799
201633
201436
201181
200900
200558
200211
199796
199433
202736
202601
202512
202384
202273
202137
201971
201782
201538
201270
200945
200613
200219
199859
203139
202981
202869
202726
202597
202451
202280
202091
201854
201597
201289
200973
200604
200249
203517
203340
203215
203060
202920
202768
202594
202405
202175
201925
201629
201319
200965
200606
203852
203680
203537
203373
203223
203062
202882
202687
202461
202213
201932
201630
201301
200940
204116
203974
203829
203660
203499
203328
203145
202948
202726
202480
202210
201906
201599
201232
204309
204179
204043
203890
203735
203568
203392
203196
202978
202733
202475
202177
201885
201513
204444
204315
204180
204062
203926
203768
203593
203396
203182
202940
202692
202398
202129
201757
204548
204407
204263
204157
204043
203914
203753
203567
203360
203126
202884
202594
202339
201958
204630
204487
204337
204231
204121
204013
203871
203700
203505
203282
203048
202767
202521
202136
204623
204477
204345
204257
204161
204072
203948
203794
203614
203401
203175
202920
202683
202348
204174
204296
204346
204306
204265
204141
204026
203805
203557
203233
202835
202373
201844
201202
204683
204709
204711
204656
204598
204459
204330
204110
203863
203551
203164
202744
202246
201750
205104
205077
205065
204978
204912
204776
204642
204431
204185
203889
203515
203126
202628
202182
205471
205405
205372
205272
205187
205042
204898
204686
204440
204154
203793
203423
202953
202535
205783
205688
205643
205530
205438
205293
205144
204938
204694
204414
204062
203701
203251
202845
206052
205929
205871
205750
205648
205500
205345
205139
204896
204619
204276
203923
203496
203091
206256
206124
206053
205926
205819
205669
205511
205306
205068
204796
204468
204127
203723
203326
206421
206292
206212
206082
205967
205814
205649
205444
205207
204940
204626
204295
203915
203519
206530
206415
206318
206188
206071
205921
205756
205552
205321
205060
204760
204436
204074
203677
206613
206509
206399
206270
206154
206003
205837
205636
205413
205160
204879
204564
204220
203816
206651
206555
206440
206314
206200
206054
205892
205696
205481
205233
204964
204653
204329
203925
206622
206544
206438
206330
206221
206082
205931
205744
205541
205303
205048
204738
204416
203996
206575
206493
206395
206309
206213
206085
205948
205767
205575
205342
205097
204795
204485
204048
206390
206352
206292
206229
206150
206054
205937
205782
205609
205392
205153
204844
204549
204084
209168
209244
209292
209262
209222
209131
209043
208872
208719
208472
208182
207829
207348
206786
209576
209593
209592
209551
209499
209397
209293
209117
208951
208701
208409
208066
207655
207174
209883
209870
209879
209830
209778
209678
209569
209393
209215
208965
208669
208331
207901
207470
210140
210102
210110
210056
209998
209894
209775
209594
209403
209150
208854
208525
208111
207707
210309
210267
210280
210228
210173
210070
209949
209768
209570
209313
209014
208685
208277
207888
210430
210382
210400
210352
210298
210195
210068
209887
209679
209419
209116
208788
208388
208000
210473
210433
210458
210417
210368
210270
210143
209964
209752
209491
209190
208864
208475
208090
210464
210436
210470
210439
210396
210304
210175
209995
209778
209518
209214
208889
208505
208118
210377
210374
210412
210396
210366
210284
210161
209991
209779
209526
209228
208906
208526
208131
210266
210281
210322
210316
210292
210218
210101
209943
209738
209494
209202
208883
208507
208103
210092
210130
210172
210179
210168
210108
210001
209851
209656
209422
209142
208825
208454
208048
209842
209915
209978
210000
210004
209961
209873
209741
209566
209350
209082
208771
208393
207970
209566
209662
209738
209782
209803
209777
209708
209594
209437
209234
208978
208667
208298
207838
209161
209343
209453
209533
209573
209571
209535
209447
209312
209126
208877
208553
208181
207645
215650
215611
215620
215591
215562
215507
215469
215387
215328
215203
215064
214864
214535
214199
215802
215771
215759
215721
215683
215620
215561
215465
215380
215235
215067
214852
214570
214233
215925
215885
215884
215847
215809
215745
215676
215572
215470
215316
215138
214910
214621
214290
216008
215954
215967
215932
215892
215823
215741
215624
215499
215330
215140
214907
214623
214313
216038
215983
216006
215975
215936
215866
215777
215652
215514
215336
215136
214901
214619
214325
216035
215984
216014
215989
215951
215878
215783
215650
215500
215314
215106
214869
214586
214297
215972
215938
215976
215960
215924
215855
215757
215623
215462
215271
215059
214823
214547
214269
215900
215874
215911
215898
215864
215798
215699
215565
215401
215210
214994
214759
214482
214201
215767
215761
215804
215803
215777
215717
215619
215490
215328
215143
214932
214700
214426
214144
215622
215628
215678
215688
215673
215621
215527
215404
215244
215064
214853
214622
214345
214050
215421
215450
215514
215537
215537
215500
215417
215304
215149
214976
214768
214535
214258
213948
215176
215229
215321
215361
215376
215357
215288
215191
215046
214882
214678
214446
214154
213822
214883
214989
215090
215149
215184
215186
215134
215050
214913
214753
214546
214300
214011
213632
214508
214677
214818
214915
214969
214997
214973
214910
214788
214639
214429
214165
213838
213392
221719
221628
221628
221613
221614
221610
221627
221636
221665
221648
221642
221570
221413
221279
221697
221634
221635
221617
221617
221611
221616
221613
221623
221591
221548
221457
221315
221151
221698
221636
221649
221637
221639
221633
221632
221623
221619
221579
221521
221427
221282
221117
221668
221613
221640
221631
221631
221620
221613
221595
221575
221522
221447
221345
221203
221056
221616
221577
221614
221614
221617
221606
221592
221565
221532
221472
221392
221285
221148
221010
221562
221536
221575
221582
221590
221579
221558
221521
221473
221407
221323
221217
221085
220955
221477
221470
221516
221533
221549
221543
221517
221475
221418
221349
221266
221165
221041
220919
221398
221402
221452
221478
221498
221496
221468
221425
221364
221294
221210
221110
220989
220867
221277
221302
221366
221405
221434
221440
221418
221380
221320
221253
221170
221074
220957
220835
221163
221200
221277
221329
221366
221383
221369
221336
221276
221211
221126
221027
220904
220770
221019
221072
221168
221234
221284
221316
221314
221291
221235
221174
221088
220987
220861
220713
220869
220934
221049
221132
221195
221245
221256
221243
221191
221135
221047
220940
220807
220636
220693
220801
220917
221015
221091
221157
221180
221181
221129
221074
220976
220854
220717
220494
220479
220631
220780
220911
221003
221082
221114
221128
221075
221025
220922
220792
220626
220387
226573
226493
226514
226548
226608
226681
226783
226901
227044
227161
227255
227298
227271
227238
226479
226438
226476
226515
226584
226660
226760
226868
226988
227076
227132
227149
227115
227051
226422
226398
226457
226506
226580
226655
226745
226836
226933
227000
227037
227045
227001
226938
226355
226351
226423
226477
226552
226624
226705
226780
226850
226893
226910
226897
226845
226791
226292
226309
226388
226450
226527
226595
226665
226725
226774
226800
226802
226780
226727
226678
226241
226267
226349
226417
226494
226559
226615
226659
226687
226696
226688
226659
226608
226566
226185
226222
226308
226382
226461
226522
226572
226603
226615
226616
226602
226572
226526
226491
226142
226185
226273
226351
226428
226487
226533
226556
226558
226554
226535
226504
226461
226431
226088
226141
226235
226317
226397
226460
226505
226529
226528
226522
226502
226473
226435
226411
226054
226108
226205
226290
226372
226441
226489
226515
226513
226509
226490
226461
226422
226397
226025
226078
226177
226265
226350
226428
226482
226516
226518
226521
226507
226483
226446
226422
226008
226059
226160
226250
226339
226426
226486
226530
226539
226547
226535
226513
226479
226445
225984
226055
226154
226244
226335
226430
226494
226548
226561
226571
226556
226533
226499
226442
226013
226066
226171
226271
226365
226464
226527
226591
226609
226624
226612
226595
226563
226535
229852
229833
229893
229970
230082
230209
230366
230545
230749
230955
231165
231344
231450
231550
229836
229839
229920
230014
230145
230283
230439
230605
230782
230957
231118
231256
231339
231419
229812
229854
229964
230081
230222
230361
230503
230642
230781
230915
231032
231134
231203
231263
229809
229872
230002
230132
230281
230416
230543
230657
230762
230852
230929
230994
231038
231090
229801
229888
230033
230176
230327
230458
230570
230660
230730
230783
230825
230862
230892
230933
229809
229911
230062
230208
230357
230480
230578
230646
230687
230708
230719
230731
230747
230783
229820
229934
230088
230235
230379
230495
230580
230634
230654
230653
230643
230637
230645
230680
229851
229969
230120
230262
230399
230506
230583
230623
230627
230615
230592
230573
230573
230610
229894
230011
230158
230294
230423
230522
230593
230626
230623
230607
230580
230556
230550
230586
229960
230068
230207
230333
230454
230548
230614
230645
230643
230630
230605
230583
230574
230607
230040
230138
230266
230382
230494
230587
230651
230685
230689
230687
230674
230661
230656
230691
230132
230223
230339
230445
230551
230644
230706
230747
230760
230769
230765
230762
230760
230791
230240
230323
230424
230519
230620
230714
230776
230826
230849
230869
230872
230879
230883
230916
230409
230446
230549
230640
230733
230823
230882
230943
230974
231007
231024
231044
231060
231148
231996
232002
232063
232151
232272
232409
232572
232758
232969
233188
233416
233637
233827
234029
232088
232099
232182
232282
232418
232564
232727
232903
233093
233288
233485
233680
233844
234019
232146
232200
232310
232432
232579
232726
232877
233029
233182
233335
233489
233648
233793
233943
232233
232311
232444
232580
232733
232878
233016
233143
233263
233376
233486
233603
233715
233842
232308
232418
232566
232717
232873
233013
233133
233234
233318
233391
233462
233538
233625
233726
232404
232530
232687
232842
232996
233126
233229
233304
233356
233394
233428
233472
233530
233611
232503
232644
232803
232958
233105
233223
233309
233361
233386
233395
233401
233420
233458
233524
232620
232765
232920
233067
233203
233307
233375
233408
233411
233398
233384
233385
233405
233461
232747
232892
233039
233174
233295
233384
233438
233457
233444
233420
233393
233384
233394
233440
232890
233028
233164
233282
233387
233462
233503
233512
233491
233462
233429
233416
233422
233459
233044
233172
233293
233393
233483
233546
233576
233580
233561
233534
233501
233491
233500
233536
233205
233325
233432
233517
233592
233642
233664
233669
233653
233633
233605
233600
233613
233647
233377
233483
233570
233644
233708
233752
233770
233779
233768
233755
233734
233737
233756
233799
233594
233657
233740
233803
233855
233889
233902
233916
233912
233912
233904
233920
233944
234029
233516
233523
233561
233620
233708
233817
233948
234101
234275
234461
234658
234874
235078
235326
233669
233670
233721
233784
233877
233985
234114
234261
234428
234608
234799
235002
235189
235406
233796
233821
233886
233959
234057
234166
234287
234420
234566
234722
234888
235067
235238
235437
233952
233994
234072
234151
234251
234357
234470
234589
234715
234848
234989
235141
235287
235459
234103
234166
234252
234340
234441
234542
234643
234744
234847
234953
235066
235187
235316
235462
234270
234346
234438
234528
234626
234718
234805
234887
234966
235046
235132
235226
235332
235454
234436
234526
234619
234710
234801
234882
234952
235015
235071
235126
235189
235259
235347
235449
234611
234707
234798
234883
234965
235031
235085
235128
235162
235196
235236
235288
235358
235444
234789
234888
234972
235049
235118
235170
235207
235232
235249
235266
235289
235325
235382
235457
234970
235067
235142
235206
235261
235300
235321
235331
235334
235339
235349
235374
235421
235483
235151
235242
235307
235358
235400
235426
235434
235432
235426
235423
235425
235444
235482
235537
235330
235416
235470
235509
235538
235550
235547
235539
235525
235520
235518
235535
235568
235615
235509
235578
235624
235654
235674
235678
235670
235659
235640
235631
235628
235646
235677
235727
235703
235754
235789
235809
235817
235812
235799
235785
235765
235756
235759
235779
235815
235871
234864
234871
234885
234905
234947
235010
235095
235196
235318
235455
235605
235775
235944
236168
235022
235016
235031
235050
235087
235146
235226
235325
235447
235588
235745
235921
236088
236285
235161
235159
235180
235201
235239
235296
235372
235466
235580
235711
235859
236025
236186
236377
235330
235332
235355
235376
235412
235466
235537
235626
235733
235858
235998
236153
236303
236477
235497
235504
235529
235553
235589
235639
235705
235786
235885
235998
236126
236266
236407
236565
235674
235689
235714
235737
235770
235816
235874
235946
236034
236134
236249
236374
236504
236645
235848
235872
235896
235919
235949
235988
236038
236100
236176
236262
236364
236472
236593
236719
236022
236052
236074
236095
236120
236152
236192
236243
236305
236377
236465
236558
236669
236781
236193
236225
236245
236264
236283
236307
236337
236376
236425
236483
236557
236636
236737
236839
236358
236392
236407
236422
236435
236450
236471
236498
236534
236580
236642
236710
236801
236893
236517
236550
236560
236571
236579
236585
236596
236614
236639
236674
236724
236783
236863
236949
236669
236701
236704
236711
236712
236710
236711
236720
236736
236762
236804
236856
236930
237007
236814
236836
236838
236839
236836
236829
236825
236829
236839
236860
236892
236940
237004
237082
236954
236974
236968
236964
236954
236942
236932
236930
236935
236949
236977
237017
237081
237153
236239
236239
236236
236235
236242
236259
236294
236344
236410
236491
236587
236700
236813
236963
236362
236348
236341
236335
236337
236352
236385
236436
236505
236593
236697
236818
236941
237081
236468
236453
236446
236438
236439
236455
236489
236539
236608
236696
236798
236920
237040
237183
236594
236579
236569
236560
236559
236573
236607
236657
236726
236815
236919
237040
237160
237298
236720
236703
236693
236684
236683
236698
236732
236783
236852
236940
237042
237160
237278
237412
236855
236837
236826
236817
236816
236830
236863
236913
236981
237066
237167
237280
237396
237523
236988
236972
236960
236951
236950
236964
236995
237043
237110
237191
237290
237397
237513
237632
237120
237107
237093
237084
237083
237096
237125
237170
237234
237311
237406
237506
237621
237734
237248
237240
237225
237215
237214
237224
237251
237292
237352
237423
237513
237606
237718
237825
237370
237367
237350
237341
237337
237345
237368
237405
237460
237525
237610
237697
237807
237907
237488
237487
237470
237459
237454
237459
237479
237511
237561
237620
237700
237781
237884
237980
237598
237601
237580
237570
237561
237564
237580
237607
237651
237703
237776
237853
237952
238045
237706
237703
237683
237672
237662
237663
237676
237701
237740
237791
237856
237928
238019
238114
237802
237803
237779
237767
237756
237754
237764
237784
237817
237860
237918
237983
238071
238162
237528
237514
237499
237480
237465
237456
237455
237461
237478
237506
237546
237594
237650
237720
237604
237585
237565
237544
237528
237520
237520
237529
237552
237588
237635
237693
237755
237833
237669
237646
237625
237605
237592
237586
237589
237604
237632
237672
237724
237789
237854
237936
237744
237719
237697
237678
237666
237660
237667
237686
237718
237764
237821
237891
237962
238048
237820
237792
237771
237753
237743
237740
237751
237775
237812
237862
237924
237999
238074
238163
237903
237874
237853
237835
237826
237827
237841
237868
237909
237963
238029
238106
238187
238278
237989
237960
237938
237922
237913
237917
237935
237964
238008
238065
238135
238214
238300
238390
238076
238049
238026
238011
238003
238010
238029
238062
238109
238167
238240
238320
238411
238501
238165
238141
238118
238103
238097
238104
238125
238159
238208
238267
238343
238423
238517
238604
238254
238234
238209
238195
238189
238198
238219
238254
238304
238364
238442
238522
238620
238706
238343
238326
238301
238287
238283
238291
238313
238348
238398
238458
238537
238616
238716
238799
238430
238418
238391
238378
238374
238383
238405
238438
238488
238546
238623
238702
238801
238885
238518
238507
238481
238469
238465
238474
238495
238528
238577
238637
238713
238791
238887
238972
238600
238593
238566
238557
238553
238562
238582
238614
238659
238713
238783
238856
238948
239033
238512
238481
238454
238423
238395
238370
238348
238329
238315
238305
238302
238303
238309
238315
238567
238532
238501
238470
238443
238419
238401
238386
238377
238373
238374
238383
238397
238413
238614
238577
238546
238515
238491
238470
238456
238447
238443
238446
238454
238470
238489
238512
238668
238628
238597
238568
238545
238528
238517
238513
238514
238524
238540
238565
238590
238624
238724
238684
238654
238626
238605
238592
238585
238586
238593
238610
238633
238665
238697
238738
238786
238745
238716
238690
238672
238662
238659
238664
238679
238703
238733
238772
238811
238858
238852
238813
238785
238762
238747
238740
238740
238750
238771
238801
238838
238881
238928
238979
238923
238888
238860
238839
238827
238821
238825
238842
238867
238902
238946
238994
239048
239101
239000
238970
238942
238923
238913
238909
238916
238937
238966
239005
239053
239104
239165
239219
239083
239057
239027
239011
239002
239000
239011
239034
239067
239108
239161
239214
239281
239337
239169
239148
239118
239105
239096
239096
239109
239133
239168
239211
239265
239319
239391
239446
239259
239243
239213
239200
239191
239194
239209
239234
239270
239314
239370
239424
239499
239556
239353
239340
239312
239301
239292
239295
239311
239336
239373
239419
239476
239532
239607
239665
239450
239435
239412
239401
239393
239397
239414
239439
239475
239520
239574
239630
239701
239765
238982
238948
238916
238886
238859
238835
238812
238791
238772
238754
239203
239149
239106
239063
239025
238991
238961
238934
238910
238888
238869
238853
238836
238825
239253
239197
239153
239110
239072
239039
239011
238987
238966
238949
238933
238922
238912
238905
239308
239251
239207
239164
239126
239095
239070
239048
239031
239017
239007
239001
238996
238995
239369
239312
239267
239225
239188
239160
239137
239119
239107
239099
239093
239092
239092
239096
239438
239381
239336
239295
239261
239234
239214
239201
239193
239190
239190
239194
239199