/*--------------------------------*- C++ -*----------------------------------*\
| =========                 |                                                 |
| \\      /  F ield         | OpenFOAM: The Open Source CFD Toolbox           |
|  \\    /   O peration     | Version:  v2106                                 |
|   \\  /    A nd           | Website:  www.openfoam.com                      |
|    \\/     M anipulation  |                                                 |
\*---------------------------------------------------------------------------*/
FoamFile
{
    version     2.0;
    format      ascii;
    arch        "LSB;label=32;scalar=64";
    class       surfaceScalarField;
    location    "0.000191";
    object      phi;
}
// * * * * * * * * * * * * * * * * * * * * * * * * * * * * * * * * * * * * * //

dimensions      [1 0 -1 0 0 0 0];

internalField   nonuniform List<scalar> 
51992
(
-5.80803e-06
7.45318e-06
-6.07467e-06
7.10804e-06
-8.5904e-06
-4.94784e-06
5.30473e-06
-6.20041e-06
-6.01141e-06
-4.35124e-06
3.56574e-06
-6.5425e-06
-4.02225e-06
-4.07859e-06
2.39609e-06
-6.86203e-06
-2.53941e-06
-3.94844e-06
1.98356e-06
-7.06543e-06
-1.97431e-06
-3.99124e-06
1.87622e-06
-7.12409e-06
-1.69318e-06
-4.20333e-06
1.94668e-06
-7.10851e-06
-1.5977e-06
-4.5728e-06
2.00584e-06
-6.91776e-06
-1.48277e-06
-5.02613e-06
1.73074e-06
-6.49205e-06
-1.07445e-06
-5.58217e-06
9.07768e-07
-5.87624e-06
-9.2056e-08
-6.26238e-06
-4.10171e-07
-5.22018e-06
1.3761e-06
-7.23002e-06
-2.36661e-06
-4.71945e-06
3.62563e-06
-8.54946e-06
-4.66602e-06
-4.44542e-06
6.21338e-06
-7.7944e-06
-4.64266e-06
-9.88717e-06
9.29779e-06
-3.37636e-06
6.34598e-06
-6.08505e-06
4.66999e-06
-2.52806e-06
4.62065e-06
-6.39931e-06
-2.09857e-06
3.28875e-06
-6.64697e-06
-2.01623e-06
2.45019e-06
-6.87743e-06
-2.05474e-06
2.15759e-06
-7.04294e-06
-2.14571e-06
2.09584e-06
-7.10717e-06
-2.30699e-06
2.22911e-06
-7.1213e-06
-2.56541e-06
2.39003e-06
-7.03756e-06
-2.91976e-06
2.2386e-06
-6.80812e-06
-3.42664e-06
1.61877e-06
-6.40867e-06
-4.04273e-06
4.55527e-07
-5.90548e-06
-4.9001e-06
-1.23898e-06
-5.39032e-06
-5.88505e-06
-3.44896e-06
-4.97901e-06
-6.72324e-06
-4.83506e-06
-6.80421e-06
-1.74758e-06
5.53525e-06
-6.34795e-06
2.72143e-06
-1.05425e-06
4.05506e-06
-6.65413e-06
-7.1728e-07
3.07014e-06
-6.82868e-06
-6.79071e-07
2.52558e-06
-6.96144e-06
-7.57635e-07
2.34879e-06
-7.04855e-06
-8.7819e-07
2.32135e-06
-7.08068e-06
-1.01349e-06
2.4644e-06
-7.09021e-06
-1.15525e-06
2.63458e-06
-7.04753e-06
-1.34312e-06
2.54503e-06
-6.92192e-06
-1.63858e-06
2.06923e-06
-6.67548e-06
-2.06964e-06
1.08694e-06
-6.32596e-06
-2.67499e-06
-3.9736e-07
-5.89145e-06
-3.37017e-06
-2.52794e-06
-5.50129e-06
-5.68638e-06
-5.36411e-06
-4.25601e-06
-5.04018e-07
4.97991e-06
-6.64141e-06
1.15364e-06
-1.07993e-07
3.7137e-06
-6.86953e-06
5.05408e-08
2.95863e-06
-6.95737e-06
3.68998e-08
2.59964e-06
-7.01175e-06
-1.85624e-08
2.47851e-06
-7.04256e-06
-1.25969e-07
2.50514e-06
-7.04772e-06
-2.25039e-07
2.64343e-06
-7.04417e-06
-2.83271e-07
2.77806e-06
-7.01548e-06
-3.37802e-07
2.69782e-06
-6.9403e-06
-4.62922e-07
2.31051e-06
-6.79474e-06
-7.19961e-07
1.49274e-06
-6.57838e-06
-1.07302e-06
1.37291e-07
-6.28536e-06
-1.47118e-06
-1.94231e-06
-6.00463e-06
-4.92417e-06
-5.88179e-06
-2.0875e-06
1.97521e-07
4.57305e-06
-6.90106e-06
2.32963e-07
3.90414e-07
3.51369e-06
-7.01215e-06
4.18144e-07
2.91449e-06
-7.02422e-06
3.80219e-07
2.63988e-06
-7.02806e-06
3.24964e-07
2.55838e-06
-7.02287e-06
2.52092e-07
2.6196e-06
-7.01236e-06
1.99592e-07
2.74677e-06
-6.99919e-06
1.92255e-07
2.84672e-06
-6.97292e-06
2.05556e-07
2.75854e-06
-6.91931e-06
1.79486e-07
2.4208e-06
-6.83013e-06
7.57374e-08
1.70205e-06
-6.69342e-06
-9.71224e-08
4.38831e-07
-6.50947e-06
-3.76016e-07
-1.52223e-06
-6.3379e-06
-4.30601e-06
-6.24839e-06
-8.6263e-07
5.03966e-07
4.31419e-06
-7.09623e-06
-2.45813e-07
5.6422e-07
3.42782e-06
-7.09347e-06
5.31512e-07
2.91213e-06
-7.05882e-06
4.82564e-07
2.66729e-06
-7.02899e-06
4.38071e-07
2.60244e-06
-7.00004e-06
4.00505e-07
2.67191e-06
-6.9744e-06
3.79644e-07
2.79008e-06
-6.95318e-06
3.91352e-07
2.86434e-06
-6.92952e-06
4.21598e-07
2.76756e-06
-6.88824e-06
4.36323e-07
2.45707e-06
-6.82679e-06
4.11615e-07
1.79997e-06
-6.74565e-06
3.19607e-07
6.22766e-07
-6.64088e-06
1.52895e-07
-1.24272e-06
-6.53664e-06
-3.92386e-06
-6.41511e-06
-1.02843e-07
4.89931e-07
4.13559e-06
-7.17155e-06
-3.45741e-07
5.25938e-07
3.35211e-06
-7.12152e-06
5.11691e-07
2.88611e-06
-7.06996e-06
4.80306e-07
2.67111e-06
-7.01917e-06
4.41363e-07
2.62693e-06
-6.9763e-06
4.15441e-07
2.69042e-06
-6.9381e-06
4.08628e-07
2.79869e-06
-6.9153e-06
4.28217e-07
2.84759e-06
-6.88663e-06
4.52705e-07
2.75501e-06
-6.85286e-06
4.80231e-07
2.46155e-06
-6.81473e-06
4.81297e-07
1.84782e-06
-6.75852e-06
4.43132e-07
7.25916e-07
-6.68398e-06
4.22073e-07
-1.12754e-06
-6.59682e-06
-3.81898e-06
-6.44077e-06
4.45174e-07
3.58825e-07
3.99324e-06
-7.18022e-06
-2.64925e-07
4.27016e-07
3.24055e-06
-7.12081e-06
4.51896e-07
2.82541e-06
-7.06897e-06
4.37678e-07
2.65179e-06
-7.00793e-06
4.15947e-07
2.62157e-06
-6.95444e-06
4.03949e-07
2.67662e-06
-6.9052e-06
3.97811e-07
2.78582e-06
-6.87696e-06
4.13472e-07
2.81998e-06
-6.84886e-06
4.33441e-07
2.73208e-06
-6.81905e-06
4.51295e-07
2.45523e-06
-6.78971e-06
4.84524e-07
1.8575e-06
-6.76058e-06
5.43284e-07
7.34013e-07
-6.70794e-06
6.43737e-07
-1.12647e-06
-6.60991e-06
-3.78799e-06
-6.37951e-06
7.78283e-07
2.98715e-07
3.9508e-06
-7.14748e-06
-3.081e-07
3.38239e-07
3.16134e-06
-7.0999e-06
3.71458e-07
2.74919e-06
-7.04507e-06
3.89664e-07
2.5996e-06
-6.99492e-06
3.97625e-07
2.58356e-06
-6.93663e-06
4.03111e-07
2.64222e-06
-6.88081e-06
4.00847e-07
2.76656e-06
-6.8472e-06
4.0306e-07
2.80706e-06
-6.81977e-06
4.08589e-07
2.72308e-06
-6.78963e-06
4.30528e-07
2.43918e-06
-6.76291e-06
4.94298e-07
1.82397e-06
-6.73955e-06
6.35516e-07
6.55083e-07
-6.68825e-06
8.85198e-07
-1.26643e-06
-6.54578e-06
-3.85147e-06
-6.17115e-06
1.14778e-06
3.15453e-07
3.99261e-06
-7.08922e-06
-3.99819e-07
3.48658e-07
3.09977e-06
-7.05447e-06
3.73945e-07
2.68426e-06
-7.01867e-06
4.01971e-07
2.54079e-06
-6.97888e-06
4.3269e-07
2.5252e-06
-6.92229e-06
4.54147e-07
2.59643e-06
-6.86429e-06
4.63546e-07
2.73489e-06
-6.82215e-06
4.62066e-07
2.79599e-06
-6.79434e-06
4.57846e-07
2.72041e-06
-6.76066e-06
4.91604e-07
2.40728e-06
-6.73007e-06
6.2251e-07
1.71117e-06
-6.69288e-06
9.06703e-07
4.32551e-07
-6.60598e-06
1.34276e-06
-1.56971e-06
-6.37177e-06
-4.05518e-06
-5.82373e-06
1.77428e-06
6.87876e-07
4.16314e-06
-6.95207e-06
-8.84015e-07
6.35761e-07
3.13398e-06
-6.9644e-06
5.78908e-07
2.71045e-06
-6.96943e-06
5.60788e-07
2.53253e-06
-6.9492e-06
5.71301e-07
2.4927e-06
-6.91119e-06
5.90204e-07
2.55404e-06
-6.8579e-06
6.16371e-07
2.68066e-06
-6.81084e-06
6.31645e-07
2.75811e-06
-6.77844e-06
6.45532e-07
2.69367e-06
-6.73759e-06
7.3574e-07
2.32084e-06
-6.69548e-06
9.86213e-07
1.48549e-06
-6.61865e-06
1.457e-06
4.42452e-08
-6.44974e-06
2.11204e-06
-2.06806e-06
-6.09004e-06
-4.49824e-06
-5.41507e-06
2.79204e-06
1.60254e-06
4.70885e-06
-6.75596e-06
-2.14692e-06
1.28027e-06
3.44979e-06
-6.83084e-06
1.02513e-06
2.94114e-06
-6.89003e-06
9.20854e-07
2.60854e-06
-6.90157e-06
8.84761e-07
2.50687e-06
-6.88746e-06
8.95125e-07
2.51779e-06
-6.85093e-06
9.43841e-07
2.6005e-06
-6.80846e-06
1.00356e-06
2.66935e-06
-6.76827e-06
1.07495e-06
2.60685e-06
-6.7091e-06
1.25603e-06
2.14759e-06
-6.62764e-06
1.64915e-06
1.13793e-06
-6.4813e-06
2.36163e-06
-5.50069e-07
-6.19788e-06
3.33949e-06
-2.87217e-06
-5.73984e-06
-5.31843e-06
-5.07189e-06
4.39729e-06
3.12162e-06
5.645e-06
-6.53327e-06
-4.02423e-06
2.38794e-06
4.19672e-06
-6.70458e-06
1.85237e-06
3.46456e-06
-6.80075e-06
1.6023e-06
2.83887e-06
-6.8507e-06
1.52092e-06
2.57942e-06
-6.8687e-06
1.50639e-06
2.52541e-06
-6.85195e-06
1.58438e-06
2.50942e-06
-6.81638e-06
1.71655e-06
2.51781e-06
-6.75699e-06
1.88023e-06
2.43614e-06
-6.66128e-06
2.16852e-06
1.88538e-06
-6.53097e-06
2.62452e-06
7.51886e-07
-6.29619e-06
3.43964e-06
-1.23346e-06
-5.89629e-06
4.61656e-06
-3.88079e-06
-5.39472e-06
-6.70333e-06
-4.82782e-06
6.19867e-06
5.07803e-06
-6.51724e-06
6.8562e-06
-6.24088e-06
3.99697e-06
-6.50892e-06
5.32011e-06
3.28713e-06
-6.62045e-06
4.20329e-06
2.89839e-06
-6.72975e-06
3.24226e-06
2.72297e-06
-6.80749e-06
2.76494e-06
2.70708e-06
-6.83001e-06
2.54734e-06
2.80588e-06
-6.81954e-06
2.40512e-06
3.04533e-06
-6.77107e-06
2.26063e-06
3.40975e-06
-6.66112e-06
2.06501e-06
3.96898e-06
-6.48436e-06
1.35105e-06
4.68323e-06
-6.14835e-06
1.05249e-07
5.74574e-06
-5.66131e-06
-2.19363e-06
6.97781e-06
-5.1183e-06
-4.99627e-06
-4.91482e-06
8.74213e-06
-8.32111e-06
-3.66025e-06
6.7285e-06
-6.54224e-06
4.90212e-06
-7.46954e-06
-2.91923e-06
5.05651e-06
-6.59015e-06
-5.37261e-06
-2.56025e-06
3.80188e-06
-6.75787e-06
-3.90111e-06
-2.56722e-06
2.98586e-06
-6.93441e-06
-2.85072e-06
-2.73435e-06
2.73851e-06
-7.06355e-06
-2.50629e-06
-3.04557e-06
2.65459e-06
-7.10492e-06
-2.29897e-06
-3.45974e-06
2.84576e-06
-7.07777e-06
-2.40673e-06
-4.00546e-06
2.92982e-06
-6.94152e-06
-2.31608e-06
-4.54163e-06
2.70185e-06
-6.68844e-06
-1.93999e-06
-5.06182e-06
2.03881e-06
-6.35484e-06
-1.02371e-06
-5.55183e-06
9.394e-07
-5.97585e-06
3.11359e-07
-6.29825e-06
-7.72484e-07
-5.62074e-06
2.41955e-06
-7.36668e-06
-2.80776e-06
-5.31693e-06
4.73963e-06
-5.65434e-06
-5.27992e-06
-8.54568e-06
7.4615e-06
-1.84663e-06
6.02648e-06
-6.56569e-06
3.0568e-06
-1.19438e-06
4.73063e-06
-6.68874e-06
-9.72686e-07
3.77733e-06
-6.79748e-06
-1.09331e-06
3.19933e-06
-6.91279e-06
-1.31541e-06
2.99414e-06
-7.01183e-06
-1.61809e-06
2.95644e-06
-7.04562e-06
-1.93651e-06
3.13781e-06
-7.04285e-06
-2.31469e-06
3.28641e-06
-6.97591e-06
-2.73456e-06
3.17213e-06
-6.83316e-06
-3.21636e-06
2.73037e-06
-6.60689e-06
-3.66736e-06
1.83683e-06
-6.35115e-06
-4.22104e-06
4.50838e-07
-6.06416e-06
-4.83221e-06
-1.45804e-06
-5.72664e-06
-4.37137e-06
-5.40067e-06
-5.55796e-06
-6.80945e-07
5.45758e-06
-6.662e-06
1.58614e-06
-1.91701e-07
4.40099e-06
-6.78692e-06
-6.66004e-08
3.72256e-06
-6.86154e-06
-2.03739e-07
3.34749e-06
-6.92332e-06
-4.19524e-07
3.19099e-06
-6.97586e-06
-6.92017e-07
3.18398e-06
-6.98437e-06
-9.39335e-07
3.32159e-06
-6.98188e-06
-1.17047e-06
3.45049e-06
-6.94582e-06
-1.42606e-06
3.39686e-06
-6.86867e-06
-1.72903e-06
3.09145e-06
-6.72535e-06
-2.06811e-06
2.39095e-06
-6.54272e-06
-2.45459e-06
1.24078e-06
-6.30166e-06
-2.86511e-06
-5.30497e-07
-6.02907e-06
-3.31375e-06
-5.80465e-06
-3.49472e-06
1.65162e-07
5.02912e-06
-6.74641e-06
3.82333e-07
3.86835e-07
4.18786e-06
-6.86248e-06
3.79559e-07
3.68969e-06
-6.89561e-06
2.30538e-07
3.43424e-06
-6.91961e-06
3.99352e-08
3.31212e-06
-6.93806e-06
-1.7083e-07
3.31358e-06
-6.93083e-06
-3.4024e-07
3.40371e-06
-6.92378e-06
-4.67423e-07
3.48757e-06
-6.89929e-06
-5.9469e-07
3.45163e-06
-6.85189e-06
-7.39135e-07
3.20619e-06
-6.76315e-06
-9.25552e-07
2.64022e-06
-6.64816e-06
-1.12215e-06
1.63104e-06
-6.49139e-06
-1.30527e-06
-4.31734e-08
-6.32307e-06
-2.64585e-06
-6.19256e-06
-1.67686e-06
6.05201e-07
4.63889e-06
-6.83599e-06
-2.85184e-07
6.48229e-07
4.01521e-06
-6.88672e-06
5.46912e-07
3.64996e-06
-6.88246e-06
3.98689e-07
3.45069e-06
-6.88837e-06
2.39101e-07
3.35749e-06
-6.89464e-06
8.93778e-08
3.35352e-06
-6.88398e-06
-1.40755e-08
3.39981e-06
-6.874e-06
-8.0252e-08
3.44333e-06
-6.85107e-06
-1.30711e-07
3.39987e-06
-6.81515e-06
-1.84571e-07
3.18117e-06
-6.76063e-06
-2.46278e-07
2.68427e-06
-6.69149e-06
-3.10473e-07
1.77006e-06
-6.60317e-06
-4.17053e-07
2.27252e-07
-6.52085e-06
-2.18145e-06
-6.46011e-06
-6.85673e-07
6.4251e-07
4.24442e-06
-6.88989e-06
-4.59063e-07
6.57489e-07
3.78135e-06
-6.87867e-06
5.61505e-07
3.54461e-06
-6.8587e-06
4.15597e-07
3.41711e-06
-6.84719e-06
2.74386e-07
3.35238e-06
-6.84831e-06
1.68215e-07
3.33028e-06
-6.83812e-06
1.18669e-07
3.32672e-06
-6.8271e-06
9.52657e-08
3.34049e-06
-6.80567e-06
7.99725e-08
3.29113e-06
-6.7759e-06
4.96602e-08
3.10137e-06
-6.73691e-06
7.62272e-09
2.65108e-06
-6.69676e-06
-2.00862e-08
1.77875e-06
-6.64966e-06
-5.77886e-08
3.23175e-07
-6.61863e-06
-1.97921e-06
-6.5672e-06
-1.24637e-07
4.72309e-07
3.87142e-06
-6.90402e-06
-3.66042e-07
5.08686e-07
3.48707e-06
-6.86674e-06
4.61315e-07
3.35708e-06
-6.83355e-06
3.59142e-07
3.31706e-06
-6.81371e-06
2.59323e-07
3.29164e-06
-6.8125e-06
1.89598e-07
3.26435e-06
-6.80279e-06
1.61867e-07
3.22559e-06
-6.79349e-06
1.44298e-07
3.22597e-06
-6.77031e-06
1.29502e-07
3.17336e-06
-6.74386e-06
1.08025e-07
2.99092e-06
-6.71405e-06
8.22536e-08
2.57055e-06
-6.68832e-06
5.99102e-08
1.74071e-06
-6.66045e-06
9.86501e-08
2.95672e-07
-6.64218e-06
-1.99969e-06
-6.58819e-06
2.40411e-07
2.56768e-07
3.55532e-06
-6.91572e-06
-1.98268e-07
3.14652e-07
3.17844e-06
-6.86626e-06
3.26149e-07
3.09421e-06
-6.8127e-06
2.9476e-07
3.12224e-06
-6.778e-06
2.42278e-07
3.16215e-06
-6.77285e-06
1.96924e-07
3.1627e-06
-6.7662e-06
1.66276e-07
3.12238e-06
-6.75959e-06
1.31406e-07
3.12223e-06
-6.73677e-06
9.26824e-08
3.07087e-06
-6.71256e-06
5.41466e-08
2.88449e-06
-6.68615e-06
3.37435e-08
2.45785e-06
-6.67026e-06
5.32862e-08
1.62394e-06
-6.65403e-06
1.6993e-07
1.61932e-07
-6.63226e-06
-2.14383e-06
-6.55104e-06
4.54849e-07
1.1676e-07
3.32335e-06
-6.91036e-06
-1.07754e-07
1.72401e-07
2.89488e-06
-6.85898e-06
2.18698e-07
2.80476e-06
-6.79396e-06
2.40214e-07
2.862e-06
-6.75253e-06
2.42536e-07
2.96016e-06
-6.74131e-06
2.26142e-07
3.02156e-06
-6.73853e-06
1.84837e-07
3.02489e-06
-6.73398e-06
1.22358e-07
3.043e-06
-6.71221e-06
4.95197e-08
3.00019e-06
-6.68807e-06
-1.47015e-08
2.8001e-06
-6.66305e-06
-4.01487e-08
2.33888e-06
-6.6462e-06
2.27133e-08
1.45228e-06
-6.63058e-06
2.64697e-07
-8.7951e-08
-6.58605e-06
-2.35868e-06
-6.43608e-06
7.06433e-07
1.97601e-07
3.18351e-06
-6.88563e-06
-2.43539e-07
2.14243e-07
2.69023e-06
-6.8479e-06
2.3273e-07
2.56088e-06
-6.78348e-06
2.57298e-07
2.59468e-06
-6.73732e-06
2.81718e-07
2.72e-06
-6.71831e-06
2.79181e-07
2.85503e-06
-6.71808e-06
2.3025e-07
2.93231e-06
-6.71303e-06
1.43469e-07
2.98667e-06
-6.69176e-06
4.81053e-08
2.95193e-06
-6.66425e-06
-2.57791e-08
2.72696e-06
-6.63688e-06
-2.51632e-08
2.19736e-06
-6.60959e-06
1.43794e-07
1.19448e-06
-6.57546e-06
5.50397e-07
-4.40365e-07
-6.47981e-06
-2.61941e-06
-6.25524e-06
1.201e-06
4.95523e-07
3.18493e-06
-6.809e-06
-6.21352e-07
4.51635e-07
2.59212e-06
-6.80508e-06
4.24347e-07
2.38849e-06
-6.76319e-06
3.92685e-07
2.40333e-06
-6.73349e-06
3.80584e-07
2.51642e-06
-6.71331e-06
3.71637e-07
2.69049e-06
-6.71245e-06
3.24654e-07
2.83667e-06
-6.70343e-06
2.38676e-07
2.92863e-06
-6.67952e-06
1.41515e-07
2.90351e-06
-6.64609e-06
8.65429e-08
2.63708e-06
-6.61155e-06
1.72033e-07
1.99622e-06
-6.5673e-06
4.96735e-07
8.45333e-07
-6.48858e-06
1.1031e-06
-8.54676e-07
-6.33894e-06
-2.97213e-06
-6.0484e-06
2.04707e-06
1.22893e-06
3.52847e-06
-6.69574e-06
-1.61585e-06
9.76216e-07
2.77235e-06
-6.74644e-06
7.82174e-07
2.43949e-06
-6.74481e-06
6.81188e-07
2.31737e-06
-6.7278e-06
6.0652e-07
2.39166e-06
-6.7056e-06
5.65304e-07
2.55962e-06
-6.7029e-06
5.16394e-07
2.74004e-06
-6.69407e-06
4.48507e-07
2.85488e-06
-6.66962e-06
3.70948e-07
2.84303e-06
-6.62625e-06
3.6585e-07
2.5215e-06
-6.57126e-06
5.67435e-07
1.73769e-06
-6.48898e-06
1.12292e-06
3.86615e-07
-6.3541e-06
2.08202e-06
-1.42742e-06
-6.17989e-06
-3.64132e-06
-5.84467e-06
3.4823e-06
2.39178e-06
4.24699e-06
-6.56175e-06
-3.06572e-06
1.8334e-06
3.28718e-06
-6.65012e-06
1.39368e-06
2.78521e-06
-6.70627e-06
1.16615e-06
2.4094e-06
-6.72642e-06
1.03041e-06
2.36924e-06
-6.72444e-06
9.39117e-07
2.49632e-06
-6.71425e-06
8.78336e-07
2.65521e-06
-6.69254e-06
8.50078e-07
2.74974e-06
-6.65365e-06
8.35791e-07
2.74861e-06
-6.59527e-06
9.18749e-07
2.37794e-06
-6.52328e-06
1.19575e-06
1.50782e-06
-6.40028e-06
1.91841e-06
-6.59365e-08
-6.22015e-06
3.17214e-06
-2.11309e-06
-6.01018e-06
-4.70146e-06
-5.65856e-06
5.02319e-06
3.82133e-06
-6.56837e-06
5.18827e-06
-4.69751e-06
3.04526e-06
-6.54921e-06
4.11118e-06
2.44183e-06
-6.58213e-06
3.35271e-06
2.05021e-06
-6.62905e-06
2.69281e-06
1.82572e-06
-6.65767e-06
2.43448e-06
1.70352e-06
-6.67522e-06
2.45287e-06
1.64439e-06
-6.66689e-06
2.54645e-06
1.68167e-06
-6.63753e-06
2.5591e-06
1.81244e-06
-6.59313e-06
2.51876e-06
2.10937e-06
-6.51179e-06
2.06914e-06
2.6286e-06
-6.32965e-06
1.12552e-06
3.63485e-06
-6.05901e-06
-7.18832e-07
5.06902e-06
-5.72987e-06
-2.97623e-06
-5.62837e-06
6.96595e-06
-5.91799e-06
-5.53685e-07
6.56215e-06
1.54382e-06
-7.41152e-06
-6.60388e-06
3.61539e-08
5.66625e-06
-6.18001e-06
-6.58178e-06
1.98608e-07
4.99312e-06
-5.22794e-06
-6.59789e-06
6.7996e-09
4.5668e-06
-4.60441e-06
-6.61528e-06
-3.88078e-07
4.43123e-06
-4.37806e-06
-6.63658e-06
-9.43613e-07
4.46695e-06
-4.32846e-06
-6.60701e-06
-1.58582e-06
4.68476e-06
-4.47035e-06
-6.57797e-06
-2.27015e-06
4.87983e-06
-4.5415e-06
-6.53625e-06
-2.88218e-06
4.97279e-06
-4.50839e-06
-6.49324e-06
-3.50582e-06
4.7372e-06
-4.02683e-06
-6.40465e-06
-4.17118e-06
4.22419e-06
-3.2419e-06
-6.26441e-06
-5.06865e-06
3.17965e-06
-1.76236e-06
-6.11618e-06
-6.33131e-06
1.87516e-06
5.78796e-08
-5.96338e-06
-2.21331e-07
-7.61366e-06
2.15691e-06
-5.90526e-06
3.96514e-07
5.75015e-06
5.03767e-07
-6.60038e-06
8.59679e-07
5.1728e-06
-6.59255e-06
9.26813e-07
4.78882e-06
-6.58908e-06
7.17194e-07
4.52015e-06
-6.5795e-06
3.40102e-07
4.44128e-06
-6.57039e-06
-1.43035e-07
4.51299e-06
-6.53758e-06
-6.82071e-07
4.75397e-06
-6.50859e-06
-1.25742e-06
5.00573e-06
-6.47307e-06
-1.79475e-06
5.16894e-06
-6.45078e-06
-2.35019e-06
5.1154e-06
-6.40066e-06
-2.9292e-06
4.79774e-06
-6.32634e-06
-3.66e-06
4.10242e-06
-6.24365e-06
-4.49483e-06
3.10746e-06
-6.11074e-06
1.14827e-06
-5.34379e-06
-5.90365e-06
1.00505e-06
5.15113e-06
-4.27319e-07
-6.59927e-06
1.27585e-06
4.76205e-06
-6.60029e-06
1.26836e-06
4.55118e-06
-6.56487e-06
1.04428e-06
4.41049e-06
-6.53102e-06
6.77429e-07
4.39878e-06
-6.50794e-06
2.47982e-07
4.49193e-06
-6.47658e-06
-2.00613e-07
4.72238e-06
-6.44857e-06
-6.53e-07
4.97751e-06
-6.42167e-06
-1.08007e-06
5.17509e-06
-6.41664e-06
-1.504e-06
5.2227e-06
-6.39093e-06
-1.93323e-06
5.03505e-06
-6.34244e-06
-2.42733e-06
4.57083e-06
-6.27426e-06
-2.87913e-06
3.71559e-06
-6.18345e-06
1.96252e-06
-3.45763e-06
-6.03744e-06
1.43829e-06
4.70786e-06
-1.14139e-06
-6.5814e-06
1.48541e-06
4.43932e-06
-6.56351e-06
1.38569e-06
4.30655e-06
-6.51961e-06
1.1303e-06
4.26993e-06
-6.48281e-06
7.9144e-07
4.29895e-06
-6.45522e-06
4.24771e-07
4.39769e-06
-6.42543e-06
6.61506e-08
4.59942e-06
-6.40126e-06
-2.71579e-07
4.82843e-06
-6.38049e-06
-5.74374e-07
5.02283e-06
-6.37749e-06
-8.53563e-07
5.10116e-06
-6.35731e-06
-1.12481e-06
4.98179e-06
-6.32907e-06
-1.40382e-06
4.63026e-06
-6.28311e-06
-1.63527e-06
3.85232e-06
-6.23905e-06
2.25907e-06
-1.9722e-06
-6.16004e-06
1.67302e-06
4.34697e-06
-1.59295e-06
-6.54665e-06
1.59653e-06
4.15371e-06
-6.5109e-06
1.40461e-06
4.111e-06
-6.47387e-06
1.11448e-06
4.14056e-06
-6.43769e-06
7.88583e-07
4.17664e-06
-6.41136e-06
4.67249e-07
4.25282e-06
-6.38205e-06
1.78472e-07
4.40686e-06
-6.36224e-06
-6.06733e-08
4.58383e-06
-6.34812e-06
-2.52548e-07
4.75241e-06
-6.3469e-06
-4.1732e-07
4.83021e-06
-6.3327e-06
-5.83619e-07
4.76038e-06
-6.31999e-06
-7.55832e-07
4.46944e-06
-6.29109e-06
-9.19633e-07
3.74681e-06
-6.27076e-06
2.29062e-06
-1.18502e-06
-6.2414e-06
1.72867e-06
3.99175e-06
-1.74937e-06
-6.50161e-06
1.57032e-06
3.9065e-06
-6.45894e-06
1.33354e-06
3.93613e-06
-6.42652e-06
1.04906e-06
3.99487e-06
-6.39029e-06
7.48024e-07
4.02702e-06
-6.36793e-06
4.65278e-07
4.06799e-06
-6.34211e-06
2.21978e-07
4.17207e-06
-6.32742e-06
3.81498e-08
4.28861e-06
-6.31747e-06
-9.58674e-08
4.42196e-06
-6.31602e-06
-2.00592e-07
4.48433e-06
-6.30451e-06
-3.03557e-07
4.43718e-06
-6.29661e-06
-4.17654e-07
4.18311e-06
-6.28024e-06
-5.64663e-07
3.52275e-06
-6.27626e-06
2.15075e-06
-7.66554e-07
-6.25126e-06
1.62414e-06
3.62542e-06
-1.68459e-06
-6.45721e-06
1.45509e-06
3.64022e-06
-6.41264e-06
1.23886e-06
3.72258e-06
-6.38219e-06
9.94561e-07
3.79877e-06
-6.35069e-06
7.32723e-07
3.8346e-06
-6.33507e-06
4.71486e-07
3.85736e-06
-6.31308e-06
2.32094e-07
3.92903e-06
-6.30189e-06
4.55954e-08
3.9939e-06
-6.29183e-06
-9.39242e-08
4.08898e-06
-6.28726e-06
-2.02135e-07
4.12504e-06
-6.27581e-06
-2.9362e-07
4.07179e-06
-6.26742e-06
-3.79822e-07
3.81989e-06
-6.2523e-06
-4.78182e-07
3.19074e-06
-6.25174e-06
1.85775e-06
-5.76241e-07
-6.23584e-06
1.48836e-06
3.25704e-06
-1.56695e-06
-6.43889e-06
1.34573e-06
3.32313e-06
-6.37977e-06
1.18695e-06
3.43537e-06
-6.34222e-06
9.95617e-07
3.54256e-06
-6.31018e-06
7.58267e-07
3.61318e-06
-6.29883e-06
4.97202e-07
3.6399e-06
-6.28112e-06
2.34851e-07
3.70014e-06
-6.27249e-06
3.64471e-09
3.73198e-06
-6.26062e-06
-1.84971e-07
3.78771e-06
-6.25133e-06
-3.36867e-07
3.78847e-06
-6.23642e-06
-4.50531e-07
3.69499e-06
-6.22527e-06
-5.36934e-07
3.40884e-06
-6.20787e-06
-5.92564e-07
2.76556e-06
-6.20318e-06
1.42871e-06
-5.77431e-07
-6.18809e-06
1.3784e-06
2.8952e-06
-1.46917e-06
-6.42187e-06
1.27058e-06
2.95694e-06
-6.35323e-06
1.16752e-06
3.07849e-06
-6.30903e-06
1.02438e-06
3.22616e-06
-6.27692e-06
8.10398e-07
3.3562e-06
-6.26391e-06
5.37604e-07
3.4177e-06
-6.24921e-06
2.33613e-07
3.49244e-06
-6.24081e-06
-6.88616e-08
3.51877e-06
-6.22825e-06
-3.35963e-07
3.54217e-06
-6.21768e-06
-5.50297e-07
3.49387e-06
-6.20356e-06
-6.95293e-07
3.32879e-06
-6.1898e-06
-7.77045e-07
2.97277e-06
-6.17254e-06
-7.72974e-07
2.27712e-06
-6.16401e-06
9.13662e-07
-6.10276e-07
-6.14622e-06
1.39336e-06
2.58767e-06
-1.51836e-06
-6.41496e-06
1.28005e-06
2.58861e-06
-6.33368e-06
1.18567e-06
2.69308e-06
-6.28032e-06
1.05183e-06
2.88199e-06
-6.24791e-06
8.43776e-07
3.07645e-06
-6.23203e-06
5.49984e-07
3.1955e-06
-6.21779e-06
2.01315e-07
3.30778e-06
-6.21007e-06
-1.70384e-07
3.35375e-06
-6.19854e-06
-5.11964e-07
3.35331e-06
-6.18784e-06
-7.75844e-07
3.23929e-06
-6.17831e-06
-9.31091e-07
2.97116e-06
-6.16028e-06
-9.62542e-07
2.50524e-06
-6.14274e-06
-8.27506e-07
1.72074e-06
-6.12662e-06
2.92834e-07
-4.32557e-07
-6.09823e-06
1.53516e-06
2.40428e-06
-1.72207e-06
-6.40184e-06
1.37656e-06
2.28512e-06
-6.31337e-06
1.24497e-06
2.33312e-06
-6.25265e-06
1.08027e-06
2.53692e-06
-6.21871e-06
8.45619e-07
2.78434e-06
-6.1948e-06
5.16695e-07
2.97376e-06
-6.18391e-06
1.31186e-07
3.13199e-06
-6.17927e-06
-2.77704e-07
3.20699e-06
-6.17467e-06
-6.5186e-07
3.18909e-06
-6.16879e-06
-9.27341e-07
3.00061e-06
-6.16379e-06
-1.05465e-06
2.60783e-06
-6.1455e-06
-9.72336e-07
1.9926e-06
-6.1272e-06
-6.39584e-07
1.07947e-06
-6.0987e-06
-4.05741e-07
-2.60324e-08
-6.03118e-06
1.86336e-06
2.50816e-06
-2.23548e-06
-6.39106e-06
1.53885e-06
2.18329e-06
-6.29252e-06
1.27116e-06
2.09926e-06
-6.22781e-06
1.04831e-06
2.22068e-06
-6.1882e-06
7.9885e-07
2.47215e-06
-6.15712e-06
4.6322e-07
2.72894e-06
-6.14836e-06
7.68497e-08
2.93248e-06
-6.14669e-06
-3.26746e-07
3.03986e-06
-6.14943e-06
-6.91299e-07
3.01778e-06
-6.15111e-06
-9.40106e-07
2.76438e-06
-6.15178e-06
-9.84374e-07
2.23027e-06
-6.13437e-06
-6.9326e-07
1.38109e-06
-6.09807e-06
-6.13852e-08
2.62592e-07
-6.05544e-06
-1.31066e-06
8.7331e-07
-5.93244e-06
2.39089e-06
2.96934e-06
-3.01978e-06
-6.35845e-06
1.88284e-06
2.34441e-06
-6.27467e-06
1.47992e-06
2.02754e-06
-6.21243e-06
1.14006e-06
1.99353e-06
-6.15607e-06
8.06719e-07
2.18863e-06
-6.11908e-06
4.49411e-07
2.46187e-06
-6.113e-06
7.51584e-08
2.69593e-06
-6.1148e-06
-2.87423e-07
2.83253e-06
-6.12488e-06
-5.82647e-07
2.80285e-06
-6.13518e-06
-7.72937e-07
2.51402e-06
-6.13836e-06
-7.77668e-07
1.89539e-06
-6.11967e-06
-4.04006e-07
7.98503e-07
-6.06679e-06
4.82946e-07
-6.88257e-07
-5.99743e-06
-2.53665e-06
1.84309e-06
-5.84055e-06
3.15843e-06
3.62299e-06
-4.01627e-06
-6.32848e-06
2.41404e-06
2.83143e-06
-6.26218e-06
1.81238e-06
2.23704e-06
-6.16549e-06
1.36345e-06
1.92994e-06
-6.10524e-06
9.60819e-07
2.0053e-06
-6.07266e-06
5.87468e-07
2.22339e-06
-6.07391e-06
2.38796e-07
2.44182e-06
-6.08075e-06
-4.32298e-08
2.54914e-06
-6.09686e-06
-2.15181e-07
2.45821e-06
-6.11016e-06
-2.98477e-07
2.14605e-06
-6.10193e-06
-1.61028e-07
1.43218e-06
-6.04972e-06
4.64841e-07
2.53822e-08
-5.95648e-06
1.62686e-06
-1.76362e-06
-5.85906e-06
3.14908e-06
-3.86455e-06
-5.8562e-06
-8.9324e-06
-1.1398e-05
-2.95469e-06
1.04744e-05
-7.58608e-06
-1.35468e-05
-3.3597e-06
1.22078e-05
-5.92691e-06
-1.5227e-05
-3.5974e-06
1.35318e-05
-4.03273e-06
-1.65306e-05
-3.85744e-06
1.4473e-05
-2.08423e-06
-1.70369e-05
-4.16654e-06
1.48282e-05
-1.73832e-05
-4.60248e-06
1.50378e-05
-7.08167e-06
-1.10689e-05
-3.75877e-06
-6.36519e-06
-1.42433e-05
-4.2301e-06
-4.98169e-06
-1.66442e-05
-4.45971e-06
-3.31535e-06
-1.83431e-05
-4.781e-06
-1.68796e-06
-1.89345e-05
-5.10691e-06
-1.92998e-05
-5.65413e-06
-4.88601e-06
-1.03391e-05
-4.97129e-06
-4.63033e-06
-1.4437e-05
-5.34877e-06
-3.71696e-06
-1.75359e-05
-5.37886e-06
-2.4405e-06
-1.9715e-05
-5.52416e-06
-1.28623e-06
-2.03646e-05
-5.68384e-06
-2.0775e-05
-6.20356e-06
-2.60806e-06
-9.67378e-06
-6.0359e-06
-2.70401e-06
-1.42231e-05
-6.25683e-06
-2.34068e-06
-1.78263e-05
-6.0882e-06
-1.57051e-06
-2.04868e-05
-6.02944e-06
-8.79144e-07
-2.1305e-05
-5.96226e-06
-2.1859e-05
-6.42432e-06
-1.15101e-06
-9.21464e-06
-6.90839e-06
-1.15358e-06
-1.40423e-05
-7.00454e-06
-9.48349e-07
-1.78931e-05
-6.60062e-06
-5.62167e-07
-2.07873e-05
-6.26874e-06
-3.25717e-07
-2.17663e-05
-5.9766e-06
-2.23769e-05
-6.37475e-06
-1.3859e-07
-8.97499e-06
-7.37594e-06
-1.00141e-07
-1.38166e-05
-7.24842e-06
-5.99454e-08
-1.7715e-05
-6.52472e-06
5.68476e-08
-2.07675e-05
-5.93216e-06
4.90902e-08
-2.19345e-05
-5.5605e-06
-2.24809e-05
-5.93027e-06
5.16572e-07
-8.79167e-06
-7.44041e-06
4.70366e-07
-1.34318e-05
-6.95341e-06
4.31149e-07
-1.74147e-05
-5.93241e-06
4.04735e-07
-2.05622e-05
-5.23638e-06
2.33008e-07
-2.18721e-05
-4.86145e-06
-2.23504e-05
-5.18877e-06
8.4181e-07
-8.54218e-06
-7.10826e-06
6.92925e-07
-1.29116e-05
-6.28207e-06
5.13426e-07
-1.69733e-05
-5.13005e-06
3.68258e-07
-2.02506e-05
-4.47382e-06
1.6545e-07
-2.17335e-05
-4.13934e-06
-2.22481e-05
-4.41483e-06
1.25112e-06
-8.30858e-06
-6.43261e-06
1.17713e-06
-1.24794e-05
-5.45999e-06
1.03628e-06
-1.65959e-05
-4.41119e-06
7.95182e-07
-1.98838e-05
-3.95312e-06
4.16904e-07
-2.14622e-05
-3.74815e-06
-2.19509e-05
-4.07251e-06
2.06999e-06
-8.28697e-06
-5.58124e-06
2.11997e-06
-1.22181e-05
-4.71668e-06
1.95217e-06
-1.62484e-05
-3.95155e-06
1.50118e-06
-1.94014e-05
-3.77602e-06
7.79011e-07
-2.09292e-05
-3.80385e-06
-2.13454e-05
-4.24927e-06
3.36246e-06
-8.58731e-06
-4.75057e-06
3.46102e-06
-1.21016e-05
-4.18912e-06
3.08479e-06
-1.57891e-05
-3.84129e-06
2.29123e-06
-1.86614e-05
-3.91934e-06
1.14371e-06
-2.00486e-05
-4.04376e-06
-2.04269e-05
-4.51715e-06
5.07805e-06
-9.07295e-06
-4.0915e-06
5.05417e-06
-1.19523e-05
-3.90417e-06
4.33743e-06
-1.5063e-05
-3.90768e-06
3.14389e-06
-1.76128e-05
-4.1174e-06
1.56032e-06
-1.87829e-05
-4.2377e-06
-1.91774e-05
-4.63798e-06
6.85852e-06
-9.62203e-06
-3.53386e-06
6.6427e-06
-1.16859e-05
-3.68136e-06
5.68275e-06
-1.41483e-05
-3.91631e-06
4.09072e-06
-1.61974e-05
-4.20024e-06
2.09353e-06
-1.71089e-05
-4.34258e-06
-1.74361e-05
-4.68937e-06
8.53322e-06
-2.84197e-06
-9.36922e-06
8.14114e-06
-3.24404e-06
-1.13145e-05
7.03459e-06
-3.60269e-06
-1.31361e-05
5.06521e-06
-3.96294e-06
-1.44222e-05
2.59155e-06
-4.19304e-06
-1.49416e-05
-4.55376e-06
-1.51746e-05
-7.82948e-06
-9.41706e-06
-3.14706e-06
8.88237e-06
-6.64482e-06
-1.19297e-05
-3.44276e-06
1.08151e-05
-5.1323e-06
-1.43215e-05
-3.52721e-06
1.2726e-05
-3.25983e-06
-1.63218e-05
-3.67654e-06
1.42565e-05
-1.62885e-06
-1.70478e-05
-3.61435e-06
1.48494e-05
-1.7657e-05
-3.84083e-06
1.52415e-05
-5.98383e-06
-8.70909e-06
-4.05278e-06
-5.45591e-06
-1.23309e-05
-4.36922e-06
-4.24183e-06
-1.55711e-05
-4.43883e-06
-2.62122e-06
-1.81179e-05
-4.61236e-06
-1.21353e-06
-1.89995e-05
-4.57908e-06
-1.97288e-05
-4.8179e-06
-4.05598e-06
-7.83334e-06
-5.29935e-06
-3.8331e-06
-1.23189e-05
-5.59376e-06
-2.8987e-06
-1.63692e-05
-5.52418e-06
-1.70807e-06
-1.94269e-05
-5.40279e-06
-6.78792e-07
-2.05131e-05
-5.2094e-06
-2.12909e-05
-5.29096e-06
-2.02254e-06
-7.14605e-06
-6.39263e-06
-1.922e-06
-1.20506e-05
-6.63527e-06
-1.35061e-06
-1.65992e-05
-6.43207e-06
-7.12783e-07
-2.00859e-05
-6.00591e-06
-1.12807e-07
-2.14819e-05
-5.60329e-06
-2.23701e-05
-5.42747e-06
-7.64682e-07
-6.73226e-06
-7.26018e-06
-4.41903e-07
-1.19123e-05
-7.47721e-06
1.25929e-07
-1.66519e-05
-7.11816e-06
4.68643e-07
-2.03058e-05
-6.39812e-06
5.97416e-07
-2.18326e-05
-5.73876e-06
-2.29199e-05
-5.16109e-06
9.46312e-08
-6.59605e-06
-7.74531e-06
6.25622e-07
-1.18151e-05
-7.88073e-06
1.15714e-06
-1.64295e-05
-7.26787e-06
1.21714e-06
-2.00913e-05
-6.18198e-06
9.86979e-07
-2.17527e-05
-5.36089e-06
-2.28337e-05
-4.93651e-06
6.77895e-07
-6.59355e-06
-7.89868e-06
1.26173e-06
-1.15177e-05
-7.83575e-06
1.77713e-06
-1.59051e-05
-6.9487e-06
1.63809e-06
-1.95186e-05
-5.61786e-06
1.15964e-06
-2.13113e-05
-4.74069e-06
-2.23141e-05
-4.41988e-06
9.88699e-07
-6.52012e-06
-7.73659e-06
1.51877e-06
-1.0886e-05
-7.44398e-06
1.89144e-06
-1.50527e-05
-6.32457e-06
1.64845e-06
-1.87727e-05
-4.90357e-06
1.08415e-06
-2.0745e-05
-4.04393e-06
-2.16666e-05
-3.84656e-06
1.33936e-06
-6.32839e-06
-7.28647e-06
1.92659e-06
-1.01281e-05
-6.81335e-06
2.28087e-06
-1.42118e-05
-5.58022e-06
1.9875e-06
-1.80861e-05
-4.28342e-06
1.27247e-06
-2.01185e-05
-3.58251e-06
-2.10202e-05
-3.34512e-06
2.05345e-06
-6.16558e-06
-6.63101e-06
2.7816e-06
-9.5355e-06
-6.05594e-06
3.09921e-06
-1.35594e-05
-4.91691e-06
2.67033e-06
-1.74718e-05
-3.93792e-06
1.66085e-06
-1.94476e-05
-3.43394e-06
-2.02802e-05
-3.2762e-06
3.1854e-06
-6.25535e-06
-5.83304e-06
4.001e-06
-9.24452e-06
-5.32144e-06
4.07475e-06
-1.3022e-05
-4.46784e-06
3.27175e-06
-1.67478e-05
-3.84109e-06
1.86412e-06
-1.86438e-05
-3.4405e-06
-1.94661e-05
-3.44991e-06
4.71929e-06
-6.60055e-06
-5.01551e-06
5.35882e-06
-9.0938e-06
-4.72417e-06
5.08759e-06
-1.24486e-05
-4.23467e-06
3.93654e-06
-1.58617e-05
-3.87162e-06
2.17797e-06
-1.76682e-05
-3.49131e-06
-1.84427e-05
-3.51465e-06
6.16787e-06
-7.14186e-06
-4.1615e-06
6.55189e-06
-9.03408e-06
-4.14836e-06
6.0798e-06
-1.19302e-05
-3.98589e-06
4.70176e-06
-1.4852e-05
-3.85774e-06
2.59038e-06
-1.63589e-05
-3.59218e-06
-1.69879e-05
-3.60055e-06
7.29947e-06
-3.25848e-06
-7.07442e-06
7.61875e-06
-3.41763e-06
-9.19507e-06
7.15253e-06
-3.48405e-06
-1.15927e-05
5.56948e-06
-3.58041e-06
-1.36648e-05
3.04663e-06