/*--------------------------------*- C++ -*----------------------------------*\
| =========                 |                                                 |
| \\      /  F ield         | OpenFOAM: The Open Source CFD Toolbox           |
|  \\    /   O peration     | Version:  v2106                                 |
|   \\  /    A nd           | Website:  www.openfoam.com                      |
|    \\/     M anipulation  |                                                 |
\*---------------------------------------------------------------------------*/
FoamFile
{
    version     2.0;
    format      ascii;
    arch        "LSB;label=32;scalar=64";
    class       volScalarField;
    location    "0.000191";
    object      rho;
}
// * * * * * * * * * * * * * * * * * * * * * * * * * * * * * * * * * * * * * //

dimensions      [1 -3 0 0 0 0 0];

internalField   nonuniform List<scalar> 
18273
(
2.36493
2.36472
2.35993
2.3562
2.35383
2.3495
2.34596
2.34051
2.33467
2.32964
2.32567
2.32485
2.32353
2.32962
2.3612
2.36183
2.35857
2.3553
2.35228
2.34765
2.34376
2.33856
2.3327
2.32786
2.32446
2.32442
2.32421
2.33159
2.36421
2.36225
2.35858
2.35454
2.35088
2.34644
2.34244
2.33741
2.33174
2.32702
2.32367
2.32309
2.32267
2.32779
2.36494
2.36175
2.35771
2.35367
2.34952
2.34548
2.34136
2.3366
2.33138
2.32723
2.32444
2.32378
2.32401
2.32798
2.36599
2.36133
2.35655
2.35236
2.34843
2.34484
2.34095
2.33659
2.33176
2.32797
2.32549
2.32472
2.32527
2.32873
2.36731
2.36148
2.35625
2.3517
2.34799
2.3446
2.34088
2.33677
2.33247
2.32899
2.3268
2.32624
2.32695
2.32981
2.36897
2.36233
2.35675
2.3522
2.34847
2.34518
2.34142
2.33735
2.33341
2.33034
2.32822
2.32772
2.32878
2.33086
2.37043
2.36404
2.35831
2.35356
2.34974
2.34639
2.34259
2.33847
2.33472
2.33177
2.32994
2.32924
2.3298
2.33169
2.37252
2.36603
2.36013
2.35532
2.35126
2.34785
2.34411
2.34005
2.33645
2.33347
2.33141
2.33048
2.33075
2.33215
2.37381
2.36774
2.36197
2.35697
2.35275
2.34938
2.3459
2.34199
2.33848
2.33544
2.33329
2.33206
2.33191
2.33271
2.37658
2.37066
2.36442
2.35889
2.35438
2.35109
2.34794
2.34418
2.3407
2.33764
2.3355
2.33419
2.33395
2.33354
2.37971
2.37321
2.36734
2.36128
2.35686
2.35358
2.35072
2.34728
2.34387
2.34092
2.33915
2.33815
2.33873
2.33729
2.38364
2.37615
2.37094
2.36512
2.36067
2.35764
2.35475
2.35149
2.34811
2.34513
2.3431
2.34153
2.34191
2.33903
2.3846
2.37514
2.37324
2.36874
2.36556
2.36252
2.36015
2.35708
2.35394
2.35152
2.3502
2.35011
2.35328
2.35049
2.37171
2.3717
2.36958
2.36717
2.36621
2.36303
2.36097
2.3571
2.35267
2.34898
2.34581
2.34481
2.3409
2.34407
2.37058
2.37038
2.36841
2.36636
2.36469
2.36167
2.35905
2.35529
2.351
2.34763
2.34508
2.34467
2.34264
2.34556
2.37109
2.3691
2.36681
2.36462
2.36244
2.35981
2.35698
2.35338
2.34956
2.34651
2.34418
2.34352
2.34234
2.34386
2.36937
2.36675
2.36446
2.36225
2.36005
2.35773
2.35502
2.35184
2.34864
2.34615
2.34445
2.34407
2.34381
2.34498
2.36826
2.36537
2.36252
2.36035
2.35823
2.35611
2.35363
2.35089
2.34819
2.34608
2.34475
2.34439
2.34473
2.34633
2.36716
2.36423
2.36149
2.35929
2.35727
2.35524
2.35304
2.35047
2.34809
2.34638
2.34569
2.34601
2.34685
2.34844
2.36721
2.36409
2.36134
2.35924
2.35717
2.35509
2.35297
2.35053
2.34831
2.34678
2.34621
2.34615
2.34714
2.34852
2.36804
2.36493
2.36222
2.3599
2.35768
2.35537
2.35319
2.35089
2.34881
2.34744
2.34702
2.3474
2.34825
2.34961
2.36913
2.36605
2.36329
2.36093
2.35863
2.35613
2.35383
2.35157
2.34942
2.34809
2.34758
2.34791
2.34867
2.34986
2.37153
2.36788
2.36472
2.36211
2.35976
2.35718
2.35468
2.35245
2.35026
2.34895
2.34827
2.34844
2.34902
2.34985
2.37418
2.37033
2.36657
2.36382
2.36116
2.3585
2.35589
2.35365
2.35155
2.35017
2.34934
2.34913
2.34952
2.34964
2.37836
2.37328
2.36958
2.36576
2.36299
2.36038
2.35782
2.35566
2.35356
2.35219
2.35133
2.35117
2.35167
2.35106
2.38199
2.37638
2.37276
2.36883
2.36588
2.36331
2.36072
2.3586
2.35632
2.35473
2.35339
2.35256
2.35221
2.34975
2.38381
2.37835
2.37648
2.37297
2.36991
2.36724
2.36456
2.36267
2.36017
2.35844
2.35697
2.35648
2.35692
2.35612
2.3785
2.37982
2.3785
2.37597
2.37404
2.37163
2.36838
2.36468
2.36083
2.35712
2.35372
2.35089
2.34691
2.34437
2.37902
2.37835
2.37714
2.3749
2.37295
2.37028
2.36706
2.36339
2.35973
2.35662
2.35412
2.3524
2.34925
2.34736
2.37847
2.37719
2.3754
2.37322
2.37122
2.3684
2.36518
2.36158
2.35814
2.35534
2.3529
2.35096
2.34814
2.34631
2.37712
2.37586
2.37393
2.37204
2.36981
2.36698
2.3638
2.36021
2.35672
2.35368
2.3513
2.34963
2.34774
2.34615
2.37691
2.37519
2.37353
2.37147
2.36927
2.36645
2.36322
2.35953
2.35592
2.35272
2.35031
2.34878
2.34762
2.34665
2.37744
2.37557
2.37389
2.37162
2.36942
2.36653
2.36328
2.35955
2.35587
2.35262
2.35011
2.34842
2.34758
2.34732
2.37841
2.37659
2.37463
2.37237
2.37007
2.36709
2.36379
2.36008
2.35645
2.35332
2.35093
2.34942
2.3486
2.34825
2.38016
2.37806
2.37576
2.37325
2.37082
2.36776
2.36441
2.36078
2.35725
2.35425
2.35197
2.35064
2.35001
2.34981
2.38208
2.37972
2.37712
2.37432
2.37169
2.36856
2.36512
2.36153
2.35812
2.35529
2.35327
2.35211
2.35155
2.35136
2.38442
2.3817
2.3787
2.37551
2.37261
2.3694
2.36589
2.36232
2.35903
2.35636
2.3546
2.35355
2.35297
2.35284
2.38715
2.38375
2.38042
2.37694
2.37366
2.37044
2.36694
2.36342
2.36013
2.35753
2.35604
2.3551
2.35458
2.35414
2.39109
2.38601
2.38216
2.3786
2.37505
2.37174
2.36824
2.36479
2.36152
2.3591
2.35802
2.35757
2.35754
2.35631
2.39481
2.389
2.38517
2.38121
2.3773
2.37373
2.37017
2.36673
2.36361
2.36143
2.3599
2.35902
2.35888
2.3564
2.3967
2.39144
2.38826
2.38443
2.38046
2.37652
2.37289
2.36972
2.36691
2.36519
2.36387
2.36362
2.36296
2.36115
2.34504
2.35841
2.36375
2.37536
2.38283
2.39627
2.32801
2.34205
2.35286
2.3718
2.38162
2.40599
2.32943
2.34399
2.35452
2.37427
2.38469
2.4095
2.33051
2.34243
2.35249
2.37246
2.38397
2.41122
2.33256
2.34368
2.35434
2.37439
2.38563
2.41381
2.33405
2.34353
2.35456
2.37397
2.38603
2.4119
2.33453
2.34418
2.35475
2.37235
2.38494
2.40915
2.33507
2.34332
2.35286
2.36821
2.37991
2.40157
2.33522
2.34279
2.35189
2.36537
2.3742
2.3954
2.3356
2.34216
2.35042
2.36302
2.36954
2.39022
2.3367
2.34369
2.353
2.36502
2.36984
2.38847
2.34048
2.34733
2.35627
2.36867
2.3738
2.38983
2.34668
2.35412
2.36331
2.37629
2.38137
2.3963
2.34648
2.35544
2.36934
2.38668
2.39408
2.4086
2.35323
2.36195
2.36253
2.36907
2.37024
2.38104
2.33911
2.34768
2.3538
2.36682
2.36847
2.38974
2.34283
2.35088
2.35774
2.3715
2.37224
2.39673
2.34545
2.35159
2.35807
2.37066
2.3749
2.39802
2.34843
2.35419
2.36088
2.37401
2.3791
2.40079
2.35037
2.35547
2.362
2.37554
2.38037
2.40107
2.35094
2.35713
2.36314
2.37593
2.38
2.40056
2.35165
2.3571
2.36176
2.37205
2.37449
2.39257
2.35161
2.35627
2.35949
2.36776
2.36759
2.38604
2.35139
2.35436
2.35613
2.36268
2.36015
2.37915
2.35101
2.3525
2.35435
2.3613
2.35771
2.37682
2.35143
2.35185
2.3533
2.36026
2.3584
2.37354
2.35218
2.35388
2.35623
2.36457
2.36414
2.37712
2.34458
2.34676
2.35233
2.36683
2.37219
2.38548
2.3514
2.35802
2.35614
2.35415
2.35775
2.35738
2.33813
2.33979
2.342
2.34933
2.35456
2.3684
2.34107
2.34133
2.3441
2.3548
2.36079
2.38135
2.34341
2.34247
2.34432
2.35503
2.36293
2.38545
2.34583
2.34565
2.34821
2.36049
2.36956
2.39091
2.34742
2.34815
2.35145
2.36409
2.37155
2.39095
2.34832
2.35066
2.3548
2.36762
2.37439
2.398
2.3503
2.35256
2.35658
2.36789
2.37451
2.39492
2.35201
2.35421
2.35781
2.36715
2.37169
2.39431
2.35353
2.35507
2.35768
2.3639
2.36597
2.39014
2.35483
2.35543
2.35706
2.36122
2.36285
2.38645
2.35672
2.35601
2.35638
2.35961
2.36102
2.378
2.35787
2.3568
2.35712
2.36134
2.36406
2.3781
2.34876
2.34821
2.34901
2.35667
2.36498
2.3794
2.36557
2.37978
2.38557
2.39812
2.40627
2.41952
2.34857
2.36503
2.37657
2.39622
2.40554
2.42833
2.35286
2.36985
2.38137
2.40172
2.40916
2.43752
2.35546
2.36978
2.38171
2.40229
2.41102
2.44105
2.35918
2.37253
2.38575
2.40694
2.4154
2.4467
2.36209
2.37463
2.38772
2.40814
2.41741
2.44614
2.36561
2.37799
2.39015
2.41039
2.42016
2.44672
2.36826
2.3792
2.39115
2.40978
2.41987
2.44186
2.36995
2.3806
2.39129
2.40812
2.41672
2.43901
2.37184
2.38067
2.3891
2.40255
2.41126
2.43401
2.37416
2.38122
2.38868
2.40055
2.40802
2.42729
2.37693
2.38165
2.38758
2.39772
2.40401
2.42262
2.38075
2.38629
2.392
2.40154
2.40656
2.41438
2.37799
2.38323
2.39148
2.40395
2.40958
2.41452
2.3637
2.37303
2.37392
2.38117
2.38368
2.39537
2.35118
2.36021
2.36499
2.37858
2.38264
2.40386
2.35623
2.36428
2.37037
2.3855
2.38858
2.41479
2.35938
2.36639
2.3734
2.38857
2.39312
2.4189
2.36318
2.37029
2.37904
2.3951
2.4003
2.4267
2.36579
2.37368
2.38362
2.3998
2.40689
2.42792
2.36915
2.37788
2.38782
2.40474
2.41162
2.43147
2.37084
2.3805
2.3909
2.40718
2.41302
2.43029
2.37401
2.38342
2.39283
2.40729
2.41061
2.42773
2.37613
2.38459
2.39213
2.40327
2.40416
2.4225
2.37843
2.38526
2.3906
2.39842
2.40007
2.4166
2.38038
2.38504
2.38783
2.39272
2.39437
2.41259
2.38315
2.38716
2.38951
2.39367
2.39383
2.40397
2.37844
2.38078
2.38394
2.39069
2.3927
2.39947
2.36872
2.37444
2.37496
2.37751
2.37831
2.38747
2.35941
2.36405
2.36564
2.37282
2.37653
2.39213
2.36336
2.36723
2.3698
2.37962
2.38471
2.40369
2.36567
2.36963
2.37407
2.38545
2.39205
2.41062
2.36874
2.37317
2.37958
2.39284
2.40213
2.42402
2.37163
2.37735
2.38607
2.40152
2.41278
2.4334
2.37423
2.3812
2.39175
2.40904
2.4207
2.44183
2.37786
2.38602
2.39712
2.41565
2.42676
2.44773
2.38187
2.39145
2.40212
2.41965
2.42824
2.44735
2.38595
2.39593
2.40532
2.42028
2.4263
2.44387
2.39057
2.39924
2.40699
2.41834
2.42335
2.4379
2.39464
2.40112
2.40675
2.41353
2.41741
2.42439
2.39849
2.40281
2.40615
2.40894
2.41117
2.41576
2.39455
2.3974
2.40003
2.40248
2.40389
2.405
2.39201
2.38729
2.38356
2.37502
2.36687
2.36239
2.39851
2.39136
2.38471
2.3782
2.37217
2.368
2.4137
2.39411
2.38579
2.3771
2.37049
2.36776
2.42389
2.40201
2.39249
2.38154
2.37411
2.36971
2.42958
2.40818
2.39972
2.38639
2.37803
2.37192
2.43231
2.41497
2.40614
2.39167
2.3821
2.37408
2.43533
2.41994
2.41113
2.39568
2.38584
2.37653
2.43991
2.4225
2.41303
2.39677
2.38703
2.3775
2.44122
2.41778
2.41086
2.39667
2.38861
2.37966
2.4412
2.41527
2.40953
2.39691
2.38895
2.38036
2.43498
2.41285
2.40745
2.39535
2.38918
2.38147
2.43299
2.41048
2.40809
2.39631
2.39077
2.38231
2.42436
2.4088
2.40719
2.39629
2.39042
2.38026
2.42101
2.41261
2.41207
2.40599
2.40352
2.39299
2.37883
2.37342
2.37092
2.36598
2.36313
2.36574
2.38872
2.37946
2.37774
2.37482
2.37344
2.37394
2.39766
2.38627
2.38295
2.37666
2.37397
2.37327
2.41332
2.39111
2.38773
2.38123
2.37665
2.37359
2.41467
2.39969
2.39386
2.38429
2.37744
2.37252
2.41691
2.40754
2.39837
2.38653
2.37801
2.37175
2.41991
2.40971
2.39907
2.38631
2.37802
2.37173
2.4203
2.40909
2.39872
2.38621
2.37848
2.37248
2.41802
2.4053
2.39659
2.38557
2.37909
2.37343
2.41383
2.40196
2.39502
2.38597
2.38094
2.37593
2.41032
2.39701
2.39254
2.38539
2.38193
2.3776
2.40655
2.39333
2.39153
2.38664
2.3846
2.38059
2.40195
2.39436
2.39273
2.38812
2.38573
2.3806
2.40074
2.39682
2.39951
2.39751
2.39711
2.39073
2.34061
2.35678
2.35924
2.36487
2.36786
2.37293
2.35898
2.37139
2.37441
2.37888
2.38003
2.3826
2.37331
2.38281
2.38339
2.38442
2.38166
2.38146
2.38946
2.39457
2.39123
2.38893
2.38277
2.38116
2.39534
2.40197
2.39501
2.39036
2.38242
2.38025
2.39824
2.40476
2.39569
2.39055
2.3829
2.38011
2.39651
2.40367
2.39384
2.38971
2.38369
2.38098
2.39383
2.40162
2.39198
2.38932
2.38532
2.38286
2.38935
2.39797
2.39039
2.38951
2.3872
2.38492
2.38847
2.39666
2.39095
2.39126
2.38987
2.38742
2.39021
2.39686
2.39313
2.39398
2.39303
2.39049
2.39411
2.3996
2.39777
2.39848
2.3976
2.39417
2.40008
2.40285
2.40185
2.4015
2.40068
2.39645
2.40582
2.40798
2.41007
2.41055
2.40968
2.40443
2.38824
2.37622
2.36902
2.35444
2.34069
2.33172
2.38171
2.36799
2.36188
2.35075
2.34108
2.33402
2.3803
2.36462
2.35844
2.34753
2.33753
2.33037
2.38526
2.36584
2.35916
2.34773
2.33783
2.3311
2.39036
2.36943
2.36147
2.35009
2.34077
2.33379
2.3996
2.37836
2.36751
2.35444
2.34532
2.33851
2.40585
2.38321
2.3729
2.35896
2.3505
2.3438
2.40942
2.38522
2.37676
2.363
2.35586
2.34889
2.41035
2.38707
2.37841
2.36373
2.35756
2.35166
2.41124
2.3856
2.37882
2.36594
2.36149
2.35593
2.40636
2.38279
2.37866
2.36586
2.36167
2.35657
2.40403
2.38205
2.38264
2.37087
2.36611
2.35897
2.39619
2.38163
2.38222
2.37256
2.36733
2.35862
2.39549
2.38663
2.38745
2.38384
2.38318
2.37508
2.37254
2.36226
2.36024
2.34759
2.34024
2.33818
2.37145
2.35649
2.35677
2.3513
2.34759
2.34603
2.37151
2.35588
2.356
2.34984
2.3463
2.34606
2.37909
2.35976
2.36011
2.35358
2.34976
2.34837
2.38631
2.36714
2.36485
2.35807
2.35372
2.35136
2.39382
2.37752
2.37276
2.36415
2.35881
2.35543
2.39707
2.3837
2.37823
2.36797
2.36278
2.35923
2.40113
2.3872
2.38037
2.36965
2.36608
2.36304
2.40002
2.38498
2.37899
2.36918
2.36619
2.36387
2.39784
2.38101
2.37695
2.36893
2.3677
2.36685
2.38949
2.37487
2.37398
2.36715
2.36617
2.36617
2.38457
2.37162
2.37286
2.36711
2.36692
2.36721
2.37972
2.3687
2.37097
2.36678
2.36638
2.36524
2.37921
2.37343
2.37725
2.37769
2.37971
2.37708
2.3465
2.34496
2.33425
2.32856
2.32542
2.33283
2.34671
2.34725
2.34281
2.34258
2.34276
2.34858
2.34663
2.34659
2.34467
2.34449
2.34519
2.35057
2.35617
2.35043
2.34983
2.34999
2.35035
2.35419
2.358
2.35927
2.35596
2.35634
2.35523
2.35772
2.3603
2.36864
2.36219
2.36282
2.36062
2.36193
2.36398
2.37205
2.36556
2.36657
2.36487
2.36566
2.36597
2.37272
2.36683
2.36859
2.36822
2.3691
2.36429
2.37013
2.36576
2.36823
2.36985
2.3719
2.36162
2.36742
2.36375
2.36741
2.37027
2.37369
2.35512
2.362
2.36112
2.36643
2.37066
2.37523
2.34637
2.35864
2.36157
2.36797
2.37203
2.37628
2.34269
2.35812
2.36191
2.36902
2.37291
2.37584
2.34374
2.36098
2.36977
2.38017
2.38415
2.38374
2.40488
2.40232
2.39772
2.39352
2.39018
2.38576
2.38131
2.37652
2.37191
2.36754
2.36364
2.36045
2.35839
2.35599
2.40153
2.39729
2.39325
2.3901
2.38691
2.383
2.37883
2.37418
2.36946
2.3651
2.36134
2.35878
2.35681
2.3552
2.39736
2.3936
2.39006
2.38717
2.38416
2.38058
2.37657
2.37204
2.36731
2.36295
2.35943
2.35689
2.35446
2.35278
2.39459
2.39153
2.3885
2.3857
2.38273
2.37917
2.37506
2.37042
2.36558
2.36103
2.35743
2.35461
2.35274
2.35076
2.39322
2.39048
2.38771
2.385
2.38208
2.37853
2.37437
2.36964
2.36479
2.3601
2.3563
2.35307
2.35123
2.34936
2.39303
2.3902
2.38751
2.38481
2.38187
2.37829
2.3741
2.36933
2.36447
2.35976
2.35583
2.35249
2.35065
2.34874
2.39344
2.39034
2.38762
2.38486
2.38192
2.37834
2.37414
2.36935
2.36447
2.3598
2.35583
2.3525
2.35074
2.34895
2.39438
2.39091
2.38794
2.38498
2.38191
2.37826
2.37405
2.36933
2.36452
2.35991
2.35598
2.35278
2.35099
2.34934
2.39567
2.39175
2.38836
2.38512
2.38185
2.37809
2.37382
2.36914
2.36439
2.35999
2.35628
2.35336
2.35163
2.35024
2.3975
2.39296
2.38898
2.38543
2.38188
2.37798
2.37359
2.36886
2.36413
2.35986
2.35635
2.35373
2.35219
2.35123
2.39974
2.39452
2.38991
2.38596
2.38199
2.3779
2.3734
2.36866
2.36399
2.35978
2.35643
2.35432
2.35305
2.35243
2.40258
2.39634
2.39117
2.38683
2.38251
2.37819
2.37361
2.3689
2.36425
2.3601
2.35709
2.35539
2.35475
2.35445
2.40602
2.39911
2.3931
2.38835
2.38359
2.37902
2.37431
2.36967
2.36516
2.36122
2.3586
2.35717
2.35694
2.3551
2.40877
2.40131
2.39494
2.38972
2.38462
2.38005
2.37558
2.37142
2.36763
2.36478
2.36313
2.36241
2.36215
2.35946
2.41383
2.40979
2.40611
2.40157
2.39768
2.39312
2.38823
2.38293
2.37732
2.37182
2.36678
2.36279
2.36004
2.35827
2.41096
2.40639
2.40239
2.39857
2.39494
2.39072
2.38597
2.38066
2.37487
2.3691
2.36376
2.3594
2.35625
2.35554
2.40837
2.40412
2.40037
2.39677
2.3932
2.38908
2.38436
2.37916
2.37347
2.3676
2.36195
2.35702
2.35377
2.35341
2.40664
2.40261
2.39929
2.39585
2.39224
2.38803
2.3832
2.37787
2.37213
2.36616
2.36053
2.35555
2.35199
2.35069
2.40572
2.40184
2.39869
2.39531
2.39164
2.38735
2.38246
2.37703
2.37124
2.36522
2.35957
2.35462
2.35098
2.34913
2.40538
2.40155
2.39848
2.39519
2.39154
2.3872
2.38221
2.37662
2.37071
2.36464
2.35893
2.35398
2.35025
2.34806
2.40542
2.40151
2.39831
2.395
2.39137
2.38704
2.38204
2.37643
2.37047
2.36438
2.35863
2.35376
2.35007
2.34772
2.40583
2.40169
2.39821
2.39469
2.39094
2.38659
2.38161
2.37605
2.37016
2.36419
2.35855
2.3538
2.35007
2.34773
2.40657
2.40208
2.39822
2.3944
2.39045
2.38596
2.38091
2.37534
2.36953
2.3638
2.35842
2.35395
2.35033
2.34815
2.40772
2.40267
2.39831
2.3942
2.39
2.38532
2.38015
2.37454
2.3688
2.36326
2.35823
2.35409
2.35078
2.3488
2.40927
2.40362
2.39871
2.39418
2.38963
2.38472
2.37944
2.37382
2.36818
2.36285
2.35818
2.35434
2.35148
2.34963
2.41121
2.40475
2.39921
2.39427
2.38938
2.38431
2.379
2.37346
2.36796
2.36282
2.35846
2.35495
2.35268
2.35108
2.41352
2.40661
2.40038
2.39496
2.38962
2.3843
2.3789
2.37347
2.36817
2.3633
2.35925
2.35617
2.35405
2.35197
2.41515
2.4076
2.40076
2.39521
2.38977
2.38456
2.37943
2.37438
2.36961
2.36544
2.36208
2.35959
2.35755
2.35435
2.4278
2.42325
2.41905
2.4145
2.41005
2.40518
2.3997
2.39365
2.38719
2.38062
2.37456
2.36927
2.36546
2.36289
2.42516
2.41987
2.41585
2.41175
2.40745
2.40266
2.39719
2.39108
2.38447
2.37758
2.37104
2.36539
2.3614
2.3596
2.42243
2.41757
2.41366
2.40971
2.40548
2.40072
2.39529
2.38923
2.38272
2.37583
2.3691
2.363
2.35845
2.35646
2.42071
2.4162
2.41242
2.40852
2.40424
2.39932
2.39378
2.38765
2.38106
2.37411
2.36736
2.36125
2.35651
2.3536
2.41961
2.41538
2.41172
2.40787
2.40354
2.3985
2.3928
2.38647
2.37971
2.3727
2.36597
2.35982
2.35487
2.35144
2.41886
2.41473
2.41109
2.40723
2.40288
2.39781
2.39206
2.38565
2.3788
2.37169
2.36485
2.35858
2.35343
2.3497
2.41843
2.41419
2.41042
2.40648
2.40207
2.39699
2.39126
2.3849
2.37807
2.371
2.36416
2.35783
2.35257
2.34861
2.41818
2.4137
2.40967
2.40555
2.40104
2.39592
2.39023
2.38396
2.37725
2.37033
2.3636
2.35741
2.35217
2.34811
2.41819
2.41336
2.40896
2.40457
2.39987
2.39465
2.38895
2.38278
2.37623
2.36956
2.36307
2.35719
2.35222
2.34824
2.41833
2.41304
2.40821
2.40356
2.39865
2.39331
2.38758
2.38145
2.37507
2.3687
2.36258
2.35711
2.35246
2.3486
2.41877
2.41304
2.40774
2.40269
2.39748
2.39195
2.38616
2.38008
2.37389
2.36786
2.36212
2.35702
2.35269
2.34903
2.41929
2.41297
2.40714
2.40175
2.39629
2.39067
2.38494
2.37903
2.37308
2.36728
2.36188
2.35708
2.35289
2.34943
2.42043
2.41358
2.40733
2.40148
2.39563
2.38978
2.38401
2.37816
2.37242
2.36692
2.36177
2.35724
2.35326
2.34972
2.42086
2.41305
2.4064
2.40047
2.39474
2.3891
2.38353
2.37797
2.3726
2.36757
2.36294
2.35892
2.3552
2.35112
2.43682
2.43261
2.42841
2.42423
2.41968
2.41471
2.40909
2.40286
2.39601
2.38891
2.38183
2.3752
2.36984
2.36551
2.43498
2.43035
2.42607
2.42174
2.4172
2.41219
2.40654
2.40029
2.39341
2.38615
2.37875
2.37191
2.36624
2.36276
2.43268
2.4283
2.42413
2.41987
2.41526
2.4101
2.40436
2.39806
2.39122
2.38403
2.37672
2.36977
2.36387
2.35961
2.43124
2.42697
2.42292
2.41865
2.41398
2.40869
2.40277
2.39627
2.38928
2.38202
2.37469
2.3677
2.36164
2.35701
2.42997
2.42581
2.42182
2.41755
2.41283
2.40745
2.40141
2.39479
2.3877
2.3803
2.37291
2.36581
2.35963
2.3548
2.42905
2.42481
2.42074
2.41638
2.41156
2.40611
2.40003
2.39338
2.3863
2.37888
2.37146
2.36426
2.35795
2.35271
2.42832
2.42391
2.41966
2.41512
2.41016
2.40461
2.39852
2.39192
2.38493
2.37759
2.37021
2.36303
2.35665
2.35118
2.42776
2.42304
2.41853
2.41376
2.40863
2.40299
2.39692
2.39041
2.38355
2.37636
2.36908
2.36202
2.35565
2.35008
2.42727
2.42218
2.41733
2.41228
2.40696
2.40126
2.39522
2.38881
2.38211
2.37514
2.36808
2.36127
2.35507
2.34954
2.42655
2.42108
2.41588
2.4106
2.40515
2.39944
2.39347
2.38721
2.38071
2.37401
2.36723
2.36075
2.35481
2.34948
2.42583
2.41997
2.41441
2.4089
2.40329
2.39755
2.39164
2.38553
2.37923
2.37279
2.36638
2.36028
2.35467
2.34957
2.42485
2.41845
2.41255
2.40694
2.40131
2.39566
2.38993
2.38404
2.37798
2.37181
2.36574
2.35996
2.35464
2.34969
2.42459
2.41772
2.4114
2.40545
2.39969
2.394
2.38831
2.38255
2.37673
2.3709
2.36514
2.3597
2.35453
2.34952
2.42369
2.41594
2.40935
2.40347
2.39792
2.39252
2.38711
2.38162
2.37614
2.37068
2.36528
2.3601
2.35501
2.34965
2.44572
2.44095
2.43623
2.43184
2.42733
2.42257
2.41718
2.41113
2.40447
2.39739
2.39008
2.3827
2.37622
2.37066
2.44346
2.43914
2.43464
2.4301
2.42526
2.42007
2.41445
2.40834
2.40164
2.39443
2.3869
2.37936
2.37267
2.3672
2.44147
2.43717
2.43273
2.42821
2.42338
2.41815
2.4124
2.4061
2.3993
2.39201
2.38443
2.37688
2.37004
2.36471
2.43986
2.43563
2.43131
2.42679
2.4219
2.41654
2.41062
2.40413
2.39718
2.38976
2.38207
2.3744
2.36744
2.36188
2.43846
2.43416
2.4298
2.42526
2.4203
2.41482
2.40879
2.4022
2.39514
2.38763
2.3799
2.37217
2.36513
2.35936
2.43738
2.43288
2.42842
2.42369
2.41855
2.41289
2.40676
2.40013
2.39308
2.38559
2.37785
2.37014
2.36304
2.357
2.43657
2.43182
2.42709
2.42206
2.41665
2.41081
2.40459
2.39797
2.39098
2.38358
2.3759
2.36829
2.36119
2.35502
2.43572
2.43064
2.42559
2.42027
2.41464
2.40867
2.40243
2.39587
2.38895
2.38167
2.37409
2.36664
2.35966
2.35356
2.4347
2.4292
2.42383
2.41823
2.41247
2.40648
2.4003
2.39384
2.38703
2.37989
2.37249
2.36528
2.35857
2.35269
2.43311
2.42723
2.42161
2.41589
2.41016
2.4043
2.39828
2.39199
2.38534
2.37842
2.37125
2.36434
2.35785
2.35211
2.43116
2.42494
2.41908
2.41333
2.40768
2.40197
2.39611
2.39002
2.3836
2.37695
2.37013
2.36361
2.35735
2.35165
2.42865
2.42207
2.41615
2.41053
2.40509
2.39963
2.39405
2.38824
2.3821
2.37573
2.36923
2.36297
2.35704
2.3513
2.42678
2.42001
2.41386
2.40817
2.40278
2.39745
2.39204
2.38645
2.38061
2.37459
2.36839
2.36239
2.35671
2.3509
2.42451
2.41721
2.41114
2.4057
2.40057
2.39549
2.39038
2.38507
2.37959
2.374
2.36832
2.3627
2.35667
2.35052
2.45245
2.44759
2.44271
2.43807
2.43335
2.42855
2.42346
2.41778
2.41158
2.40492
2.3978
2.39074
2.3838
2.37702
2.45
2.44579
2.44116
2.43643
2.43143
2.42624
2.42079
2.41494
2.40863
2.40182
2.39459
2.38715
2.38015
2.37377
2.44826
2.44386
2.43921
2.43443
2.42942
2.42423
2.41876
2.41283
2.4064
2.39942
2.39204
2.38437
2.37722
2.37114
2.4466
2.44216
2.43751
2.43273
2.4277
2.42238
2.41672
2.41064
2.40409
2.39696
2.38939
2.38155
2.37416
2.36799
2.4452
2.4406
2.43588
2.43096
2.42576
2.42028
2.41448
2.40826
2.40157
2.39434
2.38666
2.37879
2.37127
2.3651
2.44416
2.43928
2.43425
2.42905
2.42363
2.41792
2.41192
2.40557
2.39879
2.39153
2.38383
2.37602
2.36848
2.36225
2.44311
2.43785
2.43254
2.42702
2.4213
2.41534
2.40917
2.40272
2.39589
2.38864
2.38102
2.37335
2.36596
2.35974
2.44165
2.43605
2.43053
2.42475
2.41884
2.41274
2.40647
2.39995
2.39308
2.38587
2.37834
2.37085
2.3637
2.35757
2.43966
2.43373
2.42806
2.42216
2.41624
2.41014
2.4039
2.39741
2.39055
2.38338
2.37595
2.36865
2.36181
2.35603
2.43686
2.43077
2.4251
2.41929
2.41354
2.40764
2.40158
2.39522
2.38847
2.38139
2.3741
2.36704
2.36041
2.35483
2.4336
2.42742
2.42179
2.4162
2.41073
2.40508
2.39922
2.39302
2.38646
2.37966
2.37263
2.36591
2.35945
2.35387
2.42985
2.42365
2.41824
2.413
2.40786
2.40255
2.39701
2.39111
2.38483
2.37831
2.37157
2.36515
2.35888
2.35312
2.42699
2.42076
2.41532
2.4102
2.40522
2.40012
2.39479
2.38915
2.38319
2.377
2.37061
2.36435
2.35848
2.35253
2.42382
2.41746
2.41229
2.40746
2.40275
2.39795
2.39296
2.38769
2.38214
2.37642
2.37046
2.36458
2.35858
2.35212
2.45769
2.45274
2.44778
2.44295
2.4381
2.43331
2.42855
2.42346
2.41796
2.41198
2.40555
2.39883
2.39256
2.38519
2.45536
2.45094
2.44616
2.4412
2.43611
2.43099
2.42581
2.42045
2.41483
2.40877
2.40223
2.39536
2.38888
2.38189
2.45383
2.44921
2.44425
2.43919
2.43401
2.42882
2.42359
2.41819
2.41245
2.40622
2.3995
2.39249
2.38578
2.3791
2.45244
2.44764
2.44255
2.43738
2.43209
2.42674
2.4213
2.41572
2.40982
2.40344
2.39656
2.38935
2.38234
2.37576
2.45114
2.44611
2.44087
2.43546
2.42993
2.42438
2.41877
2.413
2.4069
2.40035
2.39333
2.38603
2.37896
2.37255
2.44977
2.44437
2.43882
2.43318
2.42746
2.4217
2.41587
2.40988
2.4036
2.39693
2.38985
2.38254
2.37549
2.36919
2.44792
2.44222
2.43651
2.43068
2.42479
2.41881
2.41276
2.40656
2.40012
2.39336
2.38627
2.37903
2.37213
2.36602
2.44539
2.43955
2.43382
2.42791
2.42194
2.41584
2.40964
2.40327
2.39668
2.38984
2.38274
2.37559
2.36886
2.36306
2.44225
2.43635
2.43074
2.42488
2.419
2.41292
2.40669
2.40024
2.39354
2.38664
2.37954
2.37253
2.36596
2.36045
2.43847
2.43269
2.42729
2.42166
2.41602
2.41013
2.40405
2.39766
2.39097
2.38406
2.37697
2.37005
2.3636
2.3583
2.43454
2.42882
2.42366
2.41838
2.41306
2.40746
2.40158
2.39532
2.38874
2.38194
2.37497
2.36828
2.36192
2.35663
2.43039
2.42484
2.41999
2.4151
2.41011
2.40484
2.39922
2.39321
2.38685
2.38028
2.37354
2.3671
2.3608
2.35529
2.42728
2.42164
2.41685
2.41214
2.40737
2.40234
2.39691
2.39113
2.38504
2.37876
2.3723
2.36614
2.36013
2.35444
2.42353
2.41813
2.41373
2.40926
2.40475
2.40006
2.39501
2.38965
2.38393
2.37802
2.37193
2.36588
2.36013
2.35385
2.42789
2.42304
2.41793
2.41245
2.40654
2.40077
2.39367
2.42478
2.41969
2.41444
2.40887
2.40301
2.39714
2.39058
2.42247
2.41723
2.41177
2.40598
2.39995
2.39384
2.38764
2.41997
2.41454
2.40888
2.40287
2.39661
2.3903
2.3842
2.41722
2.41157
2.40567
2.39947
2.39306
2.38668
2.3807
2.41405
2.40821
2.40213
2.39579
2.38928
2.38291
2.37696
2.41062
2.40459
2.39837
2.39193
2.38539
2.37906
2.37322
2.40708
2.40087
2.39455
2.38803
2.38149
2.37523
2.36965
2.4433
2.43804
2.43287
2.4274
2.42179
2.41594
2.40991
2.40371
2.39734
2.3909
2.38431
2.37779
2.37157
2.36619
2.43913
2.43408
2.42917
2.42398
2.41859
2.41287
2.4069
2.40069
2.39424
2.38771
2.38106
2.37456
2.36849
2.3634
2.43512
2.43018
2.4255
2.4206
2.41547
2.40999
2.40418
2.39804
2.39155
2.38495
2.37829
2.37187
2.36588
2.36095
2.4311
2.42633
2.42188
2.41728
2.41238
2.4071
2.40146
2.39546
2.38915
2.38274
2.37625
2.37006
2.36408
2.35904
2.42789
2.42295
2.41858
2.41416
2.40946
2.40442
2.39893
2.39311
2.38697
2.38072
2.3744
2.36843
2.3626
2.35732
2.42387
2.41924
2.41531
2.41105
2.40663
2.40189
2.39672
2.3912
2.38532
2.37933
2.37327
2.36744
2.36183
2.35596
2.4159
2.4261
2.435
2.43932
2.44782
2.45707
2.40561
2.41124
2.41453
2.4199
2.4347
2.45163
2.40192
2.40605
2.40847
2.41326
2.42905
2.45314
2.39634
2.39937
2.40041
2.40514
2.42419
2.45342
2.39262
2.39452
2.39501
2.39963
2.41894
2.45254
2.38776
2.3892
2.38966
2.3943
2.41394
2.44553
2.38312
2.38431
2.38549
2.38998
2.4099
2.43615
2.37835
2.37946
2.38221
2.38607
2.40422
2.42313
2.37388
2.37468
2.3791
2.38207
2.39683
2.40848
2.36951
2.36927
2.37451
2.37647
2.38759
2.39344
2.3658
2.36455
2.36878
2.36993
2.37957
2.38389
2.36237
2.35951
2.36179
2.36336
2.37209
2.37728
2.36116
2.35639
2.35674
2.35934
2.36966
2.37709
2.34675
2.33916
2.33997
2.3467
2.36135
2.37342
2.42401
2.43583
2.44724
2.45686
2.46252
2.4708
2.41451
2.42279
2.42997
2.44044
2.45175
2.467
2.41163
2.41911
2.42626
2.43523
2.44735
2.46818
2.40602
2.41186
2.41748
2.42603
2.44102
2.46448
2.4019
2.40648
2.41123
2.41916
2.43503
2.46023
2.3965
2.39976
2.40377
2.41139
2.42776
2.45269
2.39087
2.39322
2.39718
2.40499
2.42121
2.4436
2.38499
2.38695
2.3917
2.40004
2.41526
2.43328
2.37938
2.38163
2.38777
2.39643
2.40974
2.42299
2.37434
2.3768
2.38429
2.39206
2.40217
2.41129
2.37045
2.37255
2.38091
2.386
2.39357
2.40062
2.3673
2.36812
2.37476
2.37739
2.38287
2.38939
2.36663
2.36534
2.36831
2.36909
2.37477
2.3827
2.35517
2.3511
2.35153
2.35406
2.36157
2.37406
2.43636
2.44774
2.46044
2.47201
2.48126
2.49055
2.42877
2.43827
2.44948
2.46058
2.47231
2.48577
2.42583
2.43517
2.44541
2.45558
2.46727
2.4833
2.4199
2.42847
2.43703
2.4467
2.45913
2.47735
2.41471
2.42236
2.4293
2.43829
2.45065
2.47136
2.4088
2.41508
2.42019
2.42826
2.44095
2.4632
2.40249
2.40728
2.41105
2.41854
2.43165
2.45247
2.39588
2.39935
2.40272
2.41025
2.42319
2.44098
2.3892
2.39187
2.39627
2.40447
2.41724
2.4308
2.38281
2.38538
2.39153
2.40039
2.41208
2.42178
2.37761
2.38051
2.38861
2.397
2.40722
2.415
2.3736
2.3766
2.38517
2.39138
2.39926
2.40717
2.37272
2.3739
2.38106
2.38398
2.39004
2.39835
2.36348
2.36326
2.36752
2.37046
2.37642
2.38517
2.44436
2.45186
2.46064
2.47185
2.48109
2.49056
2.43868
2.4469
2.45565
2.46674
2.47742
2.48963
2.43494
2.4432
2.45255
2.46314
2.47384
2.4868
2.4299
2.43772
2.44673
2.45658
2.46749
2.48094
2.42483
2.43193
2.43994
2.44872
2.45905
2.47314
2.41911
2.42502
2.43129
2.43835
2.44761
2.46303
2.41263
2.41722
2.42159
2.42694
2.43553
2.45189
2.40545
2.40883
2.41165
2.41619
2.42483
2.44007
2.39781
2.40031
2.40251
2.40749
2.41634
2.42993
2.39031
2.39218
2.3948
2.40071
2.41023
2.42196
2.38353
2.38515
2.38927
2.39633
2.40659
2.41635
2.37775
2.37918
2.38504
2.39212
2.40217
2.41024
2.37429
2.37553
2.38275
2.38862
2.39648
2.40288
2.36662
2.36779
2.37366
2.37869
2.38516
2.39147
2.45064
2.45653
2.4633
2.47162
2.47982
2.48852
2.44589
2.45271
2.45969
2.46888
2.47817
2.48865
2.44191
2.44901
2.45692
2.4665
2.47627
2.4874
2.43731
2.44457
2.45271
2.46238
2.47238
2.48371
2.43251
2.43951
2.44747
2.45667
2.4663
2.47772
2.42719
2.43334
2.44033
2.44809
2.45644
2.46786
2.42116
2.42607
2.43158
2.43739
2.44434
2.45637
2.41433
2.41787
2.42174
2.42555
2.43195
2.44454
2.40679
2.40907
2.41149
2.41437
2.42106
2.4325
2.39902
2.40033
2.40211
2.40509
2.41209
2.42292
2.39136
2.39229
2.39436
2.3983
2.40689
2.41708
2.38444
2.38503
2.38817
2.39349
2.40267
2.41134
2.37907
2.3795
2.38445
2.39064
2.39988
2.40746
2.37158
2.37199
2.37711
2.38269
2.39044
2.39705
2.456
2.46117
2.46684
2.47318
2.47977
2.48701
2.45155
2.45748
2.46362
2.47091
2.4784
2.4869
2.44746
2.4537
2.46077
2.46885
2.4772
2.48663
2.44288
2.44957
2.45707
2.46593
2.47516
2.48528
2.43815
2.44507
2.45274
2.46181
2.47112
2.48146
2.43304
2.43963
2.44679
2.45507
2.46351
2.47374
2.42742
2.4331
2.43916
2.44602
2.45316
2.46342
2.42121
2.42545
2.43
2.43491
2.44086
2.45139
2.41426
2.41705
2.42021
2.42347
2.42884
2.4389
2.40679
2.40828
2.41027
2.41239
2.41768
2.42748
2.39946
2.39997
2.40126
2.40344
2.40971
2.41963
2.39209
2.39183
2.39344
2.39624
2.40363
2.41237
2.38553
2.38488
2.38739
2.39129
2.39971
2.40782
2.37809
2.37679
2.37989
2.38413
2.39172
2.39912
2.46039
2.46481
2.46988
2.47561
2.48133
2.48787
2.4562
2.46129
2.46689
2.47317
2.47949
2.48668
2.45185
2.45732
2.46376
2.47104
2.47806
2.48577
2.44722
2.45324
2.46023
2.46846
2.47669
2.48555
2.44253
2.44903
2.45649
2.46538
2.47452
2.48444
2.43772
2.44429
2.4517
2.46051
2.46967
2.47973
2.43262
2.4387
2.4455
2.45353
2.46205
2.4721
2.42707
2.43205
2.43761
2.44426
2.45129
2.46067
2.42095
2.42463
2.42872
2.43375
2.43917
2.44822
2.41427
2.41652
2.41925
2.42251
2.42667
2.4352
2.40745
2.40853
2.40993
2.41148
2.41563
2.42417
2.40042
2.39997
2.40087
2.40204
2.40719
2.41489
2.39348
2.39263
2.39347
2.39485