/*--------------------------------*- C++ -*----------------------------------*\
| =========                 |                                                 |
| \\      /  F ield         | OpenFOAM: The Open Source CFD Toolbox           |
|  \\    /   O peration     | Version:  v2106                                 |
|   \\  /    A nd           | Website:  www.openfoam.com                      |
|    \\/     M anipulation  |                                                 |
\*---------------------------------------------------------------------------*/
FoamFile
{
    version     2.0;
    format      ascii;
    arch        "LSB;label=32;scalar=64";
    class       volVectorField;
    location    "0.000217";
    object      U;
}
// * * * * * * * * * * * * * * * * * * * * * * * * * * * * * * * * * * * * * //

dimensions      [0 1 -1 0 0 0 0];

internalField   nonuniform List<vector> 
18265
(
(-0.0112777 -0.0125944 1.55514)
(-0.00970196 -0.0125483 1.55505)
(-0.00806651 -0.0127177 1.55535)
(-0.00642784 -0.0125901 1.55568)
(-0.00480914 -0.0125583 1.5559)
(-0.00322058 -0.0124949 1.55602)
(-0.00165255 -0.0124686 1.55608)
(-8.43017e-05 -0.0124595 1.55616)
(0.00150752 -0.0124631 1.55626)
(0.00314372 -0.0124897 1.55634)
(0.00482736 -0.0125048 1.5563)
(0.00652271 -0.0126173 1.55612)
(0.00819174 -0.0125067 1.55594)
(0.00979983 -0.0125111 1.5562)
(-0.0112253 -0.0109913 1.55527)
(-0.00954765 -0.0108861 1.55529)
(-0.00793344 -0.0110454 1.55557)
(-0.00635179 -0.0109326 1.55585)
(-0.00478204 -0.010899 1.5561)
(-0.00322986 -0.010851 1.55633)
(-0.00167265 -0.0108371 1.55647)
(-0.000114561 -0.0108406 1.55656)
(0.00145729 -0.0108559 1.55662)
(0.00305233 -0.0108988 1.55661)
(0.00467957 -0.0109408 1.55656)
(0.00633775 -0.0110631 1.55649)
(0.0080334 -0.0109262 1.55638)
(0.00982653 -0.0109933 1.55644)
(-0.0114128 -0.009326 1.55558)
(-0.00972392 -0.00926207 1.55564)
(-0.008095 -0.00941358 1.55602)
(-0.00647576 -0.00932728 1.55626)
(-0.00486638 -0.00930661 1.5565)
(-0.00326642 -0.00926021 1.55668)
(-0.00166773 -0.00924723 1.55679)
(-7.32856e-05 -0.00924844 1.55687)
(0.00152899 -0.00926157 1.55693)
(0.00314842 -0.00930691 1.55695)
(0.00479319 -0.00934129 1.55691)
(0.00645727 -0.00944645 1.55686)
(0.00815722 -0.00931805 1.55667)
(0.00992926 -0.00935779 1.5567)
(-0.0112988 -0.00767636 1.55602)
(-0.00962224 -0.00767402 1.55605)
(-0.00800726 -0.0077982 1.55639)
(-0.00641031 -0.00774168 1.55657)
(-0.00482383 -0.00772611 1.55677)
(-0.00324728 -0.00769368 1.55693)
(-0.00166803 -0.00768656 1.55704)
(-9.18243e-05 -0.00769047 1.55713)
(0.00149118 -0.00770297 1.5572)
(0.00308615 -0.00774175 1.55724)
(0.00470317 -0.00777038 1.55723)
(0.00633938 -0.0078571 1.55723)
(0.00802195 -0.00775795 1.55708)
(0.00977157 -0.00776397 1.55714)
(-0.0113056 -0.00602568 1.55633)
(-0.00961316 -0.00607982 1.55639)
(-0.00799781 -0.00617801 1.55671)
(-0.00640254 -0.0061508 1.55686)
(-0.00481957 -0.0061457 1.55704)
(-0.00324371 -0.00612702 1.55719)
(-0.00166522 -0.00612388 1.55729)
(-8.96221e-05 -0.0061279 1.55738)
(0.00149177 -0.00613674 1.55745)
(0.00308139 -0.00616362 1.55749)
(0.00468829 -0.00617806 1.5575)
(0.00630981 -0.00624247 1.55752)
(0.00797784 -0.00617429 1.55741)
(0.00971823 -0.00614938 1.55745)
(-0.0112916 -0.0044116 1.55652)
(-0.009591 -0.00450748 1.55669)
(-0.00796364 -0.00456229 1.55696)
(-0.00637436 -0.00456246 1.5571)
(-0.00479918 -0.00456448 1.55727)
(-0.00323403 -0.00455986 1.55742)
(-0.00166616 -0.00455937 1.55752)
(-0.000100985 -0.00456393 1.55761)
(0.00147095 -0.00457011 1.55768)
(0.00305072 -0.00458485 1.55773)
(0.00464755 -0.0045889 1.55774)
(0.00626075 -0.00462812 1.55776)
(0.00792325 -0.00459979 1.55772)
(0.00966412 -0.00454747 1.55765)
(-0.0113227 -0.00283042 1.55665)
(-0.00962356 -0.0029396 1.55693)
(-0.007981 -0.00295089 1.55716)
(-0.00638468 -0.00297131 1.55732)
(-0.00480385 -0.00297851 1.55748)
(-0.00323606 -0.00298491 1.55762)
(-0.00166764 -0.00298517 1.55772)
(-0.00010264 -0.00298849 1.55781)
(0.0014695 -0.00299071 1.55788)
(0.00304934 -0.00299309 1.55793)
(0.00464586 -0.0029889 1.55795)
(0.00625905 -0.00300564 1.55797)
(0.00791856 -0.00301371 1.55794)
(0.00965074 -0.00295052 1.55781)
(-0.0113531 -0.00125398 1.55679)
(-0.00966347 -0.00137068 1.55711)
(-0.00800785 -0.00134392 1.55733)
(-0.00640327 -0.00138125 1.5575)
(-0.00481367 -0.00139144 1.55766)
(-0.00324081 -0.00140663 1.55781)
(-0.00166992 -0.00140633 1.55791)
(-0.000103454 -0.00140713 1.55799)
(0.00147014 -0.00140374 1.55806)
(0.00305091 -0.00139231 1.55811)
(0.00464795 -0.00138061 1.55813)
(0.00626121 -0.00137543 1.55815)
(0.00792028 -0.00141561 1.55811)
(0.00963741 -0.00133813 1.55799)
(-0.0113874 0.000337016 1.55695)
(-0.00970462 0.000207929 1.55724)
(-0.00803768 0.000268091 1.55747)
(-0.00642474 0.000216493 1.55766)
(-0.00482537 0.000204215 1.55782)
(-0.00324478 0.000182352 1.55796)
(-0.00166866 0.000184383 1.55806)
(-9.77983e-05 0.000187379 1.55815)
(0.00147996 0.000197664 1.55822)
(0.00306456 0.000224102 1.55827)
(0.00466474 0.00024428 1.55828)
(0.00627922 0.000271155 1.55829)
(0.00793921 0.000204756 1.55823)
(0.00963565 0.000302702 1.55819)
(-0.0114409 0.00196443 1.55709)
(-0.00976738 0.00180586 1.55731)
(-0.00809588 0.0018892 1.55758)
(-0.00647222 0.00182339 1.55779)
(-0.00485774 0.00180767 1.55796)
(-0.00326059 0.00177986 1.55811)
(-0.00166939 0.00178357 1.55821)
(-8.40508e-05 0.00179018 1.5583)
(0.00150736 0.00180752 1.55837)
(0.00310439 0.00184939 1.55841)
(0.0047146 0.00188234 1.55841)
(0.00633471 0.00193524 1.55841)
(0.00799521 0.00185792 1.55828)
(0.00966265 0.00198992 1.55833)
(-0.0114969 0.00362764 1.55712)
(-0.00982773 0.00343315 1.55735)
(-0.0081457 0.00352701 1.55764)
(-0.00650626 0.00344537 1.55788)
(-0.0048735 0.00342623 1.55807)
(-0.00326044 0.0033943 1.55823)
(-0.00165777 0.00340076 1.55833)
(-6.37937e-05 0.00341173 1.55842)
(0.00153518 0.00343673 1.55847)
(0.00314155 0.00349478 1.5585)
(0.00476171 0.00354332 1.55847)
(0.00639141 0.00362319 1.55843)
(0.00805878 0.00354946 1.55827)
(0.00971327 0.00371294 1.55835)
(-0.0116183 0.00528399 1.55704)
(-0.00994178 0.00509583 1.55736)
(-0.00824914 0.00517838 1.5577)
(-0.006588 0.00507633 1.55797)
(-0.00493087 0.00505132 1.55819)
(-0.00329006 0.00502066 1.55834)
(-0.00166126 0.00503226 1.55844)
(-4.18533e-05 0.00504731 1.55853)
(0.0015804 0.00507784 1.55859)
(0.0032096 0.0051492 1.55861)
(0.00484871 0.00521778 1.55855)
(0.00649282 0.00532689 1.55846)
(0.00816329 0.00527557 1.55825)
(0.00982688 0.00543266 1.55827)
(-0.0115701 0.00688703 1.55698)
(-0.00982941 0.00679155 1.55734)
(-0.00814203 0.00687022 1.55762)
(-0.00649037 0.00675409 1.55793)
(-0.00485096 0.0067213 1.55819)
(-0.0032362 0.00669003 1.55841)
(-0.00163519 0.00670486 1.55853)
(-4.4223e-05 0.00672701 1.5586)
(0.00154986 0.00676891 1.55862)
(0.00315847 0.00685582 1.55858)
(0.00478861 0.00694371 1.55846)
(0.00643663 0.00707082 1.55833)
(0.00810723 0.00702496 1.55815)
(0.00985219 0.00710759 1.55821)
(-0.0114765 0.00834964 1.55733)
(-0.0098237 0.008567 1.55749)
(-0.00813638 0.00861061 1.55774)
(-0.0064813 0.00848076 1.55808)
(-0.00482865 0.00844798 1.55832)
(-0.00319675 0.0084321 1.55843)
(-0.0015894 0.0084543 1.55848)
(1.17529e-05 0.00847531 1.55856)
(0.00162233 0.00850811 1.55867)
(0.00325958 0.00857994 1.55872)
(0.00491402 0.00867095 1.55863)
(0.00654505 0.00882521 1.55845)
(0.00814823 0.00885052 1.55832)
(0.00965404 0.00868737 1.55854)
(-0.0105559 -0.0113613 1.31254)
(-0.00902771 -0.011276 1.3124)
(-0.00743484 -0.011496 1.31263)
(-0.0058435 -0.0113963 1.31291)
(-0.00427862 -0.0113986 1.3131)
(-0.00275368 -0.0113686 1.3132)
(-0.00125668 -0.0113594 1.31327)
(0.000236863 -0.0113635 1.31338)
(0.00174763 -0.011366 1.31354)
(0.00330044 -0.0113888 1.31367)
(0.00490608 -0.0113766 1.31371)
(0.00653199 -0.0114682 1.31363)
(0.00813164 -0.0112756 1.31358)
(0.0096254 -0.0113575 1.31394)
(-0.0104237 -0.00987695 1.31265)
(-0.00887017 -0.00976148 1.3126)
(-0.00734547 -0.00994861 1.31282)
(-0.00584152 -0.00985935 1.31305)
(-0.00432759 -0.00985218 1.31327)
(-0.00281991 -0.00982813 1.31348)
(-0.00129867 -0.00982908 1.31362)
(0.000226657 -0.00984181 1.31375)
(0.0017556 -0.00985238 1.31385)
(0.00328946 -0.00989072 1.31389)
(0.00483362 -0.0099111 1.31392)
(0.00637944 -0.0100211 1.31394)
(0.00795599 -0.00983641 1.31395)
(0.00959675 -0.00991306 1.31411)
(-0.0106659 -0.00828924 1.31296)
(-0.00907748 -0.00825042 1.31295)
(-0.00751964 -0.0084215 1.31327)
(-0.00596429 -0.0083556 1.31345)
(-0.0044039 -0.00835618 1.31366)
(-0.00285123 -0.00833014 1.31382)
(-0.00129903 -0.00832973 1.31394)
(0.000250385 -0.00833641 1.31404)
(0.00180582 -0.00834176 1.31415)
(0.00337299 -0.00837941 1.31423)
(0.00495506 -0.00839122 1.31427)
(0.0065324 -0.00847799 1.31433)
(0.00813084 -0.00832139 1.31423)
(0.00976339 -0.00834088 1.31438)
(-0.0105562 -0.00672125 1.31339)
(-0.00898148 -0.0067695 1.31335)
(-0.00743877 -0.00688849 1.31362)
(-0.00591541 -0.00684529 1.31375)
(-0.00437955 -0.00684208 1.31392)
(-0.00284649 -0.00682271 1.31406)
(-0.00130605 -0.00682297 1.31418)
(0.000233876 -0.00682917 1.31429)
(0.00177858 -0.00683538 1.31441)
(0.00332782 -0.00687055 1.31451)
(0.00488396 -0.0068851 1.31459)
(0.00643427 -0.00695446 1.31468)
(0.00801306 -0.00685055 1.31465)
(0.00962781 -0.00680228 1.31482)
(-0.0105802 -0.00515912 1.31371)
(-0.00899091 -0.00525495 1.31371)
(-0.00744389 -0.00533393 1.31396)
(-0.00591879 -0.00531527 1.31406)
(-0.00438426 -0.00531792 1.31421)
(-0.0028482 -0.00530753 1.31434)
(-0.00130654 -0.00530912 1.31445)
(0.000234405 -0.00531316 1.31456)
(0.00177974 -0.00531552 1.31468)
(0.00332835 -0.00533963 1.31479)
(0.00488208 -0.00534342 1.31488)
(0.00643042 -0.0053928 1.31499)
(0.00800115 -0.00532955 1.31499)
(0.00961962 -0.00524818 1.31514)
(-0.0105666 -0.003633 1.31393)
(-0.00896782 -0.00374071 1.31405)
(-0.0074258 -0.00377148 1.31425)
(-0.00589925 -0.00377487 1.31434)
(-0.00437241 -0.00377835 1.31448)
(-0.00284385 -0.00377704 1.3146)
(-0.00130933 -0.00377908 1.31471)
(0.000224851 -0.00378286 1.31482)
(0.00176345 -0.0037842 1.31494)
(0.00330473 -0.0037986 1.31505)
(0.00485141 -0.00379737 1.31516)
(0.00639865 -0.00382808 1.31527)
(0.00796348 -0.00380681 1.31534)
(0.00959002 -0.00371934 1.31539)
(-0.0105869 -0.00213338 1.31412)
(-0.00898921 -0.00221094 1.31433)
(-0.00744536 -0.00220528 1.3145)
(-0.0059101 -0.0022216 1.3146)
(-0.00437893 -0.00222639 1.31474)
(-0.00284696 -0.00223307 1.31486)
(-0.00131112 -0.0022351 1.31497)
(0.000223757 -0.00223828 1.31508)
(0.00176284 -0.00223825 1.31519)
(0.00330431 -0.00224306 1.31531)
(0.00485226 -0.00223829 1.31542)
(0.00640498 -0.0022546 1.31553)
(0.00797018 -0.00226223 1.31561)
(0.00959417 -0.00220135 1.31561)
(-0.0105992 -0.00063581 1.31434)
(-0.00901436 -0.000675419 1.31458)
(-0.00746115 -0.000640753 1.31475)
(-0.0059226 -0.000663231 1.31486)
(-0.00438677 -0.000667551 1.31499)
(-0.00285186 -0.000681176 1.31512)
(-0.00131417 -0.000682571 1.31522)
(0.000221735 -0.000685366 1.31534)
(0.00176151 -0.000684286 1.31545)
(0.00330251 -0.000679973 1.31557)
(0.00485095 -0.000674269 1.31567)
(0.00640539 -0.000678035 1.31578)
(0.00797528 -0.000709944 1.31586)
(0.00958844 -0.000675066 1.31586)
(-0.0106027 0.000879769 1.31459)
(-0.00903137 0.000863437 1.3148)
(-0.00746891 0.000925774 1.31498)
(-0.00593134 0.000901149 1.31511)
(-0.00439068 0.000899187 1.31524)
(-0.00285279 0.000880186 1.31537)
(-0.00131331 0.000880189 1.31547)
(0.000223056 0.00087808 1.31558)
(0.00176318 0.00088075 1.31569)
(0.00330424 0.000895016 1.31581)
(0.00485449 0.00090151 1.3159)
(0.00640903 0.000910373 1.31602)
(0.00798606 0.000853621 1.31606)
(0.00957901 0.000875963 1.31614)
(-0.0106223 0.00244038 1.31483)
(-0.00906373 0.002409 1.31498)
(-0.00750359 0.00249614 1.3152)
(-0.00596838 0.00246307 1.31535)
(-0.00441797 0.00246276 1.3155)
(-0.00286946 0.00244037 1.31562)
(-0.00131905 0.00244255 1.31573)
(0.000227383 0.00244071 1.31584)
(0.00177749 0.00244503 1.31595)
(0.00332781 0.00246955 1.31606)
(0.00488778 0.00248046 1.31614)
(0.00644636 0.00250848 1.31624)
(0.00803001 0.00243186 1.31622)
(0.00959104 0.00247372 1.31638)
(-0.0106327 0.00405273 1.31498)
(-0.00908172 0.00396573 1.31513)
(-0.00751653 0.00407915 1.31538)
(-0.00597954 0.0040272 1.31557)
(-0.00441966 0.00402635 1.31573)
(-0.00286583 0.00400105 1.31587)
(-0.00131213 0.00400654 1.31598)
(0.000235696 0.00400666 1.31608)
(0.00178723 0.00401531 1.31618)
(0.00334098 0.00405353 1.31627)
(0.00490606 0.0040728 1.31632)
(0.00646831 0.00412482 1.31638)
(0.00805899 0.00403145 1.31633)
(0.00959766 0.0041127 1.31651)
(-0.0107196 0.00567757 1.31505)
(-0.00917282 0.00552832 1.31529)
(-0.00759458 0.00565398 1.31558)
(-0.00604161 0.00557808 1.3158)
(-0.00446349 0.00557553 1.31598)
(-0.00289205 0.00555553 1.31612)
(-0.00132226 0.00556888 1.31622)
(0.000241611 0.00557123 1.31633)
(0.00180914 0.00558068 1.31643)
(0.00338142 0.00562598 1.31651)
(0.00496528 0.00565485 1.31652)
(0.00654407 0.0057322 1.31653)
(0.00814577 0.0056362 1.31643)
(0.00968752 0.00575026 1.31656)
(-0.010583 0.00725829 1.31515)
(-0.00902271 0.00712457 1.31542)
(-0.00746643 0.00726378 1.31565)
(-0.00593671 0.00716591 1.31592)
(-0.00438954 0.00715377 1.31614)
(-0.002851 0.00712596 1.31634)
(-0.00130764 0.00713905 1.31646)
(0.000233334 0.00714766 1.31655)
(0.00177633 0.00717012 1.31661)
(0.003324 0.00723295 1.31662)
(0.00488285 0.00727766 1.31658)
(0.00644041 0.00737527 1.31654)
(0.00801836 0.0072665 1.31648)
(0.00960902 0.007345 1.31664)
(-0.0105345 0.00863947 1.31566)
(-0.00903021 0.00876563 1.31574)
(-0.00746097 0.00886674 1.31593)
(-0.00589716 0.00875156 1.31622)
(-0.00432784 0.00875156 1.31642)
(-0.00278508 0.00874905 1.31652)
(-0.00126812 0.00877388 1.31657)
(0.000243945 0.00878013 1.31667)
(0.00177096 0.00878694 1.3168)
(0.0033344 0.00882394 1.3169)
(0.00492981 0.00885815 1.31688)
(0.00651659 0.00896982 1.31679)
(0.00807464 0.00890791 1.31678)
(0.00947757 0.00876353 1.31712)
(-0.00977063 -0.0100518 1.08192)
(-0.00822855 -0.00985835 1.08192)
(-0.00670991 -0.0101448 1.08225)
(-0.00518797 -0.0100494 1.08258)
(-0.00369937 -0.0100785 1.08281)
(-0.00225284 -0.010058 1.08295)
(-0.00083066 -0.0100544 1.08303)
(0.000586373 -0.0100648 1.08315)
(0.00201268 -0.0100755 1.08329)
(0.00347289 -0.010103 1.08338)
(0.00498388 -0.01008 1.08337)
(0.00651669 -0.0101673 1.08324)
(0.00803097 -0.00990161 1.08312)
(0.00947634 -0.0100992 1.08333)
(-0.00955536 -0.00855337 1.08215)
(-0.00810277 -0.00845881 1.08219)
(-0.00670082 -0.00866391 1.08252)
(-0.00528176 -0.00859489 1.08282)
(-0.00383238 -0.00862055 1.08311)
(-0.00236753 -0.00862373 1.08336)
(-0.000880472 -0.00864106 1.08352)
(0.000611065 -0.00865653 1.08363)
(0.00209399 -0.0086594 1.08371)
(0.00355907 -0.00867959 1.08371)
(0.0050122 -0.00867104 1.08368)
(0.00644146 -0.00875099 1.08363)
(0.00787859 -0.00855737 1.08353)
(0.00932649 -0.00865671 1.08361)
(-0.00985424 -0.00706503 1.08259)
(-0.0083212 -0.00708998 1.08267)
(-0.00687843 -0.00726657 1.08312)
(-0.00538517 -0.00721643 1.08335)
(-0.00388731 -0.00723515 1.08362)
(-0.00238454 -0.00722584 1.0838)
(-0.000882484 -0.00723518 1.08394)
(0.00061687 -0.00724476 1.08405)
(0.00211634 -0.00724642 1.08414)
(0.0036157 -0.0072735 1.08419)
(0.00511451 -0.00726592 1.08418)
(0.00659632 -0.0073268 1.08417)
(0.00806714 -0.00716346 1.08397)
(0.00958055 -0.00714685 1.08403)
(-0.00973843 -0.0055932 1.08309)
(-0.00824008 -0.00570968 1.08315)
(-0.00682041 -0.00580352 1.08353)
(-0.00536271 -0.00578012 1.08373)
(-0.00388808 -0.00578747 1.08396)
(-0.00239752 -0.00578157 1.08414)
(-0.000895658 -0.00578888 1.08427)
(0.000608695 -0.00579847 1.08439)
(0.00211116 -0.00580202 1.08449)
(0.00360232 -0.00582805 1.08456)
(0.00507851 -0.00582844 1.08458)
(0.00652439 -0.00586974 1.0846)
(0.00796499 -0.00578267 1.08447)
(0.00944879 -0.00566875 1.08454)
(-0.00976484 -0.00413343 1.08348)
(-0.00826205 -0.00428085 1.0836)
(-0.00683791 -0.00432433 1.08395)
(-0.00537174 -0.00432006 1.08412)
(-0.00389628 -0.00432749 1.08434)
(-0.00240295 -0.00432569 1.0845)
(-0.000900523 -0.00433143 1.08463)
(0.000605361 -0.00433909 1.08475)
(0.00211027 -0.00434002 1.08485)
(0.00360647 -0.00435967 1.08492)
(0.00508769 -0.00435401 1.08496)
(0.00654314 -0.00437895 1.08499)
(0.00798408 -0.00433281 1.0849)
(0.00947544 -0.00418866 1.08494)
(-0.00973309 -0.00270224 1.08375)
(-0.00825262 -0.00282645 1.084)
(-0.00682308 -0.00282324 1.08428)
(-0.00536297 -0.0028305 1.08446)
(-0.00389417 -0.00283472 1.08466)
(-0.00240635 -0.00283776 1.08482)
(-0.000907533 -0.00284275 1.08495)
(0.000596165 -0.00285033 1.08506)
(0.00209892 -0.00285115 1.08516)
(0.0035933 -0.00286586 1.08524)
(0.00507353 -0.00285957 1.08529)
(0.00653377 -0.00287406 1.08533)
(0.00797409 -0.00286294 1.0853)
(0.0094565 -0.0027409 1.08523)
(-0.00972879 -0.00128647 1.08398)
(-0.00827065 -0.00133899 1.08432)
(-0.00683386 -0.00131655 1.08458)
(-0.00537 -0.00132386 1.08476)
(-0.00389973 -0.00132667 1.08496)
(-0.00241126 -0.00133289 1.08512)
(-0.000912667 -0.00133752 1.08525)
(0.000591002 -0.00134477 1.08536)
(0.00209416 -0.00134506 1.08546)
(0.00359032 -0.00135523 1.08554)
(0.00507515 -0.0013484 1.08559)
(0.00654621 -0.00136074 1.08562)
(0.0079917 -0.00136321 1.08561)
(0.00946539 -0.00130923 1.08548)
(-0.00971634 0.000134616 1.08423)
(-0.00827562 0.000158822 1.08459)
(-0.00683443 0.000190524 1.08484)
(-0.00537277 0.000189868 1.08504)
(-0.00390331 0.000190313 1.08523)
(-0.00241617 0.000182516 1.08539)
(-0.000918229 0.000178715 1.08552)
(0.000585072 0.000171437 1.08563)
(0.00208853 0.000170772 1.08573)
(0.00358439 0.000164595 1.08581)
(0.00507082 0.000168603 1.08586)
(0.00654409 0.000153703 1.0859)
(0.00799547 0.000140311 1.08587)
(0.00946165 0.000123288 1.08575)
(-0.00969723 0.00157479 1.0845)
(-0.00826529 0.00165317 1.0848)
(-0.00682344 0.00169867 1.08508)
(-0.00536687 0.00170434 1.08528)
(-0.00389836 0.00170909 1.08548)
(-0.00241426 0.00170057 1.08564)
(-0.000919334 0.00169843 1.08576)
(0.000580893 0.00169152 1.08588)
(0.0020831 0.00169095 1.08597)
(0.00357765 0.00169021 1.08605)
(0.00506524 0.00168991 1.08609)
(0.00653624 0.00167324 1.08613)
(0.00799369 0.00164021 1.08607)
(0.00945145 0.00157401 1.08603)
(-0.00969957 0.00305646 1.08471)
(-0.00828036 0.00313856 1.08495)
(-0.00684592 0.00320705 1.08528)
(-0.00539147 0.00320698 1.08549)
(-0.00391736 0.0032152 1.0857)
(-0.00242816 0.00320608 1.08587)
(-0.000927843 0.00320629 1.086)
(0.000578156 0.00319909 1.08611)
(0.00208843 0.00319788 1.0862)
(0.00359055 0.00320297 1.08628)
(0.00508628 0.00319894 1.0863)
(0.00655862 0.00319081 1.08632)
(0.0080215 0.00312958 1.08621)
(0.0094613 0.00306339 1.08624)
(-0.00966264 0.00458616 1.08483)
(-0.00826595 0.00461781 1.08505)
(-0.00683391 0.00472131 1.08541)
(-0.00538532 0.00469885 1.08566)
(-0.00390832 0.00470728 1.08589)
(-0.00242101 0.00469429 1.08606)
(-0.000923505 0.00469635 1.0862)
(0.000578735 0.0046894 1.0863)
(0.0020867 0.00468962 1.08638)
(0.00358657 0.0047046 1.08645)
(0.00508003 0.00470008 1.08643)
(0.00654586 0.0047124 1.08642)
(0.00801403 0.00461483 1.08627)
(0.00943269 0.00459015 1.08634)
(-0.00972937 0.00612945 1.08485)
(-0.00833836 0.00607149 1.08515)
(-0.00688862 0.00621356 1.08555)
(-0.00542378 0.00615967 1.08583)
(-0.00393319 0.00617184 1.08608)
(-0.00243764 0.00616169 1.08625)
(-0.000936419 0.00616973 1.08638)
(0.000568228 0.00616163 1.08649)
(0.00208041 0.00615707 1.08657)
(0.00359059 0.00617374 1.08662)
(0.00509909 0.00616547 1.08658)
(0.00658497 0.00620473 1.08652)
(0.00807648 0.00607274 1.08632)
(0.00950555 0.00611403 1.08633)
(-0.00950238 0.00764498 1.08489)
(-0.00816132 0.00753044 1.0852)
(-0.00674658 0.00770897 1.08552)
(-0.00534121 0.00762516 1.08585)
(-0.00389162 0.00763146 1.08614)
(-0.00242631 0.00761259 1.08638)
(-0.000936709 0.00761871 1.08652)
(0.00056049 0.00761279 1.08661)
(0.00205769 0.00761424 1.08667)
(0.00354098 0.00764066 1.08665)
(0.00501114 0.00763722 1.08656)
(0.0064507 0.00770404 1.08645)
(0.00790298 0.00754525 1.08631)
(0.0093183 0.0076181 1.08636)
(-0.00958781 0.00905711 1.08526)
(-0.00820846 0.00900035 1.08543)
(-0.00671936 0.00919166 1.0857)
(-0.00524755 0.00908217 1.08605)
(-0.00377383 0.00909975 1.08631)
(-0.00232979 0.009091 1.08644)
(-0.000905114 0.00909992 1.08652)
(0.000520371 0.00908924 1.08662)
(0.00196408 0.00907873 1.08675)
(0.00344253 0.00908808 1.08682)
(0.00495157 0.0090697 1.08675)
(0.0064597 0.00915432 1.0866)
(0.00796491 0.00899197 1.08651)
(0.00935736 0.00898897 1.08669)
(-0.00839893 -0.00820628 0.861742)
(-0.00692118 -0.00797601 0.861951)
(-0.00560444 -0.00827209 0.862451)
(-0.00426439 -0.00817713 0.862879)
(-0.00295732 -0.00821037 0.863196)
(-0.00167598 -0.0081814 0.86338)
(-0.000409643 -0.00817507 0.863485)
(0.000855651 -0.00818964 0.863585)
(0.00212418 -0.0082117 0.863668)
(0.00339433 -0.00825209 0.863652)
(0.0046987 -0.00822952 0.863513)
(0.00603706 -0.00831158 0.863245)
(0.0073452 -0.00801798 0.862917)
(0.00872533 -0.00828808 0.862874)
(-0.00816351 -0.00676638 0.862136)
(-0.00685196 -0.0067055 0.862347)
(-0.00567536 -0.00689903 0.862875)
(-0.00442322 -0.00685563 0.863297)
(-0.00313738 -0.00690653 0.863692)
(-0.00181122 -0.00692678 0.863989)
(-0.000456144 -0.00695386 0.864163)
(0.000908013 -0.0069685 0.864259)
(0.00225613 -0.00696047 0.86427)
(0.00355226 -0.00696571 0.864157)
(0.00481524 -0.00693778 0.863976)
(0.00605632 -0.00699068 0.863753)
(0.00724509 -0.00679546 0.863428)
(0.00851015 -0.00685948 0.863323)
(-0.00845755 -0.00548487 0.862752)
(-0.00704925 -0.00556605 0.863016)
(-0.00582491 -0.00571511 0.863637)
(-0.00448944 -0.00567899 0.86399)
(-0.00315939 -0.00570448 0.864348)
(-0.00180788 -0.0057021 0.864587)
(-0.000457154 -0.00571496 0.864739)
(0.000895882 -0.00572591 0.864834)
(0.00224546 -0.00572469 0.864867)
(0.00356926 -0.00574899 0.864811)
(0.00488599 -0.00573813 0.864664)
(0.00619781 -0.00578258 0.864499)
(0.00743399 -0.00563022 0.864084)
(0.00877951 -0.00555048 0.86394)
(-0.00833147 -0.00419397 0.863326)
(-0.00698757 -0.00435163 0.863603)
(-0.00578578 -0.00440212 0.864155)
(-0.00449073 -0.00439598 0.864487)
(-0.00317889 -0.00440878 0.864817)
(-0.00183166 -0.00441189 0.865052)
(-0.000471883 -0.00442201 0.865208)
(0.000896128 -0.00443377 0.865307)
(0.00225856 -0.00443338 0.865344)
(0.0035831 -0.0044525 0.865298)
(0.00488069 -0.00444868 0.865179)
(0.00615317 -0.00446765 0.865025)
(0.0073624 -0.00441263 0.864682)
(0.00864905 -0.00424917 0.864535)
(-0.00834731 -0.00292082 0.863782)
(-0.00702678 -0.00308994 0.864146)
(-0.00580567 -0.00309098 0.864653)
(-0.00450306 -0.00309857 0.864969)
(-0.00318798 -0.00310752 0.865285)
(-0.00183867 -0.0031117 0.865509)
(-0.000479506 -0.00311743 0.865661)
(0.000888954 -0.00312827 0.865758)
(0.00225331 -0.00312763 0.865799)
(0.00358415 -0.00314282 0.865764)
(0.00489268 -0.00313579 0.865656)
(0.00617761 -0.00314361 0.865514)
(0.00740481 -0.00313112 0.865217)
(0.00867907 -0.00295584 0.865001)
(-0.00829689 -0.00166363 0.864096)
(-0.00703324 -0.00177949 0.864584)
(-0.0057971 -0.00175171 0.865027)
(-0.00450347 -0.00176129 0.86535)
(-0.00319175 -0.00176628 0.865655)
(-0.00184604 -0.00177236 0.865879)
(-0.000488192 -0.00177568 0.86603)
(0.000880781 -0.00178667 0.866129)
(0.00224597 -0.00178736 0.86617)
(0.00357836 -0.00179961 0.866137)
(0.0048881 -0.00179235 0.866037)
(0.00617469 -0.00179898 0.865891)
(0.00741462 -0.00180599 0.86565)
(0.00865738 -0.00168183 0.865325)
(-0.00827559 -0.000414224 0.864349)
(-0.00704846 -0.000433437 0.864907)
(-0.0058003 -0.000411685 0.86533)
(-0.00450666 -0.000409626 0.865662)
(-0.00319407 -0.000412605 0.865962)
(-0.00184951 -0.000417632 0.866184)
(-0.000493212 -0.000418651 0.866334)
(0.000874997 -0.000429234 0.866433)
(0.00223994 -0.000431385 0.866473)
(0.00357421 -0.000442405 0.866444)
(0.00488873 -0.000435184 0.866344)
(0.00618344 -0.000451817 0.866197)
(0.00743674 -0.000448926 0.865969)
(0.00866494 -0.000420342 0.865585)
(-0.00825865 0.000839541 0.864581)
(-0.00704402 0.000918982 0.865135)
(-0.00579621 0.000928793 0.865561)
(-0.00450849 0.000947702 0.865897)
(-0.00319889 0.000946928 0.866197)
(-0.00185647 0.000943478 0.86642)
(-0.000500278 0.00094432 0.866571)
(0.00086899 0.000934061 0.866669)
(0.00223517 0.000929773 0.866709)
(0.00357028 0.000920045 0.866683)
(0.00488532 0.000925043 0.86658)
(0.0061817 0.000894695 0.866436)
(0.00744017 0.000906907 0.866198)
(0.00867164 0.000838317 0.86583)
(-0.00824078 0.00210643 0.864787)
(-0.00701482 0.00225984 0.86527)
(-0.00577673 0.00227213 0.865721)
(-0.00449586 0.0023044 0.86606)
(-0.00319103 0.00230599 0.866364)
(-0.00185383 0.00230301 0.866588)
(-0.000501563 0.00230517 0.866739)
(0.000864179 0.00229552 0.866837)
(0.00222729 0.00228926 0.866874)
(0.00355963 0.00228258 0.866848)
(0.00487276 0.00228375 0.866734)
(0.00616793 0.0022434 0.866593)
(0.00742398 0.00224567 0.866323)
(0.00867204 0.00210529 0.866041)
(-0.00824517 0.00340855 0.864894)
(-0.00700584 0.00358016 0.865294)
(-0.00578796 0.00361738 0.865804)
(-0.00450681 0.00364822 0.866152)
(-0.00320098 0.00365449 0.86647)
(-0.00186321 0.00365142 0.866696)
(-0.000511393 0.00365527 0.866849)
(0.000854008 0.00364516 0.866948)
(0.00221892 0.00363437 0.866985)
(0.00355635 0.00362984 0.866962)
(0.00487741 0.0036237 0.86683)
(0.00617951 0.00358693 0.866676)
(0.00742817 0.00355651 0.86634)
(0.00868858 0.00340183 0.866144)
(-0.0081929 0.00475068 0.864864)
(-0.00696353 0.00487717 0.86523)
(-0.00576731 0.00495416 0.865776)
(-0.0044966 0.00496397 0.866153)
(-0.00319305 0.00497327 0.866488)
(-0.00185831 0.0049669 0.866723)
(-0.000508708 0.00497172 0.866878)
(0.000853569 0.00496071 0.866974)
(0.00221551 0.00494668 0.867002)
(0.00354843 0.00494766 0.866962)
(0.00486314 0.00493444 0.866803)
(0.00615669 0.00491638 0.866617)
(0.00738964 0.00483852 0.866248)
(0.00864331 0.00472594 0.866092)
(-0.00824772 0.00610725 0.864712)
(-0.00700743 0.00612687 0.865121)
(-0.00580422 0.0062605 0.865721)
(-0.00451199 0.00622979 0.866116)
(-0.0031974 0.00625125 0.866469)
(-0.00186209 0.00624708 0.866702)
(-0.000521261 0.00625762 0.866856)
(0.000829543 0.00624444 0.866955)
(0.00218309 0.00622131 0.866987)
(0.0035213 0.00622119 0.866941)
(0.00485432 0.00619416 0.866751)
(0.00617563 0.0062087 0.866532)
(0.00742762 0.00606974 0.866113)
(0.00870218 0.00604646 0.865924)
(-0.00799265 0.00744046 0.864534)
(-0.00683644 0.00734424 0.864922)
(-0.00567143 0.00751521 0.865435)
(-0.00445858 0.00745189 0.865893)
(-0.00318934 0.00748126 0.866295)
(-0.00187709 0.00747917 0.866589)
(-0.00052993 0.00749197 0.866757)
(0.000832251 0.00748021 0.866848)
(0.00218391 0.00745611 0.866848)
(0.00349467 0.00745199 0.866732)
(0.00477761 0.00741208 0.866501)
(0.00603877 0.00744907 0.866231)
(0.00725103 0.00727569 0.865892)
(0.00846338 0.00734177 0.865749)
(-0.00823046 0.00879646 0.864625)
(-0.0068937 0.0086104 0.86493)
(-0.00559833 0.0088448 0.865391)
(-0.00430968 0.00872936 0.865847)
(-0.00302413 0.00874893 0.86619)
(-0.00175769 0.00872672 0.866377)
(-0.000504774 0.00872575 0.866485)
(0.000754825 0.00871029 0.866584)
(0.00202994 0.00869702 0.86667)
(0.0033197 0.00870107 0.86665)
(0.00463855 0.00865353 0.866466)
(0.00597491 0.00872134 0.866175)
(0.00730067 0.00848743 0.865882)
(0.00863988 0.00862476 0.865807)
(-0.00633735 -0.00580479 0.650335)
(-0.00508277 -0.00560613 0.650706)
(-0.00409121 -0.00585416 0.651332)
(-0.00305613 -0.00576136 0.651837)
(-0.00204606 -0.00577158 0.65222)
(-0.00104219 -0.00572489 0.652445)
(-3.39696e-05 -0.00570921 0.652564)
(0.000977639 -0.00573365 0.652635)
(0.00195001 -0.00576298 0.652629)
(0.00294539 -0.00581272 0.652483)
(0.00395234 -0.00579407 0.652197)
(0.00497497 -0.00588023 0.651785)
(0.00595416 -0.00561536 0.651266)
(0.00715013 -0.00584189 0.651001)
(-0.0061459 -0.00456479 0.650829)
(-0.0050581 -0.00453644 0.651215)
(-0.00420207 -0.00468325 0.65189)
(-0.00322296 -0.00466237 0.652414)
(-0.00222231 -0.00471412 0.652886)
(-0.0011656 -0.00473864 0.653209)
(-7.03216e-05 -0.00476091 0.653381)
(0.00103378 -0.00477495 0.653441)
(0.00208228 -0.00475266 0.653365)
(0.00311465 -0.00474533 0.653133)
(0.00410085 -0.00470494 0.652794)
(0.00505593 -0.0047369 0.652398)
(0.00590922 -0.00458918 0.651851)
(0.00695845 -0.00462469 0.651556)
(-0.00637913 -0.00359772 0.651542)
(-0.00520409 -0.00370894 0.651998)
(-0.0042951 -0.00379436 0.652735)
(-0.00323945 -0.00376929 0.653196)
(-0.00220645 -0.00377837 0.653627)
(-0.00114263 -0.00377612 0.653904)
(-6.87365e-05 -0.00378278 0.654062)
(0.00100994 -0.00379491 0.654127)
(0.00205136 -0.0037896 0.654076)
(0.00310595 -0.00381417 0.6539)
(0.00413324 -0.00380951 0.653601)
(0.00515929 -0.00384369 0.65326)
(0.00606298 -0.00375973 0.652654)
(0.00718413 -0.00364996 0.652288)
(-0.00624889 -0.00259074 0.652136)
(-0.00516441 -0.00274452 0.652637)
(-0.00427104 -0.00274172 0.653313)
(-0.00325244 -0.00274669 0.653767)
(-0.00222938 -0.00274671 0.654181)
(-0.00116346 -0.00275393 0.654462)
(-7.66809e-05 -0.00276 0.654625)
(0.00101928 -0.00277023 0.654691)
(0.00207583 -0.00276465 0.654641)
(0.003134 -0.00277969 0.654469)
(0.00414878 -0.00277738 0.654188)
(0.00513549 -0.00278231 0.653848)
(0.00601605 -0.00278531 0.653305)
(0.00704419 -0.00263156 0.652898)
(-0.00623531 -0.00160732 0.652616)
(-0.00520709 -0.00175284 0.653214)
(-0.0042771 -0.00171622 0.653841)
(-0.00325726 -0.00173059 0.654292)
(-0.00222949 -0.00172585 0.654691)
(-0.00116472 -0.00173287 0.654966)
(-8.19642e-05 -0.0017358 0.655126)
(0.00101071 -0.00174413 0.655194)
(0.00206632 -0.00174074 0.65515)
(0.00312708 -0.00175548 0.654989)
(0.00415106 -0.00175214 0.654723)
(0.00514767 -0.00175039 0.654387)
(0.00606564 -0.00177886 0.65389)
(0.00704711 -0.0016311 0.653394)
(-0.00617605 -0.000628637 0.652947)
(-0.00522454 -0.000707024 0.653637)
(-0.00427042 -0.000669086 0.654217)
(-0.00326192 -0.00067787 0.654679)
(-0.00223326 -0.000673273 0.655068)
(-0.00117005 -0.000679782 0.655344)
(-8.71517e-05 -0.000682014 0.655505)
(0.00100655 -0.000688508 0.655575)
(0.00206409 -0.000685729 0.655532)
(0.00312559 -0.000699898 0.655372)
(0.0041517 -0.00069355 0.655113)
(0.00514502 -0.000698681 0.654769)
(0.00608644 -0.000719605 0.654314)
(0.00700621 -0.000634586 0.653728)
(-0.00614848 0.000346247 0.653187)
(-0.00523411 0.000360672 0.653919)
(-0.00426709 0.000371303 0.654487)
(-0.00326204 0.000380458 0.654956)
(-0.00223241 0.000381673 0.655341)
(-0.0011706 0.000378803 0.655617)