/*--------------------------------*- C++ -*----------------------------------*\
| =========                 |                                                 |
| \\      /  F ield         | OpenFOAM: The Open Source CFD Toolbox           |
|  \\    /   O peration     | Version:  v2106                                 |
|   \\  /    A nd           | Website:  www.openfoam.com                      |
|    \\/     M anipulation  |                                                 |
\*---------------------------------------------------------------------------*/
FoamFile
{
    version     2.0;
    format      ascii;
    arch        "LSB;label=32;scalar=64";
    class       volScalarField;
    location    "0.000135";
    object      nut;
}
// * * * * * * * * * * * * * * * * * * * * * * * * * * * * * * * * * * * * * //

dimensions      [0 2 -1 0 0 0 0];

internalField   nonuniform List<scalar> 
144746
(
1.18471e-05
1.17458e-05
1.19171e-05
1.16588e-05
1.08676e-05
9.58537e-06
8.11213e-06
6.78991e-06
5.54703e-06
4.36074e-06
3.10663e-06
2.04162e-06
1.7095e-06
2.39183e-06
6.76837e-06
6.59495e-06
6.54453e-06
6.28686e-06
5.79801e-06
5.09819e-06
4.34412e-06
3.65419e-06
3.01484e-06
2.41712e-06
1.73604e-06
1.18558e-06
1.27569e-06
2.35605e-06
4.28244e-06
3.64116e-06
3.19553e-06
2.80178e-06
2.42371e-06
2.03146e-06
1.74914e-06
1.47311e-06
1.23897e-06
1.04146e-06
7.79361e-07
6.64606e-07
1.12666e-06
2.56948e-06
3.89789e-06
2.7564e-06
1.87143e-06
1.22041e-06
8.29808e-07
6.14745e-07
4.87257e-07
4.02367e-07
3.55966e-07
3.28001e-07
2.83313e-07
4.14801e-07
1.10254e-06
2.7826e-06
5.13217e-06
3.51695e-06
2.1324e-06
1.11363e-06
5.2303e-07
2.30829e-07
1.10159e-07
7.12535e-08
6.56511e-08
7.30254e-08
1.05986e-07
3.41684e-07
1.14269e-06
2.91706e-06
6.86425e-06
4.72812e-06
2.78031e-06
1.38496e-06
5.79348e-07
2.00021e-07
5.6584e-08
1.53017e-08
8.24157e-09
1.47016e-08
6.94071e-08
3.45158e-07
1.20107e-06
3.009e-06
8.51216e-06
5.72665e-06
3.31537e-06
1.60347e-06
6.34367e-07
2.01568e-07
5.02168e-08
1.01152e-08
2.47596e-09
7.91553e-09
6.99093e-08
3.62617e-07
1.22212e-06
2.98722e-06
1.037e-05
6.90665e-06
3.96745e-06
1.8875e-06
7.27529e-07
2.25612e-07
5.98334e-08
1.81378e-08
8.64591e-09
1.20901e-08
7.42978e-08
3.61881e-07
1.18117e-06
2.8213e-06
1.23916e-05
8.09596e-06
4.59768e-06
2.17479e-06
8.43635e-07
2.82442e-07
1.04634e-07
5.87547e-08
4.15988e-08
3.6136e-08
8.66846e-08
3.38754e-07
1.05607e-06
2.48901e-06
1.43232e-05
9.13486e-06
5.10496e-06
2.41454e-06
9.81216e-07
4.09334e-07
2.4357e-07
1.9839e-07
1.64916e-07
1.35118e-07
1.49985e-07
3.19998e-07
8.49792e-07
1.97127e-06
1.57275e-05
9.77962e-06
5.37677e-06
2.58006e-06
1.17792e-06
6.92103e-07
5.9627e-07
5.74905e-07
5.22419e-07
4.48084e-07
3.94182e-07
4.39735e-07
7.18694e-07
1.46094e-06
1.6255e-05
9.92177e-06
5.42181e-06
2.73267e-06
1.53532e-06
1.27283e-06
1.33869e-06
1.39525e-06
1.34988e-06
1.22329e-06
1.06104e-06
9.31727e-07
9.09361e-07
1.23748e-06
1.59204e-05
9.5584e-06
5.30566e-06
2.9847e-06
2.19158e-06
2.30281e-06
2.63445e-06
2.85399e-06
2.90161e-06
2.76698e-06
2.47996e-06
2.11611e-06
1.74206e-06
1.63491e-06
1.53905e-05
9.14756e-06
5.32549e-06
3.54308e-06
3.30771e-06
3.88274e-06
4.55955e-06
5.05239e-06
5.33619e-06
5.31289e-06
4.94982e-06
4.30516e-06
3.53715e-06
2.99122e-06
2.44567e-05
2.2843e-05
2.14233e-05
1.94399e-05
1.69215e-05
1.40558e-05
1.12788e-05
8.88922e-06
6.78283e-06
4.90701e-06
3.23609e-06
2.31117e-06
2.81576e-06
5.27059e-06
1.44224e-05
1.37507e-05
1.28475e-05
1.15336e-05
9.93296e-06
8.17619e-06
6.50756e-06
5.06503e-06
3.86733e-06
2.83211e-06
1.89876e-06
1.56559e-06
2.61018e-06
5.51675e-06
8.28857e-06
7.47682e-06
6.56314e-06
5.56231e-06
4.51155e-06
3.50253e-06
2.74886e-06
2.09031e-06
1.60451e-06
1.23224e-06
9.07668e-07
1.1087e-06
2.58123e-06
5.85027e-06
5.65057e-06
4.41118e-06
3.23011e-06
2.243e-06
1.52231e-06
1.068e-06
7.62068e-07
5.5693e-07
4.46135e-07
3.82806e-07
3.78115e-07
8.74131e-07
2.57233e-06
6.00268e-06
6.14413e-06
4.48027e-06
2.88991e-06
1.6425e-06
8.14116e-07
3.63712e-07
1.63072e-07
9.2024e-08
7.62896e-08
8.68575e-08
1.9257e-07
7.9085e-07
2.5328e-06
5.89312e-06
8.33082e-06
6.18276e-06
3.91903e-06
2.07038e-06
9.03187e-07
3.20725e-07
9.0519e-08
2.19888e-08
9.34724e-09
2.36272e-08
1.54479e-07
7.60015e-07
2.43667e-06
5.57501e-06
1.0841e-05
7.98992e-06
4.95924e-06
2.53381e-06
1.04624e-06
3.4303e-07
8.74509e-08
1.83098e-08
4.9363e-09
1.74414e-08
1.48832e-07
7.20781e-07
2.24698e-06
5.05135e-06
1.39214e-05
1.0155e-05
6.30175e-06
3.19882e-06
1.29848e-06
4.20996e-07
1.1798e-07
4.03405e-08
2.19864e-08
2.80145e-08
1.433e-07
6.44156e-07
1.96009e-06
4.35707e-06
1.74677e-05
1.25587e-05
7.7524e-06
3.94346e-06
1.61979e-06
5.67084e-07
2.20858e-07
1.34753e-07
1.03399e-07
9.07697e-08
1.67585e-07
5.50463e-07
1.58002e-06
3.49605e-06
2.14376e-05
1.506e-05
9.17215e-06
4.67139e-06
1.98953e-06
8.35711e-07
5.00025e-07
4.3103e-07
3.86206e-07
3.38525e-07
3.42045e-07
5.49423e-07
1.19949e-06
2.52959e-06
2.52133e-05
1.72576e-05
1.03281e-05
5.29479e-06
2.43342e-06
1.33868e-06
1.13526e-06
1.16115e-06
1.142e-06
1.06448e-06
9.65393e-07
9.58573e-07
1.18503e-06
1.90762e-06
2.8329e-05
1.889e-05
1.11232e-05
5.8182e-06
3.04126e-06
2.2353e-06
2.34559e-06
2.61026e-06
2.73832e-06
2.70672e-06
2.51281e-06
2.25368e-06
2.01267e-06
2.13545e-06
3.01929e-05
1.95854e-05
1.14382e-05
6.28155e-06
3.91485e-06
3.64504e-06
4.25809e-06
4.94057e-06
5.43802e-06
5.65457e-06
5.48118e-06
4.97136e-06
4.23574e-06
3.74519e-06
3.13594e-05
1.98479e-05
1.16434e-05
6.87655e-06
5.14463e-06
5.56048e-06
6.79925e-06
8.07756e-06
9.20427e-06
9.96795e-06
1.01096e-05
9.50759e-06
8.38787e-06
7.36242e-06
4.0346e-05
3.54953e-05
3.10024e-05
2.64421e-05
2.19621e-05
1.76558e-05
1.38468e-05
1.03796e-05
7.47626e-06
5.05884e-06
3.32058e-06
3.2409e-06
5.8008e-06
1.1934e-05
2.66074e-05
2.4113e-05
2.12816e-05
1.8124e-05
1.47916e-05
1.15646e-05
8.72298e-06
6.29057e-06
4.432e-06
2.95587e-06
2.08135e-06
2.64813e-06
5.73524e-06
1.19487e-05
1.58273e-05
1.41858e-05
1.21579e-05
9.91961e-06
7.5999e-06
5.55255e-06
3.90837e-06
2.65199e-06
1.85597e-06
1.29896e-06
1.12658e-06
2.22566e-06
5.649e-06
1.18514e-05
9.25429e-06
7.58213e-06
5.77477e-06
4.10522e-06
2.72544e-06
1.74724e-06
1.07521e-06
6.85605e-07
4.97383e-07
4.11291e-07
6.04523e-07
1.92136e-06
5.36813e-06
1.12807e-05
7.44399e-06
5.55749e-06
3.69821e-06
2.16961e-06
1.10613e-06
4.87226e-07
2.05901e-07
1.03102e-07
7.86879e-08
1.08481e-07
4.09269e-07
1.71167e-06
4.92156e-06
1.02677e-05
9.18857e-06
7.11047e-06
4.75544e-06
2.6105e-06
1.16446e-06
4.16226e-07
1.14656e-07
2.49674e-08
9.24472e-09
4.54529e-08
3.44422e-07
1.5257e-06
4.3573e-06
9.00456e-06
1.2222e-05
9.6689e-06
6.30826e-06
3.33252e-06
1.40685e-06
4.64871e-07
1.17132e-07
2.42523e-08
7.22653e-09
3.68136e-08
2.99128e-07
1.31469e-06
3.71121e-06
7.59506e-06
1.59817e-05
1.27887e-05
8.44862e-06
4.49468e-06
1.87997e-06
6.17187e-07
1.74353e-07
6.38103e-08
3.85149e-08
5.30868e-08
2.5451e-07
1.04732e-06
2.93491e-06
6.03778e-06
2.03385e-05
1.63196e-05
1.09715e-05
5.9311e-06
2.52365e-06
8.91508e-07
3.49626e-07
2.26705e-07
1.86756e-07
1.75226e-07
2.9353e-07
8.31399e-07
2.16453e-06
4.44926e-06
2.56511e-05
2.03889e-05
1.37554e-05
7.5379e-06
3.32121e-06
1.37005e-06
8.00782e-07
7.22014e-07
6.91884e-07
6.60729e-07
6.7232e-07
9.22177e-07
1.6434e-06
3.04853e-06
3.14726e-05
2.45818e-05
1.64464e-05
9.11044e-06
4.25122e-06
2.16886e-06
1.7591e-06
1.88097e-06
1.98408e-06
2.02404e-06
1.96428e-06
1.94865e-06
2.09005e-06
2.6991e-06
3.76474e-05
2.86781e-05
1.88391e-05
1.0534e-05
5.34267e-06
3.42984e-06
3.45281e-06
4.02702e-06
4.53558e-06
4.89483e-06
4.92462e-06
4.70727e-06
4.29241e-06
4.20543e-06
4.3378e-05
3.20295e-05
2.06671e-05
1.17588e-05
6.6227e-06
5.19411e-06
5.91347e-06
7.20746e-06
8.47562e-06
9.54023e-06
1.0024e-05
9.85073e-06
9.0394e-06
8.35227e-06
4.80303e-05
3.44268e-05
2.19947e-05
1.28527e-05
8.07165e-06
7.30732e-06
8.83005e-06
1.10187e-05
1.33385e-05
1.55328e-05
1.70646e-05
1.75531e-05
1.69194e-05
1.60241e-05
4.35337e-06
7.03031e-06
1.10716e-05
1.64944e-05
3.5724e-05
3.43966e-05
4.57037e-06
7.51665e-06
1.19499e-05
1.77081e-05
3.34303e-05
3.32634e-05
5.14959e-06
8.76986e-06
1.42505e-05
2.15623e-05
3.76782e-05
3.25732e-05
5.67287e-06
1.00283e-05
1.66945e-05
2.59408e-05
4.41952e-05
3.28017e-05
5.97881e-06
1.08313e-05
1.84346e-05
2.97764e-05
5.22931e-05
3.4111e-05
6.05154e-06
1.10102e-05
1.90175e-05
3.22531e-05
6.06954e-05
3.61298e-05
5.88983e-06
1.05519e-05
1.825e-05
3.26086e-05
6.75615e-05
3.84382e-05
5.4808e-06
9.58593e-06
1.65609e-05
3.09667e-05
7.09612e-05
4.08787e-05
4.82968e-06
8.30511e-06
1.43368e-05
2.79708e-05
7.10591e-05
4.25193e-05
3.91183e-06
6.73094e-06
1.17539e-05
2.39663e-05
6.69383e-05
4.29938e-05
2.92096e-06
5.1077e-06
9.15392e-06
1.94189e-05
5.93971e-05
4.23668e-05
2.16925e-06
3.84014e-06
7.07503e-06
1.54062e-05
4.89727e-05
4.12434e-05
2.1039e-06
3.56075e-06
6.45146e-06
1.31055e-05
3.90192e-05
3.98246e-05
3.1669e-06
4.89354e-06
8.05598e-06
1.32561e-05
3.35536e-05
3.74402e-05
1.02237e-05
1.56294e-05
2.21109e-05
2.69714e-05
3.28425e-05
3.04491e-05
1.05246e-05
1.66065e-05
2.43531e-05
3.17355e-05
3.77725e-05
3.12711e-05
1.10607e-05
1.79417e-05
2.71603e-05
3.70722e-05
4.59321e-05
3.33806e-05
1.13166e-05
1.88505e-05
2.92745e-05
4.15359e-05
5.41216e-05
3.66373e-05
1.10083e-05
1.85966e-05
2.94791e-05
4.37798e-05
6.12654e-05
4.02528e-05
1.02416e-05
1.72688e-05
2.7649e-05
4.32936e-05
6.65413e-05
4.33042e-05
9.12237e-06
1.50932e-05
2.40806e-05
3.97879e-05
6.92627e-05
4.5226e-05
7.81081e-06
1.25861e-05
1.99876e-05
3.42466e-05
6.78284e-05
4.59739e-05
6.33671e-06
1.00502e-05
1.58758e-05
2.80483e-05
6.23575e-05
4.52068e-05
4.73265e-06
7.54643e-06
1.20504e-05
2.20255e-05
5.34235e-05
4.30394e-05
3.41125e-06
5.55082e-06
9.10697e-06
1.71329e-05
4.3069e-05
4.02765e-05
2.94632e-06
4.7911e-06
7.98068e-06
1.46096e-05
3.41449e-05
3.74685e-05
4.0639e-06
6.31961e-06
9.985e-06
1.57321e-05
2.84773e-05
3.51587e-05
7.47058e-06
1.09716e-05
1.58323e-05
2.07607e-05
2.74761e-05
3.25364e-05
2.21231e-05
3.09355e-05
4.01988e-05
4.81666e-05
5.07772e-05
3.46526e-05
2.13655e-05
3.12257e-05
4.19942e-05
5.24261e-05
5.65724e-05
4.08057e-05
2.06462e-05
3.08409e-05
4.25479e-05
5.44134e-05
6.03615e-05
4.66885e-05
1.93273e-05
2.92902e-05
4.09486e-05
5.33935e-05
6.17886e-05
5.10131e-05
1.72756e-05
2.62629e-05
3.68802e-05
4.92976e-05
6.06022e-05
5.33885e-05
1.48775e-05
2.23934e-05
3.14365e-05
4.329e-05
5.74482e-05
5.38688e-05
1.23781e-05
1.83138e-05
2.55436e-05
3.624e-05
5.28232e-05
5.25996e-05
9.87778e-06
1.43195e-05
1.99541e-05
2.86796e-05
4.64895e-05
4.94904e-05
7.47615e-06
1.07602e-05
1.50048e-05
2.17221e-05
3.84718e-05
4.47087e-05
5.30896e-06
7.79852e-06
1.11428e-05
1.64793e-05
3.04066e-05
3.92764e-05
4.10795e-06
6.26854e-06
9.37631e-06
1.41655e-05
2.50346e-05
3.49745e-05
4.81128e-06
7.4912e-06
1.14908e-05
1.68268e-05
2.58239e-05
3.31741e-05
8.4276e-06
1.29343e-05
1.91278e-05
2.59029e-05
3.3325e-05
3.30947e-05
1.55928e-05
2.26189e-05
3.12231e-05
3.89977e-05
4.36301e-05
3.26521e-05
5.73039e-06
8.52944e-06
1.22507e-05
1.60098e-05
3.30818e-05
3.5015e-05
6.5324e-06
9.88351e-06
1.45294e-05
1.95309e-05
3.44478e-05
3.3776e-05
7.6873e-06
1.18811e-05
1.78368e-05
2.47612e-05
4.08348e-05
3.31593e-05
8.61304e-06
1.35864e-05
2.08323e-05
3.01851e-05
4.94548e-05
3.36395e-05
8.98184e-06
1.4348e-05
2.24096e-05
3.42305e-05
5.88702e-05
3.51453e-05
8.7341e-06
1.39666e-05
2.21256e-05
3.59102e-05
6.71492e-05
3.70919e-05
8.05955e-06
1.2763e-05
2.04018e-05
3.515e-05
7.28169e-05
3.88604e-05
7.19156e-06
1.12365e-05
1.80103e-05
3.26169e-05
7.51217e-05
4.01483e-05
6.17525e-06
9.55745e-06
1.53989e-05
2.91554e-05
7.3737e-05
4.11173e-05
5.13456e-06
7.93942e-06
1.29796e-05
2.53967e-05
6.89638e-05
4.10704e-05
4.6777e-06
7.09794e-06
1.14472e-05
2.23379e-05
6.13319e-05
4.0155e-05
5.72166e-06
8.14946e-06
1.21654e-05
2.10839e-05
5.23522e-05
3.93159e-05
8.90391e-06
1.21113e-05
1.63238e-05
2.29742e-05
4.40639e-05
3.8646e-05
1.46146e-05
1.92189e-05
2.3858e-05
2.75867e-05
4.1635e-05
3.60354e-05
1.37094e-05
1.94545e-05
2.51117e-05
2.80158e-05
3.18245e-05
3.07925e-05
1.47597e-05
2.15619e-05
2.90596e-05
3.52744e-05
4.00196e-05
3.17533e-05
1.59876e-05
2.38192e-05
3.3198e-05
4.2421e-05
5.05103e-05
3.43491e-05
1.63837e-05
2.47021e-05
3.54389e-05
4.77379e-05
6.03739e-05
3.81415e-05
1.55862e-05
2.35273e-05
3.45408e-05
4.92209e-05
6.7614e-05
4.19375e-05
1.39105e-05
2.07849e-05
3.08556e-05
4.66694e-05
7.11837e-05
4.46325e-05
1.1888e-05
1.7426e-05
2.58185e-05
4.11821e-05
7.10179e-05
4.57297e-05
9.86841e-06
1.41532e-05
2.07911e-05
3.4684e-05
6.75314e-05
4.52326e-05
8.00339e-06
1.13714e-05
1.66891e-05
2.8625e-05
6.07336e-05
4.3693e-05
6.87467e-06
9.77013e-06
1.44514e-05
2.46201e-05
5.23383e-05
4.17618e-05
7.74823e-06
1.08097e-05
1.54266e-05
2.42831e-05
4.55977e-05
3.94887e-05
1.18468e-05
1.60334e-05
2.12216e-05
2.87326e-05
4.10556e-05
3.77516e-05
1.95741e-05
2.58501e-05
3.16734e-05
3.71072e-05
3.94581e-05
3.63136e-05
3.0459e-05
3.82302e-05
4.3859e-05
4.58406e-05
4.19833e-05
3.30916e-05
2.74218e-05
3.58975e-05
4.39629e-05
5.08892e-05
5.05474e-05
3.5237e-05
2.76918e-05
3.76397e-05
4.73501e-05
5.69004e-05
5.77967e-05
4.20191e-05
2.72869e-05
3.75785e-05
4.84889e-05
5.93354e-05
6.25022e-05
4.82638e-05
2.54282e-05
3.50244e-05
4.56747e-05
5.71152e-05
6.35276e-05
5.24672e-05
2.2268e-05
3.03143e-05
3.95874e-05
5.09157e-05
6.07287e-05
5.43269e-05
1.8534e-05
2.4793e-05
3.21643e-05
4.25154e-05
5.48989e-05
5.39885e-05
1.49526e-05
1.95936e-05
2.50896e-05
3.38557e-05
4.80826e-05
5.17186e-05
1.18253e-05
1.5249e-05
1.95145e-05
2.68438e-05
4.06435e-05
4.79722e-05
9.60459e-06
1.25477e-05
1.63789e-05
2.27189e-05
3.48594e-05
4.39186e-05
9.63238e-06
1.29115e-05
1.72898e-05
2.35282e-05
3.40024e-05
4.15554e-05
1.38276e-05
1.84654e-05
2.43613e-05
3.13159e-05
3.98298e-05
4.17736e-05
2.28418e-05
2.97732e-05
3.7491e-05
4.51978e-05
4.94811e-05
4.31828e-05
3.50561e-05
4.42785e-05
5.2627e-05
6.0435e-05
5.75041e-05
4.37598e-05
4.72922e-05
5.65544e-05
6.36858e-05
6.97348e-05
6.09382e-05
4.15598e-05
3.63157e-05
4.47848e-05
2.8149e-05
2.22308e-05
1.63674e-05
1.19602e-05
4.06149e-05
4.98244e-05
2.5288e-05
1.63326e-05
1.08598e-05
7.47713e-06
4.25448e-05
5.82819e-05
2.41283e-05
1.32177e-05
8.24462e-06
5.46976e-06
4.35832e-05
6.69853e-05
2.51684e-05
1.29403e-05
8.10273e-06
5.49836e-06
4.38387e-05
7.49742e-05
2.8489e-05
1.48031e-05
9.73817e-06
6.99451e-06
4.32224e-05
8.06426e-05
3.30662e-05
1.80052e-05
1.22557e-05
9.02743e-06
4.156e-05
8.34439e-05
3.83503e-05
2.21612e-05
1.5328e-05
1.1271e-05
3.89567e-05
8.27445e-05
4.35777e-05
2.71927e-05
1.9113e-05
1.39582e-05
3.67978e-05
7.75855e-05
4.72463e-05
3.22941e-05
2.33226e-05
1.70719e-05
3.47639e-05
7.00649e-05
4.83861e-05
3.61331e-05
2.70624e-05
2.00567e-05
3.30635e-05
6.19751e-05
4.6965e-05
3.78824e-05
2.95237e-05
2.23389e-05
3.21347e-05
5.41194e-05
4.3357e-05
3.74833e-05
3.04426e-05
2.35369e-05
3.2182e-05
4.75346e-05
3.81438e-05
3.5366e-05
2.99383e-05
2.37726e-05
3.30725e-05
4.37297e-05
3.29519e-05
3.22395e-05
2.91496e-05
2.38529e-05
3.32165e-05
4.23705e-05
4.24957e-05
3.90103e-05
3.18241e-05
2.44337e-05
3.75923e-05
4.28286e-05
3.5933e-05
2.87866e-05
2.13375e-05
1.52615e-05
4.0347e-05
4.57954e-05
2.93929e-05
2.03222e-05
1.38757e-05
9.53372e-06
4.26662e-05
4.99814e-05
2.51403e-05
1.55161e-05
1.03428e-05
7.22561e-06
4.442e-05
5.56875e-05
2.47206e-05
1.47208e-05
1.03602e-05
7.83164e-06
4.53964e-05
6.24608e-05
2.79604e-05
1.69535e-05
1.26298e-05
1.00982e-05
4.56601e-05
6.89667e-05
3.4025e-05
2.12658e-05
1.62274e-05
1.3089e-05
4.56468e-05
7.25044e-05
4.19806e-05
2.76221e-05
2.12261e-05
1.70182e-05
4.49083e-05
7.29706e-05
4.98136e-05
3.53048e-05
2.7337e-05
2.18021e-05
4.30936e-05
7.13537e-05
5.58927e-05
4.28555e-05
3.39517e-05
2.71437e-05
4.0265e-05
6.83061e-05
5.94074e-05
4.89621e-05
4.01327e-05
3.23906e-05
3.68173e-05
6.32338e-05
5.96551e-05
5.26501e-05
4.51331e-05
3.7058e-05
3.35415e-05
5.59244e-05
5.63902e-05
5.33749e-05
4.83351e-05
4.06104e-05
3.12781e-05
4.75678e-05
5.04022e-05
5.18567e-05
5.03945e-05
4.41132e-05
4.09108e-05
5.98876e-05
6.41971e-05
5.78011e-05
4.94299e-05
3.98401e-05
4.38418e-05
5.82517e-05
5.66705e-05
4.7809e-05
3.76107e-05
2.7736e-05
4.42835e-05
5.19341e-05
4.41063e-05
3.49531e-05
2.53279e-05
1.75348e-05
4.35988e-05
4.32893e-05
3.16093e-05
2.34472e-05
1.62518e-05
1.11265e-05
4.31373e-05
3.67744e-05
2.34065e-05
1.7011e-05
1.23532e-05
9.23744e-06
4.40791e-05
3.50786e-05
2.08202e-05
1.56788e-05
1.26633e-05
1.06903e-05
4.63188e-05
3.73947e-05
2.26615e-05
1.75614e-05
1.52754e-05
1.3595e-05
4.89558e-05
4.17612e-05
2.74773e-05
2.17341e-05
1.9356e-05
1.75517e-05
5.1049e-05
4.67262e-05
3.41569e-05
2.77094e-05
2.46713e-05
2.24708e-05
5.20878e-05
5.14117e-05
4.19061e-05
3.51013e-05
3.13493e-05
2.85347e-05
5.18999e-05
5.62576e-05
5.03108e-05
4.36626e-05
3.92306e-05
3.54849e-05
5.03689e-05
5.98087e-05
5.85788e-05
5.2917e-05
4.81581e-05
4.32551e-05
4.71878e-05
6.04694e-05
6.46513e-05
6.10771e-05
5.70819e-05
5.12885e-05
4.2295e-05
5.85186e-05
6.8198e-05
6.75441e-05
6.51416e-05
5.9635e-05
3.82364e-05
3.85835e-05
1.49761e-05
8.11735e-06
4.52298e-06
2.81605e-06
4.24055e-05
4.49884e-05
1.52979e-05
7.35018e-06
4.01076e-06
2.42098e-06
4.45531e-05
5.45905e-05
1.74158e-05
8.37166e-06
4.9346e-06
3.13123e-06
4.54409e-05
6.41516e-05
2.12617e-05
1.07266e-05
6.82962e-06
4.62335e-06
4.56808e-05
7.15052e-05
2.62802e-05
1.39752e-05
9.27731e-06
6.45904e-06
4.47004e-05
7.63961e-05
3.19538e-05
1.78906e-05
1.20743e-05
8.39924e-06
4.22907e-05
7.85351e-05
3.7843e-05
2.24096e-05
1.5193e-05
1.04455e-05
3.88098e-05
7.71307e-05
4.29149e-05
2.72294e-05
1.86326e-05
1.26776e-05
3.60134e-05
7.11961e-05
4.5622e-05
3.15385e-05
2.21609e-05
1.51704e-05
3.36956e-05
6.35173e-05
4.55591e-05
3.40627e-05
2.47913e-05
1.72242e-05
3.19943e-05
5.58331e-05
4.31428e-05
3.43698e-05
2.59236e-05
1.83784e-05
3.12136e-05
4.91146e-05
3.91529e-05
3.30614e-05
2.58327e-05
1.87894e-05
3.13798e-05
4.42041e-05
3.45231e-05
3.098e-05
2.50108e-05
1.87428e-05
3.22472e-05
4.32249e-05
3.16263e-05
2.93898e-05
2.50366e-05
1.93637e-05
3.3247e-05
3.07506e-05
2.03715e-05
1.40789e-05
8.8188e-06
5.80494e-06
3.72652e-05
3.23734e-05
1.60111e-05
9.4349e-06
5.58379e-06
3.52701e-06
4.04448e-05
3.74628e-05
1.4911e-05
8.24531e-06
5.15857e-06
3.34705e-06
4.32047e-05
4.49395e-05
1.69332e-05
9.72199e-06
6.66246e-06
4.67949e-06
4.53491e-05
5.31638e-05
2.12953e-05
1.28869e-05
9.32426e-06
6.90029e-06
4.66054e-05
6.0934e-05
2.73766e-05
1.71591e-05
1.2737e-05
9.5559e-06
4.66281e-05
6.71049e-05
3.47698e-05
2.25307e-05
1.68081e-05
1.25601e-05
4.55305e-05
7.02387e-05
4.28055e-05
2.90261e-05
2.1724e-05
1.61253e-05
4.3927e-05
6.93742e-05
4.96375e-05
3.59479e-05
2.71713e-05
2.0229e-05
4.15833e-05
6.61821e-05
5.39385e-05
4.18977e-05
3.24083e-05
2.43282e-05
3.85702e-05
6.17535e-05
5.5451e-05
4.59159e-05
3.65688e-05
2.78105e-05
3.52912e-05
5.63012e-05
5.41873e-05
4.76881e-05
3.94714e-05
3.06632e-05
3.24576e-05
5.00869e-05
5.06482e-05
4.75704e-05
4.1391e-05
3.30112e-05
3.06367e-05
4.42618e-05
4.61124e-05
4.67165e-05
4.36875e-05
3.6604e-05
3.27376e-05
4.46845e-05
3.70171e-05
2.79228e-05
1.83847e-05
1.22266e-05
3.39947e-05
3.44949e-05
2.47976e-05
1.70407e-05
1.0391e-05
6.47998e-06
3.46089e-05
2.71531e-05
1.62549e-05
1.08175e-05
6.81399e-06
4.32901e-06
3.60408e-05
2.52135e-05
1.34518e-05
9.49813e-06
6.80541e-06
4.76914e-06
3.90486e-05
2.80095e-05
1.48296e-05
1.13273e-05
8.91792e-06
6.91169e-06
4.29801e-05
3.34348e-05
1.8608e-05
1.46603e-05
1.22112e-05
9.87016e-06
4.68201e-05
3.94505e-05
2.38463e-05
1.89871e-05
1.61737e-05
1.334e-05
4.97937e-05
4.46974e-05
3.02991e-05
2.42934e-05
2.08715e-05
1.74847e-05
5.15124e-05
4.89361e-05
3.70748e-05
3.03282e-05
2.62144e-05
2.22363e-05
5.19869e-05
5.21796e-05
4.36312e-05
3.68897e-05
3.22112e-05
2.7522e-05
5.12892e-05
5.51777e-05
4.99338e-05
4.36889e-05
3.85041e-05
3.3017e-05
4.93551e-05
5.71269e-05
5.57753e-05
5.04315e-05
4.50367e-05
3.8768e-05
4.59984e-05
5.73939e-05
6.02036e-05
5.6482e-05
5.17212e-05
4.4918e-05
4.12504e-05
5.59231e-05
6.32923e-05
6.20239e-05
5.89997e-05
5.2799e-05
4.43232e-05
3.79997e-05
3.23716e-05
2.70496e-05
2.22272e-05
1.7727e-05
1.38503e-05
1.03375e-05
7.24854e-06
4.82146e-06
3.50939e-06
4.63059e-06
9.44231e-06
1.89595e-05
3.23373e-05
2.84873e-05
2.44319e-05
2.01345e-05
1.59088e-05
1.19763e-05
8.72535e-06
6.0305e-06
4.08432e-06
2.66407e-06
2.19823e-06
3.86614e-06
8.88737e-06
1.76429e-05
2.11362e-05
1.81837e-05
1.49745e-05
1.16057e-05
8.41415e-06
5.76506e-06
3.84004e-06
2.4293e-06
1.60377e-06
1.11217e-06
1.26095e-06
3.24743e-06
8.26442e-06
1.63536e-05
1.2552e-05
9.88162e-06
7.22385e-06
4.87425e-06
3.03911e-06
1.79337e-06
1.03261e-06
5.82291e-07
3.91598e-07
3.44674e-07
7.40325e-07
2.68263e-06
7.30639e-06
1.45393e-05
8.77852e-06
6.27587e-06
4.0089e-06
2.27619e-06
1.13411e-06
4.84776e-07
1.84003e-07
7.95683e-08
5.64786e-08
1.02912e-07
5.17562e-07
2.21725e-06
6.22768e-06
1.24899e-05
9.5497e-06
7.07736e-06
4.58416e-06
2.4861e-06
1.10104e-06
3.90255e-07
1.05543e-07
2.14777e-08
7.02056e-09
5.12232e-08
4.06558e-07
1.79934e-06
5.11203e-06
1.03238e-05
1.22808e-05
9.53736e-06
6.1076e-06
3.18181e-06
1.32895e-06
4.35917e-07
1.09937e-07
2.33769e-08
7.60183e-09
4.10226e-08
3.287e-07
1.44828e-06
4.09363e-06
8.29899e-06
1.58446e-05
1.26592e-05
8.35759e-06
4.41971e-06
1.83012e-06
5.94611e-07
1.69015e-07
6.49579e-08
4.18025e-08
6.01184e-08
2.70546e-07
1.0997e-06
3.0917e-06
6.368e-06
1.97224e-05
1.62577e-05
1.11523e-05
6.0713e-06
2.56817e-06
8.95427e-07
3.51169e-07
2.35543e-07
2.02892e-07
2.06031e-07
3.36319e-07
8.85463e-07
2.2392e-06
4.60248e-06
2.44843e-05
2.05466e-05
1.4483e-05
8.14001e-06
3.60128e-06
1.44829e-06
8.2227e-07
7.55053e-07
7.52552e-07
7.80383e-07
8.40871e-07
1.12863e-06
1.84954e-06
3.27947e-06
2.98805e-05
2.50454e-05
1.78689e-05
1.03206e-05
4.86141e-06
2.35385e-06
1.81517e-06
1.97455e-06
2.17018e-06
2.38763e-06
2.4954e-06
2.6388e-06
2.85549e-06
3.53492e-06
3.62013e-05
2.97463e-05
2.11776e-05
1.25325e-05
6.37597e-06
3.75398e-06
3.56868e-06
4.23726e-06
4.97612e-06
5.71033e-06
6.14119e-06
6.35083e-06
6.21362e-06
6.37341e-06
4.28309e-05
3.41222e-05
2.40475e-05
1.45708e-05
8.09318e-06
5.67661e-06
6.12728e-06
7.57942e-06
9.22539e-06
1.08726e-05
1.20475e-05
1.27235e-05
1.25847e-05
1.25743e-05
4.96245e-05
3.80693e-05
2.6541e-05
1.641e-05
9.92884e-06
7.98732e-06
9.18742e-06
1.15139e-05
1.41807e-05
1.70852e-05
1.95454e-05
2.14491e-05
2.22461e-05
2.29253e-05
3.06092e-05
2.79894e-05
2.51369e-05
2.1569e-05
1.7993e-05
1.43921e-05
1.11669e-05
8.31106e-06
5.81251e-06
3.85296e-06
2.70791e-06
3.28425e-06
6.17344e-06
1.11622e-05
2.3359e-05
2.12287e-05
1.85657e-05
1.53072e-05
1.19737e-05
8.87419e-06
6.36128e-06
4.35954e-06
2.94442e-06
1.95548e-06
1.56968e-06
2.63429e-06
5.89636e-06
1.11003e-05
1.5623e-05
1.3338e-05
1.08223e-05
8.16722e-06
5.75802e-06
3.83827e-06
2.5089e-06
1.57633e-06
1.04863e-06
7.57479e-07
8.50298e-07
2.15735e-06
5.53768e-06
1.08517e-05
9.54405e-06
7.17363e-06
5.01588e-06
3.221e-06
1.91515e-06
1.07794e-06
5.94517e-07
3.3702e-07
2.34891e-07
2.21217e-07
4.79228e-07
1.75455e-06
4.92038e-06
9.97024e-06
7.20477e-06
4.91889e-06
3.02294e-06
1.65071e-06
7.81971e-07
3.09738e-07
1.09622e-07
4.46646e-08
3.28654e-08
6.51547e-08
3.30338e-07
1.44656e-06
4.22867e-06
8.81859e-06
8.34645e-06
5.86819e-06
3.59459e-06
1.85424e-06
7.86906e-07
2.67886e-07
6.91249e-08
1.31515e-08
4.34651e-09
3.3181e-08
2.59107e-07
1.17551e-06
3.50206e-06
7.45202e-06
1.07265e-05
7.71335e-06
4.59283e-06
2.25976e-06
9.01922e-07
2.85146e-07
6.97775e-08
1.47997e-08
5.20611e-09
2.6807e-08
2.0945e-07
9.4859e-07
2.82574e-06
6.09987e-06
1.3551e-05
1.0009e-05
6.13163e-06
3.02946e-06
1.18732e-06
3.71922e-07
1.05875e-07
4.28411e-08
2.79002e-08
3.91718e-08
1.74223e-07
7.28241e-07
2.15249e-06
4.7142e-06
1.64868e-05
1.27215e-05
8.07839e-06
4.08704e-06
1.62825e-06
5.55111e-07
2.28052e-07
1.58598e-07
1.33038e-07
1.30264e-07
2.13188e-07
5.86342e-07
1.56901e-06
3.43051e-06
1.99579e-05
1.5901e-05
1.04585e-05
5.47291e-06
2.29149e-06
9.24502e-07
5.57638e-07
5.13491e-07
4.90576e-07
4.89784e-07
5.21856e-07
7.20929e-07
1.25895e-06
2.38464e-06
2.34481e-05
1.90583e-05
1.28614e-05
6.97933e-06
3.14549e-06
1.57215e-06
1.27774e-06
1.36476e-06
1.42888e-06
1.51757e-06
1.56004e-06
1.661e-06
1.85697e-06
2.40752e-06
2.70392e-05
2.20999e-05
1.52302e-05
8.60627e-06
4.26561e-06
2.63719e-06
2.6004e-06
3.00843e-06
3.36764e-06
3.73436e-06
3.9383e-06
4.05574e-06
3.99614e-06
4.1205e-06
2.98368e-05
2.44206e-05
1.71669e-05
1.01935e-05
5.64268e-06
4.18946e-06
4.63591e-06
5.58357e-06
6.50785e-06
7.3782e-06
7.93611e-06
8.20339e-06
7.94578e-06
7.72943e-06
3.23458e-05
2.62447e-05
1.88097e-05
1.17426e-05
7.25907e-06
6.18234e-06
7.23969e-06
8.84647e-06
1.04615e-05
1.1981e-05
1.30366e-05
1.36177e-05
1.33272e-05
1.29311e-05
2.12161e-05
1.96763e-05
1.77117e-05
1.51425e-05
1.23938e-05
9.72652e-06
7.35304e-06
5.38488e-06
3.81138e-06
2.52228e-06
1.64175e-06
1.59285e-06
2.99868e-06
6.07663e-06
1.44238e-05
1.29844e-05
1.11483e-05
9.00367e-06
6.88175e-06
5.01111e-06
3.52439e-06
2.42406e-06
1.6724e-06
1.14038e-06
8.14794e-07
1.11821e-06
2.75292e-06
6.04042e-06
8.60279e-06
6.99163e-06
5.40807e-06
3.91651e-06
2.68876e-06
1.77609e-06
1.1539e-06
7.46806e-07
5.20665e-07
3.91586e-07
3.63983e-07
8.40953e-07
2.52566e-06
5.8822e-06
5.20448e-06
3.58495e-06
2.32263e-06
1.39891e-06
7.92264e-07
4.30029e-07
2.28848e-07
1.37533e-07
1.04526e-07
9.88925e-08
1.70343e-07
6.66074e-07
2.23614e-06
5.42985e-06
4.82947e-06
3.11431e-06
1.82271e-06
9.47033e-07
4.21342e-07
1.54717e-07
4.96937e-08
1.85997e-08
1.37271e-08
2.30625e-08
1.09928e-07
5.58202e-07
1.93913e-06
4.79692e-06
6.32185e-06
4.12945e-06
2.32748e-06
1.11551e-06
4.47201e-07
1.44905e-07
3.58187e-08
6.49577e-09
1.66113e-09
9.81053e-09
8.87728e-08
4.7153e-07
1.63703e-06
4.08989e-06
8.16362e-06
5.2465e-06
2.85177e-06
1.29869e-06
4.8676e-07
1.46189e-07
3.42748e-08
6.8558e-09
1.99238e-09
8.12205e-09
7.50085e-08
3.94552e-07
1.35536e-06
3.37819e-06
1.01399e-05
6.71219e-06
3.68544e-06
1.65215e-06
5.97696e-07
1.76465e-07
4.83872e-08
1.87741e-08
1.14298e-08
1.36318e-08
6.5837e-08
3.16351e-07
1.06242e-06
2.63978e-06
1.23455e-05
8.46103e-06
4.74468e-06
2.13673e-06
7.77469e-07
2.5397e-07
1.05845e-07
7.23859e-08
5.72514e-08
5.06669e-08
8.28733e-08
2.603e-07
7.92692e-07
1.94115e-06
1.48266e-05
1.04628e-05
6.02536e-06
2.77743e-06
1.0666e-06
4.34059e-07
2.77243e-07
2.48889e-07
2.22599e-07
2.04263e-07
2.07567e-07
3.01972e-07
6.07767e-07
1.3127e-06
1.72515e-05
1.24252e-05
7.32819e-06
3.49505e-06
1.47598e-06
7.93161e-07
6.85738e-07
7.05368e-07
6.88765e-07
6.81294e-07
6.64545e-07
6.94259e-07
8.14677e-07
1.17115e-06
1.95688e-05
1.42543e-05
8.61557e-06
4.30928e-06
2.06939e-06
1.44432e-06
1.49915e-06
1.6649e-06
1.74522e-06
1.83025e-06
1.85029e-06
1.86091e-06
1.83553e-06
1.93485e-06
2.12012e-05
1.56201e-05
9.72843e-06
5.1958e-06
2.89748e-06
2.48967e-06
2.86826e-06
3.32938e-06
3.67678e-06
3.99709e-06
4.16889e-06
4.22526e-06
4.07205e-06
3.9377e-06
2.24217e-05
1.6581e-05
1.07523e-05
6.20548e-06
4.01894e-06
3.9778e-06
4.82403e-06
5.71611e-06
6.5004e-06
7.20436e-06
7.65302e-06
7.83536e-06
7.58423e-06
7.25034e-06
1.18935e-05
1.08858e-05
9.61466e-06
8.06468e-06
6.47384e-06
4.9413e-06
3.63527e-06
2.61896e-06
1.86735e-06
1.26339e-06
8.00069e-07
5.86733e-07
9.67433e-07
2.33602e-06
6.51728e-06
5.60401e-06
4.65557e-06
3.66137e-06
2.75069e-06
1.97314e-06
1.37406e-06
9.57053e-07
6.89395e-07
4.97781e-07
3.34542e-07
3.24228e-07
8.17442e-07
2.29084e-06
3.33973e-06
2.4659e-06
1.7858e-06
1.23666e-06
8.29321e-07
5.39966e-07
3.46226e-07
2.35376e-07
1.80626e-07
1.47383e-07
1.17131e-07
2.09379e-07
7.42911e-07
2.24026e-06
2.37053e-06
1.45737e-06
8.49364e-07
4.60292e-07
2.32946e-07
1.09847e-07
5.5019e-08
3.63704e-08
3.21223e-08
3.21611e-08
4.16248e-08
1.59236e-07
6.67476e-07
2.08477e-06
2.88646e-06
1.72634e-06
9.34026e-07
4.44602e-07
1.78941e-07
5.93382e-08
1.6596e-08
5.34325e-09
3.93398e-09
5.74446e-09
2.23936e-08
1.36453e-07
5.94329e-07
1.85842e-06
3.90357e-06
2.30243e-06
1.17812e-06
5.16649e-07
1.91104e-07
5.72769e-08
1.31588e-08
2.22141e-09
4.73123e-10
1.62204e-09
1.76167e-08
1.19077e-07
5.1519e-07
1.60174e-06
4.99329e-06
2.84557e-06
1.3867e-06
5.72221e-07
1.96509e-07
5.44332e-08
1.1852e-08
2.21095e-09
5.75411e-10
1.28443e-09
1.51685e-08
1.01934e-07
4.3515e-07
1.3297e-06
6.26162e-06
3.58605e-06
1.72179e-06
6.86144e-07
2.24193e-07
6.0629e-08
1.55504e-08
5.77141e-09
3.33483e-09
2.91813e-09
1.38468e-08
8.34342e-08
3.45267e-07
1.03477e-06
7.69644e-06
4.47252e-06
2.14768e-06
8.42819e-07
2.73955e-07
8.3551e-08
3.4683e-08
2.33327e-08
1.75281e-08
1.34912e-08
1.92424e-08
6.9481e-08
2.57884e-07
7.53089e-07
9.26277e-06
5.4852e-06
2.66051e-06
1.0547e-06
3.65115e-07
1.48292e-07
9.91695e-08
8.67062e-08
7.31366e-08
6.06446e-08
5.56528e-08
8.02583e-08
1.8987e-07
4.94879e-07
1.07437e-05
6.45511e-06
3.17583e-06
1.30023e-06
5.16326e-07
3.00474e-07
2.71821e-07
2.69067e-07
2.46768e-07
2.23972e-07
2.0263e-07
1.99878e-07
2.40992e-07
3.97936e-07
1.21303e-05
7.34785e-06
3.69554e-06
1.60561e-06
7.77065e-07
6.18043e-07
6.58501e-07
7.01591e-07
6.91082e-07
6.7691e-07
6.43931e-07
6.1722e-07
5.93395e-07
6.35607e-07
1.30889e-05
8.0268e-06
4.18141e-06
1.98952e-06
1.20801e-06
1.2002e-06
1.39561e-06
1.56064e-06
1.63396e-06
1.69087e-06
1.68528e-06
1.651e-06
1.55589e-06
1.48113e-06
1.37714e-05
8.61186e-06
4.73515e-06
2.53228e-06
1.89467e-06
2.15062e-06
2.60809e-06
3.00356e-06
3.29553e-06
3.53983e-06
3.65338e-06
3.6514e-06
3.48585e-06
3.2722e-06
5.05586e-06
4.45508e-06
3.83026e-06
3.13786e-06
2.46608e-06
1.84218e-06
1.36933e-06
1.0158e-06
7.60898e-07
5.43437e-07
3.40263e-07
1.97226e-07
2.26232e-07
6.11853e-07
2.09963e-06
1.65392e-06
1.31721e-06
1.01223e-06
7.57892e-07
5.47375e-07
3.99881e-07
3.00532e-07
2.35433e-07
1.82797e-07
1.19781e-07
7.90386e-08
1.61384e-07
5.8946e-07
1.0435e-06
6.47365e-07
4.16322e-07
2.67201e-07
1.73095e-07
1.11337e-07
7.77769e-08
6.08646e-08
5.25583e-08
4.60034e-08
3.30354e-08
3.69741e-08
1.46613e-07
6.04347e-07
1.08221e-06
5.81661e-07
2.94447e-07
1.37022e-07
5.82669e-08
2.33508e-08
1.14768e-08
8.44927e-09
8.25719e-09
8.52107e-09
8.05279e-09
2.46107e-08
1.36263e-07
5.81256e-07
1.56247e-06
8.58334e-07
4.22995e-07
1.81399e-07
6.55902e-08
1.95231e-08
4.82752e-09
1.33386e-09
9.19167e-10
1.1544e-09
2.84856e-09
2.12967e-08