/*--------------------------------*- C++ -*----------------------------------*\
| =========                 |                                                 |
| \\      /  F ield         | OpenFOAM: The Open Source CFD Toolbox           |
|  \\    /   O peration     | Version:  v2106                                 |
|   \\  /    A nd           | Website:  www.openfoam.com                      |
|    \\/     M anipulation  |                                                 |
\*---------------------------------------------------------------------------*/
FoamFile
{
    version     2.0;
    format      ascii;
    arch        "LSB;label=32;scalar=64";
    class       volScalarField;
    location    "0.000172";
    object      p;
}
// * * * * * * * * * * * * * * * * * * * * * * * * * * * * * * * * * * * * * //

dimensions      [1 -1 -2 0 0 0 0];

internalField   nonuniform List<scalar> 
144746
(
201524
200864
199978
199434
198983
198666
198489
198429
198439
198399
198257
198184
198258
198599
200782
200511
199732
199226
198791
198479
198205
198046
197890
197715
197522
197482
197584
197903
200349
200000
199470
199014
198583
198200
197869
197656
197404
197152
196844
196587
196488
196648
199877
199531
199120
198678
198232
197871
197466
197211
196918
196604
196248
195910
195714
195701
199388
199014
198656
198256
197830
197416
197039
196760
196459
196121
195719
195316
195030
194975
198816
198465
198153
197789
197393
197006
196652
196331
196029
195693
195315
194954
194684
194578
198230
197894
197623
197307
196970
196603
196268
195938
195622
195286
194947
194631
194422
194417
197744
197440
197239
196951
196646
196273
195914
195557
195224
194882
194603
194390
194310
194408
197323
197026
196823
196569
196278
195901
195531
195136
194800
194475
194242
194118
194179
194475
197084
196725
196513
196239
195936
195514
195135
194686
194361
194061
193890
193858
194014
194449
196961
196543
196317
195966
195604
195127
194725
194272
193948
193669
193640
193711
194068
194662
197108
196547
196319
195871
195428
194880
194375
193922
193613
193392
193474
193617
194129
194644
197616
196763
196399
195811
195347
194768
194159
193640
193269
193083
193244
193550
194351
194790
197788
196944
196654
196054
195521
194854
194132
193582
193237
193211
193497
193969
195051
195436
201331
200854
200189
199737
199391
199134
199019
198946
198925
198827
198565
198322
198170
198117
200877
200719
200141
199706
199331
199068
198868
198718
198581
198392
198109
197928
197718
197662
200693
200520
200103
199716
199341
198984
198698
198518
198310
198062
197697
197349
196944
196773
200539
200255
199913
199530
199127
198826
198484
198278
198019
197733
197360
196935
196484
196210
200271
199948
199643
199302
198938
198566
198253
198023
197759
197448
197076
196626
196169
195873
199919
199612
199324
199015
198677
198352
198035
197787
197515
197232
196890
196489
196085
195744
199474
199243
198997
198730
198413
198120
197828
197586
197318
197041
196724
196407
196102
195861
199104
198884
198712
198464
198213
197946
197674
197401
197139
196874
196613
196401
196184
196050
198765
198628
198517
198318
198070
197769
197508
197227
196971
196709
196493
196349
196252
196277
198573
198440
198323
198133
197910
197590
197331
197044
196792
196547
196386
196278
196230
196369
198460
198294
198207
197997
197746
197432
197182
196894
196626
196368
196232
196167
196260
196573
198633
198295
198222
197975
197695
197342
197027
196707
196439
196221
196162
196158
196282
196561
199025
198413
198269
197947
197628
197269
196852
196439
196098
195847
195785
195878
196259
196533
199225
198599
198447
198102
197704
197270
196699
196209
195846
195657
195735
195954
196690
196754
202702
202254
201520
201000
200744
200531
200565
200562
200568
200295
199743
198945
198274
197546
202805
202572
201881
201404
201066
200758
200645
200509
200337
199961
199335
198623
197882
197103
203021
202697
202136
201602
201166
200925
200614
200397
200102
199647
198917
198102
197056
196170
203194
202768
202271
201770
201280
200882
200543
200221
199836
199310
198542
197708
196615
195704
203109
202696
202217
201733
201213
200828
200403
200028
199583
199031
198268
197453
196353
195458
202799
202441
202049
201621
201113
200714
200264
199822
199325
198781
198088
197321
196340
195433
202378
202144
201808
201406
200936
200549
200112
199662
199175
198612
198005
197255
196469
195687
201888
201705
201461
201140
200757
200357
199938
199487
199014
198528
197965
197369
196683
195987
201442
201370
201150
200879
200520
200122
199720
199283
198839
198387
197903
197405
196907
196365
201079
201002
200888
200677
200330
199895
199458
198988
198567
198145
197749
197352
196990
196575
200838
200732
200704
200482
200084
199592
199079
198610
198172
197752
197381
197053
196801
196540
200821
200506
200559
200275
199814
199266
198688
198176
197678
197244
196906
196659
196497
196301
200952
200508
200453
200072
199502
198845
198121
197542
196976
196492
196132
195947
196003
195962
200866
200248
200163
199772
199148
198377
197576
196898
196280
195859
195594
195577
195967
195816
199793
200950
201213
202251
202666
204125
197948
199300
199803
201249
201937
203974
197277
198766
199381
200606
201756
204588
195972
197274
198417
200191
201417
204195
195383
196668
197856
199753
200834
204543
194791
195972
197328
199436
200564
204914
194733
195886
197303
199546
200957
203977
194800
195939
197312
199540
200997
203659
194932
196079
197439
199551
201040
203493
195078
196234
197570
199576
201018
203135
195465
196582
197843
199647
200897
202905
195649
196740
198001
199697
200740
202713
196356
197164
198402
199939
200914
202745
196394
197257
198689
200066
201436
202514
199035
200023
200332
201580
202190
203204
197201
198284
199003
200570
201312
203395
196871
197985
198643
200155
200904
203339
195974
196795
197537
199299
199879
203230
195751
196490
197150
199051
199361
203335
195503
196133
196740
198627
198896
203780
195693
196224
196819
198594
199038
202827
195973
196448
197071
198595
199132
202620
196318
196812
197490
198718
199405
201876
196564
197092
197809
198874
199594
201914
196958
197526
198170
199172
199735
201701
197013
197610
198296
199369
199779
201686
197550
197947
198613
199717
200059
201873
197142
197665
198628
199805
200574
201695
198134
198609
198670
198892
199304
199289
196068
196679
197210
198261
199391
201111
195554
196055
196686
198207
199541
202642
194723
194849
195458
197494
199225
204111
194529
194487
195104
197235
198935
204067
194479
194238
194797
196939
198648
203420
194842
194469
194894
196697
198198
202196
195261
194922
195144
196370
197505
200873
195776
195530
195641
196461
196946
198787
196125
195803
195926
196300
196522
197249
196326
196125
196173
196301
196396
196494
196194
196049
196211
196442
196448
196417
196362
196245
196496
196881
196871
197145
195721
195678
196250
197035
197245
198109
197031
198654
199462
200507
201672
202548
194618
196148
197395
199499
200820
203039
194241
195972
196966
199057
200215
203121
193468
195092
196167
198655
199849
203230
193361
194762
195900
198514
199763
203427
193360
194616
195884
198570
199823
203777
193813
194952
196178
198731
199864
204085
194397
195512
196640
199014
200083
204618
195170
196281
197319
199564
200829
203874
195784
196933
197895
199960
201168
203929
196456
197725
198579
200493
201571
203763
197157
198195
199093
200837
201597
203791
197885
198799
199745
201312
201928
204158
198121
199039
200189
201627
202226
204677
197908
199111
199455
200189
200867
201757
196015
196781
197374
198963
199614
201781
195702
196605
197067
198630
198779
201746
195208
195760
196280
198212
198282
201985
195274
195538
196160
198063
198176
202338
195465
195569
196282
198121
198306
202662
195963
196075
196716
198342
198474
203045
196542
196803
197375
198963
199076
203084
197294
197764
198190
199596
199823
202992
197752
198356
198908
200165
200486
203106
198296
199143
199583
200890
201303
203370
198710
199457
199995
201302
201575
203591
199258
199942
200513
201770
201921
203956
199188
199786
200548
201968
202087
204323
196487
197414
197593
197977
198261
199496
194981
195235
195644
196788
198106
200688
194713
194880
195374
196754
197988
201831
194627
194328
194476
196125
197599
202334
194988
194389
194414
196027
197458
202439
195452
194776
194683
196335
197600
202420
196181
195542
195442
196938
198043
202135
196983
196505
196455
197697
198530
201753
197878
197675
197591
198426
198928
201301
198798
198691
198703
199427
199624
200342
199593
199667
199584
199932
199817
200056
199966
200083
200008
200451
200424
200505
200477
200548
200665
201235
201113
201451
199915
200044
200431
201531
201787
203212
206170
205146
204450
203173
202410
201685
206246
205174
204329
203242
202537
201799
206167
205133
204019
202823
201880
201033
206484
204789
203647
202321
201265
200430
206261
204345
203393
201712
200754
199829
207414
203403
202854
201000
200088
199233
206720
203114
202361
200363
199446
198614
206466
202786
201927
199741
198849
198078
206132
202448
201549
199270
198392
197558
205893
202356
201335
199057
198255
197271
205623
202345
201257
199012
198162
197019
205419
202536
201425
199491
198592
197267
205183
202863
201582
199670
198648
197455
204848
203306
202354
201253
200670
199230
205757
204462
203835
202642
201916
201299
205779
204498
203757
202841
202223
201765
205363
204222
203377
202452
201739
201206
205379
203736
202996
202124
201434
200950
205043
203380
202984
201840
201114
200579
205918
202680
202513
201205
200610
200144
205912
201851
201893
200584
200041
199687
205602
201580
201518
199949
199471
199255
205347
201093
201178
199431
198991
198796
204876
200799
201021
199218
198799
198524
204444
200800
200937
199114
198703
198235
204145
201232
201288
199621
199174
198431
203842
201618
201305
199726
199340
198600
203797
202430
202436
201653
201534
200245
203772
203380
202917
202520
202097
202247
203521
203631
203514
203691
203476
203697
203317
203687
203718
204014
203625
203625
204511
204487
204311
204448
203837
203711
206678
205143
204880
204357
203775
203498
208625
205582
204764
203898
203421
203079
209830
205828
204796
203272
202865
202555
210651
205468
204307
202539
202220
202028
210618
204691
203504
201676
201455
201421
209914
204002
202814
201047
200898
200893
208987
203621
202302
200604
200479
200391
207830
203740
202563
200924
200625
200268
206349
203253
202150
200909
200755
200167
204847
203337
203007
202546
202515
201620
204033
203076
202405
201276
200452
199634
204452
203448
202505
201421
200476
199716
204831
203787
202605
201408
200257
199401
205431
204018
202598
201349
200134
199264
205415
203867
202627
201260
200032
199122
206033
203865
202685
200981
199870
198966
206533
203646
202574
200647
199664
198807
207699
202986
202301
200391
199559
198772
207357
203356
202487
200423
199569
198775
207020
203803
202802
200887
200059
199127
207092
204350
203083
201240
200422
199507
207431
204261
203611
202258
201548
200332
206725
204557
204083
202543
201984
200740
206732
205375
205001
203869
203658
202445
203234
202186
201271
200117
199287
198831
203528
202371
201376
200456
199646
199369
203455
202306
201360
200435
199609
199263
204121
202503
201404
200554
199629
199292
204169
202294
201506
200548
199558
199251
204970
202238
201655
200377
199572
199165
205839
201975
201786
200222
199510
199079
206826
202017
201823
200016
199419
199061
206701
202382
202079
200036
199482
199053
206661
202631
202366
200432
199874
199338
206422
202957
202521
200713
200095
199568
206121
203632
203232
201827
201129
200165
205819
203815
203381
202205
201618
200494
205691
204571
204388
203463
203333
202319
198413
198480
198274
198211
197649
197926
198536
199029
199075
199327
199013
199396
199014
199665
199749
199999
199575
199765
200834
200899
200735
200959
200305
200314
203106
202131
201711
201213
200675
200610
206127
202978
201981
201155
200694
200661
208091
203729
202421
201024
200511
200451
209576
204206
202661
200824
200343
200336
210664
204411
202850
200693
200219
200203
211097
204790
203166
200945
200505
200373
210910
205037
203341
201116
200790
200520
209105
205302
204027
202175
201730
201087
207607
204907
203843
202541
202255
201459
205500
204800
204417
203871
203938
203466
204508
203848
203206
202692
202429
202096
201928
201891
201909
201862
201685
201170
200651
200074
204692
204176
203386
202821
202391
202102
201896
201731
201640
201480
201189
200657
200044
199021
204866
204284
203642
203062
202567
202155
201805
201593
201386
201106
200691
199992
199093
198099
204871
204261
203623
203044
202520
202091
201702
201396
201108
200720
200219
199448
198509
197455
204682
204140
203534
202956
202447
201991
201571
201194
200803
200379
199849
199066
198178
197141
204369
203898
203352
202793
202322
201865
201430
201019
200592
200117
199566
198826
198015
197005
203993
203563
203093
202607
202171
201740
201311
200880
200435
199953
199372
198719
197945
197071
203624
203199
202812
202382
201978
201575
201168
200739
200297
199819
199289
198718
198079
197269
203228
202842
202532
202157
201785
201410
201024
200606
200187
199741
199293
198757
198233
197574
202889
202525
202272
201933
201581
201204
200838
200434
200036
199644
199235
198799
198373
197828
202669
202350
202145
201799
201410
200993
200618
200203
199819
199440
199083
198759
198474
198019
202598
202186
201995
201630
201215
200750
200322
199856
199476
199063
198756
198519
198380
197960
202692
202277
201960
201522
201005
200465
199945
199419
198958
198440
198052
197842
197934
197761
202589
201947
201765
201340
200689
200053
199415
198822
198272
197763
197381
197332
197585
197795
206322
205578
204933
204277
203807
203485
203341
203249
203323
203367
203371
203170
202891
202601
206388
205752
205039
204443
203930
203537
203223
203087
203023
202962
202829
202571
202222
201614
206376
205707
205035
204435
203897
203468
203129
202876
202690
202489
202230
201811
201232
200632
206282
205612
204930
204357
203802
203343
202954
202635
202349
202049
201704
201185
200514
199821
206012
205419
204746
204198
203650
203182
202759
202384
202024
201631
201208
200679
199982
199297
205674
205115
204505
203995
203492
203028
202589
202183
201788
201367
200903
200353
199672
198988
205232
204748
204240
203763
203317
202871
202434
202008
201590
201150
200673
200141
199535
198857
204776
204386
203958
203519
203117
202696
202279
201856
201441
201012
200540
200056
199557
198897
204343
204013
203662
203285
202922
202537
202139
201731
201325
200926
200489
200090
199660
199127
203949
203657
203375
203057
202714
202362
201989
201594
201216
200821
200460
200122
199805
199333
203709
203473
203203
202872
202519
202146
201784
201395
201033
200656
200370
200115
199904
199566
203622
203322
203077
202748
202346
201923
201523
201106
200746
200392
200134
199986
199901
199626
203651
203375
202995
202595
202149
201671
201202
200711
200318
199928
199702
199629
199761
199578
203663
203142
202880
202458
201904
201344
200777
200204
199753
199390
199248
199344
199586
199792
207652
206972
206410
205852
205460
205153
204934
204837
204914
205052
205184
205249
205214
205030
207724
207080
206448
205860
205371
204993
204740
204583
204570
204581
204588
204547
204442
204046
207609
206929
206282
205729
205230
204831
204524
204290
204158
204037
203967
203780
203500
203103
207424
206771
206106
205561
205033
204602
204245
203963
203752
203534
203341
203124
202772
202325
207111
206485
205837
205309
204812
204390
204009
203694
203424
203163
202891
202579
202190
201729
206726
206150
205557
205063
204606
204184
203794
203451
203128
202826
202523
202186
201796
201304
206265
205773
205267
204817
204401
203988
203602
203247
202900
202567
202248
201893
201525
201035
205854
205412
204997
204575
204206
203815
203443
203087
202733
202386
202065
201717
201369
200985
205455
205053
204718
204361
204030
203675
203327
202983
202633
202286
201950
201636
201351
200989
205008
204714
204454
204163
203854
203524
203203
202880
202545
202216
201864
201601
201360
201072
204748
204512
204267
204006
203713
203407
203106
202779
202455
202132
201808
201603
201410
201162
204613
204377
204138
203874
203563
203240
202930
202607
202291
201957
201703
201508
201406
201215
204526
204324
204025
203762
203439
203067
202693
202318
201978
201652
201418
201301
201348
201216
204448
204153
203920
203587
203188
202798
202375
201942
201585
201266
201063
201011
201095
201261
208734
208057
207594
207092
206751
206473
206325
206293
206382
206508
206712
206844
207020
206968
208703
208080
207527
206998
206587
206261
206053
205954
205969
206049
206142
206173
206263
206090
208468
207867
207296
206809
206373
206023
205760
205580
205498
205466
205507
205480
205438
205258
208277
207694
207099
206602
206141
205770
205474
205261
205134
205049
204965
204861
204763
204516
207919
207340
206786
206310
205876
205508
205200
204961
204787
204648
204519
204358
204183
203917
207506
206970
206479
206037
205631
205264
204949
204692
204481
204300
204132
203956
203749
203481
207040
206602
206185
205773
205403
205050
204742
204471
204234
204021
203832
203647
203427
203188
206635
206250
205909
205536
205208
204883
204588
204312
204056
203816
203610
203413
203212
202970
206207
205897
205633
205329
205047
204761
204485
204213
203944
203682
203456
203232
203063
202864
205761
205558
205385
205155
204909
204657
204401
204140
203869
203590
203328
203103
202955
202786
205477
205321
205175
205002
204785
204548
204309
204057
203789
203504
203208
202990
202893
202727
205334
205202
205036
204856
204648
204428
204202
203932
203657
203367
203063
202882
202753
202623
205190
205091
204916
204765
204530
204252
203983
203711
203433
203111
202852
202651
202613
202539
205097
204933
204771
204554
204302
204019
203667
203353
203050
202739
202523
202388
202332
202319
209620
208980
208588
208185
207931
207747
207700
207744
207852
208042
208277
208456
208805
208836
209496
208955
208457
208019
207691
207455
207347
207337
207422
207545
207727
207856
208074
208012
209242
208714
208205
207795
207458
207206
207047
206976
206991
207018
207100
207172
207315
207279
209027
208485
207969
207538
207175
206896
206702
206592
206566
206566
206601
206585
206634
206582
208646
208134
207656
207247
206901
206616
206404
206261
206187
206143
206130
206084
206065
205967
208223
207784
207365
206970
206637
206349
206123
205960
205853
205778
205730
205666
205634
205523
207808
207419
207071
206705
206401
206124
205897
205720
205589
205486
205414
205347
205308
205193
207392
207069
206793
206471
206202
205945
205728
205547
205393
205266
205169
205110
205047
204968
206967
206730
206531
206281
206060
205832
205625
205442
205266
205115
204997
204914
204849
204765
206560
206448
206311
206137
205956
205758
205562
205381
205184
205005
204847
204733
204682
204624
206295
206235
206137
206022
205858
205680
205492
205319
205113
204904
204690
204547
204514
204493
206141
206105
206001
205904
205767
205599
205412
205232
205000
204758
204508
204354
204324
204264
205983
206001
205928
205836
205649
205451
205261
205048
204794
204517
204256
204112
204031
204072
205897
205871
205747
205647
205496
205243
204990
204788
204562
204241
203982
203759
203612
203596
210451
209919
209571
209231
209010
208904
208947
209059
209268
209508
209805
209991
210336
210416
210284
209820
209350
208985
208725
208586
208594
208680
208847
209046
209266
209449
209702
209708
209996
209556
209088
208743
208466
208287
208234
208280
208387
208522
208698
208826
209037
209072
209741
209275
208806
208435
208136
207935
207846
207866
207935
208040
208171
208270
208408
208430
209344
208895
208482
208127
207832
207621
207500
207480
207512
207577
207666
207744
207840
207845
208905
208532
208156
207825
207544
207331
207189
207137
207141
207178
207240
207310
207366
207369
208438
208157
207855
207554
207297
207088
206942
206864
206844
206862
206900
206958
206999
207018
208014
207808
207581
207319
207094
206903
206762
206667
206624
206622
206637
206678
206719
206746
207604
207475
207330
207135
206957
206789
206650
206545
206478
206448
206441
206465
206514
206550
207253
207206
207131
207008
206870
206727
206590
206477
206380
206314
206278
206286
206337
206386
207026
207031
206992
206922
206802
206676
206542
206427
206299
206191
206111
206094
206136
206213
206907
206929
206872
206821
206720
206610
206478
206351
206190
206022
205895
205843
205878
205940
206773
206861
206845
206795
206651
206532
206360
206203
206007
205776
205590
205496
205501
205636
206742
206773
206697
206672
206568
206386
206174
205995
205762
205457
205204
205054
204905
204984
211529
211104
210763
210463
210264
210198
210285
210434
210672
210961
211325
211568
211937
212075
211313
210931
210496
210190
209958
209858
209904
210040
210270
210533
210823
211067
211372
211444
210987
210632
210217
209925
209679
209552
209556
209650
209812
210019
210269
210486
210755
210874
210657
210278
209892
209589
209334
209178
209147
209222
209359
209548
209769
209968
210176
210286
210228
209881
209540
209252
209006
208843
208789
208837
208935
209088
209274
209452
209633
209741
209758
209496
209186
208928
208698
208535
208465
208487
208556
208683
208846
209003
209157
209247
209267
209104
208868
208640
208434
208277
208197
208193
208239
208343
208482
208620
208760
208839
208852
208755
208597
208400
208227
208083
207992
207965
207992
208072
208188
208307
208434
208524
208473
208438
208362
208221
208079
207949
207852
207805
207808
207864
207956
208066
208180
208301
208191
208216
208194
208106
207989
207870
207766
207693
207661
207686
207746
207843
207973
208122
208008
208074
208085
208033
207922
207813
207702
207611
207535
207519
207551
207626
207742
207973
207919
208009
207992
207953
207861
207756
207635
207522
207391
207311
207298
207339
207482
207690
207828
207980
208000
207959
207813
207682
207516
207369
207177
207025
206952
206964
207089
207331
207848
207931
207895
207870
207733
207576
207343
207150
206898
206664
206506
206470
206448
206656
212736
212394
212103
211844
211663
211606
211717
211917
212209
212535
212905
213210
213573
213717
212480
212177
211810
211552
211352
211287
211369
211532
211799
212118
212453
212739
213063
213143
212113
211858
211521
211288
211078
210988
211023
211145
211357
211625
211929
212207
212502
212653
211722
211467
211158
210925
210711
210605
210611
210712
210898
211152
211438
211700
211957
212117
211256
211037
210776
210551
210355
210251
210241
210318
210470
210691
210944
211193
211425
211609
210765
210614
210402
210201
210026
209921
209897
209953
210075
210270
210496
210729
210938
211115
210296
210214
210068
209896
209750
209645
209608
209645
209741
209906
210106
210320
210517
210689
209889
209865
209787
209655
209533
209429
209377
209395
209467
209603
209779
209975
210161
210325
209535
209578
209570
209486
209378
209279
209211
209201
209250
209356
209509
209690
209879
210053
209318
209409
209439
209385
209285
209183
209093
209044
209063
209137
209265
209436
209631
209844
209185
209302
209358
209321
209220
209104
208995
208907
208877
208928
209037
209200
209382
209673
209108
209270
209293
209259
209162
209033
208897
208771
208672
208678
208749
208886
209113
209393
209032
209244
209274
209256
209101
208938
208756
208589
208409
208357
208386
208508
208721
209079
209076
209210
209179
209165
208998
208789
208564
208339
208084
207946
207888
207943
208046
208408
214004
213794
213601
213431
213312
213283
213397
213580
213872
214201
214547
214876
215195
215356
213698
213535
213284
213121
212995
212970
213064
213241
213515
213843
214182
214457
214750
214863
213306
213202
212988
212845
212712
212675
212730
212871
213098
213386
213702
213999
214279
214458
212885
212793
212603
212460
212331
212286
212323
212450
212665
212945
213253
213548
213810
214000
212413
212345
212199
212064
211957
211918
211945
212056
212245
212501
212788
213081
213342
213567
211951
211924
211817
211705
211615
211573
211589
211680
211844
212077
212345
212627
212882
213114
211525
211545
211490
211406
211329
211281
211286
211354
211489
211692
211936
212203
212453
212691
211169
211243
211239
211180
211108
211049
211035
211078
211181
211351
211570
211820
212062
212299
210886
211016
211067
211031
210957
210883
210838
210852
210920
211054
211246
211481
211718
211960
210717
210887
210969
210943
210858
210763
210675
210645
210681
210781
210947
211171
211409
211673
210616
210812
210909
210889
210788
210664
210536
210452
210448
210521
210666
210884
211106
211437
210553
210795
210869
210832
210710
210561
210390
210246
210184
210226
210335
210529
210794
211101
210489
210767
210821
210818
210634
210432
210195
209996
209861
209866
209946
210142
210410
210804
210520
210714
210702
210683
210463
210228
209930
209681
209470
209412
209419
209564
209765
210193
205484
205850
205824
205836
206008
206655
203078
203720
203833
204121
204590
204379
202503
202912
203040
203524
204070
203757
201925
201955
201735
202186
203083
203293
201806
201619
201422
201994
203144
203824
201766
201545
201320
202018
203657
204617
201891
201865
201850
202685
204683
205593
201960
202127
202471
203441
205765
206848
202144
202420
203078
204187
206554
208012
202224
202545
203369
204447
206988
208775
202198
202567
203488
204426
206721
209067
201789
202117
203075
204057
206432
208919
201623
201757
202684
203713
205930
208294
200183
200387
201559
202813
204949
207163
207221
207875
207582
207630
207346
207581
205246
205590
205455
205653
205480
205675
204650
204757
204585
204836
204834
205124
204009
203858
203547
203533
203602
204484
203697
203350
203044
202905
203244
204732
203377
203087
202804
202719
203372
205121
203269
203200
203157
203272
204177
205917
203449
203532
203704
204125
205294
206960
203634
203971
204363
205107
206411
208144
203864
204315
204912
205842
207161
209041
203995
204543
205404
206312
207803
209462
203886
204377
205271
206172
207662
209359
203825
204117
204893
205762
207102
208589
202341
202714
203608
204790
205987
207156
208053
208637
208695
208792
208616
208736
206724
206974
207034
206961
206685
206577
206116
206237
206113
205925
205718
205606
205568
205709
205355
205120
204880
204859
205191
205396
204880
204760
204534
204760
204964
205195
204702
204618
204440
205129
204963
205102
204947
204997
205111
206028
205102
205350
205505
205693
206255
207361
205320
205769
206225
206686
207663
208812
205601
206239
206920
207650
208878
210122
205862
206615
207497
208492
209747
211034
206039
206783
207758
208799
210097
211408
206224
206746
207643
208625
209798
210922
205066
205449
206285
207513
208589
209602
208867
209370
209524
209730
209662
209791
207963
208217
208275
208349
208112
207890
207479
207550
207490
207437
206986
206810
207068
207039
206983
206779
206230
205854
206782
206687
206814
206286
205936
205705
206624
206527
206671
206130
205940
205852
206560
206602
206698
206518
206389
206499
206637
206820
207037
207124
207202
207603
206781
207161
207634
207952
208377
209052
207034
207599
208221
208770
209472
210363
207336
208019
208804
209518
210451
211337
207541
208308
209121
209957
210828
211823
207864
208450
209121
209911
210720
211782
207193
207578
208099
208994
209865
210806
209713
210149
210270
210451
210456
210432
209022
209271
209297
209295
209036
208925
208615
208743
208666
208586
208197
207902
208286
208353
208189
208128
207672
207352
208081
208160
208043
208054
207451
207208
207983
208152
208067
207992
207502
207331
207984
208129
208277
208154
207990
207871
208114
208386
208565
208638
208642
208688
208343
208655
209032
209330
209550
209905
208588
209046
209598
210033
210520
211179
208891
209471
210132
210699
211316
212176
209074
209719
210443
211094
211857
212601
209496
210050
210616
211223
211857
212706
209133
209562
209948
210605
211275
212138
210597
210967
211096
211276
211319
211389
209993
210224
210329
210385
210258
209968
209634
209805
209826
209645
209310
208767
209357
209496
209421
209176
208770
208195
209193
209328
209259
209157
208669
208261
209157
209363
209371
209242
208709
208465
209276
209492
209586
209412
209182
209031
209461
209760
209932
209884
209868
209778
209728
210115
210318
210529
210686
210810
210024
210458
210838
211228
211557
211862
210347
210846
211345
211845
212355
212975
210512
211066
211669
212269
212904
213785
210886
211385
211907
212447
213047
213684
210729
211167
211509
212088
212612
213353
211754
212074
212143
212281
212243
212177
211147
211365
211413
211477
211363
211191
210840
211029
211065
210910
210539
209922
210598
210740
210699
210410
210010
209292
210455
210585
210516
210270
209877
209197
210433
210606
210600
210443
209963
209448
210577
210838
210884
210731
210384
210227
210793
211123
211288
211221
211127
211036
211139
211532
211744
211846
211985
212090
211470
211950
212250
212554
212844
213126
211818
212328
212747
213195
213605
214014
212051
212598
213100
213648
214181
214828
212430
212905
213360
213868
214337
214976
212385
212791
213082
213529
213947
214569
212933
213213
213262
213400
213361
213350
212418
212609
212620
212661
212531
212449
212171
212345
212357
212245
211859
211380
211959
212077
212009
211727
211274
210506
211839
211912
211849
211518
211088
210296
211840
211931
211900
211631
211220
210590
212015
212228
212243
212072
211648
211243
212255
212565
212678
212599
212419
212139
212629
213009
213236
213250
213260
213189
213019
213447
213765
213969
214185
214374
213404
213880
214257
214600
214969
215320
213665
214170
214590
215043
215477
215954
214008
214432
214799
215257
215694
216268
213961
214361
214615
215001
215373
215890
214203
214447
214493
214635
214603
214601
213817
214006
214020
214059
213953
213879
213664
213815
213814
213728
213440
213058
213528
213625
213552
213328
212861
212188
213464
213516
213412
213132
212644
211902
213484
213538
213476
213164
212780
212076
213661
213795
213824
213587
213179
212679
213912
214145
214235
214159
213934
213553
214265
214598
214802
214814
214765
214613
214649
215049
215365
215506
215676
215781
215023
215463
215840
216133
216461
216785
215279
215748
216147
216556
216951
217392
215572
215998
216319
216715
217135
217626
215560
215950
216183
216536
216886
217342
200807
201541
201879
202455
203708
205354
198074
198592
199054
200129
201424
202633
197250
197460
197764
198804
199895
200987
196314
195934
195891
196934
198338
199720
196003
195278
195173
196319
197871
199536
195880
194952
194768
195955
197945
199847
196099
195164
194987
196124