/*--------------------------------*- C++ -*----------------------------------*\
| =========                 |                                                 |
| \\      /  F ield         | OpenFOAM: The Open Source CFD Toolbox           |
|  \\    /   O peration     | Version:  v2106                                 |
|   \\  /    A nd           | Website:  www.openfoam.com                      |
|    \\/     M anipulation  |                                                 |
\*---------------------------------------------------------------------------*/
FoamFile
{
    version     2.0;
    format      ascii;
    arch        "LSB;label=32;scalar=64";
    class       volScalarField;
    location    "0.000172";
    object      rho;
}
// * * * * * * * * * * * * * * * * * * * * * * * * * * * * * * * * * * * * * //

dimensions      [1 -3 0 0 0 0 0];

internalField   nonuniform List<scalar> 
144746
(
2.40492
2.39864
2.38957
2.38321
2.37738
2.37267
2.36886
2.36584
2.36393
2.36252
2.36131
2.36184
2.36452
2.36967
2.39561
2.3922
2.38402
2.37803
2.37267
2.36832
2.36413
2.36082
2.35782
2.35538
2.35391
2.35515
2.35831
2.36308
2.38889
2.38399
2.37771
2.3721
2.36689
2.36221
2.35812
2.35508
2.35186
2.34913
2.34705
2.34671
2.34788
2.35054
2.38258
2.37738
2.37171
2.36604
2.36071
2.35638
2.35194
2.349
2.3459
2.34307
2.34083
2.33974
2.33975
2.34039
2.37744
2.37156
2.36595
2.36048
2.35529
2.35059
2.3465
2.34346
2.34047
2.33767
2.33511
2.33326
2.3323
2.33245
2.37295
2.3664
2.36049
2.35515
2.35025
2.34579
2.34194
2.33855
2.3356
2.33288
2.33047
2.32884
2.32796
2.32779
2.36932
2.36192
2.35547
2.35011
2.34566
2.34141
2.3377
2.33422
2.33114
2.32839
2.32633
2.32508
2.32478
2.32582
2.36695
2.35899
2.35228
2.34659
2.34224
2.33791
2.33393
2.33017
2.32693
2.32415
2.32268
2.32232
2.32331
2.32577
2.36537
2.35692
2.34938
2.34337
2.33889
2.33444
2.33025
2.32612
2.32294
2.32049
2.31958
2.3201
2.3226
2.32766
2.36558
2.35638
2.34825
2.34149
2.33657
2.3316
2.32728
2.32282
2.32006
2.31824
2.31807
2.31963
2.32359
2.33105
2.36701
2.35744
2.34891
2.34108
2.33539
2.32993
2.32564
2.32156
2.31934
2.3181
2.3196
2.32268
2.3292
2.33868
2.37121
2.36089
2.35229
2.34329
2.33667
2.33062
2.32586
2.32245
2.32103
2.32073
2.32367
2.32801
2.33617
2.34434
2.37901
2.36691
2.35737
2.34685
2.33971
2.33323
2.32777
2.32439
2.32298
2.32325
2.32692
2.33249
2.34266
2.34924
2.38372
2.3723
2.36452
2.35398
2.34567
2.33788
2.33107
2.32731
2.32615
2.32784
2.33245
2.33885
2.35095
2.35706
2.40939
2.4062
2.40045
2.39543
2.3909
2.38692
2.38341
2.37943
2.37616
2.37359
2.3712
2.37096
2.3733
2.37617
2.40084
2.39885
2.39319
2.38849
2.38418
2.3807
2.37741
2.37416
2.3712
2.36856
2.36672
2.36799
2.3703
2.37328
2.39561
2.39242
2.38741
2.38286
2.37872
2.37488
2.37165
2.3693
2.36678
2.36439
2.36268
2.3632
2.3639
2.36514
2.39252
2.38784
2.38297
2.37819
2.37373
2.37051
2.36716
2.36508
2.36267
2.36056
2.35929
2.35928
2.35927
2.35937
2.39
2.38449
2.37951
2.37495
2.37075
2.36695
2.36393
2.36174
2.35944
2.35739
2.35632
2.35601
2.35583
2.35553
2.38827
2.38185
2.37631
2.37186
2.3679
2.36448
2.36143
2.35908
2.35674
2.35504
2.35423
2.35414
2.3543
2.35378
2.38684
2.37978
2.37365
2.36918
2.36533
2.36215
2.35927
2.35697
2.35472
2.35314
2.35249
2.35286
2.35358
2.35398
2.3864
2.37835
2.3719
2.36704
2.36358
2.36057
2.35779
2.3552
2.35305
2.35168
2.35145
2.35247
2.35368
2.35501
2.38621
2.37817
2.3714
2.36642
2.36274
2.35934
2.35655
2.35389
2.3519
2.35068
2.35076
2.35214
2.35429
2.35733
2.3874
2.37902
2.37155
2.36613
2.36245
2.35877
2.35591
2.35324
2.35152
2.35068
2.35127
2.35285
2.35547
2.35998
2.38929
2.38084
2.37325
2.36723
2.36309
2.35942
2.35673
2.35437
2.353
2.35244
2.35347
2.35556
2.35947
2.36577
2.39363
2.38435
2.37703
2.3705
2.36596
2.36205
2.3593
2.35743
2.35678
2.3569
2.35869
2.36133
2.36533
2.37091
2.39978
2.38905
2.38169
2.37467
2.36986
2.3662
2.36337
2.36155
2.36071
2.36049
2.36186
2.36484
2.37036
2.37497
2.40383
2.39411
2.38784
2.38105
2.37571
2.37159
2.36779
2.36552
2.36437
2.36416
2.36602
2.36931
2.37731
2.37932
2.42702
2.42424
2.41856
2.41346
2.41002
2.40649
2.40416
2.4005
2.3971
2.39256
2.38717
2.38265
2.38197
2.38047
2.42099
2.41747
2.41085
2.4063
2.40283
2.39944
2.3973
2.39456
2.39174
2.38764
2.38269
2.37984
2.3791
2.37843
2.41768
2.41236
2.40599
2.40057
2.39653
2.39428
2.39139
2.38929
2.38663
2.38303
2.37842
2.37556
2.37287
2.37143
2.41684
2.41026
2.40402
2.39862
2.39409
2.39075
2.38802
2.38548
2.38253
2.37888
2.37467
2.37219
2.36907
2.36695
2.41569
2.40879
2.40257
2.39726
2.39244
2.38926
2.38585
2.38287
2.37945
2.37574
2.37191
2.36975
2.36644
2.36414
2.41388
2.40656
2.40085
2.39598
2.39122
2.38796
2.38432
2.38071
2.37685
2.37335
2.37017
2.36825
2.36576
2.36322
2.41258
2.40474
2.39889
2.39408
2.38958
2.38641
2.38289
2.37927
2.37558
2.37203
2.36949
2.36735
2.366
2.36416
2.4114
2.40247
2.39648
2.39212
2.38824
2.3848
2.38143
2.37786
2.3744
2.37159
2.36936
2.36819
2.36685
2.36506
2.4109
2.40165
2.39492
2.39062
2.38673
2.38309
2.37978
2.37639
2.37333
2.3709
2.36929
2.36863
2.3684
2.36727
2.41131
2.4011
2.39438
2.3902
2.38619
2.38197
2.37832
2.37482
2.37216
2.37015
2.36924
2.36904
2.3695
2.3692
2.41298
2.40232
2.3956
2.39091
2.38623
2.38139
2.37723
2.37404
2.37157
2.36986
2.36917
2.36921
2.37006
2.37096
2.41657
2.40473
2.39859
2.39317
2.3879
2.3828
2.37847
2.37536
2.37284
2.37135
2.37097
2.37134
2.37245
2.37365
2.4207
2.40922
2.403
2.39704
2.39117
2.38589
2.38106
2.37794
2.37519
2.3733
2.37241
2.37259
2.37459
2.37645
2.4223
2.41135
2.40655
2.40084
2.39484
2.38947
2.38489
2.38134
2.37806
2.37621
2.37532
2.37608
2.37992
2.37916
2.38136
2.39067
2.39112
2.39747
2.39796
2.40891
2.36467
2.37527
2.37703
2.38594
2.38738
2.40263
2.35674
2.3683
2.37036
2.37633
2.38114
2.40281
2.34338
2.35341
2.3598
2.36989
2.37485
2.39588
2.33644
2.34673
2.35409
2.36555
2.36891
2.39749
2.33045
2.34069
2.35032
2.36405
2.36794
2.40174
2.32976
2.34079
2.35267
2.36908
2.37636
2.39915
2.33102
2.34321
2.35721
2.37627
2.38609
2.40661
2.33473
2.34841
2.36448
2.38505
2.39734
2.41704
2.34088
2.35559
2.37204
2.39245
2.4053
2.42276
2.35037
2.36436
2.37917
2.39688
2.40772
2.42449
2.35659
2.36919
2.38267
2.39821
2.40676
2.42307
2.36531
2.37368
2.38478
2.39758
2.40502
2.41998
2.36687
2.37306
2.38246
2.39183
2.40213
2.41067
2.38624
2.39479
2.39657
2.40609
2.40992
2.41785
2.3708
2.37905
2.38292
2.39244
2.39384
2.40932
2.36668
2.37471
2.37624
2.3827
2.38144
2.39839
2.35783
2.36292
2.36439
2.37161
2.36724
2.39132
2.35492
2.35956
2.36043
2.36854
2.36106
2.3896
2.35229
2.3565
2.35799
2.36668
2.35864
2.39411
2.35334
2.35758
2.36095
2.37093
2.36595
2.39242
2.35567
2.36043
2.36649
2.37796
2.37779
2.40379
2.35984
2.36619
2.37471
2.38714
2.39323
2.41368
2.36502
2.3733
2.38344
2.39635
2.40587
2.42694
2.37301
2.3821
2.39204
2.40495
2.41361
2.43204
2.37802
2.38648
2.3961
2.40905
2.41594
2.43368
2.38568
2.39067
2.39841
2.41064
2.41615
2.43293
2.38368
2.38789
2.39478
2.40471
2.41168
2.42142
2.38922
2.39543
2.39817
2.40222
2.40867
2.41085
2.37353
2.37978
2.38517
2.3933
2.40178
2.4164
2.36919
2.3741
2.37816
2.38642
2.39055
2.41309
2.36125
2.3627
2.36588
2.37583
2.3781
2.4122
2.35868
2.35862
2.36199
2.37201
2.37173
2.40625
2.35774
2.3561
2.3592
2.36959
2.36974
2.4013
2.35967
2.35689
2.35898
2.36848
2.37094
2.39846
2.36135
2.3589
2.36014
2.36796
2.37381
2.40069
2.36473
2.36375
2.36538
2.37396
2.38105
2.399
2.36816
2.36786
2.37214
2.38117
2.39009
2.40036
2.37236
2.37448
2.38047
2.38949
2.39868
2.40393
2.37607
2.37897
2.38625
2.39591
2.40363
2.40752
2.38261
2.38471
2.39128
2.40081
2.40737
2.41349
2.38001
2.38174
2.38914
2.39942
2.40485
2.41441
2.37076
2.38134
2.38338
2.38747
2.39452
2.40111
2.34781
2.35827
2.36301
2.3743
2.38028
2.39705
2.34249
2.35507
2.35725
2.36819
2.3712
2.39295
2.33385
2.34613
2.35041
2.36474
2.36717
2.39237
2.33103
2.34247
2.3491
2.36524
2.36797
2.39545
2.32906
2.34042
2.35059
2.36949
2.37328
2.40357
2.3315
2.34323
2.35578
2.37683
2.38202
2.4157
2.33634
2.34932
2.36356
2.38638
2.39439
2.43227
2.34464
2.35919
2.37403
2.39773
2.41073
2.43726
2.35308
2.3692
2.38394
2.40663
2.42014
2.44485
2.36323
2.38068
2.39419
2.41482
2.42626
2.4455
2.37411
2.38835
2.40139
2.41927
2.42599
2.44456
2.38443
2.39541
2.40687
2.42153
2.42565
2.44391
2.38924
2.39805
2.40798
2.41974
2.42347
2.44363
2.3899
2.39784
2.39634
2.39753
2.39943
2.40536
2.37215
2.37628
2.37521
2.38047
2.37791
2.3927
2.368
2.37299
2.37008
2.37436
2.36578
2.38642
2.36311
2.36569
2.36393
2.37095
2.3606
2.38641
2.36308
2.36428
2.36505
2.37225
2.36173
2.39088
2.36378
2.36486
2.36867
2.37739
2.36821
2.39917
2.36705
2.36963
2.37509
2.38524
2.37841
2.41255
2.37094
2.37613
2.38344
2.397
2.39459
2.42647
2.37689
2.38555
2.39323
2.40834
2.41218
2.44011
2.38164
2.39254
2.40298
2.41964
2.42734
2.45202
2.3884
2.40189
2.41271
2.43132
2.44071
2.46081
2.39546
2.408
2.41961
2.43786
2.44543
2.46485
2.40402
2.41466
2.42533
2.44141
2.44651
2.46567
2.40593
2.4137
2.42388
2.43911
2.44139
2.46083
2.38763
2.39736
2.39961
2.40112
2.40084
2.41045
2.37446
2.37758
2.38008
2.38366
2.38582
2.40334
2.37137
2.37322
2.37539
2.37886
2.37562
2.40061
2.37071
2.36861
2.36752
2.37269
2.36953
2.39992
2.37377
2.36973
2.36788
2.37351
2.37
2.40199
2.37726
2.37341
2.3714
2.37919
2.37655
2.40852
2.3822
2.37935
2.37828
2.38735
2.38772
2.4171
2.38675
2.38578
2.3858
2.39545
2.40013
2.42694
2.39168
2.39396
2.39527
2.4047
2.41301
2.43632
2.39794
2.4021
2.40709
2.41966
2.42954
2.44072
2.40548
2.41212
2.41861
2.43122
2.44078
2.44865
2.41163
2.41939
2.42722
2.44213
2.45275
2.45864
2.41964
2.42694
2.4366
2.45214
2.46145
2.46962
2.41782
2.42462
2.43554
2.45396
2.46401
2.48
2.44324
2.43604
2.43233
2.42178
2.41418
2.40708
2.44464
2.43692
2.43128
2.42203
2.41458
2.40639
2.44154
2.43442
2.42665
2.41676
2.40716
2.39742
2.43806
2.42613
2.41994
2.41003
2.39946
2.38977
2.42976
2.41707
2.4149
2.403
2.39373
2.38365
2.43657
2.40666
2.40932
2.39677
2.38847
2.3794
2.43084
2.40452
2.4061
2.39283
2.38491
2.376
2.43028
2.40337
2.4044
2.38973
2.38197
2.37355
2.42955
2.40256
2.40312
2.38769
2.37997
2.37123
2.43104
2.40459
2.40305
2.3875
2.38077
2.37102
2.43373
2.4084
2.40434
2.38853
2.3818
2.37092
2.43785
2.41476
2.40838
2.3943
2.3876
2.37552
2.44092
2.42202
2.41325
2.39872
2.39082
2.38012
2.44171
2.42904
2.42226
2.41455
2.41042
2.39796
2.45892
2.44771
2.44065
2.42746
2.41758
2.40964
2.45696
2.44509
2.43578
2.42466
2.41642
2.41015
2.44433
2.43402
2.42496
2.4155
2.40829
2.40225
2.43214
2.41933
2.41507
2.40933
2.40349
2.39809
2.4193
2.40897
2.41183
2.40608
2.40062
2.39484
2.42259
2.40049
2.40789
2.40218
2.39838
2.39314
2.42276
2.39422
2.4053
2.40075
2.39724
2.39261
2.42236
2.3947
2.40574
2.39932
2.39628
2.39241
2.42305
2.39336
2.40555
2.39763
2.39519
2.39141
2.42269
2.39389
2.40632
2.39779
2.39577
2.39156
2.42421
2.39789
2.40823
2.3987
2.39663
2.39134
2.42865
2.40732
2.41541
2.406
2.40278
2.3953
2.43457
2.41808
2.42165
2.41135
2.40717
2.39919
2.44435
2.4341
2.43691
2.43123
2.42878
2.4154
2.47074
2.46366
2.45165
2.43891
2.42815
2.42459
2.45768
2.45471
2.44566
2.4395
2.4324
2.43112
2.4396
2.43913
2.43429
2.43356
2.42815
2.42577
2.43515
2.43361
2.43184
2.43355
2.42785
2.42445
2.44241
2.43248
2.43523
2.43362
2.42824
2.42298
2.45308
2.43434
2.43704
2.43378
2.42885
2.42198
2.46173
2.43772
2.44252
2.43465
2.42964
2.42183
2.46961
2.43726
2.44335
2.43419
2.42972
2.42192
2.47108
2.43305
2.43983
2.4306
2.42731
2.42083
2.46854
2.42955
2.43595
2.42749
2.42522
2.41968
2.46695
2.43058
2.43417
2.42571
2.42361
2.41809
2.46803
2.43959
2.44123
2.43172
2.42712
2.41949
2.4726
2.44914
2.44528
2.43579
2.43096
2.42079
2.47954
2.46576
2.46064
2.45242
2.4472
2.43421
2.41142
2.40478
2.40152
2.39332
2.38649
2.37915
2.41497
2.40802
2.40217
2.39412
2.38568
2.37806
2.41536
2.40864
2.40132
2.39248
2.38217
2.37353
2.41598
2.40662
2.3983
2.3901
2.37979
2.37117
2.41153
2.40148
2.39619
2.38822
2.37842
2.36982
2.41411
2.39937
2.39592
2.38574
2.37756
2.36952
2.4176
2.39721
2.39562
2.38425
2.3778
2.37036
2.42845
2.39288
2.39532
2.38442
2.37951
2.37276
2.42874
2.39879
2.39913
2.38678
2.38176
2.3751
2.43152
2.40695
2.40434
2.39239
2.38766
2.38015
2.43795
2.41652
2.40977
2.39774
2.39301
2.38561
2.44428
2.41924
2.41764
2.40917
2.40482
2.39448
2.44101
2.42476
2.4251
2.41438
2.41016
2.39918
2.44432
2.43447
2.43491
2.42736
2.42542
2.41448
2.42165
2.41323
2.40534
2.3948
2.38697
2.38236
2.42163
2.41242
2.40386
2.39536
2.38735
2.38359
2.41378
2.40514
2.39811
2.39063
2.38316
2.37924
2.40995
2.39861
2.39288
2.38828
2.38126
2.37795
2.4021
2.39036
2.39074
2.38776
2.38101
2.37808
2.40376
2.38648
2.39131
2.38733
2.38324
2.37958
2.41011
2.38381
2.39346
2.38876
2.38646
2.38279
2.42025
2.38614
2.39661
2.39063
2.38972
2.38676
2.42309
2.39301
2.40258
2.39421
2.39337
2.38973
2.42941
2.40096
2.40963
2.40094
2.39927
2.39434
2.43611
2.4108
2.41604
2.40688
2.40355
2.39823
2.44259
2.42429
2.42717
2.41927
2.41427
2.40477
2.44856
2.43319
2.43353
2.42514
2.41909
2.40745
2.45418
2.44525
2.44471
2.43648
2.43319
2.42163
2.40292
2.40076
2.3945
2.39002
2.38328
2.3842
2.39753
2.39902
2.39492
2.3937
2.38958
2.39176
2.38955
2.39283
2.39101
2.39212
2.38841
2.38974
2.39166
2.39198
2.392
2.39668
2.39263
2.39268
2.39954
2.39503
2.39849
2.40022
2.39756
2.3966
2.41806
2.39966
2.40332
2.40386
2.40199
2.40058
2.43271
2.40684
2.412
2.40941
2.40701
2.4043
2.44708
2.4144
2.42016
2.41464
2.41206
2.40878
2.46103
2.42141
2.42768
2.41898
2.41556
2.41149
2.47369
2.43216
2.43656
2.42584
2.42131
2.41555
2.48663
2.44556
2.44532
2.43182
2.42673
2.4188
2.49184
2.46324
2.45885
2.44395
2.43652
2.42465
2.49865
2.4743
2.46319
2.44874
2.44066
2.42683
2.4893
2.4796
2.47002
2.45847
2.45166
2.44077
2.4391
2.43412
2.42937
2.42475
2.42162
2.41769
2.4147
2.4121
2.40952
2.40699
2.40456
2.40177
2.40175
2.40281
2.43406
2.42739
2.4197
2.41466
2.4108
2.408
2.40572
2.40367
2.40226
2.4004
2.3981
2.39592
2.39619
2.39589
2.4309
2.42301
2.41592
2.41045
2.40628
2.40289
2.40001
2.39833
2.39678
2.39479
2.39229
2.38963
2.38895
2.39058
2.42877
2.42049
2.41334
2.4078
2.40348
2.40018
2.39718
2.39486
2.39271
2.39001
2.38727
2.38497
2.38483
2.38588
2.42646
2.41854
2.41171
2.40626
2.40218
2.39871
2.39545
2.39242
2.3893
2.38632
2.38376
2.38182
2.38219
2.38277
2.42386
2.41613
2.40984
2.40459
2.40093
2.3975
2.39409
2.39071
2.38727
2.38396
2.38146
2.37998
2.38071
2.38106
2.42173
2.41346
2.40763
2.40299
2.39961
2.39643
2.3931
2.38959
2.38604
2.3828
2.38021
2.37936
2.37997
2.38082
2.42031
2.41104
2.40556
2.40127
2.39797
2.39496
2.39183
2.38843
2.38506
2.38203
2.37998
2.37957
2.38063
2.38089
2.4192
2.40914
2.40382
2.39973
2.3964
2.39345
2.39053
2.38735
2.38439
2.38187
2.38054
2.38008
2.38115
2.38133
2.4191
2.40822
2.40273
2.3986
2.3951
2.39191
2.38912
2.38623
2.3837
2.38184
2.38087
2.3809
2.38193
2.38175
2.42054
2.40951
2.4037
2.39912
2.395
2.39124
2.38839
2.38556
2.3834
2.38188
2.38133
2.38182
2.38319
2.38304
2.42357
2.41203
2.40606
2.40112
2.39663
2.39241
2.38916
2.38606
2.38417
2.38268
2.38255
2.38313
2.38462
2.38431
2.42761
2.41733
2.41108
2.40594
2.40103
2.39669
2.39291
2.38946
2.38714
2.38498
2.38413
2.38419
2.38635
2.38687
2.42964
2.41958
2.41591
2.41157
2.40659
2.40267
2.39875
2.39516
2.3922
2.38997
2.38867
2.38949
2.39202
2.39381
2.44575
2.43917
2.43371
2.42803
2.42382
2.42091
2.4195
2.41838
2.41821
2.41752
2.41695
2.41593
2.41613
2.41818
2.44254
2.43491
2.42773
2.42241
2.41804
2.41474
2.41214
2.41105
2.41054
2.41009
2.40922
2.40822
2.4087
2.41103
2.43997
2.43174
2.42466
2.41925
2.41482
2.41138
2.40868
2.40671
2.40532
2.40386
2.40214
2.40033
2.40012
2.40482
2.43785
2.4296
2.42256
2.41753
2.41307
2.40945
2.40631
2.40367
2.40127
2.39882
2.39648
2.39456
2.39469
2.3993
2.43484
2.4272
2.42044
2.41585
2.4116
2.40795
2.40447
2.40121
2.398
2.3947
2.39194
2.3904
2.39079
2.39529
2.43162
2.42418
2.41814
2.41404
2.41031
2.40677
2.40316
2.39958
2.39601
2.39247
2.38956
2.38812
2.38885
2.39301
2.42797
2.42106
2.41592
2.41207
2.40884
2.40547
2.4019
2.39819
2.39447
2.39087
2.38809
2.38701
2.38839
2.39222
2.42451
2.41824
2.41369
2.40998
2.40701
2.40383
2.40045
2.39685
2.3933
2.39001
2.38756
2.38694
2.38906
2.39256
2.4216
2.41554
2.41145
2.408
2.40514
2.40217
2.39898
2.3956
2.39234
2.3896
2.38769
2.38776
2.39004
2.39357
2.4197
2.4134
2.4096
2.40636
2.40331
2.40039
2.39738
2.39424
2.39144
2.38906
2.38799
2.38846
2.3909
2.39323
2.41981
2.41346
2.40935
2.40565
2.40211
2.39873
2.39566
2.39262
2.3902
2.38832
2.38799
2.38888
2.39137
2.39344
2.42195
2.41489
2.41068
2.4067
2.40241
2.39833
2.39478
2.3915
2.38926
2.38784
2.38777
2.38915
2.39179
2.39351
2.42548
2.41927
2.41418
2.40975
2.40525
2.40066
2.39641
2.39242
2.38998
2.38843
2.38862
2.39004
2.39329
2.3945
2.42882
2.422
2.4189
2.41533
2.41121
2.40683
2.40203
2.39736
2.39449
2.3932
2.39384
2.3959
2.39862
2.40075
2.45017
2.44341
2.43806
2.43306
2.4298
2.42753
2.42619
2.42588
2.42702
2.42856
2.42984
2.4306
2.43107
2.43085
2.44943
2.44221
2.436
2.43076
2.42666
2.4236
2.42169
2.42062
2.42082
2.4213
2.42178
2.42198
2.4223
2.42216
2.4475
2.43992
2.43366
2.42887
2.42473
2.42145
2.41893
2.41706
2.41606
2.41517
2.41481
2.41378
2.41317
2.41455
2.44507
2.43778
2.4316
2.42717
2.42297
2.41946
2.41644
2.41401
2.41215
2.41024
2.40869
2.40752
2.40672
2.40843
2.44171
2.43482
2.42904
2.42507
2.42134
2.41799
2.41476
2.41195
2.40943
2.40698
2.40465
2.40279
2.40202
2.40413
2.43803
2.43174
2.42664
2.42311
2.41982
2.41653
2.41324
2.41014
2.40709
2.4042
2.4016
2.39972
2.39938
2.40178
2.43394
2.42854
2.42424
2.42107
2.41813
2.41493
2.41169
2.40852
2.40526
2.40216
2.39954
2.39779
2.39816
2.4011
2.43039
2.42556
2.42199
2.41892
2.4163
2.41328
2.41019
2.40706
2.40386
2.40079
2.39843
2.39705
2.39799
2.40218
2.42715
2.4227
2.41969
2.41694
2.4145
2.41173
2.40888
2.40594
2.40292
2.40008
2.39793
2.39714
2.3988
2.40311
2.42399
2.42031
2.41768
2.41517
2.41267
2.41
2.40736
2.4047
2.402
2.39956
2.39764
2.39749
2.39942
2.40363
2.42307
2.41954
2.41672
2.41406
2.41133
2.40861
2.40605
2.40343
2.40101
2.39894
2.39754
2.39799
2.4
2.40331
2.42404
2.4201
2.41698
2.41391
2.41059
2.40741
2.4046
2.4019
2.39962
2.39777
2.3972
2.39778
2.40015
2.40278
2.4262
2.42261
2.41885
2.41563
2.41197
2.408
2.40428
2.4009
2.39839
2.39677
2.39643
2.39748
2.40052
2.40266
2.42889
2.42521
2.42269
2.41964
2.41585
2.41171
2.4072
2.40299
2.40016
2.39845
2.39807
2.399
2.40117
2.40414
2.45641
2.44954
2.44489
2.4402
2.43725
2.43515
2.43435
2.43464
2.43612
2.43799
2.44031
2.4417
2.44328
2.44296
2.45549
2.44898
2.44386
2.43921
2.43566
2.43295
2.43132
2.43063
2.43099
2.43203
2.43329
2.43397
2.43499
2.43432
2.45295
2.44671
2.44165
2.43768
2.4341
2.43116
2.42888
2.42729
2.42659
2.42638
2.42684
2.4268
2.42672
2.4262
2.45067
2.44476
2.43985
2.43614
2.43256
2.42951
2.42696
2.42504
2.42383
2.42295
2.42205
2.42103
2.42025
2.41931
2.44707
2.44147
2.43722
2.4339
2.43069
2.42774
2.42511
2.42296
2.42127
2.4198
2.41832
2.41657
2.41513
2.41443
2.44326
2.4383
2.43475
2.43179
2.42885
2.42593
2.42326
2.42094
2.4189
2.41699
2.41508
2.41316
2.41174
2.41172
2.43915
2.43521
2.43236
2.42962
2.42697
2.42418
2.42157
2.41916
2.41688
2.41467
2.4126
2.4108
2.40969
2.41078
2.4356
2.43228
2.43003
2.42752
2.42516
2.42261
2.42016
2.41773
2.41533
2.41294
2.41085
2.4093
2.40888
2.4107
2.43206
2.42939
2.42762
2.42552
2.42349
2.4213
2.41905
2.4167
2.41425
2.41181
2.40978
2.40837
2.40872
2.4116
2.42869
2.42682
2.4255
2.42376
2.42188
2.41994
2.41791
2.41574
2.41339
2.411
2.40898
2.40789
2.40879
2.41228
2.42713
2.42542
2.42391
2.42228
2.42037
2.41841
2.41649
2.41448
2.41235
2.41015
2.40821
2.4075
2.40905
2.4123
2.42745
2.42543
2.42336
2.42128
2.41909
2.41696
2.41496
2.4128
2.41074
2.40874
2.40712
2.40706
2.40844
2.41126
2.42847
2.42641
2.42392
2.42176
2.41894
2.41588
2.4132
2.41075
2.40856
2.40652
2.40561
2.40564
2.40774
2.41022
2.43049
2.42831
2.42619
2.42353
2.42032
2.41676
2.41279
2.40946
2.40674
2.40474
2.40419
2.40474
2.40622
2.40825
2.46264
2.45637
2.45251
2.44872
2.44639
2.44486
2.4446
2.44521
2.44661
2.44886
2.45151
2.45356
2.45683
2.45732
2.46105
2.45573
2.45146
2.44775
2.4449
2.44281
2.44181
2.44168
2.44245
2.44369
2.44554
2.44702
2.44911
2.4489
2.45837
2.45337
2.44936
2.44627
2.44359
2.44144
2.43997
2.43923
2.43921
2.4393
2.43994
2.44056
2.4417
2.4413
2.45605
2.45124
2.44745
2.44441
2.44167
2.43938
2.43767
2.43661
2.43622
2.43599
2.43599
2.43543
2.43534
2.43447
2.45245
2.44824
2.44498
2.4422
2.43964
2.43733
2.4355
2.4342
2.43344
2.43283
2.43226
2.43114
2.43026
2.42903
2.44871
2.4454
2.44272
2.44005
2.43757
2.43523
2.4333
2.43184
2.43079
2.42989
2.42893
2.42757
2.42663
2.42567
2.44518
2.44243
2.44036
2.43788
2.43561
2.43336
2.43144
2.42987
2.42859
2.42739
2.42621
2.42493
2.42414
2.42362
2.44172
2.43952
2.43798
2.43582
2.43381
2.43177
2.42997
2.42838
2.42689
2.42544
2.42408
2.4231
2.42246
2.42285
2.43828
2.43667
2.43563
2.43397
2.43237
2.43063
2.42896
2.42737
2.42569
2.42407
2.42266
2.42171
2.42143
2.42256
2.43511
2.4344
2.43359
2.4324
2.4311
2.42964
2.42813
2.42661
2.42481
2.42305
2.42148
2.42054
2.4208
2.42286
2.43343
2.43288
2.43202
2.43102
2.42969
2.42834
2.42697
2.42563
2.42387
2.42204
2.42027
2.41939
2.42021
2.42304
2.43317
2.4323
2.43101
2.42984
2.42843
2.42698
2.42552
2.42417
2.42237
2.42049
2.41877
2.41818
2.41941
2.42193
2.43337
2.43248
2.43105
2.42958
2.42744
2.42534
2.42352
2.42181
2.41991
2.41796
2.41654
2.41652
2.41766
2.42071
2.43472
2.43366
2.43165
2.42972
2.42745
2.42439
2.42154
2.41943
2.41741
2.41517
2.41413
2.41401
2.41484
2.41678
2.46901
2.46407
2.46093
2.45784
2.45571
2.45464
2.45482
2.45568
2.45758
2.45997
2.46303
2.46524
2.4687
2.46985
2.46698
2.46287
2.45924
2.45635
2.4541
2.45284
2.45274
2.45323
2.45444
2.45601
2.45792
2.45974
2.46223
2.46268
2.46401
2.46041
2.45707
2.45463
2.4525
2.45098
2.45045
2.45065
2.45127
2.45213
2.45345
2.45449
2.45618
2.45623
2.46148
2.45801
2.45482
2.45227
2.45002
2.44837
2.44758
2.44764
2.44802
2.44869
2.44956
2.45006
2.45064
2.44994
2.45796
2.45494
2.45233
2.44987
2.4476
2.44585
2.44481
2.44459
2.44478
2.44519
2.44565
2.44572
2.44562
2.44465
2.45429
2.45211
2.44982
2.44748
2.44525
2.44345
2.44223
2.44178
2.4418
2.442
2.44215
2.44199
2.44145
2.44068
2.45051
2.44915
2.4474
2.44524
2.44317
2.44141
2.44017
2.43951
2.43932
2.43931
2.43919
2.4389
2.43834
2.43798
2.44715
2.4463
2.44506
2.44318
2.44139
2.43983
2.43867
2.43785
2.43742
2.43718
2.4368
2.43643
2.43615
2.43619
2.44393
2.44348
2.44277
2.44142
2.44008
2.43878
2.43767
2.43676
2.43609
2.43556
2.43498
2.4346
2.43471
2.4353
2.44125
2.44114
2.44082
2.44002
2.43906
2.43805
2.43702
2.43606
2.43511
2.43427
2.43353
2.4332
2.4336
2.43489
2.43968
2.43967
2.43934
2.43881
2.43796
2.43716
2.43626
2.43537
2.43419
2.43305
2.4321
2.43182
2.43246
2.43453
2.43925
2.43892
2.43818
2.43752
2.4366
2.43585
2.43502
2.43416
2.43284
2.43136
2.4303
2.43003
2.43099
2.43334
2.43895
2.43876
2.43804
2.43714
2.43562
2.4345
2.43313
2.43199
2.43054
2.42881
2.42765
2.42754
2.42871
2.43169
2.43995
2.43934
2.4378
2.43673
2.43517
2.43303
2.43082
2.4292
2.42744
2.42536
2.42415
2.42432
2.42473
2.42693
2.47779
2.47404
2.47126
2.46871
2.46683
2.4661
2.46661
2.46755
2.46929
2.47166
2.47501
2.4776
2.48132
2.48319
2.47527
2.47223
2.46908
2.46686
2.46498
2.46409
2.46435
2.46518
2.46675
2.46865
2.47092
2.47305
2.47601
2.47714
2.47202
2.46956
2.46678
2.46482
2.46296
2.46193
2.4619
2.46251
2.46359
2.46501
2.46687
2.4686
2.47087
2.47175
2.46903
2.46667
2.46422
2.46214
2.46018
2.4589
2.45861
2.45916
2.46015
2.46157
2.46327
2.46477
2.4661
2.46623
2.46546
2.46358
2.46151
2.45945
2.45746
2.45608
2.4556
2.45598
2.45677
2.45803
2.45949
2.46068
2.46146
2.46124
2.46172
2.46064
2.45877
2.45682
2.45488
2.45346
2.45285
2.45304
2.45367
2.45478
2.45602
2.45689
2.45725
2.45682
2.45788
2.45756
2.45619
2.45442
2.45265
2.45128
2.45059
2.45059
2.45104
2.45193
2.45291
2.45349
2.4537
2.45335
2.45469
2.45471
2.45385
2.45232
2.45087
2.44965
2.44891
2.44871
2.44895
2.44956
2.45024
2.4506
2.45081
2.45088
2.45179
2.45202
2.45167
2.45063
2.44953
2.44852
2.44777
2.44737
2.44737
2.44767
2.44804
2.44834
2.44863
2.44937
2.44961
2.45001
2.44998
2.4494
2.44859
2.44777
2.447
2.44638
2.44603
2.44601
2.44605
2.44631
2.44703
2.4484
2.4482
2.44861
2.44869
2.44835
2.44766
2.44704
2.44628
2.44554
2.44481
2.44443
2.44427
2.44448
2.44538
2.44784
2.44765
2.44791
2.44757
2.44716
2.44654
2.446
2.44528
2.44445
2.44331
2.44247
2.4421
2.44224
2.44369
2.44634
2.44722
2.44769
2.44747
2.44687
2.44553
2.44455
2.4434
2.4424
2.44092
2.4397
2.43916
2.4395
2.44118
2.44434
2.44804
2.44797
2.447
2.44618
2.44448
2.44285
2.44091
2.43945
2.43755
2.43598
2.43525
2.43591
2.43692
2.43974
2.48782
2.48492
2.48268
2.48064
2.47908
2.47851
2.47924
2.48057
2.48265
2.4851
2.48814
2.49093
2.49451
2.49643
2.48498
2.48275
2.48021
2.47847
2.47695
2.47642
2.47702
2.47815
2.48003
2.48232
2.48482
2.48711
2.4901
2.49128
2.48149
2.48002
2.47788
2.47636
2.47479
2.47408
2.47434
2.47525
2.47681
2.47877
2.48106
2.48325
2.48575
2.48698
2.47814
2.47693
2.47504
2.47342
2.47173
2.47086
2.47089
2.47168
2.47315
2.47515
2.47745
2.47956
2.48148
2.48225
2.47445
2.47362
2.47208
2.47039
2.46873
2.46782
2.46771
2.46834
2.46963
2.4715
2.47363
2.47561
2.47712
2.47771
2.47065
2.47037
2.46912
2.46751
2.46596
2.465
2.46477
2.46526
2.46637
2.4681
2.47002
2.47178
2.47291
2.47329
2.46709
2.46721
2.46635
2.46493
2.46361
2.46267
2.46234
2.46269
2.4636
2.46508
2.46675
2.46823
2.46914
2.46947
2.464
2.46433
2.4639
2.46282
2.46176
2.46086
2.46044
2.46063
2.46132
2.4625
2.46387
2.4651
2.46587
2.46627
2.4612
2.46185
2.46189
2.46126
2.46041
2.45964
2.45911
2.45906
2.45948
2.46031
2.46137
2.46241
2.46327
2.46405
2.45941
2.46025
2.46057
2.4602
2.45953
2.45884
2.45817
2.45777
2.45787
2.45834
2.45908
2.46
2.46107
2.46256
2.45825
2.45908
2.45954
2.45936
2.45878
2.45807
2.4573
2.45656
2.45623
2.45644
2.45694
2.45783
2.459
2.46159
2.4576
2.45853
2.4586
2.45838
2.45786
2.45712
2.4562
2.45521
2.45433
2.45418
2.4544
2.45518
2.45701
2.45985
2.45705
2.45817
2.45816
2.45794
2.45669
2.45559
2.45437
2.45316
2.45169
2.45122
2.45133
2.45228
2.4543
2.45806
2.45771
2.45824
2.4575
2.45688
2.45515
2.45341
2.45175
2.4501
2.44815
2.44724
2.44702
2.44798
2.44967
2.45359
2.49838
2.49668
2.4953
2.49407
2.49313
2.49284
2.4937
2.49498
2.4971
2.49949
2.50213
2.50489
2.50788
2.50975
2.49523
2.49422
2.49262
2.49166
2.4908
2.49063
2.49137
2.49271
2.49473
2.49713
2.49963
2.50171
2.50427
2.50555
2.49167
2.49149
2.49029
2.48944
2.48847
2.4882
2.48865
2.48977
2.49152
2.49371
2.49611
2.49844
2.50076
2.50224
2.48821
2.4883
2.48728
2.48631
2.48527
2.48489
2.48518
2.48622
2.48796
2.49022
2.49272
2.49513
2.4972
2.4984
2.48453
2.48485
2.48409
2.48307
2.48212
2.48174
2.48194
2.48286
2.48446
2.48664
2.48908
2.49151
2.49346
2.49467
2.48103
2.48158
2.481
2.48008
2.47923
2.4788
2.4789
2.47968
2.48113
2.48319
2.48551
2.48782
2.48958
2.49067
2.4778
2.47853
2.47826
2.47754
2.4768
2.47634
2.47636
2.47697
2.4782
2.48002
2.48213
2.48423
2.48584
2.48688
2.47505
2.47601
2.47606
2.47557
2.47492
2.47441
2.47429
2.4747
2.47564
2.47715
2.47899
2.48086
2.48231
2.48339
2.47276
2.47401
2.47447
2.47421
2.47364
2.47306
2.47271
2.47286
2.47347
2.4746
2.47612
2.47776
2.47915
2.48041
2.4713
2.47274
2.47346
2.47333
2.47278
2.47211
2.47142
2.47117
2.47145
2.4722
2.47339
2.47487
2.4763
2.47802
2.47034
2.47185
2.47268
2.47266
2.47207
2.47126
2.47028
2.46957
2.46946
2.4699
2.4708
2.4722
2.47363
2.47627
2.46968
2.47141
2.472
2.47182
2.47111
2.47017
2.46891
2.46772
2.46714
2.46731
2.46788
2.46909
2.47106
2.47389
2.4691
2.47096
2.47128
2.47127
2.46989
2.46851
2.46679
2.46525
2.46414
2.4641
2.46456
2.46599
2.46822
2.47204
2.4695
2.4707
2.4702
2.46965
2.46767
2.46587
2.46367
2.46183
2.46025
2.45987
2.46002
2.46149
2.46372
2.46799
2.45536
2.46892
2.48236
2.4968
2.51135
2.52955
2.43942
2.45717
2.47062
2.48342
2.49589
2.50122
2.43738
2.45363
2.46359
2.47214
2.47821
2.47527
2.43241
2.44495
2.44909
2.45242
2.45453
2.44782
2.42988
2.43933
2.44206
2.44404
2.44307
2.43379
2.42743
2.43538
2.43676
2.43879
2.43881
2.42647
2.42538
2.43339
2.43567
2.43817
2.43942
2.42447
2.42138
2.42859
2.43292
2.43601
2.44095
2.43113
2.41731
2.42331
2.42917
2.43322
2.44213
2.44273
2.41347
2.41838
2.42498
2.42959
2.44466
2.45667
2.41123
2.41605
2.42374
2.42861
2.44721
2.47362
2.40872
2.41309
2.4222
2.43138
2.45615
2.48958
2.41161
2.41489
2.42599
2.44008
2.4674
2.50262
2.40487
2.41015
2.4256
2.44437
2.47295
2.50714
2.45906
2.47411
2.48664
2.50525
2.52076
2.53784
2.44538
2.46123
2.47682
2.49511
2.50742
2.51852
2.44296
2.45889
2.47298
2.48751
2.49522
2.50025
2.43826
2.45264
2.46396
2.47205
2.47495
2.47943
2.43552
2.44802
2.45773
2.46184
2.46292
2.46701
2.43246
2.44516
2.45311
2.45532
2.45636
2.45792
2.43102
2.44455
2.45204
2.45366
2.45468
2.45354
2.43097
2.44314
2.45031
2.45278
2.45361
2.45184
2.42941
2.44026
2.44718
2.45157
2.45342
2.45622
2.42769
2.43636
2.44357
2.44975
2.45504
2.46583
2.42641
2.43436
2.44363
2.4509
2.46219
2.47908
2.42517
2.43212
2.44234
2.4526
2.46965
2.49263
2.42682
2.43279
2.44445
2.45886
2.48004
2.50579
2.41792
2.42706
2.44366
2.46521
2.48802
2.51169
2.45628
2.46626
2.47614
2.4916
2.5088
2.52889
2.4454
2.45522
2.46907
2.48681
2.50437
2.51941
2.44082
2.45218
2.46727
2.48497
2.49983
2.50829
2.43675
2.4502
2.46481
2.48076
2.49029
2.49441
2.43437
2.4497
2.46318
2.47735
2.48264
2.48364
2.43348
2.44985
2.46252
2.47408
2.47651
2.47815
2.43452
2.45024
2.46452
2.47344
2.47501
2.47612
2.43653
2.45243
2.46647
2.4737
2.4762
2.47597
2.43857
2.45397
2.46674
2.47371
2.47809
2.47769
2.43991
2.45349
2.46487
2.47245
2.47883
2.48268
2.44036
2.4517
2.46294
2.47268
2.48157
2.49149
2.44072
2.4505
2.46202
2.47299
2.48569
2.50042
2.44238
2.45023
2.46189
2.47476
2.49054
2.50871
2.4333
2.4412
2.4552
2.47439
2.49441
2.51563
2.45868
2.46461
2.46944
2.47776
2.48812
2.50509
2.44997
2.45474
2.46115
2.4727
2.48763
2.50608
2.44508
2.44965
2.45831
2.47337
2.4903
2.50771
2.44147
2.44663
2.45818
2.47514
2.4908
2.50042
2.43954
2.4456
2.46082
2.4761
2.49032
2.49569
2.43908
2.44649
2.46334
2.47763
2.48908
2.49173
2.43967
2.44952
2.46674
2.48201
2.48935
2.48963
2.44176
2.45388
2.47151
2.48548
2.49058
2.48974
2.44445
2.45852
2.47625
2.48752
2.49192
2.49165
2.44754
2.46178
2.47687
2.48671
2.49114
2.49246
2.44996
2.46231
2.47493
2.48388
2.49012
2.49395
2.45063
2.46097
2.47139
2.48027
2.48743
2.49643
2.45264
2.45997
2.46816
2.4766
2.48545
2.49802
2.44666