/*--------------------------------*- C++ -*----------------------------------*\
| =========                 |                                                 |
| \\      /  F ield         | OpenFOAM: The Open Source CFD Toolbox           |
|  \\    /   O peration     | Version:  v2106                                 |
|   \\  /    A nd           | Website:  www.openfoam.com                      |
|    \\/     M anipulation  |                                                 |
\*---------------------------------------------------------------------------*/
FoamFile
{
    version     2.0;
    format      ascii;
    arch        "LSB;label=32;scalar=64";
    class       volScalarField;
    location    "0.000119";
    object      p;
}
// * * * * * * * * * * * * * * * * * * * * * * * * * * * * * * * * * * * * * //

dimensions      [1 -1 -2 0 0 0 0];

internalField   nonuniform List<scalar> 
144746
(
206533
206684
206781
206925
207076
207242
207432
207604
207756
207883
207992
208068
208143
208124
206724
206840
206966
207115
207272
207456
207650
207825
207979
208105
208208
208273
208328
208305
206855
206984
207099
207262
207441
207640
207840
208016
208164
208276
208362
208417
208476
208456
207046
207167
207281
207466
207663
207879
208095
208273
208412
208509
208576
208612
208659
208617
207216
207338
207471
207669
207873
208100
208324
208509
208649
208736
208786
208798
208828
208770
207374
207517
207664
207871
208080
208309
208534
208719
208861
208949
208997
208999
209010
208931
207522
207683
207835
208052
208262
208491
208711
208897
209039
209127
209172
209168
209169
209070
207630
207814
207983
208216
208429
208656
208868
209056
209199
209289
209325
209307
209308
209204
207770
207947
208108
208346
208555
208777
208979
209167
209309
209396
209429
209408
209407
209303
207823
208011
208190
208442
208654
208871
209068
209254
209396
209491
209545
209509
209485
209385
207900
208071
208244
208501
208724
208953
209162
209359
209499
209572
209586
209550
209533
209442
207922
208088
208264
208525
208747
208960
209151
209332
209478
209583
209618
209573
209539
209458
208006
208141
208303
208563
208793
209007
209187
209361
209497
209600
209646
209617
209581
209527
207994
208140
208276
208539
208786
209000
209170
209330
209456
209541
209576
209564
209542
209478
206060
206420
206744
207088
207404
207695
207977
208216
208429
208592
208730
208808
208801
208604
206701
207080
207447
207795
208108
208373
208618
208825
209007
209148
209252
209286
209242
208990
207161
207567
207951
208294
208592
208853
209094
209306
209466
209569
209634
209633
209584
209358
207582
208049
208435
208756
209041
209286
209499
209674
209815
209938
209996
209967
209909
209670
207929
208424
208809
209124
209400
209647
209854
210027
210156
210230
210278
210266
210203
209961
208226
208727
209138
209435
209709
209959
210161
210324
210445
210529
210543
210494
210445
210200
208440
208964
209408
209685
209969
210220
210423
210583
210702
210774
210786
210731
210677
210422
208603
209133
209610
209864
210179
210439
210653
210811
210932
210997
210997
210929
210869
210606
208695
209271
209767
210016
210338
210588
210804
210965
211088
211155
211159
211088
211017
210761
208718
209330
209852
210128
210473
210740
210969
211136
211257
211318
211314
211242
211139
210880
208686
209364
209933
210224
210570
210835
211065
211234
211352
211410
211401
211326
211204
210936
208526
209272
209880
210228
210617
210909
211142
211313
211413
211447
211418
211348
211200
210919
208364
209153
209773
210170
210543
210851
211095
211289
211403
211437
211420
211301
211122
210817
208133
208933
209581
210036
210412
210713
210940
211114
211214
211226
211178
211053
210848
210580
210165
211246
212127
212755
213246
213660
214009
214306
214568
214774
214887
214808
214466
213626
212020
212917
213746
214375
214885
215292
215619
215876
216077
216198
216233
216117
215703
214945
213133
214157
214980
215649
216171
216586
216907
217152
217329
217405
217367
217117
216664
215939
213966
215029
215905
216608
217145
217565
217883
218125
218292
218351
218273
218004
217489
216687
214536
215653
216591
217345
217907
218333
218645
218878
219038
219088
218992
218692
218160
217293
214886
216139
217131
217912
218487
218916
219226
219455
219613
219657
219553
219249
218712
217817
215209
216522
217561
218358
218942
219372
219682
219906
220061
220101
219994
219683
219146
218237
215436
216807
217889
218703
219304
219746
220062
220286
220439
220471
220359
220035
219492
218567
215580
217007
218127
218950
219557
220002
220323
220549
220697
220721
220607
220275
219727
218788
215609
217091
218264
219120
219761
220225
220549
220774
220916
220927
220789
220433
219873
218917
215486
217006
218224
219115
219784
220272
220608
220840
220969
220958
220798
220425
219853
218917
215200
216784
218045
218959
219633
220133
220476
220716
220826
220788
220605
220216
219624
218739
214601
216270
217576
218561
219277
219795
220133
220374
220468
220406
220195
219785
219137
218264
213758
215805
217116
218048
218659
219131
219473
219708
219783
219686
219447
218991
218379
217243
208261
208107
208253
208028
208205
208118
208406
208228
208365
208178
208372
208301
208534
208362
208513
208319
208556
208421
208670
208491
208642
208431
208595
208533
208800
208623
208776
208540
208743
208642
208935
208753
208890
208662
208894
208792
209061
208883
208998
208796
208994
208927
209193
209021
209144
208948
209124
208954
209297
209117
209262
209074
209232
209071
209390
209231
209403
209222
209379
209251
209458
209301
209481
209269
209446
209307
209476
209354
209522
209349
209502
209406
209506
209404
209563
209429
209604
209497
209545
209426
209548
209401
209573
209559
208542
208085
208131
207649
207878
207263
208761
208215
208180
207709
207934
207184
209055
208418
208341
207812
208043
207165
209328
208601
208441
207787
208020
206954
209591
208824
208580
207905
208161
206936
209828
209049
208745
208049
208298
207056
210051
209284
208956
208239
208478
207213
210237
209507
209182
208466
208730
207430
210399
209753
209443
208747
209004
207814
210530
209964
209697
209060
209317
208280
210628
210121
209939
209292
209555
208630
210633
210179
210008
209535
209680
208897
210582
210124
210051
209616
209878
209181
210385
209915
209846
209440
209613
209057
213072
211308
210054
207277
205847
201004
214072
212233
210622
207397
205530
199338
214893
212964
211055
207436
205154
197600
215565
213596
211437
207493
204783
195921
216119
214082
211758
207592
204701
194926
216598
214547
212128
207857
204813
194638
217008
214969
212525
208253
205195
195126
217365
215338
212950
208806
205895
196498
217651
215645
213399
209502
206811
198476
217854
215897
213815
210217
207811
200780
217940
216066
214180
210850
208660
202403
217794
215959
214314
211287
209497
203846
217462
215498
213989
211045
209468
204290
216141
214195
212873
210016
208505
203354
209581
209484
209653
209496
209691
209647
209637
209508
209667
209524
209720
209591
209666
209551
209725
209585
209782
209725
209655
209551
209741
209570
209802
209716
209608
209529
209747
209590
209798
209671
209519
209455
209685
209512
209717
209550
209392
209315
209546
209397
209626
209508
209227
209135
209386
209223
209417
209305
209055
208942
209179
208998
209203
209017
208833
208682
208893
208712
208909
208730
208586
208408
208587
208387
208664
208432
208361
208178
208321
208063
208193
208160
208231
208048
208171
207893
208025
207897
208095
207966
208107
207819
207971
207849
210386
209884
209917
209459
209703
209082
210580
210031
209990
209520
209800
209033
210745
210137
210041
209511
209747
208852
210868
210213
210062
209486
209759
208659
210920
210247
210012
209411
209693
208458
210920
210243
209957
209367
209682
208469
210831
210170
209871
209293
209553
208313
210682
210052
209772
209172
209471
208138
210486
209884
209663
209029
209310
208071
210209
209627
209447
208790
209049
207910
209875
209236
209063
208439
208662
207626
209365
208674
208530
207879
208128
207232
208774
208005
207896
207243
207372
206566
208081
207283
207320
206656
206870
206077
216502
214377
212926
209819
208150
202355
217659
215603
213891
210388
208208
201259
218166
216204
214249
210494
207930
199742
218588
216699
214573
210620
207829
198500
218772
216948
214735
210659
207723
197621
218842
217092
214814
210702
207737
197431
218754
217056
214804
210776
207847
197846
218549
216833
214663
210788
208037
198850
218256
216492
214430
210802
208238
199972
217762
215955
214023
210600
208298
200965
217070
215197
213384
210090
207928
201036
216012
214038
212243
209022
207145
200423
214860
212628
210903
207491
205480
199049
212428
209980
208282
204960
203158
196386
206088
206266
206207
206542
206386
206569
206345
206546
206353
206607
206493
206691
206349
206574
206526
206716
206610
206849
206677
206900
206718
206933
206799
207048
206873
207133
206969
207179
207027
207249
207119
207387
207196
207416
207260
207432
207293
207582
207400
207628
207455
207582
207586
207753
207567
207791
207581
207687
207699
207919
207723
207955
207742
207839
207691
207938
207750
208029
207812
207898
207753
207970
207798
208101
207883
207975
207725
207910
207713
208042
207875
207981
207807
207963
207768
208122
207949
208047
207843
207967
207782
208042
207978
208001
203697
204444
204314
205018
205026
205763
204138
205150
204889
205643
205677
206384
204827
205606
205400
206090
206204
206861
204940
205970
205709
206453
206564
207228
205002
206214
205917
206591
206716
207477
204960
206275
205935
206603
206826
207676
204738
206178
205877
206580
206846
207811
204593
206118
205806
206578
206884
207906
204636
206142
205774
206587
206878
207936
204514
206064
205726
206570
206869
207920
204509
206055
205769
206616
206876
207912
204687
206059
205776
206607
206858
207810
205162
206304
206109
206865
207018
207848
205519
206405
206156
206647
206653
207452
194881
200530
202115
205035
206534
208765
197366
202803
204220
207228
208769
211011
198495
203814
205341
208268
209843
211892
198692
204240
205787
208759
210491
212649
197449
203689
205518
208893
210800
213080
195787
203126
205084
208788
210970
213408
193630
202490
204633
208672
211066
213645
191600
201887
204244
208579
211160
213814
190063
201381
203952
208487
211191
213886
189178
201047
203784
208425
211179
213875
189216
200990
203771
208348
211098
213763
190143
201091
203810
208259
210902
213507
192105
201609
204110
208193
210601
213221
194042
201686
203764
207332
209358
212189
207996
208071
207866
208045
207973
208108
207978
208098
207953
208130
207965
208115
207725
207909
207766
207985
207860
208031
207629
207835
207724
207902
207760
207933
207445
207681
207538
207723
207603
207818
207280
207524
207379
207616
207467
207686
207052
207317
207162
207435
207296
207529
206952
207155
207010
207295
207140
207364
206819
207014
206816
207124
206964
207196
206556
206826
206641
207007
206813
207047
206412
206648
206481
206829
206654
206902
206324
206537
206357
206704
206545
206766
206212
206417
206261
206570
206443
206684
206221
206387
206216
206452
206387
206483
207098
207641
207417
207823
207876
208305
207142
207780
207611
208055
208086
208581
206610
207462
207255
207829
207974
208483
206264
207248
206946
207534
207721
208334
205549
206718
206382
207043
207369
208092
204900
206179
205869
206552
206939
207808
204054
205533
205302
206086
206501
207501
203484
205059
204828
205703
206106
207204
203120
204709
204433
205338
205752
206891
202743
204377
204136
205068
205449
206611
202608
204179
203987
204871
205252
206339
202745
204136
203924
204754
205049
206036
203067
204211
204036
204871
205040
205914
203416
204287
204000
204642
204777
205671
201964
205898
207012
209326
210459
212168
202885
206842
207991
210392
211718
213530
201781
206126
207450
210125
211649
213526
200172
204947
206499
209464
211225
213347
197363
203378
205205
208638
210678
213073
194444
201880
203870
207728
210089
212748
191299
200420
202667
206906
209549
212401
188814
199210
201698
206211
209069
212046
187050
198316
201016
205670
208630
211661
186246
197853
200651
205333
208276
211269
186477
197823
200594
205113
207947
210860
187734
198048
200631
204958
207556
210348
189986
198779
201070
204940
207130
209763
192361
199106
200889
204281
206170
208903
218886
219148
219526
219691
219803
219835
219877
219911
219985
220115
220273
220483
220778
220803
219863
220202
220523
220749
220887
220977
221057
221135
221235
221369
221498
221627
221723
221651
220104
220730
221168
221507
221717
221869
221986
222089
222190
222307
222394
222458
222438
222319
220491
221234
221715
222097
222357
222553
222705
222834
222947
223066
223137
223167
223099
222930
220784
221624
222161
222579
222884
223114
223293
223442
223564
223682
223742
223741
223629
223406
221112
221989
222576
223017
223349
223599
223795
223957
224083
224203
224258
224238
224097
223829
221480
222360
222979
223434
223780
224040
224246
224415
224543
224656
224702
224666
224499
224188
221912
222779
223403
223853
224198
224455
224663
224834
224963
225070
225105
225052
224863
224513
222346
223200
223817
224262
224603
224857
225062
225228
225356
225452
225468
225394
225189
224803
222782
223626
224213
224638
224965
225210
225409
225568
225699
225786
225784
225694
225483
225070
223132
223990
224548
224963
225284
225525
225719
225870
226003
226081
226060
225954
225742
225320
223393
224302
224815
225221
225527
225763
225956
226104
226241
226314
226284
226172
225966
225545
223466
224469
224960
225379
225675
225904
226097
226244
226383
226456
226429
226322
226130
225739
223564
224634
225002
225390
225644
225868
226073
226241
226392
226477
226458
226341
226136
225715
224695
224755
224880
224864
224767
224613
224503
224416
224430
224577
224795
225142
225503
225763
225226
225455
225539
225596
225585
225540
225511
225512
225583
225742
225957
226249
226529
226696
225217
225780
225999
226172
226257
226301
226337
226393
226489
226640
226817
227028
227196
227328
225458
226055
226384
226627
226790
226902
226993
227093
227214
227368
227528
227700
227828
227910
225660
226327
226744
227041
227258
227420
227551
227681
227820
227975
228122
228258
228332
228344
225956
226644
227116
227451
227702
227894
228053
228202
228350
228502
228641
228749
228774
228726
226370
227039
227527
227876
228140
228346
228521
228681
228833
228979
229106
229188
229171
229062
226906
227526
227998
228336
228595
228802
228981
229144
229296
229436
229545
229600
229552
229386
227502
228069
228510
228826
229068
229262
229434
229594
229741
229879
229974
230006
229932
229711
228131
228646
229042
229325
229544
229721
229881
230034
230179
230316
230400
230411
230318
230047
228727
229213
229554
229802
229998
230157
230306
230455
230602
230741
230819
230817
230717
230408
229223
229724
230010
230230
230408
230556
230701
230852
231008
231154
231232
231221
231125
230790
229592
230149
230393
230599
230762
230902
231048
231206
231372
231525
231603
231586
231507
231187
229873
230497
230616
230812
230967
231116
231285
231474
231663
231830
231912
231878
231781
231399
229593
229452
229256
229086
228894
228650
228477
228346
228312
228435
228638
228979
229369
229914
229778
229776
229591
229520
229386
229249
229146
229098
229134
229289
229524
229894
230379
230750
229588
229884
229851
229840
229779
229714
229675
229685
229764
229924
230144
230447
230797
231138
229663
229983
230067
230107
230111
230099
230109
230161
230271
230449
230678
230971
231309
231636
229818
230167
230323
230400
230442
230468
230509
230588
230717
230906
231137
231415
231704
231982
230106
230450
230641
230739
230799
230847
230908
231004
231143
231337
231565
231828
232084
232323
230534
230845
231035
231134
231198
231255
231327
231432
231577
231768
231987
232231
232460
232644
231110
231364
231527
231606
231656
231708
231781
231888
232034
232222
232431
232655
232856
232988
231763
231967
232092
232143
232173
232213
232279
232384
232528
232712
232913
233120
233286
233359
232494
232643
232718
232735
232739
232763
232818
232918
233061
233241
233433
233623
233753
233763
233197
233326
233356
233347
233333
233345
233393
233490
233635
233816
233999
234170
234277
234222
233873
234002
233991
233964
233941
233947
233993
234093
234245
234429
234609
234762
234859
234730
234427
234615
234583
234549
234525
234535
234590
234702
234870
235060
235237
235369
235455
235287
234930
235164
235036
235034
235030
235066
235152
235294
235485
235684
235856
235959
236037
235715
232439
232069
231929
231583
231361
231085
230907
230778
230749
230859
231054
231335
231808
232305
232491
232264
232095
231895
231716
231553
231445
231400
231444
231603
231841
232206
232664
233042
232263
232315
232216
232148
232043
231950
231899
231904
231989
232153
232380
232687
233038
233447
232248
232407
232395
232366
232326
232287
232284
232333
232447
232631
232875
233184
233533
233900
232390
232580
232637
232646
232639
232638
232665
232740
232870
233063
233306
233596
233895
234211
232672
232864
232949
232981
232993
233014
233060
233152
233291
233487
233725
233999
234273
234552
233100
233264
233349
233381
233397
233427
233486
233587
233733
233927
234155
234408
234653
234886
233678
233790
233847
233858
233862
233889
233951
234058
234208
234400
234618
234851
235068
235249
234330
234398
234419
234401
234389
234407
234466
234571
234723
234913
235124
235338
235525
235646
235085
235089
235062
235011
234976
234978
235027
235128
235279
235470
235676
235874
236030
236070
235822
235802
235734
235660
235604
235594
235634
235730
235880
236069
236267
236449
236577
236531
236556
236532
236419
236329
236257
236237
236273
236367
236521
236710
236902
237062
237177
237043
237215
237240
237098
236993
236911
236887
236923
237021
237179
237366
237546
237678
237786
237611
237828
237839
237632
237553
237495
237498
237553
237672
237846
238033
238208
238310
238422
238113
233929
233552
233460
233096
232874
232600
232415
232269
232226
232291
232468
232713
233166
233597
233945
233702
233595
233346
233179
232992
232871
232804
232819
232947
233158
233476
233857
234190
233824
233757
233688
233568
233442
233327
233252
233231
233286
233420
233623
233898
234227
234636
233830
233882
233836
233774
233695
233619
233584
233596
233683
233840
234065
234355
234683
235033
233983
234073
234068
234027
233978
233926
233911
233951
234052
234220
234446
234722
235013
235332
234275
234371
234380
234344
234301
234263
234261
234318
234428
234604
234831
235098
235378
235670
234701
234771
234772
234729
234679
234646
234654
234721
234838
235015
235235
235488
235744
235990
235258
235281
235253
235188
235123
235087
235099
235171
235293
235468
235681
235916
236148
236345
235883
235855
235801
235713
235634
235592
235605
235677
235800
235972
236176
236388
236592
236727
236585
236502
236406
236295
236200
236152
236162
236231
236354
236525
236724
236914
237084
237137
237277
237179
237049
236921
236817
236763
236770
236836
236958
237127
237316
237484
237621
237582
237984
237863
237690
237562
237456
237401
237408
237476
237605
237773
237952
238091
238206
238081
238601
238541
238348
238220
238110
238054
238063
238137
238272
238436
238597
238706
238810
238639
239255
239145
238905
238790
238709
238683
238713
238806
238959
239120
239277
239356
239454
239226
234595
234301
234218
233909
233711
233484
233319
233187
233140
233205
233357
233592
233959
234292
234624
234431
234343
234131
233992
233838
233732
233672
233683
233793
233980
234259
234566
234844
234593
234510
234468
234342
234240
234145
234083
234063
234113
234223
234402
234645
234934
235277
234674
234664
234635
234569
234498
234432
234404
234417
234495
234629
234826
235082
235356
235652
234858
234896
234879
234837
234788
234738
234725
234763
234854
235000
235197
235434
235675
235950
235167
235212
235200
235160
235113
235075
235071
235124
235225
235384
235585
235819
236054
236295
235582
235612
235592
235546
235491
235458
235465
235524
235632
235793
235991
236210
236424
236622
236102
236097
236054
235990
235924
235893
235909
235974
236087
236248
236439
236638
236827
236977
236683
236640
236574
236494
236421
236390
236412
236479
236594
236751
236932
237102
237258
237345
237331
237242
237139
237041
236962
236933
236956
237025
237145
237299
237469
237613
237733
237740
237966
237866
237736
237627
237548
237519
237542
237613
237738
237888
238039
238150
238242
238175
238637
238509
238341
238231
238153
238128
238153
238234
238372
238519
238649
238720
238791
238644
239180
239104
238951
238853
238777
238752
238781
238870
239013
239153
239253
239289
239346
239139
239810
239694
239502
239408
239352
239352
239405
239516
239665
239787
239869
239864
239902
239682
234975
234731
234663
234394
234206
234005
233849
233723
233670
233728
233859
234078
234381
234666
235018
234848
234765
234576
234440
234295
234192
234132
234139
234230
234398
234647
234913
235164
235031
234941
234888
234753
234655
234558
234497
234475
234522
234617
234783
235006
235265
235570
235156
235102
235061
234968
234888
234818
234789
234806
234881
235005
235186
235418
235662
235929
235361
235334
235298
235222
235160
235103
235092
235133
235222
235361
235545
235760
235978
236223
235671
235648
235606
235531
235466
235422
235421
235476
235578
235732
235922
236133
236343
236553
236069
236033
235975
235896
235825
235786
235795
235856
235965
236121
236309
236505
236694
236857
236568
236496
236412
236318
236237
236199
236216
236281
236394
236550
236731
236906
237068
237182
237105
237007
236900
236796
236711
236675
236696
236762
236876
237026
237192
237337
237460
237515
237703
237572
237432
237315
237227
237196
237219
237289
237408
237549
237695
237805
237893
237882
238264
238141
237988
237871
237791
237765
237791
237865
237987
238117
238230
238296
238358
238286
238843
238717
238556
238447
238375
238355
238387
238473
238599
238712
238793
238822
238863
238719
239303
239236
239095
239017
238962
238952
238993
239086
239203
239297
239356
239355
239378
239175
239822
239749
239608
239552
239512
239522
239582
239685
239799
239876
239925
239901
239894
239693
235128
234910
234844
234611
234440
234265
234129
234027
233993
234049
234165
234361
234613
234858
235189
235028
234943
234769
234639
234509
234417
234370
234398
234479
234632
234850
235082
235301
235230
235124
235060
234924
234827
234735
234684
234674
234731
234825
234980
235182
235416
235678
235385
235299
235236
235127
235044
234977
234954
234986
235063
235186
235354
235562
235776
236005
235603
235538
235472
235376
235306
235253
235248
235297
235387
235521
235691
235885
236078
236291
235921
235855
235777
235680
235610
235567
235573
235633
235734
235879
236051
236240
236418
236584
236314
236234
236138
236042
235967
235931
235943
236005
236110
236253
236420
236590
236745
236869
236790
236679
236561
236456
236375
236342
236359
236422
236528
236667
236826
236971
237093
237170
237292
237162
237031
236924
236845
236815
236835
236897
237002
237132
237270
237379
237462
237486
237829
237688
237541
237430
237354
237330
237354
237422
237531
237647
237753
237817
237868
237840
238327
238210
238068
237967
237904
237889
237920
237995
238099
238190
238257
238279
238306
238223
238817
238725
238595
238512
238460
238455
238498
238581
238676
238741
238782
238774
238774
238625
239210
239187
239080
239031
238998
239009
239066
239152
239232
239277
239300
239269
239246
239038
239664
239637
239543
239529
239510
239536
239605
239694
239769
239798
239811
239762
239712
239510
235259
235035
234956
234756
234609
234465
234359
234297
234298
234359
234473
234639
234841
235034
235358
235173
235070
234906
234788
234679
234611
234589
234639
234727
234873
235059
235244
235416
235429
235284
235197
235063
234972
234890
234852
234865
234934
235039
235189
235364
235545
235750
235616
235483
235390
235274
235194
235134
235116
235165
235250
235376
235532
235703
235866
236039
235857
235743
235643
235537
235464
235417
235417
235477
235570
235699
235851
236004
236154
236319
236179
236070
235961
235859
235788
235750
235762
235824
235921
236052
236194
236333
236459
236570
236554
236444
236329
236233
236164
236133
236146
236206
236299
236417
236544
236659
236761
236844
236977
236863
236742
236649
236580
236553
236568
236623
236710
236815
236921
237012
237084
237124
237414
237299
237185
237102
237041
237019
237034
237083
237161
237246
237328
237388
237432
237427
237875
237761
237645
237566
237515
237501
237519
237570
237642
237711
237771
237795
237811
237763
238305
238221
238113
238044
238001
237998
238027
238085
238153
238204
238238
238230
238219
238121
238723
238673
238582
238529
238495
238503
238549
238620
238682
238711
238724
238689
238647
238492
239065
239077
239009
238990
238978
239009
239075
239149
239197
239206
239200
239139
239078
238869
239469
239479
239419
239440
239451
239501
239574
239645
239683
239681
239661
239581
239493
239290
218470
218160
218383
218758
221093
222909
218197
217233
216765
216914
219197
221411
218429
217114
216289
215984
217807
220093
218372
216737
215407
214551
215955
218241
218339
216442
214772
213421
214284
216321
218247
216125
214188
212454
212820
214477
218274
216070
214008
212030
211950
213219
218355
216179
214142
212101
211808
212744
218553
216484
214657
212755
212390
213050
218897
217007
215556
213998
213870
214554
219307
217668
216680
215557
215835
216789
219741
218510
218059
217422
218167
219372
220270
219399
219348
218996
220231
221560
219968
219768
219922
220231
221931
223443
224857
225092
225767
226316
227811
228662
224229
224128
224345
224987
226579
227852
224282
223815
223754
224123
225542
226764
224010
223100
222476
222456
223631
224666
223690
222461
221484
220985
221822
222519
223336
221750
220407
219397
219737
219885
223132
221324
219758
218356
218242
217941
223003
221080
219413
217814
217428
216832
223049
221131
219510
217922
217460
216813
223368
221631
220223
218791
218403
217829
223830
222292
221282
220286
220268
219834
224501
223207
222704
222107
222460
222155
225221
224227
224144
223838
224572
224401
224949
224689
224965
225293
226365
226597
229970
230330
230879
231222
231993
232767
229257
229407
229636
230038
230853
231832
229074
228957
228963
229172
229788
230614
228576
228137
227692
227474
227638
228131
228225
227465
226649
226067
225861
226007
227789
226704
225537
224479
223708
223230
227515
226170
224775
223329
222186
221279
227332
225832
224330
222669
221305
220100
227327
225811
224356
222698
221360
220031
227588
226198
224931
223376
222279
221138
228010
226832
225908
224720
224073
223299
228683
227691
227154
226392
226163
225828
229436
228605
228506
228165
228309
228319
229333
229164
229328
229589
230156
230601
232765
233118
233661
233974
234440
234662
232128
232429
232782
233184
233667
234001
231904
232008
232160
232352
232634
232875
231267
231125
230961
230884
230856
230762
230863
230412
229908
229414
228975
228636
230424
229660
228773
227813
226807
225795
230147
229117
227947
226576
225113
223589
229947
228738
227384
225775
224017
222085
229927
228670
227281
225639
223872
221878
230114
228912
227655
226139
224594
222894
230476
229461
228508
227270
226201
224903
231023
230203
229593
228715
228142
227273
231693
231053
230794
230323
230113
229641
231801
231652
231655
231706
231908
231906
234141
234380
234743
235000
235387
235647
233607
233874
234131
234422
234816
235115
233438
233520
233601
233692
233866
233986
232846
232728
232551
232370
232232
232042
232460
232083
231617
231079
230497
230051
232041
231384
230563
229580
228451
227320
231754
230851
229748
228396
226838
225252
231543
230482
229203
227604
225801
223771
231484
230377
229059
227418
225610
223495
231592
230543
229317
227858
226221
224375
231911
231011
230023
228848
227588
226245
232359
231590
230947
230096
229359
228455
232906
232311
232032
231486
231157
230663
233069
232934
232845
232756
232815
232778
234809
234996
235308
235555
235927
236209
234348
234582
234825
235115
235500
235821
234204
234304
234400
234503
234673
234784
233693
233613
233494
233378
233246
233067
233379
233078
232692
232245
231706
231175
233013
232459
231766
230918
229861
228737
232751
231971
231013
229824
228405
226817
232545
231625
230503
229110
227460
225534
232480
231508
230330
228884
227232
225193
232568
231627
230521
229156
227702
225842
232852
232026
231117
229972
228789
227445
233205
232500
231883
231066
230326
229433
233653
233117
232823
232262
231903
231415
233812
233663
233546
233393
233383
233306
235201
235352
235598
235812
236139
236430
234777
234979
235200
235473
235821
236155
234659
234769
234867
234975
235136
235292
234220
234174
234096
234024
233945
233810
233939
233709
233406
233042
232616
232070
233628
233198
232639
231930
231076
230030
233386
232765
231982
230981
229779
228334
233193
232450
231526
230345
228926
227283
233120
232324
231352
230113
228645
227008
233187
232394
231483
230293
229050
227357
233421
232729
231970
230945
229901
228624
233710
233119
232585
231866
231195
230334
234095
233640
233364
232862
232530
232063
234228
234089
233972
233815
233787
233685
235335
235468
235674
235865
236152
236440
234955
235133
235338
235602
235930
236251
234852
234974
235095
235236
235425
235589
234478
234472
234458
234452
234461
234401
234231
234065
233857
233606
233321
232943
233965
233630
233211
232671
232031
231172
233759
233264
232652
231849
230905
229639
233594
232991
232257
231282
230165
228665
233534
232884
232104
231072
229909
228385
233603
232945
232196
231215
230095
228788
233785
233208
232588
231741
230819
229727
234024
233533
233081
232468
231876
231133
234349
233970
233722
233292
232991
232576
234466
234340
234229
234087
234049
233942
235430
235545
235712
235876
236121
236386
235069
235217
235395
235630
235924
236221
234966
235072
235195
235342
235543
235722
234645
234654
234677
234713
234780
234791
234438
234318
234191
234040
233872
233604
234225
233973
233680
233294
232835
232193
234068
233688
233232
232620
231891
230917
233948
233473
232905
232135
231247
230060
233915
233392
232772
231942
231014
229750
233991
233448
232841
232044
231128
229978
234147
233662
233145
232433
231673
230759
234347
233938
233558
233032
232528
231893
234614
234291
234073
233706
233438
233075
234704
234583
234483
234358
234312
234204
221033
221132
221554
221784
223646
225002
221563
221317
221299
221388
223280
225018
222134
221668
221554
221482
223231
225062
222595
221937
221585
221200
222713
224640
222961
222152
221612
220975
222207
224210
223306
222384
221712
220847
221789
223745
223626
222638
221883
220854