/*--------------------------------*- C++ -*----------------------------------*\
| =========                 |                                                 |
| \\      /  F ield         | OpenFOAM: The Open Source CFD Toolbox           |
|  \\    /   O peration     | Version:  v2106                                 |
|   \\  /    A nd           | Website:  www.openfoam.com                      |
|    \\/     M anipulation  |                                                 |
\*---------------------------------------------------------------------------*/
FoamFile
{
    version     2.0;
    format      ascii;
    arch        "LSB;label=32;scalar=64";
    class       volScalarField;
    location    "0.000163";
    object      rho;
}
// * * * * * * * * * * * * * * * * * * * * * * * * * * * * * * * * * * * * * //

dimensions      [1 -3 0 0 0 0 0];

internalField   nonuniform List<scalar> 
17924
(
2.70233
2.70193
2.70153
2.70121
2.69694
2.69671
2.69647
2.6963
2.69615
2.69604
2.69596
2.69604
2.69591
2.69568
2.69552
2.69538
2.69527
2.6952
2.69523
2.6951
2.69489
2.69474
2.6946
2.6945
2.69443
2.69441
2.69427
2.69409
2.69395
2.69382
2.69373
2.69368
2.69362
2.69347
2.69331
2.69317
2.69306
2.69298
2.69293
2.69284
2.69269
2.69253
2.69241
2.69231
2.69224
2.69221
2.69209
2.69192
2.69178
2.69166
2.69158
2.69152
2.6915
2.69135
2.69118
2.69105
2.69095
2.69087
2.69083
2.69081
2.69063
2.69047
2.69035
2.69026
2.6902
2.69016
2.69015
2.68994
2.68977
2.68967
2.68959
2.68954
2.68951
2.68951
2.68927
2.6891
2.68901
2.68895
2.68891
2.68889
2.6889
2.68865
2.68846
2.68839
2.68834
2.68831
2.6883
2.68832
2.68805
2.68787
2.6878
2.68776
2.68775
2.68775
2.68778
2.68744
2.68729
2.68723
2.68721
2.68721
2.68723
2.68727
2.69128
2.69129
2.69126
2.69127
2.69129
2.69134
2.69139
2.69147
2.69157
2.69168
2.69182
2.69199
2.69219
2.69242
2.69063
2.69068
2.69067
2.6907
2.69073
2.69079
2.69086
2.69095
2.69106
2.69119
2.69134
2.69151
2.6917
2.69186
2.69007
2.6901
2.6901
2.69014
2.69018
2.69025
2.69033
2.69042
2.69054
2.69067
2.69082
2.69099
2.69119
2.69135
2.68949
2.68952
2.68953
2.68959
2.68964
2.68972
2.6898
2.68991
2.69003
2.69017
2.69033
2.6905
2.69069
2.69084
2.68893
2.68897
2.68899
2.68905
2.68911
2.68919
2.68929
2.6894
2.68953
2.68967
2.68983
2.69001
2.6902
2.69036
2.68839
2.68844
2.68848
2.68854
2.68861
2.68869
2.68879
2.6889
2.68903
2.68918
2.68934
2.68952
2.6897
2.68988
2.68787
2.68792
2.68797
2.68803
2.68811
2.6882
2.6883
2.68842
2.68855
2.6887
2.68887
2.68904
2.68922
2.68941
2.68737
2.68741
2.68747
2.68754
2.68763
2.68772
2.68783
2.68795
2.68809
2.68824
2.6884
2.68857
2.68874
2.68893
2.68689
2.68692
2.68699
2.68707
2.68716
2.68726
2.68737
2.6875
2.68764
2.68778
2.68794
2.68811
2.68828
2.68847
2.68642
2.68645
2.68653
2.68661
2.68671
2.68681
2.68693
2.68706
2.6872
2.68734
2.6875
2.68766
2.68782
2.68801
2.68599
2.686
2.68609
2.68617
2.68628
2.68639
2.68651
2.68664
2.68677
2.68692
2.68707
2.68723
2.68739
2.68759
2.68558
2.68559
2.68567
2.68576
2.68587
2.68598
2.6861
2.68623
2.68637
2.68652
2.68667
2.68682
2.68697
2.68717
2.68518
2.68519
2.68527
2.68537
2.68548
2.6856
2.68573
2.68586
2.68601
2.68616
2.68631
2.68646
2.68662
2.68683
2.6848
2.68482
2.68491
2.68501
2.68512
2.68525
2.68537
2.68551
2.68565
2.6858
2.68596
2.68612
2.68628
2.68646
2.68525
2.68546
2.68565
2.68585
2.68603
2.6862
2.68637
2.68654
2.68672
2.68689
2.68707
2.68726
2.68744
2.68766
2.68496
2.68519
2.68538
2.68559
2.68578
2.68596
2.68615
2.68633
2.68651
2.6867
2.68689
2.6871
2.68729
2.68749
2.68471
2.68495
2.68514
2.68534
2.68552
2.68571
2.6859
2.68609
2.68628
2.68647
2.68667
2.68688
2.68709
2.68729
2.68445
2.68469
2.68488
2.68508
2.68527
2.68547
2.68566
2.68585
2.68604
2.68624
2.68645
2.68666
2.68687
2.68708
2.6842
2.68442
2.68462
2.68482
2.68502
2.68521
2.68541
2.68561
2.68581
2.68601
2.68621
2.68642
2.68664
2.68685
2.68393
2.68415
2.68435
2.68456
2.68477
2.68497
2.68517
2.68537
2.68557
2.68577
2.68598
2.68619
2.6864
2.68662
2.68368
2.68389
2.6841
2.68431
2.68451
2.68472
2.68492
2.68512
2.68532
2.68553
2.68573
2.68594
2.68616
2.68637
2.68343
2.68364
2.68385
2.68406
2.68427
2.68447
2.68467
2.68487
2.68507
2.68528
2.68548
2.68569
2.6859
2.68612
2.68319
2.68339
2.68361
2.68381
2.68402
2.68422
2.68442
2.68462
2.68482
2.68502
2.68523
2.68543
2.68564
2.68586
2.68296
2.68316
2.68337
2.68357
2.68377
2.68397
2.68417
2.68437
2.68457
2.68477
2.68497
2.68517
2.68537
2.68559
2.68273
2.68293
2.68314
2.68334
2.68354
2.68373
2.68393
2.68412
2.68432
2.68451
2.68471
2.68491
2.6851
2.68532
2.68251
2.6827
2.68291
2.68311
2.68331
2.6835
2.68369
2.68389
2.68408
2.68427
2.68446
2.68466
2.68484
2.68506
2.68229
2.68249
2.68269
2.68289
2.68309
2.68329
2.68348
2.68367
2.68386
2.68405
2.68424
2.68443
2.68462
2.68482
2.68213
2.68232
2.68251
2.68271
2.6829
2.68309
2.68328
2.68346
2.68364
2.68382
2.68401
2.68419
2.68438
2.68457
2.67864
2.67898
2.67927
2.67955
2.67982
2.68007
2.68032
2.68054
2.68076
2.68097
2.68116
2.68135
2.68153
2.68174
2.67865
2.67897
2.67927
2.67957
2.67986
2.68012
2.68038
2.68062
2.68085
2.68106
2.68127
2.68146
2.68165
2.68186
2.6787
2.67901
2.67933
2.67962
2.67991
2.68018
2.68044
2.68067
2.6809
2.68112
2.68133
2.68153
2.68172
2.68193
2.67872
2.67904
2.67935
2.67965
2.67994
2.68021
2.68048
2.68072
2.68096
2.68118
2.68139
2.6816
2.6818
2.68201
2.67875
2.67906
2.67938
2.67968
2.67997
2.68024
2.6805
2.68075
2.68098
2.68121
2.68142
2.68163
2.68184
2.68205
2.67875
2.67907
2.67938
2.67968
2.67997
2.68024
2.68051
2.68076
2.681
2.68122
2.68144
2.68165
2.68186
2.68207
2.67875
2.67907
2.67938
2.67968
2.67996
2.68024
2.6805
2.68075
2.68098
2.68121
2.68143
2.68164
2.68185
2.68206
2.67874
2.67906
2.67936
2.67966
2.67994
2.68021
2.68047
2.68072
2.68096
2.68119
2.68141
2.68162
2.68183
2.68204
2.67872
2.67903
2.67934
2.67963
2.67991
2.68018
2.68043
2.68068
2.68091
2.68114
2.68136
2.68157
2.68178
2.68199
2.6787
2.67901
2.67931
2.67959
2.67987
2.68013
2.68038
2.68062
2.68086
2.68108
2.6813
2.68151
2.68172
2.68192
2.67868
2.67898
2.67927
2.67955
2.67982
2.68008
2.68033
2.68056
2.68079
2.68101
2.68122
2.68143
2.68164
2.68184
2.67865
2.67895
2.67923
2.67951
2.67977
2.68003
2.68027
2.6805
2.68072
2.68093
2.68114
2.68135
2.68155
2.68175
2.67862
2.67892
2.67919
2.67947
2.67973
2.67998
2.68022
2.68044
2.68066
2.68087
2.68107
2.68127
2.68146
2.68167
2.67866
2.67894
2.67921
2.67947
2.67971
2.67995
2.68017
2.68038
2.68059
2.68079
2.68098
2.68117
2.68137
2.68156
2.67133
2.67163
2.67194
2.67223
2.67252
2.67278
2.67304
2.67327
2.67349
2.67369
2.67388
2.67405
2.67422
2.67442
2.67155
2.67184
2.67216
2.67246
2.67276
2.67304
2.67331
2.67355
2.67378
2.67399
2.67419
2.67437
2.67454
2.67474
2.6718
2.6721
2.67243
2.67273
2.67303
2.67331
2.67358
2.67382
2.67405
2.67426
2.67445
2.67464
2.67481
2.675
2.67202
2.67232
2.67266
2.67296
2.67327
2.67355
2.67383
2.67408
2.67431
2.67453
2.67473
2.67492
2.67509
2.67528
2.67224
2.67256
2.67289
2.6732
2.67351
2.67379
2.67406
2.67431
2.67455
2.67477
2.67497
2.67516
2.67534
2.67552
2.67244
2.67277
2.6731
2.67341
2.67372
2.674
2.67428
2.67453
2.67477
2.67499
2.67519
2.67539
2.67557
2.67575
2.67263
2.67297
2.67329
2.67361
2.67391
2.6742
2.67447
2.67472
2.67496
2.67518
2.67539
2.67558
2.67577
2.67594
2.67281
2.67315
2.67347
2.67378
2.67408
2.67437
2.67464
2.67489
2.67513
2.67535
2.67556
2.67575
2.67594
2.67612
2.67298
2.67332
2.67363
2.67395
2.67424
2.67452
2.67479
2.67504
2.67527
2.67549
2.6757
2.6759
2.67609
2.67626
2.67314
2.67348
2.67379
2.6741
2.67439
2.67467
2.67493
2.67518
2.67541
2.67563
2.67583
2.67603
2.67622
2.67639
2.6733
2.67363
2.67393
2.67424
2.67452
2.6748
2.67505
2.6753
2.67553
2.67574
2.67594
2.67614
2.67633
2.6765
2.67345
2.67377
2.67407
2.67437
2.67465
2.67492
2.67517
2.67541
2.67563
2.67584
2.67604
2.67623
2.67642
2.67659
2.67359
2.67391
2.6742
2.67449
2.67477
2.67503
2.67528
2.67551
2.67573
2.67593
2.67613
2.67631
2.67649
2.67667
2.67376
2.67408
2.67434
2.67463
2.67489
2.67514
2.67537
2.6756
2.6758
2.676
2.67619
2.67637
2.67655
2.67674
2.66376
2.66396
2.6642
2.66442
2.66464
2.66485
2.66505
2.66524
2.66542
2.66559
2.66574
2.66589
2.66603
2.66619
2.66404
2.66424
2.66449
2.66472
2.66496
2.66518
2.66539
2.66559
2.66578
2.66595
2.66611
2.66626
2.6664
2.66657
2.66435
2.66457
2.66482
2.66506
2.6653
2.66552
2.66573
2.66593
2.66612
2.66629
2.66645
2.6666
2.66674
2.6669
2.66465
2.66488
2.66514
2.66538
2.66562
2.66585
2.66606
2.66627
2.66646
2.66664
2.6668
2.66696
2.6671
2.66725
2.66495
2.66519
2.66545
2.6657
2.66594
2.66617
2.66639
2.66659
2.66679
2.66697
2.66713
2.66729
2.66743
2.66757
2.66524
2.6655
2.66576
2.666
2.66625
2.66648
2.6667
2.66691
2.6671
2.66728
2.66745
2.66761
2.66776
2.66789
2.66553
2.66579
2.66605
2.66631
2.66655
2.66678
2.667
2.66721
2.6674
2.66758
2.66775
2.66791
2.66806
2.66819
2.66582
2.66609
2.66634
2.6666
2.66684
2.66707
2.66729
2.66749
2.66769
2.66787
2.66804
2.6682
2.66835
2.66848
2.66609
2.66637
2.66662
2.66687
2.66711
2.66735
2.66756
2.66777
2.66796
2.66814
2.66831
2.66847
2.66863
2.66875
2.66637
2.66664
2.66689
2.66715
2.66738
2.66761
2.66783
2.66803
2.66822
2.6684
2.66857
2.66873
2.66889
2.66901
2.66663
2.6669
2.66715
2.6674
2.66764
2.66787
2.66808
2.66828
2.66847
2.66865
2.66882
2.66897
2.66913
2.66925
2.66689
2.66716
2.66741
2.66765
2.66788
2.66811
2.66832
2.66852
2.6687
2.66888
2.66904
2.66919
2.66935
2.66947
2.66713
2.66739
2.66763
2.66788
2.66811
2.66833
2.66854
2.66873
2.66892
2.66909
2.66925
2.6694
2.66955
2.66968
2.66739
2.66765
2.66788
2.66811
2.66833
2.66854
2.66874
2.66892
2.6691
2.66927
2.66942
2.66957
2.66972
2.66987
2.6565
2.65659
2.65673
2.65686
2.65698
2.65711
2.65723
2.65734
2.65746
2.65757
2.65767
2.65777
2.65787
2.65799
2.65675
2.65685
2.65699
2.65712
2.65726
2.65739
2.65751
2.65763
2.65775
2.65786
2.65797
2.65808
2.65817
2.6583
2.65702
2.65712
2.65727
2.65741
2.65755
2.65768
2.6578
2.65792
2.65804
2.65815
2.65826
2.65837
2.65846
2.65857
2.65729
2.65741
2.65755
2.65769
2.65783
2.65796
2.65809
2.65822
2.65834
2.65845
2.65856
2.65867
2.65876
2.65887
2.65756
2.65769
2.65784
2.65798
2.65812
2.65826
2.65839
2.65851
2.65863
2.65875
2.65886
2.65896
2.65906
2.65915
2.65784
2.65798
2.65813
2.65827
2.65841
2.65855
2.65868
2.6588
2.65893
2.65904
2.65915
2.65926
2.65935
2.65944
2.65812
2.65827
2.65842
2.65856
2.6587
2.65884
2.65897
2.6591
2.65922
2.65933
2.65945
2.65955
2.65965
2.65973
2.65841
2.65856
2.65871
2.65885
2.65899
2.65913
2.65926
2.65939
2.65951
2.65963
2.65974
2.65984
2.65994
2.66002
2.65869
2.65885
2.659
2.65914
2.65928
2.65942
2.65955
2.65968
2.6598
2.65992
2.66002
2.66013
2.66022
2.6603
2.65897
2.65914
2.65928
2.65943
2.65957
2.6597
2.65983
2.65996
2.66008
2.6602
2.66031
2.66041
2.66051
2.66057
2.65925
2.65941
2.65955
2.6597
2.65984
2.65998
2.66011
2.66024
2.66036
2.66047
2.66058
2.66068
2.66077
2.66084
2.65952
2.65969
2.65983
2.65997
2.66011
2.66024
2.66037
2.6605
2.66062
2.66073
2.66084
2.66094
2.66103
2.6611
2.65977
2.65994
2.66007
2.66022
2.66035
2.66049
2.66062
2.66075
2.66086
2.66098
2.66108
2.66118
2.66127
2.66135
2.66005
2.6602
2.66033
2.66047
2.6606
2.66073
2.66085
2.66097
2.66109
2.6612
2.6613
2.6614
2.6615
2.6616
2.64983
2.64985
2.6499
2.64995
2.64999
2.65004
2.65009
2.65014
2.65018
2.65023
2.65028
2.65032
2.65037
2.65043
2.65001
2.65004
2.65009
2.65013
2.65018
2.65023
2.65027
2.65032
2.65037
2.65042
2.65047
2.65051
2.65055
2.65062
2.6502
2.65022
2.65028
2.65032
2.65037
2.65042
2.65046
2.65051
2.65056
2.65061
2.65065
2.6507
2.65073
2.6508
2.65039
2.65042
2.65047
2.65052
2.65056
2.65061
2.65066
2.6507
2.65075
2.6508
2.65085
2.65089
2.65093
2.65098
2.65059
2.65062
2.65067
2.65072
2.65076
2.65081
2.65086
2.6509
2.65095
2.651
2.65104
2.65109
2.65112
2.65117
2.65079
2.65083
2.65088
2.65092
2.65097
2.65101
2.65106
2.65111
2.65115
2.6512
2.65124
2.65129
2.65132
2.65136
2.65099
2.65104
2.65109
2.65113
2.65118
2.65122
2.65127
2.65131
2.65136
2.6514
2.65145
2.65149
2.65153
2.65156
2.6512
2.65125
2.6513
2.65134
2.65139
2.65143
2.65148
2.65152
2.65157
2.65161
2.65166
2.6517
2.65174
2.65176
2.65141
2.65146
2.65151
2.65156
2.6516
2.65165
2.65169
2.65174
2.65178
2.65183
2.65187
2.65191
2.65195
2.65197
2.65162
2.65167
2.65172
2.65177
2.65181
2.65186
2.6519
2.65195
2.652
2.65204
2.65208
2.65212
2.65216
2.65217
2.65182
2.65188
2.65192
2.65197
2.65202
2.65207
2.65211
2.65216
2.65221
2.65225
2.6523
2.65233
2.65237
2.65237
2.65202
2.65208
2.65212
2.65217
2.65222
2.65227
2.65231
2.65236
2.65241
2.65246
2.6525
2.65254
2.65257
2.65258
2.65221
2.65227
2.65231
2.65236
2.65241
2.65246
2.65251
2.65256
2.65261
2.65265
2.6527
2.65273
2.65276
2.65277
2.65241
2.65246
2.6525
2.65255
2.6526
2.65264
2.65269
2.65274
2.65279
2.65284
2.65288
2.65292
2.65296
2.65299
2.64362
2.64362
2.64362
2.64362
2.64362
2.64362
2.64362
2.64362
2.64361
2.64361
2.64361
2.6436
2.64359
2.64359
2.64374
2.64373
2.64373
2.64372
2.64372
2.64372
2.64372
2.64371
2.64371
2.64371
2.6437
2.6437
2.64369
2.64369
2.64385
2.64384
2.64383
2.64383
2.64383
2.64382
2.64382
2.64381
2.64381
2.6438
2.6438
2.64379
2.64378
2.64378
2.64397
2.64395
2.64394
2.64394
2.64393
2.64393
2.64392
2.64391
2.64391
2.6439
2.64389
2.64389
2.64387
2.64387
2.64408
2.64406
2.64406
2.64405
2.64404
2.64403
2.64402
2.64402
2.64401
2.644
2.64399
2.64398
2.64397
2.64396
2.64419
2.64418
2.64417
2.64416
2.64415
2.64414
2.64413
2.64412
2.64412
2.64411
2.6441
2.64409
2.64407
2.64406
2.6443
2.64429
2.64428
2.64427
2.64426
2.64425
2.64424
2.64423
2.64422
2.64421
2.6442
2.64419
2.64417
2.64416
2.64441
2.6444
2.64439
2.64438
2.64437
2.64436
2.64435
2.64434
2.64433
2.64432
2.64431
2.64429
2.64428
2.64426
2.64452
2.64451
2.6445
2.64449
2.64448
2.64447
2.64446
2.64445
2.64444
2.64443
2.64442
2.6444
2.64439
2.64436
2.64463
2.64462
2.64461
2.6446
2.64459
2.64458
2.64457
2.64456
2.64455
2.64454
2.64453
2.64451
2.64449
2.64447
2.64473
2.64473
2.64471
2.6447
2.64469
2.64468
2.64468
2.64467
2.64466
2.64465
2.64464
2.64462
2.6446
2.64457
2.64482
2.64482
2.64481
2.6448
2.64479
2.64479
2.64478
2.64477
2.64477
2.64476
2.64474
2.64473
2.64471
2.64468
2.64491
2.64491
2.64491
2.6449
2.64489
2.64489
2.64488
2.64488
2.64487
2.64486
2.64485
2.64483
2.64482
2.64478
2.645
2.645
2.64499
2.64499
2.64499
2.64498
2.64498
2.64498
2.64498
2.64497
2.64496
2.64494
2.64492
2.6449
2.63762
2.63761
2.63759
2.63757
2.63755
2.63753
2.63751
2.63748
2.63746
2.63742
2.63739
2.63735
2.63731
2.63727
2.63768
2.63767
2.63765
2.63763
2.63761
2.63758
2.63756
2.63753
2.6375
2.63747
2.63743
2.63739
2.63735
2.6373
2.63774
2.63772
2.6377
2.63768
2.63766
2.63763
2.63761
2.63758
2.63754
2.63751
2.63747
2.63743
2.63738
2.63734
2.63779
2.63777
2.63775
2.63773
2.6377
2.63768
2.63765
2.63762
2.63759
2.63755
2.63751
2.63747
2.63742
2.63737
2.63784
2.63782
2.6378
2.63777
2.63775
2.63772
2.63769
2.63766
2.63762
2.63759
2.63754
2.6375
2.63745
2.63741
2.63788
2.63786
2.63784
2.63782
2.63779
2.63776
2.63773
2.6377
2.63766
2.63762
2.63758
2.63753
2.63748
2.63744
2.63792
2.6379
2.63788
2.63785
2.63783
2.6378
2.63776
2.63773
2.63769
2.63765
2.63761
2.63756
2.63752
2.63746
2.63795
2.63793
2.63791
2.63788
2.63786
2.63783
2.6378
2.63776
2.63772
2.63768
2.63764
2.63759
2.63754
2.63749
2.63798
2.63796
2.63794
2.63791
2.63788
2.63785
2.63782
2.63779
2.63775
2.63771
2.63767
2.63762
2.63757
2.63751
2.638
2.63798
2.63796
2.63793
2.63791
2.63788
2.63785
2.63781
2.63777
2.63773
2.63769
2.63764
2.63759
2.63754
2.63802
2.638
2.63798
2.63795
2.63793
2.6379
2.63787
2.63783
2.6378
2.63776
2.63771
2.63767
2.63762
2.63756
2.63803
2.63801
2.63799
2.63797
2.63794
2.63792
2.63789
2.63786
2.63782
2.63778
2.63774
2.63769
2.63764
2.63758
2.63804
2.63802
2.638
2.63798
2.63796
2.63793
2.63791
2.63788
2.63784
2.6378
2.63776
2.63771
2.63766
2.6376
2.63804
2.63802
2.638
2.63799
2.63797
2.63795
2.63792
2.63789
2.63786
2.63782
2.63778
2.63774
2.63768
2.63762
2.63164
2.63163
2.63162
2.63161
2.63159
2.63156
2.63154
2.6315
2.63147
2.63142
2.63138
2.63133
2.63127
2.63121
2.63167
2.63166
2.63165
2.63163
2.63161
2.63159
2.63156
2.63153
2.63149
2.63144
2.63139
2.63134
2.63128
2.63122
2.63169
2.63168
2.63167
2.63166
2.63164
2.63161
2.63158
2.63155
2.63151
2.63146
2.63141
2.63136
2.6313
2.63124
2.63171
2.6317
2.63169
2.63167
2.63165
2.63163
2.6316
2.63156
2.63152
2.63147
2.63142
2.63137
2.63131
2.63125
2.63172
2.63171
2.6317
2.63168
2.63166
2.63163
2.6316
2.63157
2.63153
2.63148
2.63143
2.63137
2.63131
2.63125
2.63172
2.63171
2.6317
2.63168
2.63166
2.63163
2.6316
2.63157
2.63153
2.63148
2.63143
2.63137
2.63131
2.63125
2.63172
2.63171
2.63169
2.63168
2.63166
2.63163
2.6316
2.63156
2.63152
2.63147
2.63142
2.63137
2.63131
2.63124
2.63171
2.6317
2.63168
2.63167
2.63165
2.63162
2.63159
2.63155
2.63151
2.63146
2.63141
2.63135
2.63129
2.63123
2.63169
2.63168
2.63167
2.63165
2.63163
2.6316
2.63157
2.63154
2.63149
2.63145
2.63139
2.63134
2.63128
2.63121
2.63167
2.63166
2.63164
2.63163
2.63161
2.63158
2.63155
2.63151
2.63147
2.63142
2.63137
2.63132
2.63125
2.63119
2.63164
2.63163
2.63162
2.6316
2.63158
2.63155
2.63152
2.63149
2.63145
2.6314
2.63135
2.63129
2.63123
2.63117
2.6316
2.63159
2.63158
2.63157
2.63155
2.63152
2.63149
2.63146
2.63142
2.63137
2.63132
2.63126
2.6312
2.63114
2.63157
2.63156
2.63155
2.63153
2.63151
2.63149
2.63146
2.63143
2.63138
2.63134
2.63129
2.63123
2.63117
2.63111
2.63152
2.63151
2.6315
2.63149
2.63147
2.63145
2.63142
2.63139
2.63135
2.63131
2.63126
2.63121
2.63115
2.63109
2.62573
2.62573
2.62572
2.62571
2.6257
2.62568
2.62566
2.62563
2.6256
2.62556
2.62552
2.62548
2.62543
2.62537
2.62573
2.62573
2.62573
2.62572
2.62571
2.62569
2.62567
2.62564
2.62561
2.62557
2.62553
2.62548
2.62543
2.62538
2.62574
2.62574
2.62574
2.62573
2.62572
2.6257
2.62568
2.62565
2.62562
2.62558
2.62554
2.62549
2.62544
2.62538
2.62573
2.62574
2.62573
2.62573
2.62572
2.6257
2.62568
2.62565
2.62562
2.62558
2.62554
2.62549
2.62544
2.62538
2.62573
2.62573
2.62573
2.62572
2.62571
2.6257
2.62568
2.62565
2.62561
2.62558
2.62553
2.62548
2.62543
2.62538
2.62571
2.62572
2.62572
2.62571
2.6257
2.62569
2.62566
2.62564
2.6256
2.62557
2.62552
2.62547
2.62542
2.62537
2.62569
2.6257
2.6257
2.62569
2.62568
2.62567
2.62565
2.62562
2.62559
2.62555
2.62551
2.62546
2.62541
2.62535
2.62567
2.62567
2.62567
2.62567
2.62566
2.62564
2.62562
2.6256
2.62556
2.62553
2.62548
2.62544
2.62538
2.62533
2.62564
2.62564
2.62565
2.62564
2.62563
2.62562
2.62559
2.62557
2.62553
2.6255
2.62545
2.62541
2.62536
2.6253
2.62561
2.62561
2.62561
2.62561
2.6256
2.62558
2.62556
2.62553
2.6255
2.62546
2.62542
2.62537
2.62532
2.62527
2.62557
2.62557
2.62557
2.62557
2.62556
2.62554
2.62552
2.62549
2.62546
2.62542
2.62538
2.62534
2.62529
2.62524
2.62553
2.62553
2.62553
2.62552
2.62551
2.6255
2.62548
2.62545
2.62542
2.62538
2.62534
2.6253
2.62524
2.6252
2.62549
2.62548
2.62548
2.62548
2.62547
2.62545
2.62543
2.6254
2.62537
2.62533
2.62529
2.62525
2.6252
2.62516
2.62543
2.62543
2.62543
2.62543
2.62542
2.6254
2.62538
2.62535
2.62532
2.62529
2.62525
2.62521
2.62516
2.62511
2.62007
2.62007
2.62006
2.62006
2.62005
2.62004
2.62002
2.62
2.61998
2.61996
2.61994
2.61991
2.61988
2.61985
2.62006
2.62006
2.62006
2.62005
2.62005
2.62004
2.62002
2.62
2.61998
2.61996
2.61993
2.61991
2.61988
2.61985
2.62005
2.62005
2.62005
2.62005
2.62004
2.62003
2.62002
2.62
2.61998
2.61996
2.61993
2.6199
2.61988
2.61985
2.62004
2.62004
2.62004
2.62004
2.62003
2.62002
2.62001
2.62
2.61998
2.61995
2.61993
2.6199
2.61987
2.61984
2.62003
2.62003
2.62003
2.62003
2.62002
2.62002
2.62
2.61999
2.61997
2.61994
2.61992
2.61989
2.61986
2.61983
2.62001
2.62002
2.62002
2.62002
2.62001
2.62
2.61999
2.61997
2.61996
2.61993
2.61991
2.61988
2.61985
2.61982
2.61999
2.62
2.62
2.62
2.61999
2.61999
2.61997
2.61996
2.61994
2.61992
2.61989
2.61987
2.61984
2.61981
2.61997
2.61998
2.61998
2.61998
2.61997
2.61997
2.61996
2.61994
2.61992
2.6199
2.61988
2.61985
2.61982
2.61979
2.61995
2.61996
2.61996
2.61996
2.61995
2.61994
2.61993
2.61992
2.6199
2.61988
2.61985
2.61983
2.6198
2.61977
2.61993
2.61993
2.61993
2.61993
2.61993
2.61992
2.61991
2.61989
2.61987
2.61985
2.61983
2.6198
2.61978
2.61975
2.6199
2.6199
2.6199
2.6199
2.6199
2.61989
2.61988
2.61986
2.61985
2.61982
2.6198
2.61978
2.61975
2.61973
2.61988
2.61987
2.61988
2.61987
2.61987
2.61986
2.61985
2.61983
2.61981
2.61979
2.61977
2.61975
2.61972
2.6197
2.61985
2.61984
2.61984
2.61984
2.61984
2.61983
2.61982
2.6198
2.61978
2.61976
2.61974
2.61972
2.61969
2.61967
2.61982
2.61982
2.61981
2.61981
2.6198
2.61979
2.61978
2.61977
2.61975
2.61973
2.61971
2.61969
2.61966
2.61964
2.61488
2.61487
2.61486
2.61484
2.61483
2.61482
2.61482
2.61481
2.6148
2.6148
2.61479
2.61479
2.61479
2.6148
2.61486
2.61485
2.61484
2.61483
2.61482
2.61481
2.6148
2.61479
2.61479
2.61478
2.61478
2.61477
2.61477
2.61478
2.61484
2.61483
2.61482
2.61481
2.6148
2.61479
2.61478
2.61478
2.61477
2.61476
2.61476
2.61476
2.61476
2.61476
2.61482
2.61481
2.6148
2.61479
2.61478
2.61478
2.61477
2.61476
2.61475
2.61475
2.61475
2.61475
2.61475
2.61475
2.61481
2.6148
2.61479
2.61478
2.61477
2.61476
2.61475
2.61475
2.61474
2.61474
2.61473
2.61473
2.61473
2.61473
2.6148
2.61479
2.61478
2.61477
2.61476
2.61475
2.61474
2.61474
2.61473
2.61473
2.61472
2.61472
2.61472
2.61472
2.61479
2.61477
2.61476
2.61475
2.61475
2.61474
2.61473
2.61472
2.61472
2.61471
2.61471
2.61471
2.61471
2.61471
2.61477
2.61476
2.61475
2.61474
2.61473
2.61473
2.61472
2.61471
2.61471
2.6147
2.6147
2.6147
2.6147
2.6147
2.61476
2.61475
2.61474
2.61473
2.61472
2.61472
2.61471
2.6147
2.6147
2.6147
2.61469
2.61469
2.61469
2.6147
2.61476
2.61475
2.61473
2.61472
2.61472
2.61471
2.6147
2.6147
2.61469
2.61469
2.61469
2.61468
2.61469
2.61469
2.61475
2.61474
2.61473
2.61472
2.61471
2.6147
2.61469
2.61469
2.61468
2.61468
2.61468
2.61468
2.61468
2.61469
2.61475
2.61473
2.61472
2.61471
2.6147
2.6147
2.61469
2.61468
2.61468
2.61468
2.61467
2.61467
2.61468
2.61468
2.61475
2.61473
2.61472
2.61471
2.6147
2.61469
2.61469
2.61468
2.61468
2.61467
2.61467
2.61467
2.61467
2.61468
2.61475
2.61473
2.61472
2.61471
2.6147
2.61469
2.61468
2.61468
2.61467
2.61467
2.61467
2.61467
2.61467
2.61468
2.61028
2.61025
2.61022
2.6102
2.61019
2.61018
2.61017
2.61017
2.61017
2.61018
2.61019
2.61021
2.61023
2.61026
2.61025
2.61022
2.61019
2.61017
2.61016
2.61015
2.61014
2.61014
2.61014
2.61015
2.61016
2.61018
2.6102
2.61022
2.61022
2.61019
2.61017
2.61015
2.61013
2.61012
2.61011
2.61011
2.61011
2.61012
2.61013
2.61015
2.61017
2.6102
2.6102
2.61017
2.61014
2.61012
2.6101
2.61009
2.61008
2.61008
2.61009
2.6101
2.61011
2.61013
2.61015
2.61017
2.61018
2.61015
2.61012
2.6101
2.61008
2.61007
2.61006
2.61006
2.61007
2.61008
2.61009
2.61011
2.61013
2.61016
2.61017
2.61014
2.61011
2.61009
2.61007
2.61006
2.61005
2.61005
2.61005
2.61006
2.61008
2.6101
2.61012
2.61015
2.61016
2.61013
2.6101
2.61008
2.61006
2.61005
2.61004
2.61004
2.61004
2.61005
2.61007
2.61009
2.61011
2.61014
2.61015
2.61012
2.6101
2.61007
2.61006
2.61004
2.61004
2.61004
2.61004
2.61005
2.61006
2.61008
2.61011
2.61013
2.61015
2.61012
2.6101
2.61008
2.61006
2.61005
2.61004
2.61004
2.61004
2.61005
2.61007
2.61009
2.61011
2.61014
2.61016
2.61013
2.6101
2.61008
2.61007
2.61005
2.61005
2.61004
2.61005
2.61006
2.61007
2.61009
2.61012
2.61014
2.61017
2.61014
2.61011
2.61009
2.61008
2.61007
2.61006
2.61006
2.61006
2.61007
2.61008
2.6101
2.61013
2.61015
2.61018
2.61016
2.61013
2.61011
2.6101
2.61008
2.61008
2.61007
2.61008
2.61009
2.6101
2.61012
2.61014
2.61017
2.6102
2.61018
2.61015
2.61013
2.61012
2.61011
2.6101
2.6101
2.6101
2.61011
2.61012
2.61014
2.61016
2.61019
2.61023
2.6102
2.61018
2.61016
2.61014
2.61013
2.61012
2.61012
2.61012
2.61013
2.61014
2.61016
2.61018
2.61021
2.60623
2.60619
2.60616
2.60613
2.60611
2.6061
2.60609
2.6061
2.6061
2.60612
2.60613
2.60616
2.60618
2.60622
2.60619
2.60616
2.60613
2.6061
2.60608
2.60607
2.60606
2.60606
2.60607
2.60608
2.6061
2.60612
2.60615
2.60618
2.60616
2.60613
2.60609
2.60607
2.60605
2.60603
2.60603
2.60603
2.60603
2.60605
2.60606
2.60609
2.60612
2.60615
2.60614
2.6061
2.60607
2.60604
2.60602
2.60601
2.606
2.606
2.60601
2.60602
2.60604
2.60606
2.60609
2.60612
2.60612
2.60608
2.60605
2.60602
2.606
2.60599
2.60598
2.60598
2.60598
2.606
2.60602
2.60604
2.60607
2.6061
2.6061
2.60607
2.60603
2.60601
2.60599
2.60597
2.60596
2.60596
2.60597
2.60598
2.606
2.60603
2.60606
2.60609
2.6061
2.60606
2.60603
2.606
2.60598
2.60596
2.60595
2.60595
2.60596
2.60597
2.60599
2.60602
2.60605
2.60609
2.60609
2.60606
2.60602
2.606
2.60598
2.60596
2.60595
2.60595
2.60596
2.60597
2.60599
2.60602
2.60605
2.60609
2.6061
2.60606
2.60603
2.606
2.60598
2.60597
2.60596
2.60596
2.60597
2.60598
2.606
2.60603
2.60606
2.60609
2.60611
2.60607
2.60604
2.60602
2.606
2.60598
2.60597
2.60597
2.60598
2.60599
2.60601
2.60604
2.60607
2.6061
2.60612
2.60609
2.60606
2.60604
2.60602
2.606
2.60599
2.60599
2.606
2.60601
2.60603
2.60606
2.60609
2.60612
2.60615
2.60612
2.60609
2.60606
2.60604
2.60603
2.60602
2.60602
2.60602
2.60604
2.60605
2.60608
2.60611
2.60614
2.60618
2.60615
2.60612
2.60609
2.60607
2.60606
2.60605
2.60605
2.60605
2.60607
2.60608
2.60611
2.60614
2.60617
2.60621
2.60618
2.60615
2.60613
2.60611
2.6061
2.60609
2.60608
2.60609
2.6061
2.60611
2.60613
2.60616
2.6062
2.60262
2.60259
2.60256
2.60254
2.60253
2.60252
2.60251
2.60251
2.60252
2.60253
2.60254
2.60255
2.60257
2.60259
2.60259
2.60257
2.60254
2.60252
2.6025
2.60249
2.60249
2.60249
2.60249
2.6025
2.60251
2.60253
2.60255
2.60257
2.60257
2.60254
2.60252
2.6025
2.60248
2.60247
2.60246
2.60246
2.60247
2.60247
2.60249
2.6025
2.60252
2.60254
2.60255
2.60253
2.6025
2.60248
2.60246
2.60245
2.60244
2.60244
2.60245
2.60245
2.60247
2.60248
2.6025
2.60252
2.60254
2.60251
2.60248
2.60246
2.60245
2.60243
2.60243
2.60243
2.60243
2.60244
2.60245
2.60247
2.60249
2.60251
2.60253
2.6025
2.60247
2.60245
2.60243
2.60242
2.60242
2.60241
2.60242
2.60243
2.60244
2.60246
2.60248
2.6025
2.60252
2.60249
2.60247
2.60245
2.60243
2.60242
2.60241
2.60241
2.60241
2.60242
2.60244
2.60245
2.60247
2.6025
2.60252
2.60249
2.60247
2.60244
2.60243
2.60242
2.60241
2.60241
2.60241
2.60242
2.60243
2.60245
2.60247
2.6025
2.60252
2.6025
2.60247
2.60245
2.60243
2.60242
2.60242
2.60241
2.60242
2.60243
2.60244
2.60246
2.60248
2.6025
2.60253
2.6025
2.60248
2.60246
2.60244
2.60243
2.60242
2.60242
2.60243
2.60244
2.60245
2.60247
2.60249
2.60251
2.60254
2.60252
2.60249
2.60247
2.60246
2.60245
2.60244
2.60244
2.60244
2.60245
2.60246
2.60248
2.6025
2.60252
2.60256
2.60254
2.60251
2.60249
2.60248
2.60247
2.60246
2.60246
2.60246
2.60247
2.60248
2.6025
2.60252
2.60254
2.60258
2.60256
2.60254
2.60252
2.6025
2.60249
2.60248
2.60248
2.60248
2.60249
2.6025
2.60252
2.60254
2.60256
2.60261
2.60258
2.60256
2.60254
2.60252
2.60251
2.60251
2.6025
2.6025
2.60251
2.60252
2.60254
2.60255
2.60258
2.59934
2.59933
2.59933
2.59932
2.59931
2.59931
2.5993
2.5993
2.5993
2.5993
2.5993
2.59931
2.59931
2.59931
2.59934
2.59933
2.59932
2.59931
2.5993
2.5993
2.59929
2.59929
2.59929
2.59929
2.59929
2.5993
2.5993
2.5993
2.59933
2.59932
2.59931
2.5993
2.5993
2.59929
2.59929
2.59928
2.59928
2.59928
2.59928
2.59929
2.59929
2.59929
2.59932
2.59931
2.5993
2.5993
2.59929
2.59928
2.59928
2.59928
2.59928
2.59928
2.59928
2.59928
2.59928
2.59929
2.59931
2.59931
2.5993
2.59929
2.59928
2.59928
2.59927
2.59927
2.59927
2.59927
2.59927
2.59927
2.59928
2.59928
2.59931
2.5993
2.59929
2.59929
2.59928
2.59927
2.59927
2.59927
2.59927
2.59927
2.59927
2.59927
2.59927
2.59928
2.59931
2.5993
2.59929
2.59928
2.59928
2.59927
2.59927
2.59926
2.59926
2.59926
2.59926
2.59927
2.59927
2.59927
2.59931
2.5993
2.59929
2.59928
2.59928
2.59927
2.59927
2.59926
2.59926
2.59926
2.59926
2.59927
2.59927
2.59927
2.59931
2.5993
2.59929
2.59928
2.59928
2.59927
2.59927
2.59926
2.59926
2.59926
2.59926
2.59927
2.59927
2.59927
2.59931
2.5993
2.59929
2.59928
2.59928
2.59927
2.59927
2.59926
2.59926
2.59926
2.59927
2.59927
2.59927
2.59928
2.59931
2.5993
2.59929
2.59929
2.59928
2.59927
2.59927
2.59927
2.59927
2.59927
2.59927
2.59927
2.59927
2.59928
2.59931
2.59931
2.5993
2.59929
2.59928
2.59928
2.59927
2.59927
2.59927
2.59927
2.59927
2.59927
2.59928
2.59928
2.59932
2.59931
2.5993
2.5993
2.59929
2.59928
2.59928
2.59927
2.59927
2.59927
2.59927
2.59928
2.59928
2.59929
2.59932
2.59932
2.59931
2.5993
2.59929
2.59929
2.59928
2.59928
2.59928
2.59928
2.59928
2.59928
2.59928
2.59929
2.5963
2.59632
2.59632
2.59633
2.59633
2.59633
2.59633
2.59633
2.59632
2.59632
2.59631
2.5963
2.59631
2.59633
2.59633
2.59634
2.59634
2.59634
2.59634
2.59634
2.59633
2.59633
2.59632
2.59631
2.59632
2.59633
2.59634
2.59635
2.59635
2.59635
2.59635
2.59635
2.59634
2.59634
2.59633
2.59631
2.59632
2.59634
2.59635
2.59635
2.59636
2.59636
2.59636
2.59636
2.59635
2.59634
2.59633
2.59632
2.59633
2.59634
2.59635
2.59636
2.59636
2.59636
2.59636
2.59636
2.59636
2.59635
2.59634
2.59632
2.59633
2.59634
2.59635
2.59636
2.59636
2.59637
2.59637
2.59636
2.59636
2.59635
2.59634
2.59633
2.59633
2.59634
2.59635
2.59636
2.59636
2.59637
2.59637
2.59636
2.59636
2.59635
2.59634
2.59633
2.59633
2.59634
2.59635
2.59636
2.59636
2.59636
2.59636
2.59636
2.59636
2.59635
2.59634
2.59632
2.59633
2.59634
2.59635
2.59635
2.59636
2.59636
2.59636
2.59636
2.59635
2.59634
2.59633
2.59632
2.59632
2.59633
2.59634
2.59635
2.59635
2.59635
2.59635
2.59635
2.59634
2.59634
2.59633
2.59631
2.59631
2.59632
2.59633
2.59634
2.59634
2.59634
2.59634
2.59634
2.59633
2.59633
2.59632
2.5963
2.5963
2.59631
2.59632
2.59632
2.59633
2.59633
2.59633
2.59633
2.59632
2.59631
2.5963
2.59629
2.59629
2.5963
2.59631
2.59631
2.59631
2.59632
2.59631
2.59631
2.59631
2.5963
2.59629
2.59628
2.59628
2.59628
2.59629
2.59629
2.5963
2.5963
2.5963
2.5963
2.59629
2.59629
2.59628
2.59627
2.70313
2.70395
2.70464
2.70534
2.70598
2.70663
2.7027
2.70358
2.70434
2.70516
2.70589
2.7066
2.7024
2.70335
2.70419
2.70505
2.70583
2.70657
2.70212
2.70312
2.70402
2.70491
2.70573
2.70648
2.69774
2.69845
2.69908
2.69972
2.7003
2.70087
2.69742
2.69821
2.69895
2.69971
2.70044
2.70114
2.69728
2.69815
2.69898
2.6998
2.70059
2.70133
2.69714
2.69806
2.69893
2.69978
2.70061
2.70138
2.69702
2.69796
2.69887
2.69974
2.70058
2.70134
2.69691
2.69787
2.69879
2.69967
2.7005
2.70125
2.69684
2.69779
2.69872
2.69959
2.7004
2.70113
2.69182
2.69218
2.69253
2.69288
2.69324
2.69359
2.69175
2.69221
2.69269
2.69317
2.69362
2.69407
2.69181
2.69235
2.69291
2.69344
2.69395
2.69444
2.69185
2.69245