/*--------------------------------*- C++ -*----------------------------------*\
| =========                 |                                                 |
| \\      /  F ield         | OpenFOAM: The Open Source CFD Toolbox           |
|  \\    /   O peration     | Version:  v2106                                 |
|   \\  /    A nd           | Website:  www.openfoam.com                      |
|    \\/     M anipulation  |                                                 |
\*---------------------------------------------------------------------------*/
FoamFile
{
    version     2.0;
    format      ascii;
    arch        "LSB;label=32;scalar=64";
    class       volVectorField;
    location    "0.000163";
    object      U;
}
// * * * * * * * * * * * * * * * * * * * * * * * * * * * * * * * * * * * * * //

dimensions      [0 1 -1 0 0 0 0];

internalField   nonuniform List<vector> 
17924
(
(-0.457468 -0.106834 21.9999)
(-0.464425 -0.13088 21.9707)
(-0.453286 -0.152784 21.9214)
(-0.448344 -0.180224 21.8817)
(-0.586579 -0.447259 21.2143)
(-0.586498 -0.476572 21.1885)
(-0.561448 -0.49458 21.1591)
(-0.535888 -0.512862 21.1468)
(-0.508912 -0.5267 21.1409)
(-0.482948 -0.540503 21.138)
(-0.457767 -0.554276 21.1349)
(-0.618006 -0.433977 21.1534)
(-0.610757 -0.45831 21.1083)
(-0.572543 -0.473303 21.0847)
(-0.54779 -0.492328 21.0763)
(-0.523339 -0.50535 21.0741)
(-0.500901 -0.518126 21.0731)
(-0.479061 -0.532141 21.0724)
(-0.626553 -0.437503 21.0633)
(-0.619896 -0.452626 21.0278)
(-0.58624 -0.46277 21.0125)
(-0.561237 -0.477896 21.0076)
(-0.53617 -0.488442 21.0075)
(-0.511686 -0.498197 21.0071)
(-0.487309 -0.508602 21.0081)
(-0.640409 -0.416884 20.9821)
(-0.627674 -0.431562 20.9588)
(-0.59826 -0.442585 20.9486)
(-0.574137 -0.457785 20.9447)
(-0.550088 -0.469225 20.9446)
(-0.525783 -0.479651 20.9432)
(-0.500632 -0.488752 20.9443)
(-0.654876 -0.410208 20.9125)
(-0.636786 -0.421155 20.8955)
(-0.608435 -0.430231 20.8875)
(-0.582503 -0.442502 20.8834)
(-0.556918 -0.45053 20.883)
(-0.531506 -0.458814 20.8812)
(-0.505444 -0.465534 20.8822)
(-0.661166 -0.397886 20.85)
(-0.64034 -0.406984 20.8353)
(-0.614233 -0.4168 20.8276)
(-0.589302 -0.427379 20.8231)
(-0.564268 -0.433288 20.8215)
(-0.538924 -0.439697 20.82)
(-0.512741 -0.443678 20.8213)
(-0.669178 -0.387823 20.7888)
(-0.644289 -0.392566 20.7758)
(-0.618479 -0.400199 20.7683)
(-0.593327 -0.407684 20.7643)
(-0.567915 -0.411264 20.7621)
(-0.541926 -0.416062 20.7614)
(-0.514971 -0.41885 20.7629)
(-0.675586 -0.378778 20.7279)
(-0.647392 -0.380396 20.7157)
(-0.621733 -0.38548 20.7079)
(-0.596647 -0.39046 20.7046)
(-0.570981 -0.39199 20.7027)
(-0.544582 -0.394916 20.7036)
(-0.516973 -0.395492 20.7061)
(-0.681475 -0.366455 20.6705)
(-0.651739 -0.363659 20.6587)
(-0.626221 -0.364327 20.6512)
(-0.600914 -0.367361 20.6486)
(-0.574268 -0.368107 20.6475)
(-0.546644 -0.370282 20.6497)
(-0.517545 -0.370517 20.6526)
(-0.685486 -0.353399 20.6173)
(-0.654863 -0.348069 20.6048)
(-0.628627 -0.345441 20.5969)
(-0.602307 -0.348505 20.5942)
(-0.574557 -0.348671 20.5941)
(-0.545871 -0.349838 20.5975)
(-0.516022 -0.348493 20.6012)
(-0.688782 -0.332019 20.5677)
(-0.659281 -0.326181 20.5562)
(-0.633115 -0.32222 20.5483)
(-0.605458 -0.324682 20.5461)
(-0.576457 -0.324638 20.5467)
(-0.546237 -0.324863 20.5507)
(-0.515182 -0.323293 20.5545)
(-0.694459 -0.310663 20.5124)
(-0.662276 -0.309068 20.5039)
(-0.632768 -0.304112 20.4982)
(-0.601996 -0.306642 20.4974)
(-0.571313 -0.305526 20.4991)
(-0.540285 -0.306058 20.5037)
(-0.509123 -0.303609 20.508)
(-0.68585 -0.284254 20.456)
(-0.652228 -0.288385 20.451)
(-0.621458 -0.284465 20.4486)
(-0.591828 -0.283437 20.4522)
(-0.563345 -0.281249 20.455)
(-0.535906 -0.279138 20.462)
(-0.506731 -0.275712 20.4678)
(-0.692641 -0.262693 20.3989)
(-0.65937 -0.27848 20.3966)
(-0.625626 -0.267085 20.3966)
(-0.590349 -0.260846 20.4062)
(-0.557062 -0.254825 20.4139)
(-0.524691 -0.253729 20.423)
(-0.491697 -0.250879 20.4305)
(-0.623637 -0.721029 20.3807)
(-0.607426 -0.745622 20.373)
(-0.574744 -0.750907 20.3724)
(-0.543528 -0.758951 20.3859)
(-0.508095 -0.768874 20.3992)
(-0.472568 -0.776159 20.4138)
(-0.437127 -0.78426 20.4267)
(-0.402048 -0.790769 20.4398)
(-0.367007 -0.798159 20.4533)
(-0.332389 -0.806859 20.469)
(-0.3 -0.812969 20.4904)
(-0.270498 -0.821874 20.5136)
(-0.251333 -0.833735 20.5353)
(-0.245196 -0.829272 20.5516)
(-0.633892 -0.700018 20.323)
(-0.61291 -0.716127 20.3243)
(-0.580999 -0.726379 20.3265)
(-0.551268 -0.735379 20.343)
(-0.518035 -0.745518 20.3592)
(-0.485181 -0.752808 20.3748)
(-0.452813 -0.762249 20.3895)
(-0.419132 -0.769901 20.4022)
(-0.385264 -0.778837 20.4156)
(-0.351301 -0.788236 20.4301)
(-0.319195 -0.795075 20.449)
(-0.286681 -0.802008 20.4651)
(-0.256077 -0.806015 20.4821)
(-0.234607 -0.807373 20.5082)
(-0.642522 -0.692202 20.2631)
(-0.622549 -0.705262 20.2726)
(-0.591661 -0.713922 20.2816)
(-0.5609 -0.721074 20.2996)
(-0.5267 -0.727031 20.3185)
(-0.491545 -0.730856 20.3346)
(-0.457419 -0.736946 20.351)
(-0.422479 -0.743415 20.3638)
(-0.388491 -0.750386 20.3789)
(-0.354413 -0.757135 20.3944)
(-0.322609 -0.761694 20.4141)
(-0.2903 -0.765459 20.4296)
(-0.259683 -0.76729 20.445)
(-0.239886 -0.777564 20.4634)
(-0.649469 -0.670549 20.2185)
(-0.62867 -0.680635 20.233)
(-0.59806 -0.690317 20.2455)
(-0.567181 -0.698413 20.2623)
(-0.534211 -0.703951 20.2808)
(-0.499595 -0.708506 20.2955)
(-0.465608 -0.712813 20.3123)
(-0.430779 -0.717268 20.3264)
(-0.397116 -0.722243 20.3435)
(-0.362834 -0.726959 20.3605)
(-0.33024 -0.730463 20.3813)
(-0.296508 -0.731096 20.3991)
(-0.264237 -0.729148 20.4167)
(-0.239256 -0.735662 20.4324)
(-0.660825 -0.651673 20.186)
(-0.635818 -0.659866 20.1991)
(-0.603022 -0.667243 20.2129)
(-0.569961 -0.674175 20.2284)
(-0.536211 -0.676765 20.2461)
(-0.501303 -0.680846 20.26)
(-0.467049 -0.683937 20.276)
(-0.432228 -0.687914 20.2904)
(-0.398523 -0.691894 20.3077)
(-0.364764 -0.69482 20.3258)
(-0.332366 -0.697459 20.3474)
(-0.29919 -0.695697 20.3676)
(-0.266606 -0.692562 20.3868)
(-0.238328 -0.694444 20.4026)
(-0.6639 -0.630862 20.1558)
(-0.636294 -0.639128 20.1654)
(-0.603758 -0.644569 20.1782)
(-0.571771 -0.650596 20.1927)
(-0.539039 -0.651104 20.2089)
(-0.505146 -0.654027 20.2232)
(-0.471326 -0.654619 20.2397)
(-0.436973 -0.656327 20.2559)
(-0.403303 -0.657894 20.2742)
(-0.370109 -0.658514 20.2938)
(-0.337545 -0.659886 20.3155)
(-0.305056 -0.65654 20.3381)
(-0.271401 -0.652829 20.3587)
(-0.239799 -0.650051 20.3766)
(-0.667922 -0.609025 20.1229)
(-0.637002 -0.615672 20.1318)
(-0.60428 -0.617695 20.1445)
(-0.572212 -0.621747 20.1594)
(-0.539068 -0.62078 20.1744)
(-0.505116 -0.622882 20.1893)
(-0.470684 -0.622527 20.2051)
(-0.43614 -0.623261 20.2217)
(-0.401921 -0.623473 20.2393)
(-0.368978 -0.622374 20.2592)
(-0.336311 -0.622484 20.2801)
(-0.30485 -0.618428 20.3036)
(-0.271052 -0.614905 20.3244)
(-0.237998 -0.609081 20.3441)
(-0.668442 -0.588491 20.0865)
(-0.635889 -0.592716 20.096)
(-0.603775 -0.592672 20.1082)
(-0.572002 -0.594493 20.1236)
(-0.538921 -0.592156 20.1385)
(-0.505167 -0.592443 20.1548)
(-0.470508 -0.590053 20.1711)
(-0.435937 -0.588495 20.1891)
(-0.401217 -0.586247 20.2071)
(-0.367994 -0.582959 20.2275)
(-0.334772 -0.581129 20.2481)
(-0.303217 -0.577076 20.2718)
(-0.269094 -0.573291 20.2922)
(-0.235376 -0.566587 20.3139)
(-0.670548 -0.565003 20.0537)
(-0.636699 -0.564979 20.0625)
(-0.605598 -0.56277 20.0757)
(-0.572961 -0.562658 20.0915)
(-0.53874 -0.559912 20.1064)
(-0.504043 -0.559276 20.1234)
(-0.468177 -0.556346 20.1393)
(-0.432813 -0.553637 20.1573)
(-0.397085 -0.549946 20.1748)
(-0.363099 -0.544889 20.1951)
(-0.329087 -0.540908 20.2158)
(-0.296722 -0.536707 20.24)
(-0.263172 -0.530803 20.2617)
(-0.227632 -0.525657 20.2827)
(-0.671469 -0.540095 20.0254)
(-0.634974 -0.537461 20.0296)
(-0.604466 -0.534017 20.0434)
(-0.570686 -0.533015 20.0587)
(-0.535811 -0.529644 20.0742)
(-0.500619 -0.527497 20.0921)
(-0.464209 -0.523189 20.1086)
(-0.428507 -0.518461 20.1273)
(-0.392242 -0.512634 20.1451)
(-0.357613 -0.505538 20.1658)
(-0.322874 -0.499276 20.187)
(-0.288908 -0.495061 20.2118)
(-0.256059 -0.486673 20.2359)
(-0.216852 -0.483994 20.2545)
(-0.672433 -0.509531 20.004)
(-0.634423 -0.505715 20.004)
(-0.604317 -0.500647 20.0182)
(-0.569544 -0.498847 20.033)
(-0.533765 -0.495274 20.0482)
(-0.497762 -0.4924 20.066)
(-0.460197 -0.487991 20.0816)
(-0.42356 -0.482467 20.0996)
(-0.386354 -0.475649 20.1166)
(-0.350794 -0.467163 20.137)
(-0.314912 -0.458979 20.1587)
(-0.279013 -0.453488 20.1855)
(-0.246738 -0.442275 20.2148)
(-0.203141 -0.439993 20.2316)
(-0.672841 -0.476463 19.977)
(-0.631689 -0.47632 19.9752)
(-0.599837 -0.468868 19.99)
(-0.562968 -0.467469 20.0049)
(-0.52627 -0.463375 20.0201)
(-0.489684 -0.4604 20.0377)
(-0.452081 -0.455158 20.0536)
(-0.415706 -0.447993 20.0722)
(-0.378762 -0.439255 20.09)
(-0.343039 -0.429088 20.1108)
(-0.306498 -0.419609 20.1332)
(-0.269129 -0.413518 20.1597)
(-0.237743 -0.401835 20.1907)
(-0.191644 -0.397046 20.2045)
(-0.661212 -0.445195 19.9433)
(-0.618627 -0.449316 19.944)
(-0.584993 -0.439338 19.9597)
(-0.550871 -0.433972 19.9794)
(-0.51551 -0.428172 19.9951)
(-0.482255 -0.42269 20.0145)
(-0.44691 -0.416275 20.0308)
(-0.412468 -0.408126 20.0495)
(-0.375879 -0.39913 20.0667)
(-0.339553 -0.38841 20.087)
(-0.301621 -0.378067 20.1094)
(-0.265092 -0.367948 20.1384)
(-0.232692 -0.35533 20.1703)
(-0.183208 -0.346539 20.1783)
(-0.667453 -0.409923 19.904)
(-0.617972 -0.422324 19.9099)
(-0.581747 -0.40258 19.9292)
(-0.542979 -0.397151 19.9525)
(-0.504443 -0.389971 19.97)
(-0.467864 -0.385497 19.99)
(-0.429653 -0.379636 20.0074)
(-0.392943 -0.371844 20.0281)
(-0.354907 -0.363614 20.047)
(-0.318634 -0.35304 20.0665)
(-0.282851 -0.342908 20.0836)
(-0.250915 -0.332763 20.103)
(-0.219929 -0.329427 20.1243)
(-0.179215 -0.313998 20.1279)
(-0.557748 -0.851036 19.4968)
(-0.530301 -0.854005 19.5147)
(-0.498738 -0.864668 19.5372)
(-0.466272 -0.866306 19.568)
(-0.432672 -0.873364 19.5997)
(-0.396522 -0.875999 19.6288)
(-0.360389 -0.881083 19.6542)
(-0.323615 -0.882924 19.6755)
(-0.287331 -0.886548 19.6964)
(-0.251037 -0.891184 19.7182)
(-0.214835 -0.892003 19.7421)
(-0.179079 -0.899644 19.7663)
(-0.151273 -0.906188 19.7915)
(-0.123579 -0.905743 19.8027)
(-0.551415 -0.829359 19.4758)
(-0.529788 -0.831859 19.4977)
(-0.500711 -0.841626 19.5236)
(-0.469523 -0.844843 19.5559)
(-0.437692 -0.852686 19.5886)
(-0.404292 -0.856234 19.6179)
(-0.372009 -0.861959 19.646)
(-0.336301 -0.865302 19.6697)
(-0.299299 -0.869829 19.6919)
(-0.261774 -0.874241 19.7134)
(-0.225739 -0.875767 19.7373)
(-0.188914 -0.880547 19.7569)
(-0.16022 -0.882811 19.7791)
(-0.126643 -0.884692 19.7843)
(-0.560819 -0.809261 19.456)
(-0.538051 -0.813215 19.4832)
(-0.511498 -0.822934 19.5161)
(-0.477546 -0.82686 19.5487)
(-0.445623 -0.832228 19.5839)
(-0.408198 -0.833793 19.6115)
(-0.372892 -0.837518 19.6389)
(-0.335004 -0.840982 19.6605)
(-0.298749 -0.845228 19.6834)
(-0.261636 -0.849147 19.7048)
(-0.22689 -0.850703 19.7295)
(-0.19019 -0.852345 19.7486)
(-0.160568 -0.851077 19.7707)
(-0.127466 -0.852108 19.7765)
(-0.568302 -0.784534 19.4501)
(-0.541242 -0.790804 19.4769)
(-0.514862 -0.799398 19.5107)
(-0.481025 -0.805528 19.5411)
(-0.450674 -0.808696 19.5752)
(-0.414211 -0.810617 19.6019)
(-0.379472 -0.812458 19.6301)
(-0.341457 -0.81481 19.6538)
(-0.304919 -0.817979 19.6791)
(-0.267073 -0.821094 19.7026)
(-0.231655 -0.823136 19.7291)
(-0.194236 -0.822678 19.7503)
(-0.163533 -0.819683 19.7743)
(-0.129091 -0.818501 19.782)
(-0.57807 -0.761997 19.452)
(-0.547144 -0.769966 19.4771)
(-0.518494 -0.775119 19.5109)
(-0.482882 -0.781176 19.5395)
(-0.450698 -0.781111 19.5712)
(-0.413456 -0.782778 19.5958)
(-0.378072 -0.783188 19.6224)
(-0.340421 -0.784864 19.6455)
(-0.304291 -0.786902 19.6703)
(-0.267606 -0.78882 19.6944)
(-0.232801 -0.7909 19.7208)
(-0.196633 -0.788786 19.7448)
(-0.164583 -0.785337 19.7702)
(-0.128556 -0.781124 19.7816)
(-0.579017 -0.73622 19.45)
(-0.546489 -0.746285 19.4721)
(-0.516757 -0.748287 19.5029)
(-0.483354 -0.753536 19.5309)
(-0.451477 -0.751341 19.5607)
(-0.415607 -0.752569 19.5861)
(-0.38068 -0.751414 19.6131)
(-0.343882 -0.751957 19.6379)
(-0.307938 -0.752413 19.6636)
(-0.271976 -0.752832 19.6888)
(-0.237025 -0.754271 19.7153)
(-0.202055 -0.751563 19.7418)
(-0.168012 -0.748928 19.7678)
(-0.130826 -0.742305 19.7838)
(-0.581466 -0.709454 19.444)
(-0.547964 -0.719665 19.4679)
(-0.515952 -0.717915 19.4968)
(-0.483047 -0.721585 19.5251)
(-0.449466 -0.718223 19.5526)
(-0.413873 -0.719068 19.5782)
(-0.378124 -0.717113 19.6038)
(-0.341734 -0.716751 19.6286)
(-0.305662 -0.715875 19.6533)
(-0.27057 -0.714641 19.6784)
(-0.235717 -0.714988 19.7037)
(-0.202529 -0.711699 19.731)
(-0.167723 -0.71054 19.7558)
(-0.131543 -0.701891 19.7762)
(-0.577092 -0.682546 19.4313)
(-0.546534 -0.689882 19.4588)
(-0.513515 -0.686201 19.485)
(-0.482219 -0.687869 19.5142)
(-0.448135 -0.684188 19.5411)
(-0.413417 -0.684087 19.5682)
(-0.37737 -0.681221 19.594)
(-0.34133 -0.679574 19.6199)
(-0.304909 -0.67719 19.6447)
(-0.26999 -0.674301 19.6705)
(-0.2348 -0.673088 19.6953)
(-0.202282 -0.66959 19.7229)
(-0.166349 -0.668973 19.7459)
(-0.13268 -0.660489 19.7717)
(-0.577382 -0.653059 19.4224)
(-0.547857 -0.656835 19.4508)
(-0.514372 -0.652431 19.4767)
(-0.482502 -0.652267 19.5064)
(-0.446805 -0.648624 19.5326)
(-0.411613 -0.647564 19.5599)
(-0.374419 -0.644213 19.5846)
(-0.338029 -0.641479 19.6101)
(-0.300923 -0.637965 19.634)
(-0.265807 -0.633615 19.6596)
(-0.230007 -0.630765 19.6841)
(-0.197401 -0.62709 19.7125)
(-0.160898 -0.625166 19.7353)
(-0.128712 -0.61739 19.7628)
(-0.577002 -0.621666 19.4147)
(-0.545712 -0.622866 19.4405)
(-0.512228 -0.618779 19.4659)
(-0.479823 -0.617014 19.4957)
(-0.44349 -0.613217 19.5219)
(-0.408346 -0.610731 19.55)
(-0.370691 -0.606597 19.5749)
(-0.334263 -0.602378 19.6009)
(-0.296862 -0.597454 19.6248)
(-0.261582 -0.591593 19.6506)
(-0.225392 -0.587016 19.6753)
(-0.192146 -0.583529 19.7044)
(-0.155554 -0.579123 19.7281)
(-0.12218 -0.572476 19.7553)
(-0.577841 -0.587345 19.4162)
(-0.544217 -0.58686 19.4388)
(-0.510661 -0.582641 19.4632)
(-0.477715 -0.579573 19.4919)
(-0.440668 -0.575638 19.5165)
(-0.405026 -0.572204 19.5436)
(-0.366571 -0.567732 19.5669)
(-0.329544 -0.562454 19.5916)
(-0.291561 -0.556413 19.6142)
(-0.255727 -0.549287 19.6392)
(-0.21891 -0.542979 19.6637)
(-0.18495 -0.539479 19.6942)
(-0.148799 -0.532183 19.7218)
(-0.112322 -0.526879 19.749)
(-0.577652 -0.549791 19.4117)
(-0.539741 -0.550341 19.4309)
(-0.505038 -0.545069 19.4549)
(-0.47099 -0.54156 19.483)
(-0.433286 -0.537535 19.5071)
(-0.397484 -0.53348 19.5342)
(-0.359131 -0.528379 19.5579)
(-0.322632 -0.521623 19.5833)
(-0.285363 -0.513922 19.607)
(-0.250017 -0.505204 19.6321)
(-0.213789 -0.497024 19.6566)
(-0.179243 -0.49361 19.6865)
(-0.144764 -0.485 19.716)
(-0.104563 -0.480012 19.74)
(-0.56875 -0.513928 19.4008)
(-0.529095 -0.515538 19.4225)
(-0.492323 -0.507495 19.4488)
(-0.460251 -0.502068 19.4799)
(-0.423188 -0.496676 19.5035)
(-0.389968 -0.490906 19.5302)
(-0.353755 -0.484728 19.5521)
(-0.31894 -0.476911 19.5751)
(-0.282351 -0.468353 19.5964)
(-0.246507 -0.458683 19.6198)
(-0.209499 -0.44927 19.644)
(-0.174172 -0.443774 19.6755)
(-0.143319 -0.434511 19.7113)
(-0.0968223 -0.429151 19.7274)
(-0.574202 -0.4729 19.3812)
(-0.522722 -0.481358 19.4021)
(-0.485359 -0.464092 19.4325)
(-0.450386 -0.458948 19.4648)
(-0.411361 -0.452591 19.4887)
(-0.376377 -0.44662 19.5168)
(-0.338472 -0.440444 19.5416)
(-0.302745 -0.432649 19.5687)
(-0.26543 -0.424533 19.5935)
(-0.229383 -0.414516 19.6178)
(-0.194487 -0.403686 19.6396)
(-0.16368 -0.395045 19.6604)
(-0.135679 -0.391498 19.6802)
(-0.102581 -0.385413 19.6907)
(-0.415672 -0.819862 18.5513)
(-0.383287 -0.816766 18.577)
(-0.36123 -0.831585 18.615)
(-0.3337 -0.832029 18.6549)
(-0.306776 -0.839812 18.6935)
(-0.27702 -0.840478 18.7279)
(-0.24717 -0.841478 18.7587)
(-0.216237 -0.837949 18.785)
(-0.184726 -0.836764 18.8098)
(-0.152327 -0.837941 18.8341)
(-0.119555 -0.835191 18.8588)
(-0.0854126 -0.841131 18.8817)
(-0.0583032 -0.841642 18.9069)
(-0.023266 -0.849777 18.9126)
(-0.411561 -0.798401 18.5576)
(-0.383106 -0.796865 18.5848)
(-0.368264 -0.806577 18.6266)
(-0.339551 -0.809325 18.6675)
(-0.315232 -0.815985 18.7092)
(-0.285355 -0.818316 18.745)
(-0.257283 -0.823501 18.7797)
(-0.225099 -0.827307 18.8092)
(-0.19207 -0.830643 18.8358)
(-0.157541 -0.833074 18.8595)
(-0.123434 -0.832368 18.8841)
(-0.087107 -0.83484 18.9047)
(-0.0601113 -0.833676 18.9287)
(-0.0265435 -0.833177 18.9295)
(-0.426887 -0.782975 18.5732)
(-0.392305 -0.790387 18.6066)
(-0.377371 -0.799454 18.6537)
(-0.343559 -0.803763 18.6933)
(-0.318137 -0.807202 18.7361)
(-0.284385 -0.807166 18.7698)
(-0.253815 -0.807839 18.8028)
(-0.220243 -0.807522 18.8294)
(-0.188376 -0.808542 18.8557)
(-0.15469 -0.809989 18.8796)
(-0.12241 -0.809707 18.9054)
(-0.0865468 -0.809625 18.9252)
(-0.059279 -0.805223 18.9487)
(-0.0225401 -0.803232 18.951)
(-0.429966 -0.760751 18.5988)
(-0.395753 -0.768609 18.6314)
(-0.379444 -0.774836 18.6771)
(-0.346393 -0.780699 18.7145)
(-0.322115 -0.782625 18.7555)
(-0.289203 -0.784162 18.7884)
(-0.25937 -0.785874 18.8224)
(-0.225376 -0.787716 18.8513)
(-0.192535 -0.789963 18.8799)
(-0.15793 -0.791946 18.9055)
(-0.125171 -0.793065 18.9327)
(-0.0893353 -0.791617 18.9544)
(-0.06095 -0.786596 18.9796)
(-0.0230999 -0.783069 18.9849)
(-0.437965 -0.741689 18.6279)
(-0.402357 -0.752667 18.6597)
(-0.38179 -0.757252 18.7043)
(-0.348218 -0.763085 18.7403)
(-0.321657 -0.762057 18.7789)
(-0.288093 -0.762729 18.8101)
(-0.257222 -0.762035 18.8422)
(-0.223501 -0.762245 18.8702)
(-0.19102 -0.762718 18.8982)
(-0.157523 -0.763383 18.9241)
(-0.125252 -0.764254 18.9509)
(-0.0910824 -0.761716 18.9752)
(-0.0610024 -0.75716 19.0016)
(-0.0223675 -0.751235 19.0106)
(-0.436187 -0.7179 18.6518)
(-0.402044 -0.729149 18.6818)
(-0.378802 -0.730229 18.7223)
(-0.348467 -0.735258 18.7578)
(-0.321632 -0.73333 18.7946)
(-0.289658 -0.734588 18.8266)
(-0.258948 -0.733847 18.8591)
(-0.225828 -0.734326 18.8886)
(-0.19324 -0.734489 18.9174)
(-0.160192 -0.734649 18.9445)
(-0.127769 -0.735569 18.9714)
(-0.0949098 -0.732943 18.9977)
(-0.0627473 -0.730538 19.0239)
(-0.0247108 -0.722785 19.0376)
(-0.437244 -0.693608 18.6704)
(-0.405263 -0.706323 18.7033)
(-0.378409 -0.70426 18.7415)
(-0.34925 -0.708117 18.7773)
(-0.320163 -0.705274 18.812)
(-0.288499 -0.705998 18.8439)
(-0.256769 -0.704224 18.8749)
(-0.223962 -0.703717 18.904)
(-0.191168 -0.702655 18.9319)
(-0.158782 -0.701545 18.9589)
(-0.126296 -0.701601 18.9849)
(-0.0952277 -0.698788 19.012)
(-0.0618993 -0.698586 19.0364)
(-0.026763 -0.688955 19.0554)
(-0.431298 -0.6671 18.6822)
(-0.405712 -0.677353 18.7191)
(-0.376041 -0.673148 18.7538)
(-0.349325 -0.675701 18.7907)
(-0.319048 -0.673171 18.8245)
(-0.288457 -0.673792 18.8576)
(-0.256264 -0.672063 18.8886)
(-0.223831 -0.671317 18.9185)
(-0.190716 -0.669814 18.9465)
(-0.158488 -0.667923 18.9741)
(-0.125614 -0.667162 18.9999)
(-0.0952245 -0.664242 19.0274)
(-0.0607728 -0.665005 19.0497)
(-0.0293624 -0.656057 19.0747)
(-0.431488 -0.639894 18.696)
(-0.409099 -0.646542 18.7344)
(-0.377519 -0.642552 18.7682)
(-0.350685 -0.643549 18.8058)
(-0.318452 -0.64112 18.8385)
(-0.287574 -0.640733 18.8715)
(-0.254293 -0.638387 18.9012)
(-0.221612 -0.636593 18.9305)
(-0.187889 -0.634141 18.9577)
(-0.155453 -0.631083 18.9849)
(-0.121818 -0.629191 19.0104)
(-0.091392 -0.626263 19.0388)
(-0.0556236 -0.626545 19.0605)
(-0.0273359 -0.617884 19.0891)
(-0.431303 -0.607808 18.7085)
(-0.409207 -0.61104 18.7459)
(-0.37646 -0.608015 18.7786)
(-0.349748 -0.607848 18.8166)
(-0.316494 -0.605971 18.849)
(-0.285764 -0.605004 18.8826)
(-0.25193 -0.602687 18.9123)
(-0.219216 -0.600288 18.9419)
(-0.185239 -0.597251 18.9689)
(-0.152749 -0.593314 18.9962)
(-0.118736 -0.590359 19.0216)
(-0.0880531 -0.58763 19.051)
(-0.0513574 -0.586032 19.0729)
(-0.0235207 -0.577768 19.1028)
(-0.432595 -0.575732 18.7288)
(-0.410341 -0.576633 18.7653)
(-0.376823 -0.574075 18.7962)
(-0.349679 -0.572362 18.833)
(-0.315412 -0.570248 18.8634)
(-0.284107 -0.568144 18.8956)
(-0.249457 -0.565234 18.9235)
(-0.216089 -0.561522 18.9517)
(-0.18157 -0.557276 18.9774)
(-0.148508 -0.552189 19.0038)
(-0.113773 -0.547983 19.0288)
(-0.0826739 -0.545978 19.0597)
(-0.0455378 -0.542693 19.0846)
(-0.0172166 -0.53586 19.1165)
(-0.430647 -0.537002 18.7421)
(-0.406852 -0.536666 18.7773)
(-0.372478 -0.534208 18.8071)
(-0.344916 -0.531844 18.8433)
(-0.310209 -0.530153 18.8729)
(-0.278864 -0.527874 18.9048)
(-0.244226 -0.52506 18.9331)
(-0.211176 -0.520673 18.9619)
(-0.177379 -0.515578 18.9886)
(-0.144959 -0.509525 19.0151)
(-0.111303 -0.503876 19.0401)
(-0.08059 -0.502307 19.0702)
(-0.0443425 -0.496875 19.0954)
(-0.013398 -0.491622 19.126)
(-0.425692 -0.500886 18.7573)
(-0.400916 -0.501144 18.7938)
(-0.365287 -0.497762 18.825)
(-0.338611 -0.494098 18.8615)
(-0.304611 -0.491161 18.8895)
(-0.274565 -0.486629 18.9192)
(-0.24113 -0.481926 18.9442)
(-0.20864 -0.475556 18.9691)
(-0.175114 -0.468853 18.9929)
(-0.142209 -0.461595 19.0173)
(-0.108517 -0.454632 19.0415)
(-0.0769736 -0.453148 19.0712)
(-0.0471598 -0.448834 19.1043)
(-0.00863817 -0.446035 19.129)
(-0.434341 -0.45872 18.7513)
(-0.394771 -0.461637 18.7852)
(-0.357559 -0.452069 18.8194)
(-0.329562 -0.447371 18.8576)
(-0.294282 -0.443879 18.8872)
(-0.263938 -0.439252 18.9195)
(-0.230745 -0.435245 18.9492)
(-0.198538 -0.430197 18.979)
(-0.165 -0.424806 19.0066)
(-0.131779 -0.417816 19.0324)
(-0.0998805 -0.409564 19.0567)
(-0.0713833 -0.403923 19.0793)
(-0.0471032 -0.3974 19.0978)
(-0.0218469 -0.401777 19.1098)
(-0.255679 -0.682987 17.5264)
(-0.223204 -0.68298 17.5526)
(-0.211182 -0.694949 17.5893)
(-0.188516 -0.692863 17.6246)
(-0.168341 -0.69672 17.6602)
(-0.145979 -0.694451 17.6926)
(-0.123473 -0.692878 17.7224)
(-0.0998714 -0.689388 17.7494)
(-0.0754599 -0.686499 17.7745)
(-0.0498853 -0.684267 17.7981)
(-0.0235931 -0.67879 17.8209)
(0.00458526 -0.680521 17.8415)
(0.0269217 -0.677788 17.8643)
(0.06183 -0.688164 17.8678)
(-0.254555 -0.656755 17.5504)
(-0.222601 -0.656953 17.5803)
(-0.217096 -0.664948 17.623)
(-0.192596 -0.667882 17.6608)
(-0.17439 -0.673499 17.6992)
(-0.150744 -0.676045 17.7328)
(-0.128456 -0.680236 17.7647)
(-0.103603 -0.682607 17.7927)
(-0.0787437 -0.68463 17.8187)
(-0.0521672 -0.68583 17.8417)
(-0.0253257 -0.684478 17.8642)
(0.00503801 -0.684851 17.8822)
(0.0269769 -0.680628 17.9038)
(0.0592567 -0.679186 17.9043)
(-0.27021 -0.650495 17.587)
(-0.232577 -0.657582 17.621)
(-0.223597 -0.66589 17.6678)
(-0.194858 -0.66998 17.7048)
(-0.175229 -0.671553 17.7437)
(-0.149007 -0.670645 17.7758)
(-0.12555 -0.67 17.8071)
(-0.0997317 -0.668573 17.8342)
(-0.0746325 -0.667867 17.8599)
(-0.0477884 -0.66757 17.883)
(-0.0216531 -0.66612 17.9065)
(0.00840255 -0.664489 17.9244)
(0.0306095 -0.657821 17.9457)
(0.0651887 -0.653439 17.9472)
(-0.269172 -0.634275 17.6325)
(-0.235017 -0.641386 17.6654)
(-0.224199 -0.646315 17.7102)
(-0.196655 -0.651101 17.7458)
(-0.177712 -0.652075 17.7837)
(-0.151791 -0.653161 17.8156)
(-0.128421 -0.654333 17.8475)
(-0.102181 -0.655324 17.8757)
(-0.0765453 -0.656542 17.9026)
(-0.0493691 -0.657541 17.9269)
(-0.0230243 -0.658106 17.9512)
(0.00653788 -0.656264 17.9713)
(0.0300384 -0.649895 17.9941)
(0.0654023 -0.645053 17.9984)
(-0.274445 -0.619403 17.6789)
(-0.240532 -0.630178 17.7103)
(-0.225558 -0.634905 17.7533)
(-0.198067 -0.63944 17.7883)
(-0.17735 -0.638517 17.8247)
(-0.151066 -0.638691 17.8559)
(-0.127028 -0.637847 17.887)
(-0.100816 -0.637339 17.9151)
(-0.0751291 -0.636906 17.9418)
(-0.0484467 -0.636607 17.9663)
(-0.0221299 -0.636291 17.9903)
(0.00608014 -0.633467 18.0121)
(0.0313172 -0.628203 18.0358)
(0.0667995 -0.622137 18.0433)
(-0.272047 -0.601861 17.7205)
(-0.240855 -0.612871 17.7512)
(-0.223039 -0.613931 17.7909)
(-0.198325 -0.617969 17.8259)
(-0.17703 -0.616934 17.8613)
(-0.15179 -0.61806 17.893)
(-0.127626 -0.617907 17.9243)
(-0.101716 -0.618258 17.9531)
(-0.0759415 -0.618278 17.9803)
(-0.0495647 -0.618183 18.0055)
(-0.0230697 -0.618402 18.0296)
(0.00425113 -0.6158 18.0527)
(0.0316183 -0.613103 18.0756)
(0.065492 -0.605944 18.0872)
(-0.271987 -0.582274 17.7563)
(-0.244463 -0.594641 17.7897)
(-0.223173 -0.593889 17.8277)
(-0.199691 -0.59738 17.8631)
(-0.176607 -0.596121 17.8974)
(-0.151589 -0.596968 17.9292)
(-0.12661 -0.596152 17.9598)
(-0.100679 -0.595836 17.9884)
(-0.0745669 -0.594969 18.0153)
(-0.0482857 -0.593969 18.0405)
(-0.0214984 -0.593402 18.0642)
(0.00475444 -0.590935 18.0879)
(0.0336925 -0.590682 18.109)
(0.0642677 -0.581569 18.1251)
(-0.267599 -0.561124 17.7878)
(-0.246544 -0.571503 17.8248)
(-0.222068 -0.568665 17.8603)
(-0.200683 -0.571628 17.8967)
(-0.176311 -0.570906 17.9302)
(-0.151968 -0.572101 17.9627)
(-0.126445 -0.571717 17.9931)
(-0.100581 -0.571664 18.0221)
(-0.074128 -0.57089 18.049)
(-0.0477576 -0.569649 18.0745)
(-0.0205278 -0.568827 18.0982)
(0.00529919 -0.566408 18.1223)
(0.0353719 -0.567427 18.1415)
(0.0621902 -0.55794 18.1623)
(-0.267485 -0.538262 17.819)
(-0.250972 -0.545886 17.8579)
(-0.224155 -0.543521 17.8924)
(-0.203005 -0.545509 17.9295)
(-0.176952 -0.545085 17.9625)
(-0.152361 -0.545723 17.9949)
(-0.125921 -0.545017 18.0248)
(-0.0996817 -0.544396 18.0533)
(-0.0726032 -0.543131 18.0798)
(-0.045762 -0.541275 18.105)
(-0.0176836 -0.539915 18.1284)
(0.00827619 -0.537803 18.1533)
(0.0397126 -0.539014 18.1717)
(0.0633401 -0.530362 18.1968)
(-0.268127 -0.509091 17.8494)
(-0.253138 -0.514253 17.8879)
(-0.224793 -0.513112 17.9216)
(-0.203913 -0.514604 17.9594)
(-0.176781 -0.514921 17.992)
(-0.152144 -0.515576 18.0248)
(-0.125114 -0.515248 18.0544)
(-0.0986568 -0.51468 18.083)
(-0.0712274 -0.513455 18.1093)
(-0.0441941 -0.51138 18.1344)
(-0.0156918 -0.509617 18.1576)
(0.0103751 -0.507555 18.183)
(0.0430627 -0.507509 18.2016)
(0.0652924 -0.498796 18.2291)
(-0.271049 -0.482064 17.8856)
(-0.256646 -0.485572 17.9231)
(-0.227244 -0.484918 17.9548)
(-0.205945 -0.484834 17.9916)
(-0.177719 -0.484898 18.0228)
(-0.152393 -0.484392 18.0547)
(-0.124611 -0.483389 18.0832)
(-0.0975182 -0.481811 18.1107)
(-0.0695136 -0.4798 18.1361)
(-0.0417787 -0.477058 18.1603)
(-0.0123473 -0.47478 18.1831)
(0.0144597 -0.473916 18.2099)
(0.0484633 -0.473228 18.2309)
(0.0698132 -0.466624 18.2619)
(-0.270008 -0.445008 17.9161)
(-0.255292 -0.44735 17.9525)
(-0.225306 -0.447943 17.9828)
(-0.203749 -0.447696 18.0191)
(-0.175186 -0.448613 18.0495)
(-0.14973 -0.448205 18.081)
(-0.122111 -0.447813 18.1096)
(-0.0952342 -0.446538 18.1373)
(-0.0677602 -0.444774 18.163)
(-0.0404972 -0.442117 18.1874)
(-0.011925 -0.439393 18.21)
(0.0144351 -0.438954 18.2362)
(0.048186 -0.435402 18.2573)
(0.0713252 -0.430831 18.2891)
(-0.268327 -0.416996 17.9505)
(-0.253995 -0.418539 17.988)
(-0.223806 -0.418909 18.0182)
(-0.202273 -0.416349 18.0529)
(-0.174267 -0.415923 18.0813)
(-0.149028 -0.413075 18.11)
(-0.121877 -0.410605 18.1357)
(-0.0949791 -0.407044 18.1604)
(-0.0675854 -0.403412 18.1839)
(-0.0397738 -0.399413 18.2064)
(-0.0111318 -0.395587 18.2285)
(0.0155537 -0.396635 18.2545)
(0.0448721 -0.39619 18.2811)
(0.0736598 -0.397455 18.3104)
(-0.27276 -0.370014 17.956)
(-0.250056 -0.37012 17.9955)
(-0.218141 -0.369391 18.0292)
(-0.195722 -0.367955 18.0654)
(-0.168049 -0.369164 18.0959)
(-0.143195 -0.368251 18.1269)
(-0.117236 -0.368305 18.1562)
(-0.0906867 -0.367253 18.1841)
(-0.0635717 -0.36566 18.2104)
(-0.0353824 -0.362852 18.2343)
(-0.00786621 -0.35872 18.2574)
(0.0177708 -0.357036 18.2794)
(0.0397189 -0.351578 18.2974)
(0.0599951 -0.358973 18.309)
(-0.124565 -0.500464 16.4664)
(-0.0964939 -0.497577 16.4866)
(-0.0866927 -0.505912 16.5138)
(-0.0677203 -0.502023 16.5374)
(-0.0507837 -0.502369 16.5625)
(-0.0335995 -0.499202 16.5861)
(-0.0162926 -0.496986 16.6082)
(0.00123754 -0.494091 16.6289)
(0.0192302 -0.491291 16.6485)
(0.0383848 -0.488349 16.6668)
(0.0585829 -0.482802 16.6842)
(0.080865 -0.480908 16.7002)
(0.0994014 -0.476126 16.7177)
(0.127637 -0.484254 16.7199)
(-0.122056 -0.476959 16.4983)
(-0.0934873 -0.475907 16.5233)
(-0.0873481 -0.480895 16.5556)
(-0.0670204 -0.48212 16.5802)
(-0.0515638 -0.484578 16.607)
(-0.0334533 -0.485313 16.6312)
(-0.0161229 -0.486639 16.6544)
(0.00191847 -0.486889 16.6757)
(0.0198852 -0.487081 16.6958)
(0.0389171 -0.487016 16.7141)
(0.0584323 -0.485776 16.7317)
(0.0816174 -0.485025 16.7458)
(0.0990889 -0.480062 16.7628)
(0.126243 -0.479538 16.7638)
(-0.133354 -0.469536 16.5418)
(-0.101073 -0.473254 16.5683)
(-0.0915562 -0.479 16.603)
(-0.0682537 -0.480876 16.6274)
(-0.05167 -0.480444 16.6544)
(-0.0321943 -0.47891 16.678)
(-0.0143158 -0.477569 16.7012)
(0.00449113 -0.475944 16.7224)
(0.0232982 -0.474634 16.7424)
(0.0431706 -0.473552 16.7607)
(0.0631154 -0.471654 16.7786)
(0.0862264 -0.46955 16.7933)
(0.103794 -0.462635 16.8109)
(0.132274 -0.458676 16.8132)
(-0.130063 -0.457368 16.5913)
(-0.101012 -0.462496 16.6155)
(-0.0900515 -0.464967 16.6486)
(-0.0680741 -0.467203 16.6732)
(-0.0520103 -0.466732 16.7001)
(-0.0326076 -0.466563 16.7239)
(-0.0146086 -0.466436 16.7476)
(0.00454317 -0.466162 16.7694)
(0.0236154 -0.46602 16.79)
(0.0433864 -0.465961 16.8089)
(0.0631727 -0.465788 16.8273)
(0.0852259 -0.464108 16.8435)
(0.103453 -0.458362 16.862)
(0.131961 -0.452857 16.8663)
(-0.1317 -0.443101 16.6403)
(-0.103307 -0.451243 16.6627)
(-0.0899876 -0.454477 16.6945)
(-0.0684411 -0.456771 16.7196)
(-0.0515516 -0.455831 16.7462)
(-0.0319936 -0.455508 16.77)
(-0.0136881 -0.454681 16.7937)
(0.00560283 -0.453892 16.8156)
(0.0248818 -0.453022 16.8363)
(0.0446696 -0.452262 16.8554)
(0.0646725 -0.451159 16.8735)
(0.085906 -0.448533 16.8905)
(0.105523 -0.443366 16.9088)
(0.133673 -0.43837 16.9156)
(-0.129009 -0.430239 16.6865)
(-0.102876 -0.438809 16.7089)
(-0.0876227 -0.439403 16.7387)
(-0.0680706 -0.441608 16.7646)
(-0.0508445 -0.440927 16.7908)
(-0.0318063 -0.441294 16.8151)
(-0.0133917 -0.441034 16.8388)
(0.00584734 -0.440835 16.861)
(0.0251357 -0.440382 16.882)
(0.044794 -0.439869 16.9015)
(0.0648503 -0.439287 16.9197)
(0.0856506 -0.43691 16.9372)
(0.107107 -0.43395 16.9546)
(0.133626 -0.428166 16.9638)
(-0.128218 -0.413694 16.7286)
(-0.105285 -0.423104 16.7536)
(-0.0877116 -0.423063 16.7823)
(-0.0690377 -0.425327 16.8089)
(-0.0508237 -0.425131 16.8348)
(-0.0318254 -0.425774 16.8593)