/*--------------------------------*- C++ -*----------------------------------*\
| =========                 |                                                 |
| \\      /  F ield         | OpenFOAM: The Open Source CFD Toolbox           |
|  \\    /   O peration     | Version:  v2106                                 |
|   \\  /    A nd           | Website:  www.openfoam.com                      |
|    \\/     M anipulation  |                                                 |
\*---------------------------------------------------------------------------*/
FoamFile
{
    version     2.0;
    format      ascii;
    arch        "LSB;label=32;scalar=64";
    class       surfaceScalarField;
    location    "0.000218";
    object      phi;
}
// * * * * * * * * * * * * * * * * * * * * * * * * * * * * * * * * * * * * * //

dimensions      [1 0 -1 0 0 0 0];

internalField   nonuniform List<scalar> 
53237
(
-1.4685e-10
-2.44302e-10
-2.07782e-07
3.09543e-10
-1.00002e-10
-2.71316e-10
-2.0779e-07
3.21695e-10
-4.7788e-11
-2.93966e-10
-2.07797e-07
3.36977e-10
6.10474e-12
-3.11291e-10
-2.07806e-07
3.54448e-10
6.10141e-11
-3.12643e-10
-2.07807e-07
3.5627e-10
1.15949e-10
-2.97885e-10
-2.078e-07
3.42636e-10
1.66881e-10
-2.75982e-10
-2.07795e-07
3.27893e-10
2.11875e-10
-2.51385e-10
-2.0779e-07
3.18385e-10
2.48878e-10
-2.25103e-10
-2.07786e-07
2.99524e-10
2.9674e-10
-3.23429e-10
-2.07779e-07
4.15202e-10
-2.62223e-10
-2.07748e-07
3.4243e-10
3.75555e-10
-2.73511e-10
-2.55612e-10
-2.0781e-07
-2.09186e-10
-1.84572e-10
-2.07814e-07
-1.47363e-10
-2.05994e-10
-2.07819e-07
-9.39955e-11
-2.3104e-10
-2.07821e-07
-4.38257e-11
-2.50586e-10
-2.07817e-07
4.95008e-12
-2.63206e-10
-2.07821e-07
5.44812e-11
-2.63557e-10
-2.07823e-07
1.07794e-10
-2.53137e-10
-2.07821e-07
1.66311e-10
-2.35237e-10
-2.07827e-07
2.32621e-10
-2.11835e-10
-2.07828e-07
3.00295e-10
-1.91795e-10
-2.07825e-07
3.60398e-10
-2.6323e-10
-2.07823e-07
-2.14723e-10
-2.07782e-07
4.50884e-10
-2.32089e-10
-1.69787e-10
-2.07778e-07
3.03244e-10
-2.01903e-10
-1.89567e-10
-2.07815e-07
-1.61358e-10
-1.41278e-10
-2.07809e-07
-1.18248e-10
-1.57762e-10
-2.0782e-07
-7.95583e-11
-1.82268e-10
-2.07825e-07
-3.97389e-11
-2.01212e-10
-2.07827e-07
3.88214e-12
-2.14129e-10
-2.07837e-07
4.82548e-11
-2.13651e-10
-2.07838e-07
9.17524e-11
-2.03181e-10
-2.07831e-07
1.35624e-10
-1.8641e-10
-2.07832e-07
1.83652e-10
-1.63087e-10
-2.07829e-07
2.27949e-10
-1.48454e-10
-2.07821e-07
2.60111e-10
-1.97694e-10
-2.07829e-07
-1.79565e-10
-2.07793e-07
3.32175e-10
-2.58688e-10
-1.26202e-10
-2.07785e-07
3.21377e-10
-2.23105e-10
-1.25513e-10
-2.07822e-07
-1.78232e-10
-9.49026e-11
-2.07821e-07
-1.28904e-10
-1.04644e-10
-2.07834e-07
-8.54482e-11
-1.24876e-10
-2.07839e-07
-4.29019e-11
-1.40041e-10
-2.07838e-07
2.86922e-12
-1.5114e-10
-2.07847e-07
4.9602e-11
-1.50478e-10
-2.07849e-07
9.59233e-11
-1.42114e-10
-2.07842e-07
1.44127e-10
-1.28703e-10
-2.07846e-07
1.98428e-10
-1.09866e-10
-2.07843e-07
2.47166e-10
-1.02301e-10
-2.07833e-07
2.8572e-10
-1.34259e-10
-2.07836e-07
-1.36984e-10
-2.07802e-07
3.50986e-10
-2.84988e-10
-7.65464e-11
-2.07794e-07
3.3232e-10
-2.48372e-10
-6.91296e-11
-2.07824e-07
-2.03422e-10
-5.26105e-11
-2.07827e-07
-1.49694e-10
-5.76258e-11
-2.0784e-07
-1.00781e-10
-7.22329e-11
-2.07847e-07
-5.11913e-11
-8.3007e-11
-2.07846e-07
2.79223e-12
-9.13651e-11
-2.07858e-07
5.73561e-11
-9.05068e-11
-2.0786e-07
1.10113e-10
-8.53023e-11
-2.07851e-07
1.63461e-10
-7.61121e-11
-2.07854e-07
2.21711e-10
-6.29367e-11
-2.07849e-07
2.70257e-10
-5.99128e-11
-2.0784e-07
3.09494e-10
-7.77683e-11
-2.07839e-07
-8.83414e-11
-2.07811e-07
3.58643e-10
-3.06355e-10
-2.09769e-11
-2.07803e-07
3.44703e-10
-2.67364e-10
-1.58531e-11
-2.07822e-07
-2.22207e-10
-9.84823e-12
-2.07831e-07
-1.65313e-10
-1.22925e-11
-2.07841e-07
-1.12295e-10
-1.99881e-11
-2.07849e-07
-5.79918e-11
-2.5832e-11
-2.07847e-07
6.44824e-13
-3.06592e-11
-2.07859e-07
5.9923e-11
-2.95674e-11
-2.0786e-07
1.17614e-10
-2.83361e-11
-2.0785e-07
1.75496e-10
-2.42408e-11
-2.07854e-07
2.37124e-10
-1.79124e-11
-2.07849e-07
2.86216e-10
-1.76782e-11
-2.07842e-07
3.2995e-10
-2.5365e-11
-2.07836e-07
-3.42224e-11
-2.07819e-07
3.72211e-10
-3.20923e-10
3.65328e-11
-2.07813e-07
3.57322e-10
-2.78513e-10
3.61358e-11
-2.07828e-07
-2.346e-10
3.6043e-11
-2.07842e-07
-1.76477e-10
3.49838e-11
-2.07851e-07
-1.20496e-10
3.48205e-11
-2.07861e-07
-6.23503e-11
3.37731e-11
-2.0786e-07
1.69748e-13
3.23589e-11
-2.07873e-07
6.37263e-11
3.34884e-11
-2.07874e-07
1.25579e-10
3.07267e-11
-2.07863e-07
1.86293e-10
3.00864e-11
-2.07867e-07
2.49228e-10
2.89993e-11
-2.07859e-07
2.97493e-10
2.76283e-11
-2.07853e-07
3.44765e-10
2.54724e-11
-2.07842e-07
2.19407e-11
-2.0783e-07
3.85364e-10
-3.24029e-10
9.05959e-11
-2.07816e-07
3.62423e-10
-2.79354e-10
8.44672e-11
-2.0783e-07
-2.33991e-10
7.90433e-11
-2.07844e-07
-1.7512e-10
8.04031e-11
-2.07853e-07
-1.18681e-10
8.80017e-11
-2.07863e-07
-6.03917e-11
9.20823e-11
-2.07862e-07
1.91812e-12
9.47912e-11
-2.07875e-07
6.53139e-11
9.62314e-11
-2.07877e-07
1.26837e-10
8.99244e-11
-2.07865e-07
1.87018e-10
8.47906e-11
-2.07869e-07
2.49523e-10
7.58665e-11
-2.07861e-07
2.9702e-10
7.24658e-11
-2.07855e-07
3.43701e-10
7.5365e-11
-2.07843e-07
7.77153e-11
-2.07832e-07
3.84045e-10
-3.07717e-10
1.42336e-10
-2.0781e-07
3.46554e-10
-2.67892e-10
1.34318e-10
-2.0783e-07
-2.2257e-10
1.19045e-10
-2.07839e-07
-1.65962e-10
1.23529e-10
-2.07849e-07
-1.13381e-10
1.38297e-10
-2.07857e-07
-5.93996e-11
1.47439e-10
-2.07855e-07
-1.90228e-12
1.54897e-10
-2.07866e-07
5.70034e-11
1.56673e-10
-2.07867e-07
1.14573e-10
1.46654e-10
-2.07857e-07
1.71756e-10
1.36599e-10
-2.07861e-07
2.3274e-10
1.20143e-10
-2.07855e-07
2.80861e-10
1.13673e-10
-2.07848e-07
3.23273e-10
1.26822e-10
-2.07841e-07
1.31323e-10
-2.07824e-07
3.65265e-10
-2.8563e-10
1.88471e-10
-2.07806e-07
3.30885e-10
-2.49751e-10
1.87973e-10
-2.07837e-07
-2.0476e-10
1.58435e-10
-2.07841e-07
-1.51172e-10
1.67427e-10
-2.07853e-07
-1.02596e-10
1.87969e-10
-2.0786e-07
-5.34718e-11
2.01953e-10
-2.0786e-07
-1.02209e-12
2.13388e-10
-2.07871e-07
5.28689e-11
2.15329e-10
-2.07872e-07
1.05081e-10
2.02317e-10
-2.07862e-07
1.56964e-10
1.87475e-10
-2.07864e-07
2.1322e-10
1.65594e-10
-2.07859e-07
2.6077e-10
1.54288e-10
-2.07849e-07
2.99153e-10
1.82686e-10
-2.07848e-07
1.79366e-10
-2.0782e-07
3.48628e-10
-2.60865e-10
2.27608e-10
-2.07801e-07
3.21988e-10
-2.26221e-10
2.48631e-10
-2.07839e-07
-1.81278e-10
2.01367e-10
-2.07838e-07
-1.31265e-10
2.17096e-10
-2.07851e-07
-8.76247e-11
2.42019e-10
-2.07856e-07
-4.59049e-11
2.6029e-10
-2.07855e-07
-1.77815e-12
2.73928e-10
-2.07864e-07
4.40774e-11
2.75691e-10
-2.07865e-07
8.87076e-11
2.61442e-10
-2.07858e-07
1.35127e-10
2.42236e-10
-2.0786e-07
1.87302e-10
2.16449e-10
-2.07857e-07
2.34072e-10
1.98519e-10
-2.07847e-07
2.72052e-10
2.44917e-10
-2.07849e-07
2.19859e-10
-2.07814e-07
3.39248e-10
-2.34468e-10
2.59248e-10
-2.07798e-07
3.02008e-10
-2.06493e-10
3.11325e-10
-2.07836e-07
-1.65571e-10
2.40406e-10
-2.07831e-07
-1.21201e-10
2.61419e-10
-2.07842e-07
-8.19112e-11
2.86841e-10
-2.07848e-07
-4.27845e-11
3.06283e-10
-2.0785e-07
-1.17299e-12
3.20028e-10
-2.07858e-07
4.17236e-11
3.2119e-10
-2.07859e-07
8.27393e-11
3.08041e-10
-2.07852e-07
1.24431e-10
2.8803e-10
-2.07851e-07
1.69726e-10
2.61815e-10
-2.07848e-07
2.11033e-10
2.38582e-10
-2.07839e-07
2.42549e-10
3.08792e-10
-2.07846e-07
2.53568e-10
-2.0781e-07
3.17238e-10
-3.33403e-10
3.0515e-10
-2.07792e-07
4.17563e-10
-2.781e-10
3.68822e-10
-2.07835e-07
-2.13698e-10
2.69473e-10
-2.0784e-07
-1.50732e-10
2.96855e-10
-2.07846e-07
-9.62931e-11
3.22685e-10
-2.07848e-07
-4.66954e-11
3.46612e-10
-2.07843e-07
-1.18109e-13
3.65128e-10
-2.07848e-07
4.73858e-11
3.65556e-10
-2.07848e-07
9.83378e-11
3.48196e-10
-2.07845e-07
1.54414e-10
3.23634e-10
-2.07852e-07
2.17037e-10
2.97515e-10
-2.07851e-07
2.81507e-10
2.68206e-10
-2.07847e-07
3.40779e-10
3.67274e-10
-2.07845e-07
3.02858e-10
-2.07804e-07
4.3144e-10
-2.70075e-10
-2.07762e-07
3.8234e-10
3.45932e-10
-2.24229e-10
-2.07795e-07
4.55898e-10
-1.9136e-10
-2.07804e-07
3.41629e-10
-1.50813e-10
-2.07812e-07
3.61643e-10
-1.03768e-10
-2.0782e-07
3.6955e-10
-5.18569e-11
-2.07827e-07
3.85423e-10
1.98864e-14
-2.07836e-07
4.03461e-10
5.27156e-11
-2.07837e-07
4.03533e-10
1.05357e-10
-2.07829e-07
3.86546e-10
1.52303e-10
-2.07824e-07
3.69351e-10
1.92399e-10
-2.07817e-07
3.61317e-10
2.26137e-10
-2.07812e-07
3.40508e-10
2.76522e-10
-2.07804e-07
4.55953e-10
-2.07773e-07
3.60057e-10
3.84311e-10
-3.3357e-10
-3.23172e-10
-2.11445e-07
3.90116e-10
4.0026e-10
-2.75576e-10
-3.84564e-10
-2.11459e-07
4.48578e-10
-2.19344e-10
-2.97989e-10
-2.11466e-07
3.66976e-10
-1.77177e-10
-3.34989e-10
-2.11458e-07
4.03804e-10
-1.24005e-10
-3.69892e-10
-2.11463e-07
4.24748e-10
-6.57967e-11
-3.98129e-10
-2.11466e-07
4.44891e-10
-3.26295e-12
-4.21642e-10
-2.11474e-07
4.6695e-10
6.08943e-11
-4.22084e-10
-2.11475e-07
4.68213e-10
1.22966e-10
-4.03687e-10
-2.11468e-07
4.52138e-10
1.81005e-10
-3.78263e-10
-2.11467e-07
4.34522e-10
2.27189e-10
-3.4646e-10
-2.11463e-07
4.16589e-10
2.86596e-10
-3.11556e-10
-2.11472e-07
3.81219e-10
3.45844e-10
-3.97664e-10
-2.11468e-07
4.62078e-10
-3.37884e-10
-2.11455e-07
4.04107e-10
4.13845e-10
-3.95936e-10
-2.65391e-10
-2.1146e-07
4.59649e-10
-3.42461e-10
-3.31596e-10
-2.11483e-07
-2.63461e-10
-2.65355e-10
-2.11484e-07
-1.99666e-10
-2.9601e-10
-2.11474e-07
-1.32315e-10
-3.32022e-10
-2.11473e-07
-6.88133e-11
-3.56821e-10
-2.11463e-07
-5.93663e-12
-3.7597e-10
-2.11466e-07
5.88241e-11
-3.75893e-10
-2.11467e-07
1.26951e-10
-3.6096e-10
-2.11466e-07
2.00002e-10
-3.38719e-10
-2.11477e-07
2.68755e-10
-3.05516e-10
-2.1148e-07
3.51475e-10
-2.77227e-10
-2.11491e-07
4.07418e-10
-3.43938e-10
-2.11492e-07
-2.80357e-10
-2.11471e-07
4.73272e-10
-3.07096e-10
-2.09008e-10
-2.11468e-07
3.75377e-10
-2.75223e-10
-2.52198e-10
-2.11484e-07
-2.18394e-10
-2.06833e-10
-2.11475e-07
-1.71595e-10
-2.31013e-10
-2.1147e-07
-1.18783e-10
-2.64989e-10
-2.11472e-07
-6.47523e-11
-2.87167e-10
-2.11468e-07
-7.40432e-12
-3.04465e-10
-2.11477e-07
5.14344e-11
-3.03735e-10
-2.11478e-07
1.10237e-10
-2.90016e-10
-2.11471e-07
1.69414e-10
-2.69774e-10
-2.11476e-07
2.22255e-10
-2.38489e-10
-2.11476e-07
2.83644e-10
-2.17137e-10
-2.11482e-07
3.19263e-10
-2.63953e-10
-2.11494e-07
-2.23486e-10
-2.11479e-07
3.8998e-10
-3.43036e-10
-1.66039e-10
-2.11461e-07
4.1079e-10
-3.05469e-10
-1.8727e-10
-2.11477e-07
-2.42404e-10
-1.57485e-10
-2.11471e-07
-1.87469e-10
-1.72862e-10
-2.11468e-07
-1.29744e-10
-1.99503e-10
-2.11468e-07
-7.08046e-11
-2.17139e-10
-2.1146e-07
-8.04075e-12
-2.31846e-10
-2.11469e-07
5.56695e-11
-2.30201e-10
-2.1147e-07
1.19139e-10
-2.18759e-10
-2.11463e-07
1.8305e-10
-2.02584e-10
-2.11473e-07
2.43623e-10
-1.78149e-10
-2.11474e-07
3.11211e-10
-1.65431e-10
-2.11479e-07
3.52903e-10
-1.97386e-10
-2.11486e-07
-1.7917e-10
-2.11473e-07
4.23953e-10
-3.76797e-10
-1.10321e-10
-2.11468e-07
4.30472e-10
-3.41003e-10
-1.17252e-10
-2.11476e-07
-2.76843e-10
-1.01596e-10
-2.11474e-07
-2.14735e-10
-1.11695e-10
-2.11469e-07
-1.48387e-10
-1.29921e-10
-2.11471e-07
-8.02324e-11
-1.41997e-10
-2.11464e-07
-8.08073e-12
-1.52802e-10
-2.11475e-07
6.4753e-11
-1.50195e-10
-2.11476e-07
1.36837e-10
-1.42453e-10
-2.11467e-07
2.08381e-10
-1.31183e-10
-2.11477e-07
2.75171e-10
-1.14252e-10
-2.11476e-07
3.4339e-10
-1.06215e-10
-2.11482e-07
3.83627e-10
-1.242e-10
-2.11486e-07
-1.21032e-10
-2.11479e-07
4.4208e-10
-4.03108e-10
-4.89533e-11
-2.11471e-07
4.47961e-10
-3.65014e-10
-5.05463e-11
-2.11468e-07
-2.9958e-10
-4.46216e-11
-2.11472e-07
-2.33541e-10
-5.01783e-11
-2.11463e-07
-1.61708e-10
-5.95183e-11
-2.11466e-07
-8.76612e-11
-6.57713e-11
-2.11456e-07
-9.62397e-12
-7.19013e-11
-2.11468e-07
6.92558e-11
-6.88333e-11
-2.11469e-07
1.47134e-10
-6.57148e-11
-2.11459e-07
2.24049e-10
-5.951e-11
-2.1147e-07
2.95266e-10
-5.07702e-11
-2.11469e-07
3.65502e-10
-4.68794e-11
-2.1148e-07
4.08499e-10
-5.46242e-11
-2.11478e-07
-5.71193e-11
-2.11483e-07
4.58945e-10
-4.24715e-10
1.6413e-11
-2.11481e-07
4.66332e-10
-3.83623e-10
1.50305e-11
-2.11472e-07
-3.16991e-10
1.47207e-11
-2.11481e-07
-2.48281e-10
1.39456e-11
-2.11472e-07
-1.72153e-10
1.36555e-11
-2.11477e-07
-9.32132e-11
1.31323e-11
-2.11469e-07
-9.74721e-12
1.20295e-11
-2.11481e-07
7.48795e-11
1.52948e-11
-2.11482e-07
1.5756e-10
1.31628e-11
-2.11471e-07
2.38113e-10
1.39291e-11
-2.11482e-07
3.11268e-10
1.38825e-11
-2.11479e-07
3.82018e-10
1.33597e-11
-2.11489e-07
4.27177e-10
1.24319e-11
-2.11482e-07
9.65128e-12
-2.11492e-07
4.74355e-10
-4.26483e-10
8.03173e-11
-2.11483e-07
4.69177e-10
-3.84064e-10
7.88659e-11
-2.11473e-07
-3.16127e-10
7.23129e-11
-2.11483e-07
-2.46355e-10
7.67127e-11
-2.11474e-07
-1.69349e-10
8.57561e-11
-2.11479e-07
-8.96853e-11
9.12061e-11
-2.1147e-07
-5.90989e-12
9.5568e-11
-2.11482e-07
7.89119e-11
9.9199e-11
-2.11483e-07
1.61168e-10
9.22813e-11
-2.11473e-07
2.4078e-10
8.75516e-11
-2.11483e-07
3.12834e-10
7.85575e-11
-2.1148e-07
3.82337e-10
7.33335e-11
-2.1149e-07
4.26604e-10
7.79352e-11
-2.11483e-07
7.56821e-11
-2.11494e-07
4.72463e-10
-4.05331e-10
1.40441e-10
-2.11477e-07
4.50702e-10
-3.66684e-10
1.4477e-10
-2.11474e-07
-3.00759e-10
1.28499e-10
-2.11477e-07
-2.34314e-10
1.3786e-10
-2.11469e-07
-1.61969e-10
1.55964e-10
-2.11471e-07
-8.7463e-11
1.67338e-10
-2.11462e-07
-9.23508e-12
1.7676e-10
-2.11473e-07
7.04319e-11
1.80192e-10
-2.11474e-07
1.47726e-10
1.6864e-10
-2.11465e-07
2.23423e-10
1.57719e-10
-2.11476e-07
2.93365e-10
1.39657e-10
-2.11474e-07
3.62106e-10
1.29689e-10
-2.11484e-07
4.03423e-10
1.43907e-10
-2.11482e-07
1.36928e-10
-2.11487e-07
4.51998e-10
-3.79144e-10
1.94563e-10
-2.11477e-07
4.33053e-10
-3.43226e-10
2.14466e-10
-2.11486e-07
-2.79001e-10
1.84546e-10
-2.11484e-07
-2.16529e-10
1.98692e-10
-2.11479e-07
-1.49285e-10
2.25161e-10
-2.11481e-07
-7.99878e-11
2.42292e-10
-2.11474e-07
-7.51351e-12
2.56144e-10
-2.11484e-07
6.62051e-11
2.59226e-10
-2.11485e-07
1.37088e-10
2.43711e-10
-2.11476e-07
2.06545e-10
2.2641e-10
-2.11485e-07
2.71445e-10
1.99636e-10
-2.11484e-07
3.37625e-10
1.84486e-10
-2.1149e-07
3.7529e-10
2.1398e-10
-2.11493e-07
1.91645e-10
-2.11486e-07
4.32582e-10
-3.45384e-10
2.36146e-10
-2.11474e-07
4.12451e-10
-3.07875e-10
2.79077e-10
-2.11489e-07
-2.45765e-10
2.33675e-10
-2.11484e-07
-1.90682e-10
2.55921e-10
-2.11481e-07
-1.30945e-10
2.89513e-10
-2.11482e-07
-7.00741e-11
3.11635e-10
-2.11474e-07
-7.23804e-12
3.28676e-10
-2.11482e-07
5.67978e-11
3.31077e-10
-2.11483e-07
1.18382e-10
3.13113e-10
-2.11476e-07
1.79255e-10
2.90663e-10
-2.11485e-07
2.36968e-10
2.56642e-10
-2.11486e-07
3.01988e-10
2.32836e-10
-2.1149e-07
3.41463e-10
2.7841e-10
-2.11497e-07
2.33726e-10
-2.11483e-07
4.11906e-10
-3.12337e-10
2.91578e-10
-2.11483e-07
3.77736e-10
-2.81744e-10
3.57932e-10
-2.11501e-07
-2.2455e-10
2.91683e-10
-2.11491e-07
-1.76358e-10
3.2065e-10
-2.11487e-07
-1.2066e-10
3.55411e-10
-2.11489e-07
-6.39685e-11
3.8005e-10
-2.11486e-07
-6.59021e-12
3.99274e-10
-2.11494e-07
5.19669e-11
4.00696e-10
-2.11494e-07
1.08481e-10
3.81714e-10
-2.11487e-07
1.64131e-10
3.5687e-10
-2.11492e-07
2.1351e-10
3.21195e-10
-2.11491e-07
2.72396e-10
2.90704e-10
-2.11497e-07
3.06119e-10
3.57438e-10
-2.11508e-07
2.90246e-10
-2.11492e-07
3.76763e-10
-3.99999e-10
3.49014e-10
-2.11478e-07
4.59409e-10
-3.48596e-10
4.10021e-10
-2.11502e-07
-2.70437e-10
3.23539e-10
-2.11503e-07
-2.0625e-10
3.58964e-10
-2.11495e-07
-1.35516e-10
3.92809e-10
-2.11494e-07
-6.85029e-11
4.20972e-10
-2.11484e-07
-5.16458e-12
4.44367e-10
-2.11487e-07
5.85076e-11
4.44794e-10
-2.11487e-07
1.24397e-10
4.22569e-10
-2.11485e-07
1.94778e-10
3.94283e-10
-2.11496e-07
2.59813e-10
3.59892e-10
-2.11499e-07
3.39452e-10
3.23399e-10
-2.11509e-07
3.93703e-10
4.11119e-10
-2.11509e-07
3.49798e-10
-2.11487e-07
4.58952e-10
-3.39949e-10
-2.11466e-07
4.14614e-10
4.0353e-10
-2.82688e-10
-2.11481e-07
4.71832e-10
-2.27123e-10
-2.11488e-07
3.90855e-10
-1.84187e-10
-2.11481e-07
4.26399e-10
-1.28195e-10
-2.11487e-07
4.4835e-10
-6.7426e-11
-2.1149e-07
4.68639e-10
-5.3985e-12
-2.11498e-07
4.89776e-10
5.75942e-11
-2.11499e-07
4.891e-10
1.17915e-10
-2.11492e-07
4.69429e-10
1.72636e-10
-2.1149e-07
4.49887e-10
2.15423e-10
-2.11485e-07
4.28468e-10
2.72608e-10
-2.11494e-07
3.92368e-10
3.33161e-10
-2.11488e-07
4.74846e-10
-2.11474e-07
4.0293e-10
4.17828e-10
-3.13612e-10
-3.10685e-10
-2.14576e-07
3.43722e-10
3.46136e-10
-2.54456e-10
-3.76536e-10
-2.1458e-07
4.00354e-10
-2.07409e-10
-2.9608e-10
-2.14558e-07
3.31962e-10
-1.60619e-10
-3.37183e-10
-2.14544e-07
3.82487e-10
-1.13875e-10
-3.73871e-10
-2.14533e-07
4.12304e-10
-6.39661e-11
-4.02436e-10
-2.14526e-07
4.3471e-10
-9.78612e-12
-4.29141e-10
-2.14531e-07
4.60138e-10
4.64889e-11
-4.29956e-10
-2.14531e-07
4.61106e-10
1.00602e-10
-4.10056e-10
-2.14526e-07
4.42759e-10
1.52137e-10
-3.84597e-10
-2.14534e-07
4.22726e-10
2.02549e-10
-3.51592e-10
-2.14546e-07
3.96001e-10
2.51741e-10
-3.12168e-10
-2.14561e-07
3.45998e-10
3.10601e-10
-3.92797e-10
-2.14584e-07
4.16143e-10
-3.26909e-10
-2.14581e-07
3.5769e-10
3.43777e-10
-3.79687e-10
-2.52068e-10
-2.1458e-07
4.04352e-10
-3.31961e-10
-3.29871e-10
-2.1459e-07
-2.65369e-10
-2.65238e-10
-2.14561e-07
-1.96756e-10
-2.95694e-10
-2.14543e-07
-1.33212e-10
-3.31544e-10
-2.14523e-07
-7.35979e-11
-3.57659e-10
-2.14502e-07
-1.33507e-11
-3.80704e-10
-2.14501e-07
4.92103e-11
-3.80924e-10
-2.14501e-07
1.14148e-10
-3.64075e-10
-2.14502e-07
1.84265e-10
-3.41275e-10
-2.14523e-07
2.58184e-10
-3.09237e-10
-2.14544e-07
3.27818e-10
-2.81096e-10
-2.14564e-07
3.77267e-10
-3.46306e-10
-2.14594e-07
-2.70081e-10
-2.14586e-07
4.03667e-10
-2.97745e-10
-2.04541e-10
-2.14559e-07
3.33437e-10
-2.67196e-10
-2.63006e-10
-2.14561e-07
-2.18998e-10
-2.16077e-10
-2.14521e-07
-1.6436e-10
-2.40008e-10
-2.14506e-07
-1.14281e-10
-2.73342e-10
-2.14487e-07
-6.64564e-11
-2.96088e-10
-2.14473e-07
-1.52093e-11
-3.16258e-10
-2.14478e-07
3.78893e-11
-3.15248e-10
-2.14477e-07
9.11329e-11
-3.0025e-10
-2.14473e-07
1.48477e-10
-2.80347e-10
-2.14488e-07
2.09776e-10
-2.50614e-10
-2.14507e-07
2.6269e-10
-2.29643e-10
-2.14523e-07
2.96393e-10
-2.78335e-10
-2.14565e-07
-2.22355e-10
-2.14564e-07
3.34002e-10
-3.38171e-10
-1.57207e-10
-2.14546e-07
3.83875e-10
-2.9724e-10
-1.93008e-10
-2.14544e-07
-2.43181e-10
-1.59155e-10
-2.14506e-07
-1.81305e-10
-1.75142e-10
-2.14492e-07
-1.2572e-10
-2.01639e-10
-2.14471e-07
-7.26882e-11
-2.19263e-10
-2.14451e-07
-1.64375e-11
-2.35648e-10
-2.14456e-07
4.13494e-11
-2.33302e-10
-2.14456e-07
9.96914e-11
-2.21241e-10
-2.14452e-07
1.6232e-10
-2.05445e-10
-2.14472e-07
2.30758e-10
-1.81538e-10
-2.14493e-07
2.89779e-10
-1.68371e-10
-2.14509e-07
3.34429e-10
-2.04637e-10
-2.14547e-07
-1.72324e-10
-2.1455e-07
3.83276e-10
-3.73613e-10
-1.08404e-10
-2.14535e-07
4.11815e-10
-3.32688e-10
-1.26556e-10
-2.14524e-07
-2.77136e-10
-1.05673e-10
-2.14488e-07
-2.08953e-10
-1.1602e-10
-2.14472e-07
-1.45451e-10
-1.34701e-10
-2.14453e-07
-8.29019e-11
-1.47123e-10
-2.14434e-07
-1.6914e-11
-1.59112e-10
-2.14441e-07
5.0447e-11
-1.55571e-10
-2.14441e-07
1.17949e-10
-1.47335e-10
-2.14435e-07
1.87744e-10
-1.35602e-10
-2.14455e-07
2.61728e-10
-1.18189e-10
-2.14474e-07
3.21867e-10
-1.09863e-10
-2.14491e-07
3.66688e-10
-1.32953e-10
-2.14527e-07
-1.18882e-10
-2.14539e-07
4.08967e-10
-4.00394e-10
-5.59308e-11
-2.14529e-07
4.32303e-10
-3.57603e-10
-6.37297e-11
-2.14505e-07
-2.99774e-10
-5.4407e-11
-2.14475e-07
-2.27237e-10
-5.98129e-11
-2.14453e-07
-1.58845e-10
-6.94016e-11
-2.14435e-07
-9.03602e-11
-7.59192e-11
-2.14414e-07
-1.82958e-11
-8.26152e-11
-2.14421e-07
5.53466e-11
-7.83944e-11
-2.14421e-07
1.29129e-10
-7.54144e-11
-2.14414e-07
2.03978e-10
-6.84113e-11
-2.14437e-07
2.82471e-10
-5.88743e-11
-2.14455e-07
3.45051e-10
-5.44241e-11
-2.14477e-07
3.91956e-10
-6.51127e-11
-2.14508e-07
-6.11891e-11
-2.14532e-07
4.28485e-10
-4.25112e-10
-1.85546e-13
-2.14535e-07
4.5512e-10
-3.79412e-10
-2.23377e-12
-2.14505e-07
-3.19414e-10
-2.31681e-12
-2.1448e-07
-2.43481e-10
-3.10077e-12
-2.14458e-07
-1.70842e-10
-3.2754e-12
-2.14442e-07
-9.68043e-11
-3.84644e-12
-2.14421e-07
-1.87209e-11
-4.88636e-12
-2.14429e-07
6.1116e-11
-2.13502e-13
-2.14429e-07
1.40152e-10
-2.27663e-12
-2.14422e-07
2.18673e-10
-6.51896e-13
-2.14444e-07
3.00066e-10
-1.0453e-13
-2.14461e-07
3.64307e-10
2.88658e-13
-2.14483e-07
4.1343e-10
-2.62672e-13
-2.14508e-07
-1.25304e-12
-2.14538e-07
4.47395e-10
-4.26509e-10
5.56326e-11
-2.14535e-07
4.56572e-10
-3.80033e-10
5.9032e-11
-2.14505e-07
-3.18768e-10
4.90988e-11
-2.1448e-07
-2.41619e-10
5.28879e-11
-2.14458e-07
-1.6781e-10
6.22512e-11
-2.14442e-07
-9.25273e-11
6.79428e-11
-2.14421e-07
-1.38682e-11
7.28475e-11
-2.14429e-07
6.63065e-11
7.79412e-11
-2.1443e-07
1.45206e-10
7.12582e-11
-2.14423e-07
2.22887e-10
6.73162e-11
-2.14445e-07
3.03042e-10
5.87827e-11
-2.14461e-07
3.65745e-10
5.48409e-11
-2.14484e-07
4.1297e-10
6.40937e-11
-2.14508e-07
5.7575e-11
-2.14539e-07
4.45412e-10
-4.0317e-10
1.09099e-10
-2.14531e-07
4.34753e-10
-3.60388e-10
1.23081e-10
-2.14507e-07
-3.01743e-10
1.01067e-10
-2.14477e-07
-2.28373e-10
1.09704e-10
-2.14455e-07
-1.58984e-10
1.28176e-10
-2.14437e-07
-8.90935e-11
1.40073e-10
-2.14416e-07
-1.6636e-11
1.50335e-10
-2.14423e-07
5.77195e-11
1.5498e-10
-2.14424e-07
1.31619e-10
1.43106e-10
-2.14418e-07
2.05698e-10
1.33093e-10
-2.1444e-07
2.83244e-10
1.15517e-10
-2.14459e-07
3.44482e-10
1.06594e-10
-2.14481e-07
3.88989e-10
1.27887e-10
-2.14511e-07
1.11237e-10
-2.14535e-07
4.22993e-10
-3.77413e-10
1.59224e-10
-2.14539e-07
4.15017e-10
-3.36899e-10
1.91539e-10
-2.14529e-07
-2.80507e-10
1.56268e-10
-2.14493e-07
-2.11005e-10
1.70361e-10
-2.14476e-07
-1.45683e-10
1.96286e-10
-2.14458e-07
-8.08649e-11
2.13437e-10
-2.14439e-07
-1.42352e-11
2.28126e-10
-2.14445e-07
5.41505e-11
2.32073e-10
-2.14446e-07
1.21646e-10
2.16178e-10
-2.14441e-07
1.89942e-10
2.00368e-10
-2.1446e-07
2.6201e-10
1.74645e-10
-2.14479e-07
3.19767e-10
1.5962e-10
-2.14495e-07
3.61837e-10
1.93666e-10
-2.14531e-07
1.59247e-10
-2.14542e-07
4.01976e-10
-3.44437e-10
2.077e-10
-2.14551e-07
3.884e-10
-3.04477e-10
2.63349e-10
-2.1455e-07
-2.49582e-10
2.15204e-10
-2.14512e-07
-1.85567e-10
2.37112e-10
-2.14498e-07
-1.26898e-10
2.69113e-10
-2.14477e-07
-7.05357e-11
2.91243e-10
-2.14458e-07
-1.35538e-11
3.09839e-10
-2.14463e-07
4.52325e-11
3.12782e-10
-2.14463e-07
1.03443e-10
2.93622e-10
-2.1446e-07
1.63703e-10
2.72211e-10
-2.14479e-07
2.28866e-10
2.3928e-10
-2.145e-07
2.84103e-10
2.15957e-10
-2.14515e-07
3.25686e-10
2.6273e-10
-2.14553e-07
2.05186e-10
-2.14555e-07
3.73215e-10
-3.05463e-10
2.55221e-10
-2.14567e-07
3.38761e-10
-2.76185e-10
3.30956e-10
-2.14569e-07
-2.27451e-10
2.66142e-10
-2.14528e-07
-1.70459e-10
2.95044e-10
-2.14514e-07
-1.16484e-10
3.28642e-10
-2.14495e-07
-6.45396e-11
3.53857e-10
-2.14482e-07
-1.24244e-11
3.75253e-10
-2.14486e-07
4.1466e-11
3.76914e-10
-2.14487e-07
9.44437e-11
3.55627e-10
-2.14482e-07
1.48694e-10
3.30747e-10
-2.14497e-07
2.05803e-10
2.95051e-10
-2.14516e-07
2.54574e-10
2.64841e-10
-2.1453e-07
2.85786e-10
3.29137e-10
-2.14572e-07
2.51208e-10
-2.1457e-07
3.239e-10
-3.87635e-10
3.13926e-10
-2.1459e-07
4.0894e-10
-3.42373e-10
3.78334e-10
-2.146e-07
-2.75943e-10
2.97587e-10
-2.1457e-07
-2.05032e-10
3.37836e-10
-2.14553e-07
-1.36945e-10
3.72053e-10
-2.14532e-07
-7.25826e-11
4.00157e-10
-2.14513e-07
-1.0913e-11
4.25181e-10
-2.14512e-07
5.2162e-11
4.25364e-10
-2.14512e-07
1.1651e-10
4.00987e-10
-2.14513e-07
1.8312e-10
3.7373e-10
-2.14534e-07
2.52997e-10
3.37302e-10
-2.14555e-07
3.19674e-10
2.96319e-10
-2.14573e-07
3.67107e-10
3.77445e-10
-2.14602e-07
3.10324e-10
-2.14593e-07
3.93776e-10
-3.23142e-10
-2.14587e-07
3.46439e-10
3.53578e-10
-2.65486e-10
-2.14591e-07
4.02084e-10
-2.18437e-10
-2.14569e-07
3.33335e-10
-1.70254e-10
-2.14556e-07
3.84405e-10
-1.19917e-10
-2.14544e-07
4.12106e-10
-6.59967e-11
-2.14538e-07
4.34682e-10
-1.02919e-11
-2.14543e-07
4.58053e-10
4.62338e-11
-2.14544e-07
4.57082e-10
9.96271e-11
-2.14539e-07
4.3427e-10
1.48111e-10
-2.14546e-07
4.13399e-10
1.94665e-10
-2.14557e-07
3.84713e-10
2.41633e-10
-2.14572e-07
3.3386e-10
3.00803e-10
-2.14594e-07
4.04293e-10
-2.1459e-07
3.36355e-10
3.45105e-10
-7.76987e-11
-7.73956e-11
-2.17466e-07
7.88923e-11
7.92736e-11
-7.26514e-11
-1.41208e-10
-2.17443e-07
1.42461e-10
-5.09506e-11
-4.95376e-11
-2.17407e-07
5.13384e-11
-4.62133e-11
-8.78308e-11
-2.17369e-07
1.04021e-10
-3.54089e-11
-1.20938e-10
-2.17348e-07
1.35413e-10
-2.4622e-11
-1.45126e-10
-2.17331e-07
1.57852e-10
-1.25704e-11
-1.72587e-10
-2.17332e-07
1.85728e-10
6.08468e-13
-1.72061e-10
-2.17331e-07
1.85083e-10
1.39462e-11
-1.51289e-10
-2.1733e-07
1.63067e-10
2.73165e-11
-1.28932e-10
-2.17347e-07
1.41865e-10
3.3684e-11
-9.79394e-11
-2.1737e-07
1.12037e-10
5.60524e-11
-5.92449e-11
-2.17408e-07
5.82222e-11
5.96266e-11
-1.51107e-10
-2.17444e-07
1.50824e-10
-8.50302e-11
-2.17468e-07
8.30191e-11
6.11277e-11
-1.40502e-10
-7.29796e-11
-2.17442e-07
1.43103e-10
-1.37686e-10
-1.39592e-10
-2.17422e-07
-1.01076e-10
-6.4408e-11
-2.17378e-07
-8.0677e-11
-8.95009e-11
-2.17334e-07
-5.65057e-11
-1.21127e-10
-2.17302e-07
-3.55706e-11
-1.4256e-10
-2.17269e-07
-1.57549e-11
-1.65659e-10
-2.17263e-07
5.89348e-12
-1.64959e-10
-2.17262e-07
3.06704e-11
-1.48646e-10
-2.17268e-07
5.93547e-11
-1.29445e-10
-2.173e-07
8.30531e-11
-1.00295e-10
-2.17334e-07
1.21584e-10
-7.58463e-11
-2.17378e-07
1.24916e-10
-1.51317e-10
-2.17423e-07
-8.44407e-11
-2.17444e-07
1.28482e-10
-4.83804e-11
-5.19705e-11
-2.17407e-07
5.21386e-11
-6.22452e-11
-1.03323e-10
-2.17378e-07
-4.32757e-11
-4.49828e-11
-2.1732e-07
-3.68744e-11
-6.23815e-11
-2.17278e-07
-2.86931e-11
-9.16769e-11
-2.17247e-07
-2.40099e-11
-1.10262e-10
-2.1722e-07
-1.80079e-11
-1.30061e-10
-2.17219e-07
-1.01146e-11
-1.28636e-10
-2.17218e-07
-7.02091e-13
-1.15077e-10
-2.17218e-07
1.3408e-11
-9.889e-11
-2.17245e-07
2.46926e-11
-7.2332e-11
-2.17277e-07
4.6802e-11
-5.64781e-11
-2.17319e-07
3.42725e-11
-1.15448e-10
-2.17377e-07
-6.48415e-11
-2.17407e-07
3.84374e-11
-8.58489e-11
-4.68402e-11
-2.17369e-07
1.03959e-10
-8.6881e-11
-8.18669e-11
-2.17334e-07
-6.08208e-11
-3.65647e-11
-2.17278e-07
-4.73602e-11
-4.62928e-11
-2.17235e-07
-3.51776e-11
-6.95778e-11
-2.172e-07
-2.78976e-11
-8.32708e-11
-2.17167e-07
-1.95601e-11
-9.87198e-11
-2.17165e-07
-9.34346e-12
-9.63039e-11
-2.17165e-07
3.22371e-12
-8.64688e-11
-2.17165e-07
2.18752e-11
-7.4705e-11
-2.17199e-07
4.08458e-11
-5.37832e-11
-2.17233e-07
7.06167e-11
-4.58362e-11
-2.17276e-07
7.15343e-11
-9.19422e-11
-2.17332e-07
-5.8554e-11
-2.17368e-07
9.076e-11
-1.18534e-10
-3.48515e-11
-2.17347e-07
1.35065e-10
-1.18366e-10
-5.55597e-11
-2.17301e-07
-9.0517e-11
-2.53034e-11
-2.17247e-07
-7.15625e-11
-3.05765e-11
-2.17201e-07
-5.29294e-11
-4.7177e-11
-2.17168e-07
-3.7599e-11
-5.6557e-11
-2.17135e-07
-2.07848e-11
-6.78513e-11
-2.17135e-07
-2.04731e-12
-6.44817e-11
-2.17134e-07
1.88521e-11
-5.82121e-11
-2.17133e-07
4.40735e-11
-4.98858e-11
-2.17167e-07
6.87674e-11
-3.47262e-11
-2.17198e-07
1.00658e-10
-3.06276e-11
-2.17244e-07
1.03217e-10
-6.13756e-11
-2.17299e-07
-4.27693e-11
-2.17345e-07
1.2146e-10
-1.4096e-10
-2.26691e-11
-2.1733e-07
1.55668e-10
-1.38587e-10
-3.23644e-11
-2.17269e-07
-1.0871e-10
-1.77067e-11
-2.1722e-07
-8.56307e-11
-2.01228e-11
-2.17168e-07
-6.30876e-11
-2.86713e-11
-2.17135e-07
-4.32322e-11
-3.35134e-11
-2.171e-07
-2.22125e-11
-4.01927e-11
-2.171e-07
9.09613e-13
-3.61635e-11
-2.17099e-07
2.67713e-11
-3.40004e-11
-2.17099e-07
5.64707e-11
-2.93635e-11
-2.17134e-07
8.60084e-11
-2.08638e-11
-2.17166e-07
1.20554e-10
-1.83753e-11
-2.17218e-07
1.25643e-10
-3.27693e-11
-2.17266e-07
-2.51389e-11
-2.17327e-07
1.42147e-10
-1.66494e-10
-1.02607e-11
-2.17332e-07
1.82333e-10
-1.60054e-10
-1.17945e-11
-2.17263e-07
-1.2764e-10
-1.12529e-11
-2.1722e-07
-1.00903e-10
-1.1664e-11
-2.17166e-07
-7.45087e-11
-1.20061e-11
-2.17136e-07
-4.98622e-11
-1.27405e-11
-2.171e-07
-2.40017e-11
-1.45368e-11
-2.17101e-07
4.29073e-12
-9.98834e-12
-2.171e-07
3.53663e-11
-1.17875e-11
-2.17099e-07
6.95498e-11
-1.01836e-11
-2.17135e-07
1.0332e-10
-8.91068e-12
-2.17165e-07
1.40464e-10
-7.63139e-12
-2.17218e-07
1.49136e-10
-7.28868e-12
-2.17261e-07
-7.12154e-12
-2.17329e-07
1.65966e-10
-1.65723e-10
3.69535e-12
-2.17331e-07
1.80114e-10
-1.59684e-10
9.59505e-12
-2.17263e-07
-1.26728e-10
-4.94271e-12
-2.17219e-07
-9.91792e-11
-3.57745e-12
-2.17166e-07
-7.1789e-11
4.31356e-12
-2.17135e-07
-4.59034e-11
8.08909e-12
-2.171e-07
-1.93967e-11
1.16307e-11
-2.17101e-07
9.43096e-12
1.66782e-11
-2.17101e-07
4.08575e-11
1.12183e-11
-2.171e-07
7.47763e-11
9.63298e-12
-2.17135e-07
1.07737e-10
3.42501e-12
-2.17165e-07
1.43464e-10
3.09816e-12
-2.17218e-07
1.50298e-10
1.76987e-11
-2.17261e-07
1.01688e-11
-2.17329e-07
1.64848e-10
-1.41698e-10
1.73867e-11
-2.1733e-07
1.55766e-10
-1.39983e-10
3.43037e-11
-2.17269e-07
-1.10114e-10
3.37591e-12
-2.1722e-07
-8.70066e-11
7.41639e-12
-2.17167e-07
-6.39792e-11
2.33364e-11
-2.17135e-07
-4.28247e-11
3.21006e-11
-2.171e-07
-2.14956e-11
4.09145e-11
-2.171e-07
2.51798e-12
4.57518e-11
-2.171e-07
2.95923e-11
3.61121e-11
-2.17101e-07
5.98083e-11
2.9706e-11
-2.17136e-07
8.91867e-11
1.54842e-11
-2.17168e-07
1.22652e-10
1.2138e-11
-2.17219e-07
1.25762e-10
4.23156e-11
-2.17268e-07
2.36365e-11
-2.17328e-07
1.39748e-10
-1.19706e-10
3.09801e-11
-2.17348e-07
1.35443e-10
-1.20723e-10
6.2759e-11
-2.17302e-07
-9.33129e-11
1.62107e-11
-2.17247e-07
-7.42199e-11
2.43407e-11
-2.17201e-07
-5.43832e-11
4.65794e-11
-2.17168e-07
-3.67604e-11
5.98024e-11
-2.17136e-07
-1.92459e-11
7.33863e-11
-2.17136e-07
8.87367e-13
7.77765e-11
-2.17136e-07
2.33452e-11
6.45564e-11
-2.17136e-07
4.88329e-11
5.33784e-11
-2.17169e-07
7.2623e-11
3.19188e-11
-2.17201e-07
1.02607e-10
2.32912e-11
-2.17246e-07
1.02576e-10
6.82021e-11
-2.173e-07
3.501e-11
-2.17346e-07
1.17946e-10
-8.93419e-11
3.75049e-11
-2.1737e-07
1.06199e-10
-9.16022e-11
8.58827e-11
-2.17335e-07
-6.61517e-11
2.6405e-11
-2.17279e-07
-5.21237e-11
4.21231e-11
-2.17235e-07
-3.76924e-11
7.0011e-11
-2.17201e-07
-2.70161e-11
8.80585e-11
-2.17168e-07
-1.74197e-11
1.06289e-10
-2.17167e-07
-5.47615e-12
1.09795e-10
-2.17167e-07
8.54364e-12
9.2957e-11
-2.17169e-07
2.67634e-11
7.62527e-11
-2.17201e-07
4.37971e-11
4.79887e-11
-2.17235e-07
7.07752e-11
3.06332e-11
-2.17278e-07
6.87664e-11
8.83192e-11
-2.17334e-07
3.83727e-11
-2.17369e-07
8.59749e-11
-5.23962e-11
5.98871e-11
-2.17409e-07
5.40815e-11
-6.81895e-11