/*--------------------------------*- C++ -*----------------------------------*\
| =========                 |                                                 |
| \\      /  F ield         | OpenFOAM: The Open Source CFD Toolbox           |
|  \\    /   O peration     | Version:  v2106                                 |
|   \\  /    A nd           | Website:  www.openfoam.com                      |
|    \\/     M anipulation  |                                                 |
\*---------------------------------------------------------------------------*/
FoamFile
{
    version     2.0;
    format      ascii;
    arch        "LSB;label=32;scalar=64";
    class       volScalarField;
    location    "0.000128";
    object      alphat;
}
// * * * * * * * * * * * * * * * * * * * * * * * * * * * * * * * * * * * * * //

dimensions      [1 -1 -1 0 0 0 0];

internalField   nonuniform List<scalar> 
17924
(
9.61399e-17
9.61395e-17
9.6139e-17
9.61383e-17
9.59256e-17
9.59255e-17
9.59255e-17
9.59253e-17
9.59251e-17
9.59247e-17
9.59243e-17
9.59265e-17
9.59265e-17
9.59265e-17
9.59264e-17
9.59262e-17
9.59258e-17
9.59253e-17
9.59273e-17
9.59273e-17
9.59274e-17
9.59274e-17
9.59271e-17
9.59267e-17
9.59262e-17
9.59279e-17
9.5928e-17
9.59281e-17
9.59281e-17
9.59279e-17
9.59275e-17
9.59269e-17
9.59283e-17
9.59285e-17
9.59287e-17
9.59286e-17
9.59284e-17
9.5928e-17
9.59275e-17
9.59285e-17
9.59288e-17
9.5929e-17
9.59289e-17
9.59287e-17
9.59283e-17
9.59278e-17
9.59286e-17
9.59289e-17
9.59291e-17
9.59291e-17
9.59288e-17
9.59284e-17
9.59279e-17
9.59286e-17
9.59289e-17
9.5929e-17
9.5929e-17
9.59287e-17
9.59283e-17
9.59277e-17
9.59285e-17
9.59287e-17
9.59288e-17
9.59287e-17
9.59284e-17
9.5928e-17
9.59274e-17
9.59283e-17
9.59285e-17
9.59285e-17
9.59284e-17
9.59281e-17
9.59276e-17
9.5927e-17
9.5928e-17
9.59281e-17
9.59281e-17
9.5928e-17
9.59276e-17
9.59271e-17
9.59265e-17
9.59275e-17
9.59276e-17
9.59277e-17
9.59275e-17
9.59272e-17
9.59266e-17
9.5926e-17
9.5927e-17
9.59271e-17
9.59271e-17
9.5927e-17
9.59266e-17
9.59261e-17
9.59254e-17
9.59264e-17
9.59265e-17
9.59266e-17
9.59264e-17
9.5926e-17
9.59254e-17
9.59247e-17
9.5723e-17
9.57231e-17
9.57232e-17
9.57234e-17
9.57234e-17
9.57233e-17
9.57231e-17
9.57228e-17
9.57223e-17
9.57217e-17
9.57209e-17
9.572e-17
9.57189e-17
9.57177e-17
9.57239e-17
9.57239e-17
9.57242e-17
9.57244e-17
9.57246e-17
9.57245e-17
9.57244e-17
9.5724e-17
9.57234e-17
9.57227e-17
9.57218e-17
9.57208e-17
9.57196e-17
9.57184e-17
9.57246e-17
9.57248e-17
9.57252e-17
9.57254e-17
9.57256e-17
9.57255e-17
9.57254e-17
9.5725e-17
9.57244e-17
9.57237e-17
9.57228e-17
9.57217e-17
9.57204e-17
9.57192e-17
9.57252e-17
9.57255e-17
9.5726e-17
9.57262e-17
9.57264e-17
9.57264e-17
9.57262e-17
9.57258e-17
9.57252e-17
9.57245e-17
9.57235e-17
9.57225e-17
9.57212e-17
9.572e-17
9.57256e-17
9.57261e-17
9.57265e-17
9.57268e-17
9.5727e-17
9.5727e-17
9.57268e-17
9.57264e-17
9.57259e-17
9.57251e-17
9.57242e-17
9.57231e-17
9.57219e-17
9.57206e-17
9.57259e-17
9.57265e-17
9.57269e-17
9.57272e-17
9.57273e-17
9.57273e-17
9.57272e-17
9.57268e-17
9.57263e-17
9.57255e-17
9.57246e-17
9.57236e-17
9.57223e-17
9.5721e-17
9.57261e-17
9.57267e-17
9.57271e-17
9.57274e-17
9.57275e-17
9.57275e-17
9.57273e-17
9.5727e-17
9.57265e-17
9.57257e-17
9.57249e-17
9.57238e-17
9.57226e-17
9.57212e-17
9.57262e-17
9.57268e-17
9.57272e-17
9.57274e-17
9.57275e-17
9.57275e-17
9.57274e-17
9.5727e-17
9.57265e-17
9.57258e-17
9.57249e-17
9.57239e-17
9.57227e-17
9.57213e-17
9.57261e-17
9.57267e-17
9.57271e-17
9.57273e-17
9.57274e-17
9.57274e-17
9.57272e-17
9.57268e-17
9.57263e-17
9.57256e-17
9.57248e-17
9.57237e-17
9.57226e-17
9.57212e-17
9.5726e-17
9.57265e-17
9.57269e-17
9.57271e-17
9.57272e-17
9.57271e-17
9.57269e-17
9.57265e-17
9.5726e-17
9.57253e-17
9.57244e-17
9.57234e-17
9.57222e-17
9.5721e-17
9.57257e-17
9.57261e-17
9.57265e-17
9.57267e-17
9.57268e-17
9.57267e-17
9.57264e-17
9.5726e-17
9.57255e-17
9.57248e-17
9.57239e-17
9.57229e-17
9.57218e-17
9.57206e-17
9.57253e-17
9.57257e-17
9.5726e-17
9.57262e-17
9.57263e-17
9.57261e-17
9.57259e-17
9.57254e-17
9.57249e-17
9.57242e-17
9.57233e-17
9.57223e-17
9.57212e-17
9.57201e-17
9.57248e-17
9.57251e-17
9.57254e-17
9.57256e-17
9.57256e-17
9.57255e-17
9.57252e-17
9.57247e-17
9.57241e-17
9.57234e-17
9.57225e-17
9.57215e-17
9.57205e-17
9.57195e-17
9.57243e-17
9.57247e-17
9.57249e-17
9.5725e-17
9.57249e-17
9.57246e-17
9.57243e-17
9.57238e-17
9.57232e-17
9.57225e-17
9.57217e-17
9.57208e-17
9.57198e-17
9.57188e-17
9.55323e-17
9.55321e-17
9.55319e-17
9.55319e-17
9.55318e-17
9.55317e-17
9.55316e-17
9.55315e-17
9.55312e-17
9.55309e-17
9.55306e-17
9.55301e-17
9.55297e-17
9.55292e-17
9.55327e-17
9.55325e-17
9.55326e-17
9.55326e-17
9.55327e-17
9.55326e-17
9.55326e-17
9.55324e-17
9.55322e-17
9.55318e-17
9.55313e-17
9.55308e-17
9.55302e-17
9.55296e-17
9.5533e-17
9.5533e-17
9.55331e-17
9.55332e-17
9.55333e-17
9.55333e-17
9.55333e-17
9.55332e-17
9.55329e-17
9.55326e-17
9.55321e-17
9.55315e-17
9.55308e-17
9.55302e-17
9.55334e-17
9.55335e-17
9.55337e-17
9.55338e-17
9.5534e-17
9.5534e-17
9.55341e-17
9.55339e-17
9.55337e-17
9.55333e-17
9.55328e-17
9.55322e-17
9.55315e-17
9.55307e-17
9.55337e-17
9.5534e-17
9.55342e-17
9.55344e-17
9.55346e-17
9.55347e-17
9.55347e-17
9.55346e-17
9.55344e-17
9.5534e-17
9.55335e-17
9.55328e-17
9.55321e-17
9.55312e-17
9.5534e-17
9.55344e-17
9.55346e-17
9.55348e-17
9.5535e-17
9.55352e-17
9.55352e-17
9.55351e-17
9.55349e-17
9.55345e-17
9.5534e-17
9.55333e-17
9.55325e-17
9.55316e-17
9.55343e-17
9.55347e-17
9.55349e-17
9.55352e-17
9.55354e-17
9.55356e-17
9.55356e-17
9.55355e-17
9.55353e-17
9.55349e-17
9.55344e-17
9.55337e-17
9.55329e-17
9.55319e-17
9.55345e-17
9.55349e-17
9.55352e-17
9.55355e-17
9.55357e-17
9.55359e-17
9.55359e-17
9.55358e-17
9.55356e-17
9.55352e-17
9.55346e-17
9.55339e-17
9.55332e-17
9.55321e-17
9.55346e-17
9.55351e-17
9.55354e-17
9.55357e-17
9.55359e-17
9.5536e-17
9.55361e-17
9.5536e-17
9.55357e-17
9.55353e-17
9.55347e-17
9.5534e-17
9.55333e-17
9.55323e-17
9.55347e-17
9.55351e-17
9.55354e-17
9.55357e-17
9.5536e-17
9.55361e-17
9.55361e-17
9.5536e-17
9.55357e-17
9.55353e-17
9.55347e-17
9.5534e-17
9.55333e-17
9.55323e-17
9.55347e-17
9.55351e-17
9.55354e-17
9.55356e-17
9.55359e-17
9.5536e-17
9.5536e-17
9.55358e-17
9.55356e-17
9.55351e-17
9.55346e-17
9.55339e-17
9.55331e-17
9.55323e-17
9.55347e-17
9.5535e-17
9.55353e-17
9.55355e-17
9.55357e-17
9.55357e-17
9.55357e-17
9.55355e-17
9.55353e-17
9.55348e-17
9.55343e-17
9.55337e-17
9.55329e-17
9.55322e-17
9.55347e-17
9.55348e-17
9.55351e-17
9.55352e-17
9.55354e-17
9.55354e-17
9.55354e-17
9.55352e-17
9.55349e-17
9.55344e-17
9.55339e-17
9.55333e-17
9.55326e-17
9.55321e-17
9.55348e-17
9.55349e-17
9.55349e-17
9.5535e-17
9.55349e-17
9.55349e-17
9.55348e-17
9.55346e-17
9.55343e-17
9.55339e-17
9.55335e-17
9.5533e-17
9.55325e-17
9.5532e-17
9.5354e-17
9.53529e-17
9.53522e-17
9.53516e-17
9.53512e-17
9.53509e-17
9.53507e-17
9.53506e-17
9.53506e-17
9.53507e-17
9.53509e-17
9.53512e-17
9.53517e-17
9.53523e-17
9.53536e-17
9.53527e-17
9.53521e-17
9.53516e-17
9.53513e-17
9.5351e-17
9.53508e-17
9.53508e-17
9.53508e-17
9.53509e-17
9.5351e-17
9.53512e-17
9.53514e-17
9.53518e-17
9.53532e-17
9.53525e-17
9.5352e-17
9.53515e-17
9.53512e-17
9.5351e-17
9.53509e-17
9.53508e-17
9.53509e-17
9.53509e-17
9.5351e-17
9.53512e-17
9.53514e-17
9.53516e-17
9.53531e-17
9.53525e-17
9.5352e-17
9.53516e-17
9.53513e-17
9.53512e-17
9.53511e-17
9.53511e-17
9.53511e-17
9.53511e-17
9.53512e-17
9.53513e-17
9.53515e-17
9.53516e-17
9.53531e-17
9.53526e-17
9.53521e-17
9.53518e-17
9.53516e-17
9.53515e-17
9.53514e-17
9.53514e-17
9.53514e-17
9.53514e-17
9.53515e-17
9.53515e-17
9.53516e-17
9.53516e-17
9.53532e-17
9.53528e-17
9.53524e-17
9.53521e-17
9.53519e-17
9.53518e-17
9.53518e-17
9.53518e-17
9.53518e-17
9.53518e-17
9.53518e-17
9.53518e-17
9.53519e-17
9.53518e-17
9.53534e-17
9.53531e-17
9.53527e-17
9.53525e-17
9.53524e-17
9.53523e-17
9.53522e-17
9.53522e-17
9.53522e-17
9.53522e-17
9.53522e-17
9.53522e-17
9.53522e-17
9.53521e-17
9.53537e-17
9.53534e-17
9.53531e-17
9.53529e-17
9.53528e-17
9.53527e-17
9.53527e-17
9.53527e-17
9.53527e-17
9.53527e-17
9.53526e-17
9.53526e-17
9.53526e-17
9.53525e-17
9.53541e-17
9.53538e-17
9.53535e-17
9.53534e-17
9.53533e-17
9.53532e-17
9.53532e-17
9.53532e-17
9.53532e-17
9.53531e-17
9.53531e-17
9.5353e-17
9.53531e-17
9.53529e-17
9.53545e-17
9.53543e-17
9.5354e-17
9.53538e-17
9.53537e-17
9.53537e-17
9.53537e-17
9.53536e-17
9.53536e-17
9.53536e-17
9.53535e-17
9.53535e-17
9.53535e-17
9.53534e-17
9.53551e-17
9.53548e-17
9.53545e-17
9.53543e-17
9.53542e-17
9.53542e-17
9.53541e-17
9.53541e-17
9.53541e-17
9.5354e-17
9.5354e-17
9.53539e-17
9.5354e-17
9.5354e-17
9.53557e-17
9.53554e-17
9.5355e-17
9.53548e-17
9.53547e-17
9.53546e-17
9.53545e-17
9.53545e-17
9.53545e-17
9.53544e-17
9.53544e-17
9.53544e-17
9.53545e-17
9.53546e-17
9.53565e-17
9.5356e-17
9.53556e-17
9.53554e-17
9.53552e-17
9.53551e-17
9.5355e-17
9.53549e-17
9.53549e-17
9.53549e-17
9.53549e-17
9.53549e-17
9.5355e-17
9.53553e-17
9.53575e-17
9.53569e-17
9.53563e-17
9.53559e-17
9.53556e-17
9.53555e-17
9.53553e-17
9.53553e-17
9.53553e-17
9.53553e-17
9.53553e-17
9.53554e-17
9.53557e-17
9.53561e-17
9.51883e-17
9.51864e-17
9.51851e-17
9.51839e-17
9.51831e-17
9.51825e-17
9.51821e-17
9.5182e-17
9.51821e-17
9.51825e-17
9.51831e-17
9.51841e-17
9.51854e-17
9.5187e-17
9.51869e-17
9.51854e-17
9.51841e-17
9.5183e-17
9.51822e-17
9.51815e-17
9.51811e-17
9.5181e-17
9.51812e-17
9.51817e-17
9.51823e-17
9.51832e-17
9.51843e-17
9.51856e-17
9.51859e-17
9.51845e-17
9.51831e-17
9.51821e-17
9.51812e-17
9.51806e-17
9.51803e-17
9.51802e-17
9.51804e-17
9.51808e-17
9.51814e-17
9.51823e-17
9.51835e-17
9.51846e-17
9.51851e-17
9.51838e-17
9.51825e-17
9.51815e-17
9.51807e-17
9.51801e-17
9.51797e-17
9.51797e-17
9.51798e-17
9.51802e-17
9.51809e-17
9.51817e-17
9.51828e-17
9.51839e-17
9.51847e-17
9.51834e-17
9.51821e-17
9.51811e-17
9.51803e-17
9.51798e-17
9.51794e-17
9.51793e-17
9.51795e-17
9.51799e-17
9.51805e-17
9.51813e-17
9.51824e-17
9.51835e-17
9.51845e-17
9.51832e-17
9.51819e-17
9.5181e-17
9.51802e-17
9.51796e-17
9.51793e-17
9.51792e-17
9.51794e-17
9.51798e-17
9.51804e-17
9.51812e-17
9.51822e-17
9.51833e-17
9.51846e-17
9.51833e-17
9.5182e-17
9.51811e-17
9.51803e-17
9.51798e-17
9.51795e-17
9.51794e-17
9.51796e-17
9.51799e-17
9.51805e-17
9.51813e-17
9.51823e-17
9.51834e-17
9.51849e-17
9.51836e-17
9.51824e-17
9.51815e-17
9.51807e-17
9.51802e-17
9.51799e-17
9.51798e-17
9.518e-17
9.51804e-17
9.51809e-17
9.51817e-17
9.51827e-17
9.51838e-17
9.51855e-17
9.51842e-17
9.5183e-17
9.51821e-17
9.51814e-17
9.51809e-17
9.51806e-17
9.51805e-17
9.51806e-17
9.5181e-17
9.51816e-17
9.51823e-17
9.51834e-17
9.51844e-17
9.51863e-17
9.5185e-17
9.51838e-17
9.51829e-17
9.51822e-17
9.51817e-17
9.51814e-17
9.51813e-17
9.51815e-17
9.51818e-17
9.51824e-17
9.51832e-17
9.51842e-17
9.51852e-17
9.51873e-17
9.51861e-17
9.51849e-17
9.5184e-17
9.51832e-17
9.51827e-17
9.51825e-17
9.51824e-17
9.51825e-17
9.51829e-17
9.51835e-17
9.51842e-17
9.51853e-17
9.51862e-17
9.51886e-17
9.51873e-17
9.51861e-17
9.51852e-17
9.51845e-17
9.5184e-17
9.51837e-17
9.51836e-17
9.51838e-17
9.51841e-17
9.51847e-17
9.51855e-17
9.51865e-17
9.51875e-17
9.51901e-17
9.51888e-17
9.51876e-17
9.51867e-17
9.51859e-17
9.51854e-17
9.51851e-17
9.5185e-17
9.51852e-17
9.51856e-17
9.51862e-17
9.51869e-17
9.51879e-17
9.51891e-17
9.51921e-17
9.51904e-17
9.51891e-17
9.51881e-17
9.51873e-17
9.51868e-17
9.51865e-17
9.51865e-17
9.51867e-17
9.5187e-17
9.51876e-17
9.51884e-17
9.51895e-17
9.5191e-17
9.50347e-17
9.50327e-17
9.50311e-17
9.50298e-17
9.50287e-17
9.50279e-17
9.50274e-17
9.50272e-17
9.50274e-17
9.50278e-17
9.50286e-17
9.50298e-17
9.50315e-17
9.50336e-17
9.50328e-17
9.50311e-17
9.50295e-17
9.50282e-17
9.50271e-17
9.50262e-17
9.50257e-17
9.50255e-17
9.50258e-17
9.50263e-17
9.50272e-17
9.50285e-17
9.503e-17
9.50318e-17
9.50313e-17
9.50297e-17
9.5028e-17
9.50266e-17
9.50255e-17
9.50247e-17
9.50242e-17
9.5024e-17
9.50242e-17
9.50248e-17
9.50258e-17
9.5027e-17
9.50287e-17
9.50305e-17
9.50303e-17
9.50286e-17
9.50269e-17
9.50255e-17
9.50243e-17
9.50235e-17
9.5023e-17
9.50229e-17
9.50231e-17
9.50237e-17
9.50247e-17
9.50259e-17
9.50277e-17
9.50294e-17
9.50296e-17
9.50278e-17
9.50261e-17
9.50247e-17
9.50235e-17
9.50227e-17
9.50222e-17
9.5022e-17
9.50223e-17
9.50229e-17
9.50238e-17
9.50251e-17
9.50269e-17
9.50287e-17
9.50292e-17
9.50274e-17
9.50256e-17
9.50242e-17
9.5023e-17
9.50222e-17
9.50216e-17
9.50215e-17
9.50218e-17
9.50224e-17
9.50234e-17
9.50247e-17
9.50264e-17
9.50283e-17
9.50292e-17
9.50273e-17
9.50255e-17
9.5024e-17
9.50228e-17
9.5022e-17
9.50215e-17
9.50213e-17
9.50216e-17
9.50222e-17
9.50232e-17
9.50245e-17
9.50262e-17
9.50282e-17
9.50296e-17
9.50276e-17
9.50258e-17
9.50243e-17
9.50231e-17
9.50222e-17
9.50217e-17
9.50216e-17
9.50219e-17
9.50225e-17
9.50235e-17
9.50248e-17
9.50265e-17
9.50283e-17
9.50302e-17
9.50282e-17
9.50264e-17
9.50249e-17
9.50237e-17
9.50229e-17
9.50224e-17
9.50222e-17
9.50225e-17
9.50231e-17
9.50241e-17
9.50254e-17
9.50271e-17
9.50289e-17
9.50311e-17
9.50292e-17
9.50273e-17
9.50259e-17
9.50247e-17
9.50238e-17
9.50233e-17
9.50232e-17
9.50235e-17
9.50241e-17
9.50251e-17
9.50263e-17
9.5028e-17
9.50297e-17
9.50323e-17
9.50305e-17
9.50286e-17
9.50272e-17
9.5026e-17
9.50252e-17
9.50247e-17
9.50246e-17
9.50248e-17
9.50254e-17
9.50264e-17
9.50276e-17
9.50293e-17
9.50309e-17
9.50339e-17
9.5032e-17
9.50302e-17
9.50287e-17
9.50276e-17
9.50268e-17
9.50263e-17
9.50262e-17
9.50265e-17
9.50271e-17
9.5028e-17
9.50292e-17
9.50309e-17
9.50324e-17
9.50357e-17
9.50338e-17
9.50321e-17
9.50307e-17
9.50296e-17
9.50288e-17
9.50283e-17
9.50282e-17
9.50285e-17
9.50291e-17
9.503e-17
9.50313e-17
9.50327e-17
9.50344e-17
9.5038e-17
9.50357e-17
9.50339e-17
9.50325e-17
9.50315e-17
9.50308e-17
9.50304e-17
9.50304e-17
9.50307e-17
9.50312e-17
9.50321e-17
9.50333e-17
9.50348e-17
9.50369e-17
9.48928e-17
9.48914e-17
9.48902e-17
9.48891e-17
9.48883e-17
9.48876e-17
9.48872e-17
9.4887e-17
9.48871e-17
9.48875e-17
9.48881e-17
9.48891e-17
9.48904e-17
9.48921e-17
9.48912e-17
9.489e-17
9.48887e-17
9.48875e-17
9.48866e-17
9.48859e-17
9.48855e-17
9.48853e-17
9.48855e-17
9.48859e-17
9.48868e-17
9.48879e-17
9.48893e-17
9.48909e-17
9.489e-17
9.48886e-17
9.48872e-17
9.4886e-17
9.4885e-17
9.48843e-17
9.48839e-17
9.48838e-17
9.4884e-17
9.48845e-17
9.48853e-17
9.48865e-17
9.48881e-17
9.48898e-17
9.48891e-17
9.48876e-17
9.48861e-17
9.48848e-17
9.48838e-17
9.48831e-17
9.48827e-17
9.48825e-17
9.48828e-17
9.48833e-17
9.48843e-17
9.48855e-17
9.48872e-17
9.48889e-17
9.48885e-17
9.48869e-17
9.48853e-17
9.4884e-17
9.48829e-17
9.48822e-17
9.48817e-17
9.48816e-17
9.48819e-17
9.48825e-17
9.48834e-17
9.48847e-17
9.48864e-17
9.48882e-17
9.48882e-17
9.48864e-17
9.48848e-17
9.48834e-17
9.48824e-17
9.48816e-17
9.48811e-17
9.4881e-17
9.48813e-17
9.48819e-17
9.48829e-17
9.48842e-17
9.48859e-17
9.48878e-17
9.48882e-17
9.48863e-17
9.48846e-17
9.48832e-17
9.48821e-17
9.48813e-17
9.48808e-17
9.48807e-17
9.4881e-17
9.48816e-17
9.48826e-17
9.4884e-17
9.48857e-17
9.48876e-17
9.48885e-17
9.48866e-17
9.48848e-17
9.48834e-17
9.48822e-17
9.48814e-17
9.48809e-17
9.48808e-17
9.48811e-17
9.48818e-17
9.48828e-17
9.48841e-17
9.48857e-17
9.48877e-17
9.4889e-17
9.48871e-17
9.48853e-17
9.48839e-17
9.48827e-17
9.48819e-17
9.48814e-17
9.48813e-17
9.48816e-17
9.48822e-17
9.48832e-17
9.48845e-17
9.48862e-17
9.4888e-17
9.48898e-17
9.48879e-17
9.48861e-17
9.48847e-17
9.48835e-17
9.48827e-17
9.48822e-17
9.48821e-17
9.48824e-17
9.48831e-17
9.4884e-17
9.48853e-17
9.48869e-17
9.48886e-17
9.48908e-17
9.4889e-17
9.48872e-17
9.48858e-17
9.48847e-17
9.48839e-17
9.48834e-17
9.48833e-17
9.48836e-17
9.48842e-17
9.48852e-17
9.48864e-17
9.4888e-17
9.48895e-17
9.4892e-17
9.48903e-17
9.48885e-17
9.48872e-17
9.48861e-17
9.48854e-17
9.48849e-17
9.48848e-17
9.48851e-17
9.48857e-17
9.48866e-17
9.48878e-17
9.48893e-17
9.48908e-17
9.48935e-17
9.48918e-17
9.48902e-17
9.48889e-17
9.48878e-17
9.48871e-17
9.48867e-17
9.48867e-17
9.4887e-17
9.48876e-17
9.48885e-17
9.48896e-17
9.4891e-17
9.48924e-17
9.48952e-17
9.48933e-17
9.48917e-17
9.48905e-17
9.48896e-17
9.48891e-17
9.48888e-17
9.48888e-17
9.48891e-17
9.48896e-17
9.48904e-17
9.48915e-17
9.48929e-17
9.48944e-17
9.47623e-17
9.47618e-17
9.47613e-17
9.47608e-17
9.47605e-17
9.47602e-17
9.476e-17
9.476e-17
9.476e-17
9.47602e-17
9.47605e-17
9.47609e-17
9.47616e-17
9.47623e-17
9.47616e-17
9.47612e-17
9.47605e-17
9.476e-17
9.47595e-17
9.47592e-17
9.4759e-17
9.47589e-17
9.4759e-17
9.47593e-17
9.47597e-17
9.47604e-17
9.47612e-17
9.4762e-17
9.47611e-17
9.47604e-17
9.47597e-17
9.47591e-17
9.47586e-17
9.47582e-17
9.4758e-17
9.4758e-17
9.47582e-17
9.47585e-17
9.4759e-17
9.47596e-17
9.47606e-17
9.47615e-17
9.47607e-17
9.47599e-17
9.47591e-17
9.47584e-17
9.47579e-17
9.47575e-17
9.47573e-17
9.47573e-17
9.47575e-17
9.47578e-17
9.47584e-17
9.47591e-17
9.47601e-17
9.47611e-17
9.47604e-17
9.47595e-17
9.47586e-17
9.47579e-17
9.47573e-17
9.4757e-17
9.47567e-17
9.47567e-17
9.47569e-17
9.47573e-17
9.47579e-17
9.47587e-17
9.47597e-17
9.47608e-17
9.47604e-17
9.47593e-17
9.47584e-17
9.47576e-17
9.4757e-17
9.47566e-17
9.47564e-17
9.47564e-17
9.47566e-17
9.4757e-17
9.47576e-17
9.47584e-17
9.47594e-17
9.47606e-17
9.47604e-17
9.47593e-17
9.47583e-17
9.47575e-17
9.47569e-17
9.47565e-17
9.47562e-17
9.47562e-17
9.47564e-17
9.47568e-17
9.47575e-17
9.47583e-17
9.47593e-17
9.47605e-17
9.47606e-17
9.47595e-17
9.47584e-17
9.47576e-17
9.4757e-17
9.47565e-17
9.47563e-17
9.47563e-17
9.47565e-17
9.47569e-17
9.47575e-17
9.47583e-17
9.47593e-17
9.47605e-17
9.47609e-17
9.47598e-17
9.47587e-17
9.47579e-17
9.47572e-17
9.47568e-17
9.47565e-17
9.47565e-17
9.47567e-17
9.47571e-17
9.47578e-17
9.47586e-17
9.47596e-17
9.47607e-17
9.47614e-17
9.47602e-17
9.47592e-17
9.47584e-17
9.47577e-17
9.47573e-17
9.4757e-17
9.4757e-17
9.47572e-17
9.47576e-17
9.47582e-17
9.4759e-17
9.476e-17
9.4761e-17
9.47619e-17
9.47608e-17
9.47598e-17
9.4759e-17
9.47584e-17
9.47579e-17
9.47577e-17
9.47577e-17
9.47579e-17
9.47583e-17
9.47589e-17
9.47596e-17
9.47606e-17
9.47614e-17
9.47625e-17
9.47615e-17
9.47605e-17
9.47598e-17
9.47592e-17
9.47588e-17
9.47586e-17
9.47586e-17
9.47588e-17
9.47592e-17
9.47597e-17
9.47604e-17
9.47613e-17
9.47621e-17
9.47632e-17
9.47623e-17
9.47614e-17
9.47607e-17
9.47602e-17
9.47598e-17
9.47597e-17
9.47597e-17
9.47599e-17
9.47603e-17
9.47609e-17
9.47615e-17
9.47623e-17
9.47629e-17
9.47638e-17
9.4763e-17
9.47622e-17
9.47616e-17
9.47613e-17
9.4761e-17
9.47609e-17
9.4761e-17
9.47612e-17
9.47615e-17
9.4762e-17
9.47625e-17
9.47632e-17
9.47638e-17
9.46412e-17
9.46415e-17
9.46418e-17
9.4642e-17
9.46422e-17
9.46423e-17
9.46424e-17
9.46425e-17
9.46425e-17
9.46424e-17
9.46423e-17
9.46421e-17
9.46419e-17
9.46418e-17
9.46414e-17
9.46418e-17
9.4642e-17
9.46422e-17
9.46423e-17
9.46424e-17
9.46425e-17
9.46425e-17
9.46425e-17
9.46425e-17
9.46425e-17
9.46424e-17
9.46423e-17
9.46422e-17
9.46417e-17
9.4642e-17
9.46421e-17
9.46422e-17
9.46424e-17
9.46425e-17
9.46426e-17
9.46426e-17
9.46426e-17
9.46426e-17
9.46426e-17
9.46426e-17
9.46425e-17
9.46425e-17
9.4642e-17
9.46421e-17
9.46423e-17
9.46424e-17
9.46425e-17
9.46426e-17
9.46426e-17
9.46427e-17
9.46427e-17
9.46427e-17
9.46427e-17
9.46427e-17
9.46427e-17
9.46427e-17
9.46422e-17
9.46423e-17
9.46424e-17
9.46425e-17
9.46426e-17
9.46426e-17
9.46427e-17
9.46428e-17
9.46428e-17
9.46428e-17
9.46428e-17
9.46429e-17
9.46429e-17
9.46429e-17
9.46424e-17
9.46425e-17
9.46425e-17
9.46426e-17
9.46427e-17
9.46427e-17
9.46428e-17
9.46428e-17
9.46429e-17
9.46429e-17
9.46429e-17
9.4643e-17
9.4643e-17
9.46431e-17
9.46426e-17
9.46426e-17
9.46426e-17
9.46427e-17
9.46427e-17
9.46428e-17
9.46428e-17
9.46429e-17
9.46429e-17
9.4643e-17
9.4643e-17
9.46431e-17
9.46431e-17
9.46432e-17
9.46427e-17
9.46427e-17
9.46427e-17
9.46428e-17
9.46428e-17
9.46429e-17
9.46429e-17
9.4643e-17
9.4643e-17
9.46431e-17
9.46431e-17
9.46431e-17
9.46431e-17
9.46432e-17
9.46428e-17
9.46428e-17
9.46428e-17
9.46428e-17
9.46429e-17
9.46429e-17
9.4643e-17
9.4643e-17
9.46431e-17
9.46431e-17
9.46431e-17
9.46432e-17
9.46432e-17
9.46432e-17
9.46428e-17
9.46428e-17
9.46428e-17
9.46429e-17
9.46429e-17
9.4643e-17
9.4643e-17
9.46431e-17
9.46431e-17
9.46432e-17
9.46432e-17
9.46432e-17
9.46432e-17
9.46432e-17
9.46427e-17
9.46428e-17
9.46428e-17
9.46429e-17
9.46429e-17
9.4643e-17
9.46431e-17
9.46431e-17
9.46432e-17
9.46432e-17
9.46432e-17
9.46432e-17
9.46432e-17
9.46431e-17
9.46426e-17
9.46427e-17
9.46428e-17
9.46429e-17
9.4643e-17
9.46431e-17
9.46432e-17
9.46432e-17
9.46433e-17
9.46433e-17
9.46433e-17
9.46432e-17
9.46432e-17
9.46431e-17
9.46425e-17
9.46427e-17
9.46428e-17
9.46429e-17
9.4643e-17
9.46431e-17
9.46432e-17
9.46433e-17
9.46434e-17
9.46434e-17
9.46434e-17
9.46433e-17
9.46433e-17
9.4643e-17
9.46423e-17
9.46425e-17
9.46427e-17
9.46429e-17
9.46431e-17
9.46432e-17
9.46434e-17
9.46435e-17
9.46435e-17
9.46435e-17
9.46434e-17
9.46433e-17
9.46432e-17
9.4643e-17
9.45257e-17
9.45266e-17
9.45276e-17
9.45284e-17
9.45291e-17
9.45296e-17
9.45299e-17
9.453e-17
9.45299e-17
9.45296e-17
9.45291e-17
9.45284e-17
9.45275e-17
9.45266e-17
9.45268e-17
9.45278e-17
9.45287e-17
9.45296e-17
9.45302e-17
9.45307e-17
9.4531e-17
9.45311e-17
9.4531e-17
9.45307e-17
9.45301e-17
9.45294e-17
9.45286e-17
9.45275e-17
9.45278e-17
9.45288e-17
9.45298e-17
9.45306e-17
9.45313e-17
9.45318e-17
9.45321e-17
9.45322e-17
9.45321e-17
9.45317e-17
9.45312e-17
9.45305e-17
9.45295e-17
9.45286e-17
9.45287e-17
9.45297e-17
9.45307e-17
9.45315e-17
9.45322e-17
9.45327e-17
9.4533e-17
9.45331e-17
9.45329e-17
9.45326e-17
9.4532e-17
9.45313e-17
9.45304e-17
9.45294e-17
9.45294e-17
9.45304e-17
9.45314e-17
9.45322e-17
9.45329e-17
9.45334e-17
9.45337e-17
9.45338e-17
9.45336e-17
9.45333e-17
9.45327e-17
9.4532e-17
9.4531e-17
9.453e-17
9.45298e-17
9.45309e-17
9.45319e-17
9.45327e-17
9.45334e-17
9.45339e-17
9.45342e-17
9.45343e-17
9.45341e-17
9.45338e-17
9.45332e-17
9.45325e-17
9.45315e-17
9.45305e-17
9.45301e-17
9.45312e-17
9.45322e-17
9.45331e-17
9.45337e-17
9.45342e-17
9.45345e-17
9.45346e-17
9.45344e-17
9.45341e-17
9.45335e-17
9.45328e-17
9.45319e-17
9.45308e-17
9.45302e-17
9.45313e-17
9.45323e-17
9.45332e-17
9.45338e-17
9.45343e-17
9.45346e-17
9.45347e-17
9.45346e-17
9.45342e-17
9.45336e-17
9.45329e-17
9.4532e-17
9.45309e-17
9.453e-17
9.45311e-17
9.45322e-17
9.4533e-17
9.45337e-17
9.45342e-17
9.45345e-17
9.45346e-17
9.45344e-17
9.45341e-17
9.45335e-17
9.45328e-17
9.45319e-17
9.45309e-17
9.45297e-17
9.45308e-17
9.45318e-17
9.45327e-17
9.45334e-17
9.45339e-17
9.45342e-17
9.45343e-17
9.45341e-17
9.45338e-17
9.45332e-17
9.45325e-17
9.45316e-17
9.45306e-17
9.45292e-17
9.45303e-17
9.45313e-17
9.45322e-17
9.45329e-17
9.45333e-17
9.45337e-17
9.45337e-17
9.45336e-17
9.45332e-17
9.45327e-17
9.4532e-17
9.45311e-17
9.45301e-17
9.45285e-17
9.45296e-17
9.45306e-17
9.45315e-17
9.45322e-17
9.45327e-17
9.4533e-17
9.45331e-17
9.45329e-17
9.45326e-17
9.4532e-17
9.45313e-17
9.45304e-17
9.45295e-17
9.45277e-17
9.45288e-17
9.45298e-17
9.45306e-17
9.45313e-17
9.45318e-17
9.45321e-17
9.45322e-17
9.4532e-17
9.45317e-17
9.45312e-17
9.45304e-17
9.45296e-17
9.45286e-17
9.45269e-17
9.45279e-17
9.45289e-17
9.45298e-17
9.45304e-17
9.45309e-17
9.45312e-17
9.45312e-17
9.45311e-17
9.45307e-17
9.45302e-17
9.45295e-17
9.45287e-17
9.45278e-17
9.44122e-17
9.44135e-17
9.4415e-17
9.44161e-17
9.4417e-17
9.44177e-17
9.44181e-17
9.44183e-17
9.44181e-17
9.44177e-17
9.44169e-17
9.44159e-17
9.44145e-17
9.44131e-17
9.44139e-17
9.44153e-17
9.44167e-17
9.44179e-17
9.44189e-17
9.44196e-17
9.44201e-17
9.44202e-17
9.442e-17
9.44194e-17
9.44186e-17
9.44175e-17
9.44161e-17
9.44145e-17
9.44154e-17
9.44169e-17
9.44184e-17
9.44197e-17
9.44207e-17
9.44214e-17
9.44218e-17
9.44219e-17
9.44217e-17
9.44211e-17
9.44202e-17
9.44191e-17
9.44175e-17
9.4416e-17
9.44166e-17
9.44182e-17
9.44198e-17
9.44211e-17
9.44221e-17
9.44228e-17
9.44232e-17
9.44233e-17
9.44231e-17
9.44225e-17
9.44216e-17
9.44204e-17
9.44188e-17
9.44172e-17
9.44176e-17
9.44193e-17
9.44209e-17
9.44222e-17
9.44232e-17
9.4424e-17
9.44244e-17
9.44245e-17
9.44242e-17
9.44236e-17
9.44226e-17
9.44214e-17
9.44198e-17
9.44181e-17
9.44182e-17
9.442e-17
9.44217e-17
9.4423e-17
9.4424e-17
9.44248e-17
9.44252e-17
9.44253e-17
9.4425e-17
9.44244e-17
9.44234e-17
9.44222e-17
9.44206e-17
9.44188e-17
9.44186e-17
9.44204e-17
9.44221e-17
9.44234e-17
9.44245e-17
9.44252e-17
9.44257e-17
9.44258e-17
9.44255e-17
9.44249e-17
9.44239e-17
9.44227e-17
9.44211e-17
9.44193e-17
9.44187e-17
9.44205e-17
9.44222e-17
9.44236e-17
9.44247e-17
9.44254e-17
9.44258e-17
9.44259e-17
9.44256e-17
9.4425e-17
9.44241e-17
9.44228e-17
9.44213e-17
9.44195e-17
9.44184e-17
9.44203e-17
9.4422e-17
9.44233e-17
9.44244e-17
9.44252e-17
9.44256e-17
9.44257e-17
9.44254e-17
9.44248e-17
9.44238e-17
9.44226e-17
9.44211e-17
9.44194e-17
9.44179e-17
9.44198e-17
9.44215e-17
9.44228e-17
9.44239e-17
9.44246e-17
9.44251e-17
9.44251e-17
9.44248e-17
9.44243e-17
9.44233e-17
9.44221e-17
9.44206e-17
9.4419e-17
9.44172e-17
9.4419e-17
9.44206e-17
9.4422e-17
9.4423e-17
9.44238e-17
9.44242e-17
9.44243e-17
9.4424e-17
9.44234e-17
9.44225e-17
9.44213e-17
9.44198e-17
9.44183e-17
9.44162e-17
9.44179e-17
9.44196e-17
9.44209e-17
9.44219e-17
9.44226e-17
9.44231e-17
9.44231e-17
9.44228e-17
9.44222e-17
9.44214e-17
9.44202e-17
9.44188e-17
9.44174e-17
9.4415e-17
9.44167e-17
9.44182e-17
9.44195e-17
9.44205e-17
9.44212e-17
9.44216e-17
9.44216e-17
9.44213e-17
9.44207e-17
9.44199e-17
9.44188e-17
9.44174e-17
9.4416e-17
9.44138e-17
9.44154e-17
9.44169e-17
9.44181e-17
9.4419e-17
9.44196e-17
9.44199e-17
9.44199e-17
9.44196e-17
9.44191e-17
9.44183e-17
9.44173e-17
9.4416e-17
9.44147e-17
9.42987e-17
9.43001e-17
9.43015e-17
9.43027e-17
9.43036e-17
9.43043e-17
9.43047e-17
9.43049e-17
9.43047e-17
9.43042e-17
9.43035e-17
9.43024e-17
9.4301e-17
9.42995e-17
9.43005e-17
9.43019e-17
9.43034e-17
9.43047e-17
9.43057e-17
9.43064e-17
9.43069e-17
9.4307e-17
9.43068e-17
9.43062e-17
9.43053e-17
9.43042e-17
9.43027e-17
9.43011e-17
9.43021e-17
9.43037e-17
9.43053e-17
9.43066e-17
9.43076e-17
9.43084e-17
9.43088e-17
9.43089e-17
9.43086e-17
9.4308e-17
9.43071e-17
9.43059e-17
9.43043e-17
9.43026e-17
9.43034e-17
9.43051e-17
9.43068e-17
9.43081e-17
9.43092e-17
9.43099e-17
9.43104e-17
9.43104e-17
9.43101e-17
9.43095e-17
9.43085e-17
9.43073e-17
9.43056e-17
9.43039e-17
9.43044e-17
9.43062e-17
9.43079e-17
9.43093e-17
9.43104e-17
9.43112e-17
9.43116e-17
9.43117e-17
9.43114e-17
9.43107e-17
9.43097e-17
9.43084e-17
9.43067e-17
9.43049e-17
9.43051e-17
9.4307e-17
9.43088e-17
9.43102e-17
9.43113e-17
9.43121e-17
9.43125e-17
9.43126e-17
9.43123e-17
9.43116e-17
9.43106e-17
9.43093e-17
9.43076e-17
9.43056e-17
9.43055e-17
9.43075e-17
9.43093e-17
9.43107e-17
9.43118e-17
9.43126e-17
9.43131e-17
9.43131e-17
9.43128e-17
9.43121e-17
9.43111e-17
9.43098e-17
9.43081e-17
9.43062e-17
9.43056e-17
9.43076e-17
9.43094e-17
9.43109e-17
9.4312e-17
9.43128e-17
9.43133e-17
9.43133e-17
9.4313e-17
9.43123e-17
9.43113e-17
9.431e-17
9.43083e-17
9.43064e-17
9.43054e-17
9.43074e-17
9.43092e-17
9.43107e-17
9.43118e-17
9.43126e-17
9.43131e-17
9.43131e-17
9.43128e-17
9.43121e-17
9.43111e-17
9.43098e-17
9.43082e-17
9.43063e-17
9.43049e-17
9.43069e-17
9.43087e-17
9.43102e-17
9.43113e-17
9.43121e-17
9.43125e-17
9.43126e-17
9.43122e-17
9.43116e-17
9.43106e-17
9.43093e-17
9.43077e-17
9.43059e-17
9.43042e-17
9.43061e-17
9.43079e-17
9.43093e-17
9.43104e-17
9.43112e-17
9.43116e-17
9.43117e-17
9.43113e-17
9.43107e-17
9.43097e-17
9.43085e-17
9.43069e-17
9.43053e-17
9.43033e-17
9.43051e-17
9.43068e-17
9.43082e-17
9.43093e-17
9.431e-17
9.43104e-17
9.43104e-17
9.43101e-17
9.43095e-17
9.43086e-17
9.43074e-17
9.43058e-17
9.43043e-17
9.4302e-17
9.43038e-17
9.43054e-17
9.43067e-17
9.43078e-17
9.43085e-17
9.43088e-17
9.43088e-17
9.43085e-17
9.43079e-17
9.4307e-17
9.43058e-17
9.43044e-17
9.4303e-17
9.43008e-17
9.43025e-17
9.43041e-17
9.43053e-17
9.43061e-17
9.43067e-17
9.4307e-17
9.4307e-17
9.43067e-17
9.43062e-17
9.43053e-17
9.43043e-17
9.4303e-17
9.43016e-17
9.41849e-17
9.41861e-17
9.41872e-17
9.41881e-17
9.41888e-17
9.41893e-17
9.41896e-17
9.41897e-17
9.41896e-17
9.41892e-17
9.41887e-17
9.41879e-17
9.41868e-17
9.41857e-17
9.41864e-17
9.41875e-17
9.41887e-17
9.41897e-17
9.41905e-17
9.41911e-17
9.41914e-17
9.41915e-17
9.41913e-17
9.41909e-17
9.41902e-17
9.41893e-17
9.41882e-17
9.4187e-17
9.41877e-17
9.41889e-17
9.41902e-17
9.41912e-17
9.41921e-17
9.41926e-17
9.4193e-17
9.4193e-17
9.41928e-17
9.41924e-17
9.41917e-17
9.41908e-17
9.41895e-17
9.41882e-17
9.41887e-17
9.41901e-17
9.41914e-17
9.41925e-17
9.41933e-17
9.41939e-17
9.41943e-17
9.41943e-17
9.41941e-17
9.41936e-17
9.41929e-17
9.41919e-17
9.41906e-17
9.41893e-17
9.41896e-17
9.4191e-17
9.41924e-17
9.41935e-17
9.41944e-17
9.4195e-17
9.41953e-17
9.41954e-17
9.41951e-17
9.41947e-17
9.41939e-17
9.41929e-17
9.41916e-17
9.41901e-17
9.41902e-17
9.41917e-17
9.41931e-17
9.41942e-17
9.41951e-17
9.41957e-17
9.41961e-17
9.41961e-17
9.41959e-17
9.41954e-17
9.41946e-17
9.41936e-17
9.41923e-17
9.41908e-17
9.41905e-17
9.41922e-17
9.41936e-17
9.41947e-17
9.41956e-17
9.41962e-17
9.41966e-17
9.41966e-17
9.41964e-17
9.41959e-17
9.41951e-17
9.4194e-17
9.41927e-17
9.41912e-17
9.41907e-17
9.41924e-17
9.41938e-17
9.41949e-17
9.41958e-17
9.41964e-17
9.41968e-17
9.41969e-17
9.41966e-17
9.41961e-17
9.41953e-17
9.41943e-17
9.4193e-17
9.41915e-17
9.41906e-17
9.41923e-17
9.41937e-17
9.41948e-17
9.41957e-17
9.41964e-17
9.41967e-17
9.41968e-17
9.41965e-17
9.4196e-17
9.41952e-17
9.41942e-17
9.4193e-17
9.41915e-17
9.41903e-17
9.41919e-17
9.41933e-17
9.41945e-17
9.41954e-17
9.4196e-17
9.41963e-17
9.41964e-17
9.41961e-17
9.41956e-17
9.41949e-17
9.41939e-17
9.41926e-17
9.41912e-17
9.41898e-17
9.41914e-17
9.41928e-17
9.41939e-17
9.41948e-17
9.41953e-17
9.41957e-17
9.41957e-17
9.41955e-17
9.4195e-17
9.41943e-17
9.41933e-17
9.41921e-17
9.41907e-17
9.41891e-17
9.41906e-17
9.4192e-17
9.41931e-17
9.41939e-17
9.41945e-17
9.41948e-17
9.41948e-17
9.41946e-17
9.41941e-17
9.41934e-17
9.41925e-17
9.41913e-17
9.41901e-17
9.41883e-17
9.41897e-17
9.41909e-17
9.4192e-17
9.41928e-17
9.41933e-17
9.41936e-17
9.41937e-17
9.41934e-17
9.4193e-17
9.41922e-17
9.41914e-17
9.41903e-17
9.41891e-17
9.41873e-17
9.41887e-17
9.41899e-17
9.41908e-17