/*--------------------------------*- C++ -*----------------------------------*\
| =========                 |                                                 |
| \\      /  F ield         | OpenFOAM: The Open Source CFD Toolbox           |
|  \\    /   O peration     | Version:  v2106                                 |
|   \\  /    A nd           | Website:  www.openfoam.com                      |
|    \\/     M anipulation  |                                                 |
\*---------------------------------------------------------------------------*/
FoamFile
{
    version     2.0;
    format      ascii;
    arch        "LSB;label=32;scalar=64";
    class       surfaceScalarField;
    location    "0.000175";
    object      phi;
}
// * * * * * * * * * * * * * * * * * * * * * * * * * * * * * * * * * * * * * //

dimensions      [1 0 -1 0 0 0 0];

internalField   nonuniform List<scalar> 
51992
(
-7.40788e-06
9.68391e-06
-5.75539e-06
8.73129e-06
-1.1039e-05
-6.37875e-06
7.46547e-06
-5.7551e-06
-8.51723e-06
-5.49357e-06
5.15398e-06
-5.86156e-06
-6.03855e-06
-4.81535e-06
3.1588e-06
-6.04789e-06
-3.77181e-06
-4.49912e-06
1.75166e-06
-6.29484e-06
-1.95916e-06
-4.68245e-06
6.11675e-07
-6.50538e-06
-3.02141e-07
-5.21365e-06
-2.48783e-07
-6.70939e-06
9.13831e-07
-6.10254e-06
-9.10253e-07
-6.86328e-06
1.94193e-06
-7.15488e-06
-1.39925e-06
-7.02175e-06
2.59421e-06
-8.32183e-06
-2.09566e-06
-7.07954e-06
3.40227e-06
-9.47215e-06
-3.12569e-06
-6.86358e-06
4.39403e-06
-1.05878e-05
-4.638e-06
-6.24201e-06
5.84892e-06
-1.16107e-05
-6.4049e-06
-5.23344e-06
7.50811e-06
-8.68793e-06
-4.04004e-06
-1.26169e-05
9.7368e-06
-5.42581e-06
8.33757e-06
-6.64436e-06
6.71707e-06
-4.18527e-06
6.19694e-06
-6.63535e-06
-3.33525e-06
4.30164e-06
-6.60398e-06
-2.83923e-06
2.71007e-06
-6.66059e-06
-2.70796e-06
1.70826e-06
-6.71539e-06
-2.95811e-06
9.62696e-07
-6.76465e-06
-3.49019e-06
3.97238e-07
-6.83362e-06
-4.2686e-06
3.84899e-10
-6.90653e-06
-5.14569e-06
-3.65294e-07
-7.02795e-06
-6.13354e-06
-9.39849e-07
-7.0915e-06
-7.18235e-06
-1.91515e-06
-6.93284e-06
-8.29376e-06
-3.37456e-06
-6.35884e-06
-9.26588e-06
-5.3034e-06
-5.35654e-06
-7.83151e-06
-4.15847e-06
-1.00231e-05
-4.05835e-06
7.01077e-06
-7.08519e-06
5.32863e-06
-2.93408e-06
5.04762e-06
-7.0469e-06
-2.21921e-06
3.59283e-06
-6.95764e-06
-1.89059e-06
2.43629e-06
-6.93683e-06
-1.84916e-06
1.75408e-06
-6.89459e-06
-2.04554e-06
1.25414e-06
-6.88455e-06
-2.45427e-06
9.08966e-07
-6.90496e-06
-3.03337e-06
7.01175e-07
-6.93873e-06
-3.71728e-06
4.72227e-07
-7.00313e-06
-4.49282e-06
9.21155e-09
-7.03435e-06
-5.35299e-06
-8.68461e-07
-6.88156e-06
-6.23001e-06
-2.31551e-06
-6.3634e-06
-6.98832e-06
-4.36498e-06
-5.45802e-06
-7.10759e-06
-4.35895e-06
-7.55286e-06
-3.18907e-06
5.84278e-06
-7.15593e-06
4.32435e-06
-2.30499e-06
4.15316e-06
-7.10579e-06
-1.79108e-06
3.11287e-06
-7.04055e-06
-1.61872e-06
2.325e-06
-6.98394e-06
-1.56031e-06
1.78427e-06
-6.92996e-06
-1.66933e-06
1.45779e-06
-6.91264e-06
-1.94454e-06
1.27363e-06
-6.9061e-06
-2.33573e-06
1.19826e-06
-6.92436e-06
-2.76171e-06
1.03752e-06
-6.96659e-06
-3.21702e-06
6.32527e-07
-6.98469e-06
-3.71483e-06
-1.73622e-07
-6.86155e-06
-4.22978e-06
-1.60489e-06
-6.44119e-06
-4.682e-06
-3.71784e-06
-5.68095e-06
-6.6479e-06
-4.75034e-06
-4.95586e-06
-2.8866e-06
4.91218e-06
-7.07664e-06
3.80541e-06
-2.23377e-06
3.51969e-06
-7.05509e-06
-1.78626e-06
2.71734e-06
-7.0106e-06
-1.59183e-06
2.20493e-06
-6.9721e-06
-1.54459e-06
1.82314e-06
-6.93169e-06
-1.60545e-06
1.60923e-06
-6.90901e-06
-1.76173e-06
1.51385e-06
-6.89491e-06
-1.96687e-06
1.49807e-06
-6.89878e-06
-2.17431e-06
1.36805e-06
-6.92243e-06
-2.37841e-06
1.00633e-06
-6.92278e-06
-2.55382e-06
2.10357e-07
-6.80339e-06
-2.69902e-06
-1.24192e-06
-6.46208e-06
-2.78562e-06
-3.41339e-06
-5.87317e-06
-6.36849e-06
-5.19114e-06
-2.8564e-06
-2.81833e-06
4.26528e-06
-6.97906e-06
3.47909e-06
-2.315e-06
3.0545e-06
-6.97493e-06
-1.93544e-06
2.40081e-06
-6.96052e-06
-1.71716e-06
2.06773e-06
-6.93788e-06
-1.63982e-06
1.83678e-06
-6.91813e-06
-1.65892e-06
1.71684e-06
-6.8869e-06
-1.73462e-06
1.67352e-06
-6.86778e-06
-1.80843e-06
1.66016e-06
-6.86322e-06
-1.863e-06
1.52761e-06
-6.87437e-06
-1.84085e-06
1.14182e-06
-6.87259e-06
-1.73092e-06
3.01621e-07
-6.76848e-06
-1.52967e-06
-1.21224e-06
-6.51186e-06
-1.18951e-06
-3.50912e-06
-6.08646e-06
-6.5303e-06
-5.60956e-06
-7.88311e-07
-2.75009e-06
3.92167e-06
-6.89843e-06
3.15194e-06
-2.37712e-06
2.74435e-06
-6.92355e-06
-2.08252e-06
2.18069e-06
-6.93145e-06
-1.8709e-06
1.94216e-06
-6.91069e-06
-1.76638e-06
1.82066e-06
-6.88481e-06
-1.74028e-06
1.78029e-06
-6.85852e-06
-1.74848e-06
1.77105e-06
-6.84091e-06
-1.73836e-06
1.73874e-06
-6.83262e-06
-1.668e-06
1.55911e-06
-6.8386e-06
-1.48568e-06
1.10197e-06
-6.82365e-06
-1.13834e-06
1.44789e-07
-6.73225e-06
-6.18755e-07
-1.49355e-06
-6.54181e-06
3.80744e-08
-3.90264e-06
-6.26627e-06
-6.92162e-06
-5.99078e-06
6.85325e-07
-2.40841e-06
3.91143e-06
-6.82384e-06
2.52147e-06
-2.22676e-06
2.64311e-06
-6.88664e-06
-2.06226e-06
2.09061e-06
-6.90311e-06
-1.91413e-06
1.87379e-06
-6.87653e-06
-1.81829e-06
1.81349e-06
-6.85357e-06
-1.77311e-06
1.83164e-06
-6.83147e-06
-1.73807e-06
1.8384e-06
-6.81658e-06
-1.67219e-06
1.77645e-06
-6.80965e-06
-1.52456e-06
1.52312e-06
-6.81205e-06
-1.22115e-06
9.47839e-07
-6.79954e-06
-7.07346e-07
-1.80096e-07
-6.73116e-06
3.97104e-08
-2.00351e-06
-6.61287e-06
9.55929e-07
-4.55662e-06
-6.44881e-06
-7.5576e-06
-6.28973e-06
1.84811e-06
-1.82419e-06
4.23129e-06
-6.69162e-06
1.63886e-06
-1.83961e-06
2.76297e-06
-6.8497e-06
-1.794e-06
2.13062e-06
-6.88509e-06
-1.72614e-06
1.89215e-06
-6.86337e-06
-1.6748e-06
1.86001e-06
-6.83591e-06
-1.65047e-06
1.91647e-06
-6.81406e-06
-1.60903e-06
1.91562e-06
-6.79785e-06
-1.50943e-06
1.80315e-06
-6.79508e-06
-1.29697e-06
1.44401e-06
-6.80383e-06
-8.77014e-07
6.87855e-07
-6.7948e-06
-1.98973e-07
-6.61538e-07
-6.75372e-06
7.00696e-07
-2.66542e-06
-6.68764e-06
1.77244e-06
-5.36414e-06
-6.59364e-06
-8.43086e-06
-6.44053e-06
2.90884e-06
-7.36029e-07
4.96961e-06
-6.51675e-06
1.63448e-07
-1.05295e-06
3.19936e-06
-6.78689e-06
-1.20065e-06
2.37785e-06
-6.87747e-06
-1.25632e-06
2.03847e-06
-6.85609e-06
-1.28229e-06
1.98102e-06
-6.8211e-06
-1.30251e-06
2.04141e-06
-6.79661e-06
-1.27996e-06
2.01563e-06
-6.78369e-06
-1.14549e-06
1.81468e-06
-6.78817e-06
-8.51992e-07
1.30548e-06
-6.79295e-06
-3.06145e-07
3.21406e-07
-6.78848e-06
5.23185e-07
-1.28127e-06
-6.76439e-06
1.5779e-06
-3.47865e-06
-6.67616e-06
2.7427e-06
-6.26354e-06
-6.54904e-06
-9.39343e-06
-6.30175e-06
3.97459e-06
9.18857e-07
5.98508e-06
-6.18746e-06
-1.73833e-06
3.24409e-07
3.94226e-06
-6.66857e-06
-1.06624e-07
2.92475e-06
-6.86983e-06
-3.52794e-07
2.39774e-06
-6.88304e-06
-5.25417e-07
2.26522e-06
-6.82873e-06
-6.27827e-07
2.26743e-06
-6.78628e-06
-6.35661e-07
2.16408e-06
-6.75452e-06
-4.59476e-07
1.81103e-06
-6.74802e-06
-7.50313e-08
1.11486e-06
-6.73313e-06
5.82742e-07
-1.0597e-07
-6.69018e-06
1.51679e-06
-1.95411e-06
-6.60861e-06
2.67597e-06
-4.33906e-06
-6.39897e-06
3.9027e-06
-7.17624e-06
-6.12045e-06
-1.02931e-05
-5.71263e-06
5.12759e-06
3.51809e-06
7.29737e-06
-5.72441e-06
-4.61657e-06
2.55338e-06
5.07813e-06
-6.43662e-06
1.71621e-06
3.89615e-06
-6.81229e-06
1.1393e-06
3.10792e-06
-6.89675e-06
7.38928e-07
2.80481e-06
-6.83793e-06
5.18582e-07
2.64043e-06
-6.75212e-06
4.68282e-07
2.39372e-06
-6.67822e-06
6.77566e-07
1.82394e-06
-6.62474e-06
1.14758e-06
9.0343e-07
-6.53658e-06
1.90977e-06
-5.65903e-07
-6.38733e-06
2.91149e-06
-2.62426e-06
-6.14574e-06
4.14042e-06
-5.20613e-06
-5.72929e-06
5.37863e-06
-8.06434e-06
-5.24849e-06
-1.11369e-05
-4.71958e-06
6.58041e-06
6.34199e-06
8.71078e-06
-5.08559e-06
-7.52608e-06
5.22851e-06
6.38517e-06
-6.04862e-06
4.11386e-06
5.16955e-06
-6.65972e-06
3.29524e-06
4.06826e-06
-6.87529e-06
2.68048e-06
3.57525e-06
-6.83638e-06
2.32529e-06
3.17044e-06
-6.69193e-06
2.18418e-06
2.74635e-06
-6.52615e-06
2.36794e-06
1.90496e-06
-6.36451e-06
2.85721e-06
7.2782e-07
-6.14398e-06
3.66858e-06
-1.02037e-06
-5.8216e-06
4.62747e-06
-3.19816e-06
-5.36273e-06
5.81388e-06
-5.99601e-06
-4.74605e-06
6.93549e-06
-8.8175e-06
-4.11566e-06
-1.18749e-05
-3.60245e-06
8.03403e-06
9.66557e-06
-4.84036e-06
1.00929e-05
-1.08355e-05
8.46522e-06
-5.77298e-06
7.80172e-06
7.22938e-06
-6.50312e-06
6.58123e-06
6.19261e-06
-6.82816e-06
5.24148e-06
5.37974e-06
-6.83964e-06
4.53724e-06
4.90792e-06
-6.65468e-06
3.81395e-06
4.72051e-06
-6.37971e-06
3.15426e-06
4.90032e-06
-6.07008e-06
2.00488e-06
5.40071e-06
-5.66861e-06
5.63122e-07
6.25886e-06
-5.16234e-06
-1.5125e-06
7.17367e-06
-4.50076e-06
-3.7393e-06
8.2443e-06
-3.77645e-06
-6.71849e-06
9.33148e-06
-3.10041e-06
-9.58028e-06
-2.73686e-06
1.04865e-05
-1.27264e-05
-7.11192e-06
9.53044e-06
-5.82043e-06
8.56287e-06
-1.09202e-05
-5.93171e-06
7.16268e-06
-5.81911e-06
-8.29172e-06
-4.94491e-06
4.89744e-06
-6.06141e-06
-5.70932e-06
-4.31998e-06
2.9907e-06
-6.30459e-06
-3.39134e-06
-4.09553e-06
1.68804e-06
-6.56586e-06
-1.68445e-06
-4.36702e-06
6.14722e-07
-6.73884e-06
-1.54586e-07
-4.99373e-06
-1.7059e-07
-6.91859e-06
9.55234e-07
-6.00005e-06
-7.89789e-07
-7.04378e-06
1.92474e-06
-7.2371e-06
-1.22269e-06
-7.16147e-06
2.5514e-06
-8.58823e-06
-1.8602e-06
-7.20514e-06
3.29458e-06
-9.92518e-06
-2.82589e-06
-7.03574e-06
4.29428e-06
-1.11426e-05
-4.4234e-06
-6.50614e-06
5.87792e-06
-1.20749e-05
-6.39609e-06
-5.54827e-06
7.62796e-06
-8.88895e-06
-4.31702e-06
-1.28468e-05
9.92466e-06
-4.95203e-06
8.00004e-06
-6.60032e-06
6.41234e-06
-3.66085e-06
5.85109e-06
-6.63392e-06
-2.84838e-06
4.14602e-06
-6.69197e-06
-2.4814e-06
2.69071e-06
-6.76223e-06
-2.46755e-06
1.72247e-06
-6.80834e-06
-2.83024e-06
1.01427e-06
-6.84829e-06
-3.44402e-06
4.9912e-07
-6.93991e-06
-4.29146e-06
1.12559e-07
-7.0123e-06
-5.26707e-06
-1.92227e-07
-7.12787e-06
-6.3742e-06
-6.81925e-07
-7.20052e-06
-7.51398e-06
-1.55235e-06
-7.10101e-06
-8.6262e-06
-3.03474e-06
-6.647e-06
-9.49474e-06
-5.13984e-06
-5.7435e-06
-7.94488e-06
-4.52628e-06
-1.00674e-05
-3.65263e-06
6.49404e-06
-7.00243e-06
5.04007e-06
-2.54392e-06
4.68828e-06
-7.01807e-06
-1.89853e-06
3.49265e-06
-6.97801e-06
-1.67408e-06
2.44977e-06
-6.94774e-06
-1.73814e-06
1.77832e-06
-6.92049e-06
-2.02644e-06
1.29245e-06
-6.91951e-06
-2.50007e-06
9.65912e-07
-6.94961e-06
-3.15262e-06
7.64712e-07
-6.98856e-06
-3.91895e-06
5.94289e-07
-7.06773e-06
-4.77792e-06
2.3989e-07
-7.13323e-06
-5.65626e-06
-5.30948e-07
-7.05822e-06
-6.44759e-06
-1.93654e-06
-6.69101e-06
-7.02481e-06
-4.08769e-06
-5.94478e-06
-7.01701e-06
-4.92187e-06
-7.39825e-06
-2.90404e-06
5.29569e-06
-7.12597e-06
4.03986e-06
-2.09523e-06
3.86429e-06
-7.11349e-06
-1.61992e-06
2.99429e-06
-7.04409e-06
-1.50815e-06
2.31395e-06
-6.9901e-06
-1.54427e-06
1.79133e-06
-6.94605e-06
-1.73468e-06
1.46309e-06
-6.9373e-06
-2.06965e-06
1.27836e-06
-6.94225e-06
-2.51883e-06
1.19901e-06
-6.96227e-06
-3.01984e-06
1.0921e-06
-7.00924e-06
-3.5466e-06
8.02577e-07
-7.05959e-06
-4.05483e-06
9.56241e-08
-7.01461e-06
-4.45456e-06
-1.24607e-06
-6.76444e-06
-4.66154e-06
-3.38077e-06
-6.21555e-06
-6.38417e-06
-5.42029e-06
-4.66116e-06
-2.73774e-06
4.3537e-06
-7.09791e-06
3.6674e-06
-2.12695e-06
3.23348e-06
-7.06682e-06
-1.71723e-06
2.55972e-06
-7.01663e-06
-1.56276e-06
2.13267e-06
-6.97823e-06
-1.59094e-06
1.79155e-06
-6.94518e-06
-1.7201e-06
1.56419e-06
-6.93063e-06
-1.9371e-06
1.46356e-06
-6.92419e-06
-2.20131e-06
1.44044e-06
-6.93247e-06
-2.48031e-06
1.35869e-06
-6.96183e-06
-2.74306e-06
1.08611e-06
-6.98997e-06
-2.93781e-06
4.06778e-07
-6.95937e-06
-2.98055e-06
-9.08533e-07
-6.80097e-06
-2.82174e-06
-3.02504e-06
-6.44047e-06
-5.97517e-06
-5.9074e-06
-2.5738e-06
-2.73954e-06
3.6385e-06
-7.02849e-06
3.46652e-06
-2.25998e-06
2.73208e-06
-6.9961e-06
-1.92602e-06
2.19959e-06
-6.97834e-06
-1.74913e-06
1.92213e-06
-6.95261e-06
-1.72929e-06
1.73e-06
-6.92869e-06
-1.81013e-06
1.60979e-06
-6.9093e-06
-1.94459e-06
1.56105e-06
-6.89701e-06
-2.07812e-06
1.5401e-06
-6.89728e-06
-2.1875e-06
1.44247e-06
-6.91548e-06
-2.24466e-06
1.14099e-06
-6.93099e-06
-2.16014e-06
4.19839e-07
-6.91992e-06
-1.8675e-06
-9.38972e-07
-6.8299e-06
-1.30701e-06
-3.10845e-06
-6.62792e-06
-6.05932e-06
-6.30638e-06
-6.0214e-07
-2.71724e-06
3.17125e-06
-6.97871e-06
3.22518e-06
-2.34187e-06
2.33965e-06
-6.95691e-06
-2.08693e-06
1.91027e-06
-6.95496e-06
-1.92773e-06
1.71985e-06
-6.9264e-06
-1.88021e-06
1.63689e-06
-6.89962e-06
-1.91146e-06
1.60101e-06
-6.88194e-06
-1.97948e-06
1.59171e-06
-6.87302e-06
-2.01825e-06
1.54511e-06
-6.87414e-06
-2.01969e-06
1.41409e-06
-6.88847e-06
-1.91121e-06
1.03702e-06
-6.9019e-06
-1.59575e-06
2.04836e-07
-6.90026e-06
-1.00691e-06
-1.2732e-06
-6.86218e-06
-1.53117e-07
-3.52031e-06
-6.77952e-06
-6.47251e-06
-6.63377e-06
8.21762e-07
-2.46524e-06
2.97489e-06
-6.93922e-06
2.72843e-06
-2.2515e-06
2.10305e-06
-6.92115e-06
-2.08725e-06
1.70511e-06
-6.92635e-06
-1.97291e-06
1.56807e-06
-6.90285e-06
-1.93157e-06
1.55942e-06
-6.88097e-06
-1.94899e-06
1.58065e-06
-6.86322e-06
-1.98135e-06
1.58828e-06
-6.85511e-06
-1.99226e-06
1.52188e-06
-6.85469e-06
-1.93197e-06
1.32289e-06
-6.86556e-06
-1.69603e-06
8.11969e-07
-6.8928e-06
-1.20064e-06
-1.91189e-07
-6.90866e-06
-3.71315e-07
-1.86799e-06
-6.92143e-06
7.48556e-07
-4.25941e-06
-6.90351e-06
-7.21983e-06
-6.8442e-06
1.97104e-06
-1.99029e-06
3.06101e-06
-6.87026e-06
2.03754e-06
-1.92367e-06
2.03706e-06
-6.9116e-06
-1.87362e-06
1.60998e-06
-6.91199e-06
-1.84279e-06
1.49161e-06
-6.89242e-06
-1.84237e-06
1.51881e-06
-6.86867e-06
-1.88297e-06
1.5863e-06
-6.85058e-06
-1.91221e-06
1.58839e-06
-6.84288e-06
-1.90842e-06
1.48615e-06
-6.84316e-06
-1.79142e-06
1.17932e-06
-6.86417e-06
-1.44717e-06
4.90972e-07
-6.90632e-06
-8.01466e-07
-7.28246e-07
-6.94671e-06
1.76258e-07
-2.62303e-06
-6.99229e-06
1.45835e-06
-5.1911e-06
-7.02094e-06
-8.25112e-06
-6.96085e-06
2.9318e-06
-1.10042e-06
3.56353e-06
-6.81025e-06
8.4601e-07
-1.26165e-06
2.24607e-06
-6.89798e-06
-1.3853e-06
1.69675e-06
-6.91605e-06
-1.46634e-06
1.52807e-06
-6.89178e-06
-1.56261e-06
1.57105e-06
-6.86147e-06
-1.66001e-06
1.64288e-06
-6.84204e-06
-1.72003e-06
1.61784e-06
-6.83885e-06
-1.70553e-06
1.4454e-06
-6.84938e-06
-1.52247e-06
1.00236e-06
-6.88848e-06
-1.06299e-06
9.52359e-08
-6.94153e-06
-2.59442e-07
-1.38368e-06
-6.99796e-06
8.92112e-07
-3.4997e-06
-7.03515e-06
2.27516e-06
-6.17258e-06
-7.02946e-06
-9.34222e-06
-6.88861e-06
3.87496e-06
3.93713e-07
4.45922e-06
-6.6359e-06
-8.82075e-07
-3.20231e-08
2.80602e-06
-6.86185e-06
-4.21966e-07
2.08917e-06
-6.94624e-06
-7.40886e-07
1.80689e-06
-6.92694e-06
-9.91507e-07
1.78189e-06
-6.88237e-06
-1.1834e-06
1.80649e-06
-6.85404e-06
-1.28907e-06
1.72698e-06
-6.85177e-06
-1.2524e-06
1.43497e-06
-6.86623e-06
-9.88025e-07
8.25581e-07
-6.90844e-06
-4.21833e-07
-2.95867e-07
-6.95247e-06
4.8993e-07
-2.00253e-06
-6.98286e-06
1.79623e-06
-4.33784e-06
-6.94444e-06
3.3268e-06
-7.06283e-06
-6.82654e-06
-1.02609e-05
-6.55025e-06
5.0269e-06
2.74945e-06
5.81659e-06
-6.3182e-06
-3.54527e-06
1.9623e-06
3.84241e-06
-6.73621e-06
1.15428e-06
2.95557e-06
-6.93986e-06
5.08663e-07
2.44773e-06
-6.97201e-06
1.08482e-08
2.27727e-06
-6.92581e-06
-3.28766e-07
2.18313e-06
-6.88406e-06
-4.83221e-07
1.98193e-06
-6.87045e-06
-4.14717e-07
1.52557e-06
-6.87265e-06
-4.35292e-08
7.30569e-07
-6.89394e-06
6.79503e-07
-5.95916e-07
-6.88801e-06
1.74371e-06
-2.45907e-06
-6.82118e-06
3.19244e-06
-4.9605e-06
-6.61806e-06
4.79699e-06
-7.67198e-06
-6.29691e-06
-1.08942e-05
-5.89324e-06
6.56062e-06
5.46674e-06
7.44564e-06
-5.83825e-06
-6.35917e-06
4.47045e-06
5.28523e-06
-6.53517e-06
3.29686e-06
4.29859e-06
-6.89318e-06
2.36348e-06
3.43982e-06
-7.01362e-06
1.60248e-06
3.09194e-06
-6.97917e-06
1.09425e-06
2.83373e-06
-6.92571e-06
8.53195e-07
2.48775e-06
-6.88098e-06
9.39786e-07
1.83365e-06
-6.8453e-06
1.38372e-06
8.60826e-07
-6.79532e-06
2.23783e-06
-6.62206e-07
-6.67504e-06
3.40406e-06
-2.62271e-06
-6.41512e-06
4.91439e-06
-5.29065e-06
-5.96558e-06
6.40455e-06
-7.91373e-06
-5.38683e-06
-1.11732e-05
-4.90976e-06
7.97669e-06
8.72424e-06
-5.67029e-06
9.19436e-06
-9.64521e-06
7.56432e-06
-6.32656e-06
6.96986e-06
6.19271e-06
-6.78125e-06
5.89211e-06
4.98976e-06
-6.99056e-06
4.72986e-06
3.94985e-06
-7.00568e-06
4.21394e-06
3.25284e-06
-6.95098e-06
3.74544e-06
2.93325e-06
-6.86763e-06
3.21414e-06
3.04866e-06
-6.75929e-06
2.32978e-06
3.60507e-06
-6.5728e-06
1.13755e-06
4.63777e-06
-6.27428e-06
-6.44017e-07
5.89117e-06
-5.75454e-06
-2.66511e-06
7.36045e-06
-5.06184e-06
-5.50572e-06
8.86624e-06
-4.27771e-06
-8.24748e-06
-3.85392e-06
1.03757e-05
-1.15593e-05
-5.10341e-06
9.97143e-06
6.74987e-06
-1.15324e-05
-5.95307e-06
-3.78429e-06
7.77592e-06
-9.02912e-06
-5.93234e-06
-2.8556e-06
5.51516e-06
-6.4234e-06
-6.13318e-06
-2.50079e-06
3.63736e-06
-4.07082e-06
-6.28497e-06
-2.61723e-06
2.39333e-06
-2.42629e-06
-6.48215e-06
-3.22876e-06
1.47309e-06
-1.05436e-06
-6.61095e-06
-4.22974e-06
9.15802e-07
-1.39183e-07
-6.76362e-06
-5.60844e-06
4.46742e-07
6.71139e-07
-6.85738e-06
-7.24145e-06
2.24897e-07
1.10086e-06
-6.9279e-06
-9.0619e-06
-8.1228e-08
1.56631e-06
-6.94374e-06
-1.09203e-05
-6.18766e-07
2.23216e-06
-6.86817e-06
-1.26159e-05
-1.88074e-06
3.62035e-06
-6.61683e-06
-1.38153e-05
-3.71056e-06
5.44872e-06
-6.1348e-06
-6.21534e-06
-1.4561e-05
7.93939e-06
-5.33151e-06
-3.04131e-06
8.24206e-06
4.49165e-06
-6.3652e-06
-1.85755e-06
6.282e-06
-6.36493e-06
-1.29781e-06
4.62874e-06
-6.41435e-06
-1.29209e-06
3.29538e-06
-6.47808e-06
-1.63049e-06
2.43142e-06
-6.56293e-06
-2.3031e-06
1.86267e-06
-6.62625e-06
-3.16457e-06
1.49195e-06
-6.71908e-06
-4.22932e-06
1.21235e-06
-6.78684e-06
-5.48197e-06
1.13638e-06
-6.86067e-06
-6.95705e-06
1.02169e-06
-6.90081e-06
-8.5745e-06
6.84042e-07
-6.85968e-06
-1.01421e-05
-3.67272e-07
-6.65393e-06
-1.1285e-05
-2.1464e-06
-6.20821e-06
-4.93167e-06
-1.17366e-05
-5.39635e-06
-1.90352e-06
6.47134e-06
3.17966e-06
-6.55017e-06
-1.03083e-06
4.8974e-06
-6.54786e-06
-7.28243e-07
3.85476e-06
-6.55377e-06
-9.23964e-07
3.04054e-06
-6.54829e-06
-1.33613e-06
2.43677e-06
-6.5722e-06
-1.90869e-06
2.06714e-06
-6.60603e-06
-2.58193e-06
1.81468e-06
-6.66449e-06
-3.40322e-06
1.69635e-06
-6.71827e-06
-4.36209e-06
1.74071e-06
-6.78347e-06
-5.49948e-06
1.78634e-06
-6.83042e-06
-6.73949e-06
1.60837e-06
-6.81506e-06
-7.93034e-06
7.34676e-07
-6.67107e-06
-8.75811e-06
-9.58296e-07
-6.36387e-06
-3.73545e-06
-9.14932e-06
-5.77739e-06
-1.52268e-06
5.00338e-06
2.44607e-06
-6.62066e-06
-9.97592e-07
3.83312e-06
-6.61134e-06
-8.26356e-07
3.19071e-06
-6.58832e-06
-9.92151e-07
2.73624e-06
-6.55937e-06
-1.38246e-06
2.39273e-06
-6.55463e-06
-1.86556e-06
2.13874e-06
-6.5781e-06
-2.39511e-06
1.9595e-06
-6.6176e-06
-2.99848e-06
1.93123e-06
-6.65647e-06
-3.65629e-06
2.03795e-06
-6.71623e-06
-4.39206e-06
2.15665e-06
-6.76331e-06
-5.14146e-06
2.0414e-06
-6.77163e-06
-5.86128e-06
1.31838e-06
-6.69887e-06
-6.33406e-06
-2.53855e-07
-6.5149e-06
-2.91465e-06
-6.54185e-06
-6.09953e-06
-1.67913e-06
3.76464e-06
2.3952e-06
-6.61559e-06
-1.32345e-06
2.96869e-06
-6.59763e-06
-1.20956e-06
2.57768e-06
-6.55661e-06
-1.31644e-06
2.35437e-06
-6.5312e-06
-1.59816e-06
2.20951e-06
-6.52999e-06
-1.98855e-06
2.09224e-06
-6.54786e-06
-2.42158e-06
1.9775e-06
-6.56983e-06
-2.86265e-06
1.98204e-06
-6.6062e-06
-3.28785e-06
2.09377e-06
-6.66182e-06
-3.69039e-06
2.20998e-06
-6.71265e-06
-4.02796e-06
2.08464e-06
-6.74196e-06
-4.34066e-06
1.4834e-06
-6.72927e-06
-4.5009e-06
3.66107e-08
-6.6528e-06
-2.45985e-06
-4.52322e-06
-6.42328e-06
-2.00065e-06
2.72288e-06
2.57786e-06
-6.60414e-06
-1.72915e-06
2.21721e-06
-6.55906e-06
-1.65816e-06
2.00274e-06
-6.52048e-06
-1.72778e-06
1.91665e-06
-6.49517e-06
-1.91376e-06
1.90333e-06
-6.49271e-06
-2.18867e-06
1.90602e-06
-6.50826e-06
-2.50952e-06
1.86714e-06
-6.53111e-06
-2.83183e-06
1.91203e-06
-6.57427e-06
-3.09662e-06
2.00057e-06
-6.63247e-06
-3.25992e-06
2.04565e-06
-6.68031e-06
-3.32725e-06
1.87262e-06
-6.72313e-06
-3.26291e-06
1.2515e-06
-6.74586e-06
-3.02504e-06
-1.82051e-07
-6.74075e-06
-2.6192e-06
-2.62708e-06
-6.64419e-06
-2.22725e-06
1.90593e-06
2.63323e-06
-6.60473e-06
-2.01766e-06
1.55823e-06
-6.55341e-06
-1.975e-06
1.4599e-06
-6.50762e-06
-2.03321e-06
1.467e-06
-6.47677e-06
-2.17266e-06
1.55126e-06
-6.47079e-06
-2.38303e-06
1.65301e-06
-6.48325e-06
-2.63468e-06
1.68791e-06
-6.51268e-06
-2.86287e-06
1.75077e-06
-6.56068e-06
-3.01294e-06
1.798e-06
-6.61632e-06
-3.03411e-06
1.74498e-06
-6.66541e-06
-2.89579e-06
1.46816e-06
-6.72002e-06
-2.53651e-06
7.10635e-07
-6.77235e-06
-1.97443e-06
-8.08592e-07
-6.81314e-06
-3.26954e-06
-1.23636e-06
-6.82632e-06
-2.20593e-06
1.34801e-06
2.38812e-06
-6.60041e-06
-2.08016e-06
1.01626e-06
-6.55841e-06
-2.05481e-06
9.56048e-07
-6.51214e-06
-2.11073e-06
1.03052e-06
-6.47944e-06
-2.254e-06
1.21278e-06
-6.46906e-06
-2.46543e-06
1.4053e-06
-6.47341e-06
-2.70851e-06
1.5076e-06
-6.50545e-06
-2.91279e-06
1.57339e-06
-6.55149e-06
-3.0191e-06
1.5608e-06
-6.60497e-06
-2.98109e-06
1.38723e-06
-6.65837e-06
-2.68814e-06
9.02098e-07
-6.72186e-06
-2.0799e-06
-1.06415e-07
-6.8004e-06
-1.16546e-06
-1.83744e-06
-6.88159e-06
-4.41719e-06
-1.89969e-08
-6.93899e-06
-1.91804e-06
9.99384e-07
1.91951e-06
-6.56291e-06
-1.9042e-06
5.88743e-07
-6.55372e-06
-1.92315e-06
5.29745e-07
-6.53402e-06
-2.02194e-06
6.74895e-07
-6.51096e-06
-2.21107e-06
9.51277e-07
-6.49342e-06
-2.47083e-06
1.23301e-06
-6.49396e-06
-2.74798e-06
1.38795e-06
-6.52462e-06
-2.96889e-06
1.43393e-06
-6.56343e-06
-3.07465e-06
1.33138e-06
-6.61119e-06
-3.00048e-06
9.92251e-07
-6.66724e-06
-2.61955e-06
2.34829e-07
-6.74005e-06
-1.84964e-06
-1.12041e-06
-6.82718e-06
-7.03681e-07
-3.14626e-06
-6.93852e-06
-5.98597e-06
8.24884e-07
-7.00141e-06
-1.25217e-06
9.45466e-07
9.81716e-07
-6.52908e-06
-1.41405e-06
3.28961e-07
-6.53241e-06
-1.57582e-06
2.48781e-07
-6.53929e-06
-1.81232e-06
4.83024e-07
-6.53502e-06
-2.11237e-06
8.38442e-07
-6.52417e-06
-2.44514e-06
1.17382e-06
-6.5284e-06
-2.77697e-06
1.35887e-06
-6.55858e-06
-3.0462e-06
1.36059e-06
-6.58837e-06
-3.17239e-06
1.12335e-06
-6.63486e-06
-3.05786e-06
5.51036e-07
-6.69055e-06
-2.59117e-06
-5.3674e-07
-6.76429e-06
-1.6571e-06
-2.3066e-06
-6.84973e-06
-2.90178e-07
-4.67075e-06
-6.93682e-06
-7.77473e-06
1.50357e-06
-6.95847e-06
-1.8095e-08
1.31181e-06
-5.80726e-07
-6.4393e-06
-4.53376e-07
3.59426e-07
-6.50774e-06
-9.11205e-07
2.31319e-07
-6.53379e-06
-1.4026e-06
5.13995e-07
-6.53835e-06
-1.8881e-06
9.05786e-07
-6.54425e-06
-2.34494e-06
1.252e-06
-6.56142e-06
-2.74873e-06
1.42172e-06
-6.59816e-06
-3.04574e-06
1.3314e-06
-6.6258e-06
-3.1769e-06
9.33515e-07
-6.66817e-06
-3.00253e-06
8.08537e-08
-6.72775e-06
-2.41391e-06
-1.38131e-06
-6.79048e-06
-1.30268e-06
-3.5805e-06
-6.83877e-06
2.72594e-07
-6.24663e-06
-6.87812e-06
-9.48066e-06
2.20426e-06
-6.82257e-06
2.00854e-06
2.3219e-06
-3.0631e-06
-6.29861e-06
1.10307e-06
9.27097e-07
-6.43911e-06
1.5225e-07
7.01891e-07
-6.51268e-06
-7.29743e-07
9.01891e-07
-6.5436e-06
-1.47883e-06
1.22305e-06
-6.57207e-06
-2.0795e-06
1.48693e-06
-6.60463e-06
-2.53981e-06
1.56892e-06
-6.64577e-06
-2.81899e-06
1.32354e-06
-6.67068e-06
-2.86642e-06
7.2238e-07
-6.71285e-06
-2.55539e-06
-4.2623e-07
-6.75591e-06
-1.79571e-06
-2.24054e-06
-6.77628e-06
-4.8492e-07
-4.81627e-06
-6.7392e-06
1.32696e-06
-7.7072e-06
-6.68306e-06
-1.09193e-05
3.40161e-06
-6.55252e-06
4.58354e-06
3.90712e-06
-5.90212e-06
-6.11814e-06
3.12844e-06
2.22387e-06
-6.40809e-06
1.59971e-06
1.80906e-06
-6.51828e-06
3.47287e-07
1.65756e-06
-6.57866e-06
-6.70776e-07
1.80922e-06
-6.6202e-06
-1.43996e-06
1.92094e-06
-6.66918e-06
-1.94766e-06
1.82839e-06
-6.71175e-06
-2.18022e-06
1.36179e-06
-6.72507e-06
-2.09293e-06
5.14903e-07
-6.74334e-06
-1.60041e-06
-9.23079e-07
-6.73018e-06
-6.88307e-07
-2.94548e-06
-6.66755e-06
7.03611e-07
-5.68087e-06
-6.52305e-06
2.44665e-06
-8.51934e-06
-6.33406e-06
-1.17347e-05
4.51276e-06
-6.15535e-06
7.46573e-06
5.84772e-06
-8.95336e-06
-6.13226e-06
5.7122e-06
3.95376e-06
-6.33022e-06
3.86039e-06
3.31397e-06
-6.47305e-06
2.26879e-06
2.78304e-06
-6.57671e-06
8.81464e-07
2.77541e-06
-6.64882e-06
-1.34931e-07
2.63736e-06
-6.72349e-06
-7.01641e-07
2.21947e-06
-6.76534e-06
-8.67582e-07
1.45167e-06
-6.75396e-06
-5.82524e-07
3.21936e-07
-6.72931e-06
1.84732e-07
-1.36497e-06
-6.65241e-06
1.31341e-06
-3.41079e-06
-6.45575e-06
2.87465e-06
-6.18403e-06
-6.14089e-06
4.56792e-06
-8.81111e-06
-5.67921e-06
6.6088e-06
-1.20684e-05
-5.5317e-06
-1.15885e-05
-1.29528e-05
-1.98771e-06
1.18969e-05
-1.00123e-05
-1.50803e-05
-2.07593e-06
1.3399e-05
-7.99273e-06
-1.64997e-05
-1.96446e-06
1.43395e-05
-5.72519e-06
-1.78114e-05
-2.06931e-06
1.53955e-05
-3.29028e-06
-1.83826e-05
-2.07664e-06
1.57494e-05
-1.84764e-05
-1.74216e-06
1.48517e-05
-1.00873e-05
-1.28523e-05
-2.5519e-06
-8.98496e-06
-1.61929e-05
-2.48263e-06
-7.1511e-06
-1.84433e-05
-2.23985e-06
-5.01157e-06
-2.0153e-05
-2.2995e-06
-2.65357e-06
-2.09827e-05
-2.44058e-06
-2.14048e-05
-2.76101e-06
-7.83923e-06
-1.2463e-05
-3.31717e-06
-7.25031e-06
-1.67316e-05
-3.20663e-06
-5.7081e-06
-2.00801e-05
-3.02018e-06
-3.81575e-06
-2.22565e-05
-3.14591e-06
-1.9391e-06
-2.31228e-05
-3.34235e-06
-2.36021e-05
-3.74526e-06
-5.12657e-06
-1.21552e-05
-4.16691e-06
-4.71738e-06
-1.70798e-05
-4.14541e-06
-3.61007e-06
-2.12318e-05
-4.17813e-06
-2.30158e-06
-2.37672e-05
-4.34639e-06
-1.19783e-06
-2.45081e-05
-4.58826e-06
-2.50277e-05
-5.09614e-06
-2.80146e-06
-1.20352e-05
-5.29344e-06
-2.47755e-06
-1.73076e-05
-5.4549e-06
-1.80785e-06
-2.1889e-05
-5.62203e-06
-1.05592e-06
-2.4688e-05
-5.7398e-06
-5.7772e-07
-2.53071e-05
-5.89653e-06
-2.58967e-05
-6.40582e-06
-3.93026e-07
-1.22183e-05
-6.29532e-06
-2.56066e-07
-1.73473e-05
-6.66196e-06
-1.13733e-07
-2.20185e-05
-6.90955e-06
1.45824e-07
-2.51196e-05
-6.985e-06
2.193e-07
-2.57624e-05
-6.98131e-06
-2.60788e-05
-7.35323e-06
1.33202e-06
-1.2618e-05
-7.15105e-06
1.45279e-06
-1.73367e-05
-7.61627e-06
1.17976e-06
-2.17103e-05
-7.85256e-06
8.69254e-07
-2.49408e-05
-7.9278e-06
5.25053e-07
-2.57286e-05
-7.89207e-06
-2.62664e-05
-7.14293e-06
2.68818e-06
-1.31781e-05
-7.59131e-06
2.93353e-06
-1.7412e-05
-8.03127e-06
2.62029e-06
-2.13096e-05
-8.20981e-06
2.00406e-06
-2.43885e-05
-8.21949e-06
1.42923e-06
-2.53975e-05
-8.02639e-06
-2.55568e-05
-7.08503e-06
3.87383e-06
-1.38561e-05
-7.49249e-06
4.24785e-06
-1.7569e-05
-7.823e-06
3.96791e-06
-2.08671e-05
-7.91702e-06
3.14969e-06
-2.35628e-05
-7.89793e-06
2.09048e-06
-2.45337e-05
-7.63898e-06
-2.42503e-05
-6.16233e-06
4.82618e-06
-1.43954e-05
-6.74637e-06
5.05377e-06
-1.75004e-05
-6.83039e-06
4.6233e-06
-2.02057e-05
-6.70223e-06
3.55872e-06
-2.23825e-05
-6.64103e-06
2.04947e-06
-2.31407e-05
-6.34505e-06
-2.29382e-05
-4.95251e-06
5.57039e-06
-1.4516e-05
-5.37993e-06
5.45439e-06
-1.70662e-05
-5.23894e-06
4.77754e-06
-1.93114e-05
-5.00143e-06
3.48087e-06
-2.10153e-05
-4.946e-06
1.73133e-06
-2.15974e-05
-4.6313e-06
-2.18092e-05
-3.65098e-06
6.62069e-06
-1.42609e-05
-3.79668e-06
6.04424e-06
-1.62253e-05
-3.6071e-06
5.01449e-06
-1.81492e-05
-3.42086e-06
3.57008e-06
-1.96362e-05
-3.38987e-06
1.75661e-06
-2.01995e-05
-3.08936e-06
-2.02168e-05
-2.844e-06
7.75e-06
-1.37443e-05
-2.42814e-06
6.92475e-06
-1.52535e-05
-2.38284e-06
5.55143e-06
-1.67461e-05
-2.32073e-06
3.81894e-06
-1.79602e-05
-2.28042e-06
1.81069e-06
-1.84201e-05
-2.21361e-06
-1.84319e-05
-2.36365e-06
9.28244e-06
-1.55648e-06
-1.24007e-05
7.95669e-06
-1.65056e-06
-1.38642e-05
6.25332e-06
-1.66863e-06
-1.50627e-05
4.17651e-06
-1.68001e-06
-1.59734e-05
1.95741e-06
-1.81358e-06
-1.63318e-05
-2.06003e-06
-1.65282e-05
-1.17608e-05
-1.30075e-05
-2.03709e-06
1.19702e-05
-1.01604e-05
-1.5238e-05
-2.05483e-06
1.36164e-05
-8.1302e-06
-1.67957e-05
-1.84261e-06
1.46583e-05
-5.83171e-06
-1.85569e-05
-1.74032e-06
1.59968e-05
-3.46291e-06
-1.93906e-05
-1.51351e-06
1.65546e-05
-1.9698e-05
-1.41563e-06
1.60065e-05
-1.00338e-05
-1.28456e-05
-2.73968e-06
-9.04703e-06
-1.61821e-05
-2.49626e-06
-7.14148e-06
-1.87397e-05
-2.1562e-06
-4.88414e-06
-2.10156e-05
-2.04214e-06
-2.59242e-06
-2.21892e-05
-1.84487e-06
-2.30063e-05
-1.97386e-06
-7.55875e-06
-1.22795e-05
-3.72188e-06
-7.10703e-06
-1.65294e-05
-3.29767e-06
-5.50621e-06
-2.03549e-05
-2.98626e-06
-3.38559e-06
-2.3323e-05
-2.94081e-06
-1.60134e-06
-2.46205e-05
-2.63733e-06
-2.54611e-05
-2.85915e-06
-4.61136e-06
-1.1752e-05
-4.77791e-06
-4.29229e-06
-1.66314e-05
-4.39133e-06
-3.33424e-06
-2.13273e-05
-4.18954e-06
-1.90964e-06
-2.4889e-05
-4.22492e-06
-9.08098e-07
-2.62895e-05
-3.93521e-06
-2.72096e-05
-4.27094e-06
-2.15995e-06
-1.15056e-05
-6.02232e-06
-1.78765e-06
-1.67131e-05
-5.80819e-06
-1.2848e-06
-2.18218e-05
-5.70113e-06
-4.71505e-07
-2.58241e-05
-5.69646e-06
-1.2497e-07
-2.73289e-05
-5.30532e-06
-2.83319e-05
-5.52639e-06
2.51737e-07
-1.1663e-05
-7.09693e-06
6.63578e-07
-1.67945e-05
-7.10944e-06
7.98781e-07
-2.19224e-05
-7.06756e-06
1.01714e-06
-2.61672e-05
-7.01189e-06
9.94462e-07
-2.79996e-05
-6.49475e-06
-2.85751e-05
-6.36364e-06
2.01486e-06
-1.2191e-05
-7.93375e-06
2.54395e-06
-1.69645e-05
-8.11352e-06
2.44789e-06
-2.17236e-05
-8.11194e-06
1.9069e-06
-2.58132e-05
-7.93425e-06
1.14729e-06
-2.79976e-05
-7.41855e-06
-2.84716e-05
-6.43067e-06
3.35737e-06
-1.2948e-05
-8.33574e-06
4.04454e-06
-1.72194e-05
-8.61154e-06
4.01846e-06
-2.14375e-05
-8.63662e-06
3.22775e-06
-2.51172e-05
-8.32138e-06
2.34105e-06
-2.7554e-05
-7.83751e-06
-2.75143e-05
-6.00168e-06
4.41871e-06
-1.37722e-05
-8.2615e-06
5.26972e-06
-1.7493e-05
-8.52911e-06
5.35869e-06
-2.10848e-05
-8.50943e-06
4.39163e-06
-2.42176e-05
-8.01846e-06
3.05839e-06
-2.65018e-05
-7.57029e-06
-2.58027e-05
-5.10418e-06
5.27813e-06
-1.43963e-05
-7.60625e-06
6.09163e-06
-1.75085e-05
-7.71524e-06
6.04533e-06
-2.03654e-05
-7.47156e-06
4.81147e-06
-2.29296e-05
-6.82331e-06
2.97005e-06
-2.46924e-05
-6.43984e-06
-2.39138e-05
-4.07558e-06
5.98328e-06
-1.43922e-05
-6.38968e-06
6.39161e-06
-1.69594e-05
-6.23783e-06
6.04095e-06
-1.92778e-05
-5.76919e-06
4.62026e-06
-2.1384e-05
-5.14087e-06
2.47493e-06
-2.24668e-05
-4.78554e-06
-2.23145e-05
-2.90725e-06
7.02455e-06
-1.38602e-05
-4.81643e-06
6.83525e-06
-1.58839e-05
-4.49879e-06
5.95834e-06
-1.78584e-05
-3.96506e-06
4.31777e-06
-1.9698e-05
-3.46725e-06
2.33926e-06
-2.04743e-05
-3.13288e-06
-2.06862e-05
-2.19522e-06
8.07747e-06
-1.31329e-05
-3.25616e-06
7.57779e-06
-1.47605e-05
-2.99671e-06
6.33155e-06
-1.6373e-05