/*--------------------------------*- C++ -*----------------------------------*\
| =========                 |                                                 |
| \\      /  F ield         | OpenFOAM: The Open Source CFD Toolbox           |
|  \\    /   O peration     | Version:  v2106                                 |
|   \\  /    A nd           | Website:  www.openfoam.com                      |
|    \\/     M anipulation  |                                                 |
\*---------------------------------------------------------------------------*/
FoamFile
{
    version     2.0;
    format      ascii;
    arch        "LSB;label=32;scalar=64";
    class       volScalarField;
    location    "0.000143";
    object      epsilon;
}
// * * * * * * * * * * * * * * * * * * * * * * * * * * * * * * * * * * * * * //

dimensions      [0 2 -3 0 0 0 0];

internalField   nonuniform List<scalar> 
18109
(
2724.2
782.3
242.892
83.0196
33.3714
17.5679
12.2274
718.943
161.562
36.4276
8.64825
2.59622
1.35582
1.14984
216.472
49.471
11.4185
2.74275
0.668528
0.182667
0.0961578
154.473
48.4541
15.0462
4.31442
1.04834
0.205228
0.033393
176.835
64.0024
20.8753
5.87345
1.36384
0.254253
0.0361998
224.875
80.7206
25.1668
6.69476
1.47469
0.263086
0.0363085
307.79
103.532
30.0494
7.43701
1.53712
0.259419
0.0365288
447.102
140.27
37.8825
8.76489
1.70928
0.287701
0.0597436
529.988
116.902
27.9253
7.98916
3.39549
2.2577
1.8826
1.62005
1.35038
1.00656
0.628325
0.465202
1.52776
11.6304
110.649
20.6456
3.75558
0.743824
0.22747
0.149252
0.149347
0.157107
0.154907
0.132442
0.0947106
0.12406
0.916672
8.78287
41.3861
9.67483
2.28668
0.542074
0.120081
0.0266596
0.0115488
0.0118782
0.0136285
0.0133881
0.0116816
0.0460353
0.552831
5.73383
41.7938
12.7294
3.63457
0.920099
0.194315
0.0330527
0.00461871
0.00102971
0.000930464
0.00105186
0.00149629
0.015586
0.238273
2.77838
51.2151
16.8419
4.87308
1.20453
0.245259
0.0401999
0.00507401
0.000485042
7.18161e-05
6.58491e-05
0.000244081
0.00521867
0.090043
1.09426
66.4829
21.1507
5.81338
1.35498
0.260913
0.0407029
0.00494885
0.000474518
6.01454e-05
2.76565e-05
6.30139e-05
0.00160087
0.032487
0.423884
91.7118
27.1898
6.93937
1.50381
0.271875
0.0401598
0.00497097
0.000828854
0.000415918
0.000306591
0.000233157
0.000708761
0.0125389
0.17675
133.229
36.576
8.65396
1.75004
0.297953
0.0438597
0.00819894
0.00437123
0.00373476
0.00314787
0.00248388
0.00230937
0.00730735
0.0877502
196.984
50.6533
11.2353
2.13888
0.352409
0.0656152
0.0317307
0.0300322
0.0287644
0.0262601
0.0224563
0.0207499
0.0213022
0.0686579
296.576
73.0322
15.6072
2.89468
0.525754
0.184983
0.167935
0.183064
0.185281
0.18082
0.167387
0.164831
0.153078
0.188833
432.062
102.996
21.6145
4.14558
1.05559
0.723226
0.823393
0.949604
1.00949
1.04947
1.05199
1.09218
1.03682
1.10308
639.534
151.926
32.7648
7.30689
2.99242
2.88509
3.5219
4.22308
4.71621
5.22763
5.66403
6.14161
6.02747
6.29291
1023.24
256.722
58.8499
16.3456
9.64183
10.5394
13.1889
16.3127
19.151
22.6505
26.3899
29.9333
30.6192
31.645
2035.7
577.304
142.086
45.8834
31.1041
34.676
43.6225
55.3246
68.3577
86.1791
107.469
128.6
138.711
143.027
4811.4
14741.5
32980.5
57525.7
85181.6
110790
1075.21
4475.61
13220.5
29369.3
52346
78558.7
595.173
3059.86
10082.3
23848.1
43811.9
66787.2
288.143
1767.18
6676.59
17226.2
33575.9
53357.8
127.561
935.346
3975.23
11276.8
23703.4
40026.2
58.7308
483.205
2296.06
7101.46
16005.8
28706.5
32.2342
263.09
1321.6
4336.3
10289.1
19233.3
21.1982
156.632
774.812
2591.02
6347.92
12403.9
14.5287
94.0833
442.185
1483.7
3738
7603.97
9.61934
54.7596
243.833
816.513
2130.2
4555.98
5.86432
31.1428
136.298
466.499
1282.3
2905.08
3.45708
18.921
86.7599
316.343
944.549
2390.1
2.64665
16.9882
87.9992
365.022
1261.01
3732.76
5.68287
39.4336
212.513
896.235
3031.4
8358.18
27.8787
160.719
732.747
2602.09
7326.33
16622.8
92.1239
414.172
1566.09
4787.59
11837.1
23756
73.554
376.372
1542.47
4936
12316.2
24466.3
48.7448
280.882
1243.01
4181
10728.3
21718.5
25.0736
167.331
819.946
2976.59
8110.13
17258.2
10.2438
79.4858
445.293
1801.64
5401.99
12388.9
3.97266
32.198
201.843
994.578
3339.44
8183.28
1.74525
14.6549
101.295
553.774
2008.53
5199.58
0.954874
8.51727
59.9284
310.835
1154.19
3155.72
0.64653
5.71667
37.4697
182.806
663.658
1842.53
0.672359
4.98389
29.0428
130.898
461.81
1292.76
2.03683
10.669
49.7611
195.69
647.239
1827
10.2898
44.9127
176.137
601.469
1785.45
4638.17
49.9309
192.433
653.283
1927.81
4934.78
11002.7
205.469
681.187
1996.45
5031.5
10895.6
20411
605.411
1620.93
3961.89
8620.1
16542.3
27902.9
566.636
1618.39
4115.73
9124.32
17489
29143.3
490.995
1460.51
3787.65
8465.79
16296.5
27280.2
384.145
1173.05
3100.34
7050.18
13784.2
23426.7
287.092
880.407
2346.11
5395.55
10702.3
18454.1
215.061
644.245
1695.12
3890.28
7786.52
13702.4
166.099
479.803
1225.57
2769.31
5546.86
9886.64
129.09
365.665
917.79
2051.79
4089.54
7284.35
103.944
292.359
730.263
1639.71
3338.82
6273.3
94.3611
273.039
726.752
1803.5
4216.85
9284.16
131.852
430.984
1320.94
3670.35
9133.33
20137.6
384.924
1246.6
3613.59
9214.2
20519.4
39637.7
1523.42
4085.66
9808.23
20608.7
38098.3
62382.9
5121.33
10945.6
21212.6
36643.9
56948.8
80600.1
499.94
1526.32
4457.97
11607.7
26031.3
49631
864.532
2958.23
8829.31
22028.4
45574.6
78246.3
2753.66
7955.34
19708.1
40469.8
70053.1
104545
8460.66
18845.3
36849.4
61815.9
91207.4
120234
4295.12
10730
22085.8
38400
58731.1
80728.5
3448.21
8968.95
18936.6
33504.5
51554.1
71430.5
2467.67
6688.43
14679.8
26862.3
42457.2
60403.1
1639.86
4608.35
10543.8
20100.2
33035.3
48912.6
1056.89
3038.57
7199.82
14308.3
24659.4
37880.2
656.658
1899.36
4609.86
9517.21
17171.3
27418.8
414.423
1181.29
2870.45
6061.09
11716
19734.4
267.667
738.694
1817.64
4102.16
8190.74
14302.1
187.181
517.226
1326.23
3091.89
6316.92
11250.4
150.057
425.756
1121.89
2683.98
5797.15
11616
136.876
408.653
1174.1
3212.87
8235.86
19217.5
169.193
607.196
2064.82
6288.64
16523.7
36293.8
520.067
1836.79
5691.91
14827.9
32336.5
59138.4
2147.41
5837.81
14026.4
28786.7
51104.6
78513.1
104972
168581
246712
321307
303880
91235
152513
241106
336886
323939
75420.8
130759
217399
319367
338426
59488.5
104277
181719
288885
342358
45150
78044.8
139818
247555
325855
32181.3
53938.2
99295.4
201797
289626
21449.2
35033.1
64671.9
154491
251641
13708.6
22154.7
41429.6
120629
237045
250725
8681.94
14430.9
30621.4
103008
232272
291838
5772.07
11780.8
31293.1
95916.8
225085
332015
5423.7
16116.9
43210.5
102858
218553
373752
468099
9545.17
29680.4
67661.9
126963
221135
398868
707366
491164
18938.5
51677.9
102985
168015
242138
386680
1.05241e+06
1.86836e+06
31059.3
73788.2
133810
203468
265485
308596
584208
2.51701e+06
39552.2
84193.4
143044
218988
285183
274671
345308
2.05312e+06
40296.9
81256.3
141774
233431
318348
264707
281571
1.19418e+06
36402.3
72826.6
136413
241597
350239
280121
238449
1.25588e+06
29783.2
59990.6
120171
231417
359556
303390
233203
374717
22509.2
46201.6
96055.5
199673
337808
290302
217323
211340
15895.7
32960.5
69957.1
154814
289439
254078
194522
204241
10708.4
21921.4
45777.1
108253
229209
229861
196576
353635
6805.19
13995.8
28990.3
76589.6
191223
238337
230443
174679
4090.26
9083.91
20322.9
61795.1
171289
265036
2971.23
8184.78
21391.6
60026.4
160044
297445
4533
14308.8
35241.3
75502.1
161715
328795
10540.4
29642.2
62656.1
109492
181785
344391
21309.6
51613.8
97084.6
151071
211003
337216
33523.8
71688.3
122596
177966
222633
41729.6
80470.6
132016
194348
233430
43465.3
80586.4
136355
213768
255889
40991.2
76049.2
136213
228120
283077
35277.4
65889.2
123813
226867
294815
28013.1
53219.9
103850
206955
277106
20931.9
39969
80313.5
174118
242264
14861
28403.1
58821.8
136540
218223
11121.9
22539.6
48973.7
119171
228955
11127.6
26777.7
59104.8
131472
268750
19128
47069.2
93219.4
168401
314735
38528.3
83963.8
144667
216133
343932
66112.4
126656
195260
259632
358792
91928
157676
223114
274845
334222
105361
164208
224153
270827
270206
102974
160256
228464
289353
252176
93855.6
151963
228671
308795
260179
81733.4
134390
209116
306506
272596
67318.5
109971
179429
290763
284056
52837.2
84154.3
142649
265482
282226
38738.1
60485.5
109070
231949
273063
27597
42860.5
84274.7
196185
271508
20423.6
34126.6
75793.6
182938
302384
17931.4
37324.4
87880.5
196812
348380
22836
56797.4
120406
225679
387954
39795.4
92210.5
166971
262282
414612
66294.6
134845
216281
296037
417613
92382.3
169551
249518
312708
385200
108739
177718
249379
305102
315081
28.5542
5.81475
1.32849
0.395404
0.224401
0.198267
0.195401
0.187992
0.168629
0.131194
0.080628
0.0417138
0.0522972
0.431144
6.05875
1.15081
0.220195
0.0474326
0.0164693
0.0127942
0.0147233
0.0170547
0.017981
0.0160366
0.0109828
0.00727923
0.0325545
0.405788
4.56878
1.18387
0.295744
0.0687041
0.01405
0.00279138
0.00113832
0.00123009
0.00148601
0.00151075
0.00117443
0.00171658
0.0223836
0.316671
6.49182
1.93625
0.518483
0.120531
0.0233603
0.00368623
0.000486328
0.000105826
9.6944e-05
0.000110866
0.000106127
0.000543671
0.0112968
0.179017
9.01607
2.73321
0.722326
0.162815
0.0304127
0.00462008
0.000551112
5.16251e-05
7.61066e-06
6.41567e-06
1.00377e-05
0.00019261
0.00487603
0.0821832
12.2078
3.52037
0.875775
0.185209
0.0326039
0.00468574
0.000533645
4.80358e-05
4.78601e-06
1.60443e-06
2.10085e-06
6.43712e-05
0.00194497
0.0355855
17.2285
4.58476
1.05169
0.205682
0.0336698
0.00452934
0.000507202
6.72484e-05
2.62985e-05
1.73004e-05
1.14024e-05
3.16315e-05
0.000825375
0.0160058
24.7922
6.06352
1.28019
0.231377
0.0352198
0.00460741
0.000724381
0.00032388
0.000258151
0.000198812
0.000138514
0.000109228
0.000431109
0.00754892
35.5796
8.08344
1.58562
0.265819
0.0384409
0.00622943
0.00278179
0.00248616
0.00227257
0.00189211
0.00142657
0.00112463
0.00102525
0.00484383
50.4746
10.8017
2.00696
0.322838
0.0513202
0.0177238
0.0167083
0.0174526
0.016911
0.0150456
0.0122737
0.0103701
0.00817266
0.00923364
68.7713
13.9154
2.48267
0.408821
0.100963
0.0792082
0.0945712
0.104809
0.106993
0.101449
0.0896871
0.0804042
0.0651093
0.0570219
91.603
17.8952
3.2205
0.647394
0.317819
0.3642
0.465746
0.539848
0.581296
0.588606
0.563806
0.531436
0.448026
0.384436
124.813
24.6804
4.80489
1.43466
1.17859
1.519
1.99934
2.41104
2.74133
2.97371
3.07803
3.05021
2.69524
2.31299
216.372
47.2286
10.4088
4.31833
4.2801
5.64769
7.54665
9.43097
11.3447
13.2075
14.7206
15.4456
14.3557
12.5292
1.3493
0.307393
0.0820573
0.0338539
0.0285916
0.0302219
0.0328084
0.0338967
0.0321651
0.0262071
0.0167189
0.0079865
0.00417535
0.0179827
0.499636
0.105634
0.0225251
0.00534644
0.00213678
0.00196317
0.0024829
0.00303042
0.00332547
0.00307195
0.00216514
0.00112843
0.00154194
0.0189479
0.71911
0.186376
0.044408
0.00955868
0.00181697
0.000361459
0.000179224
0.000215726
0.000269616
0.000280874
0.000217048
0.000154502
0.0010765
0.0182835
1.22058
0.337406
0.0825537
0.0175335
0.00314244
0.000468567
6.18474e-05
1.66821e-05
1.74167e-05
2.02345e-05
1.75329e-05
3.20025e-05
0.000675052
0.0130914
1.81905
0.500201
0.119812
0.0245676
0.00422666
0.00060111
6.88628e-05
6.57648e-06
1.24865e-06
1.17192e-06
1.24632e-06
1.17875e-05
0.000381086
0.00794075
2.50603
0.651586
0.14685
0.0283315
0.0046028
0.000620248
6.76415e-05
5.94322e-06
5.49536e-07
1.73323e-07
1.76934e-07
4.7331e-06
0.000186186
0.00426206
3.44033
0.826461
0.171814
0.0306591
0.00462387
0.000581259
6.12696e-05
7.03047e-06
2.15056e-06
1.26395e-06
7.6387e-07
2.54423e-06
9.22978e-05
0.00224044
4.71998
1.04453
0.199836
0.0329284
0.00460711
0.000557023
7.73344e-05
2.92629e-05
2.1397e-05
1.50967e-05
9.47248e-06
6.82583e-06
4.90377e-05
0.00117523
6.34737
1.30256
0.230835
0.0351898
0.00467035
0.000692068
0.000284066
0.000238504
0.000204921
0.000155873
0.000104991
7.14915e-05
6.94731e-05
0.000662777
8.34023
1.60425
0.267773
0.0387612
0.00567278
0.0019831
0.00187281
0.00185708
0.0016889
0.00137065
0.000992811
0.000726545
0.000505968
0.0006865
10.3969
1.89389
0.303433
0.045093
0.0114203
0.0100396
0.0119632
0.0125362
0.0119717
0.0103384
0.0080663
0.00629629
0.00447511
0.00349512
12.3672
2.16455
0.349302
0.0679527
0.0413611
0.0527183
0.0670375
0.0733387
0.0735708
0.0675107
0.0567301
0.0467326
0.0344548
0.0259649
14.1184
2.48468
0.45266
0.162348
0.177578
0.24974
0.328079
0.373835
0.394023
0.383931
0.347099
0.300516
0.230908
0.174617
19.58
3.86518
0.908943
0.554539
0.729695
1.05273
1.41302
1.67406
1.85542
1.92419
1.86562
1.69587
1.36028
1.03971
0.0854705
0.0202911
0.00656278
0.00426182
0.00460772
0.00542489
0.00632155
0.00688016
0.00677622
0.00568829
0.00372761
0.00181514
0.000721341
0.00105828
0.0645881
0.014523
0.00316089
0.000753077
0.000334236
0.000354572
0.000482735
0.00061423
0.00069152
0.000651932
0.000467728
0.000241434
0.000141044
0.0010216
0.12502
0.0310966
0.006989
0.00141077
0.000254759
5.30327e-05
3.30743e-05
4.35885e-05
5.58042e-05
5.88385e-05
4.58177e-05
2.6629e-05
6.65697e-05
0.00113786
0.228031
0.0590879
0.0134884
0.00267833
0.000453274
6.49407e-05
8.80907e-06
3.08882e-06
3.61364e-06
4.23465e-06
3.61817e-06
3.31377e-06
4.48359e-05
0.000975309
0.353279
0.0900367
0.0200069
0.00382587
0.00062051
8.42139e-05
9.39778e-06
9.44997e-07
2.53869e-07
2.63448e-07
2.53402e-07
8.85928e-07
2.97148e-05
0.000712695
0.48975
0.117871
0.0246738
0.0044472
0.000681814
8.76204e-05
9.26438e-06
8.19004e-07
9.40951e-08
4.54766e-08
4.33416e-08
3.96434e-07
1.71796e-05
0.00045525
0.65
0.144891
0.0280524
0.0046851
0.000666767
7.99154e-05
8.11039e-06
8.77545e-07
2.43253e-07
1.4103e-07
8.99139e-08
2.50319e-07
1.00038e-05
0.00028197
0.846606
0.174171
0.031109
0.00480783
0.000635047
7.28671e-05
9.34889e-06
3.16534e-06
2.16728e-06
1.4407e-06
8.55706e-07
5.83093e-07
5.61426e-06
0.000161637
1.06484
0.203365
0.033686
0.00482513
0.000604031
8.41718e-05
3.22829e-05
2.59995e-05
2.12298e-05
1.50533e-05
9.41683e-06
5.75943e-06
6.31407e-06
9.34213e-05
1.28521
0.230144
0.0358902
0.00487411
0.000677779
0.000238181
0.000221619
0.000212556
0.000183208
0.000137672
9.16553e-05
5.96846e-05
3.77813e-05
6.98797e-05
1.45665
0.246288
0.036678
0.00514371
0.00137131
0.00129593
0.00151157
0.00152638
0.00137548
0.00109368
0.000776544
0.000537999
0.000341724
0.00024684
1.53803
0.249835
0.0375421
0.00748314
0.00551532
0.00739414
0.00914129
0.00959623
0.00903644
0.00759663
0.0057562
0.00420275
0.00276151
0.00184165
1.51159
0.247271
0.0439907
0.0198427
0.0262336
0.0381946
0.0487351
0.0530695
0.0522084
0.0463392
0.0374382
0.0286421
0.0194595
0.0130371
1.74684
0.326519
0.087563
0.0765741
0.118048
0.176361
0.230392
0.259736
0.26684
0.249895
0.214564
0.171301
0.120551
0.0819046
0.00633775
0.00151807
0.000606892
0.000528468
0.000665553
0.000859079
0.00107074
0.00122686
0.00125201
0.00108071
0.000725679
0.000364946
0.000138465
8.33414e-05
0.00892098
0.00198909
0.000419454
9.7699e-05
4.73961e-05
5.68357e-05
8.26465e-05
0.000109722
0.000126924
0.000121996
8.89999e-05
4.69435e-05
1.95283e-05
5.29578e-05
0.0193197
0.00457955
0.000973372
0.000185589
3.21486e-05
7.16546e-06
5.52246e-06
7.82219e-06
1.02534e-05
1.09471e-05
8.61325e-06
4.83552e-06
4.56554e-06
6.21102e-05
0.0366088
0.00892092
0.00191207
0.000358009
5.77758e-05
8.04169e-06
1.1618e-06
5.39993e-07
6.83217e-07
8.04696e-07
6.90716e-07
4.69657e-07
2.61212e-06
6.11211e-05
0.0574634
0.0137056
0.00285605
0.000515553
7.97992e-05
1.04735e-05
1.16869e-06
1.43194e-07
6.39605e-08
6.88208e-08
6.57786e-08
8.82272e-08
1.90979e-06
5.1903e-05
0.0785866
0.0177139
0.00348622
0.000594775
8.71327e-05
1.08325e-05
1.1416e-06
1.20229e-07
3.3093e-08
2.74416e-08
2.70316e-08
4.821e-08
1.27442e-06
3.84137e-05
0.0996565
0.020849
0.00380808
0.000604079
8.23795e-05
9.5783e-06
9.6868e-07
1.18416e-07
4.47647e-08
3.42653e-08
2.96316e-08
4.02127e-08
8.46891e-07
2.71247e-05
0.121825
0.0235626
0.00398249
0.000586057
7.43354e-05
8.25858e-06
1.01685e-06
3.22119e-07
2.13108e-07
1.42377e-07
8.96284e-08
6.5428e-08
5.32065e-07
1.72152e-05
0.142405
0.0255711
0.00401136
0.000548316
6.59765e-05
8.84774e-06
3.2154e-06
2.48317e-06
1.9323e-06
1.29811e-06
7.69854e-07
4.41316e-07
5.48442e-07
1.05646e-05
0.158437
0.026693
0.00394133
0.000511158
6.91586e-05
2.47715e-05
2.26405e-05
2.09538e-05
1.71226e-05
1.20498e-05
7.47684e-06
4.43112e-06
2.64022e-06
7.0971e-06
0.163249
0.0259863
0.00366598
0.000498409
0.000143978
0.000143751
0.000163076
0.000158299
0.000134629
9.95907e-05
6.53646e-05
4.09491e-05
2.36726e-05
1.68467e-05
0.154698
0.0237394
0.00340956
0.000734162
0.000644677
0.000881274
0.00105182
0.00105672
0.000934226
0.000725976
0.000504141
0.000331546
0.000197378
0.000119417
0.134161
0.0209351
0.00382444
0.0022487
0.00335936
0.00490784
0.00602653
0.0062523
0.00574298
0.00468288
0.00343475
0.00235578
0.00144236
0.000871612
0.136378
0.0249982
0.00824913
0.00977668
0.0163997
0.0245279
0.0307868
0.0329001
0.0313529
0.0267727
0.0206624
0.0147032
0.00927134
0.00567937
0.000560088
0.000131881
5.69644e-05
5.87743e-05
8.30737e-05
0.000116709
0.000155348
0.000187348
0.000198271
0.000175562
0.000120551
6.25096e-05
2.40147e-05
9.33389e-06
0.00113454
0.000244527
4.92842e-05
1.11398e-05
5.87985e-06
7.86035e-06
1.21479e-05
1.68238e-05
2.00354e-05
1.96457e-05
1.45656e-05
7.87928e-06
3.07001e-06
2.98464e-06
0.00258502
0.000582688
0.000117381
2.12535e-05
3.56905e-06
8.7983e-07
8.203e-07
1.22511e-06
1.64021e-06
1.77559e-06
1.41583e-06
8.08686e-07
4.35374e-07
3.0255e-06
0.00500642
0.00115103
0.000232787
4.13568e-05
6.41379e-06
8.88309e-07
1.55458e-07
1.00734e-07
1.2873e-07
1.49401e-07
1.31622e-07
8.97473e-08
1.6093e-07
3.25732e-06
0.00786922
0.00176976
0.000348611
5.98976e-05
8.92759e-06
1.15806e-06
1.47315e-07
3.80855e-08
3.03308e-08
3.1453e-08
3.09329e-08
3.00175e-08
1.21736e-07
3.10917e-06
0.0105221
0.00224245
0.000418942
6.8347e-05
9.66982e-06
1.19116e-06
1.43556e-07
3.46001e-08
2.52967e-08
2.47183e-08
2.46675e-08
2.55794e-08
9.64461e-08
2.61253e-06
0.0127246
0.00252648
0.000440247
6.71141e-05
8.88255e-06
1.0304e-06
1.2251e-07
3.36341e-08
2.59776e-08
2.5023e-08
2.46629e-08
2.51684e-08
7.78241e-08
2.08985e-06
0.0145657
0.0026822
0.000434432
6.16734e-05
7.62749e-06
8.4849e-07
1.18384e-07
4.87748e-08
3.85378e-08
3.27797e-08
2.87627e-08
2.69278e-08
6.16661e-08
1.48167e-06
0.0158096
0.00270819
0.000408407
5.40675e-05
6.35982e-06
8.39562e-07
2.95066e-07
2.21909e-07
1.7061e-07
1.1735e-07
7.59662e-08
5.13692e-08
6.40287e-08
1.01356e-06
0.0161912
0.00260666
0.000370411
4.66745e-05
6.21564e-06
2.2222e-06
1.97385e-06
1.76448e-06
1.37837e-06
9.26033e-07
5.51563e-07
3.13631e-07
1.92254e-07
7.08262e-07
0.0152047
0.00232047
0.000315961
4.23879e-05
1.31207e-05
1.34459e-05
1.47884e-05
1.3807e-05
1.11402e-05
7.7603e-06
4.78174e-06
2.77224e-06
1.50189e-06
1.15546e-06
0.0130265
0.00192514
0.000270282
6.42834e-05
6.42581e-05
8.77746e-05
0.00010094
9.70864e-05
8.0995e-05
5.88199e-05
3.79732e-05
2.29282e-05
1.26104e-05
7.11922e-06
0.010145
0.00154157
0.000300856
0.000226926
0.000363006
0.000523375
0.000616514
0.00060926
0.000525321
0.000397565
0.000268586
0.000168236
9.45693e-05
5.25663e-05
0.00935416
0.00173438
0.000740907
0.00109596
0.00191143
0.00281094
0.00337129
0.00341246
0.0030347
0.00238768
0.00168149
0.00108679
0.000625976
0.000351409
5.25171e-05
1.17354e-05
5.00856e-06
5.72633e-06
8.92178e-06
1.35657e-05
1.92277e-05
2.43751e-05
2.67522e-05
2.42782e-05
1.69894e-05
9.04093e-06
3.56761e-06
1.21739e-06
0.000127713
2.63509e-05
5.07782e-06
1.12627e-06
6.5151e-07
9.50296e-07
1.54232e-06
2.21821e-06
2.71727e-06
2.71818e-06
2.04843e-06
1.13961e-06
4.59343e-07
2.38039e-07
0.000299503
6.42383e-05
1.23277e-05
2.14669e-06
3.67981e-07
1.15129e-07
1.23707e-07
1.82365e-07
2.4254e-07
2.6462e-07
2.17168e-07
1.34369e-07
7.11153e-08
1.61863e-07
0.000587457
0.000128076
2.4621e-05
4.19372e-06
6.44747e-07
1.06317e-07
3.77861e-08
3.41109e-08
3.84342e-08
4.1453e-08
3.90956e-08
3.31681e-08
3.22131e-08
1.76967e-07
0.000919786
0.000196513
3.68937e-05
6.09103e-06
8.95606e-07
1.32533e-07
3.59138e-08
2.56805e-08
2.50498e-08
2.52408e-08
2.51731e-08
2.48864e-08
2.87026e-08
1.85261e-07
0.00119768
0.000243354
4.35245e-05
6.84907e-06
9.58194e-07
1.34798e-07
3.54369e-08
2.52205e-08
2.43507e-08
2.43025e-08
2.43001e-08
2.43268e-08
2.78345e-08
1.76218e-07
0.00138197
0.000262661
4.40138e-05
6.50373e-06
8.5753e-07
1.17279e-07
3.32393e-08
2.50671e-08
2.43685e-08
2.42938e-08
2.42718e-08
2.42931e-08
2.72408e-08
1.59989e-07
0.00148217
0.000262325
4.10457e-05
5.67691e-06
7.05867e-07
9.68449e-08
3.21253e-08
2.59994e-08
2.51718e-08
2.47735e-08
2.45131e-08
2.43986e-08
2.66905e-08
1.31745e-07
0.00149645
0.000246981
3.61068e-05
4.67906e-06
5.58687e-07
9.02997e-08
4.40791e-08
3.78824e-08
3.394e-08
3.01629e-08
2.7386e-08
2.58106e-08
2.70987e-08
1.07551e-07
0.00141372
0.000219854
3.03603e-05
3.75861e-06
5.09766e-07
1.91413e-07
1.67696e-07
1.48156e-07
1.16807e-07
8.31628e-08
5.70294e-08
4.11802e-08
3.4342e-08
8.82123e-08
0.00121649
0.000179916
2.38802e-05
3.18929e-06
1.04965e-06
1.08567e-06
1.16007e-06
1.0479e-06
8.1324e-07
5.46147e-07
3.27876e-07
1.88401e-07
1.07719e-07
1.02388e-07
0.000949987
0.000136703
1.89655e-05
4.97758e-06
5.45081e-06
7.3761e-06
8.20499e-06
7.58808e-06
6.0243e-06
4.13967e-06
2.51925e-06
1.42691e-06
7.44946e-07
4.13301e-07
0.000671771
0.000100507
2.14109e-05
1.987e-05
3.29762e-05
4.66729e-05
5.29496e-05
5.00617e-05
4.08284e-05
2.89997e-05
1.82709e-05
1.0618e-05
5.56891e-06
2.90556e-06
0.000571115
0.000109634
6.12123e-05
0.000105011
0.000186037
0.000267375
0.000307534
0.000296298
0.000247839
0.000181743
0.000118412
7.05992e-05
3.77093e-05
1.97142e-05
4.74106e-06
1.00837e-06
4.17757e-07
5.05382e-07
8.4432e-07
1.3696e-06
2.05032e-06
2.72063e-06
3.09057e-06
2.87357e-06
2.04739e-06
1.1185e-06
4.63632e-07
1.67837e-07
1.26073e-05
2.50199e-06
4.78151e-07
1.19697e-07
8.24187e-08
1.17999e-07
1.86488e-07
2.68518e-07
3.33141e-07
3.39429e-07
2.63771e-07
1.58078e-07
7.7426e-08
4.37791e-08
3.01728e-05
6.18703e-06
1.15167e-06
2.10328e-07
5.35479e-08
3.27382e-08
3.49111e-08
4.20076e-08
4.93934e-08
5.23889e-08
4.70248e-08
3.73815e-08
2.96043e-08
3.09486e-08
5.96766e-05
1.24085e-05
2.29469e-06
3.93002e-07
7.71905e-08
3.10896e-08
2.54754e-08
2.53331e-08
2.5883e-08
2.62614e-08
2.59966e-08
2.53022e-08
2.48513e-08
3.1252e-08
9.29358e-05
1.89758e-05
3.42792e-06
5.62716e-07
9.90859e-08
3.33056e-08
2.52004e-08
2.43657e-08
2.4328e-08
2.43566e-08
2.43522e-08
2.4318e-08
2.44672e-08
3.24045e-08
0.000117871
2.2973e-05
3.96885e-06
6.21686e-07
1.03656e-07
3.3425e-08
2.51488e-08
2.43124e-08
2.42441e-08
2.42438e-08
2.4247e-08
2.4251e-08
2.44325e-08
3.29526e-08
0.000130086
2.3817e-05
3.87384e-06
5.74195e-07
9.32597e-08
3.17966e-08
2.49511e-08
2.42949e-08
2.42417e-08
2.42395e-08
2.42414e-08
2.42462e-08
2.44202e-08
3.29107e-08
0.000131436
2.25141e-05
3.43589e-06
4.82146e-07
7.8308e-08
2.98816e-08
2.48125e-08
2.43413e-08
2.42854e-08
2.42647e-08
2.42532e-08
2.42512e-08
2.44128e-08
3.19815e-08
0.00012403
1.98753e-05
2.8479e-06
3.80436e-07
6.43374e-08
2.89637e-08
2.54897e-08
2.50393e-08
2.47858e-08
2.45607e-08
2.44043e-08
2.43224e-08
2.44569e-08
3.11342e-08
0.000108724
1.64688e-05
2.23975e-06
2.91433e-07
5.80413e-08
3.52107e-08
3.32855e-08
3.18067e-08
2.96873e-08
2.75666e-08
2.60091e-08
2.51109e-08
2.48281e-08
3.01643e-08
8.63279e-05
1.24765e-05
1.64026e-06
2.35704e-07
9.38717e-08
9.59715e-08
9.90291e-08
8.94427e-08
7.25042e-08
5.47536e-08
4.11342e-08
3.28699e-08
2.84722e-08
2.99976e-08
6.20089e-05
8.76038e-06
1.22263e-06
3.61758e-07
4.16434e-07
5.48629e-07
5.90249e-07
5.28517e-07
4.06707e-07
2.7375e-07
1.67458e-07
1.00018e-07
6.107e-08
4.40292e-08
4.01771e-05
5.96972e-06
1.40832e-06
1.52836e-06
2.5689e-06
3.55144e-06
3.88792e-06
3.52876e-06
2.7434e-06
1.85063e-06
1.10663e-06
6.13193e-07
3.14657e-07
1.67519e-07
3.17636e-05
6.43788e-06
4.59428e-06
8.65389e-06
1.53632e-05
2.15108e-05
2.37797e-05
2.1883e-05
1.73347e-05
1.19637e-05
7.30169e-06
4.07429e-06
2.05285e-06
1.02412e-06
4.04875e-07
9.87125e-08
5.16819e-08
5.93885e-08
8.92336e-08
1.38709e-07
2.06846e-07
2.78838e-07
3.23956e-07
3.09322e-07
2.29548e-07
1.36724e-07
7.01935e-08
3.93073e-08
1.09653e-06
2.26605e-07
5.97699e-08
3.14356e-08
2.88812e-08
3.23488e-08
3.90276e-08
4.74176e-08
5.44351e-08
5.56735e-08
4.84e-08
3.78836e-08
2.97577e-08
2.60945e-08
2.64602e-06
5.37666e-07
1.14406e-07
3.8548e-08
2.64258e-08
2.49224e-08
2.52075e-08
2.59309e-08
2.6702e-08
2.70459e-08
2.65341e-08
2.5577e-08
2.47909e-08
2.46197e-08
5.26139e-06
1.06618e-06
2.07714e-07
5.29441e-08
2.82194e-08
2.47325e-08
2.43282e-08
2.43347e-08
2.43958e-08
2.44395e-08
2.44179e-08
2.43523e-08
2.43009e-08
2.45706e-08
8.15468e-06
1.61783e-06
2.9988e-07
6.63726e-08
2.99127e-08
2.48982e-08
2.42981e-08
2.42409e-08
2.42427e-08
2.42496e-08
2.42532e-08
2.42538e-08
2.42631e-08
2.46586e-08
1.01055e-05
1.9177e-06
3.38864e-07
7.04496e-08
3.02091e-08
2.4903e-08
2.42939e-08
2.42363e-08
2.42348e-08
2.42388e-08
2.42431e-08
2.42475e-08
2.42616e-08
2.47401e-08
1.07168e-05
1.91881e-06
3.21854e-07
6.56394e-08
2.93062e-08
2.47722e-08
2.42792e-08
2.42356e-08
2.42353e-08
2.4239e-08
2.42431e-08
2.42475e-08
2.42624e-08
2.47903e-08
1.02702e-05
1.72982e-06
2.76399e-07
5.73145e-08
2.80565e-08
2.46192e-08
2.42677e-08
2.42385e-08
2.42383e-08
2.42409e-08
2.42441e-08
2.42483e-08
2.42639e-08
2.47918e-08
9.12291e-06
1.44553e-06
2.22011e-07
4.8706e-08
2.69301e-08
2.45315e-08
2.43006e-08
2.42749e-08
2.42641e-08
2.42559e-08
2.42517e-08
2.42522e-08
2.42688e-08
2.48016e-08
7.48282e-06
1.1285e-06
1.70201e-07
4.15204e-08
2.63401e-08
2.48562e-08
2.47237e-08
2.4634e-08
2.4516e-08
2.44048e-08
2.43281e-08
2.42884e-08
2.42874e-08
2.47762e-08
5.53572e-06
8.04447e-07
1.23753e-07
3.7004e-08
2.83435e-08
2.83883e-08
2.84653e-08
2.78169e-08
2.67962e-08
2.57937e-08
2.50656e-08
2.46471e-08
2.44464e-08
2.47027e-08
3.70044e-06
5.34056e-07
9.34407e-08
4.45202e-08
4.85217e-08
5.62244e-08
5.78411e-08
5.31939e-08
4.53511e-08
3.74144e-08
3.14408e-08
2.78513e-08
2.59176e-08
2.52031e-08
2.2255e-06
3.47733e-07
1.05414e-07
1.22659e-07
1.92007e-07
2.51855e-07
2.65731e-07
2.35162e-07
1.80845e-07
1.24395e-07
8.0498e-08
5.31454e-08
3.77528e-08
3.06309e-08
1.64717e-06
3.72422e-07
3.27538e-07
6.32775e-07
1.10196e-06
1.4948e-06
1.59159e-06
1.40672e-06
1.06686e-06
7.05495e-07
4.15878e-07
2.29397e-07
1.21308e-07
6.97456e-08
5.10563e-08
2.91673e-08
2.58861e-08
2.64382e-08
2.8663e-08
3.26011e-08
3.83491e-08
4.48088e-08
4.92778e-08
4.85964e-08
4.20174e-08
3.40766e-08
2.8308e-08
2.55834e-08
1.02885e-07
3.8497e-08
2.66238e-08
2.46838e-08
2.45342e-08
2.48185e-08
2.53729e-08
2.61016e-08
2.67463e-08
2.69047e-08
2.63107e-08
2.54166e-08
2.47192e-08
2.43949e-08
2.20678e-07
6.12404e-08
3.04829e-08
2.51746e-08
2.43582e-08
2.42656e-08
2.42955e-08
2.43602e-08
2.44312e-08
2.44671e-08
2.44284e-08
2.43497e-08
2.4285e-08
2.42629e-08
4.21432e-07
1.00316e-07
3.7144e-08
2.61718e-08
2.44792e-08
2.425e-08
2.42269e-08
2.42313e-08
2.42398e-08
2.4247e-08
2.42488e-08
2.42466e-08
2.42453e-08
2.42585e-08
6.40287e-07
1.40801e-07
4.37217e-08
2.71073e-08
2.45958e-08
2.42623e-08
2.42258e-08
2.42252e-08
2.42287e-08
2.42328e-08
2.42369e-08
2.42407e-08
2.42449e-08
2.4267e-08
7.73409e-07
1.60536e-07
4.6202e-08
2.73577e-08
2.46141e-08
2.42639e-08
2.42271e-08
2.42266e-08
2.42298e-08
2.42338e-08
2.4238e-08
2.42423e-08
2.42472e-08
2.42762e-08
7.91209e-07
1.56433e-07
4.44599e-08
2.69669e-08
2.45492e-08
2.42566e-08
2.42281e-08
2.42285e-08
2.42319e-08
2.42358e-08
2.424e-08
2.42444e-08
2.42496e-08
2.42843e-08
7.25439e-07
1.38239e-07
4.07076e-08
2.63378e-08
2.4462e-08
2.42482e-08
2.42294e-08
2.42308e-08
2.42342e-08
2.4238e-08
2.4242e-08
2.42464e-08
2.42518e-08
2.42905e-08
6.14339e-07
1.14591e-07
3.65644e-08
2.5722e-08
2.43866e-08
2.42441e-08
2.42332e-08
2.42348e-08
2.42376e-08
2.42407e-08
2.42443e-08
2.42487e-08
2.42545e-08
2.42982e-08
4.80266e-07
9.06198e-08
3.28604e-08
2.523e-08
2.4345e-08
2.42608e-08
2.42555e-08
2.42537e-08
2.42511e-08
2.42492e-08
2.42494e-08
2.42522e-08
2.42575e-08
2.43023e-08
3.40692e-07
6.83901e-08
2.97747e-08
2.49221e-08
2.44414e-08
2.44392e-08
2.44409e-08
2.44075e-08
2.43583e-08
2.43128e-08
2.42825e-08
2.42684e-08
2.42652e-08
2.4297e-08
2.22211e-07
5.13479e-08
2.78592e-08
2.52991e-08
2.55208e-08
2.59054e-08
2.59505e-08
2.56727e-08
2.52513e-08
2.48503e-08
2.45647e-08
2.44034e-08
2.43238e-08
2.43074e-08
1.34902e-07
4.03721e-08
2.84879e-08
2.97649e-08
3.36781e-08
3.67935e-08
3.71898e-08
3.51773e-08
3.20542e-08
2.90284e-08
2.68083e-08
2.55001e-08
2.48104e-08
2.45138e-08
1.00538e-07
4.15603e-08
4.18468e-08
6.09476e-08
8.88049e-08
1.10156e-07
1.12832e-07
9.94624e-08
7.85771e-08
5.81006e-08
4.27285e-08
3.34207e-08
2.83694e-08
2.60993e-08
2.58125e-08
2.44618e-08
2.42665e-08
2.43028e-08
2.44464e-08
2.47146e-08
2.5127e-08
2.56168e-08
2.5985e-08
2.59771e-08
2.55161e-08
2.49369e-08
2.45115e-08
2.4309e-08
2.91536e-08
2.50489e-08
2.43221e-08
2.42102e-08
2.42055e-08
2.42279e-08
2.42696e-08
2.43259e-08
2.43784e-08
2.43962e-08
2.43571e-08
2.42941e-08
2.42447e-08
2.42225e-08
3.68838e-08
2.6492e-08
2.45621e-08
2.42429e-08
2.41978e-08
2.41956e-08
2.42007e-08
2.42083e-08
2.42164e-08
2.42221e-08
2.42222e-08
2.4219e-08
2.42166e-08
2.42169e-08
5.02035e-08
2.89986e-08
2.49784e-08
2.4306e-08
2.42079e-08
2.41976e-08
2.41992e-08
2.42024e-08
2.4206e-08
2.42096e-08
2.42127e-08
2.42153e-08
2.42179e-08
2.42209e-08
6.45407e-08
3.15808e-08
2.53899e-08
2.4366e-08
2.42181e-08
2.42015e-08
2.42023e-08
2.42053e-08
2.42085e-08
2.42119e-08
2.42155e-08
2.42188e-08
2.42221e-08
2.42259e-08
7.24004e-08
3.27104e-08
2.55304e-08
2.43825e-08
2.42223e-08
2.42048e-08
2.42057e-08
2.42087e-08
2.4212e-08
2.42155e-08
2.42191e-08
2.42227e-08
2.42262e-08
2.42307e-08
7.19905e-08
3.22296e-08
2.53983e-08
2.43593e-08
2.42216e-08
2.42078e-08
2.42092e-08
2.42122e-08
2.42156e-08
2.42191e-08
2.42228e-08
2.42264e-08
2.42303e-08
2.42355e-08
6.60875e-08
3.08663e-08
2.51452e-08
2.43224e-08
2.42198e-08
2.42108e-08
2.42128e-08
2.42159e-08
2.42192e-08
2.42227e-08
2.42264e-08
2.42302e-08
2.42342e-08
2.42403e-08
5.78104e-08
2.92588e-08
2.48833e-08
2.42885e-08
2.42191e-08
2.42143e-08
2.42166e-08
2.42196e-08
2.42229e-08
2.42263e-08
2.423e-08
2.4234e-08
2.42383e-08
2.42453e-08
4.88657e-08
2.77435e-08
2.46621e-08
2.42635e-08
2.42204e-08
2.42187e-08
2.42212e-08
2.4224e-08
2.42269e-08
2.42301e-08
2.42335e-08
2.42377e-08
2.42423e-08
2.42501e-08
4.041e-08
2.64424e-08
2.44898e-08
2.42497e-08
2.42283e-08
2.42303e-08
2.42328e-08
2.42339e-08