/*--------------------------------*- C++ -*----------------------------------*\
| =========                 |                                                 |
| \\      /  F ield         | OpenFOAM: The Open Source CFD Toolbox           |
|  \\    /   O peration     | Version:  v2106                                 |
|   \\  /    A nd           | Website:  www.openfoam.com                      |
|    \\/     M anipulation  |                                                 |
\*---------------------------------------------------------------------------*/
FoamFile
{
    version     2.0;
    format      ascii;
    arch        "LSB;label=32;scalar=64";
    class       volScalarField;
    location    "0.000143";
    object      nut;
}
// * * * * * * * * * * * * * * * * * * * * * * * * * * * * * * * * * * * * * //

dimensions      [0 2 -1 0 0 0 0];

internalField   nonuniform List<scalar> 
18109
(
7.25739e-07
2.32677e-07
8.24044e-08
3.24474e-08
1.52456e-08
9.42575e-09
7.54576e-09
2.14344e-07
5.60917e-08
1.49219e-08
4.13184e-09
1.43583e-09
8.56224e-10
8.08037e-10
9.64001e-08
2.82342e-08
8.08017e-09
2.28937e-09
6.13578e-10
1.66173e-10
8.01343e-11
1.00338e-07
3.63813e-08
1.24658e-08
3.82656e-09
9.81256e-10
2.01351e-10
3.36932e-11
1.18735e-07
4.64903e-08
1.61536e-08
4.80435e-09
1.17446e-09
2.29902e-10
3.43119e-11
1.40458e-07
5.36611e-08
1.77438e-08
4.98636e-09
1.15611e-09
2.16489e-10
3.12927e-11
1.75462e-07
6.27462e-08
1.932e-08
5.05542e-09
1.1009e-09
1.95469e-10
2.89633e-11
2.31856e-07
7.73607e-08
2.21892e-08
5.43937e-09
1.12299e-09
2.02422e-10
4.58695e-11
1.55108e-07
3.87235e-08
1.07383e-08
3.63507e-09
1.85056e-09
1.4284e-09
1.33865e-09
1.28449e-09
1.19161e-09
9.92211e-10
6.79606e-10
4.26345e-10
7.23717e-10
4.43366e-09
4.18678e-08
9.63629e-09
2.16962e-09
5.1327e-10
1.68483e-10
1.12011e-10
1.19551e-10
1.37633e-10
1.49963e-10
1.42994e-10
1.09249e-10
8.84995e-11
3.97836e-10
3.47284e-09
2.76131e-08
7.91251e-09
2.17157e-09
5.67165e-10
1.32416e-10
2.88142e-11
1.10083e-11
1.13965e-11
1.42712e-11
1.55936e-11
1.31271e-11
2.535e-11
2.5171e-10
2.45685e-09
3.38928e-08
1.13049e-08
3.45087e-09
9.20946e-10
2.03861e-10
3.62252e-11
5.21529e-12
1.12007e-12
1.04592e-12
1.30319e-12
1.45178e-12
8.56807e-12
1.20986e-10
1.33358e-09
3.97219e-08
1.38684e-08
4.23329e-09
1.09934e-09
2.3459e-10
4.02287e-11
5.30767e-12
5.30098e-13
8.35208e-14
8.35956e-14
1.90069e-13
3.17086e-12
5.23619e-11
6.05628e-10
4.6794e-08
1.5741e-08
4.56177e-09
1.1177e-09
2.25647e-10
3.6835e-11
4.67859e-12
4.6269e-13
5.33717e-14
2.15991e-14
4.5926e-14
1.11316e-12
2.19149e-11
2.74005e-10
5.82798e-08
1.82925e-08
4.9312e-09
1.12556e-09
2.13732e-10
3.3118e-11
4.29552e-12
7.09328e-13
3.17119e-13
2.13434e-13
1.53121e-13
5.36317e-13
9.80567e-12
1.33358e-10
7.64148e-08
2.22695e-08
5.58016e-09
1.19239e-09
2.1433e-10
3.36487e-11
6.79799e-12
3.50319e-12
2.74296e-12
2.12545e-12
1.55742e-12
1.41986e-12
5.93469e-12
7.51921e-11
1.02277e-07
2.80128e-08
6.60021e-09
1.33389e-09
2.36483e-10
5.05999e-11
2.65463e-11
2.33857e-11
2.05252e-11
1.71818e-11
1.35898e-11
1.1751e-11
1.26903e-11
5.7255e-11
1.39794e-07
3.68106e-08
8.39524e-09
1.67489e-09
3.50342e-10
1.53326e-10
1.38961e-10
1.38689e-10
1.28302e-10
1.14362e-10
9.75656e-11
8.94525e-11
7.96864e-11
1.08943e-10
1.85733e-07
4.74755e-08
1.07258e-08
2.30834e-09
7.68737e-10
6.19504e-10
6.65167e-10
6.98448e-10
6.76734e-10
6.39721e-10
5.88792e-10
5.68089e-10
5.11131e-10
5.3189e-10
2.50915e-07
6.37917e-08
1.50927e-08
4.13345e-09
2.36687e-09
2.44325e-09
2.76092e-09
3.00738e-09
3.05213e-09
3.06171e-09
3.0343e-09
3.05072e-09
2.82707e-09
2.81938e-09
3.63435e-07
9.68373e-08
2.52274e-08
9.63413e-09
7.79394e-09
8.66841e-09
9.99225e-09
1.12144e-08
1.19285e-08
1.27116e-08
1.34889e-08
1.41392e-08
1.36055e-08
1.33445e-08
6.44211e-07
1.93316e-07
5.57853e-08
2.65681e-08
2.43228e-08
2.73828e-08
3.17957e-08
3.65913e-08
4.08628e-08
4.62577e-08
5.22746e-08
5.75511e-08
5.81178e-08
5.67545e-08
1.32014e-06
3.77157e-06
7.96507e-06
1.32256e-05
1.85771e-05
2.2935e-05
3.207e-07
1.22059e-06
3.33298e-06
6.9018e-06
1.15471e-05
1.6342e-05
1.95728e-07
9.13922e-07
2.78209e-06
6.13412e-06
1.05803e-05
1.52032e-05
1.04969e-07
5.84866e-07
2.03382e-06
4.88766e-06
8.9284e-06
1.33312e-05
5.21331e-08
3.46507e-07
1.35009e-06
3.55992e-06
7.00211e-06
1.10674e-05
2.75915e-08
2.02854e-07
8.76928e-07
2.5079e-06
5.27063e-06
8.80013e-06
1.75172e-08
1.26188e-07
5.71226e-07
1.72317e-06
3.80143e-06
6.59126e-06
1.31543e-08
8.57877e-08
3.80698e-07
1.16585e-06
2.64733e-06
4.75363e-06
1.02188e-08
5.87963e-08
2.48139e-07
7.5977e-07
1.7671e-06
3.27456e-06
7.64806e-09
3.89191e-08
1.55833e-07
4.74721e-07
1.13509e-06
2.18693e-06
5.26656e-09
2.4919e-08
9.73744e-08
2.99534e-07
7.38528e-07
1.47517e-06
3.37165e-09
1.61161e-08
6.43129e-08
2.02699e-07
5.12247e-07
1.05739e-06
2.33442e-09
1.22578e-08
5.1408e-08
1.70721e-07
4.69556e-07
1.11908e-06
2.88374e-09
1.68316e-08
7.71636e-08
2.81315e-07
8.36632e-07
2.05978e-06
9.9886e-09
5.22568e-08
2.17953e-07
7.13293e-07
1.86097e-06
3.93006e-06
3.21706e-08
1.33724e-07
4.69624e-07
1.34018e-06
3.10308e-06
5.85596e-06
2.71573e-08
1.29674e-07
4.96916e-07
1.49349e-06
3.51237e-06
6.59628e-06
1.96638e-08
1.05948e-07
4.39031e-07
1.39062e-06
3.37498e-06
6.46625e-06
1.13362e-08
7.05769e-08
3.23222e-07
1.10318e-06
2.84187e-06
5.72122e-06
5.33947e-09
3.84526e-08
1.99876e-07
7.5624e-07
2.13558e-06
4.62662e-06
2.43297e-09
1.84199e-08
1.06482e-07
4.82325e-07
1.51279e-06
3.48668e-06
1.25268e-09
9.85575e-09
6.29137e-08
3.1223e-07
1.04532e-06
2.51616e-06
7.79223e-10
6.47913e-09
4.19705e-08
1.98753e-07
6.77636e-07
1.6956e-06
5.74065e-10
4.74693e-09
2.87101e-08
1.28246e-07
4.25044e-07
1.06639e-06
5.2961e-10
3.93238e-09
2.16504e-08
8.9649e-08
2.84491e-07
6.99032e-07
1.08594e-09
5.75044e-09
2.57631e-08
9.32404e-08
2.73601e-07
6.63695e-07
4.4421e-09
1.81482e-08
6.59079e-08
2.05594e-07
5.51251e-07
1.2861e-06
1.9632e-08
6.95312e-08
2.1716e-07
5.88954e-07
1.38494e-06
2.83876e-06
7.6456e-08
2.33124e-07
6.31262e-07
1.47791e-06
2.98451e-06
5.23153e-06
2.24719e-07
5.60952e-07
1.28061e-06
2.61001e-06
4.70438e-06
7.47376e-06
2.23186e-07
5.97201e-07
1.42505e-06
2.97219e-06
5.37025e-06
8.44814e-06
2.07941e-07
5.81668e-07
1.42017e-06
2.99573e-06
5.44284e-06
8.58392e-06
1.77726e-07
5.11604e-07
1.27484e-06
2.73509e-06
5.04461e-06
8.04927e-06
1.47381e-07
4.26711e-07
1.07193e-06
2.32353e-06
4.33978e-06
7.00353e-06
1.2308e-07
3.50026e-07
8.70505e-07
1.88183e-06
3.53347e-06
5.76814e-06
1.05287e-07
2.8942e-07
6.99637e-07
1.48597e-06
2.77499e-06
4.5402e-06
9.00179e-08
2.41578e-07
5.69086e-07
1.18001e-06
2.1539e-06
3.44934e-06
7.79723e-08
2.04245e-07
4.66202e-07
9.34234e-07
1.65021e-06
2.60198e-06
6.9419e-08
1.76268e-07
3.94307e-07
7.94553e-07
1.48211e-06
2.63304e-06
7.16206e-08
1.89494e-07
4.69368e-07
1.08281e-06
2.30759e-06
4.48364e-06
1.36556e-07
3.87255e-07
9.97757e-07
2.29149e-06
4.64291e-06
8.23982e-06
4.5894e-07
1.13549e-06
2.51787e-06
4.90174e-06
8.41722e-06
1.28584e-05
1.45821e-06
2.9209e-06
5.31276e-06
8.65021e-06
1.26936e-05
1.69377e-05
2.69425e-07
6.3397e-07
1.41088e-06
2.93968e-06
5.6062e-06
9.5656e-06
3.05671e-07
8.40505e-07
2.13321e-06
4.7447e-06
9.02312e-06
1.45064e-05
7.27814e-07
1.91704e-06
4.39257e-06
8.44489e-06
1.37858e-05
1.95146e-05
2.07612e-06
4.37018e-06
8.10619e-06
1.29798e-05
1.83019e-05
2.30486e-05
1.35458e-06
3.12072e-06
5.97897e-06
9.7484e-06
1.39818e-05
1.80489e-05
1.17298e-06
2.81575e-06
5.5378e-06
9.17529e-06
1.32519e-05
1.71693e-05
9.07663e-07
2.27752e-06
4.65898e-06
7.97656e-06
1.17977e-05
1.55577e-05
6.57292e-07
1.71361e-06
3.65339e-06
6.5091e-06
9.96731e-06
1.35439e-05
4.65554e-07
1.24422e-06
2.74482e-06
5.08488e-06
8.12201e-06
1.13689e-05
3.19865e-07
8.62939e-07
1.95286e-06
3.75687e-06
6.27372e-06
9.06824e-06
2.2381e-07
5.97089e-07
1.3574e-06
2.67011e-06
4.73188e-06
7.12463e-06
1.60652e-07
4.16483e-07
9.55795e-07
1.98064e-06
3.57553e-06
5.51449e-06
1.24315e-07
3.19517e-07
7.4883e-07
1.5651e-06
2.80778e-06
4.27539e-06
1.0775e-07
2.75682e-07
6.36015e-07
1.28908e-06
2.25909e-06
3.52614e-06
9.83458e-08
2.45424e-07
5.5522e-07
1.15465e-06
2.27186e-06
4.28417e-06
8.9522e-08
2.4196e-07
6.37196e-07
1.59156e-06
3.61282e-06
7.11205e-06
1.64708e-07
5.03594e-07
1.39231e-06
3.30373e-06
6.63941e-06
1.12952e-05
5.71674e-07
1.44858e-06
3.25421e-06
6.27717e-06
1.0501e-05
1.52744e-05
2.06221e-05
2.86082e-05
3.37518e-05
3.49656e-05
2.91174e-05
1.93955e-05
2.69316e-05
3.26314e-05
3.45426e-05
2.73938e-05
1.73725e-05
2.43644e-05
3.01475e-05
3.24317e-05
2.61021e-05
1.49811e-05
2.10071e-05
2.62867e-05
2.87362e-05
2.44614e-05
1.24749e-05
1.71651e-05
2.15163e-05
2.41778e-05
2.20361e-05
9.88207e-06
1.33288e-05
1.68534e-05
1.96824e-05
1.96359e-05
7.43498e-06
9.99451e-06
1.27095e-05
1.55664e-05
1.79708e-05
5.37329e-06
7.32916e-06
9.45402e-06
1.24745e-05
1.76629e-05
2.16403e-05
3.76336e-06
5.29839e-06
7.19719e-06
1.08952e-05
1.86216e-05
2.52208e-05
2.55107e-06
3.92087e-06
6.23027e-06
1.11858e-05
2.06407e-05
2.97252e-05
1.88046e-06
3.93198e-06
7.77621e-06
1.40398e-05
2.3879e-05
3.55076e-05
4.07481e-05
2.3855e-06
6.19872e-06
1.2149e-05
1.93474e-05
2.80329e-05
4.11302e-05
5.83652e-05
3.7797e-05
4.23714e-06
1.03314e-05
1.80981e-05
2.53818e-05
3.13912e-05
4.15262e-05
8.35521e-05
0.000111681
6.87201e-06
1.46832e-05
2.30165e-05
2.92012e-05
3.18711e-05
3.2489e-05
4.80725e-05
0.000183182
9.20435e-06
1.74568e-05
2.5128e-05
3.04061e-05
3.1199e-05
2.69119e-05
3.10369e-05
0.000147087
1.02673e-05
1.82579e-05
2.56899e-05
3.13318e-05
3.1584e-05
2.34986e-05
2.4628e-05
0.000122825
1.02009e-05
1.77221e-05
2.53694e-05
3.16196e-05
3.21256e-05
2.23664e-05
2.03232e-05
5.78225e-05
9.25912e-06
1.60617e-05
2.34521e-05
2.97777e-05
3.04092e-05
2.19643e-05
1.9379e-05
7.09928e-05
7.85854e-06
1.37113e-05
2.00861e-05
2.57673e-05
2.66959e-05
2.01499e-05
1.85402e-05
8.36584e-05
6.2866e-06
1.09851e-05
1.6153e-05
2.0931e-05
2.22579e-05
1.81057e-05
1.83193e-05
6.95668e-05
4.77015e-06
8.28337e-06
1.21771e-05
1.60897e-05
1.80461e-05
1.73802e-05
1.89035e-05
2.76276e-05
3.34449e-06
5.89687e-06
8.81122e-06
1.2174e-05
1.54329e-05
1.85197e-05
2.15125e-05
2.70278e-05
2.13651e-06
4.00102e-06
6.39281e-06
9.62893e-06
1.46985e-05
2.15701e-05
1.37539e-06
2.92196e-06
5.4064e-06
9.22075e-06
1.60962e-05
2.60897e-05
1.39422e-06
3.5965e-06
7.26888e-06
1.22676e-05
1.98304e-05
3.17841e-05
2.63581e-06
6.56149e-06
1.21893e-05
1.83814e-05
2.53849e-05
3.74379e-05
5.08733e-06
1.10975e-05
1.83284e-05
2.47014e-05
2.97376e-05
3.88232e-05
8.07969e-06
1.54761e-05
2.28907e-05
2.80246e-05
2.97972e-05
1.05517e-05
1.80973e-05
2.48685e-05
2.91682e-05
2.85529e-05
1.18482e-05
1.90514e-05
2.56408e-05
3.01606e-05
2.80817e-05
1.2008e-05
1.876e-05
2.54682e-05
3.05152e-05
2.79655e-05
1.12115e-05
1.72547e-05
2.3635e-05
2.88938e-05
2.65054e-05
9.75109e-06
1.50229e-05
2.05961e-05
2.55475e-05
2.37626e-05
8.03731e-06
1.24033e-05
1.70385e-05
2.15887e-05
2.11719e-05
6.24474e-06
9.74543e-06
1.36014e-05
1.77132e-05
2.03759e-05
4.69572e-06
7.59329e-06
1.12127e-05
1.58348e-05
2.2493e-05
3.76114e-06
6.87026e-06
1.12855e-05
1.75944e-05
2.7477e-05
4.52116e-06
9.2927e-06
1.55801e-05
2.30891e-05
3.37934e-05
7.7569e-06
1.51147e-05
2.31199e-05
3.03349e-05
3.92966e-05
1.27816e-05
2.20972e-05
3.03443e-05
3.60524e-05
4.22565e-05
1.77431e-05
2.72505e-05
3.39413e-05
3.70959e-05
3.94605e-05
2.0863e-05
2.88978e-05
3.36836e-05
3.48173e-05
3.23229e-05
2.1603e-05
2.85191e-05
3.29049e-05
3.36767e-05
2.77891e-05
2.07293e-05
2.7202e-05
3.18982e-05
3.31364e-05
2.56969e-05
1.8957e-05
2.4753e-05
2.94026e-05
3.13058e-05
2.47048e-05
1.65736e-05
2.14625e-05
2.5765e-05
2.81776e-05
2.41532e-05
1.39949e-05
1.77902e-05
2.15058e-05
2.46693e-05
2.35014e-05
1.13469e-05
1.42703e-05
1.7588e-05
2.14284e-05
2.34629e-05
8.98407e-06
1.13211e-05
1.4411e-05
1.91081e-05
2.47538e-05
7.04366e-06
9.16464e-06
1.25612e-05
1.90653e-05
2.8177e-05
5.61885e-06
8.31086e-06
1.32907e-05
2.1965e-05
3.32461e-05
5.35958e-06
1.02346e-05
1.75944e-05
2.71947e-05
3.87014e-05
7.62824e-06
1.54136e-05
2.44972e-05
3.33522e-05
4.34581e-05
1.19657e-05
2.19953e-05
3.12957e-05
3.79952e-05
4.52349e-05
1.65983e-05
2.72649e-05
3.50909e-05
3.87872e-05
4.14357e-05
1.99486e-05
2.91439e-05
3.48257e-05
3.61794e-05
3.35887e-05
1.01403e-08
2.37224e-09
6.21955e-10
2.16008e-10
1.4309e-10
1.41515e-10
1.53827e-10
1.63049e-10
1.62267e-10
1.41416e-10
9.73397e-11
5.29309e-11
3.71639e-11
1.90893e-10
3.71893e-09
8.93134e-10
2.06604e-10
4.88959e-11
1.53009e-11
1.06894e-11
1.28136e-11
1.61013e-11
1.86899e-11
1.86567e-11
1.42386e-11
8.3781e-12
1.65666e-11
1.76968e-10
4.3916e-09
1.25373e-09
3.35142e-10
8.16774e-11
1.72481e-11
3.34161e-12
1.17328e-12
1.25872e-12
1.65286e-12
1.88146e-12
1.59765e-12
1.3575e-12
1.11773e-11
1.48052e-10
6.17084e-09
1.9445e-09
5.45697e-10
1.32281e-10
2.6679e-11
4.37246e-12
5.91324e-13
1.22676e-13
1.15034e-13
1.46864e-13
1.42928e-13
3.47924e-13
6.17063e-12
9.29036e-11
7.78663e-09
2.47809e-09
6.8546e-10
1.61279e-10
3.1397e-11
4.96536e-12
6.16356e-13
6.00561e-14
9.36923e-15
8.90637e-15
1.1371e-14
1.25555e-13
3.00921e-12
4.84772e-11
9.45101e-09
2.86092e-09
7.45444e-10
1.64772e-10
3.02628e-11
4.53168e-12
5.37167e-13
4.99557e-14
4.72141e-15
1.42602e-15
1.76048e-15
4.71113e-14
1.37957e-12
2.42573e-11
1.19733e-08
3.35192e-09
8.07316e-10
1.6546e-10
2.83264e-11
3.98076e-12
4.65044e-13
6.1385e-14
2.12277e-14
1.27241e-14
7.89989e-15
2.52015e-14
6.75659e-13
1.26497e-11
1.55287e-08
4.00771e-09
8.91259e-10
1.6938e-10
2.70867e-11
3.74994e-12
6.3085e-13
2.72636e-13
1.99019e-13
1.41609e-13
9.20741e-14
7.14913e-14
3.82591e-13
6.8564e-12
2.01797e-08
4.85731e-09
1.00696e-09
1.78289e-10
2.7539e-11
5.07352e-12
2.44511e-12
2.03063e-12
1.70194e-12
1.30652e-12
9.16399e-13
6.80274e-13
6.77659e-13
4.65052e-12
2.6042e-08
5.93375e-09
1.1708e-09
2.01423e-10
3.67779e-11
1.57535e-11
1.45484e-11
1.38785e-11
1.2297e-11
1.00517e-11
7.60316e-12
6.02242e-12
4.59459e-12
6.294e-12
3.24307e-08
7.02341e-09
1.34389e-09
2.48721e-10
8.23115e-11
7.29723e-11
8.04851e-11
8.10184e-11
7.53958e-11
6.54007e-11
5.3422e-11
4.48321e-11
3.46759e-11
3.03369e-11
3.96307e-08
8.32696e-09
1.65066e-09
4.2484e-10
2.90176e-10
3.31885e-10
3.8564e-10
4.04875e-10
3.96103e-10
3.65146e-10
3.21959e-10
2.83531e-10
2.27617e-10
1.89281e-10
4.94978e-08
1.05709e-08
2.42872e-09
1.08584e-09
1.10793e-09
1.34945e-09
1.6061e-09
1.75046e-09
1.8018e-09
1.77058e-09
1.68011e-09
1.55062e-09
1.30102e-09
1.07553e-09
7.7194e-08
1.83337e-08
5.22974e-09
3.46119e-09
3.9468e-09
4.85763e-09
5.86423e-09
6.61191e-09
7.17468e-09
7.53477e-09
7.66036e-09
7.45035e-09
6.54886e-09
5.49139e-09
6.26971e-10
1.58909e-10
4.65298e-11
2.14208e-11
1.99341e-11
2.30588e-11
2.73958e-11
3.10393e-11
3.25193e-11
2.97255e-11
2.13065e-11
1.12768e-11
5.02703e-12
9.80588e-12
4.85921e-10
1.1846e-10
2.76756e-11
6.45565e-12
2.09519e-12
1.70822e-12
2.26178e-12
2.99173e-12
3.59993e-12
3.7285e-12
2.94756e-12
1.64296e-12
1.10094e-12
9.06273e-12
8.06745e-10
2.20554e-10
5.48385e-11
1.22256e-11
2.3786e-12
4.50004e-13
1.88657e-13
2.28928e-13
3.10856e-13
3.63111e-13
3.13961e-13
1.96397e-13
6.00194e-13
9.22044e-12
1.26409e-09
3.65273e-10
9.30351e-11
2.05113e-11
3.811e-12
5.87859e-13
7.87096e-14
1.98376e-14
2.13509e-14
2.77454e-14
2.65147e-14
2.77289e-14
3.92903e-13
7.24426e-12
1.68917e-09
4.85284e-10
1.2112e-10
2.58305e-11
4.61614e-12
6.81391e-13
8.09854e-14
8.01507e-15
1.60365e-15
1.69089e-15
1.83067e-15
8.38682e-15
2.46231e-13
4.92443e-12
2.07882e-09
5.6482e-10
1.32764e-10
2.66741e-11
4.50637e-12
6.30813e-13
7.14077e-14
6.48829e-15
5.96273e-16
1.90419e-16
1.92763e-16
3.61422e-15
1.36705e-13
3.01199e-12
2.56328e-09
6.44699e-10
1.40124e-10
2.61049e-11
4.10376e-12
5.37193e-13
5.88739e-14
6.762e-15
1.83135e-15
9.82651e-16
5.67607e-16
2.13932e-15
7.77276e-14
1.81946e-12
3.17616e-09
7.37879e-10
1.48009e-10
2.55422e-11
3.74009e-12
4.75686e-13
6.99445e-14
2.55439e-14
1.71152e-14
1.12126e-14
6.6038e-15
4.81718e-15
4.64684e-14
1.09503e-12
3.8808e-09
8.38702e-10
1.56304e-10
2.50576e-11
3.53122e-12
5.87318e-13
2.58163e-13
2.01515e-13
1.59182e-13
1.12261e-13
7.07431e-14
4.56779e-14
5.36871e-14
6.9267e-13
4.65604e-09
9.47086e-10
1.66927e-10
2.57113e-11
4.31149e-12
1.84744e-12
1.68714e-12
1.52861e-12
1.27499e-12
9.56577e-13
6.46435e-13
4.45716e-13
3.04851e-13
5.87742e-13
5.32736e-09
1.03115e-09
1.76027e-10
2.94041e-11
1.01246e-11
9.6676e-12
1.0539e-11
1.00398e-11
8.76865e-12
6.97639e-12
5.06256e-12
3.71811e-12
2.53523e-12
2.03839e-12
5.84411e-09
1.09388e-09
1.93996e-10
5.01726e-11
4.11843e-11
5.01269e-11
5.75299e-11
5.70526e-11
5.21835e-11
4.3948e-11
3.42329e-11
2.64994e-11
1.86875e-11
1.37247e-11
6.17969e-09
1.177e-09
2.61027e-10
1.4699e-10
1.80421e-10
2.31814e-10
2.73685e-10
2.81972e-10
2.7009e-10
2.40506e-10
2.00871e-10
1.63107e-10
1.19637e-10
8.75866e-11
7.86978e-09
1.72162e-09
5.7889e-10
5.44443e-10
7.28429e-10
9.49628e-10
1.14348e-09
1.22201e-09
1.22671e-09
1.15775e-09
1.03311e-09
8.78015e-10
6.70426e-10
4.95052e-10
5.50433e-11
1.37548e-11
4.45463e-12
2.92248e-12
3.36716e-12
4.31251e-12
5.4858e-12
6.53679e-12
7.09309e-12
6.67501e-12
4.91767e-12
2.67159e-12
1.10301e-12
8.07131e-13
7.85755e-11
1.89935e-11
4.28884e-12
9.59909e-13
3.3024e-13
3.15643e-13
4.53274e-13
6.25172e-13
7.71408e-13
8.14827e-13
6.56547e-13
3.74451e-13
1.63184e-13
5.37377e-13
1.50332e-10
3.89526e-11
9.07048e-12
1.88793e-12
3.46716e-13
6.66281e-14
3.5072e-14
4.74258e-14
6.60893e-14
7.81012e-14
6.82876e-14
4.14073e-14
4.46391e-14
6.0668e-13
2.49468e-10
6.72527e-11
1.59206e-11
3.27197e-12
5.72603e-13
8.46123e-14
1.15003e-14
3.72034e-15
4.53915e-15
5.95165e-15
5.68685e-15
4.1438e-15
2.76503e-14
5.66063e-13
3.45545e-10
9.1651e-11
2.11524e-11
4.19555e-12
7.05224e-13
9.91335e-14
1.1458e-14
1.19351e-15
3.38406e-16
3.90107e-16
4.06732e-16
7.44636e-16
1.99532e-14
4.60689e-13
4.27372e-10
1.07061e-10
2.32984e-11
4.3606e-12
6.93575e-13
9.24023e-14
1.01296e-14
9.32038e-16
1.14769e-16
6.17342e-17
6.0919e-17
3.29048e-16
1.3046e-14
3.3341e-13
5.10032e-10
1.18561e-10
2.3919e-11
4.15803e-12
6.15301e-13
7.66275e-14
8.07547e-15
8.8456e-16
2.26153e-16
1.26238e-16
8.3241e-17
2.2963e-16
8.67612e-15
2.358e-13
6.00917e-10
1.29253e-10
2.41241e-11
3.89266e-12
5.36621e-13
6.45262e-14
8.71214e-15
2.84432e-15
1.78921e-15
1.11289e-15
6.28859e-16
4.45443e-16
5.56042e-15
1.55071e-13
6.88383e-10
1.37855e-10
2.39313e-11
3.59322e-12
4.75598e-13
7.36639e-14
3.00455e-14
2.24993e-14
1.69322e-14
1.11763e-14
6.56974e-15
3.83749e-15
5.55908e-15
1.02576e-13
7.61085e-10
1.43446e-10
2.35321e-11
3.38772e-12
5.37734e-13
2.2892e-13
2.0453e-13
1.79358e-13
1.42159e-13
9.91653e-14
6.18501e-14
3.80886e-14
2.41875e-14
7.22287e-14
7.94717e-10
1.42055e-10
2.24469e-11
3.54388e-12
1.28942e-12
1.28485e-12
1.36583e-12
1.25513e-12
1.03746e-12
7.63572e-13
5.06626e-13
3.31442e-13
2.02732e-13
1.5873e-13
7.77816e-10
1.34474e-10
2.22193e-11
6.08963e-12
5.79054e-12
7.23609e-12
8.05991e-12
7.67885e-12
6.61456e-12
5.13117e-12
3.6232e-12
2.49576e-12
1.5735e-12
1.0287e-12
7.12847e-10
1.26285e-10
2.84142e-11
2.02815e-11
2.78749e-11
3.65452e-11
4.18518e-11
4.12578e-11
3.70205e-11
3.02175e-11
2.26851e-11
1.63541e-11
1.06476e-11
6.93033e-12
7.6796e-10
1.62909e-10
6.87433e-11
8.41235e-11
1.23305e-10
1.64428e-10
1.92374e-10
1.95867e-10
1.82983e-10
1.57043e-10
1.24928e-10
9.38086e-11
6.31516e-11
4.15896e-11
5.95218e-12
1.41096e-12
4.77266e-13
3.81077e-13
5.04274e-13
7.06186e-13
9.58964e-13
1.2012e-12
1.34938e-12
1.30403e-12
9.84025e-13
5.52186e-13
2.28885e-13
9.98731e-14
1.20435e-11
2.80595e-12
6.0322e-13
1.29151e-13
4.7081e-14
5.16628e-14
7.96083e-14
1.14535e-13
1.45194e-13
1.56282e-13
1.28024e-13
7.50135e-14
3.0789e-14
3.31426e-14
2.44059e-11
5.99712e-12
1.31605e-12
2.58058e-13
4.51906e-14
9.01397e-15
5.91178e-15
8.69874e-15
1.2422e-14
1.4863e-14
1.31312e-14
8.05916e-15
4.42115e-15
3.50086e-14
4.19315e-11
1.05976e-11
2.34966e-12
4.54396e-13
7.56778e-14
1.08342e-14
1.54693e-15
6.62086e-16
8.79457e-16
1.15586e-15
1.10929e-15
7.47346e-16
1.77764e-15
3.70307e-14
5.88045e-11
1.45553e-11
3.14296e-12
5.87222e-13
9.40175e-14
1.2761e-14
1.4761e-15
1.90066e-16
9.00214e-17
1.03958e-16
1.06483e-16
1.05932e-16
1.3456e-15
3.48631e-14
7.17052e-11
1.67746e-11
3.42362e-12
6.05147e-13
9.17883e-14
1.18138e-14
1.29513e-15
1.47832e-16
4.71281e-17
4.10394e-17
4.0966e-17
5.59076e-17
1.01153e-15
2.91253e-14
8.18688e-11
1.78092e-11
3.38076e-12
5.56857e-13
7.8793e-14
9.50679e-15
1.00444e-15
1.32724e-16
5.45095e-17
4.41816e-17
4.04782e-17
5.0192e-17
7.67863e-16
2.33847e-14
9.06789e-11
1.82847e-11
3.22113e-12
4.93679e-13
6.51999e-14
7.57371e-15
9.83868e-16
3.07627e-16
1.92585e-16
1.26382e-16
8.23026e-17
6.63393e-17
5.58381e-16
1.70612e-14
9.67538e-11
1.81652e-11
2.97891e-12
4.25739e-13
5.39823e-14
7.98212e-15
3.06589e-15
2.20552e-15
1.5893e-15
1.00232e-15
5.66834e-16
3.18856e-16
5.48696e-16
1.2146e-14
9.88953e-11
1.74806e-11
2.70773e-12
3.7128e-13
5.7197e-14
2.44728e-14
2.13477e-14
1.80836e-14
1.36257e-14
8.93608e-15
5.21855e-15
2.94053e-15
1.81861e-15
8.45942e-15
9.4209e-11
1.57984e-11
2.35826e-12
3.62646e-13
1.42572e-13
1.46013e-13
1.50641e-13
1.33245e-13
1.04229e-13
7.16459e-14
4.41238e-14
2.61858e-14
1.46465e-14
1.23221e-14
8.31417e-11
1.35338e-11
2.1463e-12
6.56896e-13
7.0417e-13
8.83128e-13
9.49305e-13
8.66816e-13
7.03132e-13
5.06372e-13
3.2922e-13
2.0492e-13
1.17343e-13
7.02391e-14
6.76268e-11
1.14594e-11
2.78054e-12
2.51439e-12
3.68709e-12
4.81412e-12
5.30568e-12
4.9909e-12
4.19554e-12
3.16151e-12
2.16606e-12
1.40509e-12
8.2675e-13
4.87034e-13
6.48093e-11
1.39572e-11
7.81471e-12
1.15142e-11
1.76962e-11
2.34877e-11
2.63998e-11
2.5521e-11
2.22004e-11
1.74678e-11
1.2564e-11
8.44684e-12
5.11348e-12
3.04548e-12
6.97468e-13
1.55271e-13
4.9794e-14
4.39898e-14
6.49192e-14
9.87859e-14
1.4302e-13
1.88312e-13
2.19245e-13
2.17298e-13
1.67429e-13
9.66968e-14
4.098e-14
1.52173e-14
1.62353e-12
3.62102e-13
7.39764e-14
1.51616e-14
5.87657e-15
7.29532e-15
1.19773e-14
1.79632e-14
2.34372e-14
2.57387e-14
2.14057e-14
1.28539e-14
5.39054e-15
2.65662e-15
3.40404e-12
7.93117e-13
1.64601e-13
3.05921e-14
5.16272e-15
1.10767e-15
8.94568e-16
1.39511e-15
2.03138e-15
2.46187e-15
2.19978e-15
1.38308e-15
6.29729e-16
1.85205e-15
5.97532e-12
1.42156e-12
2.96853e-13
5.43794e-14
8.69067e-15
1.2362e-15
2.12834e-16
1.30141e-16
1.7261e-16
2.19566e-16
2.12746e-16
1.51906e-16
1.4658e-16
2.07122e-15
8.39143e-12
1.95421e-12
3.98131e-13
7.06759e-14
1.08816e-14
1.46147e-15
1.96069e-16
5.5066e-17
4.51711e-17
4.79224e-17
4.83091e-17
4.55126e-17
1.05001e-16
2.18121e-15
9.99895e-12
2.20657e-12
4.26624e-13
7.19703e-14
1.05291e-14
1.34682e-15
1.74644e-16
4.91e-17
3.81783e-17
3.75685e-17
3.75739e-17
3.81262e-17
9.29744e-17
2.06318e-15
1.08998e-11
2.24509e-12
4.05696e-13
6.40855e-14
8.7898e-15
1.06402e-15
1.39673e-16
4.65695e-17
3.84282e-17
3.74937e-17
3.72149e-17
3.76945e-17
8.48395e-17
1.87142e-15
1.13236e-11
2.16915e-12
3.65379e-13
5.39063e-14
6.93429e-15
8.1312e-16
1.27844e-16
5.89547e-17
4.82052e-17
4.29375e-17
3.978e-17
3.87363e-17
7.66315e-17
1.53246e-15
1.12429e-11
2.00941e-12
3.16091e-13
4.36541e-14
5.40094e-15
7.87293e-16
2.97289e-16
2.12854e-16
1.56364e-16
1.06788e-16
7.23626e-17
5.39796e-17
7.93268e-17
1.22872e-15
1.0608e-11
1.7876e-12
2.65866e-13
3.53297e-14
5.33511e-15
2.25358e-15
1.9078e-15
1.56597e-15
1.1347e-15
7.17947e-16
4.10215e-16
2.29632e-16
1.57707e-16
9.42166e-16
9.24146e-12
1.48186e-12
2.12992e-13
3.24238e-14
1.3533e-14
1.39556e-14
1.39503e-14
1.18871e-14
8.84676e-15
5.74956e-15
3.341e-15
1.8463e-15
9.80965e-16
1.01446e-15
7.40593e-12
1.15804e-12
1.80477e-13
6.23601e-14
7.23454e-14
8.98351e-14
9.30803e-14
8.14943e-14
6.25507e-14
4.22516e-14
2.56372e-14
1.46967e-14
7.79664e-15
4.43388e-15
5.43882e-12
9.01584e-13
2.45833e-13
2.70265e-13
4.08831e-13
5.24822e-13
5.55211e-13
4.98319e-13
3.94398e-13
2.76945e-13
1.75511e-13
1.04303e-13
5.64658e-14
3.07151e-14
4.77423e-12
1.08935e-12
8.14586e-13
1.35144e-12
2.11713e-12
2.7555e-12
2.96124e-12
2.71643e-12
2.21239e-12
1.61115e-12
1.06246e-12
6.51183e-13
3.60997e-13
1.97594e-13
7.67996e-14
1.60672e-14
4.75405e-15
4.43067e-15
7.17312e-15
1.17891e-14
1.814e-14
2.50744e-14
3.02615e-14
3.0754e-14
2.41208e-14
1.42599e-14
6.20624e-15
2.23601e-15
1.90619e-13
4.05377e-14
7.90172e-15
1.57538e-15
6.6414e-16
9.08286e-16
1.5604e-15
2.42266e-15
3.24698e-15
3.63741e-15
3.07004e-15
1.88939e-15
8.30197e-16
3.26158e-16
4.09307e-13
9.05525e-14
1.78741e-14
3.19004e-15
5.46678e-16
1.49668e-16
1.44419e-16
2.18105e-16
3.10615e-16
3.75655e-16
3.41953e-16
2.29134e-16
1.1976e-16
1.29122e-16
7.27982e-13
1.63923e-13
3.24888e-14
5.7e-15
9.03633e-16
1.53972e-16
5.51347e-17
4.89667e-17
5.55684e-17
6.24269e-17
6.15785e-17
5.3049e-17
4.58943e-17
1.33486e-16
1.01826e-12
2.2486e-13
4.35938e-14
7.42877e-15
1.13096e-15
1.76791e-16
5.23824e-17
3.88382e-17
3.80307e-17
3.84638e-17
3.85198e-17
3.80405e-17
3.99452e-17
1.4973e-16
1.18048e-12
2.47894e-13
4.58078e-14
7.44764e-15
1.08224e-15
1.63985e-16
5.00597e-17
3.81003e-17
3.70574e-17
3.70078e-17
3.70121e-17
3.70185e-17
3.95696e-17
1.57514e-16
1.22897e-12
2.41848e-13
4.19534e-14
6.41964e-15
8.83778e-16
1.33719e-16
4.63883e-17
3.77925e-17
3.70387e-17
3.69623e-17
3.69445e-17
3.69658e-17
3.9585e-17
1.59827e-16
1.19826e-12
2.20219e-13
3.57734e-14
5.14088e-15
6.72906e-16
1.06102e-16
4.44664e-17
3.84907e-17
3.76441e-17
3.72913e-17
3.70936e-17
3.70317e-17
3.96311e-17
1.50893e-16
1.10909e-12
1.90669e-13
2.90297e-14
3.92621e-15
5.01738e-16
9.77925e-17
5.57192e-17
4.86867e-17
4.4411e-17
4.10211e-17
3.88753e-17
3.78324e-17
4.02744e-17
1.42055e-16
9.68059e-13
1.57305e-13
2.26995e-14
2.96625e-15
4.6254e-16
2.07486e-16
1.75696e-16
1.46128e-16
1.11493e-16
8.03271e-17
5.88046e-17
4.70638e-17
4.43724e-17
1.28561e-16
7.75437e-13
1.20255e-13
1.68233e-14
2.56138e-15
1.12629e-15
1.15691e-15
1.12535e-15
9.32223e-16
6.73184e-16
4.28575e-16
2.49999e-16
1.44574e-16
8.91899e-17
1.19797e-16
5.68885e-13
8.64468e-14
1.339e-14
5.16343e-15
6.29451e-15
7.70134e-15
7.72522e-15
6.51612e-15
4.77511e-15
3.06651e-15
1.76556e-15
9.58857e-16
4.91588e-16
2.90527e-16
3.81377e-13
6.26235e-14
1.9482e-14
2.47623e-14
3.79584e-14
4.77453e-14
4.86871e-14
4.18779e-14
3.14374e-14
2.07933e-14
1.23367e-14
6.82698e-15
3.46159e-15
1.78298e-15
3.11707e-13
7.77692e-14
7.50527e-14
1.33882e-13
2.10693e-13
2.67671e-13
2.76105e-13
2.41511e-13
1.85551e-13
1.26421e-13
7.74308e-14
4.39182e-14
2.26314e-14
1.15741e-14
7.56942e-15
1.5221e-15
4.34451e-16
4.14638e-16
7.0744e-16
1.22839e-15
1.98522e-15
2.86369e-15
3.57285e-15
3.72097e-15
2.96853e-15
1.79496e-15
8.14537e-16
3.13102e-16
1.94943e-14
3.97788e-15
7.66731e-16
1.73499e-16
9.4517e-17
1.25276e-16
2.01455e-16
3.06258e-16
4.11013e-16
4.65815e-16
4.0244e-16
2.62789e-16
1.3542e-16
7.1067e-17
4.26573e-14
9.00754e-15
1.72231e-15
3.21542e-16
8.13734e-17
4.73058e-17
4.83497e-17
5.73476e-17
6.87924e-17
7.71991e-17
7.34955e-17
6.01051e-17
4.69848e-17
4.23683e-17
7.65418e-14
1.64133e-14
3.1274e-15
5.52893e-16
1.12985e-16
4.69285e-17
3.85775e-17
3.82559e-17
3.90976e-17
3.99494e-17
3.986e-17
3.88462e-17
3.78409e-17
4.08345e-17
1.06428e-13
2.24288e-14
4.18246e-15
7.1209e-16
1.33362e-16
4.89087e-17
3.82224e-17
3.70876e-17
3.70384e-17
3.70961e-17
3.71048e-17
3.70473e-17
3.70909e-17
4.20968e-17
1.19997e-13
2.41365e-14
4.30827e-15
7.02904e-16
1.27659e-16
4.76274e-17
3.80084e-17
3.70077e-17
3.69224e-17
3.69211e-17
3.69236e-17
3.69244e-17
3.70571e-17
4.34596e-17
1.19547e-13
2.26314e-14
3.81262e-15
5.92553e-16
1.08109e-16
4.48041e-17
3.76803e-17
3.69776e-17
3.69175e-17
3.69136e-17
3.69143e-17
3.69176e-17
3.70763e-17
4.46267e-17
1.09969e-13
1.95376e-14
3.09979e-15
4.60751e-16
8.76923e-17
4.22396e-17
3.74727e-17
3.70093e-17
3.69508e-17
3.69314e-17
3.69219e-17
3.69213e-17
3.71108e-17
4.5272e-17
9.53335e-14
1.58989e-14
2.37911e-15
3.4166e-16
7.15671e-17
4.11624e-17
3.809e-17
3.75971e-17
3.73302e-17
3.7134e-17
3.7016e-17
3.69633e-17
3.71906e-17
4.5935e-17
7.74251e-14
1.22466e-14
1.74866e-15
2.50868e-16
6.61238e-17
4.79653e-17
4.54816e-17
4.33183e-17
4.10345e-17
3.91707e-17
3.79942e-17
3.74e-17
3.74275e-17
4.58562e-17
5.74274e-14
8.69957e-15
1.2149e-15
2.09318e-16
1.11984e-16
1.13098e-16
1.08638e-16
9.34771e-17
7.4922e-17
5.86796e-17
4.77281e-17
4.184e-17
3.92735e-17
4.44957e-17
3.89223e-14
5.8082e-15
9.19561e-16
4.03071e-16
4.97571e-16
5.91639e-16
5.76485e-16
4.74842e-16
3.42605e-16
2.21874e-16
1.35517e-16
8.50386e-17
5.83087e-17
4.97179e-17
2.40446e-14
3.95578e-15
1.41231e-15
1.97337e-15
3.01903e-15
3.70683e-15
3.65267e-15
3.02403e-15
2.17352e-15
1.3749e-15
7.83112e-16
4.21605e-16
2.1764e-16
1.2305e-16
1.84668e-14
5.14779e-15
6.08361e-15
1.13244e-14
1.7744e-14
2.1952e-14
2.17842e-14
1.82335e-14
1.33049e-14
8.56421e-15
4.93563e-15
2.6339e-15
1.29055e-15
6.39796e-16
6.79503e-16
1.57397e-16
6.60073e-17
6.36289e-17
8.93871e-17
1.38666e-16
2.14439e-16
3.07609e-16
3.88131e-16
4.1236e-16
3.4013e-16
2.20757e-16
1.19309e-16
6.62694e-17
1.75004e-15
3.68921e-16
9.57895e-17
4.74791e-17
4.13957e-17
4.43639e-17
5.17604e-17
6.25147e-17
7.38405e-17
8.03545e-17
7.43989e-17
6.02398e-17
4.71982e-17
4.04664e-17
3.8634e-15
8.0723e-16
1.75636e-16
5.94038e-17
4.03055e-17
3.77402e-17
3.79478e-17
3.8865e-17
4.00603e-17
4.09804e-17
4.06383e-17
3.92837e-17
3.79522e-17
3.73422e-17
6.97297e-15
1.45731e-15
2.93948e-16
7.81904e-17
4.2787e-17
3.76546e-17
3.70328e-17
3.7028e-17
3.71189e-17
3.72105e-17
3.7205e-17
3.71046e-17
3.70005e-17
3.70977e-17
9.63925e-15
1.97538e-15
3.81784e-16
9.10138e-17
4.43916e-17
3.78085e-17
3.6996e-17
3.69137e-17
3.69136e-17
3.69219e-17
3.69252e-17
3.69217e-17
3.69227e-17
3.71657e-17
1.05969e-14
2.07888e-15
3.85633e-16
8.92643e-17
4.38151e-17
3.77027e-17
3.69794e-17
3.69067e-17
3.69024e-17
3.69046e-17
3.69072e-17
3.69097e-17
3.69194e-17
3.72753e-17
1.01463e-14
1.88373e-15
3.35057e-16
7.9061e-17
4.21367e-17
3.74769e-17
3.69545e-17
3.69049e-17
3.69025e-17
3.69045e-17
3.69068e-17
3.69094e-17
3.69218e-17
3.73942e-17
8.86468e-15
1.55578e-15
2.67627e-16
6.74028e-17
4.04499e-17
3.72738e-17
3.69374e-17
3.69067e-17
3.69049e-17
3.6906e-17
3.69077e-17
3.69102e-17
3.69263e-17
3.75086e-17
7.24991e-15
1.20441e-15
2.03521e-16
5.74178e-17
3.91789e-17
3.71732e-17
3.69667e-17
3.69377e-17
3.69248e-17
3.69166e-17
3.69128e-17
3.69129e-17
3.69349e-17
3.76482e-17
5.52675e-15
8.80543e-16
1.50711e-16
5.01773e-17
3.86683e-17
3.7529e-17
3.73665e-17
3.72391e-17
3.71141e-17