/*--------------------------------*- C++ -*----------------------------------*\
| =========                 |                                                 |
| \\      /  F ield         | OpenFOAM: The Open Source CFD Toolbox           |
|  \\    /   O peration     | Version:  v2106                                 |
|   \\  /    A nd           | Website:  www.openfoam.com                      |
|    \\/     M anipulation  |                                                 |
\*---------------------------------------------------------------------------*/
FoamFile
{
    version     2.0;
    format      ascii;
    arch        "LSB;label=32;scalar=64";
    class       volScalarField;
    location    "0.000143";
    object      T;
}
// * * * * * * * * * * * * * * * * * * * * * * * * * * * * * * * * * * * * * //

dimensions      [0 0 0 1 0 0 0];

internalField   nonuniform List<scalar> 
18109
(
302.618
302.841
303.023
303.18
303.36
303.523
303.683
302.886
302.912
303.024
303.137
303.281
303.416
303.56
303.109
303.025
303.101
303.125
303.228
303.328
303.471
303.235
303.091
303.14
303.117
303.205
303.279
303.395
303.297
303.162
303.17
303.125
303.191
303.235
303.338
303.31
303.189
303.145
303.103
303.143
303.173
303.269
303.237
303.14
303.073
303.037
303.068
303.099
303.194
303.152
303.065
303.003
302.963
302.979
303.017
303.113
303.464
303.627
303.776
303.906
304.049
304.181
304.299
304.417
304.517
304.631
304.72
304.804
304.805
304.759
303.672
303.674
303.775
303.87
303.981
304.079
304.198
304.313
304.41
304.523
304.595
304.675
304.717
304.729
303.855
303.776
303.847
303.87
303.955
304.026
304.126
304.233
304.332
304.464
304.57
304.681
304.747
304.792
303.961
303.849
303.89
303.87
303.939
303.991
304.074
304.173
304.274
304.407
304.521
304.645
304.739
304.84
304.023
303.921
303.921
303.883
303.933
303.963
304.035
304.126
304.23
304.368
304.497
304.633
304.743
304.857
304.041
303.947
303.906
303.871
303.901
303.923
303.993
304.079
304.183
304.317
304.451
304.595
304.722
304.852
303.982
303.904
303.848
303.82
303.843
303.87
303.939
304.026
304.132
304.267
304.402
304.55
304.691
304.838
303.908
303.832
303.782
303.755
303.769
303.803
303.875
303.965
304.072
304.205
304.336
304.485
304.633
304.797
303.761
303.698
303.662
303.646
303.669
303.72
303.802
303.899
304.011
304.144
304.269
304.421
304.559
304.739
303.591
303.55
303.537
303.544
303.593
303.662
303.754
303.855
303.964
304.091
304.206
304.356
304.472
304.666
303.365
303.356
303.382
303.423
303.494
303.584
303.695
303.809
303.922
304.042
304.146
304.288
304.38
304.588
303.142
303.185
303.278
303.376
303.481
303.587
303.701
303.812
303.912
304.009
304.096
304.21
304.283
304.497
302.918
303.016
303.145
303.275
303.42
303.563
303.696
303.812
303.911
303.994
304.064
304.142
304.2
304.362
302.695
302.923
303.16
303.345
303.496
303.633
303.753
303.859
303.942
304.002
304.043
304.081
304.111
304.224
302.109
301.429
300.1
298.052
295.625
293.177
303.162
302.874
302.266
301.17
299.589
297.724
303.485
303.087
302.462
301.403
299.808
297.957
303.679
303.422
302.941
302.082
300.722
299.028
303.897
303.744
303.44
302.821
301.803
300.569
304.113
304.077
303.97
303.615
302.998
302.271
304.277
304.347
304.388
304.29
304.049
303.781
304.443
304.593
304.742
304.848
304.911
305.02
304.576
304.773
304.992
305.239
305.523
305.897
304.669
304.879
305.131
305.464
305.893
306.428
304.752
304.973
305.233
305.605
306.078
306.684
304.803
304.994
305.229
305.593
306.039
306.63
304.802
304.962
305.147
305.436
305.769
306.181
304.775
304.946
305.074
305.236
305.376
305.49
304.79
304.85
304.826
304.843
304.765
304.557
304.632
304.654
304.608
304.529
304.261
303.71
304.717
304.633
304.533
304.334
303.963
303.233
304.793
304.735
304.618
304.396
303.994
303.279
304.898
304.875
304.808
304.642
304.273
303.676
304.967
305.017
305.006
304.933
304.7
304.333
304.99
305.109
305.193
305.227
305.176
305.068
305.009
305.174
305.334
305.486
305.602
305.721
304.979
305.176
305.4
305.66
305.93
306.254
304.926
305.159
305.422
305.746
306.12
306.57
304.827
305.058
305.33
305.692
306.119
306.655
304.702
304.897
305.14
305.492
305.897
306.429
304.563
304.73
304.913
305.175
305.454
305.79
304.412
304.562
304.663
304.789
304.868
304.913
304.323
304.342
304.298
304.254
304.103
303.791
304.05
304.058
303.964
303.811
303.447
302.818
304.069
303.97
303.84
303.584
303.135
302.378
304.043
303.976
303.839
303.587
303.134
302.415
304.038
304.014
303.924
303.73
303.327
302.765
304.038
304.073
304.067
303.995
303.783
303.452
304.014
304.106
304.193
304.243
304.227
304.162
303.961
304.107
304.272
304.451
304.625
304.808
303.867
304.047
304.28
304.561
304.891
305.252
303.73
303.906
304.17
304.512
304.934
305.399
303.539
303.676
303.913
304.243
304.643
305.054
303.322
303.411
303.558
303.738
303.865
303.901
303.053
303.05
303.002
302.886
302.564
301.937
302.849
302.681
302.31
301.739
300.807
299.438
302.468
302.045
301.382
300.375
298.982
297.22
303.22
303.328
303.415
303.41
303.112
302.469
302.984
302.939
302.691
302.116
300.99
299.342
302.763
302.464
301.665
300.341
298.36
295.903
302.278
301.575
300.332
298.499
296.18
293.592
302.302
301.831
300.989
299.692
298.097
296.346
302.643
302.05
301.217
299.89
298.296
296.55
302.934
302.466
301.751
300.62
299.178
297.643
303.252
302.901
302.368
301.511
300.429
299.338
303.574
303.379
303.054
302.509
301.837
301.229
303.798
303.736
303.614
303.391
303.148
303.017
303.986
304.042
304.096
304.124
304.213
304.436
304.081
304.218
304.392
304.599
304.927
305.357
304.143
304.305
304.521
304.824
305.245
305.754
304.083
304.225
304.436
304.759
305.161
305.606
303.939
304.045
304.211
304.422
304.601
304.688
303.76
303.799
303.811
303.751
303.541
302.997
303.624
303.587
303.348
302.875
302.066
300.784
303.34
303.067
302.568
301.724
300.438
298.677
294.215
289.515
286.653
285.316
284.267
294.674
290.734
288.69
287.971
287.018
296.426
293.663
292.585
292.441
291.548
298.932
297.31
296.786
296.574
294.527
301.427
300.65
300.467
300.013
296.419
303.597
303.479
303.636
302.931
298.233
305.325
305.792
306.176
305.413
300.582
306.561
307.378
307.865
307.183
302.328
291.382
307.301
308.298
308.82
308.156
303.403
291.978
307.601
308.622
309.102
308.494
304.301
293.969
307.458
308.29
308.519
307.648
304.396
296.433
286.157
306.548
306.662
306.208
304.769
302.04
297.65
291.248
281.193
305.111
303.956
301.953
298.965
295.68
293.659
294.284
297.871
303.266
300.604
296.877
292.818
288.467
284.719
284.905
285.645
301.825
298.462
294.251
289.984
285.62
280.642
273.774
270.342
301.333
298.001
294.155
290.353
286.292
281.969
274.678
269.664
301.503
298.563
295.579
292.956
290.401
287.322
282.956
275.691
302.238
300.159
298.096
296.224
293.738
289.224
285.024
281.088
303.507
302.272
301.112
299.843
297.058
290.556
281.305
271.582
304.758
304.282
303.885
303.163
299.941
292.184
280.428
270.738
305.855
306.019
306.185
305.671
302.609
294.848
284.058
271.516
306.756
307.356
307.717
307.417
304.398
296.252
284.55
275.965
307.285
308.116
308.568
308.304
305.281
296.686
307.465
308.337
308.73
308.477
305.721
297.557
307.148
307.827
308.034
307.427
305.147
298.76
306.019
305.979
305.492
304.287
302.396
299.37
304.405
303.151
301.219
298.702
296.315
295.07
302.46
299.83
296.604
293.2
289.685
301.079
297.911
294.436
290.886
287.08
300.633
297.563
294.403
291.273
287.43
300.746
298.154
295.674
293.477
290.714
301.497
299.696
297.964
296.262
293.262
302.738
301.698
300.721
299.466
295.804
303.953
303.595
303.262
302.38
297.933
305.014
305.17
305.187
304.224
299.708
305.716
306.121
306.151
305.139
300.69
305.948
306.312
306.23
304.963
300.17
305.318
305.225
304.533
302.585
298.279
303.291
302.082
300.279
297.694
294.708
300.057
297.095
294.118
291.797
290.548
296.383
292.062
289.161
287.457
286.884
293.886
289.529
286.769
285.52
285.293
293.335
289.612
287.754
287.136
286.244
293.888
290.929
289.918
289.995
288.979
295.69
293.858
293.618
294.023
292.643
298.259
297.388
297.394
297.453
294.495
300.826
300.652
300.849
300.164
295.294
303.088
303.418
303.734
302.305
295.984
304.918
305.496
305.683
303.902
297.373
305.996
306.564
306.555
304.675
298.214
306.371
306.832
306.618
304.518
298.157
305.88
305.824
304.964
302.441
297.123
304.075
302.824
300.885
298.006
294.543
301.02
297.919
294.668
291.963
290.218
297.513
292.705
289.075
286.959
286.154
294.939
289.748
286.221
284.465
284.032
304.628
304.686
304.776
304.853
304.933
305.008
305.096
305.197
305.281
305.389
305.465
305.563
305.596
305.595
304.761
304.721
304.787
304.821
304.879
304.945
305.024
305.109
305.186
305.289
305.354
305.432
305.477
305.525
304.881
304.795
304.831
304.825
304.875
304.908
304.972
305.044
305.12
305.227
305.311
305.409
305.462
305.523
304.932
304.84
304.848
304.817
304.858
304.882
304.94
305.002
305.073
305.173
305.258
305.358
305.428
305.513
304.952
304.876
304.856
304.824
304.849
304.864
304.914
304.97
305.042
305.141
305.232
305.336
305.419
305.514
304.928
304.868
304.83
304.805
304.822
304.837
304.886
304.941
305.012
305.108
305.204
305.31
305.404
305.498
304.883
304.828
304.792
304.776
304.791
304.809
304.857
304.914
304.986
305.081
305.176
305.284
305.383
305.483
304.804
304.754
304.726
304.718
304.735
304.765
304.818
304.88
304.955
305.049
305.141
305.246
305.343
305.455
304.688
304.641
304.635
304.639
304.668
304.711
304.772
304.842
304.921
305.016
305.103
305.209
305.301
305.424
304.554
304.531
304.543
304.567
304.616
304.672
304.74
304.815
304.895
304.987
305.067
305.173
305.252
305.386
304.4
304.395
304.43
304.476
304.544
304.617
304.7
304.784
304.868
304.957
305.031
305.135
305.199
305.345
304.25
304.282
304.365
304.443
304.53
304.613
304.7
304.782
304.858
304.935
305.001
305.094
305.147
305.307
304.098
304.17
304.277
304.383
304.496
304.6
304.695
304.779
304.856
304.922
304.979
305.054
305.099
305.231
304
304.153
304.317
304.441
304.548
304.645
304.731
304.804
304.87
304.918
304.959
305.009
305.046
305.153
305.896
305.849
305.865
305.874
305.895
305.915
305.962
306.009
306.066
306.149
306.215
306.309
306.36
306.418
305.93
305.86
305.864
305.849
305.863
305.872
305.909
305.944
305.994
306.065
306.12
306.191
306.238
306.302
305.959
305.884
305.877
305.848
305.855
305.849
305.874
305.902
305.943
306.007
306.065
306.138
306.195
306.254
305.932
305.872
305.858
305.827
305.831
305.824
305.845
305.868
305.903
305.956
306.01
306.075
306.134
306.199
305.894
305.854
305.834
305.812
305.815
305.808
305.824
305.843
305.875
305.924
305.977
306.043
306.103
306.168
305.829
305.795
305.779
305.767
305.772
305.774
305.792
305.813
305.845
305.892
305.943
306.006
306.068
306.132
305.761
305.737
305.729
305.727
305.735
305.744
305.764
305.786
305.819
305.865
305.913
305.975
306.037
306.105
305.676
305.656
305.661
305.669
305.685
305.702
305.726
305.752
305.787
305.832
305.877
305.938
305.998
306.07
305.572
305.563
305.582
305.602
305.629
305.653
305.682
305.712
305.748
305.793
305.837
305.899
305.958
306.04
305.486
305.483
305.515
305.544
305.581
305.61
305.642
305.672
305.707
305.751
305.795
305.861
305.918
306.011
305.383
305.394
305.437
305.473
305.516
305.552
305.589
305.624
305.663
305.71
305.756
305.827
305.881
305.986
305.307
305.338
305.396
305.44
305.488
305.525
305.563
305.595
305.63
305.676
305.722
305.797
305.854
305.979
305.24
305.288
305.349
305.398
305.45
305.492
305.535
305.57
305.606
305.652
305.7
305.777
305.833
305.959
305.238
305.305
305.383
305.426
305.467
305.499
305.54
305.571
305.606
305.647
305.69
305.757
305.821
305.95
306.803
306.763
306.751
306.735
306.735
306.725
306.734
306.738
306.759
306.784
306.812
306.854
306.894
306.934
306.79
306.747
306.739
306.719
306.714
306.698
306.699
306.696
306.706
306.72
306.735
306.761
306.786
306.817
306.774
306.743
306.741
306.719
306.708
306.686
306.678
306.666
306.666
306.671
306.679
306.698
306.725
306.753
306.724
306.709
306.707
306.691
306.68
306.659
306.647
306.631
306.624
306.621
306.621
306.63
306.651
306.678
306.683
306.677
306.675
306.666
306.655
306.634
306.618
306.598
306.585
306.578
306.574
306.583
306.603
306.629
306.608
306.612
306.617
306.616
306.609
306.591
306.575
306.555
306.54
306.53
306.525
306.533
306.552
306.578
306.535
306.546
306.559
306.563
306.559
306.543
306.527
306.507
306.492
306.483
306.479
306.49
306.509
306.54
306.455
306.471
306.49
306.499
306.499
306.485
306.47
306.452
306.437
306.429
306.427
306.442
306.464
306.501
306.368
306.386
306.412
306.424
306.427
306.416
306.404
306.388
306.376
306.371
306.374
306.395
306.422
306.468
306.293
306.309
306.339
306.353
306.358
306.348
306.337
306.322
306.311
306.309
306.317
306.346
306.378
306.435
306.214
306.227
306.255
306.268
306.275
306.267
306.26
306.249
306.242
306.248
306.264
306.303
306.341
306.41
306.152
306.169
306.199
306.211
306.214
306.203
306.196
306.187
306.183
306.193
306.215
306.262
306.309
306.394
306.095
306.109
306.132
306.142
306.145
306.137
306.134
306.129
306.131
306.149
306.179
306.238
306.29
306.388
306.089
306.098
306.121
306.121
306.113
306.103
306.1
306.097
306.102
306.122
306.153
306.214
306.268
306.386
307.208
307.204
307.206
307.206
307.215
307.217
307.226
307.23
307.24
307.247
307.254
307.267
307.285
307.306
307.181
307.178
307.185
307.184
307.192
307.193
307.198
307.196
307.196
307.193
307.191
307.194
307.201
307.21
307.166
307.17
307.179
307.18
307.182
307.178
307.173
307.162
307.152
307.14
307.131
307.128
307.131
307.135
307.128
307.142
307.151
307.154
307.154
307.149
307.139
307.123
307.106
307.087
307.071
307.062
307.059
307.061
307.096
307.112
307.122
307.127
307.125
307.116
307.1
307.079
307.056
307.034
307.014
307.002
306.999
307
307.044
307.065
307.077
307.084
307.081
307.071
307.052
307.028
307.003
306.979
306.958
306.945
306.941
306.942
306.987
307.01
307.025
307.033
307.031
307.019
306.998
306.973
306.947
306.924
306.905
306.894
306.892
306.897
306.925
306.948
306.968
306.976
306.974
306.961
306.94
306.915
306.889
306.868
306.85
306.844
306.844
306.852
306.855
306.878
306.9
306.909
306.909
306.896
306.877
306.853
306.83
306.812
306.799
306.799
306.802
306.816
306.791
306.812
306.836
306.844
306.844
306.832
306.814
306.791
306.77
306.755
306.746
306.751
306.758
306.779
306.722
306.739
306.762
306.769
306.771
306.761
306.746
306.727
306.711
306.701
306.698
306.71
306.723
306.753
306.663
306.679
306.701
306.708
306.709
306.699
306.685
306.668
306.654
306.648
306.65
306.668
306.688
306.725
306.602
306.613
306.631
306.639
306.642
306.635
306.624
306.612
306.604
306.604
306.614
306.641
306.668
306.715
306.57
306.575
306.588
306.592
306.591
306.584
306.576
306.567
306.562
306.569
306.583
306.612
306.641
306.7
307.312
307.317
307.328
307.34
307.354
307.367
307.382
307.394
307.408
307.418
307.43
307.445
307.46
307.48
307.272
307.277
307.288
307.303
307.319
307.334
307.349
307.361
307.373
307.382
307.391
307.403
307.415
307.43
307.24
307.25
307.261
307.277
307.29
307.305
307.315
307.324
307.332
307.338
307.344
307.354
307.366
307.378
307.203
307.214
307.225
307.242
307.253
307.267
307.276
307.283
307.289
307.292
307.296
307.303
307.313
307.324
307.168
307.18
307.191
307.206
307.217
307.228
307.235
307.239
307.242
307.244
307.246
307.251
307.259
307.267
307.128
307.143
307.154
307.169
307.178
307.187
307.192
307.194
307.195
307.195
307.195
307.199
307.204
307.211
307.085
307.101
307.114
307.129
307.138
307.146
307.148
307.149
307.149
307.148
307.148
307.151
307.155
307.16
307.042
307.059
307.074
307.088
307.097
307.104
307.106
307.106
307.104
307.103
307.102
307.105
307.107
307.112
306.995
307.011
307.029
307.044
307.054
307.061
307.063
307.064
307.063
307.063
307.063
307.066
307.067
307.072
306.95
306.966
306.986
307.002
307.013
307.021
307.024
307.024
307.023
307.023
307.023
307.026
307.027
307.03
306.902
306.918
306.938
306.955
306.97
306.979
306.985
306.987
306.987
306.988
306.988
306.993
306.994
306.998
306.858
306.877
306.9
306.919
306.933
306.944
306.949
306.951
306.951
306.953
306.952
306.957
306.958
306.961
306.815
306.832
306.855
306.875
306.892
306.905
306.913
306.917
306.918
306.921
306.923
306.929
306.933
306.937
306.779
306.799
306.82
306.841
306.857
306.87
306.878
306.883
306.886
306.89
306.892
306.899
306.902
306.907
307.301
307.306
307.314
307.327
307.34
307.354
307.369
307.383
307.398
307.411
307.425
307.442
307.457
307.479
307.258
307.265
307.274
307.29
307.305
307.322
307.339
307.356
307.373
307.388
307.404
307.423
307.441
307.462
307.223
307.233
307.242
307.259
307.274
307.292
307.309
307.327
307.345
307.362
307.38
307.4
307.419
307.441
307.188
307.199
307.209
307.227
307.242
307.262
307.28
307.298
307.317
307.335
307.354
307.375
307.396
307.418
307.155
307.167
307.178
307.196
307.212
307.232
307.251
307.27
307.29
307.31
307.33
307.351
307.372
307.393
307.123
307.136
307.148
307.167
307.183
307.204
307.222
307.243
307.263
307.283
307.303
307.325
307.346
307.367
307.092
307.106
307.119
307.137
307.154
307.175
307.194
307.216
307.236
307.258
307.278
307.3
307.319
307.339
307.063
307.076
307.091
307.109
307.127
307.148
307.168
307.189
307.21
307.231
307.251
307.271
307.289
307.308
307.032
307.046
307.062
307.082
307.101
307.123
307.144
307.166
307.186
307.207
307.225
307.244
307.258
307.274
307.004
307.019
307.037
307.058
307.079
307.102
307.122
307.143
307.162
307.181
307.196
307.213
307.223
307.235
306.976
306.992
307.012
307.034
307.056
307.08
307.101
307.122
307.139
307.156
307.169
307.182
307.188
307.196
306.952
306.971
306.992
307.016
307.038
307.061
307.081
307.1
307.115
307.129
307.138
307.148
307.15
307.153
306.926
306.946
306.968
306.993
307.016
307.039
307.059
307.077
307.09
307.102
307.109
307.114
307.114
307.114
306.904
306.927
306.95
306.975
306.996
307.017
307.035
307.051
307.062
307.072
307.076
307.08
307.076
307.069
307.238
307.249
307.258
307.268
307.277
307.287
307.297
307.308
307.321
307.335
307.35
307.369
307.384
307.406
307.204
307.215
307.226
307.237
307.248
307.26
307.273
307.288
307.305
307.322
307.341
307.362
307.383
307.406
307.175
307.188
307.198
307.21
307.222
307.236
307.252
307.27
307.289
307.309
307.331
307.354
307.377
307.402
307.146
307.159
307.17
307.185
307.199
307.215
307.233
307.253
307.274
307.296
307.32
307.345
307.369
307.395
307.118
307.132
307.145
307.161
307.177
307.196
307.217
307.239
307.262
307.286
307.31
307.336
307.361
307.387
307.093
307.108
307.123
307.141
307.159
307.181
307.203
307.226
307.25
307.275
307.3
307.326
307.352
307.379
307.071
307.086
307.103
307.123
307.144
307.167
307.191
307.216
307.241
307.266
307.292
307.318
307.344
307.37
307.053
307.07
307.089
307.111
307.134
307.158
307.182
307.207
307.232
307.257
307.282
307.308
307.333
307.359
307.038
307.057
307.078
307.101
307.124
307.149
307.174
307.199
307.223
307.248
307.272
307.296
307.319
307.344
307.027
307.048
307.069
307.093
307.117
307.141
307.166
307.19
307.214
307.237
307.259
307.282
307.302
307.325
307.016
307.038
307.06
307.084
307.108
307.133
307.157
307.181
307.203
307.225
307.245
307.266
307.282
307.302
307.007
307.03
307.052
307.076
307.1
307.125
307.148
307.171
307.191
307.211
307.229
307.247
307.259
307.275
306.995
307.019
307.042
307.066
307.09
307.115
307.137
307.158
307.177
307.195
307.21
307.225
307.233
307.244
306.987
307.015
307.038
307.061
307.083
307.105
307.125
307.144
307.16
307.176
307.188
307.198
307.203
307.204
307.079
307.088
307.096
307.105
307.114
307.126
307.139
307.154
307.171
307.188
307.205
307.223
307.238
307.257
307.057
307.068
307.077
307.089
307.102
307.117
307.133
307.151
307.17
307.19
307.209
307.23
307.249
307.27
307.04
307.051
307.063
307.077
307.093
307.11
307.129
307.15
307.171
307.193
307.215
307.238
307.259
307.281
307.025
307.038
307.052
307.069
307.087
307.107
307.128
307.15
307.174
307.197
307.221
307.246
307.269
307.293
307.013
307.028
307.044
307.063
307.083
307.105
307.128
307.152
307.177
307.202
307.227
307.253
307.278
307.303
307.004
307.021
307.04
307.06
307.082
307.105
307.129
307.154
307.18
307.206
307.232
307.258
307.284
307.311
306.997
307.017
307.037
307.059
307.082
307.106
307.131
307.157
307.183
307.209
307.236
307.262
307.288
307.314
306.994
307.016
307.037
307.06
307.084
307.109
307.134
307.16
307.185
307.211
307.237
307.262
307.288
307.315
306.993
307.015
307.038
307.062
307.086
307.111
307.136
307.162
307.187
307.211
307.236
307.261
307.286
307.312
306.994
307.017
307.041
307.065
307.089
307.114
307.138
307.163
307.186
307.21
307.234
307.257
307.282
307.307
306.995
307.019
307.043
307.068
307.092
307.115
307.139
307.162
307.185
307.207
307.229
307.251
307.274
307.299
306.999
307.023
307.048
307.072
307.095
307.117
307.14
307.161
307.182
307.203
307.223
307.243
307.263
307.287
307.001
307.026
307.05
307.074
307.097
307.118
307.139
307.159
307.178
307.196
307.213
307.232
307.248
307.27
307.004
307.032
307.055
307.078
307.099
307.119
307.137
307.155
307.172
307.187
307.202
307.216
307.229
307.245
306.892
306.909
306.925
306.941
306.958
306.975
306.992
307.009
307.026
307.043
307.059
307.075
307.089
307.105
306.89
306.908
306.925
306.943
306.96
306.978
306.996
307.013
307.031
307.05
307.068
307.086
307.102
307.12
306.89
306.908
306.926
306.945
306.963
306.982
307.001
307.02
307.039
307.059
307.078
307.098
307.116
307.135
306.889
306.909
306.928
306.948
306.967
306.987
307.007
307.027
307.048
307.069
307.09
307.111
307.131
307.153
306.891
306.911
306.932
306.952
306.973
306.994
307.014
307.035
307.057
307.079
307.102
307.124
307.146
307.169
306.894
306.916
306.937
306.958
306.98
307.001
307.023
307.045
307.067
307.09
307.113
307.137
307.161
307.185
306.899
306.921
306.944
306.966
306.988
307.01
307.032
307.054
307.077
307.1
307.124
307.148
307.173
307.198
306.907
306.93
306.953
306.975
306.997
307.019
307.042
307.064
307.086
307.109
307.134
307.158
307.184
307.21
306.915
306.939
306.963
306.985
307.008
307.03
307.051
307.073
307.095
307.118
307.142
307.166
307.192
307.219
306.927
306.951
306.975
306.997
307.02
307.041
307.062
307.083
307.104
307.125
307.149
307.173
307.199
307.225
306.939
306.964
306.987
307.01
307.032
307.052
307.072
307.091
307.111
307.131
307.153
307.176
307.202
307.228
306.953
306.978
307.001
307.024
307.044
307.064
307.082
307.1
307.118
307.136
307.156
307.178
307.202
307.227
306.966
306.991
307.015
307.037
307.057
307.074
307.09
307.106
307.121
307.137
307.155
307.175
307.198
307.224
306.983
307.009
307.031
307.051
307.069
307.084
307.097
307.11
307.123
307.137
307.152
307.17
307.191
307.215
306.658
306.678
306.699
306.718
306.738
306.757
306.775
306.794
306.811
306.828
306.844
306.86
306.874
306.889
306.671
306.69
306.711
306.731
306.75
306.77
306.789
306.807
306.825
306.843
306.859
306.876
306.891
306.908
306.685
306.705
306.726
306.746
306.765
306.784
306.803
306.821
306.839
306.857
306.875
306.892
306.908
306.926
306.698
306.719
306.74
306.76
306.78
306.799
306.818
306.837
306.856
306.874
306.892
306.911
306.928
306.947
306.713
306.734
306.756
306.776
306.796
306.815
306.834
306.853
306.872
306.891
306.91
306.929
306.948
306.968
306.728
306.75
306.772
306.792
306.812
306.831
306.851
306.87
306.889
306.909
306.929
306.949
306.969
306.99
306.744
306.766
306.788
306.809
306.829
306.848
306.867
306.887
306.906
306.926
306.947
306.968
306.989
307.011
306.761
306.784
306.806
306.827
306.847
306.866
306.885
306.904
306.923
306.943
306.965
306.986
307.009
307.032
306.779
306.803
306.824
306.845
306.864
306.883
306.902
306.921
306.94
306.96
306.982
307.004
307.028
307.051
306.799
306.823
306.844
306.864
306.883
306.901
306.919
306.937
306.956
306.976
306.998
307.02
307.045
307.07
306.819
306.843
306.864
306.883
306.902
306.919
306.936
306.954
306.972
306.991
307.013
307.036
307.061
307.086
306.842
306.865
306.885
306.904
306.921
306.937
306.953
306.969
306.986
307.005
307.026
307.048
307.074
307.1
306.864
306.886
306.906
306.923
306.94
306.955
306.969
306.984
307
307.018
307.038
307.06
307.085
307.113
306.89
306.911
306.929
306.945
306.959
306.972
306.984
306.997
307.012
307.028
307.047
307.069
307.094
307.124
306.366
306.386
306.408
306.429
306.449
306.469
306.488
306.507
306.525
306.543
306.56
306.576
306.59
306.605
306.389
306.407
306.429
306.449
306.47
306.49
306.509
306.528
306.546
306.564
306.58
306.596
306.611
306.626
306.413
306.432
306.454
306.473
306.493
306.512
306.531
306.549
306.566
306.584
306.6
306.616
306.63
306.646
306.436
306.455
306.476
306.496
306.515
306.534
306.553
306.571
306.588
306.605
306.622
306.638
306.653
306.669
306.46
306.479
306.5
306.52
306.539
306.557
306.575
306.592
306.61
306.627
306.643
306.66
306.675
306.691
306.484
306.504
306.524
306.543
306.562
306.58
306.597
306.615
306.632
306.649
306.666
306.683
306.699
306.716
306.508
306.528
306.548
306.567
306.585
306.603
306.62
306.637
306.654
306.672
306.689
306.706
306.724
306.74
306.533
306.554
306.573
306.591
306.609
306.626
306.643
306.66
306.677
306.695
306.713
306.73
306.749
306.766
306.559
306.579
306.597
306.615
306.632
306.649
306.665
306.682
306.7
306.718
306.736
306.754
306.774
306.792
306.585
306.605
306.623
306.64
306.656
306.672
306.688
306.705
306.722
306.74
306.759
306.778
306.799
306.818
306.611
306.63
306.647
306.664
306.68
306.695
306.711
306.728
306.745
306.763
306.782
306.802
306.824
306.843
306.639
306.658
306.674
306.689
306.704
306.719
306.734
306.75
306.767
306.785
306.804
306.825
306.848
306.869
306.665
306.683
306.698
306.713
306.727
306.741
306.756
306.771
306.788
306.806
306.826
306.848
306.871
306.893
306.697
306.712
306.726
306.739
306.752
306.764
306.778
306.792
306.808
306.825
306.845
306.866
306.89
306.918
306.038
306.055
306.074
306.091
306.109
306.127
306.144
306.161
306.177
306.193
306.208
306.223
306.236
306.251
306.065
306.079
306.098
306.116
306.134
306.151
306.169
306.185
306.202
306.217
306.232
306.247
306.26
306.275
306.093
306.108
306.126
306.143
306.161
306.177
306.194
306.21
306.225
306.241
306.255
306.269
306.282
306.296
306.12
306.135
306.153
306.17
306.187
306.203
306.22
306.235
306.251
306.266
306.28
306.294
306.306
306.32
306.148
306.164
306.181
306.197
306.214
306.23
306.245
306.261
306.276
306.29
306.304
306.318
306.33
306.343
306.177
306.192
306.209
306.225
306.24
306.256
306.272
306.287
306.302
306.316
306.33
306.343
306.356
306.368
306.205
306.221
306.236
306.252
306.267
306.282
306.297
306.312
306.327
306.341
306.355
306.368
306.381
306.393
306.234
306.249
306.264
306.279
306.294
306.309
306.324
306.338
306.353
306.367
306.382
306.395
306.408
306.419
306.262
306.277
306.291
306.306
306.32
306.335
306.349
306.364
306.379
306.394
306.408
306.421
306.436
306.446
306.291
306.305
306.318
306.332
306.346
306.361
306.375
306.39
306.405
306.42
306.435
306.449
306.464
306.475
306.318
306.332
306.344
306.358
306.372
306.386
306.401
306.416
306.431
306.446
306.462
306.477
306.492
306.504
306.346
306.36
306.372
306.385
306.398
306.412
306.426
306.441
306.457
306.473
306.488
306.504
306.521
306.534
306.373
306.386
306.397
306.41
306.423
306.436
306.451
306.467
306.483
306.499
306.516
306.533
306.551
306.565
306.404
306.414
306.425
306.436
306.449
306.462
306.476
306.491
306.507
306.524
306.541
306.559
306.577
306.596
305.714
305.724
305.736
305.748
305.76
305.772
305.784
305.796
305.808
305.819
305.83
305.841
305.852
305.863
305.739
305.747
305.76
305.772
305.784
305.796
305.808
305.82
305.831
305.843
305.854
305.865
305.876
305.887
305.765
305.773
305.786
305.797
305.809
305.821
305.832
305.844
305.855
305.866
305.877
305.888
305.897
305.908
305.791
305.799
305.811
305.822
305.834
305.846
305.857
305.869
305.88
305.891
305.901
305.912
305.921
305.931
305.818
305.826
305.837
305.848
305.86
305.871
305.882
305.893
305.905
305.915
305.925
305.935
305.944
305.953
305.844
305.853
305.864
305.874
305.885
305.896
305.908
305.919
305.93
305.94
305.95
305.96
305.968
305.977
305.87
305.88
305.89
305.9
305.911
305.922
305.933
305.944
305.955
305.965
305.975
305.984
305.992
306
305.897
305.907
305.916
305.926
305.936
305.947
305.958
305.969
305.98
305.99
306
306.009
306.017
306.024
305.923
305.932
305.941
305.951
305.961
305.972
305.983
305.995
306.005
306.016
306.025
306.034
306.042
306.048
305.95
305.958
305.966
305.976
305.986
305.997
306.009
306.02
306.031
306.041
306.051
306.06
306.069
306.074
305.975
305.983
305.99
306.001
306.011
306.022
306.033
306.045
306.056
306.067
306.077
306.086
306.095
306.1
306
306.009
306.016
306.025
306.036
306.047
306.059
306.07
306.082
306.093
306.104
306.113
306.123
306.128
306.024
306.032
306.039
306.049
306.059
306.071
306.083
306.096
306.108
306.12
306.131
306.141
306.151
306.157
306.051
306.057
306.064
306.073
306.084
306.095
306.108
306.12
306.133
306.146
306.157
306.169
306.179
306.188
305.42
305.422
305.427
305.433
305.438
305.444
305.45
305.456
305.462
305.468
305.474
305.48
305.487
305.493
305.44
305.441
305.446
305.451
305.457
305.463
305.469
305.475
305.481
305.487
305.493
305.499
305.505
305.513
305.46
305.461
305.466
305.471
305.476
305.482
305.488
305.494
305.5
305.506
305.512
305.518
305.523
305.53
305.48
305.482
305.487
305.491
305.497
305.502
305.508
305.514
305.52
305.526
305.532
305.537
305.543
305.549
305.501
305.503
305.507
305.512
305.517
305.523
305.529
305.535
305.54
305.546
305.551
305.557
305.562
305.568
305.522
305.524
305.528
305.533
305.538
305.544
305.549
305.555
305.561
305.566
305.572
305.577
305.581
305.587
305.542
305.545
305.549
305.554
305.559
305.565
305.57
305.576
305.582
305.587
305.592
305.597
305.601
305.605
305.563
305.566
305.57
305.575
305.58
305.585
305.591
305.597
305.603
305.608
305.613
305.617
305.621
305.625
305.583
305.587
305.59
305.595
305.6
305.606
305.612
305.618
305.624
305.629
305.634
305.638
305.642
305.645
305.604
305.608
305.611
305.616
305.621
305.627
305.633
305.639
305.645
305.65
305.655
305.659
305.663
305.665
305.623
305.628
305.631
305.636
305.642
305.648
305.655
305.661
305.667
305.672
305.677
305.68
305.684
305.685
305.644
305.648
305.651
305.657
305.663
305.669
305.676
305.682
305.688
305.694
305.699
305.703
305.707
305.707
305.663
305.667
305.671
305.677
305.683
305.69
305.697
305.704
305.71
305.716
305.721
305.725
305.729
305.729
305.684
305.687
305.691
305.697
305.703
305.71
305.718
305.725
305.732
305.738
305.743
305.748
305.752
305.754
305.153
305.15
305.15