/*--------------------------------*- C++ -*----------------------------------*\
| =========                 |                                                 |
| \\      /  F ield         | OpenFOAM: The Open Source CFD Toolbox           |
|  \\    /   O peration     | Version:  v2106                                 |
|   \\  /    A nd           | Website:  www.openfoam.com                      |
|    \\/     M anipulation  |                                                 |
\*---------------------------------------------------------------------------*/
FoamFile
{
    version     2.0;
    format      ascii;
    arch        "LSB;label=32;scalar=64";
    class       volScalarField;
    location    "0.000143";
    object      Ttot;
}
// * * * * * * * * * * * * * * * * * * * * * * * * * * * * * * * * * * * * * //

dimensions      [0 0 0 1 0 0 0];

internalField   nonuniform List<scalar> 
18109
(
303.055
303.244
303.359
303.475
303.622
303.765
303.91
303.271
303.261
303.32
303.413
303.533
303.653
303.785
303.43
303.325
303.368
303.385
303.471
303.563
303.696
303.512
303.359
303.391
303.367
303.445
303.514
303.622
303.551
303.414
303.417
303.372
303.431
303.472
303.567
303.549
303.431
303.387
303.346
303.383
303.411
303.502
303.473
303.382
303.317
303.284
303.313
303.343
303.433
303.393
303.312
303.253
303.214
303.229
303.265
303.355
303.736
303.872
303.973
304.074
304.194
304.313
304.421
304.531
304.628
304.74
304.832
304.916
304.921
304.874
303.904
303.88
303.946
304.025
304.12
304.209
304.319
304.427
304.52
304.627
304.698
304.776
304.821
304.835
304.043
303.951
304
304.017
304.09
304.156
304.249
304.349
304.445
304.57
304.673
304.778
304.843
304.885
304.12
304.002
304.032
304.01
304.072
304.121
304.198
304.292
304.389
304.515
304.625
304.742
304.833
304.93
304.166
304.062
304.059
304.021
304.067
304.094
304.162
304.248
304.349
304.48
304.605
304.735
304.841
304.951
304.172
304.08
304.041
304.007
304.035
304.057
304.123
304.205
304.306
304.435
304.565
304.705
304.828
304.955
304.109
304.037
303.984
303.959
303.982
304.007
304.074
304.157
304.26
304.39
304.523
304.668
304.808
304.952
304.039
303.968
303.922
303.897
303.912
303.945
304.014
304.1
304.204
304.334
304.462
304.612
304.76
304.925
303.907
303.847
303.814
303.799
303.821
303.869
303.947
304.04
304.148
304.278
304.401
304.555
304.697
304.884
303.759
303.718
303.704
303.708
303.753
303.818
303.904
304
304.105
304.229
304.343
304.499
304.62
304.827
303.574
303.558
303.574
303.607
303.669
303.75
303.853
303.959
304.066
304.183
304.288
304.438
304.538
304.765
303.405
303.427
303.498
303.579
303.67
303.762
303.864
303.965
304.058
304.151
304.242
304.366
304.453
304.687
303.25
303.321
303.415
303.514
303.632
303.751
303.866
303.967
304.057
304.136
304.213
304.303
304.38
304.563
303.078
303.284
303.475
303.614
303.728
303.833
303.928
304.013
304.084
304.14
304.19
304.245
304.305
304.429
302.648
302.069
300.827
298.856
296.433
293.996
303.515
303.312
302.787
301.783
300.264
298.459
303.773
303.447
302.903
301.915
300.365
298.525
303.913
303.709
303.287
302.473
301.14
299.437
304.09
303.974
303.714
303.132
302.141
300.91
304.273
304.261
304.183
303.858
303.269
302.579
304.417
304.5
304.562
304.489
304.281
304.081
304.569
304.727
304.889
305.017
305.116
305.308
304.693
304.895
305.125
305.395
305.72
306.184
304.784
305.002
305.266
305.627
306.099
306.732
304.867
305.098
305.373
305.781
306.309
307.023
304.921
305.132
305.395
305.809
306.33
307.048
304.928
305.12
305.343
305.691
306.111
306.647
304.918
305.128
305.295
305.521
305.75
305.979
304.942
305.033
305.043
305.128
305.129
305.029
304.776
304.834
304.821
304.806
304.6
304.136
304.837
304.78
304.712
304.565
304.239
303.556
304.893
304.851
304.756
304.568
304.192
303.489
304.987
304.969
304.913
304.762
304.409
303.82
305.054
305.103
305.094
305.028
304.807
304.459
305.086
305.2
305.283
305.322
305.285
305.212
305.12
305.282
305.441
305.6
305.737
305.905
305.108
305.307
305.535
305.811
306.112
306.501
305.077
305.321
305.595
305.946
306.366
306.904
304.999
305.251
305.549
305.955
306.45
307.096
304.896
305.124
305.405
305.818
306.316
306.982
304.778
304.993
305.228
305.565
305.947
306.421
304.653
304.856
305.007
305.213
305.395
305.57
304.575
304.636
304.64
304.678
304.611
304.419
304.288
304.34
304.283
304.193
303.886
303.338
304.276
304.206
304.103
303.887
303.467
302.744
304.214
304.165
304.04
303.804
303.357
302.635
304.182
304.161
304.072
303.878
303.472
302.9
304.17
304.2
304.185
304.105
303.889
303.57
304.151
304.236
304.316
304.359
304.351
304.327
304.113
304.254
304.417
304.603
304.804
305.064
304.041
304.23
304.478
304.789
305.175
305.657
303.937
304.146
304.445
304.852
305.371
306.005
303.794
303.993
304.291
304.725
305.267
305.905
303.642
303.82
304.048
304.364
304.669
304.97
303.457
303.554
303.603
303.641
303.501
303.138
303.315
303.235
302.961
302.538
301.763
300.615
302.947
302.587
302.023
301.14
299.859
298.231
303.527
303.731
303.921
304.12
304.114
303.902
303.384
303.463
303.333
302.968
302.107
300.856
303.256
303.067
302.373
301.231
299.443
297.28
302.817
302.19
301.051
299.361
297.162
294.72
302.757
302.362
301.598
300.37
298.806
297.08
303.018
302.483
301.705
300.415
298.832
297.047
303.229
302.796
302.113
300.996
299.549
297.967
303.481
303.147
302.633
301.781
300.695
299.594
303.75
303.56
303.241
302.699
302.042
301.487
303.941
303.877
303.756
303.539
303.332
303.31
304.112
304.163
304.217
304.263
304.408
304.78
304.201
304.336
304.52
304.761
305.169
305.777
304.268
304.442
304.679
305.041
305.568
306.284
304.227
304.403
304.655
305.07
305.62
306.316
304.117
304.285
304.514
304.847
305.205
305.564
304
304.124
304.217
304.3
304.275
303.997
303.935
303.984
303.826
303.502
302.85
301.802
303.693
303.489
303.076
302.367
301.202
299.603
294.894
290.374
289.116
293.164
301.885
295.038
291.214
290.909
295.724
304.634
296.705
294.259
295.182
300.163
307.725
299.275
298.252
299.939
304.689
311.236
301.881
301.916
304.085
308.623
313.909
304.135
304.901
307.28
311.264
315.547
305.898
307.195
309.441
312.577
315.574
307.14
308.691
310.739
313.4
315.792
315.132
307.888
309.546
311.387
313.604
315.375
314.3
308.22
309.867
311.5
313.404
314.687
313.801
308.193
309.699
311.096
312.481
313.645
313.353
312.405
307.361
308.25
309.074
309.823
310.73
312.035
313.177
311.887
305.95
305.564
304.795
304.178
304.856
307.238
310.266
317.236
304.005
301.888
299.087
297.529
298.089
300.966
304.728
306.033
302.38
299.214
295.459
293.457
295.018
300.753
303.324
297.448
301.673
298.319
294.785
293.336
295.807
302.953
308.463
305.19
301.696
298.74
296.308
296.391
300.231
306.297
312.343
308.604
302.393
300.446
299.289
300.552
305.08
310.627
315.695
310.41
303.7
302.806
302.874
305.065
309.657
314.678
316.665
308.025
305.038
305.059
306.08
308.898
312.89
315.899
315.373
306.563
306.228
306.953
308.441
310.931
313.913
315.138
313.947
304.473
307.223
308.384
309.925
312.194
314.654
315.085
310.708
305.057
307.854
309.237
310.747
312.75
314.786
314.841
308.17
309.61
310.963
312.689
314.265
314.283
308.031
309.394
310.657
311.878
312.984
312.946
307.024
307.782
308.554
309.398
310.515
311.811
305.438
304.952
304.325
304.313
305.869
308.493
303.359
301.279
299.176
298.436
299.816
301.724
298.8
296.104
295.294
297.78
301.003
298.011
295.574
295.581
298.894
300.934
298.494
297.097
298.479
302.771
301.651
300.224
300.024
302.43
307.302
302.982
302.601
303.559
306.796
311.509
304.354
304.861
306.669
310.374
314.313
305.581
306.666
308.682
311.749
314.584
306.48
307.806
309.655
312.358
314.794
306.965
308.316
310.002
312.322
314.089
306.71
307.785
308.868
310.19
311.753
305.03
305.195
305.54
306.138
307.638
301.956
300.376
300.065
301.686
304.462
298.11
295.004
295.003
298.216
303.375
295.118
291.502
291.103
295.063
302.584
293.998
290.76
291.129
296.565
305.055
294.2
291.835
293.346
299.869
308.459
295.943
295.003
297.587
304.024
311.031
298.66
299.002
302.094
308.01
313.96
301.43
302.689
306.141
311.3
315.951
303.844
305.645
309.017
313.233
316.815
305.773
307.718
310.56
313.796
316.087
306.93
308.738
311.058
313.842
315.742
307.43
309.114
311.077
313.362
314.844
307.192
308.453
309.744
311.252
312.743
305.653
305.873
306.265
307.167
309.367
302.764
301.103
300.446
301.865
304.755
299.127
295.493
294.592
297.466
302.685
296.128
291.523
290.062
293.315
300.948
304.763
304.799
304.859
304.917
304.982
305.047
305.127
305.223
305.306
305.414
305.495
305.596
305.636
305.638
304.87
304.811
304.854
304.877
304.925
304.983
305.056
305.137
305.212
305.312
305.379
305.458
305.508
305.559
304.964
304.868
304.889
304.878
304.92
304.948
305.006
305.074
305.147
305.251
305.335
305.433
305.488
305.549
304.996
304.899
304.899
304.866
304.902
304.922
304.976
305.035
305.103
305.2
305.284
305.381
305.452
305.536
305.005
304.927
304.905
304.872
304.894
304.907
304.953
305.006
305.076
305.172
305.262
305.364
305.446
305.539
304.973
304.914
304.877
304.853
304.868
304.882
304.929
304.982
305.05
305.144
305.238
305.344
305.437
305.53
304.928
304.875
304.841
304.827
304.841
304.859
304.905
304.959
305.029
305.122
305.217
305.324
305.424
305.524
304.854
304.806
304.781
304.773
304.79
304.819
304.87
304.93
305.003
305.096
305.187
305.294
305.392
305.506
304.75
304.706
304.701
304.704
304.732
304.772
304.83
304.897
304.975
305.069
305.156
305.264
305.36
305.489
304.637
304.612
304.622
304.643
304.688
304.74
304.805
304.875
304.954
305.045
305.126
305.237
305.322
305.466
304.513
304.502
304.529
304.568
304.629
304.696
304.773
304.852
304.932
305.021
305.097
305.208
305.28
305.441
304.403
304.419
304.486
304.553
304.629
304.701
304.78
304.855
304.927
305.003
305.073
305.175
305.24
305.418
304.3
304.349
304.434
304.519
304.613
304.7
304.782
304.857
304.929
304.994
305.057
305.145
305.204
305.355
304.239
304.373
304.506
304.602
304.683
304.757
304.824
304.885
304.944
304.992
305.042
305.107
305.165
305.286
305.973
305.909
305.911
305.907
305.918
305.93
305.972
306.015
306.072
306.156
306.226
306.326
306.385
306.45
305.993
305.909
305.9
305.877
305.883
305.887
305.919
305.952
305.999
306.072
306.129
306.204
306.256
306.327
306.011
305.926
305.909
305.874
305.875
305.864
305.886
305.91
305.95
306.014
306.073
306.149
306.21
306.274
305.973
305.907
305.886
305.851
305.85
305.839
305.857
305.878
305.912
305.965
306.019
306.085
306.147
306.215
305.928
305.884
305.861
305.836
305.835
305.826
305.839
305.856
305.887
305.935
305.989
306.055
306.117
306.184
305.858
305.823
305.805
305.791
305.794
305.794
305.81
305.83
305.861
305.907
305.958
306.022
306.085
306.15
305.793
305.768
305.759
305.755
305.762
305.769
305.786
305.807
305.839
305.884
305.933
305.996
306.06
306.13
305.714
305.693
305.697
305.703
305.718
305.733
305.755
305.779
305.812
305.857
305.903
305.966
306.028
306.103
305.622
305.61
305.627
305.644
305.669
305.691
305.717
305.744
305.779
305.824
305.869
305.935
305.997
306.084
305.552
305.544
305.573
305.598
305.631
305.656
305.684
305.711
305.745
305.79
305.835
305.905
305.967
306.067
305.47
305.474
305.51
305.54
305.577
305.607
305.64
305.671
305.708
305.756
305.803
305.88
305.941
306.056
305.42
305.439
305.487
305.523
305.561
305.59
305.622
305.649
305.682
305.729
305.778
305.861
305.926
306.065
305.381
305.413
305.463
305.499
305.538
305.568
305.604
305.633
305.666
305.713
305.766
305.852
305.918
306.058
305.405
305.459
305.52
305.545
305.569
305.586
305.617
305.641
305.672
305.716
305.765
305.844
305.92
306.062
306.91
306.862
306.841
306.815
306.807
306.79
306.795
306.796
306.815
306.842
306.873
306.92
306.965
307.011
306.893
306.838
306.821
306.793
306.783
306.762
306.759
306.753
306.762
306.777
306.794
306.823
306.851
306.889
306.872
306.832
306.822
306.793
306.777
306.751
306.738
306.723
306.722
306.727
306.736
306.758
306.787
306.821
306.815
306.793
306.785
306.764
306.748
306.723
306.708
306.69
306.681
306.678
306.677
306.689
306.712
306.743
306.771
306.76
306.754
306.74
306.725
306.7
306.68
306.658
306.644
306.636
306.632
306.642
306.664
306.693
306.695
306.694
306.696
306.691
306.68
306.659
306.64
306.618
306.601
306.59
306.585
306.594
306.615
306.642
306.625
306.632
306.642
306.642
306.634
306.614
306.595
306.573
306.557
306.546
306.542
306.554
306.576
306.607
306.552
306.563
306.579
306.584
306.579
306.561
306.543
306.522
306.506
306.497
306.495
306.511
306.535
306.574
306.474
306.487
306.508
306.516
306.514
306.498
306.483
306.464
306.45
306.444
306.447
306.471
306.5
306.549
306.411
306.421
306.445
306.453
306.453
306.437
306.422
306.403
306.391
306.388
306.397
306.428
306.464
306.526
306.347
306.351
306.372
306.377
306.378
306.363
306.351
306.337
306.329
306.335
306.352
306.394
306.437
306.512
306.301
306.307
306.329
306.332
306.327
306.308
306.296
306.282
306.276
306.287
306.311
306.363
306.414
306.508
306.259
306.261
306.275
306.275
306.268
306.251
306.242
306.232
306.232
306.251
306.284
306.349
306.406
306.514
306.269
306.267
306.279
306.266
306.246
306.226
306.217
306.208
306.211
306.234
306.268
306.336
306.396
306.522
307.374
307.367
307.361
307.355
307.357
307.354
307.359
307.36
307.369
307.375
307.384
307.401
307.421
307.445
307.347
307.334
307.334
307.329
307.331
307.328
307.329
307.325
307.324
307.32
307.318
307.324
307.333
307.347
307.328
307.326
307.328
307.324
307.321
307.313
307.305
307.291
307.28
307.266
307.256
307.255
307.26
307.268
307.287
307.295
307.298
307.298
307.293
307.284
307.27
307.251
307.233
307.213
307.196
307.188
307.187
307.191
307.254
307.266
307.27
307.271
307.264
307.252
307.232
307.208
307.184
307.16
307.14
307.129
307.126
307.13
307.204
307.22
307.228
307.23
307.223
307.209
307.186
307.16
307.132
307.106
307.084
307.072
307.068
307.071
307.15
307.168
307.179
307.182
307.175
307.159
307.135
307.107
307.079
307.053
307.033
307.023
307.021
307.027
307.094
307.112
307.126
307.13
307.123
307.105
307.08
307.052
307.024
307
306.982
306.976
306.976
306.986
307.031
307.048
307.064
307.068
307.062
307.045
307.021
306.994
306.969
306.949
306.935
306.935
306.939
306.956
306.976
306.991
307.008
307.01
307.004
306.987
306.963
306.937
306.914
306.897
306.887
306.893
306.902
306.925
306.917
306.926
306.941
306.941
306.936
306.921
306.901
306.879
306.86
306.848
306.845
306.859
306.875
306.908
306.867
306.875
306.889
306.888
306.882
306.866
306.846
306.826
306.809
306.802
306.804
306.825
306.847
306.889
306.814
306.816
306.827
306.827
306.822
306.808
306.792
306.776
306.766
306.766
306.777
306.807
306.837
306.888
306.791
306.788
306.793
306.788
306.779
306.765
306.751
306.738
306.732
306.739
306.753
306.786
306.816
306.88
307.523
307.526
307.532
307.539
307.549
307.557
307.569
307.579
307.592
307.602
307.614
307.631
307.649
307.671
307.482
307.481
307.487
307.499
307.511
307.524
307.535
307.545
307.556
307.565
307.575
307.588
307.602
307.62
307.448
307.454
307.459
307.473
307.481
307.493
307.501
307.508
307.515
307.52
307.527
307.538
307.551
307.566
307.409
307.417
307.423
307.436
307.445
307.455
307.462
307.467
307.471
307.474
307.478
307.486
307.497
307.51
307.376
307.384
307.39
307.402
307.408
307.417
307.421
307.424
307.425
307.426
307.428
307.434
307.443
307.453
307.338
307.348
307.355
307.366
307.371
307.378
307.379
307.38
307.379
307.378
307.378
307.382
307.389
307.397
307.297
307.309
307.318
307.328
307.333
307.338
307.337
307.337
307.335
307.333
307.332
307.336
307.34
307.347
307.26
307.271
307.282
307.292
307.296
307.299
307.298
307.295
307.292
307.29
307.288
307.291
307.294
307.3
307.217
307.229
307.241
307.252
307.257
307.26
307.259
307.257
307.254
307.253
307.252
307.255
307.257
307.263
307.179
307.19
307.204
307.215
307.221
307.225
307.224
307.222
307.218
307.217
307.216
307.22
307.221
307.227
307.137
307.148
307.162
307.174
307.183
307.188
307.189
307.189
307.187
307.187
307.186
307.192
307.194
307.2
307.1
307.114
307.13
307.144
307.153
307.158
307.159
307.158
307.156
307.156
307.155
307.161
307.164
307.17
307.061
307.074
307.091
307.106
307.117
307.125
307.128
307.13
307.129
307.131
307.132
307.139
307.144
307.15
307.03
307.046
307.062
307.078
307.088
307.096
307.1
307.102
307.102
307.105
307.107
307.114
307.118
307.124
307.534
307.539
307.543
307.552
307.562
307.573
307.587
307.599
307.613
307.625
307.638
307.656
307.673
307.697
307.491
307.495
307.501
307.515
307.527
307.542
307.557
307.572
307.587
307.602
307.618
307.637
307.656
307.68
307.456
307.463
307.47
307.484
307.496
307.512
307.527
307.544
307.561
307.577
307.595
307.615
307.635
307.659
307.421
307.43
307.437
307.453
307.466
307.483
307.498
307.516
307.534
307.551
307.57
307.591
307.613
307.637
307.39
307.399
307.408
307.423
307.436
307.454
307.471
307.489
307.508
307.527
307.547
307.569
307.591
307.613
307.36
307.371
307.38
307.395
307.409
307.427
307.444
307.463
307.482
307.502
307.523
307.545
307.567
307.589
307.332
307.343
307.352
307.367
307.381
307.4
307.418
307.438
307.458
307.479
307.499
307.522
307.542
307.563
307.306
307.316
307.327
307.342
307.357
307.376
307.394
307.414
307.434
307.454
307.474
307.495
307.514
307.533
307.279
307.289
307.302
307.318
307.334
307.354
307.372
307.393
307.412
307.433
307.451
307.47
307.485
307.502
307.255
307.267
307.281
307.299
307.316
307.336
307.354
307.374
307.391
307.41
307.425
307.442
307.453
307.467
307.232
307.244
307.26
307.279
307.297
307.318
307.337
307.356
307.372
307.389
307.401
307.415
307.422
307.431
307.211
307.228
307.245
307.265
307.283
307.303
307.32
307.338
307.351
307.365
307.375
307.385
307.387
307.392
307.189
307.206
307.224
307.246
307.265
307.286
307.303
307.319
307.331
307.342
307.348
307.354
307.355
307.356
307.168
307.19
307.209
307.231
307.25
307.268
307.283
307.297
307.308
307.316
307.32
307.323
307.319
307.311
307.483
307.493
307.499
307.506
307.513
307.52
307.529
307.539
307.552
307.565
307.58
307.599
307.616
307.639
307.447
307.457
307.465
307.475
307.484
307.494
307.506
307.52
307.536
307.552
307.571
307.593
307.614
307.639
307.418
307.43
307.438
307.448
307.458
307.471
307.485
307.502
307.521
307.541
307.563
307.587
307.61
307.636
307.39
307.402
307.411
307.424
307.436
307.451
307.468
307.487
307.508
307.53
307.553
307.579
307.604
307.631
307.364
307.375
307.386
307.4
307.415
307.433
307.452
307.474
307.497
307.521
307.545
307.572
307.598
307.625
307.34
307.353
307.366
307.382
307.399
307.419
307.44
307.463
307.486
307.511
307.537
307.564
307.591
307.619
307.319
307.333
307.348
307.366
307.386
307.408
307.43
307.454
307.479
307.505
307.531
307.558
307.585
307.612
307.303
307.319
307.337
307.357
307.378
307.401
307.424
307.448
307.473
307.498
307.524
307.55
307.576
307.603
307.291
307.309
307.328
307.35
307.371
307.395
307.418
307.443
307.467
307.492
307.516
307.541
307.565
307.591
307.285
307.304
307.324
307.345
307.367
307.39
307.413
307.437
307.46
307.484
307.506
307.53
307.551
307.575
307.278
307.297
307.318
307.34
307.362
307.385
307.408
307.431
307.453
307.475
307.495
307.516
307.534
307.556
307.272
307.293
307.314
307.336
307.358
307.381
307.402
307.424
307.444
307.464
307.481
307.5
307.513
307.532
307.263
307.285
307.307
307.33
307.352
307.374
307.395
307.415
307.433
307.45
307.465
307.481
307.49
307.502
307.257
307.283
307.306
307.327
307.347
307.368
307.386
307.404
307.419
307.434
307.446
307.456
307.461
307.462
307.32
307.328
307.335
307.343
307.351
307.362
307.374
307.389
307.405
307.421
307.438
307.457
307.473
307.492
307.298
307.308
307.317
307.328
307.34
307.354
307.369
307.386
307.405
307.424
307.444
307.465
307.485
307.506
307.281
307.292
307.303
307.317
307.332
307.349
307.367
307.387
307.409
307.43
307.452
307.475
307.497
307.52
307.267
307.28
307.294
307.31
307.328
307.347
307.368
307.39
307.413
307.436
307.46
307.485
307.509
307.534
307.257
307.271
307.288
307.306
307.325
307.347
307.369
307.393
307.418
307.443
307.469
307.495
307.521
307.547
307.25
307.266
307.285
307.305
307.326
307.349
307.372
307.397
307.423
307.45
307.476
307.503
307.53
307.557
307.245
307.264
307.284
307.306
307.328
307.352
307.377
307.403
307.429
307.455
307.482
307.508
307.535
307.562
307.244
307.265
307.286
307.309
307.332
307.356
307.382
307.407
307.433
307.459
307.485
307.511
307.538
307.565
307.245
307.267
307.289
307.312
307.336
307.361
307.386
307.411
307.436
307.461
307.487
307.512
307.538
307.565
307.249
307.271
307.295
307.318
307.342
307.366
307.39
307.415
307.438
307.462
307.486
307.511
307.536
307.562
307.253
307.276
307.3
307.323
307.347
307.37
307.394
307.417
307.439
307.461
307.484
307.507
307.531
307.557
307.26
307.283
307.307
307.33
307.353
307.375
307.396
307.418
307.439
307.459
307.48
307.501
307.521
307.546
307.263
307.288
307.312
307.335
307.357
307.378
307.398
307.417
307.436
307.454
307.471
307.49
307.507
307.53
307.268
307.295
307.318
307.341
307.362
307.381
307.398
307.416
307.432
307.447
307.461
307.475
307.489
307.505
307.122
307.139
307.154
307.171
307.187
307.204
307.221
307.238
307.254
307.271
307.288
307.304
307.318
307.334
307.12
307.139
307.156
307.174
307.191
307.209
307.226
307.244
307.262
307.28
307.298
307.316
307.332
307.35
307.121
307.14
307.158
307.177
307.196
307.214
307.233
307.252
307.271
307.291
307.31
307.33
307.348
307.368
307.123
307.142
307.162
307.182
307.202
307.221
307.241
307.261
307.282
307.303
307.324
307.346
307.366
307.388
307.126
307.147
307.168
307.188
307.209
307.229
307.25
307.271
307.293
307.316
307.338
307.361
307.384
307.407
307.131
307.153
307.175
307.196
307.218
307.239
307.261
307.283
307.305
307.329
307.352
307.377
307.401
307.425
307.139
307.161
307.183
307.206
307.228
307.25
307.272
307.294
307.317
307.341
307.365
307.39
307.415
307.441
307.148
307.171
307.194
307.217
307.239
307.262
307.284
307.306
307.329
307.353
307.377
307.402
307.428
307.455
307.159
307.183
307.207
307.229
307.252
307.274
307.296
307.318
307.34
307.363
307.387
307.412
307.439
307.466
307.173
307.198
307.221
307.244
307.266
307.288
307.308
307.329
307.351
307.373
307.396
307.421
307.448
307.475
307.188
307.213
307.236
307.259
307.28
307.301
307.321
307.34
307.36
307.381
307.403
307.427
307.453
307.48
307.205
307.23
307.253
307.275
307.296
307.315
307.333
307.351
307.369
307.387
307.408
307.43
307.455
307.481
307.22
307.245
307.269
307.291
307.31
307.328
307.344
307.359
307.374
307.39
307.408
307.429
307.453
307.48
307.238
307.264
307.286
307.306
307.324
307.339
307.352
307.365
307.378
307.392
307.407
307.426
307.446
307.47
306.873
306.894
306.914
306.934
306.954
306.973
306.992
307.011
307.028
307.045
307.062
307.077
307.092
307.107
306.887
306.906
306.928
306.948
306.969
306.988
307.007
307.026
307.044
307.062
307.078
307.095
307.11
307.127
306.903
306.923
306.945
306.965
306.986
307.005
307.024
307.042
307.06
307.078
307.096
307.113
307.129
307.147
306.918
306.939
306.961
306.982
307.002
307.022
307.041
307.06
307.079
307.097
307.116
307.134
307.151
307.17
306.935
306.957
306.979
307
307.02
307.039
307.059
307.078
307.097
307.116
307.136
307.155
307.174
307.194
306.952
306.975
306.997
307.018
307.038
307.058
307.077
307.097
307.116
307.136
307.157
307.177
307.197
307.218
306.97
306.993
307.016
307.037
307.057
307.077
307.096
307.116
307.135
307.156
307.177
307.198
307.22
307.241
306.99
307.013
307.036
307.057
307.077
307.096
307.115
307.135
307.155
307.175
307.197
307.219
307.242
307.265
307.01
307.034
307.056
307.077
307.097
307.116
307.135
307.154
307.173
307.194
307.216
307.238
307.263
307.287
307.032
307.057
307.078
307.098
307.118
307.136
307.154
307.173
307.192
307.212
307.234
307.257
307.282
307.308
307.055
307.079
307.1
307.12
307.138
307.156
307.173
307.191
307.209
307.229
307.251
307.274
307.301
307.326
307.08
307.104
307.124
307.142
307.16
307.176
307.192
307.209
307.226
307.245
307.266
307.289
307.316
307.343
307.104
307.127
307.147
307.165
307.181
307.196
307.21
307.225
307.241
307.259
307.279
307.302
307.329
307.358
307.132
307.153
307.172
307.188
307.202
307.215
307.227
307.24
307.255
307.271
307.29
307.313
307.339
307.369
306.563
306.584
306.606
306.627
306.648
306.668
306.688
306.707
306.726
306.744
306.76
306.777
306.791
306.807
306.587
306.606
306.629
306.65
306.671
306.691
306.711
306.73
306.748
306.766
306.783
306.799
306.814
306.829
306.613
306.633
306.655
306.676
306.696
306.715
306.734
306.753
306.771
306.788
306.804
306.821
306.835
306.851
306.638
306.658
306.68
306.7
306.72
306.739
306.758
306.777
306.794
306.812
306.828
306.845
306.86
306.876
306.664
306.685
306.706
306.726
306.746
306.764
306.783
306.8
306.818
306.835
306.852
306.869
306.884
306.901
306.691
306.711
306.732
306.752
306.771
306.789
306.807
306.825
306.843
306.86
306.877
306.894
306.911
306.927
306.717
306.738
306.759
306.778
306.796
306.814
306.832
306.849
306.867
306.884
306.902
306.919
306.937
306.953
306.745
306.766
306.785
306.804
306.822
306.839
306.857
306.874
306.892
306.91
306.928
306.946
306.964
306.982
306.772
306.793
306.812
306.83
306.847
306.865
306.881
306.899
306.916
306.934
306.953
306.972
306.992
307.01
306.801
306.821
306.839
306.857
306.874
306.89
306.906
306.923
306.941
306.959
306.978
306.998
307.019
307.038
306.829
306.849
306.866
306.883
306.899
306.915
306.931
306.948
306.965
306.984
307.003
307.024
307.046
307.066
306.86
306.878
306.895
306.91
306.925
306.941
306.956
306.972
306.989
307.007
307.027
307.048
307.072
307.094
306.888
306.906
306.922
306.937
306.951
306.965
306.98
306.996
307.013
307.031
307.051
307.073
307.098
307.121
306.921
306.936
306.95
306.964
306.977
306.99
307.004
307.018
307.035
307.052
307.072
307.094
307.118
307.146
306.216
306.233
306.252
306.27
306.289
306.306
306.324
306.341
306.357
306.373
306.389
306.404
306.418
306.432
306.243
306.258
306.278
306.296
306.315
306.333
306.35
306.367
306.384
306.4
306.415
306.43
306.443
306.458
306.274
306.289
306.308
306.326
306.343
306.361
306.377
306.394
306.41
306.425
306.439
306.454
306.466
306.481
306.303
306.318
306.337
306.354
306.371
306.388
306.405
306.421
306.437
306.452
306.466
306.48
306.493
306.506
306.333
306.349
306.367
306.383
306.4
306.417
306.433
306.448
306.464
306.478
306.492
306.506
306.518
306.532
306.364
306.38
306.397
306.413
306.429
306.445
306.461
306.476
306.491
306.506
306.52
306.534
306.546
306.559
306.394
306.41
306.426
306.442
306.458
306.473
306.489
306.504
306.519
306.533
306.547
306.561
306.574
306.585
306.425
306.441
306.456
306.471
306.486
306.501
306.516
306.532
306.547
306.561
306.576
306.589
306.603
306.614
306.455
306.47
306.485
306.5
306.514
306.529
306.544
306.559
306.574
306.589
306.604
306.617
306.632
306.643
306.486
306.5
306.514
306.528
306.542
306.557
306.572
306.587
306.602
306.617
306.632
306.647
306.662
306.673
306.515
306.529
306.542
306.556
306.57
306.584
306.599
306.615
306.63
306.646
306.661
306.676
306.693
306.705
306.546
306.56
306.571
306.585
306.598
306.612
306.627
306.642
306.658
306.674
306.69
306.706
306.724
306.737
306.574
306.588
306.599
306.611
306.624
306.639
306.654
306.669
306.686
306.703
306.719
306.737
306.755
306.77
306.606
306.617
306.628
306.639
306.652
306.665
306.68
306.696
306.712
306.729
306.747
306.765
306.783
306.802
305.874
305.883
305.896
305.908
305.92
305.932
305.944
305.956
305.968
305.98
305.991
306.002
306.013
306.025
305.899
305.908
305.921
305.933
305.945
305.957
305.969
305.982
305.993
306.005
306.016
306.028
306.038
306.05
305.927
305.935
305.948
305.96
305.972
305.984
305.995
306.007
306.019
306.03
306.041
306.051
306.061
306.072
305.955
305.963
305.975
305.987
305.998
306.01
306.022
306.033
306.045
306.056
306.067
306.077
306.086
306.096
305.983
305.991
306.003
306.014
306.026
306.037
306.049
306.06
306.071
306.082
306.092
306.102
306.111
306.12
306.011
306.02
306.031
306.042
306.053
306.064
306.076
306.087
306.098
306.108
306.118
306.128
306.136
306.145
306.039
306.049
306.058
306.069
306.08
306.091
306.102
306.114
306.125
306.135
306.145
306.154
306.162
306.17
306.068
306.077
306.086
306.096
306.107
306.118
306.129
306.14
306.151
306.162
306.172
306.18
306.188
306.195
306.095
306.104
306.113
306.123
306.133
306.145
306.156
306.167
306.178
306.188
306.198
306.207
306.215
306.221
306.123
306.132
306.14
306.15
306.16
306.171
306.183
306.194
306.205
306.216
306.226
306.234
306.243
306.248
306.15
306.159
306.166
306.176
306.186
306.197
306.209
306.221
306.232
306.243
306.253
306.262
306.272
306.276
306.177
306.186
306.192
306.202
306.213
306.224
306.236
306.248
306.26
306.271
306.281
306.291
306.301
306.306
306.202
306.211
306.217
306.227
306.238
306.25
306.262
306.275
306.287
306.299
306.31
306.32
306.33
306.337
306.23
306.236
306.244
306.253
306.264
306.275
306.288
306.301
306.314
306.327
306.338
306.349
306.36
306.369
305.563
305.565
305.57
305.575
305.581
305.587
305.592
305.598
305.604
305.61
305.616
305.622
305.629
305.636
305.584
305.586
305.59
305.595
305.601
305.606
305.612
305.618
305.624
305.63
305.636
305.643
305.649
305.656
305.605
305.606
305.611
305.616
305.621
305.627
305.633
305.639
305.645
305.651
305.656
305.662
305.668
305.675
305.626
305.629
305.633
305.637
305.643
305.648
305.654
305.66
305.666
305.672
305.677
305.683
305.688
305.695
305.648
305.65
305.654
305.659
305.664
305.67
305.676
305.681
305.687
305.693
305.698
305.703
305.708
305.714
305.67
305.673
305.677
305.681
305.686
305.692
305.698
305.703
305.709
305.714
305.72
305.724
305.729
305.735
305.692
305.695
305.698
305.703
305.708
305.714
305.72
305.725
305.731
305.736
305.741
305.745
305.75
305.754
305.714
305.717
305.72
305.725
305.73
305.736
305.742
305.747
305.753
305.758
305.763
305.767
305.771
305.775
305.735
305.739
305.742
305.747
305.752
305.758
305.764
305.77
305.775
305.78
305.785
305.789
305.793
305.795
305.757
305.761
305.764
305.769
305.774
305.78
305.786
305.792
305.798
305.803
305.807
305.811
305.815
305.817
305.778
305.782
305.785
305.79
305.796
305.802
305.808
305.815
305.821
305.826
305.83
305.834
305.838
305.838
305.799
305.804
305.807
305.812
305.818
305.824
305.831
305.837
305.843
305.849
305.853
305.857
305.861
305.861
305.82
305.824
305.827
305.833
305.839
305.846
305.853
305.86
305.866
305.872
305.877
305.881
305.884
305.885
305.841
305.845
305.849
305.854
305.861
305.868
305.875
305.882
305.889
305.895
305.9
305.905
305.908
305.911
305.282
305.279
305.278
305.278
305.278