/*--------------------------------*- C++ -*----------------------------------*\
| =========                 |                                                 |
| \\      /  F ield         | OpenFOAM: The Open Source CFD Toolbox           |
|  \\    /   O peration     | Version:  v2106                                 |
|   \\  /    A nd           | Website:  www.openfoam.com                      |
|    \\/     M anipulation  |                                                 |
\*---------------------------------------------------------------------------*/
FoamFile
{
    version     2.0;
    format      ascii;
    arch        "LSB;label=32;scalar=64";
    class       volScalarField;
    location    "0.000197";
    object      epsilon;
}
// * * * * * * * * * * * * * * * * * * * * * * * * * * * * * * * * * * * * * //

dimensions      [0 2 -3 0 0 0 0];

internalField   nonuniform List<scalar> 
144746
(
127216
89261.3
65702.4
48564.9
45568.1
57393.5
89938.9
145917
215438
268045
271094
234235
204467
192567
131056
85999.2
54650.8
33445.2
25472.2
26795.2
39808.9
66937.4
107393
149816
178098
178755
157458
154384
131314
79264
43686.6
23275.4
15043.2
13126.4
17471.3
29816.7
50699.7
76350.9
99786.4
118879
118541
130095
115406
60664.7
30194
15181.8
8952.14
6831.71
8022.54
13547.8
24292.9
38795.4
53379.7
65482.2
75795.1
99104.9
83211.5
39768.1
18450.9
8799.88
4895.49
3486.41
3803.57
6432.84
12264.8
20963.8
30498.6
38849.2
50026.6
80279
51290
22471.2
9655.03
4371.01
2347.48
1651.51
1834.26
3276.64
6702.59
12303.5
19129.6
26227
36765
70786.8
27617.3
10952.8
4333.34
1868.28
990.131
737.285
946.53
1907.01
4159.81
8050.07
13287.2
19755.6
32121.9
81438.4
13806.8
4901.06
1778.41
738.312
403.666
361.646
604.303
1368.02
3055.09
6013.51
10353.4
16919.1
34808.6
109091
7717.54
2545.34
883.39
382.303
242.139
280.027
543.397
1230.13
2659.25
5186.84
9310.3
17757.8
47737.3
151891
6884.16
2386.74
903.055
473.657
353.665
405.072
683.314
1364.58
2751.94
5337.59
10424.4
24354
74238.6
194032
11608.5
4783.55
1895.83
1054.94
820.56
842.777
1151.35
1935.16
3586.16
7010.35
15025.1
40501.1
108700
214652
26698.6
16029.4
7844.53
3589.68
2221.22
1985.78
2344.22
3415.22
5754.5
11044.7
24892.7
65818.2
136190
214017
52619.2
41691.8
26878.9
14040.2
7358.82
5100.72
5024.18
6464.64
9862.67
17699.8
37261.9
83405.8
140603
200439
84831.8
78415.3
63292.9
42939.3
25950.6
16055.8
12268.9
12791.6
16970.4
27264.4
49377.5
91095.6
135276
184325
116770
75402.1
52344.4
37630.2
33470.6
37841.5
53565.8
80075.3
113449
146434
175228
198722
217457
234606
99193.7
61142
38725.5
24841.2
19263.9
19301.6
26178.6
40672.9
61854.3
85700.5
107619
127759
143269
161278
82311.1
48588.4
28478.4
16898.5
11662.4
10211.2
12730.5
20175.3
32882
48872.6
65165.3
80246
95974.1
117658
62340.7
35478.4
19680.2
10978
6953.58
5483.07
6249.85
9925.58
17294.2
27588
38785.9
49148.5
58783.3
80647.4
42838.3
23237.8
12109.3
6383.78
3808.43
2817.85
3039.13
4905.9
9184.89
15824.2
23589.9
31310.8
39574.9
60142
26485
13328.6
6458.29
3224.2
1845.95
1335.04
1457.42
2505.14
5076.31
9422.35
15017.5
21276.7
29060.4
47580.1
14555
6603.59
2956.2
1405.56
787.088
587.215
721.876
1410.05
3087.19
6080.28
10299.2
15672.3
23670.1
45385.4
7450.95
2965.37
1206.76
546.679
308.681
265.13
422.079
957.686
2193.56
4446.91
7880.4
12876
22235.6
51778.6
4379.1
1525.33
552.797
239.719
147.191
167.481
339.996
817.827
1859.5
3776.08
6948.69
12439.7
25431.3
66997.6
4191.08
1430.36
508.275
239.903
170.244
207.355
394.532
873.389
1893.03
3835.09
7434.87
14889.9
35000.6
88062.6
7050.41
2734.68
1032.91
536.629
401.529
426.78
643.122
1203.73
2417.74
4867.9
9864.11
21638.4
50410.3
109797
16266.6
8626.52
3885.59
1740.44
1114.52
1044.51
1319.91
2093.73
3783.34
7303.85
14988.3
33179.4
70418.8
132601
34321.8
23238.2
13297.9
6464.66
3412.41
2618.38
2858.47
3959.58
6365.45
11351.3
22161.4
46741.6
91953.1
156159
60782.5
47056.4
32873.4
19877.7
11223.7
7234.39
6369.16
7550.02
10730.4
17262.3
30846.4
60989.3
113137
179296
94624.6
59693.7
41425.4
30364.5
26328.2
26292.8
31270.8
40609.7
53594.5
68404
86744.8
116332
175397
259342
60392.7
38626.3
25820.4
17967.2
14479
13637.3
15867.2
21307.7
30107.4
41528.3
56330.3
77304.6
110159
155676
38984
25488.6
16583
10963.7
8202.03
7208.6
8062.13
11114.7
16915.1
25249.6
36179
50683.8
70424.8
100176
25464.9
16521.5
10347.2
6504.67
4558.65
3762.17
4035.73
5701.83
9391.63
15210.2
22956.4
32777.8
45440.5
65499.5
16442.1
10086.6
5972.54
3561.88
2364.52
1861.37
1949.1
2865.59
5149.43
9079.8
14535.7
21494.6
30476.2
46009.2
10230.7
5654.23
3091.74
1741.11
1105.42
848.74
904.918
1442.68
2862.75
5492.96
9390.25
14610.3
21738.1
34532.5
6118.98
2911.27
1424.68
749.48
458.95
356.406
421.06
778.999
1715.78
3538.83
6438.51
10621.7
16844.7
28523.8
3789.61
1484.75
616.389
292.267
173.201
147.56
223.2
502.809
1198.14
2579.05
4909.34
8550.25
14509.2
26453
2810.88
922.861
311.049
124.921
72.3694
78.498
162.498
415.737
1013.2
2202.49
4303.64
7859.05
14256.2
27630.3
2921.62
930.163
290.963
111.382
68.4401
84.1779
177.75
438.201
1035.51
2234.38
4452.14
8465.87
16071.6
31915.9
4346.02
1576.13
550.916
241.226
161.161
173.206
285.553
596.044
1304.98
2752.4
5512.09
10605.7
20025.4
39544.6
8545.89
3927.64
1663.95
745.749
471.559
449.534
601.868
1034.89
2007.48
3981.57
7731.4
14492.7
26830.3
53521
17115.1
9567.85
4956.89
2414.81
1386.85
1176.15
1378.35
2018.71
3397.32
6127.03
11286
20773.8
39847.5
76482.8
31880.4
19865.4
11962.3
6739.69
3952.21
2982.73
3095.85
3996.85
5913.91
9599.03
16593.5
31323.2
65925.2
118138
201016
238188
279097
357485
669062
2.68773e+06
174384
222946
270353
319418
523830
2.11731e+06
161156
229001
289501
315944
443011
1.75605e+06
150985
251788
326976
322411
393838
1.52485e+06
154956
295980
374639
330806
363301
1.38821e+06
177690
359155
412902
329040
345374
1.3265e+06
224525
411622
416560
312953
332878
1.32667e+06
276139
425273
385576
294109
333123
1.37034e+06
305228
391731
340898
285288
348410
1.45469e+06
295042
334183
306488
287652
371504
1.58621e+06
260241
282606
286505
295060
401540
1.77079e+06
228561
249670
272067
302958
439976
2.01283e+06
205553
229361
261855
310892
489946
2.34458e+06
191571
219321
255688
323438
561674
2.82272e+06
258511
311124
345766
379217
557254
2.17096e+06
189275
252438
317326
356241
461858
1.72559e+06
152309
226150
319949
367640
419063
1.44584e+06
121194
211702
340909
391059
402583
1.25824e+06
105222
216806
380510
419080
398131
1.13535e+06
101048
242858
427813
438848
387840
1.07705e+06
114057
278286
457668
438637
375376
1.06735e+06
136053
306695
456269
422681
370027
1.09631e+06
158336
311807
424386
402552
381576
1.16472e+06
171248
290946
384024
394771
409631
1.27966e+06
172567
261710
353946
400833
449822
1.4435e+06
174420
246852
341824
412116
493764
1.65865e+06
187836
251745
340966
416040
533182
1.94302e+06
205555
270737
341962
405226
568852
2.33363e+06
353264
458051
514587
503140
579169
1.54278e+06
216270
309221
400067
446890
524891
1.26448e+06
150328
235635
342823
427280
503506
1.09606e+06
104527
184065
308429
429112
490245
979138
79274.9
155003
295367
442432
490747
891173
63319.7
137666
300552
465208
493110
836654
55835.1
133995
322194
485661
500718
829455
54979.7
143416
343586
501396
509947
865983
59416.9
155371
353384
505192
525893
944604
67199.7
161153
345598
506368
561723
1.06765e+06
74527.9
159597
333429
521281
621284
1.23784e+06
84043.5
163915
337126
549063
682974
1.44465e+06
108745
192187
363900
568368
718745
1.68228e+06
147811
250486
414225
563752
712681
1.96768e+06
175044
211866
260800
357643
680624
2.9805e+06
128412
162086
217575
298512
519323
2.32456e+06
94574.8
127485
193939
276578
432599
1.88517e+06
62253.8
99924.2
180849
267844
386453
1.5878e+06
43415.6
85421.5
177948
269486
358520
1.38595e+06
34453.4
85547.4
190282
279271
346730
1.25288e+06
34025.1
97442.9
212424
287506
333948
1.18812e+06
41053.1
118153
233056
287390
321234
1.18777e+06
54842.5
138064
236980
274233
313962
1.25179e+06
71891.8
146926
222435
255292
318776
1.39325e+06
86393.3
142670
198334
236918
337554
1.60383e+06
94955.5
133532
175664
221916
369263
1.89526e+06
97184.2
123536
158406
214220
414027
2.28726e+06
95661.4
119062
154315
223580
469898
2.75827e+06
204811
269363
330811
399234
616278
2.45958e+06
122308
173261
245880
329266
493612
1.91703e+06
74346.9
115284
192233
290305
427092
1.54357e+06
43538.9
74490.3
152278
266714
398453
1.27624e+06
28367.3
55817.8
129958
249642
382578
1.08888e+06
20436.9
47626
124092
245640
364890
967722
17381.4
47767.4
131373
248137
346377
905005
18406.9
55074
144952
249887
331623
893184
23728.5
66484.7
155365
244835
318697
932098
32824.9
76524.4
153774
231320
323408
1.04354e+06
43710.8
82043.9
144002
217664
351789
1.22613e+06
54217.1
85092.7
134941
210236
398356
1.467e+06
63345.7
88943
133773
216089
454738
1.76827e+06
70988.8
97698.9
146658
240683
514171
2.17478e+06
187305
291348
413640
520095
692053
1.97996e+06
94041.3
156462
257599
383826
563241
1.53137e+06
47260.6
88101
170206
300079
481818
1.2167e+06
26457.1
49315.3
112959
242251
438708
988058
16839.1
33571.2
82627.6
197630
397097
821574
11584.8
25241
66310.8
169930
355008
696892
8803.77
21077.9
59331.7
154483
319674
618433
7760.15
20195
59138.8
147318
295349
584759
8336.16
21954.3
62619.4
144230
281557
601014
10754
25473.9
65162.8
140873
290349
680390
14942
29852.8
66332.7
140891
327378
834456
20669.8
35368.1
69880.2
151551
389294
1.05476e+06
27939.2
43802.5
82108.1
181545
465777
1.32027e+06
37666
59388.1
111674
236666
534896
1.63052e+06
2.74052e+06
551641
280479
201151
159692
134927
2.30719e+06
480553
257456
194643
160144
139616
1.99599e+06
437964
254405
204681
172226
146693
1.72805e+06
412349
266676
227029
186977
147060
1.55892e+06
404459
291644
253155
189590
128137
1.4559e+06
425090
320406
261397
165681
93980.9
1.41258e+06
463238
326138
230371
122980
59370
1.42726e+06
491222
294539
174610
80645.2
34413.2
1.49941e+06
493551
247269
124665
52347.6
21092.6
1.61072e+06
482326
209873
96547.8
40837.5
17383.1
1.76923e+06
471868
193801
89976.2
42987.6
22159.4
2.01096e+06
462481
193762
100192
57231.3
36789.5
2.38706e+06
491252
214129
123773
81232.5
58990.6
2.98417e+06
590387
261146
164504
118737
90852.1
2.15966e+06
578895
329653
234893
169336
126869
1.80598e+06
517268
300463
206458
145343
110633
1.56941e+06
476455
281402
193130
132209
96628.1
1.39541e+06
449111
274769
192539
123839
82112.7
1.2628e+06
438325
281894
193668
109461
64204
1.18991e+06
455229
286594
178822
88509.6
45632.8
1.17284e+06
485506
273053
147380
64261.9
29106.4
1.19861e+06
509422
243849
112320
44109
17602.4
1.25775e+06
517412
213451
86323.4
31844.5
11794.1
1.34829e+06
503891
195020
75455.8
28287.8
10916.4
1.46735e+06
485301
191528
78217.1
33033.7
14965.8
1.63942e+06
478850
203343
94921.6
47705.6
26377.3
1.90347e+06
497739
229965
123333
71962.2
45744.8
2.32952e+06
597812
284627
170766
111434
76652.6
1.57555e+06
599253
415671
264288
160590
97618.4
1.35324e+06
561605
366771
200758
109216
65642.6
1.1891e+06
517387
313130
158684
80868.7
46868.7
1.05661e+06
482759
267911
133981
64814.5
34941.6
957489
459022
238179
116397
53071.1
25964.4
909916
446122
219837
101523
43007.2
18794.4
915904
447208
207247
87842.6
34216.1
13329.1
966483
460459
199751
77960.2
28074.9
9853.13
1.04332e+06
478554
197057
72800.2
24900.3
8230.41
1.12774e+06
484389
198826
73308.2
25177
8486.1
1.21179e+06
479267
203343
78329.1
29030.2
10976
1.31071e+06
482002
219101
93464
39763.9
17753.7
1.45547e+06
521257
250189
118720
58003.3
30177.2
1.70697e+06
618226
313423
164174
89443.8
51534.3
2.57424e+06
538523
306007
248875
219962
198025
2.17072e+06
462675
278812
236378
215909
203113
1.89713e+06
416813
266740
236438
225467
221590
1.70675e+06
390768
265307
249502
253422
258467
1.57456e+06
385283
276328
283545
307048
303425
1.49078e+06
391989
308549
345012
365317
313327
1.43657e+06
419651
361622
406289
375231
262084
1.40998e+06
463411
405356
408485
312103
182074
1.4316e+06
510255
400967
340139
221465
117961
1.53403e+06
538302
353305
254941
153438
84071.8
1.69565e+06
563143
314338
203129
122594
74202.8
1.93625e+06
588134
295931
186187
120498
82987.9
2.30462e+06
603215
299919
194011
135771
101121
2.89279e+06
692539
338261
227008
170541
134952
2.06595e+06
491056
356982
334634
298600
251239
1.75612e+06
448932
347012
319712
275047
233446
1.54901e+06
416157
338698
310295
260142
216289
1.4142e+06
393086
335266
317905
268520
215524
1.32661e+06
382180
346669
350879
292506
208788
1.26987e+06
391308
381135
395625
297156
188001
1.22009e+06
431405
425699
407802
266463
148469
1.19879e+06
487834
437338
360101
208371
106005
1.22591e+06
548219
398730
279715
151106
74843.2
1.29771e+06
583845
345242
215484
115922
60949.5
1.4097e+06
597996
317448
187342
105503
60506.8
1.57436e+06
609926
315517
191361
117604
74748.6
1.82992e+06
611482
330842
215110
144277
99174.4
2.24506e+06
688611
376617
266104
196420
144694
1.51783e+06
554060
526415
510923
406670
281663
1.32547e+06
536896
528789
442782
307636
203142
1.20462e+06
513899
504366
392013
242155
149645
1.11853e+06
491987
479600
364436
217954
129530
1.04942e+06
473029
457674
350109
204566
113649
989604
466476
444456
329674
184629
96083.9
952137
487897
421124
288623
154903
76996.5
955275
500084
381580
240206
126274
61658
984577
522649
345342
202515
105795
51905.8
1.03025e+06
545694
328697
187341
98826.5
50064.5
1.09173e+06
562707
330783
189464
102734
54460.6
1.18334e+06
573263
351507
212136
123082
70417.5
1.32982e+06
604109
388115
250254
156620
96759.4
1.57974e+06
687296
460155
324881
222366
147215
50336.9
32411.8
22931.9
17690.8
16184.6
15698.5
16394.9
17964.4
21169.8
26200.4
33494.9
43290
66033.6
129595
22790.2
15233.9
10846.2
8339.85
7512.83
7312.55
7696.28
8534.54
10273.9
13191.4
17808.6
24968.2
41829.3
82952
11052.3
7262.75
5166.3
3954.32
3513.54
3403.35
3576.8
4006.41
4983.87
6805.81
9955.14
15369.5
26823.5
52354.3
5955.49
3557.82
2436.51
1836.03
1610.28
1548.03
1621.2
1847.01
2429.93
3646.38
5934.85
10049.9
18080.6
34118.3
3557.15
1784.8
1112.39
809.59
700.255
669.089
704.445
837.535
1215.46
2071.96
3784.01
6950.33
12791.2
23796.2
2349.8
929.381
487.549
331.981
281.789
269.402
292.847
384.262
651.193
1282.88
2593.19
5068.65
9564.37
17814
1710.39
525.246
211.609
126.512
103.882
101.345
121.697
194.623
402.747
900.949
1951.83
3966.59
7641.35
14379.2
1411.79
353.449
102.231
47.0059
35.8547
38.0372
58.3824
124.903
307.105
738.034
1644.58
3387.77
6581.7
12472.7
1303.7
295.65
66.7434
21.0855
13.8536
18.3909
40.5143
108.326
286.627
697.647
1547.16
3164.35
6116.52
11555.7
1373.55
315.022
69.6503
19.8871
12.2348
18.2375
44.063
119.313
309.185
732.777
1585.04
3175.41
6042.07
11286.1
1634.59
415.888
112.113
43.5953
30.4964
37.1708
69.3781
159.023
374.602
837.495
1738.93
3378.45
6282.15
11535.5
2484.78
743.109
254.477
128.541
97.8222
102.907
146.51
263.245
526.629
1064.51
2070.12
3838.38
6883.78
12270.5
4366.32
1568.95
653.224
379.133
301.472
299.454
364.35
532.913
886.575
1570.92
2805.31
4917.57
8466.09
14478.8
8226
3381.04
1606.01
1011.99
834.501
823.124
937.877
1221.03
1780.06
2817.19
4636.71
7749.24
13409.3
23237.2
22802.7
15248.8
11540.7
9569.93
9295.69
9410.37
9925.31
10753
12392.2
15197.8
19767.8
26107.8
36571.5
64406.7
9784.36
6660.07
5079.06
4224.11
4085.16
4180.59
4462.74
4907.21
5767.07
7290.81
9894.2
13868.6
21300.9
40681.4
4663.13
2987.69
2255.6
1878.62
1810.99
1857.16
1988.04
2207.34
2660.6
3536.17
5163.13
7969.54
13545.5
26708.9
2500.79
1387.12
992.563
818.638
786.451
805.555
863.335
972.116
1225.52
1773.25
2891.74
5023.52
9316.06
18551
1511.84
673.639
426.544
340.324
324.607
332.34
359.448
419.952
578.552
955.598
1782.36
3459.58
6820.97
13616.9
1036.01
354.777
180.415
133.109
124.836
128.342
143.391
183.624
296.616
580.241
1226.52
2578.48
5268.53
10515.1
795.079
213.889
79.0735
49.2703
44.4435
46.6862
57.4279
89.7853
182.139
417.267
957.382
2093.53
4333.31
8609.57
681.79
155.818
40.7446
18.312
15.053
17.1898
27.0009
57.7072
143.992
360.29
848.827
1860.53
3822.5
7499.76
633.619
136.304
28.8335
8.61301
5.90343
8.42291
19.1116
52.1328
142.091
360.337
837.306
1795.97
3610.95
6947.66
641.963
142.626
30.6445
8.6348
5.56081
8.75256
21.7537
60.3606
161.219
395.931
888.776
1844.36
3605.63
6784.09
699.704
175.262
48.1242
19.7094
14.5186
18.3492
35.2496
82.8995
200.892
462.945
991.378
1981.32
3761.85
6924.79
918.93
280.231
107.22
60.5781
48.255
51.7046
75.0635
137.742
282.399
585.867
1171.14
2228.83
4084.08
7328.99
1410.61
542.531
271.778
183.946
153.596
154.05
188.803
278.494
469.108
843.425
1530.81
2729.68
4764.94
8214.83
2441.2
1138.09
671.805
503.364
440.113
438.061
499.476
648.47
939.479
1473.48
2402.8
3966.07
6561.54
10673.2
7770.15
5682.82
4748.04
4375.64
4565.17
4918.19
5430.13
6103.37
7123.45
8688.38
11259.5
15274.7
21770.3
34870.1
3441.47
2495.67
2070.04
1894.35
1961.51
2119.41
2357.39
2684.09
3199.34
4033.16
5459.1
7799.74
11916
20599.5
1662.52
1109.36
895.74
814.35
840.552
908.495
1012.68
1161.97
1417.27
1874.98
2727.88
4263.53
7198.71
13524.1
899.226
502.137
377.88
338.644
349.177
377.769
422.548
491.162
623.83
895.862
1459.95
2579.18
4844.67
9670.12
554.971
237.889
154.651
133.553
137.169
148.912
168.633
203.112
280.564
461.039
870.499
1744.04
3565.83
7371.4
389.204
124.352
62.6326
49.5657
50.2198
54.9957
64.5138
85.0236
137.868
272.209
593.634
1306.99
2810.02
5887.89
304.701
76.4356
26.9104
17.5257
17.1021
19.2411
24.9324
40.2188
83.0803
196.037
470.289
1083.92
2369.05
4945.36
262.023
57.2895
14.1481
6.33998
5.60715
6.93782
11.6025
25.8696
66.8121
174.037
429.938
991.914
2143.84
4392.89
242.869
51.5566
10.5754
3.07483
2.24611
3.53506
8.55191
24.296
68.6606
181.184
439.927
987.949
2075.7
4135.98
244.219
54.9125
11.8753
3.46652
2.43457
4.0712
10.4165
29.6666
81.7019
207.865
485.01
1047.09
2123.63
4103.08
265.006
69.1158
20.1421
8.92749
7.00377
9.16499
17.9098
42.8688
106.504
252.969
560.282
1158.35
2267.15
4255.12
332.795
112.464
48.6611
29.5988
24.383
26.7882
39.7038
74.1854
155.417
330.852
681.306
1337.05
2516.95
4586.24
492.089
225.823
131.648
94.4893
80.2992
81.7672
102.142
153.675
264.239
485.467
903.305
1655.7
2968.57
5223.87
846.224
494.479
340.47
269.07
237.94
238.518
275.26
362.394
531.703
841.594
1387.36
2322.78
3906.6
6545.55
2980.2
2278.96
1947.41
1871.26
2031.32
2340.2
2809.74
3416.11
4221.05
5312.14
6907.25
9442.25
13735.9
21692.5
1334.9
996.935
834.611
785.511
841.138
961.835
1153.74
1418.26
1797.55
2359.06
3239.14
4697.06
7285.15
12288
641.415
432.448
348.029
322.865
344.582
393.016
470.32
581.524
755.224
1044.29
1551.23
2468.24
4216.2
7779.69
345.077
188.723
139.669
127.16
135.968
155.474
186.433
233.327
315.627
474.236
792.61
1430.53
2731.89
5475.67
211.947
86.1028
54.1112
47.3371
50.632
58.2925
70.8076
91.8808
135.285
232.713
453.066
933.812
1963.28
4163.78
146.529
43.7393
20.849
16.6137
17.603
20.5344
25.9121
36.8975
63.9191
132.356
299.74
685.002
1531.98
3340.74
111.859
26.5188
8.71189
5.60507
5.72809
6.91869
9.7358
17.075
37.6979
93.3853
234.019
564.034
1292.28
2827.07
94.2678
20.0066
4.6626
1.99073
1.83227
2.48498
4.60187
11.1417
30.4896
83.1823
215.177
521.022
1183.92
2546.26
88.3276
18.5518
3.69556
1.03265
0.79248
1.39084
3.64859
10.9299
32.2508
88.7712
225.604
531.891
1174.28
2451.2
93.4605
20.8755
4.53188
1.40613
1.09295
1.89075
4.87513
14.1514
40.1822
106.179
258.749
585.348
1244.22
2508
110.112
28.8528
8.79292
4.21995
3.5496
4.7564
9.22372
22.0631
55.7911
136.693
314.768
679.025
1386.41
2697.79
151.728
53.0587
24.0696
15.1278
12.9136
14.6849
22.1092
41.4717
87.7551
191.055
406.304
827.308
1616.2
3033.79
247.974
119.388
70.71
50.6453
43.6881
45.9936
59.4117
91.4525
159.848
299.4
572.185
1082.34
2005.09
3616.58
465.554
282.294
193.213
150.097
132.918
136.494
163.064
221.726
333.571
538.998
909.291
1564.39
2706.98
4649.24
1551.95
1159.18
938.585
863.882
927.522
1113.13
1440.99
1906.75
2550.27
3418.69
4628.87
6493.45
9570.77
14944.8
688.494
499.499
393.374
352.349
369.952
435.186
556.366
741.094
1021.52
1442.06
2084.33
3134.17
4947.54
8257.36
321.094
208.652
156.991
137.99
143.84
167.855
213.01
284.936
404.494
607.082
957.227
1584.69
2751.99
5031.45
164.478
86.0635
59.3444
51.0761
53.3116
62.3146
79.2484
107.631
160.346
263.548
469.087
879.131
1704.98
3417.15
94.6604
36.6107
21.4497
17.7339
18.5521
21.8858
28.3329
40.2632
65.9452
124.476
257.209
548.778
1175.93
2525.05
61.1995
17.3344
7.71033
5.79674
6.02772
7.25021
9.86691
15.6439
30.3514
68.4345
163.258
386.244
887.299
1983.35
44.8701
10.1275
3.08597
1.83834
1.84495
2.33228
3.6299
7.21234
17.6409
46.7645
122.811
307.761
731.24
1658.03
38.3253
7.83782
1.70037
0.642519
0.57339
0.844325
1.78389
4.8235
14.193
40.8289
110.615
280.053
665.252
1495.17
38.6651
7.85878
1.48729
0.381461
0.290429
0.552394
1.56058
4.93237
15.2308
43.8271
116.644
288.5
668.76
1464.89
45.1577
9.70108
2.06057
0.672191
0.561992
0.949499
2.35799
6.82357
19.8292
54.339
138.341
328.27
732.956
1550.16
58.657
14.8771
4.55661
2.31083
2.06113
2.76149
5.10929
11.7943
29.7828
74.7069
178.572
402.585
860.672
1749.65
88.5652
30.3779
13.6715
8.71076
7.74002
9.10143
13.6536
24.9899
52.161
114.578
250.284
528.621
1074.26
2090.92
157.31
73.924
42.3306
29.9729
26.5244
29.1933
38.9142
60.4393
105.543
198.767
386.745
751.577
1435.52
2659.16
314.572
183.889
120.09
91.0694
81.6235
87.261
108.989
153.152
234.896
384.795
659.816
1159.51
2052.91
3594.06
1065.73
770.371
579.747
485.596
478.776
554.267
731.226
1027.1
1491.55
2172
3142.06
4594.06
6918.33
10794.2
457.559
322.081
235.422
191.294
183.607
207.519
269.214
379.52
568.628
877.759
1367.87
2161.44
3505.75
5866.05
201.221
128.129
89.4562
70.9414
67.315
75.4713
97.4597
138.675
215.452
356.392
609.473
1064.18
1898.5
3487.88
94.4369
49.3264
31.7473
24.5263
23.2326
26.167
34.1306
49.9314
82.5421
150.807
291.225
574.017
1140.05
2300.86
48.951
19.1629
10.6434
7.88697
7.4831
8.55806
11.522
18.0227
33.357
70.1524
155.851
346.777
759.186
1649.05
29.0711
8.25762
3.52876
2.3784
2.24818
2.65493
3.85362
6.93167
15.3396
38.0004
95.9203
234.975
552.697
1259.91
20.885
4.63892
1.34222
0.703424
0.640902
0.817322
1.41704
3.25839
8.90416
25.2844
69.476
180.307
441.812
1032.01
19.0117
3.792
0.771735
0.245702
0.195357
0.305732
0.740666
2.23843
7.06806
21.4058
60.5916
159.772
394.78
922.477
21.3314
4.17669
0.750527
0.177739
0.129826
0.249066
0.721449
2.36007
7.57824
22.7562
63.3241
163.897
397.544
910.471
27.4036
5.5959
1.15629
0.401055
0.354682
0.558785
1.26306
3.51423
10.2852
29.059
77.0471
191.297
447.54
991.009
38.5149
9.29402
2.81712
1.50821
1.41995
1.87612
3.21821
6.91553
16.975
42.9927
105.885
248.438
554.662
1176.45
62.1507
20.3738
8.9601
5.82277
5.4183
6.54547
9.61871
16.7876
33.7242
73.4319
162.892
354.482
746.607
1503.77
116.647
52.0933
28.6394
20.2558
18.5925
21.367
28.9794
44.6302
76.484
142.636
279.085
552.46
1082.15
2052.02
242.697
134.06
83.2457
62.2542
57.2175
63.9678
82.7833
118.52
182.614
299.467
515.797
916.515
1649.65
2931.31
870.898
621.489
446.55
343.792
301.613
313.185
389.282
552.067
850.251
1343.27
2099.39
3239.8
5042.63
7980.4
362.355
253.423
176.877
131.974
112.603
114.165
139.544
198.454
315.275
528.644
893.37
1501.05
2527.66
4309.1
150.178
96.9281
64.746
46.8978
39.3234
39.5032
48.3304
70.0931
116.79
211.37
393.277
732.653
1359.02
2546.54
64.0539
35.1665
21.8906
15.3417
12.7248
12.8252
16.024
24.419
44.295
89.5481
187.99
393.431
809.924
1664.51
29.4792
12.5471
6.90178
4.61946
3.80145
3.89753
5.13534
8.67402
18.1066
42.2879
101.031
235.918
532.348
1176.75
16.0096
4.90976
2.12851
1.29468
1.05265
1.12677
1.66856
3.39305
8.55721
23.1708
61.7934
157.135
379.784
883.035
11.5341
2.64437
0.764709
0.357584
0.277341
0.331252
0.62546
1.65972
5.03364
15.226
43.66
117.211
295.722
708.445
11.456
2.27715
0.448701
0.124728
0.083346
0.129656
0.349264
1.16117
3.90933
12.4254
36.6638
100.43
257.162
620.939
14.198
2.70502
0.469671
0.108181
0.0764104
0.135872
0.376861
1.24175
4.11527
12.8685
37.3894
101.02
255.439
608.329
19.6142
3.84733
0.781975
0.290808
0.268542
0.391855
0.780853
2.01167
5.81031
16.7846
46.1619
119.497
291.659
672.725
29.2192
6.7618
2.03841
1.15166
1.13206
1.47296
2.33956
4.59294
10.6956
26.8997
67.5906
163.872
379.576
835.065
49.3625
15.5039
6.71308
4.48844
4.35249
5.34835
7.66241
12.6795
24.192
51.4076
114.343
253.912
549.896
1139.58
95.7465
40.808
21.8356
15.6481
14.9021
17.6638
24.0579
36.4003
60.6727
110.852
215.753
431.209
860.622
1663.93
204.095
107.453
64.3915
48.2421
45.694
52.9142
69.8361
100.395
153.594
249.688
428.118
763.073
1389.41
2500.99
779.845
557.182
391.628
285.586
227.151
207.588
229.202
306.523
476.884
799.745
1351.67
2240.39
3672.69
6010.9
316.407
222.785
152.195
107.546
83.2111
74.4171
81.3132
109.768
176.731
313.962
572.241
1034.98
1841.96
3263.81
125.207
82.834
54.3114
37.1456
28.1222
24.8766
27.4063
38.3351
65.8822
127.5
256.099
512.942
1006.33
1962.29
49.4224
28.8194
17.7818
11.7244
8.71496
7.70694
8.77157
13.2602
25.5417
55.9564
126.6
282.623
611.726
1302.85
20.5269
9.65855
5.38036
3.38238
2.47222
2.2202
2.72911
4.78145
10.9127
27.6729
70.4385
173.115
406.797
925.909
10.2368
3.47996
1.57168
0.902205
0.645835
0.609437
0.883236
1.95839
5.43162
15.7135
43.9203
116.128
290.067
691.587
7.36684
1.7719
0.52987
0.235872
0.160138
0.173575
0.343582
1.00863
3.28407
10.4052
30.9469
85.8983
223.309
548.166
7.84451
1.5572
0.302975
0.0799823
0.0476055
0.0710217
0.202427
0.714336
2.51461
8.30108
25.3902
71.9856
190.213
471.459
10.4438
1.94075
0.32811
0.0769701
0.0556074
0.0916667
0.236695
0.768937
2.60028
8.40569
25.3461
71.0148
185.616
454.637
15.2315
2.88493
0.580029
0.231941
0.224025
0.313223
0.566486
1.34881
3.80368
11.1347
31.5104
84.2727
212.219
503.204
23.764
5.29807
1.59779
0.952334
0.971249
1.25754
1.90247
3.48062
7.69525
19.0657
48.3993
119.952
284.947
642.403
41.5952
12.5715
5.41404
3.74499
3.75866
4.67464
6.58558
10.4855
19.1579
39.6538
87.8205
197.229
435.248
920.693
82.5247
33.872
17.892
13.1142
12.8943
15.5836
21.2075
31.5779
51.3626
91.9379
177.467
356.381
721.107
1416.81
179.281
91.1213
53.5031
40.6379
39.6021
46.9191
62.4121
89.4271
135.368
217.595
370.55
660.988
1215.04
2215.49
713.401
513.756
358.535
253.981
189.84
157.938
156.582
192.704
290.493
497.658
890.656
1582.59
2747.7
4684.33
283.87
201.678
136.916
94.0058
68.3175
55.6341
54.9263
69.0426
109.105
199.185
383.754
741.928
1399.79
2599.1
108.771
73.3342
47.9075
31.7959
22.5472
18.1216
18.1351
24.0157
41.4474
83.7714
178.649
381.298
791.692
1618.93
40.7277
24.7799
15.3392
9.80101
6.79766
5.44529
5.68098
8.35376
16.6591
38.6969
92.949
219.433
498.723
1105.3
15.7126
7.96289
4.51811
2.75474
1.87102
1.52015
1.74924
3.10866
7.53306
20.2616
54.2033
139.231
339.999
797.858
7.31875
2.7008
1.27126
0.713355
0.473346
0.406751
0.576145
1.34969
3.9778
12.037
34.8948
95.4071
245.516
599.217
5.2359
1.30334
0.405222
0.179582
0.113611
0.115253
0.235747
0.735563
2.49812
8.16266
24.9581
71.1491
189.449
473.686
5.83524
1.14653
0.221101
0.058367
0.0336099
0.0493052
0.145434
0.530666
1.91855
6.49275
20.3637
59.1528
159.697
402.272
8.13806
1.47012
0.241487
0.0585812
0.0447194
0.0716934
0.17779
0.572454
1.96173
6.48402
20.0426
57.4968
153.384
381.601
12.3386
2.25255
0.446037
0.190676
0.192529
0.266008
0.459585
1.04689
2.90813
8.58895
24.7737
67.6724
173.743
418.422
19.9615
4.2798
1.28943
0.80839
0.851457
1.10574
1.63734
2.88652
6.18385
15.1652
38.7628
97.504
235.532
539.297
35.9882
10.4703
4.49858
3.22416
3.33154
4.18407
5.84965
9.11943
16.2203
32.9634
72.7974
164.96
369.462
794.418
72.8586
28.9181
15.1567
11.408
11.5288
14.1166
19.1889
28.2661
45.1972
79.664
152.927
308.872
633.387
1264.36
161.021
79.6476
46.1201
35.7222
35.7121
42.9763
57.325
81.7147
122.488
194.911
330.05
590.116
1096.26
2029.1
108277
186009
306577
455172
587812
609665
66830
126060
228817
376402
541040
623137
48676.3
99432.6
193740
340976
523043
646192
38192.7
83120.9
171570
317886
510250
660317
35402.2
78227.5
163021
304238
493465
655867
33833.3
74760.3
155516
290267
470313
629226
34704.4
75666.5
156007
288844
460230
601524
37483.7
81060.9
166277
307712
478136
587400
43512.1
93549.7
192413
356026
536149
596821
52954.7
112688
232929
429932
619689
614371
65666.7
136652
282926
516610
688234
607757
79720.9
161646
335790
602283
719648
582365
103884
203632
408941
683175
721946
567408
171887
322023
541848
724564
683442
573488
55372.7
104008
189653
323730
498508
692660
34650.9
71125.1
143120
270502
459202
687843
26539.4
58463.9
125562
251198
444226
682892
22169.6
51549.5
116449
241070
433926
672905
21609
51065.5
115643
237265
424092
655398
21348.4
50104
112308
228095
407374
627132
21966
50627.5
111338
223675
399910
607999
23264.2
52499.1
113806
229225
412420
608362
26289.7
58203.2
125683
256684
461304
636727
31668
69136.3
150168
312034
548657
684402
40402.2
86533.8
188464
388838
646848
711444
52019.4
108164
234061
471359
717266
706196
68590.3
135696
286870
551221
745986
695874
108459
205359
390179
633948
736883
692254
18986.3
37345.2
74334.6
146211
274152
475349
13134.1
27769.6
59977.7
129174
263826
484029
11077.5
24964.6
57261.6
129644
271860
497917
10329.3
24610.2
59182.8
137855
288352
514250
10853.3
26669.8
65034.3
149727
304465
524646
11543.6
28505.7
69031
155383
308465
520486
12503.9
30467.8
72237.8
158538
309561
515108
13721.6
32555.3
74937.9
161345
313925
516998
15598.4
35770.7
80115.8
171094
334928
540521
18509.7
40989.1
90233.9
193966
381256
588025
23342.7
49962.7
108991
234398
448992
642113
30892.7
63755.8
136840
287951
521257
682158
42564
83258.5
171583
346323
581146
706322
66048.3
122583
233948
422304
620670
714035
6999.16
13450.2
26991.4
56681.3
123408
267371
5200.57
10837.2
23607.4
54119.7
128021
293243
4541.63
10214.9
23879.3
58325.8
142661
324654
4508.46
10952.9
27384.6
69660.6
170161
368616
5003.81
12846.6
33397.5
85453
202808
413783
5796.8
15272.7
40020.4
100383
228447
441550
6894.35
18070.9
46335.8
112207
244617
453052
8174
20747.4
51101.3
118841
250461
452555
9744.98
23546.6
55276.5
123702
255397
455247
11743.4
26734.7
59826.8
130152
267315
470395
14606.5
31325.2
67614.1
144993
297147
508017
19243.8
39193.5
82318.4
173755
347445
562025
26984
51853.9
104414
213397
405593
613200
41596.3
75403.3
142221
269203
453197
632075
3560.66
6560.59
12546.5
25552.7
56900.4
136589
2599.4
5241.29
10971.9
24791.5
61666.8
162375
2168.98
4787.72
11020.4
27338.6
72843.7
196059