/*--------------------------------*- C++ -*----------------------------------*\
| =========                 |                                                 |
| \\      /  F ield         | OpenFOAM: The Open Source CFD Toolbox           |
|  \\    /   O peration     | Version:  v2106                                 |
|   \\  /    A nd           | Website:  www.openfoam.com                      |
|    \\/     M anipulation  |                                                 |
\*---------------------------------------------------------------------------*/
FoamFile
{
    version     2.0;
    format      ascii;
    arch        "LSB;label=32;scalar=64";
    class       volScalarField;
    location    "0.000131";
    object      rho;
}
// * * * * * * * * * * * * * * * * * * * * * * * * * * * * * * * * * * * * * //

dimensions      [1 -3 0 0 0 0 0];

internalField   nonuniform List<scalar> 
144746
(
2.40946
2.41285
2.4145
2.41636
2.41753
2.41873
2.41965
2.42041
2.42092
2.42102
2.42074
2.41962
2.41757
2.41388
2.41127
2.41566
2.41813
2.4204
2.42149
2.42248
2.42303
2.42325
2.42336
2.4233
2.423
2.42186
2.41959
2.41469
2.41191
2.41738
2.42011
2.42278
2.42397
2.42489
2.42508
2.42497
2.4247
2.42436
2.42392
2.4229
2.42062
2.41551
2.41233
2.41753
2.42054
2.42343
2.42478
2.42574
2.426
2.42586
2.42544
2.42497
2.4244
2.42335
2.42112
2.41608
2.41085
2.41648
2.41984
2.42292
2.42454
2.42562
2.42587
2.42566
2.42527
2.4249
2.42429
2.4232
2.42109
2.41648
2.40954
2.41493
2.41857
2.4218
2.42381
2.42507
2.42554
2.4255
2.42511
2.42477
2.4241
2.42301
2.42095
2.41676
2.40796
2.41319
2.41716
2.42054
2.42295
2.42437
2.42487
2.4249
2.42442
2.42402
2.42331
2.42218
2.42019
2.41652
2.40611
2.41147
2.41564
2.41933
2.42197
2.42346
2.42407
2.42413
2.4237
2.42307
2.42225
2.4211
2.41918
2.41594
2.40405
2.40964
2.41404
2.41793
2.42056
2.42213
2.42283
2.42289
2.42253
2.42189
2.42107
2.41969
2.41771
2.41454
2.40177
2.40767
2.41226
2.41641
2.41908
2.4208
2.42155
2.42149
2.42094
2.42004
2.41916
2.41764
2.41561
2.4125
2.39932
2.40539
2.41004
2.41407
2.41661
2.41829
2.41912
2.41916
2.41873
2.41778
2.41658
2.41497
2.41294
2.40986
2.39643
2.40242
2.407
2.41086
2.41332
2.41494
2.41569
2.41555
2.41493
2.41377
2.4125
2.411
2.40919
2.40633
2.39382
2.39906
2.40354
2.4073
2.40964
2.41114
2.41173
2.41138
2.41062
2.40932
2.40802
2.40643
2.40482
2.40213
2.39052
2.39457
2.39816
2.40197
2.40438
2.40579
2.4063
2.40581
2.40495
2.40331
2.40184
2.4
2.39879
2.39711
2.3899
2.39521
2.40021
2.40558
2.41043
2.41422
2.41761
2.4197
2.42121
2.42122
2.41948
2.41544
2.40925
2.40099
2.39856
2.40532
2.41014
2.41445
2.41827
2.42083
2.42319
2.4244
2.42541
2.42515
2.42357
2.41963
2.41362
2.40489
2.40574
2.41241
2.41669
2.42071
2.42391
2.42612
2.42787
2.42883
2.42922
2.42827
2.42634
2.42244
2.41659
2.40773
2.41123
2.41777
2.4217
2.42583
2.42879
2.4308
2.43196
2.4324
2.43226
2.43101
2.42866
2.42464
2.41896
2.41052
2.41409
2.42018
2.42381
2.42848
2.43134
2.43362
2.43473
2.43512
2.43471
2.43276
2.43048
2.42644
2.42071
2.41269
2.41342
2.41984
2.42409
2.42948
2.43287
2.43532
2.43647
2.4367
2.43595
2.43395
2.43105
2.42694
2.4217
2.41433
2.41103
2.41805
2.42327
2.42917
2.43254
2.43533
2.43677
2.43721
2.43643
2.43448
2.43165
2.42763
2.42266
2.41568
2.40779
2.41537
2.42185
2.42771
2.43186
2.43484
2.4364
2.4369
2.43603
2.4341
2.43124
2.42731
2.42283
2.41628
2.40318
2.41122
2.41916
2.42508
2.43018
2.43322
2.43484
2.43523
2.43431
2.43252
2.42987
2.42629
2.42208
2.41619
2.39837
2.4068
2.41549
2.42189
2.42729
2.43039
2.43201
2.43226
2.43129
2.42944
2.42689
2.42361
2.41975
2.41442
2.39257
2.40164
2.41111
2.4179
2.4234
2.42643
2.42778
2.42752
2.42634
2.42433
2.42221
2.41898
2.41531
2.41018
2.38614
2.39583
2.40526
2.41247
2.41785
2.42092
2.42223
2.42219
2.42072
2.41807
2.41579
2.4123
2.40874
2.40347
2.37935
2.39035
2.39998
2.40756
2.41243
2.41489
2.41499
2.41393
2.41205
2.40998
2.40719
2.40333
2.39949
2.39421
2.37102
2.38073
2.39022
2.39867
2.4037
2.40599
2.40579
2.40426
2.40213
2.39902
2.39553
2.39106
2.38715
2.3827
2.41405
2.426
2.43585
2.44318
2.45052
2.45551
2.46144
2.4654
2.46916
2.47082
2.46849
2.46156
2.44907
2.4307
2.4333
2.44234
2.45156
2.45735
2.46354
2.46844
2.47352
2.47671
2.47845
2.47809
2.47539
2.46753
2.45377
2.43583
2.4479
2.45648
2.4648
2.47073
2.47568
2.47946
2.48244
2.48392
2.48497
2.48359
2.47952
2.47183
2.45934
2.44214
2.4577
2.46726
2.47468
2.48073
2.48516
2.48805
2.48976
2.49026
2.4898
2.48756
2.48322
2.47533
2.46347
2.44726
2.46113
2.47152
2.47947
2.48602
2.49039
2.49286
2.49392
2.49384
2.49265
2.48971
2.48493
2.47739
2.46671
2.45183
2.46022
2.47099
2.47999
2.48746
2.49221
2.49496
2.49599
2.49568
2.49391
2.49071
2.48583
2.47853
2.46882
2.45501
2.45469
2.4666
2.4775
2.48537
2.49121
2.49459
2.49592
2.4957
2.49373
2.49067
2.48581
2.47903
2.47029
2.45801
2.44834
2.46222
2.47367
2.48297
2.48949
2.4933
2.49478
2.49452
2.49242
2.48949
2.48487
2.47859
2.47051
2.45933
2.43906
2.45465
2.4672
2.4784
2.48597
2.49033
2.49212
2.49191
2.48984
2.48712
2.48284
2.47729
2.4698
2.46027
2.43164
2.4476
2.46111
2.47328
2.48155
2.48622
2.4881
2.48781
2.48559
2.48275
2.47845
2.47318
2.46618
2.45755
2.42124
2.43807
2.45334
2.46679
2.47581
2.48068
2.48219
2.48169
2.47926
2.47628
2.47191
2.46667
2.45969
2.45069
2.4113
2.42899
2.44478
2.45873
2.46813
2.4733
2.47426
2.47337
2.47024
2.46659
2.46137
2.45566
2.44807
2.43973
2.39726
2.4162
2.43346
2.44865
2.45842
2.46361
2.46354
2.46145
2.45718
2.45252
2.44568
2.43937
2.43049
2.42257
2.37993
2.40221
2.42033
2.43598
2.44536
2.45057
2.4503
2.44754
2.4421
2.43561
2.4272
2.41953
2.40855
2.3987
2.41064
2.40773
2.40604
2.40307
2.4034
2.40193
2.41083
2.40591
2.40456
2.40126
2.40221
2.40063
2.41089
2.40514
2.40321
2.40027
2.40133
2.39951
2.41124
2.40466
2.40246
2.39952
2.40079
2.39917
2.41158
2.40462
2.40218
2.39909
2.40042
2.39784
2.41202
2.40503
2.40262
2.39944
2.40068
2.39876
2.41216
2.40551
2.40298
2.39942
2.40047
2.39907
2.412
2.40573
2.40323
2.39933
2.4003
2.39889
2.41084
2.40501
2.40293
2.39905
2.39979
2.39831
2.40925
2.40398
2.40194
2.39796
2.39888
2.39768
2.40659
2.4015
2.40012
2.39729
2.39799
2.3974
2.40333
2.39856
2.39703
2.39372
2.39586
2.39399
2.39919
2.39478
2.39348
2.39044
2.39093
2.38965
2.39522
2.39154
2.39025
2.38737
2.38866
2.3874
2.39199
2.38209
2.37712
2.36677
2.36703
2.35785
2.3971
2.38598
2.38035
2.36897
2.36944
2.35858
2.39821
2.38651
2.38097
2.37074
2.37263
2.36171
2.40106
2.38927
2.38433
2.3754
2.37811
2.36659
2.40338
2.39236
2.38854
2.38074
2.38403
2.37319
2.40592
2.39612
2.39328
2.38657
2.39018
2.38003
2.40798
2.3993
2.39687
2.39094
2.39391
2.38535
2.4095
2.4016
2.39912
2.39335
2.39541
2.38785
2.41015
2.40256
2.39958
2.39399
2.39564
2.38832
2.40882
2.40077
2.39724
2.39121
2.3927
2.38436
2.40488
2.39638
2.39226
2.38494
2.38537
2.37722
2.39834
2.38854
2.38365
2.37354
2.37228
2.36305
2.38939
2.37845
2.37309
2.3623
2.36088
2.35291
2.3788
2.36682
2.36229
2.35123
2.35088
2.342
2.4051
2.37784
2.35199
2.3139
2.28578
2.21329
2.41676
2.38865
2.36185
2.32099
2.29436
2.21228
2.42191
2.39364
2.36661
2.32656
2.30388
2.22015
2.42815
2.40076
2.37658
2.33908
2.32078
2.24247
2.43427
2.40766
2.38533
2.35187
2.33843
2.27141
2.43891
2.41438
2.39509
2.36561
2.3554
2.30038
2.44372
2.42099
2.40374
2.3778
2.36831
2.32323
2.44675
2.42636
2.41015
2.38658
2.37619
2.33675
2.44845
2.42976
2.41385
2.39124
2.38009
2.34393
2.44674
2.42794
2.41227
2.38847
2.3752
2.33653
2.44001
2.42011
2.40351
2.37828
2.36152
2.31888
2.42681
2.40616
2.38723
2.35437
2.33393
2.28185
2.41002
2.38463
2.36093
2.32565
2.30223
2.24332
2.37986
2.35215
2.3287
2.29287
2.26964
2.20243
2.39266
2.38959
2.38774
2.38556
2.38636
2.38457
2.3938
2.38832
2.38628
2.3835
2.38492
2.38296
2.39444
2.38781
2.3855
2.38283
2.38429
2.38198
2.396
2.38845
2.38581
2.38315
2.384
2.38138
2.39739
2.38938
2.38659
2.38343
2.38428
2.38133
2.39908
2.39082
2.38789
2.38461
2.38534
2.38274
2.4
2.39187
2.3886
2.38517
2.38599
2.3836
2.40057
2.39257
2.38936
2.38567
2.38635
2.38432
2.40054
2.39319
2.3902
2.38544
2.38614
2.38451
2.39931
2.39225
2.3897
2.38619
2.38799
2.3863
2.39736
2.39103
2.38866
2.38502
2.38651
2.38601
2.3941
2.38903
2.38785
2.38554
2.38755
2.3862
2.39106
2.38732
2.38678
2.38485
2.38618
2.38422
2.38802
2.38575
2.38562
2.38382
2.38567
2.38404
2.37168
2.35911
2.35422
2.34415
2.34431
2.33388
2.37744
2.36373
2.35711
2.34562
2.34507
2.33222
2.37985
2.36516
2.35762
2.34672
2.34753
2.33443
2.38385
2.36947
2.36284
2.3523
2.35407
2.33997
2.38717
2.37367
2.36759
2.35787
2.3603
2.34619
2.39136
2.37881
2.37333
2.36445
2.36696
2.35388
2.39436
2.38287
2.37784
2.36912
2.37083
2.35861
2.39722
2.38649
2.38124
2.37218
2.37304
2.36083
2.39814
2.38719
2.38106
2.37072
2.3709
2.35952
2.39624
2.38489
2.37803
2.36582
2.36478
2.35115
2.39179
2.37867
2.37095
2.35682
2.35458
2.34176
2.38355
2.37042
2.36349
2.3498
2.34786
2.33541
2.37587
2.36224
2.35667
2.34417
2.34282
2.33166
2.36519
2.35244
2.35025
2.3403
2.34171
2.3315
2.37264
2.34106
2.31582
2.27718
2.25085
2.17166
2.38566
2.35522
2.32738
2.2856
2.25874
2.16607
2.39451
2.36226
2.33364
2.29197
2.2668
2.17078
2.4038
2.37331
2.34466
2.30428
2.28196
2.19151
2.41201
2.38302
2.35566
2.31805
2.29898
2.21955
2.41992
2.39287
2.36712
2.33207
2.3139
2.24622
2.42681
2.40109
2.37695
2.34335
2.32432
2.26453
2.43204
2.40678
2.38389
2.35132
2.33225
2.27778
2.43439
2.40907
2.38677
2.35329
2.33143
2.27591
2.43052
2.40362
2.38059
2.34635
2.32367
2.26331
2.42117
2.39432
2.37012
2.33154
2.30489
2.23992
2.40544
2.37653
2.35094
2.31246
2.28648
2.21372
2.39095
2.36009
2.33593
2.29843
2.27529
2.19589
2.36043
2.32974
2.31161
2.28143
2.26528
2.18418
2.40053
2.40155
2.40059
2.40308
2.40415
2.40639
2.40044
2.40176
2.40086
2.40308
2.40432
2.40775
2.39807
2.39859
2.39771
2.40093
2.40294
2.40787
2.39837
2.3993
2.39744
2.40053
2.4028
2.40817
2.39429
2.39504
2.39474
2.39872
2.40074
2.40652
2.39348
2.39428
2.39379
2.39693
2.39924
2.40522
2.393
2.3935
2.39288
2.39569
2.3978
2.40385
2.3935
2.39357
2.39282
2.39526
2.39663
2.40233
2.39295
2.39312
2.39242
2.39474
2.39558
2.40046
2.39125
2.39183
2.39126
2.39345
2.39391
2.39821
2.38966
2.39051
2.38984
2.39186
2.39196
2.39565
2.38873
2.38959
2.38866
2.39021
2.39009
2.39328
2.38675
2.38805
2.3869
2.38815
2.38784
2.39061
2.38546
2.38779
2.38696
2.38789
2.38836
2.3894
2.35765
2.36611
2.36411
2.37334
2.37508
2.38463
2.3571
2.36614
2.36701
2.37894
2.3831
2.39401
2.35928
2.36872
2.37104
2.38358
2.38903
2.39997
2.36725
2.3769
2.3791
2.39055
2.39628
2.40595
2.37974
2.38699
2.38778
2.39596
2.39992
2.4091
2.38695
2.39334
2.39266
2.3991
2.40214
2.40988
2.39245
2.3974
2.39505
2.39999
2.40154
2.40728
2.39477
2.39818
2.39463
2.39909
2.39836
2.40329
2.39205
2.39567
2.39151
2.39564
2.39307
2.39839
2.38596
2.38984
2.3854
2.38917
2.38639
2.39271
2.37683
2.38207
2.37775
2.38157
2.37936
2.38667
2.36641
2.37329
2.36891
2.37295
2.3715
2.37951
2.35567
2.36379
2.36008
2.36469
2.36417
2.37249
2.34371
2.35298
2.35083
2.35657
2.3566
2.36554
2.23986
2.30892
2.32344
2.35142
2.36969
2.39489
2.24769
2.317
2.33907
2.37323
2.39567
2.42069
2.26322
2.32591
2.35276
2.38842
2.41171
2.43382
2.28921
2.34503
2.36987
2.4035
2.426
2.44655
2.31894
2.36384
2.38641
2.41585
2.43269
2.45128
2.33807
2.37594
2.39286
2.4171
2.43187
2.44925
2.3493
2.38135
2.39258
2.41215
2.42463
2.44246
2.35071
2.38135
2.38839
2.40536
2.41634
2.43475
2.34151
2.37644
2.37943
2.39496
2.40564
2.42438
2.32417
2.36723
2.36695
2.3833
2.39563
2.41537
2.30011
2.35343
2.35267
2.37063
2.38412
2.40462
2.26895
2.33356
2.33494
2.35642
2.37244
2.39417
2.23407
2.31042
2.31616
2.34086
2.357
2.38105
2.20242
2.28251
2.29471
2.32327
2.34191
2.36618
2.40532
2.40588
2.40544
2.40829
2.40915
2.41286
2.40614
2.4074
2.40682
2.40997
2.41126
2.41515
2.41216
2.413
2.41115
2.41298
2.41384
2.41761
2.41126
2.41238
2.41131
2.41385
2.41469
2.41852
2.4134
2.41383
2.41273
2.41493
2.41547
2.4192
2.41483
2.41442
2.41348
2.41532
2.41561
2.41908
2.41585
2.41478
2.4137
2.4151
2.41506
2.41845
2.41568
2.4146
2.41326
2.41449
2.41405
2.41741
2.41404
2.4134
2.41212
2.41328
2.4127
2.41627
2.4119
2.41176
2.41074
2.41196
2.41133
2.41492
2.40982
2.40977
2.40907
2.41039
2.41007
2.41356
2.40895
2.409
2.40821
2.40958
2.40919
2.4121
2.40688
2.40774
2.4065
2.40804
2.40787
2.41034
2.40479
2.40669
2.40607
2.40779
2.40817
2.40981
2.3652
2.37224
2.37328
2.38435
2.38869
2.39716
2.37267
2.37878
2.381
2.39163
2.39612
2.40476
2.38459
2.3907
2.39225
2.40021
2.40401
2.41139
2.39532
2.40129
2.40084
2.40655
2.40888
2.41588
2.40521
2.41041
2.40885
2.41259
2.41316
2.41853
2.41194
2.41497
2.41227
2.41516
2.41496
2.41882
2.4151
2.41645
2.41257
2.41526
2.41476
2.41769
2.41519
2.41566
2.41102
2.4133
2.41164
2.41478
2.41215
2.41223
2.40713
2.40909
2.40696
2.411
2.40609
2.40666
2.40135
2.40324
2.40119
2.40616
2.39741
2.39997
2.39486
2.39713
2.39528
2.40111
2.3886
2.393
2.38804
2.3907
2.38871
2.39517
2.37919
2.38532
2.38064
2.38439
2.38346
2.39068
2.36927
2.37735
2.37396
2.3786
2.37847
2.38513
2.24375
2.30536
2.331
2.36587
2.38927
2.41176
2.27947
2.33369
2.35926
2.39279
2.41527
2.4364
2.31918
2.36417
2.3872
2.4173
2.43418
2.4513
2.35348
2.38956
2.40798
2.43259
2.4464
2.46155
2.37615
2.40548
2.41841
2.43809
2.45086
2.46403
2.39191
2.414
2.42159
2.43655
2.44715
2.461
2.39893
2.41798
2.42037
2.43257
2.44118
2.45562
2.39524
2.41552
2.41445
2.42529
2.43301
2.44876
2.38352
2.4093
2.40516
2.41653
2.42488
2.44108
2.36488
2.39943
2.39431
2.40752
2.41723
2.43454
2.34243
2.38691
2.38224
2.39752
2.40865
2.42703
2.31662
2.37012
2.36787
2.38636
2.39955
2.41865
2.2865
2.3508
2.3527
2.37436
2.38939
2.41039
2.25718
2.32499
2.33462
2.35981
2.37713
2.39845
2.49733
2.49685
2.50256
2.50234
2.50578
2.50727
2.51146
2.51467
2.51876
2.52149
2.5229
2.51994
2.51548
2.5014
2.50926
2.50859
2.51243
2.51272
2.51541
2.51669
2.5202
2.52284
2.52689
2.52806
2.52778
2.52289
2.51444
2.49929
2.51976
2.5206
2.52372
2.52479
2.52656
2.52758
2.52961
2.53059
2.53239
2.53272
2.5312
2.5259
2.51745
2.50409
2.52405
2.5281
2.53131
2.53353
2.53484
2.53547
2.53622
2.53626
2.53674
2.53575
2.5333
2.52773
2.51837
2.50511
2.52161
2.52882
2.53377
2.53749
2.53915
2.54005
2.54035
2.54001
2.53944
2.53747
2.53427
2.5287
2.52012
2.50851
2.51883
2.52696
2.53352
2.53813
2.54071
2.54203
2.54244
2.54187
2.54074
2.53844
2.53468
2.52909
2.52079
2.50986
2.51211
2.52233
2.52981
2.53585
2.53987
2.54202
2.54279
2.54228
2.54093
2.53867
2.53495
2.52983
2.52251
2.51297
2.50732
2.51836
2.52657
2.5342
2.53915
2.54164
2.54248
2.54196
2.54045
2.53831
2.53476
2.53017
2.52367
2.51558
2.50161
2.5116
2.52167
2.53054
2.53663
2.53976
2.5409
2.54065
2.53927
2.53745
2.53436
2.53062
2.52511
2.51879
2.49901
2.50819
2.51915
2.52843
2.53472
2.53772
2.53864
2.53844
2.53694
2.5353
2.5324
2.5294
2.52458
2.51941
2.49222
2.50231
2.51455
2.5248
2.53152
2.53454
2.53506
2.53487
2.53312
2.5317
2.52889
2.52649
2.52224
2.51773
2.48975
2.49935
2.5117
2.52165
2.52792
2.53057
2.53027
2.52946
2.52686
2.52527
2.52177
2.51954
2.51493
2.51239
2.47942
2.49271
2.5058
2.51649
2.52254
2.52447
2.52313
2.52121
2.51762
2.5156
2.51126
2.50926
2.50418
2.5027
2.47455
2.49032
2.50213
2.5111
2.51537
2.51651
2.5144
2.51093
2.50609
2.50279
2.49671
2.49401
2.48523
2.48367
2.5604
2.55474
2.55582
2.55077
2.54991
2.54857
2.55087
2.5545
2.55932
2.56375
2.56724
2.56849
2.5688
2.56168
2.5662
2.56078
2.56078
2.55781
2.55723
2.55656
2.55873
2.56102
2.56512
2.5689
2.57024
2.56884
2.56533
2.55654
2.57093
2.5681
2.56806
2.56652
2.56594
2.56535
2.56654
2.56758
2.56982
2.57117
2.57163
2.56915
2.56509
2.55737
2.57193
2.57264
2.57279
2.57282
2.57239
2.57187
2.57221
2.57223
2.57298
2.57289
2.57179
2.56877
2.56316
2.55459
2.56613
2.57072
2.57325
2.57498
2.57536
2.57536
2.57553
2.57517
2.57489
2.57371
2.57156
2.56795
2.56228
2.55447
2.56089
2.56683
2.57165
2.57431
2.57598
2.57682
2.57714
2.57663
2.57573
2.57403
2.57108
2.56703
2.56107
2.55329
2.55361
2.56139
2.56713
2.57171
2.57492
2.57665
2.57722
2.57673
2.57557
2.5738
2.5708
2.56677
2.56114
2.55413
2.54886
2.55663
2.56388
2.56972
2.57388
2.57603
2.5767
2.57622
2.57495
2.57322
2.57037
2.56675
2.56191
2.55593
2.54494
2.55126
2.55952
2.56643
2.57152
2.57426
2.57521
2.575
2.57386
2.57239
2.56997
2.56712
2.56335
2.55889
2.54499
2.54995
2.55778
2.56494
2.5701
2.57263
2.57335
2.57317
2.57199
2.57071
2.56858
2.56639
2.56344
2.5606
2.54244
2.54752
2.55545
2.56283
2.56797
2.57026
2.57072
2.5706
2.56935
2.56845
2.56661
2.56536
2.56309
2.56126
2.5451
2.54843
2.55554
2.56213
2.56644
2.56781
2.56746
2.56682
2.56494
2.56419
2.56224
2.56168
2.55957
2.55978
2.54129
2.54652
2.55342
2.5602
2.56391
2.56424
2.56276
2.56114
2.55853
2.55787
2.55593
2.55647
2.55472
2.55725
2.54394
2.55043
2.55534
2.55921
2.56025
2.55971
2.55689
2.55394
2.55065
2.54967
2.54727
2.54818
2.5446
2.54734
2.60921
2.60179
2.59968
2.59236
2.58892
2.58578
2.58609
2.5885
2.59286
2.59784
2.60269
2.60524
2.60893
2.60607
2.6126
2.60482
2.60163
2.5965
2.59386
2.59177
2.59221
2.59418
2.59687
2.60076
2.60346
2.60413
2.6046
2.59959
2.61283
2.60848
2.60538
2.60198
2.59955
2.59771
2.59729
2.598
2.5994
2.60081
2.60239
2.60208
2.60154
2.5978
2.61161
2.61001
2.60758
2.60548
2.60335
2.60182
2.60101
2.60084
2.60117
2.60137
2.60128
2.60026
2.59824
2.5938
2.60546
2.60684
2.60691
2.60601
2.60505
2.60401
2.60331
2.60257
2.60204
2.60134
2.60013
2.59838
2.5957
2.59183
2.5995
2.6031
2.60475
2.60508
2.60531
2.60502
2.60444
2.60348
2.60243
2.60123
2.59938
2.59706
2.59376
2.58969
2.59419
2.5979
2.60138
2.60361
2.60486
2.60508
2.60464
2.60359
2.60229
2.6009
2.59893
2.59651
2.59309
2.58923
2.59019
2.59452
2.5991
2.60239
2.60431
2.60489
2.60456
2.60356
2.60218
2.60074
2.59877
2.59653
2.5936
2.59038
2.58733
2.59139
2.59626
2.60036
2.60308
2.60416
2.60403
2.60331
2.60204
2.60083
2.59917
2.59751
2.59558
2.593
2.58873
2.59122
2.59552
2.59962
2.60245
2.60356
2.60338
2.60283
2.60158
2.60057
2.59921
2.59808
2.59714
2.59548
2.5884
2.59071
2.59511
2.59929
2.60183
2.60272
2.60247
2.60215
2.60105
2.6005
2.59949
2.59883
2.59858
2.59838
2.59279
2.59318
2.59674
2.6001
2.60178
2.60186
2.60126
2.60081
2.59946
2.59915
2.59835
2.59854
2.59867
2.59917
2.59254
2.59418
2.59731
2.60075
2.60186
2.6008
2.59936
2.59829
2.59665
2.59672
2.59641
2.59783
2.59841
2.60145
2.59711
2.60048
2.6011
2.60187
2.60125
2.59949
2.59663
2.59482
2.59287
2.59294
2.59253
2.59454
2.59396
2.59716
2.63462
2.62589
2.62248
2.61639
2.61337
2.61143
2.6123
2.61392
2.6178
2.62159
2.62702
2.62911
2.63335
2.63238
2.63719
2.63011
2.62583
2.62088
2.61791
2.61591
2.61619
2.61791
2.62053
2.62412
2.62659
2.62744
2.62906
2.62579
2.63679
2.63245
2.6286
2.62519
2.62271
2.62094
2.6205
2.62099
2.62212
2.62291
2.62478
2.62466
2.62481
2.6226
2.63526
2.63311
2.63017
2.62773
2.62542
2.6238
2.62289
2.62253
2.62282
2.62304
2.62297
2.62244
2.62128
2.61861
2.63015
2.63009
2.62928
2.62777
2.62648
2.62524
2.62439
2.62355
2.62307
2.62251
2.62151
2.62028
2.61843
2.61604
2.6247
2.62703
2.62758
2.62678
2.62667
2.62596
2.62506
2.62394
2.62293
2.62187
2.62047
2.6189
2.61657
2.61395
2.61936
2.62296
2.62474
2.62593
2.62628
2.62589
2.625
2.62379
2.62253
2.62129
2.61982
2.61819
2.61582
2.6132
2.61515
2.61979
2.62306
2.62494
2.62575
2.62562
2.62487
2.62372
2.62234
2.62103
2.61959
2.6181
2.61616
2.61405
2.61229
2.61643
2.62055
2.62333
2.62492
2.62522
2.62465
2.62368
2.62238
2.62126
2.62011
2.61908
2.61793
2.61619
2.61251
2.61577
2.61994
2.62296
2.62471
2.62507
2.6245
2.62366
2.6224
2.62147
2.62062
2.61999
2.61948
2.6188
2.61261
2.61579
2.61994
2.62301
2.62458
2.62486
2.62432
2.62371
2.62263
2.62201
2.62149
2.62131
2.6216
2.62228
2.61611
2.61822
2.62159
2.62409
2.62515
2.62499
2.62427
2.62364
2.62234
2.62186
2.62148
2.6217
2.62264
2.62338
2.61723
2.6203
2.62323
2.62555
2.62578
2.62476
2.62374
2.6228
2.62127
2.62112
2.62125
2.62239
2.62398
2.62683
2.62268
2.62646
2.62684
2.6277
2.6268
2.62521
2.62281
2.62137
2.6195
2.61944
2.61937
2.62122
2.62205
2.62559
2.65039
2.64124
2.63774
2.63302
2.63076
2.62924
2.63013
2.63204
2.6355
2.63876
2.6433
2.64506
2.649
2.64868
2.65309
2.64676
2.6424
2.63793
2.63537
2.63378
2.63428
2.63558
2.638
2.6406
2.6428
2.64342
2.64503
2.64239
2.65232
2.64846
2.6449
2.64179
2.6396
2.638
2.63754
2.63762
2.63869
2.63936
2.64084
2.64081
2.64088
2.63911
2.65122
2.64911
2.6464
2.64385
2.64167
2.64007
2.63914
2.63864
2.63886
2.63908
2.63888
2.63844
2.6376
2.63564
2.64728
2.64667
2.64557
2.64369
2.64237
2.64104
2.64007
2.63915
2.63869
2.6382
2.63745
2.63644
2.63498
2.6331
2.64293
2.64443
2.64434
2.64293
2.64251
2.64148
2.64039
2.63922
2.63823
2.63731
2.63626
2.63506
2.63332
2.63127
2.63805
2.64092
2.64202
2.64217
2.64202
2.64124
2.64017
2.63893
2.63773
2.63662
2.63552
2.63433
2.63259
2.6305
2.63495
2.63788
2.64047
2.64138
2.64157
2.64107
2.64008
2.63885
2.63753
2.63638
2.63529
2.63425
2.63287
2.63118
2.63138
2.63458
2.6383
2.64022
2.64104
2.64089
2.64004
2.63894
2.6377
2.6367
2.63585
2.63513
2.63437
2.63304
2.6301
2.63368
2.63779
2.64014
2.64112
2.64107
2.64028
2.6393
2.63811
2.63723
2.63661
2.63617
2.63578
2.63552
2.62961
2.63384
2.63778
2.64032
2.64127
2.64119
2.6405
2.6397
2.63866
2.63803
2.63776
2.63776
2.63813
2.63856
2.63192
2.63613
2.63939
2.64166
2.64233
2.64196
2.64111
2.64027
2.63905
2.63838
2.63816
2.6384
2.63921
2.63991
2.63299
2.63803
2.64089
2.64301
2.64317
2.64213
2.64113
2.64014
2.63875
2.63832
2.63854
2.63954
2.64119
2.64351
2.63882
2.64307
2.64442
2.64564
2.64487
2.64327
2.64118
2.6396
2.63793
2.63756
2.63769
2.63904
2.64004
2.64329
2.6614
2.65355
2.65054
2.64663
2.6448
2.64346
2.6443
2.646
2.6487
2.65118
2.65463
2.65597
2.65904
2.65933
2.6637
2.65827
2.65457
2.65081
2.64869
2.64731
2.64754
2.64851
2.65032
2.65226
2.65391
2.6544
2.65567
2.65361
2.66242
2.65931
2.65643
2.65376
2.65183
2.65038
2.64981
2.64975
2.65045
2.65094
2.65212
2.65214
2.65211
2.65072
2.66172
2.65977
2.65741
2.65507
2.6531
2.65156
2.65063
2.65013
2.65028
2.65051
2.65038
2.65011
2.64941
2.64795
2.65842
2.65753
2.65631
2.65459
2.65327
2.65198
2.65099
2.65019
2.64982
2.64951
2.649
2.64837
2.64723
2.64577
2.65509
2.65573
2.65521
2.654
2.65313
2.652
2.65093
2.64992
2.64917
2.64856
2.64786
2.64711
2.64582
2.64418
2.65091
2.6528
2.65331
2.65311
2.65255
2.65161
2.65055
2.6495
2.6486
2.64785
2.64714
2.6464
2.64515
2.64342
2.64788
2.65044
2.65195
2.65227
2.65206
2.65136
2.6504
2.64933
2.64837
2.64759
2.64689
2.64622
2.64523
2.64383
2.64456
2.64774
2.65043
2.65153
2.65174
2.6513
2.6504
2.64941
2.6485
2.64782
2.64731
2.64689
2.64639
2.6453
2.64345
2.64712
2.65031
2.65175
2.65206
2.65169
2.65082
2.64989
2.649
2.64836
2.648
2.64774
2.64752
2.64714
2.64324
2.64726
2.6504
2.65218
2.65249
2.6521
2.65128
2.65047
2.64964
2.64916
2.6491
2.64916
2.6496
2.64974
2.64521
2.64943
2.65197
2.65367
2.65377
2.65319
2.65226
2.65134
2.65032
2.64972
2.64963
2.64983
2.6506
2.65109
2.64631
2.65123
2.65333
2.65503
2.65478
2.65376
2.65263
2.65162
2.6504
2.64988
2.65009
2.65083
2.65247
2.65413
2.65197
2.65558
2.6564
2.65738
2.65635
2.65485
2.65309
2.65156
2.65009
2.64961
2.64976
2.65078
2.65205
2.65494
2.67077
2.66446
2.66216
2.65889
2.6573
2.65606
2.65639
2.65746
2.65927
2.66111
2.66369
2.66457
2.66674
2.66731
2.67231
2.66786
2.66494
2.66182
2.66006
2.65883
2.65868
2.65914
2.66031
2.66158
2.66274
2.66298
2.66391
2.66261
2.67096
2.66839
2.66608
2.66379
2.66208
2.6607
2.65998
2.65967
2.65998
2.66033
2.66112
2.66102
2.66094
2.66003
2.67033
2.66849
2.66646
2.66439
2.66257
2.66109
2.66015
2.6596
2.65955
2.65963
2.65955
2.6593
2.65869
2.65768
2.66735
2.66631
2.66508
2.66358
2.66227
2.66106
2.6601
2.65935
2.65893
2.65866
2.65826
2.6578
2.65687
2.65581
2.66465
2.66471
2.66412
2.66289
2.66186
2.66077
2.65975
2.65885
2.65822
2.65778
2.65725
2.6567
2.65567
2.6544
2.66106
2.66218
2.66239
2.66192
2.66117
2.66023
2.65925
2.65834
2.65763
2.65712
2.65659
2.65605
2.65508
2.65369
2.65866
2.66046
2.66129
2.6612
2.66073
2.65993
2.659
2.6581
2.65737
2.65683
2.65632
2.65583
2.65505
2.65392
2.65607
2.65861
2.66031
2.66073
2.66052
2.65985
2.65893
2.65806
2.65737
2.65691
2.65658
2.65626
2.65588
2.65507
2.65555
2.65847
2.66048
2.66111
2.66092
2.66028
2.65934
2.65846
2.65776
2.65732
2.65711
2.65691
2.65674
2.65644
2.65555
2.65864
2.66075
2.66168
2.66148
2.66079
2.65986
2.659
2.6583
2.65793
2.65798
2.65802
2.65847
2.65853
2.6574
2.66054
2.66216
2.66311
2.66272
2.66189
2.66086
2.65989
2.65902
2.65852
2.65853
2.65872
2.65944
2.65987
2.65831
2.66201
2.66332
2.66433
2.66364
2.66257
2.66137
2.6603
2.65924
2.65876
2.65896
2.65963
2.66119
2.66244
2.66318
2.66589
2.66584
2.66624
2.66506
2.66357
2.66198
2.66059
2.65939
2.65907
2.65927
2.66013
2.66149
2.66397
2.678
2.67291
2.67105
2.66829
2.66683
2.66572
2.66568
2.66616
2.66724
2.66863
2.67066
2.67146
2.67317
2.67388
2.67852
2.67498
2.67259
2.67004
2.66855
2.66742
2.66712
2.66717
2.66786
2.66865
2.66965
2.66998
2.67073
2.66996
2.67698
2.67492
2.67306
2.67115
2.66968
2.66845
2.66775
2.6673
2.66743
2.66778
2.66835
2.66827
2.66821
2.66777
2.67612
2.67456
2.67292
2.67122
2.66967
2.66838
2.66753
2.66695
2.66685
2.66684
2.66694
2.66681
2.66635
2.66575
2.67345
2.67254
2.67154
2.67035
2.66917
2.66807
2.66718
2.6665
2.66615
2.66594
2.66572
2.66545
2.66478
2.66409
2.67131
2.67117
2.67068
2.66962
2.66864
2.66763
2.66671
2.66595
2.66546
2.66512
2.66473
2.66441
2.66366
2.66277
2.66854
2.66924
2.66928
2.66873
2.66796
2.66709
2.6662
2.66544
2.66487
2.6645
2.66408
2.66373
2.66304
2.66206
2.66686
2.66812
2.66856
2.66828
2.66765
2.66686
2.66597
2.66521
2.66462
2.66421
2.6638
2.66343
2.66288
2.66207
2.66523
2.66701
2.66797
2.66799
2.66754
2.66679
2.66588
2.66512
2.66456
2.66418
2.6639
2.66361
2.66338
2.66289
2.66517
2.66714
2.66827
2.66841
2.66795
2.6672
2.66625
2.66547
2.66488
2.66447
2.6643
2.66406
2.66406
2.66384
2.66542
2.66747
2.66868
2.66902
2.66855
2.66778
2.66682
2.66603
2.66543
2.66504
2.66507
2.66499
2.66553
2.66561
2.66716
2.66904
2.66988
2.67023
2.66959
2.66877
2.66776
2.66688
2.66617
2.66575
2.66574
2.66588
2.66659
2.66707
2.66788
2.67023
2.67084
2.67125
2.67038
2.66945
2.66834
2.66738
2.66653
2.66613
2.66627
2.66684
2.66826
2.66938
2.67178
2.67342
2.67286
2.67282
2.67155
2.67026
2.66896
2.66791
2.66706
2.66683
2.66705
2.66783
2.66922
2.67139
2.68334
2.67947
2.67822
2.67615
2.67506
2.67424
2.67417
2.67431
2.6749
2.67585
2.67732
2.67791
2.67907
2.67959
2.6835
2.68078
2.67911
2.67726
2.67616
2.67532
2.67504
2.67486
2.6752
2.67562
2.67635
2.67659
2.67703
2.67642
2.68224
2.68061
2.6793
2.67796
2.6769
2.67591
2.67527
2.67473
2.6747
2.67485
2.67523
2.67515
2.67498
2.67469
2.68132
2.68025
2.67913
2.6779
2.67671
2.67564
2.67484
2.67422
2.67403
2.67396
2.67403
2.67393
2.67348
2.67308
2.67922
2.67872
2.6781
2.67724
2.67622
2.67524
2.67437
2.67367
2.6733
2.67311
2.67293
2.67274
2.67217
2.67171
2.67778
2.6778
2.67742
2.67663
2.67573
2.67479
2.67387
2.6731
2.6726
2.67231
2.67198
2.67174
2.67116
2.67056
2.67591
2.67646
2.67641
2.67593
2.67516
2.67431
2.67338
2.67258
2.67199
2.67162
2.67123
2.67096
2.67051
2.66989
2.67482
2.67574
2.67599
2.67567
2.67496
2.67414
2.67317
2.67234
2.67167
2.67122
2.67083
2.67054
2.67022
2.66975
2.67375
2.675
2.67554
2.67538
2.67477
2.67397
2.67299
2.67218
2.67152
2.67106
2.67073
2.67047
2.6704
2.67025
2.67368
2.67501
2.67566
2.67558
2.67501
2.67421
2.67323
2.67241
2.67174
2.67122
2.67093
2.67064
2.67079
2.67083
2.67383
2.67521
2.67593
2.676
2.67543
2.67465
2.67367
2.67283
2.67215
2.67165
2.67145
2.67131
2.67183
2.67219
2.67516
2.6763
2.67674
2.6768
2.67612
2.67535
2.67438
2.67353
2.67281
2.67236
2.67214
2.67218
2.67282
2.67348
2.67554
2.67708
2.6774
2.67754
2.67669
2.6759
2.67492
2.67404
2.67329
2.67288
2.67276
2.67316
2.6744
2.67549
2.67861
2.67961
2.67903
2.67878
2.67758
2.67657
2.67549
2.67462
2.67395
2.67367
2.67379
2.6744
2.67572
2.67766
2.49398
2.49713
2.50084
2.51612
2.54919
2.60241
2.48573
2.48298
2.48654
2.50046
2.53199
2.5841
2.4909
2.48578
2.48385
2.48988
2.51321
2.5588
2.48977
2.48233
2.47773
2.48077
2.49838
2.53419
2.49287
2.48316
2.4773
2.4762
2.48759
2.51314
2.49413
2.48322
2.47784
2.47621
2.48547
2.5061
2.49887
2.48821
2.48408
2.48292
2.49026
2.50864
2.50399
2.49541
2.49208
2.49169
2.49863
2.51474
2.51054
2.50395
2.50077
2.49875
2.50519
2.52028
2.5153
2.51107
2.50941
2.50699
2.51467
2.52835
2.51766
2.5139
2.51005
2.5051
2.51512
2.53576
2.51402
2.50994
2.50425
2.50038
2.51249
2.53718
2.50731
2.49986
2.49202
2.48887
2.50506
2.53587
2.48635
2.48217
2.47771
2.47819
2.49901
2.53446
2.56647
2.58664
2.6022
2.62432
2.65215
2.6831
2.55042
2.5611
2.5748
2.59458
2.62263
2.65449
2.54998
2.55406
2.5591
2.56941
2.58879
2.61356
2.54276
2.54175
2.54026
2.54487
2.55869
2.57629
2.54104
2.53563
2.52957
2.52775
2.53476
2.5462
2.53881
2.53022
2.52262
2.51888
2.52398
2.53296
2.54114
2.5312
2.52409
2.51904
2.52386
2.52985
2.54602
2.53738
2.53213
2.52808
2.53433
2.53716
2.55225
2.54635
2.54342
2.54154
2.54935
2.54955
2.55939
2.55627
2.5553
2.55597
2.56507
2.56704
2.56444
2.56337
2.56548
2.56876
2.58089
2.58603
2.56638
2.56738
2.56899
2.57331
2.5867
2.59763
2.56532
2.56579
2.56785
2.57411
2.58943
2.60374
2.55118
2.5552
2.55965
2.5701
2.58871
2.60672
2.6174
2.63949
2.65639
2.67585
2.69373
2.71303
2.59994
2.61535
2.6317
2.64881
2.66638
2.68562
2.59662
2.60562
2.61483
2.62434
2.63369
2.64502
2.58806
2.59153
2.59351
2.59671
2.60075
2.60676
2.5842
2.58356
2.5799
2.5774
2.57504
2.57531
2.58073
2.57649
2.56948
2.56412
2.55992
2.55945
2.58163
2.57506
2.56777
2.56088
2.55648
2.55592
2.58519
2.57775
2.57276
2.56649
2.56382
2.56499
2.58992
2.58469
2.58224
2.57917
2.5793
2.58198
2.5958
2.59419
2.59354
2.59415
2.59825
2.60451
2.60266
2.6032
2.60616
2.61032
2.61701
2.62526
2.60616
2.61054
2.61475
2.62107
2.6294
2.64047
2.60926
2.6128
2.61712
2.62423
2.63366
2.64591
2.59969
2.6056
2.61159
2.62152
2.63217
2.64497
2.63799
2.65598
2.67019
2.68826
2.70524
2.72238
2.62211
2.63515
2.65117
2.6685
2.68401
2.69849
2.61761
2.62585
2.63662
2.64794
2.65659
2.66194
2.6106
2.61412
2.61875
2.62256
2.62395
2.62312
2.60701
2.60652
2.60583
2.60404
2.599
2.59161
2.60488
2.60179
2.59674
2.59154
2.58404
2.57529
2.60577
2.60111
2.59433
2.58829
2.58113
2.573
2.60996
2.60364
2.59857
2.59317
2.58803
2.58208
2.61442
2.61062
2.60814
2.60429
2.6022
2.59961
2.62053
2.61893
2.6191
2.61861
2.61991
2.62137
2.62726
2.62814
2.63129
2.63397
2.63874
2.64259
2.63063
2.63492
2.63971
2.64543
2.65218
2.65889
2.63538
2.63922
2.64418
2.65053
2.65733
2.66553