/*--------------------------------*- C++ -*----------------------------------*\
| =========                 |                                                 |
| \\      /  F ield         | OpenFOAM: The Open Source CFD Toolbox           |
|  \\    /   O peration     | Version:  v2106                                 |
|   \\  /    A nd           | Website:  www.openfoam.com                      |
|    \\/     M anipulation  |                                                 |
\*---------------------------------------------------------------------------*/
FoamFile
{
    version     2.0;
    format      ascii;
    arch        "LSB;label=32;scalar=64";
    class       volScalarField;
    location    "0.00017";
    object      p;
}
// * * * * * * * * * * * * * * * * * * * * * * * * * * * * * * * * * * * * * //

dimensions      [1 -1 -2 0 0 0 0];

internalField   nonuniform List<scalar> 
144746
(
200948
200277
199438
198849
198319
197879
197577
197426
197435
197462
197451
197520
197769
198210
200118
199850
199078
198511
198039
197682
197384
197216
197100
197027
196964
197077
197355
197604
199727
199340
198800
198283
197848
197491
197203
197043
196876
196736
196562
196455
196471
196598
199332
198938
198511
198066
197670
197357
197078
196867
196664
196422
196165
195921
195844
195896
198831
198490
198174
197818
197484
197173
196899
196678
196428
196119
195791
195445
195218
195163
198285
198023
197799
197536
197264
196994
196729
196458
196165
195820
195454
195082
194805
194689
197773
197566
197407
197216
197034
196776
196508
196198
195889
195521
195159
194782
194502
194418
197385
197253
197166
196996
196818
196535
196236
195898
195585
195217
194911
194619
194446
194456
197153
197015
196922
196751
196548
196228
195914
195549
195272
194955
194716
194493
194459
194670
197162
196931
196758
196549
196295
195889
195598
195203
194948
194674
194497
194419
194524
194839
197214
196936
196713
196431
196042
195551
195234
194818
194545
194302
194240
194271
194546
195021
197491
197071
196760
196382
195866
195271
194828
194395
194129
193949
194047
194194
194723
195234
198141
197480
196938
196352
195761
195109
194521
194005
193689
193553
193724
194030
194839
195261
198533
197688
197132
196503
195832
195063
194360
193808
193519
193551
193843
194278
195363
195795
200566
200017
199320
198902
198486
198189
198029
197961
198006
197945
197745
197501
197364
197345
200034
199902
199262
198830
198444
198162
197929
197836
197735
197613
197409
197226
197084
196886
199869
199627
199228
198837
198491
198170
197896
197765
197609
197434
197152
196821
196435
196161
199707
199418
199125
198779
198441
198158
197897
197700
197497
197250
196895
196485
196054
195752
199461
199181
198966
198689
198409
198126
197851
197636
197392
197085
196705
196240
195758
195431
199146
198946
198787
198573
198331
198095
197822
197575
197292
196974
196591
196131
195664
195304
198810
198666
198543
198358
198196
198008
197778
197503
197218
196881
196497
196080
195679
195378
198578
198513
198488
198363
198211
197963
197723
197417
197114
196807
196480
196158
195856
195640
198434
198417
198386
198261
198101
197835
197628
197326
197059
196755
196490
196223
196043
195981
198435
198404
198378
198261
198071
197754
197548
197233
196971
196697
196476
196292
196186
196225
198515
198429
198396
198252
198020
197707
197484
197150
196856
196559
196330
196178
196203
196422
198807
198552
198488
198301
198007
197638
197321
196942
196634
196357
196240
196207
196387
196629
199332
198803
198625
198317
197974
197548
197104
196622
196244
195936
195856
195892
196313
196586
199627
198995
198791
198418
197976
197468
196861
196310
195916
195684
195781
195940
196696
196790
201378
200920
200174
199671
199297
199038
199016
199092
199257
199218
198933
198369
197751
197093
201525
201333
200640
200146
199801
199503
199293
199263
199204
199027
198633
198038
197472
196637
201829
201474
200962
200419
200013
199734
199478
199281
199098
198791
198265
197558
196687
195754
201979
201547
201132
200659
200235
199887
199559
199287
198971
198538
197903
197148
196202
195256
201837
201437
201103
200687
200269
199913
199570
199210
198815
198330
197667
196902
195879
194919
201490
201196
200968
200649
200258
199909
199558
199167
198749
198228
197536
196793
195810
194847
201034
200915
200733
200519
200184
199865
199495
199052
198568
198031
197484
196751
195927
195080
200666
200661
200584
200400
200138
199796
199422
198993
198523
198037
197474
196905
196209
195487
200474
200537
200497
200363
200095
199728
199342
198893
198440
197986
197518
197008
196503
195973
200341
200410
200473
200391
200104
199664
199200
198717
198271
197830
197446
197079
196711
196337
200349
200384
200507
200400
200047
199533
198949
198458
197965
197530
197165
196873
196664
196438
200537
200395
200566
200359
199913
199316
198657
198098
197528
197062
196732
196538
196488
196309
200893
200582
200608
200277
199696
198931
198143
197464
196844
196320
195987
195837
196003
196041
200987
200441
200400
200016
199322
198455
197542
196738
196093
195638
195449
195406
195944
195856
199198
200380
200786
201823
202265
203302
197598
198853
199484
200951
201495
203491
196998
198255
198858
200434
201097
203899
195993
197018
197627
199242
200560
204785
195369
196547
197423
199227
200706
204681
194851
195977
197145
199343
200759
203670
194683
195800
197152
199410
200844
203648
194788
195942
197375
199657
201125
203522
195113
196239
197680
199824
201336
203491
195376
196532
198001
199994
201508
203586
195870
197006
198335
200134
201556
203344
196236
197261
198537
200165
201341
203033
196739
197542
198742
200222
201104
202779
196815
197781
199049
200583
201338
202755
197937
198800
199103
200243
200870
202215
196474
197355
197996
199601
200297
202472
196136
197034
197720
199292
200010
202577
195429
195959
196724
198567
199540
202606
195264
195798
196494
198297
198873
202718
195037
195551
196212
198206
198589
203425
195192
195710
196375
198337
198996
203043
195514
196028
196783
198568
199317
202743
196021
196518
197296
198830
199738
202389
196390
196942
197766
199042
199954
202116
196918
197507
198182
199285
200137
202062
197160
197737
198410
199469
200162
201864
197612
198004
198570
199595
200067
201725
197268
197824
198619
199894
200413
201683
197286
197411
197257
197006
196958
196685
195673
195955
196169
196699
197112
198108
195181
195425
195681
196706
197873
200074
194321
194246
194591
196314
197945
201852
194025
193904
194323
196314
197883
202921
193876
193600
194068
196276
197920
203121
194205
193872
194349
196384
198085
202664
194728
194449
194865
196488
197986
201796
195442
195278
195623
196819
197735
200377
196000
195880
196258
196965
197436
198626
196383
196347
196646
196993
197221
197727
196386
196345
196579
196840
196953
196956
196579
196481
196712
196933
196842
196960
195883
195934
196388
197100
197187
197461
197265
198725
199557
200612
201475
202235
195052
196484
197762
199645
201057
202735
194576
196152
197269
199290
200552
203122
193782
195171
196281
198672
200031
203299
193674
195039
196121
198634
199864
203324
193571
194837
196087
198745
199952
203640
193987
195164
196451
198967
199982
203871
194551
195688
196919
199268
200269
204791
195315
196421
197610
199863
201066
203966
196145
197224
198249
200294
201699
204516
196815
197965
198963
200897
202243
204169
197698
198819
199711
201428
202296
204211
198574
199471
200354
201884
202496
204421
198946
199919
200910
202393
202878
204474
197919
198945
199278
200178
200706
201443
196106
196830
197486
198876
199770
201546
195774
196645
197189
198625
198985
201562
195236
195765
196269
198102
198293
201771
195243
195564
196087
198009
198042
202092
195432
195511
196169
198079
198193
202550
195963
195995
196657
198375
198446
202809
196574
196703
197281
198735
198707
203553
197369
197664
198158
199568
199624
203140
197987
198533
199060
200274
200598
203339
198555
199269
199761
201042
201661
203717
199082
199877
200394
201695
202121
203948
199627
200285
200856
202093
202398
204301
199653
200319
200976
202433
202625
204369
196536
197320
197326
197772
197936
198761
194970
195320
195789
196843
198089
200427
194674
194875
195489
196835
198112
201528
194486
194241
194549
196206
197867
202732
194737
194181
194336
196104
197697
202951
195208
194483
194490
196338
197861
203208
195977
195316
195290
197032
198334
202990
196880
196369
196362
197870
198809
202382
197909
197654
197617
198686
199388
202576
198923
198816
198865
199662
199894
201353
199829
199864
199866
200353
200299
200992
200247
200447
200318
200866
200735
200950
200734
200873
200891
201523
201406
201708
200141
200415
200697
201847
201799
203062
205799
204859
203984
202731
201988
201157
206012
205083
204022
202892
201995
201095
206103
204884
203575
202331
201276
200477
206010
204254
203198
201868
200752
199890
205702
203400
202686
201020
200084
199212
206555
202442
202001
200240
199376
198614
205623
202085
201469
199546
198668
197982
205603
201906
201145
198995
198177
197515
205455
201838
200903
198629
197874
197177
205413
201986
200915
198758
198045
197199
205367
202219
201063
198961
198146
197181
205014
202632
201572
199806
198864
197674
204867
203034
201745
200137
199199
198052
204331
203339
202609
201638
201187
199865
204785
203757
202866
201770
201024
200427
204901
203866
202941
202050
201400
200919
204909
203520
202547
201748
200935
200432
204628
202841
202299
201345
200591
200107
205030
202152
201958
200850
200172
199686
205577
201132
201300
200168
199656
199298
204907
200888
200916
199564
199099
198893
204852
200491
200614
199046
198663
198559
204619
200191
200483
198737
198379
198286
204279
200188
200573
198845
198499
198256
204126
200554
200711
198982
198606
198191
203862
201259
201316
199768
199328
198591
204050
201870
201551
200082
199683
198919
204652
202412
202556
201749
201743
200590
201638
201600
201342
201168
200719
200909
201843
202097
202126
202364
202163
202435
202506
202724
202702
202974
202377
202407
204542
203818
203508
203252
202629
202447
207029
204295
203808
203141
202438
202167
208481
204688
203896
202537
201961
201636
209828
204707
203582
201698
201307
201108
210344
204212
202962
200943
200684
200621
210254
203517
202187
200228
200113
200206
209546
203230
201855
199996
199910
199967
208968
203323
201730
199927
199829
199732
207715
203572
202316
200602
200306
199869
206083
203225
202180
200878
200703
199996
204834
203085
202877
202379
202529
201595
203580
202720
201771
200663
199853
199023
203947
203039
201992
200856
199846
199043
204502
203242
201871
200643
199432
198589
204619
203272
201964
200562
199167
198279
205161
203268
201993
200296
198993
198055
205169
203000
201858
199960
198747
197850
205467
202780
201723
199717
198620
197735
205866
202638
201722
199742
198743
197874
206310
202605
201667
199821
198913
198073
205987
203277
202235
200509
199662
198618
205668
203822
202610
200873
200196
199185
205468
204214
203650
201851
201195
199966
205645
203874
203658
202135
201598
200329
205845
204747
204473
203494
203241
202008
201955
200985
199947
198962
198220
197863
202237
201234
200292
199407
198683
198483
202903
201541
200403
199509
198676
198417
203453
201779
200642
199633
198628
198387
204067
201903
200962
199801
198804
198368
205129
201768
201110
199573
198685
198226
205992
201547
201154
199316
198531
198071
206423
201448
201184
199210
198562
198109
205827
201509
201171
199154
198581
198149
205435
201678
201320
199599
198974
198461
204974
201998
201399
199841
199290
198771
204972
202615
202214
200981
200388
199397
205101
202779
202567
201290
200792
199660
205093
203814
203476
202576
202516
201466
196100
196829
196872
197064
196782
197298
196922
197766
197981
198364
198312
198835
198447
198863
198856
199292
198914
199117
200782
200385
200043
199944
199454
199486
203645
201503
200833
200236
199583
199483
206326
202350
200991
199818
199294
199246
207869
202821
201252
199414
198881
198879
208992
202859
201199
199068
198594
198671
209525
202767
201125
198814
198452
198581
209385
203019
201353
199116
198826
198800
208078
202893
201352
199303
199120
199042
206304
203047
201935
200374
200182
199684
204168
202425
201885
200773
200637
200040
202561
202470
202246
202172
202265
202020
203053
202317
201595
201079
200818
200605
200486
200646
200869
201122
201197
201015
200613
200239
203193
202684
201872
201338
200956
200741
200699
200624
200752
200818
200773
200504
200080
199144
203304
202741
202149
201654
201264
201007
200729
200647
200611
200519
200299
199810
199067
198123
203199
202665
202133
201687
201291
201019
200769
200574
200397
200161
199823
199202
198388
197361
202915
202488
202041
201649
201278
200991
200718
200481
200249
199944
199511
198801
197934
196870
202554
202235
201914
201537
201232
200943
200640
200338
199994
199626
199194
198511
197701
196623
202215
201949
201734
201472
201178
200905
200599
200268
199919
199517
199035
198420
197630
196658
201976
201769
201635
201413
201144
200860
200544
200182
199817
199411
198960
198440
197786
196950
201832
201715
201610
201416
201147
200835
200496
200106
199727
199342
198982
198532
198024
197353
201798
201714
201668
201471
201176
200798
200419
200008
199590
199259
198927
198609
198229
197755
201885
201837
201834
201603
201236
200750
200302
199833
199395
199070
198816
198593
198406
198064
202147
202001
201984
201674
201214
200637
200100
199533
199069
198695
198471
198361
198371
198072
202594
202377
202136
201687
201096
200420
199765
199110
198557
198059
197775
197697
198012
197907
202740
202206
202043
201552
200810
199987
199194
198464
197830
197339
197105
197116
197632
197964
204820
204042
203275
202654
202213
201960
201993
202105
202343
202640
202901
203019
202942
202830
204722
204136
203387
202869
202468
202236
202091
202132
202232
202382
202490
202495
202359
201929
204586
203981
203380
202896
202511
202263
202106
202043
202029
202026
201971
201770
201371
200872
204306
203775
203256
202821
202475
202212
202022
201891
201789
201660
201476
201132
200615
200004
203884
203511
203056
202688
202382
202119
201897
201702
201516
201276
201065
200627
199992
199299
203429
203197
202858
202560
202285
202022
201766
201535
201312
201034
200698
200254
199602
198882
203086
202909
202691
202445
202197
201941
201670
201407
201148
200863
200507
200058
199431
198698
202809
202736
202580
202376
202137
201870
201578
201284
201006
200719
200370
199971
199478
198752
202705
202693
202587
202391
202134
201840
201514
201183
200878
200588
200314
200034
199611
199101
202742
202748
202676
202470
202161
201811
201445
201061
200728
200453
200287
200058
199820
199411
202948
202965
202863
202584
202213
201757
201340
200907
200510
200258
200157
200053
199976
199747
203292
203193
203060
202728
202253
201686
201177
200664
200212
199952
199901
199904
200033
199894
203772
203618
203275
202809
202230
201564
200951
200324
199808
199479
199468
199532
199940
199861
204063
203575
203318
202762
202032
201248
200534
199838
199300
198987
199028
199220
199776
200044
206172
205414
204707
204195
203840
203704
203738
203801
204096
204429
204805
205136
205383
205424
205974
205353
204682
204213
203859
203675
203676
203772
203963
204169
204400
204586
204709
204569
205606
205031
204501
204108
203808
203628
203578
203609
203690
203779
203886
203919
203825
203589
205236
204746
204281
203957
203680
203501
203411
203388
203406
203411
203423
203317
203094
202751
204744
204411
204000
203765
203543
203369
203242
203166
203113
203024
202910
202774
202474
202040
204310
204075
203810
203602
203413
203237
203089
202977
202874
202756
202596
202368
202024
201534
203956
203823
203655
203466
203307
203125
202954
202810
202666
202512
202339
202078
201734
201201
203780
203676
203576
203409
203252
203046
202840
202657
202477
202305
202136
201895
201581
201142
203723
203673
203600
203432
203238
202998
202750
202524
202318
202138
201984
201815
201602
201241
203786
203781
203699
203505
203246
202952
202655
202372
202137
201963
201852
201778
201647
201441
204009
204005
203875
203633
203304
202934
202577
202219
201938
201776
201733
201729
201746
201637
204329
204252
204072
203757
203345
202864
202442
202030
201687
201522
201533
201608
201775
201784
204754
204627
204284
203899
203399
202808
202274
201765
201331
201139
201168
201314
201706
201789
204991
204711
204367
203871
203250
202609
202015
201433
200961
200718
200771
200969
201444
201750
207137
206441
205913
205515
205246
205155
205266
205420
205681
206035
206391
206726
207126
207213
206861
206318
205786
205427
205180
205082
205146
205277
205507
205763
206030
206252
206484
206467
206345
205923
205531
205257
205044
204951
204974
205059
205211
205376
205588
205697
205769
205706
205960
205611
205260
205057
204878
204790
204784
204828
204924
205023
205113
205176
205163
205007
205439
205208
204970
204842
204716
204636
204605
204619
204666
204711
204745
204710
204621
204397
205013
204899
204757
204662
204561
204480
204431
204418
204423
204421
204409
204328
204180
203927
204679
204673
204603
204525
204444
204354
204276
204230
204198
204163
204119
204021
203846
203591
204533
204559
204538
204467
204378
204262
204149
204063
203994
203933
203878
203782
203624
203363
204508
204553
204555
204470
204340
204185
204029
203898
203797
203727
203675
203604
203495
203269
204600
204629
204627
204502
204325
204114
203902
203714
203580
203507
203473
203452
203433
203295
204817
204805
204752
204581
204338
204060
203781
203518
203343
203266
203253
203325
203407
203365
205080
205057
204914
204673
204350
203999
203661
203295
203065
202984
203020
203171
203364
203448
205431
205352
205092
204805
204374
203896
203463
203041
202730
202619
202703
202892
203265
203482
205688
205480
205158
204765
204290
203713
203183
202697
202293
202175
202287
202558
202980
203349
207954
207435
207072
206819
206670
206649
206781
206969
207269
207605
208005
208313
208796
208919
207591
207217
206870
206659
206534
206515
206617
206786
207044
207342
207644
207922
208194
208234
207076
206833
206571
206447
206371
206372
206453
206585
206778
206984
207201
207434
207625
207669
206642
206462
206288
206232
206180
206186
206252
206362
206520
206690
206860
206991
207102
207104
206153
206119
206020
206003
205988
206007
206059
206145
206264
206387
206511
206596
206635
206598
205798
205842
205816
205815
205819
205834
205868
205932
206016
206106
206190
206232
206240
206176
205590
205642
205681
205681
205689
205685
205693
205731
205784
205842
205894
205920
205923
205827
205483
205555
205624
205616
205603
205569
205541
205545
205567
205596
205628
205656
205647
205558
205498
205570
205631
205607
205561
205485
205404
205363
205352
205361
205391
205433
205427
205345
205571
205650
205683
205634
205533
205403
205265
205171
205123
205124
205160
205219
205262
205227
205730
205812
205792
205682
205524
205316
205098
204940
204865
204864
204910
204995
205155
205171
205931
205999
205916
205751
205514
205229
204938
204693
204562
204545
204613
204815
205047
205174
206182
206212
206060
205829
205471
205099
204739
204380
204184
204160
204295
204538
204899
205191
206398
206332
206051
205809
205371
204880
204468
204069
203815
203787
203930
204209
204605
205031
208742
208430
208231
208127
208094
208134
208270
208485
208779
209096
209461
209770
210204
210371
208343
208146
207957
207918
207923
207978
208114
208307
208561
208849
209161
209435
209712
209766
207807
207764
207650
207682
207715
207791
207927
208105
208325
208569
208819
209031
209260
209341
207408
207385
207358
207412
207474
207566
207701
207871
208069
208292
208515
208710
208861
208911
207012
207040
207082
207159
207254
207358
207486
207640
207814
208010
208203
208379
208502
208537
206689
206778
206874
206962
207063
207162
207275
207414
207566
207733
207908
208059
208153
208193
206491
206615
206747
206837
206923
206999
207086
207198
207324
207465
207612
207745
207831
207886
206391
206561
206703
206775
206832
206872
206923
206997
207092
207204
207324
207436
207515
207566
206416
206586
206719
206770
206785
206779
206777
206805
206862
206945
207043
207139
207227
207275
206504
206657
206761
206784
206752
206693
206627
206604
206626
206680
206766
206867
206988
207044
206652
206782
206833
206810
206715
206584
206446
206370
206365
206405
206492
206615
206775
206873
206806
206929
206910
206822
206654
206454
206229
206083
206045
206076
206179
206346
206617
206761
206968
207082
206999
206821
206568
206278
205952
205716
205635
205663
205804
206070
206402
206734
207130
207168
206937
206745
206350
205974
205640
205319
205194
205217
205388
205684
206051
206512
209784
209642
209595
209629
209701
209806
209964
210157
210395
210668
211011
211353
211737
211975
209341
209317
209288
209385
209498
209636
209806
209999
210228
210494
210781
211038
211341
211448
208858
208925
208987
209139
209279
209436
209611
209802
210009
210239
210480
210711
210944
211088
208472
208560
208697
208859
209023
209196
209380
209577
209784
210011
210238
210452
210637
210721
208089
208248
208422
208607
208792
208975
209159
209352
209551
209767
209986
210194
210364
210437
207807
208015
208219
208405
208590
208767
208940
209126
209318
209525
209738
209940
210090
210162
207633
207880
208100
208272
208437
208586
208736
208900
209074
209267
209464
209657
209805
209889
207594
207840
208051
208196
208326
208435
208549
208680
208826
208995
209171
209343
209483
209580
207624
207858
208048
208160
208242
208300
208365
208453
208563
208703
208857
209016
209150
209266
207707
207915
208070
208142
208171
208168
208176
208213
208280
208387
208518
208664
208806
208954
207817
207991
208091
208117
208075
208007
207954
207942
207974
208056
208180
208334
208511
208713
207927
208080
208101
208068
207948
207809
207680
207616
207621
207687
207823
208002
208241
208504
208017
208164
208115
207991
207781
207553
207334
207209
207189
207259
207412
207688
207984
208345
208119
208183
208014
207840
207528
207229
206927
206736
206699
206779
206985
207288
207606
208083
211006
210978
211046
211181
211340
211507
211714
211936
212187
212426
212717
213059
213385
213654
210576
210651
210743
210931
211126
211336
211560
211780
212013
212265
212529
212772
213045
213165
210117
210282
210460
210700
210924
211151
211374
211591
211811
212039
212268
212492
212700
212846
209746
209953
210188
210437
210679
210919
211149
211377
211602
211835
212062
212273
212451
212539
209394
209667
209929
210198
210453
210701
210932
211162
211385
211618
211844
212055
212224
212298
209152
209464
209742
210007
210255
210494
210715
210941
211164
211398
211626
211843
212001
212075
209022
209340
209625
209868
210094
210308
210509
210720
210935
211161
211381
211596
211759
211854
208991
209293
209564
209769
209958
210134
210306
210493
210692
210902
211108
211312
211475
211597
209014
209286
209530
209693
209835
209967
210099
210252
210422
210605
210794
210986
211161
211302
209090
209312
209507
209619
209702
209779
209865
209978
210114
210271
210444
210624
210803
210968
209168
209342
209459
209520
209536
209550
209585
209656
209760
209899
210065
210252
210445
210681
209222
209379
209405
209397
209336
209277
209251
209280
209356
209487
209663
209868
210092
210376
209208
209362
209322
209221
209086
208928
208840
208832
208889
209031
209229
209483
209761
210122
209254
209315
209178
209017
208765
208526
208361
208315
208363
208522
208758
209050
209329
209753
212480
212578
212737
212948
213178
213400
213639
213870
214116
214361
214605
214901
215185
215462
212072
212252
212433
212696
212956
213223
213483
213731
213976
214223
214469
214690
214897
215036
211657
211925
212176
212484
212771
213053
213314
213564
213798
214028
214245
214446
214606
214731
211311
211630
211928
212250
212550
212839
213107
213368
213614
213853
214071
214258
214397
214461
211013
211372
211694
212029
212341
212637
212907
213174
213421
213662
213880
214065
214202
214253
210813
211184
211520
211847
212153
212441
212707
212972
213222
213467
213691
213889
214023
214070
210701
211064
211398
211700
211987
212255
212509
212767
213015
213258
213482
213685
213828
213893
210674
211011
211319
211577
211829
212067
212301
212546
212788
213024
213245
213448
213604
213701
210681
210975
211246
211457
211663
211865
212071
212296
212523
212746
212959
213160
213335
213472
210717
210952
211168
211323
211473
211627
211797
211995
212203
212412
212619
212819
213016
213182
210741
210918
211050
211151
211238
211339
211469
211637
211827
212025
212229
212437
212639
212876
210746
210869
210920
210953
210963
211002
211083
211215
211384
211581
211793
212011
212231
212518
210671
210774
210736
210684
210622
210590
210623
210723
210876
211082
211310
211560
211830
212170
210625
210657
210520
210406
210240
210124
210099
210165
210304
210528
210775
211054
211310
211683
204174
204578
204802
205062
205732
207097
201459
202000
202290
202887
203483
203798
200910
201303
201332
201718
202070
201799
200166
200102
199912
200246
200820
200630
199932
199557
199226
199632
200512
200631
199876
199331
198879
199338
200596
201398
200147
199750
199457
200121
201849
202649
200516
200393
200448
201289
203598
204486
201033
201114
201577
202551
204949
206188
201470
201700
202516
203668
206094
207531
201730
202044
202995
203891
206483
208451
201714
202012
202961
203877
206270
208737
201635
201777
202687
203697
206177
208740
200164
200421
201633
203103
205393
207762
206070
206840
206763
206956
207033
207613
203653
204055
204113
204514
204652
204996
202988
203184
202990
203167
203028
203214
202259
202009
201611
201525
201427
201966
201879
201327
200765
200466
200538
201514
201630
200942
200274
199825
200186
201724
201631
201128
200647
200322
200964
202580
201966
201688
201485
201488
202528
204240
202442
202454
202624
203098
204318
205930
202977
203235
203688
204458
205811
207514
203484
203844
204606
205450
206984
208708
203784
204187
205058
205913
207472
209108
204013
204131
204918
205752
207290
209027
202472
202777
203789
205049
206475
207923
207060
207931
208284
208570
208706
209138
205173
205539
205882
206158
206214
206346
204448
204623
204614
204431
204169
204073
203815
203842
203398
202998
202691
202499
203394
203364
202615
202207
201823
201768
203253
203232
202313
201841
201282
201599
203415
203299
202551
202234
201838
202543
203811
203656
203396
203169
203250
204267
204277
204370
204517
204668
205347
206417
204878
205174
205678
206129
207227
208402
205434
205977
206702
207468
208800
210077
205911
206559
207490
208435
209699
211016
206491
206946
207779
208776
210031
211359
205424
205825
206665
208059
209371
210472
207644
208395
208820
209156
209400
209791
206373
206739
206969
207304
207596
207776
205818
205970
205969
206040
205743
205657
205361
205281
205085
204892
204320
204032
205094
204820
204657
204107
203507
203077
205062
204743
204622
203642
203109
202760
205265
204887
204730
203927
203504
203250
205475
205379
205200
204767
204467
204477
205929
205955
206112
206057
206123
206447
206388
206688
207101
207357
207802
208520
206936
207420
208065
208578
209333
210285
207342
207995
208811
209543
210517
211438
207963
208499
209214
209986
210836
211934
207323
207716
208299
209273
210309
211416
208379
209026
209424
209740
209974
210254
207473
207810
208038
208263
208388
208527
207118
207297
207295
207197
206978
206793
206812
206804
206604
206396
205876
205589
206626
206521
206147
205984
205421
205017
206626
206564
206254
206046
205191
204752
206828
206793
206521
206190
205587
205265
207105
207104
207097
206750
206408
206194
207520
207670
207760
207760
207683
207720
207972
208251
208641
208877
209108
209489
208465
208935
209509
209966
210504
211236
208847
209423
210156
210774
211505
212400
209438
209969
210613
211259
212053
212871
209123
209592
210033
210801
211580
212568
209178
209718
210073
210482
210765
211145
208495
208809
209056
209370
209612
209856
208304
208515
208616
208590
208417
208053
208149
208202
208065
207809
207434
206717
208100
208073
207807
207397
206972
206371
208180
208128
207884
207648
206987
206395
208372
208375
208185
207978
207286
206950
208635
208717
208657
208519
208117
207923
209023
209223
209313
209334
209257
209169
209461
209746
209997
210304
210481
210637
209898
210297
210774
211295
211713
212158
210220
210747
211378
212032
212672
213479
210707
211210
211848
212513
213242
214097
210611
211112
211551
212243
212916
213747
210258
210743
211042
211417
211685
211968
209736
210042
210283
210565
210766
210957
209703
209911
210017
210075
210009
209863
209699
209740
209693
209454
209117
208538
209743
209722
209554
209145
208735
207903
209854
209851
209629
209255
208904
207929
210034
210093
209947
209673
209208
208505
210287
210385
210325
210238
209891
209602
210628
210812
210940
210964
210894
210843
211017
211301
211544
211795
212063
212209
211401
211787
212181
212668
213089
213466
211734
212223
212755
213395
213970
214547
212171
212668
213235
213907
214556
215335
212224
212709
213168
213808
214438
215180
211436
211865
212096
212499
212757
213091
211081
211344
211572
211926
212118
212335
211174
211350
211461
211567
211548
211627
211257
211320
211316
211218
210843
210488
211394
211388
211265
210976
210510
209925
211571
211553
211419
211009
210627
209845
211792
211805
211716
211409
210984
210159
212038
212145
212066
211911
211559
210999
212362
212540
212587
212575
212426
212175
212715
212967
213187
213307
213485
213559
213082
213410
213755
214101
214520
214840
213403
213837
214287
214813
215349
215832
213776
214237
214724
215309
215896
216540
213900
214395
214819
215435
216012
216697
212906
213282
213484
213861
214093
214398
212708
212933
213169
213516
213704
213979
212886
213067
213220
213366
213324
213372
213040
213136
213168
213152
212819
212464
213253
213279
213200
213011
212521
212026
213471
213470
213362
213066
212590
211999
213724
213726
213649
213327
212889
212256
213981
214015
213992
213711
213356
212803
214261
214371
214390
214295
214151
213752
214574
214776
214928
214973
215040
215010
214903
215172
215466
215678
216017
216255
215200
215562
215959
216400
216885
217339
215524
215946
216402
216927
217437
217986
215712
216184
216595
217138
217670
218273
201113
201577
201991
202682
204263
206424
198221
198817
199338
200368
201891
203561
197415
197661
197948
198854
200022
201290
196285
195908
195886
196832
198087
199320
195676
194942
194787
195778
197226
198658
195343
194330
194014
195132
197078
198820
195493
194479
194244
195436