/*--------------------------------*- C++ -*----------------------------------*\
| =========                 |                                                 |
| \\      /  F ield         | OpenFOAM: The Open Source CFD Toolbox           |
|  \\    /   O peration     | Version:  v2106                                 |
|   \\  /    A nd           | Website:  www.openfoam.com                      |
|    \\/     M anipulation  |                                                 |
\*---------------------------------------------------------------------------*/
FoamFile
{
    version     2.0;
    format      ascii;
    arch        "LSB;label=32;scalar=64";
    class       volVectorField;
    location    "0.000199";
    object      U;
}
// * * * * * * * * * * * * * * * * * * * * * * * * * * * * * * * * * * * * * //

dimensions      [0 1 -1 0 0 0 0];

internalField   nonuniform List<vector> 
17920
(
(0.0139524 0.0428993 18.6144)
(0.0301128 0.0496562 18.5849)
(0.0165075 0.0808686 18.5864)
(0.0308329 0.0796474 18.5555)
(0.0121418 0.0941061 18.5388)
(0.0266945 0.0902802 18.5087)
(0.00928764 0.121535 18.4934)
(0.0236825 0.116898 18.4639)
(0.00347235 0.140004 18.4455)
(0.0187914 0.13413 18.4168)
(-0.00163406 0.162555 18.3995)
(0.016439 0.156239 18.3728)
(-0.00760741 0.180674 18.351)
(0.0146382 0.173367 18.3279)
(-0.0127901 0.198933 18.301)
(0.0138519 0.190305 18.2831)
(-0.0174168 0.216653 18.2506)
(0.0121026 0.207208 18.2371)
(-0.0196304 0.23263 18.1998)
(0.0112178 0.221975 18.1877)
(-0.0227223 0.250616 18.1496)
(0.00857658 0.2423 18.1363)
(-0.0254877 0.262967 18.0967)
(0.00804724 0.256577 18.0792)
(-0.0348753 0.278932 18.0448)
(-0.00489533 0.278637 18.0252)
(-0.0322299 0.297358 17.995)
(-0.0042979 0.30679 17.9785)
(-0.257059 -0.0955199 17.9148)
(-0.25394 -0.101268 17.9088)
(-0.241653 -0.0996804 17.9046)
(-0.228034 -0.0986218 17.9029)
(-0.213031 -0.0967981 17.9007)
(-0.196684 -0.0955902 17.8974)
(-0.179405 -0.0949575 17.8922)
(-0.161299 -0.0948315 17.8851)
(-0.142067 -0.0953017 17.8774)
(-0.122232 -0.0961816 17.8685)
(-0.101718 -0.0981274 17.8606)
(-0.0820117 -0.0990318 17.8499)
(-0.0624726 -0.102958 17.8376)
(-0.0478602 -0.0952064 17.8199)
(-0.268132 -0.0753678 17.8825)
(-0.257571 -0.0740937 17.8746)
(-0.242885 -0.076058 17.869)
(-0.229139 -0.0775189 17.8668)
(-0.214782 -0.0776321 17.8634)
(-0.199212 -0.0772204 17.8593)
(-0.182462 -0.0769909 17.8537)
(-0.164637 -0.0767928 17.8464)
(-0.145278 -0.0772913 17.8388)
(-0.124844 -0.0775914 17.8298)
(-0.102609 -0.0781049 17.8224)
(-0.0809422 -0.0770107 17.8121)
(-0.0563718 -0.0765969 17.806)
(-0.0382341 -0.0724108 17.789)
(-0.268063 -0.0631585 17.8386)
(-0.259669 -0.0596429 17.8336)
(-0.244523 -0.0601169 17.8292)
(-0.230456 -0.0607298 17.8277)
(-0.2155 -0.0600401 17.8245)
(-0.199262 -0.0591839 17.8201)
(-0.181696 -0.0588424 17.8144)
(-0.163253 -0.0591915 17.8069)
(-0.143604 -0.0600517 17.7993)
(-0.123465 -0.0609118 17.7902)
(-0.101838 -0.0620888 17.7824)
(-0.0813321 -0.062438 17.7713)
(-0.0573353 -0.0640675 17.7649)
(-0.0402088 -0.064051 17.7474)
(-0.26985 -0.0389764 17.798)
(-0.260317 -0.0377756 17.795)
(-0.245401 -0.0404115 17.7905)
(-0.231319 -0.0424021 17.7884)
(-0.21636 -0.0427442 17.7846)
(-0.200066 -0.042452 17.7797)
(-0.182356 -0.0422938 17.7737)
(-0.163814 -0.0424023 17.7665)
(-0.144222 -0.0430569 17.7592)
(-0.124096 -0.0438276 17.7504)
(-0.102429 -0.0448445 17.7428)
(-0.0813577 -0.0445601 17.7324)
(-0.0571791 -0.0441409 17.7261)
(-0.040276 -0.044724 17.7086)
(-0.270995 -0.0211705 17.757)
(-0.260182 -0.0204073 17.7544)
(-0.244942 -0.0229532 17.7506)
(-0.230831 -0.0247363 17.7481)
(-0.215922 -0.0247607 17.7442)
(-0.199756 -0.0248299 17.739)
(-0.182212 -0.0249182 17.7328)
(-0.163841 -0.0255561 17.7257)
(-0.144518 -0.0265086 17.7184)
(-0.124688 -0.0276064 17.7101)
(-0.103649 -0.0290432 17.7026)
(-0.0827531 -0.0292795 17.6932)
(-0.0591129 -0.0287895 17.6863)
(-0.0410974 -0.0302224 17.6697)
(-0.271763 -0.00165784 17.7177)
(-0.259613 -0.00224956 17.7137)
(-0.245124 -0.00495294 17.7101)
(-0.230962 -0.00687824 17.707)
(-0.216016 -0.00737736 17.7026)
(-0.199894 -0.00782759 17.6973)
(-0.182607 -0.00799001 17.6912)
(-0.164485 -0.00849732 17.6846)
(-0.145577 -0.0092291 17.6775)
(-0.12601 -0.0101 17.6699)
(-0.105486 -0.0114505 17.6625)
(-0.0845002 -0.0118226 17.6544)
(-0.0613403 -0.0111905 17.6473)
(-0.0411066 -0.0124507 17.6329)
(-0.273487 0.0158707 17.6771)
(-0.259712 0.0153274 17.6725)
(-0.245631 0.0131458 17.6688)
(-0.231419 0.011614 17.6654)
(-0.216453 0.0110877 17.6607)
(-0.200324 0.0100982 17.6554)
(-0.183182 0.00948421 17.6492)
(-0.165135 0.00842635 17.6428)
(-0.146412 0.00738389 17.6358)
(-0.126926 0.00632836 17.6287)
(-0.106855 0.00484653 17.6212)
(-0.0858909 0.00404912 17.6142)
(-0.0635207 0.00398873 17.6064)
(-0.0410479 0.00260214 17.5952)
(-0.275971 0.0316863 17.6354)
(-0.260487 0.0321429 17.6304)
(-0.246495 0.0306251 17.6264)
(-0.232185 0.0294291 17.6228)
(-0.217226 0.0287133 17.6179)
(-0.201032 0.0274735 17.6128)
(-0.183986 0.0267153 17.6067)
(-0.165964 0.0256942 17.6008)
(-0.147372 0.0248745 17.594)
(-0.127854 0.0241431 17.5876)
(-0.108037 0.0228807 17.5802)
(-0.0869364 0.0218082 17.5743)
(-0.065512 0.0205584 17.5656)
(-0.0410566 0.0182739 17.5581)
(-0.278202 0.0476963 17.5935)
(-0.261694 0.050107 17.5884)
(-0.248005 0.0490042 17.5837)
(-0.233715 0.0477923 17.58)
(-0.218684 0.0467783 17.575)
(-0.202375 0.045172 17.5702)
(-0.18523 0.0440992 17.5642)
(-0.167009 0.0427196 17.5585)
(-0.148246 0.0417155 17.5517)
(-0.128458 0.0409372 17.5459)
(-0.108703 0.0398549 17.5384)
(-0.0875828 0.0387306 17.5338)
(-0.0670628 0.0370755 17.5249)
(-0.0413063 0.0333597 17.5209)
(-0.280693 0.0629378 17.5509)
(-0.264149 0.0667143 17.5457)
(-0.250266 0.0666792 17.5408)
(-0.235507 0.0651775 17.5368)
(-0.220051 0.0640127 17.532)
(-0.2035 0.0621662 17.5274)
(-0.186248 0.0609861 17.5214)
(-0.167909 0.0596588 17.5161)
(-0.148991 0.0589114 17.5095)
(-0.128876 0.05841 17.5042)
(-0.108875 0.05775 17.497)
(-0.0874457 0.0567115 17.4936)
(-0.0675553 0.0536993 17.4852)
(-0.0410229 0.0477233 17.4831)
(-0.283413 0.0831865 17.5084)
(-0.266965 0.0862235 17.504)
(-0.253066 0.0851706 17.4986)
(-0.237928 0.0830154 17.4944)
(-0.222154 0.0813283 17.4893)
(-0.205424 0.0792229 17.4849)
(-0.187993 0.077916 17.4789)
(-0.169433 0.0764222 17.4737)
(-0.150253 0.0756052 17.4672)
(-0.129775 0.0749918 17.4621)
(-0.109272 0.0745235 17.4553)
(-0.0874084 0.0736936 17.453)
(-0.0677237 0.0718868 17.4476)
(-0.0406242 0.0662049 17.4459)
(-0.287835 0.0992821 17.4622)
(-0.269831 0.100423 17.4595)
(-0.255142 0.101008 17.4555)
(-0.239087 0.0989859 17.4515)
(-0.222545 0.0978461 17.4464)
(-0.205551 0.095578 17.4422)
(-0.188254 0.0941249 17.4362)
(-0.170075 0.0927146 17.4312)
(-0.151338 0.0922136 17.4251)
(-0.131248 0.0917744 17.4203)
(-0.110482 0.0916508 17.4143)
(-0.0876895 0.0897744 17.4121)
(-0.0678298 0.0849261 17.4081)
(-0.0395676 0.0803129 17.4041)
(-0.287993 0.122294 17.4175)
(-0.268678 0.120023 17.4171)
(-0.253779 0.119416 17.413)
(-0.238516 0.116337 17.4093)
(-0.223331 0.11478 17.4039)
(-0.207553 0.112778 17.4001)
(-0.1912 0.111591 17.3945)
(-0.173644 0.110317 17.3897)
(-0.155116 0.109656 17.3841)
(-0.134996 0.108824 17.3792)
(-0.113835 0.108177 17.374)
(-0.091443 0.105922 17.3713)
(-0.0715212 0.102982 17.3692)
(-0.0454846 0.10344 17.3628)
(-0.291445 0.136818 17.3725)
(-0.27233 0.126065 17.3731)
(-0.255229 0.130454 17.3687)
(-0.237494 0.131232 17.3666)
(-0.220185 0.131994 17.3623)
(-0.203488 0.130484 17.3587)
(-0.186919 0.129176 17.3532)
(-0.16947 0.127954 17.3486)
(-0.151194 0.127177 17.3435)
(-0.131762 0.12623 17.3386)
(-0.111244 0.125894 17.3347)
(-0.090008 0.123619 17.331)
(-0.0716521 0.114353 17.3269)
(-0.0462475 0.124067 17.3206)
(-0.253842 -0.214222 16.8574)
(-0.247665 -0.215974 16.8628)
(-0.234585 -0.216958 16.8666)
(-0.22221 -0.217232 16.875)
(-0.20828 -0.217358 16.8829)
(-0.19444 -0.216758 16.8905)
(-0.180104 -0.21642 16.897)
(-0.164914 -0.215872 16.9022)
(-0.149064 -0.215366 16.9075)
(-0.131886 -0.214817 16.9117)
(-0.114932 -0.214432 16.9178)
(-0.0977562 -0.21464 16.9211)
(-0.0823957 -0.216143 16.9242)
(-0.0686094 -0.207768 16.9184)
(-0.255247 -0.194746 16.8346)
(-0.248627 -0.195068 16.8423)
(-0.235459 -0.198337 16.8459)
(-0.223797 -0.199312 16.854)
(-0.210456 -0.20045 16.8607)
(-0.197146 -0.200446 16.8674)
(-0.183096 -0.200628 16.8733)
(-0.167975 -0.200499 16.8781)
(-0.151973 -0.200873 16.8828)
(-0.134584 -0.201134 16.8861)
(-0.116562 -0.201278 16.8909)
(-0.0973074 -0.200462 16.8932)
(-0.0778218 -0.198376 16.8976)
(-0.0577743 -0.193623 16.8954)
(-0.259077 -0.180706 16.8084)
(-0.252322 -0.180864 16.8173)
(-0.238797 -0.183858 16.8224)
(-0.226445 -0.184552 16.8305)
(-0.21239 -0.184905 16.8373)
(-0.197988 -0.184584 16.8436)
(-0.182791 -0.184729 16.8493)
(-0.166594 -0.185185 16.8537)
(-0.149934 -0.185825 16.8582)
(-0.132385 -0.18614 16.8614)
(-0.114486 -0.186119 16.8657)
(-0.0957187 -0.184921 16.8675)
(-0.0760873 -0.183773 16.8708)
(-0.0572455 -0.181968 16.8675)
(-0.260702 -0.162721 16.7856)
(-0.252965 -0.16371 16.7941)
(-0.239664 -0.167781 16.799)
(-0.227347 -0.169223 16.8066)
(-0.213432 -0.169977 16.813)
(-0.198936 -0.169954 16.819)
(-0.183467 -0.169949 16.8246)
(-0.167068 -0.169961 16.8293)
(-0.150143 -0.170245 16.8341)
(-0.132386 -0.170381 16.8376)
(-0.114148 -0.170397 16.8419)
(-0.0950372 -0.168891 16.8443)
(-0.0748796 -0.16683 16.8479)
(-0.0556814 -0.164949 16.8436)
(-0.26361 -0.146333 16.7636)
(-0.25362 -0.148315 16.7701)
(-0.240442 -0.15163 16.7757)
(-0.227714 -0.153303 16.7829)
(-0.213743 -0.153694 16.7892)
(-0.198974 -0.154164 16.7947)
(-0.183327 -0.154391 16.7999)
(-0.166824 -0.15484 16.8045)
(-0.149727 -0.155322 16.809)
(-0.131916 -0.155573 16.8127)
(-0.11356 -0.155849 16.8169)
(-0.0944753 -0.154355 16.8201)
(-0.0740528 -0.152455 16.8237)
(-0.0542444 -0.149759 16.8199)
(-0.265403 -0.12988 16.7411)
(-0.253584 -0.133183 16.7456)
(-0.24056 -0.135837 16.7514)
(-0.227892 -0.137736 16.7581)
(-0.213961 -0.138123 16.7641)
(-0.199304 -0.138733 16.7697)
(-0.18366 -0.13878 16.7749)
(-0.167273 -0.138948 16.7798)
(-0.150121 -0.139039 16.7844)
(-0.132311 -0.138924 16.7886)
(-0.113758 -0.139098 16.7927)
(-0.0945641 -0.137629 16.7966)
(-0.0737799 -0.13624 16.8003)
(-0.0529094 -0.133017 16.7981)
(-0.267461 -0.114112 16.7167)
(-0.254386 -0.11774 16.7207)
(-0.241362 -0.119191 16.7267)
(-0.228528 -0.121067 16.7333)
(-0.214449 -0.121355 16.7389)
(-0.199677 -0.122336 16.7446)
(-0.183797 -0.122621 16.7496)
(-0.167271 -0.123103 16.7546)
(-0.149888 -0.123308 16.759)
(-0.132022 -0.123197 16.7635)
(-0.113308 -0.123432 16.7673)
(-0.094072 -0.122191 16.7719)
(-0.0731445 -0.121608 16.7751)
(-0.0514769 -0.117999 16.7751)
(-0.269324 -0.0988511 16.6908)
(-0.255477 -0.101978 16.6952)
(-0.242319 -0.102738 16.7011)
(-0.229281 -0.104398 16.7077)
(-0.215029 -0.104778 16.7132)
(-0.200222 -0.105826 16.7191)
(-0.184163 -0.106131 16.7241)
(-0.167546 -0.10652 16.7295)
(-0.149902 -0.1065 16.734)
(-0.131928 -0.106079 16.7391)
(-0.112955 -0.10612 16.7429)
(-0.0936202 -0.105129 16.7481)
(-0.072546 -0.105428 16.7506)
(-0.050161 -0.101986 16.7532)
(-0.271772 -0.0828282 16.665)
(-0.257269 -0.0850729 16.6693)
(-0.244206 -0.0855574 16.6753)
(-0.230736 -0.0870561 16.6818)
(-0.216172 -0.0876414 16.6874)
(-0.201116 -0.0888591 16.6935)
(-0.184711 -0.0893547 16.6985)
(-0.167786 -0.0899432 16.7041)
(-0.149695 -0.0900291 16.7085)
(-0.131403 -0.0896539 16.714)
(-0.112063 -0.0896118 16.7177)
(-0.0926484 -0.0889128 16.7238)
(-0.0714021 -0.0894388 16.726)
(-0.0484964 -0.0866497 16.7311)
(-0.274393 -0.0668127 16.6395)
(-0.258827 -0.0677645 16.6427)
(-0.246057 -0.0681672 16.6492)
(-0.232017 -0.069669 16.6557)
(-0.217099 -0.0704869 16.6614)
(-0.201781 -0.0718423 16.6678)
(-0.185073 -0.0724306 16.6729)
(-0.167912 -0.0729374 16.6788)
(-0.149462 -0.0727798 16.6835)
(-0.130906 -0.0721696 16.6894)
(-0.111212 -0.0718113 16.6933)
(-0.0915962 -0.0715386 16.7001)
(-0.0700517 -0.0723533 16.7026)
(-0.0462195 -0.0711548 16.7094)
(-0.277705 -0.0485331 16.6156)
(-0.261207 -0.0485118 16.6173)
(-0.24859 -0.0496188 16.6239)
(-0.23411 -0.0515494 16.6302)
(-0.21877 -0.052812 16.6357)
(-0.203149 -0.0543911 16.6423)
(-0.18602 -0.0552075 16.6474)
(-0.168462 -0.0559355 16.6535)
(-0.149596 -0.0558661 16.6582)
(-0.130608 -0.0553552 16.6641)
(-0.110477 -0.0547497 16.6681)
(-0.0904298 -0.0546172 16.6756)
(-0.0682883 -0.0545432 16.6808)
(-0.0428387 -0.0545649 16.6888)
(-0.281354 -0.0312875 16.5896)
(-0.263184 -0.0313894 16.5909)
(-0.250194 -0.0311167 16.5983)
(-0.234791 -0.0335157 16.6046)
(-0.218875 -0.0349196 16.6101)
(-0.203074 -0.0369594 16.6168)
(-0.185839 -0.0381108 16.6218)
(-0.168381 -0.0388734 16.628)
(-0.149726 -0.038526 16.6331)
(-0.130889 -0.0377902 16.6392)
(-0.110979 -0.0364335 16.6439)
(-0.0903101 -0.0370764 16.6513)
(-0.0679606 -0.0378594 16.659)
(-0.0406321 -0.0397499 16.6661)
(-0.280941 -0.0123595 16.5632)
(-0.262928 -0.013452 16.5657)
(-0.249496 -0.0133102 16.5716)
(-0.235469 -0.0159464 16.5786)
(-0.220051 -0.017259 16.5841)
(-0.205032 -0.0188887 16.5915)
(-0.188205 -0.0197223 16.5968)
(-0.171084 -0.0203365 16.6033)
(-0.152496 -0.0200408 16.6087)
(-0.133089 -0.0193956 16.6147)
(-0.112592 -0.0181049 16.6201)
(-0.0908201 -0.0192708 16.6266)
(-0.0699618 -0.0189101 16.6381)
(-0.0416673 -0.0208225 16.6425)
(-0.284617 0.00767286 16.5359)
(-0.264549 0.000609797 16.5382)
(-0.248673 0.00713961 16.5448)
(-0.232854 0.00442818 16.5533)
(-0.216378 0.00315741 16.5593)
(-0.200982 0.000872131 16.5667)
(-0.183864 -0.000641992 16.572)
(-0.166465 -0.0015984 16.5786)
(-0.147729 -0.00181858 16.5846)
(-0.128156 -0.00171747 16.5905)
(-0.10861 -0.000230206 16.597)
(-0.0887351 -0.000790761 16.6028)
(-0.0698959 -0.00439012 16.6111)
(-0.0446799 -0.00709176 16.6115)
(-0.222612 -0.264377 15.7575)
(-0.209679 -0.263257 15.7685)
(-0.196819 -0.268125 15.7806)
(-0.183288 -0.267926 15.7945)
(-0.169955 -0.269642 15.8089)
(-0.156329 -0.269865 15.8225)
(-0.143078 -0.270562 15.8352)
(-0.129458 -0.270794 15.8471)
(-0.115786 -0.271132 15.8595)
(-0.100677 -0.271313 15.8719)
(-0.0859358 -0.271038 15.886)
(-0.0692608 -0.271618 15.8985)
(-0.0569707 -0.271722 15.9118)
(-0.042423 -0.266733 15.9156)
(-0.219428 -0.249357 15.7503)
(-0.209136 -0.248058 15.7623)
(-0.197123 -0.252935 15.7741)
(-0.184896 -0.253652 15.7877)
(-0.1723 -0.25533 15.8017)
(-0.159414 -0.255634 15.8154)
(-0.146575 -0.25626 15.829)
(-0.132764 -0.256595 15.8419)
(-0.118511 -0.257219 15.8547)
(-0.10285 -0.257711 15.8666)
(-0.0873367 -0.257747 15.8796)
(-0.0693653 -0.257835 15.8903)
(-0.0542517 -0.256193 15.903)
(-0.0350268 -0.25396 15.9061)
(-0.225459 -0.235336 15.7437)
(-0.213716 -0.234876 15.7561)
(-0.201944 -0.239356 15.77)
(-0.188259 -0.24021 15.7835)
(-0.175086 -0.241268 15.7977)
(-0.160584 -0.241358 15.8106)
(-0.146303 -0.241906 15.8236)
(-0.131227 -0.242528 15.8355)
(-0.116532 -0.243297 15.8477)
(-0.10085 -0.243814 15.8589)
(-0.0856816 -0.243869 15.8714)
(-0.0681922 -0.243171 15.8818)
(-0.0527343 -0.240945 15.8939)
(-0.0339301 -0.238222 15.8972)
(-0.227154 -0.219951 15.7396)
(-0.21431 -0.22147 15.7505)
(-0.20261 -0.225416 15.7643)
(-0.189263 -0.226874 15.7776)
(-0.176271 -0.227586 15.7915)
(-0.161996 -0.227807 15.8045)
(-0.147603 -0.228082 15.8177)
(-0.132295 -0.228381 15.8301)
(-0.117083 -0.228792 15.8427)
(-0.100971 -0.229014 15.8543)
(-0.0853295 -0.228979 15.8668)
(-0.0678499 -0.227661 15.8775)
(-0.0517438 -0.225148 15.8895)
(-0.0325385 -0.221604 15.8928)
(-0.229972 -0.205099 15.7358)
(-0.215661 -0.208231 15.7453)
(-0.203854 -0.211075 15.7594)
(-0.189996 -0.212797 15.7725)
(-0.176704 -0.213073 15.7862)
(-0.161991 -0.213516 15.7988)
(-0.147323 -0.213739 15.8116)
(-0.131883 -0.214082 15.8237)
(-0.11643 -0.214405 15.8359)
(-0.100308 -0.214494 15.8473)
(-0.0843556 -0.214529 15.8593)
(-0.0671707 -0.212851 15.8703)
(-0.0504792 -0.21059 15.8821)
(-0.0308636 -0.205967 15.8863)
(-0.230422 -0.190179 15.7304)
(-0.21577 -0.194597 15.7394)
(-0.203445 -0.196348 15.753)
(-0.190206 -0.19822 15.7662)
(-0.17681 -0.198283 15.7795)
(-0.162536 -0.198877 15.7923)
(-0.147841 -0.198953 15.8051)
(-0.132546 -0.199148 15.8176)
(-0.116835 -0.199165 15.8298)
(-0.10064 -0.198926 15.8417)
(-0.0841055 -0.19877 15.8535)
(-0.0668827 -0.196895 15.8649)
(-0.0492081 -0.195249 15.8765)
(-0.0291673 -0.189925 15.882)
(-0.231525 -0.175679 15.723)
(-0.216999 -0.180421 15.7333)
(-0.203998 -0.180869 15.7465)
(-0.190898 -0.18276 15.7598)
(-0.177102 -0.182749 15.7728)
(-0.162769 -0.183561 15.7856)
(-0.147746 -0.183671 15.7982)
(-0.13231 -0.183873 15.8107)
(-0.116244 -0.183739 15.8227)
(-0.0999702 -0.183233 15.8347)
(-0.0829795 -0.182931 15.846)
(-0.0658194 -0.180967 15.8577)
(-0.047296 -0.180203 15.8685)
(-0.0273647 -0.174249 15.8757)
(-0.231621 -0.161099 15.7143)
(-0.218271 -0.165369 15.7267)
(-0.204412 -0.164953 15.7392)
(-0.191674 -0.166734 15.7529)
(-0.177477 -0.166867 15.7656)
(-0.163277 -0.167802 15.7788)
(-0.14794 -0.167938 15.7913)
(-0.132409 -0.16806 15.8041)
(-0.115931 -0.167705 15.8162)
(-0.0995144 -0.166851 15.8284)
(-0.0819507 -0.166265 15.8396)
(-0.0648112 -0.164293 15.8518)
(-0.0452038 -0.164201 15.8615)
(-0.0257872 -0.158117 15.8711)
(-0.232743 -0.145713 15.7058)
(-0.220343 -0.149215 15.7194)
(-0.206013 -0.148489 15.7316)
(-0.193156 -0.150141 15.7455)
(-0.178422 -0.15055 15.7581)
(-0.16398 -0.151624 15.7715)
(-0.14816 -0.15188 15.7839)
(-0.132282 -0.152014 15.7968)
(-0.115241 -0.151558 15.8087)
(-0.0984419 -0.150493 15.8211)
(-0.080151 -0.149655 15.8322)
(-0.0629012 -0.147812 15.8452)
(-0.0422957 -0.147973 15.854)
(-0.0236415 -0.141994 15.866)
(-0.233931 -0.129546 15.697)
(-0.221826 -0.132091 15.711)
(-0.207377 -0.13156 15.7234)
(-0.19443 -0.133105 15.7377)
(-0.179228 -0.13385 15.7504)
(-0.164567 -0.135042 15.764)
(-0.148232 -0.135443 15.7766)
(-0.131962 -0.135545 15.7897)
(-0.114371 -0.134899 15.8018)
(-0.0972117 -0.133585 15.8146)
(-0.078324 -0.13238 15.8257)
(-0.0608683 -0.130857 15.8393)
(-0.0395619 -0.130846 15.8475)
(-0.0208617 -0.125621 15.8607)
(-0.236373 -0.111816 15.6907)
(-0.224128 -0.113764 15.7043)
(-0.209565 -0.11393 15.7162)
(-0.196447 -0.115604 15.7304)
(-0.180704 -0.116734 15.7428)
(-0.165673 -0.11806 15.7565)
(-0.148799 -0.118689 15.7689)
(-0.132006 -0.118903 15.7819)
(-0.113856 -0.118214 15.7939)
(-0.0960408 -0.116834 15.8066)
(-0.0764447 -0.115226 15.8177)
(-0.0583854 -0.114023 15.8319)
(-0.0363125 -0.113374 15.8415)
(-0.0166697 -0.109433 15.8564)
(-0.238915 -0.0941285 15.6821)
(-0.225388 -0.0956919 15.6953)
(-0.210454 -0.09622 15.7075)
(-0.197095 -0.0980821 15.7221)
(-0.180899 -0.0994774 15.7346)
(-0.165627 -0.100839 15.7486)
(-0.14839 -0.101574 15.7612)
(-0.131358 -0.101709 15.7747)
(-0.113154 -0.100805 15.7873)
(-0.0951913 -0.0992595 15.8003)
(-0.0758822 -0.0970701 15.8118)
(-0.0576883 -0.0963769 15.8258)
(-0.0357201 -0.0956111 15.8365)
(-0.0139883 -0.0940311 15.8513)
(-0.239201 -0.0750498 15.6756)
(-0.22571 -0.0769066 15.689)
(-0.210364 -0.0776868 15.7005)
(-0.197592 -0.0799184 15.7153)
(-0.181418 -0.0813798 15.7275)
(-0.166607 -0.0825678 15.7416)
(-0.149829 -0.0832919 15.7539)
(-0.133152 -0.0834975 15.7667)
(-0.115096 -0.0827808 15.7787)
(-0.096563 -0.0813374 15.791)
(-0.0767863 -0.0788859 15.8028)
(-0.0566988 -0.0787979 15.8164)
(-0.0368266 -0.0776721 15.8321)
(-0.0117658 -0.0787685 15.845)
(-0.242962 -0.0560986 15.6635)
(-0.225988 -0.0581719 15.6772)
(-0.208621 -0.0572221 15.6895)
(-0.195171 -0.0601815 15.7047)
(-0.178629 -0.0618828 15.7172)
(-0.163673 -0.0632953 15.7316)
(-0.146538 -0.064265 15.7448)
(-0.129341 -0.0646421 15.759)
(-0.11085 -0.0643682 15.7727)
(-0.0913846 -0.0634435 15.7859)
(-0.0722125 -0.0610472 15.7997)
(-0.0532258 -0.0605269 15.8127)
(-0.0372843 -0.0592789 15.8259)
(-0.0165436 -0.0667027 15.8306)
(-0.175231 -0.257226 14.6752)
(-0.158058 -0.2549 14.6859)
(-0.145439 -0.26043 14.7005)
(-0.130548 -0.259881 14.7153)
(-0.116706 -0.261334 14.7307)
(-0.102862 -0.26132 14.7451)
(-0.0895194 -0.261483 14.7589)
(-0.0761588 -0.261223 14.7722)
(-0.0629651 -0.261424 14.786)
(-0.0490791 -0.26192 14.8001)
(-0.0350982 -0.261889 14.8153)
(-0.0194129 -0.263672 14.8303)
(-0.0070216 -0.262817 14.8469)
(0.010153 -0.264822 14.855)
(-0.171879 -0.240506 14.6797)
(-0.156372 -0.239218 14.6904)
(-0.145355 -0.243469 14.7054)
(-0.131618 -0.243921 14.7197)
(-0.118948 -0.24524 14.7355)
(-0.105515 -0.245952 14.7509)
(-0.0924967 -0.247425 14.7666)
(-0.0789319 -0.248857 14.7818)
(-0.0654134 -0.250362 14.7968)
(-0.0511305 -0.251723 14.8112)
(-0.0368874 -0.252567 14.8263)
(-0.02036 -0.253613 14.8402)
(-0.00753058 -0.252769 14.8567)
(0.0117479 -0.252622 14.8635)
(-0.179149 -0.228349 14.6871)
(-0.161141 -0.228729 14.6988)
(-0.149729 -0.233062 14.716)
(-0.134255 -0.233716 14.7303)
(-0.120913 -0.234476 14.7463)
(-0.1062 -0.234432 14.7609)
(-0.0921655 -0.234747 14.7757)
(-0.0777733 -0.235032 14.7898)
(-0.0638634 -0.235643 14.8039)
(-0.0494032 -0.236404 14.8176)
(-0.0354558 -0.237081 14.8321)
(-0.0193815 -0.237502 14.8455)
(-0.00673917 -0.236113 14.8614)
(0.0120478 -0.234618 14.8685)
(-0.178352 -0.214502 14.6964)
(-0.161053 -0.21662 14.7071)
(-0.14966 -0.219358 14.7239)
(-0.13484 -0.220377 14.7383)
(-0.121763 -0.220744 14.7541)
(-0.10743 -0.221154 14.769)
(-0.093575 -0.221777 14.7843)
(-0.0791679 -0.22244 14.799)
(-0.065 -0.223215 14.8137)
(-0.050303 -0.224008 14.8278)
(-0.0361012 -0.224691 14.8424)
(-0.0201242 -0.224447 14.8561)
(-0.00694017 -0.222701 14.8717)
(0.0119366 -0.219496 14.8789)
(-0.179654 -0.20126 14.7057)
(-0.162028 -0.204695 14.716)
(-0.150318 -0.206766 14.7329)
(-0.135389 -0.207988 14.7474)
(-0.122083 -0.208102 14.7631)
(-0.10752 -0.20832 14.7777)
(-0.093456 -0.208452 14.7926)
(-0.0789693 -0.208628 14.807)
(-0.0646342 -0.20882 14.8213)
(-0.0499802 -0.209011 14.8352)
(-0.0355698 -0.209139 14.8492)
(-0.0200647 -0.208292 14.8628)
(-0.00610232 -0.206538 14.8778)
(0.0127782 -0.202383 14.8858)
(-0.178689 -0.187849 14.7136)
(-0.161854 -0.192001 14.7244)
(-0.149451 -0.19283 14.7405)
(-0.135413 -0.194196 14.7553)
(-0.122047 -0.194111 14.7707)
(-0.107968 -0.194602 14.7855)
(-0.0939331 -0.194779 14.8005)
(-0.0795698 -0.195025 14.8153)
(-0.0650948 -0.195108 14.8298)
(-0.050418 -0.195089 14.844)
(-0.035611 -0.194965 14.8581)
(-0.0201774 -0.193756 14.8719)
(-0.00513064 -0.192504 14.8864)
(0.0135799 -0.187482 14.8953)
(-0.178732 -0.174393 14.7199)
(-0.16292 -0.178828 14.7325)
(-0.149594 -0.178684 14.7481)
(-0.135956 -0.180067 14.7632)
(-0.122224 -0.180014 14.7783)
(-0.108147 -0.18053 14.7933)
(-0.0938456 -0.180577 14.8081)
(-0.0793576 -0.18059 14.8228)
(-0.0645932 -0.180318 14.8371)
(-0.0497846 -0.179804 14.8513)
(-0.0345493 -0.179286 14.8649)
(-0.0192686 -0.177652 14.8787)
(-0.00313361 -0.177041 14.8921)
(0.0147235 -0.171194 14.9024)
(-0.177803 -0.160703 14.7254)
(-0.164006 -0.164843 14.7403)
(-0.149631 -0.163819 14.7549)
(-0.136578 -0.165218 14.7706)
(-0.122459 -0.165329 14.7855)
(-0.10852 -0.166034 14.8008)
(-0.0939447 -0.166159 14.8156)
(-0.0793369 -0.166169 14.8305)
(-0.064243 -0.165769 14.8449)
(-0.0492721 -0.164948 14.8592)
(-0.0335298 -0.164153 14.8728)
(-0.0183738 -0.162261 14.8869)
(-0.000943123 -0.162178 14.8991)
(0.0156937 -0.15592 14.9113)
(-0.177892 -0.14643 14.731)
(-0.165919 -0.149895 14.7475)
(-0.150768 -0.148658 14.7614)
(-0.137828 -0.149952 14.7775)
(-0.12316 -0.150282 14.7923)
(-0.109027 -0.151034 14.8077)
(-0.0940165 -0.151172 14.8225)
(-0.0790822 -0.151054 14.8373)
(-0.063499 -0.150422 14.8516)
(-0.0481421 -0.149212 14.8659)
(-0.0316677 -0.148097 14.8793)
(-0.0164739 -0.146126 14.8939)
(0.00230606 -0.146298 14.905)
(0.01737 -0.139855 14.9194)
(-0.178155 -0.130633 14.7359)
(-0.167613 -0.133441 14.7534)
(-0.151937 -0.132737 14.7672)
(-0.139099 -0.134103 14.7838)
(-0.123884 -0.134803 14.7987)
(-0.10953 -0.135721 14.8144)
(-0.0939969 -0.136013 14.8293)
(-0.0786214 -0.135958 14.8444)
(-0.0624811 -0.135268 14.8587)
(-0.0467431 -0.13388 14.8733)
(-0.0296459 -0.13239 14.8865)
(-0.0143266 -0.130353 14.9015)
(0.005482 -0.130043 14.9117)
(0.0197279 -0.123332 14.9273)
(-0.179659 -0.114773 14.7431)
(-0.169973 -0.117022 14.7607)
(-0.153833 -0.117051 14.7739)
(-0.140813 -0.118295 14.7905)
(-0.124954 -0.119189 14.8051)
(-0.110204 -0.120036 14.8209)
(-0.0942034 -0.120328 14.8356)
(-0.0783665 -0.120124 14.8505)
(-0.0617016 -0.119156 14.8647)
(-0.0452842 -0.117457 14.879)
(-0.0274056 -0.115632 14.8921)
(-0.0112795 -0.113934 14.9075)
(0.00961421 -0.113332 14.9183)
(0.0237443 -0.107557 14.9361)
(-0.181014 -0.0965739 14.7476)
(-0.171179 -0.0984263 14.7654)
(-0.154536 -0.0996109 14.7788)
(-0.141457 -0.101163 14.7959)
(-0.125212 -0.1026 14.8108)
(-0.11018 -0.103617 14.8269)
(-0.0937713 -0.104196 14.8419)
(-0.0775367 -0.104276 14.8573)
(-0.0606548 -0.103568 14.8722)
(-0.0440263 -0.102059 14.887)
(-0.0263319 -0.0999147 14.9003)
(-0.0102489 -0.0983383 14.9153)
(0.0106582 -0.0962323 14.9257)
(0.0261202 -0.0921314 14.9444)
(-0.18194 -0.0805835 14.7564)
(-0.172146 -0.0823381 14.7747)
(-0.154958 -0.0840292 14.7875)
(-0.141664 -0.0852553 14.8042)
(-0.125421 -0.0866151 14.8186)
(-0.110471 -0.0871472 14.834)
(-0.0944187 -0.0873124 14.8484)
(-0.0784173 -0.0867208 14.8626)
(-0.0617288 -0.085294 14.8764)
(-0.0446041 -0.0832393 14.8901)
(-0.0265946 -0.0804622 14.9035)
(-0.00894642 -0.079486 14.9185)
(0.0106469 -0.0785014 14.9335)
(0.0296989 -0.0794664 14.9521)
(-0.183108 -0.0599636 14.7545)
(-0.171534 -0.0605561 14.7735)
(-0.153915 -0.0624404 14.7873)
(-0.140384 -0.0641693 14.8044)
(-0.124318 -0.0662477 14.8199)
(-0.108975 -0.0674762 14.8363)
(-0.0925972 -0.0685263 14.8523)
(-0.0759628 -0.0691392 14.8687)
(-0.0586853 -0.0692226 14.8848)
(-0.0406251 -0.0684022 14.9)
(-0.0230531 -0.0661054 14.9153)
(-0.00581755 -0.0646888 14.9302)
(0.00895609 -0.0614151 14.9442)
(0.0249097 -0.0671629 14.9529)
(-0.128666 -0.213435 13.6381)
(-0.110482 -0.209818 13.6454)
(-0.0972295 -0.214592 13.6576)
(-0.0819581 -0.213507 13.669)
(-0.0674192 -0.213827 13.6808)
(-0.0531127 -0.213375 13.6921)
(-0.0391312 -0.213396 13.7031)
(-0.0253112 -0.213415 13.7144)
(-0.0116663 -0.213689 13.726)
(0.00233047 -0.214132 13.7374)
(0.0165536 -0.213966 13.7494)
(0.0319101 -0.215253 13.7615)
(0.0451117 -0.213999 13.7762)
(0.0619588 -0.218602 13.7841)
(-0.125468 -0.196713 13.6493)
(-0.10818 -0.195008 13.6571)
(-0.0958771 -0.19797 13.6694)
(-0.0815295 -0.19785 13.6806)
(-0.0679771 -0.198472 13.6931)
(-0.0540323 -0.199007 13.7054)
(-0.0403597 -0.20017 13.7178)
(-0.0266662 -0.201304 13.73)
(-0.0132522 -0.202646 13.7424)
(0.000416929 -0.204227 13.7545)
(0.0140748 -0.205761 13.767)
(0.0294165 -0.207321 13.7788)
(0.0423112 -0.207103 13.7935)
(0.0603917 -0.207751 13.8011)
(-0.131128 -0.184392 13.6627)
(-0.111952 -0.184599 13.671)
(-0.0991973 -0.187734 13.6853)
(-0.0833708 -0.187705 13.6964)
(-0.0693089 -0.187943 13.7091)
(-0.0546758 -0.18776 13.7211)
(-0.0405217 -0.187933 13.7331)
(-0.0263485 -0.188168 13.7449)
(-0.0124494 -0.188664 13.7569)
(0.00158985 -0.18942 13.7685)
(0.0154225 -0.190192 13.7803)
(0.0302577 -0.191094 13.7919)
(0.0426932 -0.190316 13.8059)
(0.0603717 -0.189282 13.8138)
(-0.129127 -0.171565 13.6778)
(-0.110991 -0.173488 13.6857)
(-0.0984238 -0.174978 13.6998)
(-0.0832133 -0.175153 13.711)
(-0.0694891 -0.175047 13.7238)
(-0.0551914 -0.175141 13.7359)
(-0.041259 -0.175554 13.7483)
(-0.0272161 -0.176056 13.7605)
(-0.0133884 -0.176732 13.7728)
(0.000490874 -0.177681 13.7849)
(0.014193 -0.178664 13.797)
(0.0287036 -0.179321 13.809)
(0.0413436 -0.178476 13.8228)
(0.0589448 -0.176256 13.831)
(-0.129132 -0.158641 13.6926)
(-0.111065 -0.161402 13.7005)
(-0.0983849 -0.162627 13.7147)
(-0.0833328 -0.163021 13.7262)
(-0.0696073 -0.162892 13.739)
(-0.0553044 -0.162851 13.751)
(-0.0413508 -0.16289 13.7633)
(-0.0273327 -0.162999 13.7754)
(-0.0134509 -0.163169 13.7876)
(0.000400182 -0.16352 13.7996)
(0.0141927 -0.163741 13.8114)
(0.0283244 -0.163768 13.8233)
(0.0414903 -0.162603 13.8364)
(0.0587494 -0.159896 13.845)
(-0.127691 -0.146108 13.7068)
(-0.110578 -0.149289 13.7157)
(-0.0973699 -0.149483 13.7291)
(-0.0830154 -0.150036 13.7411)
(-0.0693413 -0.149799 13.7536)
(-0.0553747 -0.149919 13.7659)
(-0.0415238 -0.149989 13.7782)
(-0.0276354 -0.150105 13.7905)
(-0.0137975 -0.150173 13.8028)
(-2.03962e-05 -0.150331 13.815)
(0.0138322 -0.150342 13.8269)
(0.027888 -0.150049 13.8389)
(0.0416645 -0.149304 13.8516)
(0.058533 -0.146081 13.8608)
(-0.127108 -0.133098 13.72)
(-0.111089 -0.136407 13.7307)
(-0.0971624 -0.135972 13.7435)
(-0.0831877 -0.136629 13.7558)
(-0.0693432 -0.13653 13.7683)
(-0.0554294 -0.1367 13.7806)
(-0.0414827 -0.136685 13.7929)
(-0.0275502 -0.13662 13.8052)
(-0.0135932 -0.136388 13.8175)
(0.00029579 -0.136073 13.8295)
(0.0143487 -0.135639 13.8413)
(0.0283722 -0.134826 13.8532)
(0.0428623 -0.134416 13.865)
(0.058793 -0.130482 13.8749)
(-0.126104 -0.119986 13.7331)
(-0.111702 -0.123217 13.7456)
(-0.097028 -0.122124 13.7576)
(-0.0834321 -0.122851 13.7704)
(-0.0693713 -0.122899 13.7828)
(-0.055506 -0.123202 13.7953)
(-0.0414294 -0.123232 13.8077)
(-0.027409 -0.123131 13.82)
(-0.0132941 -0.122775 13.8323)
(0.000716003 -0.122167 13.8444)
(0.0150071 -0.121497 13.8561)
(0.0289373 -0.12032 13.868)
(0.0443227 -0.120359 13.8789)
(0.0590423 -0.115728 13.8901)
(-0.125813 -0.106271 13.7462)
(-0.112984 -0.109238 13.7601)
(-0.0977117 -0.107948 13.7714)
(-0.0842048 -0.108633 13.7846)
(-0.0697828 -0.108858 13.7969)
(-0.0557496 -0.109238 13.8097)
(-0.0414101 -0.109277 13.822)
(-0.027159 -0.109067 13.8344)
(-0.0127363 -0.108499 13.8465)
(0.00157235 -0.107512 13.8586)
(0.0163312 -0.106524 13.87)
(0.0302647 -0.1051 13.8822)
(0.0467226 -0.105403 13.892)
(0.0598994 -0.100217 13.9048)
(-0.125699 -0.0912293 13.7589)
(-0.114274 -0.0940767 13.7739)
(-0.0985295 -0.0932991 13.785)
(-0.0851059 -0.0941537 13.7986)
(-0.0703015 -0.0946556 13.811)
(-0.0560261 -0.0951609 13.824)
(-0.0413048 -0.0952573 13.8364)
(-0.0266817 -0.0950568 13.8488)
(-0.0118457 -0.0944286 13.861)
(0.00279403 -0.0932643 13.8731)
(0.018012 -0.0919401 13.8843)
(0.0320278 -0.0902381 13.8966)
(0.0494091 -0.0901847 13.9054)
(0.0613935 -0.0841041 13.9191)
(-0.126548 -0.0767247 13.7729)
(-0.116097 -0.0790848 13.7885)
(-0.0998605 -0.0787356 13.7988)
(-0.0861951 -0.0794388 13.8125)
(-0.0708489 -0.0800617 13.8248)
(-0.0562208 -0.0805629 13.8379)
(-0.0411852 -0.0806507 13.8503)