/*--------------------------------*- C++ -*----------------------------------*\
| =========                 |                                                 |
| \\      /  F ield         | OpenFOAM: The Open Source CFD Toolbox           |
|  \\    /   O peration     | Version:  v2106                                 |
|   \\  /    A nd           | Website:  www.openfoam.com                      |
|    \\/     M anipulation  |                                                 |
\*---------------------------------------------------------------------------*/
FoamFile
{
    version     2.0;
    format      ascii;
    arch        "LSB;label=32;scalar=64";
    class       volScalarField;
    location    "0.00017";
    object      k;
}
// * * * * * * * * * * * * * * * * * * * * * * * * * * * * * * * * * * * * * //

dimensions      [0 2 -2 0 0 0 0];

internalField   nonuniform List<scalar> 
17924
(
2.61745e-12
2.61742e-12
2.61735e-12
2.61722e-12
2.61737e-12
2.61734e-12
2.61724e-12
2.61711e-12
2.61693e-12
2.61674e-12
2.61652e-12
2.61725e-12
2.61718e-12
2.61706e-12
2.6169e-12
2.61671e-12
2.61651e-12
2.61629e-12
2.61712e-12
2.61702e-12
2.61686e-12
2.61668e-12
2.61649e-12
2.61628e-12
2.61606e-12
2.61696e-12
2.61682e-12
2.61664e-12
2.61647e-12
2.61627e-12
2.61606e-12
2.61583e-12
2.61677e-12
2.61661e-12
2.61643e-12
2.61625e-12
2.61605e-12
2.61583e-12
2.6156e-12
2.61659e-12
2.61641e-12
2.61622e-12
2.61604e-12
2.61583e-12
2.6156e-12
2.61536e-12
2.6164e-12
2.61621e-12
2.61602e-12
2.61582e-12
2.61561e-12
2.61537e-12
2.61512e-12
2.6162e-12
2.61599e-12
2.6158e-12
2.61559e-12
2.61536e-12
2.61512e-12
2.61486e-12
2.61601e-12
2.61579e-12
2.61559e-12
2.61536e-12
2.61512e-12
2.61486e-12
2.61459e-12
2.6158e-12
2.61556e-12
2.61534e-12
2.6151e-12
2.61484e-12
2.61458e-12
2.61429e-12
2.61559e-12
2.61533e-12
2.6151e-12
2.61484e-12
2.61457e-12
2.61428e-12
2.61399e-12
2.61532e-12
2.61505e-12
2.61481e-12
2.61454e-12
2.61425e-12
2.61395e-12
2.61365e-12
2.61503e-12
2.61476e-12
2.61451e-12
2.61423e-12
2.61393e-12
2.61362e-12
2.61329e-12
2.61463e-12
2.61439e-12
2.61414e-12
2.61386e-12
2.61356e-12
2.61324e-12
2.61292e-12
2.61642e-12
2.61633e-12
2.61618e-12
2.61602e-12
2.61583e-12
2.61564e-12
2.61544e-12
2.61522e-12
2.61499e-12
2.61474e-12
2.61446e-12
2.61416e-12
2.61384e-12
2.61344e-12
2.61621e-12
2.61609e-12
2.61591e-12
2.61572e-12
2.61552e-12
2.61531e-12
2.61509e-12
2.61485e-12
2.6146e-12
2.61433e-12
2.61405e-12
2.61374e-12
2.61341e-12
2.61305e-12
2.61596e-12
2.61581e-12
2.61561e-12
2.6154e-12
2.61519e-12
2.61497e-12
2.61474e-12
2.6145e-12
2.61424e-12
2.61397e-12
2.61368e-12
2.61336e-12
2.61305e-12
2.61272e-12
2.61569e-12
2.61551e-12
2.61529e-12
2.61508e-12
2.61485e-12
2.61462e-12
2.61438e-12
2.61413e-12
2.61385e-12
2.61357e-12
2.61327e-12
2.61295e-12
2.61264e-12
2.61231e-12
2.61537e-12
2.61518e-12
2.61496e-12
2.61474e-12
2.61451e-12
2.61427e-12
2.61402e-12
2.61375e-12
2.61347e-12
2.61318e-12
2.61288e-12
2.61256e-12
2.61224e-12
2.61192e-12
2.61505e-12
2.61485e-12
2.61462e-12
2.61439e-12
2.61415e-12
2.6139e-12
2.61364e-12
2.61336e-12
2.61308e-12
2.61278e-12
2.61248e-12
2.61216e-12
2.61184e-12
2.61151e-12
2.61473e-12
2.61451e-12
2.61428e-12
2.61404e-12
2.61378e-12
2.61352e-12
2.61325e-12
2.61297e-12
2.61268e-12
2.61238e-12
2.61208e-12
2.61177e-12
2.61145e-12
2.61114e-12
2.61437e-12
2.61413e-12
2.6139e-12
2.61365e-12
2.61339e-12
2.61312e-12
2.61284e-12
2.61256e-12
2.61226e-12
2.61196e-12
2.61166e-12
2.61135e-12
2.61104e-12
2.61074e-12
2.614e-12
2.61376e-12
2.61352e-12
2.61326e-12
2.61299e-12
2.61271e-12
2.61243e-12
2.61213e-12
2.61183e-12
2.61153e-12
2.61123e-12
2.61094e-12
2.61063e-12
2.61036e-12
2.61361e-12
2.61335e-12
2.6131e-12
2.61283e-12
2.61256e-12
2.61227e-12
2.61199e-12
2.61169e-12
2.61139e-12
2.61109e-12
2.61079e-12
2.61051e-12
2.61021e-12
2.60997e-12
2.61321e-12
2.61293e-12
2.61268e-12
2.6124e-12
2.61212e-12
2.61183e-12
2.61153e-12
2.61123e-12
2.61093e-12
2.61063e-12
2.61034e-12
2.61006e-12
2.60978e-12
2.60957e-12
2.61275e-12
2.61247e-12
2.61221e-12
2.61193e-12
2.61164e-12
2.61135e-12
2.61105e-12
2.61075e-12
2.61045e-12
2.61016e-12
2.60987e-12
2.60961e-12
2.60934e-12
2.60915e-12
2.6123e-12
2.61201e-12
2.61176e-12
2.61146e-12
2.61117e-12
2.61086e-12
2.61056e-12
2.61025e-12
2.60995e-12
2.60966e-12
2.60937e-12
2.60912e-12
2.60886e-12
2.60867e-12
2.61171e-12
2.61147e-12
2.61121e-12
2.61093e-12
2.61064e-12
2.61034e-12
2.61005e-12
2.60976e-12
2.60946e-12
2.60918e-12
2.6089e-12
2.60864e-12
2.60838e-12
2.60818e-12
2.61453e-12
2.61438e-12
2.61419e-12
2.614e-12
2.61382e-12
2.61365e-12
2.61348e-12
2.61331e-12
2.61314e-12
2.61297e-12
2.6128e-12
2.61261e-12
2.61241e-12
2.61218e-12
2.6142e-12
2.61405e-12
2.61383e-12
2.61363e-12
2.61343e-12
2.61324e-12
2.61305e-12
2.61286e-12
2.61267e-12
2.61248e-12
2.61229e-12
2.61209e-12
2.61189e-12
2.61166e-12
2.61384e-12
2.61366e-12
2.61343e-12
2.61322e-12
2.61301e-12
2.61281e-12
2.61261e-12
2.61241e-12
2.61221e-12
2.61202e-12
2.61182e-12
2.61162e-12
2.61142e-12
2.61119e-12
2.61346e-12
2.61326e-12
2.61302e-12
2.6128e-12
2.61258e-12
2.61237e-12
2.61216e-12
2.61195e-12
2.61174e-12
2.61153e-12
2.61132e-12
2.61111e-12
2.61091e-12
2.61069e-12
2.61305e-12
2.61284e-12
2.6126e-12
2.61237e-12
2.61214e-12
2.61192e-12
2.6117e-12
2.61148e-12
2.61127e-12
2.61106e-12
2.61085e-12
2.61064e-12
2.61043e-12
2.61022e-12
2.61263e-12
2.6124e-12
2.61216e-12
2.61193e-12
2.6117e-12
2.61147e-12
2.61124e-12
2.61101e-12
2.61079e-12
2.61058e-12
2.61037e-12
2.61016e-12
2.60994e-12
2.60974e-12
2.61219e-12
2.61196e-12
2.61172e-12
2.61148e-12
2.61124e-12
2.611e-12
2.61077e-12
2.61054e-12
2.61032e-12
2.61011e-12
2.6099e-12
2.60969e-12
2.60948e-12
2.60929e-12
2.61173e-12
2.61149e-12
2.61125e-12
2.61101e-12
2.61077e-12
2.61053e-12
2.6103e-12
2.61007e-12
2.60985e-12
2.60963e-12
2.60942e-12
2.60922e-12
2.60902e-12
2.60884e-12
2.61127e-12
2.61102e-12
2.61078e-12
2.61053e-12
2.61029e-12
2.61005e-12
2.60982e-12
2.60959e-12
2.60937e-12
2.60916e-12
2.60896e-12
2.60876e-12
2.60857e-12
2.60841e-12
2.61077e-12
2.61052e-12
2.61028e-12
2.61004e-12
2.6098e-12
2.60956e-12
2.60933e-12
2.60911e-12
2.60889e-12
2.60869e-12
2.60849e-12
2.60831e-12
2.60812e-12
2.60799e-12
2.61029e-12
2.61002e-12
2.60979e-12
2.60955e-12
2.60931e-12
2.60907e-12
2.60884e-12
2.60862e-12
2.60841e-12
2.60821e-12
2.60803e-12
2.60786e-12
2.60769e-12
2.60759e-12
2.60976e-12
2.6095e-12
2.60927e-12
2.60903e-12
2.6088e-12
2.60857e-12
2.60834e-12
2.60813e-12
2.60792e-12
2.60774e-12
2.60756e-12
2.60741e-12
2.60725e-12
2.60718e-12
2.60926e-12
2.609e-12
2.60878e-12
2.60853e-12
2.6083e-12
2.60807e-12
2.60784e-12
2.60763e-12
2.60743e-12
2.60725e-12
2.60709e-12
2.60696e-12
2.60682e-12
2.60676e-12
2.60863e-12
2.60842e-12
2.6082e-12
2.60798e-12
2.60776e-12
2.60755e-12
2.60734e-12
2.60715e-12
2.60696e-12
2.60679e-12
2.60663e-12
2.6065e-12
2.60637e-12
2.60633e-12
2.61187e-12
2.61171e-12
2.61152e-12
2.61136e-12
2.61122e-12
2.61109e-12
2.61097e-12
2.61087e-12
2.61079e-12
2.61071e-12
2.61065e-12
2.61059e-12
2.61055e-12
2.61047e-12
2.61145e-12
2.61131e-12
2.61111e-12
2.61094e-12
2.61078e-12
2.61064e-12
2.61052e-12
2.6104e-12
2.6103e-12
2.61021e-12
2.61013e-12
2.61006e-12
2.61002e-12
2.60992e-12
2.61102e-12
2.61086e-12
2.61066e-12
2.61049e-12
2.61032e-12
2.61018e-12
2.61005e-12
2.60993e-12
2.60983e-12
2.60973e-12
2.60965e-12
2.60958e-12
2.60953e-12
2.60943e-12
2.61057e-12
2.61041e-12
2.61021e-12
2.61004e-12
2.60987e-12
2.60972e-12
2.60958e-12
2.60946e-12
2.60935e-12
2.60924e-12
2.60916e-12
2.60908e-12
2.60902e-12
2.60893e-12
2.61012e-12
2.60995e-12
2.60975e-12
2.60957e-12
2.6094e-12
2.60925e-12
2.60911e-12
2.60898e-12
2.60887e-12
2.60877e-12
2.60868e-12
2.6086e-12
2.60854e-12
2.60846e-12
2.60967e-12
2.60948e-12
2.60929e-12
2.60911e-12
2.60894e-12
2.60879e-12
2.60864e-12
2.60852e-12
2.6084e-12
2.6083e-12
2.60822e-12
2.60814e-12
2.60807e-12
2.608e-12
2.60921e-12
2.60902e-12
2.60883e-12
2.60865e-12
2.60848e-12
2.60832e-12
2.60818e-12
2.60806e-12
2.60795e-12
2.60785e-12
2.60777e-12
2.60769e-12
2.60762e-12
2.60756e-12
2.60874e-12
2.60855e-12
2.60836e-12
2.60818e-12
2.60802e-12
2.60787e-12
2.60773e-12
2.60761e-12
2.6075e-12
2.6074e-12
2.60732e-12
2.60725e-12
2.60719e-12
2.60714e-12
2.60828e-12
2.60808e-12
2.6079e-12
2.60773e-12
2.60757e-12
2.60742e-12
2.60728e-12
2.60717e-12
2.60706e-12
2.60698e-12
2.6069e-12
2.60684e-12
2.60678e-12
2.60675e-12
2.60781e-12
2.6076e-12
2.60743e-12
2.60727e-12
2.60711e-12
2.60697e-12
2.60685e-12
2.60673e-12
2.60664e-12
2.60656e-12
2.60648e-12
2.60643e-12
2.60637e-12
2.60637e-12
2.60736e-12
2.60715e-12
2.60698e-12
2.60682e-12
2.60668e-12
2.60654e-12
2.60642e-12
2.60631e-12
2.60623e-12
2.60615e-12
2.60609e-12
2.60604e-12
2.606e-12
2.60601e-12
2.60688e-12
2.60668e-12
2.60653e-12
2.60637e-12
2.60624e-12
2.60611e-12
2.606e-12
2.6059e-12
2.60582e-12
2.60576e-12
2.60571e-12
2.60567e-12
2.60563e-12
2.60565e-12
2.60644e-12
2.60625e-12
2.6061e-12
2.60595e-12
2.60581e-12
2.60569e-12
2.60559e-12
2.6055e-12
2.60543e-12
2.60537e-12
2.60533e-12
2.60531e-12
2.60529e-12
2.60532e-12
2.60591e-12
2.60577e-12
2.60563e-12
2.6055e-12
2.60538e-12
2.60528e-12
2.60519e-12
2.60511e-12
2.60506e-12
2.60501e-12
2.60498e-12
2.60496e-12
2.60494e-12
2.60497e-12
2.60869e-12
2.60858e-12
2.60846e-12
2.60838e-12
2.6083e-12
2.60825e-12
2.6082e-12
2.60818e-12
2.60817e-12
2.60818e-12
2.60821e-12
2.60825e-12
2.60834e-12
2.60839e-12
2.60826e-12
2.60818e-12
2.60806e-12
2.60798e-12
2.60791e-12
2.60785e-12
2.6078e-12
2.60777e-12
2.60776e-12
2.60776e-12
2.60779e-12
2.60782e-12
2.6079e-12
2.60792e-12
2.60784e-12
2.60777e-12
2.60765e-12
2.60757e-12
2.6075e-12
2.60744e-12
2.60739e-12
2.60736e-12
2.60735e-12
2.60736e-12
2.60738e-12
2.60741e-12
2.60749e-12
2.6075e-12
2.60743e-12
2.60735e-12
2.60724e-12
2.60717e-12
2.60709e-12
2.60703e-12
2.60698e-12
2.60696e-12
2.60695e-12
2.60695e-12
2.60698e-12
2.607e-12
2.60707e-12
2.60708e-12
2.60703e-12
2.60694e-12
2.60684e-12
2.60676e-12
2.60669e-12
2.60663e-12
2.60659e-12
2.60656e-12
2.60655e-12
2.60656e-12
2.60658e-12
2.60662e-12
2.60667e-12
2.6067e-12
2.60663e-12
2.60654e-12
2.60644e-12
2.60636e-12
2.60629e-12
2.60624e-12
2.6062e-12
2.60618e-12
2.60617e-12
2.60618e-12
2.6062e-12
2.60624e-12
2.60628e-12
2.60632e-12
2.60625e-12
2.60614e-12
2.60605e-12
2.60598e-12
2.60591e-12
2.60586e-12
2.60583e-12
2.60581e-12
2.6058e-12
2.60582e-12
2.60584e-12
2.60588e-12
2.60592e-12
2.60597e-12
2.60586e-12
2.60576e-12
2.60567e-12
2.6056e-12
2.60554e-12
2.6055e-12
2.60547e-12
2.60545e-12
2.60545e-12
2.60546e-12
2.60549e-12
2.60553e-12
2.60557e-12
2.60563e-12
2.6055e-12
2.60539e-12
2.60531e-12
2.60524e-12
2.60518e-12
2.60515e-12
2.60512e-12
2.60511e-12
2.60512e-12
2.60513e-12
2.60516e-12
2.6052e-12
2.60524e-12
2.60531e-12
2.60513e-12
2.60502e-12
2.60495e-12
2.60488e-12
2.60484e-12
2.6048e-12
2.60479e-12
2.60478e-12
2.60479e-12
2.60481e-12
2.60484e-12
2.60489e-12
2.60493e-12
2.605e-12
2.60479e-12
2.60467e-12
2.6046e-12
2.60455e-12
2.60451e-12
2.60448e-12
2.60447e-12
2.60447e-12
2.60449e-12
2.60451e-12
2.60455e-12
2.6046e-12
2.60465e-12
2.60473e-12
2.60444e-12
2.60432e-12
2.60427e-12
2.60422e-12
2.60419e-12
2.60417e-12
2.60416e-12
2.60417e-12
2.60419e-12
2.60423e-12
2.60427e-12
2.60433e-12
2.60438e-12
2.60446e-12
2.60412e-12
2.60401e-12
2.60396e-12
2.60391e-12
2.60388e-12
2.60387e-12
2.60387e-12
2.60389e-12
2.60392e-12
2.60396e-12
2.60401e-12
2.60408e-12
2.60414e-12
2.60423e-12
2.60376e-12
2.60368e-12
2.60363e-12
2.6036e-12
2.60359e-12
2.60359e-12
2.6036e-12
2.60363e-12
2.60367e-12
2.60372e-12
2.60377e-12
2.60384e-12
2.6039e-12
2.60399e-12
2.60517e-12
2.60517e-12
2.60516e-12
2.60517e-12
2.60519e-12
2.60522e-12
2.60525e-12
2.6053e-12
2.60536e-12
2.60544e-12
2.60553e-12
2.60564e-12
2.60578e-12
2.60591e-12
2.60485e-12
2.60487e-12
2.60487e-12
2.60488e-12
2.60491e-12
2.60494e-12
2.60498e-12
2.60503e-12
2.60509e-12
2.60517e-12
2.60526e-12
2.60536e-12
2.60549e-12
2.60559e-12
2.60457e-12
2.60458e-12
2.60457e-12
2.6046e-12
2.60462e-12
2.60466e-12
2.6047e-12
2.60475e-12
2.60482e-12
2.6049e-12
2.60499e-12
2.6051e-12
2.60523e-12
2.60532e-12
2.60428e-12
2.60429e-12
2.60429e-12
2.60432e-12
2.60435e-12
2.60438e-12
2.60443e-12
2.60449e-12
2.60456e-12
2.60464e-12
2.60473e-12
2.60483e-12
2.60495e-12
2.60505e-12
2.604e-12
2.60402e-12
2.60402e-12
2.60405e-12
2.60408e-12
2.60412e-12
2.60417e-12
2.60423e-12
2.6043e-12
2.60438e-12
2.60448e-12
2.60458e-12
2.6047e-12
2.60481e-12
2.60374e-12
2.60375e-12
2.60376e-12
2.60379e-12
2.60382e-12
2.60386e-12
2.60391e-12
2.60398e-12
2.60405e-12
2.60413e-12
2.60423e-12
2.60433e-12
2.60444e-12
2.60456e-12
2.60348e-12
2.60349e-12
2.6035e-12
2.60353e-12
2.60357e-12
2.60361e-12
2.60367e-12
2.60373e-12
2.60381e-12
2.6039e-12
2.60399e-12
2.6041e-12
2.6042e-12
2.60432e-12
2.60323e-12
2.60324e-12
2.60326e-12
2.60329e-12
2.60333e-12
2.60338e-12
2.60344e-12
2.6035e-12
2.60358e-12
2.60367e-12
2.60376e-12
2.60386e-12
2.60396e-12
2.60408e-12
2.60299e-12
2.60299e-12
2.60302e-12
2.60305e-12
2.6031e-12
2.60315e-12
2.60321e-12
2.60328e-12
2.60336e-12
2.60345e-12
2.60354e-12
2.60365e-12
2.60374e-12
2.60386e-12
2.60276e-12
2.60276e-12
2.60279e-12
2.60282e-12
2.60288e-12
2.60293e-12
2.603e-12
2.60308e-12
2.60316e-12
2.60324e-12
2.60334e-12
2.60344e-12
2.60353e-12
2.60365e-12
2.60255e-12
2.60254e-12
2.60257e-12
2.60261e-12
2.60267e-12
2.60273e-12
2.6028e-12
2.60288e-12
2.60296e-12
2.60305e-12
2.60315e-12
2.60325e-12
2.60335e-12
2.60347e-12
2.60234e-12
2.60233e-12
2.60237e-12
2.60241e-12
2.60247e-12
2.60254e-12
2.60261e-12
2.60269e-12
2.60278e-12
2.60287e-12
2.60297e-12
2.60307e-12
2.60317e-12
2.60329e-12
2.60215e-12
2.60214e-12
2.60219e-12
2.60223e-12
2.60229e-12
2.60236e-12
2.60244e-12
2.60253e-12
2.60262e-12
2.60272e-12
2.60281e-12
2.60292e-12
2.60303e-12
2.60314e-12
2.60195e-12
2.60195e-12
2.602e-12
2.60206e-12
2.60213e-12
2.6022e-12
2.60228e-12
2.60238e-12
2.60247e-12
2.60257e-12
2.60267e-12
2.60278e-12
2.60288e-12
2.60299e-12
2.60142e-12
2.60152e-12
2.6016e-12
2.60171e-12
2.60181e-12
2.60191e-12
2.60201e-12
2.60211e-12
2.60222e-12
2.60234e-12
2.60246e-12
2.60258e-12
2.60272e-12
2.60287e-12
2.60127e-12
2.60138e-12
2.60148e-12
2.60159e-12
2.60169e-12
2.6018e-12
2.6019e-12
2.60201e-12
2.60212e-12
2.60224e-12
2.60236e-12
2.6025e-12
2.60264e-12
2.60277e-12
2.60116e-12
2.60127e-12
2.60136e-12
2.60147e-12
2.60157e-12
2.60168e-12
2.60179e-12
2.6019e-12
2.60202e-12
2.60214e-12
2.60227e-12
2.60241e-12
2.60255e-12
2.60268e-12
2.60104e-12
2.60116e-12
2.60125e-12
2.60136e-12
2.60146e-12
2.60157e-12
2.60168e-12
2.6018e-12
2.60191e-12
2.60203e-12
2.60216e-12
2.6023e-12
2.60244e-12
2.60258e-12
2.60093e-12
2.60104e-12
2.60113e-12
2.60124e-12
2.60135e-12
2.60146e-12
2.60158e-12
2.60169e-12
2.60181e-12
2.60193e-12
2.60206e-12
2.6022e-12
2.60234e-12
2.60247e-12
2.60082e-12
2.60092e-12
2.60102e-12
2.60113e-12
2.60124e-12
2.60136e-12
2.60147e-12
2.60159e-12
2.60171e-12
2.60183e-12
2.60196e-12
2.60209e-12
2.60222e-12
2.60236e-12
2.60071e-12
2.60081e-12
2.60091e-12
2.60102e-12
2.60114e-12
2.60125e-12
2.60137e-12
2.60149e-12
2.60161e-12
2.60173e-12
2.60186e-12
2.60199e-12
2.60211e-12
2.60225e-12
2.6006e-12
2.6007e-12
2.60081e-12
2.60092e-12
2.60103e-12
2.60115e-12
2.60127e-12
2.60139e-12
2.60151e-12
2.60163e-12
2.60175e-12
2.60188e-12
2.602e-12
2.60214e-12
2.6005e-12
2.6006e-12
2.6007e-12
2.60082e-12
2.60093e-12
2.60105e-12
2.60117e-12
2.60129e-12
2.60141e-12
2.60153e-12
2.60165e-12
2.60178e-12
2.6019e-12
2.60204e-12
2.6004e-12
2.60049e-12
2.6006e-12
2.60072e-12
2.60083e-12
2.60095e-12
2.60107e-12
2.60119e-12
2.60131e-12
2.60143e-12
2.60155e-12
2.60168e-12
2.6018e-12
2.60193e-12
2.60032e-12
2.60041e-12
2.60052e-12
2.60063e-12
2.60074e-12
2.60086e-12
2.60098e-12
2.6011e-12
2.60122e-12
2.60134e-12
2.60146e-12
2.60159e-12
2.60171e-12
2.60184e-12
2.60023e-12
2.60032e-12
2.60044e-12
2.60055e-12
2.60066e-12
2.60078e-12
2.6009e-12
2.60102e-12
2.60114e-12
2.60126e-12
2.60138e-12
2.6015e-12
2.60162e-12
2.60175e-12
2.60016e-12
2.60025e-12
2.60037e-12
2.60048e-12
2.60059e-12
2.60071e-12
2.60083e-12
2.60095e-12
2.60107e-12
2.60119e-12
2.60131e-12
2.60144e-12
2.60156e-12
2.60168e-12
2.60009e-12
2.60018e-12
2.6003e-12
2.60041e-12
2.60053e-12
2.60065e-12
2.60077e-12
2.60089e-12
2.60101e-12
2.60113e-12
2.60125e-12
2.60136e-12
2.60148e-12
2.6016e-12
2.59739e-12
2.59754e-12
2.59769e-12
2.59783e-12
2.59798e-12
2.59811e-12
2.59825e-12
2.59838e-12
2.59851e-12
2.59863e-12
2.59876e-12
2.59888e-12
2.59901e-12
2.59913e-12
2.5974e-12
2.59755e-12
2.59771e-12
2.59786e-12
2.59801e-12
2.59816e-12
2.5983e-12
2.59844e-12
2.59857e-12
2.5987e-12
2.59882e-12
2.59895e-12
2.59907e-12
2.59919e-12
2.59744e-12
2.5976e-12
2.59775e-12
2.59791e-12
2.59806e-12
2.59821e-12
2.59835e-12
2.59849e-12
2.59862e-12
2.59875e-12
2.59888e-12
2.599e-12
2.59913e-12
2.59925e-12
2.59748e-12
2.59763e-12
2.59779e-12
2.59795e-12
2.5981e-12
2.59825e-12
2.5984e-12
2.59853e-12
2.59867e-12
2.5988e-12
2.59893e-12
2.59906e-12
2.59919e-12
2.59931e-12
2.59752e-12
2.59767e-12
2.59783e-12
2.59799e-12
2.59814e-12
2.59829e-12
2.59843e-12
2.59857e-12
2.59871e-12
2.59884e-12
2.59897e-12
2.5991e-12
2.59922e-12
2.59935e-12
2.59754e-12
2.5977e-12
2.59786e-12
2.59801e-12
2.59817e-12
2.59832e-12
2.59846e-12
2.59861e-12
2.59874e-12
2.59887e-12
2.599e-12
2.59913e-12
2.59925e-12
2.59938e-12
2.59757e-12
2.59773e-12
2.59788e-12
2.59804e-12
2.59819e-12
2.59834e-12
2.59849e-12
2.59863e-12
2.59876e-12
2.5989e-12
2.59902e-12
2.59915e-12
2.59927e-12
2.5994e-12
2.59759e-12
2.59775e-12
2.5979e-12
2.59806e-12
2.59821e-12
2.59836e-12
2.5985e-12
2.59865e-12
2.59878e-12
2.59891e-12
2.59904e-12
2.59917e-12
2.59929e-12
2.59941e-12
2.59761e-12
2.59776e-12
2.59792e-12
2.59807e-12
2.59822e-12
2.59837e-12
2.59852e-12
2.59866e-12
2.59879e-12
2.59892e-12
2.59905e-12
2.59917e-12
2.59929e-12
2.59942e-12
2.59763e-12
2.59778e-12
2.59793e-12
2.59809e-12
2.59824e-12
2.59838e-12
2.59852e-12
2.59866e-12
2.5988e-12
2.59893e-12
2.59905e-12
2.59918e-12
2.5993e-12
2.59942e-12
2.59765e-12
2.5978e-12
2.59795e-12
2.5981e-12
2.59825e-12
2.59839e-12
2.59853e-12
2.59867e-12
2.5988e-12
2.59893e-12
2.59905e-12
2.59918e-12
2.5993e-12
2.59942e-12
2.59767e-12
2.59782e-12
2.59797e-12
2.59812e-12
2.59827e-12
2.59841e-12
2.59854e-12
2.59868e-12
2.59881e-12
2.59893e-12
2.59906e-12
2.59918e-12
2.5993e-12
2.59942e-12
2.5977e-12
2.59785e-12
2.598e-12
2.59815e-12
2.59829e-12
2.59843e-12
2.59856e-12
2.59869e-12
2.59882e-12
2.59894e-12
2.59906e-12
2.59918e-12
2.5993e-12
2.59942e-12
2.59773e-12
2.59788e-12
2.59802e-12
2.59817e-12
2.59831e-12
2.59845e-12
2.59858e-12
2.5987e-12
2.59882e-12
2.59894e-12
2.59906e-12
2.59917e-12
2.59929e-12
2.59941e-12
2.59306e-12
2.5932e-12
2.59335e-12
2.5935e-12
2.59364e-12
2.59378e-12
2.59392e-12
2.59404e-12
2.59416e-12
2.59427e-12
2.59438e-12
2.59448e-12
2.59457e-12
2.59467e-12
2.59318e-12
2.59332e-12
2.59348e-12
2.59364e-12
2.59379e-12
2.59393e-12
2.59407e-12
2.59421e-12
2.59433e-12
2.59444e-12
2.59455e-12
2.59465e-12
2.59474e-12
2.59484e-12
2.59332e-12
2.59347e-12
2.59364e-12
2.59379e-12
2.59395e-12
2.59409e-12
2.59423e-12
2.59436e-12
2.59448e-12
2.5946e-12
2.59471e-12
2.59481e-12
2.5949e-12
2.59499e-12
2.59345e-12
2.59361e-12
2.59378e-12
2.59393e-12
2.59409e-12
2.59424e-12
2.59438e-12
2.59451e-12
2.59464e-12
2.59475e-12
2.59486e-12
2.59496e-12
2.59506e-12
2.59515e-12
2.59359e-12
2.59375e-12
2.59392e-12
2.59407e-12
2.59423e-12
2.59438e-12
2.59452e-12
2.59465e-12
2.59478e-12
2.59489e-12
2.595e-12
2.5951e-12
2.5952e-12
2.59529e-12
2.59371e-12
2.59388e-12
2.59404e-12
2.5942e-12
2.59436e-12
2.5945e-12
2.59465e-12
2.59478e-12
2.59491e-12
2.59502e-12
2.59513e-12
2.59524e-12
2.59534e-12
2.59543e-12
2.59383e-12
2.594e-12
2.59416e-12
2.59432e-12
2.59448e-12
2.59462e-12
2.59476e-12
2.5949e-12
2.59502e-12
2.59514e-12
2.59525e-12
2.59536e-12
2.59545e-12
2.59555e-12
2.59394e-12
2.59411e-12
2.59427e-12
2.59443e-12
2.59459e-12
2.59473e-12
2.59487e-12
2.59501e-12
2.59513e-12
2.59525e-12
2.59536e-12
2.59547e-12
2.59557e-12
2.59566e-12
2.59405e-12
2.59422e-12
2.59438e-12
2.59454e-12
2.59469e-12
2.59484e-12
2.59497e-12
2.59511e-12
2.59523e-12
2.59535e-12
2.59546e-12
2.59557e-12
2.59566e-12
2.59576e-12
2.59415e-12
2.59432e-12
2.59448e-12
2.59464e-12
2.59479e-12
2.59493e-12
2.59507e-12
2.5952e-12
2.59532e-12
2.59544e-12
2.59555e-12
2.59565e-12
2.59575e-12
2.59585e-12
2.59426e-12
2.59442e-12
2.59458e-12
2.59474e-12
2.59488e-12
2.59502e-12
2.59516e-12
2.59528e-12
2.5954e-12
2.59552e-12
2.59563e-12
2.59573e-12
2.59583e-12
2.59593e-12
2.59436e-12
2.59452e-12
2.59467e-12
2.59483e-12
2.59497e-12
2.59511e-12
2.59524e-12
2.59537e-12
2.59548e-12
2.59559e-12
2.5957e-12
2.5958e-12
2.5959e-12
2.596e-12
2.59446e-12
2.59462e-12
2.59477e-12
2.59492e-12
2.59506e-12
2.59519e-12
2.59532e-12
2.59544e-12
2.59555e-12
2.59566e-12
2.59577e-12
2.59587e-12
2.59597e-12
2.59607e-12
2.59456e-12
2.59472e-12
2.59486e-12
2.59501e-12
2.59514e-12
2.59527e-12
2.59539e-12
2.59551e-12
2.59562e-12
2.59572e-12
2.59582e-12
2.59592e-12
2.59602e-12
2.59612e-12
2.58864e-12
2.58874e-12
2.58885e-12
2.58896e-12
2.58907e-12
2.58918e-12
2.58928e-12
2.58937e-12
2.58946e-12
2.58954e-12
2.58961e-12
2.58968e-12
2.58974e-12
2.58981e-12
2.58879e-12
2.5889e-12
2.58902e-12
2.58913e-12
2.58925e-12
2.58936e-12
2.58946e-12
2.58956e-12
2.58965e-12
2.58973e-12
2.58981e-12
2.58987e-12
2.58993e-12
2.59e-12
2.58896e-12
2.58907e-12
2.5892e-12
2.58932e-12
2.58944e-12
2.58955e-12
2.58965e-12
2.58975e-12
2.58984e-12
2.58992e-12
2.58999e-12
2.59006e-12
2.59012e-12
2.59018e-12
2.58913e-12
2.58924e-12
2.58937e-12
2.58949e-12
2.58961e-12
2.58972e-12
2.58983e-12
2.58993e-12
2.59002e-12
2.5901e-12
2.59018e-12
2.59025e-12
2.59031e-12
2.59037e-12
2.58929e-12
2.58941e-12
2.58955e-12
2.58967e-12
2.58979e-12
2.5899e-12
2.59e-12
2.5901e-12
2.5902e-12
2.59028e-12
2.59036e-12
2.59042e-12
2.59049e-12
2.59054e-12
2.58945e-12
2.58958e-12
2.58971e-12
2.58983e-12
2.58995e-12
2.59006e-12
2.59017e-12
2.59027e-12
2.59036e-12
2.59045e-12
2.59053e-12
2.5906e-12
2.59066e-12
2.59072e-12
2.5896e-12
2.58974e-12
2.58987e-12
2.58999e-12
2.59011e-12
2.59023e-12
2.59033e-12
2.59043e-12
2.59053e-12
2.59061e-12
2.59069e-12
2.59076e-12
2.59083e-12
2.59088e-12
2.58975e-12
2.58989e-12
2.59002e-12
2.59015e-12
2.59027e-12
2.59038e-12
2.59049e-12
2.59059e-12
2.59068e-12
2.59077e-12
2.59084e-12
2.59092e-12
2.59098e-12
2.59104e-12
2.5899e-12
2.59004e-12
2.59017e-12
2.5903e-12
2.59041e-12
2.59053e-12
2.59063e-12
2.59073e-12
2.59082e-12
2.59091e-12
2.59099e-12
2.59106e-12
2.59113e-12
2.59119e-12
2.59005e-12
2.59019e-12
2.59031e-12
2.59044e-12
2.59056e-12
2.59067e-12
2.59077e-12
2.59087e-12
2.59096e-12
2.59105e-12
2.59113e-12
2.5912e-12
2.59127e-12
2.59133e-12
2.59019e-12
2.59033e-12
2.59045e-12
2.59058e-12
2.59069e-12
2.5908e-12
2.5909e-12
2.591e-12
2.59109e-12
2.59118e-12
2.59125e-12
2.59132e-12
2.59139e-12
2.59145e-12
2.59033e-12
2.59046e-12
2.59059e-12
2.59071e-12
2.59082e-12
2.59093e-12
2.59103e-12
2.59112e-12
2.59121e-12
2.59129e-12
2.59137e-12
2.59144e-12
2.59151e-12
2.59157e-12
2.59046e-12
2.5906e-12
2.59071e-12
2.59083e-12
2.59094e-12
2.59105e-12
2.59114e-12
2.59123e-12
2.59132e-12
2.5914e-12
2.59147e-12
2.59155e-12
2.59161e-12
2.59168e-12
2.5906e-12
2.59072e-12
2.59084e-12
2.59095e-12
2.59106e-12
2.59116e-12
2.59125e-12
2.59134e-12
2.59142e-12
2.5915e-12
2.59157e-12
2.59164e-12
2.59171e-12
2.59178e-12
2.58442e-12
2.58446e-12
2.58452e-12
2.58458e-12
2.58464e-12
2.58469e-12
2.58475e-12
2.5848e-12
2.58485e-12
2.58489e-12
2.58493e-12
2.58496e-12
2.58499e-12
2.58504e-12
2.58455e-12
2.5846e-12
2.58466e-12
2.58472e-12
2.58478e-12
2.58484e-12
2.5849e-12
2.58495e-12
2.585e-12
2.58504e-12
2.58508e-12
2.58512e-12
2.58514e-12
2.58519e-12
2.58469e-12
2.58474e-12
2.58481e-12
2.58487e-12
2.58494e-12
2.585e-12
2.58505e-12
2.5851e-12
2.58515e-12
2.5852e-12
2.58523e-12
2.58527e-12
2.58529e-12
2.58533e-12
2.58483e-12
2.58488e-12
2.58496e-12
2.58502e-12
2.58509e-12
2.58515e-12
2.5852e-12
2.58526e-12
2.5853e-12
2.58535e-12
2.58539e-12
2.58542e-12
2.58545e-12
2.58548e-12
2.58497e-12
2.58503e-12
2.5851e-12
2.58517e-12
2.58524e-12
2.5853e-12
2.58535e-12
2.58541e-12
2.58545e-12
2.5855e-12
2.58554e-12
2.58557e-12
2.5856e-12
2.58563e-12
2.58511e-12
2.58518e-12
2.58525e-12
2.58532e-12
2.58538e-12
2.58544e-12
2.5855e-12
2.58555e-12
2.5856e-12
2.58565e-12
2.58569e-12
2.58572e-12
2.58576e-12
2.58578e-12
2.58524e-12
2.58532e-12
2.58539e-12
2.58546e-12
2.58553e-12
2.58559e-12
2.58565e-12
2.5857e-12
2.58575e-12
2.5858e-12
2.58584e-12
2.58587e-12
2.5859e-12
2.58593e-12
2.58538e-12
2.58546e-12
2.58553e-12
2.58561e-12
2.58567e-12
2.58573e-12
2.58579e-12
2.58585e-12
2.5859e-12
2.58594e-12
2.58598e-12
2.58602e-12
2.58605e-12
2.58607e-12
2.58552e-12
2.5856e-12
2.58567e-12
2.58574e-12
2.58581e-12
2.58587e-12
2.58593e-12
2.58599e-12
2.58604e-12
2.58608e-12
2.58612e-12
2.58616e-12
2.58619e-12
2.58621e-12
2.58565e-12
2.58574e-12
2.58581e-12
2.58588e-12
2.58595e-12
2.58601e-12
2.58607e-12
2.58612e-12
2.58617e-12
2.58622e-12
2.58626e-12
2.58629e-12
2.58632e-12
2.58634e-12
2.58579e-12
2.58587e-12
2.58594e-12
2.58601e-12
2.58608e-12
2.58614e-12
2.5862e-12
2.58625e-12
2.5863e-12
2.58635e-12
2.58638e-12
2.58642e-12
2.58645e-12
2.58647e-12
2.58592e-12
2.586e-12
2.58607e-12
2.58614e-12
2.5862e-12
2.58626e-12
2.58632e-12
2.58637e-12
2.58642e-12
2.58647e-12
2.5865e-12
2.58654e-12
2.58657e-12
2.58659e-12
2.58604e-12
2.58612e-12
2.58619e-12
2.58625e-12
2.58632e-12
2.58638e-12
2.58643e-12
2.58649e-12
2.58653e-12
2.58658e-12
2.58661e-12
2.58665e-12
2.58668e-12
2.58671e-12
2.58617e-12
2.58625e-12
2.58631e-12
2.58637e-12
2.58643e-12
2.58649e-12
2.58654e-12
2.58659e-12
2.58663e-12
2.58667e-12
2.58671e-12
2.58675e-12
2.58678e-12
2.58682e-12
2.5805e-12
2.58051e-12
2.58052e-12
2.58054e-12
2.58056e-12
2.58057e-12
2.58058e-12
2.5806e-12
2.58061e-12
2.58062e-12
2.58063e-12
2.58063e-12
2.58064e-12
2.58066e-12
2.58059e-12
2.5806e-12
2.58062e-12
2.58063e-12
2.58065e-12
2.58066e-12
2.58068e-12
2.58069e-12
2.5807e-12
2.58071e-12
2.58072e-12
2.58073e-12
2.58073e-12
2.58075e-12
2.58068e-12
2.58069e-12
2.58071e-12
2.58073e-12
2.58074e-12
2.58076e-12
2.58077e-12
2.58078e-12
2.58079e-12
2.5808e-12
2.58081e-12
2.58082e-12
2.58082e-12
2.58084e-12
2.58077e-12
2.58078e-12
2.5808e-12
2.58082e-12
2.58084e-12
2.58085e-12
2.58087e-12
2.58088e-12
2.58089e-12
2.5809e-12
2.58091e-12
2.58091e-12
2.58092e-12
2.58093e-12
2.58086e-12
2.58088e-12
2.5809e-12
2.58092e-12
2.58093e-12
2.58095e-12
2.58096e-12
2.58098e-12
2.58099e-12
2.581e-12
2.581e-12
2.58101e-12
2.58101e-12
2.58102e-12
2.58096e-12
2.58097e-12
2.581e-12
2.58101e-12
2.58103e-12
2.58105e-12
2.58106e-12
2.58107e-12
2.58108e-12
2.58109e-12
2.5811e-12
2.58111e-12
2.58111e-12
2.58111e-12
2.58105e-12
2.58107e-12
2.58109e-12
2.58111e-12
2.58113e-12
2.58114e-12
2.58116e-12
2.58117e-12
2.58118e-12
2.58119e-12
2.5812e-12
2.5812e-12
2.5812e-12
2.58121e-12
2.58114e-12
2.58117e-12
2.58119e-12
2.58121e-12
2.58123e-12
2.58124e-12
2.58126e-12
2.58127e-12
2.58128e-12
2.58129e-12
2.58129e-12
2.5813e-12
2.5813e-12
2.5813e-12
2.58124e-12
2.58126e-12
2.58128e-12
2.5813e-12
2.58132e-12
2.58134e-12
2.58135e-12
2.58136e-12
2.58138e-12
2.58138e-12
2.58139e-12
2.58139e-12
2.5814e-12
2.58139e-12
2.58133e-12
2.58136e-12
2.58138e-12
2.5814e-12
2.58142e-12
2.58143e-12
2.58145e-12
2.58146e-12
2.58147e-12
2.58148e-12
2.58148e-12
2.58149e-12
2.58149e-12
2.58148e-12
2.58142e-12
2.58145e-12
2.58147e-12
2.58149e-12
2.58151e-12
2.58152e-12
2.58154e-12
2.58155e-12
2.58156e-12
2.58157e-12
2.58157e-12
2.58158e-12
2.58158e-12
2.58157e-12
2.5815e-12
2.58153e-12
2.58155e-12
2.58157e-12
2.58159e-12
2.58161e-12
2.58162e-12
2.58164e-12
2.58165e-12
2.58166e-12
2.58166e-12
2.58166e-12
2.58167e-12
2.58166e-12
2.58159e-12
2.58162e-12
2.58164e-12
2.58166e-12
2.58167e-12
2.58169e-12
2.58171e-12
2.58172e-12
2.58173e-12
2.58174e-12
2.58174e-12
2.58175e-12
2.58175e-12
2.58174e-12
2.58168e-12
2.5817e-12
2.58172e-12
2.58173e-12
2.58175e-12
2.58177e-12
2.58178e-12
2.5818e-12
2.58181e-12
2.58181e-12
2.58182e-12
2.58182e-12
2.58183e-12
2.58183e-12
2.57683e-12
2.57682e-12
2.57682e-12
2.57681e-12
2.5768e-12
2.57679e-12
2.57678e-12
2.57677e-12
2.57676e-12
2.57675e-12
2.57674e-12
2.57672e-12
2.57671e-12
2.5767e-12
2.57688e-12
2.57687e-12
2.57686e-12
2.57686e-12
2.57685e-12
2.57684e-12
2.57683e-12
2.57681e-12
2.5768e-12
2.57679e-12
2.57678e-12
2.57677e-12
2.57675e-12
2.57674e-12
2.57692e-12
2.57692e-12
2.57691e-12
2.5769e-12
2.57689e-12
2.57688e-12
2.57687e-12
2.57686e-12
2.57685e-12
2.57683e-12
2.57682e-12
2.57681e-12
2.57679e-12
2.57678e-12
2.57697e-12
2.57696e-12
2.57696e-12
2.57695e-12
2.57694e-12
2.57693e-12
2.57691e-12
2.5769e-12
2.57689e-12
2.57688e-12
2.57686e-12
2.57685e-12
2.57683e-12
2.57682e-12
2.57702e-12
2.57701e-12
2.577e-12
2.57699e-12
2.57698e-12
2.57697e-12
2.57696e-12
2.57695e-12
2.57693e-12
2.57692e-12
2.57691e-12
2.57689e-12
2.57688e-12
2.57686e-12
2.57706e-12
2.57706e-12
2.57705e-12
2.57704e-12
2.57703e-12
2.57702e-12
2.577e-12
2.57699e-12
2.57698e-12
2.57696e-12
2.57695e-12
2.57694e-12
2.57692e-12
2.5769e-12
2.57711e-12
2.5771e-12
2.57709e-12
2.57708e-12
2.57707e-12
2.57706e-12
2.57705e-12
2.57704e-12
2.57702e-12
2.57701e-12
2.57699e-12
2.57698e-12
2.57696e-12
2.57694e-12
2.57716e-12
2.57715e-12
2.57714e-12
2.57713e-12
2.57712e-12
2.57711e-12
2.57709e-12
2.57708e-12
2.57707e-12
2.57705e-12
2.57704e-12
2.57702e-12
2.577e-12
2.57698e-12
2.5772e-12
2.57719e-12
2.57718e-12
2.57717e-12
2.57716e-12
2.57715e-12
2.57714e-12
2.57713e-12
2.57711e-12
2.5771e-12
2.57708e-12
2.57706e-12
2.57705e-12
2.57702e-12
2.57724e-12
2.57723e-12
2.57723e-12
2.57722e-12
2.5772e-12
2.57719e-12
2.57718e-12
2.57717e-12
2.57716e-12
2.57714e-12
2.57713e-12
2.57711e-12
2.57709e-12
2.57706e-12
2.57728e-12
2.57727e-12
2.57726e-12
2.57726e-12
2.57725e-12
2.57723e-12
2.57722e-12
2.57721e-12
2.5772e-12
2.57718e-12
2.57717e-12
2.57715e-12
2.57713e-12
2.5771e-12
2.57731e-12
2.57731e-12
2.5773e-12
2.57729e-12
2.57728e-12
2.57727e-12
2.57726e-12
2.57725e-12
2.57724e-12
2.57722e-12
2.57721e-12
2.57719e-12
2.57717e-12
2.57714e-12
2.57735e-12
2.57734e-12
2.57734e-12
2.57733e-12
2.57732e-12
2.57731e-12
2.5773e-12
2.57729e-12
2.57728e-12
2.57726e-12
2.57725e-12
2.57723e-12
2.57721e-12
2.57718e-12
2.57737e-12
2.57737e-12
2.57736e-12
2.57736e-12
2.57735e-12
2.57734e-12
2.57733e-12
2.57732e-12