/*--------------------------------*- C++ -*----------------------------------*\
| =========                 |                                                 |
| \\      /  F ield         | OpenFOAM: The Open Source CFD Toolbox           |
|  \\    /   O peration     | Version:  v2106                                 |
|   \\  /    A nd           | Website:  www.openfoam.com                      |
|    \\/     M anipulation  |                                                 |
\*---------------------------------------------------------------------------*/
FoamFile
{
    version     2.0;
    format      ascii;
    arch        "LSB;label=32;scalar=64";
    class       volScalarField;
    location    "0.00017";
    object      nut;
}
// * * * * * * * * * * * * * * * * * * * * * * * * * * * * * * * * * * * * * //

dimensions      [0 2 -1 0 0 0 0];

internalField   nonuniform List<scalar> 
17924
(
3.6388e-17
3.63876e-17
3.6387e-17
3.6386e-17
3.63819e-17
3.63816e-17
3.63808e-17
3.63798e-17
3.63784e-17
3.63769e-17
3.63752e-17
3.63809e-17
3.63804e-17
3.63794e-17
3.63781e-17
3.63767e-17
3.63751e-17
3.63733e-17
3.63799e-17
3.6379e-17
3.63778e-17
3.63764e-17
3.63749e-17
3.63733e-17
3.63715e-17
3.63787e-17
3.63775e-17
3.63761e-17
3.63747e-17
3.63731e-17
3.63715e-17
3.63697e-17
3.63772e-17
3.63758e-17
3.63744e-17
3.6373e-17
3.63714e-17
3.63697e-17
3.63679e-17
3.63757e-17
3.63742e-17
3.63728e-17
3.63713e-17
3.63696e-17
3.63679e-17
3.6366e-17
3.63742e-17
3.63726e-17
3.63711e-17
3.63696e-17
3.63679e-17
3.6366e-17
3.63641e-17
3.63726e-17
3.63709e-17
3.63694e-17
3.63677e-17
3.6366e-17
3.6364e-17
3.6362e-17
3.6371e-17
3.63693e-17
3.63677e-17
3.63659e-17
3.6364e-17
3.6362e-17
3.63599e-17
3.63693e-17
3.63674e-17
3.63657e-17
3.63638e-17
3.63618e-17
3.63597e-17
3.63575e-17
3.63676e-17
3.63656e-17
3.63638e-17
3.63618e-17
3.63596e-17
3.63574e-17
3.63551e-17
3.63654e-17
3.63634e-17
3.63614e-17
3.63593e-17
3.63571e-17
3.63548e-17
3.63524e-17
3.63631e-17
3.63611e-17
3.63591e-17
3.63569e-17
3.63546e-17
3.63521e-17
3.63496e-17
3.63599e-17
3.63581e-17
3.63562e-17
3.6354e-17
3.63516e-17
3.63492e-17
3.63467e-17
3.63692e-17
3.63685e-17
3.63673e-17
3.6366e-17
3.63646e-17
3.63631e-17
3.63615e-17
3.63599e-17
3.6358e-17
3.63561e-17
3.6354e-17
3.63516e-17
3.63491e-17
3.6346e-17
3.63675e-17
3.63666e-17
3.63652e-17
3.63637e-17
3.63621e-17
3.63605e-17
3.63588e-17
3.6357e-17
3.6355e-17
3.63529e-17
3.63507e-17
3.63483e-17
3.63458e-17
3.6343e-17
3.63656e-17
3.63644e-17
3.63628e-17
3.63612e-17
3.63595e-17
3.63579e-17
3.63561e-17
3.63542e-17
3.63522e-17
3.63501e-17
3.63478e-17
3.63454e-17
3.63429e-17
3.63403e-17
3.63634e-17
3.6362e-17
3.63603e-17
3.63587e-17
3.63569e-17
3.63551e-17
3.63532e-17
3.63513e-17
3.63492e-17
3.63469e-17
3.63446e-17
3.63421e-17
3.63397e-17
3.63372e-17
3.63609e-17
3.63595e-17
3.63577e-17
3.6356e-17
3.63542e-17
3.63524e-17
3.63504e-17
3.63483e-17
3.63462e-17
3.63439e-17
3.63416e-17
3.63391e-17
3.63366e-17
3.6334e-17
3.63584e-17
3.63568e-17
3.63551e-17
3.63533e-17
3.63514e-17
3.63495e-17
3.63474e-17
3.63453e-17
3.63431e-17
3.63408e-17
3.63384e-17
3.63359e-17
3.63334e-17
3.63309e-17
3.63558e-17
3.63541e-17
3.63523e-17
3.63505e-17
3.63485e-17
3.63465e-17
3.63444e-17
3.63422e-17
3.63399e-17
3.63376e-17
3.63352e-17
3.63328e-17
3.63303e-17
3.63279e-17
3.6353e-17
3.63512e-17
3.63494e-17
3.63475e-17
3.63454e-17
3.63433e-17
3.63412e-17
3.63389e-17
3.63366e-17
3.63343e-17
3.63319e-17
3.63296e-17
3.63271e-17
3.63248e-17
3.63501e-17
3.63482e-17
3.63464e-17
3.63444e-17
3.63423e-17
3.63401e-17
3.63379e-17
3.63356e-17
3.63333e-17
3.6331e-17
3.63286e-17
3.63263e-17
3.63239e-17
3.63218e-17
3.6347e-17
3.6345e-17
3.63431e-17
3.6341e-17
3.63389e-17
3.63367e-17
3.63344e-17
3.63321e-17
3.63298e-17
3.63275e-17
3.63251e-17
3.63229e-17
3.63206e-17
3.63187e-17
3.63439e-17
3.63418e-17
3.63398e-17
3.63376e-17
3.63354e-17
3.63332e-17
3.63309e-17
3.63285e-17
3.63262e-17
3.63239e-17
3.63216e-17
3.63195e-17
3.63173e-17
3.63156e-17
3.63403e-17
3.63381e-17
3.63361e-17
3.63339e-17
3.63317e-17
3.63294e-17
3.63271e-17
3.63248e-17
3.63224e-17
3.63202e-17
3.63179e-17
3.63159e-17
3.63138e-17
3.63123e-17
3.63367e-17
3.63345e-17
3.63325e-17
3.63303e-17
3.63279e-17
3.63256e-17
3.63232e-17
3.63209e-17
3.63185e-17
3.63162e-17
3.6314e-17
3.6312e-17
3.631e-17
3.63086e-17
3.63321e-17
3.63302e-17
3.63282e-17
3.6326e-17
3.63238e-17
3.63215e-17
3.63192e-17
3.63169e-17
3.63147e-17
3.63125e-17
3.63103e-17
3.63083e-17
3.63062e-17
3.63047e-17
3.63493e-17
3.63482e-17
3.63467e-17
3.63453e-17
3.63439e-17
3.63425e-17
3.63412e-17
3.63399e-17
3.63386e-17
3.63373e-17
3.63359e-17
3.63345e-17
3.6333e-17
3.63312e-17
3.63468e-17
3.63456e-17
3.63439e-17
3.63423e-17
3.63408e-17
3.63393e-17
3.63378e-17
3.63364e-17
3.63349e-17
3.63335e-17
3.6332e-17
3.63305e-17
3.63289e-17
3.63271e-17
3.63439e-17
3.63426e-17
3.63407e-17
3.63391e-17
3.63375e-17
3.6336e-17
3.63344e-17
3.63329e-17
3.63314e-17
3.63298e-17
3.63283e-17
3.63268e-17
3.63252e-17
3.63235e-17
3.6341e-17
3.63394e-17
3.63376e-17
3.63359e-17
3.63342e-17
3.63325e-17
3.63309e-17
3.63293e-17
3.63277e-17
3.63261e-17
3.63244e-17
3.63228e-17
3.63213e-17
3.63196e-17
3.63377e-17
3.63361e-17
3.63343e-17
3.63325e-17
3.63308e-17
3.6329e-17
3.63273e-17
3.63257e-17
3.6324e-17
3.63224e-17
3.63207e-17
3.63191e-17
3.63175e-17
3.63158e-17
3.63344e-17
3.63327e-17
3.63309e-17
3.63291e-17
3.63273e-17
3.63255e-17
3.63237e-17
3.6322e-17
3.63203e-17
3.63186e-17
3.6317e-17
3.63153e-17
3.63137e-17
3.63121e-17
3.63311e-17
3.63293e-17
3.63274e-17
3.63255e-17
3.63237e-17
3.63219e-17
3.63201e-17
3.63183e-17
3.63166e-17
3.63149e-17
3.63133e-17
3.63117e-17
3.63101e-17
3.63086e-17
3.63275e-17
3.63256e-17
3.63237e-17
3.63219e-17
3.632e-17
3.63182e-17
3.63163e-17
3.63146e-17
3.63129e-17
3.63112e-17
3.63096e-17
3.63081e-17
3.63065e-17
3.63051e-17
3.63238e-17
3.63219e-17
3.632e-17
3.63181e-17
3.63163e-17
3.63144e-17
3.63126e-17
3.63108e-17
3.63092e-17
3.63075e-17
3.6306e-17
3.63045e-17
3.6303e-17
3.63017e-17
3.632e-17
3.6318e-17
3.63162e-17
3.63143e-17
3.63124e-17
3.63106e-17
3.63088e-17
3.63071e-17
3.63054e-17
3.63038e-17
3.63023e-17
3.63009e-17
3.62995e-17
3.62984e-17
3.63162e-17
3.63141e-17
3.63123e-17
3.63104e-17
3.63086e-17
3.63067e-17
3.6305e-17
3.63033e-17
3.63016e-17
3.63001e-17
3.62987e-17
3.62974e-17
3.62961e-17
3.62953e-17
3.6312e-17
3.631e-17
3.63082e-17
3.63064e-17
3.63046e-17
3.63028e-17
3.63011e-17
3.62994e-17
3.62978e-17
3.62964e-17
3.62951e-17
3.62939e-17
3.62927e-17
3.62921e-17
3.63081e-17
3.63061e-17
3.63044e-17
3.63025e-17
3.63007e-17
3.62989e-17
3.62972e-17
3.62955e-17
3.6294e-17
3.62926e-17
3.62913e-17
3.62903e-17
3.62893e-17
3.62888e-17
3.63032e-17
3.63016e-17
3.62999e-17
3.62982e-17
3.62965e-17
3.62948e-17
3.62933e-17
3.62918e-17
3.62903e-17
3.6289e-17
3.62878e-17
3.62867e-17
3.62858e-17
3.62855e-17
3.63237e-17
3.63224e-17
3.6321e-17
3.63197e-17
3.63186e-17
3.63177e-17
3.63168e-17
3.6316e-17
3.63154e-17
3.63148e-17
3.63143e-17
3.63139e-17
3.63136e-17
3.6313e-17
3.63204e-17
3.63193e-17
3.63178e-17
3.63165e-17
3.63153e-17
3.63142e-17
3.63132e-17
3.63124e-17
3.63116e-17
3.63109e-17
3.63103e-17
3.63098e-17
3.63095e-17
3.63087e-17
3.6317e-17
3.63158e-17
3.63143e-17
3.6313e-17
3.63117e-17
3.63106e-17
3.63096e-17
3.63087e-17
3.63079e-17
3.63072e-17
3.63066e-17
3.6306e-17
3.63056e-17
3.63049e-17
3.63136e-17
3.63123e-17
3.63108e-17
3.63094e-17
3.63081e-17
3.6307e-17
3.6306e-17
3.6305e-17
3.63042e-17
3.63034e-17
3.63027e-17
3.63021e-17
3.63017e-17
3.6301e-17
3.63101e-17
3.63087e-17
3.63072e-17
3.63058e-17
3.63045e-17
3.63034e-17
3.63023e-17
3.63013e-17
3.63005e-17
3.62997e-17
3.6299e-17
3.62984e-17
3.62979e-17
3.62973e-17
3.63065e-17
3.63051e-17
3.63036e-17
3.63022e-17
3.63009e-17
3.62997e-17
3.62987e-17
3.62977e-17
3.62968e-17
3.62961e-17
3.62954e-17
3.62948e-17
3.62943e-17
3.62937e-17
3.6303e-17
3.63015e-17
3.63e-17
3.62986e-17
3.62973e-17
3.62962e-17
3.62951e-17
3.62941e-17
3.62933e-17
3.62925e-17
3.62919e-17
3.62913e-17
3.62908e-17
3.62904e-17
3.62993e-17
3.62978e-17
3.62964e-17
3.6295e-17
3.62938e-17
3.62926e-17
3.62915e-17
3.62906e-17
3.62898e-17
3.62891e-17
3.62885e-17
3.62879e-17
3.62874e-17
3.62871e-17
3.62957e-17
3.62942e-17
3.62928e-17
3.62915e-17
3.62902e-17
3.62891e-17
3.62881e-17
3.62872e-17
3.62864e-17
3.62857e-17
3.62851e-17
3.62847e-17
3.62842e-17
3.6284e-17
3.6292e-17
3.62905e-17
3.62892e-17
3.62879e-17
3.62867e-17
3.62856e-17
3.62847e-17
3.62838e-17
3.62831e-17
3.62825e-17
3.62819e-17
3.62815e-17
3.62811e-17
3.6281e-17
3.62885e-17
3.62869e-17
3.62857e-17
3.62844e-17
3.62833e-17
3.62823e-17
3.62814e-17
3.62805e-17
3.62799e-17
3.62793e-17
3.62788e-17
3.62785e-17
3.62782e-17
3.62783e-17
3.62848e-17
3.62832e-17
3.62821e-17
3.62809e-17
3.62799e-17
3.62789e-17
3.62781e-17
3.62773e-17
3.62767e-17
3.62762e-17
3.62759e-17
3.62756e-17
3.62753e-17
3.62755e-17
3.62813e-17
3.62799e-17
3.62787e-17
3.62776e-17
3.62766e-17
3.62756e-17
3.62749e-17
3.62742e-17
3.62736e-17
3.62732e-17
3.6273e-17
3.62728e-17
3.62727e-17
3.62729e-17
3.62773e-17
3.62762e-17
3.62751e-17
3.62741e-17
3.62732e-17
3.62724e-17
3.62717e-17
3.62712e-17
3.62708e-17
3.62704e-17
3.62702e-17
3.627e-17
3.62699e-17
3.62702e-17
3.62941e-17
3.62933e-17
3.62924e-17
3.62917e-17
3.62912e-17
3.62908e-17
3.62905e-17
3.62903e-17
3.62902e-17
3.62903e-17
3.62906e-17
3.62909e-17
3.62916e-17
3.6292e-17
3.62908e-17
3.62902e-17
3.62893e-17
3.62887e-17
3.62881e-17
3.62877e-17
3.62873e-17
3.62871e-17
3.6287e-17
3.62871e-17
3.62873e-17
3.62876e-17
3.62882e-17
3.62884e-17
3.62876e-17
3.6287e-17
3.62861e-17
3.62855e-17
3.6285e-17
3.62845e-17
3.62842e-17
3.6284e-17
3.62839e-17
3.6284e-17
3.62842e-17
3.62844e-17
3.6285e-17
3.62851e-17
3.62843e-17
3.62838e-17
3.6283e-17
3.62824e-17
3.62818e-17
3.62814e-17
3.6281e-17
3.62808e-17
3.62808e-17
3.62808e-17
3.6281e-17
3.62813e-17
3.62818e-17
3.62819e-17
3.62812e-17
3.62806e-17
3.62798e-17
3.62792e-17
3.62787e-17
3.62783e-17
3.62779e-17
3.62778e-17
3.62777e-17
3.62778e-17
3.6278e-17
3.62783e-17
3.62787e-17
3.62789e-17
3.62782e-17
3.62775e-17
3.62767e-17
3.62762e-17
3.62756e-17
3.62752e-17
3.6275e-17
3.62748e-17
3.62748e-17
3.62749e-17
3.62751e-17
3.62753e-17
3.62757e-17
3.6276e-17
3.62752e-17
3.62744e-17
3.62737e-17
3.62731e-17
3.62727e-17
3.62723e-17
3.62721e-17
3.62719e-17
3.62719e-17
3.6272e-17
3.62722e-17
3.62726e-17
3.62729e-17
3.62733e-17
3.62722e-17
3.62714e-17
3.62708e-17
3.62702e-17
3.62698e-17
3.62695e-17
3.62693e-17
3.62692e-17
3.62692e-17
3.62693e-17
3.62695e-17
3.62699e-17
3.62702e-17
3.62706e-17
3.62694e-17
3.62685e-17
3.62679e-17
3.62674e-17
3.6267e-17
3.62668e-17
3.62666e-17
3.62665e-17
3.62666e-17
3.62667e-17
3.6267e-17
3.62673e-17
3.62676e-17
3.62682e-17
3.62665e-17
3.62657e-17
3.62651e-17
3.62647e-17
3.62643e-17
3.62641e-17
3.6264e-17
3.6264e-17
3.62641e-17
3.62643e-17
3.62645e-17
3.62649e-17
3.62652e-17
3.62658e-17
3.62639e-17
3.6263e-17
3.62625e-17
3.62621e-17
3.62618e-17
3.62616e-17
3.62615e-17
3.62616e-17
3.62617e-17
3.62619e-17
3.62622e-17
3.62627e-17
3.6263e-17
3.62637e-17
3.62611e-17
3.62603e-17
3.62599e-17
3.62595e-17
3.62593e-17
3.62592e-17
3.62592e-17
3.62592e-17
3.62594e-17
3.62597e-17
3.62601e-17
3.62605e-17
3.62609e-17
3.62616e-17
3.62587e-17
3.62578e-17
3.62575e-17
3.62571e-17
3.6257e-17
3.62569e-17
3.62569e-17
3.62571e-17
3.62573e-17
3.62576e-17
3.62581e-17
3.62586e-17
3.62591e-17
3.62598e-17
3.62559e-17
3.62553e-17
3.62549e-17
3.62547e-17
3.62547e-17
3.62547e-17
3.62548e-17
3.62551e-17
3.62554e-17
3.62558e-17
3.62562e-17
3.62567e-17
3.62573e-17
3.62579e-17
3.62622e-17
3.62622e-17
3.62621e-17
3.62622e-17
3.62624e-17
3.62626e-17
3.62629e-17
3.62633e-17
3.62638e-17
3.62644e-17
3.62651e-17
3.6266e-17
3.62671e-17
3.62681e-17
3.62597e-17
3.62598e-17
3.62599e-17
3.626e-17
3.62602e-17
3.62605e-17
3.62608e-17
3.62612e-17
3.62617e-17
3.62623e-17
3.62631e-17
3.62639e-17
3.62649e-17
3.62657e-17
3.62575e-17
3.62576e-17
3.62576e-17
3.62578e-17
3.6258e-17
3.62583e-17
3.62587e-17
3.62591e-17
3.62596e-17
3.62603e-17
3.6261e-17
3.62618e-17
3.62629e-17
3.62636e-17
3.62553e-17
3.62554e-17
3.62554e-17
3.62557e-17
3.62559e-17
3.62562e-17
3.62566e-17
3.62571e-17
3.62576e-17
3.62583e-17
3.6259e-17
3.62598e-17
3.62608e-17
3.62616e-17
3.62532e-17
3.62533e-17
3.62533e-17
3.62536e-17
3.62538e-17
3.62542e-17
3.62546e-17
3.6255e-17
3.62556e-17
3.62563e-17
3.62571e-17
3.62579e-17
3.62588e-17
3.62597e-17
3.62511e-17
3.62512e-17
3.62513e-17
3.62516e-17
3.62518e-17
3.62522e-17
3.62526e-17
3.62531e-17
3.62537e-17
3.62544e-17
3.62552e-17
3.6256e-17
3.62568e-17
3.62577e-17
3.62491e-17
3.62492e-17
3.62494e-17
3.62496e-17
3.62499e-17
3.62503e-17
3.62507e-17
3.62513e-17
3.62519e-17
3.62526e-17
3.62533e-17
3.62542e-17
3.6255e-17
3.62559e-17
3.62472e-17
3.62473e-17
3.62475e-17
3.62477e-17
3.62481e-17
3.62485e-17
3.62489e-17
3.62495e-17
3.62501e-17
3.62508e-17
3.62515e-17
3.62524e-17
3.62532e-17
3.62541e-17
3.62453e-17
3.62454e-17
3.62456e-17
3.62459e-17
3.62463e-17
3.62467e-17
3.62472e-17
3.62478e-17
3.62484e-17
3.62491e-17
3.62499e-17
3.62507e-17
3.62515e-17
3.62524e-17
3.62436e-17
3.62436e-17
3.62438e-17
3.62442e-17
3.62446e-17
3.62451e-17
3.62456e-17
3.62462e-17
3.62468e-17
3.62475e-17
3.62483e-17
3.62491e-17
3.62499e-17
3.62508e-17
3.62419e-17
3.62419e-17
3.62422e-17
3.62425e-17
3.6243e-17
3.62435e-17
3.62441e-17
3.62447e-17
3.62454e-17
3.62461e-17
3.62468e-17
3.62476e-17
3.62484e-17
3.62494e-17
3.62404e-17
3.62403e-17
3.62406e-17
3.6241e-17
3.62415e-17
3.6242e-17
3.62426e-17
3.62433e-17
3.6244e-17
3.62447e-17
3.62455e-17
3.62463e-17
3.62471e-17
3.6248e-17
3.62389e-17
3.62389e-17
3.62392e-17
3.62396e-17
3.62401e-17
3.62407e-17
3.62413e-17
3.6242e-17
3.62427e-17
3.62435e-17
3.62443e-17
3.62451e-17
3.6246e-17
3.62468e-17
3.62373e-17
3.62374e-17
3.62378e-17
3.62383e-17
3.62388e-17
3.62394e-17
3.62401e-17
3.62408e-17
3.62416e-17
3.62424e-17
3.62432e-17
3.6244e-17
3.62448e-17
3.62457e-17
3.62285e-17
3.62293e-17
3.623e-17
3.62308e-17
3.62317e-17
3.62325e-17
3.62333e-17
3.62341e-17
3.6235e-17
3.62359e-17
3.62368e-17
3.62378e-17
3.62389e-17
3.624e-17
3.62275e-17
3.62283e-17
3.62291e-17
3.623e-17
3.62308e-17
3.62316e-17
3.62325e-17
3.62333e-17
3.62342e-17
3.62351e-17
3.62361e-17
3.62372e-17
3.62383e-17
3.62393e-17
3.62266e-17
3.62275e-17
3.62282e-17
3.62291e-17
3.62299e-17
3.62308e-17
3.62316e-17
3.62325e-17
3.62334e-17
3.62344e-17
3.62354e-17
3.62365e-17
3.62376e-17
3.62386e-17
3.62257e-17
3.62266e-17
3.62274e-17
3.62282e-17
3.62291e-17
3.623e-17
3.62308e-17
3.62317e-17
3.62327e-17
3.62336e-17
3.62346e-17
3.62357e-17
3.62368e-17
3.62379e-17
3.62249e-17
3.62257e-17
3.62265e-17
3.62274e-17
3.62282e-17
3.62291e-17
3.623e-17
3.6231e-17
3.62319e-17
3.62329e-17
3.62339e-17
3.62349e-17
3.6236e-17
3.62371e-17
3.6224e-17
3.62249e-17
3.62257e-17
3.62266e-17
3.62274e-17
3.62283e-17
3.62293e-17
3.62302e-17
3.62311e-17
3.62321e-17
3.62331e-17
3.62341e-17
3.62352e-17
3.62363e-17
3.62232e-17
3.6224e-17
3.62249e-17
3.62257e-17
3.62266e-17
3.62275e-17
3.62285e-17
3.62294e-17
3.62304e-17
3.62313e-17
3.62323e-17
3.62333e-17
3.62344e-17
3.62354e-17
3.62224e-17
3.62232e-17
3.62241e-17
3.62249e-17
3.62258e-17
3.62268e-17
3.62277e-17
3.62287e-17
3.62296e-17
3.62306e-17
3.62315e-17
3.62326e-17
3.62335e-17
3.62346e-17
3.62216e-17
3.62224e-17
3.62233e-17
3.62242e-17
3.62251e-17
3.6226e-17
3.6227e-17
3.62279e-17
3.62289e-17
3.62298e-17
3.62308e-17
3.62318e-17
3.62327e-17
3.62338e-17
3.62209e-17
3.62216e-17
3.62225e-17
3.62234e-17
3.62243e-17
3.62253e-17
3.62262e-17
3.62272e-17
3.62281e-17
3.62291e-17
3.623e-17
3.6231e-17
3.6232e-17
3.6233e-17
3.62202e-17
3.6221e-17
3.62219e-17
3.62227e-17
3.62237e-17
3.62246e-17
3.62255e-17
3.62265e-17
3.62274e-17
3.62284e-17
3.62293e-17
3.62303e-17
3.62313e-17
3.62323e-17
3.62196e-17
3.62203e-17
3.62213e-17
3.62221e-17
3.6223e-17
3.6224e-17
3.62249e-17
3.62259e-17
3.62268e-17
3.62278e-17
3.62287e-17
3.62297e-17
3.62306e-17
3.62316e-17
3.62191e-17
3.62198e-17
3.62207e-17
3.62216e-17
3.62225e-17
3.62235e-17
3.62244e-17
3.62254e-17
3.62263e-17
3.62273e-17
3.62282e-17
3.62292e-17
3.62302e-17
3.62311e-17
3.62186e-17
3.62193e-17
3.62202e-17
3.62211e-17
3.62221e-17
3.6223e-17
3.6224e-17
3.62249e-17
3.62259e-17
3.62268e-17
3.62277e-17
3.62287e-17
3.62296e-17
3.62305e-17
3.6193e-17
3.61942e-17
3.61954e-17
3.61965e-17
3.61977e-17
3.61987e-17
3.61998e-17
3.62008e-17
3.62019e-17
3.62028e-17
3.62038e-17
3.62048e-17
3.62058e-17
3.62067e-17
3.61931e-17
3.61944e-17
3.61956e-17
3.61968e-17
3.6198e-17
3.61991e-17
3.62003e-17
3.62013e-17
3.62024e-17
3.62034e-17
3.62044e-17
3.62053e-17
3.62063e-17
3.62072e-17
3.61935e-17
3.61947e-17
3.6196e-17
3.61972e-17
3.61984e-17
3.61995e-17
3.62007e-17
3.62017e-17
3.62028e-17
3.62038e-17
3.62048e-17
3.62058e-17
3.62068e-17
3.62077e-17
3.61938e-17
3.6195e-17
3.61963e-17
3.61975e-17
3.61987e-17
3.61999e-17
3.62011e-17
3.62021e-17
3.62032e-17
3.62042e-17
3.62052e-17
3.62062e-17
3.62072e-17
3.62082e-17
3.61941e-17
3.61954e-17
3.61966e-17
3.61978e-17
3.61991e-17
3.62002e-17
3.62014e-17
3.62025e-17
3.62035e-17
3.62046e-17
3.62056e-17
3.62066e-17
3.62076e-17
3.62085e-17
3.61944e-17
3.61956e-17
3.61969e-17
3.61981e-17
3.61993e-17
3.62005e-17
3.62016e-17
3.62028e-17
3.62038e-17
3.62049e-17
3.62059e-17
3.62069e-17
3.62078e-17
3.62088e-17
3.61946e-17
3.61959e-17
3.61971e-17
3.61983e-17
3.61995e-17
3.62007e-17
3.62019e-17
3.6203e-17
3.6204e-17
3.62051e-17
3.62061e-17
3.62071e-17
3.6208e-17
3.6209e-17
3.61948e-17
3.6196e-17
3.61973e-17
3.61985e-17
3.61997e-17
3.62009e-17
3.6202e-17
3.62031e-17
3.62042e-17
3.62052e-17
3.62062e-17
3.62072e-17
3.62082e-17
3.62091e-17
3.61949e-17
3.61962e-17
3.61974e-17
3.61986e-17
3.61998e-17
3.6201e-17
3.62021e-17
3.62032e-17
3.62043e-17
3.62053e-17
3.62063e-17
3.62073e-17
3.62082e-17
3.62092e-17
3.61951e-17
3.61963e-17
3.61976e-17
3.61988e-17
3.61999e-17
3.62011e-17
3.62022e-17
3.62033e-17
3.62044e-17
3.62054e-17
3.62064e-17
3.62073e-17
3.62083e-17
3.62093e-17
3.61953e-17
3.61965e-17
3.61977e-17
3.61989e-17
3.62001e-17
3.62012e-17
3.62023e-17
3.62034e-17
3.62044e-17
3.62054e-17
3.62064e-17
3.62074e-17
3.62083e-17
3.62093e-17
3.61955e-17
3.61967e-17
3.61979e-17
3.61991e-17
3.62002e-17
3.62013e-17
3.62024e-17
3.62035e-17
3.62045e-17
3.62055e-17
3.62064e-17
3.62074e-17
3.62083e-17
3.62093e-17
3.61957e-17
3.61969e-17
3.61981e-17
3.61993e-17
3.62004e-17
3.62015e-17
3.62025e-17
3.62036e-17
3.62046e-17
3.62055e-17
3.62065e-17
3.62074e-17
3.62084e-17
3.62093e-17
3.6196e-17
3.61972e-17
3.61983e-17
3.61995e-17
3.62006e-17
3.62017e-17
3.62027e-17
3.62037e-17
3.62047e-17
3.62056e-17
3.62065e-17
3.62074e-17
3.62083e-17
3.62092e-17
3.61554e-17
3.61564e-17
3.61577e-17
3.61588e-17
3.616e-17
3.6161e-17
3.61621e-17
3.61631e-17
3.6164e-17
3.61649e-17
3.61657e-17
3.61665e-17
3.61672e-17
3.6168e-17
3.61563e-17
3.61575e-17
3.61587e-17
3.61599e-17
3.61611e-17
3.61623e-17
3.61634e-17
3.61644e-17
3.61654e-17
3.61662e-17
3.61671e-17
3.61678e-17
3.61686e-17
3.61693e-17
3.61575e-17
3.61587e-17
3.616e-17
3.61612e-17
3.61624e-17
3.61635e-17
3.61646e-17
3.61656e-17
3.61666e-17
3.61675e-17
3.61683e-17
3.61691e-17
3.61699e-17
3.61705e-17
3.61585e-17
3.61598e-17
3.61611e-17
3.61623e-17
3.61635e-17
3.61647e-17
3.61658e-17
3.61668e-17
3.61678e-17
3.61687e-17
3.61696e-17
3.61704e-17
3.61711e-17
3.61718e-17
3.61596e-17
3.61609e-17
3.61622e-17
3.61634e-17
3.61646e-17
3.61658e-17
3.61669e-17
3.61679e-17
3.61689e-17
3.61698e-17
3.61707e-17
3.61715e-17
3.61722e-17
3.61729e-17
3.61606e-17
3.61619e-17
3.61632e-17
3.61644e-17
3.61657e-17
3.61668e-17
3.61679e-17
3.6169e-17
3.617e-17
3.61709e-17
3.61717e-17
3.61726e-17
3.61733e-17
3.6174e-17
3.61615e-17
3.61628e-17
3.61641e-17
3.61654e-17
3.61666e-17
3.61678e-17
3.61689e-17
3.61699e-17
3.61709e-17
3.61718e-17
3.61727e-17
3.61735e-17
3.61743e-17
3.6175e-17
3.61624e-17
3.61638e-17
3.6165e-17
3.61663e-17
3.61675e-17
3.61686e-17
3.61697e-17
3.61708e-17
3.61718e-17
3.61727e-17
3.61736e-17
3.61744e-17
3.61751e-17
3.61759e-17
3.61633e-17
3.61646e-17
3.61659e-17
3.61671e-17
3.61683e-17
3.61695e-17
3.61705e-17
3.61716e-17
3.61726e-17
3.61735e-17
3.61743e-17
3.61752e-17
3.61759e-17
3.61767e-17
3.61641e-17
3.61654e-17
3.61667e-17
3.61679e-17
3.61691e-17
3.61702e-17
3.61713e-17
3.61723e-17
3.61733e-17
3.61742e-17
3.61751e-17
3.61759e-17
3.61767e-17
3.61774e-17
3.61649e-17
3.61662e-17
3.61675e-17
3.61687e-17
3.61699e-17
3.6171e-17
3.6172e-17
3.6173e-17
3.6174e-17
3.61748e-17
3.61757e-17
3.61765e-17
3.61773e-17
3.61781e-17
3.61657e-17
3.6167e-17
3.61682e-17
3.61694e-17
3.61706e-17
3.61717e-17
3.61727e-17
3.61737e-17
3.61746e-17
3.61754e-17
3.61763e-17
3.61771e-17
3.61779e-17
3.61786e-17
3.61665e-17
3.61678e-17
3.6169e-17
3.61702e-17
3.61713e-17
3.61723e-17
3.61733e-17
3.61742e-17
3.61751e-17
3.6176e-17
3.61768e-17
3.61776e-17
3.61784e-17
3.61792e-17
3.61673e-17
3.61686e-17
3.61697e-17
3.61709e-17
3.61719e-17
3.6173e-17
3.61739e-17
3.61748e-17
3.61757e-17
3.61765e-17
3.61773e-17
3.6178e-17
3.61788e-17
3.61796e-17
3.61172e-17
3.6118e-17
3.61189e-17
3.61198e-17
3.61206e-17
3.61214e-17
3.61222e-17
3.6123e-17
3.61236e-17
3.61243e-17
3.61248e-17
3.61253e-17
3.61258e-17
3.61264e-17
3.61185e-17
3.61193e-17
3.61202e-17
3.61211e-17
3.6122e-17
3.61229e-17
3.61237e-17
3.61245e-17
3.61252e-17
3.61258e-17
3.61264e-17
3.61269e-17
3.61273e-17
3.61279e-17
3.61198e-17
3.61207e-17
3.61217e-17
3.61226e-17
3.61235e-17
3.61244e-17
3.61252e-17
3.61259e-17
3.61266e-17
3.61273e-17
3.61279e-17
3.61284e-17
3.61288e-17
3.61293e-17
3.61211e-17
3.6122e-17
3.6123e-17
3.6124e-17
3.61249e-17
3.61258e-17
3.61266e-17
3.61274e-17
3.61281e-17
3.61287e-17
3.61293e-17
3.61299e-17
3.61303e-17
3.61308e-17
3.61224e-17
3.61234e-17
3.61244e-17
3.61253e-17
3.61263e-17
3.61271e-17
3.6128e-17
3.61288e-17
3.61295e-17
3.61301e-17
3.61307e-17
3.61313e-17
3.61317e-17
3.61322e-17
3.61236e-17
3.61247e-17
3.61257e-17
3.61266e-17
3.61276e-17
3.61285e-17
3.61293e-17
3.61301e-17
3.61308e-17
3.61315e-17
3.61321e-17
3.61326e-17
3.61331e-17
3.61335e-17
3.61249e-17
3.61259e-17
3.61269e-17
3.61279e-17
3.61289e-17
3.61297e-17
3.61306e-17
3.61314e-17
3.61321e-17
3.61328e-17
3.61334e-17
3.61339e-17
3.61344e-17
3.61348e-17
3.61261e-17
3.61271e-17
3.61282e-17
3.61291e-17
3.61301e-17
3.6131e-17
3.61318e-17
3.61326e-17
3.61333e-17
3.6134e-17
3.61346e-17
3.61351e-17
3.61357e-17
3.61361e-17
3.61272e-17
3.61283e-17
3.61293e-17
3.61303e-17
3.61312e-17
3.61321e-17
3.6133e-17
3.61337e-17
3.61344e-17
3.61351e-17
3.61357e-17
3.61363e-17
3.61368e-17
3.61373e-17
3.61284e-17
3.61295e-17
3.61305e-17
3.61315e-17
3.61324e-17
3.61332e-17
3.61341e-17
3.61348e-17
3.61355e-17
3.61362e-17
3.61368e-17
3.61374e-17
3.61379e-17
3.61383e-17
3.61295e-17
3.61306e-17
3.61315e-17
3.61325e-17
3.61334e-17
3.61343e-17
3.61351e-17
3.61359e-17
3.61366e-17
3.61372e-17
3.61378e-17
3.61384e-17
3.61389e-17
3.61394e-17
3.61306e-17
3.61317e-17
3.61326e-17
3.61336e-17
3.61345e-17
3.61353e-17
3.61361e-17
3.61368e-17
3.61375e-17
3.61381e-17
3.61387e-17
3.61393e-17
3.61398e-17
3.61403e-17
3.61316e-17
3.61327e-17
3.61336e-17
3.61345e-17
3.61354e-17
3.61362e-17
3.6137e-17
3.61377e-17
3.61384e-17
3.6139e-17
3.61396e-17
3.61401e-17
3.61406e-17
3.61412e-17
3.61327e-17
3.61337e-17
3.61346e-17
3.61355e-17
3.61363e-17
3.61371e-17
3.61378e-17
3.61385e-17
3.61391e-17
3.61397e-17
3.61403e-17
3.61408e-17
3.61414e-17
3.61419e-17
3.60809e-17
3.60812e-17
3.60817e-17
3.60821e-17
3.60826e-17
3.6083e-17
3.60834e-17
3.60838e-17
3.60842e-17
3.60845e-17
3.60848e-17
3.60851e-17
3.60853e-17
3.60857e-17
3.60819e-17
3.60823e-17
3.60828e-17
3.60833e-17
3.60838e-17
3.60842e-17
3.60846e-17
3.6085e-17
3.60854e-17
3.60858e-17
3.60861e-17
3.60863e-17
3.60865e-17
3.60869e-17
3.6083e-17
3.60834e-17
3.6084e-17
3.60845e-17
3.6085e-17
3.60854e-17
3.60858e-17
3.60863e-17
3.60866e-17
3.6087e-17
3.60873e-17
3.60875e-17
3.60877e-17
3.6088e-17
3.60841e-17
3.60846e-17
3.60851e-17
3.60856e-17
3.60861e-17
3.60866e-17
3.6087e-17
3.60875e-17
3.60878e-17
3.60882e-17
3.60885e-17
3.60887e-17
3.60889e-17
3.60892e-17
3.60852e-17
3.60857e-17
3.60863e-17
3.60868e-17
3.60873e-17
3.60878e-17
3.60882e-17
3.60886e-17
3.6089e-17
3.60894e-17
3.60897e-17
3.60899e-17
3.60901e-17
3.60904e-17
3.60863e-17
3.60869e-17
3.60874e-17
3.6088e-17
3.60885e-17
3.60889e-17
3.60894e-17
3.60898e-17
3.60902e-17
3.60905e-17
3.60908e-17
3.60911e-17
3.60913e-17
3.60915e-17
3.60874e-17
3.6088e-17
3.60886e-17
3.60891e-17
3.60896e-17
3.60901e-17
3.60905e-17
3.6091e-17
3.60914e-17
3.60917e-17
3.6092e-17
3.60923e-17
3.60925e-17
3.60927e-17
3.60885e-17
3.60891e-17
3.60897e-17
3.60902e-17
3.60907e-17
3.60912e-17
3.60917e-17
3.60921e-17
3.60925e-17
3.60928e-17
3.60932e-17
3.60934e-17
3.60937e-17
3.60938e-17
3.60896e-17
3.60902e-17
3.60908e-17
3.60913e-17
3.60918e-17
3.60923e-17
3.60928e-17
3.60932e-17
3.60936e-17
3.60939e-17
3.60943e-17
3.60945e-17
3.60948e-17
3.60949e-17
3.60906e-17
3.60913e-17
3.60918e-17
3.60924e-17
3.60929e-17
3.60934e-17
3.60938e-17
3.60943e-17
3.60947e-17
3.6095e-17
3.60953e-17
3.60956e-17
3.60958e-17
3.6096e-17
3.60916e-17
3.60923e-17
3.60929e-17
3.60934e-17
3.60939e-17
3.60944e-17
3.60949e-17
3.60953e-17
3.60957e-17
3.6096e-17
3.60963e-17
3.60966e-17
3.60968e-17
3.6097e-17
3.60927e-17
3.60933e-17
3.60939e-17
3.60944e-17
3.60949e-17
3.60954e-17
3.60958e-17
3.60962e-17
3.60966e-17
3.6097e-17
3.60972e-17
3.60975e-17
3.60977e-17
3.60979e-17
3.60936e-17
3.60943e-17
3.60948e-17
3.60953e-17
3.60958e-17
3.60963e-17
3.60967e-17
3.60971e-17
3.60975e-17
3.60978e-17
3.60981e-17
3.60984e-17
3.60986e-17
3.60988e-17
3.60947e-17
3.60953e-17
3.60957e-17
3.60962e-17
3.60967e-17
3.60971e-17
3.60976e-17
3.60979e-17
3.60983e-17
3.60986e-17
3.60989e-17
3.60991e-17
3.60994e-17
3.60997e-17
3.60471e-17
3.60472e-17
3.60473e-17
3.60474e-17
3.60475e-17
3.60477e-17
3.60478e-17
3.60479e-17
3.60479e-17
3.6048e-17
3.60481e-17
3.60481e-17
3.60482e-17
3.60483e-17
3.60478e-17
3.60479e-17
3.6048e-17
3.60481e-17
3.60483e-17
3.60484e-17
3.60485e-17
3.60486e-17
3.60487e-17
3.60487e-17
3.60488e-17
3.60489e-17
3.60489e-17
3.6049e-17
3.60485e-17
3.60486e-17
3.60487e-17
3.60489e-17
3.6049e-17
3.60491e-17
3.60492e-17
3.60493e-17
3.60494e-17
3.60495e-17
3.60495e-17
3.60496e-17
3.60496e-17
3.60497e-17
3.60492e-17
3.60493e-17
3.60495e-17
3.60496e-17
3.60498e-17
3.60499e-17
3.605e-17
3.60501e-17
3.60502e-17
3.60502e-17
3.60503e-17
3.60503e-17
3.60503e-17
3.60504e-17
3.605e-17
3.60501e-17
3.60502e-17
3.60504e-17
3.60505e-17
3.60506e-17
3.60507e-17
3.60508e-17
3.60509e-17
3.6051e-17
3.6051e-17
3.60511e-17
3.60511e-17
3.60511e-17
3.60507e-17
3.60508e-17
3.6051e-17
3.60511e-17
3.60513e-17
3.60514e-17
3.60515e-17
3.60516e-17
3.60517e-17
3.60517e-17
3.60518e-17
3.60518e-17
3.60518e-17
3.60519e-17
3.60514e-17
3.60516e-17
3.60518e-17
3.60519e-17
3.6052e-17
3.60522e-17
3.60523e-17
3.60524e-17
3.60524e-17
3.60525e-17
3.60526e-17
3.60526e-17
3.60526e-17
3.60526e-17
3.60522e-17
3.60523e-17
3.60525e-17
3.60527e-17
3.60528e-17
3.60529e-17
3.6053e-17
3.60531e-17
3.60532e-17
3.60533e-17
3.60533e-17
3.60533e-17
3.60533e-17
3.60533e-17
3.60529e-17
3.60531e-17
3.60533e-17
3.60534e-17
3.60536e-17
3.60537e-17
3.60538e-17
3.60539e-17
3.6054e-17
3.6054e-17
3.60541e-17
3.60541e-17
3.60541e-17
3.60541e-17
3.60536e-17
3.60538e-17
3.6054e-17
3.60541e-17
3.60543e-17
3.60544e-17
3.60545e-17
3.60546e-17
3.60547e-17
3.60548e-17
3.60548e-17
3.60548e-17
3.60548e-17
3.60548e-17
3.60543e-17
3.60545e-17
3.60547e-17
3.60548e-17
3.6055e-17
3.60551e-17
3.60552e-17
3.60553e-17
3.60554e-17
3.60555e-17
3.60555e-17
3.60555e-17
3.60555e-17
3.60555e-17
3.6055e-17
3.60552e-17
3.60554e-17
3.60555e-17
3.60557e-17
3.60558e-17
3.60559e-17
3.6056e-17
3.60561e-17
3.60561e-17
3.60562e-17
3.60562e-17
3.60562e-17
3.60562e-17
3.60556e-17
3.60559e-17
3.6056e-17
3.60562e-17
3.60563e-17
3.60564e-17
3.60566e-17
3.60567e-17
3.60567e-17
3.60568e-17
3.60568e-17
3.60568e-17
3.60569e-17
3.60568e-17
3.60563e-17
3.60565e-17
3.60566e-17
3.60568e-17
3.60569e-17
3.6057e-17
3.60572e-17
3.60572e-17
3.60573e-17
3.60574e-17
3.60574e-17
3.60574e-17
3.60575e-17
3.60575e-17
3.60155e-17
3.60154e-17
3.60154e-17
3.60153e-17
3.60152e-17
3.60152e-17
3.60151e-17
3.6015e-17
3.60149e-17
3.60148e-17
3.60147e-17
3.60146e-17
3.60145e-17
3.60144e-17
3.60159e-17
3.60158e-17
3.60157e-17
3.60157e-17
3.60156e-17
3.60155e-17
3.60154e-17
3.60153e-17
3.60152e-17
3.60151e-17
3.6015e-17
3.60149e-17
3.60148e-17
3.60147e-17
3.60162e-17
3.60161e-17
3.60161e-17
3.6016e-17
3.60159e-17
3.60159e-17
3.60158e-17
3.60157e-17
3.60156e-17
3.60155e-17
3.60154e-17
3.60153e-17
3.60151e-17
3.6015e-17
3.60166e-17
3.60165e-17
3.60164e-17
3.60164e-17
3.60163e-17
3.60162e-17
3.60161e-17
3.6016e-17
3.60159e-17
3.60158e-17
3.60157e-17
3.60156e-17
3.60155e-17
3.60154e-17
3.60169e-17
3.60169e-17
3.60168e-17
3.60167e-17
3.60167e-17
3.60166e-17
3.60165e-17
3.60164e-17
3.60163e-17
3.60162e-17
3.6016e-17
3.60159e-17
3.60158e-17
3.60157e-17
3.60173e-17
3.60172e-17
3.60172e-17
3.60171e-17
3.6017e-17
3.60169e-17
3.60168e-17
3.60167e-17
3.60166e-17
3.60165e-17
3.60164e-17
3.60163e-17
3.60161e-17
3.6016e-17
3.60177e-17
3.60176e-17
3.60175e-17
3.60175e-17
3.60174e-17
3.60173e-17
3.60172e-17
3.60171e-17
3.6017e-17
3.60169e-17
3.60167e-17
3.60166e-17
3.60165e-17
3.60163e-17
3.6018e-17
3.6018e-17
3.60179e-17
3.60178e-17
3.60177e-17
3.60176e-17
3.60175e-17
3.60174e-17
3.60173e-17
3.60172e-17
3.60171e-17
3.60169e-17
3.60168e-17
3.60166e-17
3.60183e-17
3.60183e-17
3.60182e-17
3.60182e-17
3.60181e-17
3.6018e-17
3.60179e-17
3.60178e-17
3.60177e-17
3.60175e-17
3.60174e-17
3.60173e-17
3.60171e-17
3.60169e-17
3.60187e-17
3.60186e-17
3.60186e-17
3.60185e-17
3.60184e-17
3.60183e-17
3.60182e-17
3.60181e-17
3.6018e-17
3.60179e-17
3.60177e-17
3.60176e-17
3.60175e-17
3.60173e-17
3.6019e-17
3.60189e-17
3.60189e-17
3.60188e-17
3.60187e-17
3.60186e-17
3.60185e-17
3.60184e-17
3.60183e-17
3.60182e-17
3.60181e-17
3.60179e-17
3.60178e-17
3.60176e-17
3.60192e-17
3.60192e-17
3.60191e-17
3.60191e-17
3.6019e-17
3.60189e-17
3.60188e-17
3.60187e-17
3.60186e-17
3.60185e-17
3.60184e-17
3.60182e-17
3.60181e-17
3.60179e-17
3.60195e-17
3.60195e-17
3.60194e-17
3.60194e-17
3.60193e-17
3.60192e-17
3.60191e-17
3.6019e-17
3.60189e-17
3.60188e-17
3.60187e-17
3.60185e-17
3.60184e-17
3.60182e-17
3.60197e-17
3.60197e-17
3.60196e-17
3.60196e-17
3.60195e-17