/*--------------------------------*- C++ -*----------------------------------*\
| =========                 |                                                 |
| \\      /  F ield         | OpenFOAM: The Open Source CFD Toolbox           |
|  \\    /   O peration     | Version:  v2106                                 |
|   \\  /    A nd           | Website:  www.openfoam.com                      |
|    \\/     M anipulation  |                                                 |
\*---------------------------------------------------------------------------*/
FoamFile
{
    version     2.0;
    format      ascii;
    arch        "LSB;label=32;scalar=64";
    class       volScalarField;
    location    "0.00017";
    object      p;
}
// * * * * * * * * * * * * * * * * * * * * * * * * * * * * * * * * * * * * * //

dimensions      [1 -1 -2 0 0 0 0];

internalField   nonuniform List<scalar> 
17924
(
239664
239651
239631
239608
239509
239491
239467
239442
239411
239378
239339
239465
239448
239423
239398
239366
239331
239291
239425
239409
239381
239353
239320
239283
239242
239385
239367
239338
239308
239274
239236
239194
239348
239326
239295
239264
239228
239189
239145
239310
239284
239252
239218
239181
239140
239095
239271
239242
239209
239173
239133
239091
239044
239230
239197
239162
239124
239083
239038
238990
239189
239153
239115
239075
239031
238985
238935
239142
239103
239063
239020
238975
238926
238875
239097
239054
239012
238966
238918
238866
238813
239043
238996
238952
238904
238853
238800
238745
238994
238943
238895
238843
238790
238733
238674
238928
238874
238824
238771
238715
238657
238597
239183
239157
239126
239095
239063
239029
238992
238953
238910
238864
238813
238759
238701
238637
239126
239101
239067
239036
239001
238964
238924
238881
238834
238784
238731
238673
238613
238548
239070
239045
239008
238973
238935
238896
238854
238809
238761
238710
238656
238597
238538
238475
239013
238985
238946
238910
238869
238828
238783
238736
238686
238633
238577
238518
238458
238395
238955
238923
238882
238843
238801
238757
238710
238662
238611
238557
238501
238442
238383
238320
238893
238857
238816
238774
238730
238684
238636
238586
238533
238478
238422
238364
238305
238244
238829
238789
238747
238703
238657
238610
238560
238508
238455
238400
238344
238286
238229
238170
238758
238716
238673
238627
238580
238531
238481
238428
238374
238319
238262
238206
238149
238094
238686
238641
238597
238549
238501
238451
238399
238345
238291
238236
238180
238126
238071
238019
238607
238559
238515
238466
238417
238365
238313
238259
238205
238150
238095
238042
237988
237942
238527
238477
238432
238381
238331
238279
238225
238170
238115
238061
238007
237956
237904
237864
238440
238387
238341
238290
238239
238186
238133
238078
238024
237970
237917
237867
237817
237783
238358
238302
238254
238201
238148
238094
238039
237983
237928
237874
237821
237773
237726
237696
238255
238202
238152
238101
238047
237994
237940
237886
237832
237781
237730
237683
237638
237606
238688
238654
238616
238583
238551
238520
238490
238459
238429
238397
238365
238332
238296
238265
238613
238585
238545
238510
238475
238441
238406
238372
238338
238303
238267
238231
238193
238153
238540
238510
238468
238431
238394
238357
238320
238285
238249
238212
238176
238139
238101
238059
238466
238433
238390
238352
238312
238273
238234
238196
238158
238120
238082
238043
238006
237963
238390
238354
238309
238269
238227
238187
238146
238107
238068
238029
237990
237952
237914
237873
238310
238270
238226
238184
238141
238099
238058
238017
237977
237937
237899
237860
237822
237782
238228
238185
238140
238097
238053
238010
237968
237927
237886
237847
237808
237771
237734
237696
238139
238095
238051
238007
237963
237920
237877
237836
237796
237757
237718
237681
237645
237611
238050
238003
237961
237916
237872
237829
237786
237745
237705
237667
237630
237594
237560
237530
237955
237908
237866
237821
237779
237735
237694
237653
237614
237576
237541
237507
237474
237448
237861
237813
237772
237727
237685
237642
237601
237560
237522
237486
237453
237421
237391
237371
237763
237713
237673
237629
237588
237546
237506
237467
237430
237396
237364
237335
237307
237293
237669
237619
237578
237535
237493
237452
237412
237374
237338
237305
237274
237249
237225
237217
237557
237515
237473
237433
237393
237354
237316
237281
237247
237216
237188
237164
237143
237138
238057
238024
237989
237961
237935
237912
237891
237873
237858
237844
237833
237823
237815
237810
237971
237946
237910
237881
237852
237827
237804
237784
237767
237751
237737
237725
237716
237700
237888
237863
237826
237795
237765
237739
237716
237695
237675
237658
237644
237631
237622
237605
237804
237777
237741
237709
237678
237651
237627
237605
237585
237567
237552
237537
237527
237509
237721
237691
237654
237622
237591
237563
237538
237515
237495
237476
237461
237447
237436
237420
237635
237602
237566
237534
237503
237475
237450
237427
237406
237388
237373
237358
237347
237333
237549
237514
237479
237446
237416
237388
237363
237340
237320
237302
237287
237274
237262
237250
237461
237425
237391
237359
237329
237302
237277
237255
237235
237218
237204
237191
237180
237170
237373
237336
237304
237272
237243
237217
237193
237171
237153
237137
237123
237112
237102
237096
237284
237247
237216
237186
237159
237133
237110
237090
237073
237058
237045
237034
237025
237024
237198
237160
237131
237101
237075
237051
237030
237011
236995
236982
236971
236962
236954
236956
237110
237072
237045
237017
236993
236970
236950
236933
236919
236907
236898
236890
236884
236889
237026
236990
236963
236936
236913
236891
236873
236858
236845
236836
236829
236824
236820
236828
236932
236904
236877
236854
236833
236813
236797
236784
236774
236766
236761
236758
236757
236763
237338
237319
237297
237282
237269
237258
237250
237246
237245
237247
237253
237262
237278
237292
237254
237242
237221
237207
237193
237182
237174
237170
237169
237171
237176
237184
237198
237203
237178
237166
237145
237130
237117
237106
237097
237093
237091
237093
237098
237105
237119
237123
237100
237087
237068
237053
237040
237030
237022
237017
237016
237018
237022
237028
237041
237044
237026
237010
236992
236978
236964
236954
236947
236943
236942
236943
236948
236954
236966
236970
236951
236934
236917
236903
236890
236881
236874
236871
236870
236872
236877
236883
236893
236899
236879
236860
236844
236830
236818
236810
236804
236801
236801
236803
236808
236815
236824
236832
236807
236788
236773
236759
236749
236742
236737
236735
236735
236737
236742
236750
236758
236768
236738
236718
236704
236691
236682
236675
236672
236670
236671
236675
236680
236688
236696
236708
236670
236650
236636
236625
236617
236612
236609
236608
236610
236615
236621
236629
236637
236650
236604
236583
236571
236561
236554
236550
236549
236550
236553
236558
236565
236574
236583
236597
236540
236519
236508
236500
236494
236491
236491
236493
236498
236504
236512
236522
236531
236547
236479
236459
236449
236441
236437
236436
236437
236441
236447
236455
236464
236475
236487
236504
236415
236399
236390
236385
236383
236382
236385
236391
236399
236408
236419
236431
236444
236460
236567
236568
236566
236568
236571
236576
236583
236592
236603
236617
236634
236655
236680
236709
236507
236510
236510
236513
236517
236524
236531
236541
236554
236569
236586
236607
236630
236651
236455
236457
236456
236460
236464
236471
236479
236490
236502
236517
236535
236555
236578
236599
236401
236403
236403
236407
236413
236420
236429
236440
236453
236468
236486
236506
236528
236548
236348
236351
236351
236356
236362
236370
236380
236391
236405
236420
236438
236458
236480
236500
236298
236300
236302
236308
236314
236323
236332
236344
236358
236374
236391
236411
236432
236453
236250
236251
236255
236260
236267
236276
236286
236299
236313
236329
236347
236366
236386
236407
236203
236204
236209
236214
236222
236232
236243
236256
236270
236286
236303
236322
236342
236363
236158
236159
236164
236170
236179
236189
236201
236214
236229
236245
236263
236281
236300
236321
236114
236115
236121
236128
236137
236148
236161
236175
236190
236207
236224
236242
236260
236282
236073
236073
236080
236087
236098
236110
236123
236138
236154
236170
236188
236206
236224
236245
236036
236035
236042
236050
236061
236073
236087
236103
236119
236137
236154
236173
236191
236212
235998
235999
236006
236015
236027
236040
236055
236072
236089
236107
236126
236144
236163
236184
235963
235965
235974
235984
235996
236010
236026
236043
236060
236079
236098
236118
236137
236157
235758
235777
235794
235812
235831
235849
235868
235887
235907
235928
235950
235974
235998
236028
235732
235752
235770
235790
235809
235828
235848
235868
235889
235911
235934
235959
235985
236012
235711
235731
235749
235768
235787
235806
235827
235847
235869
235891
235915
235941
235966
235993
235688
235709
235726
235746
235766
235786
235807
235828
235849
235872
235895
235921
235947
235973
235667
235686
235705
235724
235745
235765
235787
235808
235830
235852
235876
235900
235926
235952
235645
235665
235683
235704
235724
235746
235767
235789
235811
235833
235856
235880
235905
235931
235625
235644
235663
235683
235704
235726
235748
235770
235792
235814
235837
235860
235885
235910
235604
235623
235643
235664
235685
235706
235728
235750
235773
235795
235818
235841
235864
235889
235585
235603
235623
235644
235665
235687
235709
235731
235754
235776
235798
235821
235844
235868
235566
235584
235604
235625
235647
235669
235691
235713
235735
235757
235780
235802
235825
235848
235549
235567
235587
235608
235629
235651
235673
235696
235718
235740
235762
235784
235806
235829
235533
235552
235572
235593
235614
235635
235657
235680
235702
235724
235746
235768
235790
235813
235518
235537
235557
235578
235600
235622
235644
235667
235689
235712
235734
235755
235776
235799
235508
235526
235547
235568
235589
235611
235633
235654
235676
235698
235721
235742
235764
235786
234909
234937
234965
234991
235017
235042
235067
235091
235114
235137
235160
235182
235204
235229
234912
234940
234968
234996
235023
235050
235076
235101
235126
235149
235172
235195
235217
235242
234920
234947
234976
235004
235032
235059
235085
235110
235134
235158
235181
235204
235226
235251
234925
234953
234983
235011
235039
235066
235093
235118
235143
235167
235190
235213
235236
235261
234931
234960
234989
235017
235046
235073
235100
235125
235150
235174
235197
235220
235242
235266
234935
234964
234993
235022
235050
235078
235105
235131
235156
235180
235203
235226
235248
235271
234939
234968
234998
235026
235054
235082
235109
235135
235159
235183
235206
235229
235251
235273
234942
234972
235001
235029
235057
235085
235111
235137
235162
235186
235209
235231
235254
235275
234945
234974
235003
235031
235059
235086
235113
235138
235163
235187
235210
235232
235254
235275
234948
234977
235005
235034
235061
235088
235114
235139
235163
235187
235210
235232
235254
235275
234951
234980
235008
235036
235062
235089
235114
235139
235163
235187
235209
235231
235253
235274
234954
234983
235011
235038
235065
235091
235116
235140
235164
235187
235209
235231
235252
235273
234958
234986
235013
235041
235067
235093
235118
235142
235165
235188
235209
235230
235251
235272
234966
234994
235020
235047
235072
235097
235120
235143
235165
235187
235208
235228
235249
235271
234015
234041
234070
234096
234123
234148
234172
234195
234217
234237
234256
234274
234289
234309
234039
234064
234094
234121
234149
234176
234201
234225
234247
234268
234287
234305
234321
234341
234065
234091
234122
234150
234178
234204
234229
234253
234275
234296
234315
234333
234349
234367
234088
234116
234146
234175
234203
234230
234256
234280
234303
234323
234343
234361
234378
234395
234111
234140
234171
234200
234228
234255
234281
234305
234327
234348
234368
234386
234403
234419
234132
234163
234193
234222
234251
234278
234304
234328
234351
234372
234392
234410
234427
234444
234153
234184
234215
234244
234272
234299
234325
234349
234372
234393
234413
234431
234448
234464
234173
234205
234235
234264
234292
234318
234344
234368
234391
234412
234432
234451
234468
234484
234192
234224
234253
234282
234310
234336
234362
234385
234408
234429
234449
234468
234486
234502
234211
234242
234271
234300
234327
234353
234378
234402
234424
234445
234465
234483
234501
234517
234228
234259
234288
234316
234343
234369
234393
234416
234438
234459
234478
234497
234515
234531
234246
234277
234305
234333
234359
234384
234408
234430
234451
234472
234491
234509
234527
234543
234263
234293
234320
234348
234373
234398
234421
234443
234464
234484
234502
234520
234537
234554
234283
234313
234338
234365
234389
234412
234434
234455
234475
234493
234511
234529
234546
234564
233116
233134
233155
233175
233195
233214
233232
233249
233265
233279
233292
233304
233314
233328
233145
233163
233185
233206
233227
233247
233266
233284
233300
233315
233328
233340
233350
233364
233176
233195
233218
233239
233261
233281
233299
233317
233333
233348
233361
233373
233382
233395
233205
233225
233249
233271
233292
233312
233332
233350
233366
233381
233394
233406
233417
233428
233233
233255
233280
233302
233323
233344
233363
233381
233397
233412
233426
233438
233448
233459
233261
233285
233309
233331
233353
233373
233393
233411
233427
233443
233456
233469
233480
233490
233288
233313
233337
233360
233381
233402
233421
233439
233456
233471
233485
233498
233509
233519
233315
233341
233364
233387
233409
233429
233449
233467
233483
233499
233513
233525
233537
233547
233341
233367
233391
233414
233435
233456
233475
233493
233509
233524
233538
233551
233563
233572
233367
233393
233416
233439
233460
233481
233499
233517
233533
233548
233562
233575
233587
233597
233392
233417
233440
233463
233484
233504
233522
233540
233556
233571
233585
233597
233609
233619
233417
233442
233464
233486
233507
233526
233544
233561
233577
233591
233605
233617
233630
233639
233439
233464
233485
233507
233527
233546
233564
233581
233596
233610
233623
233636
233647
233658
233465
233488
233509
233529
233548
233566
233582
233598
233613
233626
233639
233651
233663
233676
232259
232267
232279
232290
232300
232311
232320
232329
232338
232346
232352
232358
232364
232372
232284
232292
232304
232316
232327
232338
232348
232357
232366
232374
232380
232386
232391
232399
232309
232318
232331
232343
232354
232365
232375
232384
232393
232401
232407
232413
232418
232425
232334
232344
232357
232369
232381
232392
232402
232411
232420
232428
232435
232441
232446
232452
232358
232370
232383
232396
232408
232418
232429
232438
232447
232455
232462
232468
232473
232478
232383
232396
232409
232422
232434
232445
232455
232465
232474
232482
232489
232495
232500
232504
232408
232421
232435
232448
232460
232471
232481
232491
232500
232508
232515
232521
232526
232530
232432
232447
232460
232473
232485
232496
232507
232516
232525
232533
232541
232547
232552
232556
232456
232471
232485
232498
232510
232521
232532
232541
232550
232558
232565
232571
232577
232580
232480
232496
232509
232522
232534
232545
232555
232565
232574
232582
232589
232595
232600
232604
232503
232519
232532
232545
232557
232568
232578
232588
232597
232605
232611
232617
232623
232626
232527
232542
232554
232567
232578
232589
232600
232609
232618
232626
232632
232638
232644
232647
232548
232563
232575
232587
232599
232609
232619
232629
232637
232645
232651
232657
232662
232666
232571
232585
232596
232608
232618
232628
232638
232647
232655
232662
232668
232674
232680
232686
231465
231467
231470
231473
231476
231479
231481
231484
231486
231488
231489
231490
231491
231493
231482
231483
231487
231490
231493
231496
231498
231500
231502
231504
231506
231507
231508
231510
231498
231499
231503
231506
231509
231512
231515
231517
231519
231521
231522
231523
231524
231526
231514
231516
231520
231523
231527
231529
231532
231534
231536
231538
231539
231540
231541
231542
231530
231533
231537
231540
231544
231547
231549
231551
231553
231555
231556
231557
231557
231558
231547
231550
231554
231558
231561
231564
231566
231569
231571
231572
231573
231574
231574
231575
231563
231567
231571
231575
231578
231581
231584
231586
231588
231589
231590
231591
231591
231591
231580
231585
231588
231592
231596
231598
231601
231603
231605
231607
231608
231608
231608
231608
231596
231601
231605
231609
231612
231615
231618
231620
231622
231623
231624
231625
231625
231624
231612
231618
231621
231625
231629
231632
231635
231637
231639
231640
231641
231641
231642
231640
231628
231634
231637
231641
231645
231648
231650
231653
231655
231656
231657
231657
231658
231656
231643
231649
231652
231656
231660
231663
231666
231668
231670
231671
231672
231672
231673
231671
231658
231663
231667
231671
231674
231677
231680
231682
231684
231685
231686
231687
231687
231685
231673
231677
231681
231684
231687
231690
231693
231695
231697
231698
231699
231700
231701
231700
230721
230720
230719
230718
230717
230715
230713
230711
230709
230707
230705
230703
230700
230698
230730
230729
230728
230726
230725
230723
230721
230719
230717
230715
230713
230710
230708
230706
230738
230737
230736
230734
230733
230731
230729
230727
230725
230723
230720
230718
230715
230713
230747
230745
230744
230743
230741
230739
230737
230735
230733
230730
230728
230725
230722
230720
230755
230753
230752
230751
230749
230747
230745
230743
230741
230738
230736
230733
230730
230727
230763
230762
230760
230759
230757
230755
230753
230751
230748
230746
230743
230740
230737
230734
230771
230770
230768
230767
230765
230763
230761
230759
230756
230754
230751
230748
230745
230741
230779
230778
230776
230775
230773
230771
230769
230767
230764
230761
230759
230755
230752
230748
230786
230785
230784
230782
230781
230779
230777
230774
230772
230769
230766
230763
230760
230755
230794
230793
230791
230790
230788
230786
230784
230782
230779
230777
230774
230770
230767
230762
230800
230800
230798
230797
230795
230793
230791
230789
230786
230784
230781
230778
230774
230769
230806
230806
230804
230803
230801
230800
230798
230796
230793
230791
230788
230784
230781
230776
230811
230812
230810
230809
230807
230806
230804
230802
230800
230797
230794
230791
230788
230783
230816
230816
230815
230814
230812
230811
230810
230808
230806
230803
230801
230798
230794
230789
230004
230003
230001
229999
229997
229994
229991
229988
229984
229980
229976
229972
229967
229963
230008
230007
230005
230003
230000
229998
229994
229991
229987
229983
229979
229974
229970
229965
230012
230010
230008
230006
230003
230000
229997
229994
229990
229986
229981
229977
229972
229967
230015
230013
230011
230009
230006
230003
230000
229996
229992
229988
229984
229979
229974
229969
230018
230016
230014
230011
230008
230005
230002
229998
229994
229990
229986
229981
229976
229971
230020
230018
230016
230013
230010
230007
230004
230000
229996
229992
229987
229982
229977
229972
230022
230020
230017
230015
230012
230009
230005
230001
229997
229993
229988
229983
229978
229973
230023
230021
230018
230016
230013
230010
230006
230002
229998
229994
229989
229984
229979
229973
230024
230021
230019
230016
230014
230010
230007
230003
229999
229995
229990
229985
229980
229974
230024
230022
230019
230017
230014
230011
230007
230004
230000
229995
229991
229986
229980
229974
230024
230021
230019
230017
230014
230011
230007
230004
230000
229996
229991
229986
229980
229974
230023
230020
230018
230016
230013
230010
230007
230004
230000
229996
229991
229986
229981
229974
230021
230019
230017
230015
230012
230010
230007
230003
230000
229996
229991
229986
229981
229974
230018
230016
230015
230013
230011
230008
230006
230003
229999
229996
229991
229986
229981
229974
229303
229304
229304
229303
229301
229299
229297
229293
229290
229286
229281
229276
229271
229266
229306
229306
229305
229304
229303
229301
229298
229295
229291
229287
229282
229277
229272
229266
229307
229307
229307
229306
229304
229302
229299
229296
229292
229288
229283
229278
229273
229267
229308
229308
229307
229306
229305
229302
229300
229296
229293
229288
229284
229279
229273
229267
229308
229308
229307
229306
229304
229302
229299
229296
229292
229288
229284
229278
229273
229267
229307
229307
229306
229305
229303
229301
229299
229295
229292
229287
229283
229277
229272
229266
229306
229306
229305
229304
229302
229300
229297
229294
229290
229286
229281
229276
229270
229264
229304
229304
229303
229302
229300
229298
229295
229292
229288
229284
229279
229274
229268
229262
229302
229301
229300
229299
229297
229295
229293
229289
229286
229281
229277
229271
229266
229259
229298
229298
229297
229296
229294
229292
229290
229286
229283
229279
229274
229268
229263
229256
229295
229294
229293
229292
229291
229289
229286
229283
229279
229275
229270
229265
229259
229253
229290
229289
229289
229288
229286
229285
229282
229279
229276
229271
229267
229261
229255
229249
229285
229284
229284
229283
229282
229280
229278
229275
229271
229267
229263
229257
229252
229245
229279
229278
229278
229278
229276
229275
229273
229270
229267
229263
229259
229254
229248
229242
228627
228629
228630
228631
228631
228630
228628
228626
228624
228621
228617
228613
228608
228602
228629
228630
228631
228632
228632
228631
228630
228628
228625
228622
228618
228613
228609
228603
228630
228631
228632
228633
228633
228632
228631
228629
228626
228623
228619
228615
228610
228604
228630
228632
228633
228633
228633
228632
228631
228629
228626
228623
228619
228615
228610
228605
228630
228631
228632
228633
228633
228632
228631
228629
228626
228623
228619
228615
228610
228604
228629
228630
228631
228632
228631
228631
228629
228627
228625
228622
228618
228613
228609
228603
228627
228628
228629
228630
228630
228629
228628
228626
228623
228620
228616
228612
228607
228601
228624
228626
228627
228627
228627
228627
228625
228623
228621
228617
228614
228609
228604
228599
228621
228623
228624
228624
228624
228624
228622
228620
228618
228614
228611
228606
228601
228596
228618
228619
228620
228620
228620
228620
228619
228617
228614
228611
228607
228603
228598
228593
228613
228614
228615
228616
228616
228616
228614
228612
228610
228607
228603
228599
228594
228589
228608
228609
228611
228611
228611
228611
228610
228608
228605
228602
228598
228594
228589
228584
228603
228604
228605
228606
228606
228606
228605
228603
228600
228597
228593
228589
228584
228580
228597
228598
228599
228600
228600
228600
228599
228597
228595
228592
228588
228584
228580
228575
227994
227996
227997
227998
227999
227999
227998
227997
227996
227994
227992
227989
227986
227982
227995
227997
227998
227999
228000
228000
227999
227998
227997
227995
227993
227990
227987
227983
227995
227997
227999
228000
228000
228000
228000
227999
227998
227996
227993
227991
227987
227984
227995
227997
227999
228000
228000
228001
228000
227999
227998
227996
227994
227991
227988
227985
227995
227997
227998
228000
228000
228000
228000
227999
227998
227996
227994
227991
227988
227984
227994
227996
227998
227999
228000
228000
227999
227999
227997
227995
227993
227990
227987
227984
227993
227995
227997
227998
227998
227999
227998
227997
227996
227994
227992
227989
227986
227983
227991
227993
227995
227996
227997
227997
227997
227996
227995
227993
227990
227988
227985
227981
227989
227991
227993
227994
227995
227995
227995
227994
227992
227991
227988
227986
227983
227979
227987
227989
227990
227991
227992
227992
227992
227991
227990
227988
227986
227983
227980
227977
227984
227986
227987
227988
227989
227989
227989
227988
227987
227985
227983
227980
227977
227974
227981
227982
227984
227985
227986
227986
227985
227984
227983
227981
227979
227977
227974
227971
227978
227979
227980
227981
227982
227982
227982
227981
227979
227978
227975
227973
227970
227968
227974
227975
227977
227977
227978
227978
227978
227977
227975
227974
227972
227969
227967
227964
227418
227419
227419
227419
227419
227419
227419
227419
227418
227418
227417
227416
227415
227415
227418
227418
227418
227419
227419
227419
227419
227418
227418
227417
227417
227416
227415
227415
227417
227417
227418
227418
227418
227418
227418
227418
227417
227417
227416
227416
227415
227414
227416
227417
227417
227418
227418
227418
227418
227418
227417
227417
227416
227415
227415
227414
227416
227416
227417
227417
227417
227417
227417
227417
227417
227416
227416
227415
227414
227414
227415
227416
227416
227417
227417
227417
227417
227417
227416
227416
227415
227415
227414
227413
227414
227415
227416
227416
227416
227416
227416
227416
227416
227415
227415
227414
227413
227413
227414
227414
227415
227415
227415
227416
227415
227415
227415
227414
227414
227413
227413
227412
227413
227414
227414
227414
227415
227415
227415
227414
227414
227414
227413
227412
227412
227411
227412
227413
227413
227413
227414
227414
227413
227413
227413
227413
227412
227411
227411
227410
227412
227412
227412
227412
227413
227412
227412
227412
227412
227411
227411
227410
227410
227410
227411
227411
227411
227411
227411
227411
227411
227411
227411
227410
227410
227409
227409
227409
227410
227410
227410
227410
227410
227410
227410
227410
227409
227409
227409
227408
227407
227408
227409
227409
227409
227409
227409
227409
227409
227408
227408
227408
227407
227407
227407
227406
226904
226902
226900
226899
226898
226898
226897
226897
226898
226898
226899
226900
226901
226900
226898
226897
226896
226896
226895
226895
226895
226896
226897
226898
226899
226898
226896
226895
226894
226894
226893
226893
226893
226894
226895
226896
226898
226896
226895
226893
226893
226892
226892
226891
226892
226892
226893
226894
226897
226895
226893
226892
226891
226891
226890
226890
226890
226891
226892
226893
226896
226894
226892
226891
226890
226890
226889
226889
226890
226890
226891
226892
226895
226893
226892
226891
226890
226889
226889
226889
226889
226890
226891
226892
226895
226893
226892
226890
226889
226889
226888
226888
226889
226889
226890
226892
226895
226893
226892
226890
226889
226889
226888
226888
226889
226889
226890
226892
226895
226894
226892
226891
226890
226889
226889
226889
226889
226890
226891
226892
226896
226895
226893
226892
226891
226890
226890
226889
226890
226890
226891
226893
226897
226896
226894
226893
226892
226891
226891
226890
226891
226891
226892
226894
226899
226897
226895
226894
226893
226892
226892
226892
226892
226893
226894
226895
226901
226899
226897
226896
226895
226894
226893
226893
226893
226894
226895
226896
239689
239710
239732
239754
239774
239796
239682
239715
239748
239783
239817
239852
239671
239712
239756
239802
239848
239896
239650
239697
239750
239805
239862
239919
239541
239571
239598
239624
239647
239669
239529
239569
239607
239644
239677
239709
239515
239564
239611
239659
239704
239749
239495
239553
239610
239667
239723
239778
239469
239533
239597
239664
239728
239794
239436
239504
239573
239644
239717
239789
239397
239464
239534
239606
239680
239758
239228
239271
239308
239345
239376
239409
239207
239260
239305
239350
239388
239425
239186
239248
239303
239357
239403
239448
239162
239234
239298
239361
239417
239472
239136
239216
239289
239362
239430
239496
239106
239193
239274
239356
239434
239512
239072
239162
239249
239338
239425
239512
239034
239123
239214
239305
239397
239490
238990
239075
239164
239253
239345
239438
238941
239018
239101
239183
239268
239357
238885
238949
239022
239093
239167
239245
238826
238874
238933
238989
239047
239108
238758
238788
238828
238867
238906
238948
238692
238700
238721
238739
238757
238776
238750
238808
238860
238913
238960
239007
238718
238787
238845
238905
238957
239009
238692
238771
238838
238904
238961
239017
238665
238753
238828
238902
238968
239029
238639
238734
238819
238901
238976
239046
238612
238714
238808
238899
238983
239064
238586
238692
238793
238892
238986
239078
238558
238666
238772
238877
238979
239080
238527
238635
238742
238850
238956
239063
238495
238597
238702
238807
238913
239020
238458
238551
238648
238746
238844
238946
238420
238500
238584
238670
238755
238843
238375
238436
238504
238572
238640
238711
238341
238379
238425
238470
238514
238561
238130
238202
238265
238328
238386
238443
238096
238176
238246
238319
238385
238450
238073
238162
238240
238319
238390
238458
238050
238146
238232
238316
238392
238464
238029
238131
238224
238313
238395
238472
238009
238116
238216
238310
238398
238480
237992
238102
238207
238307
238401
238489
237975
238087
238195
238300
238401
238495
237960
238071
238180
238288
238393
238494
237945
238053
238161
238268
238373
238477
237929
238032
238133
238236
238338
238441
237914
238008
238100
238194
238287
238382
237895
237975
238053
238134
238214
238298
237896
237953
238011
238072
238131
238194
237412
237476
237533
237590
237644
237697
237384
237457
237524
237593
237659
237723
237373
237455
237531
237606
237677
237745
237363
237450
237531
237611
237686
237758
237353
237445
237532
237615
237693
237766
237345
237439
237530
237615
237696
237770
237339
237435
237528
237615
237697
237772
237335
237431
237525
237613
237697
237775
237333
237429
237522
237611
237696
237776
237334
237427
237518
237607
237692
237774
237336
237426
237513
237599
237684
237766
237341
237425
237505
237588
237668
237747
237346
237419
237491
237567
237640
237713
237366
237431
237487
237546
237605
237666
236619
236655
236689
236723
236759
236793
236612
236657
236702
236748
236793
236836
236619
236671
236724
236775
236825
236872
236624
236682
236739
236795
236847
236898
236630
236692
236752
236810
236865
236916
236637
236701
236763
236822
236877
236927
236644
236709
236773
236831
236886
236934
236652
236718
236781
236839
236893
236941
236663
236728
236790
236847
236901
236947
236676
236739
236799
236856
236909
236955
236691
236752
236810
236866
236918
236966
236710
236768
236822
236876
236928
236976
236729
236783
236831
236883
236934
236983
236756
236805
236848
236895
236940
236985
235772
235778
235781
235787
235792
235796
235791
235800
235809
235819
235828
235837
235810
235825
235837
235852
235864
235876
235830
235849
235865
235882
235896
235910
235850
235872
235890
235909
235925
235939
235871
235894
235914
235934
235950
235964
235891
235915
235937
235956
235972
235985
235911
235935
235958
235977
235993
236003
235931
235956
235979
235997
236013
236022
235952
235977
236000
236018
236033
236042
235974
235999
236022
236040
236057
236067
235998
236023