/*--------------------------------*- C++ -*----------------------------------*\
| =========                 |                                                 |
| \\      /  F ield         | OpenFOAM: The Open Source CFD Toolbox           |
|  \\    /   O peration     | Version:  v2106                                 |
|   \\  /    A nd           | Website:  www.openfoam.com                      |
|    \\/     M anipulation  |                                                 |
\*---------------------------------------------------------------------------*/
FoamFile
{
    version     2.0;
    format      ascii;
    arch        "LSB;label=32;scalar=64";
    class       volScalarField;
    location    "0.00017";
    object      T;
}
// * * * * * * * * * * * * * * * * * * * * * * * * * * * * * * * * * * * * * //

dimensions      [0 0 0 1 0 0 0];

internalField   nonuniform List<scalar> 
17924
(
307.443
307.438
307.431
307.422
307.386
307.38
307.371
307.361
307.35
307.338
307.323
307.37
307.364
307.355
307.345
307.334
307.321
307.306
307.355
307.349
307.339
307.329
307.316
307.303
307.288
307.341
307.334
307.323
307.312
307.3
307.286
307.27
307.327
307.319
307.308
307.296
307.283
307.268
307.252
307.313
307.303
307.292
307.279
307.265
307.25
307.234
307.299
307.288
307.276
307.263
307.248
307.232
307.215
307.283
307.271
307.258
307.244
307.229
307.213
307.195
307.268
307.255
307.241
307.226
307.21
307.193
307.175
307.251
307.237
307.222
307.206
307.19
307.172
307.153
307.235
307.219
307.203
307.186
307.169
307.15
307.13
307.215
307.198
307.181
307.163
307.145
307.125
307.105
307.197
307.178
307.16
307.141
307.122
307.101
307.079
307.172
307.153
307.134
307.115
307.094
307.073
307.051
307.266
307.257
307.245
307.234
307.222
307.21
307.196
307.182
307.166
307.149
307.13
307.11
307.089
307.065
307.245
307.236
307.224
307.212
307.199
307.186
307.171
307.155
307.138
307.12
307.1
307.078
307.056
307.032
307.225
307.215
307.202
307.189
307.175
307.161
307.145
307.129
307.111
307.092
307.072
307.051
307.029
307.006
307.204
307.193
307.179
307.166
307.151
307.136
307.119
307.102
307.083
307.064
307.043
307.021
306.999
306.976
307.182
307.17
307.156
307.141
307.126
307.11
307.092
307.074
307.056
307.036
307.015
306.993
306.972
306.948
307.16
307.146
307.131
307.116
307.1
307.083
307.065
307.046
307.027
307.007
306.986
306.965
306.943
306.92
307.136
307.121
307.106
307.09
307.073
307.055
307.037
307.018
306.998
306.978
306.957
306.936
306.915
306.893
307.11
307.094
307.078
307.062
307.044
307.026
307.008
306.988
306.968
306.948
306.927
306.907
306.886
306.865
307.083
307.067
307.05
307.033
307.015
306.997
306.978
306.958
306.938
306.917
306.897
306.877
306.856
306.837
307.054
307.037
307.02
307.002
306.984
306.965
306.946
306.926
306.906
306.886
306.865
306.846
306.826
306.809
307.025
307.006
306.99
306.971
306.953
306.933
306.914
306.893
306.873
306.853
306.833
306.814
306.795
306.78
306.993
306.973
306.956
306.937
306.919
306.899
306.879
306.859
306.839
306.82
306.8
306.782
306.763
306.75
306.962
306.942
306.924
306.905
306.885
306.865
306.845
306.824
306.804
306.784
306.764
306.747
306.729
306.718
306.924
306.905
306.887
306.868
306.848
306.828
306.808
306.788
306.769
306.749
306.731
306.713
306.697
306.685
307.084
307.072
307.058
307.045
307.034
307.022
307.011
307
306.989
306.977
306.965
306.953
306.94
306.928
307.056
307.046
307.031
307.019
307.006
306.993
306.98
306.968
306.955
306.942
306.929
306.916
306.902
306.887
307.03
307.018
307.003
306.99
306.976
306.962
306.949
306.935
306.922
306.909
306.895
306.882
306.868
306.852
307.002
306.99
306.974
306.96
306.945
306.931
306.917
306.903
306.889
306.875
306.861
306.846
306.833
306.817
306.974
306.961
306.945
306.93
306.914
306.899
306.884
306.87
306.855
306.841
306.827
306.813
306.799
306.784
306.945
306.93
306.914
306.898
306.882
306.867
306.852
306.837
306.822
306.807
306.793
306.779
306.765
306.75
306.914
306.899
306.882
306.866
306.85
306.834
306.819
306.803
306.788
306.774
306.76
306.746
306.732
306.718
306.882
306.865
306.849
306.833
306.817
306.801
306.785
306.77
306.755
306.741
306.726
306.713
306.699
306.687
306.849
306.832
306.816
306.799
306.783
306.767
306.752
306.736
306.722
306.707
306.694
306.681
306.668
306.657
306.814
306.796
306.781
306.764
306.749
306.733
306.717
306.702
306.688
306.674
306.661
306.648
306.636
306.627
306.779
306.761
306.746
306.73
306.714
306.698
306.683
306.668
306.654
306.641
306.628
306.617
306.605
306.598
306.743
306.724
306.71
306.693
306.678
306.663
306.648
306.634
306.62
306.607
306.595
306.585
306.574
306.569
306.708
306.69
306.675
306.659
306.643
306.628
306.613
306.599
306.586
306.574
306.562
306.553
306.544
306.541
306.667
306.651
306.636
306.621
306.606
306.592
306.578
306.565
306.552
306.541
306.53
306.521
306.514
306.512
306.851
306.839
306.826
306.816
306.806
306.798
306.79
306.784
306.778
306.773
306.769
306.765
306.762
306.76
306.82
306.81
306.797
306.786
306.776
306.766
306.758
306.751
306.744
306.738
306.733
306.729
306.726
306.72
306.789
306.78
306.766
306.755
306.744
306.734
306.725
306.718
306.711
306.704
306.699
306.694
306.691
306.685
306.758
306.748
306.735
306.723
306.712
306.702
306.693
306.684
306.677
306.67
306.665
306.66
306.656
306.649
306.727
306.716
306.703
306.691
306.679
306.669
306.66
306.651
306.644
306.637
306.631
306.626
306.622
306.616
306.696
306.684
306.67
306.658
306.647
306.637
306.627
306.619
306.611
306.604
306.599
306.593
306.589
306.584
306.664
306.651
306.638
306.626
306.615
306.604
306.595
306.587
306.579
306.573
306.567
306.562
306.558
306.554
306.631
306.618
306.605
306.594
306.583
306.572
306.563
306.555
306.548
306.542
306.536
306.532
306.527
306.524
306.599
306.585
306.573
306.561
306.551
306.541
306.532
306.524
306.517
306.512
306.506
306.502
306.499
306.496
306.566
306.552
306.541
306.53
306.519
306.51
306.502
306.494
306.488
306.482
306.477
306.474
306.47
306.47
306.534
306.52
306.509
306.498
306.489
306.48
306.472
306.465
306.459
306.454
306.45
306.447
306.444
306.445
306.502
306.487
306.477
306.467
306.458
306.45
306.442
306.436
306.431
306.427
306.423
306.42
306.418
306.42
306.47
306.457
306.447
306.437
306.429
306.421
306.414
306.408
306.404
306.4
306.397
306.396
306.394
306.397
306.436
306.425
306.415
306.407
306.399
306.392
306.386
306.381
306.377
306.374
306.372
306.371
306.371
306.373
306.586
306.579
306.571
306.565
306.56
306.556
306.553
306.552
306.551
306.552
306.554
306.558
306.564
306.569
306.555
306.55
306.543
306.537
306.532
306.528
306.525
306.524
306.523
306.524
306.526
306.529
306.534
306.536
306.527
306.522
306.514
306.509
306.504
306.5
306.497
306.495
306.495
306.495
306.497
306.499
306.505
306.506
306.498
306.493
306.486
306.481
306.476
306.472
306.469
306.467
306.467
306.467
306.469
306.471
306.476
306.477
306.47
306.465
306.458
306.452
306.448
306.444
306.441
306.44
306.439
306.44
306.442
306.444
306.448
306.45
306.443
306.436
306.43
306.425
306.42
306.417
306.414
306.413
306.413
306.413
306.415
306.418
306.421
306.424
306.416
306.409
306.403
306.398
306.394
306.39
306.388
306.387
306.387
306.388
306.39
306.392
306.396
306.399
306.389
306.382
306.377
306.372
306.368
306.365
306.363
306.363
306.363
306.364
306.365
306.368
306.371
306.375
306.364
306.356
306.351
306.346
306.343
306.341
306.339
306.339
306.339
306.34
306.342
306.345
306.348
306.353
306.339
306.331
306.326
306.322
306.319
306.317
306.316
306.316
306.317
306.318
306.32
306.323
306.326
306.331
306.314
306.306
306.302
306.298
306.296
306.294
306.294
306.294
306.295
306.297
306.3
306.303
306.306
306.312
306.29
306.283
306.279
306.275
306.273
306.272
306.272
306.273
306.275
306.277
306.28
306.284
306.287
306.293
306.268
306.26
306.257
306.254
306.252
306.252
306.252
306.254
306.256
306.259
306.262
306.266
306.271
306.277
306.244
306.238
306.235
306.233
306.232
306.232
306.233
306.235
306.238
306.242
306.246
306.25
306.255
306.261
306.3
306.301
306.3
306.301
306.302
306.304
306.306
306.31
306.314
306.319
306.325
306.333
306.342
306.353
306.278
306.279
306.279
306.28
306.282
306.284
306.287
306.291
306.295
306.301
306.308
306.315
306.324
306.332
306.259
306.26
306.259
306.261
306.262
306.265
306.268
306.272
306.276
306.282
306.289
306.296
306.305
306.312
306.239
306.24
306.239
306.241
306.243
306.246
306.249
306.253
306.258
306.264
306.27
306.278
306.286
306.293
306.219
306.22
306.22
306.222
306.224
306.227
306.231
306.235
306.24
306.246
306.253
306.26
306.268
306.276
306.201
306.202
306.202
306.204
306.207
306.21
306.213
306.218
306.223
306.229
306.235
306.243
306.25
306.258
306.183
306.183
306.185
306.187
306.189
306.192
306.196
306.201
306.206
306.212
306.219
306.226
306.233
306.241
306.165
306.166
306.167
306.17
306.173
306.176
306.18
306.185
306.19
306.196
306.203
306.21
306.217
306.225
306.149
306.149
306.151
306.153
306.156
306.16
306.165
306.17
306.175
306.181
306.188
306.194
306.201
306.209
306.132
306.133
306.135
306.137
306.141
306.145
306.15
306.155
306.161
306.167
306.173
306.18
306.187
306.195
306.117
306.117
306.12
306.123
306.126
306.131
306.136
306.141
306.147
306.153
306.16
306.167
306.173
306.181
306.103
306.103
306.106
306.109
306.113
306.117
306.123
306.128
306.134
306.141
306.147
306.154
306.161
306.169
306.089
306.09
306.092
306.096
306.1
306.105
306.111
306.117
306.123
306.13
306.137
306.144
306.151
306.159
306.076
306.077
306.08
306.084
306.089
306.094
306.1
306.106
306.112
306.119
306.127
306.134
306.141
306.149
306
306.007
306.014
306.02
306.027
306.034
306.041
306.048
306.056
306.063
306.071
306.08
306.089
306.1
305.991
305.998
306.005
306.012
306.019
306.026
306.034
306.041
306.049
306.057
306.066
306.075
306.084
306.095
305.983
305.99
305.997
306.004
306.011
306.018
306.026
306.033
306.041
306.05
306.059
306.068
306.078
306.088
305.974
305.982
305.988
305.996
306.003
306.011
306.018
306.026
306.034
306.042
306.051
306.061
306.07
306.08
305.966
305.974
305.98
305.988
305.995
306.003
306.011
306.019
306.027
306.035
306.044
306.053
306.063
306.072
305.958
305.965
305.972
305.98
305.988
305.996
306.004
306.012
306.02
306.028
306.037
306.046
306.055
306.064
305.951
305.958
305.965
305.972
305.98
305.988
305.996
306.005
306.013
306.021
306.03
306.038
306.047
306.057
305.943
305.95
305.957
305.965
305.973
305.981
305.989
305.997
306.006
306.014
306.022
306.031
306.04
306.049
305.936
305.943
305.95
305.958
305.966
305.974
305.982
305.99
305.999
306.007
306.015
306.024
306.032
306.041
305.929
305.936
305.943
305.951
305.959
305.967
305.975
305.983
305.992
306
306.008
306.017
306.025
306.034
305.922
305.929
305.937
305.944
305.952
305.96
305.969
305.977
305.985
305.993
306.002
306.01
306.018
306.027
305.917
305.923
305.931
305.939
305.947
305.955
305.963
305.971
305.979
305.988
305.996
306.004
306.012
306.021
305.911
305.918
305.926
305.933
305.941
305.95
305.958
305.966
305.975
305.983
305.991
305.999
306.007
306.015
305.907
305.914
305.922
305.93
305.937
305.946
305.954
305.962
305.97
305.978
305.986
305.994
306.002
306.01
305.684
305.695
305.705
305.715
305.725
305.734
305.743
305.752
305.761
305.769
305.778
305.786
305.794
305.803
305.685
305.696
305.706
305.717
305.727
305.737
305.747
305.756
305.765
305.774
305.782
305.791
305.799
305.808
305.688
305.699
305.709
305.72
305.73
305.74
305.75
305.759
305.768
305.777
305.786
305.794
305.803
305.812
305.69
305.701
305.712
305.722
305.733
305.743
305.753
305.762
305.772
305.78
305.789
305.798
305.806
305.815
305.693
305.703
305.714
305.725
305.735
305.745
305.755
305.765
305.774
305.783
305.791
305.8
305.808
305.817
305.694
305.705
305.716
305.726
305.737
305.747
305.757
305.767
305.776
305.785
305.794
305.802
305.811
305.819
305.696
305.706
305.717
305.728
305.739
305.749
305.759
305.768
305.778
305.786
305.795
305.803
305.812
305.82
305.697
305.708
305.718
305.729
305.74
305.75
305.76
305.769
305.779
305.787
305.796
305.804
305.813
305.821
305.698
305.709
305.719
305.73
305.74
305.75
305.76
305.77
305.779
305.788
305.796
305.805
305.813
305.821
305.699
305.71
305.72
305.731
305.741
305.751
305.761
305.77
305.779
305.788
305.796
305.805
305.813
305.821
305.7
305.711
305.721
305.731
305.741
305.751
305.761
305.77
305.779
305.788
305.796
305.804
305.813
305.82
305.701
305.712
305.722
305.733
305.742
305.752
305.761
305.77
305.779
305.788
305.796
305.804
305.812
305.82
305.702
305.713
305.723
305.734
305.743
305.753
305.762
305.771
305.78
305.788
305.796
305.804
305.812
305.819
305.706
305.716
305.726
305.736
305.745
305.754
305.763
305.772
305.78
305.788
305.796
305.803
305.811
305.819
305.351
305.361
305.371
305.381
305.391
305.4
305.41
305.418
305.426
305.434
305.441
305.447
305.453
305.461
305.36
305.369
305.38
305.391
305.401
305.411
305.42
305.429
305.438
305.445
305.453
305.459
305.465
305.473
305.369
305.379
305.391
305.401
305.412
305.421
305.431
305.44
305.448
305.456
305.463
305.469
305.476
305.482
305.378
305.388
305.4
305.41
305.421
305.431
305.441
305.45
305.458
305.466
305.473
305.48
305.486
305.493
305.387
305.398
305.409
305.42
305.431
305.441
305.45
305.459
305.467
305.475
305.483
305.489
305.496
305.502
305.395
305.406
305.418
305.428
305.439
305.449
305.459
305.468
305.476
305.484
305.491
305.498
305.505
305.511
305.402
305.414
305.425
305.436
305.447
305.457
305.466
305.476
305.484
305.492
305.499
305.506
305.513
305.519
305.41
305.422
305.433
305.444
305.454
305.464
305.474
305.483
305.491
305.499
305.507
305.513
305.52
305.526
305.417
305.429
305.44
305.451
305.461
305.471
305.48
305.489
305.498
305.505
305.513
305.52
305.527
305.532
305.424
305.436
305.447
305.457
305.467
305.477
305.486
305.495
305.503
305.511
305.519
305.526
305.532
305.538
305.43
305.442
305.453
305.463
305.473
305.483
305.492
305.501
305.509
305.517
305.524
305.531
305.538
305.543
305.437
305.449
305.459
305.47
305.479
305.489
305.498
305.506
305.514
305.521
305.528
305.535
305.542
305.548
305.443
305.455
305.465
305.475
305.485
305.494
305.503
305.511
305.518
305.526
305.533
305.539
305.546
305.552
305.451
305.462
305.472
305.482
305.491
305.499
305.507
305.515
305.522
305.529
305.536
305.543
305.549
305.556
305.015
305.021
305.029
305.037
305.044
305.051
305.058
305.065
305.07
305.076
305.081
305.085
305.089
305.094
305.025
305.032
305.041
305.048
305.056
305.064
305.071
305.077
305.083
305.089
305.094
305.098
305.102
305.107
305.037
305.044
305.053
305.061
305.069
305.076
305.083
305.09
305.096
305.101
305.106
305.111
305.114
305.119
305.048
305.056
305.064
305.072
305.081
305.088
305.095
305.102
305.108
305.114
305.119
305.123
305.127
305.131
305.058
305.067
305.076
305.084
305.092
305.1
305.107
305.114
305.12
305.126
305.131
305.135
305.139
305.143
305.069
305.078
305.087
305.095
305.103
305.111
305.118
305.125
305.131
305.137
305.142
305.147
305.151
305.154
305.079
305.088
305.097
305.106
305.114
305.122
305.129
305.136
305.142
305.148
305.153
305.157
305.162
305.165
305.089
305.099
305.108
305.116
305.124
305.132
305.139
305.146
305.152
305.158
305.163
305.168
305.172
305.176
305.099
305.109
305.117
305.126
305.134
305.142
305.149
305.156
305.162
305.167
305.173
305.177
305.182
305.185
305.109
305.118
305.127
305.136
305.143
305.151
305.158
305.165
305.171
305.176
305.182
305.186
305.191
305.195
305.118
305.127
305.136
305.145
305.152
305.16
305.167
305.173
305.179
305.185
305.19
305.195
305.199
305.203
305.127
305.137
305.145
305.153
305.161
305.168
305.175
305.181
305.187
305.193
305.198
305.202
305.207
305.211
305.136
305.145
305.153
305.161
305.169
305.176
305.182
305.188
305.194
305.2
305.205
305.209
305.213
305.217
305.145
305.154
305.162
305.169
305.176
305.183
305.189
305.195
305.201
305.206
305.21
305.215
305.22
305.224
304.693
304.696
304.701
304.705
304.709
304.713
304.716
304.72
304.723
304.726
304.728
304.73
304.732
304.735
304.703
304.706
304.71
304.715
304.719
304.723
304.726
304.73
304.733
304.736
304.739
304.741
304.743
304.746
304.712
304.715
304.72
304.725
304.729
304.733
304.737
304.74
304.743
304.746
304.749
304.751
304.753
304.755
304.721
304.725
304.73
304.735
304.739
304.743
304.747
304.75
304.754
304.757
304.759
304.761
304.763
304.766
304.73
304.735
304.74
304.744
304.749
304.753
304.757
304.76
304.764
304.767
304.769
304.772
304.773
304.775
304.74
304.745
304.75
304.754
304.759
304.763
304.767
304.77
304.774
304.777
304.779
304.782
304.784
304.785
304.749
304.754
304.759
304.764
304.769
304.773
304.777
304.78
304.784
304.787
304.789
304.792
304.794
304.795
304.758
304.764
304.769
304.774
304.778
304.782
304.786
304.79
304.793
304.796
304.799
304.801
304.803
304.805
304.767
304.773
304.778
304.783
304.787
304.792
304.796
304.799
304.802
304.805
304.808
304.81
304.813
304.814
304.776
304.782
304.787
304.792
304.796
304.801
304.804
304.808
304.811
304.814
304.817
304.819
304.821
304.823
304.785
304.791
304.795
304.8
304.805
304.809
304.813
304.817
304.82
304.823
304.825
304.828
304.83
304.831
304.794
304.799
304.804
304.809
304.813
304.817
304.821
304.825
304.828
304.831
304.833
304.835
304.838
304.839
304.802
304.807
304.812
304.816
304.821
304.825
304.828
304.832
304.835
304.838
304.84
304.843
304.845
304.846
304.81
304.816
304.82
304.824
304.828
304.832
304.835
304.839
304.842
304.844
304.847
304.849
304.851
304.854
304.395
304.395
304.397
304.398
304.399
304.4
304.401
304.402
304.402
304.403
304.404
304.404
304.404
304.405
304.401
304.402
304.403
304.404
304.405
304.406
304.407
304.408
304.409
304.409
304.41
304.41
304.411
304.412
304.407
304.408
304.409
304.41
304.411
304.412
304.413
304.414
304.415
304.416
304.416
304.417
304.417
304.418
304.413
304.414
304.415
304.417
304.418
304.419
304.42
304.421
304.421
304.422
304.423
304.423
304.423
304.424
304.419
304.42
304.422
304.423
304.424
304.425
304.426
304.427
304.428
304.428
304.429
304.429
304.429
304.43
304.425
304.427
304.428
304.43
304.431
304.432
304.433
304.434
304.434
304.435
304.435
304.436
304.436
304.436
304.432
304.433
304.435
304.436
304.437
304.438
304.439
304.44
304.441
304.441
304.442
304.442
304.442
304.442
304.438
304.44
304.441
304.443
304.444
304.445
304.446
304.447
304.447
304.448
304.448
304.449
304.449
304.448
304.444
304.446
304.447
304.449
304.45
304.451
304.452
304.453
304.454
304.454
304.455
304.455
304.455
304.455
304.45
304.452
304.454
304.455
304.456
304.457
304.458
304.459
304.46
304.46
304.461
304.461
304.461
304.461
304.456
304.458
304.459
304.461
304.462
304.463
304.464
304.465
304.466
304.466
304.467
304.467
304.467
304.467
304.462
304.464
304.465
304.467
304.468
304.469
304.47
304.471
304.472
304.472
304.472
304.473
304.473
304.472
304.467
304.469
304.471
304.472
304.473
304.474
304.475
304.476
304.477
304.477
304.478
304.478
304.478
304.478
304.473
304.475
304.476
304.477
304.478
304.479
304.48
304.481
304.482
304.482
304.483
304.483
304.483
304.483
304.114
304.114
304.114
304.113
304.113
304.112
304.111
304.111
304.11
304.109
304.108
304.107
304.106
304.106
304.118
304.117
304.117
304.116
304.116
304.115
304.114
304.114
304.113
304.112
304.111
304.11
304.109
304.108
304.121
304.12
304.12
304.119
304.119
304.118
304.117
304.116
304.116
304.115
304.114
304.113
304.112
304.111
304.124
304.123
304.123
304.122
304.122
304.121
304.12
304.119
304.119
304.118
304.117
304.116
304.115
304.114
304.127
304.126
304.126
304.125
304.125
304.124
304.123
304.122
304.122
304.121
304.12
304.119
304.117
304.116
304.13
304.13
304.129
304.129
304.128
304.127
304.126
304.125
304.125
304.124
304.123
304.122
304.12
304.119
304.133
304.133
304.132
304.132
304.131
304.13
304.129
304.128
304.128
304.127
304.126
304.124
304.123
304.122
304.136
304.136
304.135
304.135
304.134
304.133
304.132
304.131
304.13
304.129
304.128
304.127
304.126
304.125
304.139
304.139
304.138
304.137
304.137
304.136
304.135
304.134
304.133
304.132
304.131
304.13
304.129
304.127
304.142
304.141
304.141
304.14
304.139
304.139
304.138
304.137
304.136
304.135
304.134
304.133
304.132
304.13
304.144
304.144
304.143
304.143
304.142
304.141
304.141
304.14
304.139
304.138
304.137
304.136
304.134
304.132
304.146
304.146
304.146
304.145
304.145
304.144
304.143
304.142
304.141
304.14
304.139
304.138
304.137
304.135
304.148
304.148
304.148
304.147
304.147
304.146
304.146
304.145
304.144
304.143
304.142
304.141
304.139
304.137
304.15
304.15
304.15
304.149
304.149
304.148
304.148
304.147
304.146
304.145
304.144
304.143
304.142
304.14
303.843
303.843
303.842
303.842
303.841
303.84
303.839
303.837
303.836
303.834
303.833
303.831
303.83
303.828
303.845
303.845
303.844
303.843
303.842
303.841
303.84
303.838
303.837
303.835
303.834
303.832
303.83
303.829
303.846
303.846
303.845
303.844
303.843
303.842
303.841
303.839
303.838
303.836
303.835
303.833
303.831
303.829
303.848
303.847
303.846
303.845
303.844
303.843
303.842
303.84
303.839
303.837
303.836
303.834
303.832
303.83
303.849
303.848
303.847
303.846
303.845
303.844
303.843
303.841
303.84
303.838
303.836
303.835
303.833
303.831
303.849
303.849
303.848
303.847
303.846
303.845
303.843
303.842
303.84
303.839
303.837
303.835
303.833
303.831
303.85
303.849
303.848
303.847
303.846
303.845
303.844
303.842
303.841
303.839
303.837
303.836
303.834
303.832
303.851
303.85
303.849
303.848
303.847
303.846
303.844
303.843
303.841
303.84
303.838
303.836
303.834
303.832
303.851
303.85
303.849
303.848
303.847
303.846
303.844
303.843
303.842
303.84
303.838
303.836
303.834
303.832
303.851
303.85
303.849
303.848
303.847
303.846
303.845
303.843
303.842
303.84
303.838
303.836
303.834
303.832
303.851
303.85
303.849
303.848
303.847
303.846
303.845
303.843
303.842
303.84
303.838
303.837
303.834
303.832
303.85
303.85
303.849
303.848
303.847
303.846
303.845
303.843
303.842
303.84
303.838
303.837
303.834
303.832
303.85
303.849
303.848
303.848
303.847
303.846
303.844
303.843
303.842
303.84
303.838
303.837
303.835
303.832
303.849
303.848
303.847
303.847
303.846
303.845
303.844
303.843
303.842
303.84
303.839
303.837
303.835
303.832
303.578
303.578
303.578
303.578
303.577
303.577
303.576
303.574
303.573
303.571
303.57
303.568
303.566
303.564
303.579
303.579
303.579
303.579
303.578
303.577
303.576
303.575
303.574
303.572
303.57
303.568
303.566
303.564
303.58
303.58
303.579
303.579
303.578
303.578
303.577
303.575
303.574
303.572
303.571
303.569
303.567
303.564
303.58
303.58
303.58
303.579
303.579
303.578
303.577
303.576
303.574
303.572
303.571
303.569
303.567
303.565
303.58
303.58
303.58
303.579
303.579
303.578
303.577
303.575
303.574
303.572
303.571
303.569
303.567
303.564
303.58
303.58
303.579
303.579
303.578
303.577
303.576
303.575
303.574
303.572
303.57
303.568
303.566
303.564
303.579
303.579
303.579
303.578
303.578
303.577
303.576
303.575
303.573
303.572
303.57
303.568
303.566
303.563
303.579
303.578
303.578
303.578
303.577
303.576
303.575
303.574
303.572
303.571
303.569
303.567
303.565
303.562
303.578
303.577
303.577
303.577
303.576
303.575
303.574
303.573
303.571
303.57
303.568
303.566
303.564
303.561
303.576
303.576
303.576
303.575
303.575
303.574
303.573
303.572
303.57
303.569
303.567
303.565
303.563
303.56
303.575
303.575
303.574
303.574
303.573
303.573
303.572
303.57
303.569
303.567
303.566
303.564
303.561
303.559
303.573
303.573
303.573
303.572
303.572
303.571
303.57
303.569
303.568
303.566
303.564
303.562
303.56
303.558
303.571
303.571
303.571
303.57
303.57
303.569
303.568
303.567
303.566
303.564
303.563
303.561
303.559
303.556
303.569
303.569
303.569
303.568
303.568
303.567
303.567
303.566
303.564
303.563
303.561
303.559
303.557
303.555
303.322
303.322
303.323
303.323
303.323
303.323
303.322
303.321
303.32
303.319
303.318
303.316
303.314
303.312
303.322
303.323
303.323
303.323
303.323
303.323
303.323
303.322
303.321
303.32
303.318
303.316
303.315
303.313
303.323
303.323
303.324
303.324
303.324
303.323
303.323
303.322
303.321
303.32
303.318
303.317
303.315
303.313
303.323
303.323
303.324
303.324
303.324
303.324
303.323
303.322
303.321
303.32
303.319
303.317
303.315
303.313
303.323
303.323
303.324
303.324
303.324
303.323
303.323
303.322
303.321
303.32
303.318
303.317
303.315
303.313
303.322
303.323
303.323
303.323
303.323
303.323
303.322
303.322
303.321
303.319
303.318
303.316
303.315
303.313
303.321
303.322
303.322
303.323
303.323
303.322
303.322
303.321
303.32
303.319
303.317
303.316
303.314
303.312
303.321
303.321
303.321
303.322
303.322
303.321
303.321
303.32
303.319
303.318
303.316
303.315
303.313
303.311
303.319
303.32
303.32
303.32
303.32
303.32
303.32
303.319
303.318
303.317
303.315
303.314
303.312
303.31
303.318
303.318
303.319
303.319
303.319
303.319
303.318
303.318
303.317
303.315
303.314
303.312
303.31
303.309
303.316
303.317
303.317
303.317
303.317
303.317
303.317
303.316
303.315
303.314
303.312
303.311
303.309
303.307
303.314
303.315
303.315
303.316
303.316
303.315
303.315
303.314
303.313
303.312
303.311
303.309
303.307
303.305
303.312
303.313
303.313
303.314
303.314
303.313
303.313
303.312
303.311
303.31
303.309
303.307
303.305
303.304
303.31
303.31
303.311
303.311
303.311
303.311
303.311
303.31
303.309
303.308
303.307
303.305
303.304
303.302
303.081
303.082
303.082
303.083
303.083
303.083
303.082
303.082
303.082
303.081
303.08
303.079
303.078
303.076
303.081
303.082
303.082
303.083
303.083
303.083
303.083
303.083
303.082
303.081
303.08
303.079
303.078
303.077
303.081
303.082
303.083
303.083
303.083
303.083
303.083
303.083
303.082
303.082
303.081
303.08
303.078
303.077
303.081
303.082
303.083
303.083
303.083
303.083
303.083
303.083
303.082
303.082
303.081
303.08
303.079
303.077
303.081
303.082
303.083
303.083
303.083
303.083
303.083
303.083
303.082
303.082
303.081
303.08
303.079
303.077
303.081
303.082
303.082
303.083
303.083
303.083
303.083
303.083
303.082
303.081
303.081
303.079
303.078
303.077
303.081
303.081
303.082
303.082
303.083
303.083
303.083
303.082
303.082
303.081
303.08
303.079
303.078
303.077
303.08
303.081
303.081
303.082
303.082
303.082
303.082
303.082
303.081
303.08
303.08
303.078
303.077
303.076
303.079
303.08
303.08
303.081
303.081
303.081
303.081
303.081
303.08
303.08
303.079
303.078
303.077
303.075
303.078
303.079
303.08
303.08
303.08
303.08
303.08
303.08
303.079
303.079
303.078
303.077
303.076
303.074
303.077
303.078
303.078
303.079
303.079
303.079
303.079
303.079
303.078
303.077
303.077
303.076
303.074
303.073
303.076
303.077
303.077
303.077
303.078
303.078
303.078
303.077
303.077
303.076
303.075
303.074
303.073
303.072
303.075
303.075
303.076
303.076
303.076
303.076
303.076
303.076
303.075
303.075
303.074
303.073
303.072
303.071
303.073
303.074
303.074
303.075
303.075
303.075
303.075
303.074
303.074
303.073
303.072
303.072
303.071
303.069
302.862
302.862
302.862
302.862
302.862
302.862
302.862
302.862
302.862
302.861
302.861
302.861
302.861
302.86
302.861
302.861
302.862
302.862
302.862
302.862
302.862
302.862
302.861
302.861
302.861
302.861
302.86
302.86
302.861
302.861
302.861
302.862
302.862
302.862
302.862
302.861
302.861
302.861
302.861
302.861
302.86
302.86
302.861
302.861
302.861
302.861
302.861
302.861
302.861
302.861
302.861
302.861
302.861
302.86
302.86
302.86
302.861
302.861
302.861
302.861
302.861
302.861
302.861
302.861
302.861
302.861
302.861
302.86
302.86
302.86
302.86
302.861
302.861
302.861
302.861
302.861
302.861
302.861
302.861
302.861
302.86
302.86
302.86
302.86
302.86
302.86
302.861
302.861
302.861
302.861
302.861
302.861
302.861
302.86
302.86
302.86
302.86
302.859
302.86
302.86
302.86
302.86
302.861
302.861
302.861
302.86
302.86
302.86
302.86
302.86
302.86
302.859
302.86
302.86
302.86
302.86
302.86
302.86
302.86
302.86
302.86
302.86
302.86
302.859
302.859
302.859
302.859
302.86
302.86
302.86
302.86
302.86
302.86
302.86
302.86
302.859
302.859
302.859
302.859
302.859
302.859
302.859
302.859
302.859
302.859
302.859
302.859
302.859
302.859
302.859
302.859
302.859
302.858
302.858
302.859
302.859
302.859
302.859
302.859
302.859
302.859
302.859
302.859
302.859
302.858
302.858
302.858
302.858
302.859
302.858
302.859
302.859
302.859
302.859
302.858
302.858
302.858
302.858
302.858
302.858
302.858
302.858
302.858
302.858
302.858
302.858
302.858
302.858
302.858
302.858
302.858
302.858
302.857
302.857
302.857
302.857
302.665
302.665
302.664
302.664
302.663
302.663
302.663
302.663
302.663
302.663
302.663
302.664
302.664
302.664
302.663
302.663
302.662
302.662
302.662
302.662
302.662
302.662
302.663
302.663
302.664
302.663
302.662
302.662
302.662
302.661
302.661
302.661
302.661
302.662
302.662
302.662
302.663
302.662
302.662
302.661
302.661
302.661
302.661
302.661
302.661
302.661
302.661
302.662
302.663
302.662
302.661
302.661
302.661
302.66
302.66
302.66
302.66
302.66
302.661
302.661
302.662
302.662
302.661
302.661
302.66
302.66
302.66
302.66
302.66
302.66
302.66
302.661
302.662
302.661
302.661
302.66
302.66
302.66
302.66
302.66
302.66
302.66
302.66
302.661
302.662
302.661
302.661
302.66
302.66
302.66
302.659
302.659
302.66
302.66
302.66
302.661
302.662
302.661
302.661
302.66
302.66
302.66
302.659
302.659
302.66
302.66
302.66
302.661
302.662
302.661
302.661
302.66
302.66
302.66
302.66
302.66
302.66
302.66
302.66
302.661
302.662
302.662
302.661
302.661
302.66
302.66
302.66
302.66
302.66
302.66
302.661
302.661
302.663
302.662
302.662
302.661
302.661
302.66
302.66
302.66
302.66
302.661
302.661
302.661
302.663
302.663
302.662
302.662
302.661
302.661
302.661
302.661
302.661
302.661
302.661
302.662
302.664
302.663
302.663
302.662
302.662
302.662
302.661
302.661
302.661
302.662
302.662
302.662
307.452
307.46
307.468
307.476
307.483
307.491
307.45
307.462
307.474
307.487
307.499
307.512
307.445
307.461
307.477
307.494
307.511
307.528
307.438
307.455
307.475
307.495
307.515
307.537
307.398
307.409
307.419
307.428
307.437
307.445
307.394
307.408
307.422
307.436
307.448
307.459
307.388
307.406
307.424
307.441
307.458
307.474
307.381
307.402
307.423
307.444
307.464
307.485
307.371
307.395
307.418
307.443
307.467
307.491
307.359
307.384
307.409
307.436
307.462
307.489
307.345
307.37
307.395
307.422
307.449
307.477
307.283
307.299
307.312
307.326
307.337
307.349
307.275
307.295
307.311
307.328
307.342
307.355
307.267
307.29
307.31
307.33
307.347
307.363
307.259
307.285
307.308
307.331
307.352
307.372
307.249
307.278
307.305
307.332