/*--------------------------------*- C++ -*----------------------------------*\
| =========                 |                                                 |
| \\      /  F ield         | OpenFOAM: The Open Source CFD Toolbox           |
|  \\    /   O peration     | Version:  v2106                                 |
|   \\  /    A nd           | Website:  www.openfoam.com                      |
|    \\/     M anipulation  |                                                 |
\*---------------------------------------------------------------------------*/
FoamFile
{
    version     2.0;
    format      ascii;
    arch        "LSB;label=32;scalar=64";
    class       volScalarField;
    location    "0.000156";
    object      epsilon;
}
// * * * * * * * * * * * * * * * * * * * * * * * * * * * * * * * * * * * * * //

dimensions      [0 2 -3 0 0 0 0];

internalField   nonuniform List<scalar> 
18109
(
4498.06
1205.21
232.108
41.6257
15.5834
12.6022
14.9665
3353.66
721.723
86.0703
7.86142
1.3236
0.965111
1.39114
2309.12
428.512
42.3945
3.53138
0.435443
0.0903521
0.0815759
1523.1
265.36
32.26
3.96752
0.613332
0.0841225
0.0114707
940.168
173.057
29.0163
4.66191
0.738291
0.099563
0.0112804
623.1
135.607
28.4531
4.94748
0.747888
0.101275
0.0144302
501.971
132.348
30.1876
5.15234
0.764385
0.123636
0.0431148
531.046
152.528
34.2975
5.67603
0.973433
0.286826
0.227845
1793.55
419.344
64.1003
7.85663
2.32775
2.07916
2.66227
3.71194
5.4421
9.03498
18.1673
40.729
95.191
232.895
1144.15
221.012
23.221
1.55934
0.179747
0.123621
0.195501
0.326875
0.518422
0.863038
1.85426
5.26262
18.3563
73.4308
693.518
117.449
12.2918
0.962202
0.10947
0.0161375
0.00957623
0.0170157
0.0317174
0.0656736
0.233019
1.23236
6.75387
33.0918
415.812
70.333
9.67053
1.21991
0.163091
0.01932
0.00205481
0.000620948
0.00143106
0.0081687
0.0643413
0.46857
2.89546
14.7984
253.103
48.7296
8.89924
1.45146
0.196218
0.0227868
0.00220572
0.00023014
0.000288187
0.00266122
0.0249169
0.194191
1.24664
6.60072
182.327
42.1591
8.9848
1.55838
0.199112
0.022615
0.00264314
0.000792473
0.000740984
0.00188813
0.0134235
0.105204
0.703629
3.93941
168.621
44.6192
9.83375
1.65116
0.201818
0.0263434
0.00767139
0.00638982
0.0065168
0.00762708
0.0174438
0.0954875
0.629221
3.70969
197.414
53.7572
11.3744
1.80668
0.237706
0.0582259
0.0445121
0.0469965
0.049616
0.0546478
0.0747929
0.194165
0.972558
5.51182
257.155
67.2615
13.6831
2.21021
0.441025
0.246029
0.256851
0.282454
0.305338
0.343119
0.430472
0.746043
2.4795
11.955
345.925
89.1034
19.4193
4.09117
1.48906
1.18371
1.27693
1.41435
1.56198
1.80576
2.25003
3.34084
8.30611
33.0811
497.27
150.036
42.9745
13.9108
6.61559
5.31408
5.47792
6.02568
6.78178
8.07047
10.1732
14.0872
28.7952
96.0319
933.067
396.536
157.785
63.1209
30.6555
21.9323
20.7563
22.2667
25.3324
30.9153
39.7692
53.3538
93.5782
261.3
2252.74
1228.06
601.669
278.904
134.835
84.271
71.0405
72.5398
82.3236
102.281
135.2
180.943
281.876
648.482
5212.99
3372.25
1972.17
1061.8
539.622
305.682
224.903
211.511
233.925
291.292
396.516
541.8
779.829
1422.46
6285.21
10533.6
19780.9
34045.9
51818.6
71150.4
2407.85
4726.57
10317
20361.4
34941.9
51138.7
763.729
2065.72
5807.92
13293.1
24455
37626.7
203.853
909.092
3143.38
7922.03
15553.9
25972.3
64.3452
404.818
1627.38
4546.65
9724.64
17843.1
29.3668
204.376
906.842
2774.97
6487.88
13159.2
21.5894
144.208
643.221
2040.79
5122.06
11585.3
22.8872
139.801
594.472
1915.93
5252.65
13854.3
28.2661
161.373
677.188
2315.65
7181.15
21611.2
39.7369
221.563
960.671
3551.21
11817.6
35396.2
65.6495
362.553
1601.93
5922.91
18614.1
49442.1
126.334
648.637
2684.48
9010.72
24605.3
55329.1
257.935
1159.19
4105.09
11552.9
26481.5
50339.6
518.636
1880.36
5439.32
12763.7
25026
41821.3
1050.58
2829.9
6551.34
12981.6
22514.5
34546
442.285
1470.86
4081.87
9198.81
17131.4
27014.8
282.369
926.124
2621.71
6156.65
12036.7
19961.7
134.912
466.957
1403.85
3538.22
7518.35
13819.4
62.3739
231.091
738.895
2013.03
4734.16
9594.36
29.1747
118.524
417.255
1258.22
3246.26
7154.3
18.7288
83.344
316.239
1011.89
2744.38
6527.79
18.6617
87.0544
338.91
1116.29
3220.03
8575.13
27.5385
128.801
508.131
1744.25
5407.05
15534.4
55.3996
251.381
987.358
3412.21
10492.2
28535.6
137.014
572.941
2091.05
6652.38
18342.8
43384.8
350.303
1282.13
4085.86
11156.1
26035.4
51902.4
842.057
2598.96
6835.54
15437.4
30156.8
51020.5
1820.29
4480.63
9639
18191.7
30468.6
45540.2
3486.08
6812.46
12155.6
19751.4
29507.2
40689
2514.21
5319.07
10052.5
16896.2
25591
35400.9
1956.13
4166.78
7935.84
13526.6
20818.5
29571.1
1404.47
3037.03
5867.6
10211
16370.5
24669.8
994.714
2200.11
4347.1
7882.55
13352
21893.6
718.649
1655.31
3465.02
6746.69
12706.1
24602.6
593.822
1456.24
3295.14
7262.02
16472.8
39255.8
568.428
1534.96
4014.73
10664.2
28840.8
73716.5
676.07
2121.11
6540.57
19352.5
51899.9
121503
1046.54
3638.36
11659.6
32860.2
79110.9
160551
1899.77
6290.08
18274.5
45087.6
94645.3
168945
3360.88
9523.15
23656.9
50264.2
92385.9
147680
5323.95
12544
26471.6
49160.8
80498.3
116977
7720.9
15164.7
27596.3
45546.8
68075.1
93142.2
10354.1
17383.9
28028.7
41919.5
58915.7
78458.2
5944.04
18211.2
45200.7
90455.6
151087
222282
7680.66
19674.9
42801.1
77492.8
119116
163488
9307.64
19919.4
38408.9
64341.2
92968.6
121622
10789.8
19826.2
34606
53389.5
74209.4
94492.2
6062.21
10645.6
19799.3
32712.6
47585.3
64893.8
3285.12
7342.33
15050.3
25923
38897.6
53893
2101.29
5279.75
10750
18633.5
29337.4
43476.8
1487.32
3687.71
7504.98
13586.9
22895.9
37734.1
1060.46
2630.2
5628.23
10988.7
20916.6
41945
762.787
1995.34
4715.39
10804.2
25638.5
64947.8
604.411
1798.07
5076.57
14492.7
41605.7
112387
590.428
2117.92
7236.74
23468.8
68632.9
169256
761.912
3157.97
11716.3
37251.3
97399.9
207765
1164.05
4832.49
16916.8
47953.9
109927
207391
1842.9
6719.67
20394
49928.2
100826
172517
2699.57
8164.99
21141.3
45501.9
82927.8
128983
3719.17
9169.15
20263
38971.6
65306.6
93990.4
4810.92
9734.62
18915.8
33009.6
51616
71106.8
68298.5
96200.8
145332
259600
325560
53274.7
78159.2
124413
259192
344132
40961.7
63872.9
116673
280488
376174
31308.6
55117.1
133272
350965
455480
25352.2
57497.3
179386
455179
545779
25985.7
81890.4
262968
540735
598898
37617.1
133482
364145
587815
621762
61619.6
199193
439061
604412
659485
706830
91548.4
248824
456680
570641
653059
762894
108592
248037
395377
474986
575973
752012
103590
208370
312711
378957
474447
690234
978264
82396.9
154845
234614
300838
377579
569128
1.08044e+06
1.15862e+06
61783.3
111124
176656
252758
317240
362485
956268
2.83671e+06
47336.5
82821.5
139060
227400
325196
258148
265617
1.2124e+06
36454.9
65775.7
118960
213825
331861
277915
251769
1.17722e+06
28627.9
53078.7
99331.7
190614
312430
285651
270079
910042
22281.1
42483.3
82261
180106
301379
306676
292068
1.14353e+06
16834.9
34520.9
75910.3
198216
338865
370860
330556
442157
13722.4
31880.1
85833.3
242483
402191
450203
408491
330442
14174.7
41398.5
123527
298747
458512
521776
499881
344941
21955.7
72545.7
195958
372478
502227
591085
605130
637412
40790.8
123424
274404
426619
541007
682638
754608
448874
66840
169887
315728
424168
535927
736239
86606.1
184794
290976
355011
463378
726396
88742.6
165102
235380
280536
368048
667228
76524.1
131413
187423
235393
284480
531711
61990.3
103618
155406
222882
253360
342260
52240.6
87265
139141
231561
284037
45341.1
76669.9
132190
247050
330940
39048.2
68794.3
129860
271549
368410
34843.8
67054
152523
327256
422147
35501.5
83715.9
223021
426396
519070
50225.7
141503
343657
540881
612915
91905.3
250407
476970
607010
661427
164081
373307
553797
610587
679855
235259
432255
534560
565003
706071
269654
410333
454270
486291
680976
250162
339801
352690
385246
595768
200287
263491
278486
311600
472160
148707
197121
234249
282566
348023
112736
150397
196260
282428
291096
92519.5
122846
172863
298430
318716
79848.4
105533
170068
332582
382149
70159.4
95944.5
195420
394318
446224
62898
106160
273324
496317
520734
64270.1
158534
428143
649560
625609
92283.1
274166
619156
766771
706911
161910
445555
750489
783810
733599
258997
573849
763557
738004
746483
335059
597645
687726
681751
782744
358216
544392
579750
602091
765502
321769
445955
455990
493438
681224
250833
343314
362887
403048
556436
175828
241036
289929
338328
410609
119603
164398
221862
295041
310100
87051.2
120015
172685
271202
302332
524.569
111.71
16.1355
1.53348
0.295253
0.258833
0.337626
0.44792
0.562039
0.708244
1.08761
2.51614
8.01899
30.9464
247.867
43.0181
4.90291
0.36148
0.0306655
0.0136906
0.0204784
0.0332156
0.0480489
0.062423
0.106011
0.395473
2.30658
14.0039
119.751
19.9494
2.5946
0.299586
0.0337572
0.00405933
0.00111442
0.00151881
0.0025476
0.00471705
0.0200661
0.15734
1.17347
7.32571
68.3581
13.3905
2.41184
0.396491
0.0531268
0.00577497
0.000518627
8.49765e-05
0.000110361
0.000647241
0.00695952
0.0675699
0.533127
3.40342
49.7173
11.8235
2.57254
0.479373
0.0672746
0.00699995
0.000590362
4.82874e-05
2.45945e-05
0.000232768
0.00288301
0.0290546
0.234577
1.52942
46.2234
12.301
2.83442
0.524088
0.0704259
0.00688739
0.000638646
0.000135278
0.000102642
0.000190906
0.00150234
0.0148643
0.121936
0.810967
53.8484
14.7914
3.30304
0.576202
0.0728962
0.00740763
0.0015012
0.0010968
0.00106421
0.00106493
0.00187776
0.0106479
0.0823914
0.560517
71.6082
18.9067
3.93149
0.636811
0.0776875
0.0129532
0.00862566
0.00887492
0.00910861
0.00908671
0.0100554
0.0189441
0.0895413
0.578967
97.5982
24.1959
4.74853
0.747908
0.112513
0.0504341
0.0539157
0.0591117
0.0628386
0.0653683
0.0711609
0.0901931
0.205167
0.973919
134.158
31.8376
6.19711
1.07788
0.298785
0.250316
0.290861
0.326496
0.358578
0.390069
0.439119
0.515181
0.816916
2.67977
189.436
46.7975
10.241
2.44642
1.18963
1.16084
1.33851
1.52321
1.727
1.96406
2.30318
2.69264
3.73381
9.65681
332.576
102.795
29.0036
9.33293
5.14047
4.79503
5.33225
6.09646
7.11377
8.43457
10.3258
12.3595
16.1745
34.8333
789.782
320.12
113.699
41.3945
21.2676
17.707
18.6649
21.218
25.3428
31.1685
39.8918
49.6953
64.0392
116.209
2046.47
1009.76
430.38
173.439
82.4009
59.2978
58.1068
64.815
78.4751
99.1952
132.676
173.751
228.305
359.429
48.0851
8.6971
1.23609
0.167826
0.0501032
0.043848
0.0560742
0.065511
0.0719466
0.0709278
0.0644157
0.0852299
0.295499
1.78887
17.4291
2.81429
0.362529
0.0403019
0.00514754
0.00227067
0.00330222
0.00477517
0.00612144
0.00654793
0.00639179
0.0184206
0.148348
1.23593
9.12075
1.77076
0.310776
0.0503174
0.0071683
0.000839201
0.000191073
0.000228411
0.000332442
0.000442087
0.00109217
0.0100636
0.0998882
0.815189
8.05615
1.91646
0.407687
0.0759271
0.0115891
0.00129686
0.000106079
1.55509e-05
1.49725e-05
3.83715e-05
0.000419668
0.00551671
0.057812
0.476333
8.66449
2.25189
0.516626
0.0997562
0.0152173
0.00167738
0.000125264
8.14061e-06
1.85166e-06
1.24623e-05
0.0002129
0.00294453
0.0312973
0.259082
10.125
2.69307
0.610241
0.113061
0.0162918
0.00169903
0.000126332
1.45612e-05
7.67643e-06
1.15716e-05
0.000118887
0.00163617
0.0176404
0.147756
13.0809
3.41368
0.736988
0.128358
0.017335
0.00175219
0.000202291
0.000101707
9.03213e-05
8.01291e-05
0.000133015
0.00106119
0.0109911
0.0929215
17.8846
4.43319
0.893087
0.144239
0.0183345
0.00227514
0.000964719
0.00091431
0.000884053
0.000799133
0.000747259
0.00134279
0.00828721
0.0679165
24.3309
5.70388
1.08194
0.165952
0.022576
0.00663219
0.00657232
0.00696195
0.00701229
0.0066643
0.00625291
0.00658848
0.012864
0.0715048
33.5593
7.46057
1.35535
0.210678
0.0445011
0.032988
0.0401441
0.0440965
0.0460766
0.0460794
0.0454707
0.0454279
0.0524966
0.13641
45.0224
9.66304
1.77366
0.338364
0.151175
0.166363
0.208987
0.235701
0.255406
0.268877
0.27981
0.284679
0.298114
0.514876
65.0823
14.9898
3.17952
0.895874
0.632702
0.749068
0.934341
1.07663
1.20803
1.33764
1.46799
1.55005
1.61511
2.34992
119.142
34.3349
9.10934
3.29897
2.55627
2.96739
3.6295
4.25299
4.93045
5.72741
6.62422
7.34342
7.87821
10.195
305.141
107.96
33.8539
13.045
9.38476
10.3517
12.3602
14.6483
17.4601
21.14
25.7119
30.1715
34.3108
41.1978
3.42671
0.59965
0.108789
0.0290427
0.0136454
0.0104978
0.0117727
0.0126475
0.0126684
0.0111265
0.00779729
0.00591102
0.0136631
0.103196
1.22543
0.208507
0.03183
0.00470802
0.000902015
0.000496673
0.00068738
0.000927949
0.00110318
0.00110313
0.000821858
0.00112502
0.00884629
0.0893374
0.989624
0.217869
0.0434775
0.00779827
0.00121559
0.000165733
4.05828e-05
4.64556e-05
6.39679e-05
7.46502e-05
8.6786e-05
0.000560778
0.00691199
0.0695697
1.24834
0.308053
0.0679366
0.0130289
0.00207748
0.000260805
2.45095e-05
3.47205e-06
3.28166e-06
4.42188e-06
2.08184e-05
0.000333341
0.00455202
0.0470463
1.61187
0.41576
0.0942235
0.018109
0.00283388
0.000344157
2.99791e-05
1.79219e-06
2.82941e-07
6.19983e-07
1.07318e-05
0.000202869
0.00284465
0.0299379
2.07016
0.52838
0.115908
0.0212282
0.00313947
0.000360487
3.03208e-05
2.22129e-06
6.44578e-07
6.42155e-07
6.35047e-06
0.000121603
0.00175699
0.0189724
2.80781
0.693498
0.144182
0.0247419
0.00340954
0.000368926
3.58085e-05
9.69485e-06
7.52322e-06
6.08169e-06
8.24245e-06
8.1389e-05
0.00114125
0.0124476
3.87496
0.909031
0.176984
0.0282495
0.00364274
0.000420763
0.000107994
8.71638e-05
8.0037e-05
6.77625e-05
5.6159e-05
9.54892e-05
0.000778871
0.00828258
5.24708
1.17
0.214859
0.0323462
0.00419679
0.000888493
0.000705001
0.00072587
0.00070215
0.000627309
0.000533536
0.000506262
0.000956074
0.00681365
7.14245
1.5127
0.264033
0.0389289
0.00677734
0.00402145
0.00470553
0.00511116
0.00515079
0.00484233
0.00436684
0.00401351
0.00394923
0.00940845
9.22226
1.86504
0.319005
0.0531171
0.0197583
0.0215635
0.0273319
0.0306145
0.0320884
0.0316964
0.0302506
0.0285315
0.0261497
0.0351936
12.0727
2.42952
0.445755
0.110342
0.082582
0.10654
0.137064
0.157589
0.17145
0.177606
0.178608
0.17446
0.162744
0.187595
17.4635
4.03931
0.922618
0.356606
0.351543
0.465049
0.598057
0.703777
0.793074
0.860243
0.908893
0.925989
0.896992
0.961195
36.18
10.471
2.9048
1.33886
1.36479
1.79101
2.2897
2.74741
3.19274
3.61232
3.99855
4.2739
4.36373
4.54499
0.361419
0.0672262
0.0145508
0.00471788
0.00255541
0.00222431
0.00249005
0.00270464
0.00270495
0.00231368
0.00152849
0.000899287
0.00116953
0.00858971
0.147499
0.0272531
0.004675
0.000792623
0.000178805
0.000112395
0.000150051
0.000201067
0.000239887
0.000237272
0.000171424
0.000137633
0.000716981
0.00794995
0.162981
0.0373463
0.00775304
0.00144213
0.000234244
3.45194e-05
9.68721e-06
1.08941e-05
1.49157e-05
1.69092e-05
1.5033e-05
4.61984e-05
0.000597558
0.00687241
0.236801
0.0585218
0.0129556
0.00249824
0.000405537
5.33263e-05
5.63525e-06
9.32403e-07
8.81572e-07
1.06526e-06
1.95068e-06
2.59213e-05
0.000419149
0.00504854
0.329332
0.0832319
0.0185401
0.00353125
0.000557735
7.05056e-05
6.80523e-06
4.98864e-07
8.36436e-08
9.69533e-08
7.44092e-07
1.64662e-05
0.000279718
0.00347454
0.437587
0.107633
0.0229465
0.00414465
0.00061798
7.38316e-05
6.80959e-06
5.2506e-07
1.0263e-07
7.85956e-08
4.38908e-07
1.00691e-05
0.000179377
0.0023258
0.596045
0.140143
0.0281115
0.00473738
0.000656324
7.33738e-05
7.13684e-06
1.39587e-06
9.11391e-07
6.96408e-07
7.30092e-07
6.8863e-06
0.000119429
0.00158204
0.813814
0.180999
0.0339409
0.00531355
0.000686518
7.84083e-05
1.61447e-05
1.12158e-05
9.82523e-06
7.96274e-06
6.07071e-06
8.82072e-06
8.07395e-05
0.00105081
1.07692
0.227497
0.0401855
0.00591094
0.000753097
0.000140801
9.72614e-05
9.6884e-05
9.05078e-05
7.75612e-05
6.1758e-05
5.40737e-05
9.40335e-05
0.00078628
1.42842
0.286785
0.0480682
0.00685959
0.00111741
0.000599979
0.000679009
0.000724092
0.000705189
0.000635856
0.000538246
0.000466897
0.000414648
0.000932105
1.79378
0.344584
0.0561437
0.008801
0.00306944
0.00334587
0.00420672
0.00463651
0.00469622
0.00444263
0.00398155
0.00355888
0.00299035
0.00350996
2.2132
0.41725
0.0714446
0.0167751
0.0131279
0.0176165
0.0226868
0.0256865
0.0269869
0.0266829
0.0251639
0.02324
0.0199317
0.02048
2.88775
0.600448
0.126945
0.0523124
0.0587742
0.0822698
0.106775
0.12398
0.134904
0.139104
0.13743
0.13155
0.117018
0.114628
5.06347
1.31751
0.35429
0.197802
0.242225
0.34045
0.442324
0.524883
0.589255
0.631386
0.650781
0.647926
0.604903
0.58501
0.0389772
0.00741526
0.00174189
0.000643921
0.000429471
0.000429911
0.000504565
0.000562724
0.00057462
0.000493051
0.00032424
0.000172133
0.000122438
0.000656151
0.0197724
0.0039161
0.000723327
0.000131733
3.31426e-05
2.37774e-05
3.25669e-05
4.38312e-05
5.27554e-05
5.20768e-05
3.7785e-05
2.32153e-05
5.69852e-05
0.000627756
0.0275562
0.00644117
0.00135795
0.000255623
4.21831e-05
6.6044e-06
2.22285e-06
2.58266e-06
3.54297e-06
3.99296e-06
3.27498e-06
4.45366e-06
4.68645e-05
0.000590507
0.0435991
0.010769
0.00237136
0.000455113
7.40654e-05
9.97473e-06
1.14309e-06
2.3832e-07
2.35735e-07
2.79154e-07
3.00484e-07
1.92121e-06
3.4066e-05
0.000462414
0.0638345
0.0158578
0.00346455
0.000651267
0.000102708
1.32586e-05
1.36658e-06
1.28128e-07
3.64716e-08
3.60603e-08
7.30597e-08
1.21251e-06
2.38546e-05
0.000339236
0.0865074
0.0206978
0.00430805
0.000767309
0.000114445
1.39902e-05
1.3747e-06
1.26514e-07
3.28893e-08
2.66924e-08
4.6263e-08
7.46718e-07
1.56171e-05
0.000236066
0.116772
0.026498
0.00517383
0.000859071
0.000119172
1.3618e-05
1.34848e-06
2.19579e-07
1.2279e-07
9.26305e-08
8.10208e-08
5.22223e-07
1.05317e-05
0.000165056
0.155945
0.0333548
0.00608766
0.000939969
0.000121718
1.38483e-05
2.38515e-06
1.37988e-06
1.14226e-06
8.83281e-07
6.29993e-07
7.5375e-07
7.05799e-06
0.000110053
0.200444
0.0406325
0.0069819
0.00101236
0.000127821
2.14969e-05
1.2582e-05
1.19035e-05
1.06746e-05
8.6901e-06
6.48831e-06
5.23152e-06
8.16278e-06
7.8264e-05
0.255604
0.0492507
0.008034
0.00112629
0.000174615
8.3394e-05
8.92986e-05
9.22573e-05
8.62589e-05
7.37891e-05
5.85439e-05
4.75642e-05
3.86506e-05
8.26431e-05
0.309719
0.0571137
0.00902139
0.00136597
0.000446946
0.00047262
0.000577957
0.000618212
0.000600438
0.000538238
0.000451809
0.000379177
0.000295545
0.000306848
0.361971
0.0651477
0.0106786
0.00242198
0.00192442
0.00260056
0.00328141
0.00360512
0.00362548
0.0033912
0.00298978
0.00258856
0.00206116
0.00189994
0.435118
0.0840635
0.0169133
0.00737539
0.00896332
0.012784
0.0163386
0.0184044
0.0191378
0.0186303
0.0171613
0.0153351
0.0126228
0.0112936
0.666052
0.159508
0.0429759
0.0284484
0.0387951
0.0559955
0.0719701
0.0828195
0.0886723
0.0894782
0.0857117
0.0792152
0.0681103
0.0607921
0.00378499
0.000744727
0.000189753
8.0498e-05
6.61e-05
7.5041e-05
9.30414e-05
0.000107366
0.000112357
9.79939e-05
6.54531e-05
3.39794e-05
1.667e-05
4.8065e-05
0.00253432
0.000525508
0.000101355
1.93793e-05
5.50482e-06
4.54069e-06
6.46721e-06
8.83123e-06
1.07047e-05
1.06231e-05
7.82313e-06
4.42184e-06
4.95811e-06
4.54915e-05
0.00420233
0.000984852
0.000207033
3.87913e-05
6.41188e-06
1.0737e-06
4.59043e-07
5.77146e-07
7.91574e-07
8.8552e-07
7.20823e-07
5.84915e-07
3.47214e-06
4.58776e-05
0.00705162
0.00172215
0.000372846
7.04247e-05
1.13504e-05
1.54972e-06
2.01233e-07
6.38997e-08
6.75821e-08
7.72975e-08
7.2854e-08
1.65287e-07
2.55494e-06
3.80376e-05
0.0105886
0.00257123
0.000547635
0.00010082
1.57103e-05
2.04796e-06
2.31794e-07
3.86777e-08
2.37486e-08
2.37025e-08
2.552e-08
1.00701e-07
1.85459e-06
2.94313e-05
0.014352
0.00333543
0.000675606
0.000117912
1.74074e-05
2.1512e-06
2.31863e-07
3.75329e-08
2.21487e-08
2.11041e-08
2.20091e-08
6.84995e-08
1.24321e-06
2.12696e-05
0.0189051
0.004142
0.000785877
0.000127901
1.75931e-05
2.03481e-06
2.17871e-07
4.60664e-08
3.114e-08
2.74291e-08
2.54063e-08
5.38386e-08
8.51246e-07
1.52773e-05
0.0244173
0.00502246
0.000890439
0.00013484
1.73309e-05
1.97136e-06
3.19894e-07
1.68332e-07
1.35627e-07
1.04649e-07
7.60686e-08
7.66511e-08
5.75824e-07
1.03403e-05
0.0302954
0.00588602
0.000980925
0.000139282
1.73416e-05
2.75565e-06
1.45191e-06
1.31265e-06
1.13435e-06
8.81935e-07
6.24139e-07
4.67299e-07
6.60305e-07
7.15864e-06
0.0368143
0.0067882
0.00107328
0.00014704
2.21442e-05
1.00095e-05
1.03249e-05
1.03387e-05
9.29474e-06
7.54896e-06
5.62668e-06
4.25952e-06
3.20211e-06
6.81983e-06
0.0423889
0.00746971
0.00114085
0.000168517
5.49344e-05
5.79001e-05
6.92018e-05
7.17872e-05
6.69138e-05
5.68323e-05
4.47344e-05
3.50571e-05
2.54558e-05
2.39997e-05
0.0465736
0.00798959
0.00126218
0.000288986
0.000243828
0.000331913
0.000410342
0.00043683
0.000420631
0.000372076
0.000307071
0.000248165
0.00018411
0.000154354
0.0517082
0.00939793
0.00184928
0.000901298
0.00118894
0.00171068
0.00214559
0.00233919
0.00232393
0.00213491
0.00183634
0.00152761
0.00116804
0.000960122
0.0715138
0.0160563
0.00451658
0.0036358
0.00540535
0.00789554
0.00997444
0.0110906
0.0113146
0.0107491
0.00958717
0.00821798
0.00653624
0.00538845
0.000338561
6.91984e-05
1.94068e-05
9.93399e-06
9.85023e-06
1.21726e-05
1.56327e-05
1.85167e-05
1.96354e-05
1.73425e-05
1.17516e-05
6.12807e-06
2.60027e-06
3.65926e-06
0.000306714
6.4965e-05
1.27243e-05
2.51397e-06
8.28401e-07
7.99671e-07
1.1693e-06
1.60688e-06
1.94133e-06
1.92648e-06
1.43271e-06
8.00833e-07
5.31509e-07
3.16362e-06
0.000570926
0.000132069
2.72494e-05
5.02696e-06
8.37348e-07
1.6445e-07
9.78848e-08
1.27461e-07
1.67484e-07
1.83464e-07
1.51392e-07
1.05122e-07
2.7389e-07
3.35468e-06
0.000995256
0.000237499
4.99753e-05
9.21066e-06
1.46981e-06
2.14659e-07
4.43499e-08
2.78162e-08
2.94018e-08
3.141e-08
3.01444e-08
3.34938e-08
2.02172e-07
2.94931e-06
0.00151173
0.000355867
7.33069e-05
1.31223e-05
2.01563e-06
2.75583e-07
4.71108e-08
2.27892e-08
2.09165e-08
2.09482e-08
2.10194e-08
2.58635e-08
1.56724e-07
2.42605e-06
0.00202753
0.000454829
8.90305e-05
1.51162e-05
2.20115e-06
2.85016e-07
4.67014e-08
2.25036e-08
2.05439e-08
2.0407e-08
2.04444e-08
2.35722e-08
1.1418e-07
1.8445e-06
0.00258205
0.000543785
9.96955e-05
1.58047e-05
2.14984e-06
2.62595e-07
4.4013e-08
2.31896e-08
2.13653e-08
2.09601e-08
2.07327e-08
2.26169e-08
8.53946e-08
1.38005e-06
0.00319183
0.000629106
0.000107849
1.59343e-05
2.03052e-06
2.44284e-07
5.28912e-08
3.49211e-08
3.11517e-08
2.78745e-08
2.50532e-08
2.45671e-08
6.42013e-08
9.62402e-07
0.0037898
0.000703828
0.000113406
1.57157e-05
1.93958e-06
3.15685e-07
1.66777e-07
1.47464e-07
1.25913e-07
9.8114e-08
7.19851e-08
5.58796e-08
6.95042e-08
6.64118e-07
0.00437519
0.000770873
0.000117914
1.57781e-05
2.36892e-06
1.08187e-06
1.08896e-06
1.05661e-06
9.16329e-07
7.11463e-07
5.0659e-07
3.64151e-07
2.62467e-07
5.72929e-07
0.00478293
0.000805645
0.000119146
1.73702e-05
5.94097e-06
6.35499e-06
7.41074e-06
7.44036e-06
6.65909e-06
5.3673e-06
3.98678e-06
2.93014e-06
2.00015e-06
1.76028e-06
0.00495906
0.000813502
0.000125003
3.00293e-05
2.7605e-05
3.76831e-05
4.54438e-05
4.67662e-05
4.31332e-05
3.61216e-05
2.80413e-05
2.12121e-05
1.47431e-05
1.1379e-05
0.00512446
0.000886626
0.000175463
9.93423e-05
0.00014072
0.000202159
0.000247422
0.00026041
0.000247225
0.000214592
0.000173169
0.00013451
9.60632e-05
7.2972e-05
0.0065543
0.00140544
0.000431359
0.000423274
0.000668327
0.000975126
0.00120267
0.0012887
0.00125334
0.00112275
0.000936859
0.000747521
0.000553166
0.000422021
2.83741e-05
5.99561e-06
1.84103e-06
1.13887e-06
1.30644e-06
1.72722e-06
2.29034e-06
2.78313e-06
3.00021e-06
2.68941e-06
1.85415e-06
9.85084e-07
4.09809e-07
3.21245e-07
3.45167e-05
7.34271e-06
1.44535e-06
3.0375e-07
1.24187e-07
1.34245e-07
1.93975e-07
2.64078e-07
3.17433e-07
3.16564e-07
2.41129e-07
1.42123e-07
8.05725e-08
2.30682e-07
6.94794e-05
1.57296e-05
3.16999e-06
5.8417e-07
1.10832e-07
3.7627e-08
3.20527e-08
3.74605e-08
4.38711e-08
4.63267e-08
4.11512e-08
3.27716e-08
3.94322e-08
2.48288e-07
0.000124278
2.87582e-05
5.85346e-06
1.05875e-06
1.79672e-07
4.1356e-08
2.30584e-08
2.14453e-08
2.1795e-08
2.21154e-08
2.18743e-08
2.16855e-08
3.28736e-08
2.32466e-07
0.00018881
4.28783e-05
8.51944e-06
1.48893e-06
2.37882e-07
4.76387e-08
2.31628e-08
2.05841e-08
2.03902e-08
2.03971e-08
2.03901e-08
2.0678e-08
3.00306e-08
2.05401e-07
0.000248645
5.3722e-05
1.01501e-05
1.68359e-06
2.54506e-07
4.82582e-08
2.3075e-08
2.05335e-08
2.03218e-08
2.03017e-08
2.02964e-08
2.05001e-08
2.72934e-08
1.68996e-07
0.00030482
6.17588e-05
1.09457e-05
1.69971e-06
2.41806e-07
4.51553e-08
2.27159e-08
2.0582e-08
2.03894e-08
2.03442e-08
2.03162e-08
2.04373e-08
2.5317e-08
1.36774e-07
0.000359166
6.80203e-05
1.12912e-05
1.63854e-06
2.20648e-07
4.23237e-08
2.34171e-08
2.16192e-08
2.12343e-08
2.09174e-08
2.06585e-08
2.05879e-08
2.37605e-08
1.04091e-07
0.000406172
7.23639e-05
1.12966e-05
1.5408e-06
2.0298e-07
4.8204e-08
3.38756e-08
3.17387e-08
2.94682e-08
2.67578e-08
2.43735e-08
2.29111e-08
2.40189e-08
7.81404e-08
0.000443896
7.50209e-05
1.11311e-05
1.47051e-06
2.36885e-07
1.21357e-07
1.20483e-07
1.1466e-07
9.89112e-08
7.81676e-08
5.89302e-08
4.58836e-08
3.7446e-08
6.58181e-08
0.000458668
7.41444e-05
1.06611e-05
1.56269e-06
5.88043e-07
6.41985e-07
7.28817e-07
7.09672e-07
6.13028e-07
4.74575e-07
3.39002e-07
2.3943e-07
1.60632e-07
1.38802e-07
0.000447808
7.06056e-05
1.06612e-05
2.78663e-06
2.8146e-06
3.83307e-06
4.50011e-06
4.47927e-06
3.96345e-06
3.1547e-06
2.3152e-06
1.64636e-06
1.08124e-06
7.79738e-07
0.000431567
7.18437e-05
1.47286e-05
9.93522e-06
1.48866e-05
2.12089e-05
2.52593e-05
2.56577e-05
2.32993e-05
1.91583e-05
1.45536e-05
1.05831e-05
7.0857e-06
5.0057e-06
0.000519811
0.000108137
3.79167e-05
4.47329e-05
7.34218e-05
0.000106151
0.000127371
0.000131446
0.000121986
0.000103257
8.08705e-05
6.02496e-05
4.16167e-05
2.95244e-05
2.28687e-06
5.02838e-07
1.74568e-07
1.3218e-07
1.66013e-07
2.27327e-07
3.06785e-07
3.79948e-07
4.15861e-07
3.79716e-07
2.70586e-07
1.53456e-07
7.36485e-08
4.78613e-08
3.58537e-06
7.67441e-07
1.63192e-07
4.87808e-08
3.19058e-08
3.45317e-08
4.28284e-08
5.26303e-08
6.01613e-08
6.03252e-08
5.03103e-08
3.69014e-08
2.7536e-08
3.40258e-08
7.56382e-06
1.6777e-06
3.42461e-07
7.63548e-08
2.91563e-08
2.21506e-08
2.18249e-08
2.26287e-08
2.35179e-08
2.38542e-08
2.314e-08
2.194e-08
2.17789e-08
3.47776e-08
1.37359e-05
3.08248e-06
6.19571e-07
1.23497e-07
3.57091e-08
2.23027e-08
2.05768e-08
2.04425e-08
2.04951e-08
2.05345e-08
2.04936e-08
2.0425e-08
2.10894e-08
3.45371e-08
2.07359e-05
4.54929e-06
8.85502e-07
1.64882e-07
4.1141e-08
2.28636e-08
2.05598e-08
2.03164e-08
2.02946e-08
2.02909e-08
2.02836e-08
2.02921e-08
2.09111e-08
3.34858e-08
2.67007e-05
5.57187e-06
1.03083e-06
1.81107e-07
4.23709e-08
2.28798e-08
2.05438e-08
2.03059e-08
2.0281e-08
2.02734e-08
2.02666e-08
2.0273e-08
2.07491e-08
3.15755e-08
3.145e-05
6.15588e-06
1.07006e-06
1.77068e-07
4.05041e-08
2.25218e-08
2.05009e-08
2.03053e-08
2.02823e-08
2.02725e-08
2.02638e-08
2.02652e-08
2.06231e-08
2.96365e-08
3.52389e-05
6.44758e-06
1.05201e-06
1.64532e-07
3.77882e-08
2.21838e-08
2.05472e-08
2.03857e-08
2.03457e-08
2.03127e-08
2.02853e-08
2.02725e-08
2.05157e-08
2.73541e-08
3.78132e-05
6.50192e-06
9.99249e-07
1.49026e-07
3.55069e-08
2.26219e-08
2.14207e-08
2.12142e-08
2.09985e-08
2.07574e-08
2.0555e-08
2.04307e-08
2.05244e-08
2.53327e-08
3.90004e-05
6.36261e-06
9.31811e-07
1.3673e-07
3.79286e-08
2.89701e-08
2.88088e-08
2.81016e-08
2.65732e-08
2.47181e-08
2.30936e-08
2.202e-08
2.13936e-08
2.40726e-08
3.79453e-05
5.92638e-06
8.45375e-07
1.40584e-07
6.93121e-08
7.53948e-08
8.17092e-08
7.83327e-08
6.83924e-08
5.55671e-08
4.38142e-08
3.55094e-08
2.94943e-08
2.80564e-08
3.47989e-05
5.31706e-06
8.10724e-07
2.49948e-07
2.75637e-07
3.67399e-07
4.17654e-07
4.03501e-07
3.46068e-07
2.67366e-07
1.91769e-07
1.34635e-07
9.06714e-08
6.74365e-08
3.13272e-05
5.08122e-06
1.12755e-06
9.21467e-07
1.43152e-06
2.00814e-06
2.32337e-06
2.28114e-06
1.98823e-06
1.55915e-06
1.12483e-06
7.74561e-07
4.94842e-07
3.33194e-07
3.6063e-05
7.4015e-06
3.11534e-06
4.31127e-06
7.23358e-06
1.03077e-05
1.20161e-05
1.19573e-05
1.06143e-05
8.52533e-06
6.29839e-06
4.40462e-06
2.85744e-06
1.90235e-06
1.95482e-07
5.71431e-08
3.22369e-08
3.02347e-08
3.4623e-08
4.19703e-08
5.15599e-08
6.08806e-08
6.59374e-08
6.24607e-08
5.00648e-08
3.63165e-08
2.67375e-08
2.2944e-08
3.56637e-07
8.91123e-08
3.31492e-08
2.28346e-08
2.14128e-08
2.17986e-08
2.27765e-08
2.39567e-08
2.48849e-08
2.49542e-08
2.38105e-08
2.22386e-08
2.10825e-08
2.11471e-08
7.54426e-07
1.76369e-07
4.97027e-08
2.52654e-08
2.10585e-08
2.04556e-08
2.04449e-08
2.05409e-08
2.06449e-08
2.06842e-08
2.05991e-08
2.0453e-08
2.03784e-08
2.11013e-08
1.36895e-06
3.10605e-07
7.51662e-08
2.94465e-08
2.1616e-08
2.04485e-08
2.02986e-08
2.02856e-08
2.02889e-08
2.02902e-08
2.02819e-08
2.02684e-08
2.02987e-08
2.11223e-08
2.04114e-06
4.46118e-07
9.88926e-08
3.30247e-08
2.20708e-08
2.04906e-08
2.02913e-08
2.02669e-08
2.02611e-08
2.02568e-08
2.02521e-08
2.02478e-08
2.02816e-08
2.1103e-08
2.5633e-06
5.31121e-07
1.10342e-07
3.42138e-08
2.21442e-08
2.04851e-08
2.02856e-08
2.02615e-08
2.0255e-08
2.025e-08
2.0245e-08
2.02406e-08
2.02673e-08
2.10241e-08
2.89999e-06
5.64061e-07
1.10593e-07
3.34249e-08
2.19311e-08
2.04459e-08
2.02772e-08
2.02569e-08
2.02504e-08
2.02451e-08
2.02396e-08
2.02347e-08
2.02549e-08
2.09259e-08
3.0894e-06
5.63052e-07
1.05017e-07
3.18505e-08
2.16443e-08
2.04078e-08
2.02754e-08
2.02581e-08
2.02502e-08
2.02429e-08
2.0236e-08
2.023e-08
2.02432e-08
2.07843e-08
3.14082e-06
5.38956e-07
9.65388e-08
3.00869e-08
2.14048e-08
2.04328e-08
2.03377e-08
2.03158e-08
2.02933e-08
2.02696e-08
2.02495e-08
2.02356e-08
2.02391e-08
2.06412e-08
3.05396e-06
4.98907e-07
8.73222e-08
2.86787e-08
2.15575e-08
2.09302e-08
2.09084e-08
2.08348e-08
2.06996e-08
2.05465e-08
2.04179e-08
2.03339e-08
2.02878e-08
2.05304e-08
2.79159e-06
4.39154e-07
7.74988e-08
2.87276e-08
2.41049e-08
2.46813e-08
2.50881e-08
2.46993e-08
2.38097e-08
2.27508e-08
2.18312e-08
2.12037e-08
2.07808e-08
2.07143e-08
2.4018e-06
3.73458e-07
7.29386e-08
3.77061e-08
4.13868e-08
4.88221e-08
5.21816e-08
5.01696e-08
4.47859e-08
3.80887e-08
3.20388e-08
2.76721e-08
2.45585e-08
2.29577e-08
2.02417e-06
3.38373e-07
9.68493e-08
9.50582e-08
1.41035e-07
1.88148e-07
2.09715e-07
2.00451e-07
1.71127e-07
1.33036e-07
9.71799e-08
6.98704e-08
4.97312e-08
3.84826e-08
2.24661e-06
4.77438e-07
2.57473e-07
3.94543e-07
6.57391e-07
9.14373e-07
1.0341e-06
9.95434e-07
8.50733e-07
6.55719e-07
4.64701e-07
3.12734e-07
1.98449e-07
1.31408e-07
3.34367e-08
2.29825e-08
2.11484e-08
2.10778e-08
2.15256e-08
2.22773e-08
2.32856e-08
2.43139e-08
2.49223e-08
2.46399e-08
2.33939e-08
2.19671e-08
2.09546e-08
2.05163e-08
4.93157e-08
2.60599e-08
2.13342e-08
2.04821e-08
2.03686e-08
2.04089e-08
2.05066e-08
2.06289e-08
2.07282e-08
2.07399e-08
2.0624e-08