/*--------------------------------*- C++ -*----------------------------------*\
| =========                 |                                                 |
| \\      /  F ield         | OpenFOAM: The Open Source CFD Toolbox           |
|  \\    /   O peration     | Version:  v2106                                 |
|   \\  /    A nd           | Website:  www.openfoam.com                      |
|    \\/     M anipulation  |                                                 |
\*---------------------------------------------------------------------------*/
FoamFile
{
    version     2.0;
    format      ascii;
    arch        "LSB;label=32;scalar=64";
    class       volScalarField;
    location    "0.000156";
    object      p;
}
// * * * * * * * * * * * * * * * * * * * * * * * * * * * * * * * * * * * * * //

dimensions      [1 -1 -2 0 0 0 0];

internalField   nonuniform List<scalar> 
18109
(
219619
220951
221640
222313
222718
223001
223152
219471
220625
221414
222068
222505
222829
223031
219394
220424
221220
221868
222328
222677
222910
219420
220340
221098
221723
222178
222536
222788
219484
220310
220998
221578
222014
222369
222629
219624
220317
220911
221421
221822
222155
222409
219713
220290
220749
221212
221574
221881
222121
219738
220138
220573
220948
221266
221541
221767
221921
223033
223694
224308
224687
224962
225121
225208
225237
225287
225312
225429
225549
225853
221824
222793
223496
224073
224473
224780
224980
225123
225220
225318
225454
225645
225916
226232
221742
222609
223299
223869
224284
224607
224836
225017
225164
225309
225492
225709
226012
226303
221761
222531
223175
223715
224117
224447
224696
224902
225083
225248
225447
225677
225998
226304
221835
222509
223073
223565
223949
224274
224533
224749
224944
225123
225324
225555
225866
226195
221941
222496
222974
223410
223766
224074
224330
224550
224750
224936
225139
225367
225668
225996
222027
222423
222845
223230
223552
223838
224084
224303
224503
224696
224900
225125
225413
225729
222006
222349
222698
223017
223300
223563
223797
224016
224219
224423
224635
224864
225134
225434
221905
222200
222493
222759
223013
223257
223483
223705
223914
224131
224355
224588
224842
225104
221741
221982
222219
222449
222689
222924
223153
223388
223615
223856
224097
224334
224572
224804
221455
221656
221856
222085
222326
222569
222818
223074
223326
223595
223858
224108
224337
224544
221007
221207
221401
221648
221904
222193
222479
222779
223074
223376
223654
223903
224126
224312
220546
220666
220861
221136
221451
221808
222156
222515
222865
223210
223517
223788
224024
224149
219620
219892
220179
220554
220960
221407
221851
222297
222713
223098
223420
223626
223843
223956
220080
219392
219241
218766
218671
218401
222252
221602
221355
220915
220639
220219
223443
223102
223070
222958
223069
223148
224148
224133
224388
224617
225046
225433
224690
224905
225316
225756
226390
227096
225000
225352
225874
226453
227211
228031
225259
225603
226096
226683
227471
228256
225367
225619
226028
226513
227148
227853
225362
225503
225785
226083
226467
226923
225323
225344
225419
225433
225512
225636
225315
225182
225060
224802
224484
223952
225256
224997
224705
224209
223516
222514
225345
225025
224623
223939
223082
221815
225443
225167
224798
224140
223409
222238
225833
225587
225323
224783
224273
223589
226058
225886
225870
225667
225436
225182
226733
226720
226872
226906
226936
227025
226834
227092
227482
227855
228223
228661
226853
227309
227848
228438
229080
229776
226718
227311
227988
228736
229582
230508
226492
227100
227815
228619
229550
230548
226190
226728
227366
228104
228945
229908
225840
226250
226753
227304
227936
228701
225449
225718
226051
226360
226707
227107
225111
225237
225329
225358
225350
225183
224741
224718
224644
224409
224020
223379
224482
224362
224153
223737
223162
222359
224232
224070
223839
223425
222837
222228
224132
223907
223785
223400
223008
222466
224182
224051
224064
223917
223859
223637
224168
224160
224320
224378
224565
224687
223920
224101
224408
224760
225229
225739
223581
223847
224253
224787
225511
226369
223178
223408
223830
224427
225271
226251
222697
222790
223083
223551
224270
225081
222154
222038
222103
222230
222574
223010
221567
221176
220929
220596
220407
220346
220995
220324
219714
218824
217930
216905
220419
219474
218537
217185
215804
214060
219915
218841
217723
216111
214506
212426
219512
218420
217216
215772
214148
212316
219341
218276
217273
216028
214842
213503
219191
218075
217408
216529
215915
215186
218328
216799
214989
212731
210293
207489
218352
216947
215279
213284
211046
208723
218679
217428
216142
214580
213128
211699
219102
217877
217115
216130
215419
214679
219803
219143
218970
218288
218108
217686
220469
220019
220026
219690
219813
219822
221001
220743
220912
220908
221270
221705
221373
221263
221469
221683
222224
222945
221590
221511
221639
221942
222533
223249
221686
221480
221459
221575
221966
222446
221642
221194
220943
220677
220613
220587
221478
220774
220154
219378
218717
218038
221285
220348
219371
218029
216594
214922
221049
219892
218571
216785
214870
212593
220883
219664
218229
216223
214225
211636
220866
219692
218361
216567
214700
212371
221088
220060
218933
217575
216117
214531
221440
220433
219711
218781
217941
217015
219887
219308
221106
225729
233773
223386
223660
225632
229443
236501
226329
227312
229450
232872
240725
228403
229919
231968
234758
241521
229579
231408
233559
236010
241332
229870
231567
233337
235742
240455
229224
230522
232227
235049
241158
227523
227823
228609
230944
237088
243357
225446
224573
223980
225351
229461
234086
222943
220105
218486
218747
222839
227839
220991
217368
215403
215825
221171
228469
234260
220248
216761
215040
216596
224992
235518
249189
258359
220772
217996
216587
219133
229677
247070
272952
307236
222385
220676
219962
222648
231255
245776
268048
286846
224717
224077
224058
226333
231454
239358
254042
262464
227139
227212
227899
230351
235179
243420
251232
258077
229318
230125
231533
233992
239657
250018
265041
270692
230938
232304
234277
236827
241990
250231
262255
282866
232050
234032
236431
239166
243740
249682
256693
260186
232218
234418
236794
239827
244306
250808
257263
262434
231569
233683
236178
239807
245526
254700
263499
266367
229920
231414
233235
236165
241738
249855
259570
277621
227632
228177
229238
231420
235820
240888
224808
223327
223500
225332
230663
236759
222123
219572
219009
221575
229341
238862
220706
217878
216955
220594
230806
245126
220456
218067
217302
221749
234028
253902
221593
220109
220068
224084
233668
223329
222889
223627
227287
233309
225076
225707
227475
231624
237929
226875
228481
231223
235293
243016
228059
230536
233877
238297
245996
228217
230951
234700
239696
246841
226767
229236
233175
238154
244877
224123
225884
229356
234846
243602
220234
220657
223065
228358
238247
215421
214235
216351
221436
228839
211693
209317
211218
217064
225188
209715
206712
209304
217921
227133
209537
206938
209433
219178
231319
211558
210041
213004
222725
237479
214156
213698
216923
224781
237063
217205
217769
220978
227354
235704
220246
221579
225156
231625
240107
222882
224931
229100
234921
246351
224700
227431
231508
237398
247770
225115
227494
231603
236606
244037
223770
225706
229287
233836
239819
220846
221664
224634
230006
238728
216663
215320
216794
221993
232254
212070
209440
210214
214123
220686
209227
205690
206128
210112
216614
208117
204030
205120
211586
218561
209193
205638
206920
214618
225287
212163
209603
211165
219213
233670
215783
214331
216043
222686
235503
225468
226295
226834
227348
227693
227960
228136
228252
228339
228398
228503
228647
228804
229101
225408
226149
226675
227130
227469
227756
227963
228129
228276
228418
228587
228817
229093
229438
225359
225986
226492
226935
227276
227571
227805
228006
228193
228382
228610
228864
229167
229483
225394
225929
226386
226791
227119
227416
227668
227896
228115
228333
228575
228856
229192
229543
225504
225911
226314
226670
226982
227273
227534
227777
228013
228249
228504
228788
229128
229490
225566
225921
226254
226570
226859
227136
227395
227646
227891
228140
228401
228688
229020
229377
225663
225930
226201
226472
226732
226992
227245
227498
227747
228001
228266
228551
228872
229219
225687
225903
226131
226362
226598
226841
227086
227337
227587
227846
228116
228400
228709
229033
225654
225831
226022
226225
226445
226680
226920
227174
227426
227690
227963
228244
228537
228823
225510
225670
225850
226050
226273
226510
226757
227020
227281
227555
227834
228113
228389
228639
225297
225451
225628
225840
226077
226329
226592
226871
227148
227435
227723
227997
228260
228463
224950
225141
225329
225582
225844
226135
226433
226742
227045
227352
227649
227916
228163
228327
224571
224768
224972
225272
225588
225941
226283
226636
226975
227311
227619
227875
228120
228230
223947
224268
224555
224935
225323
225736
226145
226546
226924
227275
227592
227815
228005
228112
230401
230949
231254
231546
231764
231959
232118
232256
232387
232510
232663
232825
233014
233352
230389
230812
231098
231359
231579
231780
231962
232134
232310
232499
232718
232967
233231
233602
230383
230711
230981
231219
231441
231650
231854
232053
232258
232480
232731
233017
233314
233693
230432
230686
230921
231132
231345
231556
231772
231993
232224
232475
232749
233061
233388
233771
230538
230720
230896
231081
231282
231492
231716
231952
232198
232466
232751
233072
233410
233793
230643
230769
230909
231063
231246
231449
231674
231918
232176
232459
232754
233081
233423
233804
230725
230808
230917
231054
231224
231422
231648
231898
232163
232452
232749
233071
233406
233772
230772
230828
230925
231050
231215
231410
231636
231889
232157
232446
232744
233056
233380
233719
230770
230823
230917
231039
231205
231403
231632
231887
232156
232445
232741
233042
233349
233654
230700
230775
230879
231020
231200
231410
231647
231910
232182
232469
232759
233044
233327
233587
230590
230694
230816
230985
231185
231414
231667
231942
232221
232509
232797
233071
233334
233550
230400
230561
230714
230932
231164
231427
231705
231999
232289
232580
232862
233122
233358
233525
230190
230393
230582
230858
231133
231440
231748
232066
232372
232667
232948
233191
233407
233535
229832
230152
230420
230765
231099
231459
231803
232142
232464
232759
233032
233251
233460
233538
234452
234749
234871
235004
235127
235241
235355
235472
235596
235737
235900
236091
236285
236585
234398
234631
234760
234889
235015
235136
235263
235404
235555
235733
235937
236176
236411
236718
234429
234597
234718
234834
234959
235089
235230
235390
235559
235758
235972
236226
236479
236802
234495
234614
234712
234820
234945
235081
235232
235407
235589
235803
236032
236300
236571
236901
234586
234660
234745
234847
234971
235109
235267
235448
235637
235860
236094
236368
236647
236973
234677
234727
234796
234890
235010
235149
235312
235501
235698
235927
236164
236440
236722
237044
234761
234793
234856
234946
235067
235210
235379
235572
235774
236004
236241
236510
236789
237100
234823
234851
234917
235009
235136
235284
235459
235656
235863
236092
236326
236584
236851
237144
234857
234896
234971
235072
235209
235367
235550
235751
235960
236186
236415
236658
236913
237185
234866
234935
235027
235146
235297
235468
235663
235871
236083
236304
236525
236751
236988
237229
234857
234959
235072
235213
235383
235572
235781
235998
236214
236430
236643
236851
237073
237286
234845
234978
235118
235287
235478
235689
235915
236144
236367
236582
236787
236980
237184
237361
234848
234991
235151
235355
235573
235811
236058
236301
236528
236739
236936
237111
237294
237450
234765
234957
235173
235425
235679
235944
236211
236465
236696
236902
237088
237251
237414
237574
237370
237492
237531
237588
237636
237691
237755
237835
237921
238037
238161
238322
238471
238700
237268
237382
237428
237493
237552
237618
237694
237790
237896
238036
238187
238374
238558
238786
237241
237339
237391
237455
237520
237596
237686
237799
237922
238077
238235
238425
238612
238853
237260
237329
237383
237452
237527
237616
237718
237842
237972
238133
238300
238501
238701
238945
237299
237352
237412
237489
237578
237677
237789
237919
238053
238216
238385
238588
238794
239039
237366
237412
237475
237552
237646
237751
237871
238006
238145
238310
238481
238685
238897
239142
237434
237480
237552
237634
237737
237849
237976
238114
238256
238421
238590
238790
239002
239241
237519
237570
237649
237738
237848
237966
238098
238239
238382
238545
238712
238906
239114
239343
237604
237666
237752
237850
237969
238094
238232
238375
238519
238678
238840
239024
239224
239441
237713
237792
237882
237987
238111
238242
238384
238530
238674
238830
238986
239160
239350
239553
237828
237927
238021
238135
238263
238400
238546
238695
238839
238989
239137
239299
239476
239665
237972
238079
238177
238298
238429
238572
238723
238874
239018
239163
239304
239459
239625
239804
238144
238247
238352
238476
238610
238758
238913
239066
239209
239347
239480
239623
239776
239948
238305
238408
238529
238661
238800
238951
239109
239263
239403
239533
239656
239788
239925
240119
239044
239178
239227
239287
239327
239366
239403
239446
239484
239542
239591
239660
239712
239792
238985
239101
239158
239223
239273
239320
239364
239416
239465
239533
239605
239696
239783
239885
238977
239073
239135
239200
239258
239315
239371
239436
239500
239584
239665
239762
239847
239969
238986
239068
239137
239207
239276
239342
239407
239476
239543
239631
239719
239827
239928
240061
239025
239101
239179
239255
239332
239406
239480
239555
239628
239717
239805
239914
240024
240162
239093
239164
239246
239324
239407
239486
239566
239644
239720
239810
239899
240009
240127
240271
239182
239252
239337
239418
239507
239590
239674
239755
239833
239922
240010
240119
240240
240382
239310
239377
239461
239542
239632
239715
239799
239879
239957
240044
240132
240239
240361
240496
239458
239524
239602
239683
239771
239853
239935
240013
240087
240172
240257
240361
240478
240604
239630
239698
239768
239846
239928
240005
240082
240155
240225
240305
240387
240484
240595
240713
239829
239899
239956
240027
240100
240169
240238
240304
240367
240440
240513
240601
240703
240810
240034
240104
240152
240213
240275
240336
240397
240456
240512
240576
240639
240720
240813
240915
240264
240329
240364
240411
240460
240511
240562
240611
240658
240711
240765
240836
240918
241012
240495
240543
240570
240604
240639
240680
240722
240763
240800
240843
240884
240945
241010
241120
239993
240171
240266
240353
240421
240473
240507
240523
240515
240496
240458
240406
240336
240272
240039
240171
240265
240352
240423
240477
240515
240532
240526
240509
240476
240439
240405
240374
240087
240199
240289
240371
240443
240499
240542
240567
240573
240571
240552
240526
240485
240466
240148
240242
240331
240410
240482
240534
240576
240598
240604
240604
240593
240583
240562
240560
240224
240309
240395
240469
240537
240587
240627
240651
240659
240662
240656
240651
240640
240646
240323
240397
240477
240543
240604
240648
240682
240702
240711
240716
240715
240718
240716
240729
240436
240502
240571
240628
240680
240718
240746
240761
240770
240777
240778
240788
240792
240813
240569
240622
240677
240721
240763
240792
240813
240823
240830
240837
240840
240852
240863
240890
240710
240750
240789
240821
240851
240871
240885
240889
240893
240898
240899
240911
240928
240962
240846
240874
240898
240919
240937
240947
240954
240954
240952
240954
240951
240964
240986
241025
240979
240998
241009
241019
241027
241026
241025
241017
241008
241005
240999
241013
241039
241078
241091
241104
241106
241107
241107
241098
241089
241073
241058
241054
241047
241063
241087
241130
241199
241208
241201
241194
241186
241169
241150
241127
241109
241101
241093
241107
241131
241165
241293
241299
241284
241270
241255
241234
241212
241187
241165
241156
241143
241152
241169
241225
240654
240811
240906
240978
241026
241056
241068
241058
241028
240980
240907
240811
240687
240541
240788
240895
240977
241037
241074
241094
241096
241078
241040
240980
240896
240793
240683
240571
240902
240982
241046
241086
241113
241125
241122
241104
241067
241008
240928
240830
240721
240612
241009
241057
241103
241128
241145
241148
241141
241118
241075
241014
240937
240847
240749
240655
241093
241123
241154
241168
241177
241173
241160
241131
241087
241028
240955
240874
240787
240699
241165
241183
241199
241203
241204
241193
241171
241135
241089
241031
240964
240892
240815
240736
241223
241231
241237
241233
241224
241205
241178
241139
241092
241037
240974
240910
240841
240775
241268
241268
241264
241253
241237
241213
241181
241139
241090
241036
240976
240919
240859
240807
241304
241297
241286
241269
241249
241219
241184
241139
241089
241036
240978
240928
240877
240838
241332
241319
241302
241280
241254
241220
241181
241133
241082
241030
240975
240933
240889
240859
241357
241339
241318
241291
241261
241222
241179
241127
241075
241024
240973
240936
240898
240876
241367
241347
241324
241293
241261
241218
241173
241120
241067
241020
240971
240937
240901
240881
241381
241361
241335
241303
241267
241220
241171
241115
241062
241013
240964
240931
240900
240877
241373
241353
241333
241301
241267
241220
241172
241117
241065
241017
240967
240932
240895
240877
241052
241113
241150
241174
241185
241186
241173
241142
241093
241026
240938
240837
240718
240577
241182
241204
241225
241236
241238
241227
241201
241159
241098
241018
240917
240803
240680
240546
241269
241275
241288
241285
241277
241255
241223
241175
241109
241025
240924
240807
240678
240533
241328
241324
241327
241316
241299
241270
241230
241175
241103
241016
240912
240792
240663
240518
241368
241358
241349
241330
241306
241272
241225
241167
241095
241007
240902
240781
240653
240512
241383
241370
241354
241329
241298
241259
241211
241151
241077
240987
240883
240764
240640
240504
241378
241364
241344
241317
241283
241241
241190
241127
241052
240962
240861
240749
240630
240501
241366
241348
241326
241296
241259
241215
241161
241095
241018
240929
240831
240725
240611
240490
241343
241324
241301
241268
241230
241182
241124
241056
240978
240891
240796
240696
240585
240474
241308
241287
241263
241228
241188
241136
241076
241006
240929
240844
240753
240657
240550
240449
241262
241239
241215
241178
241136
241082
241021
240950
240873
240790
240701
240610
240508
240419
241197
241174
241150
241112
241070
241015
240955
240885
240810
240727
240642
240554
240460
240376
241124
241102
241077
241040
240997
240943
240883
240812
240736
240654
240571
240489
240406
240327
241023
241009
240989
240955
240915
240862
240803
240735
240664
240587
240509
240429
240347
240269
241064
241043
241035
241024
241012
240993
240968
240934
240888
240829
240759
240680
240588
240471
241113
241080
241064
241043
241022
240994
240959
240912
240852
240780
240695
240601
240499
240371
241142
241106
241078
241050
241020
240985
240940
240884
240815
240735
240642
240539
240429
240292
241147
241111
241078
241045
241008
240964
240909
240844
240767
240678
240576
240464
240345
240203
241141
241103
241063
241023
240977
240925
240863
240793
240710
240616
240510
240392
240269
240125
241115
241074
241029
240983
240929
240872
240805
240730
240644
240547
240437
240316
240190
240049
241071
241025
240975
240923
240865
240804
240733
240656
240568
240470
240361
240242
240116
239980
241007
240956
240903
240848
240788
240723
240652
240572
240484
240387
240280
240165
240042
239914
240926
240871
240818
240760
240700
240634
240562
240482
240395
240300
240198
240088
239971
239852
240828
240772
240720
240662
240602
240536
240465
240386
240302
240211
240115
240011
239899
239792
240720
240664
240615
240557
240499
240434
240366
240290
240210
240123
240031
239936
239830
239734
240599
240546
240501
240446
240391
240329
240264
240193
240117
240036
239950
239861
239762
239672
240481
240430
240386
240333
240282
240223
240162
240095
240023
239946
239866
239784
239695
239611
240332
240293
240258
240212
240167
240114
240059
239998
239933
239863
239790
239710
239627
239537
240828
240750
240685
240624
240576
240534
240496
240461
240428
240394
240358
240317
240273
240219
240792
240721
240649
240590
240535
240486
240439
240393
240347
240301
240251
240196
240144
240067
240761
240685
240608
240547
240485
240431
240376
240323
240269
240213
240153
240088
240028
239938
240718
240643
240564
240500
240434
240375
240312
240252
240189
240123
240054
239982
239909
239814
240662
240585
240505
240438
240369
240305
240239
240173
240104
240033
239957
239877
239796
239698
240593
240515
240435
240366
240295
240229
240159
240089
240015
239938
239857
239771
239683
239583
240508
240427
240349
240278
240207
240139
240069
239997
239921
239841
239757
239667
239575
239475
240407
240324
240249
240177
240108
240040
239969
239897
239820
239740
239655
239565
239470
239371
240293
240210
240138
240065
239998
239930
239862
239790
239715
239636
239552
239464
239370
239275
240165
240083
240015
239943
239878
239812
239746
239676
239604
239528
239447
239363
239272
239182
240032
239952
239886
239816
239754
239689
239626
239560
239492
239420
239343
239264
239178
239097
239886
239810
239749
239683
239624
239563
239504
239443
239379
239312
239241
239167
239087
239014
239749
239675
239616
239553
239496
239438
239382
239325
239267
239206
239140
239074
239001
238938
239586
239523
239469
239414
239364
239312
239262
239211
239159
239105
239047
238985
238918
238851
240488
240391
240298
240220
240153
240100
240058
240025
240002
239983
239971
239960
239953
239938
240390
240304
240207
240128
240056
239997
239947
239907
239875
239849
239829
239808
239797
239764
240286
240199
240100
240022
239946
239886
239831
239786
239748
239717
239690
239662
239643
239605
240185
240095
239996
239916
239838
239774
239715
239665
239621
239584
239549
239516
239488
239447
240072
239979
239881
239800
239722
239656
239595
239542
239495
239452
239412
239374
239340
239296
239952
239858
239763
239682
239604
239537
239475
239419
239369
239322
239277
239234
239193
239149
239826
239730
239639
239558
239483
239416
239354
239297
239244
239194
239146
239099
239054
239009
239693
239598
239512
239432
239359
239292
239231
239174
239120
239069
239018
238969
238920
238874
239558
239463
239382
239303
239234
239168
239108
239051
238998
238946
238895
238846
238795
238748
239418
239325
239249
239173
239106
239042
238985
238929
238877
238826
238776
238727
238676
238631
239279
239189
239117
239043
238979
238917
238862
238809
238759
238711
238662
238616
238566
238524
239135
239050
238981
238911
238850
238792
238740
238690
238643
238599
238553
238510
238463
238424
239000
238918
238852
238785
238726
238671
238621
238575
238532
238491
238449
238411
238367
238334
238855
238780
238717
238654
238600
238549
238505
238463
238425
238390
238354
238319
238281
238247
240037
239947
239856
239780
239713
239658
239614
239582
239562
239550
239548
239554
239567
239572
239892
239816
239723
239646
239575
239518
239472
239438
239416
239402
239397
239397
239407
239399
239744
239667
239575
239500
239430
239373
239326
239292
239268
239251
239244
239241
239249
239238
239596
239519
239430
239355
239286
239229
239182
239147
239121
239102
239091
239086
239089
239080
239448
239369
239282
239209
239142
239086
239039
239003
238976
238954
238941
238935
238935
238927
239299
239218
239136
239065
239000
238945
238899
238862
238833
238810
238795
238787
238784
238778
239153
239071
238993
238924
238861
238808
238762
238725
238695
238671
238654
238645
238638
238635
239008
238927
238854
238786
238726
238673
238628
238591
238561
238536
238518
238507
238499
238494
238869
238788
238719
238653
238595
238544
238500
238464
238434
238409
238389
238377
238367
238362
238732
238652
238587
238523
238468
238418
238376
238341
238312
238287
238267
238253
238241
238236
238601
238523
238461
238399
238346
238299
238259
238225
238197
238173
238154
238139
238126
238123
238471
238395
238337
238278
238227
238182
238145
238114
238088
238065
238046
238032
238018
238017
238351
238276
238220
238163
238115
238073
238038
238008
237984
237964
237947
237934
237921
237924
238224
238156
238102
238049
238004
237965
237934
237908
237887
237868
237854
237841
237829
237829
239471
239411
239347
239295
239247
239207
239173
239148
239132
239125
239128
239140
239161
239176
239309
239262
239198
239147
239100
239061
239029
239004
238989
238983
238988
238998
239020
239024
239153
239107
239045
238995
238951
238914
238883
238860
238846
238841
238846
238856
238878
238882
238998
238952
238893
238846
238804
238768
238739
238718
238705
238700
238705
238714
238735
238743
238850
238802
238747
238701
238660
238626
238598
238578
238566
238563
238567
238576
238596
238610
238704
238655
238604
238560
238521
238488
238462
238443
238432
238429
238434
238443
238461
238478
238566
238516
238468
238425
238387
238356
238331
238312
238303
238300
238305
238314
238332
238350
238433
238382
238336
238295
238259
238229
238206
238188
238179
238177
238182
238191
238206
238225
238308
238255
238212
238172
238138
238109
238087
238071
238063
238061
238065
238074
238087
238107
238186
238133
238093
238054
238023
237996
237975
237960
237952
237951
237954
237962
237972
237993
238073
238019
237981
237944
237915
237890
237871
237857
237850
237849
237851
237859
237868
237888
237963
237909
237874
237840
237812
237789
237772
237759
237753
237751
237753
237761
237769
237789
237860
237808
237776
237743
237717
237696
237680
237669
237663
237662
237665
237672
237682
237704
237753
237709
237678
237648
237625
237606
237593
237583
237579
237579
237582
237589
237599
237616
238837
238823
238799
238779
238760
238744
238731
238722
238717
238717
238723
238735
238757
238779
238695
238693
238671
238653
238635
238621
238611
238604
238602
238605
238613
238626
238649
238661
238569
238566
238545
238527
238511
238498
238489
238485
238484
238489
238499
238513
238540
238552
238442
238435
238417
238401
238387
238377
238370
238367
238369
238375
238387
238403
238429
238443
238322
238311
238294
238279
238267
238258
238253
238251
238254
238263
238276
238294
238321
238339
238205
238191
238175
238162
238151
238144
238140
238140
238144
238154
238169
238187
238213
238235
238093
238077
238062
238049
238040
238033
238031
238032
238038
238049
238064
238084
238109
238134
237985
237968
237954
237943
237934
237928
237927
237929
237936
237947
237963
237983
238007
238034
237883
237866
237852
237841
237833
237828
237828
237831
237838
237850
237866
237886
237909
237939
237785
237768
237755
237745
237738
237734
237734
237738
237746
237757
237773
237793
237816
237847
237694
237674
237664
237655
237649
237646
237647
237651
237659
237671
237687
237707
237728
237760
237609
237586
237578
237571
237566
237564
237565
237569
237578
237590
237605
237625
237645
237678
237528
237505
237499
237493
237489
237488
237490
237496
237505
237517
237533
237552
237574
237608
237446
237427
237421
237417
237416
237415
237419
237425
237435
237447
237464
237483
237505
237534
238181
238199
238212
238228
238241
238252
238263
238273
238284
238294
238306
238321
238339
238360
238094
238113
238128
238145
238159
238173
238186
238198
238211
238225
238240
238256
238275
238291
238011
238032
238047
238064
238078
238093
238106
238120
238134
238149
238166
238184
238206
238224
237928
237950
237965
237983
237997
238012
238027
238041
238057
238073
238092
238112
238136
238155
237848
237869
237884
237901
237915
237931
237946
237961
237978
237996
238017
238039
238063
238085
237768
237789
237804
237820
237835
237850
237866
237882
237900
237919
237940
237963
237989
238014
237692
237709
237724
237740
237755
237770
237787
237804
237822
237842
237865
237889
237915
237942
237616
237631
237647
237663
237678
237694
237710
237728
237747
237767
237790
237815
237841
237871
237544
237556
237573
237587
237603
237619
237636
237654
237673
237694
237717
237743
237769
237801
237475
237485
237501
237516
237532
237548
237565
237583
237602
237623
237647
237673
237699
237732
237410
237416
237432
237447
237463
237479
237497
237515
237535
237556
237580
237606
237631
237665
237348
237352
237368
237382
237398
237415
237432
237451
237471
237492
237516
237541
237566
237600
237286
237291
237306
237321
237338
237355
237374
237393
237414
237436
237460
237484
237511
237545
237228
237234
237250
237266
237283
237300
237318
237337
237358
237379
237403
237428
237455
237485
237471
237516
237557
237597
237633
237666
237696
237722
237747
237769
237790
237810
237828
237849
237442
237489
237529
237569
237605
237639
237670
237700
237726
237750
237773
237795
237816
237837
237412
237459
237499
237539
237575
237609
237640
237669
237696
237721
237745
237768
237791
237813
237377
237423
237463
237502
237539
237574
237606
237636
237665
237691
237717
237741
237765
237788
237343
237387
237428
237467
237503
237537
237569
237600
237628
237655
237681
237706
237731
237756
237305
237348
237388
237427
237463
237498
237530
237561
237590
237618
237645
237671
237698
237723
237268
237309
237348
237386
237422
237456
237489
237520
237549
237578
237605
237632
237659
237685
237229
237269
237308
237345
237380
237414
237446
237477
237507
237536
237564
237592
237619
237647
237190
237228
237266
237302
237337
237370
237403
237433
237463
237493
237521
237549
237577
237605
237152
237188
237226
237260
237295
237327
237359
237390
237420
237449
237478
237506
237533
237563
237113
237147
237185
237219
237252
237285
237317
237347
237377
237406
237435
237463
237490
237520
237075
237108
237145
237178
237211
237244
237275
237305
237335
237364
237392
237420
237446
237478
237037
237070
237105
237139
237172
237205
237236
237267
237296
237325
237353
237380
237408
237439
237009
237040
237074
237107
237138
237169
237198
237227
237256
237284
237312
237338
237366
237395
236877
236919
236960
236996
237031
237062
237091
237117
237141
237169
236691
236742
236793
236842
236890
236934
236976
237015
237051
237085
237115
237143
237168
237196
236703
236755
236808
236857
236905
236949
236992
237031
237067
237101
237132
237160
237185
237213
236710
236762
236816
236865
236914
236960
237003
237043
237081
237115
237147
237176
237203
237230
236717
236770
236824
236874
236922
236968
237012
237052
237089
237124
237156
237185
237212
237239
236720
236773
236826
236877
236926
236972
237016
237057
237095
237130
237162
237192
237220