/*--------------------------------*- C++ -*----------------------------------*\
| =========                 |                                                 |
| \\      /  F ield         | OpenFOAM: The Open Source CFD Toolbox           |
|  \\    /   O peration     | Version:  v2106                                 |
|   \\  /    A nd           | Website:  www.openfoam.com                      |
|    \\/     M anipulation  |                                                 |
\*---------------------------------------------------------------------------*/
FoamFile
{
    version     2.0;
    format      ascii;
    arch        "LSB;label=32;scalar=64";
    class       volScalarField;
    location    "0.000156";
    object      T;
}
// * * * * * * * * * * * * * * * * * * * * * * * * * * * * * * * * * * * * * //

dimensions      [0 0 0 1 0 0 0];

internalField   nonuniform List<scalar> 
18109
(
300.146
300.658
300.884
301.08
301.165
301.225
301.257
300.126
300.538
300.766
300.951
301.063
301.15
301.204
300.073
300.397
300.626
300.821
300.964
301.077
301.153
300.04
300.295
300.517
300.72
300.878
301.009
301.102
300.019
300.234
300.442
300.64
300.8
300.936
301.037
300.021
300.208
300.395
300.574
300.723
300.85
300.95
300.009
300.183
300.336
300.501
300.632
300.745
300.837
299.989
300.124
300.282
300.414
300.522
300.616
300.698
301.11
301.465
301.662
301.836
301.92
301.982
302.015
302.033
302.039
302.073
302.116
302.199
302.29
302.463
301.011
301.298
301.508
301.688
301.809
301.9
301.958
301.999
302.031
302.075
302.145
302.245
302.387
302.564
300.923
301.156
301.363
301.557
301.704
301.819
301.899
301.96
302.011
302.069
302.15
302.253
302.397
302.547
300.879
301.075
301.274
301.466
301.619
301.747
301.842
301.918
301.984
302.046
302.128
302.23
302.377
302.524
300.858
301.038
301.219
301.398
301.547
301.674
301.776
301.86
301.933
302
302.077
302.172
302.308
302.458
300.859
301.021
301.183
301.342
301.477
301.596
301.697
301.783
301.859
301.93
302.006
302.094
302.216
302.354
300.869
300.996
301.145
301.283
301.4
301.506
301.6
301.686
301.764
301.838
301.914
301.997
302.106
302.229
300.857
300.98
301.104
301.214
301.309
301.4
301.487
301.572
301.653
301.732
301.811
301.893
301.99
302.104
300.825
300.943
301.045
301.128
301.204
301.283
301.363
301.45
301.534
301.62
301.704
301.787
301.878
301.982
300.78
300.887
300.964
301.024
301.086
301.153
301.233
301.326
301.42
301.516
301.609
301.699
301.792
301.893
300.7
300.804
300.86
300.908
300.956
301.017
301.102
301.206
301.313
301.423
301.528
301.631
301.734
301.84
300.579
300.692
300.736
300.774
300.811
300.879
300.976
301.099
301.227
301.355
301.473
301.583
301.694
301.803
300.463
300.549
300.588
300.626
300.674
300.759
300.871
301.012
301.164
301.318
301.459
301.587
301.7
301.775
300.06
300.229
300.346
300.459
300.559
300.675
300.806
300.959
301.122
301.295
301.458
301.567
301.662
301.717
300.222
299.631
298.728
297.312
296.082
295.326
301.218
300.78
300.131
299.045
297.82
296.771
301.613
301.358
300.947
300.208
299.426
298.896
301.835
301.727
301.557
301.194
300.869
300.712
301.994
301.988
301.991
301.946
302.007
302.26
302.047
302.145
302.293
302.491
302.856
303.332
302.1
302.236
302.457
302.791
303.296
303.773
302.12
302.246
302.495
302.88
303.381
303.757
302.115
302.23
302.493
302.865
303.26
303.461
302.111
302.225
302.448
302.69
302.856
302.762
302.139
302.217
302.357
302.423
302.284
301.569
302.148
302.168
302.201
302.084
301.555
300.231
302.212
302.18
302.131
301.803
300.966
299.304
302.292
302.248
302.174
301.746
300.811
299.165
302.478
302.41
302.308
301.856
300.969
299.647
302.576
302.498
302.435
302.119
301.453
300.532
302.796
302.795
302.797
302.605
302.175
301.649
302.786
302.911
303.006
302.99
302.87
302.77
302.764
302.952
303.135
303.293
303.453
303.676
302.681
302.923
303.189
303.505
303.909
304.382
302.559
302.815
303.136
303.544
304.08
304.635
302.42
302.668
303.012
303.48
304.039
304.542
302.284
302.516
302.861
303.305
303.76
304.034
302.157
302.37
302.672
302.989
303.19
303.119
302.07
302.24
302.413
302.503
302.405
301.753
301.977
302.05
302.088
301.935
301.412
300.179
301.911
301.885
301.773
301.368
300.504
299.013
301.831
301.735
301.499
300.95
299.951
298.584
301.793
301.645
301.395
300.794
299.829
298.609
301.804
301.694
301.491
300.977
300.247
299.44
301.796
301.729
301.612
301.275
300.865
300.542
301.69
301.691
301.685
301.644
301.634
301.718
301.53
301.596
301.688
301.858
302.16
302.52
301.345
301.445
301.627
301.917
302.346
302.743
301.148
301.245
301.465
301.792
302.149
302.294
300.966
301.022
301.193
301.37
301.423
300.951
300.793
300.766
300.783
300.6
300.01
298.537
300.638
300.488
300.235
299.46
297.913
295.334
300.461
300.117
299.482
298.056
295.741
292.674
300.257
299.689
298.676
296.795
294.227
291.333
300.022
299.264
297.999
296.076
293.63
291.163
299.851
298.971
297.696
295.892
293.829
291.924
299.739
298.796
297.585
296.002
294.487
293.343
299.676
298.821
297.155
294.334
290.719
287.226
299.664
298.72
296.965
294.263
290.942
287.99
299.778
298.812
297.163
294.77
292.151
290.057
299.923
298.998
297.635
295.722
293.81
292.462
299.95
299.292
298.396
297.062
296.109
295.53
300.226
299.711
299.087
298.22
297.755
297.593
300.429
300.096
299.766
299.392
299.347
299.575
300.578
300.414
300.331
300.284
300.519
300.925
300.678
300.605
300.609
300.738
301.062
301.328
300.731
300.651
300.673
300.826
301.057
301.081
300.732
300.622
300.65
300.647
300.579
299.895
300.714
300.569
300.496
300.167
299.408
297.574
300.712
300.506
300.229
299.37
297.623
294.634
300.69
300.365
299.764
298.294
295.774
292.33
300.67
300.216
299.339
297.462
294.688
291.301
300.697
300.169
299.152
297.244
294.57
291.53
300.821
300.27
299.214
297.457
295.128
292.764
301.001
300.4
299.454
297.984
296.169
294.51
296.157
296.077
297.42
298.672
297.02
298.818
299.332
300.399
300.483
297.038
301.132
301.894
302.43
301.226
296.496
302.902
303.438
303.114
300.041
292.364
303.875
304.025
302.699
296.807
285.987
304.153
303.676
300.3
291.273
279.296
303.823
302.133
296.261
285.471
274.974
302.61
298.885
291.006
280.446
271.752
266.984
300.621
294.895
286.614
278.317
271.108
265.93
298.292
291.516
284.556
278.728
273.798
267.888
296.511
290.181
285.119
282.216
280.009
275.581
270.861
295.814
290.5
287.455
287.006
287.678
285.073
281.14
277.639
296.151
292.242
290.648
291.62
293.43
292.993
292.077
294.031
297.414
294.99
294.308
295.412
296.671
295.198
293.946
289.877
299.198
298.047
298.036
298.72
298.434
293.283
287.138
279.693
301.104
300.782
301.126
301.515
299.751
293.239
283.89
276.329
302.82
303.117
303.513
303.04
300.361
293.778
287.247
277.391
304.147
304.649
304.824
303.497
298.846
289.953
282.692
278.347
304.99
305.405
305.252
302.77
295.792
284.665
275.28
269.094
305.17
305.356
304.22
299.88
291.225
280.788
272.168
268.41
304.83
304.28
301.478
295.222
286.74
279.308
273.259
268.4
303.647
301.524
296.629
289.257
281.625
275.403
271.446
270.91
301.584
297.583
291.635
285.094
279.05
272.753
299.059
293.78
288.498
283.872
279.564
273.626
296.926
291.876
288.101
285.958
284.377
280.219
295.919
291.77
289.604
289.628
290.064
287.932
295.906
292.91
292.042
293.362
294.728
293.373
296.907
295.294
295.41
296.59
296.719
298.638
298.161
298.724
299.393
297.269
300.488
300.781
301.271
300.845
296.909
302.108
302.514
302.483
300.694
295.124
302.931
303.113
302.09
297.931
290.183
302.953
302.159
299.125
292.56
284.105
301.605
298.889
293.85
286.787
279.715
298.69
294.054
288.573
283.169
278.332
294.745
289.521
285.428
282.192
278.576
291.031
286.791
284.837
282.815
278.311
288.926
286.124
285.657
284.727
280.791
288.426
286.409
287.413
288.51
285.735
288.843
287.659
289.53
291.827
290.372
290.524
290.254
292.511
295.12
294.55
292.768
293.28
295.532
297.425
295.74
295.405
296.463
298.178
298.686
294.642
298.057
299.169
299.988
299.085
292.55
300.229
300.771
300.545
297.09
289.554
301.301
301.173
298.813
291.995
282.476
301.313
299.337
293.957
284.585
274.598
299.783
295.275
287.825
278.618
269.973
296.596
290.065
282.733
275.562
268.851
292.598
285.648
280.143
275.019
269.334
289.218
283.602
280.229
276.225
269.291
287.606
283.503
281.894
279.555
273.597
287.3
284.158
284.157
284.492
280.693
288.312
286.183
287.329
289.105
287.922
290.492
289.143
290.607
293.236
294.225
293.169
292.489
293.971
296.244
296.909
302.379
302.63
302.782
302.938
303.041
303.118
303.164
303.194
303.22
303.243
303.296
303.376
303.464
303.61
302.282
302.488
302.652
302.81
302.929
303.027
303.096
303.149
303.2
303.253
303.325
303.427
303.554
303.715
302.212
302.376
302.539
302.703
302.835
302.947
303.032
303.105
303.173
303.243
303.332
303.436
303.563
303.706
302.19
302.331
302.481
302.635
302.765
302.881
302.978
303.064
303.146
303.227
303.319
303.43
303.567
303.719
302.204
302.316
302.453
302.587
302.71
302.824
302.926
303.019
303.108
303.196
303.292
303.401
303.539
303.691
302.207
302.321
302.437
302.555
302.665
302.772
302.872
302.969
303.062
303.155
303.253
303.362
303.491
303.634
302.243
302.333
302.428
302.525
302.619
302.716
302.813
302.911
303.007
303.103
303.202
303.307
303.428
303.559
302.263
302.335
302.413
302.49
302.571
302.658
302.75
302.848
302.945
303.044
303.144
303.248
303.359
303.477
302.261
302.324
302.385
302.445
302.514
302.595
302.684
302.783
302.882
302.984
303.086
303.187
303.291
303.394
302.222
302.283
302.333
302.385
302.448
302.527
302.619
302.723
302.827
302.933
303.038
303.141
303.24
303.333
302.167
302.226
302.265
302.311
302.374
302.455
302.555
302.667
302.778
302.891
303.002
303.106
303.209
303.293
302.073
302.144
302.174
302.225
302.289
302.382
302.496
302.622
302.745
302.867
302.983
303.09
303.196
303.277
301.972
302.043
302.07
302.13
302.207
302.319
302.447
302.59
302.73
302.868
302.995
303.103
303.212
303.274
301.747
301.873
301.944
302.043
302.149
302.276
302.418
302.568
302.721
302.876
303.021
303.123
303.2
303.245
304.109
304.274
304.368
304.47
304.547
304.613
304.665
304.709
304.753
304.795
304.851
304.916
304.997
305.136
304.065
304.176
304.276
304.377
304.463
304.538
304.603
304.664
304.728
304.797
304.877
304.971
305.076
305.227
304.039
304.12
304.218
304.314
304.403
304.485
304.561
304.635
304.711
304.793
304.885
304.992
305.106
305.26
304.04
304.109
304.196
304.28
304.365
304.448
304.53
304.613
304.7
304.793
304.894
305.01
305.134
305.286
304.069
304.124
304.19
304.263
304.342
304.424
304.51
304.599
304.69
304.79
304.895
305.014
305.142
305.29
304.11
304.149
304.2
304.26
304.33
304.408
304.493
304.586
304.683
304.788
304.897
305.018
305.145
305.291
304.152
304.175
304.211
304.26
304.323
304.397
304.483
304.578
304.678
304.786
304.895
305.014
305.137
305.274
304.183
304.194
304.221
304.261
304.319
304.391
304.477
304.574
304.675
304.783
304.893
305.008
305.125
305.248
304.19
304.2
304.223
304.258
304.314
304.386
304.474
304.572
304.674
304.783
304.892
305.002
305.112
305.219
304.172
304.191
304.214
304.251
304.309
304.386
304.477
304.579
304.683
304.791
304.899
305.003
305.104
305.195
304.149
304.175
304.195
304.236
304.3
304.384
304.483
304.59
304.698
304.807
304.914
305.014
305.11
305.19
304.1
304.141
304.162
304.215
304.29
304.388
304.497
304.612
304.725
304.836
304.942
305.038
305.126
305.192
304.045
304.092
304.12
304.192
304.283
304.395
304.514
304.64
304.761
304.877
304.985
305.076
305.157
305.208
303.929
304.017
304.078
304.176
304.285
304.411
304.539
304.673
304.804
304.925
305.036
305.123
305.2
305.224
305.554
305.651
305.688
305.736
305.783
305.825
305.866
305.907
305.951
306.002
306.061
306.13
306.201
306.313
305.517
305.586
305.634
305.686
305.736
305.783
305.83
305.882
305.937
306.003
306.077
306.164
306.25
306.366
305.522
305.569
305.615
305.664
305.715
305.765
305.818
305.878
305.94
306.014
306.092
306.185
306.278
306.4
305.54
305.574
305.614
305.66
305.71
305.762
305.819
305.885
305.953
306.032
306.116
306.214
306.314
306.438
305.572
305.595
305.629
305.672
305.721
305.774
305.833
305.901
305.972
306.054
306.139
306.239
306.342
306.464
305.611
305.627
305.653
305.69
305.736
305.789
305.851
305.921
305.994
306.079
306.166
306.266
306.369
306.489
305.65
305.658
305.679
305.712
305.758
305.812
305.875
305.948
306.023
306.108
306.194
306.292
306.394
306.508
305.68
305.684
305.704
305.736
305.783
305.838
305.905
305.978
306.055
306.14
306.226
306.32
306.416
306.522
305.699
305.704
305.725
305.759
305.809
305.868
305.937
306.013
306.091
306.174
306.258
306.347
306.439
306.536
305.708
305.722
305.747
305.785
305.839
305.904
305.977
306.056
306.135
306.217
306.299
306.381
306.466
306.551
305.714
305.738
305.765
305.808
305.868
305.94
306.02
306.102
306.183
306.264
306.342
306.418
306.498
306.573
305.721
305.752
305.783
305.833
305.901
305.981
306.068
306.156
306.24
306.32
306.397
306.467
306.54
306.603
305.73
305.763
305.797
305.858
305.935
306.025
306.12
306.214
306.301
306.381
306.455
306.519
306.584
306.642
305.705
305.752
305.81
305.887
305.975
306.073
306.177
306.276
306.367
306.447
306.518
306.578
306.636
306.695
306.603
306.647
306.661
306.683
306.702
306.723
306.747
306.776
306.807
306.85
306.896
306.955
307.008
307.091
306.561
306.601
306.62
306.646
306.67
306.696
306.724
306.76
306.799
306.851
306.907
306.975
307.042
307.124
306.55
306.585
306.607
306.634
306.659
306.689
306.722
306.764
306.81
306.867
306.926
306.995
307.063
307.15
306.557
306.582
306.605
306.634
306.663
306.696
306.735
306.781
306.829
306.889
306.95
307.023
307.096
307.185
306.573
306.593
306.617
306.648
306.683
306.72
306.762
306.81
306.86
306.92
306.982
307.056
307.13
307.22
306.601
306.618
306.643
306.672
306.708
306.748
306.793
306.843
306.894
306.955
307.017
307.091
307.168
307.257
306.63
306.645
306.672
306.703
306.742
306.784
306.832
306.883
306.935
306.996
307.057
307.13
307.207
307.293
306.664
306.68
306.708
306.741
306.783
306.827
306.876
306.929
306.981
307.042
307.103
307.173
307.248
307.331
306.698
306.716
306.746
306.782
306.827
306.874
306.925
306.978
307.031
307.09
307.15
307.217
307.289
307.367
306.74
306.762
306.793
306.832
306.878
306.927
306.981
307.035
307.088
307.146
307.203
307.267
307.335
307.407
306.784
306.813
306.845
306.885
306.933
306.984
307.039
307.094
307.148
307.203
307.258
307.318
307.382
307.448
306.839
306.872
306.902
306.944
306.992
307.046
307.103
307.159
307.213
307.267
307.319
307.376
307.436
307.5
306.904
306.935
306.966
307.008
307.057
307.113
307.172
307.229
307.283
307.335
307.384
307.436
307.492
307.554
306.966
306.996
307.031
307.075
307.125
307.182
307.243
307.302
307.355
307.404
307.45
307.498
307.547
307.618
307.214
307.263
307.282
307.305
307.32
307.335
307.349
307.365
307.38
307.401
307.419
307.444
307.463
307.492
307.191
307.235
307.257
307.282
307.301
307.319
307.336
307.355
307.373
307.399
307.425
307.458
307.49
307.527
307.189
307.226
307.25
307.275
307.297
307.318
307.339
307.363
307.386
307.417
307.447
307.483
307.514
307.557
307.193
307.225
307.252
307.278
307.304
307.329
307.353
307.378
307.403
307.436
307.468
307.507
307.543
307.591
307.208
307.237
307.268
307.297
307.326
307.353
307.381
307.408
307.435
307.468
307.5
307.539
307.578
307.628
307.234
307.261
307.293
307.322
307.354
307.383
307.412
307.441
307.469
307.502
307.535
307.574
307.616
307.668
307.268
307.294
307.326
307.357
307.39
307.421
307.452
307.482
307.511
307.543
307.575
307.615
307.658
307.709
307.316
307.34
307.371
307.402
307.436
307.467
307.498
307.528
307.556
307.588
307.62
307.659
307.703
307.751
307.371
307.394
307.423
307.454
307.487
307.518
307.548
307.577
307.604
307.635
307.666
307.704
307.746
307.791
307.435
307.458
307.484
307.514
307.545
307.573
307.602
307.629
307.654
307.684
307.714
307.749
307.789
307.831
307.508
307.532
307.553
307.58
307.607
307.633
307.658
307.682
307.706
307.733
307.76
307.792
307.829
307.866
307.582
307.607
307.624
307.647
307.67
307.693
307.716
307.737
307.758
307.781
307.805
307.835
307.868
307.904
307.666
307.689
307.701
307.718
307.737
307.756
307.775
307.793
307.81
307.83
307.85
307.877
307.906
307.94
307.75
307.767
307.775
307.787
307.801
307.816
307.832
307.847
307.862
307.878
307.893
307.916
307.939
307.979
307.562
307.629
307.663
307.696
307.72
307.74
307.752
307.758
307.756
307.749
307.736
307.717
307.691
307.668
307.58
307.63
307.664
307.696
307.722
307.742
307.756
307.763
307.76
307.755
307.743
307.729
307.717
307.705
307.598
307.64
307.674
307.704
307.731
307.751
307.767
307.776
307.778
307.777
307.77
307.761
307.746
307.738
307.62
307.656
307.689
307.719
307.745
307.764
307.779
307.788
307.79
307.79
307.786
307.782
307.774
307.772
307.648
307.68
307.713
307.74
307.765
307.784
307.798
307.807
307.81
307.811
307.809
307.807
307.802
307.804
307.684
307.712
307.743
307.767
307.79
307.806
307.819
307.826
307.829
307.831
307.831
307.831
307.83
307.834
307.726
307.75
307.777
307.798
307.818
307.832
307.842
307.848
307.851
307.854
307.854
307.857
307.858
307.865
307.774
307.794
307.815
307.832
307.848
307.859
307.867
307.871
307.873
307.876
307.877
307.881
307.884
307.894
307.827
307.842
307.857
307.869
307.881
307.888
307.893
307.895
307.896
307.898
307.899
307.903
307.909
307.92
307.876
307.887
307.897
307.905
307.912
307.916
307.919
307.918
307.918
307.919
307.918
307.923
307.93
307.944
307.925
307.932
307.937
307.942
307.945
307.945
307.944
307.941
307.938
307.937
307.935
307.94
307.949
307.963
307.965
307.971
307.972
307.973
307.973
307.97
307.967
307.961
307.956
307.954
307.952
307.958
307.966
307.981
308.005
308.008
308.006
308.004
308.001
307.995
307.988
307.98
307.973
307.971
307.968
307.973
307.982
307.993
308.038
308.04
308.035
308.03
308.025
308.017
308.01
308.001
307.993
307.99
307.985
307.989
307.995
308.015
307.806
307.864
307.898
307.925
307.942
307.953
307.958
307.954
307.943
307.926
307.899
307.864
307.819
307.765
307.855
307.895
307.925
307.947
307.96
307.967
307.968
307.962
307.948
307.926
307.895
307.858
307.818
307.776
307.897
307.927
307.95
307.965
307.975
307.979
307.978
307.971
307.958
307.937
307.907
307.872
307.831
307.791
307.935
307.954
307.971
307.98
307.986
307.988
307.985
307.977
307.961
307.939
307.911
307.878
307.842
307.807
307.966
307.978
307.989
307.994
307.998
307.997
307.992
307.981
307.965
307.944
307.917
307.887
307.855
307.823
307.992
307.999
308.006
308.007
308.008
308.004
307.996
307.983
307.966
307.945
307.92
307.894
307.865
307.836
308.013
308.017
308.019
308.018
308.015
308.008
307.998
307.984
307.967
307.947
307.924
307.901
307.875
307.851
308.029
308.03
308.029
308.026
308.02
308.011
308
307.984
307.966
307.947
307.925
307.904
307.882
307.863
308.042
308.04
308.037
308.032
308.024
308.014
308.001
307.984
307.966
307.947
307.926
307.908
307.889
307.874
308.053
308.049
308.043
308.036
308.026
308.014
308
307.982
307.964
307.945
307.925
307.91
307.894
307.882
308.062
308.056
308.049
308.04
308.029
308.015
307.999
307.98
307.961
307.943
307.924
307.911
307.897
307.888
308.066
308.059
308.052
308.041
308.029
308.013
307.997
307.977
307.958
307.941
307.923
307.911
307.898
307.89
308.071
308.064
308.055
308.043
308.03
308.013
307.995
307.975
307.956
307.938
307.92
307.908
307.897
307.888
308.068
308.06
308.054
308.042
308.03
308.013
307.995
307.975
307.956
307.938
307.92
307.908
307.894
307.888
307.952
307.974
307.988
307.996
308
308
307.996
307.985
307.967
307.942
307.91
307.874
307.83
307.778
307.999
308.008
308.015
308.019
308.02
308.016
308.006
307.991
307.969
307.939
307.903
307.861
307.816
307.767
308.031
308.033
308.038
308.037
308.034
308.026
308.014
307.997
307.973
307.942
307.905
307.862
307.815
307.762
308.052
308.051
308.052
308.048
308.042
308.031
308.017
307.996
307.97
307.939
307.901
307.857
307.809
307.756
308.066
308.063
308.06
308.053
308.045
308.032
308.015
307.993
307.967
307.935
307.897
307.853
307.806
307.754
308.072
308.068
308.062
308.053
308.041
308.027
308.009
307.987
307.96
307.928
307.89
307.846
307.801
307.751
308.07
308.065
308.058
308.048
308.036
308.021
308.002
307.979
307.951
307.919
307.882
307.841
307.797
307.75
308.065
308.059
308.051
308.04
308.027
308.011
307.991
307.967
307.939
307.906
307.871
307.832
307.79
307.746
308.057
308.05
308.042
308.03
308.016
307.999
307.978
307.953
307.924
307.892
307.858
307.822
307.781
307.74
308.044
308.037
308.029
308.016
308.001
307.982
307.96
307.935
307.906
307.875
307.842
307.807
307.768
307.732
308.027
308.02
308.011
307.998
307.982
307.963
307.94
307.914
307.886
307.856
307.823
307.79
307.753
307.721
308.003
307.996
307.988
307.974
307.958
307.938
307.916
307.89
307.863
307.833
307.802
307.77
307.735
307.705
307.977
307.97
307.961
307.947
307.932
307.912
307.89
307.864
307.836
307.806
307.776
307.746
307.716
307.687
307.94
307.935
307.929
307.916
307.902
307.882
307.86
307.835
307.809
307.781
307.752
307.723
307.694
307.665
307.956
307.949
307.945
307.941
307.937
307.93
307.921
307.909
307.892
307.87
307.845
307.816
307.782
307.739
307.974
307.962
307.956
307.948
307.94
307.93
307.918
307.901
307.879
307.852
307.821
307.787
307.749
307.703
307.985
307.971
307.961
307.951
307.94
307.927
307.91
307.89
307.865
307.835
307.801
307.764
307.723
307.673
307.987
307.973
307.961
307.949
307.935
307.919
307.899
307.875
307.847
307.814
307.777
307.736
307.693
307.641
307.984
307.97
307.956
307.941
307.924
307.905
307.882
307.856
307.826
307.792
307.753
307.71
307.665
307.612
307.975
307.96
307.943
307.926
307.906
307.885
307.86
307.833
307.801
307.766
307.726
307.682
307.636
307.584
307.958
307.942
307.923
307.904
307.883
307.86
307.834
307.806
307.774
307.738
307.698
307.654
307.609
307.559
307.935
307.916
307.897
307.876
307.854
307.831
307.804
307.775
307.743
307.707
307.668
307.626
307.582
307.535
307.905
307.885
307.866
307.844
307.822
307.798
307.771
307.742
307.71
307.676
307.638
307.598
307.555
307.512
307.869
307.849
307.83
307.808
307.786
307.762
307.736
307.707
307.677
307.643
307.608
307.57
307.529
307.49
307.829
307.809
307.791
307.77
307.749
307.725
307.7
307.672
307.643
307.611
307.577
307.543
307.504
307.469
307.785
307.766
307.75
307.73
307.71
307.687
307.663
307.637
307.609
307.579
307.548
307.515
307.479
307.446
307.742
307.724
307.708
307.689
307.67
307.648
307.626
307.601
307.575
307.546
307.517
307.487
307.454
307.424
307.688
307.674
307.661
307.645
307.628
307.609
307.588
307.566
307.542
307.516
307.489
307.46
307.43
307.397
307.87
307.841
307.818
307.795
307.777
307.762
307.748
307.735
307.723
307.711
307.698
307.683
307.667
307.647
307.857
307.831
307.804
307.782
307.762
307.744
307.727
307.71
307.694
307.677
307.658
307.638
307.619
307.591
307.845
307.818
307.789
307.766
307.744
307.724
307.704
307.684
307.665
307.644
307.622
307.598
307.576
307.544
307.83
307.802
307.773
307.749
307.725
307.703
307.68
307.658
307.635
307.611
307.586
307.559
307.533
307.498
307.809
307.781
307.751
307.726
307.701
307.678
307.653
307.629
307.604
307.578
307.55
307.521
307.491
307.455
307.784
307.755
307.726
307.7
307.674
307.65
307.624
307.599
307.571
307.543
307.513
307.482
307.45
307.413
307.753
307.723
307.694
307.668
307.642
307.617
307.591
307.565
307.537
307.508
307.477
307.444
307.41
307.374
307.716
307.685
307.658
307.631
307.606
307.58
307.555
307.528
307.5
307.471
307.439
307.406
307.372
307.335
307.674
307.643
307.617
307.59
307.565
307.54
307.515
307.489
307.461
307.432
307.401
307.369
307.335
307.3
307.627
307.597
307.571
307.545
307.521
307.497
307.473
307.447
307.421
307.393
307.363
307.332
307.299
307.266
307.578
307.549
307.524
307.499
307.476
307.452
307.429
307.405
307.38
307.353
307.325
307.296
307.264
307.235
307.525
307.497
307.474
307.45
307.428
307.406
307.384
307.362
307.338
307.314
307.287
307.26
307.231
307.204
307.474
307.447
307.426
307.402
307.381
307.36
307.34
307.319
307.297
307.274
307.25
307.226
307.199
307.176
307.415
307.392
307.372
307.351
307.333
307.314
307.296
307.277
307.257
307.237
307.216
307.194
307.169
307.144
307.746
307.71
307.676
307.647
307.623
307.603
307.588
307.576
307.567
307.56
307.556
307.552
307.549
307.543
307.709
307.678
307.642
307.613
307.587
307.565
307.547
307.532
307.52
307.511
307.503
307.496
307.492
307.48
307.672
307.639
307.603
307.574
307.547
307.524
307.504
307.488
307.474
307.462
307.452
307.442
307.435
307.421
307.634
307.601
307.565
307.535
307.507
307.483
307.461
307.443
307.427
307.413
307.401
307.389
307.378
307.363
307.593
307.559
307.523
307.493
307.464
307.44
307.418
307.398
307.381
307.365
307.35
307.336
307.324
307.308
307.549
307.514
307.479
307.449
307.421
307.396
307.374
307.353
307.334
307.317
307.301
307.285
307.27
307.254
307.503
307.468
307.434
307.404
307.376
307.352
307.329
307.308
307.289
307.27
307.252
307.235
307.219
307.202
307.454
307.419
307.387
307.358
307.331
307.306
307.284
307.263
307.243
307.224
307.205
307.187
307.169
307.153
307.404
307.369
307.339
307.31
307.285
307.261
307.239
307.218
307.198
307.179
307.16
307.142
307.123
307.106
307.353
307.319
307.29
307.262
307.238
307.214
307.193
307.173
307.153
307.135
307.116
307.098
307.08
307.063
307.302
307.269
307.242
307.215
307.191
307.168
307.148
307.128
307.11
307.092
307.074
307.057
307.039
307.024
307.249
307.217
307.192
307.166
307.144
307.122
307.103
307.085
307.068
307.051
307.034
307.018
307.001
306.987
307.199
307.169
307.145
307.12
307.098
307.078
307.06
307.042
307.027
307.011
306.996
306.982
306.966
306.954
307.146
307.118
307.095
307.072
307.052
307.033
307.017
307.001
306.987
306.974
306.961
306.948
306.934
306.922
307.58
307.547
307.514
307.486
307.461
307.441
307.425
307.413
307.406
307.401
307.4
307.403
307.407
307.409
307.527
307.499
307.465
307.437
307.41
307.389
307.372
307.36
307.352
307.347
307.345
307.345
307.348
307.345
307.472
307.444
307.41
307.383
307.357
307.336
307.319
307.306
307.297
307.291
307.288
307.287
307.29
307.286
307.418
307.39
307.357
307.33
307.304
307.283
307.266
307.253
307.243
307.236
307.232
307.23
307.232
307.228
307.364
307.334
307.303
307.276
307.251
307.231
307.213
307.2
307.19
307.182
307.177
307.175
307.175
307.172
307.309
307.279
307.249
307.223
307.199
307.179
307.162
307.148
307.138
307.129
307.124
307.121
307.119
307.117
307.255
307.225
307.196
307.171
307.148
307.128
307.111
307.098
307.087
307.078
307.072
307.068
307.066
307.065
307.202
307.172
307.145
307.12
307.098
307.079
307.062
307.049
307.037
307.028
307.022
307.017
307.014
307.013
307.151
307.121
307.096
307.071
307.05
307.031
307.015
307.002
306.99
306.981
306.974
306.969
306.966
306.964
307.1
307.071
307.047
307.023
307.003
306.985
306.969
306.956
306.945
306.936
306.929
306.924
306.919
306.918
307.052
307.023
307
306.978
306.958
306.941
306.926
306.913
306.903
306.894
306.887
306.882
306.877
306.876
307.004
306.976
306.955
306.933
306.914
306.898
306.884
306.872
306.863
306.854
306.847
306.842
306.837
306.836
306.96
306.932
306.911
306.891
306.873
306.857
306.844
306.833
306.825
306.817
306.811
306.806
306.801
306.802
306.913
306.888
306.868
306.848
306.832
306.818
306.806
306.796
306.789
306.782
306.776
306.772
306.767
306.767
307.372
307.35
307.326
307.308
307.29
307.275
307.263
307.253
307.247
307.245
307.246
307.25
307.258
307.264
307.312
307.295
307.272
307.253
307.236
307.222
307.209
307.201
307.195
307.193
307.194
307.198
307.206
307.208
307.255
307.238
307.215
307.197
307.181
307.167
307.156
307.148
307.142
307.14
307.142
307.146
307.154
307.156
307.198
307.181
307.16
307.142
307.127
307.114
307.103
307.095
307.09
307.089
307.09
307.094
307.101
307.104
307.144
307.126
307.106
307.089
307.074
307.061
307.051
307.044
307.039
307.038
307.04
307.043
307.05
307.055
307.09
307.072
307.053
307.037
307.023
307.01
307.001
306.994
306.99
306.989
306.991
306.994
307.001
307.007
307.039
307.021
307.003
306.987
306.973
306.962
306.952
306.946
306.942
306.941
306.943
306.946
306.953
306.959
306.99
306.971
306.955
306.939
306.926
306.915
306.906
306.9
306.897
306.896
306.898
306.901
306.906
306.913
306.944
306.925
306.909
306.894
306.881
306.871
306.863
306.857
306.854
306.853
306.854
306.858
306.862
306.87
306.899
306.88
306.865
306.851
306.839
306.829
306.821
306.816
306.813
306.812
306.813
306.816
306.82
306.828
306.857
306.837
306.823
306.81
306.799
306.79
306.783
306.778
306.775
306.775
306.775
306.778
306.782
306.789
306.817
306.797
306.784
306.771
306.761
306.753
306.746
306.742
306.739
306.739
306.739
306.742
306.745
306.752
306.779
306.76
306.748
306.736
306.726
306.718
306.712
306.708
306.706
306.706
306.707
306.709
306.713
306.721
306.739
306.723
306.711
306.7
306.692
306.685
306.68
306.677
306.675
306.675
306.676
306.679
306.682
306.689
307.139
307.134
307.125
307.118
307.111
307.105
307.1
307.097
307.095
307.095
307.097
307.101
307.109
307.117
307.087
307.086
307.078
307.071
307.065
307.059
307.056
307.053
307.053
307.053
307.056
307.061
307.07
307.074
307.04
307.039
307.031
307.025
307.019
307.014
307.011
307.009
307.009
307.011
307.015
307.02
307.029
307.034
306.993
306.991
306.984
306.978
306.973
306.969
306.967
306.966
306.966
306.969
306.973
306.979
306.989
306.994
306.949
306.945
306.939
306.934
306.929
306.926
306.924
306.923
306.924
306.927
306.932
306.939
306.949
306.955
306.906
306.901
306.895
306.89
306.886
306.883
306.882
306.882
306.884
306.887
306.893
306.9
306.909
306.917
306.865
306.859
306.853
306.849
306.845
306.843
306.842
306.842
306.844
306.848
306.854
306.861
306.871
306.88
306.825
306.819
306.814
306.809
306.806
306.804
306.803
306.804
306.807
306.811
306.817
306.824
306.833
306.843
306.787
306.781
306.776
306.772
306.769
306.767
306.767
306.768
306.771
306.775
306.781
306.789
306.797
306.808
306.751
306.745
306.74
306.736
306.734
306.732
306.732
306.734
306.737
306.741
306.747
306.754
306.762
306.774
306.718
306.71
306.706
306.703
306.701
306.7
306.7
306.702
306.705
306.709
306.715
306.722
306.73
306.742
306.686
306.678
306.675
306.672
306.67
306.669
306.67
306.671
306.675
306.679
306.685
306.692
306.699
306.712
306.656
306.648
306.645
306.643
306.642
306.641
306.642
306.644
306.648
306.652
306.658
306.665
306.673
306.686
306.626
306.619
306.617
306.615
306.614
306.614
306.616
306.618
306.622
306.626
306.633
306.639
306.648
306.658
306.897
306.904
306.909
306.915
306.919
306.924
306.927
306.931
306.935
306.939
306.943