/*--------------------------------*- C++ -*----------------------------------*\
| =========                 |                                                 |
| \\      /  F ield         | OpenFOAM: The Open Source CFD Toolbox           |
|  \\    /   O peration     | Version:  v2106                                 |
|   \\  /    A nd           | Website:  www.openfoam.com                      |
|    \\/     M anipulation  |                                                 |
\*---------------------------------------------------------------------------*/
FoamFile
{
    version     2.0;
    format      ascii;
    arch        "LSB;label=32;scalar=64";
    class       volScalarField;
    location    "0.000157";
    object      alphat;
}
// * * * * * * * * * * * * * * * * * * * * * * * * * * * * * * * * * * * * * //

dimensions      [1 -1 -1 0 0 0 0];

internalField   nonuniform List<scalar> 
144746
(
7.76727e-05
6.39387e-05
5.04547e-05
3.66778e-05
2.58458e-05
2.03126e-05
2.07358e-05
2.60623e-05
3.56041e-05
4.82902e-05
6.18783e-05
7.22676e-05
7.69307e-05
7.86836e-05
8.28611e-05
6.75268e-05
5.03223e-05
3.20514e-05
1.83911e-05
1.12884e-05
9.65635e-06
1.23468e-05
1.8923e-05
2.86598e-05
4.00259e-05
5.01801e-05
5.63126e-05
5.98582e-05
8.80121e-05
6.78667e-05
4.51517e-05
2.38467e-05
1.09829e-05
5.22654e-06
3.60134e-06
4.82394e-06
8.89157e-06
1.58074e-05
2.45477e-05
3.30295e-05
3.94269e-05
4.45171e-05
8.78218e-05
5.99408e-05
3.31465e-05
1.36398e-05
4.94083e-06
1.82727e-06
1.01477e-06
1.56091e-06
3.65637e-06
7.80786e-06
1.38364e-05
2.04378e-05
2.66391e-05
3.33274e-05
8.02542e-05
4.63359e-05
2.02445e-05
6.68329e-06
2.43601e-06
8.56989e-07
3.84772e-07
5.85945e-07
1.55104e-06
3.76303e-06
7.60498e-06
1.29712e-05
1.98553e-05
2.90361e-05
6.82198e-05
3.3536e-05
1.2874e-05
5.54142e-06
2.68071e-06
1.07784e-06
5.02945e-07
5.54727e-07
1.12133e-06
2.5434e-06
5.4508e-06
1.06428e-05
1.89859e-05
3.10147e-05
5.67644e-05
2.63771e-05
1.25892e-05
7.66248e-06
4.2492e-06
2.03203e-06
1.1814e-06
1.26229e-06
2.01462e-06
3.77289e-06
7.30939e-06
1.37728e-05
2.41595e-05
3.89012e-05
4.93026e-05
2.5845e-05
1.73429e-05
1.21339e-05
7.65657e-06
4.29178e-06
2.83892e-06
3.06168e-06
4.50836e-06
7.45932e-06
1.26828e-05
2.12277e-05
3.37729e-05
5.081e-05
4.77227e-05
3.04669e-05
2.5348e-05
1.97556e-05
1.39931e-05
8.8972e-06
6.14735e-06
6.32833e-06
8.77868e-06
1.33096e-05
2.03849e-05
3.0809e-05
4.51215e-05
6.37581e-05
4.98085e-05
3.91622e-05
3.67057e-05
3.16592e-05
2.49657e-05
1.77932e-05
1.24183e-05
1.13104e-05
1.42075e-05
1.99112e-05
2.82188e-05
3.98174e-05
5.53659e-05
7.46187e-05
5.3815e-05
4.80186e-05
4.95945e-05
4.86364e-05
4.26123e-05
3.39229e-05
2.47458e-05
1.98023e-05
2.09077e-05
2.63743e-05
3.48388e-05
4.68211e-05
6.20964e-05
7.98134e-05
5.9896e-05
5.74598e-05
6.24927e-05
6.72751e-05
6.58566e-05
5.81851e-05
4.71179e-05
3.73684e-05
3.30111e-05
3.47695e-05
4.08181e-05
5.1085e-05
6.43445e-05
8.06811e-05
6.76386e-05
6.6228e-05
7.31478e-05
8.249e-05
8.82637e-05
8.56381e-05
7.63942e-05
6.45238e-05
5.44103e-05
4.95713e-05
5.02631e-05
5.65854e-05
6.67071e-05
8.14189e-05
7.82267e-05
7.69925e-05
8.36752e-05
9.3545e-05
0.000103648
0.000107731
0.000103332
9.34706e-05
8.15867e-05
7.15431e-05
6.63608e-05
6.75829e-05
7.4156e-05
8.66182e-05
6.40046e-05
5.28671e-05
4.27115e-05
3.29948e-05
2.69663e-05
2.59074e-05
3.00327e-05
3.74876e-05
4.6534e-05
5.6007e-05
6.43544e-05
6.88052e-05
6.86538e-05
6.73486e-05
6.80864e-05
5.41787e-05
4.02056e-05
2.64e-05
1.65571e-05
1.22867e-05
1.30221e-05
1.7591e-05
2.49325e-05
3.37009e-05
4.23957e-05
4.86163e-05
5.09579e-05
5.25513e-05
7.26913e-05
5.4297e-05
3.57527e-05
1.92487e-05
9.2734e-06
4.95568e-06
4.39906e-06
6.6901e-06
1.16482e-05
1.8764e-05
2.66265e-05
3.31929e-05
3.76002e-05
4.2372e-05
7.37255e-05
4.89439e-05
2.68201e-05
1.10737e-05
4.009e-06
1.53085e-06
1.12506e-06
2.12409e-06
4.78647e-06
9.40537e-06
1.54711e-05
2.15676e-05
2.76895e-05
3.6159e-05
7.03574e-05
3.97934e-05
1.71213e-05
5.63065e-06
1.89921e-06
6.31723e-07
3.60308e-07
7.47241e-07
1.99685e-06
4.60035e-06
8.84524e-06
1.48033e-05
2.34108e-05
3.63499e-05
6.42436e-05
3.0998e-05
1.14038e-05
4.60157e-06
2.01903e-06
7.64786e-07
3.97202e-07
5.67694e-07
1.31088e-06
3.09606e-06
6.76285e-06
1.35935e-05
2.51816e-05
4.24448e-05
5.81331e-05
2.58592e-05
1.12209e-05
6.24422e-06
3.23189e-06
1.51669e-06
9.69676e-07
1.19828e-06
2.16382e-06
4.44133e-06
9.17138e-06
1.80079e-05
3.24307e-05
5.27633e-05
5.44986e-05
2.57262e-05
1.52756e-05
9.91324e-06
6.02194e-06
3.41451e-06
2.48087e-06
2.96584e-06
4.72512e-06
8.36555e-06
1.5003e-05
2.5959e-05
4.20361e-05
6.36023e-05
5.41027e-05
2.99581e-05
2.21385e-05
1.63294e-05
1.13497e-05
7.4119e-06
5.59789e-06
6.27585e-06
9.12013e-06
1.43129e-05
2.25137e-05
3.44928e-05
5.06839e-05
7.16831e-05
5.64575e-05
3.79811e-05
3.19008e-05
2.64079e-05
2.06791e-05
1.52616e-05
1.15565e-05
1.13583e-05
1.464e-05
2.07252e-05
2.94256e-05
4.12981e-05
5.68781e-05
7.6167e-05
5.96957e-05
4.61386e-05
4.32354e-05
4.06217e-05
3.56359e-05
2.95975e-05
2.33383e-05
2.01285e-05
2.16062e-05
2.71711e-05
3.52175e-05
4.62653e-05
5.98426e-05
7.60098e-05
6.4268e-05
5.48282e-05
5.48769e-05
5.71453e-05
5.621e-05
5.15672e-05
4.48219e-05
3.82211e-05
3.5042e-05
3.68176e-05
4.18195e-05
5.02209e-05
6.04972e-05
7.39633e-05
6.93646e-05
6.21433e-05
6.42707e-05
7.07308e-05
7.62272e-05
7.66579e-05
7.31182e-05
6.66017e-05
5.93657e-05
5.48945e-05
5.4134e-05
5.78247e-05
6.39103e-05
7.44369e-05
7.63565e-05
7.07341e-05
7.34891e-05
8.13958e-05
9.16048e-05
9.92378e-05
0.000100694
9.73925e-05
9.04064e-05
8.19281e-05
7.50178e-05
7.26988e-05
7.42473e-05
8.10585e-05
5.54906e-05
4.56522e-05
3.86479e-05
3.33274e-05
3.26828e-05
3.66553e-05
4.32242e-05
4.91278e-05
5.24185e-05
5.38197e-05
5.49509e-05
5.56523e-05
5.53251e-05
5.53899e-05
5.45191e-05
4.14594e-05
3.08055e-05
2.17184e-05
1.64516e-05
1.57287e-05
1.88386e-05
2.37877e-05
2.88473e-05
3.33243e-05
3.75825e-05
4.07214e-05
4.25443e-05
4.57553e-05
5.40831e-05
3.83111e-05
2.47575e-05
1.40928e-05
7.7479e-06
5.34108e-06
5.99699e-06
8.81421e-06
1.3164e-05
1.84684e-05
2.42624e-05
2.93414e-05
3.3879e-05
4.08812e-05
5.26756e-05
3.36302e-05
1.79752e-05
7.71933e-06
2.9659e-06
1.35057e-06
1.36054e-06
2.58622e-06
5.16272e-06
9.19875e-06
1.44938e-05
2.01904e-05
2.74404e-05
3.93449e-05
5.15485e-05
2.87275e-05
1.21533e-05
4.06927e-06
1.29616e-06
4.18117e-07
3.13534e-07
7.63485e-07
1.98575e-06
4.427e-06
8.51088e-06
1.49955e-05
2.58983e-05
4.34786e-05
5.14377e-05
2.4987e-05
9.03244e-06
3.45814e-06
1.32233e-06
4.46704e-07
2.4508e-07
4.4035e-07
1.15519e-06
2.94237e-06
6.93205e-06
1.5119e-05
3.00125e-05
5.23446e-05
5.26471e-05
2.34606e-05
9.34761e-06
4.59256e-06
2.09788e-06
9.13002e-07
6.10234e-07
8.60978e-07
1.78085e-06
4.11932e-06
9.40169e-06
1.99452e-05
3.75576e-05
6.17401e-05
5.62035e-05
2.48548e-05
1.25796e-05
7.23781e-06
4.01959e-06
2.20662e-06
1.70448e-06
2.2277e-06
3.8518e-06
7.44222e-06
1.44665e-05
2.66048e-05
4.45219e-05
6.73596e-05
5.9665e-05
2.95032e-05
1.79586e-05
1.18733e-05
7.83664e-06
5.09626e-06
4.13071e-06
4.9959e-06
7.59579e-06
1.24958e-05
2.05676e-05
3.25745e-05
4.84742e-05
6.76359e-05
6.21671e-05
3.70026e-05
2.55675e-05
1.93045e-05
1.45461e-05
1.08733e-05
8.90798e-06
9.49889e-06
1.26023e-05
1.81489e-05
2.61431e-05
3.68643e-05
5.00059e-05
6.54682e-05
6.42913e-05
4.39347e-05
3.50074e-05
2.96245e-05
2.52234e-05
2.14036e-05
1.82972e-05
1.73506e-05
1.93874e-05
2.44015e-05
3.13391e-05
4.06888e-05
5.12888e-05
6.3697e-05
6.77774e-05
5.2265e-05
4.60793e-05
4.32628e-05
4.05574e-05
3.7736e-05
3.51709e-05
3.28424e-05
3.217e-05
3.47311e-05
3.91772e-05
4.60269e-05
5.31522e-05
6.29085e-05
7.15518e-05
5.95799e-05
5.56216e-05
5.56081e-05
5.67232e-05
5.72334e-05
5.80823e-05
5.76512e-05
5.56128e-05
5.38512e-05
5.31954e-05
5.55297e-05
5.87855e-05
6.60402e-05
7.7282e-05
6.87005e-05
6.58841e-05
6.70097e-05
7.12613e-05
7.63799e-05
8.10197e-05
8.44127e-05
8.43904e-05
8.08804e-05
7.55085e-05
7.23083e-05
7.11656e-05
7.43659e-05
8.27832e-05
9.93621e-05
0.000128198
0.000186728
0.00031048
0.000106539
6.46319e-05
7.91064e-05
0.000105197
0.000163944
0.00029995
0.000118096
5.05151e-05
6.39066e-05
8.79326e-05
0.000143718
0.000291856
0.000128715
4.19048e-05
5.65948e-05
8.06196e-05
0.000131936
0.000278391
0.000138191
4.07078e-05
5.80157e-05
8.40997e-05
0.000131644
0.000266103
0.000146399
4.60437e-05
6.70545e-05
9.67569e-05
0.000141473
0.00025295
0.000152721
5.67972e-05
8.10916e-05
0.000113871
0.000156247
0.000241698
0.000157747
7.00497e-05
9.59458e-05
0.000129814
0.000170808
0.000232179
0.000162104
8.18035e-05
0.000106673
0.000139489
0.000180898
0.000226671
0.000167254
8.95299e-05
0.000111481
0.000142174
0.000184717
0.000228725
0.000171892
9.24657e-05
0.00011107
0.00013976
0.000183759
0.000243212
0.000172237
9.20062e-05
0.000107921
0.000134952
0.000181014
0.000265735
0.000166872
9.12004e-05
0.000105665
0.000132155
0.00018151
0.000290109
0.00015417
9.35769e-05
0.000109135
0.000138144
0.000192778
0.00031449
0.000131242
6.96965e-05
8.29777e-05
0.000105244
0.000149945
0.000243855
0.000121155
5.73182e-05
7.02355e-05
9.15846e-05
0.00013363
0.000221397
0.000131948
5.02256e-05
6.46228e-05
8.69932e-05
0.000126494
0.000211269
0.000141875
4.86669e-05
6.72047e-05
9.34281e-05
0.000132194
0.00020574
0.000151682
5.37877e-05
7.79906e-05
0.000110234
0.000149606
0.000208102
0.000160631
6.4629e-05
9.49729e-05
0.000133333
0.000172814
0.000213356
0.000167937
7.78294e-05
0.000111871
0.000153499
0.000193982
0.000220517
0.000174252
8.82623e-05
0.000121934
0.000163475
0.000208249
0.000230215
0.000181527
9.23683e-05
0.00012179
0.000160086
0.000211594
0.00024453
0.000189486
9.11811e-05
0.000113977
0.000146446
0.000200479
0.00025883
0.00019631
8.70208e-05
0.000103533
0.000130078
0.000180329
0.000267365
0.000197166
8.26732e-05
9.52765e-05
0.00011742
0.000162862
0.000268662
0.000189081
8.16146e-05
9.28952e-05
0.000113506
0.000156029
0.000266757
0.000171071
8.6176e-05
9.8943e-05
0.000121542
0.000163799
0.000267949
0.00014324
5.85575e-05
6.88504e-05
8.34781e-05
0.000109507
0.000154303
0.000122073
5.26208e-05
6.50952e-05
8.24851e-05
0.000110446
0.000155012
0.000135029
5.23635e-05
6.88591e-05
9.05442e-05
0.000121845
0.000166644
0.000149956
5.70592e-05
7.97686e-05
0.000108206
0.000144493
0.000187807
0.000168234
6.7299e-05
9.75793e-05
0.000134033
0.000175095
0.000212322
0.000188098
8.05533e-05
0.000116881
0.000159366
0.000203088
0.000233374
0.000206161
9.0873e-05
0.000128894
0.000172489
0.000217129
0.000245368
0.000219915
9.34069e-05
0.000127236
0.000166643
0.000213109
0.00024497
0.000228674
8.73546e-05
0.000113211
0.000145151
0.000193031
0.000235577
0.000230409
7.82494e-05
9.53525e-05
0.000118314
0.00016213
0.000223112
0.000223149
7.13246e-05
8.14623e-05
9.76362e-05
0.000132235
0.000204281
0.000208076
6.81844e-05
7.5383e-05
8.81112e-05
0.000115826
0.000186795
0.000188032
7.0344e-05
7.74118e-05
8.99725e-05
0.000115517
0.000178603
0.000164142
7.74289e-05
8.68068e-05
0.000101998
0.000128416
0.000180549
0.00013862
9.97801e-05
0.000122272
0.000157717
0.000220048
0.000328906
0.000105171
8.90221e-05
0.000111307
0.000145095
0.000205096
0.000311985
0.000116543
8.49147e-05
0.000107993
0.000140346
0.000195776
0.000296344
0.000127247
8.73865e-05
0.000111756
0.000142993
0.000192812
0.000281284
0.000136041
9.55587e-05
0.000120333
0.000149599
0.000193895
0.000269318
0.000142881
0.00010586
0.000128644
0.000154657
0.000194092
0.000259154
0.00014979
0.000113473
0.000131814
0.000154508
0.000191144
0.000252675
0.000158428
0.000115538
0.000128944
0.000149667
0.00018632
0.00025081
0.000169081
0.000112244
0.000122352
0.000142326
0.000179995
0.00025247
0.00018079
0.000106085
0.00011465
0.000133954
0.000171853
0.000256468
0.000190196
9.7884e-05
0.000106208
0.000124913
0.000164582
0.000266785
0.000192701
8.93234e-05
9.84812e-05
0.000117725
0.000161314
0.000283197
0.000187711
8.37456e-05
9.47236e-05
0.000116634
0.000166689
0.000308843
0.000173782
8.42901e-05
9.85388e-05
0.000126272
0.000186945
0.000344508
0.000148149
9.61952e-05
0.000115683
0.000142846
0.000187033
0.000266034
0.000123263
9.22189e-05
0.000113442
0.000140949
0.000180259
0.000244683
0.000137196
9.42558e-05
0.00011876
0.000147895
0.000184009
0.000235981
0.000150662
0.000101512
0.000129155
0.000159367
0.000192564
0.000231864
0.000162253
0.000111252
0.000139631
0.00016884
0.000200121
0.000231378
0.000174081
0.00011867
0.000144374
0.000170526
0.000201451
0.000231976
0.000187224
0.000120178
0.000139829
0.00016178
0.000195368
0.000237513
0.000200882
0.000115169
0.000127894
0.000145954
0.000183296
0.000244357
0.000213707
0.000105752
0.000113854
0.000129375
0.000166656
0.000245756
0.000223569
9.50421e-05
0.000101332
0.00011549
0.000150318
0.000240671
0.000227378
8.49609e-05
9.11668e-05
0.000105115
0.000139125
0.00023682
0.000222728
7.79208e-05
8.51388e-05
0.00010026
0.000135946
0.000239973
0.000209437
7.62495e-05
8.5499e-05
0.000103608
0.000142944
0.0002542
0.000187358
8.13659e-05
9.42687e-05
0.000117787
0.00016318
0.000279249
0.000156856
8.94826e-05
0.000105518
0.000125705
0.000153787
0.000187391
0.00013456
8.92764e-05
0.000108567
0.000132296
0.000161595
0.000194375
0.000154077
9.39867e-05
0.000117378
0.00014472
0.000175459
0.000205589
0.000176101
0.000101783
0.000129016
0.000158773
0.00018909
0.000215367
0.000197796
0.000108971
0.000137059
0.00016503
0.000193142
0.000217338
0.000218881
0.000110873
0.000135301
0.000158108
0.000183185
0.00020901
0.000236176
0.000106613
0.000124156
0.000140039
0.000162475
0.000195918
0.000247299
9.72626e-05
0.000108112
0.000118176
0.000139161
0.000181524
0.000250306
8.64951e-05
9.31676e-05
0.000100994
0.000121147
0.000169854
0.000245039
7.74402e-05
8.27603e-05
9.09798e-05
0.000110837
0.000161722
0.000233143
7.19944e-05
7.72351e-05
8.64783e-05
0.000107578
0.000160684
0.000217555
7.09023e-05
7.68969e-05
8.76711e-05
0.000111186
0.000168118
0.000198385
7.4001e-05
8.19437e-05
9.57395e-05
0.000123098
0.000183084
0.000175618
8.12511e-05
9.27822e-05
0.000111707
0.000144257
0.000205292
0.000150707
0.000135868
0.000275217
0.000147144
0.000105545
8.88784e-05
8.12749e-05
0.000159912
0.000247923
0.000143916
0.000110743
9.59785e-05
8.81454e-05
0.00017559
0.000232397
0.000148415
0.000119289
0.000104504
9.58557e-05
0.000185343
0.000222586
0.000155385
0.000127991
0.000112434
0.000101414
0.000189417
0.000218
0.000162478
0.000135823
0.000118675
0.000102786
0.000187004
0.000221367
0.000169893
0.000142489
0.000122097
9.92963e-05
0.000180263
0.000231177
0.00017795
0.000148189
0.000122346
9.22705e-05
0.000171419
0.000246119
0.000185098
0.000150624
0.000119143
8.50204e-05
0.000161993
0.000263325
0.000190034
0.000149244
0.000113334
7.85343e-05
0.000152936
0.000283184
0.000191113
0.000143568
0.000105629
7.33782e-05
0.000144006
0.000301647
0.000191078
0.000137363
9.99455e-05
7.15719e-05
0.000134532
0.000322694
0.000194726
0.000134455
9.83264e-05
7.33655e-05
0.000123635
0.000344037
0.000205427
0.000138077
0.00010212
7.93598e-05
0.000112437
0.000373038
0.000225623
0.000150521
0.00011252
8.98796e-05
0.000143183
0.000215587
0.00011985
8.72433e-05
7.3377e-05
6.67152e-05
0.000171022
0.000199699
0.000117762
9.09054e-05
7.9086e-05
7.24692e-05
0.000192213
0.00019609
0.000124651
0.000100338
8.84104e-05
8.03091e-05
0.000207119
0.000198943
0.000136274
0.000112603
9.93526e-05
8.78405e-05
0.000215298
0.000204158
0.000150076
0.000126211
0.000110789
9.35757e-05
0.00021644
0.000209871
0.000164945
0.00014052
0.000121129
9.63179e-05
0.000212713
0.000213287
0.000179813
0.00015492
0.000129131
9.62353e-05
0.000204267
0.000217207
0.000192756
0.000166424
0.00013372
9.48971e-05
0.000193174
0.000223473
0.000201453
0.000171744
0.000133595
9.2568e-05
0.000181141
0.000234254
0.000203354
0.000168473
0.000127595
8.82828e-05
0.000169134
0.000245014
0.00019905
0.000159993
0.000119842
8.5154e-05
0.000157436
0.000257578
0.000192733
0.00015007
0.000113208
8.39216e-05
0.000144551
0.00027106
0.000189992
0.000143889
0.00011063
8.60087e-05
0.000130513
0.000297603
0.000197402
0.000145016
0.000113544
9.14711e-05
0.000136298
0.000154076
0.000100593
7.72313e-05
6.54581e-05
5.82907e-05
0.000161292
0.000141792
9.59423e-05
7.66117e-05
6.65443e-05
5.99507e-05
0.000183249
0.000136265
9.90099e-05
8.16654e-05
7.10304e-05
6.26821e-05
0.000202479
0.000135597
0.000105929
9.07353e-05
7.85152e-05
6.66057e-05
0.000219544
0.000139756
0.000114868
0.000102592
8.89122e-05
7.21035e-05
0.00023347
0.000149071
0.000127012
0.000116368
0.000100888
7.83306e-05
0.000242252
0.000163421
0.000143977
0.000131969
0.000112985
8.49473e-05
0.000244045
0.000182541
0.000164459
0.00014739
0.000122919
9.14888e-05
0.000237798
0.000201114
0.000183
0.000159488
0.000129455
9.52734e-05
0.000224625
0.000216577
0.000194733
0.000164347
0.000130044
9.49643e-05
0.000207114
0.000226579
0.00019552
0.000160118
0.000124737
9.24326e-05
0.000187765
0.000227578
0.000187753
0.000150025
0.000117297
8.9687e-05
0.000166514
0.000222501
0.00017908
0.000141992
0.000112685
8.95969e-05
0.00014602
0.000224269
0.000175621
0.000138738
0.000112781
9.28881e-05
0.000127601
0.000287431
0.000173885
0.00012489
9.92369e-05
8.55273e-05
0.000151538
0.000264587
0.000173089
0.000129245
0.000103187
8.78621e-05
0.000167703
0.000245366
0.000177035
0.000135271
0.000106361
8.73913e-05
0.000177512
0.000229112
0.000180887
0.000139178
0.000105826
8.18525e-05
0.000181701
0.000219536
0.000182224
0.000138974
0.000100328
7.14419e-05
0.00018097
0.000218488
0.000179068
0.000132723
9.0053e-05
5.8904e-05
0.000177344
0.00022424
0.000169397
0.000120102
7.71621e-05
4.72693e-05
0.000172701
0.000232964
0.000153331
0.000103587
6.47124e-05
3.85706e-05
0.000165677
0.00024337
0.000136424
8.81602e-05
5.53957e-05
3.42419e-05
0.000156788
0.000257149
0.000123173
7.66947e-05
5.08001e-05
3.51655e-05
0.000146438
0.000268774
0.000118322
7.24588e-05
5.15777e-05
4.08833e-05
0.00013552
0.000282131
0.000124631
7.6409e-05
5.79803e-05
5.02223e-05
0.000124326
0.00028969
0.000142152
8.93581e-05
6.9949e-05
6.14634e-05
0.000112691
0.000309083
0.000164515
0.00010866
8.61412e-05
7.56299e-05
0.000139542
0.000243464
0.000141684
0.000101948
8.27005e-05
7.24027e-05
0.000166505
0.000245801
0.000148252
0.000109299
8.90192e-05
7.69385e-05
0.000184708
0.000252157
0.000165392
0.000123263
9.81454e-05
8.14746e-05
0.000194403
0.00025259
0.000187946
0.000140458
0.000107401
8.33022e-05
0.000196744
0.000245755
0.000207974
0.000156605
0.000113878
8.09378e-05
0.000194576
0.00023425
0.000218804
0.000165499
0.000114306
7.50518e-05
0.000189793
0.00022556
0.000216138
0.000163143
0.000107561
6.6624e-05
0.000183583
0.000223868
0.000200815
0.000148902
9.56982e-05
5.67401e-05
0.000177106
0.000222919
0.000178294
0.000127437
8.09917e-05
4.79336e-05
0.000168917
0.00022223
0.000153678
0.00010508
6.82932e-05
4.30177e-05
0.000158668
0.000220994
0.000133718
8.96483e-05
6.14524e-05
4.29559e-05
0.00014784
0.000223135
0.000123268
8.2455e-05
6.03451e-05
4.72701e-05
0.000136507
0.000225633
0.00012513
8.43007e-05
6.48791e-05
5.42335e-05
0.000125156
0.00024071
0.000135902
9.3378e-05
7.4028e-05
6.34761e-05
0.00013128
0.000150784
9.83228e-05
7.61594e-05
6.49673e-05
5.81764e-05
0.000158655
0.00015736
0.000101125
7.92171e-05
6.78379e-05
6.06232e-05
0.00018439
0.000173898
0.000116252
9.02967e-05
7.51742e-05
6.43854e-05
0.000206319
0.00019334
0.000143719
0.000110002
8.72876e-05
6.93783e-05
0.000222511
0.000213657
0.000177569
0.000136173
0.000102853
7.51301e-05
0.000231971
0.000231051
0.00020683
0.000161729
0.000118029
8.06532e-05
0.000232648
0.000244728
0.000224361
0.000177652
0.000126569
8.23196e-05
0.00022665
0.000252882
0.000226656
0.000177591
0.000123464
7.7373e-05
0.000215713
0.000247439
0.000211915
0.000161355
0.000110294
6.78475e-05
0.000199543
0.000232043
0.000184802
0.000135879
9.26132e-05
5.77845e-05
0.00018029
0.000211453
0.000155853
0.000111974
7.81407e-05
5.15721e-05
0.000161442
0.00019207
0.00013364
9.5615e-05
6.97068e-05
5.02021e-05
0.000144589
0.000179665
0.000121315
8.76831e-05
6.73018e-05
5.26679e-05
0.000129212
0.000176316
0.000118121
8.77189e-05
7.09372e-05
5.90787e-05
5.34057e-05
4.16983e-05
3.48918e-05
3.08638e-05
3.16282e-05
3.62721e-05
4.20547e-05
4.60322e-05
4.6616e-05
4.4503e-05
4.26287e-05
4.379e-05
4.74633e-05
5.12764e-05
4.64018e-05
3.23248e-05
2.32017e-05
1.68057e-05
1.41692e-05
1.5131e-05
1.85117e-05
2.23715e-05
2.52248e-05
2.68176e-05
2.84663e-05
3.1756e-05
3.5952e-05
4.15018e-05
3.99004e-05
2.56027e-05
1.53429e-05
8.76296e-06
5.41645e-06
4.62985e-06
5.7402e-06
7.94206e-06
1.06172e-05
1.3599e-05
1.73261e-05
2.23737e-05
2.83619e-05
3.66552e-05
3.7079e-05
2.15097e-05
1.02015e-05
4.21309e-06
1.7469e-06
1.01374e-06
1.2052e-06
2.07547e-06
3.66461e-06
6.17367e-06
9.79418e-06
1.49303e-05
2.23394e-05
3.43859e-05
3.79981e-05
1.99357e-05
7.56041e-06
2.40571e-06
7.33655e-07
2.40908e-07
2.02461e-07
4.77354e-07
1.20478e-06
2.69888e-06
5.49149e-06
1.07941e-05
2.06415e-05
3.72482e-05
4.08724e-05
1.95365e-05
6.64282e-06
2.22642e-06
7.14458e-07
2.03393e-07
9.50074e-08
1.89875e-07
5.72575e-07
1.65321e-06
4.42063e-06
1.08447e-05
2.37259e-05
4.41671e-05
4.46058e-05
2.00781e-05
7.08763e-06
2.81086e-06
1.07363e-06
4.06887e-07
2.49436e-07
3.58516e-07
8.32466e-07
2.23253e-06
5.87381e-06
1.41248e-05
2.92124e-05
5.09405e-05
4.7667e-05
2.23531e-05
8.91205e-06
4.28795e-06
2.07459e-06
1.05614e-06
7.95155e-07
1.025e-06
1.85226e-06
3.97863e-06
8.82374e-06
1.84469e-05
3.39599e-05
5.43632e-05
5.033e-05
2.58124e-05
1.21753e-05
7.09339e-06
4.25244e-06
2.66928e-06
2.17674e-06
2.60824e-06
4.00668e-06
7.01667e-06
1.27589e-05
2.25178e-05
3.64514e-05
5.345e-05
5.3312e-05
3.06854e-05
1.72668e-05
1.17012e-05
8.40034e-06
6.16607e-06
5.1827e-06
5.63522e-06
7.53241e-06
1.11663e-05
1.70726e-05
2.58396e-05
3.7273e-05
5.05352e-05
5.63461e-05
3.65155e-05
2.45257e-05
1.8601e-05
1.54598e-05
1.29156e-05
1.129e-05
1.11691e-05
1.28676e-05
1.65617e-05
2.21134e-05
2.96661e-05
3.87367e-05
4.94122e-05
6.14784e-05
4.54396e-05
3.48945e-05
2.87033e-05
2.59688e-05
2.42451e-05
2.26883e-05
2.17361e-05
2.21322e-05
2.47102e-05
2.9189e-05
3.59827e-05
4.32682e-05
5.28019e-05
6.69878e-05
5.44721e-05
4.59022e-05
4.05963e-05
3.89508e-05
3.937e-05
3.984e-05
3.97114e-05
3.90836e-05
3.94772e-05
4.12613e-05
4.56689e-05
5.0361e-05
5.95605e-05
7.53806e-05
6.75264e-05
5.92102e-05
5.36232e-05
5.26316e-05
5.47437e-05
5.85292e-05
6.14249e-05
6.22031e-05
6.1377e-05
5.98164e-05
6.01112e-05
6.13468e-05
6.72005e-05
4.76669e-05
3.45756e-05
2.69098e-05
2.20129e-05
2.12776e-05
2.38521e-05
2.8249e-05
3.23682e-05
3.47351e-05
3.50327e-05
3.43006e-05
3.50675e-05
3.99564e-05
4.62528e-05
3.8657e-05
2.49781e-05
1.66499e-05
1.13666e-05
9.06626e-06
9.35257e-06
1.16263e-05
1.46791e-05
1.75049e-05
1.9599e-05
2.13882e-05
2.4293e-05
2.91892e-05
3.51896e-05
3.17307e-05
1.85314e-05
9.9715e-06
5.32929e-06
3.18173e-06
2.63877e-06
3.30492e-06
4.73459e-06
6.63592e-06
8.93753e-06
1.19495e-05
1.618e-05
2.18609e-05
2.88025e-05
3.04344e-05
1.59181e-05
6.59338e-06
2.44894e-06
9.62337e-07
5.30381e-07
6.18767e-07
1.09032e-06
2.02339e-06
3.66051e-06
6.32174e-06
1.01586e-05
1.575e-05
2.43273e-05
3.19368e-05
1.53749e-05
5.30633e-06
1.58503e-06
4.63228e-07
1.37762e-07
9.52501e-08
2.27109e-07
6.24103e-07
1.53266e-06
3.33286e-06
6.75072e-06
1.31948e-05
2.45193e-05
3.42545e-05
1.54778e-05
4.95099e-06
1.55096e-06
4.65323e-07
1.24998e-07
5.1506e-08
9.52065e-08
2.97296e-07
8.98313e-07
2.48088e-06
6.29042e-06
1.44197e-05
2.84142e-05
3.56749e-05
1.58802e-05
5.33735e-06
1.8983e-06
6.61631e-07
2.37499e-07
1.41144e-07
1.8985e-07
4.23962e-07
1.15471e-06
3.18963e-06
8.16029e-06
1.812e-05
3.36614e-05
3.65871e-05
1.679e-05
6.597e-06
2.80865e-06
1.24585e-06
6.12132e-07
4.62399e-07
5.69227e-07
9.77866e-07
2.10541e-06
4.93348e-06
1.11362e-05
2.21867e-05
3.77676e-05
3.78206e-05
1.90676e-05
8.78121e-06
4.66296e-06
2.60345e-06
1.59393e-06
1.31702e-06
1.54319e-06
2.29453e-06
4.02088e-06
7.66896e-06
1.45957e-05
2.55949e-05
3.98052e-05
4.04797e-05
2.28595e-05
1.22136e-05
7.91351e-06
5.40515e-06
3.87382e-06
3.28765e-06
3.58032e-06
4.74329e-06
7.07105e-06
1.12068e-05
1.80318e-05
2.78565e-05
3.96991e-05
4.42459e-05
2.79011e-05
1.76217e-05
1.31859e-05
1.05851e-05
8.62241e-06
7.48281e-06
7.45299e-06
8.71048e-06
1.14025e-05
1.56438e-05
2.18394e-05
3.00556e-05
3.9587e-05
5.07266e-05
3.62843e-05
2.60502e-05
2.113e-05
1.90729e-05
1.72503e-05
1.56881e-05
1.48204e-05
1.52582e-05
1.75759e-05
2.16078e-05
2.73398e-05
3.43538e-05
4.29612e-05
5.78792e-05
4.61746e-05
3.68195e-05
3.16398e-05
3.06719e-05
3.0126e-05
2.92591e-05
2.80851e-05
2.71492e-05
2.78211e-05
3.05289e-05
3.57562e-05
4.16311e-05
5.18679e-05
6.94833e-05
6.13199e-05
5.01434e-05
4.4228e-05
4.34129e-05
4.48851e-05
4.61095e-05
4.63342e-05
4.53541e-05
4.43682e-05
4.45293e-05
4.74404e-05
5.09551e-05
6.00388e-05
3.63504e-05
2.40629e-05
1.7195e-05
1.27481e-05
1.10916e-05
1.17853e-05
1.43904e-05
1.77724e-05
2.09302e-05
2.30446e-05
2.41945e-05
2.52143e-05
2.85947e-05
3.54662e-05
2.76805e-05
1.59109e-05
9.39882e-06
5.94511e-06
4.41237e-06
4.22749e-06
5.26206e-06
7.08223e-06
9.28823e-06
1.14371e-05
1.34903e-05
1.58025e-05
1.97886e-05
2.57995e-05
2.3406e-05
1.17548e-05
5.29073e-06
2.50679e-06
1.42024e-06
1.11553e-06
1.37145e-06
2.05588e-06
3.13622e-06
4.62392e-06
6.68827e-06
9.6691e-06
1.40236e-05
1.9721e-05
2.36427e-05
1.06864e-05
3.75832e-06
1.21785e-06
4.35775e-07
2.18647e-07
2.41072e-07
4.38294e-07
8.76575e-07
1.73338e-06
3.28142e-06
5.76246e-06
9.30923e-06
1.46269e-05
2.43232e-05
1.03765e-05
3.27765e-06
9.39294e-07
2.65942e-07
7.14144e-08
3.81412e-08
8.84453e-08
2.64688e-07
7.10226e-07
1.6589e-06
3.46334e-06
6.87878e-06
1.29142e-05
2.47018e-05
1.02209e-05
3.18768e-06
9.5159e-07
2.70156e-07
6.83153e-08
2.4174e-08
3.98136e-08
1.27817e-07
4.00642e-07
1.12872e-06
2.89287e-06
6.79415e-06
1.42574e-05
2.40993e-05
9.98415e-06
3.39171e-06
1.10332e-06
3.54507e-07
1.21051e-07
6.94893e-08
8.67504e-08
1.8227e-07
4.90455e-07
1.37391e-06
3.63793e-06
8.59892e-06
1.75967e-05
2.34292e-05
1.0362e-05
4.04237e-06
1.54657e-06
6.32547e-07
3.09389e-07
2.3945e-07
2.81534e-07
4.47787e-07
9.25703e-07
2.20063e-06
5.23845e-06
1.13299e-05
2.14183e-05
2.38523e-05
1.18424e-05
5.23013e-06
2.54009e-06
1.33237e-06
8.31151e-07
7.13225e-07
8.14746e-07
1.14312e-06
1.92973e-06
3.73257e-06
7.55155e-06
1.44705e-05
2.48794e-05
2.6457e-05
1.44206e-05
7.34342e-06
4.48804e-06
2.92382e-06
2.10894e-06
1.84176e-06
1.99912e-06
2.57066e-06
3.75933e-06
6.06506e-06
1.03869e-05
1.7511e-05
2.73277e-05
3.04828e-05
1.80426e-05
1.10224e-05
8.07393e-06
6.2104e-06
4.94483e-06
4.29791e-06
4.31972e-06
5.07385e-06
6.6681e-06
9.3386e-06
1.3732e-05
2.0362e-05
2.89901e-05
3.72398e-05
2.46578e-05
1.70477e-05
1.42031e-05
1.22632e-05
1.05809e-05
9.30329e-06
8.73409e-06
9.2069e-06
1.09847e-05
1.39427e-05
1.82608e-05
2.42218e-05
3.16485e-05
4.49985e-05
3.41395e-05
2.61048e-05
2.33449e-05
2.17899e-05
2.02019e-05
1.84263e-05
1.69225e-05
1.63433e-05
1.7492e-05
2.03875e-05
2.48854e-05
3.03619e-05
3.83992e-05
5.84324e-05
4.82789e-05
3.77915e-05
3.47188e-05
3.40988e-05
3.34137e-05
3.20944e-05
3.02746e-05
2.83473e-05
2.77896e-05
2.9356e-05
3.36461e-05
3.83939e-05
4.80936e-05
2.33051e-05
1.38102e-05
9.04007e-06
6.31955e-06
5.01823e-06
4.81108e-06
5.71574e-06
7.44844e-06
9.67075e-06
1.18978e-05
1.38988e-05
1.5534e-05
1.79237e-05
2.21805e-05
1.84395e-05
8.85169e-06
4.32175e-06
2.47365e-06
1.74198e-06
1.54471e-06
1.80967e-06
2.4683e-06
3.48665e-06
4.76387e-06
6.2685e-06
8.06246e-06
1.08631e-05
1.54067e-05
1.68918e-05
6.96667e-06
2.42412e-06
9.301e-07
4.77077e-07
3.55705e-07
4.11295e-07
6.0355e-07
9.61242e-07
1.54943e-06
2.52084e-06
4.17488e-06
6.95863e-06
1.11516e-05
1.65186e-05
6.2611e-06
1.83501e-06
5.18746e-07
1.62414e-07
6.76381e-08
6.33915e-08
1.09788e-07
2.2919e-07
5.05818e-07
1.11033e-06
2.28786e-06
4.35071e-06
7.58558e-06
1.59093e-05
5.76278e-06
1.68818e-06
4.86617e-07
1.34158e-07
3.22435e-08
1.1138e-08
2.07137e-08
6.75103e-08
2.07607e-07
5.6452e-07
1.36871e-06
2.98269e-06
5.84791e-06
1.48483e-05
5.41447e-06
1.68914e-06
5.01053e-07
1.34816e-07
3.16448e-08
8.89672e-09
1.09777e-08
3.63772e-08
1.26091e-07
3.91427e-07
1.07455e-06
2.64858e-06
5.8671e-06
1.34595e-05
5.27628e-06
1.79987e-06
5.42237e-07
1.57288e-07
4.87677e-08
2.55612e-08
2.80845e-08
5.40109e-08
1.48344e-07
4.42532e-07
1.25628e-06
3.23015e-06
7.34186e-06
1.28806e-05
5.67974e-06
2.08609e-06
6.97662e-07
2.52262e-07
1.19743e-07
9.4268e-08
1.03515e-07
1.4648e-07
2.86223e-07
7.04472e-07
1.84006e-06
4.49835e-06
9.71941e-06
1.36273e-05
6.6604e-06
2.60623e-06
1.09861e-06
5.24255e-07
3.36948e-07
3.04437e-07
3.33795e-07
4.25314e-07
6.69523e-07
1.30823e-06
2.89692e-06
6.34164e-06
1.2577e-05
1.609e-05
8.041e-06
3.74087e-06
2.02306e-06
1.23373e-06
9.16805e-07
8.44029e-07
9.04673e-07
1.09169e-06
1.51519e-06
2.44737e-06
4.52013e-06
8.6551e-06
1.55509e-05
1.92353e-05
1.0164e-05
6.07158e-06
4.06823e-06
2.92559e-06
2.31784e-06
2.08054e-06
2.12585e-06
2.44301e-06
3.12971e-06
4.40173e-06
6.87037e-06
1.14013e-05
1.84313e-05
2.418e-05
1.45602e-05
1.04559e-05
8.195e-06
6.54769e-06
5.39795e-06
4.71559e-06
4.52042e-06
4.87362e-06
5.86913e-06
7.54149e-06
1.02662e-05
1.47436e-05
2.13842e-05
3.05582e-05
2.20303e-05
1.77655e-05
1.53819e-05
1.32487e-05
1.1369e-05
9.88658e-06
9.00006e-06
8.96111e-06
1.00624e-05
1.21669e-05
1.52461e-05
1.94929e-05
2.573e-05
4.21888e-05
3.31078e-05
2.77491e-05
2.57921e-05
2.37038e-05
2.13686e-05
1.89234e-05
1.68312e-05
1.56135e-05
1.60616e-05
1.82294e-05
2.19052e-05
2.59714e-05
3.258e-05
1.50974e-05
7.48081e-06
4.06687e-06
2.57132e-06
1.90137e-06
1.68427e-06
1.89528e-06
2.49419e-06
3.49737e-06
4.84713e-06
6.45356e-06
8.01292e-06
9.90801e-06
1.22762e-05
1.28786e-05
5.13681e-06
1.83709e-06
8.17572e-07
5.18764e-07
4.39689e-07
4.98221e-07
6.67152e-07
9.77528e-07
1.47943e-06
2.2157e-06
3.23619e-06
4.88976e-06
7.71248e-06
1.16255e-05
4.1038e-06
1.07763e-06
2.97292e-07
1.19751e-07
8.03492e-08
9.0989e-08
1.29833e-07
2.06569e-07
3.63638e-07
6.89435e-07
1.36585e-06
2.73546e-06
5.1451e-06
1.08309e-05
3.60247e-06
8.90373e-07
2.20509e-07
5.87892e-08
1.74977e-08
1.12929e-08
1.76081e-08
3.84202e-08
1.00033e-07
2.73568e-07
7.03455e-07
1.61966e-06
3.29231e-06
9.59405e-06
3.13361e-06
8.60605e-07
2.37435e-07
6.19287e-08
1.3451e-08
2.85081e-09
2.85384e-09
1.09013e-08
4.24212e-08
1.4414e-07
4.20665e-07