/*--------------------------------*- C++ -*----------------------------------*\
| =========                 |                                                 |
| \\      /  F ield         | OpenFOAM: The Open Source CFD Toolbox           |
|  \\    /   O peration     | Version:  v2106                                 |
|   \\  /    A nd           | Website:  www.openfoam.com                      |
|    \\/     M anipulation  |                                                 |
\*---------------------------------------------------------------------------*/
FoamFile
{
    version     2.0;
    format      ascii;
    arch        "LSB;label=32;scalar=64";
    class       volScalarField;
    location    "0.000201";
    object      nut;
}
// * * * * * * * * * * * * * * * * * * * * * * * * * * * * * * * * * * * * * //

dimensions      [0 2 -1 0 0 0 0];

internalField   nonuniform List<scalar> 
17920
(
3.5733e-17
3.57315e-17
3.57316e-17
3.57302e-17
3.57302e-17
3.57288e-17
3.57287e-17
3.57273e-17
3.57271e-17
3.57257e-17
3.57254e-17
3.5724e-17
3.57237e-17
3.57223e-17
3.57218e-17
3.57204e-17
3.57199e-17
3.57186e-17
3.57179e-17
3.57166e-17
3.57158e-17
3.57147e-17
3.57137e-17
3.57126e-17
3.57115e-17
3.57105e-17
3.57095e-17
3.57085e-17
3.57247e-17
3.57241e-17
3.57235e-17
3.57229e-17
3.57222e-17
3.57214e-17
3.57205e-17
3.57195e-17
3.57185e-17
3.57174e-17
3.57163e-17
3.57152e-17
3.57141e-17
3.57128e-17
3.57228e-17
3.57223e-17
3.57217e-17
3.57211e-17
3.57204e-17
3.57196e-17
3.57187e-17
3.57177e-17
3.57167e-17
3.57156e-17
3.57145e-17
3.57134e-17
3.57123e-17
3.57111e-17
3.57209e-17
3.57205e-17
3.57198e-17
3.57192e-17
3.57185e-17
3.57177e-17
3.57169e-17
3.57159e-17
3.57149e-17
3.57139e-17
3.57128e-17
3.57117e-17
3.57107e-17
3.57095e-17
3.5719e-17
3.57185e-17
3.57179e-17
3.57173e-17
3.57166e-17
3.57158e-17
3.57149e-17
3.5714e-17
3.5713e-17
3.5712e-17
3.5711e-17
3.57098e-17
3.57088e-17
3.57077e-17
3.5717e-17
3.57166e-17
3.5716e-17
3.57153e-17
3.57146e-17
3.57138e-17
3.5713e-17
3.5712e-17
3.57111e-17
3.57101e-17
3.5709e-17
3.5708e-17
3.5707e-17
3.57058e-17
3.57151e-17
3.57146e-17
3.57139e-17
3.57133e-17
3.57126e-17
3.57118e-17
3.57109e-17
3.571e-17
3.5709e-17
3.5708e-17
3.57071e-17
3.5706e-17
3.5705e-17
3.57039e-17
3.57131e-17
3.57125e-17
3.57119e-17
3.57112e-17
3.57105e-17
3.57097e-17
3.57088e-17
3.57079e-17
3.57069e-17
3.5706e-17
3.5705e-17
3.5704e-17
3.5703e-17
3.5702e-17
3.5711e-17
3.57104e-17
3.57098e-17
3.57091e-17
3.57083e-17
3.57075e-17
3.57066e-17
3.57057e-17
3.57048e-17
3.57039e-17
3.57029e-17
3.57019e-17
3.5701e-17
3.57e-17
3.5709e-17
3.57083e-17
3.57076e-17
3.57069e-17
3.57061e-17
3.57053e-17
3.57045e-17
3.57036e-17
3.57026e-17
3.57017e-17
3.57008e-17
3.56998e-17
3.56989e-17
3.5698e-17
3.57068e-17
3.57061e-17
3.57054e-17
3.57047e-17
3.57039e-17
3.57031e-17
3.57022e-17
3.57014e-17
3.57004e-17
3.56995e-17
3.56986e-17
3.56977e-17
3.56967e-17
3.56959e-17
3.57048e-17
3.5704e-17
3.57033e-17
3.57025e-17
3.57017e-17
3.57009e-17
3.57e-17
3.56991e-17
3.56982e-17
3.56973e-17
3.56964e-17
3.56955e-17
3.56945e-17
3.56938e-17
3.57025e-17
3.57017e-17
3.5701e-17
3.57002e-17
3.56995e-17
3.56986e-17
3.56978e-17
3.56969e-17
3.5696e-17
3.56951e-17
3.56942e-17
3.56933e-17
3.56923e-17
3.56917e-17
3.57005e-17
3.56996e-17
3.56989e-17
3.56981e-17
3.56973e-17
3.56964e-17
3.56955e-17
3.56946e-17
3.56937e-17
3.56928e-17
3.56919e-17
3.56911e-17
3.56902e-17
3.56896e-17
3.56981e-17
3.56973e-17
3.56965e-17
3.56957e-17
3.56949e-17
3.56941e-17
3.56933e-17
3.56924e-17
3.56915e-17
3.56906e-17
3.56897e-17
3.56889e-17
3.5688e-17
3.56875e-17
3.56925e-17
3.56924e-17
3.56921e-17
3.56919e-17
3.56917e-17
3.56913e-17
3.56909e-17
3.56905e-17
3.569e-17
3.56895e-17
3.56889e-17
3.56883e-17
3.56877e-17
3.5687e-17
3.56907e-17
3.56907e-17
3.56905e-17
3.56903e-17
3.569e-17
3.56897e-17
3.56893e-17
3.56888e-17
3.56883e-17
3.56878e-17
3.56872e-17
3.56866e-17
3.5686e-17
3.56853e-17
3.5689e-17
3.5689e-17
3.56888e-17
3.56886e-17
3.56883e-17
3.56879e-17
3.56875e-17
3.56871e-17
3.56866e-17
3.56861e-17
3.56856e-17
3.5685e-17
3.56845e-17
3.56837e-17
3.56873e-17
3.56873e-17
3.56871e-17
3.56868e-17
3.56865e-17
3.56862e-17
3.56858e-17
3.56854e-17
3.56849e-17
3.56844e-17
3.56839e-17
3.56833e-17
3.56828e-17
3.56821e-17
3.56856e-17
3.56855e-17
3.56853e-17
3.5685e-17
3.56847e-17
3.56844e-17
3.5684e-17
3.56836e-17
3.56831e-17
3.56826e-17
3.56821e-17
3.56816e-17
3.56811e-17
3.56805e-17
3.56838e-17
3.56837e-17
3.56834e-17
3.56832e-17
3.56829e-17
3.56825e-17
3.56821e-17
3.56817e-17
3.56813e-17
3.56808e-17
3.56804e-17
3.56798e-17
3.56794e-17
3.56788e-17
3.56821e-17
3.56819e-17
3.56816e-17
3.56813e-17
3.5681e-17
3.56807e-17
3.56803e-17
3.56799e-17
3.56795e-17
3.5679e-17
3.56786e-17
3.56781e-17
3.56776e-17
3.56771e-17
3.56802e-17
3.568e-17
3.56797e-17
3.56794e-17
3.56791e-17
3.56788e-17
3.56784e-17
3.5678e-17
3.56776e-17
3.56772e-17
3.56767e-17
3.56763e-17
3.56758e-17
3.56754e-17
3.56784e-17
3.56781e-17
3.56778e-17
3.56775e-17
3.56772e-17
3.56769e-17
3.56765e-17
3.56761e-17
3.56757e-17
3.56753e-17
3.56749e-17
3.56745e-17
3.5674e-17
3.56737e-17
3.56765e-17
3.56762e-17
3.56759e-17
3.56756e-17
3.56753e-17
3.5675e-17
3.56746e-17
3.56742e-17
3.56738e-17
3.56734e-17
3.5673e-17
3.56726e-17
3.56722e-17
3.56719e-17
3.56747e-17
3.56743e-17
3.5674e-17
3.56737e-17
3.56734e-17
3.56731e-17
3.56727e-17
3.56724e-17
3.5672e-17
3.56716e-17
3.56712e-17
3.56708e-17
3.56704e-17
3.56702e-17
3.56728e-17
3.56724e-17
3.56721e-17
3.56718e-17
3.56715e-17
3.56712e-17
3.56708e-17
3.56705e-17
3.56701e-17
3.56697e-17
3.56693e-17
3.5669e-17
3.56686e-17
3.56685e-17
3.56711e-17
3.56706e-17
3.56703e-17
3.567e-17
3.56697e-17
3.56693e-17
3.5669e-17
3.56686e-17
3.56682e-17
3.56678e-17
3.56674e-17
3.56671e-17
3.56668e-17
3.56668e-17
3.56691e-17
3.56687e-17
3.56683e-17
3.56681e-17
3.56678e-17
3.56674e-17
3.56671e-17
3.56668e-17
3.56664e-17
3.5666e-17
3.56657e-17
3.56653e-17
3.5665e-17
3.5665e-17
3.56539e-17
3.56541e-17
3.56542e-17
3.56545e-17
3.56547e-17
3.56548e-17
3.5655e-17
3.56551e-17
3.56552e-17
3.56552e-17
3.56552e-17
3.56552e-17
3.56552e-17
3.56551e-17
3.56528e-17
3.5653e-17
3.56532e-17
3.56534e-17
3.56536e-17
3.56537e-17
3.56538e-17
3.56539e-17
3.5654e-17
3.5654e-17
3.56541e-17
3.5654e-17
3.5654e-17
3.56538e-17
3.56517e-17
3.56519e-17
3.56521e-17
3.56523e-17
3.56524e-17
3.56526e-17
3.56527e-17
3.56528e-17
3.56529e-17
3.56529e-17
3.56529e-17
3.56529e-17
3.56529e-17
3.56527e-17
3.56506e-17
3.56508e-17
3.5651e-17
3.56512e-17
3.56513e-17
3.56514e-17
3.56516e-17
3.56517e-17
3.56517e-17
3.56518e-17
3.56518e-17
3.56518e-17
3.56518e-17
3.56516e-17
3.56494e-17
3.56497e-17
3.56498e-17
3.565e-17
3.56501e-17
3.56503e-17
3.56504e-17
3.56505e-17
3.56506e-17
3.56506e-17
3.56506e-17
3.56506e-17
3.56506e-17
3.56505e-17
3.56483e-17
3.56485e-17
3.56487e-17
3.56488e-17
3.5649e-17
3.56491e-17
3.56492e-17
3.56493e-17
3.56494e-17
3.56494e-17
3.56495e-17
3.56495e-17
3.56495e-17
3.56494e-17
3.56471e-17
3.56473e-17
3.56475e-17
3.56476e-17
3.56478e-17
3.56479e-17
3.5648e-17
3.56481e-17
3.56482e-17
3.56483e-17
3.56483e-17
3.56484e-17
3.56484e-17
3.56483e-17
3.56459e-17
3.56461e-17
3.56463e-17
3.56464e-17
3.56466e-17
3.56467e-17
3.56468e-17
3.56469e-17
3.5647e-17
3.56471e-17
3.56471e-17
3.56472e-17
3.56472e-17
3.56472e-17
3.56447e-17
3.56448e-17
3.5645e-17
3.56452e-17
3.56453e-17
3.56455e-17
3.56456e-17
3.56457e-17
3.56458e-17
3.56459e-17
3.5646e-17
3.5646e-17
3.56461e-17
3.56461e-17
3.56435e-17
3.56436e-17
3.56438e-17
3.5644e-17
3.56441e-17
3.56443e-17
3.56444e-17
3.56445e-17
3.56446e-17
3.56447e-17
3.56448e-17
3.56449e-17
3.56449e-17
3.5645e-17
3.56423e-17
3.56424e-17
3.56426e-17
3.56427e-17
3.56429e-17
3.5643e-17
3.56432e-17
3.56433e-17
3.56434e-17
3.56435e-17
3.56436e-17
3.56437e-17
3.56438e-17
3.5644e-17
3.56411e-17
3.56411e-17
3.56413e-17
3.56415e-17
3.56417e-17
3.56418e-17
3.5642e-17
3.56421e-17
3.56422e-17
3.56423e-17
3.56424e-17
3.56426e-17
3.56426e-17
3.56428e-17
3.564e-17
3.56399e-17
3.56401e-17
3.56403e-17
3.56405e-17
3.56406e-17
3.56408e-17
3.56409e-17
3.5641e-17
3.56411e-17
3.56413e-17
3.56414e-17
3.56415e-17
3.56418e-17
3.56388e-17
3.56387e-17
3.56389e-17
3.56391e-17
3.56393e-17
3.56394e-17
3.56396e-17
3.56397e-17
3.56398e-17
3.564e-17
3.56401e-17
3.56402e-17
3.56404e-17
3.56406e-17
3.56129e-17
3.56133e-17
3.56137e-17
3.56142e-17
3.56147e-17
3.56152e-17
3.56157e-17
3.56162e-17
3.56166e-17
3.56171e-17
3.56175e-17
3.56179e-17
3.56183e-17
3.56186e-17
3.56125e-17
3.5613e-17
3.56134e-17
3.56139e-17
3.56144e-17
3.56149e-17
3.56153e-17
3.56158e-17
3.56163e-17
3.56167e-17
3.56171e-17
3.56175e-17
3.56178e-17
3.56181e-17
3.56121e-17
3.56126e-17
3.56131e-17
3.56135e-17
3.5614e-17
3.56145e-17
3.5615e-17
3.56154e-17
3.56159e-17
3.56163e-17
3.56168e-17
3.56171e-17
3.56175e-17
3.56177e-17
3.56117e-17
3.56122e-17
3.56127e-17
3.56132e-17
3.56137e-17
3.56141e-17
3.56146e-17
3.56151e-17
3.56155e-17
3.56159e-17
3.56163e-17
3.56167e-17
3.56171e-17
3.56173e-17
3.56114e-17
3.56119e-17
3.56123e-17
3.56128e-17
3.56133e-17
3.56138e-17
3.56142e-17
3.56147e-17
3.56151e-17
3.56155e-17
3.5616e-17
3.56163e-17
3.56167e-17
3.56169e-17
3.5611e-17
3.56115e-17
3.56119e-17
3.56124e-17
3.56129e-17
3.56134e-17
3.56138e-17
3.56143e-17
3.56147e-17
3.56151e-17
3.56155e-17
3.56159e-17
3.56163e-17
3.56166e-17
3.56106e-17
3.5611e-17
3.56115e-17
3.5612e-17
3.56125e-17
3.5613e-17
3.56134e-17
3.56139e-17
3.56143e-17
3.56147e-17
3.56151e-17
3.56155e-17
3.56159e-17
3.56162e-17
3.56101e-17
3.56106e-17
3.56111e-17
3.56116e-17
3.56121e-17
3.56125e-17
3.5613e-17
3.56135e-17
3.56139e-17
3.56143e-17
3.56147e-17
3.56151e-17
3.56155e-17
3.56158e-17
3.56097e-17
3.56101e-17
3.56106e-17
3.56111e-17
3.56116e-17
3.56121e-17
3.56126e-17
3.5613e-17
3.56135e-17
3.56139e-17
3.56143e-17
3.56147e-17
3.56151e-17
3.56154e-17
3.56092e-17
3.56097e-17
3.56102e-17
3.56107e-17
3.56112e-17
3.56117e-17
3.56121e-17
3.56126e-17
3.5613e-17
3.56135e-17
3.56139e-17
3.56143e-17
3.56146e-17
3.5615e-17
3.56088e-17
3.56092e-17
3.56097e-17
3.56102e-17
3.56107e-17
3.56112e-17
3.56117e-17
3.56121e-17
3.56126e-17
3.5613e-17
3.56134e-17
3.56139e-17
3.56142e-17
3.56147e-17
3.56083e-17
3.56087e-17
3.56093e-17
3.56097e-17
3.56102e-17
3.56107e-17
3.56112e-17
3.56117e-17
3.56121e-17
3.56126e-17
3.5613e-17
3.56134e-17
3.56138e-17
3.56143e-17
3.56078e-17
3.56083e-17
3.56088e-17
3.56093e-17
3.56098e-17
3.56103e-17
3.56107e-17
3.56112e-17
3.56117e-17
3.56121e-17
3.56126e-17
3.5613e-17
3.56134e-17
3.56139e-17
3.56074e-17
3.56078e-17
3.56083e-17
3.56088e-17
3.56093e-17
3.56098e-17
3.56102e-17
3.56107e-17
3.56112e-17
3.56116e-17
3.56121e-17
3.56125e-17
3.5613e-17
3.56135e-17
3.55723e-17
3.55728e-17
3.55733e-17
3.55739e-17
3.55745e-17
3.5575e-17
3.55756e-17
3.55762e-17
3.55768e-17
3.55774e-17
3.5578e-17
3.55786e-17
3.55791e-17
3.55797e-17
3.55725e-17
3.5573e-17
3.55735e-17
3.55741e-17
3.55747e-17
3.55753e-17
3.55759e-17
3.55765e-17
3.55771e-17
3.55777e-17
3.55782e-17
3.55788e-17
3.55793e-17
3.55798e-17
3.55727e-17
3.55733e-17
3.55738e-17
3.55744e-17
3.5575e-17
3.55756e-17
3.55762e-17
3.55767e-17
3.55773e-17
3.55779e-17
3.55785e-17
3.5579e-17
3.55795e-17
3.558e-17
3.55729e-17
3.55735e-17
3.55741e-17
3.55746e-17
3.55752e-17
3.55758e-17
3.55764e-17
3.5577e-17
3.55776e-17
3.55782e-17
3.55787e-17
3.55792e-17
3.55798e-17
3.55802e-17
3.55732e-17
3.55737e-17
3.55743e-17
3.55749e-17
3.55755e-17
3.55761e-17
3.55767e-17
3.55773e-17
3.55778e-17
3.55784e-17
3.55789e-17
3.55795e-17
3.558e-17
3.55804e-17
3.55734e-17
3.55739e-17
3.55745e-17
3.55751e-17
3.55757e-17
3.55763e-17
3.55769e-17
3.55775e-17
3.55781e-17
3.55786e-17
3.55792e-17
3.55797e-17
3.55802e-17
3.55807e-17
3.55736e-17
3.55742e-17
3.55747e-17
3.55753e-17
3.55759e-17
3.55765e-17
3.55771e-17
3.55777e-17
3.55783e-17
3.55789e-17
3.55794e-17
3.55799e-17
3.55804e-17
3.55809e-17
3.55737e-17
3.55743e-17
3.55749e-17
3.55756e-17
3.55762e-17
3.55768e-17
3.55774e-17
3.55779e-17
3.55785e-17
3.55791e-17
3.55796e-17
3.55801e-17
3.55806e-17
3.55811e-17
3.55739e-17
3.55745e-17
3.55751e-17
3.55757e-17
3.55763e-17
3.5577e-17
3.55775e-17
3.55781e-17
3.55787e-17
3.55793e-17
3.55798e-17
3.55803e-17
3.55808e-17
3.55813e-17
3.55741e-17
3.55747e-17
3.55753e-17
3.55759e-17
3.55765e-17
3.55771e-17
3.55777e-17
3.55783e-17
3.55789e-17
3.55794e-17
3.558e-17
3.55805e-17
3.5581e-17
3.55815e-17
3.55742e-17
3.55748e-17
3.55754e-17
3.55761e-17
3.55767e-17
3.55773e-17
3.55779e-17
3.55785e-17
3.5579e-17
3.55796e-17
3.55801e-17
3.55807e-17
3.55812e-17
3.55817e-17
3.55744e-17
3.5575e-17
3.55756e-17
3.55762e-17
3.55768e-17
3.55774e-17
3.5578e-17
3.55786e-17
3.55792e-17
3.55798e-17
3.55803e-17
3.55808e-17
3.55813e-17
3.55818e-17
3.55745e-17
3.55751e-17
3.55757e-17
3.55763e-17
3.55769e-17
3.55776e-17
3.55781e-17
3.55787e-17
3.55793e-17
3.55799e-17
3.55805e-17
3.5581e-17
3.55815e-17
3.55821e-17
3.55746e-17
3.55752e-17
3.55758e-17
3.55765e-17
3.55771e-17
3.55777e-17
3.55783e-17
3.55789e-17
3.55794e-17
3.558e-17
3.55806e-17
3.55811e-17
3.55817e-17
3.55822e-17
3.55338e-17
3.55341e-17
3.55345e-17
3.5535e-17
3.55354e-17
3.55359e-17
3.55364e-17
3.55369e-17
3.55374e-17
3.55379e-17
3.55384e-17
3.55389e-17
3.55395e-17
3.554e-17
3.55342e-17
3.55346e-17
3.5535e-17
3.55355e-17
3.5536e-17
3.55364e-17
3.55369e-17
3.55375e-17
3.5538e-17
3.55385e-17
3.5539e-17
3.55395e-17
3.554e-17
3.55406e-17
3.55347e-17
3.55351e-17
3.55356e-17
3.5536e-17
3.55365e-17
3.5537e-17
3.55375e-17
3.5538e-17
3.55385e-17
3.5539e-17
3.55395e-17
3.554e-17
3.55405e-17
3.55411e-17
3.55352e-17
3.55356e-17
3.55361e-17
3.55366e-17
3.55371e-17
3.55376e-17
3.55381e-17
3.55386e-17
3.55391e-17
3.55396e-17
3.55401e-17
3.55406e-17
3.55411e-17
3.55416e-17
3.55357e-17
3.55361e-17
3.55366e-17
3.55371e-17
3.55376e-17
3.55381e-17
3.55386e-17
3.55392e-17
3.55397e-17
3.55402e-17
3.55407e-17
3.55412e-17
3.55416e-17
3.55421e-17
3.55362e-17
3.55367e-17
3.55372e-17
3.55377e-17
3.55382e-17
3.55387e-17
3.55392e-17
3.55397e-17
3.55402e-17
3.55407e-17
3.55412e-17
3.55417e-17
3.55422e-17
3.55427e-17
3.55367e-17
3.55372e-17
3.55377e-17
3.55382e-17
3.55387e-17
3.55392e-17
3.55398e-17
3.55403e-17
3.55408e-17
3.55413e-17
3.55418e-17
3.55422e-17
3.55427e-17
3.55432e-17
3.55373e-17
3.55378e-17
3.55383e-17
3.55388e-17
3.55393e-17
3.55398e-17
3.55403e-17
3.55408e-17
3.55413e-17
3.55418e-17
3.55423e-17
3.55428e-17
3.55433e-17
3.55437e-17
3.55378e-17
3.55383e-17
3.55388e-17
3.55393e-17
3.55398e-17
3.55403e-17
3.55408e-17
3.55414e-17
3.55419e-17
3.55424e-17
3.55428e-17
3.55433e-17
3.55438e-17
3.55442e-17
3.55383e-17
3.55388e-17
3.55393e-17
3.55398e-17
3.55403e-17
3.55409e-17
3.55414e-17
3.55419e-17
3.55424e-17
3.55429e-17
3.55434e-17
3.55438e-17
3.55443e-17
3.55447e-17
3.55388e-17
3.55393e-17
3.55398e-17
3.55403e-17
3.55408e-17
3.55414e-17
3.55419e-17
3.55424e-17
3.55429e-17
3.55434e-17
3.55439e-17
3.55443e-17
3.55448e-17
3.55452e-17
3.55393e-17
3.55398e-17
3.55403e-17
3.55408e-17
3.55414e-17
3.55419e-17
3.55424e-17
3.55429e-17
3.55434e-17
3.55439e-17
3.55444e-17
3.55449e-17
3.55453e-17
3.55457e-17
3.55398e-17
3.55403e-17
3.55408e-17
3.55413e-17
3.55418e-17
3.55424e-17
3.55429e-17
3.55434e-17
3.55439e-17
3.55444e-17
3.55449e-17
3.55454e-17
3.55458e-17
3.55463e-17
3.55403e-17
3.55408e-17
3.55413e-17
3.55418e-17
3.55423e-17
3.55429e-17
3.55434e-17
3.55439e-17
3.55444e-17
3.55449e-17
3.55454e-17
3.55459e-17
3.55464e-17
3.55469e-17
3.54978e-17
3.54979e-17
3.54982e-17
3.54984e-17
3.54987e-17
3.5499e-17
3.54992e-17
3.54995e-17
3.54998e-17
3.55001e-17
3.55005e-17
3.55008e-17
3.55012e-17
3.55016e-17
3.54982e-17
3.54984e-17
3.54986e-17
3.54989e-17
3.54992e-17
3.54995e-17
3.54997e-17
3.55001e-17
3.55004e-17
3.55007e-17
3.55011e-17
3.55014e-17
3.55018e-17
3.55022e-17
3.54987e-17
3.54989e-17
3.54992e-17
3.54994e-17
3.54997e-17
3.55e-17
3.55003e-17
3.55006e-17
3.55009e-17
3.55012e-17
3.55016e-17
3.55019e-17
3.55023e-17
3.55027e-17
3.54992e-17
3.54994e-17
3.54997e-17
3.54999e-17
3.55002e-17
3.55005e-17
3.55008e-17
3.55011e-17
3.55015e-17
3.55018e-17
3.55022e-17
3.55025e-17
3.55029e-17
3.55033e-17
3.54997e-17
3.54999e-17
3.55002e-17
3.55005e-17
3.55008e-17
3.55011e-17
3.55014e-17
3.55017e-17
3.5502e-17
3.55024e-17
3.55027e-17
3.55031e-17
3.55034e-17
3.55038e-17
3.55002e-17
3.55005e-17
3.55008e-17
3.5501e-17
3.55013e-17
3.55016e-17
3.55019e-17
3.55023e-17
3.55026e-17
3.55029e-17
3.55033e-17
3.55036e-17
3.5504e-17
3.55044e-17
3.55008e-17
3.5501e-17
3.55013e-17
3.55016e-17
3.55019e-17
3.55022e-17
3.55025e-17
3.55028e-17
3.55032e-17
3.55035e-17
3.55038e-17
3.55042e-17
3.55045e-17
3.55049e-17
3.55014e-17
3.55016e-17
3.55019e-17
3.55022e-17
3.55025e-17
3.55028e-17
3.55031e-17
3.55034e-17
3.55037e-17
3.55041e-17
3.55044e-17
3.55048e-17
3.55051e-17
3.55055e-17
3.55019e-17
3.55022e-17
3.55025e-17
3.55028e-17
3.55031e-17
3.55034e-17
3.55037e-17
3.5504e-17
3.55043e-17
3.55047e-17
3.5505e-17
3.55053e-17
3.55057e-17
3.5506e-17
3.55025e-17
3.55028e-17
3.55031e-17
3.55034e-17
3.55037e-17
3.5504e-17
3.55043e-17
3.55046e-17
3.55049e-17
3.55053e-17
3.55056e-17
3.55059e-17
3.55063e-17
3.55066e-17
3.55031e-17
3.55034e-17
3.55037e-17
3.5504e-17
3.55043e-17
3.55046e-17
3.55049e-17
3.55052e-17
3.55055e-17
3.55059e-17
3.55062e-17
3.55065e-17
3.55068e-17
3.55071e-17
3.55037e-17
3.5504e-17
3.55043e-17
3.55046e-17
3.55049e-17
3.55052e-17
3.55055e-17
3.55058e-17
3.55061e-17
3.55065e-17
3.55068e-17
3.55071e-17
3.55074e-17
3.55077e-17
3.55043e-17
3.55046e-17
3.55048e-17
3.55052e-17
3.55055e-17
3.55058e-17
3.55061e-17
3.55064e-17
3.55068e-17
3.55071e-17
3.55074e-17
3.55077e-17
3.5508e-17
3.55083e-17
3.55049e-17
3.55052e-17
3.55055e-17
3.55058e-17
3.55061e-17
3.55064e-17
3.55067e-17
3.5507e-17
3.55074e-17
3.55077e-17
3.5508e-17
3.55083e-17
3.55086e-17
3.5509e-17
3.54646e-17
3.54647e-17
3.54647e-17
3.54648e-17
3.54649e-17
3.54649e-17
3.5465e-17
3.54651e-17
3.54652e-17
3.54654e-17
3.54655e-17
3.54657e-17
3.54658e-17
3.54661e-17
3.54649e-17
3.5465e-17
3.5465e-17
3.54651e-17
3.54651e-17
3.54652e-17
3.54653e-17
3.54654e-17
3.54656e-17
3.54657e-17
3.54658e-17
3.5466e-17
3.54662e-17
3.54665e-17
3.54653e-17
3.54653e-17
3.54653e-17
3.54654e-17
3.54655e-17
3.54655e-17
3.54656e-17
3.54658e-17
3.54659e-17
3.5466e-17
3.54662e-17
3.54664e-17
3.54666e-17
3.54668e-17
3.54656e-17
3.54656e-17
3.54657e-17
3.54657e-17
3.54658e-17
3.54659e-17
3.5466e-17
3.54661e-17
3.54662e-17
3.54664e-17
3.54666e-17
3.54667e-17
3.5467e-17
3.54672e-17
3.54659e-17
3.5466e-17
3.5466e-17
3.54661e-17
3.54661e-17
3.54662e-17
3.54663e-17
3.54665e-17
3.54666e-17
3.54667e-17
3.54669e-17
3.54671e-17
3.54673e-17
3.54676e-17
3.54663e-17
3.54663e-17
3.54664e-17
3.54665e-17
3.54665e-17
3.54666e-17
3.54667e-17
3.54668e-17
3.5467e-17
3.54671e-17
3.54673e-17
3.54675e-17
3.54677e-17
3.5468e-17
3.54667e-17
3.54668e-17
3.54668e-17
3.54669e-17
3.54669e-17
3.5467e-17
3.54671e-17
3.54672e-17
3.54674e-17
3.54675e-17
3.54677e-17
3.54679e-17
3.54681e-17
3.54683e-17
3.54671e-17
3.54672e-17
3.54672e-17
3.54673e-17
3.54674e-17
3.54674e-17
3.54675e-17
3.54677e-17
3.54678e-17
3.5468e-17
3.54681e-17
3.54683e-17
3.54685e-17
3.54687e-17
3.54676e-17
3.54676e-17
3.54677e-17
3.54677e-17
3.54678e-17
3.54679e-17
3.5468e-17
3.54681e-17
3.54682e-17
3.54684e-17
3.54686e-17
3.54687e-17
3.54689e-17
3.54691e-17
3.5468e-17
3.54681e-17
3.54681e-17
3.54682e-17
3.54683e-17
3.54684e-17
3.54685e-17
3.54686e-17
3.54687e-17
3.54688e-17
3.5469e-17
3.54692e-17
3.54694e-17
3.54695e-17
3.54685e-17
3.54686e-17
3.54686e-17
3.54687e-17
3.54687e-17
3.54688e-17
3.54689e-17
3.54691e-17
3.54692e-17
3.54693e-17
3.54695e-17
3.54696e-17
3.54698e-17
3.547e-17
3.5469e-17
3.5469e-17
3.54691e-17
3.54692e-17
3.54692e-17
3.54693e-17
3.54694e-17
3.54696e-17
3.54697e-17
3.54698e-17
3.547e-17
3.54701e-17
3.54703e-17
3.54704e-17
3.54695e-17
3.54695e-17
3.54696e-17
3.54697e-17
3.54698e-17
3.54699e-17
3.547e-17
3.54701e-17
3.54702e-17
3.54703e-17
3.54704e-17
3.54706e-17
3.54707e-17
3.54709e-17
3.547e-17
3.547e-17
3.54701e-17
3.54702e-17
3.54703e-17
3.54704e-17
3.54705e-17
3.54706e-17
3.54707e-17
3.54708e-17
3.54709e-17
3.54711e-17
3.54712e-17
3.54714e-17
3.54344e-17
3.54344e-17
3.54343e-17
3.54343e-17
3.54342e-17
3.54342e-17
3.54342e-17
3.54341e-17
3.54341e-17
3.54341e-17
3.54341e-17
3.54341e-17
3.54341e-17
3.54342e-17
3.54345e-17
3.54345e-17
3.54344e-17
3.54344e-17
3.54343e-17
3.54343e-17
3.54343e-17
3.54342e-17
3.54342e-17
3.54342e-17
3.54342e-17
3.54343e-17
3.54343e-17
3.54343e-17
3.54347e-17
3.54346e-17
3.54345e-17
3.54345e-17
3.54344e-17
3.54344e-17
3.54344e-17
3.54343e-17
3.54343e-17
3.54343e-17
3.54344e-17
3.54344e-17
3.54344e-17
3.54345e-17
3.54348e-17
3.54347e-17
3.54347e-17
3.54346e-17
3.54346e-17
3.54345e-17
3.54345e-17
3.54345e-17
3.54345e-17
3.54345e-17
3.54345e-17
3.54345e-17
3.54346e-17
3.54347e-17
3.5435e-17
3.54349e-17
3.54348e-17
3.54348e-17
3.54347e-17
3.54347e-17
3.54346e-17
3.54346e-17
3.54346e-17
3.54346e-17
3.54347e-17
3.54347e-17
3.54348e-17
3.54348e-17
3.54352e-17
3.54351e-17
3.5435e-17
3.5435e-17
3.54349e-17
3.54348e-17
3.54348e-17
3.54348e-17
3.54348e-17
3.54348e-17
3.54348e-17
3.54349e-17
3.54349e-17
3.5435e-17
3.54354e-17
3.54353e-17
3.54352e-17
3.54351e-17
3.54351e-17
3.5435e-17
3.5435e-17
3.5435e-17
3.5435e-17
3.5435e-17
3.5435e-17
3.54351e-17
3.54351e-17
3.54352e-17
3.54356e-17
3.54355e-17
3.54354e-17
3.54354e-17
3.54353e-17
3.54352e-17
3.54352e-17
3.54352e-17
3.54352e-17
3.54352e-17
3.54352e-17
3.54353e-17
3.54353e-17
3.54354e-17
3.54358e-17
3.54358e-17
3.54357e-17
3.54356e-17
3.54355e-17
3.54355e-17
3.54354e-17
3.54354e-17
3.54354e-17
3.54354e-17
3.54355e-17
3.54355e-17
3.54356e-17
3.54356e-17
3.54361e-17
3.5436e-17
3.54359e-17
3.54358e-17
3.54358e-17
3.54357e-17
3.54357e-17
3.54357e-17
3.54357e-17
3.54357e-17
3.54357e-17
3.54357e-17
3.54358e-17
3.54358e-17
3.54363e-17
3.54363e-17
3.54362e-17
3.54361e-17
3.5436e-17
3.5436e-17
3.5436e-17
3.54359e-17
3.54359e-17
3.54359e-17
3.54359e-17
3.5436e-17
3.5436e-17
3.5436e-17
3.54366e-17
3.54365e-17
3.54365e-17
3.54364e-17
3.54363e-17
3.54363e-17
3.54362e-17
3.54362e-17
3.54362e-17
3.54362e-17
3.54362e-17
3.54362e-17
3.54363e-17
3.54363e-17
3.54369e-17
3.54368e-17
3.54367e-17
3.54367e-17
3.54366e-17
3.54366e-17
3.54365e-17
3.54365e-17
3.54365e-17
3.54365e-17
3.54365e-17
3.54365e-17
3.54365e-17
3.54365e-17
3.54372e-17
3.54371e-17
3.5437e-17
3.5437e-17
3.54369e-17
3.54369e-17
3.54368e-17
3.54368e-17
3.54368e-17
3.54368e-17
3.54368e-17
3.54368e-17
3.54368e-17
3.54368e-17
3.54069e-17
3.54069e-17
3.54068e-17
3.54067e-17
3.54066e-17
3.54066e-17
3.54065e-17
3.54064e-17
3.54064e-17
3.54063e-17
3.54062e-17
3.54062e-17
3.54061e-17
3.5406e-17
3.5407e-17
3.54069e-17
3.54068e-17
3.54067e-17
3.54067e-17
3.54066e-17
3.54065e-17
3.54064e-17
3.54064e-17
3.54063e-17
3.54062e-17
3.54062e-17
3.54061e-17
3.5406e-17
3.5407e-17
3.54069e-17
3.54068e-17
3.54068e-17
3.54067e-17
3.54066e-17
3.54065e-17
3.54065e-17
3.54064e-17
3.54063e-17
3.54062e-17
3.54062e-17
3.54061e-17
3.5406e-17
3.5407e-17
3.54069e-17
3.54069e-17
3.54068e-17
3.54067e-17
3.54066e-17
3.54065e-17
3.54065e-17
3.54064e-17
3.54063e-17
3.54063e-17
3.54062e-17
3.54061e-17
3.54061e-17
3.54071e-17
3.5407e-17
3.54069e-17
3.54068e-17
3.54067e-17
3.54066e-17
3.54066e-17
3.54065e-17
3.54064e-17
3.54064e-17
3.54063e-17
3.54062e-17
3.54062e-17
3.54061e-17
3.54071e-17
3.5407e-17
3.54069e-17
3.54068e-17
3.54068e-17
3.54067e-17
3.54066e-17
3.54065e-17
3.54065e-17
3.54064e-17
3.54063e-17
3.54063e-17
3.54062e-17
3.54062e-17
3.54072e-17
3.54071e-17
3.5407e-17
3.54069e-17
3.54068e-17
3.54067e-17
3.54066e-17
3.54066e-17
3.54065e-17
3.54064e-17
3.54064e-17
3.54063e-17
3.54062e-17
3.54062e-17
3.54072e-17
3.54071e-17
3.5407e-17
3.54069e-17
3.54068e-17
3.54068e-17
3.54067e-17
3.54066e-17
3.54065e-17
3.54065e-17
3.54064e-17
3.54063e-17
3.54063e-17
3.54062e-17
3.54073e-17
3.54072e-17
3.54071e-17
3.5407e-17
3.54069e-17
3.54068e-17
3.54067e-17
3.54067e-17
3.54066e-17
3.54065e-17
3.54065e-17
3.54064e-17
3.54063e-17
3.54063e-17
3.54073e-17
3.54072e-17
3.54071e-17
3.5407e-17
3.5407e-17
3.54069e-17
3.54068e-17
3.54067e-17
3.54066e-17
3.54066e-17
3.54065e-17
3.54064e-17
3.54064e-17
3.54063e-17
3.54074e-17
3.54073e-17
3.54072e-17
3.54071e-17
3.5407e-17
3.54069e-17
3.54068e-17
3.54068e-17
3.54067e-17
3.54066e-17
3.54066e-17
3.54065e-17
3.54064e-17
3.54064e-17
3.54074e-17
3.54074e-17
3.54073e-17
3.54072e-17
3.54071e-17
3.5407e-17
3.54069e-17
3.54068e-17
3.54067e-17
3.54067e-17
3.54066e-17
3.54065e-17
3.54065e-17
3.54064e-17
3.54075e-17
3.54074e-17
3.54073e-17
3.54072e-17
3.54071e-17
3.54071e-17
3.5407e-17
3.54069e-17
3.54068e-17
3.54067e-17
3.54067e-17
3.54066e-17
3.54066e-17
3.54065e-17
3.54076e-17
3.54075e-17
3.54074e-17
3.54073e-17
3.54072e-17
3.54071e-17
3.5407e-17
3.5407e-17
3.54069e-17
3.54068e-17
3.54067e-17
3.54067e-17
3.54066e-17
3.54066e-17
3.53819e-17
3.53819e-17
3.53818e-17
3.53818e-17
3.53818e-17
3.53817e-17
3.53817e-17
3.53816e-17
3.53815e-17
3.53814e-17
3.53813e-17
3.53812e-17
3.53811e-17
3.5381e-17
3.53819e-17
3.53819e-17
3.53819e-17
3.53818e-17
3.53818e-17
3.53817e-17
3.53817e-17
3.53816e-17
3.53815e-17
3.53814e-17
3.53813e-17
3.53812e-17
3.53811e-17
3.5381e-17
3.53819e-17
3.53819e-17
3.53819e-17
3.53818e-17
3.53818e-17
3.53817e-17
3.53817e-17
3.53816e-17
3.53815e-17
3.53814e-17
3.53813e-17
3.53812e-17
3.53811e-17
3.5381e-17
3.53819e-17
3.53819e-17
3.53819e-17
3.53818e-17
3.53818e-17
3.53817e-17
3.53817e-17
3.53816e-17
3.53815e-17
3.53814e-17
3.53813e-17
3.53812e-17
3.53811e-17
3.53809e-17
3.53819e-17
3.53819e-17
3.53819e-17
3.53818e-17
3.53818e-17
3.53817e-17
3.53817e-17
3.53816e-17
3.53815e-17
3.53814e-17
3.53813e-17
3.53812e-17
3.53811e-17
3.53809e-17
3.53819e-17
3.53819e-17
3.53819e-17
3.53818e-17
3.53818e-17
3.53817e-17
3.53816e-17
3.53816e-17
3.53815e-17
3.53814e-17
3.53813e-17
3.53812e-17
3.5381e-17
3.53809e-17
3.53819e-17
3.53818e-17
3.53818e-17
3.53818e-17
3.53817e-17
3.53817e-17
3.53816e-17
3.53815e-17
3.53815e-17
3.53814e-17
3.53813e-17
3.53811e-17
3.5381e-17
3.53809e-17
3.53818e-17
3.53818e-17
3.53818e-17
3.53817e-17
3.53817e-17
3.53816e-17
3.53816e-17
3.53815e-17
3.53814e-17
3.53813e-17
3.53812e-17
3.53811e-17
3.5381e-17
3.53809e-17
3.53818e-17
3.53818e-17
3.53817e-17
3.53817e-17
3.53817e-17
3.53816e-17
3.53815e-17
3.53815e-17
3.53814e-17
3.53813e-17
3.53812e-17
3.53811e-17
3.53809e-17
3.53808e-17
3.53817e-17
3.53817e-17
3.53817e-17
3.53816e-17
3.53816e-17
3.53815e-17
3.53815e-17
3.53814e-17
3.53813e-17
3.53812e-17
3.53811e-17
3.5381e-17
3.53809e-17
3.53808e-17
3.53817e-17
3.53816e-17
3.53816e-17
3.53816e-17
3.53815e-17
3.53815e-17
3.53814e-17
3.53813e-17
3.53812e-17
3.53811e-17
3.5381e-17
3.53809e-17
3.53808e-17
3.53807e-17
3.53816e-17
3.53816e-17
3.53815e-17
3.53815e-17
3.53814e-17
3.53814e-17
3.53813e-17
3.53812e-17
3.53812e-17
3.53811e-17
3.5381e-17
3.53809e-17
3.53808e-17
3.53807e-17
3.53815e-17
3.53815e-17
3.53815e-17
3.53814e-17
3.53814e-17
3.53813e-17
3.53812e-17
3.53812e-17
3.53811e-17
3.5381e-17
3.53809e-17
3.53808e-17
3.53807e-17
3.53806e-17
3.53815e-17
3.53814e-17
3.53814e-17
3.53813e-17
3.53813e-17
3.53812e-17
3.53811e-17
3.53811e-17
3.5381e-17
3.53809e-17
3.53808e-17
3.53807e-17
3.53806e-17
3.53805e-17
3.5359e-17
3.5359e-17
3.53591e-17
3.53591e-17
3.53591e-17
3.53591e-17
3.53591e-17
3.5359e-17
3.5359e-17
3.53589e-17
3.53588e-17
3.53587e-17
3.53586e-17
3.53585e-17
3.53591e-17
3.53591e-17
3.53591e-17
3.53592e-17
3.53592e-17
3.53592e-17
3.53591e-17
3.53591e-17
3.5359e-17
3.5359e-17
3.53589e-17
3.53588e-17
3.53586e-17
3.53585e-17
3.53591e-17
3.53591e-17
3.53592e-17
3.53592e-17
3.53592e-17
3.53592e-17
3.53592e-17
3.53591e-17
3.53591e-17
3.5359e-17
3.53589e-17
3.53588e-17
3.53586e-17
3.53585e-17
3.53591e-17
3.53592e-17
3.53592e-17
3.53592e-17
3.53593e-17
3.53593e-17
3.53592e-17
3.53592e-17
3.53591e-17
3.5359e-17
3.53589e-17
3.53588e-17
3.53587e-17
3.53585e-17
3.53591e-17
3.53592e-17
3.53592e-17
3.53593e-17
3.53593e-17
3.53593e-17
3.53592e-17
3.53592e-17
3.53591e-17
3.5359e-17
3.53589e-17
3.53588e-17
3.53587e-17
3.53585e-17
3.53591e-17
3.53592e-17
3.53592e-17
3.53593e-17
3.53593e-17
3.53593e-17
3.53592e-17
3.53592e-17
3.53591e-17
3.5359e-17
3.53589e-17
3.53588e-17
3.53586e-17
3.53585e-17
3.53591e-17
3.53591e-17
3.53592e-17
3.53592e-17
3.53592e-17
3.53592e-17
3.53592e-17
3.53591e-17
3.53591e-17
3.5359e-17
3.53589e-17
3.53588e-17
3.53586e-17
3.53584e-17
3.5359e-17
3.53591e-17
3.53591e-17
3.53592e-17
3.53592e-17
3.53592e-17
3.53591e-17
3.53591e-17
3.5359e-17
3.53589e-17
3.53588e-17
3.53587e-17
3.53586e-17
3.53584e-17
3.53589e-17
3.5359e-17
3.53591e-17
3.53591e-17
3.53591e-17
3.53591e-17
3.53591e-17
3.5359e-17
3.5359e-17
3.53589e-17
3.53588e-17
3.53586e-17
3.53585e-17
3.53584e-17
3.53588e-17
3.53589e-17
3.5359e-17
3.5359e-17
3.5359e-17
3.5359e-17
3.5359e-17
3.53589e-17
3.53589e-17
3.53588e-17
3.53587e-17
3.53586e-17
3.53584e-17
3.53583e-17
3.53587e-17
3.53588e-17
3.53588e-17
3.53589e-17
3.53589e-17
3.53589e-17
3.53589e-17
3.53588e-17
3.53587e-17
3.53587e-17
3.53586e-17
3.53584e-17
3.53583e-17
3.53582e-17
3.53586e-17
3.53587e-17
3.53587e-17
3.53587e-17
3.53588e-17
3.53588e-17
3.53587e-17
3.53587e-17
3.53586e-17
3.53585e-17
3.53584e-17
3.53583e-17
3.53582e-17
3.53581e-17
3.53585e-17
3.53585e-17
3.53586e-17
3.53586e-17
3.53586e-17
3.53586e-17
3.53586e-17
3.53585e-17
3.53585e-17
3.53584e-17
3.53583e-17
3.53582e-17
3.53581e-17
3.53579e-17
3.53583e-17
3.53584e-17
3.53584e-17
3.53584e-17
3.53584e-17
3.53584e-17
3.53584e-17
3.53584e-17
3.53583e-17
3.53582e-17
3.53581e-17
3.5358e-17
3.53579e-17
3.53578e-17
3.5338e-17
3.53381e-17
3.53381e-17
3.53382e-17
3.53383e-17
3.53383e-17
3.53383e-17
3.53383e-17
3.53383e-17
3.53382e-17
3.53381e-17
3.5338e-17
3.53379e-17
3.53378e-17
3.53381e-17
3.53382e-17
3.53383e-17
3.53383e-17
3.53384e-17
3.53384e-17
3.53384e-17
3.53384e-17
3.53384e-17
3.53383e-17
3.53382e-17
3.53381e-17
3.5338e-17
3.53379e-17
3.53381e-17
3.53383e-17
3.53383e-17
3.53384e-17
3.53385e-17
3.53385e-17
3.53385e-17
3.53385e-17
3.53385e-17
3.53384e-17
3.53383e-17
3.53382e-17
3.53381e-17
3.53379e-17
3.53382e-17
3.53383e-17
3.53384e-17
3.53385e-17
3.53386e-17
3.53386e-17
3.53386e-17
3.53386e-17
3.53385e-17
3.53385e-17
3.53384e-17
3.53383e-17
3.53381e-17
3.5338e-17
3.53382e-17
3.53384e-17
3.53385e-17
3.53385e-17
3.53386e-17
3.53386e-17
3.53386e-17
3.53386e-17
3.53386e-17
3.53385e-17