/*--------------------------------*- C++ -*----------------------------------*\
| =========                 |                                                 |
| \\      /  F ield         | OpenFOAM: The Open Source CFD Toolbox           |
|  \\    /   O peration     | Version:  v2106                                 |
|   \\  /    A nd           | Website:  www.openfoam.com                      |
|    \\/     M anipulation  |                                                 |
\*---------------------------------------------------------------------------*/
FoamFile
{
    version     2.0;
    format      ascii;
    arch        "LSB;label=32;scalar=64";
    class       volScalarField;
    location    "0.000201";
    object      p;
}
// * * * * * * * * * * * * * * * * * * * * * * * * * * * * * * * * * * * * * //

dimensions      [1 -1 -2 0 0 0 0];

internalField   nonuniform List<scalar> 
17920
(
236272
236235
236238
236202
236205
236170
236169
236135
236132
236098
236092
236058
236050
236017
236006
235974
235960
235929
235912
235883
235863
235836
235814
235788
235762
235738
235714
235689
236057
236045
236030
236015
235998
235978
235957
235934
235910
235885
235858
235831
235804
235774
236010
236002
235988
235973
235956
235937
235916
235893
235868
235843
235816
235788
235763
235734
235967
235959
235944
235929
235912
235894
235873
235850
235826
235801
235776
235749
235724
235696
235922
235914
235898
235884
235867
235848
235828
235805
235782
235757
235732
235706
235681
235654
235877
235868
235853
235837
235820
235801
235781
235759
235736
235712
235687
235662
235638
235611
235831
235821
235805
235789
235772
235753
235733
235711
235688
235664
235641
235616
235592
235566
235785
235773
235757
235741
235723
235704
235683
235661
235639
235616
235593
235569
235545
235521
235737
235723
235707
235690
235672
235653
235632
235611
235589
235566
235543
235520
235496
235473
235689
235673
235657
235639
235621
235601
235581
235559
235537
235515
235492
235470
235447
235426
235639
235622
235605
235587
235569
235549
235528
235507
235485
235463
235441
235419
235395
235377
235590
235570
235554
235536
235517
235497
235476
235455
235433
235411
235388
235367
235344
235328
235539
235517
235501
235482
235463
235443
235423
235401
235380
235358
235336
235315
235292
235278
235489
235468
235450
235431
235411
235391
235370
235348
235326
235305
235283
235262
235240
235228
235435
235414
235395
235377
235357
235337
235316
235295
235274
235253
235231
235211
235190
235177
235277
235276
235270
235265
235258
235250
235241
235230
235219
235206
235192
235177
235163
235147
235234
235236
235232
235226
235219
235211
235202
235191
235180
235167
235153
235138
235124
235107
235196
235198
235193
235187
235179
235171
235162
235151
235140
235128
235115
235101
235088
235071
235156
235157
235152
235146
235138
235130
235121
235111
235099
235087
235075
235061
235049
235032
235116
235116
235110
235104
235096
235088
235079
235069
235058
235046
235034
235021
235009
234994
235076
235073
235067
235061
235053
235045
235036
235026
235016
235004
234993
234980
234969
234955
235035
235030
235024
235017
235010
235002
234992
234983
234973
234962
234951
234939
234928
234915
234992
234986
234980
234973
234966
234957
234949
234939
234929
234919
234908
234897
234886
234875
234950
234943
234936
234929
234921
234913
234904
234895
234885
234875
234865
234855
234844
234835
234906
234898
234891
234884
234876
234868
234860
234851
234841
234831
234821
234811
234801
234794
234864
234853
234847
234840
234832
234824
234815
234806
234797
234787
234777
234768
234758
234754
234821
234808
234802
234795
234787
234779
234771
234762
234753
234743
234733
234725
234715
234714
234779
234766
234759
234751
234743
234735
234726
234718
234709
234699
234690
234682
234673
234674
234732
234722
234714
234707
234699
234691
234682
234674
234665
234656
234647
234639
234631
234631
234352
234357
234361
234366
234370
234374
234377
234379
234380
234381
234381
234380
234379
234377
234326
234332
234336
234341
234345
234348
234351
234353
234355
234356
234356
234355
234353
234349
234302
234308
234311
234316
234319
234322
234325
234327
234328
234329
234329
234328
234327
234323
234276
234282
234285
234290
234293
234296
234298
234300
234302
234303
234303
234302
234301
234298
234250
234256
234259
234263
234266
234269
234271
234273
234275
234276
234276
234276
234276
234273
234223
234228
234232
234236
234239
234242
234244
234246
234248
234249
234249
234249
234249
234247
234196
234201
234204
234208
234211
234214
234216
234218
234220
234222
234222
234223
234223
234222
234168
234172
234176
234180
234183
234186
234188
234190
234192
234194
234195
234196
234196
234196
234140
234143
234148
234151
234154
234157
234160
234162
234164
234166
234168
234169
234169
234170
234112
234114
234119
234122
234126
234129
234132
234134
234136
234138
234140
234142
234142
234145
234084
234085
234090
234093
234097
234100
234103
234106
234108
234111
234113
234115
234115
234119
234057
234056
234061
234065
234068
234072
234075
234078
234080
234083
234085
234087
234088
234093
234030
234028
234033
234036
234040
234043
234046
234049
234052
234055
234058
234060
234062
234068
234001
234001
234005
234009
234012
234015
234018
234021
234024
234027
234030
234033
234035
234040
233375
233386
233397
233408
233419
233430
233441
233452
233462
233472
233481
233490
233498
233507
233367
233378
233389
233400
233411
233422
233433
233444
233454
233464
233473
233482
233490
233497
233359
233371
233381
233392
233403
233414
233425
233435
233446
233456
233465
233474
233481
233488
233351
233362
233373
233384
233395
233406
233416
233427
233437
233447
233456
233464
233472
233478
233343
233354
233364
233375
233386
233397
233408
233418
233428
233438
233447
233455
233463
233469
233333
233344
233355
233366
233377
233388
233399
233409
233419
233428
233437
233446
233453
233460
233323
233335
233346
233357
233368
233379
233389
233400
233410
233419
233428
233436
233444
233451
233313
233324
233336
233347
233358
233369
233380
233390
233400
233409
233419
233427
233435
233442
233303
233314
233325
233337
233348
233359
233369
233380
233390
233400
233409
233418
233426
233433
233292
233303
233315
233326
233337
233348
233359
233370
233380
233389
233399
233408
233416
233425
233281
233292
233304
233315
233326
233337
233348
233359
233369
233379
233389
233398
233407
233416
233270
233281
233293
233304
233315
233326
233337
233348
233358
233368
233378
233388
233397
233406
233259
233270
233281
233293
233304
233315
233326
233337
233348
233358
233368
233378
233387
233398
233249
233260
233271
233283
233293
233304
233315
233325
233336
233346
233356
233367
233377
233387
232416
232427
232440
232452
232465
232478
232491
232505
232518
232532
232545
232558
232570
232583
232420
232432
232444
232457
232471
232484
232498
232511
232525
232538
232551
232564
232576
232588
232426
232438
232451
232463
232477
232490
232504
232517
232531
232544
232556
232569
232580
232592
232431
232443
232456
232469
232483
232496
232510
232524
232537
232550
232562
232574
232586
232597
232436
232449
232462
232475
232489
232502
232516
232529
232542
232555
232567
232579
232590
232602
232441
232454
232467
232481
232494
232508
232522
232535
232548
232561
232573
232585
232596
232606
232445
232458
232472
232486
232499
232513
232527
232540
232553
232566
232578
232589
232601
232611
232449
232463
232476
232490
232504
232518
232532
232545
232558
232571
232583
232594
232605
232616
232453
232467
232480
232495
232508
232522
232536
232549
232562
232575
232587
232599
232610
232620
232456
232471
232484
232499
232512
232526
232540
232553
232566
232579
232591
232603
232614
232624
232460
232474
232488
232502
232516
232530
232543
232557
232570
232583
232595
232607
232618
232629
232463
232477
232491
232505
232519
232533
232546
232560
232573
232586
232598
232610
232622
232633
232466
232480
232493
232508
232521
232535
232549
232563
232576
232589
232602
232614
232626
232638
232469
232484
232497
232511
232524
232538
232552
232565
232578
232591
232604
232616
232629
232641
231505
231514
231524
231534
231544
231555
231566
231577
231588
231600
231611
231623
231635
231648
231516
231524
231535
231545
231556
231567
231578
231590
231602
231613
231625
231637
231648
231661
231528
231536
231547
231558
231569
231580
231591
231603
231614
231626
231637
231649
231660
231673
231539
231548
231559
231570
231581
231593
231604
231616
231627
231639
231650
231662
231673
231685
231550
231560
231571
231582
231594
231605
231617
231629
231640
231651
231663
231674
231685
231696
231562
231573
231584
231595
231607
231618
231630
231641
231653
231664
231676
231687
231697
231708
231574
231585
231596
231607
231619
231631
231642
231654
231666
231677
231688
231699
231710
231720
231585
231597
231608
231620
231631
231643
231655
231667
231678
231689
231700
231711
231722
231732
231597
231609
231620
231632
231644
231655
231667
231679
231690
231702
231713
231723
231734
231743
231609
231621
231632
231644
231656
231667
231679
231691
231702
231714
231725
231735
231746
231755
231620
231632
231643
231655
231667
231679
231691
231703
231714
231725
231736
231747
231758
231766
231632
231644
231655
231667
231679
231691
231702
231714
231726
231737
231748
231758
231769
231778
231643
231655
231666
231678
231690
231702
231714
231726
231737
231749
231760
231770
231781
231790
231654
231667
231678
231690
231701
231713
231725
231736
231748
231759
231770
231781
231792
231804
230657
230661
230667
230672
230678
230684
230690
230697
230704
230711
230719
230727
230735
230745
230668
230672
230677
230683
230689
230695
230702
230709
230716
230724
230732
230740
230749
230759
230678
230683
230689
230695
230701
230707
230714
230721
230728
230736
230744
230752
230760
230770
230690
230694
230701
230707
230713
230719
230726
230733
230741
230749
230757
230765
230773
230783
230701
230706
230713
230719
230725
230732
230739
230746
230753
230761
230769
230777
230786
230795
230714
230719
230725
230731
230738
230744
230751
230759
230766
230774
230782
230790
230798
230807
230726
230732
230738
230744
230751
230757
230764
230772
230779
230787
230795
230803
230811
230819
230739
230745
230751
230757
230764
230771
230778
230785
230792
230800
230808
230816
230824
230832
230752
230758
230764
230771
230777
230784
230791
230799
230806
230813
230821
230829
230837
230844
230765
230772
230778
230784
230791
230798
230805
230812
230820
230827
230834
230842
230850
230856
230778
230785
230791
230798
230805
230812
230819
230826
230833
230841
230848
230855
230863
230869
230792
230799
230805
230811
230818
230826
230833
230840
230847
230854
230862
230869
230876
230882
230805
230812
230818
230825
230832
230839
230847
230854
230861
230868
230876
230882
230889
230895
230820
230826
230832
230839
230846
230853
230861
230868
230875
230882
230889
230896
230903
230911
229876
229877
229879
229880
229881
229883
229885
229887
229890
229893
229896
229899
229904
229909
229884
229884
229885
229886
229888
229890
229892
229894
229897
229900
229904
229908
229912
229918
229891
229891
229892
229893
229895
229897
229899
229901
229904
229908
229911
229916
229920
229926
229898
229898
229899
229901
229902
229904
229906
229909
229912
229916
229920
229924
229929
229935
229906
229906
229908
229909
229910
229912
229914
229917
229920
229924
229928
229932
229937
229943
229915
229915
229916
229917
229919
229921
229923
229926
229929
229932
229937
229941
229946
229951
229924
229924
229925
229926
229928
229930
229932
229935
229938
229942
229946
229950
229955
229960
229933
229934
229935
229936
229938
229939
229942
229944
229947
229951
229955
229959
229964
229969
229943
229944
229945
229946
229948
229950
229952
229954
229958
229961
229965
229969
229974
229978
229953
229955
229955
229957
229958
229960
229962
229965
229968
229971
229975
229979
229983
229987
229964
229966
229966
229968
229969
229971
229974
229976
229979
229982
229986
229989
229993
229997
229975
229977
229978
229979
229981
229983
229985
229987
229990
229993
229996
230000
230004
230007
229986
229988
229989
229991
229992
229994
229997
229999
230002
230005
230008
230011
230014
230017
229998
229999
230001
230002
230004
230006
230009
230011
230014
230016
230019
230022
230025
230028
229164
229163
229162
229161
229160
229159
229158
229158
229157
229157
229157
229157
229158
229159
229167
229166
229164
229163
229162
229161
229160
229160
229160
229160
229160
229160
229161
229163
229170
229169
229167
229166
229165
229164
229163
229162
229162
229162
229163
229163
229165
229166
229174
229172
229170
229169
229168
229167
229166
229165
229165
229166
229166
229167
229168
229170
229178
229176
229174
229172
229171
229170
229169
229169
229169
229169
229170
229171
229172
229174
229182
229180
229178
229176
229175
229174
229173
229173
229173
229173
229174
229175
229176
229178
229186
229184
229182
229180
229179
229178
229177
229177
229177
229177
229178
229179
229180
229182
229191
229189
229187
229185
229184
229183
229182
229181
229181
229182
229182
229183
229185
229186
229196
229194
229192
229191
229189
229188
229187
229187
229186
229187
229187
229188
229190
229191
229202
229200
229198
229196
229195
229193
229193
229192
229192
229192
229193
229193
229195
229196
229208
229206
229204
229202
229201
229200
229199
229198
229198
229198
229198
229199
229200
229201
229214
229212
229210
229209
229207
229206
229205
229204
229204
229204
229204
229205
229206
229206
229220
229219
229217
229215
229214
229213
229212
229211
229211
229210
229211
229211
229212
229211
229227
229225
229223
229222
229221
229220
229219
229218
229217
229217
229217
229217
229217
229217
228516
228515
228513
228511
228510
228508
228507
228505
228504
228502
228500
228499
228497
228495
228517
228516
228514
228512
228510
228509
228507
228505
228504
228502
228500
228499
228497
228495
228518
228516
228514
228512
228511
228509
228507
228505
228504
228502
228501
228499
228498
228496
228519
228517
228515
228513
228511
228509
228508
228506
228504
228503
228501
228499
228498
228496
228520
228518
228515
228514
228512
228510
228508
228506
228505
228503
228502
228500
228499
228497
228521
228518
228516
228514
228512
228511
228509
228507
228505
228504
228502
228501
228500
228498
228522
228519
228517
228515
228513
228511
228510
228508
228506
228505
228503
228502
228500
228499
228523
228520
228518
228516
228514
228512
228510
228509
228507
228506
228504
228503
228501
228500
228524
228522
228519
228517
228515
228513
228511
228510
228508
228507
228505
228504
228503
228501
228525
228523
228521
228519
228516
228515
228513
228511
228509
228508
228506
228505
228504
228503
228526
228524
228522
228520
228518
228516
228514
228512
228510
228509
228507
228506
228505
228504
228528
228526
228524
228521
228519
228517
228515
228513
228512
228510
228509
228507
228506
228505
228529
228528
228525
228523
228521
228519
228517
228515
228513
228511
228510
228508
228507
228506
228531
228529
228527
228524
228522
228520
228518
228516
228515
228513
228511
228510
228508
228507
227925
227925
227924
227923
227922
227921
227920
227919
227917
227915
227913
227911
227908
227905
227926
227926
227925
227924
227923
227922
227921
227919
227917
227915
227913
227910
227908
227904
227926
227926
227925
227924
227923
227922
227921
227919
227917
227915
227913
227910
227907
227904
227926
227926
227925
227925
227924
227922
227921
227919
227917
227915
227913
227910
227907
227904
227926
227926
227925
227924
227923
227922
227921
227919
227917
227915
227912
227910
227907
227903
227926
227925
227925
227924
227923
227922
227920
227919
227917
227914
227912
227909
227906
227903
227925
227925
227924
227923
227922
227921
227920
227918
227916
227914
227911
227908
227906
227903
227924
227924
227923
227922
227921
227920
227919
227917
227915
227913
227910
227908
227905
227902
227923
227922
227922
227921
227920
227919
227918
227916
227914
227912
227909
227907
227904
227901
227922
227921
227921
227920
227919
227918
227916
227914
227912
227910
227908
227905
227903
227900
227920
227920
227919
227918
227917
227916
227914
227913
227911
227909
227906
227904
227901
227899
227918
227918
227917
227916
227915
227914
227913
227911
227909
227907
227904
227902
227900
227897
227917
227916
227916
227915
227913
227912
227910
227909
227907
227905
227902
227900
227898
227895
227915
227914
227913
227912
227911
227910
227908
227906
227904
227902
227900
227898
227896
227893
227384
227385
227386
227387
227387
227387
227386
227386
227384
227383
227381
227378
227375
227372
227386
227387
227388
227388
227389
227389
227388
227387
227386
227384
227382
227379
227376
227372
227387
227388
227389
227390
227390
227390
227389
227388
227387
227385
227383
227380
227377
227373
227387
227389
227390
227391
227391
227391
227390
227389
227388
227386
227383
227380
227377
227373
227388
227389
227390
227391
227391
227391
227391
227390
227388
227386
227383
227380
227377
227373
227387
227389
227390
227391
227391
227391
227391
227389
227388
227386
227383
227380
227377
227373
227386
227388
227389
227390
227391
227390
227390
227389
227387
227385
227382
227379
227376
227372
227385
227387
227388
227389
227389
227389
227389
227388
227386
227384
227381
227378
227375
227371
227383
227385
227386
227387
227388
227388
227387
227386
227384
227382
227380
227377
227373
227370
227381
227383
227384
227385
227385
227385
227385
227384
227382
227380
227378
227375
227371
227368
227379
227380
227381
227382
227383
227383
227382
227381
227379
227377
227375
227372
227369
227366
227376
227377
227378
227379
227379
227379
227379
227378
227376
227374
227372
227369
227366
227363
227373
227374
227375
227376
227376
227376
227375
227374
227372
227371
227368
227366
227363
227360
227369
227370
227371
227372
227372
227372
227371
227370
227369
227367
227365
227362
227359
227357
226886
226889
226891
226892
226894
226894
226895
226895
226894
226893
226891
226889
226886
226882
226889
226891
226893
226895
226897
226897
226898
226897
226897
226895
226893
226891
226888
226884
226891
226894
226896
226898
226899
226900
226900
226900
226899
226897
226895
226893
226890
226886
226892
226895
226898
226899
226901
226902
226902
226901
226901
226899
226897
226894
226891
226887
226893
226896
226899
226901
226902
226903
226903
226903
226902
226900
226898
226895
226892
226888
226894
226897
226899
226901
226903
226903
226904
226903
226902
226901
226899
226896
226893
226889
226894
226897
226899
226901
226903
226903
226904
226903
226902
226901
226899
226896
226893
226889
226893
226896
226898
226900
226902
226903
226903
226903
226902
226900
226898
226895
226892
226888
226891
226895
226897
226899
226901
226901
226902
226901
226900
226899
226897
226894
226891
226887
226890
226893
226895
226897
226899
226899
226900
226899
226898
226897
226895
226892
226889
226886
226887
226890
226893
226895
226896
226897
226897
226897
226896
226894
226892
226890
226887
226884
226884
226887
226890
226892
226893
226894
226894
226894
226893
226891
226889
226887
226884
226881
226881
226884
226886
226888
226889
226890
226890
226890
226889
226888
226886
226883
226881
226878
226877
226880
226882
226884
226885
226886
226886
226886
226885
226884
226882
226879
226877
226874
226426
226429
226431
226433
226435
226436
226437
226437
226437
226436
226434
226432
226430
226427
226429
226432
226434
226437
226438
226440
226440
226440
226440
226439
226438
226435
226433
226430
226431
226434
226437
226439
226441
226442
226443
226443
226443
226442
226440
226438
226435
226433
226433
226437
226439
226442
226444
226445
226445
226446
226445
226444
226443
226440
226438
226435
226435
226438
226441
226443
226445
226447
226447
226447
226447
226446
226444
226442
226439
226436
226436
226439
226442
226445
226446
226448
226448
226449
226448
226447
226445
226443
226440
226437
226436
226440
226443
226445
226447
226448
226449
226449
226449
226448
226446
226444
226441
226438
226436
226440
226443
226445
226447
226448
226449
226449
226449
226448
226446
226444
226441
226438
226436
226439
226442
226444
226446
226448
226448
226448
226448
226447
226445
226443
226440
226437
226434
226438
226441
226443
226445
226446
226447
226447
226447
226446
226444
226442
226439
226436
226433
226436
226439
226441
226443
226444
226445
226445
226445
226444
226442
226440
226438
226434
226430
226434
226437
226439
226441
226442
226443
226443
226442
226441
226440
226438
226435
226432
226428
226431
226434
226436
226438
226439
226440
226440
226439
226438
226437
226435
226433
226430
226425
226428
226430
226433
226434
226435
226436
226436
226436
226435
226434
226432
226429
226427
225996
225999
226001
226003
226005
226006
226007
226007
226006
226006
226005
226003
226002
225999
225999
226002
226004
226006
226008
226009
226010
226010
226010
226009
226008
226006
226004
226002
226001
226004
226007
226009
226010
226012
226012
226013
226012
226012
226011
226009
226007
226005
226003
226006
226009
226011
226012
226014
226014
226015
226015
226014
226013
226011
226009
226007
226005
226008
226010
226013
226014
226015
226016
226017
226016
226016
226014
226013
226011
226008
226006
226009
226012
226014
226015
226017
226017
226018
226018
226017
226016
226014
226012
226009
226007
226010
226012
226014
226016
226017
226018
226019
226018
226018
226016
226015
226013
226010
226007
226010
226013
226015
226017
226018
226019
226019
226019
226018
226017
226015
226013
226010
226007
226010
226012
226015
226016
226018
226018
226019
226019
226018
226017
226015
226013
226010
226006
226009
226012
226014
226016
226017
226018
226018
226018
226017
226016
226014
226012
226009
226005
226008
226011
226013
226014
226016
226016
226017
226017
226016
226015
226013
226011
226008
226004
226006
226009
226011
226013
226014
226015
226015
226015
226014
226013
226012
226009
226007
226002
226004
226007
226009
226011
226012
226013
226013
226013
226012
226011
226010
226008
226005
225999
226002
226004
226006
226008
226009
226010
226010
226010
226010
226009
226007
226006
226003
225593
225595
225597
225598
225599
225599
225600
225600
225600
225599
225598
225598
225596
225595
225594
225596
225598
225600
225601
225601
225602
225602
225602
225601
225601
225600
225599
225597
225596
225598
225600
225601
225602
225603
225604
225604
225604
225603
225602
225602
225600
225599
225597
225599
225601
225603
225604
225605
225605
225605
225605
225605
225604
225603
225602
225601
225599
225601
225602
225604
225605
225606
225606
225606
225606
225606
225605
225604
225603
225602
225599
225601
225603
225605
225606
225607
225607
225607
225607
225607
225606
225605
225604
225602
225600
225602
225604
225605
225606
225607
225608
225608
225608
225607
225607
225606
225604
225603
225600
225602
225604
225605
225607
225607
225608
225608
225608
225608
225607
225606
225604
225603
225600
225602
225604
225605
225606
225607
225608
225608
225608
225608
225607
225606
225604
225603
225600
225602
225604
225605
225606
225607
225608
225608
225608
225607
225607
225605
225604
225602
225600
225601
225603
225604
225605
225606
225607
225607
225607
225607
225606
225605
225603
225602
225599
225600
225602
225603
225604
225605
225606
225606
225606
225606
225605
225604
225603
225601
225597
225599
225601
225602
225603
225604
225605
225605
225605
225605
225604
225603
225602
225600
225595
225597
225599
225600
225602
225602
225603
225603
225604
225603
225603
225602
225600
225598
225213
225214
225215
225215
225215
225216
225216
225216
225215
225215
225215
225214
225214
225213
225213
225214
225215
225215
225216
225216
225216
225216
225216
225216
225215
225215
225215
225215
225214
225215
225215
225216
225216
225216
225217
225217
225216
225216
225216
225216
225215
225215
225214
225215
225216
225216
225217
225217
225217
225217
225217
225217
225217
225216
225216
225216
225215
225215
225216
225216
225217
225217
225217
225217
225217
225217
225217
225217
225216
225216
225215
225216
225216
225217
225217
225217
225217
225217
225217
225217
225217
225217
225217
225216
225215
225216
225216
225217
225217
225217
225218
225218
225218
225217
225217
225217
225217
225216
225216
225216
225216
225217
225217
225217
225218
225218
225218
225217
225217
225217
225217
225216
225216
225216
225216
225217
225217
225217
225218
225218
225218
225217
225217
225217
225216
225216
225215
225216
225216
225217
225217
225217
225217
225217
225217
225217
225217
225217
225216
225216
225215
225216
225216
225216
225217
225217
225217
225217
225217
225217
225217
225216
225216
225215
225215
225215
225216
225216
225216
225217
225217
225217
225217
225217
225217
225216
225216
225215
225214
225214
225215
225216
225216
225216
225217
225217
225217
225217
225216
225216
225215
225215
225213
225214
225214
225215
225215
225216
225216
225216
225216
225216
225216
225216
225215
225214
224857
224857
224856
224856
224856
224855
224855
224855
224855
224855
224855
224855
224855
224856
224856
224856
224855
224855
224855
224855
224855
224854
224854
224854
224854
224855
224855
224856
224856
224855
224855
224854
224854
224854
224854
224854
224854
224854
224854
224854
224855
224855
224855
224855
224854
224854
224854
224853
224853
224853
224853
224853
224853
224854
224854
224855
224855
224854
224854
224853
224853
224853
224853
224853
224853
224853
224853
224853
224854
224854
224855
224854
224854
224853
224853
224852
224852
224852
224852
224852
224853
224853
224853
224854
224855
224854
224853
224853
224852
224852
224852
224852
224852
224852
224852
224853
224853
224854
224855
224854
224853
224853
224852
224852
224852
224852
224852
224852
224852
224852
224853
224854
224854
224854
224853
224852
224852
224852
224852
224851
224851
224852
224852
224852
224853
224853
224854
224854
224853
224852
224852
224852
224852
224851
224851
224852
224852
224852
224853
224853
224854
224854
224853
224853
224852
224852
224852
224852
224852
224852
224852
224852
224853
224853
224854
224854
224853
224853
224852
224852
224852
224852
224852
224852
224852
224853
224853
224853
224855
224854
224853
224853
224853
224853
224853
224852
224852
224853
224853
224853
224853
224854
224855
224854
224854
224853
224853
224853
224853
224853
224853
224853
224853
224853
224854
224854
236292
236289
236290
236288
236285
236279
236253
236242
236238
236231
236225
236217
236096
236127
236154
236181
236204
236226
236082
236123
236158
236193
236225
236255
236074
236121
236162
236203
236240
236274
236061
236112
236158
236202
236242
236279
236045
236099
236147
236193
236234
236273
236026
236080
236128
236174
236216
236253
236005
236056
236104
236147
236187
236222
235980
236028
236072
236112
236148
236180
235953
235996
236036
236070
236102
236128
235925
235960
235994
236023
236048
236069
235894
235921
235949
235970
235989
236005
235864
235881
235901
235916
235928
235937
235831
235840
235852
235860
235865
235868
235800
235798
235802
235802
235803
235801
235312
235336
235357
235377
235395
235412
235308
235340
235370
235397
235423
235446
235308
235347
235383
235416
235447
235474
235306
235350
235390
235428
235463
235494
235302
235349
235393
235434
235472
235506
235295
235345
235391
235433
235473
235509
235286
235336
235383
235426
235466
235503
235275
235323
235369
235411
235451
235486
235262
235307
235350
235389
235426
235459
235246
235287
235325
235361
235393
235423
235229
235263
235296
235326
235353
235378
235211
235238
235264
235288
235308
235327
235190
235210
235228
235245
235259
235271
235173
235182
235193
235201
235208
235214
234371
234381
234392
234403
234412
234420
234377
234393
234408
234423
234435
234446
234385
234405
234425
234442
234458
234472
234392
234416
234439
234460
234479
234495
234398
234426
234452
234476
234497
234516
234403
234434
234463
234490
234514
234535
234407
234440
234471
234500
234526
234550
234409
234443
234475
234506
234534
234560
234410
234444
234476
234506
234535
234562
234410
234442
234472
234502
234530
234556
234408
234437
234465
234492
234518
234542
234405
234430
234454
234477
234499
234520
234400
234421
234439
234458
234475
234491
234398
234412
234425
234437
234448
234458
233377
233375
233373
233371
233370
233368
233389
233388
233387
233385
233384
233382
233400
233401
233401
233401
233400
233398
233413
233415
233417
233418
233418
233417
233425
233430
233433
233436
233437
233437
233437
233444
233450
233455
233458
233460
233449
233458
233467
233474
233480
233484
233461
233472
233482
233492
233501
233508
233473
233485
233497
233508
233520
233530
233483
233497
233510
233522
233535
233548
233493
233507
233520
233534
233548
233561
233502
233516
233529
233543
233556
233570
233509
233523
233535
233547
233559
233572
233517
233529
233538
233549
233559
233569
232407
232393
232382
232371
232362
232352
232419
232404
232392
232380
232368
232357
232429
232415
232403
232390
232377
232365
232442
232428
232415
232402
232389
232376
232455
232442
232429
232416
232403
232390
232469
232457
232445
232433
232420
232407
232483
232472
232462
232451
232440
232428
232497
232489
232480
232470
232462
232452
232512
232505
232498
232491
232485
232478
232526
232522
232518
232513
232509
232505
232540
232539
232537
232535
232534
232532
232555
232556
232556
232557
232558
232559
232569
232571
232574
232577
232580
232584
232584
232587
232591
232595
232600
232605
231493
231476
231462
231448
231436
231424
231501
231483
231468
231452
231439
231425
231509
231490
231474
231458
231443
231428
231518
231499
231482
231465
231449
231433
231528
231509
231491
231473
231457
231440
231539
231519
231501
231484
231466
231449
231550
231531
231513
231495
231478
231461
231561
231544
231527
231509
231493
231476
231574
231558
231542
231526
231510
231494
231586
231573
231559
231545
231531
231517
231599
231589
231577
231566
231555
231543
231613
231605
231597
231588
231581
231572
231627
231622
231617
231612
231608
231603
231642
231639
231636
231635
231634
231633
230647
230634
230623
230612
230602
230592
230651
230637
230626
230614
230603
230592
230655
230641
230628
230616
230604
230593
230659
230645
230631
230618
230606
230595
230665
230649
230635
230621
230609
230597
230670
230654
230640
230625
230612
230600
230676
230661
230645
230631
230617
230603
230683
230668
230652
230637
230623
230608
230690
230676
230661
230646
230631
230616
230698
230685
230671
230657
230643
230628
230707
230695
230683
230670
230657
230644
230716
230706
230696
230686
230675
230663
230726
230719
230711
230703
230695
230687
230737
230731
230726
230722
230717
230712