/*--------------------------------*- C++ -*----------------------------------*\
| =========                 |                                                 |
| \\      /  F ield         | OpenFOAM: The Open Source CFD Toolbox           |
|  \\    /   O peration     | Version:  v2106                                 |
|   \\  /    A nd           | Website:  www.openfoam.com                      |
|    \\/     M anipulation  |                                                 |
\*---------------------------------------------------------------------------*/
FoamFile
{
    version     2.0;
    format      ascii;
    arch        "LSB;label=32;scalar=64";
    class       volScalarField;
    location    "0.000201";
    object      rho;
}
// * * * * * * * * * * * * * * * * * * * * * * * * * * * * * * * * * * * * * //

dimensions      [1 -3 0 0 0 0 0];

internalField   nonuniform List<scalar> 
17920
(
2.68215
2.68185
2.68187
2.68159
2.68161
2.68133
2.68132
2.68104
2.68102
2.68074
2.68069
2.68042
2.68035
2.68008
2.67999
2.67973
2.67962
2.67937
2.67923
2.679
2.67884
2.67862
2.67844
2.67823
2.67802
2.67782
2.67763
2.67743
2.68041
2.68031
2.68019
2.68006
2.67993
2.67977
2.6796
2.67941
2.67922
2.67901
2.67879
2.67857
2.67836
2.67811
2.68003
2.67996
2.67985
2.67973
2.67959
2.67944
2.67927
2.67908
2.67888
2.67867
2.67846
2.67823
2.67802
2.67779
2.67968
2.67962
2.67949
2.67937
2.67924
2.67908
2.67892
2.67873
2.67854
2.67834
2.67813
2.67791
2.67771
2.67748
2.67931
2.67925
2.67912
2.679
2.67887
2.67872
2.67855
2.67837
2.67818
2.67798
2.67777
2.67756
2.67736
2.67714
2.67895
2.67888
2.67875
2.67863
2.67849
2.67834
2.67817
2.67799
2.6778
2.67761
2.67741
2.6772
2.67701
2.67679
2.67858
2.67849
2.67837
2.67824
2.6781
2.67794
2.67778
2.6776
2.67742
2.67723
2.67703
2.67683
2.67664
2.67643
2.67821
2.6781
2.67798
2.67784
2.6777
2.67754
2.67738
2.6772
2.67702
2.67683
2.67664
2.67645
2.67626
2.67606
2.67782
2.6777
2.67757
2.67743
2.67729
2.67713
2.67696
2.67679
2.67661
2.67643
2.67624
2.67605
2.67586
2.67567
2.67743
2.6773
2.67717
2.67702
2.67687
2.67671
2.67655
2.67637
2.6762
2.67602
2.67583
2.67565
2.67546
2.67529
2.67702
2.67688
2.67675
2.6766
2.67645
2.67629
2.67612
2.67595
2.67577
2.6756
2.67541
2.67523
2.67504
2.67489
2.67663
2.67646
2.67633
2.67618
2.67603
2.67586
2.6757
2.67552
2.67535
2.67517
2.67499
2.67481
2.67463
2.6745
2.6762
2.67603
2.6759
2.67575
2.67559
2.67543
2.67526
2.67509
2.67492
2.67474
2.67456
2.67439
2.67421
2.67409
2.67581
2.67563
2.67549
2.67533
2.67517
2.67501
2.67484
2.67466
2.67448
2.67431
2.67413
2.67396
2.67378
2.67369
2.67536
2.6752
2.67504
2.67489
2.67473
2.67457
2.6744
2.67423
2.67406
2.67389
2.67371
2.67355
2.67338
2.67327
2.67408
2.67407
2.67403
2.67398
2.67393
2.67386
2.67379
2.6737
2.67361
2.67351
2.67339
2.67328
2.67316
2.67303
2.67374
2.67375
2.67372
2.67367
2.67362
2.67355
2.67347
2.67339
2.67329
2.67319
2.67308
2.67296
2.67284
2.6727
2.67343
2.67344
2.6734
2.67335
2.67329
2.67322
2.67315
2.67306
2.67297
2.67287
2.67277
2.67265
2.67255
2.67241
2.6731
2.67311
2.67307
2.67302
2.67296
2.67289
2.67282
2.67273
2.67264
2.67254
2.67244
2.67233
2.67223
2.6721
2.67278
2.67277
2.67273
2.67268
2.67262
2.67255
2.67247
2.67239
2.67231
2.67221
2.67211
2.67201
2.67191
2.67179
2.67245
2.67243
2.67238
2.67233
2.67227
2.6722
2.67213
2.67205
2.67196
2.67187
2.67178
2.67168
2.67158
2.67147
2.67212
2.67208
2.67203
2.67198
2.67191
2.67185
2.67177
2.6717
2.67161
2.67153
2.67144
2.67134
2.67125
2.67115
2.67177
2.67173
2.67168
2.67162
2.67156
2.67149
2.67142
2.67134
2.67126
2.67118
2.67109
2.671
2.67091
2.67082
2.67143
2.67137
2.67132
2.67126
2.6712
2.67113
2.67106
2.67098
2.6709
2.67082
2.67074
2.67066
2.67057
2.6705
2.67108
2.67101
2.67095
2.6709
2.67083
2.67077
2.6707
2.67062
2.67055
2.67047
2.67038
2.67031
2.67022
2.67016
2.67073
2.67065
2.67059
2.67053
2.67047
2.6704
2.67034
2.67026
2.67019
2.67011
2.67003
2.66996
2.66988
2.66984
2.67038
2.67028
2.67023
2.67017
2.67011
2.67004
2.66997
2.6699
2.66983
2.66975
2.66967
2.6696
2.66952
2.66951
2.67004
2.66994
2.66988
2.66982
2.66975
2.66968
2.66962
2.66954
2.66947
2.6694
2.66932
2.66925
2.66918
2.66919
2.66966
2.66958
2.66951
2.66946
2.66939
2.66933
2.66926
2.66919
2.66912
2.66905
2.66897
2.6689
2.66884
2.66884
2.66658
2.66662
2.66665
2.66669
2.66672
2.66675
2.66678
2.66679
2.66681
2.66681
2.66681
2.6668
2.6668
2.66678
2.66637
2.66641
2.66644
2.66648
2.66652
2.66655
2.66657
2.66659
2.6666
2.66661
2.66661
2.6666
2.66658
2.66655
2.66617
2.66621
2.66624
2.66628
2.66631
2.66633
2.66636
2.66637
2.66638
2.66639
2.66639
2.66638
2.66638
2.66634
2.66596
2.66601
2.66603
2.66607
2.6661
2.66612
2.66614
2.66616
2.66617
2.66618
2.66618
2.66617
2.66616
2.66613
2.66575
2.66579
2.66582
2.66585
2.66588
2.6659
2.66592
2.66594
2.66595
2.66596
2.66596
2.66596
2.66595
2.66593
2.66553
2.66557
2.6656
2.66563
2.66566
2.66568
2.6657
2.66572
2.66573
2.66574
2.66574
2.66574
2.66574
2.66572
2.66531
2.66535
2.66538
2.6654
2.66543
2.66545
2.66547
2.66549
2.6655
2.66552
2.66552
2.66553
2.66553
2.66552
2.66508
2.66511
2.66515
2.66517
2.6652
2.66522
2.66524
2.66526
2.66528
2.66529
2.6653
2.66531
2.66531
2.66531
2.66485
2.66488
2.66491
2.66494
2.66497
2.66499
2.66502
2.66503
2.66505
2.66507
2.66508
2.66509
2.66509
2.6651
2.66463
2.66464
2.66468
2.66471
2.66474
2.66476
2.66479
2.66481
2.66482
2.66484
2.66485
2.66487
2.66487
2.66489
2.6644
2.66441
2.66444
2.66447
2.6645
2.66453
2.66455
2.66458
2.6646
2.66461
2.66463
2.66465
2.66465
2.66468
2.66418
2.66417
2.66421
2.66424
2.66427
2.6643
2.66432
2.66435
2.66437
2.66439
2.66441
2.66442
2.66443
2.66447
2.66396
2.66395
2.66398
2.66401
2.66404
2.66407
2.66409
2.66412
2.66414
2.66416
2.66418
2.6642
2.66422
2.66427
2.66373
2.66373
2.66376
2.66379
2.66382
2.66384
2.66386
2.66389
2.66391
2.66393
2.66396
2.66398
2.664
2.66404
2.65863
2.65872
2.65881
2.6589
2.65899
2.65908
2.65917
2.65926
2.65934
2.65942
2.6595
2.65957
2.65964
2.65971
2.65857
2.65866
2.65875
2.65884
2.65893
2.65902
2.65911
2.6592
2.65928
2.65936
2.65944
2.65951
2.65957
2.65963
2.65851
2.6586
2.65869
2.65877
2.65886
2.65895
2.65904
2.65913
2.65921
2.65929
2.65937
2.65944
2.6595
2.65955
2.65844
2.65853
2.65862
2.65871
2.6588
2.65889
2.65897
2.65906
2.65914
2.65922
2.65929
2.65936
2.65943
2.65948
2.65837
2.65846
2.65855
2.65864
2.65873
2.65881
2.6589
2.65899
2.65907
2.65915
2.65922
2.65929
2.65935
2.6594
2.6583
2.65839
2.65848
2.65856
2.65865
2.65874
2.65883
2.65891
2.65899
2.65907
2.65914
2.65921
2.65927
2.65933
2.65822
2.65831
2.6584
2.65849
2.65858
2.65867
2.65875
2.65884
2.65892
2.65899
2.65907
2.65914
2.6592
2.65926
2.65813
2.65823
2.65832
2.65841
2.6585
2.65859
2.65867
2.65876
2.65884
2.65892
2.65899
2.65906
2.65912
2.65918
2.65805
2.65814
2.65823
2.65832
2.65841
2.6585
2.65859
2.65868
2.65876
2.65884
2.65891
2.65898
2.65905
2.65911
2.65796
2.65805
2.65814
2.65824
2.65833
2.65842
2.65851
2.65859
2.65867
2.65875
2.65883
2.6589
2.65897
2.65904
2.65787
2.65796
2.65806
2.65815
2.65824
2.65833
2.65842
2.65851
2.65859
2.65867
2.65875
2.65882
2.65889
2.65897
2.65778
2.65787
2.65797
2.65806
2.65815
2.65824
2.65833
2.65842
2.6585
2.65858
2.65866
2.65874
2.65881
2.65889
2.65769
2.65778
2.65787
2.65797
2.65806
2.65815
2.65824
2.65833
2.65841
2.6585
2.65858
2.65866
2.65873
2.65882
2.65761
2.6577
2.65779
2.65789
2.65797
2.65806
2.65814
2.65823
2.65832
2.6584
2.65848
2.65857
2.65865
2.65874
2.65083
2.65093
2.65103
2.65113
2.65123
2.65134
2.65145
2.65156
2.65167
2.65178
2.65188
2.65199
2.65209
2.6522
2.65087
2.65096
2.65106
2.65117
2.65128
2.65139
2.6515
2.65161
2.65172
2.65183
2.65193
2.65204
2.65213
2.65223
2.65092
2.65101
2.65112
2.65122
2.65133
2.65144
2.65155
2.65166
2.65177
2.65187
2.65198
2.65208
2.65217
2.65227
2.65096
2.65106
2.65116
2.65127
2.65138
2.65149
2.6516
2.65171
2.65182
2.65192
2.65202
2.65212
2.65221
2.65231
2.651
2.6511
2.65121
2.65132
2.65143
2.65154
2.65165
2.65176
2.65186
2.65197
2.65207
2.65216
2.65225
2.65235
2.65103
2.65114
2.65125
2.65136
2.65147
2.65158
2.65169
2.6518
2.65191
2.65201
2.65211
2.65221
2.6523
2.65238
2.65107
2.65118
2.65129
2.6514
2.65151
2.65163
2.65174
2.65184
2.65195
2.65205
2.65215
2.65224
2.65234
2.65242
2.6511
2.65122
2.65133
2.65144
2.65155
2.65166
2.65178
2.65188
2.65199
2.65209
2.65219
2.65228
2.65238
2.65246
2.65113
2.65125
2.65136
2.65147
2.65159
2.6517
2.65181
2.65192
2.65203
2.65213
2.65223
2.65232
2.65241
2.65249
2.65116
2.65128
2.65139
2.65151
2.65162
2.65173
2.65184
2.65195
2.65206
2.65216
2.65226
2.65235
2.65245
2.65253
2.65119
2.6513
2.65142
2.65153
2.65165
2.65176
2.65187
2.65198
2.65209
2.65219
2.65229
2.65238
2.65248
2.65256
2.65122
2.65133
2.65144
2.65156
2.65167
2.65179
2.6519
2.65201
2.65211
2.65222
2.65232
2.65241
2.65251
2.6526
2.65124
2.65135
2.65146
2.65158
2.65169
2.65181
2.65192
2.65203
2.65214
2.65225
2.65235
2.65245
2.65254
2.65264
2.65126
2.65138
2.65149
2.65161
2.65172
2.65183
2.65194
2.65205
2.65215
2.65226
2.65236
2.65247
2.65257
2.65267
2.64342
2.64348
2.64357
2.64365
2.64373
2.64382
2.64391
2.644
2.64409
2.64419
2.64428
2.64438
2.64448
2.64458
2.6435
2.64357
2.64365
2.64374
2.64383
2.64392
2.64401
2.64411
2.6442
2.6443
2.64439
2.64449
2.64458
2.64469
2.6436
2.64367
2.64376
2.64384
2.64393
2.64402
2.64412
2.64421
2.6443
2.6444
2.64449
2.64458
2.64468
2.64478
2.64369
2.64377
2.64385
2.64394
2.64404
2.64413
2.64422
2.64432
2.64441
2.6445
2.6446
2.64469
2.64478
2.64488
2.64378
2.64386
2.64396
2.64405
2.64414
2.64423
2.64433
2.64442
2.64451
2.64461
2.6447
2.64479
2.64488
2.64497
2.64388
2.64396
2.64406
2.64415
2.64424
2.64434
2.64443
2.64453
2.64462
2.64471
2.6448
2.64489
2.64498
2.64507
2.64397
2.64406
2.64415
2.64425
2.64434
2.64444
2.64453
2.64463
2.64472
2.64481
2.6449
2.64499
2.64508
2.64517
2.64407
2.64416
2.64425
2.64435
2.64444
2.64454
2.64464
2.64473
2.64482
2.64492
2.64501
2.64509
2.64518
2.64526
2.64416
2.64426
2.64435
2.64445
2.64454
2.64464
2.64474
2.64483
2.64492
2.64502
2.64511
2.64519
2.64528
2.64535
2.64426
2.64436
2.64445
2.64455
2.64464
2.64474
2.64483
2.64493
2.64502
2.64511
2.6452
2.64529
2.64538
2.64545
2.64435
2.64445
2.64454
2.64464
2.64474
2.64483
2.64493
2.64502
2.64512
2.64521
2.6453
2.64538
2.64547
2.64554
2.64445
2.64455
2.64464
2.64473
2.64483
2.64493
2.64502
2.64512
2.64521
2.6453
2.64539
2.64548
2.64557
2.64564
2.64453
2.64463
2.64472
2.64482
2.64492
2.64502
2.64511
2.64521
2.64531
2.6454
2.64549
2.64557
2.64566
2.64574
2.64463
2.64473
2.64482
2.64492
2.64501
2.64511
2.6452
2.6453
2.64539
2.64548
2.64557
2.64566
2.64575
2.64585
2.6365
2.63653
2.63658
2.63662
2.63667
2.63672
2.63677
2.63683
2.63688
2.63694
2.637
2.63707
2.63714
2.63722
2.63659
2.63662
2.63667
2.63671
2.63676
2.63681
2.63687
2.63692
2.63698
2.63705
2.63711
2.63718
2.63725
2.63733
2.63667
2.63671
2.63676
2.63681
2.63686
2.63691
2.63696
2.63702
2.63708
2.63714
2.63721
2.63727
2.63734
2.63742
2.63677
2.6368
2.63685
2.6369
2.63696
2.63701
2.63706
2.63712
2.63718
2.63725
2.63731
2.63738
2.63745
2.63753
2.63686
2.6369
2.63695
2.637
2.63706
2.63711
2.63717
2.63722
2.63729
2.63735
2.63741
2.63748
2.63755
2.63762
2.63696
2.637
2.63705
2.63711
2.63716
2.63721
2.63727
2.63733
2.63739
2.63745
2.63752
2.63758
2.63765
2.63772
2.63706
2.63711
2.63716
2.63721
2.63726
2.63732
2.63738
2.63744
2.6375
2.63756
2.63762
2.63769
2.63776
2.63782
2.63717
2.63722
2.63726
2.63732
2.63737
2.63743
2.63748
2.63754
2.6376
2.63767
2.63773
2.63779
2.63786
2.63792
2.63727
2.63732
2.63737
2.63743
2.63748
2.63754
2.63759
2.63765
2.63771
2.63778
2.63784
2.6379
2.63797
2.63802
2.63738
2.63744
2.63748
2.63754
2.63759
2.63765
2.63771
2.63776
2.63782
2.63789
2.63795
2.63801
2.63807
2.63812
2.63749
2.63755
2.63759
2.63765
2.6377
2.63776
2.63782
2.63788
2.63794
2.638
2.63806
2.63812
2.63818
2.63823
2.6376
2.63766
2.6377
2.63776
2.63782
2.63787
2.63793
2.63799
2.63805
2.63811
2.63817
2.63823
2.63829
2.63833
2.63771
2.63776
2.63781
2.63787
2.63793
2.63799
2.63805
2.63811
2.63817
2.63822
2.63828
2.63834
2.63839
2.63844
2.63783
2.63788
2.63793
2.63799
2.63804
2.6381
2.63816
2.63822
2.63828
2.63833
2.63839
2.63845
2.63851
2.63857
2.63013
2.63014
2.63015
2.63016
2.63017
2.63018
2.6302
2.63022
2.63024
2.63026
2.63029
2.63032
2.63035
2.63039
2.63019
2.63019
2.6302
2.63021
2.63022
2.63024
2.63025
2.63027
2.6303
2.63032
2.63035
2.63039
2.63042
2.63047
2.63025
2.63024
2.63025
2.63027
2.63028
2.63029
2.63031
2.63033
2.63036
2.63038
2.63041
2.63045
2.63049
2.63053
2.63031
2.63031
2.63032
2.63033
2.63034
2.63036
2.63037
2.63039
2.63042
2.63045
2.63048
2.63052
2.63056
2.6306
2.63037
2.63037
2.63038
2.63039
2.63041
2.63042
2.63044
2.63046
2.63049
2.63052
2.63055
2.63058
2.63062
2.63067
2.63044
2.63044
2.63045
2.63046
2.63047
2.63049
2.63051
2.63053
2.63056
2.63059
2.63062
2.63066
2.6307
2.63074
2.63051
2.63052
2.63053
2.63054
2.63055
2.63056
2.63058
2.6306
2.63063
2.63066
2.63069
2.63073
2.63077
2.63081
2.63059
2.6306
2.63061
2.63062
2.63063
2.63064
2.63066
2.63068
2.63071
2.63074
2.63077
2.6308
2.63084
2.63088
2.63067
2.63068
2.63069
2.6307
2.63071
2.63073
2.63074
2.63077
2.63079
2.63082
2.63085
2.63088
2.63092
2.63096
2.63076
2.63077
2.63077
2.63078
2.6308
2.63081
2.63083
2.63085
2.63088
2.6309
2.63093
2.63096
2.631
2.63103
2.63084
2.63086
2.63086
2.63087
2.63089
2.6309
2.63092
2.63094
2.63097
2.63099
2.63102
2.63105
2.63108
2.63111
2.63093
2.63095
2.63095
2.63097
2.63098
2.631
2.63101
2.63103
2.63106
2.63108
2.63111
2.63114
2.63117
2.63119
2.63102
2.63104
2.63105
2.63106
2.63107
2.63109
2.63111
2.63113
2.63115
2.63118
2.6312
2.63123
2.63125
2.63127
2.63112
2.63113
2.63114
2.63115
2.63117
2.63119
2.63121
2.63123
2.63125
2.63127
2.63129
2.63132
2.63134
2.63137
2.62431
2.6243
2.62429
2.62428
2.62427
2.62427
2.62426
2.62426
2.62425
2.62425
2.62425
2.62425
2.62426
2.62426
2.62434
2.62432
2.62431
2.6243
2.62429
2.62429
2.62428
2.62427
2.62427
2.62427
2.62427
2.62428
2.62429
2.6243
2.62436
2.62434
2.62433
2.62432
2.62431
2.6243
2.6243
2.62429
2.62429
2.62429
2.6243
2.6243
2.62431
2.62432
2.62439
2.62437
2.62436
2.62435
2.62434
2.62433
2.62432
2.62432
2.62432
2.62432
2.62432
2.62433
2.62434
2.62435
2.62442
2.6244
2.62439
2.62437
2.62436
2.62436
2.62435
2.62435
2.62435
2.62435
2.62435
2.62436
2.62437
2.62439
2.62445
2.62444
2.62442
2.62441
2.6244
2.62439
2.62438
2.62438
2.62438
2.62438
2.62439
2.62439
2.62441
2.62442
2.62449
2.62447
2.62446
2.62444
2.62443
2.62442
2.62441
2.62441
2.62441
2.62441
2.62442
2.62443
2.62444
2.62446
2.62453
2.62451
2.6245
2.62448
2.62447
2.62446
2.62445
2.62445
2.62445
2.62445
2.62446
2.62447
2.62448
2.62449
2.62457
2.62456
2.62454
2.62452
2.62451
2.6245
2.6245
2.62449
2.62449
2.62449
2.6245
2.62451
2.62452
2.62453
2.62462
2.6246
2.62458
2.62457
2.62456
2.62455
2.62454
2.62454
2.62454
2.62454
2.62454
2.62455
2.62456
2.62457
2.62466
2.62465
2.62463
2.62462
2.62461
2.6246
2.62459
2.62459
2.62458
2.62458
2.62459
2.62459
2.6246
2.62461
2.62471
2.6247
2.62468
2.62467
2.62466
2.62465
2.62464
2.62464
2.62463
2.62463
2.62464
2.62464
2.62465
2.62465
2.62477
2.62475
2.62474
2.62473
2.62472
2.62471
2.6247
2.62469
2.62469
2.62469
2.62469
2.62469
2.6247
2.62469
2.62482
2.62481
2.62479
2.62478
2.62477
2.62476
2.62475
2.62475
2.62474
2.62474
2.62474
2.62474
2.62474
2.62474
2.61901
2.619
2.61898
2.61897
2.61896
2.61895
2.61893
2.61892
2.61891
2.61889
2.61888
2.61887
2.61885
2.61884
2.61902
2.61901
2.61899
2.61898
2.61896
2.61895
2.61894
2.61892
2.61891
2.61889
2.61888
2.61887
2.61886
2.61884
2.61902
2.61901
2.61899
2.61898
2.61896
2.61895
2.61894
2.61892
2.61891
2.6189
2.61888
2.61887
2.61886
2.61884
2.61903
2.61902
2.619
2.61898
2.61897
2.61895
2.61894
2.61893
2.61891
2.6189
2.61889
2.61887
2.61886
2.61885
2.61904
2.61902
2.619
2.61899
2.61897
2.61896
2.61894
2.61893
2.61892
2.6189
2.61889
2.61888
2.61887
2.61886
2.61905
2.61903
2.61901
2.619
2.61898
2.61896
2.61895
2.61894
2.61892
2.61891
2.6189
2.61889
2.61887
2.61886
2.61905
2.61904
2.61902
2.619
2.61899
2.61897
2.61896
2.61894
2.61893
2.61892
2.6189
2.61889
2.61888
2.61887
2.61906
2.61904
2.61903
2.61901
2.61899
2.61898
2.61896
2.61895
2.61894
2.61892
2.61891
2.6189
2.61889
2.61888
2.61907
2.61905
2.61904
2.61902
2.619
2.61899
2.61897
2.61896
2.61894
2.61893
2.61892
2.61891
2.6189
2.61889
2.61908
2.61906
2.61905
2.61903
2.61901
2.619
2.61898
2.61897
2.61895
2.61894
2.61893
2.61892
2.61891
2.6189
2.61909
2.61908
2.61906
2.61904
2.61902
2.61901
2.61899
2.61898
2.61896
2.61895
2.61894
2.61893
2.61892
2.61891
2.61911
2.61909
2.61907
2.61905
2.61904
2.61902
2.619
2.61899
2.61897
2.61896
2.61895
2.61894
2.61893
2.61892
2.61912
2.6191
2.61909
2.61907
2.61905
2.61903
2.61902
2.619
2.61899
2.61897
2.61896
2.61895
2.61894
2.61892
2.61913
2.61911
2.6191
2.61908
2.61906
2.61904
2.61903
2.61901
2.619
2.61898
2.61897
2.61896
2.61895
2.61893
2.61417
2.61417
2.61417
2.61416
2.61415
2.61414
2.61413
2.61412
2.61411
2.61409
2.61408
2.61406
2.61403
2.61401
2.61418
2.61418
2.61417
2.61417
2.61416
2.61415
2.61414
2.61412
2.61411
2.61409
2.61407
2.61405
2.61403
2.614
2.61418
2.61418
2.61417
2.61417
2.61416
2.61415
2.61414
2.61413
2.61411
2.61409
2.61407
2.61405
2.61403
2.614
2.61418
2.61418
2.61418
2.61417
2.61416
2.61415
2.61414
2.61413
2.61411
2.61409
2.61407
2.61405
2.61403
2.614
2.61418
2.61418
2.61417
2.61417
2.61416
2.61415
2.61414
2.61412
2.61411
2.61409
2.61407
2.61405
2.61402
2.614
2.61418
2.61417
2.61417
2.61416
2.61416
2.61415
2.61413
2.61412
2.6141
2.61409
2.61407
2.61404
2.61402
2.61399
2.61417
2.61417
2.61417
2.61416
2.61415
2.61414
2.61413
2.61411
2.6141
2.61408
2.61406
2.61404
2.61401
2.61399
2.61416
2.61416
2.61416
2.61415
2.61414
2.61413
2.61412
2.61411
2.61409
2.61407
2.61405
2.61403
2.61401
2.61398
2.61416
2.61415
2.61415
2.61414
2.61413
2.61412
2.61411
2.6141
2.61408
2.61406
2.61404
2.61402
2.614
2.61398
2.61414
2.61414
2.61414
2.61413
2.61412
2.61411
2.6141
2.61409
2.61407
2.61405
2.61403
2.61401
2.61399
2.61397
2.61413
2.61413
2.61412
2.61412
2.61411
2.6141
2.61409
2.61407
2.61406
2.61404
2.61402
2.614
2.61398
2.61396
2.61412
2.61412
2.61411
2.6141
2.61409
2.61408
2.61407
2.61406
2.61404
2.61402
2.614
2.61398
2.61396
2.61394
2.61411
2.6141
2.6141
2.61409
2.61408
2.61407
2.61405
2.61404
2.61402
2.61401
2.61399
2.61397
2.61395
2.61393
2.61409
2.61408
2.61408
2.61407
2.61406
2.61405
2.61403
2.61402
2.614
2.61399
2.61397
2.61395
2.61393
2.61391
2.60974
2.60975
2.60976
2.60976
2.60977
2.60977
2.60976
2.60976
2.60975
2.60973
2.60972
2.6097
2.60967
2.60964
2.60976
2.60977
2.60977
2.60978
2.60978
2.60978
2.60978
2.60977
2.60976
2.60974
2.60972
2.6097
2.60968
2.60965
2.60977
2.60978
2.60978
2.60979
2.60979
2.60979
2.60979
2.60978
2.60977
2.60975
2.60973
2.60971
2.60968
2.60965
2.60977
2.60978
2.60979
2.6098
2.6098
2.6098
2.60979
2.60978
2.60977
2.60976
2.60974
2.60971
2.60968
2.60965
2.60977
2.60978
2.60979
2.6098
2.6098
2.6098
2.6098
2.60979
2.60978
2.60976
2.60974
2.60971
2.60969
2.60965
2.60977
2.60978
2.60979
2.6098
2.6098
2.6098
2.6098
2.60979
2.60977
2.60976
2.60974
2.60971
2.60968
2.60965
2.60976
2.60977
2.60979
2.60979
2.6098
2.6098
2.60979
2.60978
2.60977
2.60975
2.60973
2.60971
2.60968
2.60965
2.60975
2.60976
2.60978
2.60978
2.60979
2.60979
2.60978
2.60977
2.60976
2.60974
2.60972
2.6097
2.60967
2.60964
2.60974
2.60975
2.60976
2.60977
2.60977
2.60977
2.60977
2.60976
2.60974
2.60973
2.60971
2.60968
2.60966
2.60963
2.60972
2.60973
2.60974
2.60975
2.60975
2.60975
2.60975
2.60974
2.60973
2.60971
2.60969
2.60967
2.60964
2.60961
2.6097
2.60971
2.60972
2.60973
2.60973
2.60973
2.60973
2.60972
2.6097
2.60969
2.60967
2.60965
2.60962
2.60959
2.60968
2.60969
2.6097
2.6097
2.6097
2.6097
2.6097
2.60969
2.60968
2.60966
2.60964
2.60962
2.6096
2.60957
2.60965
2.60966
2.60967
2.60967
2.60968
2.60967
2.60967
2.60966
2.60965
2.60963
2.60961
2.60959
2.60957
2.60955
2.60962
2.60963
2.60964
2.60964
2.60964
2.60964
2.60964
2.60963
2.60962
2.6096
2.60958
2.60956
2.60954
2.60952
2.60566
2.60568
2.6057
2.60571
2.60572
2.60573
2.60573
2.60573
2.60573
2.60572
2.6057
2.60568
2.60566
2.60563
2.60569
2.60571
2.60572
2.60574
2.60575
2.60575
2.60576
2.60576
2.60575
2.60574
2.60572
2.6057
2.60568
2.60565
2.6057
2.60572
2.60574
2.60576
2.60577
2.60577
2.60578
2.60577
2.60577
2.60576
2.60574
2.60572
2.60569
2.60566
2.60571
2.60574
2.60576
2.60577
2.60578
2.60579
2.60579
2.60579
2.60578
2.60577
2.60575
2.60573
2.6057
2.60567
2.60572
2.60575
2.60577
2.60578
2.60579
2.6058
2.6058
2.6058
2.60579
2.60578
2.60576
2.60574
2.60571
2.60568
2.60573
2.60575
2.60577
2.60579
2.6058
2.6058
2.60581
2.6058
2.6058
2.60578
2.60576
2.60574
2.60572
2.60568
2.60572
2.60575
2.60577
2.60579
2.6058
2.6058
2.60581
2.6058
2.60579
2.60578
2.60576
2.60574
2.60572
2.60568
2.60572
2.60574
2.60576
2.60578
2.60579
2.6058
2.6058
2.6058
2.60579
2.60578
2.60576
2.60574
2.60571
2.60568
2.60571
2.60573
2.60575
2.60577
2.60578
2.60579
2.60579
2.60579
2.60578
2.60577
2.60575
2.60573
2.6057
2.60567
2.60569
2.60572
2.60574
2.60575
2.60577
2.60577
2.60577
2.60577
2.60576
2.60575
2.60573
2.60571
2.60569
2.60566
2.60567
2.6057
2.60572
2.60573
2.60574
2.60575
2.60575
2.60575
2.60574
2.60573
2.60571
2.60569
2.60567
2.60564
2.60565
2.60567
2.60569
2.60571
2.60572
2.60573
2.60573
2.60573
2.60572
2.6057
2.60569
2.60567
2.60564
2.60562
2.60562
2.60564
2.60566
2.60568
2.60569
2.6057
2.6057
2.60569
2.60569
2.60567
2.60566
2.60564
2.60562
2.60559
2.60559
2.60561
2.60563
2.60565
2.60566
2.60566
2.60566
2.60566
2.60565
2.60564
2.60563
2.60561
2.60559
2.60556
2.60189
2.60191
2.60193
2.60195
2.60196
2.60197
2.60198
2.60198
2.60198
2.60197
2.60196
2.60194
2.60192
2.6019
2.60191
2.60194
2.60196
2.60198
2.60199
2.602
2.60201
2.60201
2.60201
2.602
2.60198
2.60197
2.60195
2.60192
2.60193
2.60196
2.60198
2.602
2.60202
2.60203
2.60203
2.60203
2.60203
2.60202
2.60201
2.60199
2.60197
2.60194
2.60195
2.60198
2.602
2.60202
2.60203
2.60204
2.60205
2.60205
2.60205
2.60204
2.60203
2.60201
2.60199
2.60196
2.60196
2.60199
2.60201
2.60203
2.60205
2.60206
2.60206
2.60207
2.60206
2.60205
2.60204
2.60202
2.602
2.60197
2.60197
2.602
2.60202
2.60204
2.60206
2.60207
2.60207
2.60208
2.60207
2.60206
2.60205
2.60203
2.60201
2.60198
2.60197
2.602
2.60203
2.60205
2.60206
2.60207
2.60208
2.60208
2.60208
2.60207
2.60205
2.60204
2.60201
2.60199
2.60197
2.602
2.60203
2.60205
2.60206
2.60207
2.60208
2.60208
2.60208
2.60207
2.60205
2.60204
2.60201
2.60199
2.60197
2.602
2.60202
2.60204
2.60206
2.60207
2.60207
2.60207
2.60207
2.60206
2.60205
2.60203
2.60201
2.60198
2.60196
2.60199
2.60201
2.60203
2.60205
2.60206
2.60206
2.60206
2.60206
2.60205
2.60204
2.60202
2.602
2.60197
2.60195
2.60197
2.602
2.60202
2.60203
2.60204
2.60205
2.60205
2.60205
2.60204
2.60202
2.60201
2.60198
2.60196
2.60193
2.60195
2.60198
2.602
2.60201
2.60202
2.60203
2.60203
2.60203
2.60202
2.602
2.60199
2.60197
2.60194
2.6019
2.60193
2.60195
2.60197
2.60199
2.602
2.602
2.602
2.602
2.60199
2.60198
2.60196
2.60194
2.60192
2.60188
2.6019
2.60193
2.60194
2.60196
2.60197
2.60197
2.60197
2.60197
2.60196
2.60195
2.60194
2.60192
2.6019
2.59836
2.59839
2.59841
2.59842
2.59844
2.59844
2.59845
2.59845
2.59845
2.59844
2.59843
2.59842
2.59841
2.59839
2.59839
2.59841
2.59843
2.59845
2.59846
2.59847
2.59847
2.59848
2.59847
2.59847
2.59846
2.59845
2.59843
2.59841
2.59841
2.59843
2.59845
2.59847
2.59848
2.59849
2.5985
2.5985
2.5985
2.59849
2.59848
2.59847
2.59845
2.59843
2.59842
2.59845
2.59847
2.59848
2.5985
2.59851
2.59851
2.59852
2.59851
2.59851
2.5985
2.59849
2.59847
2.59845
2.59843
2.59846
2.59848
2.5985
2.59851
2.59852
2.59853
2.59853
2.59853
2.59852
2.59851
2.5985
2.59848
2.59846
2.59844
2.59847
2.59849
2.59851
2.59852
2.59853
2.59854
2.59854
2.59854
2.59853
2.59852
2.59851
2.59849
2.59847
2.59845
2.59847
2.5985
2.59851
2.59853
2.59854
2.59855
2.59855
2.59855
2.59854
2.59853
2.59852
2.5985
2.59848
2.59845
2.59848
2.5985
2.59852
2.59853
2.59854
2.59855
2.59855
2.59855
2.59854
2.59853
2.59852
2.5985
2.59848
2.59845
2.59848
2.5985
2.59852
2.59853
2.59854
2.59855
2.59855
2.59855
2.59854
2.59853
2.59852
2.5985
2.59848
2.59845
2.59847
2.59849
2.59851
2.59852
2.59853
2.59854
2.59854
2.59854
2.59854
2.59853
2.59851
2.59849
2.59847
2.59844
2.59846
2.59848
2.5985
2.59851
2.59852
2.59853
2.59853
2.59853
2.59853
2.59852
2.5985
2.59849
2.59846
2.59842
2.59845
2.59847
2.59849
2.5985
2.59851
2.59852
2.59852
2.59852
2.59851
2.5985
2.59849
2.59847
2.59845
2.59841
2.59843
2.59845
2.59847
2.59848
2.59849
2.5985
2.5985
2.5985
2.5985
2.59849
2.59847
2.59846
2.59844
2.59839
2.59841
2.59843
2.59845
2.59846
2.59847
2.59848
2.59848
2.59848
2.59848
2.59847
2.59846
2.59844
2.59842
2.59505
2.59507
2.59508
2.59509
2.5951
2.59511
2.59511
2.59511
2.59511
2.59511
2.5951
2.59509
2.59508
2.59507
2.59507
2.59508
2.5951
2.59511
2.59512
2.59512
2.59513
2.59513
2.59513
2.59512
2.59512
2.59511
2.5951
2.59509
2.59508
2.5951
2.59511
2.59512
2.59513
2.59514
2.59514
2.59514
2.59514
2.59514
2.59513
2.59513
2.59511
2.5951
2.59509
2.59511
2.59512
2.59513
2.59514
2.59515
2.59515
2.59515
2.59515
2.59515
2.59514
2.59514
2.59513
2.59512
2.5951
2.59512
2.59513
2.59514
2.59515
2.59516
2.59516
2.59516
2.59516
2.59516
2.59515
2.59515
2.59514
2.59513
2.59511
2.59512
2.59514
2.59515
2.59516
2.59517
2.59517
2.59517
2.59517
2.59517
2.59516
2.59515
2.59514
2.59513
2.59511
2.59513
2.59514
2.59515
2.59516
2.59517
2.59517
2.59518
2.59518
2.59517
2.59517
2.59516
2.59515
2.59513
2.59512
2.59513
2.59514
2.59516
2.59517
2.59517
2.59518
2.59518
2.59518
2.59517
2.59517
2.59516
2.59515
2.59513
2.59512
2.59513
2.59514
2.59516
2.59517
2.59517
2.59518
2.59518
2.59518
2.59517
2.59517
2.59516
2.59515
2.59513
2.59511
2.59513
2.59514
2.59515
2.59516
2.59517
2.59517
2.59518
2.59518
2.59517
2.59517
2.59516
2.59514
2.59513
2.59511
2.59512
2.59514
2.59515
2.59516
2.59516
2.59517
2.59517
2.59517
2.59517
2.59516
2.59515
2.59514
2.59513
2.5951
2.59511
2.59513
2.59514
2.59515
2.59516
2.59516
2.59516
2.59516
2.59516
2.59515
2.59515
2.59513
2.59512
2.59509
2.5951
2.59512
2.59513
2.59514
2.59515
2.59515
2.59515
2.59515
2.59515
2.59515
2.59514
2.59512
2.59511
2.59507
2.59509
2.5951
2.59512
2.59512
2.59513
2.59514
2.59514
2.59514
2.59514
2.59514
2.59513
2.59512
2.5951
2.59193
2.59194
2.59195
2.59195
2.59195
2.59195
2.59196
2.59195
2.59195
2.59195
2.59195
2.59194
2.59194
2.59194
2.59194
2.59194
2.59195
2.59195
2.59196
2.59196
2.59196
2.59196
2.59196
2.59196
2.59195
2.59195
2.59195
2.59195
2.59194
2.59195
2.59195
2.59196
2.59196
2.59196
2.59196
2.59196
2.59196
2.59196
2.59196
2.59196
2.59195
2.59195
2.59195
2.59195
2.59196
2.59196
2.59196
2.59197
2.59197
2.59197
2.59197
2.59196
2.59196
2.59196
2.59196
2.59196
2.59195
2.59195
2.59196
2.59196
2.59197
2.59197
2.59197
2.59197
2.59197
2.59197
2.59197
2.59196
2.59196
2.59196
2.59195
2.59196
2.59196
2.59196
2.59197
2.59197
2.59197
2.59197
2.59197
2.59197
2.59197
2.59197
2.59196
2.59196
2.59195
2.59196
2.59196
2.59197
2.59197
2.59197
2.59197
2.59197
2.59197
2.59197
2.59197
2.59197
2.59196
2.59196
2.59196
2.59196
2.59196
2.59197
2.59197
2.59197
2.59197
2.59197
2.59197
2.59197
2.59197
2.59197
2.59196
2.59196
2.59196
2.59196
2.59196
2.59197
2.59197
2.59197
2.59197
2.59197
2.59197
2.59197
2.59197
2.59197
2.59196
2.59196
2.59195
2.59196
2.59196
2.59196
2.59197
2.59197
2.59197
2.59197
2.59197
2.59197
2.59197
2.59196
2.59196
2.59196
2.59195
2.59195
2.59196
2.59196
2.59196
2.59197
2.59197
2.59197
2.59197
2.59197
2.59197
2.59196
2.59196
2.59195
2.59195
2.59195
2.59196
2.59196
2.59196
2.59196
2.59197
2.59197
2.59197
2.59197
2.59196
2.59196
2.59196
2.59195
2.59194
2.59195
2.59195
2.59195
2.59196
2.59196
2.59196
2.59197
2.59197
2.59196
2.59196
2.59196
2.59195
2.59195
2.59194
2.59194
2.59195
2.59195
2.59195
2.59196
2.59196
2.59196
2.59196
2.59196
2.59196
2.59196
2.59195
2.59194
2.58901
2.58901
2.589
2.589
2.589
2.589
2.58899
2.58899
2.58899
2.58899
2.58899
2.58899
2.589
2.589
2.589
2.589
2.589
2.58899
2.58899
2.58899
2.58899
2.58899
2.58899
2.58899
2.58899
2.58899
2.58899
2.589
2.589
2.58899
2.58899
2.58899
2.58899
2.58898
2.58898
2.58898
2.58898
2.58898
2.58898
2.58899
2.58899
2.58899
2.589
2.58899
2.58899
2.58898
2.58898
2.58898
2.58898
2.58898
2.58898
2.58898
2.58898
2.58898
2.58899
2.58899
2.58899
2.58899
2.58898
2.58898
2.58898
2.58897
2.58897
2.58897
2.58897
2.58897
2.58898
2.58898
2.58898
2.58899
2.58899
2.58899
2.58898
2.58898
2.58897
2.58897
2.58897
2.58897
2.58897
2.58897
2.58897
2.58898
2.58898
2.58898
2.58899
2.58898
2.58898
2.58897
2.58897
2.58897
2.58897
2.58897
2.58897
2.58897
2.58897
2.58897
2.58898
2.58898
2.58899
2.58898
2.58898
2.58897
2.58897
2.58897
2.58896
2.58896
2.58896
2.58897
2.58897
2.58897
2.58898
2.58898
2.58899
2.58898
2.58898
2.58897
2.58897
2.58897
2.58896
2.58896
2.58896
2.58896
2.58897
2.58897
2.58897
2.58898
2.58899
2.58898
2.58898
2.58897
2.58897
2.58897
2.58896
2.58896
2.58896
2.58896
2.58897
2.58897
2.58897
2.58898
2.58899
2.58898
2.58898
2.58897
2.58897
2.58897
2.58897
2.58896
2.58897
2.58897
2.58897
2.58897
2.58897
2.58898
2.58899
2.58898
2.58898
2.58897
2.58897
2.58897
2.58897
2.58897
2.58897
2.58897
2.58897
2.58897
2.58898
2.58898
2.58899
2.58898
2.58898
2.58898
2.58897
2.58897
2.58897
2.58897
2.58897
2.58897
2.58897
2.58897
2.58898
2.58898
2.58899
2.58898
2.58898
2.58898
2.58898
2.58898
2.58898
2.58898
2.58898
2.58898
2.58898
2.58898
2.58898
2.58898
2.68232
2.68229
2.6823
2.68228
2.68225
2.68221
2.68199
2.68191
2.68187
2.68182
2.68177
2.6817
2.68072
2.68098
2.6812
2.68141
2.68159
2.68178
2.68061
2.68094
2.68123
2.68151
2.68177
2.68201
2.68054
2.68093
2.68126
2.68159
2.68189
2.68217
2.68044
2.68086
2.68123
2.68158
2.6819
2.6822
2.68031
2.68075
2.68114
2.68151
2.68185
2.68216
2.68016
2.68059
2.68099
2.68136
2.68169
2.682
2.67998
2.6804
2.68078
2.68114
2.68146
2.68174
2.67978
2.68017
2.68053
2.68086
2.68115
2.6814
2.67957
2.67991
2.68023
2.68052
2.68077
2.68099
2.67934
2.67962
2.6799
2.68013
2.68033
2.68051
2.67909
2.67931
2.67953
2.67971
2.67986
2.67998
2.67884
2.67898
2.67915
2.67926
2.67936
2.67944
2.67858
2.67865
2.67875
2.67881
2.67885
2.67888
2.67832
2.67831
2.67834
2.67834
2.67834
2.67833
2.67437
2.67456
2.67473
2.67489
2.67504
2.67518
2.67433
2.67459
2.67483
2.67506
2.67527
2.67546
2.67434
2.67465
2.67494
2.67521
2.67546
2.67568
2.67432
2.67467
2.675
2.67531
2.67559
2.67584
2.67428
2.67467
2.67502
2.67536
2.67566
2.67594
2.67423