/*--------------------------------*- C++ -*----------------------------------*\
| =========                 |                                                 |
| \\      /  F ield         | OpenFOAM: The Open Source CFD Toolbox           |
|  \\    /   O peration     | Version:  v2106                                 |
|   \\  /    A nd           | Website:  www.openfoam.com                      |
|    \\/     M anipulation  |                                                 |
\*---------------------------------------------------------------------------*/
FoamFile
{
    version     2.0;
    format      ascii;
    arch        "LSB;label=32;scalar=64";
    class       volScalarField;
    location    "0.000201";
    object      Ttot;
}
// * * * * * * * * * * * * * * * * * * * * * * * * * * * * * * * * * * * * * //

dimensions      [0 0 0 1 0 0 0];

internalField   nonuniform List<scalar> 
17920
(
306.372
306.358
306.359
306.345
306.346
306.332
306.332
306.319
306.317
306.304
306.302
306.289
306.286
306.273
306.268
306.256
306.25
306.239
306.232
306.22
306.212
306.202
306.193
306.183
306.173
306.163
306.154
306.145
306.285
306.28
306.274
306.269
306.262
306.255
306.246
306.237
306.228
306.218
306.208
306.197
306.187
306.175
306.267
306.264
306.258
306.252
306.246
306.239
306.23
306.221
306.212
306.202
306.192
306.181
306.171
306.16
306.25
306.247
306.241
306.235
306.229
306.222
306.213
306.205
306.195
306.186
306.176
306.166
306.156
306.145
306.232
306.229
306.223
306.218
306.211
306.204
306.196
306.187
306.178
306.168
306.159
306.149
306.139
306.128
306.215
306.211
306.205
306.2
306.193
306.186
306.178
306.169
306.16
306.151
306.141
306.131
306.122
306.112
306.197
306.193
306.187
306.181
306.174
306.167
306.159
306.15
306.142
306.132
306.123
306.114
306.104
306.094
306.179
306.174
306.168
306.162
306.155
306.147
306.139
306.131
306.122
306.114
306.104
306.095
306.086
306.077
306.16
306.155
306.149
306.142
306.135
306.128
306.12
306.111
306.103
306.094
306.085
306.076
306.067
306.058
306.142
306.136
306.129
306.122
306.115
306.108
306.1
306.091
306.083
306.074
306.065
306.057
306.048
306.04
306.122
306.115
306.109
306.102
306.095
306.087
306.079
306.071
306.063
306.054
306.045
306.037
306.028
306.021
306.103
306.096
306.089
306.082
306.075
306.067
306.059
306.051
306.042
306.034
306.025
306.017
306.008
306.002
306.083
306.075
306.068
306.061
306.054
306.046
306.038
306.03
306.022
306.013
306.005
305.997
305.988
305.982
306.064
306.055
306.049
306.041
306.034
306.026
306.017
306.009
306.001
305.992
305.984
305.976
305.967
305.963
306.042
306.035
306.027
306.02
306.012
306.005
305.997
305.988
305.98
305.972
305.964
305.956
305.948
305.943
305.979
305.978
305.976
305.974
305.971
305.968
305.965
305.961
305.956
305.951
305.946
305.94
305.935
305.928
305.962
305.963
305.961
305.959
305.956
305.953
305.95
305.945
305.941
305.936
305.931
305.925
305.92
305.913
305.947
305.948
305.946
305.943
305.941
305.937
305.934
305.93
305.926
305.921
305.916
305.91
305.905
305.899
305.931
305.932
305.93
305.927
305.925
305.921
305.918
305.914
305.91
305.905
305.9
305.895
305.89
305.884
305.916
305.916
305.914
305.911
305.908
305.905
305.902
305.898
305.894
305.889
305.884
305.879
305.875
305.869
305.9
305.899
305.897
305.894
305.892
305.888
305.885
305.881
305.877
305.873
305.868
305.864
305.859
305.854
305.884
305.882
305.88
305.878
305.875
305.871
305.868
305.864
305.86
305.856
305.852
305.847
305.843
305.838
305.868
305.865
305.863
305.86
305.857
305.854
305.851
305.847
305.843
305.839
305.835
305.831
305.827
305.823
305.851
305.848
305.846
305.843
305.84
305.837
305.834
305.83
305.826
305.822
305.818
305.815
305.81
305.807
305.834
305.831
305.829
305.826
305.823
305.82
305.816
305.813
305.809
305.805
305.801
305.798
305.794
305.791
305.818
305.814
305.811
305.808
305.805
305.802
305.799
305.796
305.792
305.788
305.784
305.781
305.777
305.776
305.801
305.796
305.794
305.791
305.788
305.785
305.782
305.778
305.775
305.771
305.767
305.764
305.76
305.76
305.785
305.78
305.777
305.774
305.771
305.768
305.765
305.761
305.758
305.754
305.751
305.747
305.744
305.744
305.766
305.763
305.759
305.757
305.754
305.751
305.747
305.744
305.741
305.737
305.734
305.731
305.728
305.728
305.616
305.618
305.619
305.621
305.623
305.624
305.626
305.626
305.627
305.627
305.627
305.627
305.627
305.626
305.606
305.608
305.609
305.611
305.613
305.615
305.616
305.617
305.617
305.618
305.618
305.617
305.617
305.615
305.596
305.599
305.6
305.602
305.603
305.604
305.605
305.606
305.607
305.607
305.607
305.607
305.607
305.605
305.586
305.589
305.59
305.592
305.593
305.594
305.595
305.596
305.597
305.597
305.597
305.597
305.597
305.595
305.576
305.578
305.58
305.581
305.582
305.584
305.585
305.585
305.586
305.587
305.587
305.587
305.587
305.585
305.566
305.568
305.569
305.571
305.572
305.573
305.574
305.575
305.576
305.576
305.576
305.576
305.576
305.575
305.555
305.557
305.558
305.56
305.561
305.562
305.563
305.564
305.565
305.565
305.566
305.566
305.566
305.566
305.544
305.546
305.547
305.549
305.55
305.551
305.552
305.553
305.554
305.555
305.555
305.555
305.556
305.556
305.533
305.535
305.536
305.538
305.539
305.54
305.541
305.542
305.543
305.544
305.544
305.545
305.545
305.546
305.523
305.523
305.525
305.527
305.528
305.529
305.53
305.531
305.532
305.533
305.534
305.535
305.535
305.536
305.512
305.512
305.514
305.515
305.517
305.518
305.519
305.52
305.521
305.522
305.523
305.524
305.524
305.526
305.501
305.501
305.503
305.504
305.506
305.507
305.508
305.509
305.51
305.511
305.512
305.513
305.514
305.516
305.49
305.49
305.492
305.493
305.495
305.496
305.497
305.499
305.5
305.501
305.502
305.503
305.504
305.506
305.479
305.479
305.481
305.483
305.484
305.485
305.486
305.488
305.489
305.49
305.491
305.492
305.493
305.495
305.233
305.237
305.241
305.246
305.25
305.254
305.259
305.263
305.267
305.271
305.275
305.278
305.281
305.284
305.23
305.234
305.238
305.243
305.247
305.251
305.256
305.26
305.264
305.268
305.272
305.275
305.278
305.281
305.227
305.231
305.235
305.24
305.244
305.248
305.252
305.257
305.261
305.265
305.268
305.272
305.275
305.277
305.224
305.228
305.232
305.236
305.241
305.245
305.249
305.253
305.257
305.261
305.265
305.268
305.271
305.274
305.22
305.225
305.229
305.233
305.237
305.242
305.246
305.25
305.254
305.258
305.261
305.264
305.268
305.27
305.217
305.221
305.225
305.23
305.234
305.238
305.242
305.246
305.25
305.254
305.258
305.261
305.264
305.267
305.213
305.217
305.222
305.226
305.23
305.235
305.239
305.243
305.247
305.25
305.254
305.257
305.26
305.263
305.209
305.213
305.218
305.222
305.227
305.231
305.235
305.239
305.243
305.247
305.25
305.254
305.257
305.26
305.205
305.209
305.214
305.218
305.223
305.227
305.231
305.235
305.239
305.243
305.247
305.25
305.253
305.256
305.201
305.205
305.21
305.214
305.218
305.223
305.227
305.231
305.235
305.239
305.243
305.246
305.25
305.253
305.197
305.201
305.205
305.21
305.214
305.219
305.223
305.227
305.231
305.235
305.239
305.242
305.246
305.249
305.192
305.197
305.201
305.206
305.21
305.214
305.219
305.223
305.227
305.231
305.235
305.238
305.242
305.246
305.188
305.192
305.197
305.201
305.206
305.21
305.214
305.219
305.223
305.227
305.231
305.235
305.238
305.242
305.184
305.189
305.193
305.197
305.202
305.206
305.21
305.214
305.218
305.222
305.226
305.23
305.234
305.238
304.857
304.862
304.866
304.871
304.876
304.881
304.887
304.892
304.897
304.902
304.907
304.913
304.917
304.922
304.859
304.863
304.868
304.873
304.878
304.884
304.889
304.894
304.9
304.905
304.91
304.915
304.92
304.924
304.861
304.866
304.871
304.876
304.881
304.886
304.892
304.897
304.902
304.907
304.912
304.917
304.921
304.926
304.863
304.868
304.873
304.878
304.883
304.889
304.894
304.899
304.904
304.909
304.914
304.919
304.924
304.928
304.865
304.87
304.875
304.88
304.886
304.891
304.896
304.902
304.907
304.912
304.916
304.921
304.925
304.93
304.867
304.872
304.877
304.882
304.888
304.893
304.899
304.904
304.909
304.914
304.919
304.923
304.928
304.932
304.869
304.874
304.879
304.885
304.89
304.895
304.901
304.906
304.911
304.916
304.921
304.925
304.929
304.933
304.87
304.876
304.881
304.886
304.892
304.897
304.903
304.908
304.913
304.918
304.922
304.927
304.931
304.935
304.872
304.877
304.883
304.888
304.893
304.899
304.904
304.909
304.915
304.919
304.924
304.929
304.933
304.937
304.873
304.879
304.884
304.89
304.895
304.9
304.906
304.911
304.916
304.921
304.926
304.93
304.935
304.939
304.874
304.88
304.885
304.891
304.896
304.902
304.907
304.912
304.918
304.923
304.927
304.932
304.936
304.941
304.876
304.881
304.887
304.892
304.898
304.903
304.908
304.914
304.919
304.924
304.929
304.933
304.938
304.942
304.877
304.882
304.888
304.893
304.899
304.904
304.91
304.915
304.92
304.925
304.93
304.935
304.939
304.944
304.878
304.884
304.889
304.895
304.9
304.905
304.91
304.916
304.921
304.926
304.931
304.936
304.941
304.946
304.5
304.504
304.507
304.511
304.515
304.52
304.524
304.528
304.533
304.537
304.542
304.546
304.551
304.556
304.504
304.508
304.512
304.516
304.52
304.524
304.529
304.533
304.538
304.543
304.547
304.552
304.556
304.561
304.509
304.512
304.517
304.521
304.525
304.53
304.534
304.538
304.543
304.547
304.552
304.556
304.561
304.566
304.514
304.517
304.521
304.526
304.53
304.535
304.539
304.544
304.548
304.553
304.557
304.561
304.566
304.57
304.518
304.522
304.526
304.531
304.535
304.54
304.544
304.549
304.553
304.557
304.562
304.566
304.571
304.575
304.523
304.527
304.531
304.535
304.54
304.545
304.549
304.554
304.558
304.563
304.567
304.571
304.575
304.58
304.527
304.531
304.536
304.54
304.545
304.549
304.554
304.559
304.563
304.567
304.572
304.576
304.58
304.584
304.532
304.536
304.541
304.545
304.55
304.554
304.559
304.563
304.568
304.572
304.577
304.581
304.585
304.589
304.536
304.541
304.545
304.55
304.555
304.559
304.564
304.568
304.573
304.577
304.581
304.586
304.59
304.593
304.541
304.546
304.55
304.555
304.559
304.564
304.568
304.573
304.577
304.582
304.586
304.59
304.594
304.598
304.545
304.55
304.554
304.559
304.564
304.568
304.573
304.578
304.582
304.586
304.591
304.595
304.599
304.602
304.55
304.555
304.559
304.564
304.568
304.573
304.578
304.582
304.587
304.591
304.595
304.599
304.604
304.607
304.554
304.559
304.563
304.568
304.573
304.577
304.582
304.587
304.591
304.596
304.6
304.604
304.608
304.612
304.559
304.564
304.568
304.573
304.577
304.582
304.586
304.591
304.595
304.6
304.604
304.608
304.613
304.617
304.168
304.17
304.172
304.174
304.176
304.179
304.181
304.184
304.186
304.189
304.192
304.195
304.198
304.202
304.172
304.174
304.176
304.178
304.181
304.183
304.186
304.188
304.191
304.194
304.197
304.2
304.204
304.208
304.176
304.178
304.18
304.183
304.185
304.188
304.19
304.193
304.196
304.199
304.202
304.205
304.208
304.212
304.181
304.183
304.185
304.187
304.19
304.192
304.195
304.198
304.201
304.204
304.207
304.21
304.213
304.217
304.185
304.187
304.19
304.192
304.195
304.197
304.2
304.203
304.206
304.209
304.212
304.215
304.218
304.222
304.19
304.192
304.195
304.197
304.2
304.202
304.205
304.208
304.211
304.214
304.217
304.22
304.223
304.227
304.195
304.197
304.2
304.202
304.205
304.207
304.21
304.213
304.216
304.219
304.222
304.225
304.228
304.231
304.2
304.202
304.205
304.207
304.21
304.212
304.215
304.218
304.221
304.224
304.227
304.23
304.233
304.236
304.205
304.208
304.21
304.212
304.215
304.218
304.221
304.223
304.226
304.229
304.232
304.235
304.238
304.241
304.21
304.213
304.215
304.218
304.22
304.223
304.226
304.229
304.232
304.234
304.237
304.24
304.243
304.246
304.215
304.218
304.22
304.223
304.226
304.228
304.231
304.234
304.237
304.24
304.243
304.245
304.248
304.251
304.221
304.223
304.226
304.228
304.231
304.234
304.237
304.239
304.242
304.245
304.248
304.251
304.254
304.256
304.226
304.229
304.231
304.234
304.236
304.239
304.242
304.245
304.248
304.251
304.253
304.256
304.259
304.261
304.232
304.234
304.237
304.239
304.242
304.245
304.248
304.25
304.253
304.256
304.259
304.261
304.264
304.267
303.862
303.863
303.863
303.864
303.864
303.865
303.866
303.866
303.867
303.869
303.87
303.871
303.873
303.875
303.865
303.865
303.866
303.866
303.867
303.867
303.868
303.869
303.87
303.872
303.873
303.874
303.876
303.878
303.868
303.868
303.868
303.869
303.869
303.87
303.871
303.872
303.873
303.874
303.876
303.877
303.879
303.881
303.871
303.871
303.871
303.872
303.872
303.873
303.874
303.875
303.876
303.878
303.879
303.881
303.883
303.885
303.874
303.874
303.874
303.875
303.875
303.876
303.877
303.878
303.879
303.881
303.882
303.884
303.886
303.888
303.877
303.877
303.878
303.878
303.879
303.88
303.88
303.881
303.883
303.884
303.886
303.887
303.889
303.891
303.881
303.881
303.881
303.882
303.882
303.883
303.884
303.885
303.886
303.888
303.889
303.891
303.893
303.895
303.884
303.885
303.885
303.886
303.886
303.887
303.888
303.889
303.89
303.891
303.893
303.895
303.896
303.898
303.888
303.889
303.889
303.889
303.89
303.891
303.892
303.893
303.894
303.895
303.897
303.898
303.9
303.902
303.892
303.893
303.893
303.894
303.894
303.895
303.896
303.897
303.898
303.899
303.901
303.902
303.904
303.905
303.896
303.897
303.897
303.898
303.899
303.899
303.9
303.901
303.902
303.903
303.905
303.906
303.908
303.909
303.901
303.901
303.902
303.902
303.903
303.904
303.905
303.906
303.907
303.908
303.909
303.91
303.912
303.913
303.905
303.906
303.906
303.907
303.907
303.908
303.909
303.91
303.911
303.912
303.913
303.915
303.916
303.917
303.91
303.91
303.911
303.911
303.912
303.913
303.914
303.915
303.916
303.917
303.918
303.919
303.92
303.921
303.583
303.583
303.582
303.582
303.581
303.581
303.581
303.581
303.58
303.58
303.58
303.58
303.581
303.581
303.584
303.584
303.583
303.583
303.582
303.582
303.582
303.581
303.581
303.581
303.581
303.582
303.582
303.582
303.586
303.585
303.584
303.584
303.583
303.583
303.583
303.582
303.582
303.582
303.583
303.583
303.583
303.584
303.587
303.586
303.585
303.585
303.584
303.584
303.584
303.584
303.584
303.584
303.584
303.584
303.585
303.585
303.588
303.588
303.587
303.586
303.586
303.585
303.585
303.585
303.585
303.585
303.585
303.586
303.586
303.587
303.59
303.589
303.588
303.588
303.587
303.587
303.587
303.586
303.586
303.587
303.587
303.587
303.588
303.588
303.592
303.591
303.59
303.59
303.589
303.589
303.588
303.588
303.588
303.588
303.588
303.589
303.589
303.59
303.594
303.593
303.592
303.591
303.591
303.59
303.59
303.59
303.59
303.59
303.59
303.591
303.591
303.592
303.596
303.595
303.594
303.593
303.593
303.592
303.592
303.592
303.592
303.592
303.592
303.593
303.593
303.594
303.598
303.597
303.596
303.596
303.595
303.595
303.594
303.594
303.594
303.594
303.594
303.595
303.595
303.595
303.6
303.599
303.599
303.598
303.597
303.597
303.597
303.596
303.596
303.596
303.596
303.597
303.597
303.597
303.602
303.602
303.601
303.6
303.6
303.599
303.599
303.599
303.599
303.599
303.599
303.599
303.599
303.599
303.605
303.604
303.604
303.603
303.603
303.602
303.602
303.601
303.601
303.601
303.601
303.601
303.602
303.601
303.608
303.607
303.606
303.606
303.605
303.605
303.604
303.604
303.604
303.604
303.604
303.604
303.604
303.604
303.329
303.329
303.328
303.327
303.327
303.326
303.326
303.325
303.324
303.324
303.323
303.322
303.322
303.321
303.33
303.329
303.328
303.328
303.327
303.326
303.326
303.325
303.324
303.324
303.323
303.322
303.322
303.321
303.33
303.329
303.328
303.328
303.327
303.326
303.326
303.325
303.324
303.324
303.323
303.323
303.322
303.321
303.33
303.329
303.329
303.328
303.327
303.327
303.326
303.325
303.325
303.324
303.323
303.323
303.322
303.322
303.331
303.33
303.329
303.328
303.328
303.327
303.326
303.325
303.325
303.324
303.324
303.323
303.322
303.322
303.331
303.33
303.329
303.329
303.328
303.327
303.326
303.326
303.325
303.324
303.324
303.323
303.323
303.322
303.331
303.331
303.33
303.329
303.328
303.327
303.327
303.326
303.325
303.325
303.324
303.324
303.323
303.323
303.332
303.331
303.33
303.329
303.328
303.328
303.327
303.326
303.326
303.325
303.325
303.324
303.323
303.323
303.332
303.331
303.331
303.33
303.329
303.328
303.327
303.327
303.326
303.325
303.325
303.324
303.324
303.323
303.333
303.332
303.331
303.33
303.329
303.329
303.328
303.327
303.327
303.326
303.325
303.325
303.324
303.324
303.333
303.332
303.332
303.331
303.33
303.329
303.328
303.328
303.327
303.326
303.326
303.325
303.325
303.324
303.334
303.333
303.332
303.331
303.33
303.33
303.329
303.328
303.327
303.327
303.326
303.326
303.325
303.325
303.334
303.334
303.333
303.332
303.331
303.33
303.329
303.329
303.328
303.327
303.327
303.326
303.326
303.325
303.335
303.334
303.333
303.332
303.332
303.331
303.33
303.329
303.329
303.328
303.327
303.327
303.326
303.326
303.098
303.098
303.097
303.097
303.097
303.096
303.096
303.095
303.095
303.094
303.093
303.092
303.091
303.09
303.098
303.098
303.098
303.097
303.097
303.096
303.096
303.095
303.095
303.094
303.093
303.092
303.091
303.09
303.098
303.098
303.098
303.097
303.097
303.097
303.096
303.095
303.095
303.094
303.093
303.092
303.091
303.089
303.098
303.098
303.098
303.098
303.097
303.097
303.096
303.095
303.095
303.094
303.093
303.092
303.091
303.089
303.098
303.098
303.098
303.097
303.097
303.097
303.096
303.095
303.095
303.094
303.093
303.092
303.091
303.089
303.098
303.098
303.098
303.097
303.097
303.096
303.096
303.095
303.094
303.094
303.093
303.091
303.09
303.089
303.098
303.097
303.097
303.097
303.097
303.096
303.096
303.095
303.094
303.093
303.092
303.091
303.09
303.089
303.097
303.097
303.097
303.097
303.096
303.096
303.095
303.095
303.094
303.093
303.092
303.091
303.09
303.089
303.097
303.097
303.096
303.096
303.096
303.095
303.095
303.094
303.093
303.092
303.091
303.09
303.089
303.088
303.096
303.096
303.096
303.096
303.095
303.095
303.094
303.094
303.093
303.092
303.091
303.09
303.089
303.088
303.096
303.096
303.095
303.095
303.095
303.094
303.094
303.093
303.092
303.091
303.09
303.089
303.088
303.087
303.095
303.095
303.095
303.094
303.094
303.093
303.093
303.092
303.091
303.091
303.09
303.089
303.088
303.087
303.094
303.094
303.094
303.094
303.093
303.093
303.092
303.091
303.091
303.09
303.089
303.088
303.087
303.086
303.094
303.093
303.093
303.093
303.092
303.092
303.091
303.09
303.09
303.089
303.088
303.087
303.086
303.085
302.886
302.886
302.887
302.887
302.887
302.887
302.887
302.886
302.886
302.885
302.885
302.884
302.882
302.881
302.886
302.887
302.887
302.888
302.888
302.888
302.887
302.887
302.887
302.886
302.885
302.884
302.883
302.881
302.887
302.887
302.888
302.888
302.888
302.888
302.888
302.888
302.887
302.886
302.885
302.884
302.883
302.881
302.887
302.888
302.888
302.888
302.889
302.888
302.888
302.888
302.887
302.886
302.885
302.884
302.883
302.882
302.887
302.888
302.888
302.889
302.889
302.889
302.888
302.888
302.887
302.887
302.886
302.884
302.883
302.882
302.887
302.888
302.888
302.888
302.889
302.889
302.888
302.888
302.887
302.886
302.885
302.884
302.883
302.881
302.887
302.887
302.888
302.888
302.888
302.888
302.888
302.888
302.887
302.886
302.885
302.884
302.883
302.881
302.886
302.887
302.887
302.888
302.888
302.888
302.888
302.887
302.887
302.886
302.885
302.884
302.882
302.881
302.886
302.886
302.887
302.887
302.887
302.887
302.887
302.886
302.886
302.885
302.884
302.883
302.882
302.88
302.885
302.885
302.886
302.886
302.886
302.886
302.886
302.886
302.885
302.884
302.883
302.882
302.881
302.88
302.884
302.884
302.885
302.885
302.885
302.885
302.885
302.885
302.884
302.883
302.882
302.881
302.88
302.879
302.883
302.883
302.884
302.884
302.884
302.884
302.884
302.883
302.883
302.882
302.881
302.88
302.879
302.878
302.881
302.882
302.882
302.883
302.883
302.883
302.882
302.882
302.881
302.881
302.88
302.879
302.878
302.877
302.88
302.88
302.881
302.881
302.881
302.881
302.881
302.88
302.88
302.879
302.878
302.877
302.876
302.875
302.691
302.692
302.693
302.693
302.694
302.694
302.694
302.694
302.694
302.693
302.693
302.692
302.691
302.689
302.692
302.693
302.694
302.694
302.695
302.695
302.695
302.695
302.695
302.694
302.694
302.693
302.692
302.69
302.693
302.694
302.695
302.695
302.696
302.696
302.696
302.696
302.696
302.695
302.694
302.693
302.692
302.691
302.693
302.694
302.695
302.696
302.697
302.697
302.697
302.697
302.696
302.696
302.695
302.694
302.693
302.691
302.694
302.695
302.696
302.697
302.697
302.697
302.697
302.697
302.697
302.696
302.696
302.694
302.693
302.692
302.694
302.695
302.696
302.697
302.697
302.698
302.698
302.698
302.697
302.697
302.696
302.695
302.693
302.692
302.694
302.695
302.696
302.697
302.697
302.698
302.698
302.698
302.697
302.697
302.696
302.695
302.693
302.692
302.693
302.695
302.696
302.696
302.697
302.697
302.697
302.697
302.697
302.696
302.695
302.694
302.693
302.692
302.693
302.694
302.695
302.696
302.697
302.697
302.697
302.697
302.696
302.696
302.695
302.694
302.693
302.691
302.692
302.693
302.694
302.695
302.696
302.696
302.696
302.696
302.696
302.695
302.694
302.693
302.692
302.691
302.691
302.692
302.693
302.694
302.695
302.695
302.695
302.695
302.695
302.694
302.693
302.692
302.691
302.69
302.69
302.691
302.692
302.693
302.694
302.694
302.694
302.694
302.693
302.693
302.692
302.691
302.69
302.689
302.689
302.69
302.691
302.692
302.692
302.692
302.693
302.692
302.692
302.691
302.691
302.69
302.689
302.688
302.688
302.689
302.689
302.69
302.691
302.691
302.691
302.691
302.69
302.69
302.689
302.688
302.687
302.686
302.511
302.512
302.513
302.514
302.514
302.515
302.515
302.515
302.515
302.515
302.514
302.513
302.512
302.511
302.512
302.513
302.514
302.515
302.516
302.516
302.516
302.516
302.516
302.516
302.515
302.514
302.514
302.512
302.513
302.514
302.515
302.516
302.517
302.517
302.518
302.518
302.517
302.517
302.516
302.516
302.514
302.513
302.514
302.515
302.516
302.517
302.518
302.518
302.518
302.518
302.518
302.518
302.517
302.516
302.515
302.514
302.514
302.516
302.517
302.518
302.518
302.519
302.519
302.519
302.519
302.519
302.518
302.517
302.516
302.515
302.515
302.516
302.517
302.518
302.519
302.519
302.52
302.52
302.519
302.519
302.518
302.517
302.516
302.515
302.515
302.516
302.517
302.518
302.519
302.519
302.52
302.52
302.52
302.519
302.519
302.518
302.517
302.515
302.515
302.516
302.517
302.518
302.519
302.519
302.52
302.52
302.52
302.519
302.519
302.518
302.517
302.515
302.515
302.516
302.517
302.518
302.519
302.519
302.519
302.52
302.519
302.519
302.518
302.517
302.516
302.515
302.514
302.515
302.517
302.517
302.518
302.519
302.519
302.519
302.519
302.518
302.518
302.517
302.516
302.515
302.513
302.515
302.516
302.517
302.517
302.518
302.518
302.518
302.518
302.518
302.517
302.516
302.515
302.514
302.513
302.514
302.515
302.516
302.517
302.517
302.517
302.517
302.517
302.517
302.516
302.515
302.514
302.513
302.511
302.513
302.514
302.515
302.515
302.516
302.516
302.516
302.516
302.516
302.515
302.514
302.513
302.512
302.51
302.511
302.513
302.513
302.514
302.514
302.515
302.515
302.515
302.514
302.514
302.513
302.512
302.511
302.343
302.344
302.345
302.345
302.346
302.346
302.347
302.347
302.347
302.346
302.346
302.345
302.345
302.344
302.344
302.345
302.346
302.347
302.347
302.348
302.348
302.348
302.348
302.348
302.347
302.347
302.346
302.345
302.345
302.346
302.347
302.348
302.348
302.349
302.349
302.349
302.349
302.349
302.348
302.348
302.347
302.346
302.345
302.346
302.348
302.348
302.349
302.349
302.35
302.35
302.35
302.35
302.349
302.348
302.348
302.347
302.346
302.347
302.348
302.349
302.35
302.35
302.35
302.351
302.35
302.35
302.35
302.349
302.348
302.347
302.346
302.348
302.349
302.349
302.35
302.351
302.351
302.351
302.351
302.351
302.35
302.35
302.349
302.348
302.347
302.348
302.349
302.35
302.35
302.351
302.351
302.351
302.351
302.351
302.351
302.35
302.349
302.348
302.347
302.348
302.349
302.35
302.351
302.351
302.351
302.351
302.351
302.351
302.351
302.35
302.349
302.348
302.347
302.348
302.349
302.35
302.35
302.351
302.351
302.351
302.351
302.351
302.351
302.35
302.349
302.348
302.347
302.348
302.349
302.35
302.35
302.351
302.351
302.351
302.351
302.351
302.35
302.35
302.349
302.348
302.346
302.347
302.348
302.349
302.35
302.35
302.351
302.351
302.351
302.35
302.35
302.349
302.348
302.347
302.346
302.347
302.348
302.348
302.349
302.35
302.35
302.35
302.35
302.35
302.349
302.349
302.348
302.347
302.345
302.346
302.347
302.348
302.348
302.349
302.349
302.349
302.349
302.349
302.348
302.348
302.347
302.346
302.344
302.345
302.346
302.347
302.347
302.348
302.348
302.348
302.348
302.348
302.348
302.347
302.346
302.345
302.185
302.186
302.186
302.187
302.187
302.187
302.188
302.188
302.187
302.187
302.187
302.187
302.186
302.186
302.185
302.186
302.187
302.187
302.188
302.188
302.188
302.188
302.188
302.188
302.188
302.188
302.187
302.187
302.186
302.187
302.188
302.188
302.189
302.189
302.189
302.189
302.189
302.189
302.189
302.188
302.188
302.187
302.187
302.187
302.188
302.189
302.189
302.189
302.19
302.19
302.19
302.189
302.189
302.189
302.188
302.188
302.187
302.188
302.189
302.189
302.19
302.19
302.19
302.19
302.19
302.19
302.19
302.189
302.189
302.188
302.187
302.188
302.189
302.189
302.19
302.19
302.19
302.19
302.19
302.19
302.19
302.19
302.189
302.189
302.188
302.188
302.189
302.19
302.19
302.19
302.191
302.191
302.191
302.191
302.19
302.19
302.189
302.189
302.188
302.189
302.189
302.19
302.19
302.191
302.191
302.191
302.191
302.191
302.19
302.19
302.189
302.189
302.188
302.189
302.189
302.19
302.19
302.19
302.191
302.191
302.191
302.191
302.19
302.19
302.189
302.189
302.188
302.188
302.189
302.19
302.19
302.19
302.191
302.191
302.191
302.19
302.19
302.19
302.189
302.188
302.187
302.188
302.189
302.189
302.19
302.19
302.19
302.19
302.19
302.19
302.19
302.19
302.189
302.188
302.187
302.188
302.188
302.189
302.189
302.19
302.19
302.19
302.19
302.19
302.19
302.189
302.189
302.188
302.187
302.187
302.188
302.188
302.189
302.189
302.189
302.19
302.19
302.189
302.189
302.189
302.188
302.188
302.186
302.187
302.187
302.188
302.188
302.189
302.189
302.189
302.189
302.189
302.189
302.188
302.188
302.187
302.036
302.037
302.037
302.037
302.037
302.037
302.037
302.037
302.037
302.037
302.037
302.037
302.037
302.036
302.036
302.037
302.037
302.037
302.037
302.037
302.038
302.038
302.037
302.037
302.037
302.037
302.037
302.037
302.037
302.037
302.037
302.037
302.038
302.038
302.038
302.038
302.038
302.038
302.037
302.037
302.037
302.037
302.037
302.037
302.037
302.038
302.038
302.038
302.038
302.038
302.038
302.038
302.038
302.038
302.037
302.037
302.037
302.037
302.037
302.038
302.038
302.038
302.038
302.038
302.038
302.038
302.038
302.038
302.038
302.037
302.037
302.037
302.038
302.038
302.038
302.038
302.038
302.038
302.038
302.038
302.038
302.038
302.038
302.038
302.037
302.037
302.038
302.038
302.038
302.038
302.038
302.038
302.038
302.038
302.038
302.038
302.038
302.038
302.037
302.038
302.038
302.038
302.038
302.038
302.038
302.038
302.038
302.038
302.038
302.038
302.038
302.037
302.037
302.037
302.038
302.038
302.038
302.038
302.038
302.038
302.038
302.038
302.038
302.038
302.038
302.037
302.037
302.037
302.038
302.038
302.038
302.038
302.038
302.038
302.038
302.038
302.038
302.038
302.038
302.037
302.037
302.037
302.037
302.038
302.038
302.038
302.038
302.038
302.038
302.038
302.038
302.038
302.037
302.037
302.037
302.037
302.037
302.037
302.038
302.038
302.038
302.038
302.038
302.038
302.038
302.038
302.037
302.037
302.037
302.037
302.037
302.037
302.037
302.038
302.038
302.038
302.038
302.038
302.038
302.037
302.037
302.037
302.036
302.037
302.037
302.037
302.037
302.037
302.038
302.038
302.038
302.038
302.038
302.037
302.037
302.037
301.897
301.897
301.897
301.897
301.897
301.896
301.896
301.896
301.896
301.896
301.896
301.896
301.896
301.897
301.897
301.897
301.896
301.896
301.896
301.896
301.896
301.896
301.896
301.896
301.896
301.896
301.896
301.897
301.897
301.896
301.896
301.896
301.896
301.896
301.896
301.896
301.896
301.896
301.896
301.896
301.896
301.896
301.896
301.896
301.896
301.896
301.896
301.896
301.896
301.896
301.896
301.896
301.896
301.896
301.896
301.896
301.896
301.896
301.896
301.896
301.896
301.895
301.895
301.895
301.895
301.895
301.895
301.896
301.896
301.896
301.896
301.896
301.896
301.896
301.895
301.895
301.895
301.895
301.895
301.895
301.895
301.895
301.896
301.896
301.896
301.896
301.896
301.895
301.895
301.895
301.895
301.895
301.895
301.895
301.895
301.895
301.896
301.896
301.896
301.896
301.896
301.895
301.895
301.895
301.895
301.895
301.895
301.895
301.895
301.895
301.896
301.896
301.896
301.896
301.896
301.895
301.895
301.895
301.895
301.895
301.895
301.895
301.895
301.895
301.895
301.896
301.896
301.896
301.895
301.895
301.895
301.895
301.895
301.895
301.895
301.895
301.895
301.895
301.895
301.896
301.896
301.896
301.896
301.895
301.895
301.895
301.895
301.895
301.895
301.895
301.895
301.895
301.895
301.896
301.896
301.896
301.896
301.895
301.895
301.895
301.895
301.895
301.895
301.895
301.895
301.895
301.895
301.896
301.896
301.896
301.896
301.896
301.895
301.895
301.895
301.895
301.895
301.895
301.895
301.895
301.896
301.896
301.896
301.896
301.896
301.896
301.896
301.896
301.896
301.895
301.895
301.896
301.896
301.896
301.896
301.896
306.38
306.379
306.38
306.379
306.378
306.375
306.364
306.361
306.359
306.357
306.354
306.351
306.3
306.312
306.323
306.333
306.342
306.351
306.295
306.311
306.324
306.338
306.35
306.362
306.292
306.31
306.326
306.342
306.356
306.37
306.287
306.307
306.325
306.342
306.357
306.372
306.281
306.301
306.32
306.338
306.354
306.369
306.273
306.294
306.313
306.331
306.347
306.362
306.265
306.285
306.303
306.32
306.336
306.35
306.255
306.274
306.291
306.307
306.321
306.333
306.245
306.261
306.277
306.291
306.303
306.313
306.234
306.248
306.261
306.272
306.282
306.29
306.222
306.233
306.243
306.252
306.259
306.265
306.21
306.217
306.225
306.231
306.236
306.239
306.198
306.201
306.206
306.209
306.211
306.212
306.185
306.185
306.186
306.187
306.187
306.186
305.992
306.001
306.01
306.018
306.025
306.031
305.991
306.003
306.015
306.025
306.035
306.044
305.991
306.006
306.02
306.033
306.045
306.055
305.99
306.007
306.023
306.037
306.051
306.063
305.988
306.007
306.024