/*--------------------------------*- C++ -*----------------------------------*\
| =========                 |                                                 |
| \\      /  F ield         | OpenFOAM: The Open Source CFD Toolbox           |
|  \\    /   O peration     | Version:  v2106                                 |
|   \\  /    A nd           | Website:  www.openfoam.com                      |
|    \\/     M anipulation  |                                                 |
\*---------------------------------------------------------------------------*/
FoamFile
{
    version     2.0;
    format      ascii;
    arch        "LSB;label=32;scalar=64";
    class       volScalarField;
    location    "0.000205";
    object      nut;
}
// * * * * * * * * * * * * * * * * * * * * * * * * * * * * * * * * * * * * * //

dimensions      [0 2 -1 0 0 0 0];

internalField   nonuniform List<scalar> 
18109
(
9.34668e-07
7.15862e-07
5.34891e-07
4.0486e-07
3.20299e-07
2.78022e-07
2.77462e-07
4.77315e-07
3.65413e-07
2.69217e-07
1.98033e-07
1.50765e-07
1.25186e-07
1.20169e-07
2.36534e-07
1.75426e-07
1.26566e-07
9.0472e-08
6.65784e-08
5.3279e-08
4.96841e-08
1.1481e-07
7.94983e-08
5.54317e-08
3.83744e-08
2.73738e-08
2.12622e-08
1.94849e-08
5.55563e-08
3.43315e-08
2.26262e-08
1.50764e-08
1.04389e-08
7.91975e-09
7.23818e-09
2.83415e-08
1.46411e-08
8.70979e-09
5.49527e-09
3.68584e-09
2.75035e-09
2.5656e-09
1.72727e-08
6.87142e-09
3.33188e-09
1.88924e-09
1.20903e-09
8.94855e-10
8.90503e-10
1.43866e-08
4.38118e-09
1.49741e-09
6.58625e-10
3.77903e-10
2.80911e-10
3.25939e-10
8.25708e-07
6.36102e-07
4.76676e-07
3.59137e-07
2.79516e-07
2.35308e-07
2.25616e-07
2.56459e-07
3.4376e-07
5.12057e-07
7.85194e-07
1.18281e-06
1.74033e-06
2.51143e-06
4.115e-07
3.18315e-07
2.35123e-07
1.72448e-07
1.2953e-07
1.04617e-07
9.67589e-08
1.08458e-07
1.48929e-07
2.35428e-07
3.90831e-07
6.39621e-07
1.01587e-06
1.56907e-06
1.97297e-07
1.49537e-07
1.08339e-07
7.72917e-08
5.62084e-08
4.38118e-08
3.94394e-08
4.40486e-08
6.26511e-08
1.06197e-07
1.92605e-07
3.4662e-07
6.01496e-07
1.00884e-06
9.15576e-08
6.60503e-08
4.651e-08
3.21845e-08
2.27066e-08
1.71795e-08
1.52178e-08
1.72477e-08
2.60735e-08
4.85338e-08
9.76574e-08
1.95003e-07
3.72074e-07
6.80083e-07
4.17344e-08
2.75715e-08
1.85667e-08
1.24112e-08
8.51094e-09
6.28837e-09
5.56323e-09
6.61169e-09
1.11084e-08
2.34264e-08
5.28377e-08
1.16552e-07
2.42445e-07
4.77152e-07
1.98364e-08
1.11882e-08
6.94349e-09
4.43433e-09
2.95521e-09
2.14861e-09
1.9467e-09
2.56866e-09
5.07873e-09
1.23539e-08
3.09496e-08
7.40005e-08
1.64765e-07
3.43636e-07
1.14084e-08
4.87405e-09
2.53052e-09
1.48416e-09
9.52716e-10
6.8931e-10
6.72269e-10
1.0757e-09
2.6054e-09
7.20592e-09
1.95469e-08
4.95534e-08
1.1618e-07
2.53857e-07
9.38999e-09
2.86137e-09
1.03741e-09
4.90707e-10
2.90783e-10
2.14165e-10
2.4853e-10
5.26883e-10
1.53659e-09
4.6472e-09
1.32922e-08
3.51408e-08
8.58065e-08
1.94988e-07
1.05854e-08
2.6121e-09
6.39216e-10
2.00407e-10
1.01122e-10
8.37248e-11
1.29364e-10
3.41639e-10
1.08814e-09
3.42335e-09
1.00753e-08
2.73774e-08
6.88548e-08
1.61265e-07
1.38377e-08
3.1481e-09
6.59327e-10
1.81007e-10
1.12054e-10
1.25043e-10
1.89687e-10
4.02044e-10
1.09686e-09
3.23734e-09
9.32797e-09
2.52892e-08
6.40681e-08
1.51825e-07
1.90123e-08
4.30363e-09
9.99861e-10
4.19677e-10
3.92903e-10
4.83737e-10
6.50583e-10
1.01355e-09
1.97527e-09
4.6709e-09
1.19543e-08
3.04582e-08
7.45413e-08
1.7271e-07
2.73766e-08
6.8707e-09
2.16638e-09
1.37038e-09
1.48151e-09
1.86146e-09
2.44471e-09
3.43077e-09
5.43121e-09
1.01296e-08
2.15529e-08
4.8606e-08
1.09755e-07
2.39262e-07
4.26464e-08
1.34338e-08
5.82787e-09
4.45053e-09
4.94038e-09
6.23695e-09
8.20588e-09
1.12331e-08
1.6368e-08
2.64148e-08
4.77331e-08
9.3586e-08
1.89794e-07
3.78741e-07
7.4968e-08
3.12607e-08
1.64548e-08
1.32201e-08
1.44872e-08
1.82424e-08
2.41435e-08
3.29327e-08
4.6413e-08
6.91802e-08
1.10712e-07
1.89941e-07
3.42134e-07
6.18386e-07
1.77659e-06
2.7348e-06
4.15506e-06
6.24259e-06
9.34299e-06
1.40301e-05
1.5987e-06
2.50813e-06
3.88415e-06
5.93581e-06
8.98756e-06
1.35462e-05
1.19542e-06
2.0101e-06
3.29935e-06
5.30412e-06
8.42929e-06
1.33687e-05
9.07881e-07
1.63157e-06
2.83572e-06
4.80558e-06
8.04257e-06
1.34655e-05
7.03122e-07
1.35161e-06
2.49972e-06
4.49523e-06
7.97909e-06
1.4196e-05
5.69631e-07
1.16893e-06
2.30646e-06
4.42222e-06
8.37451e-06
1.59858e-05
5.03106e-07
1.09973e-06
2.31125e-06
4.72144e-06
9.56124e-06
1.9437e-05
5.03561e-07
1.15651e-06
2.5516e-06
5.4635e-06
1.15847e-05
2.43059e-05
5.82343e-07
1.36198e-06
3.05702e-06
6.6529e-06
1.42124e-05
2.95492e-05
7.62694e-07
1.7413e-06
3.82797e-06
8.17794e-06
1.70763e-05
3.4261e-05
1.07235e-06
2.2989e-06
4.78908e-06
9.76869e-06
1.94722e-05
3.68499e-05
1.52639e-06
3.01536e-06
5.85087e-06
1.12006e-05
2.10179e-05
3.7191e-05
2.13471e-06
3.85227e-06
6.89667e-06
1.22757e-05
2.15088e-05
3.56561e-05
2.92842e-06
4.82073e-06
7.93957e-06
1.3098e-05
2.13416e-05
3.30828e-05
3.99394e-06
6.03074e-06
9.14658e-06
1.38961e-05
2.08391e-05
3.00428e-05
2.80319e-06
4.36211e-06
7.3033e-06
1.18642e-05
1.81675e-05
2.6138e-05
2.0319e-06
3.43328e-06
5.94737e-06
9.7373e-06
1.5098e-05
2.24402e-05
1.54426e-06
2.77011e-06
4.8616e-06
8.06646e-06
1.28615e-05
2.01923e-05
1.19255e-06
2.21402e-06
3.94404e-06
6.704e-06
1.10937e-05
1.84167e-05
9.15141e-07
1.7489e-06
3.20019e-06
5.63624e-06
9.75352e-06
1.73019e-05
6.97505e-07
1.37562e-06
2.60604e-06
4.77405e-06
8.62017e-06
1.61104e-05
5.35871e-07
1.09334e-06
2.15017e-06
4.09938e-06
7.73619e-06
1.52152e-05
4.24257e-07
8.93736e-07
1.82014e-06
3.59855e-06
7.05842e-06
1.45346e-05
3.58437e-07
7.73392e-07
1.61741e-06
3.28875e-06
6.65304e-06
1.43278e-05
3.38608e-07
7.35222e-07
1.54917e-06
3.17663e-06
6.48914e-06
1.42441e-05
3.74556e-07
7.9322e-07
1.63164e-06
3.27184e-06
6.55788e-06
1.41946e-05
4.85609e-07
9.63928e-07
1.86697e-06
3.54177e-06
6.75862e-06
1.38262e-05
6.98199e-07
1.26275e-06
2.24633e-06
3.94671e-06
7.02626e-06
1.32679e-05
1.02486e-06
1.67721e-06
2.72446e-06
4.40617e-06
7.24348e-06
1.24227e-05
9.29301e-07
1.41182e-06
2.2312e-06
3.63969e-06
6.0798e-06
1.03941e-05
6.57367e-07
1.11327e-06
1.87348e-06
3.19194e-06
5.46007e-06
9.45836e-06
4.37018e-07
8.49839e-07
1.55971e-06
2.77984e-06
4.86576e-06
8.57646e-06
2.97993e-07
6.46857e-07
1.25962e-06
2.31757e-06
4.1733e-06
7.61398e-06
2.08463e-07
4.82946e-07
9.79184e-07
1.86975e-06
3.51416e-06
6.71982e-06
1.46768e-07
3.50933e-07
7.36932e-07
1.46979e-06
2.90115e-06
5.83446e-06
1.03422e-07
2.5082e-07
5.45634e-07
1.14334e-06
2.38315e-06
5.0477e-06
7.27127e-08
1.77751e-07
4.01457e-07
8.87331e-07
1.95527e-06
4.36322e-06
5.22918e-08
1.29211e-07
3.03651e-07
7.0794e-07
1.64769e-06
3.88188e-06
4.12135e-08
1.03994e-07
2.52858e-07
6.13162e-07
1.48494e-06
3.64709e-06
4.09552e-08
1.05817e-07
2.58666e-07
6.27574e-07
1.51878e-06
3.72566e-06
5.52343e-08
1.42738e-07
3.39104e-07
7.83223e-07
1.77674e-06
4.06349e-06
8.64923e-08
2.14197e-07
4.93967e-07
1.06721e-06
2.19254e-06
4.50708e-06
1.3053e-07
2.96651e-07
6.60688e-07
1.34538e-06
2.55518e-06
4.84374e-06
2.02962e-07
5.40948e-07
1.37902e-06
3.26248e-06
7.1669e-06
1.45517e-05
3.57183e-07
8.41668e-07
1.91283e-06
4.06191e-06
8.03114e-06
1.46897e-05
6.24394e-07
1.28299e-06
2.5625e-06
4.86092e-06
8.70168e-06
1.45767e-05
1.0741e-06
1.91485e-06
3.33501e-06
5.64471e-06
9.2347e-06
1.44439e-05
1.81375e-07
4.26021e-07
9.14894e-07
1.71971e-06
3.04205e-06
5.41099e-06
1.32284e-07
3.51028e-07
7.90701e-07
1.54694e-06
2.8539e-06
5.35268e-06
9.5424e-08
2.72873e-07
6.3316e-07
1.28687e-06
2.51722e-06
5.05695e-06
6.85229e-08
2.03173e-07
4.8692e-07
1.02844e-06
2.15382e-06
4.717e-06
4.94054e-08
1.48654e-07
3.69763e-07
8.32079e-07
1.9017e-06
4.61397e-06
3.67867e-08
1.12134e-07
2.92171e-07
7.19186e-07
1.83289e-06
4.93791e-06
3.04399e-08
9.46079e-08
2.64841e-07
7.24533e-07
2.0225e-06
5.7085e-06
3.15671e-08
1.00076e-07
3.01162e-07
8.8459e-07
2.54743e-06
7.06516e-06
4.42922e-08
1.38864e-07
4.24362e-07
1.23618e-06
3.42104e-06
8.88261e-06
7.74124e-08
2.29022e-07
6.62621e-07
1.79526e-06
4.5544e-06
1.07246e-05
1.46461e-07
3.9439e-07
1.03626e-06
2.53662e-06
5.77452e-06
1.2152e-05
2.76557e-07
6.62005e-07
1.54932e-06
3.3952e-06
6.9268e-06
1.30697e-05
5.12183e-07
1.07333e-06
2.20537e-06
4.30794e-06
7.92603e-06
1.36093e-05
9.22388e-07
1.67815e-06
2.99905e-06
5.20875e-06
8.71827e-06
1.38704e-05
1.98632e-05
5.73646e-05
0.000131043
0.000137803
0.000113848
2.07626e-05
6.06488e-05
0.000143018
0.000138624
0.000111457
2.24006e-05
6.62956e-05
0.000154567
0.000138554
0.000110412
2.55164e-05
7.52769e-05
0.000163008
0.000139159
0.000110558
3.1121e-05
8.83109e-05
0.000167398
0.000138869
0.000109641
3.91894e-05
0.000103323
0.000165865
0.000136363
0.000107573
4.86364e-05
0.000116344
0.000161223
0.000132966
0.000106234
5.66395e-05
0.000122382
0.000156614
0.000132013
0.000107588
9.53566e-05
6.19235e-05
0.000122461
0.000153031
0.000132682
0.000109342
9.80715e-05
6.22972e-05
0.000115729
0.000148441
0.000133175
0.000111355
0.00010186
5.88305e-05
0.000105351
0.000144445
0.000135161
0.000114908
0.000106673
0.000108096
5.2998e-05
9.29329e-05
0.000140613
0.000139065
0.000120368
0.000109854
0.000123958
0.000131743
4.61176e-05
8.06384e-05
0.000137697
0.000145017
0.000126873
0.000111486
0.000126275
0.000234825
3.98699e-05
7.21455e-05
0.000139921
0.000154582
0.000134758
0.000112266
0.000108779
0.000219615
3.52863e-05
6.96309e-05
0.000147856
0.000164687
0.000141624
0.000112773
0.000102791
0.000192764
3.3448e-05
6.94484e-05
0.000161163
0.000172752
0.000143965
0.000112812
0.00010162
0.000179564
3.30569e-05
7.27301e-05
0.000179192
0.000178896
0.000145953
0.000114999
0.000103204
0.000107582
3.28442e-05
8.05437e-05
0.000198478
0.000186464
0.000150636
0.000117809
0.000102358
0.000155573
3.26946e-05
9.29329e-05
0.000212656
0.000190721
0.000150237
0.000114587
9.51075e-05
0.000159265
3.26004e-05
0.00010637
0.000213445
0.000186973
0.000143864
0.000109264
8.89888e-05
0.000131546
3.35416e-05
0.000118471
0.000206983
0.000179725
0.000138186
0.000107437
9.06117e-05
6.37053e-05
3.54904e-05
0.000125254
0.000199967
0.000177282
0.000137702
0.000109918
9.7581e-05
8.14601e-05
3.77299e-05
0.000124417
0.000190433
0.000175948
0.000136587
0.000109839
3.83449e-05
0.000115326
0.000174826
0.000171512
0.000135261
0.000110027
3.67687e-05
0.000100508
0.000153666
0.000164916
0.00013685
0.000112535
3.39714e-05
8.44252e-05
0.000130818
0.000159068
0.000141549
0.000116002
3.10631e-05
7.03861e-05
0.000110985
0.00015295
0.0001477
0.000120998
2.818e-05
5.97649e-05
9.82091e-05
0.000152244
0.000156664
2.5459e-05
5.21878e-05
9.27088e-05
0.00016026
0.000167411
2.33159e-05
4.66904e-05
9.31226e-05
0.000173428
0.000173117
2.13649e-05
4.27395e-05
0.000100871
0.000190079
0.000176104
1.94142e-05
4.03984e-05
0.000118334
0.00021245
0.000183289
1.76005e-05
3.95077e-05
0.000143275
0.000231067
0.000183157
1.5871e-05
3.99316e-05
0.000166854
0.000233687
0.00017279
1.43865e-05
4.23065e-05
0.000181575
0.000223987
0.000163153
1.32648e-05
4.60445e-05
0.000184062
0.000211815
0.000158724
1.27173e-05
4.94892e-05
0.00017302
0.000197354
0.000154498
1.27571e-05
5.04931e-05
0.000148646
0.000178398
0.000148217
1.34035e-05
4.92475e-05
0.000122476
0.000159031
0.0001426
1.4451e-05
4.65727e-05
0.000100766
0.000141634
0.000137345
1.54632e-05
4.35269e-05
8.62251e-05
0.000130316
0.00013234
1.6066e-05
4.07627e-05
7.91703e-05
0.000128853
0.000131496
1.61466e-05
3.84811e-05
7.87088e-05
0.000135417
0.000132427
1.56906e-05
3.69242e-05
8.48304e-05
0.000144604
0.000129634
1.49864e-05
3.65653e-05
9.98148e-05
0.000154944
0.000126692
1.42918e-05
3.77837e-05
0.000123976
0.0001647
0.000125445
1.37749e-05
4.07018e-05
0.000152905
0.000169076
0.00012126
1.40426e-05
4.49799e-05
0.000176571
0.000164796
0.000114435
1.55134e-05
5.17189e-05
0.00018529
0.00015626
0.000109543
1.81359e-05
6.04958e-05
0.000179871
0.000149792
0.000108427
2.10162e-05
6.60165e-05
0.0001699
0.000144801
0.000107947
2.26448e-05
6.51973e-05
0.000155979
0.00013923
0.000108008
2.2684e-05
6.01793e-05
0.000141787
0.000135334
0.000109434
2.17221e-05
5.51608e-05
0.000128662
0.000132543
0.000111182
2.05906e-05
5.38009e-05
0.000120608
0.000131604
0.000112554
1.98168e-05
5.52897e-05
0.00012191
0.000134151
0.000113903
7.34458e-07
5.67073e-07
4.26221e-07
3.20935e-07
2.48025e-07
2.05476e-07
1.92506e-07
2.13042e-07
2.80908e-07
4.18775e-07
6.52972e-07
1.00678e-06
1.51883e-06
2.23858e-06
3.56967e-07
2.76916e-07
2.04872e-07
1.50256e-07
1.12398e-07
8.96776e-08
8.13774e-08
8.89838e-08
1.20271e-07
1.9043e-07
3.21862e-07
5.40299e-07
8.80546e-07
1.39082e-06
1.65897e-07
1.26704e-07
9.18968e-08
6.55964e-08
4.76114e-08
3.67602e-08
3.25734e-08
3.55863e-08
4.99822e-08
8.52073e-08
1.57858e-07
2.92029e-07
5.20823e-07
8.96084e-07
7.3953e-08
5.43252e-08
3.837e-08
2.66047e-08
1.87741e-08
1.40968e-08
1.23212e-08
1.37111e-08
2.06106e-08
3.88933e-08
8.0336e-08
1.65111e-07
3.23974e-07
6.08362e-07
3.20154e-08
2.18914e-08
1.48792e-08
9.99388e-09
6.87157e-09
5.04768e-09
4.41687e-09
5.18439e-09
8.76389e-09
1.89297e-08
4.39945e-08
9.97978e-08
2.13132e-07
4.30552e-07
1.42861e-08
8.48204e-09
5.38537e-09
3.47714e-09
2.33175e-09
1.68916e-09
1.51948e-09
2.00196e-09
4.04524e-09
1.01525e-08
2.62032e-08
6.42504e-08
1.46495e-07
3.13039e-07
7.75666e-09
3.46138e-09
1.87695e-09
1.12954e-09
7.34997e-10
5.32008e-10
5.19339e-10
8.45067e-10
2.11812e-09
6.0465e-09
1.68433e-08
4.36615e-08
1.04622e-07
2.33843e-07
6.27621e-09
1.88141e-09
7.11827e-10
3.56653e-10
2.1892e-10
1.63163e-10
1.92725e-10
4.2298e-10
1.27804e-09
3.97268e-09
1.16312e-08
3.13894e-08
7.82648e-08
1.81718e-07
7.1662e-09
1.63876e-09
3.93052e-10
1.33524e-10
7.47382e-11
6.51284e-11
1.03577e-10
2.81164e-10
9.19687e-10
2.96229e-09
8.91318e-09
2.4729e-08
6.35205e-08
1.51926e-07
9.5161e-09
1.9484e-09
3.85269e-10
1.20083e-10
9.06653e-11
1.06774e-10
1.61313e-10
3.39346e-10
9.33984e-10
2.81081e-09
8.28341e-09
2.29716e-08
5.94995e-08
1.43991e-07
1.33295e-08
2.70802e-09
6.23886e-10
3.20328e-10
3.40136e-10
4.27915e-10
5.72795e-10
8.81189e-10
1.70474e-09
4.06752e-09
1.06192e-08
2.77033e-08
6.93751e-08
1.6415e-07
1.98336e-08
4.58409e-09
1.52822e-09
1.12931e-09
1.30689e-09
1.66702e-09
2.18763e-09
3.04779e-09
4.78136e-09
8.91521e-09
1.92058e-08
4.42207e-08
1.02104e-07
2.27206e-07
3.2657e-08
9.87596e-09
4.52001e-09
3.78513e-09
4.39346e-09
5.62765e-09
7.41836e-09
1.01198e-08
1.46507e-08
2.35764e-08
4.28653e-08
8.53806e-08
1.76675e-07
3.59495e-07
6.13746e-08
2.50692e-08
1.34615e-08
1.14501e-08
1.29772e-08
1.65797e-08
2.20214e-08
2.99993e-08
4.21058e-08
6.25886e-08
1.00376e-07
1.73993e-07
3.18611e-07
5.86433e-07
6.0078e-07
4.62267e-07
3.48673e-07
2.61799e-07
2.01142e-07
1.63099e-07
1.47013e-07
1.52112e-07
1.88477e-07
2.72877e-07
4.3379e-07
7.02005e-07
1.12074e-06
1.73712e-06
2.71926e-07
2.08561e-07
1.54541e-07
1.13109e-07
8.43637e-08
6.63329e-08
5.83972e-08
5.99898e-08
7.64061e-08
1.17775e-07
2.03629e-07
3.60029e-07
6.23471e-07
1.0424e-06
1.17607e-07
8.8064e-08
6.37455e-08
4.53916e-08
3.29429e-08
2.51906e-08
2.17729e-08
2.24183e-08
2.98362e-08
5.00857e-08
9.61195e-08
1.88584e-07
3.60156e-07
6.64946e-07
4.81617e-08
3.46027e-08
2.43459e-08
1.68498e-08
1.19351e-08
8.91073e-09
7.61516e-09
8.0005e-09
1.15278e-08
2.19233e-08
4.78999e-08
1.05407e-07
2.22994e-07
4.53659e-07
1.87869e-08
1.26491e-08
8.58373e-09
5.76714e-09
3.99937e-09
2.9308e-09
2.50699e-09
2.78729e-09
4.63711e-09
1.04727e-08
2.63036e-08
6.43071e-08
1.48357e-07
3.2546e-07
7.45835e-09
4.38955e-09
2.80138e-09
1.81724e-09
1.23636e-09
8.96467e-10
7.88168e-10
9.99831e-10
2.08876e-09
5.68736e-09
1.6027e-08
4.23711e-08
1.04234e-07
2.41518e-07
3.79282e-09
1.60445e-09
8.70131e-10
5.29725e-10
3.52608e-10
2.5668e-10
2.46965e-10
4.06554e-10
1.11495e-09
3.51236e-09
1.06688e-08
2.97595e-08
7.68594e-08
1.85879e-07
3.27516e-09
8.38185e-10
2.9279e-10
1.47875e-10
9.44334e-11
7.17732e-11
8.67047e-11
2.07005e-10
7.01446e-10
2.40228e-09
7.64227e-09
2.22038e-08
5.97147e-08
1.49767e-07
4.1418e-09
7.76144e-10
1.52434e-10
5.04093e-11
3.20374e-11
3.05163e-11
5.04286e-11
1.46422e-10
5.2623e-10
1.85629e-09
6.07442e-09
1.8227e-08
5.05989e-08
1.30463e-07
5.9812e-09
9.99486e-10
1.61875e-10
5.88881e-11
5.81083e-11
7.23039e-11
1.03301e-10
2.03117e-10
5.64827e-10
1.82206e-09
5.84021e-09
1.76015e-08
4.92981e-08
1.28125e-07
9.02403e-09
1.52258e-09
3.19066e-10
2.07356e-10
2.52551e-10
3.25724e-10
4.25914e-10
6.20766e-10
1.14816e-09
2.79521e-09
7.8006e-09
2.204e-08
5.9444e-08
1.50079e-07
1.46194e-08
2.92093e-09
9.48064e-10
8.07578e-10
1.0097e-09
1.32173e-09
1.72745e-09
2.34889e-09
3.55891e-09
6.58678e-09
1.4723e-08
3.61681e-08
8.92813e-08
2.10602e-07
2.63137e-08
7.18035e-09
3.18386e-09
2.85824e-09
3.48312e-09
4.57479e-09
6.05298e-09
8.17484e-09
1.16058e-08
1.84981e-08
3.41918e-08
7.13185e-08
1.5628e-07
3.35124e-07
5.23865e-08
2.04154e-08
1.04194e-08
9.108e-09
1.05866e-08
1.37977e-08
1.84419e-08
2.50527e-08
3.48275e-08
5.14837e-08
8.30084e-08
1.47782e-07
2.82548e-07
5.44931e-07
4.84494e-07
3.67631e-07
2.76022e-07
2.06618e-07
1.60085e-07
1.29771e-07
1.16029e-07
1.15298e-07
1.35512e-07
1.87411e-07
2.95928e-07
4.89882e-07
8.1837e-07
1.32434e-06
1.99964e-07
1.49589e-07
1.10332e-07
8.05247e-08
6.07844e-08
4.80088e-08
4.23333e-08
4.2126e-08
5.11776e-08
7.54119e-08
1.29764e-07
2.35307e-07
4.2919e-07
7.62583e-07
7.92713e-08
5.71561e-08
4.11135e-08
2.91237e-08
2.13998e-08
1.64339e-08
1.42912e-08
1.43285e-08
1.83304e-08
2.96704e-08
5.73983e-08
1.16966e-07
2.38877e-07
4.81334e-07
2.97146e-08
2.03539e-08
1.42186e-08
9.73903e-09
6.96518e-09
5.19783e-09
4.46925e-09
4.57851e-09
6.40481e-09
1.20075e-08
2.71423e-08
6.33296e-08
1.45599e-07
3.28382e-07
1.06123e-08
6.75209e-09
4.54543e-09
3.00104e-09
2.08895e-09
1.51509e-09
1.29895e-09
1.41178e-09
2.34175e-09
5.45039e-09
1.46072e-08
3.85326e-08
9.75681e-08
2.38634e-07
3.97957e-09
2.14489e-09
1.34559e-09
8.50711e-10
5.75906e-10
4.0714e-10
3.56855e-10
4.51675e-10
9.9727e-10
2.93566e-09
8.98954e-09
2.58771e-08
7.02063e-08
1.81431e-07
2.16887e-09
7.59865e-10
3.81773e-10
2.22938e-10
1.45818e-10
1.01609e-10
9.80457e-11
1.72374e-10
5.3262e-10
1.85648e-09
6.17503e-09
1.88955e-08
5.40699e-08
1.45784e-07
2.22803e-09
4.52369e-10
1.24498e-10
5.63693e-11
3.4751e-11
2.51386e-11
3.19517e-11
8.81931e-11
3.42736e-10
1.30931e-09
4.60672e-09
1.48363e-08
4.44025e-08
1.23849e-07
3.17109e-09
4.98637e-10
7.40774e-11
2.02668e-11
1.36925e-11
1.40737e-11
2.32257e-11
6.87555e-11
2.70642e-10
1.06818e-09
3.91364e-09
1.31306e-08
4.05098e-08
1.15086e-07
5.00866e-09
7.31918e-10
9.64962e-11
3.62734e-11
4.14912e-11
5.41625e-11
7.33349e-11
1.27043e-10
3.3619e-10
1.15944e-09
4.12447e-09
1.38133e-08
4.24812e-08
1.19643e-07
8.26498e-09
1.25393e-09
2.26101e-10
1.52778e-10
1.99167e-10
2.66962e-10
3.48629e-10
4.85354e-10
8.41676e-10
2.05491e-09
6.13605e-09
1.88673e-08
5.48284e-08
1.47162e-07
1.47744e-08
2.67807e-09
7.59155e-10
6.40861e-10
8.2701e-10
1.11853e-09
1.47851e-09
1.98975e-09
2.92933e-09
5.36702e-09
1.24138e-08
3.24618e-08
8.52946e-08
2.11694e-07
2.80073e-08
7.0788e-09
2.7971e-09
2.42417e-09
2.95543e-09
3.96076e-09
5.30166e-09
7.16857e-09
1.00737e-08
1.597e-08
2.99829e-08
6.53096e-08
1.51043e-07
3.39448e-07
5.46225e-08
2.11813e-08
1.00237e-08
8.30936e-09
9.3829e-09
1.22771e-08
1.65115e-08
2.25311e-08
3.13085e-08
4.63404e-08
7.51289e-08
1.36664e-07
2.7116e-07
5.46095e-07
3.32746e-07
2.47507e-07
1.8527e-07
1.39386e-07
1.10248e-07
9.02007e-08
8.07873e-08
7.88773e-08
8.92952e-08
1.18072e-07
1.84386e-07
3.09746e-07
5.4932e-07
9.37826e-07
1.24345e-07
8.94941e-08
6.5747e-08
4.8265e-08
3.73609e-08
2.99036e-08
2.65402e-08
2.60599e-08
3.04494e-08
4.3038e-08
7.4136e-08
1.38833e-07
2.73381e-07
5.34198e-07
4.44812e-08
3.01692e-08
2.15789e-08
1.53697e-08
1.161e-08
9.05739e-09
7.96044e-09
7.88504e-09
9.66329e-09
1.51528e-08
3.01317e-08
6.56023e-08
1.49075e-07
3.42553e-07
1.49386e-08
9.38121e-09
6.49628e-09
4.47464e-09
3.29704e-09
2.50253e-09
2.17809e-09
2.1959e-09
2.93938e-09
5.51144e-09
1.34184e-08
3.4851e-08
9.12915e-08
2.37562e-07
4.88656e-09
2.70513e-09
1.78237e-09
1.18325e-09
8.50667e-10
6.28013e-10
5.43874e-10
5.78494e-10
9.43216e-10
2.36384e-09
7.18174e-09
2.16596e-08
6.30635e-08
1.78e-07
1.99946e-09
7.96625e-10
4.50947e-10
2.82915e-10
1.98131e-10
1.42775e-10
1.25825e-10
1.58201e-10
3.7702e-10
1.29178e-09
4.58951e-09
1.5229e-08
4.7532e-08
1.41e-07
1.58657e-09
3.57811e-10
1.19033e-10
6.20973e-11
4.15054e-11
2.95444e-11
2.89097e-11
5.59197e-11
2.08983e-10
8.69918e-10
3.36814e-09
1.19013e-08
3.90471e-08
1.19718e-07
2.15869e-09
3.52976e-10
5.36559e-11
1.4583e-11
8.42243e-12
6.40499e-12
8.90695e-12
3.05126e-11
1.46259e-10
6.65352e-10
2.72586e-09
1.01117e-08
3.43636e-08
1.07183e-07
3.38794e-09
5.01653e-10
5.47837e-11
8.80932e-12
6.24399e-12
7.36617e-12
1.10788e-11
3.04641e-11
1.32757e-10
6.10333e-10
2.5836e-09
9.86278e-09
3.39327e-08
1.05468e-07
5.65761e-09
8.3662e-10
9.14305e-11
2.6306e-11
3.0996e-11
4.08727e-11
5.26469e-11
8.10064e-11
2.01935e-10
7.51286e-10
2.99914e-09
1.11795e-08
3.75218e-08
1.13131e-07
9.72092e-09
1.53774e-09
2.2393e-10
1.20489e-10
1.56871e-10
2.11677e-10
2.72978e-10
3.66157e-10
6.06022e-10
1.50018e-09
4.83773e-09
1.61988e-08
5.04974e-08
1.43035e-07
1.77104e-08
3.28309e-09
7.4736e-10
5.3323e-10
6.72525e-10
9.12617e-10
1.20032e-09
1.5933e-09
2.29419e-09
4.17765e-09
1.00691e-08
2.82319e-08
7.94058e-08
2.07813e-07
3.26264e-08
8.09249e-09
2.80838e-09
2.16422e-09
2.5145e-09
3.34214e-09
4.44466e-09
5.97465e-09
8.31229e-09
1.30865e-08
2.49639e-08
5.71559e-08
1.40881e-07
3.3431e-07
5.91569e-08
2.32863e-08
1.06319e-08
8.07373e-09
8.49428e-09
1.08514e-08
1.43856e-08
1.95188e-08
2.70312e-08
3.99423e-08
6.49293e-08
1.20748e-07
2.49732e-07
5.30327e-07
1.37175e-07
9.52055e-08
6.90459e-08
5.16968e-08
4.24975e-08
3.6754e-08
3.51452e-08
3.5834e-08
4.10848e-08
5.33491e-08
8.24845e-08
1.39917e-07
2.65689e-07
4.96487e-07
4.61457e-08
3.01784e-08
2.13053e-08
1.53701e-08
1.22599e-08
1.03619e-08
9.86507e-09
1.01895e-08
1.21396e-08
1.70192e-08
2.9484e-08
5.77449e-08
1.2616e-07
2.83081e-07
1.48758e-08
8.80564e-09
6.03722e-09
4.20022e-09
3.24041e-09
2.65575e-09
2.4988e-09
2.61276e-09
3.29141e-09
5.24025e-09
1.09464e-08
2.64309e-08
6.93419e-08
1.86276e-07
4.7099e-09
2.36295e-09
1.54965e-09
1.04164e-09
7.7796e-10
6.16276e-10
5.70895e-10
6.0983e-10
8.59134e-10
1.74406e-09
4.79451e-09
1.4451e-08
4.41049e-08
1.32832e-07
1.74008e-09
6.27495e-10
3.60658e-10
2.31552e-10
1.6775e-10
1.28562e-10
1.179e-10
1.3586e-10
2.54472e-10
7.68195e-10
2.7546e-09
9.68996e-09
3.25993e-08
1.05523e-07
1.18637e-09
2.52724e-10
8.54096e-11
4.6295e-11
3.20931e-11
2.39345e-11
2.26222e-11
3.45383e-11
1.10387e-10
4.69879e-10
1.94951e-09
7.45964e-09
2.6665e-08
8.99638e-08
1.4677e-09
2.41874e-10
3.55862e-11
9.40072e-12
5.47119e-12
4.03346e-12
4.72035e-12
1.41142e-11
7.15371e-11
3.55997e-10
1.59091e-09
6.4495e-09
2.40784e-08
8.30728e-08
2.3274e-09
3.64698e-10
3.84207e-11
3.81787e-12
1.2665e-12
1.1183e-12
2.07391e-12
9.71598e-12
5.70099e-11
3.04158e-10
1.43688e-09
6.08558e-09
2.32662e-08
8.03358e-08
3.89038e-09
6.12965e-10
6.04571e-11
5.76367e-12
3.42569e-12
4.28605e-12
5.77304e-12
1.32329e-11
5.96805e-11
3.13211e-10
1.51563e-09
6.52342e-09
2.48698e-08
8.42252e-08
6.74638e-09
1.12089e-09
1.17727e-10
1.98265e-11
2.06364e-11
2.74654e-11
3.42073e-11
4.76108e-11
1.08903e-10
4.29226e-10
1.91001e-09
7.88352e-09
2.88457e-08
9.33998e-08
1.18338e-08
2.12771e-09
2.7818e-10
8.96727e-11
1.08063e-10
1.47104e-10
1.86871e-10
2.40961e-10
3.7696e-10
9.3535e-10
3.25487e-09
1.18953e-08
4.00664e-08
1.2118e-07
2.10425e-08
4.35689e-09
8.33857e-10
4.13386e-10
4.83768e-10
6.55852e-10
8.53251e-10
1.10725e-09
1.54249e-09
2.75599e-09
6.89331e-09
2.07759e-08
6.28566e-08
1.75503e-07
3.67202e-08
9.63534e-09
2.92585e-09
1.81175e-09
1.93404e-09
2.51872e-09
3.30022e-09
4.36798e-09
5.97299e-09
9.26888e-09
1.78832e-08
4.28737e-08
1.12487e-07
2.85663e-07
6.22949e-08
2.46876e-08
1.12797e-08
7.50194e-09
7.13966e-09
8.73171e-09
1.12506e-08
1.50208e-08
2.06054e-08
3.02839e-08
4.92537e-08
9.29912e-08
1.9979e-07
4.53115e-07
2.69284e-08
1.75509e-08
1.23719e-08
9.0458e-09
7.43495e-09
6.53156e-09
6.51941e-09
6.97183e-09
8.34703e-09
1.11152e-08
1.77909e-08
3.26346e-08
6.91664e-08
1.50226e-07
8.06754e-09
4.823e-09
3.32235e-09
2.34767e-09
1.84987e-09
1.56237e-09
1.52408e-09
1.63031e-09
2.01256e-09
2.93155e-09
5.47718e-09
1.23507e-08
3.18432e-08
8.50961e-08
2.44977e-09
1.20869e-09
7.98868e-10
5.49253e-10
4.17848e-10
3.39222e-10
3.21484e-10
3.43e-10
4.47798e-10
7.81712e-10
1.93954e-09
5.80651e-09
1.84389e-08
5.80511e-08
9.09576e-10
2.99864e-10
1.71221e-10
1.13316e-10
8.38895e-11
6.5881e-11
6.07818e-11
6.6071e-11
1.02664e-10
2.65303e-10
9.47382e-10
3.53066e-09
1.26315e-08
4.31274e-08
5.9403e-10
1.15701e-10
3.7252e-11
2.05849e-11
1.46489e-11
1.1226e-11
1.03082e-11
1.30698e-11
3.38759e-11
1.4417e-10
6.43994e-10
2.65276e-09
1.01304e-08
3.67244e-08
6.97828e-10
1.13359e-10
1.61358e-11
3.86612e-12
2.21485e-12
1.65774e-12
1.69451e-12
3.90437e-12
1.96183e-11
1.06148e-10
5.13239e-10
2.22859e-09
8.94917e-09
3.38436e-08
1.02172e-09
1.67531e-10
1.84412e-11
1.62568e-12
3.49573e-13
2.44662e-13
4.25639e-13
2.30657e-12
1.53967e-11
8.98669e-11
4.57323e-10
2.09218e-09
8.78882e-09
3.40988e-08
1.63673e-09
2.74661e-10
2.89564e-11
1.9785e-12
3.17036e-13
3.10912e-13
5.11102e-13
2.1462e-12
1.38882e-11
8.44286e-11
4.52743e-10
2.16499e-09
9.31107e-09
3.60614e-08
2.6641e-09
4.59346e-10
4.9123e-11
3.93099e-12
1.83479e-12
2.30169e-12
2.82467e-12
4.68071e-12
1.75496e-11
9.80278e-11
5.31109e-10
2.56479e-09
1.09375e-08
4.12819e-08
4.4352e-09
7.94088e-10
9.24811e-11
1.26689e-11
1.15623e-11
1.5416e-11
1.87549e-11
2.35894e-11
4.35422e-11
1.58976e-10
7.5549e-10
3.43729e-09
1.39133e-08
4.97682e-08
7.51707e-09
1.42202e-09
2.01793e-10
5.50505e-11
6.28332e-11
8.55583e-11
1.07043e-10
1.32443e-10
1.86825e-10
4.12023e-10
1.43098e-09
5.61387e-09
2.07041e-08
6.87891e-08
1.33045e-08
2.84911e-09
5.88792e-10
2.64555e-10
2.96077e-10
3.97985e-10
5.09658e-10
6.45224e-10
8.55909e-10
1.41319e-09
3.3779e-09
1.04722e-08
3.38198e-08
1.02516e-07
2.39463e-08
6.4151e-09
2.09687e-09
1.2491e-09
1.27517e-09
1.62236e-09
2.07381e-09
2.68684e-09
3.57567e-09
5.32629e-09
9.86052e-09
2.35816e-08
6.43433e-08
1.75538e-07
4.56549e-08
1.87632e-08
9.05066e-09
5.82117e-09
5.2118e-09
6.10343e-09
7.54089e-09
9.81455e-09
1.32102e-08
1.90801e-08
3.03703e-08
5.63468e-08
1.21535e-07
2.89974e-07
2.38942e-09
1.52436e-09
1.08721e-09
7.9312e-10
6.27196e-10
5.26183e-10
5.05112e-10
5.38219e-10
6.61857e-10
9.33517e-10
1.63487e-09
3.40958e-09
8.25862e-09
2.0972e-08
6.42253e-10
3.57848e-10
2.50275e-10
1.80503e-10
1.39624e-10
1.13217e-10
1.04528e-10
1.08249e-10
1.34105e-10
2.10555e-10
4.61487e-10
1.27831e-09
3.95812e-09
1.23525e-08
2.09838e-10
7.97351e-11
4.9758e-11
3.51163e-11
2.68419e-11
2.13601e-11
1.91857e-11
1.95532e-11
2.61556e-11
5.57253e-11
1.84173e-10
6.96131e-10
2.58282e-09
9.03291e-09
1.32542e-10
2.73674e-11
9.72333e-12
5.83608e-12
4.34618e-12
3.42905e-12
3.05603e-12
3.32142e-12
6.48241e-12
2.4828e-11
1.14943e-10
4.98531e-10
1.95881e-09
7.09806e-09
1.55136e-10
2.57445e-11
3.90391e-12
1.00234e-12
5.93567e-13
4.58342e-13
4.32261e-13
7.30933e-13
3.19519e-12
1.8058e-11
9.25229e-11
4.1519e-10
1.67627e-09
6.3205e-09
2.25921e-10
3.68918e-11
4.3144e-12
4.24396e-13
8.55167e-14
5.35939e-14
7.43642e-14
3.50953e-13
2.45752e-12
1.51933e-11
7.98538e-11
3.67971e-10
1.54517e-09
6.1105e-09
3.45948e-10
5.64715e-11
6.13212e-12
4.57327e-13
4.26738e-14
2.23358e-14
4.65241e-14
2.91235e-13
2.14822e-12
1.35971e-11
7.38496e-11
3.56513e-10
1.57813e-09
6.52251e-09
5.44709e-10
8.90047e-11
9.31159e-12
6.65792e-13
1.40995e-13
1.48829e-13
1.87698e-13
4.13849e-13
2.1393e-12
1.32901e-11
7.5478e-11
3.84259e-10
1.77355e-09
7.47082e-09
8.56313e-10
1.41002e-10
1.48204e-11
1.41569e-12
9.11873e-13
1.16544e-12
1.38014e-12
1.73882e-12
3.76081e-12
1.71146e-11
9.40959e-11
4.84771e-10
2.24577e-09
9.33064e-09
1.36283e-09
2.30421e-10
2.68928e-11
5.16732e-12
5.70259e-12
7.63898e-12
9.23628e-12
1.08971e-11
1.49423e-11
3.62683e-11
1.52191e-10
7.14182e-10
3.12592e-09
1.23253e-08
2.2175e-09
4.03446e-10
6.35053e-11
2.49902e-11
3.10466e-11
4.21171e-11
5.22978e-11
6.27963e-11
7.84308e-11
1.27803e-10
3.46677e-10
1.30032e-09
5.05226e-09
1.8322e-08
3.93647e-09
8.73461e-10
2.27318e-10
1.31268e-10
1.51368e-10
2.0051e-10
2.53215e-10
3.13054e-10
3.90684e-10
5.49586e-10
1.04264e-09
2.84889e-09
9.15558e-09
2.94487e-08
7.47253e-09
2.36305e-09
1.01045e-09
7.02065e-10
7.25959e-10
9.00374e-10
1.12226e-09
1.41525e-09
1.8051e-09
2.46269e-09
3.87751e-09
7.9035e-09
1.99364e-08
5.50818e-08
1.67816e-08
7.85434e-09
4.44628e-09
3.30243e-09
3.1329e-09
3.60086e-09
4.31714e-09
5.41485e-09
6.99148e-09
9.54238e-09
1.39265e-08
2.30414e-08
4.4167e-08
1.00243e-07
1.62373e-10
1.04383e-10
7.69544e-11
5.8398e-11
4.65224e-11
3.84768e-11
3.49447e-11
3.45431e-11
3.91957e-11
5.44641e-11
1.02585e-10
2.4917e-10
7.06049e-10
2.08609e-09
4.14724e-11
2.07239e-11
1.44966e-11
1.08733e-11
8.63825e-12
7.13576e-12
6.42832e-12
6.22881e-12
7.10544e-12
1.15631e-11
3.06081e-11
1.05691e-10
3.8469e-10
1.34937e-09
2.04286e-11
5.30948e-12
2.47576e-12
1.67513e-12
1.3114e-12
1.0879e-12
9.85511e-13
9.76016e-13
1.35041e-12
3.74803e-12
1.6092e-11
7.1103e-11
2.89439e-10
1.07298e-09
2.40993e-11
4.3023e-12
7.8545e-13
2.55875e-13
1.64815e-13
1.34365e-13
1.25407e-13
1.54999e-13
4.47177e-13
2.33514e-12
1.23756e-11
5.79513e-11
2.39454e-10
8.89393e-10
3.56205e-11
6.03607e-12
8.10413e-13
1.01873e-13
2.30098e-14
1.39335e-14
1.54824e-14
4.76255e-14
3.08506e-13
1.98013e-12
1.08698e-11
5.12119e-11
2.12299e-10
7.97852e-10
5.35794e-11
8.75203e-12
1.06981e-12
1.04509e-13
1.03928e-14
2.47383e-15
4.60587e-15
3.34457e-14
2.6437e-13
1.74819e-12
9.682e-12
4.61075e-11
1.95022e-10
7.58264e-10
8.07838e-11
1.27476e-11
1.4384e-12
1.24457e-13
1.39536e-14
7.13982e-15
9.68729e-15
3.52693e-14
2.4038e-13
1.57563e-12
8.87251e-12
4.36078e-11
1.93042e-10
7.92144e-10
1.22319e-10
1.87727e-11
1.99014e-12
1.73552e-13
5.20218e-14
5.65893e-14
6.61451e-14
9.22439e-14
2.79852e-13
1.53818e-12
8.74852e-12
4.51486e-11
2.11412e-10
9.10693e-10
1.83164e-10
2.76945e-11
2.90256e-12
3.86023e-13
3.22798e-13
4.15214e-13
4.87321e-13
5.56407e-13
7.89085e-13
2.26236e-12
1.09522e-11
5.63652e-11
2.69352e-10
1.17486e-09
2.74792e-10
4.24373e-11
5.14153e-12
1.55152e-12
1.95359e-12
2.60588e-12
3.11935e-12
3.555e-12