/*--------------------------------*- C++ -*----------------------------------*\
| =========                 |                                                 |
| \\      /  F ield         | OpenFOAM: The Open Source CFD Toolbox           |
|  \\    /   O peration     | Version:  v2106                                 |
|   \\  /    A nd           | Website:  www.openfoam.com                      |
|    \\/     M anipulation  |                                                 |
\*---------------------------------------------------------------------------*/
FoamFile
{
    version     2.0;
    format      ascii;
    arch        "LSB;label=32;scalar=64";
    class       volScalarField;
    location    "0.000205";
    object      T;
}
// * * * * * * * * * * * * * * * * * * * * * * * * * * * * * * * * * * * * * //

dimensions      [0 0 0 1 0 0 0];

internalField   nonuniform List<scalar> 
18109
(
292.345
292.265
292.192
292.092
291.994
291.879
291.755
292.607
292.507
292.422
292.311
292.206
292.089
291.963
292.839
292.713
292.616
292.503
292.398
292.285
292.161
293.104
292.96
292.838
292.712
292.596
292.479
292.355
293.364
293.197
293.056
292.921
292.798
292.677
292.551
293.638
293.462
293.305
293.156
293.019
292.888
292.753
293.927
293.739
293.559
293.394
293.241
293.098
292.956
294.199
294.005
293.806
293.627
293.46
293.306
293.155
292.496
292.406
292.339
292.259
292.187
292.099
291.993
291.861
291.702
291.527
291.347
291.145
290.99
290.821
292.74
292.633
292.561
292.467
292.382
292.285
292.176
292.043
291.88
291.698
291.511
291.333
291.17
291.048
292.944
292.816
292.73
292.636
292.549
292.453
292.343
292.211
292.05
291.87
291.684
291.517
291.36
291.246
293.193
293.05
292.939
292.828
292.725
292.618
292.502
292.369
292.211
292.035
291.853
291.691
291.541
291.441
293.438
293.279
293.147
293.019
292.901
292.783
292.66
292.522
292.364
292.194
292.02
291.865
291.725
291.631
293.7
293.53
293.378
293.23
293.092
292.959
292.823
292.678
292.52
292.354
292.188
292.039
291.907
291.812
293.977
293.79
293.609
293.441
293.285
293.138
292.991
292.84
292.679
292.515
292.355
292.21
292.085
291.985
294.234
294.035
293.832
293.648
293.477
293.319
293.164
293.005
292.842
292.677
292.52
292.375
292.253
292.148
294.474
294.263
294.042
293.846
293.663
293.497
293.336
293.173
293.008
292.841
292.683
292.536
292.413
292.303
294.682
294.466
294.233
294.031
293.841
293.673
293.509
293.345
293.176
293.006
292.845
292.694
292.57
292.454
294.872
294.65
294.41
294.207
294.018
293.85
293.686
293.519
293.347
293.172
293.006
292.848
292.717
292.597
295.033
294.813
294.574
294.381
294.198
294.035
293.873
293.706
293.532
293.352
293.176
293.007
292.867
292.745
295.211
295.001
294.771
294.581
294.4
294.236
294.073
293.903
293.725
293.537
293.352
293.173
293.028
292.902
295.382
295.174
294.955
294.77
294.597
294.438
294.279
294.11
293.931
293.741
293.552
293.371
293.222
293.096
292.237
292.146
292.045
291.979
291.91
291.849
292.393
292.306
292.203
292.115
292.006
291.89
292.25
292.13
292.012
291.939
291.87
291.829
292.169
292.034
291.903
291.821
291.76
291.706
292.073
291.92
291.772
291.673
291.596
291.465
291.986
291.805
291.624
291.483
291.344
291.089
291.883
291.668
291.448
291.257
291.043
290.666
291.77
291.529
291.279
291.033
290.733
290.265
291.635
291.38
291.111
290.813
290.424
289.838
291.485
291.225
290.952
290.615
290.122
289.355
291.314
291.043
290.736
290.326
289.733
288.911
291.144
290.854
290.534
290.075
289.425
288.591
290.954
290.627
290.261
289.734
289.053
288.294
290.8
290.417
289.995
289.445
288.808
288.144
290.539
290.103
289.657
289.116
288.559
288.041
290.663
290.361
289.971
289.411
288.823
288.269
290.893
290.577
290.197
289.677
289.148
288.653
291.097
290.802
290.45
289.999
289.556
289.122
291.296
291.035
290.729
290.354
289.976
289.539
291.481
291.268
291.021
290.725
290.395
289.926
291.671
291.494
291.305
291.058
290.759
290.263
291.857
291.718
291.566
291.365
291.078
290.567
292.037
291.931
291.811
291.635
291.348
290.825
292.213
292.134
292.048
291.892
291.601
291.08
292.369
292.319
292.26
292.123
291.83
291.323
292.528
292.509
292.478
292.353
292.051
291.561
292.695
292.694
292.664
292.525
292.23
291.785
292.882
292.888
292.851
292.716
292.459
292.026
293.063
293.067
293.02
292.897
292.632
292.262
293.248
293.245
293.264
293.166
292.955
292.641
293.383
293.412
293.448
293.392
293.249
293.024
293.544
293.619
293.681
293.67
293.617
293.489
293.73
293.84
293.921
293.949
293.941
293.879
293.93
294.066
294.162
294.221
294.231
294.208
294.132
294.288
294.397
294.471
294.479
294.494
294.324
294.51
294.631
294.709
294.71
294.739
294.504
294.721
294.86
294.939
294.925
294.945
294.673
294.919
295.081
295.168
295.156
295.157
294.843
295.109
295.292
295.399
295.412
295.378
295.018
295.288
295.482
295.613
295.649
295.602
295.208
295.47
295.658
295.79
295.83
295.8
295.389
295.634
295.802
295.924
295.974
295.98
295.576
295.779
295.926
296.027
296.074
296.12
293.187
293.182
293.193
293.155
293.065
292.859
292.891
292.856
292.827
292.732
292.619
292.442
292.625
292.551
292.493
292.372
292.271
292.145
292.372
292.263
292.178
292.053
291.983
291.924
295.598
295.797
295.956
296.107
296.204
296.285
295.445
295.691
295.871
296.063
296.22
296.363
295.302
295.572
295.787
296.017
296.221
296.383
295.133
295.419
295.659
295.912
296.122
296.254
294.94
295.228
295.476
295.721
295.899
295.995
294.719
294.983
295.204
295.396
295.524
295.586
294.457
294.672
294.848
294.967
295.032
295.052
294.166
294.323
294.441
294.494
294.529
294.477
293.862
293.965
294.038
294.05
294.058
293.885
293.564
293.614
293.654
293.646
293.61
293.429
293.283
293.292
293.313
293.298
293.23
293.027
293.011
292.995
292.995
292.934
292.831
292.626
292.771
292.717
292.689
292.593
292.477
292.301
292.535
292.439
292.377
292.248
292.136
292.009
291.451
290.381
287.794
282.184
273.653
291.32
289.89
286.514
280.224
271.776
291.049
289.074
284.982
278.649
271.805
290.472
287.884
283.283
276.788
269.69
289.801
286.72
281.643
274.604
266.855
289.041
285.454
280.045
272.379
264.175
288.415
284.573
278.982
271.136
263.624
287.868
284.09
278.561
270.411
262.232
257.374
287.417
283.871
278.421
269.813
260.405
254.336
287.128
284.007
279.187
271.122
262.041
256.141
286.953
284.357
280.534
273.601
265.156
259.219
257.625
286.957
284.912
281.986
276.285
268.843
262.765
261.109
266.539
286.999
285.355
282.959
278.139
271.814
266.932
267.265
274.21
287.11
285.787
283.578
279.189
273.057
266.604
264.903
264.247
287.358
286.152
283.736
278.618
270.685
261.639
256.58
254.689
287.817
286.482
283.746
278.529
270.752
262.379
255.034
253.605
288.301
286.728
283.645
278.439
271.666
265.817
263.558
261.086
288.596
286.796
283.29
277.748
270.783
264.086
260.979
263.566
288.827
286.873
283.205
276.909
267.844
258.162
253.127
251.338
289.055
286.921
283.214
276.471
266.818
257.209
249.417
247.733
289.325
287.185
283.48
276.854
268.376
261.016
256.508
255.232
289.583
287.535
283.877
277.303
268.488
261.955
261.146
264.1
289.892
287.96
284.491
277.703
267.406
258.601
290.213
288.426
285.443
279.176
269.01
259.242
290.521
289.014
286.78
281.885
273.367
264.614
290.827
289.627
288.121
284.773
278.113
270.527
291.194
290.281
289.277
286.945
281.943
275.861
291.632
290.925
290.16
288.199
283.909
292.166
291.56
290.835
288.593
283.173
292.701
292.166
291.395
288.88
283.476
293.236
292.688
291.84
289.227
284.285
293.695
293.101
291.906
288.574
282.583
294.042
293.388
291.937
287.861
279.741
294.263
293.508
291.769
287.285
278.232
294.442
293.663
291.851
287.406
278.919
294.595
293.845
292.059
287.592
278.414
294.797
294.156
292.545
288.148
278.028
295.042
294.519
293.292
289.34
279.679
295.326
294.937
294.141
290.813
282.602
295.613
295.38
294.92
292.121
285.341
295.9
295.826
295.498
292.95
287.028
296.163
296.205
295.786
293.292
287.769
296.354
296.453
295.887
293.082
286.428
296.444
296.465
295.646
292.545
285.618
296.438
296.338
295.33
291.918
285.88
296.261
295.924
294.335
290.212
283.481
295.914
295.288
293.136
288.015
279.514
295.286
294.28
291.495
285.575
276.268
294.607
293.298
290.171
283.95
275.027
293.912
292.339
289.159
282.796
273.505
293.311
291.6
288.447
281.911
272.018
292.747
291.129
288.358
282.379
273.17
292.333
290.962
288.615
283.375
275.235
292.013
290.891
288.935
284.315
277.072
291.792
290.82
289.087
284.821
278.175
291.591
290.635
288.616
283.979
276.928
292.82
292.724
292.658
292.59
292.535
292.471
292.389
292.28
292.141
291.982
291.813
291.626
291.47
291.314
293.015
292.909
292.841
292.763
292.699
292.626
292.541
292.43
292.288
292.122
291.943
291.767
291.597
291.472
293.165
293.048
292.97
292.893
292.829
292.756
292.671
292.56
292.418
292.253
292.071
291.899
291.73
291.613
293.374
293.242
293.14
293.045
292.964
292.88
292.785
292.671
292.529
292.366
292.185
292.016
291.856
291.746
293.584
293.441
293.318
293.204
293.103
293.003
292.897
292.774
292.63
292.467
292.291
292.127
291.978
291.871
293.814
293.655
293.512
293.377
293.254
293.136
293.014
292.88
292.73
292.568
292.398
292.239
292.098
291.99
294.053
293.877
293.711
293.557
293.415
293.28
293.142
292.997
292.84
292.675
292.508
292.354
292.221
292.113
294.277
294.089
293.906
293.737
293.581
293.433
293.283
293.127
292.962
292.794
292.627
292.474
292.344
292.234
294.484
294.288
294.091
293.914
293.747
293.59
293.431
293.267
293.096
292.923
292.755
292.599
292.469
292.355
294.665
294.468
294.264
294.084
293.913
293.752
293.587
293.417
293.239
293.06
292.888
292.727
292.596
292.48
294.828
294.634
294.428
294.249
294.077
293.913
293.745
293.57
293.388
293.202
293.024
292.856
292.724
292.605
294.977
294.786
294.583
294.41
294.239
294.074
293.905
293.728
293.544
293.353
293.171
292.996
292.858
292.736
295.134
294.948
294.747
294.572
294.401
294.236
294.065
293.887
293.703
293.509
293.324
293.143
293.001
292.874
295.272
295.081
294.889
294.719
294.555
294.393
294.227
294.051
293.869
293.679
293.495
293.32
293.18
293.049
293.316
293.234
293.181
293.122
293.065
292.999
292.927
292.836
292.721
292.587
292.444
292.288
292.138
291.993
293.466
293.362
293.297
293.23
293.176
293.115
293.047
292.954
292.838
292.7
292.545
292.385
292.224
292.105
293.592
293.483
293.405
293.335
293.279
293.221
293.152
293.063
292.95
292.813
292.653
292.495
292.334
292.215
293.755
293.635
293.536
293.453
293.385
293.318
293.244
293.154
293.04
292.905
292.748
292.592
292.436
292.314
293.917
293.793
293.682
293.58
293.494
293.414
293.331
293.236
293.122
292.987
292.832
292.68
292.53
292.408
294.089
293.957
293.837
293.721
293.619
293.522
293.426
293.321
293.201
293.064
292.911
292.762
292.616
292.493
294.259
294.124
293.995
293.871
293.755
293.642
293.532
293.415
293.284
293.141
292.988
292.839
292.696
292.571
294.413
294.28
294.148
294.02
293.895
293.77
293.646
293.516
293.374
293.224
293.069
292.917
292.774
292.643
294.554
294.422
294.288
294.159
294.029
293.897
293.763
293.621
293.468
293.309
293.148
292.992
292.847
292.712
294.678
294.545
294.412
294.285
294.153
294.018
293.875
293.722
293.558
293.39
293.223
293.061
292.915
292.781
294.788
294.652
294.521
294.397
294.268
294.131
293.979
293.818
293.646
293.47
293.296
293.127
292.984
292.851
294.881
294.741
294.61
294.488
294.358
294.222
294.072
293.907
293.732
293.552
293.375
293.199
293.053
292.914
294.943
294.806
294.681
294.561
294.44
294.304
294.154
293.992
293.82
293.637
293.459
293.276
293.127
292.987
294.95
294.832
294.724
294.612
294.495
294.363
294.221
294.067
293.904
293.732
293.565
293.39
293.244
293.083
294.282
294.211
294.147
294.085
294.017
293.942
293.876
293.786
293.697
293.582
293.451
293.305
293.146
292.981
294.427
294.328
294.265
294.189
294.127
294.056
293.99
293.897
293.797
293.673
293.53
293.376
293.207
293.07
294.552
294.437
294.369
294.291
294.229
294.159
294.094
294.004
293.905
293.781
293.634
293.482
293.315
293.183
294.682
294.561
294.481
294.394
294.329
294.256
294.185
294.09
293.985
293.859
293.713
293.564
293.404
293.266
294.811
294.688
294.596
294.496
294.427
294.346
294.272
294.174
294.066
293.935
293.789
293.639
293.483
293.341
294.936
294.816
294.717
294.612
294.533
294.441
294.357
294.251
294.135
293.999
293.851
293.701
293.546
293.398
295.053
294.942
294.837
294.729
294.636
294.532
294.437
294.321
294.197
294.055
293.904
293.75
293.594
293.44
295.163
295.058
294.95
294.841
294.737
294.623
294.511
294.382
294.248
294.099
293.945
293.788
293.63
293.473
295.255
295.152
295.045
294.934
294.821
294.697
294.569
294.428
294.284
294.128
293.968
293.807
293.645
293.484
295.314
295.22
295.117
295.008
294.889
294.756
294.613
294.458
294.3
294.136
293.971
293.804
293.638
293.476
295.323
295.244
295.147
295.042
294.923
294.787
294.634
294.469
294.3
294.129
293.957
293.786
293.618
293.465
295.287
295.22
295.129
295.033
294.921
294.791
294.638
294.472
294.3
294.122
293.941
293.759
293.588
293.442
295.201
295.147
295.078
294.996
294.9
294.781
294.64
294.475
294.302
294.118
293.931
293.738
293.563
293.421
295.077
295.049
295
294.931
294.851
294.75
294.625
294.48
294.317
294.143
293.963
293.774
293.599
293.399
295.702
295.662
295.611
295.558
295.506
295.448
295.398
295.326
295.256
295.152
295.043
294.907
294.748
294.543
295.814
295.75
295.697
295.636
295.586
295.525
295.469
295.39
295.314
295.204
295.087
294.943
294.794
294.628
295.907
295.829
295.777
295.709
295.663
295.604
295.551
295.476
295.399
295.288
295.169
295.026
294.867
294.713
295.993
295.907
295.853
295.78
295.734
295.671
295.615
295.537
295.452
295.339
295.218
295.081
294.928
294.778
296.062
295.979
295.924
295.848
295.805
295.742
295.686
295.607
295.52
295.404
295.279
295.139
294.984
294.828
296.131
296.059
296
295.921
295.876
295.808
295.75
295.668
295.575
295.455
295.324
295.178
295.018
294.853
296.192
296.125
296.062
295.985
295.937
295.864
295.802
295.717
295.62
295.499
295.365
295.216
295.052
294.879
296.239
296.178
296.116
296.04
295.988
295.909
295.841
295.752
295.648
295.524
295.384
295.232
295.059
294.876
296.248
296.195
296.139
296.065
296.011
295.929
295.854
295.761
295.65
295.524
295.379
295.224
295.046
294.858
296.232
296.184
296.135
296.062
296.009
295.924
295.844
295.747
295.633
295.504
295.354
295.193
295.004
294.808
296.184
296.146
296.108
296.041
295.987
295.901
295.814
295.711
295.589
295.454
295.295
295.128
294.933
294.743
296.086
296.061
296.04
295.989
295.938
295.86
295.77
295.663
295.534
295.392
295.223
295.045
294.845
294.65
295.951
295.937
295.938
295.916
295.868
295.801
295.711
295.605
295.467
295.316
295.134
294.939
294.727
294.542
295.781
295.776
295.803
295.803
295.772
295.719
295.637
295.54
295.408
295.263
295.086
294.883
294.658
294.394
297.867
297.823
297.795
297.754
297.712
297.655
297.595
297.516
297.435
297.332
297.245
297.136
297.015
296.849
297.912
297.86
297.825
297.777
297.737
297.683
297.623
297.546
297.464
297.36
297.261
297.139
297.022
296.879
297.953
297.898
297.869
297.817
297.782
297.729
297.672
297.597
297.516
297.415
297.312
297.183
297.054
296.913
297.992
297.934
297.907
297.854
297.82
297.767
297.709
297.633
297.548
297.442
297.331
297.201
297.07
296.93
298.013
297.964
297.938
297.885
297.854
297.802
297.745
297.669
297.582
297.474
297.359
297.226
297.09
296.947
298.031
297.996
297.97
297.917
297.886
297.833
297.776
297.699
297.61
297.501
297.381
297.245
297.099
296.946
298.029
298.009
297.984
297.933
297.904
297.853
297.796
297.721
297.631
297.52
297.396
297.255
297.101
296.938
298.023
298.009
297.986
297.936
297.909
297.859
297.803
297.729
297.637
297.525
297.395
297.249
297.081
296.904
297.984
297.977
297.97
297.926
297.9
297.849
297.793
297.72
297.628
297.516
297.382
297.231
297.055
296.869
297.92
297.916
297.929
297.897
297.872
297.821
297.764
297.692
297.598
297.483
297.342
297.183
296.991
296.794
297.831
297.831
297.863
297.843
297.823
297.772
297.712
297.639
297.539
297.42
297.271
297.102
296.904
296.705
297.695
297.705
297.764
297.76
297.751
297.705
297.645
297.571
297.464
297.34
297.18
297.001
296.79
296.581
297.528
297.568
297.639
297.65
297.655
297.619
297.556
297.481
297.361
297.225
297.051
296.855
296.637
296.42
297.318
297.395
297.484
297.516
297.534
297.508
297.449
297.378
297.255
297.12
296.944
296.736
296.495
296.211
300.433
300.359
300.346
300.309
300.271
300.215
300.155
300.081
300.011
299.935
299.874
299.804
299.746
299.677
300.407
300.337
300.317
300.276
300.236
300.183
300.126
300.056
299.986
299.909
299.84
299.765
299.706
299.631
300.397
300.332
300.31
300.268
300.229
300.179
300.124
300.06
299.991
299.915
299.841
299.761
299.691
299.614
300.391
300.328
300.302
300.259
300.221
300.172
300.12
300.056
299.987
299.91
299.83
299.744
299.664
299.582
300.378
300.324
300.299
300.257
300.221
300.175
300.124
300.063
299.993
299.915
299.831
299.741
299.65
299.559
300.364
300.318
300.292
300.251
300.217
300.174
300.125
300.064
299.994
299.914
299.826
299.729
299.626
299.522
300.334
300.296
300.274
300.238
300.209
300.17
300.124
300.066
299.996
299.914
299.82
299.716
299.601
299.484
300.3
300.267
300.249
300.217
300.193
300.159
300.115
300.059
299.989
299.903
299.802
299.689
299.561
299.427
300.243
300.22
300.214
300.187
300.167
300.136
300.095
300.041
299.97
299.883
299.776
299.656
299.516
299.371
300.174
300.157
300.167
300.148
300.13
300.101
300.06
300.007
299.934
299.842
299.728
299.598
299.444
299.287
300.092
300.081
300.106
300.094
300.078
300.049
300.006
299.952
299.874
299.778
299.658
299.52
299.361
299.198
299.982
299.976
300.021
300.018
300.007
299.981
299.936
299.88
299.796
299.694
299.564
299.418
299.245
299.076
299.851
299.875
299.919
299.921
299.914
299.893
299.843
299.783
299.688
299.577
299.437
299.277
299.104
298.915
299.674
299.727
299.786
299.802
299.8
299.786
299.736
299.679
299.577
299.462
299.315
299.143
298.945
298.721
302.758
302.676
302.653
302.619
302.587
302.544
302.496
302.437
302.377
302.315
302.267
302.226
302.21
302.211
302.695
302.626
302.601
302.564
302.53
302.488
302.44
302.382
302.322
302.261
302.209
302.166
302.147
302.132
302.664
302.6
302.573
302.537
302.503
302.462
302.416
302.361
302.305
302.248
302.197
302.154
302.128
302.114
302.63
302.571
302.543
302.507
302.474
302.435
302.391
302.34
302.285
302.229
302.177
302.129
302.093
302.071
302.596
302.545
302.519
302.488
302.458
302.424
302.384
302.336
302.283
302.227
302.172
302.119
302.073
302.039
302.565
302.52
302.498
302.47
302.444
302.413
302.377
302.332
302.281
302.223
302.163
302.103
302.046
301.998
302.53
302.493
302.477
302.454
302.433
302.407
302.374
302.332
302.281
302.221
302.156
302.087
302.019
301.958
302.5
302.468
302.459
302.439
302.421
302.397
302.366
302.325
302.274
302.211
302.139
302.062
301.982
301.908
302.467
302.44
302.439
302.423
302.405
302.382
302.351
302.31
302.257
302.191
302.113
302.029
301.94
301.857
302.439
302.412
302.417
302.404
302.384
302.359
302.325
302.282
302.224
302.153
302.069
301.979
301.881
301.791
302.409
302.383
302.39
302.376
302.354
302.325
302.285
302.237
302.174
302.099
302.01
301.916
301.814
301.721
302.379
302.351
302.357
302.34
302.313
302.279
302.232
302.178
302.107
302.026
301.931
301.831
301.724
301.628
302.336
302.319
302.314
302.29
302.257
302.219
302.164
302.104
302.025
301.938
301.838
301.731
301.624
301.512
302.281
302.266
302.257
302.228
302.191
302.151
302.09
302.026
301.941
301.85
301.744
301.629
301.51
301.388
304.595
304.51
304.467
304.43
304.408
304.387
304.367
304.343
304.314
304.281
304.254
304.234
304.235
304.239
304.555
304.471
304.426
304.384
304.357
304.332
304.308
304.279
304.247
304.213
304.185
304.166
304.165
304.165
304.514
304.44
304.394
304.353
304.325
304.299
304.275
304.247
304.217
304.185
304.159
304.141
304.137
304.138
304.484
304.413
304.367
304.325
304.297
304.272
304.249
304.222
304.193
304.162
304.134
304.112
304.101
304.099
304.458
304.392
304.348
304.31
304.285
304.263
304.243
304.22
304.193
304.162
304.131
304.104
304.084
304.076
304.44
304.377
304.337
304.301
304.277
304.258
304.24
304.22
304.194
304.164
304.129
304.095
304.065
304.048
304.427
304.369
304.332
304.299
304.277
304.26
304.244
304.227
304.203
304.171
304.132
304.092
304.052
304.023
304.423
304.367
304.333
304.301
304.279
304.262
304.247
304.231
304.208
304.176
304.132
304.085
304.035
303.994
304.424
304.369
304.338
304.305
304.281
304.262
304.246
304.23
304.205
304.171
304.124
304.07
304.014
303.965
304.43
304.376
304.345
304.308
304.278
304.255
304.234
304.214
304.185
304.147
304.096
304.04
303.979
303.927
304.44
304.385
304.349
304.307
304.269
304.237
304.207
304.18
304.146
304.104
304.051
303.994
303.932
303.881
304.448
304.391
304.35
304.3
304.25
304.208
304.166
304.13
304.088
304.041
303.986
303.928
303.865
303.815
304.445
304.389
304.343
304.282
304.222
304.168
304.115
304.069
304.019
303.968
303.909
303.85
303.788
303.732
304.447
304.369
304.316
304.251
304.183
304.124
304.061
304.007
303.948
303.892
303.829
303.766
303.698
303.651
305.877
305.784
305.714
305.664
305.633
305.615
305.607
305.604
305.603
305.601
305.603
305.602
305.615
305.61
305.866
305.767
305.696
305.64
305.604
305.58
305.567
305.559
305.553
305.547
305.544
305.543
305.552
305.56
305.835
305.746
305.674
305.618
305.582
305.557
305.543
305.533
305.527
305.52
305.517
305.515
305.522
305.528
305.826
305.736
305.665
305.608
305.571
305.544
305.528
305.518
305.51
305.503
305.496
305.492
305.494
305.499
305.819
305.732
305.662
305.606
305.569
305.544
305.529
305.519
305.511
305.504
305.496
305.489
305.487
305.487
305.824
305.736
305.667
305.61
305.573
305.548
305.533
305.525
305.519
305.512
305.503
305.493
305.484
305.479
305.837
305.749
305.68
305.622
305.584
305.561
305.55
305.545
305.542
305.537
305.526
305.512
305.496
305.484
305.856
305.767
305.699
305.64
305.604
305.583
305.574
305.573
305.572
305.568
305.554
305.537
305.514
305.495
305.879
305.79
305.724
305.665
305.629
305.608
305.599
305.6
305.6
305.596
305.582
305.562
305.535
305.509
305.904
305.815
305.751
305.69
305.651
305.628
305.617
305.616
305.615
305.611
305.596
305.575
305.545
305.516
305.929
305.841
305.776
305.712
305.668
305.64
305.623
305.618
305.615
305.611
305.596
305.576
305.546
305.519
305.95
305.864
305.798
305.73
305.679
305.645
305.621
305.611
305.604
305.598
305.583
305.563
305.532
305.507
305.963
305.877
305.81
305.738
305.681
305.641
305.611
305.595
305.582
305.571
305.554
305.536
305.508
305.484
305.982
305.87
305.808
305.737
305.677
305.632
305.595
305.572
305.551
305.535
305.515
305.497
305.466
305.461
306.779
306.688
306.603
306.536
306.483
306.446
306.423
306.412
306.41
306.411
306.421
306.43
306.454
306.459
306.781
306.685
306.6
306.529
306.472
306.431
306.404
306.388
306.382
306.381
306.388
306.399
306.418
306.432
306.762
306.672
306.586
306.517
306.461
306.419
306.392
306.376
306.369
306.367
306.373
306.382
306.399
306.409
306.764
306.672
306.589
306.518
306.461
306.418
306.388
306.37
306.361
306.358
306.362
306.37
306.384
306.394
306.767
306.677
306.593
306.522
306.465
306.422
306.393
306.375
306.366
306.363
306.366
306.373
306.383
306.391
306.781
306.689
306.606
306.533
306.476
306.433
306.404
306.387
306.378
306.376
306.379
306.384
306.389
306.393
306.801
306.708
306.626
306.552
306.495
306.454
306.427
306.412
306.404
306.404
306.406
306.409
306.409
306.408
306.825
306.731
306.65
306.576
306.522
306.482
306.457
306.445
306.439
306.439
306.439
306.44
306.434
306.43
306.849
306.756
306.679
306.606
306.555
306.518
306.495
306.486
306.481
306.482
306.481
306.479
306.469
306.459
306.873
306.783
306.709
306.639
306.59
306.556
306.536
306.53
306.525
306.526
306.523
306.519
306.505
306.488
306.896
306.809
306.74
306.672
306.626
306.593
306.575
306.569
306.565
306.565
306.561
306.554
306.538
306.518
306.915
306.832
306.768
306.703
306.658
306.627
306.609
306.602
306.597
306.596
306.588
306.58
306.561
306.538
306.929
306.85
306.791
306.73
306.686
306.655
306.635
306.626
306.618
306.614
306.604
306.595
306.578
306.552
306.946
306.85
306.803
306.745
306.704
306.674
306.652
306.641
306.63
306.625
306.612
306.601
306.578
306.562
307.457
307.378
307.293
307.218
307.144
307.084
307.033
306.992
306.965
306.943
306.937
306.931
306.939
306.943
307.451
307.371
307.288
307.212
307.137
307.075
307.022
306.98
306.952
306.931
306.925
306.92
306.929
306.939
307.431
307.354
307.27
307.196
307.124
307.065
307.014
306.975
306.948
306.928
306.922
306.918
306.927
306.935
307.426
307.349
307.268
307.194
307.124
307.063
307.012
306.973
306.945
306.926
306.919
306.916
306.924
306.933
307.423
307.346
307.267
307.194
307.125
307.066
307.016
306.978
306.951
306.933
306.925
306.923
306.93
306.938
307.428
307.35
307.273
307.199
307.132
307.073
307.024
306.987
306.96
306.943
306.935
306.933
306.938
306.944
307.436
307.358
307.284
307.21
307.145
307.088
307.04
307.005
306.978
306.963
306.953
306.951
306.953
306.957
307.446
307.37
307.298
307.226
307.163
307.108
307.062
307.029
307.002
306.987
306.976
306.972
306.97
306.971
307.458
307.383
307.315
307.245
307.187
307.134
307.091
307.06
307.034
307.02
307.007
307.001
306.993
306.989
307.471
307.398
307.335
307.268
307.214
307.165
307.125
307.095
307.07
307.055
307.04
307.031
307.018
307.007
307.483
307.414
307.356
307.294
307.244
307.199
307.161
307.133
307.108
307.092
307.073
307.061
307.044
307.027
307.496
307.429
307.377
307.319
307.274
307.232
307.197
307.17
307.144
307.126
307.104
307.087
307.064
307.043
307.509
307.446
307.401
307.347
307.306
307.266
307.232
307.205
307.177
307.155
307.13
307.109
307.084
307.054
307.521
307.453
307.414
307.364
307.327
307.291
307.258
307.232
307.203
307.181
307.152
307.126
307.093
307.063
307.953
307.89
307.815
307.743
307.665
307.593
307.523
307.458
307.404
307.354
307.317
307.285
307.269
307.248
307.927
307.866
307.793
307.721
307.643
307.571
307.501
307.438
307.386
307.341
307.31
307.283
307.269
307.254
307.893
307.832
307.758
307.688
307.614
307.547
307.483
307.426
307.379
307.339
307.31
307.286
307.273
307.26
307.868
307.808
307.737
307.669
307.598
307.531
307.469
307.415
307.371
307.333
307.307
307.285
307.275
307.265
307.845
307.784
307.715
307.649
307.581
307.518
307.46
307.41
307.368
307.334
307.309
307.29
307.28
307.273
307.826
307.765
307.7
307.634
307.57
307.509
307.453
307.405
307.364
307.333
307.309
307.293
307.283
307.277
307.811
307.75
307.688
307.624
307.563
307.505
307.451
307.406
307.366
307.337
307.313
307.298
307.288
307.282
307.8
307.739
307.68
307.618
307.56
307.504
307.452
307.408
307.369
307.341
307.317
307.303
307.289
307.284
307.79
307.731
307.676
307.616
307.561
307.507
307.457
307.415
307.376
307.348
307.323
307.308
307.292
307.286
307.785
307.726
307.674
307.617
307.565
307.512
307.464
307.423
307.385
307.356
307.329
307.312
307.292
307.284
307.782
307.725
307.677
307.621
307.572
307.522
307.474
307.434
307.395
307.365
307.336
307.316
307.292
307.281
307.781
307.724
307.678
307.624
307.578
307.529
307.483
307.443
307.404
307.373
307.341
307.318
307.29
307.274
307.784
307.728
307.684
307.632
307.586
307.539
307.494
307.453
307.412
307.379
307.344
307.317
307.288
307.264
307.784
307.722
307.68
307.629
307.586
307.542
307.498
307.458
307.417
307.383
307.347
307.315
307.279
307.249
308.277
308.23
308.17
308.11
308.043
307.976
307.907
307.838
307.775
307.714
307.659
307.607
307.566
307.524
308.23
308.185
308.125
308.065
307.997
307.93
307.862
307.796
307.736
307.679
307.631
307.585
307.551
307.515
308.178
308.132
308.07
308.011
307.946
307.883
307.821
307.762
307.709
307.658
307.615
307.575
307.544
307.514
308.131
308.084
308.024
307.966
307.903
307.843
307.784
307.728
307.679
307.633
307.595
307.56
307.534
307.509
308.087
308.037
307.978
307.921
307.861
307.805
307.751
307.7
307.656
307.615
307.581
307.551
307.528
307.506
308.044
307.993
307.937
307.881
307.825
307.771
307.719
307.673
307.631
307.594
307.563
307.537
307.517
307.499
308.006
307.953
307.9
307.845
307.792
307.741
307.692
307.649
307.61
307.577
307.548
307.525
307.506
307.492
307.971
307.918
307.867
307.813
307.763
307.714
307.667
307.626
307.588
307.558
307.529
307.51
307.49
307.48
307.941
307.887
307.839
307.787
307.738
307.69
307.645
307.606
307.569
307.539
307.512
307.493
307.474
307.467
307.915
307.862
307.814
307.763
307.716
307.67
307.625
307.587
307.55
307.521
307.493
307.475
307.455
307.449
307.895
307.841
307.795
307.745
307.699
307.652
307.608
307.57
307.532
307.503
307.474
307.456
307.435
307.43
307.878
307.823
307.777
307.726
307.681
307.635
307.591
307.552
307.514
307.484
307.455
307.435
307.413
307.407
307.866
307.811
307.767
307.715
307.669
307.622
307.577
307.536
307.497
307.466
307.435
307.414
307.391
307.381
307.85
307.789
307.746
307.694
307.65
307.604
307.56
307.519
307.48
307.447
307.416
307.392
307.366
307.35
308.487
308.452
308.407
308.361
308.31
308.259
308.204
308.148
308.093
308.036
307.982
307.93
307.882
307.834
308.422
308.391
308.343
308.297
308.244
308.191
308.137
308.081
308.028
307.976
307.925
307.878
307.836
307.796
308.357
308.323
308.273
308.227
308.175
308.123
308.072
308.02
307.973
307.926
307.882
307.841
307.805
307.769
308.295
308.258
308.208
308.161
308.11
308.059
308.01
307.962
307.918
307.875
307.836
307.8
307.769
307.738
308.236
308.194
308.144
308.096
308.047
307.998
307.952
307.908
307.868
307.831
307.798
307.766
307.74
307.714
308.178
308.133
308.083
308.035
307.987
307.941
307.897
307.857
307.82
307.786
307.757
307.73
307.708
307.687
308.124
308.075
308.027
307.978
307.932
307.887
307.846
307.809
307.775
307.745
307.719
307.697
307.678
307.662
308.072
308.022
307.974
307.926
307.881
307.838
307.798
307.763
307.731
307.705
307.681
307.663
307.646
307.635
308.026
307.974
307.928
307.879
307.835
307.793
307.755
307.721
307.691
307.667
307.645
307.63
307.615
307.608
307.985
307.932
307.886
307.837
307.794
307.752
307.714
307.682
307.652
307.63
307.609
307.596
307.583
307.58
307.948
307.894
307.849
307.8
307.757
307.716
307.678
307.646
307.616
307.594
307.575
307.563
307.552
307.551
307.916
307.862
307.816
307.767
307.723
307.682
307.644
307.612
307.582
307.56
307.541
307.53
307.519
307.521
307.89
307.835
307.789
307.74
307.695
307.652
307.614
307.581
307.55
307.529
307.51
307.499
307.489
307.49
307.861
307.802
307.758
307.708
307.665
307.622
307.584
307.551
307.521
307.499
307.48
307.468
307.457
307.454