/*--------------------------------*- C++ -*----------------------------------*\
| =========                 |                                                 |
| \\      /  F ield         | OpenFOAM: The Open Source CFD Toolbox           |
|  \\    /   O peration     | Version:  v2106                                 |
|   \\  /    A nd           | Website:  www.openfoam.com                      |
|    \\/     M anipulation  |                                                 |
\*---------------------------------------------------------------------------*/
FoamFile
{
    version     2.0;
    format      ascii;
    arch        "LSB;label=32;scalar=64";
    class       volVectorField;
    location    "0.000143";
    object      U;
}
// * * * * * * * * * * * * * * * * * * * * * * * * * * * * * * * * * * * * * //

dimensions      [0 1 -1 0 0 0 0];

internalField   nonuniform List<vector> 
18259
(
(0.00057079 0.0010798 -0.125617)
(0.000403382 0.00107304 -0.1256)
(0.000239187 0.00106411 -0.125589)
(7.47785e-05 0.00105752 -0.125585)
(-8.39709e-05 0.00105681 -0.125585)
(-0.000246236 0.00106079 -0.125587)
(-0.000407562 0.0010676 -0.125597)
(-0.000571364 0.00107241 -0.125613)
(-0.000736646 0.00108575 -0.125639)
(-0.000905303 0.0010617 -0.125665)
(-0.0010779 0.00108371 -0.125671)
(0.00089994 0.00091014 -0.125654)
(0.000734304 0.000925226 -0.125622)
(0.000570518 0.000912988 -0.125589)
(0.000404538 0.000906798 -0.125566)
(0.00023975 0.000900137 -0.125547)
(7.38097e-05 0.000895565 -0.125539)
(-8.46609e-05 0.000895517 -0.12554)
(-0.000248392 0.000898668 -0.125547)
(-0.000409972 0.000904457 -0.125566)
(-0.000571875 0.000909572 -0.125588)
(-0.000731259 0.000920681 -0.125619)
(-0.000892641 0.00090456 -0.125648)
(-0.00105739 0.000916527 -0.125663)
(0.00109459 0.000752993 -0.125643)
(0.000915313 0.000749298 -0.125621)
(0.000744196 0.000759736 -0.125576)
(0.000573881 0.000749652 -0.125544)
(0.000405004 0.000744265 -0.125519)
(0.000238805 0.000738151 -0.1255)
(7.2903e-05 0.000734675 -0.125493)
(-8.38752e-05 0.000735186 -0.125493)
(-0.000247915 0.000738533 -0.125502)
(-0.000411138 0.00074474 -0.125521)
(-0.000576256 0.000749756 -0.125546)
(-0.000742224 0.000759263 -0.125577)
(-0.000909216 0.000747718 -0.125619)
(-0.00108353 0.000750744 -0.125638)
(0.00108153 0.000584839 -0.125613)
(0.000904324 0.000587803 -0.125586)
(0.000734256 0.00059239 -0.125542)
(0.000565177 0.000584319 -0.125508)
(0.000398352 0.000579326 -0.125482)
(0.000234499 0.000574442 -0.125462)
(7.1419e-05 0.000571901 -0.125455)
(-8.13773e-05 0.000572895 -0.125456)
(-0.000242871 0.000576442 -0.125465)
(-0.00040411 0.000582309 -0.125486)
(-0.0005678 0.000587583 -0.125512)
(-0.00073313 0.000595561 -0.125545)
(-0.000899454 0.000589896 -0.125587)
(-0.00107221 0.000585898 -0.12561)
(0.00107715 0.000416034 -0.125594)
(0.000900008 0.000420697 -0.125562)
(0.000729824 0.000422684 -0.125515)
(0.000560671 0.000416978 -0.12548)
(0.000394639 0.00041325 -0.125452)
(0.000232074 0.000409815 -0.125431)
(7.07145e-05 0.000408115 -0.125422)
(-7.88655e-05 0.000409397 -0.125423)
(-0.000238932 0.000412744 -0.125433)
(-0.000399406 0.00041767 -0.125456)
(-0.000563064 0.000422053 -0.125485)
(-0.000729318 0.000427913 -0.125519)
(-0.000896304 0.000425117 -0.125564)
(-0.00106976 0.00041921 -0.125594)
(0.00107073 0.000248479 -0.125583)
(0.00089533 0.000252055 -0.125542)
(0.00072475 0.000252483 -0.125496)
(0.000556173 0.000249084 -0.12546)
(0.000390927 0.000246806 -0.12543)
(0.000229748 0.000244916 -0.125408)
(7.005e-05 0.000243998 -0.125399)
(-7.62891e-05 0.000245394 -0.1254)
(-0.000234982 0.000248242 -0.12541)
(-0.000394615 0.000251883 -0.125433)
(-0.000558094 0.000255016 -0.125464)
(-0.000724571 0.000258638 -0.125499)
(-0.000892465 0.000257565 -0.125544)
(-0.00106486 0.000252636 -0.125584)
(0.00106614 7.99292e-05 -0.125581)
(0.000892601 8.16241e-05 -0.125534)
(0.000722519 8.2094e-05 -0.125489)
(0.000554486 8.14189e-05 -0.125452)
(0.000389703 8.10955e-05 -0.125422)
(0.000229253 8.08507e-05 -0.125399)
(7.06351e-05 8.05858e-05 -0.125389)
(-7.45791e-05 8.121e-05 -0.125389)
(-0.000232518 8.22366e-05 -0.1254)
(-0.000392032 8.33811e-05 -0.125424)
(-0.000555679 8.42495e-05 -0.125455)
(-0.000722509 8.51861e-05 -0.125491)
(-0.000890783 8.46631e-05 -0.125537)
(-0.0010622 8.25218e-05 -0.125581)
(0.00106687 -8.54619e-05 -0.125582)
(0.000893133 -8.63046e-05 -0.125537)
(0.000723231 -8.54665e-05 -0.125492)
(0.000555478 -8.30302e-05 -0.125456)
(0.000391022 -8.0463e-05 -0.125426)
(0.000230636 -7.79745e-05 -0.125403)
(7.21729e-05 -7.64708e-05 -0.125393)
(-7.44598e-05 -7.55334e-05 -0.125392)
(-0.000232374 -7.5686e-05 -0.125402)
(-0.000392363 -7.69054e-05 -0.125425)
(-0.000556289 -7.85544e-05 -0.125455)
(-0.000723448 -8.08338e-05 -0.125491)
(-0.000892136 -8.2193e-05 -0.125537)
(-0.00106405 -8.28288e-05 -0.125582)
(0.00107103 -0.000252587 -0.125587)
(0.000896314 -0.000256588 -0.125547)
(0.000726546 -0.00025671 -0.125503)
(0.000558588 -0.000252514 -0.125469)
(0.000393945 -0.000248598 -0.125439)
(0.000233022 -0.000244703 -0.125417)
(7.36361e-05 -0.000242365 -0.125407)
(-7.55093e-05 -0.000241935 -0.125406)
(-0.000234236 -0.000243563 -0.125415)
(-0.000395004 -0.000246739 -0.125436)
(-0.000559395 -0.00025012 -0.125465)
(-0.000726986 -0.000254545 -0.1255)
(-0.000895877 -0.000254944 -0.125545)
(-0.00106892 -0.000252174 -0.125585)
(0.00107682 -0.000417357 -0.125598)
(0.000901229 -0.000422747 -0.125569)
(0.000732196 -0.000424954 -0.125525)
(0.000563847 -0.000419155 -0.125492)
(0.000398576 -0.000414687 -0.125465)
(0.000236677 -0.000409962 -0.125444)
(7.58459e-05 -0.000407212 -0.125434)
(-7.69617e-05 -0.00040695 -0.125432)
(-0.000237011 -0.000409077 -0.12544)
(-0.000399123 -0.000413297 -0.12546)
(-0.000564572 -0.000417483 -0.125487)
(-0.000732933 -0.000423731 -0.12552)
(-0.000901638 -0.000422128 -0.125565)
(-0.00107621 -0.000417945 -0.125596)
(0.00107948 -0.00058285 -0.125615)
(0.000904812 -0.000586752 -0.125592)
(0.000736366 -0.000592183 -0.125551)
(0.000568881 -0.000584586 -0.125521)
(0.000403194 -0.000579858 -0.125495)
(0.000240369 -0.000574495 -0.125475)
(7.80188e-05 -0.000571405 -0.125466)
(-7.86602e-05 -0.000571229 -0.125464)
(-0.000240147 -0.00057369 -0.125471)
(-0.000403513 -0.000578689 -0.125489)
(-0.000569606 -0.000583367 -0.125514)
(-0.000737428 -0.000591483 -0.125545)
(-0.000905849 -0.000586571 -0.125587)
(-0.00108001 -0.000583819 -0.125612)
(0.00109035 -0.000747813 -0.125642)
(0.000914372 -0.000744741 -0.125624)
(0.000744997 -0.000756441 -0.125583)
(0.000576706 -0.000747384 -0.125553)
(0.000409447 -0.000742898 -0.125529)
(0.000244797 -0.000737019 -0.125511)
(8.0338e-05 -0.000733444 -0.125502)
(-8.03905e-05 -0.000733249 -0.1255)
(-0.000244109 -0.000736126 -0.125506)
(-0.000409554 -0.000741715 -0.125522)
(-0.000577512 -0.00074623 -0.125546)
(-0.000746575 -0.000755775 -0.125576)
(-0.000916279 -0.000744411 -0.125619)
(-0.0010923 -0.000748336 -0.125639)
(0.0010637 -0.000914677 -0.125666)
(0.000897594 -0.000902473 -0.125651)
(0.00073375 -0.000918878 -0.125623)
(0.000571943 -0.000908123 -0.125593)
(0.00040798 -0.000903275 -0.125571)
(0.000245165 -0.000897543 -0.125552)
(8.13315e-05 -0.00089352 -0.125544)
(-8.04713e-05 -0.000893111 -0.125542)
(-0.000243993 -0.000896493 -0.125548)
(-0.000407887 -0.000901898 -0.125565)
(-0.000572884 -0.000906718 -0.125587)
(-0.000735642 -0.000917869 -0.125618)
(-0.000899678 -0.000901748 -0.125648)
(-0.00106566 -0.000914558 -0.125665)
(0.00108487 -0.00108366 -0.125672)
(0.000909991 -0.0010605 -0.125665)
(0.000738492 -0.00108495 -0.12564)
(0.000570687 -0.0010718 -0.125613)
(0.000405195 -0.00106715 -0.125597)
(0.00024308 -0.00106016 -0.125587)
(8.11344e-05 -0.00105485 -0.125583)
(-7.92877e-05 -0.00105398 -0.125582)
(-0.00024163 -0.00105897 -0.125584)
(-0.000405104 -0.00106602 -0.125594)
(-0.000571954 -0.00107124 -0.125609)
(-0.000740735 -0.00108531 -0.125637)
(-0.000912687 -0.00106143 -0.125664)
(-0.00108824 -0.00108484 -0.125673)
(0.00120165 0.001204 -0.139132)
(0.00101642 0.00118889 -0.139125)
(0.000832823 0.00122312 -0.139096)
(0.000648214 0.00121651 -0.139064)
(0.000462698 0.00121657 -0.139044)
(0.000278052 0.00121191 -0.13903)
(9.16953e-05 0.00120694 -0.139023)
(-9.26098e-05 0.00120413 -0.139021)
(-0.000276201 0.00120392 -0.139022)
(-0.000458273 0.0012043 -0.139031)
(-0.000640191 0.00120159 -0.139047)
(-0.000821131 0.0012072 -0.139076)
(-0.00100166 0.00117533 -0.139102)
(-0.00118641 0.00119123 -0.139109)
(0.00118784 0.00102552 -0.139125)
(0.00101076 0.00101984 -0.139107)
(0.000834995 0.00104727 -0.139073)
(0.000656519 0.00104445 -0.139036)
(0.000471051 0.00104605 -0.139009)
(0.00028296 0.00104464 -0.138984)
(9.05641e-05 0.00104205 -0.138973)
(-9.66037e-05 0.00104004 -0.138971)
(-0.00028551 0.00103793 -0.138978)
(-0.000469556 0.00103556 -0.138998)
(-0.000649836 0.00103094 -0.139021)
(-0.000823485 0.00103196 -0.139055)
(-0.000995207 0.00100447 -0.139086)
(-0.00117061 0.00101042 -0.139103)
(0.00122398 0.000844956 -0.139099)
(0.00103862 0.000849093 -0.139077)
(0.000857327 0.000871965 -0.139028)
(0.000670761 0.00087129 -0.13899)
(0.000479435 0.000874352 -0.138959)
(0.000286155 0.000873921 -0.138934)
(8.90765e-05 0.000872601 -0.138922)
(-9.86879e-05 0.000871478 -0.138921)
(-0.000292455 0.000869381 -0.138929)
(-0.00048126 0.000866985 -0.138951)
(-0.000666732 0.000861322 -0.138978)
(-0.000847119 0.000860144 -0.139013)
(-0.00102333 0.00083633 -0.139058)
(-0.00120486 0.000832112 -0.139079)
(0.00121944 0.000660664 -0.13907)
(0.00103699 0.000672308 -0.139042)
(0.000856754 0.000687805 -0.138993)
(0.000670807 0.000688448 -0.138953)
(0.000479585 0.000691573 -0.13892)
(0.000285864 0.000692294 -0.138893)
(8.72387e-05 0.000692258 -0.138881)
(-9.8513e-05 0.000692275 -0.13888)
(-0.000294144 0.000690783 -0.13889)
(-0.000483413 0.000688742 -0.138915)
(-0.000668854 0.000683749 -0.138945)
(-0.000848401 0.000681347 -0.138982)
(-0.00102307 0.000663846 -0.139028)
(-0.0012008 0.000651374 -0.139053)
(0.00122191 0.000472465 -0.139053)
(0.00104052 0.000484413 -0.139018)
(0.00086086 0.000494173 -0.138966)
(0.000674408 0.000495249 -0.138923)
(0.000482727 0.000498426 -0.138887)
(0.000287861 0.000499933 -0.138858)
(8.69827e-05 0.00050094 -0.138845)
(-9.79663e-05 0.000502041 -0.138845)
(-0.000296398 0.000501354 -0.138858)
(-0.000487385 0.000500086 -0.138885)
(-0.000673985 0.000496105 -0.138919)
(-0.000854614 0.000493597 -0.138959)
(-0.00102881 0.000481433 -0.139008)
(-0.00120546 0.000467426 -0.139041)
(0.00121964 0.000282589 -0.139043)
(0.00104109 0.000290095 -0.138998)
(0.000861516 0.000294242 -0.138945)
(0.000675436 0.00029459 -0.138902)
(0.000484006 0.000296647 -0.138864)
(0.000289133 0.000298268 -0.138833)
(8.71543e-05 0.000299851 -0.138819)
(-9.65206e-05 0.00030207 -0.138819)
(-0.000296674 0.000302694 -0.138833)
(-0.000488536 0.000302894 -0.138862)
(-0.000675889 0.000301057 -0.138899)
(-0.000857112 0.000299463 -0.138941)
(-0.0010317 0.000292598 -0.138991)
(-0.00120609 0.000281753 -0.139033)
(0.00121558 8.94019e-05 -0.139039)
(0.00103959 9.03143e-05 -0.13899)
(0.000861162 9.04769e-05 -0.138937)
(0.000676187 8.99631e-05 -0.138893)
(0.000485586 9.04025e-05 -0.138854)
(0.00029121 9.13308e-05 -0.138822)
(8.9099e-05 9.23707e-05 -0.138808)
(-9.4106e-05 9.4767e-05 -0.138808)
(-0.00029538 9.64963e-05 -0.138823)
(-0.000488353 9.79967e-05 -0.138853)
(-0.000676751 9.85168e-05 -0.138892)
(-0.000858857 9.85356e-05 -0.138934)
(-0.00103384 9.64628e-05 -0.138985)
(-0.00120677 9.2115e-05 -0.139033)
(0.00121315 -9.81791e-05 -0.139039)
(0.00103726 -0.000104363 -0.138991)
(0.000859455 -0.000108208 -0.138939)
(0.000675606 -0.000109666 -0.138896)
(0.000486337 -0.000110418 -0.138858)
(0.00029306 -0.000109573 -0.138827)
(9.2129e-05 -0.0001086 -0.138813)
(-9.21208e-05 -0.000105812 -0.138812)
(-0.000293195 -0.000103253 -0.138826)
(-0.000486845 -0.000101288 -0.138856)
(-0.000676013 -9.94016e-05 -0.138894)
(-0.000859105 -9.87654e-05 -0.138936)
(-0.00103512 -9.76073e-05 -0.138986)
(-0.00120906 -9.58328e-05 -0.139034)
(0.0012119 -0.000286594 -0.139041)
(0.00103399 -0.000298885 -0.138998)
(0.000856181 -0.000307261 -0.138949)
(0.00067305 -0.000310162 -0.138907)
(0.000484869 -0.000312889 -0.138871)
(0.000292926 -0.000313316 -0.138842)
(9.39321e-05 -0.000313155 -0.138828)
(-9.1095e-05 -0.000310932 -0.138827)
(-0.000290799 -0.000308071 -0.13884)
(-0.000484251 -0.000305309 -0.138868)
(-0.000673627 -0.000301488 -0.138904)
(-0.000857305 -0.000299332 -0.138945)
(-0.00103429 -0.000293143 -0.138994)
(-0.00121038 -0.000284265 -0.139036)
(0.00120995 -0.000469194 -0.139049)
(0.00103013 -0.000483975 -0.139018)
(0.000852965 -0.000497155 -0.138969)
(0.000670327 -0.000500426 -0.13893)
(0.000483193 -0.000504307 -0.138897)
(0.000292668 -0.000505307 -0.13887)
(9.61811e-05 -0.000505653 -0.138858)
(-8.99452e-05 -0.000504068 -0.138856)
(-0.000287722 -0.000501386 -0.138868)
(-0.000481038 -0.000498679 -0.138894)
(-0.000670882 -0.000493972 -0.138927)
(-0.000855469 -0.000491594 -0.138965)
(-0.00103332 -0.00048042 -0.139013)
(-0.00121227 -0.000468296 -0.139045)
(0.00120422 -0.00064939 -0.139063)
(0.00102417 -0.000661543 -0.139038)
(0.000846914 -0.000679071 -0.138994)
(0.000665649 -0.000681421 -0.138958)
(0.000479944 -0.000685648 -0.138928)
(0.000291231 -0.000686631 -0.138904)
(9.74549e-05 -0.000687219 -0.138893)
(-8.92262e-05 -0.000686573 -0.138891)
(-0.000284655 -0.000684929 -0.138901)
(-0.000476975 -0.000683164 -0.138924)
(-0.000666325 -0.00067871 -0.138954)
(-0.00085042 -0.000677389 -0.13899)
(-0.00102909 -0.00066125 -0.139034)
(-0.00120899 -0.000650655 -0.139059)
(0.00120744 -0.000826882 -0.139088)
(0.0010244 -0.000829422 -0.139068)
(0.000845824 -0.000852324 -0.139025)
(0.000664196 -0.000852535 -0.13899)
(0.000478596 -0.000856656 -0.138963)
(0.000290587 -0.00085744 -0.138941)
(9.82006e-05 -0.00085804 -0.138931)
(-8.95524e-05 -0.000858335 -0.13893)
(-0.000283788 -0.000858197 -0.138939)
(-0.000475704 -0.000857811 -0.13896)
(-0.000665352 -0.000854256 -0.138987)
(-0.000850384 -0.000855153 -0.139021)
(-0.00103078 -0.000832901 -0.139065)
(-0.0012141 -0.000830739 -0.139085)
(0.00117379 -0.00100341 -0.139111)
(0.000997542 -0.000994927 -0.139094)
(0.000823609 -0.00102061 -0.139064)
(0.000648947 -0.00101768 -0.13903)
(0.000468442 -0.00102038 -0.139006)
(0.000285045 -0.00102084 -0.138985)
(9.6701e-05 -0.0010209 -0.138977)
(-8.89589e-05 -0.001022 -0.138976)
(-0.000279476 -0.0010239 -0.138984)
(-0.000466673 -0.00102494 -0.139005)
(-0.000650937 -0.00102352 -0.139029)
(-0.000828545 -0.00102756 -0.139063)
(-0.0010037 -0.00100185 -0.139094)
(-0.00118005 -0.00100967 -0.13911)
(0.00119085 -0.00118253 -0.139115)
(0.00100562 -0.00116388 -0.139107)
(0.000822887 -0.00119382 -0.139081)
(0.000641037 -0.00118599 -0.139052)
(0.000458836 -0.00118718 -0.139034)
(0.000277349 -0.00118531 -0.139024)
(9.30532e-05 -0.00118332 -0.139021)
(-8.80453e-05 -0.00118494 -0.139021)
(-0.000274241 -0.00119011 -0.139025)
(-0.000458734 -0.00119502 -0.139036)
(-0.000643848 -0.00119628 -0.139054)
(-0.000827982 -0.00120561 -0.139083)
(-0.00101165 -0.001175 -0.139109)
(-0.00119757 -0.00119303 -0.139116)
(0.00131433 0.00131145 -0.153541)
(0.0011191 0.00130456 -0.153534)
(0.000926997 0.00134809 -0.153506)
(0.000728872 0.00135101 -0.153474)
(0.000527193 0.00136075 -0.153454)
(0.000322537 0.00136322 -0.153441)
(0.000114184 0.00136307 -0.153435)
(-9.65153e-05 0.00136022 -0.153431)
(-0.000302363 0.00135618 -0.15343)
(-0.000508301 0.00135153 -0.153438)
(-0.000710876 0.00134188 -0.153454)
(-0.000910793 0.00134144 -0.153484)
(-0.00110744 0.00130229 -0.153515)
(-0.00131244 0.00131516 -0.153525)
(0.00130607 0.0011184 -0.153537)
(0.00112089 0.00111979 -0.15352)
(0.000937871 0.00115984 -0.153488)
(0.000747257 0.00116793 -0.153452)
(0.000545293 0.00117983 -0.153425)
(0.000334922 0.0011858 -0.1534)
(0.000116191 0.00118811 -0.153388)
(-0.000103725 0.00118523 -0.153383)
(-0.000318541 0.00117734 -0.153387)
(-0.000528139 0.00116734 -0.153405)
(-0.000729113 0.00115297 -0.153427)
(-0.00092044 0.00114484 -0.153462)
(-0.00110589 0.00110744 -0.153495)
(-0.00129757 0.00110862 -0.153517)
(0.00135017 0.000926653 -0.153514)
(0.00116116 0.000937653 -0.153495)
(0.000973424 0.000972918 -0.153449)
(0.000774364 0.000982616 -0.153413)
(0.000563892 0.000995739 -0.153382)
(0.000344508 0.00100231 -0.153356)
(0.000116515 0.00100516 -0.153343)
(-0.000109731 0.00100243 -0.153338)
(-0.000333574 0.000993603 -0.153343)
(-0.000550603 0.000982271 -0.153362)
(-0.000758166 0.000965733 -0.153387)
(-0.000955549 0.000954656 -0.153421)
(-0.00114375 0.0009203 -0.153467)
(-0.00133743 0.000910502 -0.15349)
(0.00135235 0.000727305 -0.153489)
(0.00116886 0.000745998 -0.153466)
(0.000982823 0.000772754 -0.153421)
(0.00078428 0.0007827 -0.153383)
(0.00057203 0.000794921 -0.153352)
(0.000349387 0.000801842 -0.153325)
(0.000115619 0.000805117 -0.153311)
(-0.000113788 0.000803166 -0.153306)
(-0.000343586 0.000794673 -0.153313)
(-0.000562839 0.000783405 -0.153333)
(-0.000770921 0.000767451 -0.153358)
(-0.000966152 0.000755167 -0.153393)
(-0.00115101 0.00072744 -0.153438)
(-0.00133708 0.000709511 -0.153464)
(0.00136126 0.000523245 -0.153476)
(0.00118025 0.000541421 -0.153447)
(0.000995978 0.000559309 -0.153399)
(0.000796601 0.000567329 -0.153361)
(0.000582185 0.000577385 -0.153328)
(0.000355591 0.000583555 -0.153299)
(0.000115578 0.000586682 -0.153285)
(-0.000117135 0.000585887 -0.153281)
(-0.000353716 0.000579104 -0.153289)
(-0.000576492 0.000570001 -0.153312)
(-0.000786198 0.000556903 -0.153341)
(-0.000981388 0.000546232 -0.153375)
(-0.00116358 0.00052604 -0.153422)
(-0.00134556 0.000507032 -0.153453)
(0.00136252 0.00031605 -0.153468)
(0.00118535 0.000327389 -0.153429)
(0.00100231 0.000335665 -0.153382)
(0.000803336 0.000339733 -0.153344)
(0.000588011 0.000345465 -0.15331)
(0.000359313 0.000349614 -0.15328)
(0.000115078 0.000351777 -0.153266)
(-0.000118787 0.000352434 -0.153263)
(-0.000360137 0.000348664 -0.153272)
(-0.000584977 0.000343477 -0.153296)
(-0.00079557 0.000335658 -0.153327)
(-0.000990182 0.000328824 -0.153362)
(-0.00117095 0.000317296 -0.153408)
(-0.00134848 0.000303233 -0.153448)
(0.00136009 0.000105673 -0.153464)
(0.00118526 0.000105857 -0.15342)
(0.00100361 0.000104931 -0.153373)
(0.000805973 0.000103413 -0.153335)
(0.000591358 0.000103109 -0.1533)
(0.000362347 0.000103686 -0.153271)
(0.000116108 0.000104526 -0.153258)
(-0.000117559 0.000107288 -0.153256)
(-0.000362104 0.000108195 -0.153267)
(-0.00058874 0.00010875 -0.153293)
(-0.000800379 0.000108007 -0.153324)
(-0.000995216 0.000106844 -0.15336)
(-0.00117543 0.000103538 -0.153405)
(-0.00135041 9.8174e-05 -0.15345)
(0.00135539 -0.000104426 -0.153461)
(0.00118042 -0.000114305 -0.153418)
(0.000999268 -0.00012177 -0.153371)
(0.000802949 -0.000126875 -0.153334)
(0.000590028 -0.000131539 -0.1533)
(0.000362535 -0.000134245 -0.153272)
(0.000117363 -0.000136743 -0.15326)
(-0.000114678 -0.000134463 -0.153259)
(-0.000359478 -0.000130933 -0.153271)
(-0.000586549 -0.000126748 -0.153296)
(-0.000798763 -0.000122024 -0.153328)
(-0.000994428 -0.00011816 -0.153363)
(-0.00117547 -0.0001135 -0.153408)
(-0.00135144 -0.000108085 -0.153452)
(0.00134989 -0.000309377 -0.153459)
(0.00117226 -0.000327807 -0.15342)
(0.000990083 -0.000343807 -0.153374)
(0.000794206 -0.00035389 -0.153338)
(0.00058287 -0.000364113 -0.153305)
(0.000357934 -0.000370569 -0.153279)
(0.000116459 -0.000374816 -0.153268)
(-0.00011224 -0.000372461 -0.153267)
(-0.000353981 -0.000366345 -0.153279)
(-0.000579433 -0.000358462 -0.153304)
(-0.00079109 -0.000348307 -0.153335)
(-0.000987248 -0.000339687 -0.15337)
(-0.0011697 -0.000326663 -0.153414)
(-0.00134859 -0.000311843 -0.153452)
(0.00134348 -0.000510595 -0.153463)
(0.00116155 -0.000531728 -0.153434)
(0.000978295 -0.000554707 -0.153388)
(0.000782746 -0.000567064 -0.153352)
(0.000573429 -0.000580298 -0.153322)
(0.000351938 -0.000588655 -0.153298)
(0.000116452 -0.000594167 -0.153288)
(-0.00010927 -0.000592593 -0.153288)
(-0.000345914 -0.000585761 -0.153301)
(-0.000569284 -0.000576454 -0.153324)
(-0.000780473 -0.000563246 -0.153354)
(-0.000977763 -0.000552381 -0.153387)
(-0.00116231 -0.000531677 -0.153431)
(-0.00134541 -0.000512617 -0.153459)
(0.00133278 -0.000708634 -0.153474)
(0.00114765 -0.000725863 -0.15345)
(0.000962654 -0.000754074 -0.153406)
(0.000767698 -0.000766209 -0.153371)
(0.000560764 -0.00078043 -0.153344)
(0.000343606 -0.000789526 -0.153322)
(0.000114991 -0.000795549 -0.153314)
(-0.000106646 -0.000795303 -0.153314)
(-0.000337032 -0.000789424 -0.153326)
(-0.000556721 -0.000780527 -0.153348)
(-0.000766282 -0.000766778 -0.153375)
(-0.000963362 -0.000756007 -0.153408)
(-0.00115 -0.000729088 -0.15345)
(-0.00133619 -0.000712037 -0.153471)
(0.00133258 -0.000904009 -0.1535)
(0.0011406 -0.000910551 -0.153479)
(0.000952774 -0.000943191 -0.153433)
(0.000756615 -0.000952352 -0.153399)
(0.000550768 -0.000965965 -0.153373)
(0.000336579 -0.000974679 -0.153353)
(0.000113093 -0.000980396 -0.153345)
(-0.000105662 -0.000981685 -0.153346)
(-0.000331047 -0.000978007 -0.153357)
(-0.00054778 -0.000971026 -0.153378)
(-0.000756207 -0.000958714 -0.153405)
(-0.000954418 -0.000950825 -0.153437)
(-0.00114354 -0.000918501 -0.153479)
(-0.00133594 -0.000910675 -0.153498)
(0.00129488 -0.00109673 -0.153526)
(0.00110501 -0.00109113 -0.153506)
(0.000920008 -0.00112533 -0.153474)
(0.000730158 -0.00113029 -0.153438)
(0.000530659 -0.00114148 -0.153415)
(0.000323892 -0.00114885 -0.153396)
(0.000108584 -0.00115328 -0.153389)
(-0.000104317 -0.00115609 -0.15339)
(-0.000321359 -0.00115557 -0.1534)
(-0.000530048 -0.00115156 -0.153422)
(-0.000731109 -0.00114262 -0.153445)
(-0.00092191 -0.0011389 -0.153479)
(-0.00110717 -0.00110407 -0.153508)
(-0.00129674 -0.00110756 -0.153524)
(0.00131084 -0.001297 -0.153533)
(0.0011094 -0.00128108 -0.153523)
(0.000913422 -0.00131672 -0.153494)
(0.000715 -0.00131386 -0.153463)
(0.000513405 -0.00132117 -0.153446)
(0.000309685 -0.00132421 -0.153436)
(0.000102071 -0.00132594 -0.153435)
(-0.000103553 -0.0013299 -0.153437)
(-0.000311674 -0.00133342 -0.153442)
(-0.000515642 -0.00133515 -0.153453)
(-0.000717185 -0.00133088 -0.15347)
(-0.000915428 -0.00133472 -0.153499)
(-0.00111082 -0.00129704 -0.153525)
(-0.00131165 -0.00131213 -0.153531)
(0.00143941 0.00143238 -0.168963)
(0.00122358 0.00142528 -0.168956)
(0.00101673 0.00147205 -0.168927)
(0.000803012 0.00147975 -0.168897)
(0.000585034 0.00149576 -0.168882)
(0.00036214 0.00150546 -0.168873)
(0.000134527 0.00151152 -0.168871)
(-9.7677e-05 0.00151241 -0.168868)
(-0.000326985 0.00150999 -0.168867)
(-0.000557436 0.00150586 -0.168875)
(-0.000784624 0.00149616 -0.168892)
(-0.00100946 0.00149549 -0.168926)
(-0.00123138 0.00145206 -0.168961)
(-0.00146562 0.00146808 -0.168975)
(0.00142807 0.00121075 -0.168958)
(0.00122656 0.00121348 -0.168941)
(0.00103155 0.00125838 -0.168913)
(0.000827428 0.00127187 -0.168881)
(0.000610876 0.00129027 -0.168861)
(0.000382217 0.0013026 -0.16884)
(0.000142527 0.00131041 -0.168831)
(-0.000104329 0.00131006 -0.168826)
(-0.000343005 0.00130193 -0.168829)
(-0.000579445 0.00129125 -0.168845)
(-0.000805215 0.00127505 -0.168865)
(-0.00102109 0.00126549 -0.168901)
(-0.00122972 0.00122497 -0.168937)
(-0.00144624 0.00122598 -0.168962)
(0.00147237 0.000999357 -0.168934)
(0.0012711 0.0010114 -0.168918)
(0.00107293 0.00105095 -0.16888)
(0.00086214 0.00106512 -0.16885)
(0.000636935 0.0010833 -0.168828)
(0.000397694 0.0010948 -0.168809)
(0.00014664 0.00110192 -0.1688)
(-0.000110634 0.00110018 -0.168794)
(-0.000360169 0.00108936 -0.168794)
(-0.000604831 0.00107633 -0.168807)
(-0.000837899 0.00105727 -0.168826)
(-0.00105957 0.00104468 -0.168857)
(-0.00127033 0.00100813 -0.168903)
(-0.00148805 0.000997967 -0.168929)
(0.0014742 0.000783265 -0.168909)
(0.0012809 0.000802419 -0.168893)
(0.00108564 0.000833418 -0.168858)
(0.000876329 0.000846567 -0.168832)
(0.00064945 0.000862484 -0.168812)
(0.000406081 0.00087238 -0.168793)
(0.00014796 0.000877945 -0.168784)
(-0.000116603 0.000875118 -0.168777)
(-0.000373006 0.000862939 -0.168775)
(-0.000619689 0.00084875 -0.168787)
(-0.00085271 0.000829838 -0.168802)
(-0.00107098 0.000816336 -0.168829)
(-0.00127697 0.000787298 -0.168871)
(-0.0014848 0.000770361 -0.168897)
(0.00148342 0.000565244 -0.168898)
(0.0012939 0.000584568 -0.16888)
(0.00110124 0.000605783 -0.168843)
(0.000891567 0.000615575 -0.168821)
(0.000661997 0.000627244 -0.168801)
(0.000413733 0.000633849 -0.168782)
(0.00014846 0.000637071 -0.168773)
(-0.000123147 0.000634244 -0.168767)
(-0.000386654 0.000623559 -0.168765)
(-0.000636418 0.000611692 -0.168776)
(-0.000870554 0.00059551 -0.168791)
(-0.00108695 0.00058284 -0.168814)
(-0.00128861 0.000562204 -0.168855)
(-0.00149014 0.000545014 -0.168883)
(0.00148597 0.000345198 -0.168893)
(0.00130021 0.000358493 -0.168865)
(0.00110898 0.000369214 -0.168832)
(0.000899273 0.000374072 -0.168811)
(0.000667659 0.00037934 -0.168792)
(0.000416299 0.000381826 -0.168773)
(0.000146651 0.00038231 -0.168766)
(-0.000128577 0.000379728 -0.16876)
(-0.000396223 0.000371573 -0.168758)
(-0.000647646 0.000363808 -0.168769)
(-0.000881767 0.000354159 -0.168783)
(-0.00109605 0.00034681 -0.168805)
(-0.00129461 0.000335137 -0.168841)
(-0.00148984 0.000321965 -0.168878)
(0.00148566 0.000123028 -0.168892)
(0.00130195 0.000125541 -0.168857)
(0.00111168 0.000126441 -0.168824)
(0.000902014 0.000125313 -0.168803)
(0.000669391 0.000123821 -0.168786)
(0.000416362 0.00012108 -0.168768)
(0.000144236 0.000117473 -0.168763)
(-0.0001316 0.000115906 -0.168759)
(-0.000401878 0.000112596 -0.168759)
(-0.000654317 0.000109846 -0.16877)
(-0.000888093 0.000107079 -0.168785)
(-0.00110084 0.000105567 -0.168805)
(-0.00129717 0.000103647 -0.168839)
(-0.00148853 0.000101572 -0.16888)
(0.00148267 -0.000101041 -0.168888)
(0.00129817 -0.000110005 -0.168854)
(0.00110742 -0.00011855 -0.16882)
(0.000897661 -0.000125575 -0.168798)
(0.000665183 -0.000133416 -0.168781)
(0.000412608 -0.000139991 -0.168766)
(0.00014051 -0.000146034 -0.168761)
(-0.00013181 -0.000147349 -0.168759)
(-0.000402576 -0.000146822 -0.168761)
(-0.000654147 -0.000143799 -0.168773)
(-0.000886797 -0.00013921 -0.168788)
(-0.00109877 -0.000134208 -0.168809)
(-0.00129466 -0.000127117 -0.168842)
(-0.00148617 -0.000118403 -0.168881)
(0.00147856 -0.000325566 -0.168884)
(0.00129032 -0.000342713 -0.168852)
(0.00109706 -0.000359247 -0.168817)
(0.000886334 -0.00037051 -0.168794)
(0.000654522 -0.000383534 -0.168777)
(0.000404245 -0.000393482 -0.168762)
(0.000135305 -0.000401822 -0.168758)
(-0.0001318 -0.000402625 -0.168757)
(-0.000398944 -0.000398707 -0.168762)
(-0.000647291 -0.000391718 -0.168775)
(-0.000877866 -0.000380595 -0.168791)
(-0.00108941 -0.000370118 -0.168812)
(-0.00128612 -0.000354055 -0.168847)
(-0.00148058 -0.000336289 -0.16888)
(0.00147513 -0.000546049 -0.168888)
(0.00128074 -0.000565685 -0.168863)
(0.0010841 -0.000590788 -0.168824)
(0.000871997 -0.000605447 -0.168799)
(0.000641295 -0.000622213 -0.168781)
(0.000394285 -0.000634511 -0.168767)
(0.000131931 -0.000644102 -0.168764)
(-0.000131181 -0.000644842 -0.168765)
(-0.000391852 -0.000638486 -0.168772)
(-0.000636424 -0.000628498 -0.168786)
(-0.00086523 -0.000613319 -0.168804)
(-0.00107754 -0.000600039 -0.168826)
(-0.00127633 -0.00057559 -0.168863)
(-0.00147538 -0.000554179 -0.168886)
(0.0014685 -0.000768728 -0.168901)
(0.00126769 -0.000783721 -0.168878)
(0.00106717 -0.000813693 -0.168838)
(0.000853469 -0.000827677 -0.16881)
(0.000624175 -0.000846073 -0.168792)
(0.0003816 -0.000859634 -0.168779)
(0.000127245 -0.000869644 -0.168775)
(-0.000129151 -0.000871004 -0.168777)
(-0.000382162 -0.000864286 -0.168785)
(-0.000621527 -0.000853546 -0.168799)
(-0.00084796 -0.00083674 -0.168817)
(-0.00106029 -0.00082318 -0.168843)
(-0.0012618 -0.0007923 -0.16888)
(-0.00146578 -0.000773828 -0.1689)
(0.00147217 -0.000990888 -0.168932)
(0.00126122 -0.000997075 -0.16891)
(0.001056 -0.00103243 -0.168865)
(0.00083939 -0.00104396 -0.168835)
(0.00061071 -0.00106132 -0.168814)
(0.000371295 -0.00107365 -0.168799)
(0.000122984 -0.0010824 -0.168795)
(-0.000127592 -0.0010842 -0.168797)
(-0.000374639 -0.00107815 -0.168806)
(-0.000610191 -0.00106801 -0.168822)
(-0.000834916 -0.00105205 -0.168843)
(-0.00104875 -0.00104114 -0.168871)
(-0.00125351 -0.00100487 -0.168911)
(-0.00146588 -0.000995547 -0.16893)
(0.00143411 -0.00121231 -0.168966)
(0.00122283 -0.00120653 -0.168944)
(0.00101888 -0.0012445 -0.16891)
(0.000807598 -0.0012519 -0.168875)
(0.000585597 -0.00126646 -0.168855)
(0.000354727 -0.00127625 -0.168839)
(0.000116306 -0.00128273 -0.168835)
(-0.000123959 -0.00128529 -0.168836)
(-0.000360748 -0.00128149 -0.168844)
(-0.000587045 -0.00127399 -0.168861)
(-0.000804053 -0.00126105 -0.168881)
(-0.00101136 -0.00125406 -0.168913)
(-0.00121361 -0.0012149 -0.168942)
(-0.00142548 -0.00121803 -0.168961)
(0.00145421 -0.00144528 -0.16898)
(0.00122713 -0.001427 -0.168969)
(0.00100961 -0.00146808 -0.168937)
(0.000788896 -0.00146665 -0.168904)
(0.000564599 -0.0014759 -0.168888)
(0.000337547 -0.00147998 -0.168881)
(0.000108172 -0.00148297 -0.16888)
(-0.000119978 -0.00148618 -0.168882)
(-0.000346378 -0.00148588 -0.168884)
(-0.000567877 -0.00148369 -0.168891)
(-0.000786376 -0.00147564 -0.168906)
(-0.00100242 -0.00147668 -0.168935)
(-0.0012168 -0.00143454 -0.168963)
(-0.00144262 -0.00145198 -0.16897)
(0.00158869 0.00158591 -0.185463)
(0.0013389 0.00156578 -0.185454)
(0.0011044 0.00160899 -0.185423)
(0.000867957 0.00161037 -0.185393)
(0.000629773 0.00162389 -0.18538)
(0.000388695 0.00163446 -0.185377)
(0.000144318 0.00164414 -0.185381)
(-0.000105047 0.00165291 -0.185383)
(-0.000358174 0.00165825 -0.185385)
(-0.000612029 0.00166175 -0.185395)
(-0.000866283 0.00165938 -0.185415)
(-0.00112023 0.00166515 -0.185452)
(-0.00137289 0.00161959 -0.185491)
(-0.00163748 0.00164222 -0.185505)
(0.00156349 0.00132267 -0.185451)
(0.00133293 0.00131716 -0.185432)
(0.00111333 0.00135606 -0.185404)
(0.000888446 0.00136257 -0.185377)
(0.000655177 0.00137834 -0.185363)
(0.000411666 0.00139148 -0.185349)
(0.000157466 0.0014021 -0.185346)
(-0.000104766 0.001407 -0.185346)
(-0.000366333 0.00140704 -0.185351)
(-0.000626586 0.00140661 -0.185369)
(-0.000880237 0.00139958 -0.185389)
(-0.00112641 0.00139868 -0.185427)
(-0.00136624 0.00136126 -0.185465)