/*--------------------------------*- C++ -*----------------------------------*\
| =========                 |                                                 |
| \\      /  F ield         | OpenFOAM: The Open Source CFD Toolbox           |
|  \\    /   O peration     | Version:  v2106                                 |
|   \\  /    A nd           | Website:  www.openfoam.com                      |
|    \\/     M anipulation  |                                                 |
\*---------------------------------------------------------------------------*/
FoamFile
{
    version     2.0;
    format      ascii;
    arch        "LSB;label=32;scalar=64";
    class       volScalarField;
    location    "0.000217";
    object      epsilon;
}
// * * * * * * * * * * * * * * * * * * * * * * * * * * * * * * * * * * * * * //

dimensions      [0 2 -3 0 0 0 0];

internalField   nonuniform List<scalar> 
18109
(
2761.69
2134.62
1679.72
1341.11
1104.21
968.439
939.643
1394.6
1016.16
792.463
627.234
504.393
423.365
387.606
742.959
480.197
359.29
279.609
220.468
179.09
157.041
412.673
228.518
158.053
118.973
91.6579
72.3756
61.3884
231.396
109.392
67.9305
48.4971
36.2085
27.7836
22.9409
128.983
52.5975
28.7054
19.0067
13.6
10.1146
8.16186
73.1732
26.1409
12.2249
7.24756
4.8749
3.49454
2.76668
46.4052
14.9514
5.77615
2.84284
1.70504
1.15429
0.900067
2626.01
2057.13
1625.07
1296.92
1063.49
921.725
875.9
934.924
1123.24
1439.48
1902.77
2512.73
3369.69
4657.26
1262.6
955.117
754.524
599.549
482.731
404.112
366.522
375.968
447.909
596.401
843.301
1202.73
1739.68
2580.8
628.364
433.783
334.349
262.823
208.34
169.828
148.835
147.85
174.252
239.285
360.736
558.135
878.701
1417.47
320.925
195.164
142.662
109.601
85.2836
67.8923
57.947
56.2498
66.0785
93.9651
152.057
258.257
449.33
803.629
163.571
86.9091
58.9234
43.6325
33.1215
25.74
21.5074
20.6203
24.5213
36.7311
64.968
123.326
241.305
485.74
82.6067
38.3561
23.6622
16.6269
12.2181
9.254
7.59515
7.28163
8.99936
14.7083
29.3014
63.3764
140.729
317.876
43.041
17.3631
9.41408
6.10837
4.2919
3.15894
2.55679
2.49851
3.35754
6.31801
14.6264
36.2675
90.5103
224.545
26.2183
9.1217
4.0293
2.24579
1.45499
1.02894
0.82642
0.855119
1.34776
3.09239
8.40153
23.4782
64.1553
169.815
21.7773
6.76821
2.29194
0.948783
0.505578
0.328773
0.265527
0.315953
0.644425
1.83456
5.68571
17.288
50.1029
137.691
24.7915
7.42406
2.10539
0.62167
0.230925
0.127197
0.110947
0.170391
0.440814
1.42073
4.68341
14.7766
43.8632
122.009
33.1882
9.96972
2.69962
0.710247
0.23385
0.143739
0.159315
0.256174
0.574885
1.63819
5.0733
15.525
45.1993
123.472
47.3589
14.5774
4.09265
1.20525
0.538449
0.461468
0.566015
0.818701
1.41283
3.03943
7.73856
21.0761
57.0755
147.757
68.7225
22.4669
7.13541
2.72844
1.70551
1.70421
2.11424
2.90566
4.40743
7.71164
15.7987
36.3382
87.7101
208.942
103.274
38.3679
15.0147
7.52403
5.66423
5.92217
7.29856
9.77693
13.9606
21.7139
37.5658
72.6599
152.626
328.998
5432.64
9498.46
16088.1
26924.4
46195
86120.3
5436.01
9467.7
15978.8
26524.4
44888.4
81597.7
4265.63
7664.23
13511.8
23926.1
44222.9
89265.6
3336.15
6329.9
11847.3
22647.9
46628
108077
2687.68
5448.17
11073.5
23592
55682.3
147802
2271.18
4981.71
11219.4
27104.5
72851
211756
2068.74
4964.35
12463
33607.5
97501.5
289611
2082.15
5401.49
14651.4
41878.3
124164
359317
2307.3
6208.29
17160.7
49036.4
141704
385591
2744.66
7229.3
19322.1
52943.2
145757
372644
3322.38
8157.76
20285.6
51873.9
134121
326165
4054.54
9016.68
20352.5
47376.1
112702
259335
4909.06
9758.06
19769.9
41556.9
89668.1
196061
6038.82
10839.9
20073.3
38491.3
75860.4
153011
7766.64
12766
21622.6
37813.8
67616.6
121962
5869.96
8867.38
15348.4
28136.5
52566
97216.4
3774.76
6116.32
11441
22017.2
42101.2
83257
2373.58
4367.13
8851.14
17656
34820.1
74996.4
1565.16
3250.54
6927.99
14146.4
28622.6
66664.8
1095.67
2475.79
5444.07
11376.9
23953.7
59802.2
802.519
1904.01
4280.62
9135.41
19772.7
51973.9
606.327
1477.56
3382.44
7379.03
16488.7
46158.4
471.403
1164.08
2700.79
6003.25
13700
40065.5
382.079
946.272
2211.24
4980.09
11588.9
35602.7
331.279
811.401
1887.66
4264.52
10042.6
31288.4
320.891
761.305
1732.69
3867.32
9068.65
27436.7
359.627
802.16
1736.77
3733.52
8436.68
23382.6
465.167
951.717
1911.67
3853.91
8128.13
20014.8
627.547
1171.29
2168.74
4051.12
7820.62
16794.7
576.662
983.138
1732.28
3227.26
6318.72
13475.8
335.998
674.006
1342.97
2752.73
5732.92
12568.7
196.363
464.999
1055.08
2354.91
5157.65
11669.4
122.823
332.122
824.673
1949.9
4458.15
10525.1
81.4082
239.603
634.304
1582.91
3799.28
9455.57
55.6028
171.717
478.48
1256.57
3160.18
8288.11
38.9495
123.65
359.912
992.709
2622.87
7305.4
28.2389
90.9382
273.353
786.222
2179.38
6525.23
22.5498
73.066
223.184
660.596
1914.26
6209.7
21.9404
70.5932
212.878
628.966
1862.74
6386.78
27.7491
86.6357
253
723.037
2101.06
7135.86
42.6339
123.821
349.372
954.367
2615.1
8238.6
72.3181
186.091
502.621
1315.78
3385.04
10161.8
133.4
303.303
756.017
1864.19
4513.5
12969.5
976.593
2665.36
6991.48
17612.6
43356.6
104641
1505.96
3617.05
8401.44
18972
42483.6
94083
2368.07
4967.45
10179.7
20702.7
42785.9
88705.4
3949.76
7255.7
13179.2
24173.4
45456.1
87887.7
273.006
600.76
1309.98
2829.45
6274.87
16063.6
192.955
473.573
1126.65
2636.69
6344.21
17389.2
137.656
368.722
950.016
2417.5
6381.47
19066.8
99.5009
288.966
812.439
2288.57
6766.52
22340.2
77.1883
244.379
762.527
2421.15
8054.67
28763
70.6324
245.28
851.273
2995.55
10757.8
39308.6
85.3145
315.15
1163.77
4262.67
15403.4
54453.2
132.893
487.943
1770.55
6247.55
21304.4
69751.5
233.208
804.303
2707.26
8759.08
27234.5
81084.1
414.785
1296.26
3914.17
11312.9
31468.6
84057.3
716.461
1996.09
5352.58
13740.8
34205
82366.1
1199.15
2948.6
7001.1
16077
36324.3
80161.9
2020.1
4348.62
9098.32
18752.4
38981.2
80855.8
3542.2
6671.9
12341.5
22854.3
43112.7
83171
170261
1.05322e+06
2.70798e+06
1.87119e+06
1.11497e+06
223268
1.36463e+06
2.781e+06
1.82185e+06
1.10308e+06
315144
1.76775e+06
2.83632e+06
1.80165e+06
1.13334e+06
454361
2.18354e+06
2.9187e+06
1.84494e+06
1.19087e+06
625334
2.46648e+06
2.97575e+06
1.86933e+06
1.21407e+06
788619
2.48082e+06
2.97466e+06
1.86594e+06
1.22655e+06
891753
2.32046e+06
2.96583e+06
1.89643e+06
1.28801e+06
876452
2.06901e+06
2.96003e+06
2.03926e+06
1.41504e+06
1.53012e+06
794337
1.8167e+06
2.94693e+06
2.25513e+06
1.54068e+06
1.64088e+06
660824
1.50579e+06
2.84101e+06
2.41357e+06
1.61966e+06
1.70259e+06
494768
1.18063e+06
2.71627e+06
2.54348e+06
1.66432e+06
1.69286e+06
2.53333e+06
354522
892176
2.62104e+06
2.70174e+06
1.72351e+06
1.57717e+06
2.7265e+06
4.90193e+06
260037
693815
2.61807e+06
2.91217e+06
1.84234e+06
1.42235e+06
2.4813e+06
7.5159e+06
217814
666990
2.81758e+06
3.20723e+06
2.088e+06
1.44124e+06
1.68059e+06
4.77334e+06
202740
728481
3.21917e+06
3.50938e+06
2.26854e+06
1.47001e+06
1.57046e+06
5.21429e+06
197644
852486
3.64415e+06
3.56061e+06
2.16206e+06
1.43502e+06
1.5804e+06
3.99886e+06
199888
1.03516e+06
3.95542e+06
3.48481e+06
2.09951e+06
1.46114e+06
1.6001e+06
5.0144e+06
202639
1.24892e+06
4.20465e+06
3.57169e+06
2.17823e+06
1.54822e+06
1.50521e+06
2.13443e+06
207487
1.43022e+06
4.2301e+06
3.56801e+06
2.12125e+06
1.50987e+06
1.47759e+06
1.58298e+06
209991
1.49087e+06
3.95827e+06
3.41522e+06
1.95784e+06
1.44555e+06
1.5206e+06
1.59073e+06
212727
1.43659e+06
3.54399e+06
3.22174e+06
1.88977e+06
1.48953e+06
1.68463e+06
2.86067e+06
205703
1.27293e+06
3.10104e+06
3.23889e+06
2.05627e+06
1.64243e+06
1.93892e+06
2.05883e+06
191508
1.04633e+06
2.62371e+06
3.35428e+06
2.26235e+06
1.80144e+06
168112
795893
2.09132e+06
3.36756e+06
2.45722e+06
1.9127e+06
139258
571034
1.5868e+06
3.23565e+06
2.62219e+06
1.96775e+06
111322
403903
1.18429e+06
3.09724e+06
2.81052e+06
1.90824e+06
90688.4
298782
989888
3.07742e+06
3.09165e+06
1.88886e+06
75885
240244
978649
3.38268e+06
3.49497e+06
64974.8
209426
1.11143e+06
3.95474e+06
3.82409e+06
57550.3
193180
1.35412e+06
4.33776e+06
3.607e+06
52097.5
189545
1.68869e+06
4.4545e+06
3.30653e+06
47104.8
208976
2.13649e+06
4.6662e+06
3.24713e+06
42813.1
250322
2.54019e+06
4.65414e+06
3.02312e+06
39298.8
297671
2.63467e+06
4.25928e+06
2.57425e+06
38049.1
335433
2.43076e+06
3.71577e+06
2.13347e+06
38985.3
352866
2.10382e+06
3.33658e+06
1.92382e+06
41987.5
342910
1.73528e+06
3.08286e+06
1.78815e+06
45899.7
312754
1.37916e+06
2.79499e+06
1.63215e+06
49680.7
276824
1.11547e+06
2.52156e+06
1.55122e+06
52575.4
245550
993380
2.35641e+06
1.55572e+06
54269.7
228138
1.0651e+06
2.38931e+06
1.5922e+06
55445.6
229346
1.37448e+06
2.62078e+06
1.62613e+06
56355.7
250640
1.92851e+06
2.84267e+06
1.58816e+06
58513.9
295639
2.62285e+06
2.802e+06
1.43434e+06
65180
376380
3.34798e+06
2.72057e+06
1.3654e+06
80465.5
499163
3.95109e+06
2.7134e+06
1.34651e+06
106414
647708
4.09061e+06
2.60813e+06
1.26276e+06
141184
780379
3.82862e+06
2.41547e+06
1.13839e+06
181821
859478
3.49457e+06
2.22122e+06
1.05752e+06
209365
858136
3.19461e+06
2.13111e+06
1.03776e+06
217171
827898
2.94687e+06
2.08476e+06
1.03044e+06
202475
764781
2.6325e+06
1.97664e+06
1.00623e+06
178119
689329
2.40136e+06
1.88731e+06
987132
155915
651096
2.29562e+06
1.8192e+06
990546
144786
696863
2.35529e+06
1.8077e+06
1.02999e+06
146006
835063
2.52475e+06
1.84637e+06
1.09053e+06
2574.57
2020.1
1594.68
1270.04
1038.47
892.388
835.624
869.66
1021.7
1302.32
1741.41
2341.84
3221.04
4572.96
1190.76
918.854
728.584
579.053
466.528
389.946
351.828
354.494
413.589
544.892
774.38
1118.97
1653.06
2506.9
563.01
405.144
316.482
249.594
198.488
162.29
142.473
140.082
162.407
220.196
332.037
518.294
830.016
1366.33
270.582
175.456
131.947
102.203
79.9832
64.0808
55.0858
53.2823
61.8627
86.8284
140.071
239.21
422.212
771.976
128.963
74.6087
53.0561
39.908
30.5684
23.9838
20.2712
19.47
22.9686
33.9644
59.7789
113.96
226.262
467.39
60.628
31.2033
20.6502
14.9003
11.1015
8.5191
7.0986
6.84173
8.40244
13.5593
26.8949
58.5254
132.279
307.716
29.4778
13.2329
7.88206
5.34599
3.84118
2.87739
2.37179
2.33362
3.11358
5.79141
13.4071
33.6142
85.749
219.504
17.0983
6.40828
3.14297
1.88987
1.2779
0.928054
0.76152
0.792226
1.2365
2.81784
7.71615
21.941
61.4872
167.959
14.1675
4.43771
1.59029
0.727715
0.424615
0.291491
0.242319
0.288546
0.582832
1.66544
5.24998
16.3378
48.6736
137.898
16.6368
4.79055
1.32459
0.407078
0.17172
0.106973
0.0983188
0.151012
0.39142
1.28442
4.3439
14.0953
43.0714
123.28
23.031
6.55951
1.67342
0.432823
0.160069
0.116942
0.137895
0.222813
0.503614
1.47021
4.69982
14.8498
44.5393
124.971
33.8028
9.87466
2.62463
0.78318
0.40576
0.39369
0.498995
0.722417
1.24478
2.71498
7.11208
20.0187
55.9109
148.562
50.3602
15.8229
4.90104
1.99073
1.40563
1.50458
1.9007
2.61222
3.94514
6.92823
14.4421
34.1431
84.9299
207.681
77.8646
28.5647
11.2773
6.04765
4.92416
5.36594
6.69158
8.96188
12.7379
19.7914
34.47
67.8045
145.921
322.541
2704.33
2075.26
1617.36
1271.94
1029.25
865.093
784.31
772.536
860.2
1076.86
1477.78
2083.63
3054.65
4624.26
1179.79
898.28
704.57
554.819
444.76
367.547
326.139
315.211
349.808
447.725
643.969
964.824
1506.38
2418.9
519.659
373.075
289.806
227.194
180.505
147.027
128.434
122.636
136.291
178.652
269.949
433.062
728.989
1273.46
229.942
150.757
113.708
87.8781
68.9683
55.3804
47.8086
45.3726
50.8883
68.9514
110.784
193.539
359.51
706.798
99.744
59.2436
42.7514
32.247
24.8798
19.6749
16.8241
15.9719
18.2985
26.1371
45.8177
89.7011
189.423
428.522
42.2911
22.6748
15.4559
11.2677
8.50305
6.61283
5.6064
5.36223
6.40733
10.0263
20.0246
45.4595
111.147
286.945
18.4582
8.65579
5.41503
3.76329
2.76202
2.10858
1.7751
1.7336
2.25107
4.11784
9.84975
26.3906
73.9132
210.525
9.81255
3.69273
1.9233
1.21862
0.857281
0.639924
0.537361
0.552905
0.845579
1.9602
5.73824
17.7965
55.0855
166.393
7.9869
2.30964
0.825275
0.407799
0.259221
0.187353
0.159987
0.188035
0.383566
1.17028
4.05181
13.8986
45.6344
141.497
9.83577
2.4922
0.609234
0.184979
0.0899161
0.064063
0.0622146
0.0955614
0.259252
0.9348
3.5102
12.5769
42.0626
130.211
14.5755
3.65366
0.795378
0.189131
0.0848944
0.0789518
0.0995688
0.158411
0.359045
1.12388
3.96386
13.7759
44.8524
134.594
22.8277
5.94841
1.38928
0.418045
0.272417
0.306122
0.399844
0.572206
0.970204
2.17596
6.13818
18.8475
56.881
160.675
36.0984
10.3519
3.00273
1.33268
1.09629
1.26213
1.6177
2.20817
3.28902
5.81089
12.64
32.0449
85.7532
222.724
58.4281
20.4742
8.12723
4.80223
4.25022
4.81202
6.03412
8.02805
11.2776
17.4789
30.9365
63.4241
144.581
338.732
2896.11
2159.94
1649.39
1273.89
1023.8
849.175
761.661
733.058
798.532
988.404
1380.28
2021.95
3137.06
5011.61
1216.17
888.978
682.535
529.171
422.158
345.744
305.421
290.191
315.985
397.704
577.009
888.98
1459.78
2467.65
513.737
349.208
264.913
204.807
162.18
131.315
114.809
108.395
118.639
152.515
231.199
378.695
669.907
1247.65
216.25
132.417
97.2787
74.2692
58.2175
46.5896
40.4277
38.1136
42.2244
56.0079
90.021
160.517
316.496
680.778
88.5764
48.3966
33.9113
25.3395
19.5948
15.484
13.3493
12.6172
14.2875
19.9556
35.1057
71.0815
163.164
415.223
35.5946
17.151
11.2733
8.16822
6.20786
4.83715
4.14187
3.9412
4.64312
7.12332
14.5316
35.2125
96.3817
283.812
15.0537
6.11126
3.61641
2.49936
1.8569
1.42373
1.21073
1.17171
1.49626
2.73626
6.97005
20.7676
66.3583
214.817
8.1819
2.5618
1.19145
0.738271
0.52713
0.395969
0.335247
0.339644
0.516595
1.26367
4.15111
14.6925
51.8584
175.439
6.99366
1.72587
0.50919
0.227822
0.145012
0.105668
0.0907001
0.105191
0.225676
0.782119
3.13194
12.2878
45.373
154.615
8.89752
2.047
0.423008
0.105234
0.0481096
0.0355484
0.0356092
0.0552635
0.163361
0.679667
2.93468
11.8597
43.7727
146.222
13.5312
3.19337
0.621453
0.128711
0.0580105
0.0588471
0.0757587
0.117313
0.265052
0.901437
3.56344
13.7321
48.5246
154.809
21.8128
5.40101
1.15959
0.33133
0.2251
0.261356
0.341088
0.480635
0.803344
1.86464
5.71634
19.2301
62.5895
186.807
35.3222
9.60703
2.64463
1.18328
0.996307
1.15527
1.46802
1.98222
2.92087
5.22299
11.9457
32.6734
94.1014
258.512
56.8173
19.2983
7.75888
4.75074
4.20651
4.7316
5.8411
7.67555
10.6699
16.5795
29.9488
64.2782
155.6
385.871
2912.17
2110.07
1577.27
1191.57
954.44
787.557
712.151
678.884
734.513
895.562
1270.07
1935.21
3191.59
5361.5
1178.81
815.805
609.188
462.086
368.376
301.77
270.616
256.702
278.817
345.494
506.107
804.038
1397.62
2504.42
481.173
299.843
218.832
165.355
131.172
106.752
95.3084
90.585
99.4323
126.108
192.725
324.351
611.942
1245.09
194.705
105.581
73.6024
54.8577
43.2082
34.9354
31.1063
29.7474
33.208
43.5726
70.8033
130.784
281.83
687.608
77.0722
35.6761
23.2357
16.9102
13.1846
10.5814
9.40365
9.07516
10.392
14.4271
26.0019
56.1628
146.36
432.337
30.6378
11.7642
6.93016
4.86328
3.73792
2.97159
2.63504
2.57383
3.0749
4.75055
10.2918
27.9941
89.5855
304.74
13.5076
4.07949
2.0015
1.3117
0.985472
0.773771
0.684855
0.683399
0.892847
1.71709
4.96833
17.4078
65.1369
238.415
8.26637
1.92665
0.639772
0.342075
0.242589
0.187021
0.165805
0.174609
0.283
0.798903
3.15607
13.216
53.4621
199.552
7.79092
1.63009
0.337942
0.102965
0.0580398
0.0430403
0.0391224
0.0489729
0.125471
0.544547
2.62711
11.9211
49.0941
180.472
10.27
2.20499
0.384878
0.0656033
0.021359
0.0163376
0.018166
0.0306989
0.106223
0.532634
2.67443
12.1411
48.8115
172.966
15.8866
3.62198
0.650377
0.112339
0.044074
0.046345
0.0600416
0.0902809
0.205417
0.774778
3.4541
14.6725
55.6554
186.386
26.0091
6.25111
1.25606
0.316655
0.20141
0.232909
0.299339
0.412581
0.681213
1.65984
5.60069
20.6717
72.2364
226.322
42.4829
11.0548
2.86752
1.19442
0.964535
1.10097
1.36986
1.8176
2.64345
4.81126
11.7023
34.8083
108.067
313.111
66.2874
21.8025
8.74951
5.23077
4.44113
4.87305
5.84828
7.54723
10.3446
16.1524
29.9247
67.6591
174.584
459.383
2299.37
1619.46
1176.6
866.15
692.065
566.371
519.142
491.041
537.761
646.879
950.604
1534.58
2755.08
4903.68
872.028
569.409
409.17
300.402
239.802
196.489
180.325
171.563
189.856
233.275
354.124
596.724
1136.09
2247.47
334.631
188.922
130.747
95.1339
75.8349
62.25
57.4109
55.2597
62.2199
78.8362
125.502
227.184
485.72
1172.69
128.555
59.9244
38.696
27.6349
21.9455
18.0243
16.7183
16.3256
18.816
24.9322
42.9091
88.6749
229.474
691.323
49.6482
18.4165
10.6722
7.38268
5.81736
4.76711
4.44508
4.41181
5.26076
7.54894
15.1057
39.273
128.968
463.272
20.723
5.82457
2.79727
1.82349
1.41529
1.15229
1.07852
1.09162
1.38257
2.34115
6.16807
21.5126
85.8587
338.222
10.5755
2.23401
0.75265
0.422227
0.316246
0.254381
0.238912
0.25025
0.366109
0.881515
3.39348
15.1405
67.1756
272.434
8.11552
1.47013
0.293695
0.101509
0.0655823
0.0513154
0.048597
0.0560999
0.119429
0.486435
2.50844
12.5597
57.1811
229.551
8.74151
1.63251
0.254003
0.0411462
0.0144003
0.0102334
0.0102405
0.0164168
0.0672472
0.405028
2.35637
12.1223
54.341
210.749
12.2988
2.47449
0.387435
0.0492087
0.00965561
0.00740532
0.00924518
0.0173693
0.0735204
0.445879
2.5559
12.7536
54.7592
202.404
19.4949
4.22102
0.71115
0.105801
0.0345541
0.0363369
0.0469873
0.0693268
0.16243
0.689852
3.44517
15.9058
63.9511
222.457
32.8245
7.49549
1.41406
0.309043
0.174844
0.198825
0.252348
0.343506
0.567878
1.4806
5.5442
22.3553
83.3437
272.409
54.851
13.4241
3.25166
1.22004
0.91646
1.01869
1.23898
1.62525
2.35238
4.41452
11.5685
37.5906
125.371
381.783
84.4417
26.3442
10.3968
5.92981
4.73976
5.01304
5.79235
7.36019
9.98674
15.8209
30.3029
72.6987
199.822
558.096
1147.05
776.882
554.897
409.55
336.427
280.732
263.704
251.09
278.003
328.926
490.866
827.166
1630.63
3174.09
397.245
240.717
167.513
122.671
100.791
84.7065
80.293
77.7975
87.8926
107.834
168.329
304.515
657.025
1530.58
140.837
70.0681
46.027
33.1682
27.1825
22.9725
22.011
21.7892
25.2894
32.6172
54.8986
112.968
293.076
878.745
52.4857
19.8357
11.6062
8.10325
6.58976
5.58466
5.40849
5.48001
6.5841
9.16254
17.7613
45.9448
153.07
562.041
21.4184
5.80594
2.73548
1.79236
1.43468
1.21431
1.18728
1.23433
1.566
2.54232
6.54621
23.5212
98.1952
404.547
10.9747
2.11616
0.656306
0.363339
0.280076
0.235441
0.232015
0.249439
0.356893
0.818849
3.23397
15.4275
72.6056
310.262
7.42502
1.20118
0.217454
0.0733718
0.0491565
0.0404915
0.0402518
0.0467248
0.0953044
0.402502
2.28978
12.564
61.2704
260.351
7.29525
1.19408
0.166426
0.0245368
0.00844943
0.00622067
0.00634111
0.0098027
0.0435769
0.304307
2.00153
11.3247
54.6073
225.397
8.72926
1.55162
0.219703
0.0241424
0.00296609
0.00143098
0.00169373
0.00485453
0.0386768
0.313012
2.09527
11.638
54.1754
214.235
12.8083
2.44032
0.366876
0.0423024
0.00612685
0.00445334
0.00572728
0.0107207
0.0531527
0.379389
2.3973
12.65
55.9425
210.307
20.3445
4.12167
0.666101
0.092483
0.0270109
0.0280556
0.0359353
0.0518701
0.128107
0.617627
3.37404
16.4007
67.9367
241.24
35.4917
7.48934
1.34741
0.275287
0.145767
0.163165
0.204181
0.274725
0.459903
1.30329
5.37691
23.183
90.0235
302.303
62.5771
14.1198
3.29533
1.18641
0.848441
0.917137
1.08511
1.409
2.03735
3.98447
11.3033
39.7078
139.667
442.353
101.403
29.937
12.0049
6.79979
5.18314
5.28163
5.76798
7.2068
9.58697
15.4056
30.3709
76.7671
222.469
657.232
207.467
133.04
95.092
70.482
60.1295
51.741
50.6499
50.274
57.4488
69.5634
105.491
185.411
404.068
940.846
61.8142
34.0493
23.3766
17.1054
14.5026
12.5753
12.477
12.7445
15.0545
19.3172
31.696
63.5409
162.997
483.088
19.9991
8.34676
5.23365
3.73708
3.13313
2.72577
2.73725
2.88073
3.5446
4.94686
9.41017
24.1003
81.4252
310.913
7.72917
2.14531
1.08704
0.735412
0.604868
0.525025
0.532065
0.577396
0.752958
1.22879
3.13545
11.4674
50.1229
220.409
3.88104
0.703475
0.225681
0.131149
0.103959
0.0894134
0.0911492
0.102858
0.152853
0.36276
1.49004
7.52861
38.0668
176.927
2.85953
0.408078
0.0671471
0.0228406
0.0158561
0.0133487
0.0136922
0.0169829
0.0377804
0.172991
1.04416
6.11232
32.2174
149.642
2.72666
0.38711
0.04716
0.00632675
0.00226302
0.00173108
0.00183684
0.00340906
0.0180928
0.135586
0.944136
5.72665
30.0319
136.305
3.39344
0.512019
0.0624901
0.00584611
0.000571401
0.000238975
0.000316529
0.0016093
0.0155884
0.133947
0.954546
5.71869
29.0865
126.874
4.61387
0.745915
0.096382
0.00915716
0.000801709
0.00039843
0.000561872
0.00211128
0.0185929
0.157185
1.09469
6.33506
30.8882
128.85
7.36186
1.24638
0.169753
0.0179478
0.00302166
0.00279087
0.00364685
0.0064778
0.0292701
0.206371
1.33475
7.28672
33.6503
133.526
12.1785
2.16576
0.318622
0.0437681
0.0161201
0.0183312
0.0235899
0.0332972
0.0768553
0.355936
1.9716
9.91742
43.1312
163.033
22.8892
4.24826
0.729161
0.166005
0.101562
0.115129
0.142559
0.188437
0.302602
0.811186
3.31307
14.6288
59.2933
213.03
44.502
9.27581
2.29823
0.949022
0.697885
0.736945
0.84633
1.07951
1.52087
2.84322
7.78922
27.4694
100.345
342.967
87.7407
28.6217
13.3257
8.04707
5.90591
5.77031
5.65753
6.81887
8.38764
12.9862
24.1901
59.2533
174.408
554.992
12.4366
7.69568
5.6313
4.31477
3.80481
3.43924
3.51465
3.72171
4.47831
5.73318
9.02928
16.7882
38.9628
103.4
3.35816
1.71455
1.18467
0.888588
0.76872
0.694282
0.716105
0.780213
0.975026
1.34677
2.39229
5.42864
16.109
56.475
1.08981
0.382089
0.229779
0.166027
0.139877
0.125221
0.129726
0.145144
0.190724
0.300975
0.690321
2.24079
9.18256
40.5384
0.513723
0.105099
0.0429182
0.028005
0.022714
0.0200038
0.0207165
0.0239009
0.034949
0.0759457
0.277261
1.31199
6.60781
32.1983
0.369233
0.0532276
0.0103564
0.00442516
0.00324881
0.00278961
0.00288889
0.00361434
0.00761067
0.03176
0.18128
1.05128
5.75628
29.0021
0.390839
0.0538418
0.00665284
0.00101292
0.000420934
0.000333259
0.000355983
0.000651991
0.00322704
0.0230038
0.157588
0.976183
5.44919
27.2954
0.485083
0.0708344
0.00851303
0.000793431
8.16775e-05
3.61793e-05
5.06617e-05
0.000276978
0.002617
0.0221225
0.160073
1.00903
5.59626
27.409
0.717687
0.109714
0.0135641
0.00121503
8.22656e-05
2.47676e-05
4.19027e-05
0.00026873
0.00274039
0.0240636
0.17637
1.10208
5.95375
28.0835
1.09297
0.174556
0.0223534
0.00209383
0.000229745
0.000173587
0.000231206
0.000544169
0.0036772
0.0304346
0.217998
1.32223
6.87211
31.0398
1.8422
0.300458
0.0399434
0.00434785
0.00110607
0.00123674
0.00158999
0.00233462
0.00719421
0.0445507
0.290623
1.65929
8.165
35.052
3.1839
0.539344
0.0792551
0.0130468
0.00701538
0.00845475
0.0107144
0.0141187
0.0254098
0.0911774
0.475067
2.45
11.2824
46.0554
6.32787
1.20686
0.260456
0.0942764
0.0708418
0.0773172
0.0879114
0.109963
0.151118
0.307057
1.00379
4.15816
17.0759
64.9581
13.2492
3.28367
1.2276
0.718892
0.58515
0.607952
0.65609
0.808567
1.04319
1.64854
3.40416
9.73498
32.8723
114.682
32.4686
12.6168
6.92572
4.82942
3.97938
4.07257
4.23295
5.1909
6.48092
9.44176
15.2817
30.1659
72.0508
210.717
0.516162
0.314798
0.228073
0.176303
0.153221
0.141119
0.146799
0.1633
0.205221
0.282505
0.475684
0.959518
2.39992
6.86231
0.136734
0.0663612
0.0449801
0.033648
0.0282188
0.0253927
0.0261637
0.029421
0.0381009
0.0575904
0.116125
0.308483
1.03364
3.9101
0.0488801
0.0145715
0.00808862
0.00572982
0.00463007
0.00405624
0.00412462
0.0046859
0.00647442
0.0122947
0.0367483
0.146197
0.652635
2.96997
0.0311712
0.00528487
0.00155153
0.000870795
0.000660959
0.000562852
0.000565755
0.000669739
0.00118765
0.00395258
0.0192868
0.100379
0.511658
2.50517
0.0315719
0.00464574
0.00067945
0.000153528
8.21392e-05
6.60214e-05
6.72383e-05
0.000103613
0.000395049
0.00243966
0.0152085
0.0878261
0.474128
2.40622
0.041572
0.00633048
0.000803029
8.49164e-05
1.24845e-05
6.59111e-06
8.09536e-06
3.28124e-05
0.000267589
0.00207728
0.0140937
0.0856167
0.476253
2.44239
0.0591146
0.00939974
0.00118428
0.000108927
7.53008e-06
1.60402e-06
3.14309e-06
2.50594e-05
0.00024709
0.00206229
0.0147129
0.0924566
0.521242
2.65616
0.0918186
0.0149022
0.00186867
0.000167179
1.45773e-05
8.39113e-06
1.15119e-05
3.50055e-05
0.00027367
0.0023063
0.0168894
0.107358
0.600247
2.98313
0.143743
0.023691
0.00298381
0.000284207
5.78571e-05
6.32126e-05
8.03856e-05
0.000122713
0.000447253
0.00313053
0.0221552
0.137798
0.748146
3.58337
0.240608
0.0402214
0.00531241
0.000696187
0.000352402
0.000443201
0.000553368
0.000711439
0.00132762
0.00553951
0.0330946
0.190866
0.978012
4.44183
0.418706
0.0764307
0.0135739
0.00414302
0.00351171
0.00427162
0.00520327
0.00652112
0.00904109
0.019125
0.0704666
0.329599
1.50553
6.30647
0.803221
0.179141
0.0538308
0.0290274
0.026446
0.0304556
0.0361007
0.0449371
0.058455
0.0920879
0.206574
0.675299
2.54959
9.57645
1.71841
0.547564
0.265648
0.185048
0.168676
0.185309
0.21068
0.259014
0.329448
0.472682
0.803813
1.82016
5.27408
17.4426
4.59379
2.15448
1.35279
1.05423
0.959814
1.03359
1.13733
1.38747
1.73654
2.41036
3.62225
6.33817
13.1432
34.5981
0.032801
0.0200754
0.0142485
0.0107352
0.008887
0.00794833
0.0080892
0.00905552
0.0114915
0.0165372
0.0296278
0.0653793
0.177163
0.54327
0.00844219
0.00394278
0.00259903
0.00189059
0.00150845
0.00130809
0.00130286
0.00144951
0.0018836
0.00306078
0.00707378
0.0218702
0.0803101
0.315412
0.00349303
0.000900992
0.000433489
0.000287739
0.000220474
0.000186181
0.000182158
0.000203904
0.000296237
0.000697965
0.00264315
0.0118554
0.0542587
0.243496
0.00304355
0.00050802
0.000107797
4.18144e-05
2.73521e-05
2.22901e-05
2.1696e-05
2.69612e-05
6.43217e-05
0.000301527
0.00166952
0.00879863
0.043521
0.205147
0.00388356
0.000632745
9.14296e-05
1.31888e-05
3.44076e-06
2.22577e-06
2.31917e-06
5.37088e-06
3.21618e-05
0.000223497
0.00139571
0.00780393
0.040383
0.197993
0.00562896
0.000928794
0.000125676
1.34913e-05
1.24556e-06
2.71975e-07
4.15991e-07
2.85952e-06
2.55686e-05
0.000196265
0.00129288
0.00756974
0.040721
0.205067
0.00842193
0.00139016
0.000179949
1.76115e-05
1.44909e-06
4.21566e-07
6.13239e-07
2.85456e-06
2.42736e-05
0.000193358
0.0013356
0.00817168
0.0453547
0.23152
0.0130274
0.00213169
0.000265623
2.51514e-05
3.5041e-06
2.93828e-06
3.71255e-06
6.44976e-06
2.95737e-05
0.000217774
0.00153757
0.00964842
0.0541166
0.27432
0.0201539
0.00326393
0.000400132
4.39442e-05
1.72076e-05
2.12918e-05
2.65792e-05
3.41607e-05
6.88675e-05
0.000325217
0.00209056
0.0128185
0.0704632
0.347747
0.0322728
0.00535467
0.000731713
0.000150332
0.000126177
0.000163166
0.000203185
0.000251784
0.000351772
0.00083602
0.0036877
0.0197455
0.100575
0.465711
0.0536157
0.0100696
0.00210093
0.000941768
0.000965494
0.00121733
0.00151133
0.00187752
0.00241412
0.00386353
0.00982487
0.0381228
0.165473
0.694561
0.0996293
0.0250876
0.00906756
0.0058489
0.00593577
0.00712566
0.0086631
0.010716
0.0135401
0.0191057
0.0343727
0.0908197
0.309304
1.12974
0.213066
0.0803855
0.043206
0.0325918
0.0321423
0.0367565
0.043252
0.0528738
0.0663211
0.0900615
0.13803
0.268503
0.683068
2.11462
0.577979
0.30417
0.200856
0.164764
0.159801
0.176509
0.200863
0.242054
0.300631
0.402314
0.576329
0.934733
1.7709
4.30886
0.00386733
0.00234429
0.00163575
0.00120644
0.000964439
0.000839297
0.000831973
0.000917377
0.00115046
0.00168277
0.00315907
0.00750659
0.0216719
0.0693622
0.00102184
0.000443877
0.000279289
0.000197696
0.000152971
0.000129711
0.000125949
0.000137452
0.000177186
0.000303271
0.000785813
0.00270927
0.0105283
0.0419241
0.000528285
0.000122023
4.72015e-05
2.79275e-05
2.04322e-05
1.69556e-05
1.62678e-05
1.80694e-05
2.78077e-05
7.79963e-05
0.000340597
0.00161564
0.00744487
0.0327569
0.000575755
0.000102334
1.87742e-05
4.82143e-06
2.4056e-06
1.84992e-06
1.78496e-06
2.40062e-06
7.33093e-06
4.04259e-05
0.000234857
0.00124155
0.00602719
0.0274754
0.000806261
0.000142257
2.17546e-05
2.91895e-06
4.5879e-07
1.9096e-07
2.0042e-07
6.27024e-07
4.40301e-06
3.15356e-05
0.000197756
0.00109202
0.0055088
0.0260968
0.00117881
0.000204318
2.93906e-05
3.42542e-06
3.35561e-07
5.80882e-08
6.95116e-08
4.14827e-07
3.58049e-06
2.72789e-05
0.000178703
0.00103111
0.00542346
0.0266431
0.00174494
0.000293281
3.95154e-05
4.22329e-06
4.32337e-07
1.59519e-07
1.92364e-07
5.14526e-07
3.43052e-06
2.61624e-05
0.000178474
0.00107937
0.00591496
0.0299293
0.00261829
0.000425202
5.40758e-05
5.66641e-06
1.10682e-06
1.03917e-06
1.27589e-06
1.76291e-06
4.92755e-06
2.96679e-05
0.000201439
0.00125457
0.00703233
0.0359298
0.00390106
0.00061534
7.65295e-05
1.02797e-05
5.73253e-06
7.28584e-06
9.05547e-06
1.10839e-05
1.6675e-05
5.17107e-05
0.000284807
0.00169989
0.00935998
0.0468643
0.00595038
0.000954135
0.000136637
3.76874e-05
3.78462e-05
4.96216e-05
6.1787e-05
7.53513e-05
9.58153e-05
0.00017076
0.000568063
0.00277459
0.0139533
0.0654873
0.00949815
0.00177424
0.000407921
0.000220362
0.00024735
0.000317629
0.00039546
0.000487264
0.000605187
0.000865029
0.0017751
0.00591556
0.0244215
0.102128
0.0174671
0.00461555
0.00179348
0.00126388
0.00137737
0.00170004
0.00208703
0.00256971
0.00318336
0.0042556
0.00681265
0.0156809
0.0492453
0.175554
0.0381638
0.0152246
0.00831753
0.0065173
0.00680499
0.00802592
0.00960871
0.0117322
0.0145364
0.0191053
0.0275695
0.0492108
0.11518
0.340824
0.104269
0.0557452
0.0366325
0.0306034
0.0310082
0.0351392
0.0408532
0.0492156
0.0607665
0.0795815
0.110286
0.170789
0.30559
0.709998
0.000511584
0.00030086
0.000206727
0.000150678
0.000118306
0.00010134
9.83209e-05
0.000105714
0.00012829
0.000185704
0.000357837
0.000903052
0.00274901
0.00909791
0.000152249
5.84156e-05
3.39027e-05
2.33274e-05
1.78031e-05
1.49868e-05
1.43432e-05
1.53045e-05
1.92668e-05
3.40117e-05
9.64684e-05
0.00036063
0.00145391
0.00581966
0.000105502
2.28846e-05
6.8129e-06
3.29728e-06
2.26352e-06
1.86072e-06
1.77232e-06
1.95713e-06
3.15716e-06
1.00786e-05
4.7933e-05
0.000233995
0.00107516
0.0046335
0.000135108
2.58923e-05
4.61285e-06
8.93629e-07
3.02167e-07
2.04047e-07
1.95262e-07
2.81536e-07
1.00158e-06
5.93901e-06
3.51435e-05
0.000185503
0.000885725
0.00391851
0.000196566
3.7162e-05
6.05173e-06
8.44696e-07
1.17598e-07
3.4574e-08
3.23368e-08
9.75876e-08
6.7152e-07
4.78336e-06
2.98955e-05
0.000163383
0.000806023
0.00368837
0.000284211
5.18327e-05
7.93968e-06
1.01067e-06
1.16191e-07
2.51269e-08
2.2952e-08
7.65828e-08
5.59377e-07
4.13991e-06
2.68383e-05
0.000152687
0.000784482
0.00373074
0.000411559
7.15803e-05
1.02077e-05
1.20089e-06
1.48893e-07
6.21118e-08
6.80338e-08
1.21243e-07
5.64811e-07
3.9544e-06
2.63678e-05
0.000156803
0.000841692
0.00415736
0.000596898
9.88894e-05
1.32451e-05
1.55329e-06
3.6579e-07
3.5002e-07
4.2325e-07
5.30675e-07
1.03224e-06
4.69893e-06
2.96157e-05
0.00018025
0.000995082
0.0050181
0.000854007
0.000135921
1.78534e-05
2.81354e-06
1.7858e-06
2.27287e-06
2.8173e-06
3.37539e-06
4.44004e-06
9.85257e-06
4.39483e-05
0.000247428
0.00133902
0.00666188
0.00124351
0.000199649
3.05382e-05
9.89649e-06
1.05866e-05
1.39947e-05
1.74536e-05