/*--------------------------------*- C++ -*----------------------------------*\
| =========                 |                                                 |
| \\      /  F ield         | OpenFOAM: The Open Source CFD Toolbox           |
|  \\    /   O peration     | Version:  v2106                                 |
|   \\  /    A nd           | Website:  www.openfoam.com                      |
|    \\/     M anipulation  |                                                 |
\*---------------------------------------------------------------------------*/
FoamFile
{
    version     2.0;
    format      ascii;
    arch        "LSB;label=32;scalar=64";
    class       volScalarField;
    location    "0.000217";
    object      nut;
}
// * * * * * * * * * * * * * * * * * * * * * * * * * * * * * * * * * * * * * //

dimensions      [0 2 -1 0 0 0 0];

internalField   nonuniform List<scalar> 
18109
(
1.492e-06
1.19567e-06
9.58333e-07
7.71252e-07
6.33905e-07
5.46821e-07
5.11619e-07
8.11613e-07
6.21765e-07
4.93385e-07
3.91916e-07
3.14083e-07
2.60856e-07
2.33773e-07
4.5111e-07
3.16478e-07
2.42913e-07
1.89178e-07
1.47974e-07
1.1879e-07
1.02501e-07
2.53913e-07
1.58932e-07
1.15058e-07
8.68343e-08
6.61003e-08
5.13904e-08
4.28873e-08
1.42399e-07
7.8847e-08
5.26575e-08
3.79563e-08
2.79522e-08
2.10439e-08
1.70614e-08
8.05408e-08
3.92358e-08
2.3545e-08
1.58665e-08
1.11938e-08
8.14695e-09
6.44325e-09
4.88e-08
2.07916e-08
1.07209e-08
6.46503e-09
4.27077e-09
2.98582e-09
2.31527e-09
3.5511e-08
1.34396e-08
5.63254e-09
2.7719e-09
1.60389e-09
1.04787e-09
8.0001e-10
1.39701e-06
1.12738e-06
9.05758e-07
7.3022e-07
6.01367e-07
5.18797e-07
4.83757e-07
4.99065e-07
5.76721e-07
7.22982e-07
9.52183e-07
1.26732e-06
1.70535e-06
2.3291e-06
7.28841e-07
5.71438e-07
4.5693e-07
3.64332e-07
2.93273e-07
2.44683e-07
2.19845e-07
2.21294e-07
2.56877e-07
3.3591e-07
4.72589e-07
6.76678e-07
9.76828e-07
1.42144e-06
3.85354e-07
2.81503e-07
2.19801e-07
1.72351e-07
1.35685e-07
1.09791e-07
9.5462e-08
9.38948e-08
1.09319e-07
1.49064e-07
2.24982e-07
3.49947e-07
5.48414e-07
8.62107e-07
2.04937e-07
1.35821e-07
1.01426e-07
7.7486e-08
5.95076e-08
4.6757e-08
3.94881e-08
3.8103e-08
4.4758e-08
6.41823e-08
1.05229e-07
1.80507e-07
3.11694e-07
5.37494e-07
1.07935e-07
6.41885e-08
4.50171e-08
3.31415e-08
2.4718e-08
1.88592e-08
1.55299e-08
1.4825e-08
1.7842e-08
2.7472e-08
4.99507e-08
9.59843e-08
1.84544e-07
3.51152e-07
5.7118e-08
3.0089e-08
1.93546e-08
1.35157e-08
9.72554e-09
7.20148e-09
5.80482e-09
5.55583e-09
7.05857e-09
1.2114e-08
2.50242e-08
5.42573e-08
1.15837e-07
2.41153e-07
3.2581e-08
1.4818e-08
8.31305e-09
5.31692e-09
3.63653e-09
2.60598e-09
2.06805e-09
2.03334e-09
2.8723e-09
5.7585e-09
1.36751e-08
3.31054e-08
7.7251e-08
1.73175e-07
2.29928e-08
8.88721e-09
3.97716e-09
2.12918e-09
1.31818e-09
8.99964e-10
7.09141e-10
7.51226e-10
1.27289e-09
3.07391e-09
8.2752e-09
2.18548e-08
5.46875e-08
1.30005e-07
2.20588e-08
7.59614e-09
2.62834e-09
1.02763e-09
5.03854e-10
3.09134e-10
2.45429e-10
3.0576e-10
6.6395e-10
1.89533e-09
5.59273e-09
1.57329e-08
4.15391e-08
1.03347e-07
2.67449e-08
8.82752e-09
2.63707e-09
7.75582e-10
2.70869e-10
1.41069e-10
1.22427e-10
1.88869e-10
4.73584e-10
1.43906e-09
4.41188e-09
1.28468e-08
3.50856e-08
8.98851e-08
3.56639e-08
1.16519e-08
3.33757e-09
9.12888e-10
3.14957e-10
2.05412e-10
2.25772e-10
3.29754e-10
6.44404e-10
1.62843e-09
4.60245e-09
1.30437e-08
3.54088e-08
9.06097e-08
4.92548e-08
1.62529e-08
4.77424e-09
1.46918e-09
7.18246e-10
6.67191e-10
8.16945e-10
1.10408e-09
1.6921e-09
3.17146e-09
7.1862e-09
1.79352e-08
4.53299e-08
1.10546e-07
6.87323e-08
2.37609e-08
7.76939e-09
3.07714e-09
2.09913e-09
2.26748e-09
2.86574e-09
3.81666e-09
5.38793e-09
8.50183e-09
1.55753e-08
3.24942e-08
7.24645e-08
1.6144e-07
9.9048e-08
3.84641e-08
1.52249e-08
7.77516e-09
6.26184e-09
7.02426e-09
8.94211e-09
1.1915e-08
1.64202e-08
2.40054e-08
3.8295e-08
6.77974e-08
1.30799e-07
2.60687e-07
2.67768e-06
4.27031e-06
6.52935e-06
9.68266e-06
1.41605e-05
2.10404e-05
2.63485e-06
4.22292e-06
6.50543e-06
9.70891e-06
1.42893e-05
2.12849e-05
2.13513e-06
3.53658e-06
5.67327e-06
8.88439e-06
1.37871e-05
2.15902e-05
1.70782e-06
2.98201e-06
5.03455e-06
8.30504e-06
1.36226e-05
2.28007e-05
1.39554e-06
2.58292e-06
4.62224e-06
8.09184e-06
1.42006e-05
2.59322e-05
1.18226e-06
2.32391e-06
4.42111e-06
8.26091e-06
1.57332e-05
3.1465e-05
1.05918e-06
2.20605e-06
4.45859e-06
8.92588e-06
1.83294e-05
3.87599e-05
1.02525e-06
2.23523e-06
4.74442e-06
1.00263e-05
2.15671e-05
4.61579e-05
1.07867e-06
2.40457e-06
5.22108e-06
1.12868e-05
2.44647e-05
5.09266e-05
1.22807e-06
2.70009e-06
5.79748e-06
1.23907e-05
2.6315e-05
5.24888e-05
1.46435e-06
3.06439e-06
6.3096e-06
1.301e-05
2.66829e-05
5.10249e-05
1.79928e-06
3.49665e-06
6.75124e-06
1.31223e-05
2.5491e-05
4.66118e-05
2.21998e-06
3.95311e-06
7.0573e-06
1.27838e-05
2.32436e-05
4.09687e-05
2.77078e-06
4.54909e-06
7.58437e-06
1.283e-05
2.18075e-05
3.61112e-05
3.55481e-06
5.4276e-06
8.42047e-06
1.32394e-05
2.0831e-05
3.1736e-05
2.85826e-06
4.06208e-06
6.44173e-06
1.06122e-05
1.73366e-05
2.69631e-05
1.99601e-06
3.03566e-06
5.15986e-06
8.88239e-06
1.47881e-05
2.38825e-05
1.36996e-06
2.32474e-06
4.22554e-06
7.50954e-06
1.28399e-05
2.18904e-05
9.73184e-07
1.8213e-06
3.45936e-06
6.3077e-06
1.11011e-05
1.99532e-05
7.16056e-07
1.4358e-06
2.819e-06
5.29556e-06
9.69692e-06
1.82896e-05
5.38343e-07
1.13069e-06
2.28774e-06
4.43034e-06
8.37366e-06
1.63919e-05
4.10641e-07
8.92949e-07
1.86037e-06
3.71502e-06
7.25836e-06
1.48209e-05
3.1955e-07
7.14344e-07
1.52803e-06
3.13666e-06
6.29049e-06
1.32446e-05
2.58723e-07
5.90323e-07
1.28837e-06
2.69939e-06
5.52353e-06
1.196e-05
2.25356e-07
5.17447e-07
1.13613e-06
2.39593e-06
4.93598e-06
1.07785e-05
2.21977e-07
4.99906e-07
1.07831e-06
2.23847e-06
4.55089e-06
9.80182e-06
2.56432e-07
5.44726e-07
1.11306e-06
2.20358e-06
4.29985e-06
8.82647e-06
3.4224e-07
6.63246e-07
1.24532e-06
2.28916e-06
4.18912e-06
8.01229e-06
4.71696e-07
8.27616e-07
1.42061e-06
2.40963e-06
4.08842e-06
7.16309e-06
4.46061e-07
7.26491e-07
1.18692e-06
1.98533e-06
3.39228e-06
5.99224e-06
2.79122e-07
5.29963e-07
9.6206e-07
1.73462e-06
3.12289e-06
5.70383e-06
1.76584e-07
3.87854e-07
7.80944e-07
1.50672e-06
2.84013e-06
5.37237e-06
1.18418e-07
2.89075e-07
6.23191e-07
1.26255e-06
2.48825e-06
4.92294e-06
8.25615e-08
2.13969e-07
4.84233e-07
1.03167e-06
2.14687e-06
4.48222e-06
5.821e-08
1.55406e-07
3.6725e-07
8.26306e-07
1.8211e-06
4.01649e-06
4.12758e-08
1.12078e-07
2.76821e-07
6.60364e-07
1.54607e-06
3.61442e-06
2.96439e-08
8.1754e-08
2.11024e-07
5.32844e-07
1.32223e-06
3.28895e-06
2.28535e-08
6.45039e-08
1.73121e-07
4.57999e-07
1.19278e-06
3.13777e-06
2.12629e-08
6.14311e-08
1.67098e-07
4.47167e-07
1.18046e-06
3.18015e-06
2.64224e-08
7.58129e-08
2.01816e-07
5.20208e-07
1.31781e-06
3.43778e-06
4.11642e-08
1.10295e-07
2.81016e-07
6.78959e-07
1.5856e-06
3.83085e-06
7.05433e-08
1.66731e-07
3.99373e-07
9.03635e-07
1.95094e-06
4.46531e-06
1.26757e-07
2.63491e-07
5.75745e-07
1.20758e-06
2.43301e-06
5.36271e-06
5.09695e-07
1.20265e-06
2.70544e-06
5.75376e-06
1.16005e-05
2.19822e-05
7.96677e-07
1.68843e-06
3.43197e-06
6.66465e-06
1.23969e-05
2.17722e-05
1.24234e-06
2.34203e-06
4.27555e-06
7.5901e-06
1.31314e-05
2.16754e-05
1.9845e-06
3.32468e-06
5.44639e-06
8.81695e-06
1.40365e-05
2.17439e-05
2.39759e-07
4.75835e-07
9.09073e-07
1.68391e-06
3.13702e-06
6.36932e-06
1.75712e-07
3.82668e-07
7.82791e-07
1.54565e-06
3.08344e-06
6.63152e-06
1.28813e-07
3.00702e-07
6.54309e-07
1.38324e-06
2.96966e-06
6.7668e-06
9.46536e-08
2.3465e-07
5.45648e-07
1.24807e-06
2.89925e-06
7.00038e-06
7.21996e-08
1.90201e-07
4.78031e-07
1.19414e-06
3.00086e-06
7.63189e-06
6.07678e-08
1.7134e-07
4.68872e-07
1.27201e-06
3.40978e-06
8.96787e-06
6.29615e-08
1.87805e-07
5.48194e-07
1.56042e-06
4.28586e-06
1.12237e-05
8.45471e-08
2.5477e-07
7.47559e-07
2.10164e-06
5.59912e-06
1.39582e-05
1.35777e-07
3.924e-07
1.09447e-06
2.89181e-06
7.18779e-06
1.66131e-05
2.32691e-07
6.2235e-07
1.59405e-06
3.85277e-06
8.75572e-06
1.85032e-05
3.96072e-07
9.62712e-07
2.2358e-06
4.90437e-06
1.01699e-05
1.96942e-05
6.53969e-07
1.42815e-06
2.99206e-06
5.97837e-06
1.14129e-05
2.04851e-05
1.07188e-06
2.08308e-06
3.91057e-06
7.11912e-06
1.25972e-05
2.12615e-05
1.78429e-06
3.07788e-06
5.17032e-06
8.5491e-06
1.38697e-05
2.18667e-05
3.29556e-05
0.000101769
0.000221799
0.000216733
0.000166762
3.64701e-05
0.000118626
0.000231035
0.000217009
0.000163247
4.28581e-05
0.000141247
0.000239552
0.000218017
0.000161042
5.29474e-05
0.000165105
0.000247828
0.000221617
0.000159454
6.57888e-05
0.000183256
0.000253258
0.000223586
0.000155048
7.91023e-05
0.000189221
0.000254135
0.000223403
0.00015105
8.94423e-05
0.000186079
0.000252731
0.000224392
0.000152336
9.27995e-05
0.000177549
0.000249649
0.000230593
0.000161563
0.00011952
9.0598e-05
0.000166259
0.000245709
0.000240948
0.000172924
0.000125844
8.38689e-05
0.000150466
0.000238443
0.000250154
0.000186295
0.000134084
7.27704e-05
0.00013108
0.000229236
0.000259747
0.000204555
0.00014576
0.0001311
6.14944e-05
0.000112068
0.000220095
0.000268846
0.000226367
0.000159515
0.000147782
0.000159617
5.21541e-05
9.68757e-05
0.000213744
0.000276267
0.000245383
0.000173849
0.000152659
0.000250695
4.68597e-05
9.06897e-05
0.000218046
0.000285235
0.000258822
0.00018071
0.000148708
0.000231429
4.3969e-05
9.05034e-05
0.000232422
0.000296765
0.000265022
0.000177686
0.000134923
0.000201084
4.21103e-05
9.52105e-05
0.000249933
0.000301131
0.0002573
0.000169031
0.000125476
0.000184178
4.08912e-05
0.000104339
0.000264332
0.000301027
0.00024932
0.000163834
0.000126201
0.000108631
3.96772e-05
0.000116044
0.000274899
0.000307011
0.000247605
0.00016021
0.000123147
0.000158689
3.87477e-05
0.000126883
0.000276744
0.000309287
0.000238724
0.000146372
0.000106607
0.000163877
3.78814e-05
0.000132494
0.000267559
0.000303889
0.000225039
0.000133669
9.61965e-05
0.000138093
3.74755e-05
0.000132273
0.000251643
0.000293697
0.000216995
0.000131765
9.99983e-05
6.88216e-05
3.67225e-05
0.00012547
0.000231514
0.000287161
0.000222415
0.000141042
0.000110367
9.21274e-05
3.55617e-05
0.000113416
0.000207592
0.000282277
0.000230712
0.000147954
3.35568e-05
9.83133e-05
0.000180687
0.000272997
0.000241068
0.000157252
3.07607e-05
8.26453e-05
0.000153574
0.000259421
0.000255354
0.000171968
2.76205e-05
6.87057e-05
0.000128084
0.000245669
0.000272643
0.000190526
2.48364e-05
5.78175e-05
0.000111734
0.000236313
0.000288919
0.000210728
2.23316e-05
5.00432e-05
0.000105668
0.000244451
0.000302495
2.00054e-05
4.46578e-05
0.000108731
0.000264996
0.000313133
1.83153e-05
4.08789e-05
0.000119049
0.000281616
0.000304429
1.68281e-05
3.86168e-05
0.000135333
0.000289236
0.000289318
1.53729e-05
3.88735e-05
0.000157115
0.000296994
0.000282294
1.40835e-05
4.1664e-05
0.000176813
0.000296869
0.000270313
1.30025e-05
4.57266e-05
0.000183515
0.00028422
0.000250777
1.24216e-05
4.98102e-05
0.000176889
0.000266368
0.00023075
1.23924e-05
5.27869e-05
0.000162963
0.000251917
0.000218412
1.29565e-05
5.36902e-05
0.000145765
0.00024092
0.000210363
1.39381e-05
5.2618e-05
0.000128534
0.000228878
0.0002022
1.50827e-05
5.03446e-05
0.000114355
0.000217036
0.000197901
1.61107e-05
4.76947e-05
0.000106079
0.000209916
0.000197749
1.68066e-05
4.55241e-05
0.000107669
0.000213175
0.000197841
1.71563e-05
4.44091e-05
0.000123008
0.000227963
0.00019818
1.71108e-05
4.47041e-05
0.000152612
0.000244307
0.000196132
1.68096e-05
4.68233e-05
0.000190712
0.000248627
0.000187304
1.66726e-05
5.17675e-05
0.000230162
0.000248182
0.000181239
1.73104e-05
5.99212e-05
0.000261165
0.000249264
0.00017763
1.92481e-05
7.01065e-05
0.000269057
0.000245889
0.000170377
2.26168e-05
7.99605e-05
0.00025948
0.000238512
0.000160986
2.72624e-05
8.7267e-05
0.000246487
0.000230842
0.000154308
3.13965e-05
9.01937e-05
0.000233437
0.000226513
0.000152233
3.4041e-05
9.07977e-05
0.000221481
0.000223926
0.000152329
3.45629e-05
8.9113e-05
0.000207939
0.000218446
0.000153437
3.35741e-05
8.57297e-05
0.000198095
0.000214144
0.000157523
3.20535e-05
8.33435e-05
0.000193966
0.000211074
0.00016225
3.11637e-05
8.4736e-05
0.000198417
0.000210083
0.000165381
3.1296e-05
9.09945e-05
0.000209061
0.000212939
0.000167278
1.33933e-06
1.07935e-06
8.66214e-07
6.98166e-07
5.75638e-07
4.9634e-07
4.61707e-07
4.71424e-07
5.38653e-07
6.72812e-07
8.91517e-07
1.19795e-06
1.63653e-06
2.27299e-06
6.74398e-07
5.34877e-07
4.28331e-07
3.41849e-07
2.76071e-07
2.31172e-07
2.08347e-07
2.08468e-07
2.39693e-07
3.11701e-07
4.39936e-07
6.34498e-07
9.2807e-07
1.36961e-06
3.42315e-07
2.56408e-07
2.01641e-07
1.58503e-07
1.25382e-07
1.02146e-07
8.95066e-08
8.79366e-08
1.01713e-07
1.378e-07
2.0815e-07
3.25497e-07
5.15806e-07
8.21971e-07
1.74108e-07
1.19948e-07
9.09951e-08
6.98653e-08
5.39847e-08
4.28031e-08
3.65762e-08
3.54209e-08
4.1457e-08
5.90446e-08
9.66961e-08
1.66489e-07
2.90334e-07
5.0855e-07
8.73849e-08
5.47186e-08
3.94411e-08
2.93111e-08
2.20372e-08
1.70013e-08
1.42103e-08
1.3668e-08
1.64261e-08
2.51118e-08
4.55605e-08
8.78538e-08
1.70687e-07
3.30953e-07
4.38169e-08
2.45702e-08
1.64954e-08
1.17224e-08
8.53352e-09
6.40483e-09
5.25369e-09
5.07842e-09
6.44657e-09
1.09852e-08
2.26663e-08
4.94052e-08
1.06837e-07
2.27371e-07
2.3612e-08
1.14083e-08
6.80271e-09
4.50176e-09
3.14181e-09
2.29135e-09
1.85458e-09
1.84271e-09
2.59784e-09
5.1805e-09
1.23369e-08
3.01328e-08
7.14502e-08
1.64174e-07
1.59571e-08
6.33341e-09
3.02012e-09
1.72298e-09
1.11409e-09
7.82504e-10
6.30956e-10
6.74345e-10
1.13892e-09
2.74988e-09
7.46608e-09
1.99823e-08
5.09767e-08
1.24448e-07
1.51685e-08
5.09588e-09
1.78633e-09
7.49649e-10
4.02434e-10
2.6286e-10
2.15946e-10
2.70834e-10
5.87731e-10
1.69097e-09
5.06305e-09
1.45052e-08
3.91826e-08
1.00204e-07
1.86563e-08
5.83312e-09
1.66297e-09
4.92074e-10
1.90565e-10
1.13235e-10
1.04851e-10
1.63549e-10
4.13573e-10
1.27867e-09
4.00603e-09
1.19456e-08
3.34804e-08
8.81308e-08
2.53713e-08
7.78742e-09
2.08442e-09
5.55497e-10
2.14519e-10
1.65613e-10
1.93037e-10
2.8362e-10
5.56787e-10
1.43499e-09
4.17049e-09
1.21692e-08
3.39753e-08
8.92328e-08
3.57118e-08
1.10852e-08
3.06091e-09
9.53093e-10
5.43448e-10
5.66052e-10
7.1265e-10
9.63911e-10
1.4724e-09
2.78351e-09
6.46043e-09
1.66257e-08
4.32917e-08
1.08304e-07
5.08418e-08
1.67172e-08
5.27959e-09
2.21642e-09
1.71411e-09
1.97479e-09
2.53699e-09
3.38199e-09
4.7558e-09
7.51374e-09
1.3948e-08
2.98182e-08
6.84272e-08
1.56365e-07
7.51473e-08
2.84329e-08
1.1212e-08
6.10587e-09
5.33134e-09
6.22481e-09
8.01919e-09
1.07021e-08
1.47097e-08
2.14886e-08
3.44569e-08
6.18824e-08
1.22076e-07
2.4916e-07
1.31268e-06
1.03459e-06
8.21163e-07
6.56515e-07
5.39522e-07
4.61142e-07
4.24158e-07
4.21875e-07
4.68892e-07
5.79744e-07
7.79908e-07
1.0766e-06
1.53176e-06
2.22083e-06
6.21514e-07
4.84322e-07
3.83782e-07
3.04552e-07
2.46144e-07
2.05861e-07
1.85282e-07
1.81856e-07
2.03752e-07
2.60883e-07
3.71554e-07
5.47936e-07
8.31642e-07
1.27679e-06
2.94975e-07
2.17968e-07
1.69963e-07
1.3307e-07
1.05671e-07
8.64939e-08
7.63462e-08
7.41435e-08
8.39066e-08
1.11567e-07
1.69262e-07
2.69755e-07
4.43005e-07
7.37423e-07
1.39513e-07
9.52955e-08
7.19294e-08
5.50769e-08
4.2819e-08
3.42684e-08
2.97151e-08
2.86498e-08
3.29467e-08
4.59714e-08
7.54096e-08
1.32272e-07
2.39885e-07
4.44176e-07
6.4509e-08
4.03826e-08
2.91431e-08
2.16441e-08
1.6409e-08
1.2826e-08
1.09413e-08
1.05313e-08
1.24672e-08
1.86751e-08
3.40192e-08
6.72273e-08
1.37126e-07
2.85392e-07
2.94151e-08
1.66673e-08
1.13333e-08
8.09211e-09
5.95956e-09
4.54634e-09
3.82009e-09
3.70253e-09
4.63092e-09
7.77183e-09
1.62967e-08
3.68986e-08
8.48632e-08
1.96411e-07
1.42436e-08
6.96135e-09
4.28328e-09
2.88919e-09
2.05541e-09
1.52912e-09
1.26973e-09
1.26301e-09
1.75707e-09
3.51086e-09
8.68694e-09
2.24252e-08
5.72689e-08
1.44224e-07
8.84109e-09
3.40436e-09
1.67998e-09
1.00592e-09
6.77409e-10
4.89603e-10
4.05172e-10
4.32e-10
7.29262e-10
1.82189e-09
5.26381e-09
1.51225e-08
4.19572e-08
1.12496e-07
8.2848e-09
2.51506e-09
8.43774e-10
3.73898e-10
2.19966e-10
1.52568e-10
1.29471e-10
1.62644e-10
3.64846e-10
1.12462e-09
3.65267e-09
1.13796e-08
3.36227e-08
9.415e-08
1.06085e-08
2.89891e-09
7.16638e-10
2.01374e-10
8.91469e-11
6.25656e-11
6.25111e-11
9.85439e-11
2.60018e-10
8.72874e-10
3.00222e-09
9.81979e-09
3.01009e-08
8.60417e-08
1.53135e-08
4.11206e-09
9.33508e-10
2.28458e-10
1.10467e-10
1.10179e-10
1.37328e-10
1.98188e-10
3.82066e-10
1.03221e-09
3.27576e-09
1.04874e-08
3.18394e-08
8.97693e-08
2.2892e-08
6.29135e-09
1.51585e-09
4.80073e-10
3.53385e-10
4.26002e-10
5.53722e-10
7.43813e-10
1.11337e-09
2.12779e-09
5.24872e-09
1.46817e-08
4.13438e-08
1.10177e-07
3.45466e-08
1.02908e-08
3.01446e-09
1.38626e-09
1.26462e-09
1.57242e-09
2.06172e-09
2.74851e-09
3.82382e-09
6.04374e-09
1.15841e-08
2.63892e-08
6.50549e-08
1.57905e-07
5.3682e-08
1.92243e-08
7.51894e-09
4.49012e-09
4.27384e-09
5.19748e-09
6.77888e-09
9.0605e-09
1.23899e-08
1.80917e-08
2.9393e-08
5.47515e-08
1.1404e-07
2.46192e-07
1.31657e-06
1.00852e-06
7.85309e-07
6.18242e-07
5.06144e-07
4.29295e-07
3.93256e-07
3.86078e-07
4.24207e-07
5.21872e-07
7.12122e-07
1.00989e-06
1.49926e-06
2.26588e-06
5.97217e-07
4.46705e-07
3.46867e-07
2.71763e-07
2.19338e-07
1.82809e-07
1.6479e-07
1.60304e-07
1.77742e-07
2.25385e-07
3.2385e-07
4.87559e-07
7.69418e-07
1.22999e-06
2.71226e-07
1.89404e-07
1.44286e-07
1.11688e-07
8.87197e-08
7.25974e-08
6.45306e-08
6.24149e-08
7.00512e-08
9.19425e-08
1.40199e-07
2.27188e-07
3.88288e-07
6.80691e-07
1.22183e-07
7.75791e-08
5.69603e-08
4.31585e-08
3.36239e-08
2.69679e-08
2.36552e-08
2.28131e-08
2.60649e-08
3.57992e-08
5.89082e-08
1.05229e-07
2.00456e-07
3.99311e-07
5.35175e-08
3.06076e-08
2.13759e-08
1.57274e-08
1.19759e-08
9.39919e-09
8.13475e-09
7.84699e-09
9.22597e-09
1.35817e-08
2.49231e-08
5.07971e-08
1.10915e-07
2.54322e-07
2.31483e-08
1.17223e-08
7.6527e-09
5.41989e-09
4.02082e-09
3.08371e-09
2.63141e-09
2.55223e-09
3.16048e-09
5.23539e-09
1.12591e-08
2.69718e-08
6.79734e-08
1.763e-07
1.07976e-08
4.58329e-09
2.65684e-09
1.77424e-09
1.275e-09
9.53956e-10
8.0335e-10
7.95486e-10
1.09468e-09
2.21014e-09
5.80899e-09
1.63623e-08
4.66982e-08
1.32663e-07
6.73636e-09
2.21032e-09
9.74169e-10
5.64927e-10
3.841e-10
2.79108e-10
2.33269e-10
2.45939e-10
4.18099e-10
1.10961e-09
3.53932e-09
1.13663e-08
3.55874e-08
1.07196e-07
6.49782e-09
1.73746e-09
4.92756e-10
1.95177e-10
1.13638e-10
7.93268e-11
6.77306e-11
8.46882e-11
2.02107e-10
6.98699e-10
2.57469e-09
9.08271e-09
3.02228e-08
9.38677e-08
8.5651e-09
2.15775e-09
4.62373e-10
1.08586e-10
4.55988e-11
3.40643e-11
3.54939e-11
5.55982e-11
1.54097e-10
5.82328e-10
2.28245e-09
8.42893e-09
2.87112e-08
8.93849e-08
1.27812e-08
3.25367e-09
6.66239e-10
1.45128e-10
7.42021e-11
8.19405e-11
1.04097e-10
1.45343e-10
2.70699e-10
7.70823e-10
2.72067e-09
9.68477e-09
3.20856e-08
9.67301e-08
1.98422e-08
5.22009e-09
1.16367e-09
3.5358e-10
2.77163e-10
3.4897e-10
4.56952e-10
6.08075e-10
8.93747e-10
1.73595e-09
4.59811e-09
1.40764e-08
4.28342e-08
1.2091e-07
3.09754e-08
8.84575e-09
2.47269e-09
1.14457e-09
1.07267e-09
1.35478e-09
1.78009e-09
2.36757e-09
3.27178e-09
5.20815e-09
1.03932e-08
2.54203e-08
6.73827e-08
1.73011e-07
4.85768e-08
1.70388e-08
6.74067e-09
4.13322e-09
3.90932e-09
4.7295e-09
6.12699e-09
8.16463e-09
1.1133e-08
1.63464e-08
2.70508e-08
5.25406e-08
1.15815e-07
2.63979e-07
1.24648e-06
9.26582e-07
7.05396e-07
5.4343e-07
4.43873e-07
3.75665e-07
3.47888e-07
3.40076e-07
3.72967e-07
4.54397e-07
6.28908e-07
9.20509e-07
1.43799e-06
2.26817e-06
5.43765e-07
3.84955e-07
2.90439e-07
2.22797e-07
1.79886e-07
1.50406e-07
1.37967e-07
1.34585e-07
1.49448e-07
1.87509e-07
2.7214e-07
4.20174e-07
6.95692e-07
1.16932e-06
2.38284e-07
1.52527e-07
1.11692e-07
8.45776e-08
6.73716e-08
5.55707e-08
5.05626e-08
4.94287e-08
5.58138e-08
7.25656e-08
1.11657e-07
1.85175e-07
3.34251e-07
6.31738e-07
1.03263e-07
5.80064e-08
4.03698e-08
2.98763e-08
2.34011e-08
1.9011e-08
1.7154e-08
1.68438e-08
1.94385e-08
2.64894e-08
4.41146e-08
8.12923e-08
1.66776e-07
3.69448e-07
4.37649e-08
2.11773e-08
1.37286e-08
9.83503e-09
7.54846e-09
6.02818e-09
5.39078e-09
5.32717e-09
6.34261e-09
9.30307e-09
1.75034e-08
3.77177e-08
9.13709e-08
2.38576e-07
1.87174e-08
7.56896e-09
4.42164e-09
3.02647e-09
2.26644e-09
1.77489e-09
1.57141e-09
1.56821e-09
1.97008e-09
3.29742e-09
7.51141e-09
1.97988e-08
5.68935e-08
1.69169e-07
9.0505e-09
2.90639e-09
1.39515e-09
8.76124e-10
6.33487e-10
4.85015e-10
4.25409e-10
4.34737e-10
6.12998e-10
1.30679e-09
3.83846e-09
1.23702e-08
4.07938e-08
1.31836e-07
6.2088e-09
1.59078e-09
5.12129e-10
2.49642e-10
1.6586e-10
1.23207e-10
1.07702e-10
1.18115e-10
2.15314e-10
6.52751e-10
2.43467e-09
9.10544e-09
3.27611e-08
1.10343e-07
6.40684e-09
1.5173e-09
3.25836e-10
8.81933e-11
4.34322e-11
3.0539e-11
2.75844e-11
3.72995e-11
1.05049e-10
4.40958e-10
1.92923e-09
7.8895e-09
2.96141e-08
1.00596e-07
8.67839e-09
2.09341e-09
3.95112e-10
6.83175e-11
2.15072e-11
1.72273e-11
1.95803e-11
3.10071e-11
9.28635e-11
4.12295e-10
1.88203e-09
7.88062e-09
2.95519e-08
9.85285e-08
1.32575e-08
3.33478e-09
6.42693e-10
1.19457e-10
5.58939e-11
6.44966e-11
8.18439e-11
1.09932e-10
1.99259e-10
6.13038e-10
2.44138e-09
9.64477e-09
3.45029e-08
1.09657e-07
2.10874e-08
5.52079e-09
1.174e-09
3.16156e-10
2.34329e-10
2.97244e-10
3.86165e-10
5.04753e-10
7.29086e-10
1.4615e-09
4.23399e-09
1.42589e-08
4.66924e-08
1.38457e-07
3.35207e-08
9.42169e-09
2.53007e-09
1.08368e-09
9.68196e-10
1.21188e-09
1.57518e-09
2.07397e-09
2.838e-09
4.57475e-09
9.62904e-09
2.55506e-08
7.29683e-08
1.97411e-07
5.18269e-08
1.81139e-08
7.22787e-09
4.27741e-09
3.82317e-09
4.49772e-09
5.70629e-09
7.52871e-09
1.01982e-08
1.5094e-08
2.55859e-08
5.21815e-08
1.22187e-07
2.9449e-07
9.43751e-07
6.78484e-07
4.99917e-07
3.74468e-07
3.04852e-07
2.56622e-07
2.41685e-07
2.36305e-07
2.6413e-07
3.20589e-07
4.5989e-07
7.08364e-07
1.19013e-06
1.9739e-06
3.87005e-07
2.5726e-07
1.85845e-07
1.37585e-07
1.11e-07
9.30068e-08
8.75239e-08
8.62178e-08
9.81334e-08
1.2323e-07
1.85653e-07
3.0246e-07
5.41949e-07
9.92882e-07
1.60231e-07
9.24216e-08
6.37825e-08
4.63337e-08
3.69565e-08
3.07744e-08
2.89788e-08
2.88662e-08
3.36202e-08
4.40596e-08
7.07919e-08
1.25509e-07
2.52182e-07
5.51388e-07
6.62942e-08
3.18363e-08
2.03758e-08
1.43781e-08
1.12941e-08
9.31679e-09
8.76821e-09
8.8421e-09
1.05931e-08
1.47131e-08
2.60147e-08
5.29606e-08
1.26511e-07
3.36161e-07
2.75048e-08
1.06337e-08
6.08883e-09
4.12014e-09
3.17217e-09
2.58123e-09
2.4227e-09
2.47569e-09
3.08949e-09
4.73734e-09
9.87325e-09
2.48229e-08
7.28005e-08
2.27759e-07
1.23085e-08
3.66946e-09
1.73996e-09
1.09587e-09
8.20195e-10
6.54966e-10
6.11476e-10
6.35984e-10
8.56177e-10
1.59148e-09
4.30485e-09
1.38417e-08
4.83193e-08
1.67266e-07
6.78047e-09
1.56988e-09
5.24237e-10
2.75825e-10
1.95335e-10
1.52075e-10
1.41192e-10
1.5282e-10
2.46473e-10
6.53154e-10
2.41011e-09
9.52708e-09
3.72213e-08
1.35482e-07
5.59724e-09
1.16297e-09
2.44394e-10
7.56495e-11
4.36061e-11
3.23909e-11
3.01576e-11
3.70479e-11
9.01014e-11
3.7035e-10
1.72303e-09
7.6648e-09
3.14673e-08
1.15951e-07
6.37059e-09
1.3814e-09
2.40008e-10
3.8413e-11
1.11946e-11
7.36787e-12
7.36476e-12
1.28079e-11
5.33794e-11
2.94152e-10
1.543e-09
7.23874e-09
3.00189e-08
1.08916e-07
9.07675e-09
2.09897e-09
3.66615e-10
5.04333e-11
1.11154e-11
9.5018e-12
1.15417e-11
1.81251e-11
5.94217e-11
3.12901e-10
1.64346e-09
7.6499e-09
3.0927e-08
1.08259e-07
1.42416e-08
3.49096e-09
6.46829e-10
1.05211e-10
4.22914e-11
4.95199e-11
6.2782e-11
8.24566e-11
1.49177e-10
5.07483e-10
2.27542e-09
9.83051e-09
3.74129e-08
1.23671e-07
2.34005e-08
5.99397e-09
1.22873e-09
2.88928e-10
1.90972e-10
2.41388e-10
3.12551e-10
4.05375e-10
5.83206e-10
1.23181e-09
3.95201e-09
1.45846e-08
5.09738e-08
1.57416e-07
3.83017e-08
1.04658e-08
2.69968e-09
1.03967e-09
8.53353e-10
1.04548e-09
1.34334e-09
1.76259e-09
2.40965e-09
3.98746e-09
8.98619e-09
2.60002e-08
7.95873e-08
2.25398e-07
5.9226e-08
2.03451e-08
8.14121e-09
4.55748e-09
3.76289e-09
4.23203e-09
5.2012e-09
6.80705e-09
9.20947e-09
1.38881e-08
2.43651e-08
5.25818e-08
1.30529e-07
3.31642e-07
4.75831e-07
3.25269e-07
2.33103e-07
1.7343e-07
1.44038e-07
1.23266e-07
1.18926e-07
1.17772e-07
1.34216e-07
1.62592e-07
2.3952e-07
3.87232e-07
7.0776e-07
1.26883e-06
1.79439e-07
1.09588e-07
7.58095e-08
5.53675e-08
4.55061e-08
3.89034e-08
3.77172e-08
3.79907e-08
4.44225e-08
5.63798e-08
8.81886e-08
1.54699e-07
3.10177e-07
6.54004e-07
6.92259e-08
3.48965e-08
2.25876e-08
1.60506e-08
1.29936e-08
1.10535e-08
1.07617e-08
1.10479e-08
1.33273e-08
1.79736e-08
3.07603e-08
6.15804e-08
1.46224e-07
3.86102e-07
2.78853e-08
1.08366e-08
6.21725e-09
4.23291e-09
3.35384e-09
2.82497e-09
2.75528e-09
2.88272e-09
3.61559e-09
5.33679e-09
1.06407e-08
2.63409e-08
7.80478e-08
2.49664e-07
1.21307e-08
3.46531e-09
1.60874e-09
1.01706e-09
7.81988e-10
6.48537e-10
6.31565e-10
6.7462e-10
9.01981e-10
1.587e-09
4.15354e-09
1.36387e-08
4.96781e-08
1.8003e-07
6.49337e-09
1.36611e-09
4.29386e-10
2.25967e-10
1.64426e-10
1.33374e-10
1.29291e-10
1.4256e-10
2.20978e-10
5.55381e-10
2.09217e-09
8.77927e-09
3.63234e-08
1.39347e-07
4.57598e-09
8.38542e-10
1.64407e-10
5.18352e-11
3.13629e-11
2.44391e-11
2.36284e-11
2.86203e-11
6.63609e-11
2.83642e-10
1.43688e-09
6.94541e-09
3.04529e-08
1.18651e-07
4.63685e-09
8.82581e-10
1.41638e-10
2.1531e-11
6.16588e-12
4.06793e-12
4.02285e-12
6.89051e-12
3.27482e-11
2.07163e-10
1.20901e-09
6.17664e-09
2.74141e-08
1.0555e-07
5.70916e-09
1.1865e-09
1.93679e-10
2.36473e-11
2.98213e-12
1.41953e-12
1.63466e-12
4.14132e-12
2.80635e-11
2.02092e-10
1.23421e-09
6.35736e-09
2.77619e-08
1.0365e-07
8.36195e-09
1.85389e-09
3.17507e-10
4.07905e-11
7.34528e-12
6.30756e-12
7.7001e-12
1.13155e-11
3.96125e-11
2.43853e-10
1.42689e-09
7.09226e-09
2.97342e-08
1.06173e-07
1.31489e-08
3.06901e-09
5.57783e-10
8.62107e-11
3.1694e-11
3.71667e-11
4.68933e-11
6.03297e-11
1.11502e-10
4.25395e-10
2.09993e-09
9.59185e-09
3.76538e-08
1.26703e-07
2.2351e-08
5.40983e-09
1.08715e-09
2.4346e-10
1.51139e-10
1.89749e-10
2.44241e-10
3.14355e-10
4.54829e-10
1.02782e-09
3.63298e-09
1.43542e-08
5.21418e-08
1.64301e-07
3.8651e-08
1.00044e-08
2.56717e-09
9.58564e-10
7.40587e-10
8.82608e-10
1.11414e-09
1.45678e-09
1.99794e-09
3.42731e-09
8.31059e-09
2.59002e-08
8.3111e-08
2.42168e-07
6.32657e-08
2.12405e-08
8.83569e-09
4.91669e-09
3.8096e-09
4.06678e-09
4.74016e-09
6.1277e-09
8.22957e-09
1.26648e-08
2.29408e-08
5.19311e-08
1.34654e-07
3.57204e-07
9.80326e-08
6.26154e-08
4.40345e-08
3.23496e-08
2.73644e-08
2.38585e-08
2.38045e-08
2.45568e-08
2.91282e-08
3.67658e-08
5.64605e-08
9.72185e-08
1.97439e-07
4.16269e-07
3.23306e-08
1.77676e-08
1.1902e-08
8.53239e-09
7.07037e-09
6.13125e-09
6.14408e-09
6.49214e-09
7.97199e-09
1.07436e-08
1.80735e-08
3.56145e-08
8.41782e-08
2.20077e-07
1.14839e-08
4.85285e-09
2.95561e-09
2.04712e-09
1.65247e-09
1.41527e-09
1.41745e-09
1.53194e-09
1.96091e-09
2.90335e-09
5.71268e-09
1.41091e-08
4.24163e-08
1.40064e-07
4.73115e-09
1.37842e-09
6.84616e-10
4.46167e-10
3.48596e-10
2.92816e-10
2.91353e-10
3.21684e-10
4.38197e-10
7.71896e-10
2.01402e-09
6.75762e-09
2.56213e-08
9.80952e-08
2.44423e-09
4.86483e-10
1.59387e-10
8.86966e-11
6.59667e-11
5.40004e-11
5.31289e-11
6.05839e-11
9.6181e-11
2.48311e-10
9.70886e-10
4.28641e-09
1.88488e-08
7.7776e-08
1.81022e-09
2.95047e-10
5.40777e-11
1.76568e-11
1.11522e-11
8.78319e-12
8.56711e-12
1.09011e-11
2.7074e-11
1.2349e-10
6.56947e-10
3.34768e-09
1.56714e-08
6.60821e-08
1.75622e-09
2.93396e-10
4.23054e-11
6.03731e-12
1.82287e-12
1.24898e-12
1.26038e-12
2.56583e-12
1.39386e-11
9.2706e-11
5.64126e-10
3.04638e-09
1.45382e-08
6.10505e-08
2.19468e-09
3.95444e-10
5.74239e-11
6.15839e-12
6.0496e-13
2.1934e-13
2.79141e-13
1.33846e-12
1.13658e-11
8.60592e-11
5.50836e-10
3.02136e-09
1.42869e-08
5.85008e-08
3.0031e-09
5.80196e-10
8.79867e-11
9.49723e-12
1.00064e-12
5.93007e-13
7.40147e-13
1.84909e-12
1.27749e-11
9.68804e-11
6.23802e-10
3.381e-09
1.55577e-08
6.14486e-08
4.67355e-09
9.41367e-10
1.48803e-10
1.78201e-11
3.87613e-12
4.0467e-12
4.98657e-12
6.93587e-12
2.15039e-11
1.2948e-10
7.79037e-10
4.02367e-09
1.76522e-08
6.6495e-08
7.5804e-09
1.58901e-09
2.67913e-10
4.16317e-11
1.93297e-11
2.43913e-11
3.08865e-11
3.90004e-11
6.77217e-11
2.44071e-10
1.21446e-09
5.73396e-09
2.35811e-08
8.40568e-08
1.36865e-08
2.98878e-09
5.84361e-10
1.46085e-10
1.03488e-10
1.31589e-10
1.68812e-10
2.1455e-10
3.01287e-10
6.44681e-10
2.23202e-09
8.97224e-09
3.3809e-08
1.129e-07
2.59152e-08
6.35684e-09
1.75037e-09
7.41608e-10
5.80815e-10
6.71998e-10
8.30509e-10
1.0742e-09
1.45359e-09
2.41925e-09
5.67824e-09
1.76128e-08
5.79987e-08
1.79482e-07
5.08991e-08
1.89648e-08
9.13568e-09
5.43486e-09
4.01382e-09
4.01739e-09
4.20597e-09
5.24351e-09
6.65782e-09
1.00276e-08
1.7511e-08
3.85962e-08
1.00606e-07
2.82349e-07
7.80138e-09
4.78157e-09
3.37318e-09
2.49698e-09
2.10769e-09
1.86882e-09
1.89653e-09
2.04891e-09
2.54117e-09
3.41392e-09
5.58554e-09
1.05254e-08
2.34602e-08
5.6937e-08
2.33518e-09
1.20114e-09
8.04153e-10
5.80363e-10
4.74064e-10
4.11734e-10
4.13944e-10
4.53611e-10
5.80475e-10
8.45089e-10
1.57895e-09
3.6274e-09
1.00855e-08
3.12277e-08
8.09652e-10
2.9707e-10
1.75965e-10
1.22771e-10
9.70585e-11
8.20998e-11
8.12176e-11
8.9798e-11
1.20162e-10
2.02741e-10
4.92714e-10
1.55442e-09
5.66361e-09
2.15538e-08
3.90342e-10
8.84604e-11
3.68637e-11
2.332e-11
1.7766e-11
1.46182e-11
1.41861e-11
1.59123e-11
2.39704e-11
5.72833e-11
2.11466e-10
9.02301e-10
3.91726e-09
1.6497e-08
2.87578e-10
4.85674e-11
1.03588e-11
4.19051e-12
2.85021e-12
2.27396e-12
2.17997e-12
2.66584e-12
6.11247e-12
2.65679e-11
1.37371e-10
6.86342e-10
3.23763e-09
1.43349e-08
3.11605e-10
5.22293e-11
7.70252e-12
1.19823e-12
4.20641e-13
3.01773e-13
2.9994e-13
5.74686e-13
2.96099e-12
1.90845e-11
1.12752e-10
6.02212e-10
2.95361e-09
1.33111e-08
3.9625e-10
7.0923e-11
1.01616e-11
1.06813e-12
1.04571e-13
3.78174e-14
5.08849e-14
2.75035e-13
2.31376e-12
1.69369e-11
1.06448e-10
5.92754e-10
2.968e-09
1.33775e-08
5.78641e-10
1.0799e-10
1.5653e-11
1.57197e-12
1.192e-13
3.95618e-14
5.59268e-14
2.56521e-13
2.18751e-12
1.68804e-11
1.10872e-10
6.31997e-10
3.16395e-09
1.3988e-08
8.67288e-10
1.6711e-10
2.4628e-11
2.55455e-12
3.38617e-13
2.81654e-13
3.40511e-13
5.71584e-13
2.77791e-12
2.01922e-11
1.33409e-10
7.57659e-10
3.71748e-09
1.59194e-08
1.39425e-09
2.7232e-10
4.12117e-11
4.97439e-12
1.59578e-12
1.91088e-12
2.32514e-12