/*--------------------------------*- C++ -*----------------------------------*\
| =========                 |                                                 |
| \\      /  F ield         | OpenFOAM: The Open Source CFD Toolbox           |
|  \\    /   O peration     | Version:  v2106                                 |
|   \\  /    A nd           | Website:  www.openfoam.com                      |
|    \\/     M anipulation  |                                                 |
\*---------------------------------------------------------------------------*/
FoamFile
{
    version     2.0;
    format      ascii;
    arch        "LSB;label=32;scalar=64";
    class       surfaceScalarField;
    location    "0.000217";
    object      phi;
}
// * * * * * * * * * * * * * * * * * * * * * * * * * * * * * * * * * * * * * //

dimensions      [1 0 -1 0 0 0 0];

internalField   nonuniform List<scalar> 
52765
(
1.66134e-06
2.51902e-07
-5.27644e-06
-3.49201e-07
-1.57651e-06
1.70845e-06
3.43646e-07
-5.30136e-06
1.74754e-06
4.22783e-07
-5.33494e-06
1.77647e-06
4.85174e-07
-5.36259e-06
1.7985e-06
5.29652e-07
-5.3961e-06
1.81683e-06
5.4854e-07
-5.4252e-06
5.48753e-07
-5.45404e-06
1.69866e-06
2.06548e-07
-5.27816e-06
-1.66904e-06
1.73518e-06
2.89516e-07
-5.29802e-06
1.7709e-06
3.65751e-07
-5.33247e-06
1.79775e-06
4.29577e-07
-5.3583e-06
1.81644e-06
4.73446e-07
-5.38823e-06
1.8274e-06
4.88221e-07
-5.41199e-06
4.85582e-07
-5.43414e-06
1.78144e-06
1.84506e-07
-5.25582e-06
-1.77513e-06
1.79777e-06
2.52856e-07
-5.27858e-06
1.81632e-06
3.22002e-07
-5.31074e-06
1.82863e-06
3.8384e-07
-5.33639e-06
1.83376e-06
4.26124e-07
-5.36377e-06
1.83009e-06
4.3801e-07
-5.38747e-06
4.33457e-07
-5.40993e-06
1.86749e-06
1.80251e-07
-5.2292e-06
-1.87754e-06
1.8624e-06
2.37178e-07
-5.25815e-06
1.8592e-06
2.98056e-07
-5.28851e-06
1.85331e-06
3.53277e-07
-5.31516e-06
1.84388e-06
3.90142e-07
-5.33931e-06
1.82953e-06
3.96856e-07
-5.36243e-06
3.9173e-07
-5.3833e-06
1.93065e-06
1.93589e-07
-5.19839e-06
1.90816e-06
2.4107e-07
-5.23155e-06
1.88554e-06
2.94889e-07
-5.26009e-06
1.8654e-06
3.38113e-07
-5.28811e-06
1.84463e-06
3.66112e-07
-5.31115e-06
1.82208e-06
3.65527e-07
-5.33383e-06
3.58311e-07
-5.3545e-06
1.96045e-06
2.19903e-07
-5.16641e-06
1.92995e-06
2.56872e-07
-5.2025e-06
1.89782e-06
3.04628e-07
-5.22988e-06
1.87161e-06
3.31904e-07
-5.25914e-06
1.8452e-06
3.50098e-07
-5.28261e-06
1.81597e-06
3.43557e-07
-5.30487e-06
3.34092e-07
-5.32546e-06
1.961e-06
2.53604e-07
-5.13867e-06
1.93231e-06
2.7547e-07
-5.17417e-06
1.90409e-06
3.12601e-07
-5.20098e-06
1.87693e-06
3.27411e-07
-5.22897e-06
1.84577e-06
3.3918e-07
-5.25223e-06
1.81204e-06
3.29104e-07
-5.27445e-06
3.18025e-07
-5.29576e-06
1.96228e-06
-5.11243e-06
1.93669e-06
-5.14145e-06
1.91066e-06
-5.16941e-06
1.87801e-06
-5.19617e-06
1.84137e-06
-5.22087e-06
1.80454e-06
-5.24395e-06
-5.26622e-06
1.51015e-06
3.60933e-07
-4.45869e-07
-1.42383e-06
-5.27537e-06
1.55905e-06
4.50093e-07
-5.00448e-07
-5.30184e-06
1.60331e-06
5.31412e-07
-5.79445e-07
-5.33736e-06
1.64087e-06
5.95907e-07
-6.41476e-07
-5.36659e-06
1.67393e-06
6.43327e-07
-6.90752e-07
-5.40124e-06
1.70309e-06
6.6988e-07
-7.22755e-07
-5.42844e-06
1.73388e-06
6.75582e-07
-7.37777e-07
-5.45705e-06
1.76479e-06
6.8028e-07
-7.45964e-07
-5.48099e-06
1.80034e-06
6.9731e-07
-7.64542e-07
-5.49392e-06
1.82992e-06
6.84404e-07
-7.36412e-07
-5.50271e-06
1.85212e-06
6.42853e-07
-6.7252e-07
-5.51652e-06
1.86312e-06
5.53728e-07
-5.5824e-07
-5.5167e-06
1.86558e-06
4.32632e-07
-4.18193e-07
-5.51959e-06
3.27155e-07
-2.91028e-07
1.85093e-06
-5.51814e-06
1.54355e-06
3.23672e-07
-1.50749e-06
-5.27603e-06
1.58648e-06
4.03748e-07
-5.29759e-06
1.6292e-06
4.81297e-07
-5.33316e-06
1.66555e-06
5.45848e-07
-5.35915e-06
1.69451e-06
5.93031e-07
-5.38908e-06
1.71629e-06
6.17153e-07
-5.41098e-06
1.73259e-06
6.22269e-07
-5.43387e-06
1.74918e-06
6.251e-07
-5.4537e-06
1.77488e-06
6.36106e-07
-5.46874e-06
1.80042e-06
6.31156e-07
-5.48311e-06
1.82393e-06
6.03883e-07
-5.49998e-06
1.8322e-06
5.41082e-07
-5.50561e-06
1.822e-06
4.51488e-07
-5.50445e-06
3.66753e-07
1.80011e-06
-5.50893e-06
1.61967e-06
3.08476e-07
-1.60322e-06
-5.2544e-06
1.6447e-06
3.74949e-07
-5.27703e-06
1.67159e-06
4.44812e-07
-5.30943e-06
1.6933e-06
5.06683e-07
-5.33439e-06
1.70844e-06
5.5221e-07
-5.3615e-06
1.71666e-06
5.7355e-07
-5.3834e-06
1.72055e-06
5.78539e-07
-5.40608e-06
1.72639e-06
5.78253e-07
-5.42626e-06
1.74116e-06
5.83143e-07
-5.44407e-06
1.75996e-06
5.80863e-07
-5.45883e-06
1.77901e-06
5.6376e-07
-5.47305e-06
1.78593e-06
5.23399e-07
-5.48238e-06
1.77638e-06
4.62654e-07
-5.4833e-06
3.97301e-07
1.75737e-06
-5.4886e-06
1.70323e-06
3.11794e-07
-1.7024e-06
-5.22627e-06
1.70755e-06
3.68208e-07
-5.25403e-06
1.71321e-06
4.29258e-07
-5.28418e-06
1.71709e-06
4.83831e-07
-5.30989e-06
1.71857e-06
5.23413e-07
-5.33406e-06
1.71808e-06
5.38826e-07
-5.35606e-06
1.71315e-06
5.436e-07
-5.37651e-06
1.70713e-06
5.42237e-07
-5.39605e-06
1.70754e-06
5.42429e-07
-5.41424e-06
1.71346e-06
5.38822e-07
-5.43003e-06
1.72137e-06
5.28593e-07
-5.44649e-06
1.724e-06
5.04511e-07
-5.45764e-06
1.71545e-06
4.66686e-07
-5.4607e-06
4.20628e-07
1.69704e-06
-5.46556e-06
1.76623e-06
3.37213e-07
-1.7828e-06
-5.19311e-06
1.75136e-06
3.84146e-07
-5.22526e-06
1.73737e-06
4.36046e-07
-5.2539e-06
1.72772e-06
4.76757e-07
-5.28101e-06
1.71974e-06
5.06489e-07
-5.30408e-06
1.71248e-06
5.13467e-07
-5.32514e-06
1.7026e-06
5.15269e-07
-5.34529e-06
1.69079e-06
5.12875e-07
-5.36483e-06
1.68176e-06
5.1104e-07
-5.38373e-06
1.67753e-06
5.06927e-07
-5.40194e-06
1.67748e-06
5.0041e-07
-5.41746e-06
1.67508e-06
4.8785e-07
-5.42904e-06
1.66688e-06
4.65779e-07
-5.43425e-06
4.3579e-07
1.65153e-06
-5.44066e-06
1.7996e-06
3.79434e-07
-1.82832e-06
-5.15918e-06
1.77455e-06
4.14229e-07
-5.19471e-06
1.75008e-06
4.56671e-07
-5.22277e-06
1.73456e-06
4.78691e-07
-5.25139e-06
1.72152e-06
4.97286e-07
-5.27396e-06
1.7085e-06
4.96813e-07
-5.295e-06
1.6937e-06
4.95126e-07
-5.31526e-06
1.67788e-06
4.92173e-07
-5.33575e-06
1.66359e-06
4.90749e-07
-5.35534e-06
1.65241e-06
4.86875e-07
-5.37376e-06
1.64599e-06
4.80575e-07
-5.38915e-06
1.63926e-06
4.74514e-07
-5.40194e-06
1.62998e-06
4.62228e-07
-5.40885e-06
4.46982e-07
1.61485e-06
-5.41546e-06
1.80486e-06
4.30354e-07
-1.83733e-06
-5.13156e-06
1.7791e-06
4.47938e-07
-5.16688e-06
1.75677e-06
4.76503e-07
-5.19461e-06
1.73871e-06
4.83786e-07
-5.22188e-06
1.72075e-06
4.93641e-07
-5.24381e-06
1.70387e-06
4.87968e-07
-5.26546e-06
1.68717e-06
4.84249e-07
-5.28595e-06
1.6707e-06
4.81035e-07
-5.30672e-06
1.65586e-06
4.80003e-07
-5.32723e-06
1.64297e-06
4.76529e-07
-5.34652e-06
1.63335e-06
4.69317e-07
-5.36233e-06
1.62422e-06
4.6627e-07
-5.37534e-06
1.61259e-06
4.61088e-07
-5.38307e-06
4.58534e-07
1.59528e-06
-5.38873e-06
1.80945e-06
4.73206e-07
-1.83293e-06
-5.10598e-06
1.7857e-06
4.77394e-07
-5.1355e-06
1.76316e-06
4.92792e-07
-5.16385e-06
1.73893e-06
4.91962e-07
-5.18969e-06
1.71651e-06
4.95506e-07
-5.21374e-06
1.69733e-06
4.86988e-07
-5.23617e-06
1.67981e-06
4.82816e-07
-5.25768e-06
1.66383e-06
4.79832e-07
-5.27874e-06
1.64925e-06
4.78876e-07
-5.30014e-06
1.63571e-06
4.75657e-07
-5.32027e-06
1.62204e-06
4.69077e-07
-5.33715e-06
1.6084e-06
4.67754e-07
-5.35042e-06
1.59562e-06
4.64749e-07
-5.35886e-06
4.6424e-07
1.58444e-06
-5.36097e-06
1.81422e-06
5.06435e-07
-1.83367e-06
-5.07745e-06
1.78855e-06
5.02647e-07
-5.10343e-06
1.76259e-06
5.07741e-07
-5.1323e-06
1.73423e-06
5.03639e-07
-5.1579e-06
1.71086e-06
5.02397e-07
-5.18345e-06
1.69162e-06
4.93463e-07
-5.2069e-06
1.67414e-06
4.89972e-07
-5.22996e-06
1.65893e-06
4.87221e-07
-5.25164e-06
1.64499e-06
4.85789e-07
-5.27385e-06
1.63144e-06
4.82604e-07
-5.29478e-06
1.61507e-06
4.78082e-07
-5.31266e-06
1.59745e-06
4.78605e-07
-5.32506e-06
1.58265e-06
4.7482e-07
-5.33236e-06
4.71167e-07
1.57295e-06
-5.33215e-06
1.81941e-06
5.32941e-07
-1.841e-06
-5.04996e-06
1.78976e-06
5.25218e-07
-5.07147e-06
1.75971e-06
5.24061e-07
-5.09959e-06
1.72933e-06
5.19589e-07
-5.12489e-06
1.7032e-06
5.16531e-07
-5.15207e-06
1.68168e-06
5.08892e-07
-5.17724e-06
1.66323e-06
5.05465e-07
-5.20224e-06
1.64726e-06
5.01789e-07
-5.22505e-06
1.63413e-06
4.97796e-07
-5.24838e-06
1.62191e-06
4.93086e-07
-5.27003e-06
1.60589e-06
4.90777e-07
-5.28813e-06
1.58782e-06
4.9354e-07
-5.29832e-06
1.57287e-06
4.88761e-07
-5.3022e-06
4.83577e-07
1.56311e-06
-5.30032e-06
1.7923e-06
5.53607e-07
-1.81443e-06
-5.02199e-06
1.76736e-06
5.41987e-07
-5.04284e-06
1.74368e-06
5.3742e-07
-5.06979e-06
1.72068e-06
5.35505e-07
-5.09485e-06
1.69953e-06
5.32902e-07
-5.12242e-06
1.67982e-06
5.29281e-07
-5.14898e-06
1.66056e-06
5.26843e-07
-5.17514e-06
1.64246e-06
5.2197e-07
-5.19785e-06
1.62731e-06
5.14718e-07
-5.22161e-06
1.61252e-06
5.07784e-07
-5.24333e-06
1.59433e-06
5.06836e-07
-5.26069e-06
1.57679e-06
5.09078e-07
-5.26727e-06
1.5639e-06
5.04244e-07
-5.26705e-06
4.99608e-07
1.55742e-06
-5.26246e-06
1.76864e-06
5.70545e-07
-1.78923e-06
-4.99037e-06
1.74663e-06
5.5901e-07
-5.01081e-06
1.72549e-06
5.53067e-07
-5.03651e-06
1.70521e-06
5.53997e-07
-5.06159e-06
1.68711e-06
5.50385e-07
-5.0894e-06
1.67007e-06
5.50045e-07
-5.11764e-06
1.65216e-06
5.47544e-07
-5.14465e-06
1.63572e-06
5.40457e-07
-5.16854e-06
1.62095e-06
5.30523e-07
-5.19297e-06
1.60359e-06
5.23386e-07
-5.21471e-06
1.58316e-06
5.23968e-07
-5.23092e-06
1.56733e-06
5.23981e-07
-5.23519e-06
1.5593e-06
5.2057e-07
-5.23128e-06
5.16446e-07
1.55863e-06
-5.22344e-06
1.74545e-06
5.84567e-07
-1.76036e-06
-4.96373e-06
1.72537e-06
5.80572e-07
-4.98136e-06
1.70678e-06
5.73736e-07
-5.00511e-06
1.68992e-06
5.75202e-07
-5.03041e-06
1.67735e-06
5.66944e-07
-5.05803e-06
1.66629e-06
5.66238e-07
-5.08668e-06
1.6526e-06
5.63705e-07
-5.1134e-06
1.63621e-06
5.57374e-07
-5.13736e-06
1.61821e-06
5.46934e-07
-5.16121e-06
1.5986e-06
5.39067e-07
-5.18197e-06
1.57749e-06
5.41824e-07
-5.19683e-06
1.56223e-06
5.41268e-07
-5.2008e-06
1.556e-06
5.39977e-07
-5.19574e-06
5.32515e-07
1.56045e-06
-5.18596e-06
1.76177e-06
6.02081e-07
-1.77418e-06
-4.94079e-06
1.7283e-06
6.17821e-07
-4.94851e-06
1.69622e-06
6.09486e-07
-4.96496e-06
1.67195e-06
6.04019e-07
-4.99061e-06
1.65633e-06
5.87443e-07
-5.02109e-06
1.64521e-06
5.81373e-07
-5.05124e-06
1.63234e-06
5.77425e-07
-5.07913e-06
1.61885e-06
5.69315e-07
-5.10517e-06
1.60348e-06
5.58645e-07
-5.12938e-06
1.58685e-06
5.51022e-07
-5.14997e-06
1.5663e-06
5.60979e-07
-5.16563e-06
1.54504e-06
5.68005e-07
-5.17196e-06
1.52917e-06
5.69281e-07
-5.16862e-06
1.53134e-06
5.51969e-07
-5.165e-06
-6.39507e-07
-3.39477e-06
-6.12841e-07
-8.94609e-07
-3.93338e-06
-5.31188e-07
-1.033e-06
-4.45577e-06
-4.17897e-07
-1.01796e-06
-4.97575e-06
-2.27452e-07
-8.41884e-07
-5.47976e-06
1.93318e-07
-6.03335e-06
8.9976e-07
-7.09201e-07
7.54969e-07
-4.88724e-07
-3.39354e-06
-9.34979e-07
6.47791e-07
-4.13215e-07
-3.93477e-06
-1.04752e-06
4.31217e-07
-2.98206e-07
-4.46824e-06
-1.00116e-06
9.36054e-08
-1.17224e-07
-4.99347e-06
-7.91618e-07
-4.69624e-07
2.85276e-07
-5.50733e-06
-1.36355e-06
9.77353e-07
-3.92847e-07
-6.05414e-06
-7.49148e-07
1.00438e-06
-4.28632e-06
-9.53358e-07
8.58363e-07
-4.85113e-06
-1.0811e-06
5.75816e-07
-5.40128e-06
-1.06644e-06
1.03927e-07
-5.96171e-06
-8.6369e-07
-6.33351e-07
-6.46312e-06
-1.80991e-06
-3.7849e-07
-7.00061e-06
-8.12752e-07
1.23961e-06
-5.07217e-06
-1.00003e-06
1.0565e-06
-5.65747e-06
-1.12138e-06
7.20542e-07
-6.21688e-06
-1.13937e-06
1.53654e-07
-6.81387e-06
-9.59831e-07
-7.49491e-07
-7.30579e-06
-2.21767e-06
-4.55103e-07
-7.76528e-06
-8.69453e-07
1.46826e-06
-5.7284e-06
-1.07097e-06
1.27093e-06
-6.33995e-06
-1.22639e-06
9.04267e-07
-6.91124e-06
-1.29238e-06
2.59352e-07
-7.53932e-06
-1.14146e-06
-8.1274e-07
-8.01266e-06
-2.57728e-06
-6.41058e-07
-8.3412e-06
-9.08822e-07
1.68138e-06
-6.25203e-06
-1.12568e-06
1.49499e-06
-6.897e-06
-1.32364e-06
1.12644e-06
-7.48137e-06
-1.449e-06
4.28557e-07
-8.11954e-06
-1.37475e-06
-8.02627e-07
-8.54146e-06
-2.81869e-06
-9.65713e-07
-8.72555e-06
-9.30046e-07
1.87355e-06
-6.61451e-06
-1.15645e-06
1.71773e-06
-7.28173e-06
-1.38398e-06
1.36828e-06
-7.8808e-06
-1.5602e-06
6.42909e-07
-8.50076e-06
-1.59264e-06
-6.86207e-07
-8.88538e-06
-2.88696e-06
-1.31964e-06
-8.92484e-06
-9.27101e-07
2.03818e-06
-6.81187e-06
-1.14212e-06
1.91788e-06
-7.49133e-06
-1.3689e-06
1.59828e-06
-8.10601e-06
-1.56473e-06
8.68647e-07
-8.69503e-06
-1.69547e-06
-4.67438e-07
-9.02613e-06
-2.6972e-06
-1.65662e-06
-8.936e-06
-8.92323e-07
2.15064e-06
-6.82366e-06
-1.06233e-06
2.06329e-06
-7.50043e-06
-1.2484e-06
1.78285e-06
-8.1354e-06
-1.44775e-06
1.10204e-06
-8.68457e-06
-1.64973e-06
-1.66286e-07
-8.97732e-06
-2.27719e-06
-1.83042e-06
-8.84565e-06
-8.33521e-07
2.18816e-06
-6.66854e-06
-9.20216e-07
2.12851e-06
-7.33804e-06
-1.02704e-06
1.89429e-06
-7.97472e-06
-1.1689e-06
1.28748e-06
-8.51644e-06
-1.37004e-06
1.42565e-07
-8.80067e-06
-1.77085e-06
-1.65931e-06
-8.7313e-06
-7.02632e-07
2.13356e-06
-6.34543e-06
-6.77394e-07
2.09532e-06
-6.98766e-06
-6.68662e-07
1.90259e-06
-7.60418e-06
-7.29588e-07
1.40164e-06
-8.13193e-06
-9.32452e-07
4.37245e-07
-8.44918e-06
-1.17001e-06
-1.36304e-06
-8.5185e-06
-5.30417e-07
1.98819e-06
-5.87553e-06
-3.81726e-07
1.95908e-06
-6.49154e-06
-2.60155e-07
1.81611e-06
-7.10794e-06
-2.20891e-07
1.42935e-06
-7.64652e-06
-3.45977e-07
6.58156e-07
-8.03972e-06
-6.48171e-07
-7.19447e-07
-8.21839e-06
-3.06753e-07
1.75017e-06
-5.23241e-06
-4.59729e-08
1.72158e-06
-5.82506e-06
2.10152e-07
1.60752e-06
-6.42685e-06
3.95073e-07
1.31497e-06
-6.96557e-06
4.03551e-07
7.35733e-07
-7.42145e-06
-2.6289e-07
1.23735e-07
-7.74697e-06
-7.22008e-08
1.42229e-06
-4.45588e-06
2.66724e-07
1.40797e-06
-5.03067e-06
6.014e-07
1.31786e-06
-5.62515e-06
8.77281e-07
1.10096e-06
-6.17892e-06
1.0385e-06
6.45765e-07
-6.69884e-06
-1.25517e-07
9.65867e-07
-7.126e-06
8.71794e-08
1.05958e-06
-3.53152e-06
4.77933e-07
1.0379e-06
-4.0945e-06
8.94611e-07
9.33955e-07
-4.67225e-06
1.30935e-06
7.32418e-07
-5.21437e-06
1.65021e-06
3.54394e-07
-5.75166e-06
-2.44827e-07
1.80171e-06
-6.3588e-06
1.87679e-06
1.04671e-06
-3.53039e-06
1.90101e-06
1.02967e-06
-4.09461e-06
1.94262e-06
9.17079e-07
-4.67913e-06
2.0355e-06
6.73477e-07
-5.2478e-06
2.20661e-06
2.21719e-07
-5.83109e-06
-5.22098e-07
2.50751e-06
-6.48789e-06
1.85504e-06
1.00489e-06
-4.43715e-06
1.92901e-06
9.70119e-07
-5.00766e-06
2.03128e-06
8.36615e-07
-5.59839e-06
2.19154e-06
5.51776e-07
-6.17988e-06
2.43408e-06
2.46423e-08
-6.78102e-06
-8.68868e-07
2.82245e-06
-7.46821e-06
1.826e-06
9.47352e-07
-5.19761e-06
1.91927e-06
8.91206e-07
-5.77753e-06
2.03769e-06
7.40758e-07
-6.38635e-06
2.20691e-06
4.30013e-07
-6.99329e-06
2.441e-06
-1.38082e-07
-7.62865e-06
-1.19169e-06
2.85079e-06
-8.33853e-06
1.78227e-06
8.69391e-07
-5.80903e-06
1.88926e-06
7.98326e-07
-6.40173e-06
2.01192e-06
6.45997e-07
-7.0338e-06
2.17547e-06
3.2954e-07
-7.66267e-06
2.41424e-06
-2.80684e-07
-8.33527e-06
-1.46148e-06
2.79599e-06
-9.0204e-06
1.75183e-06
7.73223e-07
-6.26437e-06
1.86529e-06
6.99314e-07
-6.87075e-06
1.98816e-06
5.55032e-07
-7.52144e-06
2.13916e-06
2.48784e-07
-8.16918e-06
2.33767e-06
-3.7374e-07
-8.84322e-06
-1.6496e-06
2.6324e-06
-9.48131e-06
1.73304e-06
6.56612e-07
-6.55918e-06
1.85835e-06
5.88331e-07
-7.17563e-06
1.99242e-06
4.56347e-07
-7.83169e-06
2.1399e-06
1.73982e-07
-8.48904e-06
2.29789e-06
-4.24356e-07
-9.15494e-06
-1.70831e-06
2.48113e-06
-9.71219e-06
1.73154e-06
5.22037e-07
-6.68909e-06
1.87386e-06
4.62569e-07
-7.30917e-06
2.02499e-06
3.47345e-07
-7.95565e-06
2.17323e-06
1.01049e-07
-8.60828e-06
2.28133e-06
-4.29091e-07
-9.25167e-06
-1.62344e-06
2.32864e-06
-9.73092e-06
1.73799e-06
3.71585e-07
-6.65315e-06
1.89553e-06
3.25107e-07
-7.27055e-06
2.05347e-06
2.38904e-07
-7.89627e-06
2.18979e-06
4.58599e-08
-8.53581e-06
2.26646e-06
-3.9527e-07
-9.14804e-06
-1.43685e-06
2.21203e-06
-9.59747e-06
1.73678e-06
2.14482e-07
-6.45282e-06
1.90222e-06
1.85188e-07
-7.05807e-06
2.068e-06
1.30977e-07
-7.65911e-06
2.21383e-06
-7.57751e-09
-8.28042e-06
2.28555e-06
-3.47664e-07
-8.85699e-06
-1.19692e-06
2.18344e-06
-9.30724e-06
1.73213e-06
5.97771e-08
-6.09458e-06
1.90324e-06
4.76585e-08
-6.67888e-06
2.07641e-06
2.13107e-08
-7.25621e-06
2.23357e-06
-6.67843e-08
-7.84507e-06
2.3128e-06
-3.01468e-07
-8.39806e-06
-9.32997e-07
2.19399e-06
-8.869e-06
1.72729e-06
-8.65973e-08
-5.58392e-06
1.89748e-06
-8.45822e-08
-6.14465e-06
2.07733e-06
-9.10524e-08
-6.69859e-06
2.24828e-06
-1.36654e-07
-7.25037e-06
2.35131e-06
-2.78154e-07
-7.78834e-06
-7.04823e-07
2.27038e-06
-8.28801e-06
1.72612e-06
-2.28492e-07
-4.9373e-06
1.8982e-06
-2.15884e-07
-5.4777e-06
2.08367e-06
-2.1067e-07
-6.0141e-06
2.26186e-06
-2.23678e-07
-6.54047e-06
2.39282e-06
-2.98127e-07
-7.05995e-06
-5.53822e-07
2.37553e-06
-7.57828e-06
1.71864e-06
-3.62133e-07
-4.16764e-06
1.88068e-06
-3.41728e-07
-4.6925e-06
2.05817e-06
-3.33832e-07
-5.21033e-06
2.2342e-06
-3.27648e-07
-5.71819e-06
2.38756e-06
-3.62037e-07
-6.22118e-06
-5.00232e-07
2.44288e-06
-6.75379e-06
1.67893e-06
-4.9077e-07
-3.30074e-06
1.8343e-06
-4.71242e-07
-3.82184e-06
2.00219e-06
-4.65096e-07
-4.33089e-06
2.17864e-06
-4.57147e-07
-4.82993e-06
2.34807e-06
-4.70652e-07
-5.32765e-06
-5.58965e-07
2.48609e-06
-5.85285e-06
8.60556e-07
-7.82391e-07
-3.29485e-06
1.17863e-06
-7.66461e-07
-3.81291e-06
1.50059e-06
-7.55821e-07
-4.31889e-06
1.82144e-06
-7.39367e-07
-4.81206e-06
2.14085e-06
-7.41151e-07
-5.30127e-06
-8.4534e-07
2.49391e-06
-5.81023e-06
8.51492e-07
-1.05109e-06
-4.14341e-06
1.14212e-06
-1.03512e-06
-4.66194e-06
1.43889e-06
-1.02182e-06
-5.16955e-06
1.74481e-06
-1.00448e-06
-5.66379e-06
2.07165e-06
-1.01372e-06
-6.14897e-06
-1.15266e-06
2.45651e-06
-6.64858e-06
8.23522e-07
-1.29822e-06
-4.86818e-06
1.086e-06
-1.28114e-06
-5.39015e-06
1.35947e-06
-1.27043e-06
-5.90181e-06
1.65111e-06
-1.26065e-06
-6.40317e-06
1.97815e-06
-1.2903e-06
-6.89335e-06
-1.47622e-06
2.38217e-06
-7.40474e-06
7.80185e-07
-1.5134e-06
-5.4518e-06
1.00703e-06
-1.49285e-06
-5.98011e-06
1.24919e-06
-1.48422e-06
-6.49727e-06
1.52239e-06
-1.48873e-06
-7.00693e-06
1.83489e-06
-1.53691e-06
-7.50268e-06
-1.76574e-06
2.23159e-06
-8.03533e-06
7.27263e-07
-1.6912e-06
-5.88633e-06
9.17143e-07
-1.67279e-06
-6.41957e-06
1.12298e-06
-1.66181e-06
-6.94102e-06
1.36212e-06
-1.67509e-06
-7.45582e-06
1.63601e-06
-1.7285e-06
-7.95384e-06
-1.994e-06
1.9971e-06
-8.50296e-06
6.93197e-07
-1.8278e-06
-6.16511e-06
8.40579e-07
-1.81126e-06
-6.6979e-06
1.00447e-06
-1.79483e-06
-7.22108e-06
1.20116e-06
-1.8099e-06
-7.73474e-06
1.43018e-06
-1.86054e-06
-8.23127e-06
-2.15834e-06
1.7435e-06
-8.78369e-06
6.61963e-07
-1.92102e-06
-6.28628e-06
7.6698e-07
-1.90681e-06
-6.81411e-06
8.85991e-07
-1.88267e-06
-7.33443e-06
1.02789e-06
-1.88852e-06
-7.83961e-06
1.19836e-06
-1.92856e-06
-8.33192e-06
-2.24665e-06
1.44427e-06
-8.87449e-06
6.30472e-07
-1.9718e-06
-6.25188e-06
6.91066e-07
-1.95685e-06
-6.77004e-06
7.64475e-07
-1.92777e-06
-7.28137e-06
8.54532e-07
-1.92018e-06
-7.7753e-06
9.70135e-07
-1.94468e-06
-8.26172e-06
-2.26168e-06
1.14114e-06
-8.77518e-06
5.88107e-07
-1.97301e-06
-6.06539e-06
5.99722e-07
-1.95874e-06
-6.57094e-06
6.25698e-07
-1.93137e-06
-7.06679e-06
6.72309e-07
-1.92125e-06
-7.54595e-06
7.44675e-07
-1.9336e-06
-8.02201e-06
-2.23851e-06
8.53625e-07
-8.49478e-06
5.49296e-07
-1.92754e-06
-5.73326e-06
5.15483e-07
-1.91334e-06
-6.22664e-06
4.95875e-07
-1.8912e-06
-6.70721e-06
4.98499e-07
-1.88566e-06
-7.16951e-06
5.26622e-07
-1.8885e-06
-7.62996e-06
-2.17027e-06
5.66659e-07
-8.05232e-06
5.17504e-07
-1.83368e-06
-5.26585e-06
4.36671e-07
-1.82179e-06
-5.74983e-06
3.71158e-07
-1.8061e-06
-6.21796e-06
3.28799e-07
-1.80739e-06
-6.66403e-06
3.09987e-07
-1.80294e-06
-7.10855e-06
-2.05329e-06
2.80819e-07
-7.48982e-06
4.6728e-07
-1.68568e-06
-4.67074e-06
3.32082e-07
-1.67744e-06
-5.14922e-06
2.16303e-07
-1.67387e-06
-5.60937e-06
1.23405e-07
-1.68545e-06
-6.04525e-06
5.12286e-08
-1.67339e-06
-6.47904e-06
-1.88298e-06
-4.33527e-08
-6.84677e-06
4.03285e-07
-1.46599e-06
-3.96439e-06
2.04983e-07
-1.47345e-06
-4.44186e-06
2.53321e-08
-1.48193e-06
-4.89846e-06
-1.28777e-07
-1.5087e-06
-5.33116e-06
-2.59716e-07
-1.49507e-06
-5.75961e-06
-1.65396e-06
-4.2248e-07
-6.12877e-06
3.30242e-07
-1.18928e-06
-3.15187e-06
7.35385e-08
-1.21124e-06
-3.63532e-06
-1.72761e-07
-1.22778e-06
-4.09357e-06
-3.93564e-07
-1.2715e-06
-4.53385e-06
-5.90438e-07
-1.26636e-06
-4.95933e-06
-1.39873e-06
-8.01661e-07
-5.34865e-06
-2.03218e-06
5.36156e-07
-5.52564e-06
-2.17035e-06
5.77024e-07
-6.06982e-06
-2.28674e-06
6.01936e-07
-6.58804e-06
-2.33629e-06
4.67868e-07
-7.06689e-06
-2.34479e-06
-7.80835e-09
-7.46893e-06
-1.03528e-06
-7.6802e-06
-1.86927e-06
6.1768e-07
-4.9583e-06
-1.93232e-06
6.31116e-07
-5.49256e-06
-1.95176e-06
6.28521e-07
-6.00415e-06
-1.91491e-06
4.59221e-07
-6.49412e-06
-1.87153e-06
-6.79659e-09
-6.91129e-06
-9.13691e-07
-7.17573e-06
-1.70008e-06
6.38812e-07
-4.24715e-06
-1.68037e-06
6.04726e-07
-4.77838e-06
-1.59946e-06
5.55254e-07
-5.30467e-06
-1.49088e-06
3.63753e-07
-5.81436e-06
-1.41155e-06
-7.12723e-08
-6.27614e-06
-8.58884e-07
-6.63194e-06
-1.55666e-06
-3.37621e-06
-1.48846e-06
-3.90061e-06
-1.34691e-06
-4.42367e-06
-1.20687e-06
-4.93361e-06
-1.07795e-06
-5.42665e-06
-5.91989e-06
-1.72346e-06
-1.23595e-06
-3.15504e-06
-1.65811e-06
-1.26959e-06
-3.63879e-06
-1.57786e-06
-1.29666e-06
-4.09833e-06
-1.47934e-06
-1.35033e-06
-4.5437e-06
-1.34627e-06
-1.37255e-06
-4.96861e-06
-1.58108e-06
-1.13011e-06
-5.39243e-06
-1.76364e-06
-1.23013e-06
-3.97539e-06
-1.76632e-06
-1.25967e-06
-4.46194e-06
-1.76146e-06
-1.28952e-06
-4.92459e-06
-1.73702e-06
-1.35388e-06
-5.38351e-06
-1.66788e-06
-1.41378e-06
-5.81665e-06
-1.71975e-06
-1.49508e-06
-6.27518e-06
-1.84403e-06
-1.17039e-06
-4.70029e-06
-1.90305e-06
-1.18689e-06
-5.20094e-06
-1.95589e-06
-1.21383e-06
-5.67778e-06
-1.99335e-06
-1.28128e-06
-6.15091e-06
-1.98337e-06
-1.37652e-06
-6.59015e-06
-1.77928e-06
-1.86074e-06
-7.09152e-06
-1.91751e-06
-1.05642e-06
-5.30657e-06
-2.02419e-06
-1.0547e-06
-5.82159e-06
-2.12609e-06
-1.07103e-06
-6.31482e-06
-2.21945e-06
-1.12635e-06
-6.80245e-06
-2.25635e-06
-1.25783e-06
-7.2536e-06
-1.75764e-06
-2.15878e-06
-7.7975e-06
-1.98253e-06
-8.92745e-07
-5.78036e-06
-2.12733e-06
-8.68907e-07
-6.30999e-06
-2.27006e-06
-8.67849e-07
-6.81675e-06
-2.41334e-06
-8.97944e-07
-7.31132e-06
-2.48857e-06
-1.07284e-06
-7.77457e-06
-1.70262e-06
-2.37301e-06
-8.32805e-06
-2.00751e-06
-6.84823e-07
-6.11097e-06
-2.1894e-06
-6.32046e-07
-6.6513e-06
-2.36705e-06
-6.13862e-07
-7.16834e-06
-2.53347e-06
-6.35545e-07
-7.66858e-06
-2.62394e-06
-8.63843e-07
-8.15775e-06
-1.64458e-06
-2.50033e-06
-8.66602e-06
-2.02955e-06
-4.49763e-07
-6.29446e-06
-2.23323e-06
-3.73574e-07
-6.83455e-06
-2.43517e-06
-3.40727e-07
-7.36111e-06
-2.61383e-06
-3.71974e-07
-7.86756e-06
-2.7056e-06
-6.68959e-07
-8.37246e-06
-1.58472e-06
-2.6007e-06
-8.79699e-06
-2.04538e-06
-2.0704e-07
-6.32622e-06
-2.24607e-06
-1.27836e-07
-6.8712e-06
-2.44567e-06
-8.64104e-08
-7.40502e-06
-2.61681e-06
-1.33889e-07
-7.91081e-06
-2.71639e-06
-4.84493e-07
-8.40736e-06
-1.51271e-06
-2.6425e-06
-8.73068e-06
-2.02913e-06
1.89866e-08
-6.20901e-06
-2.21456e-06
8.68196e-08
-6.75962e-06
-2.3961e-06
1.28827e-07
-7.29478e-06
-2.54632e-06
6.15741e-08
-7.7965e-06
-2.6293e-06
-3.31413e-07
-8.25958e-06
-1.39734e-06
-2.589e-06
-8.51835e-06
-1.95771e-06
2.10434e-07
-5.94289e-06
-2.11417e-06
2.58215e-07
-6.4929e-06
-2.26412e-06
2.94045e-07
-7.02071e-06
-2.37457e-06
2.05156e-07
-7.51176e-06
-2.41172e-06
-2.13131e-07
-7.94703e-06
-1.25399e-06
-2.37863e-06
-8.18836e-06
-1.83737e-06
3.55086e-07
-5.52292e-06
-1.95897e-06
3.87059e-07
-6.06867e-06
-2.06262e-06
4.11454e-07
-6.59454e-06
-2.10184e-06
2.89614e-07
-7.0908e-06
-2.07418e-06
-1.43735e-07
-7.51589e-06
-1.11215e-06
-2.04574e-06
-7.77782e-06
-1.69134e-06
4.48305e-07
-4.95628e-06
-1.75e-06
4.52603e-07
-5.49066e-06
-1.77015e-06
4.54995e-07
-6.01119e-06
-1.72908e-06
3.02675e-07
-6.51252e-06
-1.64404e-06
-1.29527e-07
-6.95224e-06
-9.97623e-07
-1.60182e-06
-7.25952e-06
-1.54636e-06
4.90104e-07
-4.24396e-06
-1.53882e-06
4.53086e-07
-4.77586e-06
-1.46659e-06
4.08758e-07
-5.31286e-06
-1.3512e-06
2.33253e-07
-5.83171e-06
-1.22738e-06
-1.76208e-07
-6.31469e-06
-9.36815e-07
-1.17566e-06
-6.70326e-06
-1.41841e-06
-3.37498e-06
-1.36965e-06
-3.90105e-06
-1.23685e-06
-4.43492e-06
-1.08831e-06
-4.95217e-06
-9.34623e-07
-5.45921e-06
-8.44288e-07
-5.96289e-06
8.00368e-07
-1.04349e-05
9.40735e-06
-1.73335e-05
2.71961e-06
-2.03853e-05
1.8946e-05
-1.16635e-05
5.23119e-06
-3.33077e-05
3.14427e-05
5.70573e-07
8.0583e-06
-5.13954e-05
4.84393e-05
1.58001e-05
-7.37013e-05
6.9847e-05
2.76777e-05
1.10287e-06
-1.15561e-05
-1.70276e-05
3.28561e-06
-2.17158e-05
-1.03802e-05
5.94025e-06
-3.51337e-05
3.01081e-06
7.82578e-06
-5.3792e-05
1.84518e-05
-7.53861e-05
3.04137e-05
1.14952e-06
-1.25873e-05
-1.62968e-05
3.59131e-06
-2.29426e-05
-8.37784e-06
6.7356e-06
-3.75367e-05
5.69789e-06
8.8905e-06
-5.67566e-05
1.97761e-05
-7.70636e-05
3.06667e-05
9.87076e-07
-1.34646e-05
-1.54163e-05
3.64589e-06
-2.41011e-05
-6.20842e-06
7.2956e-06
-4.02433e-05
7.82448e-06
1.0596e-05
-6.06274e-05
2.099e-05
-8.11172e-05
3.05226e-05
3.93805e-07
-1.38902e-05
-1.44413e-05
2.96742e-06
-2.47565e-05
-4.37163e-06
6.1947e-06
-4.21398e-05
8.91301e-06
8.79418e-06
-6.34522e-05
2.18552e-05
-8.42331e-05
3.0629e-05
-2.60176e-07
-1.38409e-05
-1.36932e-05
2.02829e-06
-2.48538e-05
-3.60891e-06
4.0838e-06
-4.26016e-05
8.80338e-06
4.50276e-06
-6.37355e-05
2.23762e-05
-8.40834e-05
3.27277e-05
-1.03101e-06
-1.32454e-05
-1.33183e-05
7.22512e-07
-2.43378e-05
-3.77516e-06
1.65821e-06
-4.17943e-05
7.87236e-06
5.91637e-07
-6.22356e-05
2.20715e-05
-8.21503e-05
3.32103e-05
-1.72105e-06
-1.21469e-05
-1.35753e-05
-5.49716e-07
-2.32512e-05
-4.99901e-06
-7.7992e-08
-4.02993e-05
6.19942e-06
-1.15555e-06
-6.04191e-05
2.03889e-05
-3.2893e-06
-8.1139e-05
3.09415e-05
-9.41691e-05
3.7729e-05
-1.90283e-06
-1.08255e-05
-1.41588e-05
-1.27225e-06
-2.17671e-05
-6.61951e-06
-1.49721e-06
-3.7986e-05
4.19971e-06
-3.40884e-06
-5.74786e-05
1.92355e-05
-6.79764e-06
-7.8903e-05
3.09924e-05
-9.3231e-05
3.89621e-05
-2.06697e-06
-9.2285e-06
-1.50649e-05
-2.14245e-06
-1.98793e-05
-8.80675e-06
-3.42329e-06
-3.46356e-05
1.56359e-06
-6.81483e-06
-5.2544e-05
1.73578e-05
-1.20139e-05
-7.41915e-05
3.14419e-05
-9.00158e-05
4.30455e-05
-1.40403e-06
-7.86296e-06
-1.60248e-05
-1.76427e-06
-1.81399e-05
-1.11291e-05
-3.41799e-06
-3.11674e-05
-1.33944e-06
-7.30776e-06
-4.69022e-05
1.48034e-05
-1.33218e-05
-6.81598e-05
3.00366e-05
-1.9465e-05
-8.60964e-05
4.31918e-05
-9.25229e-05
5.39903e-05
-4.76414e-07
-6.794e-06
-1.70334e-05
-9.40731e-07
-1.67214e-05
-1.34377e-05
-2.35877e-06
-2.83462e-05
-4.28632e-06
-5.34304e-06
-4.2187e-05
1.20679e-05
-1.00967e-05
-6.24581e-05
2.85916e-05
-1.4587e-05
-8.25593e-05
4.28987e-05
-1.72243e-05
-9.2946e-05
5.60412e-05
-2.36032e-05
6.70625e-05
-2.14771e-05
-2.29953e-05
-2.10366e-05
9.63713e-07
-6.41213e-06
-1.79455e-05
1.04745e-06
-1.62532e-05
-1.53365e-05
5.37416e-07
-2.70235e-05
-6.83694e-06
-7.09333e-07
-3.9974e-05
8.78584e-06
-2.89065e-06
-5.96417e-05
2.52215e-05
-2.31695e-06
-8.23923e-05
3.90719e-05
-2.18923e-06
-2.44892e-05
5.31414e-05
2.73533e-06
-1.56009e-06
2.38047e-06
-2.47448e-05
-2.40985e-05
-2.41037e-05
-3.4278e-06
-2.2417e-05
1.75862e-05
2.34493e-06
-6.68064e-06
-1.88922e-05
3.0402e-06
-1.6676e-05
-1.67434e-05
3.59648e-06
-2.71117e-05
-7.84821e-06
4.77966e-06
-4.08579e-05
7.99365e-06
6.81561e-06
-6.20444e-05
2.44599e-05
2.27052e-06
-8.86432e-05
3.47273e-05
4.28368e-06
2.33617e-06
3.89398e-06
4.2761e-06
-2.63473e-05
1.05385e-05
1.47917e-05
-3.2479e-05
1.51495e-05
2.45155e-05
-7.00789e-06
3.33201e-06
-7.30536e-06
-1.94992e-05
4.5363e-06
-1.76662e-05
-1.75309e-05
5.57005e-06
-2.79249e-05
-7.53486e-06
7.40304e-06
-4.28689e-05
9.39702e-06
9.72841e-06
-6.52539e-05
2.60735e-05
2.67756e-06
-9.2155e-05
3.62911e-05
2.4978e-06
3.32369e-06
3.28535e-06
2.77347e-05
2.79365e-06
1.07093e-05
-2.83976e-05
2.65977e-05
1.05921e-05
-2.58391e-05
-2.21996e-06
3.79396e-06
-8.06898e-06
-1.96875e-05
5.06633e-06
-1.86318e-05
-1.73519e-05
5.86856e-06
-2.85791e-05
-5.43571e-06
6.51178e-06
-4.38278e-05
1.31847e-05
6.32795e-06
-6.57416e-05
3.08492e-05
5.44063e-07
-9.03651e-05
4.24725e-05
4.47066e-07
8.29146e-07
1.03974e-06
2.83037e-05
-3.81777e-07
-2.79793e-05
1.16841e-05
2.47935e-05
-2.81029e-05
1.2339e-05
1.41189e-06
3.79213e-06
-8.70231e-06
-1.93038e-05
5.03612e-06
-1.93083e-05
-1.58648e-05
6.54477e-06
-2.96754e-05
-3.04428e-06
7.77319e-06
-4.51892e-05
1.46094e-05
7.30362e-06
-6.61764e-05
3.08845e-05
-1.02796e-06
-8.82382e-05
4.1196e-05
2.43794e-06
-2.16911e-07
2.80688e-06
2.72935e-05
-2.83318e-06
-2.60469e-05
1.36292e-05
3.18606e-05
-1.6062e-05
-2.57545e-05
2.01656e-05
6.41072e-06
3.69615e-06
-9.27324e-06
-1.89207e-05
4.90534e-06
-1.98349e-05
-1.41211e-05
7.18168e-06
-3.14331e-05
-3.17484e-07
1.03547e-05
-4.82723e-05
1.72221e-05
1.3892e-05
-7.04799e-05
3.12401e-05
3.35576e-06
-9.28255e-05
3.75985e-05
5.84927e-06
3.04515e-06
5.12712e-06
2.60216e-05
4.02792e-06
-2.66766e-05
9.73235e-06
2.568e-05
3.11597e-06
-2.53169e-05
1.02188e-05
-3.74722e-06
3.35386e-06
-9.65709e-06
-1.83779e-05
4.33517e-06
-2.0018e-05
-1.24306e-05
6.44591e-06
-3.26413e-05
2.03747e-06
9.66935e-06
-5.1006e-05
1.92763e-05
1.30284e-05
-7.42567e-05
3.12465e-05
3.84349e-06
-9.68124e-05
3.64846e-05
4.09825e-06
3.1845e-06
3.62724e-06
2.77399e-05
4.50814e-06
-2.87494e-05
9.28694e-06
3.23602e-05
-2.84333e-05
8.65691e-06
-5.14602e-06
2.95497e-06
-9.7234e-06
-1.78136e-05
3.74796e-06
-1.98642e-05
-1.14223e-05
5.09665e-06
-3.27765e-05
2.90881e-06
6.16879e-06
-5.12589e-05
1.98188e-05
5.90512e-06
-7.42268e-05
3.2297e-05
6.73971e-07
-9.49987e-05
3.95794e-05
2.27006e-07
6.6404e-07
5.98299e-07
2.87587e-05
-2.67717e-08
-2.83931e-05
1.01205e-05
2.52858e-05
-2.77448e-05
9.58444e-06
1.1544e-06
2.45003e-06
-9.3564e-06
-1.72605e-05
2.89941e-06
-1.92772e-05
-1.08302e-05
3.32871e-06
-3.1989e-05
2.71332e-06
2.8731e-06
-4.97332e-05
1.90008e-05
3.5871e-07
-7.14611e-05
3.25579e-05
-2.41317e-06
-9.09918e-05
4.13847e-05
-6.87279e-07
-1.56905e-06
2.13225e-07
2.73169e-05
-3.92181e-06
-2.61433e-05
1.16012e-05
3.11721e-05
-1.48702e-05
-2.50407e-05
1.52452e-05
6.67083e-06
1.96737e-06
-8.60705e-06
-1.69915e-05
2.09504e-06
-1.82964e-05
-1.11027e-05
2.42156e-06
-3.09691e-05
1.33407e-06
2.67739e-06
-4.85456e-05