/*--------------------------------*- C++ -*----------------------------------*\
| =========                 |                                                 |
| \\      /  F ield         | OpenFOAM: The Open Source CFD Toolbox           |
|  \\    /   O peration     | Version:  v2106                                 |
|   \\  /    A nd           | Website:  www.openfoam.com                      |
|    \\/     M anipulation  |                                                 |
\*---------------------------------------------------------------------------*/
FoamFile
{
    version     2.0;
    format      ascii;
    arch        "LSB;label=32;scalar=64";
    class       volScalarField;
    location    "0.000217";
    object      rho;
}
// * * * * * * * * * * * * * * * * * * * * * * * * * * * * * * * * * * * * * //

dimensions      [1 -3 0 0 0 0 0];

internalField   nonuniform List<scalar> 
18109
(
2.36733
2.36627
2.36534
2.36429
2.36361
2.36287
2.3624
2.37057
2.36935
2.36864
2.36787
2.36735
2.36677
2.36643
2.37341
2.37235
2.37192
2.37143
2.37114
2.37079
2.37061
2.37655
2.37571
2.3755
2.37525
2.37514
2.37498
2.37491
2.37992
2.37942
2.37946
2.37944
2.37944
2.37938
2.37935
2.38377
2.3836
2.38375
2.38388
2.38389
2.38389
2.3839
2.388
2.38816
2.38835
2.3885
2.38847
2.38849
2.38854
2.39269
2.39304
2.39312
2.39314
2.39299
2.39298
2.39311
2.3688
2.36756
2.36654
2.36516
2.36388
2.36236
2.36108
2.35971
2.35867
2.35735
2.35596
2.35407
2.35196
2.35027
2.37199
2.37056
2.36971
2.36862
2.36755
2.36628
2.36517
2.36401
2.36308
2.36202
2.36095
2.35963
2.35751
2.35585
2.37478
2.37352
2.3729
2.37209
2.37129
2.37031
2.36937
2.36837
2.36756
2.36668
2.36576
2.36459
2.36284
2.36126
2.37797
2.37694
2.37646
2.37586
2.37526
2.37451
2.3737
2.37288
2.37222
2.3716
2.3709
2.36997
2.36853
2.36703
2.38152
2.38078
2.38047
2.38005
2.37955
2.37891
2.37824
2.37762
2.37717
2.37676
2.37621
2.37534
2.37405
2.37262
2.38563
2.38513
2.38484
2.38449
2.38398
2.38346
2.38298
2.38264
2.3824
2.38213
2.38167
2.38086
2.37967
2.37822
2.39012
2.38979
2.38944
2.38905
2.38855
2.38817
2.3879
2.38774
2.38763
2.38743
2.38701
2.38621
2.38504
2.38354
2.39494
2.39461
2.39407
2.39358
2.3931
2.39282
2.39272
2.39271
2.39269
2.39256
2.39215
2.39134
2.39013
2.38856
2.39971
2.39926
2.39851
2.39793
2.39748
2.3973
2.39737
2.39746
2.39745
2.39732
2.39684
2.39598
2.39478
2.39319
2.40415
2.40354
2.40259
2.40196
2.4016
2.40157
2.40174
2.40188
2.40184
2.40165
2.40108
2.40019
2.39907
2.39751
2.40802
2.40736
2.40638
2.40583
2.40556
2.40565
2.40587
2.406
2.4059
2.4056
2.40489
2.40392
2.40293
2.40142
2.4116
2.41101
2.41004
2.40958
2.40935
2.40949
2.4097
2.4098
2.40964
2.40924
2.40839
2.40734
2.40649
2.4051
2.41511
2.41461
2.41372
2.41334
2.41314
2.41326
2.41338
2.41338
2.41313
2.41258
2.41161
2.41051
2.40976
2.4085
2.41883
2.41826
2.4174
2.41695
2.41677
2.41686
2.41689
2.41682
2.41649
2.41585
2.41488
2.41386
2.41304
2.41226
2.36718
2.36581
2.36503
2.36393
2.36257
2.36141
2.36868
2.36748
2.36654
2.3652
2.36357
2.36236
2.36642
2.36503
2.36315
2.36135
2.35958
2.35884
2.36479
2.363
2.36075
2.35839
2.35576
2.35434
2.36254
2.36002
2.357
2.35411
2.35076
2.34923
2.36053
2.35726
2.35344
2.34999
2.34677
2.34589
2.35831
2.35426
2.34982
2.34618
2.34339
2.34325
2.3566
2.35192
2.34711
2.34318
2.34019
2.33997
2.35487
2.34976
2.34466
2.34041
2.33742
2.33698
2.35386
2.34848
2.34319
2.33855
2.33475
2.33344
2.3525
2.34683
2.3412
2.33629
2.3326
2.3313
2.35154
2.34554
2.34054
2.33572
2.332
2.32978
2.34979
2.34396
2.33916
2.33442
2.33097
2.32899
2.3487
2.3435
2.33937
2.33546
2.33236
2.33
2.3451
2.33985
2.33592
2.33268
2.33064
2.32987
2.34778
2.34359
2.34121
2.33841
2.33656
2.3346
2.35365
2.34962
2.34702
2.34367
2.34063
2.33821
2.35896
2.35532
2.35294
2.35004
2.34715
2.34421
2.36487
2.3614
2.35904
2.35591
2.35286
2.34892
2.37058
2.36742
2.36515
2.36203
2.35879
2.35511
2.37628
2.3735
2.37136
2.36851
2.3656
2.36248
2.38173
2.3795
2.37761
2.37526
2.37299
2.37084
2.38705
2.38547
2.38402
2.38243
2.3806
2.37925
2.392
2.39114
2.39016
2.38941
2.38838
2.38788
2.39668
2.39645
2.39609
2.39626
2.39635
2.39685
2.40101
2.40124
2.40146
2.40242
2.40366
2.40541
2.40513
2.4057
2.4066
2.40833
2.41051
2.4132
2.40866
2.40979
2.41121
2.41359
2.41635
2.41971
2.4127
2.41451
2.41632
2.41906
2.42184
2.42507
2.41506
2.41688
2.41935
2.42233
2.42562
2.42892
2.41541
2.41797
2.42105
2.42453
2.42829
2.432
2.41672
2.41973
2.42332
2.42727
2.4314
2.43538
2.418
2.42135
2.42533
2.42964
2.4341
2.43829
2.41916
2.42274
2.42684
2.43125
2.43587
2.44018
2.41999
2.42376
2.42786
2.43215
2.43671
2.44094
2.42048
2.4244
2.42844
2.43255
2.43699
2.44135
2.42069
2.4247
2.4287
2.43265
2.43692
2.44143
2.42074
2.42483
2.42888
2.43286
2.43716
2.4419
2.42067
2.42481
2.42899
2.43324
2.43781
2.44302
2.42079
2.42491
2.42911
2.43353
2.43835
2.44397
2.42106
2.42498
2.42902
2.43341
2.4383
2.44409
2.42136
2.42519
2.42883
2.43302
2.43761
2.4428
2.42249
2.42576
2.42887
2.43252
2.43616
2.4403
2.37739
2.37763
2.37915
2.38001
2.38127
2.38272
2.37453
2.37391
2.37466
2.37443
2.37441
2.37467
2.3717
2.37018
2.37063
2.36985
2.36949
2.36935
2.36782
2.3655
2.36551
2.36424
2.36408
2.36424
2.4217
2.42501
2.42769
2.43085
2.43423
2.43805
2.41753
2.42094
2.42382
2.42715
2.43052
2.4345
2.41407
2.41727
2.42002
2.42314
2.42628
2.4303
2.41008
2.41278
2.41512
2.41772
2.42041
2.42383
2.40579
2.40783
2.40956
2.41155
2.4137
2.41672
2.40076
2.40216
2.4034
2.40511
2.40705
2.40989
2.3956
2.39654
2.39765
2.39945
2.40174
2.40491
2.39058
2.39129
2.39258
2.39469
2.3976
2.40149
2.38606
2.38675
2.38838
2.39076
2.39429
2.39815
2.38218
2.38283
2.38478
2.38723
2.39057
2.39318
2.37897
2.3794
2.38139
2.38318
2.38527
2.38675
2.37619
2.37588
2.37737
2.37805
2.37864
2.37887
2.37349
2.37232
2.37319
2.37287
2.37254
2.37211
2.36953
2.36741
2.36744
2.36616
2.36551
2.36527
2.37029
2.40002
2.47153
2.59267
2.79578
2.36747
2.39666
2.47412
2.60936
2.83262
2.36386
2.39462
2.4817
2.632
2.88376
2.36126
2.39693
2.49004
2.64515
2.88376
2.36177
2.40242
2.49597
2.64454
2.84235
2.36064
2.40367
2.49646
2.6435
2.83125
2.35692
2.39899
2.49223
2.64594
2.85669
2.35254
2.39066
2.47878
2.62385
2.825
3.00725
2.34512
2.37752
2.45643
2.58385
2.75628
2.90386
2.34043
2.36789
2.43862
2.55403
2.72551
2.89026
2.33426
2.35673
2.42081
2.52844
2.71278
2.91916
3.07547
2.33118
2.35075
2.41011
2.51394
2.7109
2.96045
3.22249
3.39643
2.32972
2.34487
2.39606
2.49422
2.70315
3.01704
3.44445
3.81593
2.32946
2.3405
2.38576
2.4741
2.65984
2.96561
3.31613
3.62855
2.33279
2.34083
2.37643
2.45594
2.61464
2.85956
3.12662
3.28259
2.33709
2.34426
2.38171
2.47409
2.64838
2.91059
3.09155
3.21508
2.34212
2.34867
2.38983
2.49683
2.70942
3.03697
3.37888
3.52135
2.34649
2.35482
2.39912
2.51084
2.71974
3.01823
3.33785
3.71683
2.35316
2.36501
2.41194
2.52014
2.70126
2.92289
3.14708
3.2702
2.36116
2.37488
2.42354
2.52661
2.69285
2.89545
3.04038
3.11296
2.37052
2.38539
2.43619
2.54494
2.73827
2.97515
3.18163
3.21956
2.38115
2.39613
2.44203
2.54125
2.71521
2.93746
3.16511
3.41054
2.39177
2.40716
2.44662
2.5325
2.676
2.86862
2.40239
2.41891
2.45354
2.52645
2.65215
2.84027
2.41252
2.42946
2.46234
2.53163
2.65892
2.85113
2.42122
2.4379
2.46882
2.53497
2.66533
2.88219
2.42785
2.443
2.47039
2.53125
2.66681
2.91758
2.43205
2.44512
2.46947
2.52193
2.64487
2.43526
2.44507
2.4647
2.50998
2.62313
2.43827
2.44649
2.46352
2.51364
2.63548
2.44179
2.44993
2.46761
2.52332
2.66766
2.4448
2.45315
2.4726
2.53192
2.68668
2.4471
2.45637
2.4784
2.54509
2.70609
2.44812
2.45839
2.48339
2.55665
2.70716
2.4492
2.46139
2.49096
2.57564
2.75108
2.44998
2.46429
2.4972
2.58569
2.75464
2.45142
2.46809
2.50232
2.58464
2.73152
2.45333
2.4715
2.50659
2.58715
2.72829
2.45485
2.47364
2.50844
2.58401
2.73026
2.45521
2.47392
2.50739
2.5791
2.73173
2.45373
2.4715
2.5033
2.57235
2.72731
2.4506
2.46757
2.49717
2.56684
2.72079
2.44724
2.46466
2.49826
2.57869
2.73432
2.44366
2.46036
2.49794
2.59011
2.76388
2.43873
2.45595
2.50171
2.60561
2.80736
2.43105
2.45098
2.50305
2.61764
2.82593
2.42402
2.44931
2.50945
2.63446
2.83583
2.41888
2.44822
2.51396
2.64523
2.83899
2.41574
2.44618
2.51357
2.65567
2.86305
2.41228
2.4426
2.51191
2.6548
2.85404
2.40775
2.43585
2.50369
2.63581
2.81416
2.4013
2.42857
2.49808
2.62848
2.81489
2.39453
2.4203
2.49015
2.61542
2.81743
2.3863
2.41274
2.48441
2.60976
2.82421
2.37913
2.40694
2.47709
2.60309
2.83076
2.37329
2.4026
2.47108
2.59441
2.81501
2.37054
2.36909
2.36807
2.36664
2.36518
2.36331
2.36148
2.35942
2.35748
2.3554
2.35345
2.35128
2.3489
2.34696
2.37375
2.37215
2.37113
2.36985
2.36851
2.36689
2.36523
2.36338
2.36167
2.35991
2.35825
2.35654
2.3542
2.35222
2.37668
2.3752
2.37425
2.3731
2.37191
2.37049
2.36901
2.36741
2.36592
2.36444
2.36295
2.3614
2.35931
2.35741
2.38003
2.37868
2.37773
2.37666
2.37557
2.37432
2.373
2.37162
2.37036
2.36912
2.36785
2.36648
2.36467
2.36289
2.38372
2.38248
2.38154
2.38055
2.37952
2.37841
2.37727
2.37612
2.37506
2.37399
2.37285
2.37158
2.36995
2.36827
2.3878
2.38664
2.38564
2.38468
2.38371
2.38276
2.3818
2.38086
2.37997
2.37905
2.37804
2.37685
2.37535
2.37369
2.39207
2.39093
2.38988
2.38895
2.38807
2.38724
2.38646
2.38573
2.38499
2.38418
2.38322
2.38203
2.38057
2.37889
2.39646
2.3953
2.39419
2.39329
2.39248
2.39178
2.39116
2.39057
2.38995
2.38919
2.38825
2.38704
2.38559
2.38384
2.40072
2.39959
2.39845
2.39761
2.39688
2.3963
2.39578
2.39527
2.39466
2.39389
2.39289
2.39164
2.39017
2.38842
2.40483
2.40378
2.40262
2.40183
2.40119
2.4007
2.40021
2.39968
2.39901
2.39815
2.39707
2.39576
2.39432
2.39271
2.40867
2.40778
2.40666
2.40596
2.40536
2.40489
2.40436
2.40376
2.40296
2.40196
2.40076
2.39934
2.39805
2.39652
2.41239
2.41167
2.41054
2.40987
2.40925
2.40873
2.40813
2.40742
2.40648
2.40536
2.404
2.40264
2.40154
2.40018
2.4161
2.41543
2.41429
2.41363
2.41295
2.41235
2.41162
2.41077
2.40968
2.40844
2.40694
2.40566
2.40469
2.40355
2.41986
2.41893
2.41772
2.41691
2.41617
2.41552
2.41475
2.41385
2.41271
2.41142
2.40994
2.40871
2.40775
2.40719
2.37212
2.3709
2.36997
2.36878
2.36755
2.36593
2.36417
2.36203
2.35972
2.35714
2.35449
2.3514
2.34823
2.34537
2.37558
2.37404
2.373
2.37179
2.37055
2.36907
2.36745
2.36554
2.36349
2.36123
2.35881
2.3562
2.3531
2.35044
2.37864
2.37707
2.37601
2.37476
2.37353
2.37213
2.37066
2.36898
2.36719
2.36525
2.36307
2.36072
2.35783
2.35529
2.38216
2.3806
2.3794
2.37807
2.3768
2.37545
2.37406
2.37253
2.37091
2.36915
2.36717
2.3651
2.36252
2.36022
2.38583
2.38421
2.38285
2.38151
2.38024
2.37897
2.37766
2.37625
2.37475
2.37311
2.37132
2.36944
2.36714
2.36497
2.38966
2.38803
2.38659
2.38526
2.38402
2.3828
2.38152
2.38017
2.37874
2.37723
2.3756
2.37386
2.37182
2.36973
2.39349
2.39189
2.39044
2.38916
2.38796
2.38677
2.38553
2.38424
2.38288
2.38145
2.37993
2.37825
2.3764
2.37429
2.39739
2.39587
2.39445
2.39323
2.39204
2.39086
2.38963
2.38835
2.38703
2.38563
2.38419
2.38258
2.3809
2.37883
2.40127
2.39991
2.39852
2.39734
2.39614
2.39494
2.39368
2.39237
2.39104
2.38965
2.38825
2.3867
2.38516
2.38313
2.40515
2.40396
2.40256
2.4014
2.40014
2.39886
2.3975
2.39611
2.39472
2.39334
2.39201
2.39059
2.38924
2.38727
2.40891
2.40793
2.40655
2.40534
2.40397
2.40258
2.40112
2.39962
2.39818
2.39683
2.39557
2.39426
2.39304
2.39109
2.41265
2.41176
2.41021
2.40892
2.40746
2.40603
2.40449
2.40293
2.40144
2.4001
2.39886
2.39767
2.39666
2.39486
2.41629
2.41533
2.4137
2.41238
2.41084
2.40934
2.40773
2.40611
2.40456
2.4032
2.40192
2.40082
2.39987
2.39846
2.41966
2.41821
2.41645
2.41507
2.41364
2.4122
2.41065
2.40905
2.40749
2.40611
2.40479
2.40378
2.40299
2.40209
2.37602
2.37537
2.37469
2.37379
2.37286
2.37172
2.37026
2.36835
2.36595
2.36313
2.35993
2.35624
2.35252
2.34865
2.38016
2.37895
2.37818
2.37712
2.37607
2.37488
2.37345
2.37168
2.36946
2.36686
2.36385
2.36065
2.357
2.35374
2.38353
2.3821
2.38126
2.38011
2.379
2.37781
2.37642
2.37477
2.37275
2.37046
2.36779
2.36497
2.36152
2.3584
2.38727
2.38576
2.38463
2.38331
2.38208
2.38079
2.37936
2.37773
2.37582
2.3737
2.37127
2.36873
2.36558
2.3628
2.3907
2.38911
2.38772
2.38632
2.38502
2.38372
2.38229
2.38073
2.37892
2.37697
2.37474
2.37239
2.36955
2.36691
2.39409
2.3924
2.39083
2.38939
2.38803
2.38672
2.3853
2.38378
2.38204
2.38017
2.37808
2.37589
2.37338
2.37087
2.39724
2.39548
2.39384
2.3924
2.39104
2.38976
2.38837
2.38686
2.38518
2.38338
2.38143
2.37936
2.37713
2.37468
2.4004
2.39859
2.3969
2.39546
2.3941
2.39279
2.39136
2.38984
2.3882
2.38647
2.3847
2.38279
2.38084
2.37845
2.40353
2.40171
2.4
2.39854
2.39711
2.39572
2.39423
2.3927
2.39113
2.38951
2.38792
2.38615
2.38445
2.3821
2.40699
2.40505
2.40315
2.40161
2.40005
2.39851
2.39694
2.39539
2.3939
2.39243
2.39109
2.38953
2.38806
2.38571
2.41028
2.40861
2.40655
2.40472
2.40295
2.40126
2.3996
2.39804
2.39666
2.39537
2.39425
2.39285
2.39153
2.3892
2.41316
2.41162
2.40956
2.40764
2.40571
2.40395
2.40227
2.40073
2.39945
2.39831
2.39732
2.39608
2.3948
2.39249
2.41561
2.41436
2.41237
2.41055
2.40855
2.40667
2.40496
2.40344
2.40221
2.40117
2.4002
2.39905
2.39765
2.39556
2.41773
2.41594
2.41404
2.41242
2.41067
2.40896
2.40735
2.40597
2.40478
2.40373
2.40268
2.40165
2.40028
2.39857
2.39031
2.39016
2.39007
2.38945
2.38885
2.3877
2.38635
2.38451
2.38202
2.37894
2.3752
2.3709
2.36634
2.36127
2.39492
2.3942
2.39397
2.39314
2.39239
2.39112
2.38968
2.38786
2.38549
2.38262
2.37909
2.37529
2.37091
2.36683
2.39874
2.398
2.39754
2.39649
2.39557
2.39427
2.39281
2.39109
2.38886
2.38629
2.38306
2.37964
2.37546
2.37162
2.4027
2.40178
2.40105
2.3998
2.39868
2.39722
2.39564
2.39387
2.39168
2.38928
2.38627
2.38315
2.37928
2.37578
2.40639
2.4052
2.40426
2.40285
2.40158
2.40006
2.39841
2.39662
2.39447
2.39217
2.38935
2.38645
2.38288
2.37955
2.40982
2.40834
2.40717
2.40561
2.40419
2.40257
2.40084
2.39901
2.39689
2.39468
2.39204
2.38935
2.38613
2.38298
2.41291
2.41117
2.40986
2.40817
2.40666
2.40501
2.40325
2.40141
2.39933
2.39717
2.39469
2.39215
2.38919
2.3861
2.4155
2.41379
2.4123
2.41054
2.40895
2.40722
2.40541
2.40354
2.40151
2.39943
2.39715
2.39477
2.39212
2.38907
2.41749
2.41605
2.41449
2.41267
2.411
2.4092
2.40737
2.40551
2.40358
2.4016
2.39954
2.39725
2.39486
2.39174
2.41874
2.41756
2.41611
2.41445
2.41282
2.41107
2.40932
2.40754
2.40575
2.40389
2.40201
2.39981
2.39755
2.39433
2.41937
2.41831
2.41711
2.41595
2.41441
2.41272
2.41102
2.4093
2.40764
2.40591
2.40422
2.4021
2.40003
2.3967
2.41968
2.41872
2.41759
2.4167
2.41544
2.41396
2.41245
2.41094
2.40945
2.40786
2.40628
2.4042
2.40226
2.39873
2.41989
2.41915
2.41807
2.4172
2.41612
2.41497
2.41368
2.41237
2.41106
2.40964
2.40814
2.40612
2.40419
2.40049
2.41957
2.41889
2.41804
2.41738
2.41654
2.41563
2.41456
2.41348
2.41235
2.41102
2.40952
2.40752
2.40553
2.40211
2.41902
2.41992
2.42021
2.41971
2.4192
2.41799
2.41682
2.41476
2.41251
2.40955
2.40593
2.40178
2.39712
2.39171
2.42347
2.42358
2.42347
2.42287
2.42212
2.42071
2.41939
2.41733
2.41513
2.41234
2.40894
2.40521
2.40088
2.39657
2.42711
2.42681
2.42666
2.42576
2.4249
2.42345
2.42206
2.42006
2.41789
2.41529
2.41208
2.40869
2.40438
2.40044
2.43029
2.42969
2.42938
2.42835
2.42733
2.42577
2.42425
2.42224
2.42006
2.41758
2.41453
2.41137
2.40732
2.40363
2.43293
2.43209
2.43166
2.43053
2.42948
2.42792
2.42636
2.42438
2.42223
2.41983
2.4169
2.41386
2.41002
2.40649
2.43516
2.43404
2.4335
2.43231
2.43122
2.42967
2.42807
2.42612
2.42399
2.42165
2.41884
2.41592
2.41232
2.4088
2.43671
2.43549
2.43483
2.43361
2.43252
2.43102
2.42945
2.42756
2.42552
2.42327
2.42062
2.41784
2.41449
2.41107
2.43788
2.43667
2.43589
2.43466
2.43357
2.43211
2.43059
2.42879
2.42682
2.42467
2.42217
2.41951
2.41637
2.41297
2.43846
2.4374
2.43648
2.43528
2.43424
2.43289
2.43147
2.42979
2.42795
2.42589
2.42353
2.42096
2.41799
2.41458
2.43889
2.43788
2.4369
2.43573
2.43477
2.4335
2.43216
2.43059
2.42888
2.42695
2.42477
2.42229
2.41946
2.41593
2.43894
2.43806
2.43705
2.436
2.43507
2.43391
2.43265
2.43118
2.42957
2.42774
2.42571
2.4233
2.42059
2.41697
2.43849
2.43788
2.43703
2.43615
2.43528
2.43418
2.43303
2.43164
2.43017
2.42846
2.42658
2.42421
2.42148
2.41761
2.43802
2.43751
2.43681
2.4361
2.43533
2.43432
2.43327
2.43195
2.43061
2.42894
2.42714
2.42478
2.42209
2.418
2.43645
2.43641
2.43603
2.43555
2.43496
2.43419
2.43332
2.43221
2.43102
2.42943
2.42758
2.42504
2.42244
2.41803
2.46289
2.46309
2.46331
2.4629
2.46236
2.46135
2.46029
2.45853
2.45694
2.45459
2.45204
2.44907
2.44527
2.44104
2.46613
2.46598
2.46582
2.46526
2.46454
2.46338
2.46217
2.46039
2.45873
2.45644
2.45395
2.45112
2.44791
2.44412
2.46862
2.4683
2.46825
2.46764
2.46687
2.46569
2.46444
2.46269
2.461
2.45878
2.45632
2.45354
2.45015
2.44668
2.47072
2.47027
2.47028
2.46965
2.46886
2.46764
2.4663
2.46453
2.46277
2.46058
2.45817
2.45549
2.4522
2.44892
2.47218
2.47169
2.47178
2.47122
2.47052
2.46936
2.46803
2.46631
2.46454
2.46238
2.45997
2.4573
2.45402
2.45083
2.47325
2.47272
2.47287
2.47237
2.47177
2.47069
2.46939
2.46772
2.46594
2.4638
2.46138
2.4587
2.45546
2.45224
2.47363
2.47319
2.4734
2.47299
2.47252
2.47158
2.47038
2.46884
2.4671
2.46501
2.46261
2.45995
2.45677
2.45353
2.47358
2.47334
2.47358
2.47327
2.47291
2.47208
2.47098
2.46955
2.46785
2.46581
2.46339
2.46073
2.45754
2.45418
2.47284
2.4729
2.47319
2.47301
2.47282
2.47218
2.47121
2.46991
2.46829
2.46632
2.46394
2.46128
2.45808
2.45465
2.47183
2.47205
2.47243
2.47238
2.47233
2.47188
2.47107
2.46995
2.46841
2.46651
2.46413
2.46145
2.45819
2.45455
2.47042
2.47087
2.47133
2.47143
2.47147
2.47116
2.4705
2.46953
2.46808
2.46624
2.46391
2.46118
2.45784
2.454
2.46848
2.46926
2.46994
2.47018
2.47036
2.4702
2.46967
2.46878
2.46743
2.46569
2.46344
2.46074
2.45727
2.45316
2.46641
2.46745
2.46819
2.46861
2.46892
2.46891
2.46852
2.46771
2.46644
2.46474
2.46251
2.45977
2.45633
2.45181
2.46309
2.46486
2.46594
2.46671
2.4672
2.46739
2.46725
2.46661
2.46547
2.46383
2.46158
2.45862
2.45504
2.44979
2.51705
2.51645
2.51635
2.51592
2.51545
2.51474
2.51406
2.5131
2.5124
2.51132
2.51035
2.50907
2.50698
2.50511
2.51826
2.51776
2.51749
2.51695
2.51638
2.51559
2.51481
2.51378
2.51292
2.51173
2.51055
2.50909
2.50726
2.50501
2.51936
2.51878
2.51862
2.5181
2.51753
2.51676
2.51596
2.51494
2.514
2.51277
2.51147
2.50985
2.50793
2.5056
2.52014
2.5195
2.51951
2.51906
2.51851
2.51773
2.51687
2.51577
2.51468
2.51333
2.51192
2.51023
2.50823
2.50598
2.52055
2.51995
2.52008
2.51973
2.51927
2.51854
2.51767
2.51655
2.51537
2.51394
2.51241
2.51063
2.50852
2.5063
2.52077
2.52023
2.52041
2.52015
2.51978
2.5191
2.51823
2.5171
2.51584
2.51434
2.51268
2.51079
2.50859
2.50632
2.52053
2.52018
2.52043
2.52027
2.51996
2.51936
2.51853
2.51743
2.51613
2.51457
2.51283
2.51087
2.5086
2.50629
2.52008
2.51988
2.52018
2.52011
2.5199
2.51941
2.51862
2.51754
2.51621
2.51461
2.51276
2.51071
2.50832
2.50589
2.51914
2.51915
2.51953
2.51957
2.51947
2.5191
2.51838
2.51738
2.51605
2.51443
2.51252
2.5104
2.50796
2.50546
2.51804
2.51823
2.51874
2.51886
2.51879
2.51847
2.51782
2.5169
2.51558
2.51398
2.51202
2.50986
2.50731
2.50462
2.51651
2.51693
2.51759
2.51782
2.51783
2.51761
2.51703
2.51621
2.51493
2.51339
2.51145
2.50923
2.5066
2.50368
2.51468
2.51529
2.51616
2.51651
2.51664
2.51653
2.51605
2.51533
2.51411
2.51266
2.51075
2.50853
2.50573
2.5025
2.51247
2.5135
2.51441
2.51489
2.51519
2.51523
2.51484
2.51419
2.51299
2.51157
2.50964
2.50733
2.50455
2.50082
2.50941
2.51097
2.51222
2.51304
2.51353
2.51377
2.51357
2.51304
2.51192
2.51058
2.50863
2.50616
2.50305
2.49872
2.56741
2.56617
2.56582
2.56532
2.56499
2.5647
2.56461
2.56462
2.56503
2.56532
2.56578
2.56596
2.56554
2.56527
2.56736
2.56651
2.56619
2.5657
2.5654
2.56512
2.56498
2.56487
2.56501
2.56508
2.56521
2.56514
2.56466
2.56384
2.56752
2.56678
2.56666
2.56633
2.56616
2.56594
2.56579
2.56558
2.56548
2.56533
2.56522
2.56496
2.5644
2.56358
2.56748
2.56686
2.5669
2.56676
2.56669
2.56651
2.56629
2.56598
2.56568
2.56531
2.56494
2.56443
2.56372
2.56288
2.56727
2.56684
2.56703
2.56707
2.56711
2.56701
2.5668
2.56642
2.56597
2.56539
2.56478
2.56405
2.56319
2.5623
2.56697
2.56674
2.56708
2.56723
2.56736
2.56731
2.56711
2.5667
2.56612
2.56536
2.56452
2.56357
2.56256
2.56161
2.56644
2.56647
2.56696
2.56723
2.56745
2.56747
2.56728
2.56686
2.5662
2.56531
2.56427
2.56316
2.56204
2.56106
2.56595
2.56619
2.56678
2.56715
2.56744
2.5675
2.56731
2.56687
2.56614
2.56515
2.56395
2.56271
2.56147
2.56042
2.56522
2.56564
2.56637
2.56687
2.56725
2.56738
2.56719
2.56676
2.56598
2.56495
2.5637
2.5624
2.5611
2.56
2.56458
2.5651
2.56592
2.56649
2.5669
2.56708
2.56691
2.5665
2.56571
2.56469
2.56342
2.56206
2.56065
2.55938
2.56373
2.56437
2.56529
2.56592
2.56639
2.56664
2.56651
2.56617
2.56541
2.56446
2.56322
2.56186
2.56041
2.55894
2.56286
2.56355
2.56456
2.56528
2.56582
2.56613
2.56606
2.56579
2.56507
2.56421
2.56301
2.56167
2.56017
2.55845
2.56175
2.56271
2.56368
2.56447
2.56508
2.56549
2.56548
2.56529
2.56459
2.56381
2.56262
2.56123
2.55974
2.55753
2.56026
2.56151
2.5627
2.56373
2.56442
2.5649
2.56493
2.56482
2.56415
2.56348
2.56235
2.56098
2.55931
2.55703
2.60667
2.60558
2.60531
2.60508
2.60517
2.60552
2.60613
2.60699
2.6083
2.60972
2.61142
2.61294
2.61382
2.61495
2.60639
2.60574
2.60568
2.60558
2.6058
2.6062
2.60679
2.60752
2.60851
2.60962
2.61091
2.61205
2.61271
2.61331
2.60627
2.60588
2.60608
2.60628
2.60672
2.60719
2.6077
2.60823
2.60887
2.60958
2.61042
2.61124
2.61178
2.61224
2.60602
2.60589
2.60635
2.60678
2.60739
2.60791
2.60834
2.60864
2.60894
2.60927
2.60968
2.6101
2.6104
2.61069
2.6057
2.60588
2.60659
2.60721
2.60794
2.6085
2.60886
2.609
2.609
2.60898
2.609
2.60907
2.60916
2.60931
2.60548
2.60587
2.60673
2.60748
2.60826
2.60882
2.60913
2.60914
2.60892
2.60859
2.60825
2.60797
2.60784
2.60786
2.60521
2.60579
2.60678
2.60763
2.60843
2.60899
2.60926
2.60917
2.6088
2.60823
2.6076
2.60707
2.60672
2.60662
2.60506
2.60578
2.60682
2.6077
2.60849
2.60902
2.60922
2.60906
2.60856
2.60784
2.60702
2.60631
2.60577
2.60556
2.60495
2.60573
2.6068
2.60769
2.60846
2.60897
2.60911
2.60889
2.60833
2.60756
2.60667
2.60586
2.60523
2.60497
2.60504
2.60578
2.60683
2.60769
2.6084
2.60887
2.60896
2.60873
2.60815
2.60738
2.60646
2.60561
2.60489
2.60454
2.60515
2.60586
2.60684
2.60766
2.60833
2.60876
2.60882
2.60864
2.6081
2.60741
2.60655
2.60576
2.60504
2.60465
2.60536
2.60599
2.60689
2.60765
2.60828
2.6087
2.60874
2.60864
2.60819
2.60762
2.60686
2.60615
2.60547
2.60496
2.60549
2.60617
2.60693
2.60762
2.60822
2.60865
2.60871
2.6087
2.60833
2.6079
2.60724
2.6066
2.60593
2.60521
2.60586
2.60632
2.60705
2.60778
2.60836
2.60879
2.60885
2.60892
2.60863
2.60835
2.60784
2.6073
2.60667
2.6062
2.63305
2.63251
2.63241
2.63246
2.63286
2.63355
2.63451
2.63571
2.63725
2.639
2.64094
2.64297
2.64488
2.64702
2.63346
2.63315
2.63326
2.63343
2.63393
2.63464
2.63558
2.63668
2.63801
2.6395
2.6412
2.64298
2.64461
2.64639
2.63373
2.63374
2.63411
2.63455
2.63522
2.63597
2.63682
2.63773
2.63875
2.6399
2.6412
2.64264
2.64406
2.64553
2.63414
2.63437
2.635
2.63561
2.63642
2.6372
2.63797
2.63867
2.63939
2.64018
2.64107
2.64211
2.64321
2.64441
2.63446
2.63498
2.63583
2.63665
2.63756
2.63835
2.63901
2.6395
2.63992
2.64034
2.64085
2.6415
2.64231
2.64327
2.6349
2.63563
2.63663
2.63756
2.63851
2.63927
2.6398
2.64009
2.64022
2.64032
2.64047
2.64077
2.64128
2.64203
2.63535
2.63626
2.63736
2.63836
2.63931
2.64001
2.6404
2.6405
2.64041
2.64023
2.6401
2.64014
2.6404
2.64099
2.63595
2.63692
2.63807
2.63905
2.63994
2.64054
2.64082
2.64077
2.64048
2.64011
2.63975
2.63961
2.63967
2.64012
2.63665
2.63764
2.63876
2.63968
2.64047
2.64098
2.64114
2.64099
2.64058
2.64007
2.63959
2.63931
2.63927
2.63966
2.63752
2.63845
2.6395
2.64031
2.64099
2.64137
2.64143
2.64123
2.64076
2.64019
2.63962
2.63927
2.63915
2.63949
2.63851
2.63935
2.64028
2.64096
2.6415
2.64177
2.64175
2.64155
2.64108
2.64054
2.63998
2.63966
2.63955
2.6399
2.63954
2.6403
2.64111
2.64166
2.64207
2.64225
2.64219
2.64202
2.64159
2.64113
2.64064
2.64037
2.6403
2.64062
2.64063
2.6413
2.64192
2.64235
2.64264
2.64279
2.64271
2.6426
2.64224
2.64189
2.64151
2.64133
2.64128
2.64158
2.642
2.6423
2.64289
2.64325
2.64345
2.64356
2.64345
2.6434
2.64313
2.64294
2.64268
2.64258
2.64253
2.64323
2.65055
2.65033
2.65028
2.65036
2.65073
2.65138
2.6523
2.65341
2.65478
2.65634
2.65812
2.66007
2.66206
2.66446
2.65153
2.65132
2.6514
2.65149
2.65186
2.65249
2.65336
2.65443
2.65573
2.65721
2.6589
2.66079
2.66272
2.66489
2.65232
2.65232
2.65253
2.65278
2.65322
2.65384
2.65464
2.65559
2.65673
2.65805
2.65956
2.66124
2.66302
2.66499
2.65344
2.65352
2.65388
2.65421
2.6547
2.65531
2.65605
2.65689
2.65787
2.65901
2.6603
2.66176
2.66329
2.66503
2.6545
2.6548
2.65526
2.65571
2.65624
2.65683
2.65749
2.65819
2.65898
2.6599
2.66095
2.66213
2.66347
2.66494
2.65572
2.65616
2.65672
2.65721
2.65775
2.65829
2.65883
2.65938
2.65996
2.66065
2.66144
2.66237
2.66345
2.66469
2.65692
2.65752
2.65814
2.65867
2.65919
2.65964
2.66005
2.66042
2.6608
2.66127
2.66182
2.66252
2.66339
2.66442
2.65821
2.65888
2.65952
2.66003
2.6605
2.66084
2.6611
2.6613
2.66149
2.66174
2.66207
2.66258
2.66325
2.66412
2.65954
2.66024
2.66086
2.66133
2.66171
2.66193
2.66204
2.66209
2.66211
2.66219
2.66234
2.6627
2.66321
2.66397
2.66093
2.66161
2.66218
2.66256
2.66285
2.66296
2.66292
2.66282
2.6627
2.66266
2.66267
2.6629
2.66328
2.66395
2.66234
2.66296
2.66346
2.66373
2.66392
2.66392
2.66377
2.66357
2.66334
2.66322
2.66315
2.66332
2.6636
2.66422
2.66374
2.66432
2.66474
2.6649
2.66499
2.66489
2.66466
2.6644
2.66408
2.6639
2.66382
2.66396
2.66417
2.66472
2.66516
2.66563
2.66594
2.666
2.66602
2.66588
2.6656
2.66532
2.66496
2.66473
2.66463
2.66478
2.66499
2.66554
2.66676
2.66698
2.66726
2.66725
2.66717
2.66696
2.66662
2.66633
2.66598
2.66577
2.66568
2.66586
2.66605
2.66681
2.66385
2.66366
2.66356
2.66356
2.6637
2.66408
2.66469
2.66548
2.66649
2.66769
2.6691
2.67071
2.67242
2.67462
2.66492
2.66466
2.66457
2.66451
2.66461
2.66493
2.6655
2.66629
2.66732
2.66857
2.67003
2.6717
2.67346
2.67549
2.66586
2.66569
2.66562
2.6656
2.66569
2.66599
2.66653
2.66727
2.66825
2.66946
2.67089
2.67251
2.67424
2.67621
2.66719
2.66703
2.66701
2.66697
2.66705
2.66731
2.66781
2.66851
2.66946
2.67065
2.67204
2.6736
2.67521
2.67704
2.66854
2.66845
2.66845
2.66844
2.66852
2.66876
2.66923
2.66989
2.67078
2.67188
2.67319
2.67463
2.67618
2.67784
2.67007
2.67003
2.67005
2.67004
2.67011
2.6703
2.67071
2.67131
2.67211
2.67312
2.67432
2.67563
2.67705
2.67853
2.67156
2.67162
2.67164
2.67165
2.6717
2.67186
2.67219
2.6727
2.67341
2.6743
2.67537
2.67653
2.67784
2.67916
2.67309
2.67321
2.67323
2.67323
2.67326
2.67336
2.6736
2.67401
2.67459
2.67534
2.67626
2.67727
2.67844
2.67961
2.67459
2.67476
2.67478
2.67476
2.67477
2.6748
2.67494
2.67524
2.67568
2.67628
2.67705
2.67792
2.67897
2.68003
2.67605
2.67626
2.67626
2.67622
2.67618
2.67613
2.67618
2.67637
2.67667
2.67714
2.67776
2.6785
2.67942
2.68036
2.67747
2.67767
2.67767
2.67759
2.67751
2.67739
2.67734
2.67743
2.6776
2.67794
2.67842
2.67905
2.67984
2.68072
2.67883
2.67904
2.67901
2.67889
2.67875
2.67856
2.67842
2.67842
2.67849
2.67873
2.67909
2.67964
2.68031
2.68112
2.68015
2.68025
2.68024
2.68008
2.67991
2.6797
2.6795
2.67941
2.67941
2.67956
2.6798
2.68027
2.68084
2.68165
2.68152
2.68152
2.68146
2.68125
2.68104
2.68079
2.68052
2.68035
2.68028
2.68037
2.68055
2.68093
2.68146
2.68224
2.67608
2.6759
2.67572
2.67561
2.67558
2.67565
2.6759
2.67633
2.67694
2.67769
2.67862
2.67973
2.68095
2.68257
2.67691
2.67664
2.67642
2.67623
2.67616
2.6762
2.67644
2.67688
2.67753
2.67837
2.67943
2.68065
2.68196
2.68347
2.67765
2.67735
2.67712
2.67694
2.67686
2.67691
2.67715
2.6776
2.67825
2.6791
2.68015
2.6814
2.68273
2.68427
2.6787
2.67839
2.67815
2.67793
2.67783
2.67784
2.67807
2.67852
2.67919
2.68007
2.68116
2.68243
2.68377
2.68527
2.67977
2.67946
2.67921
2.67899
2.67888
2.6789
2.67914
2.6796
2.68028
2.68117
2.68227
2.68352
2.68486
2.68632
2.68101
2.6807
2.68044
2.6802
2.68009
2.6801
2.68033
2.68078
2.68146
2.68235
2.68343
2.68466
2.68597
2.68737
2.68223
2.68195
2.68169
2.68147
2.68135
2.68137
2.68159
2.68203
2.6827
2.68356
2.68463
2.6858
2.6871
2.68841
2.68348
2.68324
2.68297
2.68275
2.68263
2.68264
2.68285
2.68327
2.68391
2.68473
2.68575
2.68685
2.68811
2.68934
2.6847
2.68451
2.68425
2.68404
2.68391
2.68391
2.68409
2.68448
2.68506
2.68582
2.68678
2.6878
2.68902
2.69016
2.68588
2.68574
2.68548
2.68527
2.68512
2.6851
2.68526
2.6856
2.68612
2.68681
2.6877
2.68864
2.68979
2.69086
2.687
2.6869
2.68664
2.68643
2.68627
2.68623
2.68636
2.68665
2.6871
2.68771
2.68851
2.68937
2.69042
2.69144
2.68805
2.68799
2.68772
2.68752
2.68734
2.68727
2.68735
2.68758
2.68796
2.68849
2.6892
2.68998
2.69097
2.69194
2.68908
2.68896
2.68873
2.68852
2.68834
2.68826
2.6883
2.68849
2.6888
2.68927
2.68987
2.69059
2.69146
2.69245
2.69004
2.68994
2.68967
2.68946
2.68927
2.68917
2.68917
2.68929
2.68952
2.68988
2.69038
2.69099
2.69182
2.69276
2.68755
2.68742
2.68723
2.68705
2.6869
2.68681
2.6868
2.68687
2.68708
2.6874
2.68785
2.68841
2.68906
2.68988
2.68807
2.68785
2.68762
2.6874
2.68724
2.68715
2.68714
2.68724
2.68751
2.68791
2.68845
2.68912
2.68985
2.6907
2.6885
2.68823
2.68799
2.68777
2.68762
2.68755
2.68758
2.68774
2.68804
2.68848
2.68906
2.68978
2.69055
2.69148
2.68908
2.68879
2.68853
2.6883
2.68816
2.68809
2.68814
2.68834
2.68867
2.68916
2.68979
2.69057
2.6914
2.69238
2.6897
2.68937
2.68912
2.68889
2.68877
2.68872
2.68881
2.68905
2.68944
2.68998
2.69065
2.69147
2.69234
2.69335
2.69044
2.6901
2.68983
2.68961
2.68948
2.68946
2.68957
2.68984
2.69026
2.69084
2.69156
2.69241
2.69333
2.69434
2.69121
2.69087
2.6906
2.69038
2.69026
2.69027
2.69041
2.69071
2.69117
2.69177
2.69253
2.6934
2.69437
2.69537
2.69201
2.69169
2.69142
2.69121
2.6911
2.69112
2.69129
2.6916
2.69209
2.69271
2.69351
2.69439
2.6954
2.69638
2.69284
2.69255
2.69227
2.69207
2.69197
2.692
2.69218
2.69251
2.69301
2.69365
2.69447
2.69534
2.69637
2.69733
2.69367
2.69341
2.69312
2.69293
2.69284
2.69287
2.69306
2.6934
2.69391
2.69455
2.69538
2.69624
2.69729
2.69823
2.69448
2.69426
2.69397
2.69379
2.6937
2.69374
2.69393
2.69426
2.69477
2.6954
2.69623
2.69706
2.6981
2.69901
2.69527
2.69509
2.69479
2.69462
2.69453
2.69457
2.69476
2.69508
2.69557
2.69618
2.69697
2.69779
2.69882
2.69972
2.69607
2.69588
2.6956
2.69543
2.69535
2.69539
2.69557
2.69588
2.69635
2.69695
2.69771
2.69851
2.69948
2.70039
2.6968
2.69665
2.69636
2.69621
2.69613
2.69617
2.69633
2.69661
2.69703
2.69755
2.69824
2.69896
2.6999
2.70082
2.69688
2.69669
2.69651