/*--------------------------------*- C++ -*----------------------------------*\
| =========                 |                                                 |
| \\      /  F ield         | OpenFOAM: The Open Source CFD Toolbox           |
|  \\    /   O peration     | Version:  v2106                                 |
|   \\  /    A nd           | Website:  www.openfoam.com                      |
|    \\/     M anipulation  |                                                 |
\*---------------------------------------------------------------------------*/
FoamFile
{
    version     2.0;
    format      ascii;
    arch        "LSB;label=32;scalar=64";
    class       volScalarField;
    location    "0.000217";
    object      T;
}
// * * * * * * * * * * * * * * * * * * * * * * * * * * * * * * * * * * * * * //

dimensions      [0 0 0 1 0 0 0];

internalField   nonuniform List<scalar> 
18109
(
291.341
291.31
291.291
291.264
291.251
291.233
291.229
291.555
291.518
291.492
291.457
291.433
291.406
291.392
291.714
291.682
291.663
291.632
291.609
291.583
291.567
291.889
291.846
291.824
291.798
291.779
291.759
291.744
292.068
292.017
291.99
291.967
291.951
291.937
291.923
292.261
292.205
292.171
292.147
292.129
292.116
292.106
292.465
292.412
292.371
292.344
292.319
292.305
292.299
292.686
292.637
292.588
292.551
292.517
292.5
292.497
291.467
291.424
291.386
291.329
291.276
291.212
291.163
291.111
291.076
291.03
290.982
290.913
290.838
290.793
291.667
291.613
291.566
291.505
291.446
291.382
291.327
291.269
291.225
291.181
291.147
291.115
291.062
291.052
291.81
291.758
291.718
291.665
291.613
291.556
291.501
291.442
291.393
291.35
291.32
291.298
291.27
291.274
291.97
291.909
291.868
291.821
291.778
291.731
291.681
291.628
291.582
291.547
291.529
291.519
291.505
291.51
292.145
292.076
292.031
291.989
291.95
291.91
291.867
291.826
291.793
291.77
291.758
291.751
291.743
291.745
292.343
292.268
292.214
292.171
292.13
292.095
292.064
292.039
292.021
292.009
292.004
292
291.996
291.991
292.554
292.478
292.416
292.367
292.324
292.294
292.273
292.26
292.253
292.25
292.249
292.246
292.243
292.235
292.779
292.701
292.629
292.573
292.527
292.499
292.486
292.482
292.482
292.485
292.487
292.486
292.481
292.473
293.004
292.922
292.84
292.778
292.731
292.708
292.702
292.702
292.703
292.707
292.707
292.706
292.705
292.692
293.22
293.134
293.043
292.976
292.932
292.917
292.915
292.916
292.915
292.916
292.913
292.913
292.918
292.899
293.418
293.332
293.238
293.174
293.136
293.126
293.125
293.125
293.121
293.118
293.111
293.11
293.118
293.09
293.613
293.529
293.436
293.376
293.34
293.332
293.331
293.33
293.324
293.318
293.309
293.304
293.315
293.285
293.811
293.736
293.649
293.593
293.557
293.545
293.54
293.536
293.528
293.519
293.508
293.5
293.512
293.488
294.023
293.957
293.878
293.82
293.781
293.764
293.754
293.749
293.741
293.731
293.722
293.72
293.727
293.724
291.258
291.171
291.148
291.134
291.122
291.018
291.396
291.307
291.269
291.241
291.218
291.124
291.304
291.208
291.144
291.111
291.061
290.93
291.267
291.165
291.078
291.01
290.884
290.618
291.193
291.075
290.954
290.848
290.63
290.213
291.126
290.993
290.843
290.689
290.384
289.834
291.048
290.898
290.723
290.528
290.139
289.48
290.995
290.829
290.631
290.379
289.891
289.122
290.943
290.763
290.537
290.218
289.668
288.849
290.924
290.736
290.483
290.095
289.468
288.606
290.881
290.667
290.362
289.914
289.274
288.464
290.85
290.585
290.251
289.759
289.127
288.33
290.766
290.463
290.082
289.558
288.955
288.227
290.696
290.368
289.984
289.524
288.985
288.284
290.51
290.144
289.768
289.357
288.907
288.456
290.646
290.352
290.067
289.709
289.371
288.995
290.938
290.674
290.41
290.086
289.777
289.443
291.181
290.97
290.769
290.53
290.293
289.985
291.445
291.282
291.136
290.942
290.745
290.411
291.702
291.587
291.493
291.346
291.177
290.86
291.965
291.893
291.839
291.742
291.618
291.329
292.224
292.195
292.175
292.123
292.048
291.804
292.484
292.499
292.509
292.499
292.441
292.245
292.727
292.79
292.83
292.847
292.798
292.638
292.955
293.058
293.132
293.168
293.135
293.005
293.166
293.298
293.391
293.432
293.413
293.306
293.38
293.521
293.619
293.659
293.643
293.549
293.585
293.722
293.803
293.841
293.821
293.749
293.815
293.942
294.003
294.035
294.006
293.95
293.918
294.037
294.122
294.156
294.161
294.148
293.905
294.059
294.19
294.281
294.339
294.364
293.926
294.112
294.292
294.451
294.588
294.688
293.938
294.156
294.383
294.606
294.822
294.988
293.956
294.197
294.453
294.717
294.983
295.183
293.976
294.232
294.505
294.786
295.064
295.259
293.991
294.259
294.539
294.82
295.087
295.272
294.002
294.278
294.56
294.831
295.077
295.24
294.017
294.296
294.577
294.835
295.056
295.19
294.036
294.313
294.588
294.837
295.03
295.137
294.07
294.335
294.592
294.821
294.985
295.06
294.113
294.352
294.575
294.768
294.903
294.966
294.156
294.368
294.548
294.704
294.803
294.839
294.225
294.391
294.523
294.65
294.724
294.75
291.929
291.931
291.984
291.988
291.995
291.971
291.746
291.691
291.695
291.646
291.614
291.593
291.582
291.465
291.418
291.36
291.354
291.375
291.353
291.195
291.14
291.094
291.118
291.144
294.178
294.342
294.468
294.603
294.712
294.767
293.957
294.141
294.306
294.492
294.637
294.708
293.777
293.976
294.169
294.378
294.534
294.616
293.577
293.778
293.978
294.18
294.316
294.378
293.371
293.558
293.739
293.906
294.005
294.053
293.135
293.298
293.448
293.577
293.645
293.678
292.893
293.027
293.147
293.252
293.318
293.347
292.651
292.754
292.853
292.949
293.034
293.079
292.423
292.499
292.59
292.684
292.79
292.832
292.213
292.264
292.354
292.444
292.532
292.52
292.028
292.047
292.125
292.173
292.214
292.171
291.858
291.827
291.86
291.846
291.835
291.787
291.701
291.605
291.576
291.522
291.502
291.5
291.484
291.333
291.259
291.192
291.2
291.218
290.224
287.852
283.594
276.398
268.079
289.759
286.668
281.807
274.343
266.455
289.13
285.378
280.033
272.708
266.571
288.468
284.3
278.383
270.494
263.638
287.927
283.444
276.929
268.37
260.142
287.441
282.833
276.143
267.486
259.413
287.037
282.586
276.183
267.823
260.686
286.884
282.782
276.778
268.501
261.361
258.143
286.716
283.096
277.757
269.284
260.267
255.255
286.827
283.772
279.328
271.641
262.945
257.159
286.786
284.367
280.926
274.465
266.841
260.719
258.54
286.917
285.129
282.606
277.294
270.734
264.616
262.539
268.399
287.147
285.716
283.615
279.04
273.314
268.654
269.16
276.264
287.536
286.209
284.256
280.017
274.189
267.642
266.107
264.517
288.126
286.797
284.473
279.516
271.529
261.662
255.876
253.104
288.673
287.3
284.791
279.707
271.233
261.423
252.83
250.835
289.142
287.586
284.964
279.995
272.64
265.643
262.723
259.413
289.512
287.839
284.798
279.191
271.353
263.927
260.678
263.601
289.951
288.229
284.766
278.031
268.413
258.618
253.096
251.632
290.425
288.619
284.824
277.644
267.733
258.076
249.791
248.393
290.941
289.151
285.5
278.716
270.257
263.028
258.011
256.204
291.487
289.803
286.481
280.278
271.665
264.573
262.972
265.469
291.99
290.527
287.658
282.16
272.977
263.691
292.443
291.269
288.947
284.412
276.136
266.729
292.843
291.947
290.283
286.831
280.171
271.723
293.18
292.535
291.413
288.789
283.354
276.186
293.469
293.001
292.217
290.055
285.457
279.819
293.731
293.38
292.78
290.743
286.13
294.032
293.749
293.103
290.707
284.911
294.373
294.199
293.511
290.947
284.49
294.758
294.663
293.948
291.301
285.096
295.089
295.008
294.258
291.295
284.463
295.302
295.212
294.377
290.62
282.105
295.371
295.253
294.133
289.591
279.669
295.385
295.273
293.906
288.956
279.285
295.33
295.167
293.572
288.437
278.687
295.257
295.057
293.419
288.254
277.921
295.171
294.921
293.404
288.627
279.137
295.055
294.774
293.483
289.273
281.101
294.94
294.66
293.559
289.833
282.833
294.824
294.589
293.546
290.08
283.783
294.737
294.452
293.154
289.41
282.566
294.675
294.323
292.746
288.396
280.386
294.605
294.056
292.089
287.147
278.737
294.454
293.637
291.21
285.933
278.504
294.079
292.977
290.028
284.016
276.01
293.635
292.338
288.855
281.967
273.032
293.218
291.756
287.753
280.116
270.929
292.895
291.282
286.91
278.924
270.098
292.593
290.921
286.549
278.528
269.485
292.294
290.574
286.216
277.867
268.047
291.943
290.308
286.316
278.356
268.921
291.629
290.029
286.362
278.925
270.419
291.278
289.746
286.443
279.58
271.789
290.971
289.358
285.983
279.699
272.652
290.6
288.736
285.018
278.465
271.145
291.632
291.559
291.502
291.426
291.35
291.258
291.172
291.081
291.001
290.922
290.855
290.779
290.703
290.66
291.812
291.726
291.654
291.572
291.493
291.404
291.317
291.224
291.142
291.065
291.005
290.956
290.9
290.883
291.942
291.857
291.787
291.709
291.635
291.554
291.473
291.385
291.304
291.23
291.171
291.128
291.089
291.086
292.087
291.995
291.922
291.849
291.782
291.712
291.639
291.561
291.488
291.422
291.368
291.332
291.303
291.302
292.249
292.149
292.072
292.003
291.941
291.88
291.817
291.752
291.691
291.634
291.588
291.556
291.53
291.52
292.432
292.325
292.242
292.173
292.114
292.06
292.009
291.958
291.91
291.864
291.827
291.798
291.773
291.755
292.625
292.517
292.429
292.36
292.303
292.256
292.213
292.174
292.137
292.102
292.069
292.04
292.014
291.993
292.829
292.721
292.631
292.561
292.506
292.463
292.428
292.397
292.367
292.336
292.305
292.275
292.249
292.229
293.032
292.929
292.838
292.77
292.718
292.678
292.647
292.619
292.589
292.557
292.523
292.493
292.469
292.45
293.236
293.139
293.047
292.981
292.93
292.893
292.861
292.831
292.797
292.759
292.721
292.692
292.675
292.659
293.436
293.347
293.254
293.189
293.139
293.103
293.07
293.036
292.994
292.948
292.906
292.877
292.872
292.851
293.642
293.557
293.46
293.395
293.342
293.303
293.267
293.228
293.18
293.131
293.086
293.063
293.068
293.046
293.855
293.773
293.674
293.606
293.547
293.502
293.459
293.415
293.364
293.313
293.269
293.251
293.257
293.243
294.071
293.989
293.891
293.813
293.745
293.694
293.647
293.602
293.553
293.506
293.469
293.458
293.46
293.471
291.794
291.707
291.635
291.553
291.472
291.379
291.285
291.182
291.084
290.986
290.897
290.795
290.697
290.615
291.962
291.848
291.758
291.669
291.586
291.497
291.405
291.305
291.206
291.108
291.017
290.935
290.852
290.806
292.081
291.961
291.868
291.778
291.7
291.618
291.535
291.443
291.349
291.254
291.163
291.086
291.012
290.978
292.209
292.088
291.991
291.902
291.827
291.753
291.678
291.595
291.507
291.416
291.327
291.256
291.19
291.16
292.345
292.22
292.121
292.036
291.965
291.899
291.832
291.757
291.677
291.593
291.512
291.446
291.384
291.347
292.5
292.375
292.276
292.195
292.127
292.064
292
291.931
291.858
291.783
291.712
291.65
291.593
291.55
292.667
292.546
292.45
292.372
292.305
292.243
292.18
292.115
292.049
291.982
291.917
291.857
291.803
291.755
292.847
292.736
292.643
292.568
292.499
292.435
292.371
292.307
292.243
292.179
292.118
292.06
292.011
291.965
293.036
292.938
292.846
292.771
292.699
292.631
292.565
292.499
292.434
292.369
292.309
292.253
292.211
292.174
293.234
293.145
293.051
292.973
292.897
292.825
292.754
292.684
292.614
292.547
292.487
292.438
292.41
292.379
293.435
293.351
293.254
293.173
293.091
293.014
292.938
292.862
292.788
292.718
292.66
292.619
292.607
292.576
293.642
293.555
293.445
293.357
293.27
293.191
293.112
293.033
292.957
292.889
292.834
292.803
292.807
292.781
293.851
293.757
293.639
293.545
293.45
293.367
293.285
293.205
293.129
293.065
293.016
292.994
292.999
292.989
294.05
293.943
293.819
293.715
293.618
293.533
293.452
293.375
293.303
293.246
293.206
293.197
293.208
293.214
291.998
291.936
291.872
291.797
291.722
291.642
291.556
291.46
291.358
291.253
291.148
291.029
290.911
290.782
292.175
292.073
291.999
291.917
291.842
291.763
291.677
291.58
291.473
291.362
291.248
291.142
291.032
290.955
292.303
292.186
292.106
292.024
291.953
291.882
291.802
291.71
291.606
291.497
291.384
291.283
291.177
291.109
292.444
292.322
292.232
292.146
292.075
292.005
291.929
291.843
291.743
291.637
291.527
291.429
291.326
291.263
292.567
292.448
292.351
292.266
292.196
292.129
292.057
291.978
291.886
291.789
291.686
291.59
291.491
291.42
292.698
292.582
292.483
292.4
292.328
292.261
292.191
292.117
292.032
291.942
291.846
291.754
291.66
291.585
292.83
292.72
292.623
292.542
292.469
292.402
292.332
292.26
292.18
292.097
292.008
291.919
291.832
291.755
292.976
292.871
292.775
292.695
292.618
292.548
292.475
292.402
292.325
292.245
292.165
292.081
292.004
291.93
293.131
293.03
292.934
292.851
292.769
292.693
292.616
292.541
292.467
292.391
292.317
292.237
292.171
292.106
293.312
293.203
293.095
293.005
292.917
292.833
292.752
292.675
292.602
292.531
292.465
292.394
292.341
292.289
293.491
293.387
293.265
293.159
293.061
292.971
292.887
292.809
292.74
292.674
292.615
292.552
292.514
292.472
293.657
293.546
293.417
293.305
293.199
293.107
293.023
292.947
292.883
292.823
292.771
292.719
292.692
292.655
293.807
293.703
293.572
293.46
293.348
293.249
293.164
293.09
293.031
292.98
292.934
292.893
292.868
292.842
293.942
293.82
293.691
293.581
293.475
293.381
293.299
293.233
293.18
293.135
293.097
293.073
293.056
293.05
292.641
292.624
292.598
292.54
292.482
292.402
292.32
292.227
292.119
292.001
291.87
291.719
291.554
291.356
292.834
292.781
292.746
292.681
292.623
292.542
292.457
292.359
292.245
292.122
291.982
291.84
291.681
291.55
292.999
292.934
292.884
292.813
292.754
292.679
292.597
292.504
292.393
292.272
292.131
291.994
291.837
291.717
293.166
293.084
293.025
292.949
292.886
292.808
292.726
292.634
292.525
292.408
292.27
292.138
291.986
291.87
293.316
293.227
293.161
293.079
293.011
292.933
292.851
292.763
292.658
292.548
292.416
292.288
292.139
292.019
293.457
293.364
293.292
293.205
293.128
293.046
292.961
292.873
292.773
292.669
292.547
292.425
292.284
292.163
293.593
293.496
293.421
293.328
293.245
293.159
293.073
292.986
292.889
292.79
292.675
292.557
292.423
292.3
293.715
293.625
293.544
293.447
293.358
293.267
293.177
293.088
292.995
292.899
292.793
292.68
292.557
292.438
293.816
293.74
293.657
293.557
293.464
293.367
293.275
293.186
293.096
293.004
292.905
292.794
292.685
292.567
293.889
293.822
293.741
293.648
293.557
293.463
293.374
293.288
293.202
293.113
293.02
292.911
292.811
292.698
293.936
293.868
293.794
293.722
293.637
293.548
293.462
293.377
293.297
293.21
293.123
293.017
292.929
292.825
293.973
293.899
293.819
293.76
293.69
293.612
293.537
293.462
293.39
293.31
293.227
293.123
293.041
292.943
294.003
293.933
293.852
293.792
293.73
293.668
293.603
293.539
293.477
293.409
293.337
293.241
293.162
293.061
294
293.935
293.873
293.822
293.768
293.715
293.659
293.606
293.556
293.499
293.439
293.361
293.298
293.199
293.995
294.025
294.028
293.988
293.939
293.86
293.79
293.685
293.586
293.468
293.334
293.182
293.001
292.778
294.187
294.178
294.155
294.109
294.057
293.974
293.897
293.79
293.685
293.564
293.424
293.277
293.107
292.949
294.343
294.315
294.286
294.225
294.174
294.095
294.02
293.917
293.811
293.691
293.549
293.406
293.232
293.092
294.477
294.433
294.397
294.333
294.278
294.197
294.12
294.02
293.914
293.798
293.658
293.52
293.35
293.213
294.587
294.528
294.493
294.428
294.371
294.292
294.215
294.12
294.018
293.906
293.77
293.634
293.466
293.326
294.683
294.615
294.577
294.508
294.448
294.369
294.292
294.2
294.101
293.993
293.863
293.729
293.566
293.419
294.754
294.686
294.642
294.57
294.508
294.43
294.354
294.266
294.172
294.07
293.947
293.817
293.661
293.514
294.812
294.747
294.697
294.624
294.561
294.483
294.408
294.324
294.234
294.135
294.019
293.893
293.744
293.598
294.846
294.787
294.732
294.66
294.598
294.525
294.453
294.373
294.288
294.193
294.082
293.958
293.818
293.675
294.875
294.816
294.757
294.688
294.63
294.56
294.492
294.416
294.335
294.244
294.138
294.018
293.887
293.747
294.882
294.827
294.767
294.706
294.651
294.587
294.522
294.45
294.373
294.284
294.182
294.062
293.941
293.81
294.866
294.819
294.765
294.715
294.666
294.607
294.548
294.479
294.408
294.324
294.228
294.109
293.989
293.858
294.854
294.8
294.753
294.713
294.671
294.62
294.567
294.504
294.439
294.359
294.272
294.159
294.042
293.902
294.796
294.759
294.725
294.694
294.66
294.622
294.581
294.529
294.476
294.407
294.33
294.222
294.113
293.941
296.081
296.081
296.078
296.044
296.002
295.941
295.881
295.793
295.721
295.624
295.53
295.424
295.278
295.107
296.215
296.197
296.175
296.136
296.092
296.028
295.962
295.873
295.795
295.695
295.595
295.485
295.36
295.216
296.315
296.29
296.273
296.233
296.191
296.13
296.066
295.979
295.9
295.8
295.694
295.579
295.441
295.312
296.403
296.37
296.356
296.317
296.276
296.215
296.149
296.064
295.983
295.883
295.776
295.66
295.522
295.396
296.462
296.429
296.419
296.383
296.347
296.29
296.227
296.146
296.065
295.966
295.857
295.738
295.596
295.468
296.509
296.476
296.469
296.436
296.402
296.348
296.287
296.21
296.129
296.032
295.922
295.801
295.655
295.519
296.529
296.5
296.497
296.466
296.436
296.388
296.332
296.261
296.183
296.088
295.979
295.856
295.71
295.569
296.528
296.509
296.509
296.483
296.457
296.414
296.361
296.295
296.217
296.125
296.014
295.89
295.741
295.594
296.495
296.489
296.494
296.476
296.457
296.422
296.374
296.314
296.24
296.149
296.039
295.913
295.764
295.616
296.45
296.451
296.462
296.452
296.439
296.411
296.371
296.319
296.247
296.159
296.047
295.92
295.769
295.615
296.386
296.396
296.411
296.409
296.404
296.382
296.348
296.302
296.234
296.148
296.036
295.905
295.752
295.597
296.293
296.313
296.341
296.35
296.355
296.343
296.314
296.272
296.208
296.125
296.014
295.882
295.726
295.57
296.191
296.22
296.255
296.275
296.288
296.286
296.265
296.227
296.169
296.089
295.98
295.846
295.688
295.518
296.047
296.108
296.155
296.188
296.207
296.215
296.208
296.18
296.133
296.062
295.961
295.824
295.664
295.454
298.638
298.596
298.576
298.544
298.513
298.474
298.443
298.4
298.374
298.333
298.301
298.26
298.187
298.113
298.67
298.636
298.614
298.582
298.55
298.509
298.471
298.423
298.385
298.337
298.297
298.248
298.181
298.099
298.703
298.667
298.653
298.625
298.596
298.558
298.519
298.47
298.428
298.376
298.329
298.27
298.194
298.109
298.729
298.691
298.686
298.661
298.634
298.596
298.555
298.504
298.455
298.397
298.339
298.27
298.19
298.103
298.743
298.71
298.708
298.687
298.663
298.628
298.587
298.537
298.484
298.421
298.354
298.278
298.19
298.103
298.753
298.723
298.724
298.704
298.683
298.65
298.61
298.56
298.504
298.437
298.364
298.28
298.186
298.094
298.744
298.722
298.726
298.711
298.691
298.662
298.624
298.574
298.517
298.447
298.369
298.282
298.181
298.084
298.726
298.71
298.717
298.706
298.69
298.664
298.628
298.58
298.52
298.449
298.366
298.273
298.165
298.059
298.684
298.679
298.69
298.684
298.672
298.651
298.618
298.573
298.513
298.441
298.354
298.257
298.145
298.037
298.638
298.638
298.655
298.654
298.645
298.625
298.594
298.552
298.492
298.42
298.33
298.23
298.114
298
298.571
298.579
298.603
298.609
298.605
298.59
298.561
298.523
298.464
298.393
298.303
298.2
298.083
297.965
298.485
298.501
298.537
298.551
298.554
298.546
298.521
298.487
298.431
298.363
298.272
298.168
298.045
297.924
298.38
298.415
298.455
298.476
298.489
298.489
298.47
298.441
298.388
298.323
298.231
298.122
298
297.862
298.248
298.306
298.358
298.393
298.413
298.424
298.415
298.395
298.349
298.293
298.207
298.096
297.96
297.793
300.957
300.895
300.874
300.845
300.826
300.811
300.807
300.808
300.827
300.843
300.874
300.897
300.894
300.9
300.943
300.897
300.88
300.854
300.839
300.824
300.818
300.813
300.821
300.827
300.842
300.85
300.841
300.827
300.943
300.901
300.893
300.877
300.868
300.857
300.85
300.842
300.841
300.838
300.839
300.835
300.821
300.799
300.936
300.902
300.901
300.893
300.889
300.88
300.871
300.858
300.847
300.833
300.822
300.805
300.782
300.755
300.922
300.9
300.906
300.905
300.906
300.901
300.893
300.877
300.858
300.834
300.811
300.783
300.751
300.72
300.908
300.896
300.908
300.911
300.916
300.914
300.906
300.888
300.864
300.832
300.797
300.758
300.717
300.681
300.885
300.884
300.904
300.911
300.92
300.921
300.913
300.896
300.868
300.83
300.785
300.737
300.689
300.65
300.867
300.873
300.896
300.909
300.921
300.924
300.915
300.897
300.865
300.823
300.771
300.716
300.661
300.616
300.836
300.85
300.879
300.898
300.914
300.919
300.911
300.893
300.859
300.815
300.76
300.702
300.643
300.595
300.812
300.829
300.861
300.884
300.901
300.908
300.901
300.883
300.848
300.804
300.747
300.687
300.624
300.571
300.778
300.799
300.836
300.862
300.882
300.893
300.887
300.871
300.837
300.795
300.739
300.679
300.616
300.561
300.742
300.764
300.806
300.838
300.861
300.875
300.872
300.859
300.826
300.787
300.734
300.674
300.611
300.55
300.694
300.728
300.769
300.804
300.832
300.85
300.85
300.844
300.813
300.779
300.726
300.665
300.603
300.525
300.632
300.678
300.729
300.774
300.805
300.828
300.831
300.831
300.806
300.781
300.732
300.674
300.607
300.524
302.746
302.695
302.682
302.67
302.674
302.69
302.719
302.759
302.821
302.889
302.972
303.048
303.096
303.156
302.73
302.698
302.695
302.691
302.701
302.719
302.747
302.782
302.83
302.884
302.948
303.005
303.042
303.077
302.723
302.703
302.712
302.722
302.742
302.764
302.789
302.814
302.846
302.882
302.924
302.966
302.997
303.025
302.711
302.704
302.725
302.744
302.773
302.797
302.818
302.833
302.849
302.867
302.889
302.912
302.931
302.95
302.696
302.704
302.736
302.764
302.798
302.824
302.842
302.85
302.852
302.853
302.856
302.863
302.872
302.884
302.686
302.704
302.743
302.777
302.813
302.839
302.855
302.856
302.848
302.835
302.821
302.812
302.809
302.814
302.676
302.701
302.745
302.784
302.821
302.848
302.861
302.858
302.842
302.818
302.792
302.77
302.756
302.755
302.671
302.702
302.748
302.788
302.824
302.85
302.86
302.853
302.832
302.801
302.766
302.735
302.712
302.707
302.669
302.702
302.749
302.789
302.824
302.849
302.856
302.847
302.823
302.789
302.75
302.715
302.689
302.682
302.677
302.708
302.753
302.792
302.825
302.846
302.851
302.841
302.817
302.782
302.742
302.705
302.676
302.667
302.687
302.715
302.758
302.794
302.825
302.845
302.847
302.84
302.816
302.785
302.747
302.714
302.687
302.678
302.701
302.726
302.765
302.798
302.827
302.846
302.848
302.843
302.823
302.798
302.765
302.735
302.712
302.701
302.716
302.741
302.772
302.801
302.828
302.847
302.85
302.851
302.836
302.817
302.789
302.763
302.74
302.724
302.741
302.752
302.781
302.813
302.839
302.859
302.863
302.869
302.858
302.849
302.829
302.81
302.789
302.782
303.945
303.92
303.915
303.918
303.936
303.969
304.013
304.07
304.142
304.224
304.315
304.411
304.5
304.6
303.964
303.95
303.955
303.963
303.987
304.02
304.064
304.115
304.178
304.248
304.328
304.411
304.488
304.572
303.977
303.978
303.995
304.015
304.047
304.082
304.122
304.165
304.213
304.267
304.329
304.397
304.463
304.532
303.996
304.008
304.037
304.065
304.103
304.14
304.175
304.209
304.243
304.28
304.323
304.372
304.424
304.481
304.012
304.037
304.076
304.114
304.156
304.193
304.224
304.247
304.268
304.289
304.313
304.345
304.384
304.429
304.034
304.068
304.114
304.157
304.201
304.236
304.261
304.275
304.282
304.288
304.296
304.312
304.336
304.372
304.056
304.097
304.148
304.194
304.238
304.271
304.29
304.295
304.292
304.285
304.28
304.283
304.296
304.324
304.086
304.129
304.182
304.227
304.268
304.297
304.31
304.308
304.296
304.28
304.265
304.26
304.263
304.285
304.12
304.164
304.215
304.257
304.294
304.318
304.326
304.319
304.302
304.28
304.259
304.248
304.247
304.266
304.162
304.204
304.251
304.288
304.32
304.337
304.34
304.332
304.311
304.286
304.262
304.248
304.243
304.26
304.211
304.247
304.289
304.32
304.345
304.358
304.357
304.348
304.328
304.304
304.28
304.267
304.263
304.28
304.261
304.295
304.331
304.356
304.374
304.382
304.379
304.372
304.353
304.333
304.312
304.302
304.3
304.317
304.315
304.343
304.371
304.39
304.403
304.41
304.406
304.401
304.386
304.371
304.355
304.349
304.348
304.365
304.381
304.392
304.417
304.434
304.443
304.448
304.443
304.442
304.431
304.424
304.414
304.412
304.411
304.446
304.741
304.731
304.73
304.734
304.751
304.781
304.824
304.875
304.939
305.011
305.094
305.184
305.275
305.385
304.787
304.778
304.782
304.787
304.804
304.833
304.874
304.923
304.984
305.053
305.131
305.218
305.306
305.406
304.824
304.825
304.835
304.847
304.867
304.896
304.934
304.978
305.031
305.092
305.162
305.239
305.321
305.411
304.877
304.881
304.898
304.914
304.936
304.965
304.999
305.038
305.083
305.137
305.197
305.264
305.334
305.413
304.926
304.941
304.962
304.983
305.008
305.035
305.066
305.098
305.135
305.178
305.227
305.282
305.343
305.41
304.983
305.004
305.03
305.053
305.078
305.103
305.128
305.153
305.181
305.213
305.25
305.293
305.342
305.399
305.039
305.067
305.096
305.12
305.144
305.165
305.184
305.202
305.22
305.242
305.268
305.3
305.34
305.387
305.099
305.13
305.16
305.184
305.205
305.221
305.233
305.243
305.252
305.265
305.28
305.304
305.335
305.374
305.161
305.194
305.222
305.244
305.262
305.272
305.277
305.28
305.281
305.286
305.294
305.31
305.334
305.368
305.226
305.257
305.284
305.301
305.315
305.32
305.318
305.314
305.309
305.308
305.309
305.32
305.338
305.368
305.292
305.32
305.343
305.356
305.365
305.365
305.358
305.349
305.339
305.334
305.332
305.34
305.354
305.381
305.358
305.384
305.404
305.411
305.415
305.41
305.4
305.388
305.374
305.367
305.364
305.371
305.38
305.404
305.424
305.445
305.46
305.462
305.463
305.456
305.443
305.431
305.415
305.405
305.401
305.408
305.418
305.443
305.498
305.508
305.521
305.52
305.516
305.507
305.491
305.478
305.463
305.453
305.45
305.459
305.467
305.502
305.35
305.342
305.338
305.338
305.345
305.362
305.391
305.427
305.474
305.529
305.594
305.668
305.746
305.847
305.4
305.389
305.385
305.382
305.387
305.402
305.428
305.465
305.512
305.57
305.637
305.714
305.794
305.886
305.444
305.436
305.434
305.433
305.438
305.451
305.476
305.51
305.556
305.611
305.677
305.751
305.83
305.92
305.505
305.498
305.498
305.496
305.5
305.512
305.535
305.568
305.611
305.666
305.73
305.801
305.875
305.958
305.568
305.564
305.564
305.564
305.568
305.579
305.6
305.631
305.672
305.723
305.783
305.849
305.92
305.995
305.638
305.637
305.638
305.638
305.641
305.65
305.669
305.696
305.733
305.78
305.835
305.895
305.96
306.027
305.707
305.71
305.711
305.712
305.714
305.721
305.737
305.76
305.793
305.834
305.883
305.936
305.996
306.056
305.777
305.783
305.784
305.785
305.786
305.79
305.802
305.821
305.847
305.882
305.924
305.971
306.024
306.077
305.846
305.854
305.856
305.855
305.855
305.857
305.863
305.877
305.898
305.926
305.961
306.001
306.049
306.096
305.913
305.923
305.924
305.922
305.921
305.918
305.92
305.929
305.943
305.965
305.994
306.028
306.069
306.112
305.979
305.988
305.988
305.985
305.982
305.976
305.974
305.978
305.986
306.002
306.025
306.053
306.089
306.128
306.041
306.051
306.05
306.045
306.038
306.03
306.023
306.023
306.027
306.038
306.055
306.08
306.11
306.146
306.102
306.107
306.106
306.099
306.092
306.082
306.072
306.069
306.069
306.076
306.087
306.109
306.134
306.171
306.164
306.165
306.162
306.152
306.143
306.131
306.119
306.111
306.108
306.112
306.12
306.138
306.162
306.197
305.912
305.904
305.896
305.891
305.89
305.893
305.905
305.925
305.952
305.987
306.029
306.08
306.136
306.21
305.95
305.939
305.929
305.92
305.917
305.919
305.93
305.95
305.98
306.019
306.067
306.123
306.182
306.251
305.985
305.971
305.961
305.952
305.949
305.951
305.962
305.983
306.013
306.052
306.1
306.157
306.218
306.288
306.033
306.019
306.008
305.998
305.993
305.994
306.004
306.025
306.056
306.096
306.146
306.204
306.265
306.334
306.082
306.068
306.057
306.047
306.042
306.043
306.054
306.075
306.106
306.147
306.197
306.254
306.315
306.382
306.139
306.125
306.113
306.102
306.097
306.098
306.108
306.129
306.16
306.201
306.25
306.306
306.366
306.43
306.195
306.182
306.17
306.16
306.155
306.155
306.166
306.186
306.217
306.256
306.305
306.359
306.418
306.477
306.252
306.241
306.229
306.219
306.214
306.214
306.224
306.243
306.272
306.31
306.356
306.407
306.464
306.52
306.308
306.3
306.288
306.278
306.272
306.272
306.28
306.298
306.325
306.36
306.404
306.45
306.505
306.557
306.362
306.356
306.344
306.334
306.328
306.327
306.334
306.35
306.374
306.405
306.446
306.489
306.541
306.589
306.413
306.409
306.397
306.388
306.38
306.379
306.384
306.398
306.418
306.446
306.483
306.522
306.57
306.616
306.461
306.459
306.446
306.437
306.429
306.426
306.43
306.44
306.458
306.482
306.514
306.55
306.595
306.639
306.508
306.503
306.492
306.483
306.475
306.471
306.473
306.482
306.496
306.517
306.544
306.577
306.617
306.662
306.552
306.547
306.535
306.525
306.517
306.512
306.512
306.518
306.528
306.544
306.567
306.595
306.633
306.675
306.438
306.432
306.424
306.415
306.408
306.404
306.404
306.407
306.417
306.431
306.452
306.477
306.507
306.545
306.462
306.452
306.442
306.432
306.424
306.42
306.42
306.424
306.436
306.455
306.479
306.51
306.543
306.582
306.482
306.47
306.458
306.448
306.442
306.438
306.44
306.447
306.461
306.481
306.507
306.54
306.575
306.618
306.509
306.495
306.483
306.473
306.466
306.463
306.465
306.474
306.49
306.512
306.541
306.576
306.614
306.659
306.537
306.522
306.51
306.5
306.494
306.492
306.496
306.507
306.525
306.549
306.58
306.617
306.657
306.703
306.571
306.555
306.543
306.532
306.527
306.525
306.531
306.543
306.562
306.588
306.621
306.66
306.702
306.749
306.606
306.59
306.578
306.568
306.562
306.562
306.569
306.582
306.603
306.631
306.666
306.706
306.75
306.796
306.642
306.628
306.615
306.606
306.6
306.601
306.609
306.623
306.645
306.674
306.71
306.751
306.797
306.841
306.68
306.667
306.654
306.645
306.64
306.642
306.65
306.665
306.688
306.717
306.754
306.794
306.841
306.885
306.718
306.706
306.693
306.684
306.68
306.682
306.69
306.705
306.729
306.758
306.796
306.835
306.883
306.926
306.755
306.745
306.732
306.723
306.719
306.721
306.73
306.745
306.768
306.797
306.835
306.873
306.92
306.961
306.791
306.783
306.769
306.761
306.757
306.759
306.768
306.782
306.805
306.832
306.869
306.906
306.952
306.994
306.828
306.819
306.806
306.798
306.795
306.797
306.805
306.819
306.84
306.868
306.902
306.938
306.983
307.024
306.861
306.854
306.841
306.834
306.83
306.832
306.839
306.852
306.871
306.895
306.926
306.959
307.002
307.044
306.865
306.856
306.848
306.839
306.83
306.821