/*--------------------------------*- C++ -*----------------------------------*\
| =========                 |                                                 |
| \\      /  F ield         | OpenFOAM: The Open Source CFD Toolbox           |
|  \\    /   O peration     | Version:  v2106                                 |
|   \\  /    A nd           | Website:  www.openfoam.com                      |
|    \\/     M anipulation  |                                                 |
\*---------------------------------------------------------------------------*/
FoamFile
{
    version     2.0;
    format      ascii;
    arch        "LSB;label=32;scalar=64";
    class       volVectorField;
    location    "0.000217";
    object      U;
}
// * * * * * * * * * * * * * * * * * * * * * * * * * * * * * * * * * * * * * //

dimensions      [0 1 -1 0 0 0 0];

internalField   nonuniform List<vector> 
18109
(
(12.8558 2.59889 -88.1105)
(13.5223 3.11031 -88.559)
(13.7137 3.7074 -89.1453)
(14.1063 4.17408 -89.6396)
(14.2354 4.52143 -90.2154)
(14.4348 4.67026 -90.7538)
(14.564 4.66348 -91.2552)
(13.2725 1.67482 -88.0382)
(13.7381 2.4002 -88.408)
(13.8912 3.04403 -89.0009)
(14.259 3.56439 -89.4606)
(14.3693 3.92663 -89.973)
(14.5325 4.07866 -90.4101)
(14.586 4.08481 -90.7868)
(13.9991 1.53702 -87.5698)
(14.2896 2.13081 -87.9919)
(14.2993 2.70712 -88.5381)
(14.5428 3.21482 -88.9849)
(14.5408 3.55733 -89.4431)
(14.6039 3.65786 -89.8715)
(14.5124 3.62094 -90.2325)
(14.7433 1.36995 -87.0397)
(14.8585 1.87049 -87.5564)
(14.71 2.39067 -88.0604)
(14.7829 2.86559 -88.5104)
(14.656 3.1861 -88.9043)
(14.6111 3.27048 -89.3114)
(14.441 3.23816 -89.6424)
(15.2935 1.43683 -86.435)
(15.256 1.85145 -86.9981)
(14.9831 2.30209 -87.4529)
(14.895 2.70241 -87.911)
(14.6856 2.96872 -88.2843)
(14.5434 2.99081 -88.6923)
(14.3338 2.94243 -89.0235)
(15.561 1.5799 -85.7859)
(15.4346 1.92422 -86.374)
(15.1083 2.325 -86.7941)
(14.9247 2.60799 -87.2639)
(14.6934 2.78636 -87.6544)
(14.4886 2.75629 -88.0562)
(14.2398 2.69414 -88.3988)
(15.591 1.84858 -85.1663)
(15.384 2.10253 -85.7267)
(15.1337 2.44888 -86.1319)
(14.9363 2.59766 -86.5859)
(14.6924 2.70721 -86.9835)
(14.4397 2.6356 -87.379)
(14.1709 2.54804 -87.7483)
(15.6169 2.11424 -84.5424)
(15.3396 2.20951 -84.9911)
(15.1726 2.44259 -85.4283)
(14.9269 2.52462 -85.8782)
(14.6486 2.60082 -86.3005)
(14.3614 2.51323 -86.697)
(14.0801 2.42641 -87.0856)
(11.6408 3.41866 -87.9559)
(12.3239 3.91212 -88.4295)
(12.5327 4.53709 -89.0352)
(12.9855 5.02718 -89.5588)
(13.1876 5.40142 -90.1753)
(13.4964 5.61051 -90.7105)
(13.7101 5.64285 -91.2903)
(13.9538 5.64283 -91.7864)
(14.2439 5.78446 -92.0738)
(14.5745 5.63379 -92.2511)
(14.7665 5.2455 -92.4939)
(14.9247 4.47703 -92.4875)
(14.9276 3.49043 -92.5321)
(15.0397 2.53401 -92.5284)
(12.0061 2.58117 -87.8511)
(12.5312 3.27896 -88.2476)
(12.7285 3.93332 -88.8586)
(13.1631 4.46292 -89.331)
(13.3516 4.85159 -89.873)
(13.6112 5.06999 -90.318)
(13.7536 5.13194 -90.7809)
(13.8658 5.17637 -91.1997)
(14.05 5.29071 -91.5114)
(14.2986 5.20854 -91.7851)
(14.4969 4.91276 -92.0735)
(14.7057 4.29495 -92.1464)
(14.5394 3.47795 -92.1047)
(14.659 2.73373 -92.168)
(12.6717 2.49063 -87.3716)
(13.0411 3.06611 -87.7942)
(13.1112 3.65255 -88.3541)
(13.4266 4.16402 -88.8085)
(13.4968 4.53498 -89.2966)
(13.6568 4.71451 -89.7365)
(13.6684 4.74484 -90.1871)
(13.7154 4.74832 -90.5978)
(13.7857 4.80679 -90.9399)
(13.9556 4.78679 -91.2062)
(14.1177 4.62531 -91.4433)
(14.2893 4.2486 -91.5659)
(14.1663 3.6828 -91.562)
(14.2345 3.08863 -91.6382)
(13.3968 2.37765 -86.7846)
(13.5967 2.86548 -87.2962)
(13.5095 3.39033 -87.8228)
(13.6595 3.86501 -88.2885)
(13.608 4.21112 -88.7184)
(13.6732 4.36781 -89.1424)
(13.621 4.41455 -89.5496)
(13.5992 4.4094 -89.936)
(13.5484 4.43206 -90.2701)
(13.6041 4.4158 -90.5489)
(13.6553 4.30683 -90.7939)
(13.7525 4.04688 -90.9469)
(13.6638 3.65653 -90.9796)
(13.6886 3.21395 -91.0486)
(13.9544 2.51414 -86.1035)
(13.9885 2.93091 -86.6822)
(13.7661 3.38137 -87.1814)
(13.7543 3.77521 -87.6669)
(13.6372 4.05896 -88.0711)
(13.6184 4.14387 -88.4801)
(13.5316 4.17154 -88.8621)
(13.4694 4.15586 -89.2301)
(13.3618 4.14368 -89.5555)
(13.3303 4.10785 -89.8484)
(13.3004 4.05084 -90.0844)
(13.33 3.91773 -90.2577)
(13.2519 3.69723 -90.3301)
(13.2577 3.40519 -90.4298)
(14.2545 2.7689 -85.3921)
(14.1778 3.10696 -86.0214)
(13.8973 3.48118 -86.5104)
(13.7858 3.7332 -87.0156)
(13.6574 3.92048 -87.4274)
(13.5772 3.94735 -87.8122)
(13.4543 3.95307 -88.167)
(13.3502 3.93608 -88.5213)
(13.2161 3.92577 -88.849)
(13.1294 3.89728 -89.1514)
(13.0469 3.85296 -89.3926)
(13.0248 3.78534 -89.5927)
(12.9409 3.65228 -89.7015)
(12.9098 3.46391 -89.8078)
(14.3328 3.17097 -84.7624)
(14.1528 3.40287 -85.3831)
(13.9377 3.69391 -85.8688)
(13.7994 3.79379 -86.351)
(13.6495 3.89995 -86.7582)
(13.5204 3.87032 -87.1266)
(13.3826 3.84111 -87.4716)
(13.2602 3.80899 -87.8191)
(13.1303 3.79448 -88.1595)
(13.0313 3.76043 -88.4765)
(12.9363 3.70678 -88.7294)
(12.8819 3.67515 -88.9346)
(12.8052 3.61249 -89.0673)
(12.6938 3.56196 -89.1666)
(14.3814 3.56136 -84.1668)
(14.1274 3.62631 -84.6834)
(13.9907 3.78477 -85.1851)
(13.7906 3.79764 -85.652)
(13.6078 3.84791 -86.0777)
(13.441 3.78819 -86.4585)
(13.305 3.75861 -86.8128)
(13.1658 3.73932 -87.1507)
(13.0541 3.73734 -87.4994)
(12.9435 3.71849 -87.8284)
(12.8476 3.66126 -88.1024)
(12.7443 3.64712 -88.3125)
(12.6529 3.62662 -88.4586)
(12.537 3.63856 -88.5161)
(14.4068 3.83791 -83.5361)
(14.1119 3.84587 -83.9836)
(13.9874 3.93555 -84.4953)
(13.7319 3.91387 -84.9449)
(13.5381 3.91688 -85.3874)
(13.3683 3.84088 -85.7903)
(13.2434 3.80405 -86.1732)
(13.0956 3.77487 -86.5123)
(12.9947 3.76105 -86.8666)
(12.8822 3.72951 -87.2055)
(12.789 3.68363 -87.4979)
(12.6487 3.67854 -87.6954)
(12.5322 3.65433 -87.8256)
(12.4042 3.63668 -87.8571)
(14.4378 4.07095 -82.9327)
(14.1016 4.00806 -83.3039)
(13.959 4.00225 -83.8028)
(13.6614 3.95745 -84.2319)
(13.4757 3.93831 -84.6906)
(13.2672 3.87463 -85.1146)
(13.1493 3.85553 -85.5375)
(12.9749 3.84169 -85.8921)
(12.885 3.83337 -86.2585)
(12.7766 3.81651 -86.6066)
(12.7006 3.79873 -86.9032)
(12.5515 3.81997 -87.0684)
(12.4274 3.78908 -87.1502)
(12.2893 3.7545 -87.1505)
(14.2148 4.2489 -82.3485)
(13.8729 4.18895 -82.6943)
(13.7884 4.18151 -83.1611)
(13.5358 4.16021 -83.5737)
(13.4198 4.13274 -84.029)
(13.22 4.0788 -84.4676)
(13.1187 4.04674 -84.9102)
(12.9174 3.99982 -85.2644)
(12.8216 3.94244 -85.6417)
(12.6962 3.88542 -85.9946)
(12.6009 3.86884 -86.2806)
(12.4356 3.89279 -86.3961)
(12.3231 3.85081 -86.4042)
(12.1859 3.80665 -86.3568)
(14.0149 4.37622 -81.7069)
(13.6698 4.26138 -82.0316)
(13.6176 4.19806 -82.4745)
(13.3792 4.1904 -82.8758)
(13.2923 4.17568 -83.332)
(13.114 4.17272 -83.7875)
(13.0277 4.1693 -84.2428)
(12.8326 4.14032 -84.6131)
(12.7587 4.08839 -85.0141)
(12.6238 4.04264 -85.3727)
(12.5054 4.04891 -85.6441)
(12.3241 4.05838 -85.7153)
(12.2485 4.02485 -85.6486)
(12.1206 4.00007 -85.5508)
(13.7982 4.48723 -81.1336)
(13.4727 4.43836 -81.4031)
(13.436 4.42723 -81.8099)
(13.2259 4.45437 -82.2109)
(13.1661 4.40849 -82.6666)
(13.05 4.40172 -83.1285)
(12.9909 4.36335 -83.5634)
(12.8291 4.27769 -83.9485)
(12.7321 4.17464 -84.3523)
(12.5773 4.10811 -84.697)
(12.445 4.1109 -84.9519)
(12.262 4.09894 -85.0131)
(12.1997 4.08169 -84.9213)
(12.0906 4.03289 -84.8026)
(13.827 4.57437 -80.6223)
(13.5578 4.59998 -80.759)
(13.341 4.49424 -81.0432)
(13.0984 4.48351 -81.4462)
(12.9758 4.40481 -81.928)
(12.8747 4.40252 -82.4018)
(12.7935 4.40565 -82.8493)
(12.6733 4.39698 -83.282)
(12.5872 4.34011 -83.6988)
(12.4565 4.28715 -84.038)
(12.3365 4.33613 -84.2996)
(12.1523 4.34757 -84.4098)
(12.0052 4.33394 -84.379)
(11.8983 4.2349 -84.327)
(12.3156 2.90168 -88.6225)
(11.086 3.07285 -88.4079)
(9.0485 3.60478 -87.8335)
(5.68792 4.09246 -87.4282)
(0.799655 6.0783 -86.8405)
(-6.63677 9.6593 -87.1242)
(11.1373 3.6352 -88.4671)
(9.93971 3.76637 -88.354)
(7.93823 4.25231 -88.049)
(4.66572 4.66167 -87.7307)
(-0.207681 6.49797 -87.249)
(-7.62798 10.0549 -87.4238)
(11.8163 3.9952 -88.8621)
(10.5219 4.04457 -89.0453)
(8.14448 4.5505 -88.908)
(4.20545 5.32599 -88.9685)
(-1.72704 7.47152 -88.1415)
(-11.0339 10.9769 -87.9609)
(11.9204 4.66234 -89.4382)
(10.4591 4.76573 -89.6613)
(7.84169 5.1599 -89.4385)
(3.56485 6.02846 -89.8031)
(-3.00628 8.12872 -88.7176)
(-13.9349 11.1687 -87.3905)
(12.4043 5.20215 -90.0499)
(10.972 5.48494 -90.3741)
(8.30917 5.95015 -90.1134)
(3.76203 6.9007 -90.6078)
(-3.67187 8.86805 -89.1933)
(-16.3368 11.03 -86.2615)
(12.6485 5.66993 -90.7875)
(11.322 6.1256 -91.3143)
(8.77428 6.83022 -91.0144)
(4.02956 7.73501 -91.3706)
(-4.01387 9.64482 -89.3355)
(-18.0702 10.6642 -84.8239)
(13.0558 6.01758 -91.4014)
(11.9485 6.67712 -92.0181)
(9.55703 7.58339 -91.7456)
(4.60444 8.32648 -91.7639)
(-4.01458 10.1827 -89.2394)
(-18.9275 10.0303 -83.2807)
(13.443 6.25911 -91.946)
(12.5505 7.06122 -92.6102)
(10.319 8.05477 -92.4219)
(5.33295 8.50597 -92.0093)
(-3.66375 10.0276 -88.8804)
(-19.092 8.96462 -81.8282)
(13.9064 6.38549 -92.2141)
(13.2021 7.17628 -92.8483)
(11.1249 8.05646 -92.8649)
(6.30129 8.18395 -91.9816)
(-2.66336 9.30174 -88.4987)
(-17.4668 7.2218 -81.0735)
(14.2984 6.44978 -92.4441)
(13.7881 7.03321 -93.069)
(11.9737 7.62854 -93.1601)
(7.51598 7.31244 -92.2069)
(-1.05915 7.75035 -88.6067)
(-15.122 4.61519 -81.7998)
(14.6089 6.08284 -92.5731)
(14.2213 6.30827 -93.0037)
(12.5832 6.46112 -93.0067)
(8.57839 5.70299 -91.9853)
(0.791218 5.53411 -88.8085)
(-11.6839 2.11246 -83.3)
(14.7195 5.38985 -92.8476)
(14.6217 5.15984 -93.096)
(13.4284 5.04823 -93.2629)
(10.2465 4.0845 -92.407)
(3.53285 3.24849 -90.0169)
(-7.19677 -0.437011 -85.5254)
(14.8976 4.34003 -92.7901)
(14.9124 3.73495 -92.9501)
(13.9429 3.20192 -93.1161)
(11.4407 1.89516 -92.4292)
(6.02445 0.249859 -90.8263)
(-2.84917 -3.47326 -87.8751)
(15.2566 3.16869 -92.8811)
(15.433 2.44278 -92.9504)
(14.7862 1.79446 -93.2327)
(12.8737 0.622891 -92.8817)
(8.72186 -1.46889 -92.1355)
(1.67534 -5.45034 -90.3446)
(14.8702 2.12876 -92.7493)
(15.1355 1.53734 -92.7625)
(14.6153 0.706891 -92.9819)
(13.1644 -0.887778 -92.5459)
(10.0569 -3.7317 -92.1514)
(4.74635 -8.36509 -92.8777)
(14.846 2.30316 -92.6086)
(15.1316 1.85489 -92.6186)
(14.6106 0.78397 -92.9414)
(13.7479 -1.61811 -92.9479)
(11.2292 -5.2716 -93.2114)
(7.33513 -11.0251 -94.6136)
(14.3022 2.29586 -92.2729)
(14.6746 1.87618 -92.2748)
(14.3881 0.789529 -92.5275)
(13.8998 -1.67437 -92.6128)
(11.8852 -5.69297 -93.0273)
(8.64774 -12.5472 -94.5216)
(13.8939 2.72714 -91.7206)
(14.1532 2.19626 -91.6752)
(13.8651 1.00569 -91.9914)
(13.4816 -1.5373 -92.2326)
(11.7086 -5.82383 -92.8338)
(8.84305 -13.3521 -94.2813)
(13.3483 2.91666 -91.1197)
(13.5358 2.36587 -91.0623)
(13.2826 1.24168 -91.4699)
(12.9189 -1.1482 -91.7863)
(11.7432 -5.51389 -92.5914)
(9.23363 -13.519 -93.5587)
(12.964 3.17296 -90.5029)
(13.0441 2.60934 -90.4542)
(12.8159 1.56874 -90.9059)
(12.4973 -0.672816 -91.2689)
(11.6799 -5.04493 -91.9186)
(9.51304 -13.5697 -92.3089)
(12.6747 3.30362 -89.8748)
(12.7027 2.814 -89.8425)
(12.5373 1.8976 -90.2233)
(12.4006 -0.128147 -90.5751)
(11.8294 -4.33688 -91.0283)
(10.3374 -13.0436 -90.5165)
(12.5305 3.40806 -89.2215)
(12.5512 2.98354 -89.1863)
(12.4645 2.15229 -89.3981)
(12.5475 0.353552 -89.6736)
(12.0784 -3.48754 -89.8665)
(11.3382 -11.9709 -88.566)
(12.4711 3.48793 -88.543)
(12.4796 3.13287 -88.489)
(12.4952 2.44262 -88.4935)
(12.5652 0.958929 -88.6673)
(12.275 -2.35776 -88.5765)
(12.3125 -10.0475 -87.0537)
(12.4041 3.50826 -87.8268)
(12.368 3.25383 -87.7092)
(12.4532 2.78841 -87.531)
(12.5676 1.68075 -87.5957)
(12.5843 -1.05959 -87.2364)
(13.0798 -7.70768 -85.7854)
(12.3254 3.62195 -87.0639)
(12.2711 3.46336 -86.8495)
(12.395 3.20436 -86.5553)
(12.5513 2.4233 -86.408)
(12.8111 0.343397 -85.9283)
(13.3705 -5.0704 -84.7263)
(12.2849 3.69836 -86.2217)
(12.2061 3.64227 -85.9245)
(12.3425 3.56419 -85.5437)
(12.5421 3.09763 -85.1569)
(12.8427 1.70628 -84.6623)
(13.5825 -2.35916 -83.811)
(12.2662 3.98256 -85.3945)
(12.199 3.99945 -85.0559)
(12.3256 4.06271 -84.643)
(12.5055 3.8716 -84.146)
(12.7906 3.01066 -83.6251)
(13.6306 0.160811 -83.1007)
(12.2964 4.06737 -84.628)
(12.168 4.17061 -84.2692)
(12.27 4.30892 -83.7852)
(12.3464 4.34655 -83.22)
(12.5966 3.92712 -82.6539)
(13.3688 2.20617 -82.4961)
(12.0517 4.37087 -84.2349)
(11.9065 4.55136 -83.9226)
(11.9911 4.7161 -83.3949)
(12.0118 4.8394 -82.7836)
(12.2635 4.66653 -82.2246)
(13.1093 3.717 -82.0893)
(12.1442 4.33366 -83.9934)
(12.1046 4.54387 -83.6203)
(12.1206 4.73205 -83.0455)
(12.0902 4.93602 -82.3696)
(12.1962 5.0302 -81.6983)
(13.1216 4.70662 -81.3469)
(12.1184 4.48378 -83.9232)
(12.044 4.65371 -83.4466)
(12.0186 4.84971 -82.8425)
(11.9614 5.07152 -82.124)
(12.118 5.28305 -81.3347)
(13.3131 5.2853 -80.7352)
(12.2322 4.46408 -83.8163)
(12.1634 4.63787 -83.2299)
(12.1157 4.82272 -82.5571)
(12.0765 5.09012 -81.8208)
(12.3621 5.37207 -81.0007)
(13.871 5.54469 -80.413)
(12.2562 4.37549 -83.5906)
(12.1395 4.5771 -82.9228)
(12.1057 4.72371 -82.1832)
(12.1918 5.03649 -81.4228)
(12.6089 5.37756 -80.5726)
(14.3479 5.7097 -80.0784)
(12.3408 4.26449 -83.307)
(12.2358 4.4636 -82.5771)
(12.1807 4.61244 -81.7735)
(12.3011 4.94289 -80.9584)
(12.7334 5.31597 -80.0526)
(14.5853 5.7832 -79.6662)
(12.4335 4.33379 -82.937)
(12.3069 4.49373 -82.1294)
(12.2205 4.65432 -81.2834)
(12.3483 4.95061 -80.3982)
(12.7323 5.38643 -79.4451)
(14.6634 5.94727 -79.0873)
(12.5285 4.45319 -82.4962)
(12.4265 4.56788 -81.6235)
(12.2819 4.77435 -80.743)
(12.3462 4.992 -79.7768)
(12.6449 5.42903 -78.778)
(14.6682 6.02369 -78.3427)
(12.6136 4.58487 -82.0304)
(12.4953 4.66795 -81.0861)
(12.2805 4.91789 -80.1668)
(12.2348 5.07131 -79.1454)
(12.4093 5.52565 -78.1272)
(14.4358 6.19809 -77.484)
(12.7432 4.65383 -81.5746)
(12.6135 4.71377 -80.5707)
(12.3544 4.97328 -79.5815)
(12.2307 5.10819 -78.4999)
(12.2481 5.62175 -77.4509)
(14.1766 6.47844 -76.5245)
(12.8369 4.7407 -81.1351)
(12.6911 4.81843 -80.1149)
(12.434 5.11499 -79.077)
(12.316 5.25238 -77.9278)
(12.2232 5.81088 -76.8031)
(14.0541 6.7849 -75.5031)
(12.98 4.89919 -80.7503)
(12.8237 4.98643 -79.7715)
(12.5424 5.31693 -78.7264)
(12.443 5.47432 -77.5174)
(12.2243 6.05305 -76.3246)
(13.8966 7.12392 -74.7104)
(13.1595 4.94498 -80.411)
(13.0235 5.02598 -79.5151)
(12.7735 5.38153 -78.5029)
(12.7161 5.59093 -77.2921)
(12.3846 6.15026 -76.089)
(13.8137 7.30861 -74.3835)
(13.4006 4.94508 -80.2598)
(13.3376 4.97089 -79.4639)
(13.168 5.31007 -78.4664)
(13.1729 5.55562 -77.2677)
(12.7169 6.04928 -76.1015)
(13.851 7.24513 -74.4138)
(13.4693 4.75337 -80.278)
(13.572 4.88925 -79.6277)
(13.514 5.16863 -78.6076)
(13.6315 5.51727 -77.4477)
(13.2286 5.92524 -76.2252)
(14.1151 7.30499 -74.732)
(15.0318 0.99048 -86.5246)
(14.7366 0.537789 -86.0554)
(14.8109 0.316325 -85.2376)
(13.9926 0.957668 -84.0223)
(12.3776 4.18552 -82.1718)
(8.21961 11.3489 -78.452)
(14.0926 0.926262 -87.2168)
(13.6346 0.444522 -86.7633)
(13.2221 0.179181 -85.938)
(11.8957 1.02612 -84.9963)
(9.73187 4.39103 -83.3515)
(4.78028 10.8218 -80.0887)
(13.1329 0.926078 -87.9533)
(12.4156 0.613921 -87.5749)
(11.4805 0.218797 -87.0259)
(9.70898 1.04391 -86.4201)
(7.05422 4.20001 -85.2459)
(1.75121 9.96246 -82.8394)
(12.2281 1.85455 -88.1202)
(11.158 1.94088 -87.7127)
(9.62541 1.91147 -87.1886)
(7.25484 3.01694 -86.6629)
(3.80607 5.97771 -85.9215)
(-2.22089 10.6279 -85.257)
(13.7889 4.9124 -80.3827)
(13.9788 5.12066 -79.7143)
(13.8535 5.41681 -78.7168)
(14.0751 5.84149 -77.6418)
(13.8923 6.08044 -76.4577)
(14.5035 7.77064 -75.4666)
(13.648 4.61312 -80.6339)
(13.9341 4.76194 -79.9521)
(13.897 5.06438 -79.0303)
(14.2288 5.48469 -78.1717)
(14.193 5.92558 -77.149)
(14.938 8.15539 -76.6257)
(13.9239 4.4844 -81.1977)
(14.2223 4.55551 -80.5809)
(14.216 4.8004 -79.7525)
(14.5592 5.23111 -78.9796)
(14.6073 5.86605 -77.9486)
(15.3713 8.5513 -77.7829)
(14.1614 4.15841 -81.8158)
(14.4509 4.1257 -81.2296)
(14.4382 4.31303 -80.4837)
(14.7595 4.72929 -79.7543)
(14.834 5.58715 -78.7365)
(15.4664 8.8059 -78.7312)
(14.4024 3.9176 -82.4071)
(14.6806 3.76749 -81.8627)
(14.6464 3.83043 -81.1593)
(14.924 4.08008 -80.3759)
(15.0281 5.16737 -79.3701)
(15.3001 9.12196 -79.1509)
(14.3893 3.55947 -82.9856)
(14.6981 3.27619 -82.4463)
(14.7401 3.20024 -81.7174)
(14.9191 3.34899 -80.8931)
(14.9275 4.75231 -80.0528)
(14.8015 9.63539 -79.1539)
(14.4893 3.15874 -83.5733)
(14.6925 2.69924 -82.953)
(14.8652 2.52925 -82.2512)
(14.9604 2.71815 -81.4294)
(14.7846 4.46441 -80.6112)
(14.1114 10.3134 -78.7522)
(14.6697 2.75797 -84.1763)
(14.6707 2.21154 -83.5882)
(14.868 1.96992 -82.9173)
(14.7989 2.22638 -82.0077)
(14.4317 4.36183 -81.0139)
(13.1626 11.0047 -78.2555)
(14.6388 2.39869 -84.8517)
(14.5122 1.86842 -84.3443)
(14.6597 1.59602 -83.6727)
(14.4113 1.95036 -82.661)
(13.7497 4.46928 -81.2658)
(11.6377 11.5002 -77.9351)
(14.2582 2.16389 -85.5736)
(13.9916 1.68998 -85.1238)
(14.0568 1.41058 -84.3985)
(13.5787 1.88469 -83.2677)
(12.5196 4.67032 -81.5677)
(9.35809 11.6233 -78.1152)
(13.5497 1.96124 -86.2667)
(13.1667 1.55123 -85.8807)
(13.1092 1.3024 -85.1853)
(12.2918 1.87297 -84.1534)
(10.6947 4.738 -82.3735)
(6.52278 11.3025 -79.0993)
(12.6599 1.85927 -87.0065)
(12.1302 1.43039 -86.5912)
(11.6812 1.13184 -85.9009)
(10.403 1.87138 -85.0665)
(8.22033 4.8804 -83.4654)
(3.19394 10.8592 -80.555)
(11.8104 1.83732 -87.7343)
(11.081 1.59842 -87.3924)
(10.1492 1.15045 -87.0573)
(8.42941 1.82303 -86.5441)
(5.73211 4.64017 -85.4903)
(0.324381 9.98313 -83.364)
(10.9977 2.67813 -87.9409)
(9.95932 2.79456 -87.5836)
(8.44539 2.7138 -87.3539)
(6.07637 3.61081 -86.9359)
(2.61886 6.32196 -86.3532)
(-3.40417 10.704 -85.8246)
(-27.2156 24.5422 -77.9698)
(-59.5402 41.6754 -44.6336)
(-94.3621 67.0351 2.55421)
(-139.154 96.3584 44.5135)
(-181.609 130.13 64.0888)
(-34.0874 23.3014 -76.4263)
(-68.9309 36.2256 -39.1412)
(-106.937 56.6506 11.1553)
(-155.236 82.135 51.9143)
(-197.085 113.142 70.1665)
(-39.829 21.4439 -72.8312)
(-76.8975 29.923 -30.5668)
(-120.123 46.4141 20.1388)
(-171.526 65.6071 55.5161)
(-210.301 88.2358 69.2923)
(-44.9209 19.3422 -68.4077)
(-83.3241 22.8695 -21.4421)
(-132.513 35.4614 27.7363)
(-188.009 47.3331 59.2608)
(-228.934 63.1123 69.3608)
(-48.3641 17.2808 -63.4651)
(-88.1138 17.2337 -13.5465)
(-143.989 25.2252 31.688)
(-204.205 34.0033 62.0073)
(-249.849 47.0249 70.6695)
(-49.8154 14.5201 -59.7169)
(-89.702 10.3802 -10.0876)
(-148.371 13.5193 31.8179)
(-209.822 20.3779 63.968)
(-255.718 32.1117 76.8455)
(-50.3205 11.9855 -57.8797)
(-90.3601 3.91692 -10.5365)
(-148.946 3.14605 29.0838)
(-207.381 5.69426 63.444)
(-250.156 13.8445 77.9479)
(-47.8472 8.89405 -59.1608)
(-87.0357 -2.33565 -15.3231)
(-144.383 -7.41782 24.0159)
(-203.138 -12.1133 59.6426)
(-250.178 -10.1018 73.1823)
(-268.016 -6.24135 75.3795)
(-44.8893 4.22255 -62.3318)
(-83.3906 -10.1002 -22.0273)
(-139.921 -18.9023 17.6748)
(-199.106 -29.5628 57.6567)
(-252.004 -31.6994 75.8213)
(-278.211 -30.5702 80.9371)
(-39.2356 0.570993 -67.0134)
(-75.5367 -15.5329 -31.2934)
(-128.186 -26.6352 8.74703)
(-184.7 -40.478 53.3067)
(-240.69 -46.3912 78.6113)
(-270.757 -47.9978 89.8549)
(-32.6979 -5.2272 -72.0065)
(-67.323 -23.6193 -41.4981)
(-114.406 -37.3025 -1.60162)
(-165.127 -53.6177 46.294)
(-221.074 -65.1493 76.0962)
(-254.19 -69.4978 91.425)
(-258.156 -62.94 97.2761)
(-25.4036 -10.7952 -77.1929)
(-56.6983 -30.4739 -51.6694)
(-96.7353 -46.0698 -12.5962)
(-139.182 -65.3775 37.8046)
(-191.53 -84.6545 72.4827)
(-229.073 -95.2558 89.8276)
(-232.361 -96.0406 98.2969)
(-217.618 -80.8536 98.4395)
(-17.9465 -16.6441 -81.6425)
(-46.1181 -40.3866 -60.2271)
(-81.0573 -59.7821 -22.8117)
(-115.794 -83.1953 26.6406)
(-160.498 -108.317 62.7487)
(-194.423 -123.841 78.9848)
(-192.662 -129.66 87.0413)
(-186.367 -101.331 102.069)
(-12.475 -22.3752 -86.2674)
(-36.4995 -50.556 -66.6128)
(-65.7404 -72.7572 -27.2752)
(-94.6439 -102.527 23.3977)
(-134.684 -138.813 60.4993)
(-170.226 -173.599 70.3948)
(-183.786 -179.742 72.1661)
(-167.451 -186.995 74.6033)
(-8.05197 -27.4256 -89.1397)
(-28.7104 -59.5961 -70.0125)
(-54.7035 -87.0185 -26.7736)
(-83.5555 -125.022 27.3072)
(-123.678 -172.502 65.6558)
(-162.282 -217.643 76.3025)
(-183.627 -232.661 73.5946)
(-182.76 -223.811 66.709)
(-4.91713 -31.9155 -89.9066)
(-22.9031 -66.9772 -69.1512)
(-43.5482 -95.2476 -19.4573)
(-70.8462 -135.61 38.531)
(-108.588 -184.217 77.0408)
(-140.51 -226.994 87.7541)
(-170.983 -245.47 82.0176)
(-181.34 -236.59 80.942)
(-1.90662 -34.9586 -87.8835)
(-17.6697 -71.0955 -62.6833)
(-32.796 -102.527 -10.4365)
(-53.539 -145.934 42.8533)
(-81.0695 -191.921 74.7184)
(-105.178 -223.365 82.2093)
(-134.977 -227.234 90.2594)
(-158.84 -212.639 91.8954)
(1.56584 -36.8809 -85.9447)
(-11.5229 -73.5509 -55.2399)
(-22.5805 -110.173 -0.54527)
(-36.0814 -158.431 51.3821)
(-53.0142 -211.006 76.531)
(-68.0952 -250.314 75.2779)
(-84.172 -261.821 68.2885)
(-73.3456 -237.504 63.734)
(4.16131 -38.0813 -83.1595)
(-5.7438 -75.3548 -47.9868)
(-14.4294 -117.546 8.10619)
(-24.0168 -172.832 57.8368)
(-35.3152 -231.984 77.4746)
(-48.7029 -275.625 73.7376)
(-61.445 -296.144 66.1394)
(-70.1871 -283.76 52.2266)
(6.60377 -37.5786 -80.1981)
(1.10694 -74.5364 -43.5656)
(-4.234 -118.945 11.4034)
(-11.3699 -178.023 59.4519)
(-23.119 -240.074 80.6874)
(-34.6884 -283.012 82.5474)
(-50.8998 -305.423 73.8188)
(-68.7704 -296.305 66.3428)
(8.62445 -36.2395 -77.2338)
(7.13912 -72.858 -40.9325)
(4.69508 -117.032 10.766)
(1.26941 -172.441 56.8931)
(-5.65166 -228.037 80.5262)
(-17.2326 -264.139 84.81)
(-36.7818 -282.996 83.238)
(-56.2008 -275.03 78.2813)
(10.4571 -32.7872 -75.6212)
(12.4346 -68.299 -41.6465)
(13.705 -111.88 6.40046)
(18.3683 -167.787 49.6508)
(20.0309 -226.448 71.2531)
(17.3293 -266.744 73.3656)
(14.5244 -273.31 66.3285)
(4.2414 -260.876 54.4994)
(13.0433 -28.5092 -74.8635)
(17.7829 -62.7398 -44.3576)
(23.3235 -106.321 -0.799353)
(33.1656 -161.802 42.3704)
(39.8395 -222.437 69.23)
(44.6444 -267.396 76.4286)
(15.4383 -23.5461 -75.1239)
(21.853 -55.5608 -49.2521)
(30.6459 -97.2081 -10.7861)
(42.9286 -150.477 32.6428)
(53.4975 -212.205 66.1062)
(60.8077 -259.329 82.6329)
(17.1264 -18.2568 -76.1969)
(25.3734 -47.1127 -55.0894)
(36.42 -85.4982 -22.457)
(49.3273 -132.415 21.9325)
(63.5254 -189.831 61.3435)
(72.9181 -239.011 83.8974)
(18.1686 -13.1285 -77.7069)
(28.3186 -38.0384 -60.8981)
(42.0354 -71.9103 -33.8712)
(57.6026 -111.445 9.90457)
(77.2374 -163.742 52.1681)
(93.3465 -211.034 79.1473)
(18.6015 -8.53843 -79.2196)
(31.2949 -29.3927 -65.9843)
(48.4045 -59.2264 -43.7065)
(67.2815 -90.8814 -0.91076)
(91.1359 -134.108 43.856)
(114.701 -174.784 72.2644)
(19.1193 -4.85294 -80.5379)
(34.1939 -21.7465 -70.0006)
(54.5851 -47.942 -49.9742)
(79.1497 -73.786 -6.6838)
(113.95 -112.321 38.4943)
(19.645 -2.0869 -81.3567)
(37.0412 -15.1715 -72.6936)
(61.8813 -38.2724 -51.5795)
(93.6485 -62.6327 -3.80112)
(138.855 -102.219 47.2238)
(20.7009 0.0563289 -81.341)
(40.3521 -9.92122 -73.6212)
(67.2056 -29.0593 -47.8111)
(99.5828 -51.0103 6.12956)
(147.904 -88.8925 58.9663)
(22.336 1.53124 -80.8317)
(43.4853 -5.50886 -72.3581)
(69.4808 -19.6875 -41.193)
(104.414 -35.7369 12.662)
(156.109 -65.7211 59.1549)
(23.7782 2.67608 -79.6746)
(45.9934 -1.75401 -68.576)
(73.7323 -11.7288 -32.5846)
(114.941 -21.9778 22.1025)
(172.696 -41.0858 65.0942)
(24.8934 3.71505 -78.0677)
(47.991 1.49481 -63.3289)
(77.6659 -5.46112 -22.328)
(126.341 -11.1138 32.9884)
(190.928 -23.2545 71.249)
(25.6372 5.18673 -76.1844)
(49.0953 5.02336 -58.0509)
(80.8277 2.14092 -14.5175)
(135.746 0.62833 38.0259)
(202.528 -9.97666 74.7506)
(26.2384 6.5581 -74.0218)
(50.1977 8.36995 -53.6048)
(83.5583 9.90688 -10.4951)
(137.11 12.2988 39.9659)
(197.42 5.21183 76.6504)
(26.1969 7.86251 -71.8783)
(50.2218 11.7332 -50.1645)
(84.3284 17.431 -8.69395)
(135.929 25.4296 38.1644)
(195.242 25.794 71.1403)
(25.7911 9.17303 -70.227)
(49.6873 15.8111 -49.113)
(84.5228 24.4167 -9.98796)
(134.748 37.4499 35.834)
(194.052 43.1859 68.8928)
(25.3631 10.5921 -69.2882)
(48.2932 19.7648 -49.9855)
(81.8875 30.2383 -13.6828)
(129.051 45.7708 31.3773)
(186.701 55.3573 66.0245)
(24.7892 11.9736 -69.1718)
(45.897 23.1578 -51.881)
(76.3044 35.6768 -18.6893)
(118.649 53.5188 25.3736)
(174.32 69.3903 60.5581)
(24.1596 13.1817 -69.8032)
(43.3323 26.347 -54.6143)
(69.9746 41.5796 -24.6035)
(107.083 63.251 17.1194)
(156.989 86.7831 53.8125)
(23.5003 14.2575 -70.9316)
(40.5678 29.9017 -56.9697)
(63.337 49.2815 -28.2467)
(95.1884 75.9954 11.6323)
(137.465 106.872 47.6893)
(23.0629 15.7219 -72.3596)
(38.4938 34.6272 -58.1512)
(59.4028 59.534 -28.0401)
(88.0301 93.2743 12.7427)
(123.034 131.483 47.0958)
(22.5235 17.6506 -73.4777)
(35.8571 39.1483 -57.0571)
(55.347 67.4035 -21.337)
(83.0244 107.953 24.1287)
(117.977 155.562 57.3165)
(22.1681 19.7984 -73.6463)
(32.1543 43.6132 -54.0316)
(48.6955 74.6549 -13.5167)
(72.2886 120.456 33.8759)
(104.334 170.307 63.974)
(21.5713 21.8206 -72.9002)
(28.1249 48.5447 -49.6651)
(40.9354 83.7845 -6.55923)
(57.2562 133.896 38.4912)
(81.1866 182.593 65.0738)
(20.0309 23.9258 -71.5985)
(23.7071 53.7488 -44.2165)
(32.6612 93.734 2.41266)
(41.6982 149.521 46.609)
(57.3604 200.628 69.4373)
(17.626 26.2458 -69.6628)
(18.6624 58.2153 -37.8593)
(23.1168 103.383 11.6095)
(27.1514 164.993 54.1378)
(38.7384 218.188 73.8313)
(14.8691 28.8082 -67.5618)
(12.5071 62.3782 -32.963)
(11.2708 110.832 16.3824)
(11.7333 174.668 57.1839)
(22.0844 227.61 78.6447)
(12.2488 31.0395 -65.3917)
(6.3113 65.7575 -29.173)
(0.0375258 115.334 18.8355)
(-3.33522 176.36 58.994)
(3.07365 223.648 81.2068)
(9.18326 32.6117 -64.3551)
(-0.919189 66.7759 -28.9334)
(-10.6969 115.457 16.719)
(-19.839 174.249 56.4224)
(-18.5566 223.01 77.8032)
(5.74645 33.6351 -64.7902)
(-8.15359 66.8585 -30.3175)
(-21.0171 114.763 15.0923)
(-35.5259 173.056 55.9873)
(-38.7736 224.6 79.7009)
(1.69548 33.2383 -66.44)
(-14.41 63.8573 -33.8084)
(-28.7777 108.706 10.2819)
(-46.3995 163.527 53.0714)
(-54.5166 214.593 80.5066)
(-2.73647 32.158 -69.1513)
(-21.3175 59.5649 -37.9681)
(-38.5379 100.641 4.74951)
(-60.1164 151.61 47.8557)
(-75.0933 202.25 76.3065)
(-7.83228 30.323 -71.8453)
(-28.7389 54.3328 -42.0352)
(-48.6705 90.7453 -1.17088)
(-73.7315 134.338 41.911)
(-95.902 179.935 70.6363)
(-13.211 27.974 -75.0167)
(-37.8265 49.1586 -45.0548)
(-62.9517 81.4868 -4.08953)
(-94.2766 119.737 37.5059)
(-121.944 158.94 63.829)
(-20.0133 26.6428 -76.9698)
(-48.6826 45.4677 -45.9013)
(-78.9512 73.5177 -3.13413)
(-116.351 105.556 38.1848)
(-150.581 140.244 60.8477)
(9.71285 4.93304 -87.9463)
(10.4616 5.41894 -88.5108)
(10.7225 6.08195 -89.1995)
(11.2105 6.60284 -89.7857)
(11.4629 6.99919 -90.4212)
(11.8023 7.25644 -90.907)
(12.0974 7.35084 -91.3609)
(12.4217 7.26267 -91.7422)
(12.7954 7.37851 -92.0685)
(13.1995 7.27095 -92.4578)
(13.5243 7.00453 -92.9762)
(13.774 6.30378 -93.3404)
(13.7763 5.39024 -93.645)
(13.8898 4.56313 -93.712)
(10.0219 4.205 -87.8485)
(10.6703 4.90023 -88.3198)
(10.933 5.58416 -88.9925)
(11.4146 6.13443 -89.4898)
(11.6609 6.55387 -90.0147)
(11.9689 6.8238 -90.3793)
(12.2046 6.95083 -90.7381)
(12.4278 6.96008 -91.0868)
(12.6794 7.05176 -91.4432)
(12.9973 7.0083 -91.8632)
(13.2492 6.79008 -92.4003)
(13.5231 6.24463 -92.8047)
(13.4105 5.52889 -93.0423)
(13.5384 4.9062 -93.3174)
(10.6429 4.1686 -87.4023)
(11.1148 4.77979 -87.8515)
(11.2492 5.40066 -88.4524)
(11.6197 5.93342 -88.9071)
(11.7578 6.34261 -89.3763)
(12.0024 6.59167 -89.7127)
(12.1589 6.69409 -90.0815)
(12.3144 6.65987 -90.4642)
(12.4698 6.70492 -90.8715)
(12.7198 6.69006 -91.2862)
(12.9183 6.5653 -91.7626)
(13.1644 6.25224 -92.1473)
(13.0989 5.73839 -92.3934)
(13.2166 5.26833 -92.6992)
(11.3681 4.17529 -86.8129)
(11.6419 4.71165 -87.3152)
(11.6251 5.26243 -87.8585)
(11.8448 5.74117 -88.3061)
(11.8806 6.10657 -88.7275)
(12.0614 6.3157 -89.0761)
(12.1537 6.44242 -89.4422)
(12.2742 6.46092 -89.819)
(12.3158 6.49249 -90.2319)
(12.4797 6.48544 -90.6427)
(12.5832 6.40002 -91.0878)
(12.7709 6.18617 -91.4566)
(12.7191 5.8032 -91.7265)
(12.7914 5.44957 -92.0222)
(11.9117 4.46703 -86.1181)
(11.9985 4.93365 -86.6808)
(11.856 5.39007 -87.191)
(11.9334 5.76544 -87.6519)
(11.9334 6.05033 -88.0436)
(12.0542 6.18068 -88.4162)
(12.1002 6.27997 -88.7976)
(12.1963 6.2998 -89.1873)
(12.2046 6.32328 -89.5955)
(12.3081 6.29794 -89.9947)
(12.3502 6.23367 -90.3957)
(12.4871 6.11021 -90.7415)
(12.4363 5.85877 -91.0258)
(12.4807 5.64193 -91.3254)
(12.223 4.86676 -85.4042)
(12.201 5.2257 -86.0189)
(12.0174 5.56643 -86.5199)
(12.0082 5.77762 -86.9993)
(11.9988 5.96097 -87.4004)
(12.0541 6.04235 -87.7929)
(12.0713 6.13118 -88.1788)
(12.1341 6.17238 -88.5652)
(12.1332 6.21093 -88.9556)
(12.1958 6.20298 -89.3393)
(12.1919 6.13675 -89.7133)
(12.2756 6.04984 -90.0586)
(12.2193 5.87106 -90.3424)
(12.2413 5.74421 -90.632)
(12.3248 5.38776 -84.8167)
(12.2146 5.6161 -85.4316)
(12.0945 5.85531 -85.9214)
(12.0494 5.91995 -86.3767)
(12.0138 6.02278 -86.7772)
(12.0182 6.04601 -87.1707)
(12.0301 6.09447 -87.5545)
(12.0733 6.11725 -87.9408)
(12.0893 6.13311 -88.3295)
(12.1321 6.11117 -88.7124)
(12.1244 6.02694 -89.0786)
(12.1639 5.96876 -89.4226)
(12.1132 5.84801 -89.6915)
(12.0835 5.83203 -89.9439)
(12.3755 5.85015 -84.2498)
(12.2083 5.906 -84.7889)
(12.172 6.0235 -85.2757)
(12.0731 6.01026 -85.7256)
(12.0292 6.05844 -86.1479)
(11.9926 6.04023 -86.5488)
(12.0019 6.06292 -86.9401)
(12.0146 6.0776 -87.3342)
(12.0498 6.09065 -87.7301)
(12.058 6.0804 -88.1224)
(12.0722 5.99953 -88.494)
(12.0396 5.97194 -88.8419)
(12.0122 5.89895 -89.1115)
(11.9105 5.91609 -89.284)
(12.4163 6.17803 -83.6323)
(12.1991 6.17941 -84.1312)
(12.1966 6.25186 -84.6329)
(12.0589 6.21643 -85.0928)
(12.0322 6.21331 -85.5389)
(11.9708 6.15537 -85.9467)
(11.9854 6.14247 -86.348)
(11.9788 6.12556 -86.7528)
(12.0222 6.11237 -87.1642)
(12.01 6.07516 -87.5733)
(12.025 6.00271 -87.958)
(11.9521 5.99353 -88.2898)
(11.9206 5.96363 -88.5352)
(11.8377 5.95705 -88.6443)
(12.5014 6.48412 -83.0357)
(12.2251 6.41831 -83.4592)
(12.2084 6.41133 -83.9566)
(12.0326 6.34808 -84.4272)
(12.0152 6.30614 -84.9071)
(11.9295 6.23714 -85.3415)
(11.9434 6.20908 -85.7688)
(11.9077 6.18309 -86.1955)
(11.9463 6.16433 -86.6302)
(11.9177 6.13826 -87.0592)
(11.9371 6.10159 -87.4544)
(11.8652 6.13269 -87.7541)
(11.8552 6.10559 -87.933)
(11.8051 6.10485 -87.9956)
(12.3444 6.78504 -82.416)