/*--------------------------------*- C++ -*----------------------------------*\
| =========                 |                                                 |
| \\      /  F ield         | OpenFOAM: The Open Source CFD Toolbox           |
|  \\    /   O peration     | Version:  v2106                                 |
|   \\  /    A nd           | Website:  www.openfoam.com                      |
|    \\/     M anipulation  |                                                 |
\*---------------------------------------------------------------------------*/
FoamFile
{
    version     2.0;
    format      ascii;
    arch        "LSB;label=32;scalar=64";
    class       volScalarField;
    location    "0.000174";
    object      epsilon;
}
// * * * * * * * * * * * * * * * * * * * * * * * * * * * * * * * * * * * * * //

dimensions      [0 2 -3 0 0 0 0];

internalField   nonuniform List<scalar> 
18273
(
372875
298816
236499
177506
117739
74794.4
54949.2
51123
59025.5
80211.5
119537
184976
280205
374910
217793
169006
124356
86278.7
57872.1
38172.5
29620.3
29595.3
37083.6
56938.3
94690.4
157248
241415
310914
121969
85534.2
56667.2
35467.7
23517.7
16034.3
12927.3
14503.1
22032.9
40011.5
74311
131202
206879
263246
67102.6
39996.1
22749.6
12082.4
7395.32
5215.57
4772.45
6531.79
12412.1
26498.4
54026.9
99915.7
161420
208968
39050.6
19115
8610.88
3550.3
1867.92
1411.4
1769.15
3494.89
8405.78
19895.9
41874.3
76164.1
118975
153997
27559.9
11460
3993.93
1341.02
618.566
544.764
1042.24
2688.32
6953.38
16180.6
32527.9
56665.1
86553.2
115410
26245.7
9810.05
3225.04
1302.84
701.562
672.548
1279.44
3046.36
7085.31
14919.6
27701.3
46077.1
70145.4
97612.6
33582.6
11672.8
4380.77
2299.52
1486.25
1402.63
2152.04
4143.93
8140.09
15140.4
26245
43586.7
70456.1
101813
52822.4
17109.9
7336.19
4562.13
3320.88
3022.53
3814.09
5984.35
10034.1
16930.9
29146.3
53207.4
87551.9
125944
104978
31202.7
13262.2
9137.6
7295.72
6548.72
7162.82
9518.51
14279.9
23880
44241.8
83671.2
128074
176264
204708
79223.7
27479
17542.8
15469.9
14523.8
15231.3
18705.3
26714.1
49119
87288.6
145304
202785
257077
310026
170836
78058.6
40168.8
31165.5
30144.8
32736
41345.8
62238.7
108402
170069
245734
305957
350294
400381
278517
158722
85715.7
57340.6
52286.9
59422.1
79635.4
120657
187657
265460
331005
366482
383703
484515
387353
255229
155335
102949
84074.7
87725.6
113473
163451
225407
282838
312318
325295
334705
404860
319255
245686
176060
112268
70250.3
51703.3
48675.5
59494.1
87195.2
134655
206406
304281
396916
241291
183814
131507
89765.1
59586.6
39441.1
29600.1
28092.7
36034.3
59680.6
103768
171515
257900
327685
131918
90817.2
60260.1
38688.3
26090.3
17830.1
13572.4
13863.2
21424.3
41790.5
79858.4
137857
211362
271147
66476.5
38588
22675.9
13098.9
8605.12
6101.18
5126.23
6376.46
12311.4
27597
56579.7
100666
157112
207408
33153
15476.1
7299.69
3489.87
2128.65
1633.94
1844.37
3470.24
8565.48
20649.5
42575.4
73844.1
111218
146834
20461.4
8065.18
2804.57
1006.11
521.698
499.476
971.915
2600.4
6947.53
16294.7
32016.2
53186.2
77905.9
104509
18764
6853.96
2107.55
774.442
405.12
456.41
1031.4
2693.53
6579
14087
25842.6
41414
60867.6
86273.4
24110.1
8418.86
2855.31
1350.91
844.792
885.163
1572.84
3336.26
6938.7
13254
22961
37169.5
59343.5
91644.3
38260.3
12602.1
4826.26
2778.51
1983.93
1924.6
2685.8
4554.41
8030.51
13947.2
24123.9
43329.5
75461.2
119851
75375.5
22785.8
8872.26
5769.17
4555.55
4286.17
5061.19
7177.64
11232.3
19193.1
34903.1
69417.7
114990
172732
160689
55457.2
17067.7
11526.5
10003.6
9726.7
10926.1
14336.7
21462.8
37385.8
67705.2
121411
184102
249877
270785
137972
58228
26830.2
20633
20407.3
23177.6
30162
45270
79253.9
129748
204917
280293
345230
391438
252103
134875
64850.6
40034.8
36291.3
41502.8
55641
84414
138531
213815
298575
364175
411522
520001
376185
235443
134950
82782.7
62504.7
63704.4
83220.1
125107
193726
275021
337272
372343
400578
340648
263074
196158
138665
89838.8
58968.6
44029.7
42207
53864.1
84136.1
133118
196284
273231
353289
211655
160062
112961
77365
52097.8
35592.9
26121.6
23302.8
30462.8
54525.9
99548.1
160194
226435
282439
118903
80969.3
53778.3
35568.1
24490.6
17101.9
12593.7
11682.8
17950.9
37530.4
74997.5
126418
181039
228618
57524.4
32495.9
19532.7
12350.5
8610.45
6172.01
4891.65
5552.16
10739
25166.3
52513.1
90204
132757
173113
25668.7
11371.6
5632.65
3157.38
2174.99
1690.68
1726.9
3049.91
7627.13
18760.3
38785.7
65549.9
94351.8
122819
14352.7
5194.37
1796.28
729.546
445.738
443.505
821.95
2231.42
6130.41
14657.9
29069.3
47645.1
66566.2
86643
12922.2
4347.57
1212.88
398.035
206.517
283.988
752.923
2146.49
5516.05
12200.7
22886.9
36578
51259.5
69156.7
16540
5451.73
1623.48
662.55
393.061
479.689
1020.35
2420.82
5406.91
10852.4
19321.6
30785.1
46304.9
70718
25693.6
8286.72
2776.95
1445.72
995.225
1045.1
1648.73
3080.21
5846.81
10690.5
18712.8
32342.7
54869.9
97153.1
48238.8
14876.8
5239.67
3213.35
2502.3
2469.35
3160.88
4807.24
7947.54
13848
25791.8
48788.7
86178.3
146281
103715
32191.8
10339.4
6969.81
5999.49
6064.93
7271.62
10105
15730
27018.3
48212
87481.5
143032
207994
183299
92358.3
36021.2
15282.8
13207.6
13739.3
16602.3
22709.4
34221.1
55228.7
88883.9
145372
215285
276526
293004
183873
92625.5
39212.6
25440.9
25898.8
30958.8
41445.5
60449.4
93874.5
143225
209953
278604
342817
406446
279549
174472
96446.6
56778.4
44123.5
47145.4
61151
88293.5
138184
204492
266315
323945
392252
420954
454829
528116
670470
922154
826736
322137
342705
395556
517678
720961
761021
261380
269011
314409
441688
695581
756896
208344
213820
253593
380241
712546
784796
163682
173347
206466
318630
726348
825378
132595
143947
171168
262307
712142
867030
119324
130605
155059
234025
689654
902709
125038
136681
160646
233339
681928
931941
153772
167020
190900
260216
710701
958975
208850
224093
246574
311887
748753
988462
283692
294356
309849
369295
768745
1.00949e+06
347465
339735
345649
402717
734979
1.01378e+06
354910
336972
344181
405384
651576
1.03036e+06
312472
305344
327696
402648
593179
1.13837e+06
427128
443205
477126
559862
790665
1.21154e+06
331427
344272
370831
443837
625704
1.11517e+06
272661
276795
301269
382259
592857
1.05129e+06
215881
221302
246840
328318
576490
999685
164240
176155
203326
277393
552472
945151
126900
142289
171045
237781
520663
888015
111182
127223
156846
219093
501530
843817
118704
134486
163465
222136
505014
818481
151666
166957
193696
247176
542288
824462
209723
226081
249411
293364
587374
862475
285177
300935
315836
344666
620954
930789
358705
358828
356753
373948
614089
1.03033e+06
391953
370046
354574
373302
569115
1.17499e+06
367713
338183
326043
363825
548748
1.42276e+06
399139
424442
436595
476305
674666
1.55692e+06
304421
332248
349563
382272
541006
1.32096e+06
248874
269281
285940
319062
455390
1.12089e+06
195437
216488
239000
275940
394552
945730
145959
171676
202629
247175
356435
798998
108630
136103
174186
227342
337693
688226
90826
117361
160251
219200
335767
624745
95906.9
120040
162917
221604
348410
605860
125365
145760
184853
236317
373247
624901
175362
193716
227441
267165
401313
676478
233998
255865
284532
308760
435061
774615
292710
315785
336450
341403
455954
926205
347541
362117
365144
358939
456364
1.12591e+06
382792
385358
368693
363904
478174
1.39161e+06
268319
281283
327215
423282
611352
1.21372e+06
241719
237384
278611
374078
570874
1.15991e+06
226507
211466
241826
332479
554054
1.13627e+06
211448
192399
210464
289288
533741
1.12407e+06
187726
174759
184175
249331
506211
1.10779e+06
156116
155420
166162
224274
486084
1.08532e+06
129126
140827
161473
222821
491320
1.06361e+06
114825
138294
171579
239884
532858
1.06155e+06
123229
157389
201049
277638
611240
1.09078e+06
158136
204992
256721
337620
701415
1.11568e+06
226251
285590
336455
407668
759515
1.13611e+06
324986
379866
409297
453785
733255
1.131e+06
424897
443774
434144
445723
621532
1.12056e+06
469279
444697
402056
402605
529976
1.18468e+06
313186
289195
299850
375382
600736
1.54814e+06
282795
251273
255860
318975
519311
1.38322e+06
268327
230727
228775
280328
465375
1.24475e+06
240651
209622
209667
253643
424289
1.12197e+06
192753
181964
192327
236688
393908
1.01328e+06
141610
151029
176825
231580
388077
920572
104886
128852
169095
235124
407479
869478
91015.3
124298
175811
250346
456354
861689
103304
145589
204266
284034
532225
886303
143763
197744
261920
341558
622012
936196
213852
283524
351713
415097
685984
1.00502e+06
314430
390573
444611
468728
671119
1.08342e+06
434375
488190
494019
466446
573100
1.17781e+06
524948
533555
474637
415579
498512
1.34104e+06
383837
373579
348760
369937
554724
1.47864e+06
312589
314036
304639
326029
469721
1.23909e+06
276605
283430
279857
299176
405775
1.04124e+06
229496
246676
259840
289552
370613
882420
168327
199571
236468
287068
360468
760454
116105
151262
207343
284094
369936
676561
81920.1
118293
185709
279711
385467
642458
66992.3
104916
177767
278035
413280
646212
74433.8
117396
190979
289247
458243
675434
107212
157332
229436
323078
511480
727984
162056
222004
300246
386333
552789
805413
230419
302030
391931
452272
560220
918929
319102
401647
483528
488876
516324
1.06968e+06
428730
512820
546312
483100
497234
1.28586e+06
1.22676e+06
1.35863e+06
751787
586176
484895
398960
1.29722e+06
1.45862e+06
633720
433033
327156
260426
1.24504e+06
1.23393e+06
458390
284190
205292
160581
1.12178e+06
887197
311589
183643
131935
100912
1.0103e+06
611745
223481
132634
94239.8
67991.7
928206
453555
182911
113939
80757.4
53934.6
893484
379371
174101
117923
86427.7
55538
892070
357391
186067
142416
115365
75706.5
911930
363478
208514
179159
167682
120514
939877
385628
235937
216110
233100
199758
970572
411258
262767
243391
285051
288419
1.00726e+06
432764
286831
264439
317105
349235
1.0704e+06
461504
316848
288456
337226
382594
1.19233e+06
521845
368321
336524
382791
437150
1.36675e+06
1.05351e+06
673905
596730
515691
429062
1.2557e+06
1.14767e+06
590512
450501
352402
284270
1.11907e+06
995637
440822
299954
221322
174060
968863
734566
305402
193920
139520
104080
849577
528789
222537
134791
92589.4
63354.8
771769
401756
185801
109802
70442.8
43900.1
731702
340386
179805
109756
69068.1
41236.6
732468
321788
195615
135025
91696.3
54492.3
771931
325154
223880
183415
144321
88417.4
851274
338648
251839
243043
230751
158006
952430
361218
273950
290559
319654
266365
1.06931e+06
389969
291928
321141
383760
359624
1.20736e+06
432354
314893
342626
420206
428589
1.39973e+06
506479
360409
389824
492052
540442
1.53464e+06
759002
565715
516007
435523
355705
1.24693e+06
741228
482918
383143
297115
239621
1.00735e+06
637943
372553
264101
191723
149962
827998
509922
275130
178532
124487
89839.6
711493
428512
214810
125581
81768.8
52269.7
630452
369834
191486
101308
58813
33679.7
578315
341214
192678
100632
55064
30163.4
561894
335894
215278
124126
69906.3
38151.1
587525
344380
253697
175678
108761
59063.8
661783
356797
299347
254906
184112
105173
775697
373373
337042
334867
284482
194666
925807
406984
368022
398897
374357
280958
1.11202e+06
459878
399514
448727
448150
370893
1.34739e+06
529306
446712
531018
578733
521887
1.04197e+06
1.18721e+06
652704
494790
418949
386205
1.12867e+06
1.30989e+06
578283
411752
339447
306581
1.12288e+06
1.20699e+06
449438
300533
241906
214916
1.04352e+06
963633
320618
205128
165267
146196
958917
745332
235987
146600
118273
103653
901930
617981
199280
123284
96792.6
81646.6
871553
569015
200777
127883
96684.1
75613.8
855139
572832
230756
158554
121477
87907.9
842589
600344
276969
207011
170699
123317
827094
615556
331637
263226
238306
185738
812676
612515
382135
320852
314301
266838
815527
626344
443687
392330
395078
344095
857809
705240
546510
493074
486601
422050
969102
999354
753080
662741
627969
543943
1.2346e+06
931871
550772
462810
419414
399213
1.1138e+06
993109
499579
399889
351026
326059
999609
902836
403286
305041
258752
234816
882450
732066
299298
216286
181632
162578
792502
573372
225764
154950
128702
113726
745180
475729
191535
125192
98635
83565.9
740458
434359
190262
122605
90277.4
70961.3
767370
433511
215922
149829
109180
78836.4
824224
461161
259342
203119
159725
111047
895383
495037
309910
269948
238286
176146
966461
517294
358381
337374
327718
265813
1.04108e+06
541008
410586
410676
418493
354933
1.1404e+06
597543
487694
504150
514648
441401
1.28911e+06
813164
645446
653851
659626
576669
1.48969e+06
642108
455770
410520
382039
356568
1.17889e+06
596188
406986
351049
312516
286037
928933
524998
341196
276794
235853
212291
751639
448361
269406
207188
174292
153976
642078
389807
215066
152857
125223
109143
581360
357094
188452
121672
92058
76933
555661
334310
186332
113288
78409.8
61170.9
566354
330220
204475
131276
88279.8
63984.7
627722
345624
238974
176813
125771
86631.4
745396
370583
282048
243828
193181
135521
902305
409284
328542
317033
276272
206549
1.09055e+06
470424
385083
394177
363679
282867
1.29905e+06
551741
459915
482755
452563
361095
1.55671e+06
704783
578251
604631
580053
482519
173532
134760
99716.3
73686.3
53321.2
39484.7
30592.1
26527.9
30879.6
48880
81814.7
124315
173619
234679
106996
80239.8
56855.2
41336
30276.6
22503.9
17070.7
14128.5
16336.3
28872.4
56154.5
95967.2
142282
189440
58931.4
38731.7
26037.5
18495.6
13708.5
10217.2
7721.26
6675.21
9125.04
19259.8
41238.5
73778.2
111074
151278
27078.5
14295.2
8722.48
6035.56
4559.34
3486.62
2777.3
2945.84
5505.96
13472
30064
54980.3
84508.1
117467
11658.1
4582.98
2218.76
1400.29
1065.55
876.874
885.489
1534.39
3999.86
10464.6
23171.2
42099.4
64439.9
88747.8
6961.75
2131.95
651.94
278.354
189.962
202.139
392.071
1137.91
3369.68
8656.91
18493.8
32809.3
49624.2
67783.5
6760.06
1912.41
458.182
126.977
64.4501
110.003
344.143
1099.25
3107.69
7483.22
15211.8
26295.3
39569.5
54423.8
8612.38
2434.8
616.982
200.335
109.492
163.431
428.128
1186.42
3003.81
6683.02
12930.4
21956.3
33456.5
48170.5
12677.6
3652.94
1085.72
492.757
318.242
368.399
672.032
1449.61
3131.62
6336.5
11751.7
20147.9
32746.9
52258.3
20578
6214.77
2173.12
1293.46
992.518
1014.05
1386.37
2269.21
4041.94
7423.76
13672.9
24777.7
43101.9
72798.3
37281.2
12477.6
4685.45
3196.99
2797.47
2904.25
3586.97
5065.34
7981.01
13554
23905.7
42114.4
69660.9
108948
68432.1
30955.1
11248.5
7282.98
6894.3
7522.85
9248.23
12494.3
18329.9
28394.1
45242.7
72131.2
108663
151694
125777
66464.2
28827.5
15399.7
14746.5
16291.8
19879.9
26038.5
36053.1
51556.7
74547.2
107964
153833
198577
180469
114642
70254.6
39885
29266.6
30033.7
35045
44509.2
59358.7
81502.1
112270
149703
202920
260575
89778.1
71391.2
55103.8
42624.3
33493.6
26739.2
21775.9
18419.6
18471.3
25562.1
43248.3
71052.3
105739
148187
51842.1
38326.1
28140.6
21664.3
17198.8
13731.8
11040.7
9184.17
9428.38
14539.8
28519.1
53263.3
86221.2
123537
26218.2
16319.6
11274.9
8554.96
6900.5
5573.58
4507.49
3921.19
4796.37
9313.04
20879.2
41435.6
68763.7
100568
11634.7
5584.06
3385.15
2497.15
2042.63
1694.56
1456.32
1554.6
2726.58
6629.97
15846.6
32131
54635.7
81502.1
5627.42
1946.3
848.581
544.666
437.28
386.477
425.847
759.527
1987.72
5415.92
12963.7
25971.7
44066.1
65768.2
4008.3
1107.68
299.17
115.826
77.1134
88.5644
190.56
575.901
1762.3
4786.03
11043.9
21494.8
35899.2
53441.9
3999.59
1041.51
239.776
62.1506
29.693
53.0139
174.471
579.789
1719.31
4407.95
9660.21
18193.8
29969.2
44741.9
4830.95
1269.35
316.727
97.5943
52.5575
81.0097
220.978
646.326
1741.64
4145.06
8611.68
15755.8
25766.9
38878.1
6565.31
1794.48
554.116
247.296
161.29
189.273
355.442
810.937
1875.66
4061.38
7984.8
14297.7
23538.1
36644.6
9809.58
2874.3
1158.99
707.611
546.534
554.501
751.373
1259.81
2350.03
4483.82
8359.53
14974
25563.5
41657.8
16178.7
5342.88
2583.14
1905.9
1669.41
1685.58
1998.79
2734.99
4233.13
7116.62
12462.1
21767.9
36486.7
58047.8
30608.9
11376.9
5718.54
4643.34
4435.94
4687.26
5481.43
7020.19
9892.81
15005.8
23849
38134.4
58449.8
83468.8
56914.1
25604.2
12315.9
10103.1
10115.1
11086.2
13085
16387
21891.8
30635.9
44039.4
63609.3
89933.1
114610
87671.1
51035.2
30584.3
20920.8
20200.1
22157
26114.3
32201.9
41429.6
54636.8
72633
96844.1
130308
159905
34206.4
27178
22545.9
18932.4
16658
14616.8
12852.3
11194
10270.5
11319.4
16688.9
28391.5
47118.7
74093.1
17448.4
12237.5
9566.76
7966.59
7117.85
6336.85
5605.08
4890.04
4685.67
5898.62
10400.8
20497.4
37890.7
63110.4
8230.08
4593.25
3228.89
2644.56
2378.07
2141.47
1924.48
1776.61
2038.88
3449.81
7533.98
16404
31862.6
54637.6
4080.37
1617.94
882.197
676.132
601.119
547.959
523.679
600.391
1027.97
2413.7
5994.58
13585.4
26913.7
46888.4
2591.24
736.733
246.784
141.544
115.804
111.077
139.35
274.434
738.614
2070.97
5316.87
11984.4
23516.8
40659.3
2138.86
524.628
122.668
37.7543
21.2984
26.5081
66.4678
216.004
688.603
1974.26
4966.42
10877.7
20839.6
35384.6
2065.38
499.295
112.556
26.9827
11.0361
19.0962
65.8124
229.326
718.932
1981.94
4777.79
10080.5
18784
31379.8
2307.91
581.633
144.529
42.4947
22.0401
32.7688
89.333
272.426
785.326
2033.61
4659.57
9457.17
17168.6
28310.1
2877.48
779.338
248.101
109.419
72.5697
83.8731
155.207
367.044
913.579
2160.42
4653.56
9064.31
16052.6
26225.8
3926.24
1211.53
549.613
340.496
263.382
263.581
350.443
601.337
1191.95
2444.79
4836.75
8974.77
15533
25231.1
5871.79
2223.1
1336.13
1015.47
868.322
843.384
957.386
1284.7
1991.81
3388.96
5982.61
10435.9
17519.5
28086.8
10121
4503.89
3155.04
2712.77
2508.03
2497.88
2726
3281.47
4375.19
6376.33
9893.6
15702.7
24500.5
37018.8
18876.5
9241.49
6869.31
6360.39
6282.69
6520.69
7180.31
8404.91
10539.3
14057.2
19669.8
28171.3
39851.3
53620.7
33429.3
19508.4
14087.3
13170.2
13575.5
14696
16558
19360.9
23622.1
29805.9
38418.8
50548.5
66999.8
83545.6
10309
7817.03
6793.91
6242.46
6239.44
6235.7
6141.23
5807.66
5411.16
5261.09
6224.41
9539.52
16619.9
29118.9
5055.83
3120.23
2443.58
2193.38
2201.12
2222.09
2227.08
2154.52
2102.19
2313.19
3426.35
6495.35
13004.6
24700.7
2608.95
1147.01
721.451
614.087
607.026
611.45
622.616
642.497
742.782
1122.03
2285.95
5166.65
11268.9
22616.4
1661.54
490.288
192.423
135.835
127.603
128.14
138.665
177.733
309.979
711.987
1814.19
4477.09
10154.9
20878.8
1277.46
299.077
70.9109
28.7324
21.2939
22.011
32.5751
73.2705
209.172
616.372
1711.62
4325.6
9823.85
20070.6
1078.97
237.946
49.8013
11.7671
4.56143
5.61249
16.7172
59.7545
204.407
634.864
1768.28
4399.05
9751.14
19374.4
993.072
227.14
49.8575
10.9548
3.59083
5.25801
18.6352
69.2377
235.221
714.377
1927.52
4618.86
9842.1
18808.8
1060.78
261.674
63.2536
17.3061
8.3139
11.1128
29.2029
92.9955
290.467
831.603
2131.66
4861.71
9895.99
18144.1
1264.61
344.555
107.775
46.1126
30.544
33.9897
59.9287
144.276
384.876
999.191
2380.35
5104.43
9881.75
17436.9
1636.04
543.664
255.127
156.378
119.172
117.016
153.163
267.243
560.222
1240.44
2660.27
5309.96
9770.55
16649
2345.4
1067.98
688.415
517.876
425.886
396.615
437.712
589.54
944.566
1689.85
3143.36
5738.98
9977.45
16422.8
3926.96
2305.62
1783.5
1518.22
1337.69
1253.25
1290.06
1491.84
1945.71
2817.73
4408.86
7124.52
11461.2
18003.9
7041.26
4850.91
4143.3
3852.48
3639.99
3546.37
3636.11
3974.14
4677.63
5942.98
8074.41
11465.3
16565.8
23752.4
12955.5
9631.65
8537.99
8421.14
8536.7
8803.02
9300.28
10147.6
11525.7
13744.9
17155.2
22186.2
29079.2
38001.7
3448.74
2276.03
1888.6
1801.32
1966.26
2210.07
2455.16
2588.85
2590.85
2512.47
2673.06
3640.23
6227.46
11456.9
1804.89
872.552
601.219
545.188
588.017
662.05
748.475
814.172
854.901
919.66
1235.33
2220.38
4576.48
9376.15
1079.57
346.128
162.616
131.72
138.004
154.164
176.879
203.888
247.881
362.549
710.957
1637.4
3833.74
8585.22
782.288
180.571
46.5068
25.9876
24.7085
27.4404
33.6255
47.6176
86.3109
200.953
530.037
1401.5
3527.76
8295.39
615.166
125.197
23.5681
6.4721
3.81075
4.17616
7.19608
17.9347
54.2736
169.738
509.859
1428.84
3685.34
8708.76
503.697
102.267
19.9314
4.00514
1.11047
1.20387
3.97534
15.2561
55.8012
187.735
576.65
1612.14
4084.39
9357.76
453.544
98.9708
20.6459
4.10714
1.13874
1.41401
5.01907
19.6945
72.0756
239.178
714.872
1920.9
4634.15
10068
482.961
114.802
25.7325
6.31428
2.86495
3.60285
9.16265
30.2877
101.628
317.357
897.07
2274.44
5158.42
10540.5
579.983
152.145
43.5365
17.1623
11.3126
12.4583
21.5307
53.1296
151.067
425.655
1111.78
2622.19
5568.21
10738
756.815
249.487
110.896
64.3098
48.0259
46.6486
60.8415
108.614
240.467
575.164
1344.72
2921.36
5821.44
10679.6
1117.92
535.723
335.98
240.776
190.105
171.023
186.381
256.071
429.227
822.032
1653.08
3256.85
6071.9
10603.8
1982.96
1271.83
968.086
789.121
663.491
590.091
585.686
674.236
894.783
1351.08
2240.82
3870.25
6627.96
10965.8
3769.08
2866.23
2446.97
2190.48
1977.3
1829.73
1790.51
1891.03
2172.44
2748.77
3797.56
5586.67
8483.28
12947.4
7123.26
5867.77
5324.62
5155.27
5035.81
4958.27
5006.14
5224.17
5673.09
6537.77
8005
10284.1
13659.2
18718.9
1439.43
785.063
567.756
512.295
562.156
665.175
793.311
904.234
975.089
1005.42
1113.09
1547.85
2726.46
5214.31
791.365
293.712
160.905
134.409
144.1
168.186
199.86
230.659
258.802
301.053
439.738
852.422
1858.8
3991.46
502.999
124.915
40.6967
27.9824
28.5886
32.6083
38.5463
46.4208
61.1729
102.768
229.605
577.258
1437.66
3426.56
370.191
72.4266
13.31
5.10659
4.30901
4.785
6.04663
9.3432
19.9195
54.7223
161.654
464.999
1268.89
3276.75
282.995
52.4599
8.73446
1.74788
0.660845
0.630937
1.21204
3.62098
12.8328
45.3966
151.126
467.485
1341.55
3574.42
226.631
44.0534
8.17085
1.44665
0.288564
0.211491
0.7581
3.31249
13.6595
51.4763
176.419
551.481
1575.21
4113.53
209.35
44.5868
8.72993
1.53014
0.336542
0.309376
1.07919
4.62731
18.8953
70.2205
235.23
710.559
1939.3
4785.45
233.734
53.2
10.7823
2.25595
0.888912
0.990923
2.32872
7.94924
29.1903
101.447
320.928
913.981
2339.14
5390.06
291.269
71.1825
17.9235
6.21302
3.9161
4.17511
6.74447
16.1818
48.3237
149.105
434.011
1148.2
2733.05
5877.67
391.058
119.957
47.9694
25.552
18.4227
17.8342
22.7737
39.2754
87.8219
224.039
576.989
1393.6
3074.32
6203.98
605.53
276.303
160.343
106.614
80.2958
71.7268
78.7639
107.871
182.247
363.416
785.484
1687.19
3427.25
6485.35
1144.47
712.94
508.14
386.696
307.625
267.218
266.398
312.034
425.363
666.065
1161.77
2140.47
3929.81
6939.87
2312.54
1720.36
1390.09
1168.5
997.757
890.673
858.468
914.043
1078.73
1412.29
2024.94
3123.4
5016.19
8133.91
4500.03
3672.36
3216.72
2957.52
2737.94
2592.87
2552.32
2632.69
2864.17
3346.04
4180.08
5528.29
7644.2
11060.1
674.851
306.884
188.369
152
156.513
182.316
223.601
270.564
317.747
360.446
438.928
667.816
1282.53
2639.97
370.162
108.621
45.1576
32.7496
33.1938
38.2945
46.8037
57.2051
70.2155
92.7789
157.272
345.749
824.356
1882.77
232.375
47.2121
10.4337
5.46637
5.23642
5.96911
7.3191
9.47825
14.4388
29.6524
77.9767
217.798
582.354
1464.76
164.913
28.7282
4.19703
0.986286
0.628382
0.678297
0.926948
1.72257
4.68664
15.4683
51.3515
160.499
469.222
1298.36
122.856
21.7054
3.45977
0.560308
0.119637
0.0780471
0.184316
0.714777
3.01368
12.0493
44.2609
149.538
468.833
1375.36
100.959
19.5092
3.51934
0.562304
0.0851914
0.0364325
0.135654
0.677772
3.14405
13.2001
50.1563
173.769
553.125
1623.18
100.42
21.2287
3.92476
0.614075
0.109109
0.0716755
0.21973
0.991526
4.45812
18.4027
68.752
232.694
716.051
2005.42
120.358
26.2842
4.89274
0.904946
0.322275
0.315328
0.608172
1.94346
7.52492
28.7105
101.085
322.827
932.171
2433.35
156.653
35.7308
8.14022
2.57276
1.5799
1.61226
2.30016
4.89188
14.408
47.3809
151.679
446.963
1190.79
2866.6
217.623
61.733
22.4536
11.2007
7.89191
7.53346
9.18583
14.6535
31.3234
81.931
226.786
601.365
1464.52
3252.57
351.821
148.576
79.4768
49.3202
35.7182
31.6814
34.7908
46.8169
77.3598
155.135
350.502
808.328
1778.99
3646.76
695.228
404.57
267.057
188.689
142.101
121.316
122.748
147.047
204.187
325.853
586.116
1134.82
2215.1
4172.02
1466.53
1027.06
772.307
603.53
484.595
418.214
404.573
444.168
546.737
745.53
1109.32
1785.37
3017.03
5166.52
2932.24
2277.85
1876.98
1612.84
1407.58
1280.91
1244.21
1300.89
1468
1797.26
2350.48
3248.17
4700.77
7139.51
69.4264
86.1947
107.862
153.52
286.332
646.497
1471.49
12.4566
16.4381
25.7463
55.6704
149.656
403.954
995.147
1.82162
3.34517
8.9204
28.6146
90.7833
264.562
702.939
0.353564
1.23921
4.83105
17.9377
61.1115
191.145
556.437
0.166476
0.798029
3.51107
14.0086
50.9972
171.251
537.162
0.152005
0.773153
3.54226
14.64
55.0763
190.636
611.65
0.219427
1.06074
4.79599
19.6647
73.0712
247.578
768.029
0.488015
1.89044
7.79362
30.1689
106.195
338.563
979.234
95.6606
20.2133
4.00171
1.07714
0.644325
0.667287
0.866971
1.55318
4.16571
14.0591
48.7087
157.72
463.73
1234.26
136.768
34.446
10.553
4.74455
3.37315
3.34445
3.99134
5.8146
11.1517
28.0922
80.8951
232.139
619.856
1512.19
225.209
82.4536
38.3376
21.9231
15.8353
14.6264
16.3817
21.6014
33.7077
64.1759
144.704
350.52
831.647
1851.36
451.405
231.729
135.958
88.4526
65.1072
57.1048
60.183
74.0958
103.013
161.694
288.185
570.398
1170.53
2350.33
976.147
616.32
416.159
299.003
230.622
199.976
201.56
233.063
299.398
418.579
631.604
1036.07
1808.92
3243.48
2007.58
1432.31
1069.27
845.342
702.422
629.321
626.668
688.729
826.313
1066.17
1449.28
2062.8
3069.96
4815.74
263572
354929
437988
488005
510582
500541
199987
284163
375332
437283
478517
513765
154628
229390
317534
388455
454761
514008
115122
173919
250189
324708
417585
484018
81975.8
124388
185551
265516
383268
453036
59539.2
88499.6
136404
224479
348641
422076
46667.9
68558.3
109986
199527
328983
397406
42211
62450.5
101105
187009
327715
380650
48691.3
68991.5
108939
191331
339325
360293
67414.2
89538
133224
214878
349681
342899
95576.9
121533
172450
256649
356502
334879
129341
160504
219270
300298
360446
334413
172719
210473
269003
333156
368538
348008
231067
274100
320413
362003
385445
370510
137408
189304
253464
318867
368626
382650
111338
163050
231239
304801
368325
407908
89833.8
138147
203208
282351
372067
438220
70784.7
111356
168815
250169
367553
436656
55412.6
87824.8
136421
215290
350510
407932
44057.1
69266.7
109583
185815
319723
367586
36291.9
57004.9
92238.9
170910
288486
329725
31575.9
50348.9
84210.2
160915
263230
301504
31389.6
50523.5
87117.2
159519
247027
279333
38565.2
59478.3
101738
170173
239037
260216
54555.6
80019.7
129497
191877
239202
252386
77098
109932
162644
215062
245469
253327
104609
144817
195399
237568
257816
261479
142511
186550
231270
262743
279083
277980
59496
86365.2
124160
174688
239259
306737
49800.8
78577.8
119980
178711
256375
337253
42986.1
71344.1
113475
177064
265052
363742
36705
63065.8
103270
166463
262596
384710
32013.5
55695.3
92231.3
152599
256421
389124
27820.3
48649.5
80448.7
136850
245746
361805
24435
42576.1
70506.9
123104
230023
317409
21512
37468.1
62806.3
111910
206962
271796
19580.6
34043.3
58584.9
106544
184701
232635
19773.8
33866.8
59851.9
107219
168727
201359
24108.2
40131.9
70259
116451
162575
185549
34065.5
54610.6
89185.9
131486
165601
185243
49913.6
75913
112101
150611
180148
199206
72856
103245
139829
177641
207607
224960
20253.9
33069
52710.7
81974.6
127935
200795
17055.4
30757.2
52743.6
87287.8
144059
235031
15607.2
30105
53791.9
92854.4
161058
272750
14641.3
29609.3
54472.9
97151.1
174744
304455
14464.4
29667.3
54958.9
99413.9
182301
324766
14179.5
28987.1
53384.2
96067.6
177358
322122
13686.2
27578.3
49922.9
88608.3
163431
297695
12847.6
25341.9
45006.7
78743
144351
255129
11839
22725
39895
69835.1
127549
207654
10978.6
20430.9
35850.1
63056.2
112210
165324
11085.9
20056.3
35524.2
62035.4
102296
139813
13316.4
23425
40811.8
67633.2
100821
131158
19080.7
31941.3
52030
79247.5
109345
138583
29614.3
46006.2
68739.5
97129.7
129460
161870
6969.28
12557.8
22222.8
39095.6
70727.4
132325
5480.15
11208.1
21875.7
42143.8
81925.5
160565
4993.64
11199.6
23254
47005.9
94883.5
192039
4941.27
11793.2
25548.9
53051.9
108664
223848
5401.26
13216
28871.1
59759
122352
252506
5977.77
14554.2
31364.1
63338.5
127439
257337
6457.48
15289.6
31908.4
62086
121385
239529
6651.84
15182.9
30384.8
56735.6
107739
208905
6550.89
14317
27588.4
49984.8
92599.5
174470
6189.31
12948.9
24220.6
42973.9
77394.2
137237
5924.54
11876.7
21789.5
38125.1
66902.5
110064
6284.06
12093.6
21857
37761.5
63289.9
97266.8
8102.32
14752.4
25758
43109
68279
100143
12268.9
20840.4
34472
54898.1
83525
120342
2894.22
5639.47
10867.1
20749.2
40659.1
83598
2030.08
4638.64
10126.6
21591.7
46224.7
101545
1696.65
4358.66
10336.6
23526.1
53346.5
123746
1616.96
4486.86
11284.7
26854
62700.3
148725
1796.87
5168.94
13245.7
31744.6
73493.3
172580
2121.3
6112.53
15450.8
36056.5
80694.1
184128
2498.66
7006.78
17057.4
37978.7
81577.1
181102
2800.96
7555.43
17569.4
37088.9
75892.2
162160
2979.76
7672.45
17010.6
34125.5
66690.9
136155
3007.55
7359.81
15536.8
29647.9
55376.1
107077
3013.92
6952.57
13974.5
25591.8
46042.1
83412.5
3219.88
6958.6
13363.4
23761.9
41333.8
69669.5
4016
7987.19
14618.4
25385
42899.7
69425
5880.66
10626.8
18570.3
31696.7
52944.4
84924.3
1392.99
2945.33
6100.03
12176.1
24700.7
53493.2
875.669
2240.5
5346.8
12180.2
27735.5
65227.6
653.704
1919.29
5076.88
12683.7
31353.9
78863.7
561.34
1801.2
5159.04
13818.9
35762.2
92096.7
584.585
1959.65
5800.71
15804.8
40974.7
105813
681.947
2303.06
6772.84
18103.5
45676.5
115602
833.22
2753.64
7818.65
19989.7
48236.9
118037
998.721
3173.04
8610.68
20836.8
47438
110635
1158.95
3498.1
8987.85
20492.5
43925.5
96437.7
1277.82
3632.43
8759.85
18698.1
37547.1
76830.2
1389.04
3664.68
8238.05
16469.6
31144.5
59476.3
1587.45
3847.98
8060.28
15230.2
27419.1
48790.2
2067.93
4513.23
8801.71
15897.5
27716.7
47077.6
3097.46
5953.35
10857.6
19135.5
33253.4
56802.6
438.776
1250.37
3217.89
7608.52
17584.8
41929.2
294.098
974.395
2800.05
7356.87
18863.1
49528.1
220.016
803.712
2546.51
7379.79
20589.3
57106.7
199.215
767.357
2573.37
7869.06
22698.9
64018.2
210.22
824.301
2802.22
8651.3
24884
68788.9
247.311
961.097
3203.88
9569.6
26421.5
70410.3
301.062
1131.49
3626.55
10273.3
26731
67914.3
372.744
1329.78
4022.06
10663
25856.5
61579.7
450.871
1508.56
4243.08
10414.9
23388.3
51399.6
549.02
1691.24
4364.8
9844.46
20355
40710
719.735
1994.71
4668.35
9647.8
18396.2
33648.2
1068.42
2585.26
5465.63
10432.6
18697.6
32221.4
1758.28
3608.91
6885.67
12388.5
21678.6
37489
298746
347441
374141
386726
398712
390496
232577
285839
331274
357592
384129
401129
191687
242431
289851
324824
367680
404224
152014
197239
246833
292045
344367
383663
116825
158345
211531
269068
325044
351364