/*--------------------------------*- C++ -*----------------------------------*\
| =========                 |                                                 |
| \\      /  F ield         | OpenFOAM: The Open Source CFD Toolbox           |
|  \\    /   O peration     | Version:  v2106                                 |
|   \\  /    A nd           | Website:  www.openfoam.com                      |
|    \\/     M anipulation  |                                                 |
\*---------------------------------------------------------------------------*/
FoamFile
{
    version     2.0;
    format      ascii;
    arch        "LSB;label=32;scalar=64";
    class       volScalarField;
    location    "0.000155";
    object      alphat;
}
// * * * * * * * * * * * * * * * * * * * * * * * * * * * * * * * * * * * * * //

dimensions      [1 -1 -1 0 0 0 0];

internalField   nonuniform List<scalar> 
17924
(
9.80092e-17
9.80301e-17
9.80506e-17
9.807e-17
9.76333e-17
9.76485e-17
9.76651e-17
9.76812e-17
9.76974e-17
9.77131e-17
9.77285e-17
9.76501e-17
9.7665e-17
9.76826e-17
9.76993e-17
9.77164e-17
9.77329e-17
9.77491e-17
9.76696e-17
9.76853e-17
9.77033e-17
9.77203e-17
9.77376e-17
9.77542e-17
9.77705e-17
9.7688e-17
9.77044e-17
9.77228e-17
9.77403e-17
9.77581e-17
9.77752e-17
9.7792e-17
9.77069e-17
9.77244e-17
9.77432e-17
9.77611e-17
9.77791e-17
9.77964e-17
9.78133e-17
9.77256e-17
9.77439e-17
9.77629e-17
9.77812e-17
9.77994e-17
9.7817e-17
9.78342e-17
9.7744e-17
9.77632e-17
9.77824e-17
9.7801e-17
9.78194e-17
9.78372e-17
9.78545e-17
9.77625e-17
9.77821e-17
9.78013e-17
9.78203e-17
9.78388e-17
9.78567e-17
9.7874e-17
9.77803e-17
9.78002e-17
9.78195e-17
9.78387e-17
9.78572e-17
9.78753e-17
9.78925e-17
9.7798e-17
9.78181e-17
9.78372e-17
9.78565e-17
9.7875e-17
9.7893e-17
9.79101e-17
9.78147e-17
9.78347e-17
9.78538e-17
9.78731e-17
9.78914e-17
9.79093e-17
9.79262e-17
9.78311e-17
9.7851e-17
9.78699e-17
9.7889e-17
9.7907e-17
9.79245e-17
9.7941e-17
9.78458e-17
9.78658e-17
9.78844e-17
9.79032e-17
9.79209e-17
9.79379e-17
9.79541e-17
9.78613e-17
9.78811e-17
9.78989e-17
9.79171e-17
9.7934e-17
9.79503e-17
9.79657e-17
9.72544e-17
9.72637e-17
9.72752e-17
9.72864e-17
9.72979e-17
9.73093e-17
9.73204e-17
9.73315e-17
9.73422e-17
9.73526e-17
9.73628e-17
9.73727e-17
9.73826e-17
9.73928e-17
9.72718e-17
9.72812e-17
9.72931e-17
9.73047e-17
9.73166e-17
9.73283e-17
9.73399e-17
9.73513e-17
9.73624e-17
9.73732e-17
9.73837e-17
9.73941e-17
9.74038e-17
9.74152e-17
9.72913e-17
9.73011e-17
9.73134e-17
9.7325e-17
9.7337e-17
9.73486e-17
9.73602e-17
9.73715e-17
9.73826e-17
9.73934e-17
9.74038e-17
9.74142e-17
9.74239e-17
9.74353e-17
9.73105e-17
9.73209e-17
9.73333e-17
9.73451e-17
9.73573e-17
9.73691e-17
9.73808e-17
9.73924e-17
9.74037e-17
9.74146e-17
9.74253e-17
9.74358e-17
9.74456e-17
9.74567e-17
9.73304e-17
9.73416e-17
9.73541e-17
9.73661e-17
9.73783e-17
9.73902e-17
9.7402e-17
9.74135e-17
9.74248e-17
9.74358e-17
9.74465e-17
9.7457e-17
9.7467e-17
9.74775e-17
9.73509e-17
9.73628e-17
9.73753e-17
9.73874e-17
9.73997e-17
9.74117e-17
9.74235e-17
9.74352e-17
9.74466e-17
9.74576e-17
9.74685e-17
9.7479e-17
9.74892e-17
9.74991e-17
9.73717e-17
9.73842e-17
9.73968e-17
9.74092e-17
9.74214e-17
9.74335e-17
9.74454e-17
9.7457e-17
9.74684e-17
9.74795e-17
9.74903e-17
9.75008e-17
9.75111e-17
9.75206e-17
9.7393e-17
9.7406e-17
9.74185e-17
9.74311e-17
9.74434e-17
9.74556e-17
9.74674e-17
9.74791e-17
9.74905e-17
9.75016e-17
9.75125e-17
9.75229e-17
9.75333e-17
9.75425e-17
9.74142e-17
9.74275e-17
9.74401e-17
9.74529e-17
9.74653e-17
9.74775e-17
9.74893e-17
9.7501e-17
9.75123e-17
9.75234e-17
9.75342e-17
9.75445e-17
9.75549e-17
9.75638e-17
9.74356e-17
9.74491e-17
9.74617e-17
9.74746e-17
9.7487e-17
9.74992e-17
9.75109e-17
9.75225e-17
9.75337e-17
9.75447e-17
9.75554e-17
9.75656e-17
9.7576e-17
9.75848e-17
9.74562e-17
9.74699e-17
9.74824e-17
9.74954e-17
9.75078e-17
9.752e-17
9.75318e-17
9.75432e-17
9.75544e-17
9.75652e-17
9.75757e-17
9.75858e-17
9.75961e-17
9.76046e-17
9.7477e-17
9.74907e-17
9.75031e-17
9.75159e-17
9.75282e-17
9.75402e-17
9.75517e-17
9.75629e-17
9.75738e-17
9.75844e-17
9.75947e-17
9.76046e-17
9.76149e-17
9.76235e-17
9.74959e-17
9.75097e-17
9.75221e-17
9.75347e-17
9.75469e-17
9.75587e-17
9.75702e-17
9.75813e-17
9.75921e-17
9.76025e-17
9.76126e-17
9.76224e-17
9.76324e-17
9.76412e-17
9.75165e-17
9.75294e-17
9.75416e-17
9.75537e-17
9.75655e-17
9.75767e-17
9.75877e-17
9.75983e-17
9.76086e-17
9.76185e-17
9.76282e-17
9.76378e-17
9.76476e-17
9.76583e-17
9.69001e-17
9.69042e-17
9.69107e-17
9.69171e-17
9.69235e-17
9.693e-17
9.69362e-17
9.69426e-17
9.69489e-17
9.69553e-17
9.69617e-17
9.6968e-17
9.69741e-17
9.69805e-17
9.69151e-17
9.69192e-17
9.69259e-17
9.69322e-17
9.69387e-17
9.69451e-17
9.69514e-17
9.69578e-17
9.69643e-17
9.69707e-17
9.69771e-17
9.69835e-17
9.69892e-17
9.69963e-17
9.69306e-17
9.6935e-17
9.69419e-17
9.69482e-17
9.69546e-17
9.69608e-17
9.69669e-17
9.69731e-17
9.69794e-17
9.69857e-17
9.69919e-17
9.69981e-17
9.70038e-17
9.70109e-17
9.69468e-17
9.69514e-17
9.69581e-17
9.69643e-17
9.69705e-17
9.69767e-17
9.69828e-17
9.69889e-17
9.69951e-17
9.70014e-17
9.70077e-17
9.70138e-17
9.70197e-17
9.70264e-17
9.69632e-17
9.69683e-17
9.69748e-17
9.69809e-17
9.69871e-17
9.69931e-17
9.69991e-17
9.70051e-17
9.70112e-17
9.70174e-17
9.70236e-17
9.70298e-17
9.70358e-17
9.70419e-17
9.69804e-17
9.6986e-17
9.69921e-17
9.69982e-17
9.70042e-17
9.70101e-17
9.7016e-17
9.7022e-17
9.70281e-17
9.70343e-17
9.70405e-17
9.70466e-17
9.70528e-17
9.70585e-17
9.69979e-17
9.70039e-17
9.70099e-17
9.70159e-17
9.70218e-17
9.70277e-17
9.70336e-17
9.70396e-17
9.70457e-17
9.70518e-17
9.7058e-17
9.7064e-17
9.70701e-17
9.70756e-17
9.70159e-17
9.70222e-17
9.7028e-17
9.7034e-17
9.70399e-17
9.70457e-17
9.70516e-17
9.70576e-17
9.70638e-17
9.70699e-17
9.70761e-17
9.70821e-17
9.70882e-17
9.70935e-17
9.70339e-17
9.70405e-17
9.70462e-17
9.70522e-17
9.70581e-17
9.7064e-17
9.70699e-17
9.7076e-17
9.70822e-17
9.70883e-17
9.70944e-17
9.71004e-17
9.71065e-17
9.71114e-17
9.7052e-17
9.70589e-17
9.70644e-17
9.70704e-17
9.70763e-17
9.70823e-17
9.70883e-17
9.70944e-17
9.71006e-17
9.71067e-17
9.71127e-17
9.71187e-17
9.71249e-17
9.71297e-17
9.70697e-17
9.70768e-17
9.70822e-17
9.70883e-17
9.70942e-17
9.71003e-17
9.71065e-17
9.71126e-17
9.71188e-17
9.71248e-17
9.71308e-17
9.71367e-17
9.71429e-17
9.71475e-17
9.70878e-17
9.70947e-17
9.70999e-17
9.7106e-17
9.7112e-17
9.71181e-17
9.71242e-17
9.71304e-17
9.71365e-17
9.71425e-17
9.71485e-17
9.71544e-17
9.71609e-17
9.71658e-17
9.71048e-17
9.71112e-17
9.71168e-17
9.71229e-17
9.71291e-17
9.71352e-17
9.71414e-17
9.71476e-17
9.71537e-17
9.71598e-17
9.71658e-17
9.71718e-17
9.71781e-17
9.71832e-17
9.71234e-17
9.71287e-17
9.71343e-17
9.71401e-17
9.71462e-17
9.71521e-17
9.71581e-17
9.71641e-17
9.71701e-17
9.71761e-17
9.71821e-17
9.71882e-17
9.71946e-17
9.72015e-17
9.6576e-17
9.65768e-17
9.65789e-17
9.65812e-17
9.65835e-17
9.65858e-17
9.6588e-17
9.65904e-17
9.65927e-17
9.65952e-17
9.65974e-17
9.65998e-17
9.6602e-17
9.6605e-17
9.65873e-17
9.65878e-17
9.659e-17
9.6592e-17
9.65942e-17
9.65963e-17
9.65985e-17
9.66007e-17
9.6603e-17
9.66053e-17
9.66075e-17
9.66097e-17
9.66116e-17
9.66148e-17
9.65981e-17
9.65988e-17
9.66011e-17
9.6603e-17
9.6605e-17
9.6607e-17
9.6609e-17
9.6611e-17
9.66131e-17
9.66152e-17
9.66172e-17
9.66192e-17
9.66208e-17
9.66237e-17
9.66095e-17
9.66104e-17
9.66124e-17
9.66141e-17
9.6616e-17
9.66178e-17
9.66196e-17
9.66214e-17
9.66234e-17
9.66253e-17
9.66273e-17
9.66291e-17
9.66307e-17
9.66331e-17
9.66208e-17
9.66219e-17
9.66238e-17
9.66254e-17
9.66271e-17
9.66288e-17
9.66305e-17
9.66322e-17
9.66339e-17
9.66357e-17
9.66375e-17
9.66393e-17
9.66408e-17
9.66427e-17
9.66325e-17
9.66338e-17
9.66355e-17
9.6637e-17
9.66385e-17
9.664e-17
9.66416e-17
9.66432e-17
9.66449e-17
9.66466e-17
9.66483e-17
9.66499e-17
9.66515e-17
9.6653e-17
9.66442e-17
9.66457e-17
9.66472e-17
9.66486e-17
9.66501e-17
9.66516e-17
9.66531e-17
9.66546e-17
9.66562e-17
9.66578e-17
9.66594e-17
9.66609e-17
9.66624e-17
9.66636e-17
9.6656e-17
9.66576e-17
9.6659e-17
9.66604e-17
9.66618e-17
9.66632e-17
9.66647e-17
9.66662e-17
9.66677e-17
9.66693e-17
9.66709e-17
9.66723e-17
9.66738e-17
9.66748e-17
9.66676e-17
9.66694e-17
9.66707e-17
9.66721e-17
9.66735e-17
9.66749e-17
9.66764e-17
9.66779e-17
9.66794e-17
9.6681e-17
9.66826e-17
9.6684e-17
9.66855e-17
9.66863e-17
9.66792e-17
9.66811e-17
9.66823e-17
9.66837e-17
9.66851e-17
9.66865e-17
9.6688e-17
9.66896e-17
9.66912e-17
9.66927e-17
9.66944e-17
9.66959e-17
9.66975e-17
9.6698e-17
9.66905e-17
9.66926e-17
9.66938e-17
9.66952e-17
9.66966e-17
9.66981e-17
9.66997e-17
9.67013e-17
9.67029e-17
9.67045e-17
9.67063e-17
9.67079e-17
9.67094e-17
9.67096e-17
9.67018e-17
9.6704e-17
9.67051e-17
9.67065e-17
9.6708e-17
9.67096e-17
9.67112e-17
9.67129e-17
9.67147e-17
9.67164e-17
9.67183e-17
9.67201e-17
9.67217e-17
9.67218e-17
9.67129e-17
9.67149e-17
9.67162e-17
9.67177e-17
9.67193e-17
9.67209e-17
9.67227e-17
9.67245e-17
9.67264e-17
9.67283e-17
9.67303e-17
9.67322e-17
9.67336e-17
9.67339e-17
9.67251e-17
9.67263e-17
9.67273e-17
9.67288e-17
9.67304e-17
9.67322e-17
9.67341e-17
9.67361e-17
9.67382e-17
9.67403e-17
9.67423e-17
9.67444e-17
9.67462e-17
9.67479e-17
9.62689e-17
9.62686e-17
9.62682e-17
9.62679e-17
9.62674e-17
9.6267e-17
9.62665e-17
9.6266e-17
9.62654e-17
9.62648e-17
9.62639e-17
9.62631e-17
9.62618e-17
9.62614e-17
9.62767e-17
9.62756e-17
9.62752e-17
9.62747e-17
9.62742e-17
9.62736e-17
9.62731e-17
9.62724e-17
9.62717e-17
9.62709e-17
9.62699e-17
9.62688e-17
9.62675e-17
9.62669e-17
9.62833e-17
9.62822e-17
9.6282e-17
9.62815e-17
9.62809e-17
9.62803e-17
9.62796e-17
9.62788e-17
9.6278e-17
9.6277e-17
9.62758e-17
9.62745e-17
9.62729e-17
9.62722e-17
9.62902e-17
9.62891e-17
9.62888e-17
9.62882e-17
9.62875e-17
9.62868e-17
9.6286e-17
9.62851e-17
9.62841e-17
9.6283e-17
9.62816e-17
9.62802e-17
9.62784e-17
9.62774e-17
9.62966e-17
9.62958e-17
9.62954e-17
9.62948e-17
9.6294e-17
9.62932e-17
9.62923e-17
9.62913e-17
9.62902e-17
9.6289e-17
9.62875e-17
9.62859e-17
9.6284e-17
9.62826e-17
9.63031e-17
9.63024e-17
9.63019e-17
9.63012e-17
9.63004e-17
9.62995e-17
9.62985e-17
9.62975e-17
9.62963e-17
9.62949e-17
9.62933e-17
9.62916e-17
9.62896e-17
9.62879e-17
9.63093e-17
9.63087e-17
9.63081e-17
9.63073e-17
9.63064e-17
9.63055e-17
9.63045e-17
9.63034e-17
9.63022e-17
9.63007e-17
9.62991e-17
9.62972e-17
9.62952e-17
9.62932e-17
9.63153e-17
9.63147e-17
9.6314e-17
9.63132e-17
9.63123e-17
9.63113e-17
9.63103e-17
9.63091e-17
9.63078e-17
9.63063e-17
9.63047e-17
9.63028e-17
9.63008e-17
9.62986e-17
9.6321e-17
9.63205e-17
9.63197e-17
9.63188e-17
9.63179e-17
9.63169e-17
9.63158e-17
9.63146e-17
9.63134e-17
9.63119e-17
9.63103e-17
9.63083e-17
9.63064e-17
9.6304e-17
9.63265e-17
9.63259e-17
9.6325e-17
9.63241e-17
9.63232e-17
9.63222e-17
9.63212e-17
9.632e-17
9.63188e-17
9.63173e-17
9.63157e-17
9.63138e-17
9.63119e-17
9.63094e-17
9.63316e-17
9.6331e-17
9.63302e-17
9.63292e-17
9.63284e-17
9.63274e-17
9.63265e-17
9.63253e-17
9.63242e-17
9.63227e-17
9.63212e-17
9.63193e-17
9.63176e-17
9.63149e-17
9.63365e-17
9.6336e-17
9.63351e-17
9.63342e-17
9.63334e-17
9.63325e-17
9.63317e-17
9.63307e-17
9.63296e-17
9.63283e-17
9.63269e-17
9.6325e-17
9.63233e-17
9.63207e-17
9.63413e-17
9.63408e-17
9.634e-17
9.63391e-17
9.63384e-17
9.63377e-17
9.6337e-17
9.63361e-17
9.63352e-17
9.63339e-17
9.63326e-17
9.63308e-17
9.63292e-17
9.63267e-17
9.63462e-17
9.63454e-17
9.63446e-17
9.63439e-17
9.63434e-17
9.63428e-17
9.63423e-17
9.63416e-17
9.63409e-17
9.63399e-17
9.63387e-17
9.6337e-17
9.63355e-17
9.63335e-17
9.59645e-17
9.59632e-17
9.59618e-17
9.59602e-17
9.59587e-17
9.5957e-17
9.59551e-17
9.59531e-17
9.59509e-17
9.59484e-17
9.59458e-17
9.5943e-17
9.59402e-17
9.59376e-17
9.59685e-17
9.59669e-17
9.59655e-17
9.5964e-17
9.59624e-17
9.59607e-17
9.59588e-17
9.59566e-17
9.59542e-17
9.59516e-17
9.59488e-17
9.59458e-17
9.59428e-17
9.59401e-17
9.59718e-17
9.59704e-17
9.59691e-17
9.59676e-17
9.59659e-17
9.59642e-17
9.59622e-17
9.596e-17
9.59576e-17
9.59549e-17
9.5952e-17
9.5949e-17
9.59457e-17
9.59429e-17
9.5975e-17
9.59736e-17
9.59723e-17
9.59708e-17
9.59692e-17
9.59674e-17
9.59655e-17
9.59632e-17
9.59607e-17
9.5958e-17
9.5955e-17
9.59518e-17
9.59485e-17
9.59455e-17
9.59779e-17
9.59765e-17
9.59752e-17
9.59738e-17
9.59722e-17
9.59704e-17
9.59684e-17
9.59661e-17
9.59636e-17
9.59608e-17
9.59577e-17
9.59545e-17
9.59511e-17
9.59479e-17
9.59803e-17
9.59791e-17
9.59778e-17
9.59763e-17
9.59747e-17
9.59729e-17
9.59709e-17
9.59686e-17
9.59661e-17
9.59632e-17
9.59602e-17
9.59569e-17
9.59534e-17
9.59501e-17
9.59825e-17
9.59813e-17
9.598e-17
9.59785e-17
9.59769e-17
9.59751e-17
9.59731e-17
9.59708e-17
9.59682e-17
9.59653e-17
9.59623e-17
9.59589e-17
9.59555e-17
9.5952e-17
9.59843e-17
9.59831e-17
9.59818e-17
9.59803e-17
9.59787e-17
9.59768e-17
9.59748e-17
9.59725e-17
9.597e-17
9.59671e-17
9.5964e-17
9.59607e-17
9.59572e-17
9.59536e-17
9.59858e-17
9.59846e-17
9.59832e-17
9.59817e-17
9.59801e-17
9.59783e-17
9.59763e-17
9.5974e-17
9.59714e-17
9.59686e-17
9.59655e-17
9.59621e-17
9.59587e-17
9.5955e-17
9.5987e-17
9.59857e-17
9.59844e-17
9.59829e-17
9.59812e-17
9.59794e-17
9.59775e-17
9.59752e-17
9.59726e-17
9.59698e-17
9.59667e-17
9.59634e-17
9.59599e-17
9.59563e-17
9.59878e-17
9.59865e-17
9.59852e-17
9.59837e-17
9.59821e-17
9.59804e-17
9.59784e-17
9.59762e-17
9.59737e-17
9.59709e-17
9.59679e-17
9.59645e-17
9.59611e-17
9.59574e-17
9.59884e-17
9.59871e-17
9.59858e-17
9.59843e-17
9.59829e-17
9.59812e-17
9.59793e-17
9.59771e-17
9.59747e-17
9.59719e-17
9.59689e-17
9.59656e-17
9.59623e-17
9.59584e-17
9.59889e-17
9.59875e-17
9.59863e-17
9.59849e-17
9.59835e-17
9.59819e-17
9.59801e-17
9.5978e-17
9.59757e-17
9.59729e-17
9.597e-17
9.59667e-17
9.59635e-17
9.59597e-17
9.59889e-17
9.59876e-17
9.59865e-17
9.59853e-17
9.59841e-17
9.59826e-17
9.5981e-17
9.5979e-17
9.59768e-17
9.59742e-17
9.59714e-17
9.59681e-17
9.59649e-17
9.59611e-17
9.56547e-17
9.5653e-17
9.56512e-17
9.56495e-17
9.56476e-17
9.56456e-17
9.56435e-17
9.56411e-17
9.56385e-17
9.56357e-17
9.56329e-17
9.56298e-17
9.5627e-17
9.56237e-17
9.56558e-17
9.56539e-17
9.56524e-17
9.56508e-17
9.5649e-17
9.56471e-17
9.56449e-17
9.56424e-17
9.56397e-17
9.56367e-17
9.56337e-17
9.56306e-17
9.56276e-17
9.56247e-17
9.56566e-17
9.5655e-17
9.56535e-17
9.56519e-17
9.56501e-17
9.56481e-17
9.56459e-17
9.56435e-17
9.56408e-17
9.56379e-17
9.56349e-17
9.56317e-17
9.56286e-17
9.56256e-17
9.56572e-17
9.56558e-17
9.56543e-17
9.56527e-17
9.5651e-17
9.56491e-17
9.56469e-17
9.56444e-17
9.56417e-17
9.56388e-17
9.56358e-17
9.56326e-17
9.56294e-17
9.56264e-17
9.56576e-17
9.56562e-17
9.56548e-17
9.56533e-17
9.56516e-17
9.56497e-17
9.56475e-17
9.56451e-17
9.56424e-17
9.56395e-17
9.56365e-17
9.56333e-17
9.56301e-17
9.5627e-17
9.56576e-17
9.56563e-17
9.5655e-17
9.56535e-17
9.56518e-17
9.56499e-17
9.56478e-17
9.56454e-17
9.56428e-17
9.56399e-17
9.56369e-17
9.56337e-17
9.56305e-17
9.56272e-17
9.56574e-17
9.56562e-17
9.56548e-17
9.56534e-17
9.56517e-17
9.56499e-17
9.56478e-17
9.56454e-17
9.56428e-17
9.56399e-17
9.56369e-17
9.56337e-17
9.56305e-17
9.56272e-17
9.56569e-17
9.56557e-17
9.56544e-17
9.5653e-17
9.56514e-17
9.56496e-17
9.56475e-17
9.56451e-17
9.56425e-17
9.56397e-17
9.56367e-17
9.56335e-17
9.56303e-17
9.5627e-17
9.56562e-17
9.5655e-17
9.56537e-17
9.56523e-17
9.56508e-17
9.5649e-17
9.56469e-17
9.56446e-17
9.5642e-17
9.56392e-17
9.56362e-17
9.5633e-17
9.56298e-17
9.56265e-17
9.56552e-17
9.5654e-17
9.56528e-17
9.56515e-17
9.56499e-17
9.56481e-17
9.56461e-17
9.56438e-17
9.56412e-17
9.56384e-17
9.56354e-17
9.56323e-17
9.5629e-17
9.56257e-17
9.56541e-17
9.56529e-17
9.56518e-17
9.56504e-17
9.56489e-17
9.56471e-17
9.56451e-17
9.56428e-17
9.56402e-17
9.56374e-17
9.56344e-17
9.56313e-17
9.5628e-17
9.56249e-17
9.56528e-17
9.56516e-17
9.56505e-17
9.56492e-17
9.56477e-17
9.5646e-17
9.56439e-17
9.56417e-17
9.56391e-17
9.56363e-17
9.56334e-17
9.56303e-17
9.5627e-17
9.56238e-17
9.56515e-17
9.56502e-17
9.56491e-17
9.56479e-17
9.56464e-17
9.56447e-17
9.56427e-17
9.56405e-17
9.56379e-17
9.56351e-17
9.56322e-17
9.5629e-17
9.56259e-17
9.56226e-17
9.56498e-17
9.56487e-17
9.56476e-17
9.56464e-17
9.5645e-17
9.56433e-17
9.56414e-17
9.56392e-17
9.56367e-17
9.5634e-17
9.56312e-17
9.56281e-17
9.56251e-17
9.56217e-17
9.5345e-17
9.53429e-17
9.53411e-17
9.53393e-17
9.53376e-17
9.53358e-17
9.53339e-17
9.5332e-17
9.53301e-17
9.53281e-17
9.53263e-17
9.53244e-17
9.53226e-17
9.53207e-17
9.5344e-17
9.53421e-17
9.53404e-17
9.53388e-17
9.53371e-17
9.53353e-17
9.53335e-17
9.53315e-17
9.53295e-17
9.53275e-17
9.53256e-17
9.53237e-17
9.53218e-17
9.53201e-17
9.53431e-17
9.53413e-17
9.53397e-17
9.53381e-17
9.53364e-17
9.53347e-17
9.53328e-17
9.53309e-17
9.5329e-17
9.5327e-17
9.53251e-17
9.53232e-17
9.53214e-17
9.53196e-17
9.53421e-17
9.53405e-17
9.53389e-17
9.53374e-17
9.53357e-17
9.5334e-17
9.53322e-17
9.53304e-17
9.53284e-17
9.53265e-17
9.53246e-17
9.53227e-17
9.53209e-17
9.5319e-17
9.53411e-17
9.53396e-17
9.53381e-17
9.53366e-17
9.5335e-17
9.53333e-17
9.53315e-17
9.53297e-17
9.53278e-17
9.53259e-17
9.5324e-17
9.53221e-17
9.53203e-17
9.53185e-17
9.53401e-17
9.53386e-17
9.53372e-17
9.53357e-17
9.53341e-17
9.53325e-17
9.53308e-17
9.5329e-17
9.53271e-17
9.53252e-17
9.53233e-17
9.53214e-17
9.53196e-17
9.53178e-17
9.53389e-17
9.53376e-17
9.53361e-17
9.53347e-17
9.53332e-17
9.53316e-17
9.53299e-17
9.53281e-17
9.53263e-17
9.53244e-17
9.53225e-17
9.53206e-17
9.53188e-17
9.5317e-17
9.53377e-17
9.53364e-17
9.5335e-17
9.53337e-17
9.53322e-17
9.53306e-17
9.5329e-17
9.53272e-17
9.53253e-17
9.53235e-17
9.53216e-17
9.53197e-17
9.53179e-17
9.53161e-17
9.53365e-17
9.53352e-17
9.53339e-17
9.53326e-17
9.53311e-17
9.53296e-17
9.53279e-17
9.53262e-17
9.53243e-17
9.53225e-17
9.53206e-17
9.53187e-17
9.53168e-17
9.53151e-17
9.53352e-17
9.5334e-17
9.53327e-17
9.53314e-17
9.533e-17
9.53285e-17
9.53268e-17
9.53251e-17
9.53232e-17
9.53214e-17
9.53195e-17
9.53176e-17
9.53157e-17
9.5314e-17
9.53341e-17
9.53328e-17
9.53315e-17
9.53302e-17
9.53288e-17
9.53273e-17
9.53256e-17
9.53239e-17
9.53221e-17
9.53202e-17
9.53183e-17
9.53164e-17
9.53145e-17
9.53129e-17
9.53329e-17
9.53315e-17
9.53303e-17
9.5329e-17
9.53276e-17
9.53261e-17
9.53244e-17
9.53227e-17
9.53208e-17
9.5319e-17
9.53171e-17
9.53152e-17
9.53134e-17
9.53117e-17
9.53319e-17
9.53303e-17
9.53292e-17
9.53279e-17
9.53265e-17
9.53249e-17
9.53233e-17
9.53215e-17
9.53196e-17
9.53177e-17
9.53158e-17
9.53139e-17
9.53121e-17
9.53105e-17
9.53308e-17
9.53295e-17
9.53282e-17
9.53268e-17
9.53253e-17
9.53237e-17
9.5322e-17
9.53202e-17
9.53184e-17
9.53166e-17
9.53147e-17
9.53129e-17
9.53112e-17
9.53092e-17
9.50497e-17
9.50473e-17
9.50453e-17
9.50435e-17
9.50419e-17
9.50405e-17
9.50392e-17
9.50382e-17
9.50373e-17
9.50366e-17
9.50361e-17
9.50358e-17
9.50357e-17
9.50357e-17
9.50475e-17
9.50453e-17
9.50435e-17
9.50417e-17
9.50401e-17
9.50386e-17
9.50374e-17
9.50363e-17
9.50354e-17
9.50347e-17
9.50343e-17
9.5034e-17
9.50338e-17
9.50337e-17
9.50456e-17
9.50436e-17
9.50416e-17
9.50398e-17
9.50382e-17
9.50368e-17
9.50356e-17
9.50345e-17
9.50337e-17
9.5033e-17
9.50327e-17
9.50324e-17
9.50323e-17
9.50322e-17
9.50439e-17
9.5042e-17
9.504e-17
9.50382e-17
9.50366e-17
9.50352e-17
9.5034e-17
9.5033e-17
9.50321e-17
9.50315e-17
9.50312e-17
9.5031e-17
9.5031e-17
9.50308e-17
9.50425e-17
9.50405e-17
9.50385e-17
9.50368e-17
9.50352e-17
9.50338e-17
9.50326e-17
9.50316e-17
9.50308e-17
9.50302e-17
9.50299e-17
9.50297e-17
9.50297e-17
9.50296e-17
9.50412e-17
9.50392e-17
9.50373e-17
9.50355e-17
9.5034e-17
9.50326e-17
9.50314e-17
9.50304e-17
9.50296e-17
9.5029e-17
9.50287e-17
9.50286e-17
9.50286e-17
9.50286e-17
9.50401e-17
9.50381e-17
9.50362e-17
9.50345e-17
9.50329e-17
9.50315e-17
9.50304e-17
9.50294e-17
9.50286e-17
9.5028e-17
9.50277e-17
9.50276e-17
9.50276e-17
9.50277e-17
9.50391e-17
9.50372e-17
9.50354e-17
9.50337e-17
9.50321e-17
9.50308e-17
9.50296e-17
9.50286e-17
9.50278e-17
9.50272e-17
9.50269e-17
9.50268e-17
9.50268e-17
9.5027e-17
9.50384e-17
9.50365e-17
9.50347e-17
9.5033e-17
9.50315e-17
9.50302e-17
9.5029e-17
9.5028e-17
9.50272e-17
9.50266e-17
9.50263e-17
9.50261e-17
9.50261e-17
9.50263e-17
9.50378e-17
9.5036e-17
9.50342e-17
9.50326e-17
9.50311e-17
9.50298e-17
9.50286e-17
9.50276e-17
9.50268e-17
9.50261e-17
9.50258e-17
9.50256e-17
9.50256e-17
9.50258e-17
9.50375e-17
9.50358e-17
9.5034e-17
9.50324e-17
9.50309e-17
9.50296e-17
9.50284e-17
9.50274e-17
9.50265e-17
9.50259e-17
9.50255e-17
9.50253e-17
9.50253e-17
9.50255e-17
9.50375e-17
9.50357e-17
9.5034e-17
9.50324e-17
9.50309e-17
9.50295e-17
9.50283e-17
9.50273e-17
9.50264e-17
9.50258e-17
9.50254e-17
9.50252e-17
9.50251e-17
9.50253e-17
9.50377e-17
9.50357e-17
9.50341e-17
9.50325e-17
9.5031e-17
9.50297e-17
9.50284e-17
9.50274e-17
9.50265e-17
9.50258e-17
9.50253e-17
9.50251e-17
9.50249e-17
9.50252e-17
9.50382e-17
9.50361e-17
9.50343e-17
9.50327e-17
9.50312e-17
9.50298e-17
9.50286e-17
9.50275e-17
9.50266e-17
9.50259e-17
9.50254e-17
9.50252e-17
9.50251e-17
9.50253e-17
9.47824e-17
9.47798e-17
9.47777e-17
9.47759e-17
9.47745e-17
9.47734e-17
9.47727e-17
9.47723e-17
9.47723e-17
9.47726e-17
9.47731e-17
9.47738e-17
9.47748e-17
9.47761e-17
9.47799e-17
9.47775e-17
9.47755e-17
9.47736e-17
9.47721e-17
9.4771e-17
9.47702e-17
9.47698e-17
9.47698e-17
9.47701e-17
9.47707e-17
9.47715e-17
9.47724e-17
9.47735e-17
9.47778e-17
9.47754e-17
9.47732e-17
9.47713e-17
9.47698e-17
9.47686e-17
9.47678e-17
9.47674e-17
9.47674e-17
9.47678e-17
9.47684e-17
9.47693e-17
9.47705e-17
9.47716e-17
9.47759e-17
9.47736e-17
9.47713e-17
9.47694e-17
9.47678e-17
9.47666e-17
9.47658e-17
9.47654e-17
9.47654e-17
9.47658e-17
9.47665e-17
9.47675e-17
9.47687e-17
9.47699e-17
9.47745e-17
9.47721e-17
9.47697e-17
9.47678e-17
9.47661e-17
9.47649e-17
9.47641e-17
9.47637e-17
9.47638e-17
9.47642e-17
9.47649e-17
9.4766e-17
9.47673e-17
9.47687e-17
9.47733e-17
9.47709e-17
9.47685e-17
9.47666e-17
9.47649e-17
9.47637e-17
9.47628e-17
9.47625e-17
9.47625e-17
9.4763e-17
9.47638e-17
9.47649e-17
9.47663e-17
9.47677e-17
9.47725e-17
9.47701e-17
9.47677e-17
9.47657e-17
9.47641e-17
9.47628e-17
9.4762e-17
9.47616e-17
9.47617e-17
9.47621e-17
9.4763e-17
9.47641e-17
9.47655e-17
9.47671e-17
9.4772e-17
9.47696e-17
9.47673e-17
9.47653e-17
9.47637e-17
9.47624e-17
9.47616e-17
9.47612e-17
9.47613e-17
9.47617e-17
9.47626e-17
9.47637e-17
9.47652e-17
9.47668e-17
9.4772e-17
9.47696e-17
9.47673e-17
9.47654e-17
9.47637e-17
9.47625e-17
9.47617e-17
9.47612e-17
9.47613e-17
9.47617e-17
9.47626e-17
9.47637e-17
9.47652e-17
9.47668e-17
9.47722e-17
9.477e-17
9.47677e-17
9.47658e-17
9.47642e-17
9.47629e-17
9.47621e-17
9.47617e-17
9.47617e-17
9.47621e-17
9.47629e-17
9.4764e-17
9.47655e-17
9.4767e-17
9.47728e-17
9.47706e-17
9.47685e-17
9.47666e-17
9.4765e-17
9.47638e-17
9.47629e-17
9.47625e-17
9.47624e-17
9.47628e-17
9.47635e-17
9.47646e-17
9.4766e-17
9.47675e-17
9.47738e-17
9.47716e-17
9.47695e-17
9.47677e-17
9.47662e-17
9.47649e-17
9.47641e-17
9.47636e-17
9.47635e-17
9.47638e-17
9.47644e-17
9.47654e-17
9.47668e-17
9.47683e-17
9.4775e-17
9.47729e-17
9.47709e-17
9.47692e-17
9.47677e-17
9.47664e-17
9.47655e-17
9.4765e-17
9.47648e-17
9.47651e-17
9.47657e-17
9.47666e-17
9.47677e-17
9.47692e-17
9.47768e-17
9.47744e-17
9.47724e-17
9.47707e-17
9.47692e-17
9.4768e-17
9.47671e-17
9.47665e-17
9.47663e-17
9.47664e-17
9.47669e-17
9.47677e-17
9.47689e-17
9.47705e-17
9.45477e-17
9.45455e-17
9.45437e-17
9.45422e-17
9.45411e-17
9.45403e-17
9.45399e-17
9.45398e-17
9.454e-17
9.45405e-17
9.45412e-17
9.45423e-17
9.45435e-17
9.4545e-17
9.45457e-17
9.45437e-17
9.45418e-17
9.45403e-17
9.4539e-17
9.45382e-17
9.45377e-17
9.45375e-17
9.45377e-17
9.45383e-17
9.45391e-17
9.45402e-17
9.45414e-17
9.45427e-17
9.45439e-17
9.45419e-17
9.45399e-17
9.45383e-17
9.4537e-17
9.45361e-17
9.45356e-17
9.45354e-17
9.45357e-17
9.45362e-17
9.45371e-17
9.45382e-17
9.45397e-17
9.4541e-17
9.45424e-17
9.45404e-17
9.45383e-17
9.45367e-17
9.45354e-17
9.45344e-17
9.45339e-17
9.45337e-17
9.4534e-17
9.45346e-17
9.45355e-17
9.45367e-17
9.45381e-17
9.45396e-17
9.45413e-17
9.45392e-17
9.45371e-17
9.45354e-17
9.4534e-17
9.45331e-17
9.45325e-17
9.45323e-17
9.45326e-17
9.45332e-17
9.45342e-17
9.45354e-17
9.4537e-17
9.45386e-17
9.45405e-17
9.45383e-17
9.45362e-17
9.45345e-17
9.45331e-17
9.45321e-17
9.45316e-17
9.45314e-17
9.45317e-17
9.45323e-17
9.45333e-17
9.45346e-17
9.45362e-17
9.45379e-17
9.454e-17
9.45377e-17
9.45357e-17
9.45339e-17
9.45326e-17
9.45316e-17
9.4531e-17
9.45308e-17
9.45311e-17
9.45318e-17
9.45328e-17
9.45342e-17
9.45358e-17
9.45376e-17
9.45399e-17
9.45376e-17
9.45356e-17
9.45338e-17
9.45325e-17
9.45315e-17
9.45309e-17
9.45307e-17
9.4531e-17
9.45317e-17
9.45328e-17
9.45341e-17
9.45358e-17
9.45377e-17
9.45401e-17
9.4538e-17
9.45359e-17
9.45342e-17
9.45328e-17
9.45318e-17
9.45312e-17
9.4531e-17
9.45313e-17
9.4532e-17
9.45331e-17
9.45345e-17
9.45362e-17
9.45381e-17
9.45407e-17
9.45386e-17
9.45366e-17
9.45349e-17
9.45336e-17
9.45326e-17
9.4532e-17
9.45318e-17
9.4532e-17
9.45327e-17
9.45338e-17
9.45351e-17
9.45369e-17
9.45387e-17
9.45416e-17
9.45397e-17
9.45377e-17
9.4536e-17
9.45347e-17
9.45337e-17
9.45331e-17
9.45329e-17
9.45331e-17
9.45337e-17
9.45348e-17
9.45361e-17
9.45378e-17
9.45396e-17
9.45429e-17
9.4541e-17
9.45391e-17
9.45375e-17
9.45361e-17
9.45352e-17
9.45345e-17
9.45343e-17
9.45345e-17
9.45351e-17
9.4536e-17
9.45373e-17
9.4539e-17
9.45407e-17
9.45445e-17
9.45426e-17
9.45409e-17
9.45393e-17
9.4538e-17
9.4537e-17
9.45363e-17
9.4536e-17
9.45361e-17
9.45367e-17
9.45376e-17
9.45388e-17
9.45403e-17
9.4542e-17
9.45465e-17
9.45444e-17
9.45426e-17
9.45411e-17
9.45398e-17
9.45389e-17
9.45382e-17
9.45379e-17
9.45379e-17
9.45383e-17
9.45391e-17
9.45402e-17
9.45416e-17
9.45435e-17
9.43419e-17
9.43408e-17
9.43398e-17
9.4339e-17
9.43383e-17
9.43379e-17
9.43375e-17
9.43374e-17
9.43374e-17
9.43376e-17
9.4338e-17
9.43385e-17
9.43392e-17
9.43399e-17
9.43409e-17
9.43399e-17
9.43389e-17
9.43381e-17
9.43373e-17
9.43368e-17
9.43364e-17
9.43363e-17
9.43363e-17
9.43365e-17
9.43369e-17
9.43375e-17
9.43382e-17
9.43388e-17
9.434e-17
9.4339e-17
9.43379e-17
9.43371e-17
9.43363e-17
9.43358e-17
9.43355e-17
9.43353e-17
9.43353e-17
9.43355e-17
9.43359e-17
9.43365e-17
9.43372e-17
9.43379e-17
9.43392e-17
9.43382e-17
9.43372e-17
9.43363e-17
9.43356e-17
9.4335e-17
9.43347e-17
9.43345e-17
9.43345e-17
9.43347e-17
9.43351e-17
9.43357e-17
9.43364e-17
9.43371e-17
9.43387e-17
9.43376e-17
9.43365e-17
9.43357e-17
9.43349e-17
9.43344e-17
9.4334e-17
9.43339e-17
9.43339e-17
9.43341e-17
9.43345e-17
9.43351e-17
9.43358e-17
9.43366e-17
9.43383e-17
9.43372e-17
9.43361e-17
9.43353e-17
9.43345e-17
9.4334e-17
9.43336e-17
9.43334e-17
9.43335e-17
9.43337e-17
9.43341e-17
9.43347e-17
9.43355e-17
9.43363e-17
9.43381e-17
9.4337e-17
9.43359e-17
9.4335e-17
9.43343e-17
9.43337e-17
9.43334e-17
9.43332e-17
9.43333e-17
9.43335e-17
9.43339e-17
9.43345e-17
9.43353e-17
9.43362e-17
9.43382e-17
9.4337e-17
9.4336e-17
9.43351e-17
9.43343e-17
9.43337e-17
9.43334e-17
9.43332e-17
9.43333e-17
9.43335e-17
9.4334e-17
9.43346e-17
9.43354e-17
9.43363e-17
9.43384e-17
9.43372e-17
9.43362e-17
9.43353e-17
9.43345e-17
9.4334e-17
9.43336e-17
9.43334e-17
9.43335e-17
9.43338e-17
9.43342e-17
9.43349e-17
9.43357e-17
9.43366e-17
9.43388e-17
9.43377e-17
9.43366e-17
9.43357e-17
9.4335e-17
9.43344e-17
9.4334e-17
9.43338e-17
9.43339e-17
9.43342e-17
9.43346e-17
9.43353e-17
9.43362e-17
9.4337e-17
9.43394e-17
9.43384e-17
9.43373e-17
9.43364e-17
9.43356e-17
9.4335e-17
9.43346e-17
9.43345e-17
9.43345e-17
9.43348e-17
9.43352e-17
9.43359e-17
9.43368e-17
9.43376e-17
9.43402e-17
9.43392e-17
9.43381e-17
9.43372e-17
9.43364e-17
9.43358e-17
9.43354e-17
9.43352e-17
9.43353e-17
9.43355e-17
9.4336e-17
9.43366e-17
9.43376e-17
9.43384e-17
9.43411e-17
9.43402e-17
9.43391e-17
9.43382e-17
9.43374e-17
9.43367e-17
9.43363e-17
9.43361e-17
9.43362e-17
9.43364e-17
9.43369e-17
9.43376e-17
9.43384e-17
9.43392e-17
9.43422e-17
9.43411e-17
9.434e-17
9.43391e-17
9.43383e-17
9.43378e-17
9.43374e-17
9.43372e-17
9.43372e-17
9.43374e-17
9.43377e-17
9.43384e-17
9.43391e-17
9.43401e-17
9.41582e-17
9.41583e-17
9.41583e-17
9.41583e-17
9.41583e-17
9.41582e-17
9.41579e-17
9.41577e-17
9.41575e-17
9.41572e-17
9.41569e-17
9.41566e-17
9.41564e-17
9.41561e-17
9.41584e-17
9.41586e-17
9.41585e-17
9.41585e-17
9.41585e-17
9.41584e-17
9.41582e-17
9.41579e-17
9.41577e-17
9.41574e-17
9.41571e-17
9.41568e-17
9.41566e-17
9.41562e-17
9.41584e-17
9.41586e-17
9.41586e-17
9.41587e-17
9.41587e-17
9.41586e-17
9.41584e-17
9.41582e-17
9.41579e-17
9.41576e-17
9.41573e-17
9.41569e-17
9.41566e-17
9.41562e-17
9.41585e-17
9.41587e-17
9.41588e-17
9.41588e-17
9.41588e-17
9.41588e-17
9.41586e-17
9.41584e-17
9.41581e-17
9.41578e-17
9.41574e-17
9.4157e-17
9.41567e-17
9.41563e-17
9.41586e-17
9.41588e-17
9.41589e-17
9.4159e-17
9.4159e-17
9.41589e-17
9.41587e-17
9.41585e-17
9.41582e-17
9.41579e-17
9.41575e-17
9.41571e-17
9.41567e-17
9.41563e-17
9.41587e-17
9.41588e-17
9.4159e-17
9.4159e-17
9.4159e-17
9.4159e-17
9.41588e-17
9.41586e-17
9.41583e-17
9.4158e-17
9.41576e-17
9.41572e-17
9.41567e-17
9.41563e-17
9.41587e-17
9.41589e-17
9.4159e-17
9.41591e-17
9.41591e-17
9.4159e-17
9.41589e-17
9.41586e-17
9.41583e-17
9.4158e-17
9.41576e-17
9.41572e-17
9.41567e-17
9.41563e-17
9.41588e-17
9.41589e-17
9.4159e-17
9.41591e-17
9.41591e-17
9.4159e-17
9.41589e-17
9.41586e-17
9.41583e-17
9.4158e-17
9.41576e-17
9.41572e-17
9.41567e-17
9.41562e-17
9.41588e-17
9.41589e-17
9.4159e-17
9.4159e-17
9.4159e-17
9.41589e-17
9.41588e-17
9.41585e-17
9.41582e-17
9.41579e-17
9.41575e-17
9.41571e-17
9.41566e-17
9.41562e-17
9.41587e-17
9.41588e-17
9.41589e-17
9.41589e-17
9.41589e-17
9.41588e-17
9.41586e-17
9.41584e-17
9.41581e-17
9.41578e-17
9.41574e-17
9.4157e-17
9.41566e-17
9.41562e-17
9.41587e-17
9.41587e-17
9.41587e-17
9.41587e-17
9.41587e-17
9.41586e-17
9.41584e-17
9.41582e-17
9.41579e-17
9.41576e-17
9.41573e-17
9.41569e-17
9.41566e-17
9.41561e-17
9.41586e-17
9.41586e-17
9.41585e-17
9.41585e-17
9.41584e-17
9.41583e-17
9.41582e-17
9.41579e-17
9.41577e-17
9.41574e-17
9.41571e-17
9.41568e-17
9.41565e-17
9.4156e-17
9.41584e-17
9.41585e-17
9.41584e-17
9.41583e-17
9.41582e-17
9.4158e-17
9.41578e-17
9.41576e-17
9.41574e-17
9.41572e-17
9.41569e-17
9.41567e-17
9.41564e-17
9.4156e-17
9.41582e-17
9.41581e-17
9.4158e-17
9.41579e-17
9.41578e-17
9.41577e-17