/*--------------------------------*- C++ -*----------------------------------*\
| =========                 |                                                 |
| \\      /  F ield         | OpenFOAM: The Open Source CFD Toolbox           |
|  \\    /   O peration     | Version:  v2106                                 |
|   \\  /    A nd           | Website:  www.openfoam.com                      |
|    \\/     M anipulation  |                                                 |
\*---------------------------------------------------------------------------*/
FoamFile
{
    version     2.0;
    format      ascii;
    arch        "LSB;label=32;scalar=64";
    class       volScalarField;
    location    "0.000204";
    object      k;
}
// * * * * * * * * * * * * * * * * * * * * * * * * * * * * * * * * * * * * * //

dimensions      [0 2 -2 0 0 0 0];

internalField   nonuniform List<scalar> 
17924
(
2.933e-12
2.32279e-12
2.19855e-12
2.17541e-12
2.26534e-12
2.18144e-12
2.16435e-12
2.16125e-12
2.16111e-12
2.16177e-12
2.16277e-12
2.30099e-12
2.19003e-12
2.16468e-12
2.15959e-12
2.15871e-12
2.15865e-12
2.15873e-12
2.40279e-12
2.21485e-12
2.16964e-12
2.1601e-12
2.15833e-12
2.15804e-12
2.15801e-12
2.53806e-12
2.2466e-12
2.17588e-12
2.16084e-12
2.15805e-12
2.15761e-12
2.15754e-12
2.68249e-12
2.27744e-12
2.18122e-12
2.16128e-12
2.1577e-12
2.15715e-12
2.15708e-12
2.8259e-12
2.30374e-12
2.18472e-12
2.16125e-12
2.15725e-12
2.15668e-12
2.15661e-12
2.97909e-12
2.32868e-12
2.1873e-12
2.16099e-12
2.15679e-12
2.15623e-12
2.15616e-12
3.14448e-12
2.35375e-12
2.18959e-12
2.16074e-12
2.15647e-12
2.156e-12
2.15598e-12
3.31237e-12
2.37837e-12
2.19211e-12
2.16111e-12
2.15712e-12
2.15709e-12
2.15739e-12
3.48578e-12
2.40587e-12
2.19725e-12
2.16484e-12
2.16276e-12
2.16497e-12
2.16703e-12
3.67792e-12
2.45023e-12
2.21534e-12
2.18426e-12
2.19133e-12
2.20408e-12
2.2145e-12
4.06533e-12
2.58983e-12
2.29186e-12
2.2697e-12
2.31475e-12
2.37193e-12
2.4181e-12
5.30852e-12
3.10181e-12
2.59393e-12
2.60542e-12
2.79119e-12
3.01703e-12
3.20112e-12
9.41419e-12
4.85204e-12
3.68089e-12
3.80043e-12
4.45104e-12
5.25233e-12
5.91688e-12
2.17165e-12
2.1613e-12
2.15931e-12
2.15903e-12
2.15911e-12
2.15928e-12
2.15948e-12
2.15967e-12
2.15979e-12
2.15977e-12
2.1596e-12
2.15945e-12
2.16002e-12
2.16393e-12
2.17675e-12
2.16237e-12
2.15915e-12
2.15856e-12
2.15851e-12
2.15856e-12
2.15862e-12
2.15867e-12
2.15872e-12
2.15876e-12
2.15877e-12
2.15882e-12
2.15947e-12
2.16323e-12
2.19047e-12
2.16552e-12
2.15955e-12
2.15835e-12
2.15817e-12
2.15819e-12
2.15823e-12
2.15827e-12
2.15831e-12
2.15834e-12
2.15835e-12
2.15842e-12
2.15907e-12
2.16274e-12
2.20873e-12
2.16957e-12
2.1601e-12
2.15815e-12
2.15783e-12
2.15783e-12
2.15786e-12
2.1579e-12
2.15792e-12
2.15794e-12
2.15793e-12
2.15797e-12
2.15855e-12
2.1621e-12
2.22804e-12
2.17345e-12
2.1605e-12
2.15788e-12
2.15745e-12
2.15744e-12
2.15747e-12
2.1575e-12
2.15752e-12
2.15754e-12
2.15751e-12
2.15753e-12
2.15805e-12
2.16149e-12
2.24666e-12
2.17658e-12
2.16063e-12
2.15753e-12
2.15705e-12
2.15703e-12
2.15706e-12
2.15709e-12
2.15711e-12
2.15711e-12
2.15708e-12
2.15708e-12
2.15755e-12
2.16085e-12
2.26598e-12
2.17941e-12
2.1606e-12
2.15715e-12
2.15663e-12
2.15661e-12
2.15664e-12
2.15667e-12
2.15668e-12
2.15669e-12
2.15665e-12
2.15666e-12
2.15707e-12
2.1602e-12
2.28633e-12
2.18212e-12
2.16049e-12
2.15674e-12
2.15622e-12
2.15621e-12
2.15624e-12
2.15626e-12
2.15627e-12
2.15627e-12
2.15624e-12
2.15624e-12
2.15663e-12
2.15956e-12
2.30652e-12
2.18466e-12
2.16039e-12
2.15638e-12
2.15589e-12
2.15592e-12
2.15598e-12
2.15602e-12
2.15604e-12
2.15604e-12
2.156e-12
2.15603e-12
2.15644e-12
2.15943e-12
2.32674e-12
2.18738e-12
2.16053e-12
2.15635e-12
2.15606e-12
2.15632e-12
2.15656e-12
2.1567e-12
2.15675e-12
2.15674e-12
2.15669e-12
2.15675e-12
2.15738e-12
2.16135e-12
2.34765e-12
2.1916e-12
2.16196e-12
2.15795e-12
2.15864e-12
2.16001e-12
2.16112e-12
2.16174e-12
2.16197e-12
2.16197e-12
2.16186e-12
2.16201e-12
2.16334e-12
2.17092e-12
2.38767e-12
2.20546e-12
2.16942e-12
2.16652e-12
2.1714e-12
2.17757e-12
2.18243e-12
2.18527e-12
2.18646e-12
2.18662e-12
2.18632e-12
2.18669e-12
2.18969e-12
2.20714e-12
2.51849e-12
2.25837e-12
2.20054e-12
2.20203e-12
2.22279e-12
2.24761e-12
2.26717e-12
2.27927e-12
2.28492e-12
2.28643e-12
2.28589e-12
2.28693e-12
2.29306e-12
2.3322e-12
2.9637e-12
2.44298e-12
2.31477e-12
2.33129e-12
2.40619e-12
2.49629e-12
2.56816e-12
2.615e-12
2.63954e-12
2.64889e-12
2.6499e-12
2.65429e-12
2.66578e-12
2.74573e-12
2.1592e-12
2.15818e-12
2.15809e-12
2.15816e-12
2.15824e-12
2.15834e-12
2.15844e-12
2.15853e-12
2.1586e-12
2.15866e-12
2.15867e-12
2.15864e-12
2.15858e-12
2.15872e-12
2.15975e-12
2.15815e-12
2.15787e-12
2.15787e-12
2.15794e-12
2.15802e-12
2.15809e-12
2.15816e-12
2.15823e-12
2.15829e-12
2.15834e-12
2.15834e-12
2.15832e-12
2.15851e-12
2.16128e-12
2.15832e-12
2.15766e-12
2.1576e-12
2.15765e-12
2.15774e-12
2.15782e-12
2.1579e-12
2.15797e-12
2.15803e-12
2.15807e-12
2.15807e-12
2.15807e-12
2.15829e-12
2.16331e-12
2.15856e-12
2.15747e-12
2.15732e-12
2.15736e-12
2.15745e-12
2.15753e-12
2.15761e-12
2.15767e-12
2.15772e-12
2.15774e-12
2.15773e-12
2.15773e-12
2.15794e-12
2.16542e-12
2.15876e-12
2.15723e-12
2.15701e-12
2.15705e-12
2.15714e-12
2.15723e-12
2.15731e-12
2.15737e-12
2.15741e-12
2.15743e-12
2.15741e-12
2.15738e-12
2.15757e-12
2.16738e-12
2.15884e-12
2.15696e-12
2.15669e-12
2.15673e-12
2.15682e-12
2.1569e-12
2.15698e-12
2.15704e-12
2.15708e-12
2.15709e-12
2.15707e-12
2.15702e-12
2.1572e-12
2.16935e-12
2.15888e-12
2.15667e-12
2.15636e-12
2.15639e-12
2.15648e-12
2.15656e-12
2.15664e-12
2.1567e-12
2.15674e-12
2.15675e-12
2.15673e-12
2.15667e-12
2.15684e-12
2.17137e-12
2.15887e-12
2.15635e-12
2.156e-12
2.15603e-12
2.15612e-12
2.15621e-12
2.15628e-12
2.15634e-12
2.15638e-12
2.15639e-12
2.15637e-12
2.15632e-12
2.15648e-12
2.17331e-12
2.15882e-12
2.15601e-12
2.15564e-12
2.15567e-12
2.15576e-12
2.15585e-12
2.15592e-12
2.15598e-12
2.15602e-12
2.15603e-12
2.15603e-12
2.15599e-12
2.15615e-12
2.17516e-12
2.15874e-12
2.15568e-12
2.15529e-12
2.15534e-12
2.15545e-12
2.15555e-12
2.15563e-12
2.15569e-12
2.15574e-12
2.15576e-12
2.15577e-12
2.15575e-12
2.15599e-12
2.17694e-12
2.15877e-12
2.15545e-12
2.15507e-12
2.15522e-12
2.15543e-12
2.15561e-12
2.15574e-12
2.15582e-12
2.15587e-12
2.1559e-12
2.15593e-12
2.15595e-12
2.15647e-12
2.18032e-12
2.15965e-12
2.15576e-12
2.1555e-12
2.15608e-12
2.15676e-12
2.15731e-12
2.15764e-12
2.15779e-12
2.15782e-12
2.15781e-12
2.15781e-12
2.1579e-12
2.15911e-12
2.19247e-12
2.16425e-12
2.15833e-12
2.15858e-12
2.1608e-12
2.16338e-12
2.16537e-12
2.16653e-12
2.167e-12
2.16702e-12
2.16679e-12
2.16664e-12
2.16673e-12
2.1694e-12
2.23627e-12
2.18172e-12
2.16899e-12
2.1711e-12
2.17911e-12
2.18849e-12
2.19571e-12
2.20005e-12
2.20192e-12
2.20206e-12
2.20124e-12
2.20056e-12
2.20024e-12
2.20542e-12
2.15722e-12
2.15721e-12
2.15726e-12
2.15731e-12
2.15735e-12
2.1574e-12
2.15746e-12
2.15752e-12
2.15759e-12
2.15765e-12
2.15771e-12
2.15772e-12
2.15769e-12
2.15757e-12
2.15712e-12
2.15701e-12
2.157e-12
2.15702e-12
2.15705e-12
2.1571e-12
2.15716e-12
2.15722e-12
2.15729e-12
2.15736e-12
2.15743e-12
2.15745e-12
2.15742e-12
2.15737e-12
2.15709e-12
2.15678e-12
2.15669e-12
2.15671e-12
2.15675e-12
2.15682e-12
2.15689e-12
2.15697e-12
2.15704e-12
2.15711e-12
2.15717e-12
2.15719e-12
2.15719e-12
2.15719e-12
2.15705e-12
2.15651e-12
2.15639e-12
2.15641e-12
2.15646e-12
2.15654e-12
2.15662e-12
2.1567e-12
2.15678e-12
2.15684e-12
2.15689e-12
2.1569e-12
2.15689e-12
2.15689e-12
2.15699e-12
2.15624e-12
2.15609e-12
2.15611e-12
2.15617e-12
2.15626e-12
2.15635e-12
2.15644e-12
2.15652e-12
2.15658e-12
2.15662e-12
2.15663e-12
2.1566e-12
2.15658e-12
2.15692e-12
2.15597e-12
2.15579e-12
2.15582e-12
2.15589e-12
2.15598e-12
2.15608e-12
2.15616e-12
2.15624e-12
2.15631e-12
2.15635e-12
2.15636e-12
2.15632e-12
2.15629e-12
2.15686e-12
2.15571e-12
2.1555e-12
2.15553e-12
2.15561e-12
2.1557e-12
2.15579e-12
2.15588e-12
2.15596e-12
2.15603e-12
2.15608e-12
2.1561e-12
2.15606e-12
2.15603e-12
2.15678e-12
2.15544e-12
2.15519e-12
2.15523e-12
2.15531e-12
2.15541e-12
2.1555e-12
2.1556e-12
2.15568e-12
2.15575e-12
2.15579e-12
2.15582e-12
2.15579e-12
2.15576e-12
2.15669e-12
2.15515e-12
2.15489e-12
2.15493e-12
2.15501e-12
2.15511e-12
2.15521e-12
2.15531e-12
2.15539e-12
2.15546e-12
2.15551e-12
2.15555e-12
2.15552e-12
2.1555e-12
2.15659e-12
2.15483e-12
2.15456e-12
2.15461e-12
2.15469e-12
2.1548e-12
2.1549e-12
2.15501e-12
2.15509e-12
2.15518e-12
2.15523e-12
2.15528e-12
2.15526e-12
2.15525e-12
2.15647e-12
2.15452e-12
2.15424e-12
2.15429e-12
2.15439e-12
2.15451e-12
2.15462e-12
2.15473e-12
2.15483e-12
2.15492e-12
2.15499e-12
2.15506e-12
2.15505e-12
2.15506e-12
2.15641e-12
2.15425e-12
2.15394e-12
2.154e-12
2.15416e-12
2.15432e-12
2.15447e-12
2.15461e-12
2.15471e-12
2.15481e-12
2.15489e-12
2.15495e-12
2.15494e-12
2.15498e-12
2.15708e-12
2.15426e-12
2.15382e-12
2.15394e-12
2.15426e-12
2.15461e-12
2.15491e-12
2.15511e-12
2.15525e-12
2.15534e-12
2.15539e-12
2.1554e-12
2.15533e-12
2.15543e-12
2.16062e-12
2.15539e-12
2.1544e-12
2.15474e-12
2.15565e-12
2.15666e-12
2.15746e-12
2.15794e-12
2.15817e-12
2.1582e-12
2.15812e-12
2.15797e-12
2.15778e-12
2.15798e-12
2.15652e-12
2.15653e-12
2.15653e-12
2.15652e-12
2.1565e-12
2.15651e-12
2.15653e-12
2.15657e-12
2.15661e-12
2.15668e-12
2.15674e-12
2.15678e-12
2.1568e-12
2.15672e-12
2.1563e-12
2.15629e-12
2.15623e-12
2.1562e-12
2.15616e-12
2.15616e-12
2.15618e-12
2.15621e-12
2.15626e-12
2.15632e-12
2.1564e-12
2.15644e-12
2.15646e-12
2.15643e-12
2.15604e-12
2.15597e-12
2.15588e-12
2.15585e-12
2.15582e-12
2.15583e-12
2.15586e-12
2.1559e-12
2.15596e-12
2.15602e-12
2.15609e-12
2.15612e-12
2.15616e-12
2.15616e-12
2.15574e-12
2.15563e-12
2.15555e-12
2.15552e-12
2.1555e-12
2.15552e-12
2.15555e-12
2.15559e-12
2.15565e-12
2.1557e-12
2.15576e-12
2.15578e-12
2.15581e-12
2.15582e-12
2.15542e-12
2.1553e-12
2.15521e-12
2.15519e-12
2.15519e-12
2.15521e-12
2.15525e-12
2.1553e-12
2.15536e-12
2.15542e-12
2.15546e-12
2.15548e-12
2.1555e-12
2.15549e-12
2.15512e-12
2.15498e-12
2.1549e-12
2.15489e-12
2.15489e-12
2.15492e-12
2.15496e-12
2.15502e-12
2.15508e-12
2.15513e-12
2.15518e-12
2.1552e-12
2.15519e-12
2.15519e-12
2.15484e-12
2.15468e-12
2.15461e-12
2.15461e-12
2.15461e-12
2.15465e-12
2.15469e-12
2.15475e-12
2.15481e-12
2.15487e-12
2.15492e-12
2.15495e-12
2.15493e-12
2.15493e-12
2.15455e-12
2.15438e-12
2.15432e-12
2.15433e-12
2.15434e-12
2.15438e-12
2.15443e-12
2.15449e-12
2.15455e-12
2.15461e-12
2.15466e-12
2.15469e-12
2.15468e-12
2.15469e-12
2.15427e-12
2.15409e-12
2.15404e-12
2.15406e-12
2.15408e-12
2.15412e-12
2.15418e-12
2.15424e-12
2.1543e-12
2.15437e-12
2.15442e-12
2.15446e-12
2.15446e-12
2.15446e-12
2.154e-12
2.15379e-12
2.15376e-12
2.15378e-12
2.15381e-12
2.15386e-12
2.15393e-12
2.154e-12
2.15407e-12
2.15414e-12
2.15419e-12
2.15425e-12
2.15425e-12
2.15426e-12
2.15373e-12
2.15349e-12
2.15348e-12
2.15351e-12
2.15356e-12
2.15362e-12
2.15369e-12
2.15377e-12
2.15384e-12
2.15393e-12
2.15399e-12
2.15407e-12
2.15407e-12
2.15409e-12
2.15343e-12
2.15317e-12
2.15319e-12
2.15324e-12
2.15331e-12
2.15338e-12
2.15347e-12
2.15355e-12
2.15364e-12
2.15373e-12
2.15381e-12
2.15389e-12
2.15388e-12
2.15387e-12
2.15316e-12
2.15286e-12
2.15291e-12
2.15298e-12
2.15308e-12
2.15318e-12
2.1533e-12
2.1534e-12
2.1535e-12
2.15359e-12
2.15368e-12
2.15373e-12
2.15368e-12
2.15362e-12
2.15308e-12
2.1526e-12
2.15267e-12
2.15278e-12
2.15297e-12
2.15315e-12
2.15333e-12
2.15346e-12
2.15358e-12
2.15365e-12
2.1537e-12
2.15368e-12
2.1536e-12
2.15349e-12
2.15594e-12
2.1559e-12
2.15585e-12
2.15581e-12
2.15577e-12
2.15574e-12
2.15574e-12
2.15577e-12
2.1558e-12
2.15586e-12
2.15594e-12
2.156e-12
2.15606e-12
2.15602e-12
2.15569e-12
2.15564e-12
2.15555e-12
2.15548e-12
2.15541e-12
2.15538e-12
2.15536e-12
2.15538e-12
2.15541e-12
2.15547e-12
2.15555e-12
2.1556e-12
2.15567e-12
2.15566e-12
2.1554e-12
2.15531e-12
2.15518e-12
2.15511e-12
2.15505e-12
2.15502e-12
2.15501e-12
2.15503e-12
2.15506e-12
2.15512e-12
2.15519e-12
2.15524e-12
2.15532e-12
2.15533e-12
2.15506e-12
2.15496e-12
2.15484e-12
2.15477e-12
2.15471e-12
2.15468e-12
2.15467e-12
2.15468e-12
2.15471e-12
2.15476e-12
2.15481e-12
2.15485e-12
2.15492e-12
2.15494e-12
2.15471e-12
2.15461e-12
2.1545e-12
2.15443e-12
2.15438e-12
2.15435e-12
2.15435e-12
2.15436e-12
2.15439e-12
2.15443e-12
2.15448e-12
2.15451e-12
2.15456e-12
2.15459e-12
2.15438e-12
2.15428e-12
2.15419e-12
2.15412e-12
2.15407e-12
2.15405e-12
2.15404e-12
2.15405e-12
2.15408e-12
2.15412e-12
2.15416e-12
2.15419e-12
2.15422e-12
2.15425e-12
2.15408e-12
2.15399e-12
2.15389e-12
2.15383e-12
2.15379e-12
2.15377e-12
2.15376e-12
2.15377e-12
2.15379e-12
2.15383e-12
2.15387e-12
2.15391e-12
2.15392e-12
2.15396e-12
2.15377e-12
2.15369e-12
2.1536e-12
2.15356e-12
2.15352e-12
2.1535e-12
2.1535e-12
2.15351e-12
2.15353e-12
2.15357e-12
2.1536e-12
2.15363e-12
2.15364e-12
2.15368e-12
2.15348e-12
2.15341e-12
2.15334e-12
2.15331e-12
2.15328e-12
2.15326e-12
2.15326e-12
2.15327e-12
2.15329e-12
2.15333e-12
2.15335e-12
2.1534e-12
2.1534e-12
2.15343e-12
2.15321e-12
2.15313e-12
2.15308e-12
2.15306e-12
2.15304e-12
2.15304e-12
2.15304e-12
2.15306e-12
2.15308e-12
2.15311e-12
2.15314e-12
2.15319e-12
2.15319e-12
2.15322e-12
2.15296e-12
2.15287e-12
2.15285e-12
2.15284e-12
2.15283e-12
2.15283e-12
2.15285e-12
2.15287e-12
2.15289e-12
2.15293e-12
2.15297e-12
2.15303e-12
2.15303e-12
2.15306e-12
2.15269e-12
2.1526e-12
2.15262e-12
2.15262e-12
2.15264e-12
2.15265e-12
2.15267e-12
2.1527e-12
2.15273e-12
2.15277e-12
2.15282e-12
2.15288e-12
2.15286e-12
2.15286e-12
2.15242e-12
2.15234e-12
2.1524e-12
2.15242e-12
2.15245e-12
2.15248e-12
2.15252e-12
2.15255e-12
2.15259e-12
2.15264e-12
2.15269e-12
2.15273e-12
2.15266e-12
2.1526e-12
2.15212e-12
2.15205e-12
2.15217e-12
2.15222e-12
2.15229e-12
2.15234e-12
2.1524e-12
2.15245e-12
2.1525e-12
2.15253e-12
2.15256e-12
2.15252e-12
2.15244e-12
2.1523e-12
2.15524e-12
2.15519e-12
2.15514e-12
2.1551e-12
2.15506e-12
2.15504e-12
2.15504e-12
2.15507e-12
2.15511e-12
2.15517e-12
2.15525e-12
2.15533e-12
2.15542e-12
2.1554e-12
2.15499e-12
2.15495e-12
2.15486e-12
2.1548e-12
2.15474e-12
2.1547e-12
2.15469e-12
2.1547e-12
2.15474e-12
2.1548e-12
2.15488e-12
2.15494e-12
2.15502e-12
2.15504e-12
2.15472e-12
2.15464e-12
2.15453e-12
2.15446e-12
2.1544e-12
2.15437e-12
2.15436e-12
2.15437e-12
2.1544e-12
2.15445e-12
2.15452e-12
2.15458e-12
2.15468e-12
2.15471e-12
2.15439e-12
2.15431e-12
2.15421e-12
2.15415e-12
2.15409e-12
2.15405e-12
2.15403e-12
2.15404e-12
2.15406e-12
2.15411e-12
2.15416e-12
2.15421e-12
2.1543e-12
2.15434e-12
2.15406e-12
2.15399e-12
2.1539e-12
2.15384e-12
2.15378e-12
2.15375e-12
2.15373e-12
2.15373e-12
2.15375e-12
2.15379e-12
2.15384e-12
2.15388e-12
2.15396e-12
2.15399e-12
2.15375e-12
2.15368e-12
2.1536e-12
2.15355e-12
2.15349e-12
2.15346e-12
2.15344e-12
2.15344e-12
2.15345e-12
2.15349e-12
2.15353e-12
2.15357e-12
2.15362e-12
2.15367e-12
2.15346e-12
2.15341e-12
2.15333e-12
2.15328e-12
2.15322e-12
2.15319e-12
2.15318e-12
2.15317e-12
2.15318e-12
2.15321e-12
2.15325e-12
2.15329e-12
2.15333e-12
2.15339e-12
2.15318e-12
2.15313e-12
2.15307e-12
2.15302e-12
2.15298e-12
2.15295e-12
2.15293e-12
2.15292e-12
2.15293e-12
2.15295e-12
2.15298e-12
2.15303e-12
2.15306e-12
2.15313e-12
2.15292e-12
2.15288e-12
2.15283e-12
2.1528e-12
2.15276e-12
2.15273e-12
2.15271e-12
2.1527e-12
2.1527e-12
2.15272e-12
2.15274e-12
2.15279e-12
2.15282e-12
2.15289e-12
2.15269e-12
2.15264e-12
2.15261e-12
2.15259e-12
2.15255e-12
2.15253e-12
2.15251e-12
2.1525e-12
2.1525e-12
2.15251e-12
2.15254e-12
2.15258e-12
2.1526e-12
2.15267e-12
2.15249e-12
2.15244e-12
2.15242e-12
2.1524e-12
2.15238e-12
2.15235e-12
2.15234e-12
2.15233e-12
2.15233e-12
2.15234e-12
2.15236e-12
2.15242e-12
2.15243e-12
2.15249e-12
2.15229e-12
2.15224e-12
2.15225e-12
2.15223e-12
2.15222e-12
2.1522e-12
2.15218e-12
2.15218e-12
2.15217e-12
2.15218e-12
2.15221e-12
2.15226e-12
2.15224e-12
2.15228e-12
2.15207e-12
2.15204e-12
2.15209e-12
2.15208e-12
2.15208e-12
2.15207e-12
2.15206e-12
2.15205e-12
2.15205e-12
2.15205e-12
2.15208e-12
2.1521e-12
2.15204e-12
2.152e-12
2.15185e-12
2.15183e-12
2.15194e-12
2.15195e-12
2.15197e-12
2.15196e-12
2.15197e-12
2.15196e-12
2.15195e-12
2.15194e-12
2.15193e-12
2.15188e-12
2.15178e-12
2.15168e-12
2.15421e-12
2.15424e-12
2.15424e-12
2.15425e-12
2.15424e-12
2.15425e-12
2.15427e-12
2.15431e-12
2.15436e-12
2.15443e-12
2.15452e-12
2.15461e-12
2.1547e-12
2.15471e-12
2.15402e-12
2.15405e-12
2.15403e-12
2.15401e-12
2.15399e-12
2.15399e-12
2.15401e-12
2.15403e-12
2.15408e-12
2.15415e-12
2.15423e-12
2.15431e-12
2.15438e-12
2.15441e-12
2.15381e-12
2.15382e-12
2.15377e-12
2.15375e-12
2.15373e-12
2.15373e-12
2.15374e-12
2.15377e-12
2.15382e-12
2.15388e-12
2.15396e-12
2.15403e-12
2.15413e-12
2.15417e-12
2.15355e-12
2.15355e-12
2.15352e-12
2.1535e-12
2.15348e-12
2.15348e-12
2.15349e-12
2.15351e-12
2.15355e-12
2.1536e-12
2.15367e-12
2.15373e-12
2.15382e-12
2.15387e-12
2.15328e-12
2.15328e-12
2.15326e-12
2.15325e-12
2.15323e-12
2.15324e-12
2.15324e-12
2.15327e-12
2.1533e-12
2.15335e-12
2.15341e-12
2.15347e-12
2.15354e-12
2.15361e-12
2.15302e-12
2.15303e-12
2.15302e-12
2.15302e-12
2.15301e-12
2.15301e-12
2.15301e-12
2.15303e-12
2.15306e-12
2.1531e-12
2.15315e-12
2.15321e-12
2.15327e-12
2.15335e-12
2.15279e-12
2.15281e-12
2.1528e-12
2.1528e-12
2.15279e-12
2.15279e-12
2.15279e-12
2.15281e-12
2.15283e-12
2.15287e-12
2.15292e-12
2.15298e-12
2.15303e-12
2.15312e-12
2.15256e-12
2.15259e-12
2.15259e-12
2.15259e-12
2.15259e-12
2.15259e-12
2.15259e-12
2.1526e-12
2.15262e-12
2.15265e-12
2.15269e-12
2.15275e-12
2.15281e-12
2.1529e-12
2.15237e-12
2.15239e-12
2.1524e-12
2.15241e-12
2.1524e-12
2.1524e-12
2.1524e-12
2.15241e-12
2.15242e-12
2.15245e-12
2.15249e-12
2.15255e-12
2.1526e-12
2.1527e-12
2.1522e-12
2.15221e-12
2.15223e-12
2.15224e-12
2.15224e-12
2.15224e-12
2.15223e-12
2.15224e-12
2.15225e-12
2.15227e-12
2.1523e-12
2.15236e-12
2.15241e-12
2.15251e-12
2.15206e-12
2.15206e-12
2.15209e-12
2.1521e-12
2.1521e-12
2.15209e-12
2.15209e-12
2.15208e-12
2.15209e-12
2.15211e-12
2.15214e-12
2.15221e-12
2.15225e-12
2.15234e-12
2.15193e-12
2.15192e-12
2.15196e-12
2.15197e-12
2.15198e-12
2.15197e-12
2.15196e-12
2.15195e-12
2.15195e-12
2.15196e-12
2.152e-12
2.15206e-12
2.15208e-12
2.15214e-12
2.15178e-12
2.15178e-12
2.15186e-12
2.15187e-12
2.15187e-12
2.15186e-12
2.15185e-12
2.15183e-12
2.15182e-12
2.15183e-12
2.15186e-12
2.1519e-12
2.15188e-12
2.15187e-12
2.15165e-12
2.15166e-12
2.15177e-12
2.15178e-12
2.15179e-12
2.15178e-12
2.15177e-12
2.15174e-12
2.15172e-12
2.15171e-12
2.1517e-12
2.15167e-12
2.1516e-12
2.15153e-12
2.15264e-12
2.15278e-12
2.15289e-12
2.15298e-12
2.15305e-12
2.15311e-12
2.15317e-12
2.15325e-12
2.15333e-12
2.15342e-12
2.15352e-12
2.15362e-12
2.15371e-12
2.15372e-12
2.15257e-12
2.15271e-12
2.15279e-12
2.15286e-12
2.15292e-12
2.15298e-12
2.15305e-12
2.15312e-12
2.1532e-12
2.15329e-12
2.15339e-12
2.15348e-12
2.15357e-12
2.15361e-12
2.15246e-12
2.15259e-12
2.15265e-12
2.15273e-12
2.15278e-12
2.15284e-12
2.1529e-12
2.15297e-12
2.15306e-12
2.15315e-12
2.15326e-12
2.15334e-12
2.15345e-12
2.15352e-12
2.15231e-12
2.15243e-12
2.15251e-12
2.15259e-12
2.15264e-12
2.1527e-12
2.15277e-12
2.15283e-12
2.15291e-12
2.15299e-12
2.15309e-12
2.15317e-12
2.15327e-12
2.15335e-12
2.15214e-12
2.15226e-12
2.15234e-12
2.15242e-12
2.15249e-12
2.15255e-12
2.15262e-12
2.15269e-12
2.15276e-12
2.15284e-12
2.15293e-12
2.15301e-12
2.1531e-12
2.15319e-12
2.15197e-12
2.1521e-12
2.15219e-12
2.15227e-12
2.15234e-12
2.15241e-12
2.15247e-12
2.15254e-12
2.15261e-12
2.15268e-12
2.15276e-12
2.15284e-12
2.15292e-12
2.15302e-12
2.15183e-12
2.15196e-12
2.15205e-12
2.15214e-12
2.1522e-12
2.15227e-12
2.15233e-12
2.15239e-12
2.15246e-12
2.15253e-12
2.1526e-12
2.15269e-12
2.15276e-12
2.15287e-12
2.15169e-12
2.15182e-12
2.15192e-12
2.15201e-12
2.15207e-12
2.15214e-12
2.1522e-12
2.15225e-12
2.15231e-12
2.15238e-12
2.15245e-12
2.15253e-12
2.15261e-12
2.15272e-12
2.15158e-12
2.1517e-12
2.15181e-12
2.15189e-12
2.15196e-12
2.15201e-12
2.15207e-12
2.15212e-12
2.15217e-12
2.15223e-12
2.1523e-12
2.15239e-12
2.15246e-12
2.15258e-12
2.1515e-12
2.1516e-12
2.1517e-12
2.15178e-12
2.15185e-12
2.1519e-12
2.15195e-12
2.15199e-12
2.15204e-12
2.1521e-12
2.15216e-12
2.15225e-12
2.15232e-12
2.15244e-12
2.15144e-12
2.15152e-12
2.15162e-12
2.1517e-12
2.15175e-12
2.1518e-12
2.15183e-12
2.15187e-12
2.15191e-12
2.15197e-12
2.15203e-12
2.15213e-12
2.1522e-12
2.15232e-12
2.15138e-12
2.15144e-12
2.15155e-12
2.15162e-12
2.15167e-12
2.1517e-12
2.15173e-12
2.15176e-12
2.1518e-12
2.15184e-12
2.15191e-12
2.152e-12
2.15205e-12
2.15215e-12
2.15131e-12
2.15137e-12
2.15149e-12
2.15155e-12
2.1516e-12
2.15162e-12
2.15164e-12
2.15165e-12
2.15168e-12
2.15172e-12
2.15177e-12
2.15185e-12
2.15187e-12
2.15191e-12
2.15125e-12
2.15131e-12
2.15145e-12
2.1515e-12
2.15154e-12
2.15155e-12
2.15156e-12
2.15157e-12
2.15158e-12
2.1516e-12
2.15162e-12
2.15163e-12
2.15161e-12
2.15158e-12
2.15028e-12
2.15055e-12
2.15078e-12
2.15099e-12
2.15115e-12
2.15129e-12
2.15142e-12
2.15155e-12
2.15168e-12
2.15181e-12
2.15195e-12
2.15207e-12
2.15219e-12
2.15223e-12
2.15036e-12
2.15062e-12
2.15082e-12
2.15101e-12
2.15117e-12
2.15132e-12
2.15147e-12
2.1516e-12
2.15174e-12
2.15188e-12
2.15202e-12
2.15214e-12
2.15227e-12
2.15235e-12
2.1504e-12
2.15064e-12
2.15084e-12
2.15103e-12
2.15119e-12
2.15135e-12
2.1515e-12
2.15163e-12
2.15178e-12
2.15192e-12
2.15206e-12
2.15219e-12
2.15232e-12
2.15243e-12
2.15039e-12
2.15063e-12
2.15084e-12
2.15103e-12
2.1512e-12
2.15135e-12
2.1515e-12
2.15164e-12
2.15179e-12
2.15192e-12
2.15206e-12
2.15219e-12
2.15232e-12
2.15244e-12
2.15037e-12
2.15061e-12
2.15083e-12
2.15102e-12
2.15119e-12
2.15135e-12
2.1515e-12
2.15164e-12
2.15178e-12
2.15191e-12
2.15205e-12
2.15217e-12
2.15229e-12
2.15242e-12
2.15034e-12
2.15058e-12
2.1508e-12
2.15099e-12
2.15117e-12
2.15133e-12
2.15148e-12
2.15162e-12
2.15175e-12
2.15188e-12
2.15201e-12
2.15214e-12
2.15225e-12
2.15238e-12
2.15033e-12
2.15058e-12
2.15079e-12
2.15098e-12
2.15115e-12
2.15131e-12
2.15145e-12
2.15159e-12
2.15172e-12
2.15185e-12
2.15197e-12
2.1521e-12
2.15221e-12
2.15234e-12
2.15031e-12
2.15056e-12
2.15076e-12
2.15096e-12
2.15112e-12
2.15127e-12
2.15141e-12
2.15155e-12
2.15167e-12
2.1518e-12
2.15192e-12
2.15204e-12
2.15215e-12
2.15229e-12
2.15032e-12
2.15056e-12
2.15076e-12
2.15094e-12
2.1511e-12
2.15124e-12
2.15137e-12
2.1515e-12
2.15161e-12
2.15174e-12
2.15185e-12
2.15198e-12
2.15209e-12
2.15224e-12
2.15034e-12
2.15056e-12
2.15075e-12
2.15092e-12
2.15107e-12
2.1512e-12
2.15132e-12
2.15145e-12
2.15155e-12
2.15167e-12
2.15178e-12
2.15192e-12
2.15203e-12
2.15218e-12
2.15039e-12
2.15057e-12
2.15075e-12
2.15091e-12
2.15104e-12
2.15117e-12
2.15128e-12
2.15138e-12
2.15148e-12
2.15159e-12
2.15171e-12
2.15185e-12
2.15196e-12
2.15212e-12
2.15041e-12
2.15057e-12
2.15074e-12
2.15089e-12
2.15101e-12
2.15112e-12
2.15122e-12
2.15132e-12
2.15142e-12
2.15152e-12
2.15163e-12
2.15178e-12
2.15187e-12
2.15201e-12
2.15042e-12
2.15057e-12
2.15075e-12
2.15088e-12
2.15099e-12
2.15108e-12
2.15116e-12
2.15124e-12
2.15133e-12
2.15142e-12
2.15153e-12
2.15166e-12
2.15174e-12
2.15182e-12
2.15041e-12
2.15056e-12
2.15074e-12
2.15086e-12
2.15095e-12
2.15103e-12
2.15111e-12
2.15118e-12
2.15125e-12
2.15133e-12
2.15142e-12
2.15148e-12
2.15152e-12
2.15156e-12
2.14714e-12
2.1475e-12
2.14783e-12
2.14811e-12
2.14837e-12
2.1486e-12
2.14882e-12
2.14902e-12
2.14921e-12
2.14939e-12
2.14957e-12
2.14972e-12
2.14988e-12
2.14998e-12
2.14738e-12
2.1477e-12
2.14802e-12
2.1483e-12
2.14856e-12
2.1488e-12
2.14904e-12
2.14925e-12
2.14946e-12
2.14965e-12
2.14985e-12
2.15001e-12
2.15017e-12
2.15032e-12
2.1476e-12
2.14791e-12
2.14822e-12
2.1485e-12
2.14877e-12
2.14902e-12
2.14926e-12
2.14947e-12
2.14968e-12
2.14988e-12
2.15008e-12
2.15025e-12
2.15042e-12
2.15059e-12
2.14775e-12
2.14806e-12
2.14839e-12
2.14867e-12
2.14894e-12
2.14919e-12
2.14944e-12
2.14966e-12
2.14988e-12
2.15008e-12
2.15028e-12
2.15045e-12
2.15063e-12
2.1508e-12
2.1479e-12
2.14822e-12
2.14854e-12
2.14883e-12
2.14911e-12
2.14936e-12
2.14961e-12
2.14983e-12
2.15004e-12
2.15024e-12
2.15044e-12
2.15061e-12
2.15079e-12
2.15095e-12
2.14804e-12
2.14837e-12
2.14869e-12
2.14897e-12
2.14925e-12
2.1495e-12
2.14975e-12
2.14997e-12
2.15018e-12
2.15039e-12
2.15058e-12
2.15076e-12
2.15093e-12
2.15109e-12
2.1482e-12
2.14853e-12
2.14883e-12
2.14912e-12
2.14938e-12
2.14963e-12
2.14987e-12
2.15009e-12
2.1503e-12
2.15049e-12
2.15068e-12
2.15086e-12
2.15103e-12
2.1512e-12
2.14834e-12
2.14867e-12
2.14896e-12
2.14924e-12
2.1495e-12
2.14974e-12
2.14997e-12
2.15019e-12
2.15039e-12
2.15059e-12
2.15077e-12
2.15096e-12
2.15112e-12
2.1513e-12
2.1485e-12
2.14881e-12
2.14909e-12
2.14936e-12
2.1496e-12
2.14984e-12
2.15006e-12
2.15027e-12
2.15046e-12
2.15065e-12
2.15083e-12
2.15102e-12
2.15119e-12
2.15138e-12
2.14865e-12
2.14894e-12
2.14921e-12
2.14946e-12
2.14969e-12
2.14992e-12
2.15013e-12
2.15033e-12
2.15051e-12
2.1507e-12
2.15088e-12
2.15108e-12
2.15125e-12
2.15145e-12
2.14882e-12
2.14908e-12
2.14932e-12
2.14956e-12
2.14978e-12
2.14999e-12
2.15018e-12
2.15037e-12
2.15055e-12
2.15073e-12
2.15092e-12
2.15113e-12
2.1513e-12
2.15151e-12
2.14895e-12
2.14918e-12
2.14941e-12
2.14964e-12
2.14984e-12
2.15004e-12
2.15022e-12
2.1504e-12
2.15058e-12
2.15076e-12
2.15095e-12
2.15116e-12
2.15132e-12
2.15152e-12
2.14905e-12
2.14927e-12
2.1495e-12
2.14971e-12
2.1499e-12
2.15007e-12
2.15025e-12
2.15041e-12
2.15058e-12
2.15075e-12
2.15094e-12
2.15114e-12
2.15128e-12
2.15144e-12
2.14913e-12
2.14934e-12
2.14956e-12
2.14975e-12
2.14993e-12
2.15009e-12
2.15026e-12
2.15042e-12
2.15058e-12
2.15075e-12
2.15092e-12
2.15106e-12
2.15118e-12
2.15131e-12
2.14378e-12
2.14412e-12
2.14447e-12
2.14478e-12
2.14507e-12
2.14535e-12
2.1456e-12
2.14584e-12
2.14607e-12
2.14628e-12
2.14649e-12
2.14667e-12
2.14686e-12
2.14699e-12
2.14414e-12
2.14445e-12
2.14479e-12
2.1451e-12
2.14541e-12
2.14569e-12
2.14597e-12
2.14622e-12
2.14647e-12
2.1467e-12
2.14693e-12
2.14714e-12
2.14733e-12
2.14753e-12
2.14451e-12
2.14481e-12
2.14515e-12
2.14545e-12
2.14576e-12
2.14605e-12
2.14634e-12
2.1466e-12
2.14685e-12
2.14709e-12
2.14732e-12
2.14753e-12
2.14774e-12
2.14796e-12
2.14482e-12
2.14512e-12
2.14547e-12
2.14578e-12
2.1461e-12
2.14639e-12
2.14668e-12
2.14695e-12
2.14721e-12
2.14745e-12
2.14769e-12
2.14792e-12
2.14813e-12
2.14835e-12
2.14513e-12
2.14545e-12
2.14579e-12
2.14611e-12
2.14642e-12
2.14672e-12
2.14701e-12
2.14728e-12
2.14754e-12
2.14779e-12
2.14803e-12
2.14826e-12
2.14847e-12
2.14869e-12
2.14545e-12
2.14577e-12
2.14611e-12
2.14642e-12
2.14673e-12
2.14703e-12
2.14732e-12
2.14759e-12
2.14785e-12
2.14811e-12
2.14835e-12
2.14858e-12
2.1488e-12
2.14901e-12
2.14576e-12
2.14609e-12
2.14641e-12
2.14672e-12
2.14703e-12
2.14732e-12
2.1476e-12
2.14788e-12
2.14814e-12
2.14839e-12
2.14864e-12
2.14888e-12
2.1491e-12
2.14931e-12
2.14607e-12
2.1464e-12
2.1467e-12
2.14701e-12
2.1473e-12
2.14759e-12
2.14787e-12
2.14815e-12
2.14841e-12
2.14866e-12
2.14891e-12
2.14915e-12
2.14937e-12
2.14959e-12
2.14637e-12
2.14668e-12
2.14698e-12
2.14728e-12
2.14757e-12
2.14785e-12
2.14812e-12
2.14839e-12
2.14865e-12
2.1489e-12
2.14915e-12
2.14939e-12
2.14961e-12
2.14984e-12
2.14666e-12
2.14696e-12
2.14724e-12
2.14753e-12
2.14781e-12
2.14809e-12
2.14835e-12
2.14862e-12
2.14887e-12
2.14912e-12
2.14937e-12
2.14961e-12
2.14985e-12
2.15009e-12
2.14695e-12
2.14723e-12
2.14749e-12
2.14777e-12
2.14804e-12
2.1483e-12
2.14856e-12
2.14882e-12
2.14907e-12
2.14932e-12
2.14957e-12
2.14983e-12
2.15007e-12
2.15033e-12
2.14721e-12
2.14747e-12
2.14772e-12
2.14799e-12
2.14825e-12
2.1485e-12
2.14876e-12
2.14901e-12
2.14926e-12
2.1495e-12
2.14976e-12
2.15003e-12
2.15027e-12
2.15052e-12
2.14742e-12
2.14767e-12
2.14793e-12
2.14818e-12
2.14843e-12
2.14868e-12
2.14893e-12
2.14917e-12
2.14942e-12
2.14966e-12
2.14992e-12
2.15019e-12
2.15041e-12
2.15065e-12
2.1476e-12
2.14784e-12
2.14811e-12
2.14835e-12
2.14859e-12
2.14883e-12
2.14908e-12
2.14932e-12
2.14957e-12
2.14982e-12
2.15006e-12
2.1503e-12
2.1505e-12
2.1507e-12
2.14107e-12
2.14128e-12
2.14154e-12
2.14178e-12
2.14203e-12
2.14226e-12
2.14249e-12
2.14271e-12
2.14292e-12
2.14313e-12
2.14333e-12
2.14352e-12
2.1437e-12
2.14384e-12
2.14151e-12
2.14169e-12
2.14195e-12
2.14219e-12
2.14243e-12
2.14267e-12
2.14291e-12
2.14315e-12
2.14338e-12
2.14361e-12
2.14383e-12
2.14404e-12
2.14423e-12
2.14444e-12
2.14193e-12
2.14212e-12
2.14238e-12
2.14262e-12
2.14287e-12
2.14311e-12
2.14336e-12
2.1436e-12
2.14384e-12
2.14407e-12
2.14429e-12
2.14451e-12
2.14472e-12
2.14494e-12
2.14235e-12
2.14254e-12
2.1428e-12
2.14304e-12
2.14329e-12
2.14354e-12
2.14379e-12
2.14404e-12
2.14429e-12
2.14453e-12
2.14477e-12
2.145e-12
2.14521e-12
2.14545e-12
2.14275e-12
2.14295e-12
2.14322e-12
2.14346e-12
2.14372e-12
2.14397e-12
2.14423e-12
2.14449e-12
2.14474e-12
2.14499e-12
2.14523e-12
2.14546e-12
2.14568e-12
2.14591e-12
2.14317e-12
2.14339e-12
2.14364e-12
2.14389e-12
2.14414e-12
2.1444e-12
2.14466e-12
2.14492e-12
2.14518e-12
2.14544e-12
2.14568e-12
2.14592e-12
2.14615e-12
2.14638e-12
2.14358e-12
2.14381e-12
2.14406e-12
2.14431e-12
2.14456e-12
2.14482e-12
2.14508e-12
2.14535e-12
2.14561e-12
2.14587e-12
2.14612e-12
2.14637e-12
2.1466e-12
2.14683e-12
2.14399e-12
2.14423e-12
2.14447e-12
2.14472e-12
2.14497e-12
2.14523e-12
2.1455e-12
2.14577e-12
2.14603e-12
2.14629e-12
2.14655e-12
2.1468e-12
2.14704e-12
2.14727e-12
2.14439e-12
2.14463e-12
2.14486e-12
2.14512e-12
2.14537e-12
2.14563e-12
2.1459e-12
2.14617e-12
2.14643e-12
2.1467e-12
2.14696e-12
2.14722e-12
2.14746e-12
2.1477e-12
2.14478e-12
2.14502e-12
2.14525e-12
2.1455e-12
2.14576e-12
2.14602e-12
2.14628e-12
2.14655e-12
2.14682e-12
2.14709e-12
2.14735e-12
2.14762e-12
2.14787e-12
2.14811e-12
2.14516e-12
2.14539e-12
2.14562e-12
2.14587e-12
2.14612e-12
2.14639e-12
2.14665e-12
2.14692e-12
2.1472e-12
2.14746e-12
2.14774e-12
2.14801e-12
2.14827e-12
2.14853e-12
2.14553e-12
2.14575e-12
2.14598e-12
2.14623e-12
2.14648e-12
2.14674e-12
2.147e-12
2.14727e-12
2.14755e-12
2.14782e-12
2.1481e-12
2.14838e-12
2.14865e-12
2.14891e-12
2.14584e-12
2.14606e-12
2.1463e-12
2.14655e-12
2.1468e-12
2.14706e-12
2.14733e-12
2.14761e-12
2.14788e-12
2.14816e-12
2.14845e-12
2.14874e-12
2.149e-12
2.14925e-12
2.14613e-12
2.14635e-12
2.1466e-12
2.14685e-12
2.14712e-12
2.14737e-12