/*--------------------------------*- C++ -*----------------------------------*\
| =========                 |                                                 |
| \\      /  F ield         | OpenFOAM: The Open Source CFD Toolbox           |
|  \\    /   O peration     | Version:  v2106                                 |
|   \\  /    A nd           | Website:  www.openfoam.com                      |
|    \\/     M anipulation  |                                                 |
\*---------------------------------------------------------------------------*/
FoamFile
{
    version     2.0;
    format      ascii;
    arch        "LSB;label=32;scalar=64";
    class       volScalarField;
    location    "0.000204";
    object      p;
}
// * * * * * * * * * * * * * * * * * * * * * * * * * * * * * * * * * * * * * //

dimensions      [1 -1 -2 0 0 0 0];

internalField   nonuniform List<scalar> 
17924
(
243425
243445
243453
243455
243342
243371
243390
243405
243414
243418
243419
243239
243271
243288
243302
243310
243314
243313
243142
243170
243185
243197
243203
243205
243204
243033
243059
243073
243084
243089
243091
243089
242924
242945
242958
242967
242971
242972
242970
242806
242824
242837
242845
242849
242849
242846
242687
242701
242713
242720
242722
242721
242717
242562
242573
242584
242589
242591
242588
242583
242434
242443
242451
242454
242455
242451
242444
242302
242307
242314
242315
242314
242308
242300
242168
242169
242174
242171
242169
242161
242151
242028
242025
242028
242023
242019
242010
241999
241887
241882
241880
241873
241866
241857
241846
241736
241731
241725
241718
241711
241702
241692
243142
243175
243201
243226
243246
243263
243275
243283
243286
243287
243283
243275
243260
243248
243057
243094
243121
243145
243165
243182
243194
243200
243203
243201
243194
243181
243163
243142
242977
243013
243039
243063
243082
243096
243107
243112
243112
243110
243101
243086
243065
243039
242889
242923
242949
242972
242990
243004
243013
243017
243017
243013
243002
242984
242961
242931
242799
242830
242854
242876
242893
242905
242913
242916
242916
242911
242898
242878
242853
242822
242701
242729
242752
242773
242789
242801
242808
242811
242810
242804
242790
242769
242742
242711
242598
242623
242645
242665
242680
242692
242699
242701
242699
242693
242678
242657
242630
242600
242489
242511
242533
242551
242567
242577
242584
242586
242584
242578
242563
242541
242515
242487
242375
242394
242415
242432
242447
242457
242465
242467
242466
242460
242445
242424
242399
242374
242256
242271
242293
242308
242323
242333
242341
242344
242343
242337
242324
242304
242281
242260
242134
242145
242165
242178
242194
242205
242214
242218
242218
242214
242204
242187
242168
242152
242005
242012
242032
242045
242062
242073
242083
242088
242090
242087
242081
242067
242052
242043
241871
241877
241895
241908
241924
241937
241947
241955
241959
241959
241958
241950
241942
241938
241729
241738
241754
241768
241783
241796
241807
241816
241824
241828
241831
241829
241826
241830
242864
242886
242908
242929
242951
242971
242989
243003
243014
243020
243023
243023
243014
243010
242786
242812
242835
242859
242882
242904
242922
242937
242948
242954
242956
242953
242942
242930
242713
242740
242764
242789
242813
242835
242854
242868
242879
242884
242885
242881
242870
242853
242636
242664
242690
242716
242740
242763
242781
242795
242805
242810
242811
242806
242792
242770
242558
242587
242612
242639
242663
242685
242704
242717
242727
242732
242732
242726
242710
242687
242476
242504
242530
242556
242581
242603
242622
242635
242645
242649
242649
242641
242623
242600
242391
242417
242442
242469
242494
242516
242534
242548
242557
242562
242560
242552
242533
242510
242300
242324
242350
242376
242401
242424
242442
242456
242465
242468
242467
242457
242438
242416
242204
242225
242253
242278
242303
242326
242344
242358
242367
242371
242369
242359
242340
242320
242102
242121
242149
242174
242200
242222
242240
242254
242263
242267
242266
242257
242239
242222
241997
242012
242040
242064
242090
242112
242131
242146
242156
242161
242162
242155
242140
242127
241886
241897
241925
241949
241976
241997
242017
242033
242044
242051
242054
242049
242038
242029
241769
241778
241805
241828
241854
241877
241899
241917
241932
241941
241947
241946
241942
241939
241643
241654
241680
241704
241730
241754
241778
241798
241817
241829
241839
241842
241841
241840
242570
242573
242577
242584
242595
242608
242621
242633
242645
242654
242661
242665
242669
242672
242488
242496
242500
242509
242522
242536
242551
242564
242577
242586
242593
242596
242595
242591
242412
242421
242425
242437
242451
242467
242483
242497
242510
242520
242527
242529
242527
242522
242337
242345
242352
242366
242381
242398
242415
242431
242444
242454
242461
242463
242459
242451
242263
242270
242279
242294
242311
242329
242348
242364
242378
242388
242395
242397
242392
242381
242188
242194
242206
242222
242240
242259
242279
242296
242310
242321
242327
242330
242324
242311
242112
242118
242131
242148
242167
242188
242208
242226
242241
242252
242259
242261
242255
242242
242031
242039
242053
242071
242092
242113
242134
242153
242169
242181
242187
242189
242183
242169
241948
241956
241972
241991
242013
242036
242058
242078
242094
242106
242112
242115
242108
242095
241861
241870
241887
241908
241931
241955
241978
241999
242015
242028
242034
242037
242030
242017
241774
241780
241798
241820
241845
241870
241895
241917
241934
241948
241955
241958
241952
241941
241681
241686
241707
241729
241756
241782
241807
241830
241849
241864
241873
241876
241872
241863
241585
241588
241610
241634
241662
241690
241718
241743
241765
241781
241793
241797
241796
241793
241481
241487
241512
241539
241568
241597
241627
241653
241677
241695
241710
241715
241717
241715
242286
242271
242259
242254
242252
242253
242258
242265
242274
242283
242293
242304
242316
242331
242197
242190
242177
242172
242169
242170
242175
242182
242191
242200
242210
242219
242229
242233
242117
242109
242096
242090
242088
242090
242095
242103
242112
242120
242130
242137
242147
242148
242039
242031
242017
242013
242011
242014
242019
242028
242037
242045
242055
242061
242068
242067
241964
241954
241941
241938
241937
241940
241947
241955
241965
241974
241983
241989
241994
241993
241889
241878
241868
241865
241865
241869
241877
241887
241897
241906
241915
241920
241923
241921
241815
241803
241795
241794
241795
241801
241810
241820
241831
241841
241849
241854
241856
241854
241741
241729
241724
241723
241727
241734
241745
241756
241768
241778
241785
241790
241791
241788
241666
241655
241652
241654
241659
241669
241681
241694
241706
241717
241724
241729
241728
241726
241589
241581
241581
241584
241593
241605
241619
241633
241646
241657
241664
241670
241668
241664
241513
241506
241509
241515
241527
241541
241557
241573
241587
241600
241607
241613
241611
241607
241437
241429
241436
241447
241462
241478
241497
241514
241530
241543
241551
241557
241554
241548
241361
241353
241364
241378
241396
241416
241437
241457
241475
241489
241499
241505
241503
241499
241281
241277
241293
241312
241333
241355
241379
241400
241420
241435
241446
241451
241451
241444
242006
241980
241960
241947
241939
241935
241935
241939
241946
241956
241970
241985
242005
242028
241917
241900
241878
241863
241853
241847
241845
241849
241855
241864
241877
241890
241909
241919
241837
241819
241795
241780
241768
241762
241759
241761
241767
241774
241786
241798
241817
241823
241758
241739
241715
241700
241688
241681
241678
241679
241684
241690
241701
241711
241728
241732
241683
241662
241639
241623
241611
241604
241601
241601
241605
241611
241620
241630
241644
241650
241609
241587
241565
241550
241538
241531
241528
241528
241531
241537
241545
241553
241565
241571
241537
241515
241494
241480
241469
241463
241460
241460
241463
241468
241475
241482
241491
241497
241465
241444
241426
241413
241404
241399
241397
241397
241400
241404
241409
241416
241421
241427
241395
241376
241361
241350
241343
241339
241339
241339
241342
241346
241350
241355
241358
241362
241327
241309
241299
241290
241286
241284
241285
241286
241289
241292
241296
241299
241299
241302
241260
241246
241239
241234
241233
241233
241236
241238
241242
241245
241247
241250
241248
241250
241199
241186
241184
241183
241185
241187
241191
241195
241199
241202
241204
241205
241201
241201
241140
241130
241132
241134
241140
241146
241152
241158
241164
241167
241168
241168
241163
241160
241085
241076
241084
241091
241100
241108
241116
241123
241129
241133
241134
241131
241126
241115
241703
241679
241659
241647
241640
241637
241637
241642
241650
241662
241678
241697
241722
241749
241620
241605
241583
241571
241562
241556
241555
241558
241565
241576
241590
241606
241629
241644
241547
241531
241509
241496
241485
241478
241475
241476
241481
241490
241502
241517
241541
241552
241473
241457
241436
241423
241411
241403
241399
241399
241402
241410
241420
241433
241455
241465
241403
241386
241366
241352
241340
241332
241326
241325
241328
241334
241344
241356
241376
241386
241334
241318
241299
241285
241273
241265
241259
241257
241258
241263
241272
241283
241299
241312
241269
241251
241235
241221
241209
241201
241196
241193
241194
241198
241205
241215
241229
241243
241205
241189
241174
241162
241151
241144
241138
241135
241135
241137
241143
241151
241162
241176
241144
241129
241118
241106
241097
241090
241085
241082
241081
241082
241086
241093
241101
241114
241086
241075
241066
241057
241049
241042
241038
241034
241032
241032
241034
241038
241043
241055
241033
241025
241019
241011
241005
241000
240995
240991
240989
240988
240988
240990
240992
241001
240990
240982
240978
240972
240968
240963
240959
240955
240952
240948
240946
240945
240943
240951
240947
240942
240942
240939
240936
240933
240929
240925
240921
240916
240912
240908
240903
240908
240915
240911
240915
240913
240912
240909
240905
240900
240893
240886
240880
240872
240865
240860
241330
241328
241321
241319
241319
241322
241328
241336
241348
241362
241380
241402
241429
241457
241266
241268
241262
241259
241259
241261
241266
241273
241284
241297
241313
241332
241355
241373
241210
241212
241205
241202
241200
241201
241204
241209
241218
241230
241244
241262
241286
241301
241152
241152
241146
241144
241142
241143
241145
241150
241157
241167
241180
241196
241218
241233
241094
241095
241090
241088
241086
241087
241088
241092
241098
241107
241119
241135
241155
241172
241039
241040
241037
241036
241034
241034
241034
241037
241042
241050
241062
241076
241094
241113
240987
240987
240986
240985
240984
240983
240983
240985
240990
240997
241007
241021
241037
241057
240938
240939
240939
240938
240937
240936
240936
240937
240941
240946
240955
240967
240983
241003
240892
240893
240895
240894
240893
240892
240892
240893
240895
240899
240907
240918
240931
240951
240851
240853
240856
240856
240855
240854
240854
240853
240854
240856
240862
240870
240882
240901
240815
240818
240821
240822
240821
240820
240818
240817
240817
240817
240821
240827
240836
240853
240788
240789
240794
240794
240794
240791
240789
240785
240783
240781
240782
240786
240791
240806
240762
240766
240771
240772
240771
240768
240764
240758
240754
240750
240749
240750
240752
240764
240752
240753
240759
240758
240755
240750
240744
240736
240728
240721
240715
240711
240711
240715
240841
240864
240882
240900
240915
240930
240946
240963
240983
241002
241024
241048
241073
241101
240805
240831
240850
240868
240885
240901
240918
240935
240954
240973
240995
241017
241042
241065
240773
240802
240821
240839
240855
240869
240885
240901
240918
240938
240959
240980
241006
241028
240740
240769
240788
240808
240823
240839
240853
240868
240885
240902
240923
240944
240969
240991
240708
240736
240755
240774
240790
240805
240820
240835
240850
240867
240886
240907
240930
240954
240675
240701
240722
240742
240758
240774
240788
240802
240817
240832
240850
240870
240893
240917
240644
240670
240692
240711
240727
240742
240756
240769
240783
240798
240815
240834
240855
240880
240616
240641
240664
240682
240699
240712
240725
240738
240750
240764
240780
240798
240818
240842
240591
240615
240638
240655
240671
240684
240696
240707
240719
240731
240746
240763
240782
240806
240571
240594
240616
240633
240647
240658
240669
240678
240689
240700
240712
240728
240745
240769
240555
240576
240597
240612
240624
240635
240643
240651
240660
240669
240680
240693
240709
240732
240544
240563
240582
240596
240607
240615
240621
240627
240633
240639
240648
240659
240672
240694
240537
240555
240572
240584
240591
240597
240600
240603
240606
240610
240616
240625
240637
240658
240544
240558
240571
240578
240582
240583
240583
240582
240581
240582
240584
240590
240599
240613
240176
240230
240277
240320
240357
240390
240422
240451
240481
240510
240541
240571
240601
240634
240178
240231
240278
240322
240362
240398
240433
240466
240497
240527
240558
240588
240619
240650
240182
240235
240285
240329
240370
240406
240440
240472
240503
240533
240563
240593
240624
240657
240182
240236
240286
240330
240371
240408
240443
240475
240507
240537
240568
240597
240628
240660
240183
240237
240288
240331
240372
240408
240443
240474
240505
240534
240564
240593
240624
240655
240181
240235
240285
240328
240369
240406
240440
240472
240502
240531
240560
240589
240619
240650
240182
240235
240284
240327
240367
240402
240435
240465
240495
240523
240552
240580
240609
240639
240183
240235
240282
240324
240362
240397
240428
240458
240486
240514
240541
240569
240596
240626
240186
240236
240281
240321
240357
240390
240419
240448
240475
240501
240527
240554
240581
240611
240192
240239
240281
240319
240352
240383
240410
240437
240462
240486
240510
240536
240562
240592
240200
240244
240282
240317
240346
240375
240399
240423
240446
240469
240492
240516
240541
240572
240210
240249
240284
240315
240342
240367
240389
240410
240430
240451
240472
240495
240518
240548
240220
240256
240286
240314
240337
240359
240376
240394
240412
240430
240449
240471
240494
240523
240238
240270
240294
240317
240334
240350
240364
240378
240392
240408
240424
240443
240465
240495
239344
239420
239490
239552
239609
239662
239712
239758
239801
239841
239881
239918
239955
240000
239385
239453
239527
239592
239654
239711
239764
239814
239860
239903
239945
239984
240023
240069
239430
239501
239576
239640
239703
239760
239814
239863
239910
239953
239995
240035
240074
240118
239469
239540
239614
239679
239743
239801
239857
239908
239956
240001
240044
240085
240124
240168
239509
239581
239655
239720
239783
239841
239896
239946
239994
240039
240081
240122
240163
240205
239547
239619
239690
239755
239818
239875
239930
239980
240028
240073
240116
240157
240198
240238
239585
239657
239726
239789
239850
239906
239959
240009
240055
240100
240142
240183
240223
240262
239623
239693
239758
239820
239878
239933
239985
240033
240079
240122
240164
240205
240245
240284
239660
239727
239789
239849
239904
239957
240006
240052
240096
240138
240180
240220
240260
240299
239696
239761
239818
239875
239926
239976
240023
240068
240110
240151
240192
240232
240271
240311
239732
239792
239845
239898
239946
239993
240037
240079
240119
240159
240199
240239
240278
240319
239766
239822
239869
239918
239963
240007
240048
240088
240127
240165
240203
240243
240280
240322
239798
239849
239892
239937
239977
240017
240055
240092
240129
240165
240203
240241
240278
240321
239833
239879
239914
239952
239988
240024
240059
240094
240128
240163
240199
240236
240274
240323
238477
238548
238624
238692
238758
238820
238878
238932
238983
239030
239076
239119
239163
239209
238548
238613
238693
238764
238834
238900
238962
239020
239075
239126
239175
239223
239268
239323
238629
238696
238775
238846
238916
238982
239045
239104
239159
239212
239262
239311
239356
239412
238704
238771
238850
238921
238993
239059
239124
239184
239242
239297
239349
239400
239447
239501
238780
238850
238927
238998
239068
239135
239199
239260
239318
239373
239426
239478
239527
239579
238856
238926
239001
239070
239140
239206
239270
239332
239390
239447
239501
239554
239604
239655
238930
239000
239072
239140
239208
239274
239337
239398
239457
239513
239568
239621
239672
239721
239004
239073
239140
239208
239273
239337
239400
239460
239519
239575
239630
239683
239736
239784
239072
239140
239204
239270
239333
239396
239457
239517
239575
239631
239686
239739
239791
239840
239140
239206
239267
239330
239391
239452
239511
239570
239627
239682
239737
239789
239843
239892
239203
239267
239324
239384
239443
239502
239560
239617
239673
239728
239783
239835
239890
239939
239265
239325
239379
239436
239492
239549
239605
239661
239716
239770
239824
239877
239931
239984
239320
239377
239427
239482
239536
239591
239646
239700
239755
239809
239863
239916
239971
240028
239377
239429
239474
239526
239577
239629
239682
239735
239788
239841
239896
239951
240007
240068
237765
237809
237865
237918
237972
238024
238076
238126
238174
238220
238264
238307
238350
238392
237856
237896
237954
238009
238065
238119
238173
238226
238278
238328
238375
238422
238467
238520
237953
237994
238052
238107
238163
238217
238272
238326
238379
238430
238479
238528
238573
238629
238049
238092
238149
238203
238260
238315
238372
238428
238482
238536
238588
238639
238686
238742
238144
238190
238246
238301
238358
238414
238471
238528
238583
238638
238691
238744
238793
238848
238242
238290
238345
238398
238455
238511
238569
238627
238684
238741
238795
238849
238901
238954
238337
238387
238440
238494
238550
238607
238665
238724
238782
238839
238895
238950
239003
239055
238433
238483
238535
238589
238644
238702
238760
238819
238877
238935
238993
239049
239104
239155
238524
238574
238625
238679
238735
238792
238851
238910
238969
239028
239087
239142
239199
239249
238614
238665
238714
238769
238823
238881
238939
238998
239058
239117
239177
239233
239292
239341
238699
238749
238797
238852
238906
238964
239023
239083
239143
239203
239263
239320
239380
239428
238782
238833
238880
238934
238988
239046
239104
239163
239224
239283
239344
239401
239463
239513
238856
238907
238953
239007
239062
239120
239179
239240
239302
239363
239425
239483
239545
239598
238934
238982
239029
239082
239136
239193
239252
239311
239372
239432
239493
239554
239617
239683
237312
237317
237341
237369
237399
237431
237464
237498
237532
237566
237600
237634
237667
237701
237407
237408
237432
237458
237488
237521
237555
237591
237627
237663
237699
237736
237771
237811
237498
237501
237526
237552
237583
237616
237651
237687
237723
237760
237797
237835
237871
237915
237592
237599
237623
237649
237680
237714
237750
237787
237825
237864
237902
237942
237979
238025
237684
237697
237721
237749
237781
237815
237852
237890
237929
237969
238009
238050
238089
238133
237780
237798
237822
237851
237883
237918
237956
237995
238035
238077
238119
238161
238202
238245
237876
237897
237922
237953
237986
238022
238061
238101
238143
238186
238229
238272
238315
238357
237974
237998
238024
238055
238089
238127
238166
238208
238251
238295
238340
238385
238430
238471
238070
238095
238122
238155
238191
238230
238272
238315
238359
238404
238451
238496
238543
238583
238166
238193
238220
238255
238292
238333
238376
238420
238466
238513
238561
238607
238657
238695
238257
238285
238314
238351
238391
238434
238479
238524
238572
238620
238670
238717
238769
238805
238349
238378
238409
238447
238489
238533
238580
238627
238675
238724
238776
238824
238878
238915
238432
238463
238497
238537
238582
238628
238677
238727
238778
238829
238882
238932
238987
239026
238523
238553
238590
238631
238677
238724
238774
238824
238875
238926
238979
239030
239086
239136
237074
237061
237060
237063
237068
237076
237087
237101
237116
237134
237152
237172
237191
237214
237153
237135
237135
237136
237141
237149
237160
237174
237189
237207
237225
237245
237264
237289
237225
237210
237211
237213
237217
237226
237237
237250
237265
237283
237301
237321
237339
237365
237303
237292
237292
237293
237298
237307
237318
237332
237347
237364
237383
237403
237422
237449
237381
237373
237374
237376
237381
237390
237402
237416
237432
237450
237469
237489
237510
237536
237462
237457
237458
237461
237467
237477
237490
237505
237522
237541
237560
237582
237603
237627
237542
237541
237543
237548
237556
237567
237580
237596
237614
237635
237656
237678
237701
237723
237624
237627
237630
237636
237646
237659
237674
237691
237711
237732
237755
237778
237803
237823
237706
237712
237717
237726
237738
237752
237769
237788
237809
237832
237856
237879
237907
237926
237789
237798
237805
237817
237831
237847
237866
237887
237911
237935
237960
237984
238014
238032
237871
237884
237893
237908
237924
237943
237964
237987
238013
238039
238065
238089
238121
238138
237955
237971
237983
238000
238019
238039
238063
238088
238116
238144
238171
238197
238232
238247
238037
238054
238070
238090
238112
238136
238162
238190
238219
238249
238278
238305
238340
238356
238129
238144
238162
238183
238208
238233
238261
238290
238321
238352
238382
238412
238447
238471
236976
236951
236934
236918
236907
236898
236892
236889
236887
236888
236890
236894
236899
236910
237029
237002
236985
236969
236957
236948
236941
236937
236934
236934
236935
236938
236940
236952
237079
237053
237036
237021
237009
237000
236993
236988
236985
236984
236984
236986
236986
236996
237133
237109
237092
237077
237065
237056
237048
237043
237039
237037
237037
237038
237039
237046
237188
237165
237150
237135
237123
237114
237106
237101
237097
237096
237094
237095
237096
237101
237245
237225
237210
237196
237184
237175
237168
237163
237159
237157
237156
237157
237158
237161
237302
237285
237271
237258
237247
237239
237232
237228
237225
237223
237222
237223
237224
237226
237362
237348
237335
237323
237313
237306
237300
237296
237293
237292
237292
237292
237295
237295
237422
237412
237400
237390
237382
237376
237371
237367
237365
237364
237365
237366
237370
237368
237485
237478
237468
237460
237453
237448
237444
237442
237441
237440
237442
237443
237449
237446
237548
237546
237538
237532
237527
237523
237520
237519
237519
237519
237522
237524
237531
237527
237615
237616
237609
237605
237601
237599
237599
237599
237600
237602
237606
237610
237618
237612
237684
237686
237682
237680
237679
237679
237679
237681
237683
237685
237690
237696
237703
237696
237762
237759
237755
237755
237756
237758
237761
237764
237768
237772
237778
237785
237794
237793
236930
236898
236873
236850
236829
236811
236794
236779
236766
236755
236745
236737
236729
236723
236959
236929
236905
236881
236860
236840
236822
236806
236791
236778
236766
236757
236747
236740
236987
236958
236934
236911
236889
236869
236851
236834
236819
236805
236792
236781
236770
236762
237018
236990
236966
236943
236921
236901
236882
236865
236849
236834
236820
236808
236795
236785
237051
237023
236999
236976
236955
236934
236915
236898
236881
236866
236851
236837
236823
236812
237085
237059
237035
237012
236990
236970
236951
236933
236916
236899
236884
236869
236854
236841
237120
237095
237072
237049
237028
237008
236988
236970
236952
236936
236920
236904
236889
236874
237158
237134
237111
237089
237068
237047
237028
237009
236991
236974
236958
236941
236926
236910
237195
237174
237152
237130
237109
237089
237070
237051
237033
237016
236999
236982
236967
236949
237234
237215
237194
237174
237153
237133
237114
237095
237076
237059
237042
237024
237009
236990
237275
237258
237237
237218
237198
237178
237159
237141
237123
237105
237088
237069
237054
237033
237317
237302
237282
237264
237245
237226
237208
237189
237171
237152
237135
237116
237101
237081
237363
237349
237331
237313
237295
237276
237258
237239
237221
237202
237184
237165
237150
237131
237415
237395
237376
237360
237343
237327
237309
237291
237274
237256
237238
237220
237205
237187
236884
236851
236824
236798
236772
236748
236725
236703
236683
236663
236646
236627
236610
236592
236894
236863
236837
236811
236786
236761
236737
236713
236691
236669
236649
236629
236611
236592
236904
236875
236848
236822
236797
236772
236747
236723
236700
236677
236656
236634
236614
236594
236916
236888
236861
236835
236809
236783
236759
236734
236710
236686
236663
236641
236619
236598
236928
236900
236874
236847
236821
236796
236770
236745
236720
236696
236672
236648
236625
236602
236940
236913
236887
236860
236834
236808
236782
236756
236731
236705
236680
236655
236631
236607
236953
236927
236900
236874
236847
236821
236794
236768
236742
236716
236690
236664
236638
236613
236967
236941
236914
236888
236861
236834
236807
236781
236754
236727
236700
236673
236646
236619
236982
236956
236929
236902
236875
236848
236821
236794
236766
236738
236711
236683
236655
236627
236997
236972
236945
236918
236890
236863
236835
236807
236779
236750
236722
236693
236664
236636
237013
236988
236961
236934
236906
236878
236849
236821
236793
236764
236734
236705
236675
236644
237029
237004
236978
236951
236923
236894
236865
236836
236806
236777
236747
236717
236687
236655
237046
237021
236995
236967
236939
236910
236881
236852
236822
236792
236761
236730
236699
236665
237061
237035
237009
236983
236956
236927
236898
236868
236838
236808
236777
236746
236714
236679
236792
236762
236735
236708
236681
236654
236627
236599
236573
236546
236521
236494
236785
236757
236731
236704
236677
236649
236621
236593
236565
236537
236511
236482
236776
236750
236724
236697
236670
236642
236614
236586
236558
236529
236501
236472
236768
236743
236717
236690
236663
236635
236607
236578
236549
236519
236491
236461
236759
236736
236709
236683
236655
236627
236598
236569
236540
236509
236480
236450
236751
236727
236700
236674
236646
236618
236589
236559
236529
236498
236468
236436
236743
236718
236692
236665
236637
236608
236579
236549
236518
236486
236455
236423
236733
236708
236681
236654
236626
236597
236567
236537
236505
236473
236441
236408
236725
236699
236672
236644
236615
236586
236555
236524
236492
236459
236426
236392
236715
236688
236661
236632
236603
236573
236542
236511
236478
236445
236410
236376
236706
236678
236650
236621
236591
236560
236529
236496
236462
236428
236393
236359
236695
236666
236638
236608
236577
236546
236514
236481
236447
236413
236377
236342
236685
236654
236626
236595
236564
236532
236499
236465
236430
236395
236358
236322
236673
236641
236613
236582
236550
236517
236483
236449
236414
236380
236344
236308
243513
243563
243618
243664
243706
243743
243535
243608
243679
243742
243797
243847
243558
243651
243738
243814
243879
243938
243572
243682
243782
243870
243945
244010
243411
243448
243490
243526
243560
243594
243444
243497
243551
243599
243644
243689
243475
243544
243610
243668
243721
243773
243499
243582
243658
243725
243784
243842
243516
243613
243698
243772
243838
243899
243526
243633
243726
243807
243877
243941
243531
243645
243745
243832
243905
243972
243202
243236
243277
243315
243354
243396
243234
243279
243330
243380
243430
243485
243270
243325
243384
243442
243500
243563
243299
243364
243429
243494
243558
243627
243325
243399
243470
243539
243608
243681
243345
243427
243502
243574
243645
243721
243361
243447
243526
243601
243673
243750
243370
243460
243540
243616
243689
243766
243374
243464
243545
243621
243694
243769
243374
243461
243541
243616
243687
243759
243368
243450
243525
243597
243665
243734
243355
243428
243496
243563
243626
243690
243332
243395
243454
243514
243569
243625
243325
243366
243408
243449
243488
243529
242931
242971
243020
243069
243118
243171
242948
243001
243060
243123
243187
243256
242975
243037
243106
243179
243254
243334
242998
243068
243144
243224
243309
243399
243023
243098
243179
243264
243355
243452
243043
243124
243207
243296
243390
243490
243062
243145
243229
243319
243414
243516
243077
243160
243243
243332
243426
243527
243086
243168
243250
243336
243426
243525
243091
243170
243248
243329
243414
243507
243092
243165
243236
243312
243390
243476
243087
243152
243216
243284
243353
243430
243072
243128
243183
243241
243301
243368
243074
243112
243152
243194
243237
243287
242646
242699
242754
242812
242868
242926
242641
242711
242781
242855
242927
243003
242654
242735
242817
242904
242991
243082
242665
242753
242847
242945
243046
243150
242679
242774
242875
242982
243094
243209
242692
242792
242898
243011
243129
243252
242706
242807
242915
243032
243154
243281
242717
242819
242926
243042
243164
243292
242727
242826
242930
243044
243162
243287
242734
242828
242927
243035
243146
243265
242737
242825
242916
243015
243117
243228
242738
242818
242899
242987
243077
243177
242731
242798
242867
242943
243022
243108
242742
242794
242845
242903
242961
243027
242365
242432
242491
242552
242611
242671
242346
242425
242503
242582
242656
242732
242346
242437
242528
242620
242710
242800
242347
242448
242551
242657
242761
242867
242349
242460
242574
242692
242810
242930
242354
242472
242594
242721
242850
242981
242361
242482
242610
242743
242880
243018
242368
242491
242619
242755
242895
243037
242375
242497
242623
242758
242896
243039
242383
242500
242621
242751
242883
243021
242388
242499
242613
242734
242857
242986
242396
242498
242601
242709
242819
242935
242394
242482
242571
242667
242762
242865
242414
242490
242557
242632
242704
242784
242084
242157
242216
242277
242336
242395
242055
242136
242213
242292
242364
242434
242049
242141
242229
242318
242402
242483
242042
242146
242246
242347
242444
242537
242040
242153
242266
242379
242489
242596
242041
242162
242285
242409
242531
242651
242045
242172
242302
242434
242567
242698
242050
242181
242315
242453
242592
242731
242058
242189
242323
242462
242603
242746
242066
242195
242325
242462
242600
242741
242076
242197
242320
242451
242582
242716
242087
242200
242313
242432
242550
242673
242093
242191
242289
242395
242499
242608
242121
242208
242288
242369
242448
242533
241776
241839
241892
241948
242001
242053
241744
241816
241885
241955
242018
242076
241738
241819
241898
241974
242044
242107
241732
241823
241911
241995
242073
242143
241731
241831
241928
242022
242109
242188
241733
241840
241947
242050
242148
242238
241738
241852
241966
242079
242187
242289
241745
241863
241984
242103
242221
242334
241754
241875
241998
242122
242246
242367
241766
241886
242008
242132
242257
242381
241779
241895
242011
242131
242252
242373
241794
241903