/*--------------------------------*- C++ -*----------------------------------*\
| =========                 |                                                 |
| \\      /  F ield         | OpenFOAM: The Open Source CFD Toolbox           |
|  \\    /   O peration     | Version:  v2106                                 |
|   \\  /    A nd           | Website:  www.openfoam.com                      |
|    \\/     M anipulation  |                                                 |
\*---------------------------------------------------------------------------*/
FoamFile
{
    version     2.0;
    format      ascii;
    arch        "LSB;label=32;scalar=64";
    class       volScalarField;
    location    "0.000152";
    object      epsilon;
}
// * * * * * * * * * * * * * * * * * * * * * * * * * * * * * * * * * * * * * //

dimensions      [0 2 -3 0 0 0 0];

internalField   nonuniform List<scalar> 
18109
(
6384.58
1891.69
411.153
71.5829
17.2329
8.2497
7.587
3971.54
936.636
141.107
13.8443
1.7541
0.64578
0.63803
2126.63
412.811
54.6524
5.50444
0.680242
0.115229
0.048854
1100.23
208.317
34.8271
5.83883
0.958519
0.137425
0.0176273
610.546
137.885
31.4792
6.72998
1.16091
0.163749
0.0189024
430.765
120.196
31.678
7.01648
1.17408
0.163931
0.0206269
412.111
128.847
34.0987
7.22886
1.16936
0.174964
0.0382739
502.703
157.328
39.7346
7.98287
1.35146
0.285212
0.160079
2252.55
555.358
98.3518
12.3237
2.25585
1.23072
1.30481
1.63557
2.02712
2.69278
4.79209
12.6692
41.2428
142.606
1159.49
226.364
29.1378
2.44155
0.226479
0.0840092
0.0909718
0.136146
0.197434
0.267435
0.496835
1.82019
9.16276
48.7583
526.879
89.6251
11.5318
1.3021
0.155315
0.0215101
0.00677652
0.00753199
0.0124529
0.0228509
0.0822717
0.552127
3.77583
22.7058
256.845
48.699
8.75271
1.53107
0.230574
0.0283358
0.00302373
0.000589448
0.000649897
0.00240053
0.0215959
0.19776
1.51124
9.44094
156.464
37.1079
8.54884
1.74936
0.278288
0.0335873
0.00333022
0.000292439
9.69353e-05
0.000631949
0.00728149
0.0713275
0.56475
3.62113
128.536
35.712
8.90021
1.8294
0.281626
0.0329103
0.00347544
0.000589914
0.000360625
0.00052546
0.0032812
0.0314972
0.257177
1.6986
137.603
40.3096
9.80237
1.91449
0.280593
0.0343376
0.0061684
0.00369501
0.00345751
0.00344375
0.0050468
0.022681
0.168353
1.16057
176.852
50.3061
11.5337
2.12941
0.306701
0.0530803
0.0274753
0.027077
0.027414
0.0279851
0.0310935
0.0526735
0.204433
1.2845
244.112
65.4035
14.2933
2.58279
0.441935
0.165623
0.155064
0.168323
0.176222
0.187541
0.210742
0.27704
0.565771
2.44785
345.345
89.7908
19.9705
3.98138
1.08172
0.730201
0.787714
0.875284
0.942183
1.0442
1.21596
1.52367
2.45498
7.64287
517.296
145.455
36.5297
9.43206
3.87432
3.17857
3.44516
3.86083
4.27675
4.93743
5.96967
7.43075
10.9773
28.5813
999.431
353.5
109.625
34.3711
15.827
12.6646
13.1451
14.6883
16.6999
20.0507
25.2006
31.7123
44.5932
101.116
2415.87
1086.98
408.773
144.391
64.0954
45.955
44.4702
48.894
56.7443
70.6016
92.496
119.717
163.799
322.642
5826.67
3189.64
1443.52
580.174
248.687
154.818
135.815
143.531
167.863
214.972
294.601
398.929
546.28
922.009
7984.98
14590.8
28337
48539.6
71073.8
92920.6
2770.39
6080.03
14175.2
28422.5
47838.6
67800
931.471
2913.27
8619.99
19520.2
34732.3
50873.8
300.425
1399.15
4851.33
11945.8
22545
35210.8
100.745
630.417
2490.19
6725.65
13771.7
23550.2
35.9009
272.604
1243.43
3768.01
8482.41
15857
17.6618
138.666
682.138
2237.33
5442.68
11048
14.2131
100.383
475.726
1580.97
4030.16
8760.72
14.2645
90.7622
405.685
1344.1
3616.79
8692.6
16.1876
97.5064
425.664
1462.25
4343.75
12037.3
21.6381
127.75
575.901
2132.2
6874.7
19858.3
38.4992
221.842
1008.16
3750.62
11683.2
30572.9
90.9596
477.685
1990.27
6599.69
17686.2
38816.9
254.229
1104.43
3752.39
10133.1
22280
40593.4
720.626
2283.3
5998.2
13019.9
23929.1
37974.4
366.391
1377.49
4189.15
10070.6
19531.3
31457.2
238.945
893.829
2795.25
7054.66
14389.1
24289.1
113.82
460.054
1565.51
4275.97
9456.37
17357
47.8634
210.825
775.687
2316.4
5788.41
11830.7
18.9058
89.8107
361.332
1218.89
3458.01
7794.9
9.24236
47.1645
206.155
762.654
2269.11
5473.74
6.78019
36.8885
166.432
613.366
1829.66
4535.51
7.66344
42.0028
185.3
664.744
1995.4
5234.68
12.8599
66.8229
285.648
1026.2
3205.2
9000.79
32.8212
154.844
624.476
2170.28
6585.49
17569.9
105.364
436.675
1564.61
4837.1
12903
29648.8
328.094
1163.04
3545.77
9256.65
20712.8
39812.9
950.731
2751
6830.57
14568.7
26973.9
43493
2443.23
5463.87
10829
18978.5
29820.6
42349.5
2012.81
4674.17
9549.1
17046.4
26819.6
37802.1
1618.79
3738.43
7671.16
13861.9
22222
31993.4
1156.07
2715.78
5690.28
10545.3
17419.1
26042.1
808.238
1938.98
4110.76
7763.86
13243.5
20767.2
565.2
1372.84
2980.67
5830.96
10422.9
17421.5
437.945
1095.4
2448.12
4985.73
9464.61
17441.6
381.007
987.695
2331.55
5197.87
11376.2
25179
384.004
1077.79
2871.58
7555.28
19544.4
47689.3
490.982
1577.1
4869.34
14111.8
37162.4
84598.5
892.484
3101.35
9740.61
26559.7
61448.6
120693
2023.85
6334.99
17343.6
40485.3
80814
138319
4299.14
11049.3
25116.5
49371.7
84905.2
127210
7891.44
16437
31026.9
52223.3
78872.2
106707
12231.6
21178.8
34435
51438.8
70929.3
90461.5
4449.97
14453.5
38410.3
82654.8
145594
217929
7410.96
19880.4
45049.5
84477.6
132927
180256
11324.4
24714.5
47501.6
78243.1
112150
142230
15254.8
27651.9
46640.5
69941
94312.1
115309
6663.64
13036.9
24691.7
40371.9
57984.1
76403.4
3907.4
9342.46
18978.4
32191.4
47148.1
62788.3
2494.82
6397.63
13291.3
23097.1
34870.6
48985.8
1652.98
4227.13
8806.49
15865.9
25662.4
38408.5
1097.9
2786.61
5922.93
11122.9
19274
31381.4
727.822
1865.51
4176.77
8487.02
16179.4
29792.3
513.552
1402.63
3464.79
7994.44
17751.3
39608.1
423.032
1306.53
3727.63
10104.4
26513.2
66528.5
452.853
1604.03
5252.18
16078.1
44851.4
108069
636.726
2487.2
8804.04
27039.1
69123.7
145429
1145
4387.87
14427.1
38982.3
86320.1
157473
2206.46
7182.02
19934.5
45629.6
87274.5
139956
4020.43
10422
23781.5
46243.1
77622.7
111723
6373.35
13172.1
25286.8
43315.3
66164.5
88637.2
84980.5
124642
185606
283302
309857
65974.8
98309.6
151928
255745
310457
50586.1
76818.9
121859
231724
304289
37625.4
59387.1
103781
233247
334494
27778.4
46558.7
98726.6
262546
391194
20527.4
39235.9
105748
301237
448952
17531.6
44542.9
141256
352775
502052
20604.4
67042.1
200819
423400
577242
610664
32265.7
105989
267091
476381
631051
716585
50417.9
142200
295158
455036
603169
764865
66134.7
155154
273065
379410
509276
739373
1.02466e+06
70378.9
143632
224676
297260
388364
632067
1.22941e+06
1.26538e+06
63529.9
118584
183892
250736
307389
397786
1.20212e+06
3.53703e+06
54035.6
97052.5
158144
242471
323793
245244
269213
1.56593e+06
44040.1
78899.2
138472
237909
350984
262324
225348
1.18329e+06
34630.1
63016.6
116442
208367
323813
263501
230533
853395
26916.5
50314.3
94372.7
176562
289180
259265
228924
1.04016e+06
20099.2
38905
75761.1
161638
284261
285951
238219
339445
14717.6
29797.4
62922.1
159889
299230
330656
287139
243783
10882.9
23424.4
57321.5
166886
322719
389120
355997
250858
9578.5
24694.9
71137.5
194814
364925
464975
447947
466971
12661
39936.7
112306
255603
437028
576782
596292
329073
23045.8
70762.4
170195
319435
495901
678631
40560.3
104938
209787
330167
479410
715097
57906.4
125885
212570
287950
397513
678672
66040.5
124156
186802
236420
297005
538442
62752.3
108457
159955
210695
232167
325809
56105.3
94892.2
148597
221566
245797
49320.7
83850.3
138910
231465
277325
42177.2
71873.2
123739
219011
286949
35530.6
62222.8
110826
218436
302182
29964.9
55024.3
111242
246866
360519
26980.7
56549.4
138441
304766
449454
31832.2
80608.3
198589
384445
537741
55101.6
145919
301623
473462
609214
103348
239039
408069
547486
687684
161395
310669
450890
555423
725896
199588
320654
403735
476491
676722
201167
278857
319015
368992
559900
166660
223574
253145
284234
388409
131179
178601
218665
258199
260702
107364
150115
198696
273234
249300
91138.4
127244
178968
283110
286088
76825.6
105381
159285
285070
318549
64473.5
88103.8
154344
304513
363108
53796.7
81528.3
178937
368570
451032
47426.8
94917.4
244114
477659
559004
55292.5
144690
349316
581757
640848
89436.4
240041
477285
651481
699661
149690
347701
576131
702272
783771
214795
416284
596025
695602
833857
249032
409842
517127
601517
794988
240032
349203
408130
476446
683900
194657
271472
312012
358999
496067
143758
201176
252148
299608
322342
108123
154955
215131
292452
286065
409.189
83.1258
12.7791
1.55991
0.267946
0.162701
0.178283
0.215361
0.243166
0.25601
0.284265
0.560227
2.20366
11.5291
147.831
24.534
3.05078
0.307498
0.0335415
0.0113635
0.0122402
0.0167108
0.0226515
0.0259462
0.0311367
0.108463
0.802866
6.12159
56.5676
9.88936
1.57709
0.246002
0.0360877
0.00456154
0.0010533
0.0010294
0.00135874
0.00197877
0.0054443
0.046521
0.431314
3.37143
33.6249
7.7275
1.69166
0.334333
0.0549116
0.00655271
0.000600664
9.29093e-05
8.22773e-05
0.0001737
0.00152047
0.0186916
0.18866
1.5193
28.7783
7.83654
1.94113
0.407768
0.0676654
0.00804915
0.000691931
5.17995e-05
9.39235e-06
3.73473e-05
0.000558095
0.00739719
0.0765779
0.626164
30.3037
8.76322
2.17259
0.439977
0.0691936
0.00787138
0.000679456
8.00608e-05
3.62086e-05
3.98356e-05
0.000258185
0.00330978
0.0349776
0.290015
38.2409
10.8527
2.54004
0.482979
0.0714884
0.00794766
0.000979301
0.000444116
0.000388721
0.000345454
0.000418194
0.00208595
0.0198277
0.16616
53.1039
14.1004
3.05309
0.537986
0.0752256
0.00997762
0.00388629
0.00358992
0.00351599
0.00327685
0.00311005
0.00434249
0.0171786
0.130453
74.6522
18.4706
3.76468
0.633668
0.0944787
0.0262685
0.0237441
0.0252564
0.0258627
0.0253971
0.0251084
0.0275683
0.042487
0.179994
106.106
24.8812
4.91904
0.84949
0.184169
0.117747
0.134073
0.148351
0.157775
0.162987
0.170537
0.184091
0.216333
0.500126
151.948
35.1183
7.14568
1.47843
0.583285
0.548266
0.648549
0.735322
0.812889
0.884103
0.978861
1.07636
1.20709
2.18179
254.778
65.9453
15.2847
4.14037
2.29153
2.30996
2.70314
3.11877
3.58301
4.1006
4.8007
5.46715
6.13983
9.87822
575.743
183.396
49.7926
15.4601
8.8795
8.62435
9.83242
11.4753
13.6804
16.4407
20.3587
24.3526
28.1492
40.9193
1552.05
602.506
190.827
62.0241
32.221
28.7452
31.5401
36.8949
45.4407
57.117
74.8215
95.1065
116.363
156.17
24.5513
4.23774
0.640272
0.0988214
0.0314102
0.027504
0.0333262
0.0379842
0.0395131
0.0359695
0.0269085
0.0236143
0.0684263
0.513579
7.30644
1.18339
0.170993
0.0238675
0.00408526
0.00185653
0.00219393
0.00296334
0.00364723
0.00378826
0.00304465
0.00509271
0.0415537
0.408269
4.11241
0.889723
0.181559
0.0342061
0.00564447
0.000803256
0.000187219
0.000187244
0.000240181
0.000278408
0.000363233
0.0024777
0.0292736
0.289428
4.39281
1.13236
0.26493
0.0539612
0.00907352
0.00118186
0.000112549
1.64212e-05
1.48741e-05
1.96226e-05
8.41576e-05
0.00125462
0.0165134
0.169028
5.2158
1.43585
0.348717
0.0713903
0.0117806
0.00149201
0.000133657
8.56344e-06
1.26961e-06
2.32581e-06
3.52243e-05
0.000636278
0.00868429
0.0902398
6.46766
1.76776
0.412554
0.0799751
0.0124175
0.00148741
0.000129377
1.00479e-05
2.72175e-06
2.34235e-06
1.77584e-05
0.000324167
0.0045816
0.0484993
8.62793
2.25355
0.493631
0.0894939
0.0129983
0.00147989
0.000148645
3.93857e-05
3.00022e-05
2.39172e-05
2.65527e-05
0.000197275
0.0026418
0.0281743
11.9738
2.92369
0.59315
0.0993425
0.0134748
0.00163693
0.000422199
0.000332554
0.000304788
0.00025786
0.000209284
0.00028438
0.00173829
0.0177427
16.4515
3.76785
0.716629
0.112994
0.0154524
0.00335719
0.00261412
0.00264474
0.00255419
0.00228621
0.00194576
0.00182916
0.00271279
0.0156538
22.9145
4.94007
0.892707
0.138412
0.0251469
0.0144318
0.0165935
0.0177656
0.0178619
0.0168645
0.0153207
0.0143251
0.0136874
0.0271976
30.7829
6.31232
1.12304
0.196894
0.0713885
0.0730797
0.0913037
0.101122
0.105853
0.105486
0.102061
0.0981999
0.0905693
0.115891
42.993
8.88386
1.69465
0.420025
0.282717
0.341113
0.431858
0.492467
0.536718
0.564926
0.580431
0.580536
0.548477
0.623613
71.0813
16.958
3.81325
1.33115
1.14001
1.40657
1.77389
2.07556
2.35513
2.62075
2.85766
3.00119
2.95803
3.16555
167.648
48.1996
12.3806
4.84193
4.22068
5.12075
6.38267
7.62823
8.99202
10.5597
12.2169
13.5891
14.2564
14.8931
1.57367
0.28629
0.0570692
0.0151948
0.00764579
0.00676066
0.00781607
0.00845976
0.00847072
0.00732227
0.00484825
0.00286328
0.00407572
0.0318956
0.53942
0.097663
0.0167306
0.00285449
0.00063422
0.00037816
0.000500866
0.000661794
0.000784641
0.000780638
0.00056627
0.000467566
0.00262602
0.0298174
0.530438
0.123805
0.0266027
0.0051401
0.000867384
0.00013302
3.86383e-05
4.16161e-05
5.40718e-05
5.91681e-05
5.20076e-05
0.000158486
0.00209939
0.0248424
0.743793
0.190838
0.0439344
0.008775
0.00146845
0.000197899
2.13228e-05
3.60601e-06
3.41679e-06
4.07093e-06
6.5872e-06
8.11633e-05
0.00134717
0.0167732
1.01315
0.2671
0.0618072
0.0121762
0.00197667
0.00025582
2.51518e-05
1.81919e-06
2.70946e-07
2.95527e-07
2.06253e-06
4.67104e-05
0.000819487
0.0105094
1.33521
0.341497
0.0753208
0.0140271
0.00214599
0.0002627
2.47231e-05
1.86146e-06
3.02807e-07
1.99774e-07
1.07054e-06
2.57905e-05
0.000477077
0.00637882
1.82177
0.442068
0.0912862
0.0158232
0.00224963
0.000258033
2.52994e-05
4.56064e-06
2.83271e-06
2.10842e-06
1.98423e-06
1.64961e-05
0.00029416
0.00400423
2.50925
0.570899
0.109494
0.0175708
0.00232768
0.000270785
5.29434e-05
3.47943e-05
3.01553e-05
2.4113e-05
1.78862e-05
2.28262e-05
0.000188341
0.00250116
3.38034
0.723916
0.130144
0.019575
0.00254604
0.000462962
0.000300935
0.000293733
0.000272746
0.000231194
0.000180796
0.00015512
0.000235644
0.00184644
4.55944
0.919982
0.156445
0.0227821
0.0036975
0.00185382
0.00204611
0.00215361
0.00208762
0.00186691
0.00156075
0.00135229
0.00116197
0.00231568
5.82844
1.11877
0.184966
0.0293499
0.00966231
0.00996953
0.012392
0.01352
0.0136626
0.0128738
0.0114812
0.010298
0.00855879
0.00945215
7.39057
1.38679
0.239168
0.0546584
0.0394535
0.0510365
0.0652476
0.0733415
0.0771753
0.0764602
0.0723705
0.0672731
0.0574512
0.0567352
9.99006
2.04194
0.421683
0.162374
0.170648
0.231928
0.2996
0.346532
0.379533
0.394934
0.395035
0.38204
0.340286
0.321876
18.3852
4.58754
1.1594
0.59605
0.685115
0.933898
1.20874
1.43391
1.63023
1.77784
1.87113
1.8933
1.7792
1.66563
0.149103
0.0292212
0.00712842
0.00247222
0.00156216
0.0015245
0.00176372
0.00193331
0.00194785
0.00166347
0.00108812
0.000567282
0.000412261
0.00241279
0.0663118
0.0130802
0.00245567
0.000463596
0.00012369
8.9211e-05
0.000118829
0.000155649
0.000183491
0.000179133
0.000129126
7.86026e-05
0.000207932
0.00238292
0.0895264
0.0212398
0.00458208
0.000884468
0.000149656
2.41506e-05
8.61566e-06
1.01069e-05
1.33169e-05
1.43758e-05
1.15728e-05
1.56564e-05
0.00017268
0.0022507
0.140188
0.0354566
0.00798571
0.00156266
0.000258371
3.51214e-05
4.02818e-06
8.49183e-07
8.63966e-07
1.02175e-06
1.06689e-06
6.60645e-06
0.000120985
0.00170193
0.203137
0.051686
0.0115247
0.00220193
0.000351195
4.5585e-05
4.66132e-06
3.9246e-07
8.05488e-08
8.09335e-08
1.98917e-07
3.96035e-06
8.10043e-05
0.00118875
0.273081
0.0666067
0.0140897
0.00254185
0.000382316
4.69163e-05
4.56764e-06
3.75305e-07
6.27995e-08
4.23351e-08
1.01126e-07
2.29108e-06
5.02309e-05
0.000781721
0.368459
0.0845584
0.0166828
0.00279515
0.000390214
4.47387e-05
4.39264e-06
6.78422e-07
3.59126e-07
2.55599e-07
2.09671e-07
1.51635e-06
3.22211e-05
0.000518467
0.494466
0.106082
0.0194362
0.00301533
0.000391953
4.47633e-05
7.74858e-06
4.46772e-06
3.66819e-06
2.77747e-06
1.91644e-06
2.17332e-06
2.0577e-05
0.000329459
0.64201
0.129612
0.0222415
0.00322753
0.000408155
6.93191e-05
4.09117e-05
3.83879e-05
3.41739e-05
2.73787e-05
1.99167e-05
1.55451e-05
2.31531e-05
0.000224762
0.826896
0.157526
0.0255634
0.00357913
0.000557312
0.000268335
0.000287314
0.000294191
0.000273238
0.000230699
0.000178993
0.000142298
0.000111402
0.000226485
1.01072
0.18321
0.0287069
0.00433847
0.00142387
0.00149982
0.00183391
0.00194832
0.00188293
0.00167247
0.00138063
0.00114101
0.00086496
0.000847775
1.19318
0.210317
0.0341028
0.00768471
0.00604947
0.00811153
0.0102582
0.0112299
0.0112752
0.0105021
0.00917418
0.00786098
0.00611574
0.00538031
1.44072
0.269927
0.05301
0.022872
0.0275963
0.0391381
0.050302
0.0566945
0.0591124
0.0576363
0.0530151
0.0470942
0.0379902
0.0326204
2.2567
0.514317
0.132483
0.0867268
0.117043
0.16805
0.217869
0.252165
0.272354
0.277115
0.266949
0.246377
0.208167
0.178975
0.0129813
0.0026801
0.000753481
0.000330694
0.000267796
0.000294238
0.000351203
0.000393836
0.000403505
0.000347123
0.00022974
0.000116986
5.57113e-05
0.000164396
0.00829439
0.00173479
0.000342165
6.84176e-05
2.1326e-05
1.83427e-05
2.51822e-05
3.31786e-05
3.90604e-05
3.79035e-05
2.74635e-05
1.51183e-05
1.68405e-05
0.000162008
0.0139337
0.00330068
0.000702496
0.000133657
2.24584e-05
3.86086e-06
1.74542e-06
2.2146e-06
2.9535e-06
3.20227e-06
2.53162e-06
1.96606e-06
1.21586e-05
0.000168828
0.0234928
0.00581389
0.00127131
0.000242209
3.92876e-05
5.3527e-06
6.61664e-07
1.87899e-07
2.06875e-07
2.43022e-07
2.20572e-07
5.20473e-07
8.94598e-06
0.000139871
0.0353762
0.00867144
0.00185945
0.000343872
5.36749e-05
6.9559e-06
7.4332e-07
8.42248e-08
3.40678e-08
3.43313e-08
4.01789e-08
2.94146e-07
6.45108e-06
0.000107067
0.04795
0.0111911
0.0022732
0.00039714
5.85644e-05
7.17936e-06
7.28655e-07
7.84379e-08
2.74287e-08
2.40124e-08
2.70056e-08
1.82515e-07
4.22726e-06
7.54849e-05
0.0631462
0.013806
0.00261427
0.000424474
5.81911e-05
6.66563e-06
6.70449e-07
1.06656e-07
5.76416e-08
4.48708e-08
3.79097e-08
1.31115e-07
2.81551e-06
5.27125e-05
0.0816049
0.0166484
0.00293114
0.000441403
5.64296e-05
6.36742e-06
1.01133e-06
5.17624e-07
4.05305e-07
2.96675e-07
1.99246e-07
1.96485e-07
1.82095e-06
3.44188e-05
0.10139
0.0194329
0.00320322
0.000451224
5.58944e-05
9.0026e-06
4.83054e-06
4.33625e-06
3.6983e-06
2.8082e-06
1.92503e-06
1.38357e-06
1.96636e-06
2.28316e-05
0.123569
0.0223687
0.00348969
0.000474092
7.18854e-05
3.34991e-05
3.45452e-05
3.42504e-05
3.04303e-05
2.42433e-05
1.76045e-05
1.29345e-05
9.37496e-06
1.99577e-05
0.14274
0.0245966
0.00369993
0.0005441
0.000181797
0.000193547
0.000230062
0.000236583
0.000218295
0.000182459
0.000140401
0.000107353
7.53311e-05
6.70947e-05
0.157095
0.026281
0.0040883
0.000941522
0.000807656
0.00109844
0.00135334
0.00143184
0.00136899
0.00119667
0.00097026
0.000768202
0.000552232
0.000438871
0.172531
0.0303266
0.00586082
0.002913
0.00388665
0.00559126
0.00701867
0.00763219
0.00755761
0.00689618
0.0058618
0.00479434
0.00355555
0.00278584
0.238938
0.050978
0.0140657
0.0116444
0.0174163
0.0254675
0.0323386
0.0360361
0.0368273
0.0349346
0.0309484
0.0261517
0.0201707
0.0159191
0.00104199
0.000219473
6.60789e-05
3.62234e-05
3.72847e-05
4.62073e-05
5.85184e-05
6.85245e-05
7.20439e-05
6.33592e-05
4.28941e-05
2.21273e-05
9.08782e-06
1.15012e-05
0.00100136
0.000214609
4.273e-05
8.70285e-06
3.03877e-06
3.03121e-06
4.39715e-06
5.96639e-06
7.11574e-06
6.98389e-06
5.14041e-06
2.79877e-06
1.70069e-06
1.00595e-05
0.00193187
0.000450121
9.34576e-05
1.73631e-05
2.88724e-06
5.45376e-07
3.19317e-07
4.30833e-07
5.73925e-07
6.2428e-07
4.99625e-07
3.17975e-07
8.19262e-07
1.11167e-05
0.00341173
0.000819081
0.000172853
3.19114e-05
5.06555e-06
7.0054e-07
1.07252e-07
5.03251e-08
5.66807e-08
6.38569e-08
5.8294e-08
6.43902e-08
5.95651e-07
9.93629e-06
0.00520787
0.0012287
0.000253188
4.52628e-05
6.90673e-06
9.02013e-07
1.14049e-07
3.0115e-08
2.37122e-08
2.38938e-08
2.40298e-08
3.81906e-08
4.55715e-07
8.2037e-06
0.006998
0.00156796
0.000306256
5.18187e-05
7.48559e-06
9.25781e-07
1.11577e-07
2.89161e-08
2.22142e-08
2.17538e-08
2.18466e-08
3.11768e-08
3.20507e-07
6.19644e-06
0.00889871
0.00186368
0.000339774
5.35517e-05
7.21265e-06
8.37211e-07
1.01234e-07
3.12029e-08
2.5015e-08
2.36043e-08
2.2798e-08
2.83464e-08
2.2768e-07
4.57386e-06
0.010983
0.00214279
0.000363876
5.33089e-05
6.71215e-06
7.65565e-07
1.31077e-07
7.11634e-08
5.79831e-08
4.6458e-08
3.67467e-08
3.44351e-08
1.58408e-07
3.12205e-06
0.0130016
0.00237792
0.000377989
5.18049e-05
6.31458e-06
1.00533e-06
5.19419e-07
4.51532e-07
3.73989e-07
2.75892e-07
1.85861e-07
1.2999e-07
1.69224e-07
2.08467e-06
0.0149116
0.00257491
0.000387612
5.1265e-05
7.71389e-06
3.62561e-06
3.65055e-06
3.50934e-06
2.99741e-06
2.27059e-06
1.55928e-06
1.0689e-06
7.30392e-07
1.67115e-06
0.0161242
0.00264988
0.00038497
5.58666e-05
1.98327e-05
2.15883e-05
2.50436e-05
2.49314e-05
2.20347e-05
1.74182e-05
1.25767e-05
8.92909e-06
5.84619e-06
4.85576e-06
0.0164708
0.00262859
0.000397631
9.78174e-05
9.3313e-05
0.000127867
0.000153535
0.000156923
0.000143213
0.000117953
8.93162e-05
6.55564e-05
4.38374e-05
3.18693e-05
0.0165617
0.00277066
0.000545843
0.000327027
0.000474178
0.000683225
0.000835476
0.000875538
0.000824706
0.000706561
0.000558469
0.000422249
0.000290114
0.00020879
0.0209707
0.00427304
0.00133738
0.00139925
0.00224204
0.00328318
0.00405952
0.00434572
0.00420845
0.00373442
0.00306193
0.00238113
0.00169252
0.0012296
8.2622e-05
1.74288e-05
5.41037e-06
3.70146e-06
4.60269e-06
6.30814e-06
8.46676e-06
1.03645e-05
1.11995e-05
1.00699e-05
6.96428e-06
3.66828e-06
1.47217e-06
9.60425e-07
0.000115151
2.46011e-05
4.83893e-06
9.96377e-07
3.93141e-07
4.45388e-07
6.73375e-07
9.38582e-07
1.13607e-06
1.13078e-06
8.48159e-07
4.73358e-07
2.28195e-07
6.22657e-07
0.000239849
5.42846e-05
1.09122e-05
1.97905e-06
3.38239e-07
8.37994e-08
6.56283e-08
8.64861e-08
1.10439e-07
1.19359e-07
9.9684e-08
6.70598e-08
7.69529e-08
6.89822e-07
0.000434607
0.000100369
2.03343e-05
3.63269e-06
5.76399e-07
9.50893e-08
3.12824e-08
2.5756e-08
2.71428e-08
2.83582e-08
2.74103e-08
2.60477e-08
5.59595e-08
6.61138e-07
0.000662351
0.000149704
2.95683e-05
5.10931e-06
7.74491e-07
1.16205e-07
3.13827e-08
2.2396e-08
2.17345e-08
2.17846e-08
2.17669e-08
2.24285e-08
4.82712e-08
5.88034e-07
0.000872021
0.000187053
3.50802e-05
5.75172e-06
8.266e-07
1.17617e-07
3.09871e-08
2.21957e-08
2.14671e-08
2.14143e-08
2.14106e-08
2.19231e-08
4.08978e-08
4.80014e-07
0.00106268
0.000213094
3.73975e-05
5.73129e-06
7.71926e-07
1.05652e-07
2.96217e-08
2.23528e-08
2.16981e-08
2.1557e-08
2.14766e-08
2.17769e-08
3.54545e-08
3.80748e-07
0.00124147
0.000231958
3.80235e-05
5.43503e-06
6.88585e-07
9.48613e-08
3.19094e-08
2.58528e-08
2.45233e-08
2.3441e-08
2.25798e-08
2.22781e-08
3.11491e-08
2.79122e-07
0.00138961
0.000243244
3.73758e-05
5.00794e-06
6.17846e-07
1.14138e-07
6.72653e-08
5.97703e-08
5.17476e-08
4.23718e-08
3.43263e-08
2.93592e-08
3.20587e-08
1.97699e-07
0.0014969
0.000247583
3.60845e-05
4.6787e-06
7.2539e-07
3.63386e-07
3.59997e-07
3.37145e-07
2.80753e-07
2.08415e-07
1.4291e-07
9.88633e-08
7.11879e-08
1.5533e-07
0.00151681
0.000239043
3.37175e-05
4.90562e-06
1.91973e-06
2.14084e-06
2.4199e-06
2.33275e-06
1.9815e-06
1.49339e-06
1.02575e-06
6.8749e-07
4.30921e-07
3.48343e-07
0.00144386
0.000221453
3.29676e-05
8.9876e-06
9.54091e-06
1.30645e-05
1.52492e-05
1.50491e-05
1.31409e-05
1.02512e-05
7.3114e-06
5.01477e-06
3.14932e-06
2.12477e-06
0.00133991
0.000216069
4.4932e-05
3.30442e-05
5.08844e-05
7.27137e-05
8.63182e-05
8.71003e-05
7.82104e-05
6.32073e-05
4.68184e-05
3.29625e-05
2.1146e-05
1.40919e-05
0.00158247
0.00031458
0.000117958
0.000151141
0.000252188
0.000365742
0.000438521
0.000450628
0.000414515
0.000345664
0.000264409
0.000190746
0.000125976
8.47842e-05
6.73901e-06
1.42953e-06
4.66527e-07
3.85363e-07
5.35982e-07
7.84483e-07
1.09956e-06
1.39572e-06
1.54598e-06
1.41747e-06
1.00155e-06
5.44458e-07
2.30002e-07
1.13654e-07
1.23377e-05
2.59613e-06
5.13236e-07
1.1976e-07
6.24583e-08
7.39707e-08
1.06333e-07
1.44775e-07
1.74322e-07
1.75664e-07
1.37663e-07
8.56628e-08
4.81667e-08
5.82133e-08
2.67679e-05
5.86025e-06
1.15127e-06
2.17541e-07
5.24362e-08
2.80211e-08
2.7104e-08
3.02726e-08
3.37421e-08
3.5098e-08
3.24168e-08
2.77432e-08
2.58313e-08
5.91212e-08
4.91765e-05
1.09038e-05
2.13424e-06
3.82947e-07
7.52625e-08
2.84005e-08
2.23765e-08
2.19365e-08
2.21638e-08
2.23397e-08
2.22078e-08
2.19186e-08
2.33791e-08
5.96124e-08
7.43327e-05
1.61004e-05
3.06578e-06
5.26497e-07
9.39904e-08
3.03253e-08
2.22971e-08
2.14552e-08
2.13965e-08
2.14054e-08
2.1402e-08
2.14234e-08
2.29103e-08
5.75552e-08
9.54069e-05
1.96364e-05
3.55739e-06
5.79929e-07
9.78097e-08
3.03323e-08
2.22397e-08
2.14209e-08
2.13503e-08
2.13445e-08
2.13436e-08
2.13703e-08
2.25369e-08
5.28253e-08
0.000111208
2.14406e-05
3.64561e-06
5.58392e-07
9.03672e-08
2.89936e-08
2.20868e-08
2.14243e-08
2.13615e-08
2.13477e-08
2.13402e-08
2.13556e-08
2.2244e-08
4.76831e-08
0.00012275
2.20925e-05
3.51904e-06
5.06316e-07
7.99711e-08
2.77284e-08
2.22384e-08
2.17009e-08
2.15792e-08
2.1486e-08
2.14155e-08
2.13871e-08
2.19981e-08
4.13934e-08
0.000129387
2.18244e-05
3.26499e-06
4.43871e-07
7.11527e-08
2.91157e-08
2.51635e-08
2.44553e-08
2.3721e-08
2.29203e-08
2.22674e-08
2.18714e-08
2.20743e-08
3.57557e-08
0.00013044
2.08171e-05
2.961e-06
3.93211e-07
7.84466e-08
5.04729e-08
4.98512e-08
4.72281e-08
4.18799e-08
3.55659e-08
3.01659e-08
2.66339e-08
2.46132e-08
3.21785e-08
0.000123338
1.87862e-05
2.59744e-06
3.98277e-07
1.84218e-07
2.07568e-07
2.27294e-07
2.1396e-07
1.78583e-07
1.34312e-07
9.465e-08
6.70775e-08
4.79396e-08
4.26237e-08
0.000109201
1.62473e-05
2.4197e-06
7.62676e-07
8.88233e-07
1.20351e-06
1.36435e-06
1.30371e-06
1.09537e-06
8.19183e-07
5.59582e-07
3.67512e-07
2.25674e-07
1.49741e-07
9.38174e-05
1.47817e-05
3.37122e-06
3.03908e-06
4.86471e-06
6.85241e-06
7.89169e-06
7.67917e-06
6.59378e-06
5.05944e-06
3.53825e-06
2.34044e-06
1.41769e-06
8.87378e-07
0.000104994
2.08136e-05
9.77455e-06
1.47035e-05
2.50648e-05
3.57812e-05
4.1556e-05
4.10437e-05
3.5968e-05
2.83413e-05
2.03643e-05
1.37317e-05
8.48871e-06
5.32984e-06
5.71942e-07
1.35542e-07
5.83079e-08
5.56455e-08
7.41361e-08
1.04235e-07
1.43388e-07
1.8199e-07
2.03492e-07
1.90668e-07
1.41636e-07
8.63689e-08
4.75619e-08
3.11571e-08
1.22111e-06
2.65009e-07
6.66909e-08
3.036e-08
2.54993e-08
2.7173e-08
3.11181e-08
3.58991e-08
3.96885e-08
4.00634e-08
3.5581e-08
2.9305e-08
2.46009e-08
2.38064e-08
2.69224e-06
5.83605e-07
1.26581e-07
3.90796e-08
2.41297e-08
2.20157e-08
2.20202e-08
2.24205e-08
2.28519e-08
2.30287e-08
2.27115e-08
2.2142e-08
2.17692e-08
2.33953e-08
4.97808e-06
1.07635e-06
2.18893e-07
5.40734e-08
2.61121e-08
2.19706e-08
2.14508e-08
2.14192e-08
2.14476e-08
2.14691e-08
2.14536e-08
2.14151e-08
2.14716e-08
2.34995e-08
7.45815e-06
1.56947e-06
3.04338e-07
6.68541e-08
2.77339e-08
2.21229e-08
2.14256e-08
2.13509e-08
2.13445e-08
2.13451e-08
2.13451e-08
2.13454e-08
2.14279e-08
2.35114e-08
9.34199e-06
1.87025e-06
3.44067e-07
7.08928e-08
2.79748e-08
2.21057e-08
2.141e-08
2.13374e-08
2.13293e-08
2.1328e-08
2.13283e-08
2.13304e-08
2.14007e-08
2.33612e-08
1.04488e-05
1.96499e-06
3.40694e-07
6.74981e-08
2.71564e-08
2.19673e-08
2.1387e-08
2.13286e-08
2.13211e-08
2.1319e-08
2.13187e-08
2.13201e-08
2.13776e-08
2.31405e-08
1.09358e-05
1.92625e-06
3.1518e-07
6.12127e-08
2.60716e-08
2.18335e-08
2.1388e-08
2.1341e-08
2.13288e-08
2.13204e-08
2.13152e-08
2.13138e-08
2.13568e-08
2.27969e-08
1.08693e-05
1.79798e-06
2.79035e-07
5.42815e-08
2.51593e-08
2.19138e-08
2.16017e-08
2.15389e-08
2.14767e-08
2.14136e-08
2.13652e-08
2.13376e-08
2.13562e-08
2.24504e-08
1.02655e-05
1.61156e-06
2.40857e-07
4.86801e-08
2.55783e-08
2.35665e-08
2.34885e-08
2.32389e-08
2.27905e-08
2.22943e-08
2.18903e-08
2.16354e-08
2.15046e-08
2.21848e-08
9.04692e-06
1.36116e-06
2.01593e-07
4.81114e-08
3.40483e-08
3.61015e-08
3.73347e-08
3.59079e-08
3.28311e-08
2.92645e-08
2.6236e-08
2.4213e-08
2.29095e-08
2.26715e-08
7.44172e-06
1.10188e-06
1.81476e-07
7.78034e-08
9.25575e-08
1.1775e-07
1.28201e-07
1.20429e-07
1.01327e-07
7.82594e-08
5.78818e-08
4.35362e-08
3.37247e-08
2.86799e-08
5.92193e-06
9.40579e-07
2.54748e-07
2.72421e-07
4.35024e-07
5.9632e-07
6.65579e-07
6.27872e-07
5.21173e-07
3.86823e-07
2.63209e-07
1.71702e-07
1.06806e-07
7.10039e-08
6.31792e-06
1.29649e-06
7.82035e-07
1.30936e-06
2.24197e-06
3.13695e-06
3.53255e-06
3.36621e-06
2.82664e-06
2.12178e-06
1.44681e-06
9.2454e-07
5.46019e-07
3.29395e-07
6.51277e-08
3.02619e-08
2.42684e-08
2.42817e-08
2.6149e-08
2.92496e-08
3.34231e-08
3.77244e-08
4.03236e-08
3.92594e-08
3.42171e-08
2.83899e-08
2.42348e-08
2.23753e-08
1.27134e-07
4.22424e-08
2.51713e-08
2.21272e-08
2.17489e-08
2.19351e-08
2.23462e-08
2.28582e-08
2.32789e-08
2.33412e-08
2.288e-08
2.22187e-08
2.17137e-08
2.15423e-08
2.6114e-07
7.0252e-08
3.02686e-08
2.28333e-08
2.15953e-08
2.14243e-08
2.14289e-08
2.147e-08
2.15151e-08
2.15344e-08
2.15013e-08
2.14409e-08
2.13964e-08
2.14631e-08
4.70449e-07
1.1386e-07
3.81882e-08
2.40776e-08
2.17459e-08
2.14051e-08
2.13607e-08
2.13566e-08
2.13583e-08
2.13598e-08
2.1358e-08
2.1354e-08
2.13558e-08
2.14618e-08
6.92121e-07
1.56755e-07
4.54421e-08
2.51327e-08
2.1869e-08
2.14071e-08
2.13479e-08
2.13397e-08
2.13379e-08
2.13373e-08
2.13373e-08
2.13379e-08
2.13435e-08
2.14621e-08
8.46036e-07
1.80478e-07
4.8463e-08
2.54174e-08
2.18747e-08
2.13956e-08
2.13369e-08
2.13291e-08
2.13272e-08
2.13266e-08
2.13268e-08
2.13277e-08
2.13332e-08
2.14543e-08
9.12646e-07
1.83507e-07
4.74341e-08
2.50383e-08
2.17896e-08
2.13747e-08
2.13262e-08
2.13197e-08
2.13179e-08
2.13174e-08
2.13177e-08
2.13186e-08
2.13236e-08
2.14412e-08
9.12545e-07
1.73712e-07
4.44145e-08
2.44116e-08
2.16827e-08
2.13545e-08
2.13179e-08
2.13124e-08
2.13104e-08
2.13096e-08
2.13095e-08
2.13103e-08
2.13146e-08
2.14188e-08
8.61998e-07
1.56511e-07
4.06228e-08
2.37545e-08
2.15927e-08
2.13507e-08
2.13251e-08
2.13184e-08
2.13129e-08
2.13083e-08
2.13053e-08
2.13045e-08
2.13075e-08
2.13941e-08
7.69822e-07
1.35648e-07
3.6874e-08
2.32274e-08
2.16031e-08
2.14593e-08
2.14492e-08
2.14273e-08
2.13932e-08
2.1358e-08
2.13309e-08
2.13152e-08
2.1309e-08
2.13707e-08
6.38877e-07
1.11725e-07
3.33279e-08
2.31068e-08
2.22058e-08
2.23543e-08
2.24211e-08
2.22964e-08
2.20607e-08
2.18035e-08
2.15948e-08
2.14617e-08
2.13818e-08
2.13827e-08
4.94708e-07
8.95566e-08
3.14838e-08
2.52803e-08
2.65665e-08
2.83724e-08
2.89809e-08
2.82463e-08
2.67291e-08
2.50167e-08
2.35787e-08
2.2611e-08
2.19899e-08
2.16898e-08
3.70049e-07
7.57035e-08
3.6731e-08
4.02501e-08
5.29925e-08
6.47569e-08
6.88566e-08
6.48287e-08
5.59356e-08
4.5603e-08
3.66452e-08
3.03495e-08
2.61749e-08
2.39675e-08
3.74024e-07
9.62053e-08
7.68681e-08
1.23115e-07
1.97515e-07
2.64386e-07
2.88156e-07
2.67685e-07
2.20211e-07
1.63738e-07
1.13269e-07
7.64726e-08
5.16486e-08
3.80926e-08
2.46352e-08
2.20245e-08
2.15866e-08
2.15971e-08