/*--------------------------------*- C++ -*----------------------------------*\
| =========                 |                                                 |
| \\      /  F ield         | OpenFOAM: The Open Source CFD Toolbox           |
|  \\    /   O peration     | Version:  v2106                                 |
|   \\  /    A nd           | Website:  www.openfoam.com                      |
|    \\/     M anipulation  |                                                 |
\*---------------------------------------------------------------------------*/
FoamFile
{
    version     2.0;
    format      ascii;
    arch        "LSB;label=32;scalar=64";
    class       volScalarField;
    location    "0.000152";
    object      p;
}
// * * * * * * * * * * * * * * * * * * * * * * * * * * * * * * * * * * * * * //

dimensions      [1 -1 -2 0 0 0 0];

internalField   nonuniform List<scalar> 
18109
(
220642
222000
222699
223372
223869
224314
224623
220769
221692
222357
222952
223412
223803
224118
220949
221615
222163
222639
223029
223386
223696
221239
221625
222008
222376
222724
223057
223357
221443
221670
221929
222199
222505
222821
223117
221725
221787
221893
222096
222357
222653
222944
221950
221848
221918
222053
222275
222554
222841
222094
221911
221929
222024
222224
222488
222784
223265
224441
225053
225637
226078
226474
226756
226962
227119
227165
227106
227018
226794
226689
223434
224266
224860
225357
225756
226101
226382
226592
226762
226864
226957
227007
227060
227127
223726
224282
224755
225151
225496
225808
226078
226307
226501
226646
226775
226908
227047
227229
223970
224311
224657
224978
225289
225581
225838
226072
226287
226480
226662
226856
227082
227367
224187
224397
224605
224867
225145
225422
225675
225914
226139
226356
226573
226812
227093
227405
224441
224485
224610
224812
225052
225312
225559
225806
226045
226287
226535
226814
227118
227468
224649
224588
224672
224804
225004
225244
225488
225741
225993
226259
226533
226838
227158
227530
224791
224661
224700
224797
224983
225208
225456
225721
225989
226274
226568
226882
227203
227566
224888
224737
224733
224808
224985
225201
225454
225731
226014
226314
226623
226936
227256
227579
224919
224772
224737
224819
224992
225212
225480
225774
226078
226397
226716
227016
227309
227577
224846
224732
224707
224824
225002
225243
225521
225829
226148
226479
226804
227089
227349
227569
224598
224573
224603
224765
224980
225271
225583
225925
226266
226605
226921
227168
227406
227486
224264
224289
224392
224649
224945
225290
225652
226031
226397
226750
227062
227276
227435
227302
223280
223647
223978
224438
224854
225316
225754
226192
226572
226898
227143
227336
227461
227186
220521
219669
219212
218444
217739
216857
222986
222155
221607
220907
220186
219225
224693
224047
223584
222976
222386
221763
225308
225044
224932
224762
224646
224555
225994
226047
226248
226422
226755
227046
226511
226854
227332
227820
228468
229168
226969
227485
228132
228836
229729
230671
227254
227848
228608
229430
230437
231476
227481
228053
228767
229557
230501
231520
227530
228035
228604
229195
229842
230638
227430
227746
228125
228438
228730
229141
227337
227488
227595
227561
227473
227339
227208
227112
226923
226543
226009
225231
226869
226688
226405
225855
225152
223924
226945
226710
226336
225588
224776
223454
226480
226066
225834
225466
225097
224430
227481
227245
227134
226862
226483
226120
227595
227591
227724
227767
227781
227853
227760
227993
228353
228706
229048
229487
227870
228289
228834
229466
230148
230952
227947
228489
229160
229969
230901
231958
227994
228592
229305
230183
231237
232445
227989
228544
229203
230034
231029
232225
227947
228400
228918
229556
230274
231216
227893
228196
228498
228808
229134
229631
227820
227963
228013
227982
227890
227757
227679
227566
227353
226961
226434
225658
227397
227190
226884
226291
225566
224406
227310
226995
226645
225980
225200
224189
226999
226688
226461
226096
225589
224982
227701
227539
227438
227186
226853
226552
227634
227709
227862
227987
228085
228143
227554
227827
228187
228571
229001
229447
227267
227687
228221
228836
229578
230381
226885
227309
227883
228589
229495
230484
226417
226725
227155
227713
228506
229429
225862
225979
226161
226396
226827
227460
225302
225155
225024
224809
224680
224708
224733
224265
223747
222956
222155
221338
224216
223448
222602
221284
219880
218223
223668
222664
221650
219976
218249
216107
223310
222240
221180
219517
217837
215819
223066
221888
220916
219564
218187
216629
220897
220109
219134
217672
215844
213551
220458
219373
218164
216376
214400
211911
220272
219189
217957
216184
214382
212160
220259
219061
218039
216593
215148
213670
223109
222292
221823
221013
220295
219343
224587
223980
223688
223012
222541
221951
224931
224782
224911
224722
224767
224659
225218
225425
225862
226138
226519
226844
225305
225756
226391
226997
227720
228438
225248
225778
226494
227275
228187
229041
225065
225496
226110
226813
227677
228547
224776
224968
225349
225763
226273
226833
224433
224389
224452
224396
224361
224283
224006
223652
223344
222733
222020
221101
223682
223071
222367
221198
219810
218129
223317
222420
221424
219917
218192
216074
223000
222099
221068
219522
217838
215921
222944
221970
221053
219704
218341
216875
217460
214939
214759
218356
225124
220905
219607
220057
223205
229217
224553
224204
225559
228781
236014
227711
228489
230425
233383
239247
230552
232228
234710
237490
241916
232365
234749
237602
240199
243773
233446
236248
239192
241981
247147
233413
235938
238406
241031
245979
249930
232054
233906
235563
237887
241683
243888
229597
230283
231057
232879
236243
238568
226733
225372
224746
226166
230414
236788
242068
223836
220625
219306
220903
227964
239128
252701
261021
222396
218408
216423
217552
226659
245140
271833
309127
221988
218327
216433
217156
224562
238357
262017
282737
223028
220589
219198
219512
223854
230751
243820
251451
225326
224070
223339
224297
228654
236619
244076
250373
227811
227499
227851
229942
235086
244982
259562
265134
230137
230813
232136
234487
239375
247655
259012
279336
232293
233875
236035
238627
242905
248782
255839
260178
233713
235989
238459
241255
244725
249902
255018
259106
234476
237265
240022
242838
246808
253713
260348
261744
234286
237023
239616
242323
246280
251422
257854
272655
232840
235185
237509
240073
243510
246495
230437
231790
233720
236040
239870
243474
227651
226968
228244
230898
236214
243238
224594
221858
221524
224322
233162
246303
222955
219348
217753
219552
229931
248970
222473
219134
217554
219202
227666
223598
221221
220128
221444
226602
225864
224530
224303
226656
231791
228186
228006
228888
232156
238968
230225
231089
232917
236191
243011
231822
233753
236336
239664
245287
232229
234584
237366
240977
245350
231259
233666
236951
241097
246805
228761
230715
233501
237101
242964
224949
225769
228205
231432
236323
220322
219576
221355
224572
231189
215580
212670
214243
220409
230167
212843
208597
209603
218629
230650
212356
207780
208171
217235
232516
213932
210501
211072
217870
230368
217204
214730
215253
220323
227621
220700
219363
220366
225189
232131
224148
223949
225518
230190
239455
227284
227706
229816
233642
241615
229578
230935
233190
236259
241705
230638
232181
234401
237357
241553
230067
231610
234184
237931
244109
227700
228608
230508
233994
240711
224042
223812
225420
228202
233235
219281
216896
217601
220553
226641
214928
211152
211746
216338
225129
212467
207798
208205
215814
227334
212201
207320
207057
215116
230889
214069
210419
210312
215994
228818
227381
228373
228858
229357
229734
230063
230307
230481
230592
230598
230540
230438
230227
230150
227598
228332
228805
229213
229555
229843
230069
230227
230332
230377
230408
230410
230417
230481
227956
228420
228785
229122
229417
229676
229887
230049
230170
230245
230303
230370
230437
230583
228175
228502
228766
229057
229322
229557
229749
229906
230037
230144
230244
230361
230497
230694
228401
228563
228778
229019
229256
229477
229664
229823
229958
230081
230202
230354
230531
230770
228604
228688
228850
229033
229230
229427
229603
229764
229906
230049
230195
230379
230586
230857
228801
228800
228915
229042
229222
229400
229571
229736
229889
230051
230216
230417
230630
230910
228929
228903
228983
229076
229239
229398
229562
229732
229897
230076
230257
230469
230684
230963
229026
228985
229030
229107
229258
229408
229576
229753
229929
230120
230315
230526
230734
230993
229050
229029
229060
229146
229286
229437
229611
229798
229987
230190
230396
230599
230799
231014
228981
229018
229051
229171
229308
229471
229652
229850
230051
230261
230472
230665
230848
230985
228825
228930
228996
229157
229321
229514
229715
229933
230144
230358
230567
230748
230896
230960
228568
228723
228849
229089
229301
229552
229785
230027
230254
230472
230676
230816
230924
230831
227776
228202
228559
228936
229266
229577
229874
230151
230389
230588
230753
230854
230965
230768
232345
233005
233398
233776
234097
234362
234574
234708
234785
234782
234719
234633
234479
234375
232511
233021
233329
233666
233964
234203
234386
234506
234561
234567
234559
234531
234500
234497
232803
233129
233390
233642
233883
234088
234250
234368
234423
234459
234470
234479
234481
234554
233001
233204
233406
233620
233824
234000
234139
234246
234304
234362
234401
234458
234514
234655
233181
233291
233440
233611
233784
233941
234071
234177
234242
234313
234370
234462
234559
234732
233362
233396
233515
233637
233778
233907
234023
234126
234200
234288
234365
234489
234618
234813
233515
233504
233583
233668
233793
233900
234006
234107
234192
234295
234388
234529
234671
234879
233641
233616
233666
233730
233834
233920
234017
234115
234209
234323
234430
234582
234732
234953
233732
233710
233734
233784
233874
233955
234050
234151
234250
234368
234482
234633
234778
234995
233773
233776
233802
233851
233930
234012
234108
234211
234315
234437
234555
234695
234833
235033
233737
233790
233833
233899
233980
234070
234170
234277
234385
234505
234622
234747
234881
235026
233665
233764
233846
233936
234035
234142
234253
234372
234486
234606
234724
234834
234946
235046
233562
233697
233815
233951
234083
234214
234344
234474
234593
234707
234817
234902
234995
235015
233080
233399
233677
233913
234114
234296
234463
234613
234740
234843
234957
235029
235079
235067
236068
236473
236718
236983
237223
237415
237571
237696
237737
237777
237748
237704
237576
237545
236217
236497
236682
236911
237127
237308
237448
237555
237584
237612
237596
237574
237523
237505
236435
236605
236758
236930
237090
237232
237351
237445
237477
237514
237505
237507
237476
237499
236596
236687
236792
236914
237035
237142
237240
237322
237359
237405
237415
237449
237460
237522
236765
236759
236822
236893
236985
237065
237151
237228
237275
237332
237359
237417
237464
237554
236894
236846
236867
236893
236949
237001
237071
237140
237196
237266
237317
237400
237478
237592
236999
236923
236912
236904
236935
236973
237032
237094
237154
237233
237300
237399
237496
237628
237077
236985
236955
236931
236943
236966
237016
237071
237135
237221
237300
237411
237518
237664
237107
237016
236979
236954
236961
236979
237025
237078
237140
237226
237309
237424
237532
237685
237118
237040
237010
236988
236996
237020
237065
237119
237183
237266
237348
237458
237561
237715
237091
237024
237014
237013
237035
237070
237123
237182
237246
237324
237399
237495
237587
237723
237035
236994
237020
237042
237083
237141
237209
237278
237345
237418
237486
237567
237648
237761
236966
236963
237020
237075
237141
237224
237309
237388
237458
237522
237576
237628
237695
237768
236691
236808
236954
237080
237214
237331
237442
237533
237603
237659
237704
237738
237776
237869
238489
238716
238864
239028
239164
239286
239380
239451
239471
239494
239465
239440
239361
239348
238675
238815
238920
239057
239178
239277
239355
239404
239408
239412
239371
239338
239289
239247
238884
238954
239043
239132
239216
239282
239337
239370
239370
239369
239328
239297
239238
239205
239057
239072
239126
239174
239228
239268
239304
239321
239315
239306
239267
239243
239201
239181
239205
239173
239194
239209
239239
239258
239279
239284
239276
239268
239236
239216
239187
239175
239303
239250
239244
239231
239236
239233
239237
239234
239226
239221
239200
239192
239179
239179
239372
239304
239270
239235
239220
239203
239202
239197
239192
239193
239181
239183
239178
239189
239389
239311
239261
239215
239191
239170
239168
239164
239166
239174
239170
239182
239183
239205
239346
239270
239223
239181
239159
239143
239144
239146
239150
239163
239163
239181
239187
239219
239292
239215
239174
239143
239133
239128
239138
239145
239153
239170
239174
239196
239207
239245
239198
239130
239110
239096
239105
239117
239139
239156
239172
239193
239199
239222
239234
239273
239085
239034
239044
239055
239088
239121
239159
239193
239218
239243
239247
239267
239275
239318
238980
238955
238990
239021
239075
239131
239193
239247
239283
239308
239308
239319
239324
239358
238814
238838
238916
238995
239083
239171
239259
239328
239370
239396
239395
239403
239389
239453
239865
239924
239968
240035
240093
240150
240202
240244
240277
240305
240299
240302
240273
240253
240077
240090
240117
240157
240196
240229
240257
240271
240273
240272
240245
240219
240178
240134
240296
240275
240296
240304
240314
240317
240317
240304
240282
240256
240213
240169
240116
240053
240468
240434
240436
240421
240408
240387
240362
240324
240279
240229
240166
240108
240045
239974
240614
240567
240547
240513
240482
240441
240396
240342
240280
240213
240137
240065
239993
239915
240705
240651
240611
240564
240516
240462
240405
240337
240263
240185
240100
240020
239939
239859
240740
240682
240629
240574
240518
240457
240394
240320
240242
240159
240068
239984
239899
239823
240720
240657
240601
240543
240486
240424
240360
240287
240209
240126
240034
239950
239864
239793
240654
240588
240534
240478
240425
240369
240311
240244
240171
240092
240001
239922
239838
239777
240565
240495
240447
240395
240351
240303
240255
240196
240130
240057
239972
239899
239820
239765
240450
240380
240344
240300
240267
240232
240197
240150
240094
240031
239953
239886
239813
239765
240313
240250
240231
240200
240182
240161
240141
240108
240064
240013
239941
239884
239818
239776
240181
240132
240124
240107
240103
240099
240095
240077
240047
240006
239944
239896
239838
239802
240028
239997
240010
240018
240035
240047
240061
240062
240042
240014
239964
239928
239872
239849
240617
240542
240485
240452
240431
240429
240445
240470
240500
240531
240559
240577
240597
240583
240724
240643
240584
240535
240499
240475
240463
240460
240465
240471
240474
240468
240465
240442
240823
240732
240670
240613
240564
240522
240489
240459
240436
240417
240399
240371
240357
240315
240883
240799
240732
240671
240612
240557
240506
240454
240408
240364
240323
240278
240241
240187
240919
240844
240775
240713
240647
240583
240518
240451
240386
240320
240258
240196
240143
240078
240920
240851
240782
240721
240654
240585
240512
240434
240354
240271
240191
240114
240046
239973
240894
240827
240760
240700
240634
240566
240491
240406
240318
240224
240132
240045
239964
239887
240835
240771
240710
240652
240591
240525
240451
240365
240273
240173
240073
239980
239889
239812
240745
240683
240631
240577
240523
240461
240393
240311
240222
240124
240021
239928
239833
239761
240633
240574
240529
240479
240433
240380
240321
240247
240164
240072
239972
239882
239787
239720
240512
240453
240415
240370
240334
240290
240242
240180
240108
240027
239934
239853
239764
239702
240378
240320
240290
240251
240225
240192
240158
240110
240051
239982
239899
239826
239742
239685
240257
240202
240177
240145
240126
240104
240083
240048
240003
239950
239881
239820
239745
239691
240122
240071
240060
240038
240028
240018
240010
239992
239962
239926
239871
239827
239761
239716
240900
240765
240645
240553
240482
240436
240410
240402
240414
240439
240473
240501
240548
240542
240858
240727
240605
240506
240426
240370
240334
240313
240314
240329
240353
240368
240396
240386
240793
240668
240546
240454
240372
240313
240268
240238
240226
240228
240238
240236
240257
240238
240739
240621
240504
240414
240331
240267
240214
240174
240146
240132
240126
240114
240117
240092
240689
240574
240463
240378
240297
240231
240171
240122
240080
240048
240026
240002
239989
239959
240629
240521
240419
240337
240258
240190
240127
240070
240016
239968
239929
239893
239862
239827
240565
240462
240370
240291
240215
240146
240079
240016
239954
239895
239841
239795
239753
239713
240490
240391
240308
240231
240160
240091
240024
239958
239891
239824
239759
239704
239651
239609
240402
240308
240234
240161
240094
240027
239963
239896
239828
239758
239688
239628
239567
239525
240300
240212
240145
240075
240015
239952
239892
239828
239763
239694
239621
239560
239493
239451
240196
240112
240053
239987
239932
239873
239818
239758
239699
239635
239565
239506
239440
239400
240077
239998
239946
239884
239835
239782
239734
239682
239630
239574
239509
239455
239389
239349
239968
239893
239844
239788
239745
239696
239654
239610
239566
239520
239465
239417
239358
239319
239836
239766
239728
239679
239644
239602
239570
239535
239502
239467
239421
239382
239323
239284
240886
240755
240622
240512
240417
240344
240291
240262
240253
240264
240292
240316
240360
240356
240757
240626
240482
240365
240260
240183
240125
240094
240083
240093
240120
240141
240183
240184
240608
240471
240321
240206
240102
240027
239971
239939
239926
239933
239955
239973
240014
240013
240470
240332
240184
240070
239965
239889
239830
239794
239778
239781
239797
239813
239846
239847
240337
240198
240054
239941
239839
239762
239702
239664
239644
239642
239652
239663
239689
239692
240203
240066
239931
239821
239722
239644
239583
239543
239517
239509
239512
239519
239536
239541
240079
239945
239820
239713
239617
239539
239476
239433
239402
239388
239386
239389
239397
239403
239960
239829
239715
239610
239518
239440
239377
239331
239296
239276
239268
239268
239266
239272
239846
239721
239616
239514
239427
239350
239287
239239
239201
239177
239163
239157
239148
239151
239734
239614
239518
239420
239338
239262
239201
239152
239113
239085
239064
239052
239036
239037
239628
239516
239427
239333
239255
239180
239120
239069
239030
238999
238973
238957
238938
238938
239519
239413
239330
239241
239168
239097
239039
238989
238949
238917
238887
238869
238849
238848
239421
239321
239242
239158
239090
239022
238965
238915
238875
238842
238812
238793
238773
238772
239298
239204
239137
239063
239003
238941
238890
238843
238805
238774
238743
238724
238699
238693
240662
240557
240442
240346
240258
240188
240132
240093
240070
240061
240066
240078
240103
240093
240482
240380
240255
240156
240063
239990
239932
239894
239872
239865
239872
239883
239912
239902
240292
240184
240057
239957
239863
239791
239734
239698
239677
239672
239680
239692
239722
239720
240103
239992
239866
239766
239673
239600
239543
239507
239486
239482
239490
239504
239534
239541
239924
239808
239684
239584
239491
239419
239361
239325
239303
239299
239309
239324
239353
239369
239748
239630
239511
239411
239320
239248
239190
239153
239130
239125
239136
239151
239178
239201
239586
239467
239353
239253
239165
239092
239034
238994
238969
238962
238972
238987
239013
239041
239436
239316
239208
239108
239023
238949
238891
238849
238820
238808
238816
238831
238855
238887
239298
239180
239078
238979
238896
238823
238764
238719
238684
238668
238673
238687
238708
238744
239169
239053
238957
238861
238781
238708
238650
238604
238568
238549
238549
238562
238579
238613
239050
238939
238849
238756
238679
238608
238550
238504
238468
238447
238443
238453
238465
238497
238935
238829
238745
238657
238584
238515
238460
238413
238376
238352
238344
238352
238358
238386
238832
238733
238653
238570
238500
238434
238380
238332
238294
238268
238258
238262
238266
238291
238710
238618
238547
238475
238413
238354
238303
238258
238220
238192
238178
238178
238178
238192
240227
240165
240089
240025
239964
239910
239862
239823
239793
239773
239764
239762
239775
239772
240033
239977
239898
239834
239772
239719
239671
239633
239606
239589
239583
239584
239599
239589
239843
239783
239703
239638
239576
239523
239476
239441
239417
239404
239401
239405
239425
239421
239651
239588
239509
239444
239381
239328
239284
239251
239229
239219
239219
239229
239251
239258
239469
239401
239323
239256
239193
239141
239097
239066
239048
239041
239044
239060
239085
239103
239292
239219
239143
239075
239014
238962
238920
238892
238876
238872
238880
238897
238926
238952
239125
239049
238974
238907
238846
238795
238756
238730
238715
238715
238725
238744
238773
238806
238969
238889
238816
238749
238690
238641
238603
238579
238567
238569
238580
238599
238627
238664
238823
238741
238670
238603
238546
238499
238464
238439
238428
238431
238442
238462
238488
238524
238685
238602
238535
238469
238415
238369
238335
238310
238299
238301
238311
238330
238353
238391
238558
238476
238411
238348
238296
238252
238220
238195
238182
238181
238188
238206
238228
238267
238440
238360
238299
238239
238190
238147
238114
238088
238075
238072
238077
238093
238113
238152
238331
238254
238197
238140
238094
238053
238020
237995
237981
237978
237982
237995
238014
238052
238220
238149
238094
238042
238000
237962
237932
237907
237893
237888
237892
237903
237921
237953
239640
239624
239593
239568
239540
239516
239492
239470
239451
239437
239426
239426
239437
239444
239469
239462
239433
239409
239383
239360
239338
239319
239303
239292
239285
239286
239301
239300
239311
239302
239273
239248
239223
239201
239181
239164
239150
239142
239139
239143
239162
239164
239152
239138
239110
239085
239061
239040
239022
239007
238998
238993
238995
239002
239022
239031
238999
238979
238951
238926
238902
238882
238866
238854
238847
238846
238851
238863
238886
238902
238850
238824
238796
238770
238747
238728
238713
238704
238701
238703
238712
238726
238751
238773
238707
238677
238647
238620
238597
238579
238566
238560
238559
238564
238576
238594
238619
238646
238568
238534
238504
238477
238454
238437
238427
238422
238423
238431
238444
238464
238490
238521
238435
238399
238369
238342
238320
238304
238295
238292
238294
238303
238318
238340
238366
238402
238309
238270
238242
238216
238195
238180
238172
238169
238172
238182
238197
238221
238246
238285
238192
238151
238124
238099
238080
238066
238058
238055
238058
238068
238085
238109
238134
238176
238082
238041
238016
237992
237974
237960
237951
237948
237952
237962
237979
238004
238028
238071
237980
237940
237916
237893
237875
237862
237854
237853
237858
237870
237889
237913
237939
237982
237878
237841
237819
237797
237782
237770
237762
237761
237768
237782
237803
237825
237854
237891
239011
239024
239031
239042
239050
239058
239063
239066
239068
239069
239071
239078
239089
239102
238893
238911
238922
238936
238946
238956
238962
238968
238972
238977
238982
238990
239002
239009
238784
238802
238813
238828
238839
238849
238857
238864
238870
238875
238882
238891
238907
238914
238670
238688
238700
238715
238726
238737
238746
238754
238763
238771
238780
238791
238808
238817
238558
238575
238586
238600
238611
238623
238633
238643
238653
238663
238674
238687
238705
238718
238447
238461
238473
238486
238497
238509
238520
238531
238542
238554
238567
238582
238602
238620
238338
238349
238360
238371
238383
238395
238407
238419
238432
238446
238461
238479
238500
238522
238231
238239
238250
238261
238273
238285
238298
238311
238325
238341
238358
238378
238400
238427
238129
238133
238143
238153
238165
238178
238191
238206
238222
238239
238258
238281
238305
238335
238032
238031
238041
238051
238063
238075
238089
238105
238122
238141
238162
238186
238210
238244
237938
237934
237942
237952
237964
237977
237992
238008
238027
238048
238070
238096
238120
238156
237849
237841
237850
237858
237870
237883
237898
237916
237936
237958
237983
238009
238033
238071
237760
237752
237760
237769
237782
237796
237814
237834
237857
237880
237906
237932
237959
237996
237675
237668
237677
237687
237701
237716
237734
237755
237778
237801
237829
237853
237883
237915
238350
238392
238429
238466
238499
238530
238559
238585
238608
238628
238644
238660
238673
238694
238292
238337
238375
238415
238451
238485
238515
238541
238565
238587
238607
238626
238644
238661
238235
238282
238321
238363
238400
238435
238467
238494
238519
238541
238561
238580
238599
238615
238176
238223
238263
238305
238343
238378
238411
238439
238466
238488
238510
238529
238549
238566
238114
238161
238202
238244
238281
238317
238349
238379
238405
238429
238450
238470
238490
238508
238049
238094
238135
238177
238215
238251
238284
238314
238342
238366
238388
238409
238430
238450
237984
238026
238068
238108
238146
238182
238215
238246
238273
238298
238322
238343
238365
238387
237916
237957
237998
238038
238075
238111
238144
238175
238203
238230
238254
238277
238299
238323
237850
237887
237928
237966
238003
238038
238072
238103
238132
238159
238185
238209
238232
238258
237782
237817
237857
237894
237931
237966
237999
238031
238061
238090
238116
238142
238165
238193
237717
237747
237786
237823
237859
237894
237928
237961
237992
238022
238049
238076
238099
238129
237653
237680
237718
237753
237790
237825
237860
237893
237926
237956
237985
238011
238034
238066
237588
237615
237652
237688
237725
237761
237797
237832
237866
237896
237925
237952
237978
238010
237534
237561
237596
237631
237667
237702
237736
237770
237802
237832
237862
237889
237917
237946
237647
237703
237756
237806
237853
237897
237939
237978
238014
238047
238076
238103
238127
238154
237640
237695
237748
237799
237848
237895
237940
237980
238018
238053
238086
238115
238141
238169
237629
237687
237742
237794
237845
237893
237938
237980
238019
238054
238087
238117
238144
238171
237616
237674
237730
237784
237837
237886
237933
237976
238016
238052
238086
238116
238144
238172
237601
237660
237717
237773
237826
237876
237923
237967
238007
238043
238077
238107
238135
238162
237582
237641
237699
237755
237810
237861
237909
237953
237994
238031
238065
238095
238123
238150
237561
237621
237679
237736
237790
237842
237890
237934
237974
238011
238045
238075
238103
238129
237536
237595
237654
237711
237765
237817
237866
237910
237951
237988
238022
238052
238080
238107
237510
237568
237627
237683
237738
237789
237837
237882
237922
237959
237993
238023
238051
238078
237481
237538
237596
237652
237706
237758
237806
237850
237891
237928
237961
237992
238019
238046
237452
237508
237565
237620
237673
237723
237771
237815
237856
237892
237925
237956
237982
238010
237422
237476
237532
237586
237637
237687
237734
237778
237819
237855
237888
237918
237943
237972
237390
237445
237498
237551
237602
237651
237697
237741
237781
237817
237849
237878
237904
237933
237370
237420
237470
237521
237568
237616
237659
237700
237738
237773
237806
237834
237861
237887
236862
236916
236969
237020
237070
237117
237163
237207
237248
237287
237323
237357
237388
237423
236884
236935
236991
237044
237096
237146
237195
237241
237285
237326
237364
237401
237434
237472
236910
236963
237020
237074
237127
237178
237228
237274
237319
237361
237401
237438
237472
237508
236931
236986
237045
237100
237155
237208
237259
237307
237353
237397
237437
237475
237511
237547
236952
237010
237070
237127
237184
237237
237289
237338
237385
237428
237469
237508
237543
237578
236972
237032
237093
237151
237209
237264
237317
237367
237414
237458
237500
237538
237574
237608
236990
237052
237114
237174
237232
237288
237341
237392
237439
237483
237524
237562
237598
237630
237006
237070
237132
237193
237252
237309
237362
237413
237460
237504
237545
237582
237617
237650
237020
237085
237147
237209
237268
237325
237378
237429
237475
237519
237559
237596
237630
237661
237033
237097
237160
237221
237280
237337
237390
237440
237487
237529
237569
237605
237637
237667
237043
237107
237169
237230
237288
237345
237397
237446
237491
237532
237571
237606
237638
237668
237050
237113
237174
237235
237292
237348
237399
237447
237492
237532
237569
237602
237633
237662
237056
237118
237177
237237
237293
237347
237397
237443
237486
237524
237560
237592
237621
237649
237068
237128
237184
237241
237293
237344
237391
237434
237475
237511
237545
237576
237603
237628
235982
236025
236072
236117
236161
236205
236248
236289
236329
236367
236403
236438
236471
236506
236022
236063
236112
236158
236205
236250
236295
236339
236380
236420
236458
236495
236529
236568
236067
236110
236160
236207
236255
236300
236345
236389
236431
236471
236510
236547
236582
236621
236109
236155
236206
236254
236302
236349
236396
236440
236484
236526
236566
236604
236640
236679
236153
236202
236254
236303
236353
236401
236447
236493
236536
236579
236619
236659
236695
236733
236198
236249
236302
236352
236403
236452
236499
236546
236590
236633
236674
236714
236751
236788
236243
236297
236350
236402
236453
236503
236551
236597
236642
236685
236727
236766
236804
236839
236289
236345
236398
236451
236503
236553
236601
236648
236693
236736
236777
236816
236854
236888
236334
236390
236444
236498
236550
236600
236649
236695
236740
236782
236823
236861
236898
236932
236378
236435
236489
236543
236595
236645
236693
236739
236783
236825
236865
236902
236938
236970
236419
236476
236530
236584
236636
236686
236733
236778
236821
236861
236900
236936
236972
237002
236460
236517
236570
236623
236674
236723
236769
236813
236854
236893
236930
236965
236999
237030
236496
236553
236605
236658
236707
236755
236799
236842
236882
236919
236955
236987
237020
237053
236537
236592
236642
236692
236739
236784
236826
236866
236904
236940
236973
237005
237037
237068
235193
235228
235262
235295
235328
235360
235391
235421
235449
235479
235106
235135
235171
235206
235242
235277
235312
235346
235380
235413
235445
235476
235504
235537
235157
235187
235224
235259
235295
235330
235364
235398
235432
235464
235496
235527
235555
235589
235207
235239
235276
235311
235348
235383
235418
235452
235487
235520
235552
235584
235613
235646
235259
235293
235331
235367
235403
235439
235474
235508
235542
235576
235608
235640
235670
235702
235313
235349
235387
235423
235460
235495
235531
235566
235600
235634
235668
235700
235731