/*--------------------------------*- C++ -*----------------------------------*\
| =========                 |                                                 |
| \\      /  F ield         | OpenFOAM: The Open Source CFD Toolbox           |
|  \\    /   O peration     | Version:  v2106                                 |
|   \\  /    A nd           | Website:  www.openfoam.com                      |
|    \\/     M anipulation  |                                                 |
\*---------------------------------------------------------------------------*/
FoamFile
{
    version     2.0;
    format      ascii;
    arch        "LSB;label=32;scalar=64";
    class       volScalarField;
    location    "0.000152";
    object      Ttot;
}
// * * * * * * * * * * * * * * * * * * * * * * * * * * * * * * * * * * * * * //

dimensions      [0 0 0 1 0 0 0];

internalField   nonuniform List<scalar> 
18109
(
301.626
302.117
302.163
302.309
302.387
302.476
302.536
301.622
301.919
301.982
302.09
302.175
302.264
302.337
301.588
301.734
301.805
301.9
301.989
302.085
302.171
301.592
301.62
301.664
301.747
301.845
301.946
302.038
301.584
301.568
301.593
301.654
301.748
301.849
301.946
301.627
301.576
301.571
301.613
301.691
301.784
301.882
301.657
301.584
301.588
301.607
301.667
301.749
301.845
301.687
301.609
301.601
301.608
301.654
301.725
301.822
302.351
302.701
302.777
302.904
302.99
303.08
303.142
303.19
303.228
303.227
303.195
303.18
303.138
303.156
302.299
302.501
302.607
302.727
302.824
302.916
302.991
303.042
303.085
303.108
303.136
303.163
303.21
303.291
302.294
302.389
302.48
302.59
302.69
302.787
302.868
302.934
302.989
303.028
303.065
303.113
303.181
303.278
302.294
302.323
302.392
302.491
302.593
302.691
302.774
302.846
302.911
302.968
303.025
303.092
303.184
303.308
302.318
302.323
302.358
302.439
302.532
302.626
302.712
302.789
302.861
302.927
302.996
303.078
303.184
303.31
302.379
302.347
302.365
302.421
302.498
302.583
302.669
302.749
302.829
302.906
302.987
303.086
303.195
303.333
302.435
302.391
302.403
302.426
302.483
302.558
302.643
302.727
302.813
302.9
302.992
303.1
303.213
303.359
302.486
302.427
302.424
302.433
302.478
302.544
302.629
302.718
302.812
302.906
303.008
303.118
303.233
303.377
302.549
302.476
302.453
302.455
302.486
302.544
302.63
302.725
302.824
302.925
303.032
303.139
303.256
303.384
302.594
302.521
302.479
302.479
302.496
302.547
302.637
302.74
302.85
302.959
303.071
303.172
303.284
303.389
302.617
302.56
302.513
302.509
302.515
302.569
302.661
302.77
302.884
302.999
303.115
303.213
303.316
303.409
302.604
302.591
302.546
302.524
302.528
302.595
302.696
302.818
302.941
303.062
303.177
303.27
303.373
303.424
302.65
302.64
302.574
302.551
302.568
302.642
302.748
302.875
303.004
303.133
303.256
303.354
303.437
303.416
302.289
302.45
302.482
302.544
302.605
302.705
302.822
302.963
303.098
303.222
303.332
303.436
303.511
303.438
301.42
300.642
299.506
297.82
296.065
294.612
302.284
301.78
301.038
299.862
298.311
296.667
302.857
302.495
301.933
300.977
299.746
298.625
302.925
302.765
302.486
301.908
301.16
300.633
303.081
303.067
303.01
302.753
302.485
302.409
303.188
303.305
303.417
303.448
303.58
303.936
303.287
303.479
303.714
303.975
304.413
305.068
303.343
303.58
303.91
304.339
304.957
305.709
303.389
303.636
303.983
304.471
305.13
305.892
303.383
303.625
303.958
304.431
305.012
305.565
303.337
303.539
303.846
304.229
304.608
304.869
303.322
303.498
303.707
303.901
304.013
303.838
303.317
303.391
303.456
303.452
303.212
302.452
303.237
303.248
303.235
303.051
302.538
301.351
303.308
303.267
303.176
302.807
302.147
300.911
303.124
303.006
302.971
302.735
302.209
301.237
303.466
303.401
303.392
303.208
302.742
301.989
303.454
303.48
303.543
303.489
303.265
302.865
303.486
303.609
303.752
303.819
303.81
303.804
303.505
303.69
303.909
304.125
304.358
304.69
303.521
303.746
304.029
304.376
304.82
305.405
303.536
303.783
304.099
304.54
305.13
305.856
303.538
303.784
304.106
304.585
305.218
305.979
303.531
303.764
304.076
304.546
305.124
305.712
303.541
303.749
304.011
304.354
304.696
304.929
303.563
303.725
303.88
304.007
304.03
303.742
303.568
303.594
303.598
303.473
303.072
302.197
303.516
303.457
303.333
302.961
302.25
301.022
303.545
303.386
303.146
302.613
301.797
300.652
303.391
303.247
303.034
302.585
301.856
300.883
303.627
303.522
303.36
302.981
302.365
301.627
303.565
303.544
303.511
303.337
303.022
302.675
303.505
303.59
303.672
303.699
303.727
303.839
303.378
303.538
303.74
303.979
304.332
304.786
303.234
303.425
303.696
304.058
304.58
305.182
303.073
303.268
303.556
303.963
304.475
304.933
302.919
303.097
303.341
303.644
303.912
303.985
302.801
302.911
303.016
303.01
302.734
301.89
302.693
302.662
302.5
301.93
300.757
298.773
302.578
302.316
301.776
300.533
298.473
295.659
302.371
301.789
300.871
299.108
296.644
293.761
302.162
301.327
300.146
298.235
295.866
293.402
301.987
301.03
299.775
297.993
295.91
294.02
301.61
301.277
300.261
298.13
294.824
290.981
301.446
300.733
299.248
296.67
293.317
289.854
301.304
300.383
298.743
296.212
293.184
290.225
301.277
300.256
298.722
296.485
293.974
291.86
301.992
301.231
300.23
298.779
297.278
295.994
302.59
301.998
301.165
299.959
298.889
298.193
302.645
302.323
301.839
301.111
300.672
300.636
302.71
302.592
302.439
302.226
302.294
302.722
302.708
302.773
302.91
303.088
303.543
304.256
302.669
302.828
303.106
303.526
304.161
304.851
302.596
302.776
303.108
303.6
304.226
304.795
302.511
302.676
303.007
303.429
303.804
303.929
302.44
302.583
302.802
302.936
302.814
301.952
302.367
302.418
302.445
302.093
301.089
299.026
302.349
302.283
301.98
300.992
299.05
296.122
302.299
302.013
301.331
299.827
297.406
294.336
302.232
301.785
300.871
299.184
296.811
294.09
302.273
301.703
300.764
299.15
297.038
294.831
294.796
294.456
297.995
305.217
313.976
297.876
298.585
302.424
309.108
315.781
300.794
302.308
306.143
311.371
316.414
303.156
305.305
308.918
312.809
316.768
305.15
307.4
310.617
314.107
316.764
306.38
308.325
310.918
313.782
315.183
306.886
308.526
310.487
311.947
312.293
306.792
307.858
308.407
308.065
307.546
306.784
305.971
305.844
304.373
303.001
303.624
305.491
304.21
302.153
298.782
297.553
300.635
305.145
301.91
297.666
293.373
293.573
298.999
306.891
311.178
299.64
294.191
290.309
291.747
299.745
308.946
314.328
313.819
298.419
293.065
289.808
292.21
301.124
310.096
313.126
316.32
298.205
293.682
291.56
294.302
302.778
312.416
319.239
317.394
298.992
296.065
295.483
298.927
307.504
316.313
321.417
313.955
300.582
299.299
300.106
304.088
311.481
318.555
321.5
313.432
302.353
302.39
304.181
308.313
313.536
317.971
320.382
311.074
304.056
305.042
307.291
310.873
314.903
317.84
318.021
308.36
305.536
307.114
309.561
312.673
316.055
316.795
314.384
304.668
306.523
308.198
310.355
313.07
315.124
314.63
311.699
304.66
306.997
308.553
310.429
312.365
313.435
312.835
310.489
303.212
306.991
308.236
309.259
310.017
310.299
309.681
307.45
304.476
306.209
306.588
306.289
305.967
306.774
308.055
304.513
303.261
301.549
301.097
303.692
307.788
302.187
298.932
296.687
297.683
302.073
307.547
299.748
295.283
293.066
295.705
303.563
310.437
298.399
293.994
292.043
295.397
304.631
312.08
298.097
294.503
293.768
297.862
306.581
298.846
296.893
297.903
303.021
311.404
300.571
300.278
302.583
308.028
314.283
302.642
303.639
306.566
311.278
315.822
304.511
306.192
309.101
312.679
316.405
305.764
307.605
310.411
313.437
315.395
306.103
307.586
309.353
310.986
311.935
305.509
305.918
306.178
306.754
308.192
303.348
302.075
301.484
302.784
305.6
299.621
297.082
297.507
301.499
306.924
295.367
292.848
295.453
301.707
308.629
291.801
289.92
294.777
304.157
312.106
290.283
288.839
294.205
305.922
315.138
290.35
289.228
293.873
304.73
314.075
292.069
292.125
296.908
305.951
314.081
295.069
296.343
301.311
309.439
316.568
298.365
300.597
305.493
312.219
317.527
301.465
304.259
308.704
313.259
317.895
304.049
306.757
310.404
314.034
316.294
305.592
307.885
310.943
313.587
314.164
305.998
307.437
308.939
310.355
310.811
305.316
305.283
305.094
305.92
307.183
302.934
300.907
300.093
302.201
304.823
299.131
295.655
296.05
301.022
306.276
294.812
290.986
293.262
299.977
306.944
291.444
288.34
292.477
301.743
310.757
289.961
287.181
291.578
302.638
312.418
290.067
287.533
290.797
301.138
311.939
291.858
290.287
293.405
301.698
311.716
303.425
303.703
303.825
303.964
304.059
304.149
304.217
304.264
304.295
304.29
304.263
304.23
304.169
304.159
303.414
303.598
303.731
303.859
303.961
304.049
304.119
304.164
304.193
304.203
304.212
304.216
304.23
304.276
303.477
303.578
303.678
303.791
303.889
303.976
304.045
304.096
304.134
304.155
304.171
304.194
304.225
304.297
303.515
303.58
303.651
303.75
303.843
303.926
303.992
304.044
304.086
304.118
304.15
304.19
304.243
304.33
303.576
303.595
303.651
303.733
303.817
303.895
303.961
304.015
304.06
304.099
304.137
304.189
304.256
304.354
303.644
303.646
303.684
303.741
303.808
303.877
303.94
303.995
304.044
304.091
304.139
304.204
304.279
304.386
303.712
303.694
303.722
303.753
303.808
303.868
303.929
303.987
304.041
304.095
304.151
304.223
304.3
304.409
303.763
303.74
303.756
303.771
303.815
303.866
303.926
303.985
304.045
304.106
304.17
304.246
304.324
304.434
303.817
303.784
303.785
303.79
303.825
303.872
303.933
303.996
304.06
304.126
304.196
304.271
304.347
304.449
303.853
303.821
303.807
303.812
303.838
303.883
303.946
304.014
304.084
304.156
304.231
304.302
304.377
304.46
303.866
303.849
303.824
303.834
303.857
303.903
303.968
304.041
304.114
304.19
304.268
304.336
304.407
304.462
303.863
303.869
303.839
303.846
303.873
303.929
304.001
304.081
304.16
304.238
304.317
304.385
304.449
304.481
303.857
303.871
303.838
303.858
303.894
303.967
304.044
304.129
304.213
304.296
304.378
304.441
304.494
304.475
303.604
303.732
303.788
303.854
303.925
304.005
304.098
304.195
304.285
304.364
304.439
304.498
304.559
304.497
304.911
305.1
305.217
305.348
305.455
305.544
305.615
305.66
305.687
305.686
305.664
305.633
305.579
305.541
304.924
305.061
305.169
305.288
305.393
305.476
305.54
305.582
305.602
305.604
305.603
305.593
305.585
305.59
305.004
305.089
305.183
305.273
305.358
305.431
305.489
305.532
305.552
305.564
305.569
305.572
305.575
305.61
305.067
305.119
305.185
305.262
305.335
305.398
305.449
305.488
305.51
305.53
305.543
305.564
305.586
305.646
305.133
305.158
305.202
305.261
305.322
305.378
305.426
305.465
305.489
305.514
305.534
305.567
305.604
305.674
305.204
305.203
305.235
305.273
305.321
305.368
305.411
305.449
305.477
305.508
305.535
305.581
305.629
305.706
305.262
305.246
305.266
305.289
305.33
305.368
305.407
305.444
305.477
305.514
305.548
305.6
305.654
305.734
305.314
305.291
305.299
305.314
305.347
305.378
305.413
305.45
305.486
305.528
305.568
305.625
305.682
305.768
305.36
305.331
305.329
305.338
305.365
305.393
305.429
305.467
305.505
305.549
305.592
305.65
305.705
305.79
305.391
305.367
305.36
305.366
305.388
305.416
305.453
305.493
305.533
305.579
305.625
305.679
305.733
305.811
305.398
305.388
305.381
305.389
305.412
305.444
305.483
305.524
305.565
305.611
305.657
305.705
305.759
305.82
305.395
305.396
305.397
305.411
305.441
305.479
305.522
305.567
305.612
305.659
305.706
305.749
305.798
305.843
305.383
305.388
305.401
305.435
305.476
305.521
305.568
305.617
305.663
305.709
305.755
305.791
305.833
305.849
305.242
305.321
305.392
305.453
305.511
305.568
305.627
305.683
305.734
305.779
305.829
305.863
305.89
305.885
306.175
306.304
306.384
306.48
306.565
306.633
306.688
306.734
306.75
306.769
306.763
306.751
306.707
306.694
306.217
306.299
306.365
306.448
306.524
306.589
306.641
306.681
306.694
306.707
306.705
306.7
306.685
306.684
306.292
306.339
306.393
306.455
306.511
306.562
306.606
306.641
306.655
306.671
306.67
306.673
306.665
306.68
306.352
306.375
306.409
306.45
306.493
306.531
306.567
306.598
306.614
306.632
306.637
306.651
306.657
306.685
306.418
306.407
306.424
306.446
306.477
306.505
306.537
306.566
306.584
306.607
306.618
306.64
306.659
306.697
306.466
306.441
306.443
306.448
306.466
306.484
306.51
306.536
306.558
306.585
306.604
306.636
306.667
306.713
306.509
306.472
306.462
306.455
306.464
306.477
306.498
306.522
306.545
306.575
306.602
306.64
306.677
306.73
306.543
306.498
306.48
306.468
306.47
306.477
306.496
306.517
306.541
306.575
306.606
306.649
306.691
306.749
306.56
306.513
306.493
306.479
306.48
306.486
306.503
306.523
306.547
306.581
306.614
306.66
306.703
306.764
306.575
306.529
306.51
306.497
306.498
306.505
306.522
306.543
306.568
306.602
306.635
306.68
306.722
306.784
306.574
306.53
306.517
306.511
306.517
306.529
306.549
306.572
306.597
306.629
306.661
306.702
306.741
306.798
306.562
306.527
306.529
306.529
306.542
306.563
306.589
306.615
306.642
306.672
306.702
306.738
306.774
306.824
306.551
306.526
306.539
306.553
306.575
306.604
306.636
306.666
306.694
306.722
306.747
306.773
306.804
306.839
306.47
306.494
306.536
306.574
306.617
306.657
306.697
306.732
306.761
306.787
306.809
306.828
306.849
306.887
307.099
307.174
307.224
307.281
307.328
307.371
307.405
307.431
307.44
307.453
307.446
307.443
307.418
307.416
307.168
307.209
307.243
307.289
307.331
307.366
307.394
307.413
307.417
307.422
307.41
307.403
307.388
307.377
307.246
307.264
307.291
307.319
307.347
307.369
307.389
307.402
307.404
307.406
307.393
307.385
307.368
307.36
307.31
307.309
307.323
307.337
307.354
307.366
307.379
307.385
307.384
307.383
307.371
307.364
307.352
307.349
307.366
307.348
307.35
307.352
307.361
307.365
307.372
307.374
307.371
307.37
307.36
307.355
307.347
307.346
307.402
307.377
307.37
307.362
307.361
307.358
307.359
307.357
307.355
307.355
307.348
307.347
307.345
307.348
307.43
307.398
307.382
307.366
307.358
307.35
307.349
307.347
307.346
307.347
307.344
307.347
307.348
307.356
307.441
307.405
307.383
307.363
307.352
307.342
307.34
307.339
307.34
307.344
307.344
307.351
307.355
307.367
307.43
307.394
307.373
307.354
307.344
307.336
307.336
307.336
307.338
307.345
307.347
307.358
307.363
307.38
307.418
307.38
307.361
307.346
307.34
307.337
307.339
307.341
307.345
307.354
307.358
307.371
307.379
307.399
307.391
307.355
307.344
307.334
307.336
307.338
307.345
307.352
307.359
307.37
307.375
307.39
307.399
307.42
307.355
307.325
307.327
307.327
307.337
307.347
307.361
307.373
307.384
307.397
307.402
307.416
307.425
307.448
307.325
307.303
307.314
307.323
307.341
307.36
307.382
307.402
307.418
307.431
307.435
307.446
307.454
307.474
307.274
307.276
307.302
307.327
307.356
307.386
307.418
307.444
307.461
307.474
307.478
307.488
307.489
307.52
307.679
307.697
307.707
307.727
307.743
307.761
307.779
307.794
307.807
307.82
307.821
307.827
307.821
307.816
307.76
307.757
307.762
307.772
307.782
307.791
307.8
307.805
307.806
307.808
307.8
307.795
307.783
307.769
307.842
307.828
307.83
307.828
307.828
307.826
307.824
307.818
307.81
307.802
307.788
307.775
307.76
307.738
307.906
307.888
307.883
307.873
307.864
307.853
307.842
307.827
307.81
307.793
307.771
307.751
307.732
307.707
307.962
307.939
307.926
307.91
307.894
307.876
307.857
307.835
307.812
307.788
307.762
307.737
307.713
307.685
307.997
307.971
307.952
307.93
307.908
307.885
307.862
307.836
307.808
307.78
307.749
307.721
307.694
307.666
308.013
307.985
307.961
307.937
307.912
307.886
307.861
307.832
307.803
307.773
307.741
307.711
307.682
307.655
308.01
307.98
307.955
307.929
307.904
307.878
307.852
307.824
307.794
307.764
307.731
307.703
307.673
307.649
307.991
307.96
307.936
307.91
307.886
307.862
307.838
307.812
307.785
307.756
307.725
307.698
307.67
307.65
307.965
307.932
307.91
307.886
307.866
307.844
307.824
307.8
307.775
307.749
307.719
307.696
307.67
307.653
307.931
307.897
307.879
307.857
307.841
307.824
307.808
307.789
307.768
307.746
307.719
307.699
307.675
307.661
307.887
307.855
307.845
307.828
307.817
307.805
307.795
307.78
307.763
307.746
307.722
307.705
307.684
307.673
307.846
307.819
307.813
307.801
307.795
307.789
307.785
307.776
307.765
307.752
307.731
307.718
307.7
307.691
307.793
307.777
307.78
307.778
307.779
307.779
307.781
307.779
307.771
307.762
307.745
307.737
307.718
307.714
308.016
307.984
307.958
307.94
307.928
307.923
307.927
307.935
307.946
307.959
307.971
307.981
307.992
307.989
308.056
308.022
307.994
307.971
307.953
307.941
307.934
307.932
307.934
307.936
307.939
307.939
307.942
307.935
308.093
308.056
308.027
308.001
307.978
307.959
307.944
307.932
307.923
307.916
307.91
307.902
307.9
307.886
308.115
308.08
308.049
308.022
307.996
307.973
307.951
307.93
307.913
307.896
307.882
307.867
307.856
307.837
308.129
308.097
308.066
308.039
308.011
307.984
307.957
307.931
307.906
307.881
307.859
307.837
307.82
307.797
308.13
308.1
308.07
308.044
308.015
307.986
307.957
307.926
307.896
307.865
307.835
307.808
307.785
307.758
308.122
308.093
308.065
308.038
308.01
307.982
307.951
307.918
307.885
307.85
307.816
307.785
307.756
307.729
308.105
308.076
308.05
308.025
307.998
307.97
307.94
307.906
307.871
307.834
307.797
307.764
307.731
307.705
308.076
308.048
308.025
308.001
307.977
307.95
307.922
307.89
307.856
307.82
307.782
307.75
307.716
307.691
308.04
308.013
307.993
307.969
307.949
307.925
307.9
307.871
307.839
307.805
307.769
307.738
307.704
307.682
308.001
307.974
307.956
307.934
307.917
307.897
307.876
307.851
307.824
307.794
307.761
307.734
307.702
307.682
307.956
307.929
307.915
307.896
307.882
307.866
307.851
307.831
307.808
307.783
307.753
307.729
307.7
307.682
307.917
307.891
307.879
307.862
307.851
307.839
307.829
307.814
307.797
307.778
307.753
307.733
307.707
307.691
307.868
307.845
307.839
307.827
307.821
307.813
307.808
307.799
307.787
307.774
307.754
307.74
307.717
307.703
308.155
308.103
308.054
308.015
307.984
307.963
307.951
307.947
307.95
307.959
307.973
307.985
308.005
308.004
308.138
308.087
308.037
307.997
307.963
307.939
307.923
307.914
307.913
307.919
307.929
307.935
307.948
307.945
308.113
308.064
308.014
307.977
307.942
307.918
307.899
307.886
307.881
307.881
307.886
307.886
307.896
307.89
308.092
308.046
307.999
307.962
307.928
307.901
307.879
307.863
307.851
307.846
307.844
307.84
307.844
307.835
308.074
308.03
307.984
307.949
307.916
307.888
307.864
307.844
307.828
307.815
307.808
307.8
307.796
307.786
308.053
308.01
307.969
307.935
307.902
307.874
307.848
307.826
307.805
307.787
307.773
307.76
307.75
307.738
308.03
307.989
307.952
307.919
307.888
307.859
307.832
307.808
307.784
307.761
307.742
307.726
307.711
307.698
308.005
307.965
307.931
307.9
307.87
307.842
307.815
307.788
307.763
307.737
307.714
307.694
307.676
307.662
307.975
307.937
307.908
307.877
307.849
307.821
307.795
307.768
307.742
307.716
307.69
307.67
307.648
307.635
307.942
307.906
307.879
307.849
307.824
307.797
307.772
307.747
307.722
307.696
307.669
307.648
307.625
307.611
307.909
307.875
307.85
307.821
307.798
307.772
307.749
307.725
307.702
307.678
307.653
307.633
307.61
307.597
307.869
307.837
307.815
307.788
307.766
307.743
307.722
307.701
307.681
307.66
307.636
307.618
307.594
307.582
307.834
307.803
307.782
307.757
307.738
307.716
307.697
307.679
307.662
307.644
307.624
307.608
307.587
307.575
307.786
307.757
307.742
307.72
307.704
307.685
307.671
307.655
307.642
307.628
307.61
307.597
307.576
307.563
308.167
308.116
308.063
308.018
307.979
307.948
307.927
307.915
307.91
307.914
307.925
307.935
307.953
307.952
308.119
308.067
308.009
307.962
307.919
307.888
307.864
307.852
307.847
307.85
307.86
307.869
307.886
307.887
308.062
308.008
307.948
307.902
307.86
307.83
307.806
307.793
307.788
307.79
307.799
307.806
307.823
307.823
308.01
307.956
307.896
307.851
307.808
307.778
307.754
307.739
307.732
307.733
307.74
307.746
307.76
307.761
307.96
307.905
307.848
307.802
307.761
307.731
307.707
307.691
307.683
307.682
307.686
307.69
307.702
307.703
307.91
307.856
307.802
307.758
307.718
307.687
307.663
307.647
307.636
307.633
307.634
307.638
307.645
307.648
307.864
307.811
307.761
307.718
307.68
307.649
307.624
307.607
307.595
307.589
307.589
307.59
307.594
307.598
307.821
307.769
307.724
307.681
307.645
307.614
307.589
307.57
307.556
307.549
307.546
307.547
307.547
307.551
307.781
307.731
307.689
307.648
307.613
307.582
307.557
307.538
307.523
307.514
307.509
307.507
307.505
307.508
307.741
307.694
307.655
307.615
307.583
307.552
307.527
307.508
307.493
307.482
307.474
307.471
307.466
307.468
307.705
307.661
307.625
307.586
307.555
307.524
307.5
307.48
307.464
307.452
307.443
307.438
307.432
307.433
307.667
307.625
307.592
307.555
307.525
307.496
307.473
307.453
307.437
307.424
307.413
307.408
307.401
307.402
307.633
307.594
307.562
307.528
307.5
307.471
307.448
307.428
307.412
307.399
307.388
307.381
307.374
307.375
307.588
307.552
307.525
307.495
307.47
307.444
307.423
307.404
307.388
307.375
307.363
307.356
307.347
307.346
308.089
308.049
308.003
307.965
307.929
307.901
307.878
307.862
307.853
307.849
307.85
307.855
307.864
307.861
308.022
307.981
307.932
307.892
307.855
307.826
307.803
307.787
307.778
307.774
307.777
307.781
307.792
307.789
307.95
307.907
307.857
307.817
307.78
307.751
307.728
307.713
307.704
307.702
307.704
307.709
307.721
307.721
307.878
307.834
307.785
307.745
307.708
307.679
307.656
307.641
307.632
307.63
307.633
307.639
307.65
307.654
307.81
307.765
307.716
307.676
307.64
307.611
307.588
307.573
307.564
307.562
307.566
307.571
307.583
307.589
307.744
307.698
307.651
307.611
307.575
307.546
307.524
307.509
307.5
307.497
307.501
307.507
307.518
307.527
307.683
307.637
307.592
307.552
307.517
307.488
307.465
307.449
307.44
307.437
307.44
307.446
307.456
307.467
307.627
307.58
307.538
307.499
307.465
307.435
307.412
307.396
307.384
307.38
307.382
307.388
307.398
307.41
307.576
307.53
307.49
307.451
307.418
307.389
307.366
307.348
307.334
307.328
307.329
307.335
307.343
307.358
307.529
307.484
307.446
307.408
307.376
307.347
307.324
307.306
307.291
307.284
307.284
307.289
307.296
307.31
307.486
307.443
307.407
307.37
307.339
307.311
307.288
307.27
307.255
307.247
307.245
307.25
307.255
307.267
307.444
307.403
307.37
307.335
307.305
307.278
307.256
307.237
307.223
307.213
307.21
307.213
307.216
307.227
307.407
307.368
307.337
307.304
307.276
307.249
307.228
307.209
307.194
307.183
307.179
307.181
307.182
307.191
307.362
307.327
307.298
307.269
307.244
307.221
307.201
307.182
307.167
307.156
307.15
307.15
307.15
307.155
307.922
307.898
307.868
307.842
307.818
307.797
307.778
307.763
307.751
307.743
307.739
307.738
307.743
307.742
307.849
307.826
307.795
307.77
307.746
307.725
307.706
307.691
307.68
307.673
307.67
307.67
307.676
307.673
307.777
307.753
307.721
307.696
307.672
307.651
307.633
307.619
307.609
307.603
307.602
307.603
307.611
307.61
307.705
307.679
307.648
307.623
307.598
307.578
307.56
307.547
307.538
307.534
307.533
307.537
307.545
307.548
307.636
307.609
307.578
307.552
307.528
307.507
307.49
307.478
307.47
307.467
307.468
307.473
307.483
307.49
307.569
307.54
307.51
307.484
307.46
307.44
307.423
307.412
307.406
307.404
307.406
307.413
307.423
307.433
307.506
307.476
307.447
307.421
307.397
307.377
307.362
307.351
307.345
307.345
307.348
307.355
307.366
307.379
307.447
307.416
307.388
307.361
307.338
307.319
307.304
307.294
307.29
307.29
307.294
307.301
307.311
307.325
307.393
307.361
307.333
307.307
307.285
307.266
307.252
307.242
307.238
307.238
307.242
307.25
307.26
307.273
307.342
307.31
307.283
307.257
307.235
307.217
307.204
307.194
307.189
307.19
307.193
307.201
307.209
307.224
307.295
307.263
307.237
307.212
307.191
307.174
307.161
307.151
307.146
307.145
307.148
307.154
307.163
307.178
307.25
307.22
307.196
307.172
307.152
307.135
307.122
307.112
307.106
307.105
307.107
307.112
307.12
307.135
307.21
307.18
307.158
307.135
307.117
307.1
307.087
307.077
307.072
307.07
307.071
307.076
307.083
307.097
307.169
307.142
307.12
307.099
307.082
307.068
307.055
307.045
307.039
307.037
307.038
307.041
307.048
307.06
307.694
307.687
307.675
307.665
307.654
307.645
307.635
307.627
307.619
307.613
307.609
307.609
307.613
307.615
307.63
307.626
307.614
307.605
307.595
307.586
307.577
307.57
307.563
307.559
307.556
307.556
307.561
307.561
307.569
307.565
307.554
307.544
307.534
307.526
307.518
307.511
307.506
307.502
307.501
307.502
307.509
307.51
307.509
307.503
307.492
307.483
307.474
307.465
307.458
307.453
307.448
307.446
307.446
307.449
307.456
307.46
307.452
307.444
307.433
307.423
307.414
307.406
307.4
307.395
307.392
307.391
307.393
307.397
307.405
307.411
307.396
307.386
307.375
307.364
307.355
307.348
307.342
307.339
307.337
307.338
307.34
307.346
307.355
307.363
307.342
307.33
307.319
307.308
307.299
307.292
307.287
307.284
307.284
307.286
307.289
307.296
307.306
307.315
307.29
307.277
307.265
307.254
307.245
307.239
307.235
307.233
307.233
307.235
307.24
307.247
307.257
307.269
307.24
307.226
307.214
307.203
307.195
307.189
307.185
307.184
307.184
307.187
307.193
307.201
307.21
307.224
307.193
307.178
307.166
307.156
307.148
307.142
307.139
307.137
307.138
307.142
307.148
307.156
307.166
307.181
307.149
307.134
307.123
307.113
307.105
307.099
307.096
307.095
307.096
307.099
307.105
307.115
307.124
307.14
307.108
307.092
307.082
307.072
307.065
307.059
307.056
307.054
307.056
307.059
307.066
307.075
307.084
307.101
307.069
307.054
307.044
307.035
307.028
307.023
307.02
307.019
307.021
307.025
307.032
307.041
307.051
307.067
307.031
307.017
307.008
306.999
306.993
306.988
306.986
306.985
306.987
306.992
307
307.008
307.018
307.032
307.448
307.453
307.455
307.459
307.462
307.465
307.467
307.468
307.469
307.469
307.469
307.472
307.476
307.481
307.403
307.41
307.414
307.419
307.423
307.427
307.43
307.431
307.433
307.434
307.436
307.439
307.443
307.446
307.362
307.368
307.373
307.379
307.383
307.387
307.39
307.393
307.394
307.396
307.399
307.402
307.408
307.41
307.319
307.326
307.331
307.336
307.341
307.345
307.348
307.352
307.355
307.357
307.361
307.365
307.371
307.374
307.277
307.284
307.288
307.294
307.298
307.302
307.306
307.31
307.314
307.317
307.321
307.326
307.333
307.337
307.236
307.241
307.246
307.251
307.255
307.26
307.264
307.268
307.272
307.276
307.281
307.287
307.294
307.301
307.195
307.199
307.204
307.208
307.212
307.217
307.222
307.226
307.231
307.236
307.242
307.248
307.256
307.264
307.155
307.158
307.162
307.166
307.171
307.176
307.181
307.186
307.191
307.197
307.203
307.211
307.219
307.229
307.117
307.119
307.122
307.126
307.131
307.135
307.141
307.146
307.152
307.159
307.166
307.174
307.183
307.194
307.081
307.081
307.084
307.088
307.092
307.097
307.102
307.108
307.114
307.122
307.129
307.139
307.148
307.16
307.046
307.044
307.047
307.051
307.055
307.06
307.066
307.072
307.079
307.086
307.095
307.105
307.114
307.128
307.013
307.009
307.013
307.016
307.02
307.025
307.03
307.037
307.045
307.053
307.062
307.073
307.082
307.096
306.979
306.976
306.979
306.982
306.987
306.992
306.999
307.006
307.015
307.024
307.034
307.043
307.054
307.068
306.947
306.944
306.947
306.951
306.957
306.962
306.969
306.977
306.985
306.994
307.004
307.013
307.024
307.036
307.189
307.205
307.219
307.233
307.246
307.258
307.269
307.279
307.288
307.295
307.301
307.307
307.313
307.32
307.167
307.184
307.199
307.215
307.228
307.241
307.253
307.263
307.272
307.28
307.288
307.295
307.302
307.308
307.146
307.164
307.179
307.195
307.21
307.223
307.235
307.246
307.255
307.263
307.271
307.278
307.285
307.291
307.124
307.142
307.157
307.174
307.189
307.202
307.215
307.226
307.236
307.244
307.252
307.259
307.267
307.273
307.101
307.119
307.135
307.151
307.166
307.18
307.192
307.203
307.214
307.222
307.231
307.238
307.245
307.252
307.077
307.095
307.111
307.127
307.141
307.155
307.168
307.18
307.19
307.199
307.208
307.215
307.223
307.231
307.053
307.07
307.086
307.101
307.116
307.13
307.142
307.154
307.165
307.174
307.183
307.191
307.199
307.207
307.028
307.044
307.06
307.075
307.09
307.103
307.116
307.128
307.139
307.149
307.158
307.167
307.175
307.184
307.004
307.018
307.034
307.048
307.063
307.076
307.089
307.101
307.112
307.122
307.132
307.141
307.15
307.16
306.979
306.992
307.007
307.022
307.036
307.049
307.062
307.074
307.086
307.096
307.107
307.117
307.125
307.136
306.955
306.966
306.981
306.995
307.009
307.023
307.035
307.048
307.06
307.071
307.081
307.092
307.101
307.112
306.931
306.941
306.956
306.969
306.983
306.997
307.01
307.023
307.035
307.046
307.057
307.068
307.077
307.089
306.907
306.917
306.931
306.945
306.959
306.973
306.986
307
307.012
307.024
307.035
307.045
307.056
307.068
306.886
306.896
306.91
306.923
306.937
306.95
306.963
306.976
306.989
307
307.011
307.021
307.032
307.043
306.913
306.935
306.955
306.974
306.992
307.009
307.026
307.041
307.054
307.067
307.078
307.089
307.098
307.108
306.911
306.932
306.952
306.972
306.991
307.01
307.027
307.042
307.057
307.07
307.082
307.093
307.104
307.114
306.907
306.929
306.951
306.971
306.991
307.009
307.027
307.043
307.058
307.071
307.084
307.095
307.105
307.115
306.903
306.925
306.947
306.968
306.989
307.008
307.025
307.042
307.057
307.071
307.084
307.095
307.106
307.116
306.898
306.921
306.943
306.965
306.985
307.005
307.023
307.039
307.055
307.069
307.081
307.093
307.104
307.114
306.892
306.915
306.937
306.959
306.98
306.999
307.018
307.035
307.051
307.065
307.078
307.089
307.1
307.11
306.885
306.908
306.93
306.952
306.973
306.993
307.011
307.028
307.044
307.058
307.071
307.082
307.093
307.103
306.876
306.899
306.921
306.943
306.964
306.984
307.003
307.02
307.036
307.05
307.063
307.074
307.085
307.095
306.867
306.889
306.912
306.934
306.954
306.974
306.993
307.01
307.025
307.039
307.052
307.064
307.075
307.085
306.856
306.878
306.901
306.922
306.943
306.963
306.981
306.998
307.014
307.028
307.041
307.053
307.063
307.074
306.846
306.868
306.89
306.911
306.931
306.95
306.968
306.985
307.001
307.015
307.028
307.04
307.05
307.061
306.836
306.856
306.878
306.898
306.918
306.937
306.955
306.972
306.988
307.002
307.014
307.026
307.036
307.047
306.824
306.845
306.865
306.886
306.905
306.924
306.942
306.958
306.973
306.987
307
307.011
307.021
307.032
306.816
306.835
306.855
306.874
306.892
306.911
306.927
306.943
306.958
306.971
306.984
306.994
307.004
307.014
306.605