/*--------------------------------*- C++ -*----------------------------------*\
| =========                 |                                                 |
| \\      /  F ield         | OpenFOAM: The Open Source CFD Toolbox           |
|  \\    /   O peration     | Version:  v2106                                 |
|   \\  /    A nd           | Website:  www.openfoam.com                      |
|    \\/     M anipulation  |                                                 |
\*---------------------------------------------------------------------------*/
FoamFile
{
    version     2.0;
    format      ascii;
    arch        "LSB;label=32;scalar=64";
    class       volScalarField;
    location    "0.000164";
    object      alphat;
}
// * * * * * * * * * * * * * * * * * * * * * * * * * * * * * * * * * * * * * //

dimensions      [1 -1 -1 0 0 0 0];

internalField   nonuniform List<scalar> 
144746
(
6.05473e-05
5.21905e-05
4.55428e-05
4.10836e-05
3.94952e-05
3.95144e-05
4.05897e-05
4.25894e-05
4.61947e-05
4.96053e-05
5.16555e-05
5.3017e-05
5.70213e-05
6.75365e-05
5.4062e-05
4.28723e-05
3.25683e-05
2.37523e-05
1.87675e-05
1.72188e-05
1.82487e-05
2.13638e-05
2.6238e-05
3.16404e-05
3.63192e-05
4.05619e-05
4.77715e-05
6.18096e-05
5.32944e-05
3.90391e-05
2.52961e-05
1.40494e-05
7.95712e-06
5.9702e-06
6.50507e-06
9.00807e-06
1.32738e-05
1.86844e-05
2.43804e-05
3.1043e-05
4.19631e-05
6.02504e-05
5.31585e-05
3.44943e-05
1.81557e-05
7.35095e-06
2.89088e-06
1.62976e-06
1.88128e-06
3.34462e-06
6.16635e-06
1.04337e-05
1.62109e-05
2.48772e-05
3.95805e-05
6.25538e-05
5.14811e-05
2.80029e-05
1.14296e-05
3.65314e-06
1.2837e-06
5.76608e-07
6.40154e-07
1.38062e-06
3.08441e-06
6.35098e-06
1.23175e-05
2.31375e-05
4.13311e-05
6.765e-05
4.92896e-05
2.23961e-05
7.9783e-06
3.14303e-06
1.396e-06
6.42542e-07
5.67191e-07
1.07135e-06
2.47407e-06
5.70137e-06
1.2462e-05
2.50731e-05
4.51212e-05
7.1965e-05
4.85692e-05
2.00075e-05
8.30377e-06
4.42741e-06
2.32841e-06
1.31102e-06
1.20226e-06
1.90662e-06
3.79978e-06
7.92363e-06
1.59025e-05
2.94751e-05
4.92653e-05
7.39065e-05
5.05092e-05
2.14168e-05
1.16509e-05
7.3392e-06
4.49844e-06
2.97207e-06
2.81816e-06
3.99619e-06
6.81443e-06
1.21329e-05
2.10218e-05
3.44366e-05
5.2363e-05
7.33641e-05
5.75061e-05
2.6025e-05
1.75212e-05
1.25812e-05
8.78586e-06
6.38605e-06
5.89137e-06
7.46597e-06
1.11307e-05
1.72388e-05
2.62272e-05
3.87908e-05
5.44757e-05
7.20808e-05
6.9721e-05
3.59393e-05
2.6276e-05
2.1354e-05
1.67692e-05
1.30966e-05
1.14383e-05
1.2576e-05
1.63548e-05
2.27141e-05
3.13063e-05
4.36783e-05
5.6864e-05
7.00116e-05
8.06718e-05
4.79034e-05
3.73342e-05
3.44102e-05
3.07091e-05
2.63248e-05
2.29182e-05
2.26187e-05
2.53043e-05
3.19948e-05
3.99812e-05
5.00509e-05
6.03277e-05
7.11973e-05
8.95424e-05
6.04112e-05
4.96292e-05
4.90767e-05
5.02415e-05
4.89095e-05
4.60424e-05
4.57044e-05
4.7126e-05
5.18352e-05
5.68272e-05
6.37781e-05
7.10249e-05
7.96955e-05
9.90822e-05
7.22879e-05
6.09271e-05
6.11219e-05
6.69144e-05
7.30651e-05
7.70818e-05
8.05599e-05
8.33357e-05
8.65748e-05
8.7741e-05
8.96925e-05
9.28445e-05
9.8284e-05
0.000109213
8.39015e-05
7.20848e-05
7.14957e-05
7.83555e-05
8.86936e-05
0.00010056
0.000110376
0.000118007
0.000123591
0.00012583
0.00012442
0.000123701
0.000126265
6.39871e-05
5.76802e-05
5.3994e-05
5.26788e-05
5.3201e-05
5.19892e-05
4.92979e-05
4.66323e-05
4.54603e-05
4.52627e-05
4.60065e-05
4.89829e-05
5.70304e-05
7.29232e-05
4.99916e-05
4.01654e-05
3.25204e-05
2.68902e-05
2.46044e-05
2.36031e-05
2.34324e-05
2.44097e-05
2.66061e-05
2.96351e-05
3.33679e-05
3.92246e-05
5.07323e-05
7.09198e-05
4.30954e-05
3.08503e-05
2.06894e-05
1.30743e-05
9.2916e-06
8.12824e-06
8.57056e-06
1.03865e-05
1.35505e-05
1.79982e-05
2.36448e-05
3.2357e-05
4.79181e-05
7.30327e-05
3.97599e-05
2.49587e-05
1.33323e-05
5.96302e-06
2.86342e-06
2.05909e-06
2.41848e-06
3.76546e-06
6.31051e-06
1.04146e-05
1.68141e-05
2.79758e-05
4.766e-05
7.78214e-05
3.79062e-05
2.02118e-05
8.3527e-06
2.78115e-06
9.88492e-07
5.20389e-07
6.8482e-07
1.44805e-06
3.1689e-06
6.68529e-06
1.37875e-05
2.74167e-05
5.01855e-05
8.20835e-05
3.75164e-05
1.70669e-05
6.086e-06
2.26435e-06
9.02593e-07
4.07852e-07
4.38628e-07
9.76431e-07
2.4695e-06
6.10633e-06
1.40537e-05
2.89162e-05
5.18406e-05
8.15887e-05
3.96386e-05
1.64198e-05
6.47772e-06
3.11585e-06
1.50208e-06
8.35236e-07
8.64826e-07
1.58498e-06
3.52471e-06
7.94449e-06
1.66781e-05
3.13615e-05
5.20506e-05
7.71306e-05
4.48698e-05
1.86197e-05
9.08809e-06
5.19837e-06
3.02942e-06
2.0296e-06
2.10283e-06
3.27021e-06
5.99983e-06
1.13117e-05
2.032e-05
3.36913e-05
5.09109e-05
7.06877e-05
5.38446e-05
2.34841e-05
1.36595e-05
9.05454e-06
6.1563e-06
4.60108e-06
4.58515e-06
6.21842e-06
9.66573e-06
1.54251e-05
2.3961e-05
3.57054e-05
5.00123e-05
6.59299e-05
6.96531e-05
3.28442e-05
2.06048e-05
1.55835e-05
1.20358e-05
9.68981e-06
9.10237e-06
1.0684e-05
1.43254e-05
2.01569e-05
2.79919e-05
3.93632e-05
5.15054e-05
6.37615e-05
8.29586e-05
4.53125e-05
3.0007e-05
2.53144e-05
2.21662e-05
1.94703e-05
1.80844e-05
1.91683e-05
2.24381e-05
2.87202e-05
3.63854e-05
4.66723e-05
5.65936e-05
6.71265e-05
9.33603e-05
5.92652e-05
4.30297e-05
3.84286e-05
3.73937e-05
3.61816e-05
3.53879e-05
3.74204e-05
4.13339e-05
4.79392e-05
5.3983e-05
6.19639e-05
6.97496e-05
7.85741e-05
0.000104341
7.31415e-05
5.61484e-05
5.07919e-05
5.22728e-05
5.57217e-05
5.98817e-05
6.5865e-05
7.29727e-05
8.07396e-05
8.51602e-05
8.93537e-05
9.37659e-05
9.94855e-05
0.000114688
8.62996e-05
6.97097e-05
6.33266e-05
6.52852e-05
7.22857e-05
8.29647e-05
9.50135e-05
0.000107076
0.000118305
0.000125214
0.000126569
0.000127242
0.000129855
6.96935e-05
6.47967e-05
6.35204e-05
6.41677e-05
6.4502e-05
6.03448e-05
5.32201e-05
4.53899e-05
4.02644e-05
3.78496e-05
3.89392e-05
4.51536e-05
5.76996e-05
7.71301e-05
4.91726e-05
4.01308e-05
3.49709e-05
3.19342e-05
3.15172e-05
3.0055e-05
2.77025e-05
2.51702e-05
2.41914e-05
2.49186e-05
2.84159e-05
3.68849e-05
5.24939e-05
7.65393e-05
3.56888e-05
2.48917e-05
1.78979e-05
1.33996e-05
1.17951e-05
1.11127e-05
1.08527e-05
1.09766e-05
1.2045e-05
1.51514e-05
2.09828e-05
3.20538e-05
5.13972e-05
8.02117e-05
2.8625e-05
1.68592e-05
9.24704e-06
4.98515e-06
3.32646e-06
2.91587e-06
3.15062e-06
3.89821e-06
5.51823e-06
9.00484e-06
1.57737e-05
2.89956e-05
5.19466e-05
8.45851e-05
2.62677e-05
1.32072e-05
5.42113e-06
1.99959e-06
8.56585e-07
5.92033e-07
7.6364e-07
1.36718e-06
2.78154e-06
6.11068e-06
1.37591e-05
2.90444e-05
5.37255e-05
8.57666e-05
2.68566e-05
1.19989e-05
4.20184e-06
1.46213e-06
5.16278e-07
2.33563e-07
3.06091e-07
7.6812e-07
2.10972e-06
5.65753e-06
1.38865e-05
2.94412e-05
5.25047e-05
8.03022e-05
3.01459e-05
1.25539e-05
4.61174e-06
1.90597e-06
7.91826e-07
4.14248e-07
4.90124e-07
1.07514e-06
2.74176e-06
6.81023e-06
1.52299e-05
2.95011e-05
4.88722e-05
7.0782e-05
3.65865e-05
1.5062e-05
6.38294e-06
3.15991e-06
1.66071e-06
1.09246e-06
1.23203e-06
2.13687e-06
4.32122e-06
8.85061e-06
1.69693e-05
2.91152e-05
4.41963e-05
6.05613e-05
4.6951e-05
1.9827e-05
9.49655e-06
5.57425e-06
3.56657e-06
2.69763e-06
2.88221e-06
4.18499e-06
6.86838e-06
1.15692e-05
1.89329e-05
2.902e-05
4.09402e-05
5.42912e-05
6.32008e-05
2.82947e-05
1.43969e-05
9.77783e-06
7.26577e-06
5.99678e-06
6.03362e-06
7.54515e-06
1.0571e-05
1.52472e-05
2.18529e-05
3.10497e-05
4.19394e-05
5.41595e-05
7.59884e-05
3.98283e-05
2.1418e-05
1.64391e-05
1.38672e-05
1.24021e-05
1.22544e-05
1.3892e-05
1.71786e-05
2.21963e-05
2.86289e-05
3.89841e-05
4.89104e-05
6.02634e-05
8.6578e-05
5.41141e-05
3.45901e-05
2.68662e-05
2.44574e-05
2.34972e-05
2.41069e-05
2.69227e-05
3.16068e-05
3.82408e-05
4.48542e-05
5.43802e-05
6.32738e-05
7.34068e-05
9.75963e-05
6.88241e-05
4.8711e-05
3.90611e-05
3.73041e-05
3.81887e-05
4.14217e-05
4.75599e-05
5.57329e-05
6.54017e-05
7.17731e-05
7.87127e-05
8.49396e-05
9.20164e-05
0.000106884
8.31306e-05
6.49081e-05
5.42839e-05
5.15603e-05
5.35502e-05
6.02203e-05
7.0897e-05
8.3547e-05
9.68494e-05
0.000106219
0.000110018
0.0001129
0.000116486
8.65704e-05
0.000109128
0.000143397
0.000210025
0.00033791
0.000128612
8.3871e-05
0.000109587
0.000143745
0.000201596
0.000311445
0.000141159
8.61044e-05
0.000116472
0.000152634
0.000204306
0.000299232
0.000152674
9.23073e-05
0.000126326
0.000163897
0.00021046
0.000285818
0.000162798
9.8643e-05
0.000133351
0.00016986
0.000212772
0.000276715
0.000173766
0.000101025
0.00013314
0.000167274
0.00020969
0.000272044
0.000186485
9.79119e-05
0.000124891
0.000156484
0.000202531
0.000275286
0.000201206
9.09903e-05
0.000112273
0.000141143
0.000190657
0.000278718
0.000217317
8.46026e-05
0.000100709
0.000125756
0.000173988
0.000277724
0.000230795
8.04489e-05
9.29895e-05
0.000114256
0.000159768
0.000276692
0.000236387
8.12493e-05
9.24633e-05
0.000111766
0.000155285
0.000280066
0.000233127
8.98779e-05
0.000101393
0.000121054
0.000163995
0.000292144
0.000220921
0.000107648
0.000120385
0.000142261
0.000186998
0.000311884
0.000197806
0.000132222
0.000147787
0.000173461
0.000220673
0.000329765
0.000159723
9.84428e-05
0.000122749
0.000152047
0.000192598
0.000261809
0.000138454
0.000100615
0.000131111
0.00016541
0.000203064
0.000256494
0.000155534
0.000107483
0.000144383
0.000183116
0.000219669
0.000261331
0.000171978
0.000115853
0.000156472
0.000196743
0.000232423
0.000262879
0.000187922
0.000118857
0.000158812
0.000197797
0.000234415
0.000262336
0.000205618
0.000113644
0.000148942
0.000184327
0.000224064
0.000264669
0.000223164
0.000101648
0.000129243
0.000159912
0.000205039
0.000269883
0.000238897
8.75333e-05
0.000107216
0.000132581
0.000178511
0.000264396
0.000251102
7.74086e-05
9.08269e-05
0.000110989
0.000152329
0.000248082
0.000256241
7.31221e-05
8.31536e-05
9.98419e-05
0.000136391
0.000232558
0.000252297
7.65163e-05
8.58351e-05
0.00010142
0.00013509
0.000227062
0.000240047
8.82987e-05
9.86788e-05
0.000115375
0.000147861
0.000235097
0.000220835
0.000108786
0.000121208
0.000140542
0.00017297
0.000254022
0.000195235
0.000135715
0.00015127
0.000173157
0.000204484
0.000273032
0.000161996
0.000105427
0.000130033
0.000157777
0.000187964
0.000209913
0.000147898
0.000108965
0.000140521
0.000175101
0.000207408
0.000227015
0.000173492
0.000116774
0.000155327
0.000195369
0.000229649
0.000246578
0.000200541
0.00012326
0.000165253
0.000207109
0.000241495
0.000258428
0.000225564
0.000121516
0.000161713
0.000199776
0.000233127
0.000256287
0.000246598
0.000109875
0.00014295
0.000173873
0.000206119
0.000242365
0.000260347
9.25482e-05
0.000116573
0.000140292
0.000171997
0.000222082
0.000265636
7.54115e-05
9.15095e-05
0.000109744
0.000140128
0.000199635
0.000261685
6.50584e-05
7.52244e-05
8.99002e-05
0.000117886
0.000179489
0.000251009
6.26013e-05
7.00228e-05
8.27125e-05
0.000108569
0.000168653
0.000235717
6.82914e-05
7.53618e-05
8.75726e-05
0.000112294
0.000169584
0.000218323
8.07843e-05
8.89094e-05
0.000102419
0.000127463
0.000181499
0.000200686
9.86786e-05
0.0001094
0.000126186
0.000152132
0.000200671
0.000182598
0.000121029
0.000135799
0.0001566
0.000181516
0.00021779
0.000163494
0.000157859
0.000180958
0.000210028
0.000253228
0.000318921
0.000127055
0.000154906
0.000177871
0.000201886
0.000238122
0.000286254
0.000140373
0.00015465
0.000174475
0.000193712
0.000226927
0.000267113
0.000155129
0.000151784
0.000166327
0.000181425
0.000214246
0.000258093
0.000173518
0.000143269
0.000152599
0.000165939
0.000200895
0.000258773
0.000195206
0.000131618
0.000137146
0.000150193
0.000186708
0.000260561
0.000218002
0.000118082
0.000122213
0.000135267
0.000171902
0.000258097
0.000239026
0.000104919
0.000108984
0.000121202
0.00015603
0.000248526
0.000255955
9.31643e-05
9.78301e-05
0.000109678
0.000142907
0.000239304
0.000264922
8.36829e-05
8.96608e-05
0.000103017
0.000137027
0.000238009
0.000265947
7.89828e-05
8.78675e-05
0.000104353
0.000141467
0.000251207
0.000258846
8.24213e-05
9.50094e-05
0.000115668
0.000157636
0.000278509
0.00024336
9.5959e-05
0.000112576
0.000138335
0.000186291
0.000311703
0.000215871
0.000118502
0.000140534
0.000171845
0.000223383
0.000335725
0.000172889
0.000164295
0.000186274
0.000207101
0.000231759
0.000269342
0.000147278
0.000161181
0.000185105
0.00020442
0.00022659
0.000253087
0.000168452
0.000160388
0.000182208
0.000197685
0.000218423
0.000243393
0.000190904
0.000155345
0.000171574
0.000182386
0.000203509
0.000236685
0.000214548
0.000142812
0.000153425
0.000161213
0.000185662
0.000234047
0.000237781
0.000126814
0.000133116
0.0001397
0.000166149
0.000227822
0.000258096
0.000109466
0.000114112
0.000121355
0.000147748
0.000215583
0.000271976
9.311e-05
9.82358e-05
0.000107174
0.00013248
0.000200407
0.000278422
8.05462e-05
8.68721e-05
9.76954e-05
0.00012351
0.00019117
0.000275984
7.38022e-05
8.15715e-05
9.47935e-05
0.000122811
0.000191362
0.000267758
7.38995e-05
8.41738e-05
0.000100467
0.000131981
0.000205456
0.000253454
8.1999e-05
9.53379e-05
0.000115788
0.000151766
0.000232412
0.000235285
9.914e-05
0.000116525
0.000142442
0.000182174
0.000264441
0.000208485
0.000124458
0.000148153
0.000179174
0.000217697
0.00028741
0.000172021
0.000146586
0.000168954
0.000189822
0.000206199
0.000215976
0.000167134
0.000142589
0.000167616
0.000189296
0.000205379
0.00021363
0.000194807
0.000140707
0.000165086
0.00018267
0.000195884
0.00021056
0.000221207
0.000135106
0.000154926
0.000166365
0.000176743
0.000200077
0.000244149
0.000121818
0.000138004
0.000144724
0.000154053
0.000185807
0.000260894
0.000105885
0.000118779
0.000123738
0.000133521
0.000170218
0.00026968
8.94227e-05
0.000100216
0.000106959
0.000119308
0.000157765
0.000268737
7.48642e-05
8.47473e-05
9.49149e-05
0.000111718
0.000149948
0.000262464
6.54052e-05
7.53532e-05
8.81386e-05
0.000109179
0.000149311
0.000253695
6.31779e-05
7.32969e-05
8.76391e-05
0.000111927
0.000156251
0.000243297
6.78214e-05
7.86986e-05
9.42411e-05
0.000121246
0.000171485
0.000230868
7.77165e-05
9.00482e-05
0.000107849
0.000138273
0.000194877
0.00021477
9.33497e-05
0.000107877
0.000130319
0.000164341
0.000220648
0.000195341
0.000113911
0.000133908
0.000162586
0.000197095
0.000241489
0.000172701
0.000167363
0.000299125
0.000152747
0.000102517
7.88361e-05
6.56362e-05
0.000199333
0.000243125
0.000124438
8.71337e-05
7.02742e-05
6.07247e-05
0.000220719
0.000206895
0.000113306
8.36828e-05
7.01535e-05
6.15198e-05
0.000236217
0.000192671
0.000114211
8.88809e-05
7.62061e-05
6.59063e-05
0.000245909
0.000193083
0.000123541
0.000100125
8.65732e-05
7.19884e-05
0.000249289
0.000200096
0.000137443
0.000114865
0.000100028
7.92533e-05
0.000246344
0.000208756
0.000151991
0.000130303
0.000115277
8.76729e-05
0.000235825
0.00021934
0.000165977
0.000145883
0.000131769
9.72029e-05
0.000220653
0.000228693
0.000179666
0.000161415
0.000147131
0.000109404
0.000202447
0.000238193
0.000194599
0.000176228
0.000158909
0.000118744
0.000183193
0.00024861
0.000210849
0.000189699
0.000168063
0.000126998
0.000164679
0.000265897
0.000227059
0.000199064
0.000172261
0.000131445
0.000148702
0.000289222
0.000241195
0.000204609
0.000173803
0.000136495
0.000135164
0.000324491
0.000258728
0.000212638
0.000178429
0.000145275
0.000162959
0.000250996
0.000154055
0.000111352
8.5457e-05
6.98983e-05
0.000191018
0.000203738
0.00012107
8.69334e-05
6.8861e-05
5.79694e-05
0.000212676
0.000171271
0.000104502
7.65259e-05
6.21747e-05
5.24864e-05
0.000231705
0.000157868
0.000100833
7.65099e-05
6.2874e-05
5.20773e-05
0.000246865
0.000157266
0.000106844
8.47568e-05
6.99359e-05
5.54475e-05
0.000256929
0.000164259
0.000119429
9.96922e-05
8.29956e-05
6.24407e-05
0.00026061
0.000175328
0.000135142
0.000118717
0.000101078
7.29479e-05
0.00025829
0.000188627
0.000152211
0.000140247
0.000122662
8.62509e-05
0.000248765
0.000201162
0.000169788
0.000161951
0.000144771
0.000103103
0.000233096
0.000212101
0.000188883
0.000182493
0.000163068
0.000118698
0.000214749
0.000221968
0.000207886
0.000200954
0.000177758
0.000132282
0.000194635
0.000235303
0.000225936
0.000213439
0.000184987
0.000139251
0.000173823
0.000252001
0.000237962
0.000218047
0.000186724
0.000145174
0.00015355
0.00027721
0.000247191
0.00022124
0.000190628
0.00015488
0.000157118
0.000209847
0.000154221
0.000117332
9.16956e-05
7.51988e-05
0.000177838
0.000176064
0.000119737
8.85274e-05
7.00068e-05
5.7963e-05
0.000197319
0.000151406
0.000100427
7.31668e-05
5.78908e-05
4.67453e-05
0.000214742
0.000136534
9.35459e-05
6.85303e-05
5.3367e-05
4.15745e-05
0.000228615
0.000131352
9.61493e-05
7.24961e-05
5.5619e-05
4.15576e-05
0.000240552
0.000132694
0.000105326
8.46253e-05
6.49008e-05
4.61709e-05
0.000250695
0.000138372
0.000117783
0.000102787
8.08144e-05
5.52501e-05
0.000258981
0.000147633
0.000132165
0.000124632
0.000101566
6.83178e-05
0.000263094
0.000159947
0.000148661
0.000146164
0.000123598
8.55638e-05
0.00025788
0.00017741
0.000168413
0.0001657
0.000142354
0.000102976
0.0002435
0.000194946
0.000189619
0.00018331
0.000157869
0.000118115
0.000223192
0.00021062
0.00020799
0.000195617
0.000165587
0.000125203
0.000198908
0.000220159
0.00021998
0.000201254
0.000168151
0.000131235
0.00017281
0.000233311
0.000226434
0.000203164
0.000171671
0.000139922
0.000159564
0.000310738
0.00016468
0.000111173
8.64944e-05
7.27807e-05
0.00019129
0.000276147
0.000139544
9.51881e-05
7.54521e-05
6.44508e-05
0.000212958
0.000256348
0.000133
9.21301e-05
7.34851e-05
6.22911e-05
0.000226523
0.000250769
0.000140204
9.93072e-05
7.81946e-05
6.427e-05
0.000233006
0.000253814
0.000157017
0.000114057
8.74175e-05
6.76812e-05
0.000231571
0.000258659
0.000178298
0.000132925
9.89112e-05
7.07426e-05
0.000223247
0.0002612
0.000198326
0.000152455
0.000110106
7.26419e-05
0.000212083
0.000259797
0.000212103
0.000168727
0.000119346
7.43447e-05
0.000199925
0.000262307
0.000219976
0.000176902
0.000122664
7.40852e-05
0.000187644
0.000273881
0.000221126
0.000174036
0.000118423
7.14901e-05
0.000175469
0.000289674
0.000215382
0.000162873
0.000110171
6.87252e-05
0.000163639
0.000309287
0.000204897
0.000147981
0.000101906
6.77535e-05
0.000151041
0.000323621
0.000199325
0.00013749
9.8186e-05
7.04441e-05
0.000138003
0.000348099
0.000201776
0.000134297
9.89919e-05
7.58737e-05
0.000154504
0.000238429
0.000150912
0.00011411
9.1868e-05
7.78895e-05
0.000184431
0.000209764
0.000123281
9.07949e-05
7.37227e-05
6.37231e-05
0.000209595
0.000196062
0.000111888
8.09411e-05
6.59746e-05
5.68574e-05
0.000229933
0.000198031
0.000115361
8.32909e-05
6.68966e-05
5.61462e-05
0.000244539
0.000212663
0.000132472
9.70772e-05
7.57087e-05
5.98428e-05
0.000251245
0.00023337
0.000160902
0.000121341
9.17416e-05
6.67987e-05
0.000249678
0.000249627
0.000194419
0.000152589
0.000112348
7.55434e-05
0.000240748
0.000253468
0.000223642
0.000184482
0.000133819
8.53818e-05
0.000227242
0.000252285
0.000243082
0.000206994
0.000148575
9.27857e-05
0.000212046
0.000257333
0.000253638
0.000214664
0.000152269
9.49053e-05
0.00019662
0.000268839
0.000250644
0.000206026
0.000145
9.15905e-05
0.00018134
0.000278734
0.000234912
0.000186332
0.000131937
8.67212e-05
0.000164845
0.000280931
0.000216283
0.000166927
0.000121452
8.54043e-05
0.000147566
0.000290135
0.000203635
0.000153136
0.000115867
8.75341e-05
0.000145026
0.000189848
0.000144719
0.000115269
9.46176e-05
8.09272e-05
0.000164713
0.000162013
0.000113073
8.76247e-05
7.281e-05
6.35452e-05
0.00018563
0.000146421
9.57805e-05
7.2526e-05
6.03417e-05
5.24881e-05
0.000206917
0.000141051
9.22136e-05
6.87349e-05
5.61827e-05
4.78812e-05
0.000227076
0.000146891
0.000101544
7.63215e-05
6.05001e-05
4.91706e-05
0.000245666
0.000164282
0.000123036
9.64613e-05
7.46053e-05
5.61774e-05
0.000260333
0.000189906
0.000154322
0.000127009
9.72924e-05
6.82227e-05
0.000267871
0.000216885
0.000190933
0.000162594
0.000123969
8.42157e-05
0.000265405
0.000242501
0.000226254
0.000194669
0.00014722
9.85116e-05
0.000253956
0.000262126
0.00025168
0.000215062
0.000160882
0.000107137
0.000235062
0.000270207
0.000258888
0.000217019
0.00016033
0.000107654
0.000211398
0.000266028
0.0002455
0.000201097
0.000148694
0.000102246
0.000185276
0.000249782
0.000222524
0.000179874
0.000135926
9.85226e-05
0.000159589
0.000236981
0.000203765
0.000163612
0.000128339
9.88662e-05
5.78842e-05
5.17813e-05
4.93731e-05
4.91853e-05
4.88037e-05
4.60933e-05
4.16066e-05
3.61372e-05
3.11314e-05
2.86758e-05
2.96553e-05
3.58816e-05
4.71592e-05
6.26175e-05
3.94826e-05
3.05169e-05
2.62354e-05
2.43766e-05
2.43253e-05
2.35933e-05
2.21375e-05
1.99908e-05
1.78663e-05
1.71882e-05
1.96346e-05
2.69912e-05
4.01448e-05
5.92097e-05
2.61087e-05
1.64352e-05
1.15892e-05
9.35134e-06
8.97545e-06
8.88411e-06
8.78863e-06
8.46172e-06
8.25579e-06
9.2252e-06
1.33477e-05
2.22299e-05
3.75852e-05
5.99555e-05
1.93112e-05
9.67668e-06
4.85209e-06
2.8759e-06
2.3557e-06
2.30385e-06
2.46062e-06
2.73505e-06
3.36476e-06
5.14341e-06
9.68511e-06
1.947e-05
3.68164e-05
6.17339e-05
1.80027e-05
7.74959e-06
2.7613e-06
1.0105e-06
5.10375e-07
4.19364e-07
5.12641e-07
7.95351e-07
1.52286e-06
3.47938e-06
8.44926e-06
1.91715e-05
3.74264e-05
6.19819e-05
1.95251e-05
7.8085e-06
2.447e-06
7.48872e-07
2.32178e-07
1.01768e-07
1.3901e-07
3.65269e-07
1.0939e-06
3.22625e-06
8.58377e-06
1.94758e-05
3.68134e-05
5.87727e-05
2.24733e-05
8.68634e-06
2.80338e-06
9.26802e-07
3.12837e-07
1.42453e-07
1.7668e-07
4.51955e-07
1.34013e-06
3.78032e-06
9.37179e-06
1.97123e-05
3.49098e-05
5.29142e-05
2.71431e-05
1.05107e-05
3.70594e-06
1.4825e-06
6.61139e-07
4.0986e-07
4.7165e-07
8.83123e-07
2.02613e-06
4.74918e-06
1.02837e-05
1.95563e-05
3.20851e-05
4.60458e-05
3.44473e-05
1.36577e-05
5.23459e-06
2.64619e-06
1.56787e-06
1.18614e-06
1.29209e-06
1.91359e-06
3.33348e-06
6.18526e-06
1.13557e-05
1.93667e-05
2.9599e-05
4.08452e-05
4.35948e-05
1.92938e-05
7.79833e-06
4.83038e-06
3.5373e-06
3.03829e-06
3.19444e-06
4.04415e-06
5.7336e-06
8.63437e-06
1.33075e-05
2.01933e-05
2.89828e-05
3.96317e-05
5.17579e-05
2.63323e-05
1.21867e-05
8.79337e-06
7.39956e-06
6.94311e-06
7.21633e-06
8.27924e-06
1.02354e-05
1.32918e-05
1.78175e-05
2.45815e-05
3.29545e-05
4.53525e-05
6.07107e-05
3.75556e-05
2.13996e-05
1.56096e-05
1.43418e-05
1.42224e-05
1.50797e-05
1.67705e-05
1.94142e-05
2.31839e-05
2.80682e-05
3.57099e-05
4.47141e-05
5.70675e-05
7.11492e-05
5.04259e-05
3.33182e-05
2.56147e-05
2.45624e-05
2.52975e-05
2.76452e-05
3.10135e-05
3.53307e-05
4.0637e-05
4.5964e-05
5.34388e-05
6.10886e-05
7.16487e-05
8.18287e-05
6.58285e-05
5.02598e-05
4.06655e-05
3.78901e-05
3.89631e-05
4.27656e-05
4.88034e-05
5.5711e-05
6.33811e-05
6.9747e-05
7.48227e-05
8.02354e-05
8.70964e-05
3.97528e-05
3.33379e-05
3.09085e-05
3.05421e-05
3.10598e-05
3.08217e-05
2.96453e-05
2.73667e-05
2.46151e-05
2.22663e-05
2.24748e-05
2.64202e-05
3.44332e-05
4.45311e-05
2.7146e-05
1.9023e-05
1.53979e-05
1.41402e-05
1.43411e-05
1.46199e-05
1.47201e-05
1.41883e-05
1.32279e-05
1.24447e-05
1.35049e-05
1.80904e-05
2.68198e-05
3.93275e-05
1.80984e-05
1.00592e-05
6.33904e-06
5.00252e-06
4.82855e-06
5.00549e-06
5.32492e-06
5.51299e-06
5.62855e-06
6.11562e-06
8.19423e-06
1.3617e-05
2.3553e-05
3.84057e-05
1.42297e-05
6.24351e-06
2.65691e-06
1.45394e-06
1.16044e-06
1.17721e-06
1.34461e-06
1.59617e-06
2.04298e-06
3.06285e-06
5.5781e-06
1.12888e-05
2.22035e-05
3.87721e-05
1.39163e-05
5.39713e-06
1.71757e-06
5.68719e-07
2.54801e-07
1.99873e-07
2.55075e-07
4.18577e-07
8.30681e-07
1.89789e-06
4.6455e-06
1.09949e-05
2.28411e-05
3.99319e-05
1.50723e-05
5.53857e-06
1.64722e-06
4.75347e-07
1.35691e-07
5.21999e-08
6.78809e-08
1.83936e-07
5.65407e-07
1.71547e-06
4.79093e-06
1.163e-05
2.36051e-05
3.98541e-05
1.68274e-05
6.066e-06
1.88387e-06
5.71169e-07
1.77979e-07
7.61983e-08
8.98172e-08
2.27393e-07
6.94528e-07
2.06898e-06
5.52017e-06
1.25638e-05
2.3922e-05
3.83928e-05
1.95196e-05
7.16551e-06
2.41954e-06
8.82778e-07
3.65936e-07
2.23344e-07
2.53106e-07
4.63252e-07
1.09105e-06
2.73369e-06
6.43016e-06
1.32862e-05
2.34784e-05
3.5784e-05
2.3756e-05
9.06568e-06
3.35517e-06
1.58625e-06
9.01972e-07
6.85038e-07
7.49812e-07
1.09455e-06
1.93518e-06
3.78484e-06
7.48464e-06
1.38045e-05
2.26588e-05
3.2951e-05
2.94817e-05
1.21225e-05
5.00241e-06
3.02893e-06
2.18424e-06
1.87494e-06
1.96907e-06
2.4731e-06
3.5351e-06
5.5216e-06
9.00607e-06
1.45887e-05
2.22752e-05
3.14628e-05
3.51483e-05
1.63871e-05
7.96766e-06
5.82823e-06
4.94645e-06
4.60695e-06
4.72705e-06
5.35332e-06
6.60585e-06
8.71259e-06
1.20525e-05
1.72113e-05
2.42828e-05
3.36767e-05
4.2715e-05
2.47711e-05
1.38603e-05
1.0895e-05
1.02066e-05
1.01285e-05
1.04929e-05
1.13441e-05
1.28484e-05
1.52558e-05
1.87876e-05
2.42602e-05
3.13157e-05
4.24483e-05
5.23435e-05
3.52107e-05
2.30928e-05
1.91518e-05
1.86668e-05
1.93709e-05
2.05493e-05
2.21854e-05
2.43733e-05
2.73908e-05
3.11764e-05
3.70754e-05
4.41093e-05
5.54924e-05
6.37841e-05
5.03369e-05
3.76945e-05
3.15795e-05
3.03648e-05
3.16832e-05
3.42613e-05
3.73947e-05
4.08615e-05
4.4746e-05
4.86967e-05
5.35424e-05
5.90573e-05
6.7422e-05
2.38317e-05
1.77934e-05
1.55397e-05
1.50119e-05
1.56742e-05
1.65779e-05
1.73311e-05
1.73502e-05
1.67387e-05
1.57194e-05
1.51357e-05
1.68674e-05
2.18269e-05
2.86835e-05
1.60154e-05
9.62442e-06
6.99878e-06
6.22828e-06
6.37611e-06
6.87516e-06
7.532e-06
7.93861e-06
8.01906e-06
7.83701e-06
8.12255e-06
1.02945e-05
1.52604e-05
2.27014e-05
1.11906e-05
5.20675e-06
2.73041e-06
2.01733e-06
1.93751e-06
2.10685e-06
2.41549e-06
2.71626e-06
2.9888e-06
3.3486e-06
4.34967e-06
6.96904e-06
1.22404e-05
2.06282e-05
9.76829e-06
3.68016e-06
1.27125e-06
5.94016e-07
4.43653e-07
4.60144e-07
5.58039e-07
7.07456e-07
9.56876e-07
1.47487e-06
2.67276e-06
5.34457e-06
1.07322e-05
1.99879e-05
9.77899e-06
3.36067e-06
9.73847e-07
2.93842e-07
1.1261e-07
7.84079e-08
1.01442e-07
1.75508e-07
3.64283e-07
8.4799e-07
2.06954e-06
4.97285e-06
1.09752e-05
2.1157e-05
1.00789e-05
3.35689e-06
9.75026e-07
2.71087e-07
7.25312e-08
2.40625e-08
2.78074e-08
7.69017e-08
2.41826e-07
7.4451e-07
2.13087e-06
5.43589e-06
1.19838e-05
2.25265e-05
1.0546e-05
3.55146e-06
1.08791e-06
3.08676e-07
8.96087e-08
3.55416e-08
3.84945e-08
9.49676e-08
2.9615e-07
9.17561e-07
2.58217e-06
6.32538e-06
1.32243e-05
2.35691e-05
1.15972e-05
4.0962e-06
1.34579e-06
4.47493e-07
1.74684e-07
1.0643e-07
1.17169e-07
2.04557e-07
4.84317e-07
1.2755e-06
3.22823e-06
7.28417e-06
1.42019e-05
2.39279e-05
1.34356e-05
5.01889e-06
1.8261e-06
8.02269e-07
4.43349e-07
3.45143e-07
3.73531e-07
5.22988e-07
9.19258e-07
1.88818e-06
4.05191e-06
8.2135e-06
1.48661e-05
2.37464e-05
1.65987e-05
6.35624e-06
2.79248e-06
1.62773e-06
1.15652e-06
9.99369e-07
1.04099e-06
1.27799e-06
1.81563e-06
2.94119e-06
5.16951e-06
9.1702e-06
1.53682e-05
2.35051e-05
2.00397e-05
8.43118e-06
4.70591e-06
3.44404e-06
2.86443e-06
2.61494e-06
2.62953e-06
2.93592e-06
3.62152e-06
4.89137e-06
7.12439e-06
1.09276e-05
1.66946e-05
2.4368e-05
2.56572e-05
1.325e-05
8.40924e-06
7.09145e-06
6.49439e-06
6.20653e-06
6.17416e-06
6.48135e-06
7.2629e-06
8.71823e-06
1.10592e-05
1.48144e-05
2.0308e-05
2.80285e-05
3.3081e-05
2.11558e-05
1.50502e-05
1.34142e-05
1.30833e-05
1.30342e-05
1.31379e-05
1.34935e-05
1.42979e-05
1.58841e-05
1.83764e-05
2.24395e-05
2.7784e-05
3.6719e-05
4.42386e-05
3.38201e-05
2.57688e-05
2.32324e-05
2.30206e-05
2.3669e-05
2.44521e-05
2.52791e-05
2.62541e-05
2.77851e-05
2.99497e-05
3.37417e-05
3.8475e-05
4.76221e-05
1.29431e-05
8.43854e-06
6.70024e-06
6.11367e-06
6.35087e-06
6.987e-06
7.88583e-06
8.68634e-06
9.23434e-06
9.39797e-06
9.37986e-06
9.80506e-06
1.20896e-05
1.63883e-05
8.8816e-06
4.40968e-06
2.7258e-06
2.24242e-06
2.23058e-06
2.44045e-06
2.81265e-06
3.2056e-06
3.55395e-06
3.82195e-06
4.147e-06
5.08901e-06
7.66268e-06
1.19545e-05
6.99151e-06
2.62047e-06
1.04097e-06
6.52141e-07
5.87724e-07
6.3068e-07
7.39619e-07
8.76725e-07
1.04062e-06
1.28895e-06
1.8262e-06
3.08651e-06
5.64533e-06
9.82764e-06
6.57576e-06
2.11496e-06
5.84059e-07
2.09007e-07
1.25345e-07
1.17535e-07
1.40835e-07
1.8588e-07
2.7567e-07
4.91149e-07
1.01354e-06
2.17399e-06
4.50524e-06
8.7307e-06
6.29079e-06
1.93165e-06
5.22011e-07
1.43961e-07
4.34228e-08
2.01552e-08
2.23871e-08
4.23649e-08
1.03636e-07
2.79677e-07
7.43845e-07
1.86684e-06
4.33228e-06
9.10693e-06
6.0129e-06
1.85452e-06
5.33436e-07
1.43033e-07
3.55818e-08
9.2323e-09
7.23595e-09
2.07791e-08
7.24616e-08
2.40869e-07
7.32143e-07
2.00169e-06
4.84873e-06
1.02699e-05
5.90984e-06
1.92854e-06
5.80546e-07
1.54175e-07
4.13231e-08
1.45008e-08
1.27433e-08
2.78637e-08
8.80971e-08
2.9175e-07
8.97492e-07
2.44804e-06
5.79333e-06
1.18322e-05
6.29264e-06
2.21317e-06
6.87712e-07
2.07295e-07
7.54777e-08
4.48081e-08
4.567e-08
6.92857e-08
1.54043e-07
4.25537e-07
1.19792e-06
3.07256e-06
6.87611e-06
1.33217e-05
7.22139e-06
2.66577e-06
9.02884e-07
3.62922e-07
1.93194e-07
1.53655e-07
1.61897e-07
2.06352e-07
3.36119e-07
7.03575e-07
1.66013e-06
3.84179e-06
7.99456e-06
1.45983e-05
8.75891e-06
3.28748e-06
1.42013e-06
7.8364e-07
5.43042e-07
4.74214e-07
4.9008e-07
5.73861e-07
7.76713e-07
1.26315e-06
2.40032e-06
4.7928e-06
9.1105e-06
1.56389e-05
1.04632e-05
4.45934e-06
2.61165e-06
1.84927e-06
1.48327e-06
1.32757e-06
1.32093e-06
1.45042e-06
1.76177e-06
2.39467e-06
3.67139e-06
6.16864e-06
1.04762e-05
1.67984e-05
1.38513e-05
7.12073e-06
5.13049e-06
4.26633e-06
3.72374e-06
3.3899e-06
3.26556e-06
3.37745e-06
3.78776e-06
4.60003e-06
6.00591e-06
8.48293e-06
1.26047e-05
1.86359e-05
1.9188e-05
1.22994e-05
9.85968e-06
8.94207e-06
8.29891e-06
7.77931e-06
7.41998e-06
7.3388e-06
7.67448e-06
8.60303e-06
1.02131e-05
1.28315e-05
1.67347e-05
2.27495e-05
2.81462e-05
2.13201e-05
1.76732e-05
1.65934e-05
1.61657e-05
1.57374e-05
1.52295e-05
1.48114e-05
1.47143e-05
1.53792e-05
1.69197e-05
1.98261e-05
2.35339e-05
2.98657e-05
7.06078e-06
3.82416e-06
2.64326e-06
2.22062e-06
2.2111e-06
2.45199e-06
2.94318e-06
3.57402e-06
4.25668e-06
4.8439e-06
5.21457e-06
5.44087e-06
6.27657e-06
8.59067e-06
5.21146e-06
2.02978e-06
9.43732e-07
6.77999e-07
6.46266e-07
7.06757e-07
8.57595e-07
1.07119e-06
1.3278e-06
1.5987e-06
1.87789e-06
2.32184e-06
3.46055e-06
5.90809e-06
4.44742e-06
1.36057e-06
3.72259e-07
1.69533e-07
1.38445e-07
1.47893e-07
1.82e-07
2.34127e-07
3.07559e-07
4.24559e-07
6.57509e-07
1.19058e-06
2.34404e-06
4.4647e-06
4.14777e-06
1.16354e-06
2.63895e-07
6.94377e-08
2.88966e-08
2.26856e-08
2.74525e-08
3.93572e-08
6.64011e-08
1.37655e-07
3.24472e-07
7.71413e-07
1.72339e-06
3.56298e-06
3.74127e-06
1.03887e-06
2.62247e-07
6.59657e-08
1.6361e-08
4.72289e-09
3.74782e-09
8.04857e-09
2.40473e-08
7.57113e-08