/*--------------------------------*- C++ -*----------------------------------*\
| =========                 |                                                 |
| \\      /  F ield         | OpenFOAM: The Open Source CFD Toolbox           |
|  \\    /   O peration     | Version:  v2106                                 |
|   \\  /    A nd           | Website:  www.openfoam.com                      |
|    \\/     M anipulation  |                                                 |
\*---------------------------------------------------------------------------*/
FoamFile
{
    version     2.0;
    format      ascii;
    arch        "LSB;label=32;scalar=64";
    class       volScalarField;
    location    "0.000164";
    object      epsilon;
}
// * * * * * * * * * * * * * * * * * * * * * * * * * * * * * * * * * * * * * //

dimensions      [0 2 -3 0 0 0 0];

internalField   nonuniform List<scalar> 
144746
(
98443.5
84001.1
75712.1
70182
67948.4
65362.5
62601.7
60268.1
60809.4
63199
66795.6
72263.4
81599.9
98847.8
82553
62853.7
48139.4
36114.9
30181.9
27842.1
27970.2
30012.7
33931.5
39234.1
45888.4
54756.1
68272.1
88540.8
75734.1
51930.5
32514.8
17974.8
10878.1
8711.39
9398.32
12184.2
16765.9
22928.6
31132.6
43525.9
62706.7
88348.1
73358.2
44648
22565.2
8839.13
3436.43
2047.31
2428.95
4165.54
7459.22
12839.3
21581.2
36641
60798
93090.2
73798.8
37633.3
14719.5
4241.45
1298.69
580.969
710.594
1583.81
3673.4
8152.58
17438.7
35150.8
63293.7
99742.4
76638.2
32185.9
10179.2
3206.15
1297.22
600.837
575.274
1199.12
3031.88
7613.94
17774.7
36807.1
65628
101570
83887.6
30470.3
9879.37
4428.74
2290.04
1305.63
1233.02
2113.13
4585.48
10210.5
21304.8
40043.7
66706.8
98950.9
97206.5
33802.6
13522.8
7673.43
4721.44
3153.13
2964.64
4320.07
7772.94
14501.1
25905.1
43353.9
66916.8
94232.1
120389
41756.3
20610.6
13734.4
9784.2
7284.45
6595.63
8186.88
12371.5
19740.4
31001.2
47675.4
69007.6
92136.2
151836
62740.7
31979
24319.2
19756.6
16251.3
14421.6
15491.9
19780.7
27876.8
39339.6
57164.1
75818.4
93271.9
173879
88476.9
50571.7
40765.8
37937.7
35188.9
32800.6
33578.1
37487
47589.6
58940.6
73838.8
87443.2
101706
181852
113309
76912.9
64849.9
65920.2
69088.5
71211.3
76644
81977.5
91226.8
96732.9
104186
109815
119290
189183
132734
100537
88823.5
93523
107357
123798
141455
154378
163434
159869
153220
147527
150746
202494
151001
122841
111571
114446
129230
157478
187883
212784
228377
229497
213641
199102
200943
117596
106284
102446
100952
99867.5
91811.3
80547.3
70161.8
64511.5
64136.1
69309.7
79997.1
95971.1
118173
89696.4
69976.4
57987.6
49170.4
45754.4
42256.9
39039
37262.3
37660.4
40978.4
48696.5
62816.4
84772.8
113940
69874.9
46622.2
30974.5
20177.6
15420.3
13767.4
13848.9
15448.7
18725.5
24572.7
34931.7
53594.4
82892.1
120295
58412.1
34004.8
17616.3
7858.44
4002.03
3093.59
3553.27
5142.52
8271.99
14189.6
25695.1
47609.6
82966.7
128924
54999.2
27685.3
10953.4
3318.86
1092.78
619.339
854.686
1791.56
4085.55
9548.45
22102.8
46805.8
84906.7
131709
58025.8
24916.2
7828.37
2337.32
847.201
393.243
476.905
1181.87
3313.29
9019.28
22159.8
46439.3
81306.8
122796
68684.4
25531.1
7772.38
3136.82
1486.71
840.41
927.383
1893.75
4636.2
11183.9
24317.9
45916.5
75052.1
109310
88392.7
30370.2
10659.4
5501.09
3218.91
2167.6
2262.43
3727.1
7334.32
14565.6
26945.2
45374.4
69099.3
96704.8
118269
39851.4
16402.3
10076.9
6969.13
5276.21
5155.68
7001.77
11248.1
18685.4
30152.1
47024.8
68175.6
92220.6
164805
61442.3
25968.3
18183.9
14449.6
12116.5
11453.8
13255.3
17783.3
25857.9
37378.4
56232.4
76336.2
97336.3
199170
91491.9
41725.4
30568.4
27787.5
26200.8
25913.2
28628.7
34216.1
45280.2
58164.1
77214.8
94038.6
112821
213269
124144
72162.8
52266.8
49377.3
50921
54506.9
63281.2
74651.2
90966.1
101584
114782
124541
137724
224859
152904
103547
77804.9
73446.3
80475.6
94829.5
116722
141008
165225
172671
172792
169710
172291
233448
177165
136312
109060
100247
108280
133685
170119
207344
241094
256011
244110
227320
221528
144902
133888
133275
133518
128298
111188
90826
72382.6
62016.3
60521.9
68934.6
88689.2
115641
142557
103636
82047.1
73064.1
66940.7
64807.8
58067.7
49688.1
42020
38203.4
39189.2
48422.1
70073.7
102721
139941
67677.9
44466.8
32644.8
25201.9
22939.3
21092.6
19368.8
18089
18566
23512.1
36479.5
62758.3
103177
149644
46447.9
25418.3
13883.5
7750.24
5641.03
5105.13
5260.31
5965.49
8007.9
13869.5
28008
57110.6
102978
155208
39723.7
18998.6
7390.46
2549.71
1140.17
877.987
1112.17
1881.23
3967.35
9899.92
25206.3
56133.4
101186
148362
42045.1
18087.7
5446.64
1536.56
505.054
250.284
374.085
1027.48
3150.19
9363.24
24497.6
52450.2
89649.4
127184
52202.2
20020.1
5571.19
1932.12
788.659
425.229
566.27
1421.78
4011.73
10655.5
24582
47240.4
75296.4
103979
71926.2
25252.1
7545.41
3397.04
1794.07
1180.71
1381.12
2634.83
5806.48
12570.4
24703.2
42312.4
63067.4
85623.8
104235
35343.1
11661.8
6390.04
4139.96
3119.77
3277.7
4910.24
8524.63
15094.6
25671.8
40724.2
58606.9
80970.6
155919
56443.5
18952
11924.2
9034.68
7600.19
7551.71
9354.92
13404
20265.6
30821.9
47597
67541.7
93883.6
195329
86325.4
30442
21005.9
18299.1
17235.2
17737.2
20774
26704.5
36389.4
48989.1
72182.3
93400.1
121729
216578
125029
62728.4
37682
33791.9
34360.1
38250.1
46666.4
59729.6
78139.2
93191.7
115796
133544
157904
234358
162861
99564.8
61813.2
52702.4
55342.8
65915.7
85268.3
112038
145035
162112
174592
179567
190043
241857
198058
146520
102682
81098.1
78224.6
93979.9
126154
167118
213224
241261
238171
226976
221218
131211
187974
332875
764980
2.05192e+06
434567
117857
162265
268809
579033
1.46769e+06
331872
119122
160276
248200
495894
1.20079e+06
271838
129189
170895
251061
462792
1.01508e+06
237240
136986
176555
246578
432064
918523
226275
135695
170274
229841
397855
890079
239084
126016
153831
203737
359090
941322
278163
113504
137023
182485
328039
1.02314e+06
350686
106397
126745
170105
311855
1.09803e+06
454780
106274
122341
160881
300546
1.18338e+06
570804
113240
127270
164577
309940
1.29329e+06
692692
130266
146497
191783
356382
1.44542e+06
809775
161860
185339
250580
456642
1.61884e+06
884166
209343
248506
348416
612497
1.71653e+06
797916
152468
195264
283844
517285
1.16612e+06
547318
150808
190451
260389
420388
817875
445599
163046
204791
266634
394037
687669
386737
177723
221121
280440
398563
626598
359418
177465
218741
276443
398797
624096
366654
162126
198916
253237
384291
688260
402896
139312
168812
217083
354144
799786
463378
118533
141969
184617
309411
872760
540201
109092
127186
163186
273425
881107
620676
111435
123918
152435
250729
871948
691225
124354
133954
158933
252616
886752
750374
146604
157245
185490
284505
948527
802255
179716
194980
234323
352333
1.04156e+06
838689
224799
248584
304595
449894
1.09641e+06
816378
172000
195950
220832
269067
396167
694345
176063
203437
229394
268251
374439
644463
190704
223818
250139
285246
377018
635610
199572
235854
264657
301190
388926
643982
188213
224587
253118
292500
382214
651513
160995
193027
221555
267431
381074
648989
130559
156911
186924
241990
395043
635132
106523
127302
158565
219458
410197
610096
99147.4
112719
141607
203209
408171
581016
109035
116817
139125
194915
397879
564259
132633
137324
153204
199544
389849
568561
162056
166404
179071
217828
395709
606167
190586
198152
212345
248187
428026
688603
220421
232164
249894
289311
483906
834879
268573
340441
485762
783618
1.46951e+06
400807
251413
296669
384653
578465
967423
312704
254213
274133
330108
484699
762580
274963
251617
247854
282854
420447
679586
277820
230455
211345
237159
370414
693411
309964
202461
181020
204781
330503
750820
369017
172117
161208
187131
302335
811015
455583
148960
150698
176999
283009
844486
563924
134641
142823
168551
271783
882341
679932
126600
136729
165047
275546
964669
802103
126099
140147
176028
307766
1.14314e+06
932322
138401
159097
209513
380774
1.4283e+06
1.06477e+06
168328
199937
275831
509138
1.74034e+06
1.13499e+06
217443
269927
384831
688458
1.90938e+06
1.00319e+06
280591
319649
391536
550112
946315
607950
276881
300286
335816
433344
651058
526108
289746
293758
306340
381659
542576
503212
289126
272398
270809
342285
515262
521575
260974
234135
230841
311638
553965
564146
222767
198474
201471
284323
599585
620370
180967
170376
184523
264448
621011
675170
145342
150911
174170
250976
615711
720805
125136
139111
166711
243152
619338
762537
122173
138362
168433
249167
656290
806849
133475
151688
185023
276832
764976
864471
157140
178137
219411
333453
951406
940468
194266
222234
279544
426605
1.16082e+06
992953
246616
291283
368823
545221
1.27072e+06
951557
259218
277402
294356
339649
515070
879285
263747
280390
285779
305278
411682
803796
280342
289218
276516
278199
363489
765923
280670
276634
252789
251041
339949
746139
246641
242920
221785
228970
333263
726539
201866
203163
196683
216823
336049
694040
155571
164136
178350
214816
346598
643662
117440
134751
166223
220389
353655
598111
101119
124436
163423
229203
367003
580441
110905
135109
174109
243206
391954
593292
139549
162112
196932
262763
432747
635634
172861
194257
226256
288880
495324
705204
208791
229712
264925
327074
564445
799844
247862
276957
317617
378335
630228
932727
938797
1.90161e+06
464510
203023
133097
106855
923161
1.32275e+06
315835
155330
112565
93990.3
820040
928976
250538
140024
107320
90400.9
721122
728478
230147
143518
113164
93959
635402
635667
234435
159381
129289
104578
560517
586394
246621
181177
155611
123739
492510
552187
253698
200917
190573
153195
429792
538478
258374
217850
230734
189595
377137
535252
278519
240194
268629
229422
339625
558636
323888
272018
295777
253297
320929
624932
398026
317304
317684
268256
325159
787440
496777
363218
324881
263479
369180
1.05215e+06
627248
419229
331913
260505
477892
1.62482e+06
877415
536785
376820
283591
874011
1.25807e+06
381168
206975
152110
126656
820641
908776
275243
159286
123066
103497
738081
654073
228372
139580
108021
88602.3
677455
537606
216587
137344
103377
81448.4
635998
490765
225966
150891
111994
83828.8
606421
470665
244873
179142
138263
99238.8
584713
455315
259587
213972
182965
130569
565502
440905
265729
248833
240757
175673
542334
423447
270699
280114
299510
231539
518941
411346
291641
312048
343528
278345
509250
423121
333453
351917
377179
313581
521327
503146
401493
386868
383960
313183
568945
678426
491473
415062
373646
304109
671829
1.07345e+06
653999
481075
392079
317268
800566
475820
276576
212389
176992
152280
668803
430692
241941
174349
142039
119474
581884
402936
223451
148870
115468
91773.3
524258
377856
218997
136223
97328
73021.8
488899
361839
225424
137595
91204
65305.5
479834
349464
240281
160560
105471
71645.7
498450
335030
253964
201583
144922
94964.3
545288
314864
260662
250378
204859
135161
609914
287961
261074
291539
270211
190945
662701
278048
265382
321393
322395
249193
699723
290138
282927
349469
362495
298887
740934
329244
312638
368337
369154
302596
808432
406541
357441
374359
352170
294748
922476
592635
429817
387749
349800
300661
830407
1.93661e+06
498271
215763
135631
106827
834721
1.56945e+06
352962
161401
110917
91635.2
745597
1.27995e+06
293648
143933
102871
85030.5
644556
1.10417e+06
283737
149334
105566
84061.3
547937
998736
299034
168759
116988
87063.9
457016
929339
321741
193793
134965
93393.5
376915
882016
343651
220080
156330
102212
322421
842420
377627
249588
177054
112333
291103
855890
415913
271696
188389
118363
281221
953762
443688
272961
184284
117877
292780
1.11554e+06
471027
260874
170751
113902
329527
1.36665e+06
498680
245026
156221
109953
398677
1.66684e+06
586848
259700
157157
113326
525491
2.24994e+06
739973
307976
176921
126060
761605
1.15887e+06
362395
199215
147017
124533
752254
976796
270973
154128
119882
104505
712592
847840
236047
136065
106470
92060.9
670644
792063
239354
138790
103696
85841.5
628578
782385
267798
160135
113192
86289.3
578557
782618
309840
196953
136826
95282.5
521091
753962
352737
242344
171966
112918
465907
671694
390354
292010
211892
136439
424676
592401
418958
330475
241550
157246
404035
587961
445052
345214
252282
168509
407864
678010
456618
331622
241238
165850
443562
825272
451800
299187
216289
154188
516162
1.01431e+06
480280
283857
199752
148999
641727
1.40555e+06
563642
296494
201521
153615
657658
379996
225676
182170
161189
145615
552937
351185
198444
153877
135196
122657
504345
364728
186078
133363
113273
101305
489816
373659
190390
124672
98333.2
85363.3
500491
381115
209378
133105
95999.4
78242.1
532949
388753
236114
162470
113532
83998.9
577901
385328
260369
203068
149154
104312
621171
363746
280755
245814
192775
135940
649754
353094
302667
283997
232845
168027
670345
367819
327534
312510
261669
193785
687538
403381
344457
319079
267074
203550
706339
429661
334791
296125
248855
193429
744950
455930
323505
270739
227838
184331
828014
504204
333991
265114
224149
186279
140650
123285
118011
115728
108693
94778.1
78708.8
63318.4
52075.3
49012.7
57343.3
80730
113489
144222
94128.3
69998.3
61420.8
57121.7
55401.4
50367.3
43746.2
36519
30682.5
29045.2
36168.5
57444.5
92481.1
133201
54914.5
32556.2
23822.4
19929.3
19437
18562.5
17222.1
15321.1
13912.2
15370
25113.7
48967
88939.4
136890
33509.4
15680
8031.17
5109.29
4551.88
4489.64
4558.9
4658.38
5331.85
8512.53
18869.3
43571.4
85931.9
136540
28332.9
11588.5
3806.46
1342.08
780.766
716.209
846.189
1208.4
2334.95
6117.52
17169.1
42130.9
82302.2
126645
31672
12018.2
3075.04
758.6
230.663
122.722
188.608
527.813
1772.76
5863.18
16876.5
39461
72861.6
108065
39764.7
13954.3
3304.26
911.121
300.157
143.153
214.378
649.618
2155.26
6556.81
16964.1
35921.9
61485.9
87698.8
53342.2
17566.9
4305.16
1571.6
700.144
430.438
534.136
1160.29
2984.53
7494.4
16773.1
31914.9
50733.7
70041.4
75174.3
24079.7
6309.57
3036.02
1815.09
1343.74
1453.49
2306.94
4404.58
8776.01
16766
28938.8
43989
61155.7
105298
37888.1
10053.3
5931.52
4431.44
3821.84
3954.7
5019.52
7349.63
11625.2
18851.9
30105.3
45175.3
67828.7
132846
55730.7
16969.8
11421.9
9923.73
9710.18
10409.3
12219.9
15495.5
20885.4
29417.6
43978.7
62347.9
98624.8
158023
87533.8
37019.6
21596.8
20246.4
21364.5
24399.1
29266.8
36454.1
46586.6
59029.2
79801.2
103068
145756
187159
125097
65659.4
37594.1
35030.7
38388.1
45969.9
57463.3
73058.7
92792.6
110631
131877
150586
186837
216903
176569
118890
73770.6
56523.9
57171.4
68351.9
88366.1
114600
146685
171693
183764
192332
208507
101177
82666.2
78155.8
76784.1
74744.8
68660.7
60183.7
50382.2
41787
36696
40243.9
56738
85310.2
115871
62769.5
41945.7
35323.8
33184
33378.1
32293.6
30106.5
26542.3
22838.1
20459.9
23207
36294.4
62450.6
98861.4
35256.7
18393.4
12142.5
10229.7
10278.8
10459.4
10526.4
10076.7
9474.9
9796.93
14177.2
28332
57180.8
99259.2
22973.1
9474.26
4021.23
2402.74
2142.42
2239.53
2462.61
2702.3
3182.5
4767.73
10093.6
24614.5
54352.6
97497.7
21322.3
7793.09
2183.87
672.62
353.023
324.544
408.505
616.693
1209.46
3121.4
9064.78
24371.7
53682.7
93071.7
24308.1
8182.55
1918.58
442.205
121.841
57.1583
86.8938
251.745
870.33
3009.17
9350.74
24265.2
50246.1
82542.7
29388
9158.48
2069.86
527.983
159.674
71.1314
102.12
311.843
1083.05
3541.12
10083.7
23758.4
45165.1
69864
36970.4
10973.5
2631.93
887.14
364.419
217.941
267.414
580.443
1569.91
4292.65
10622.5
22413.8
39202.7
57635.5
48600.8
14285.8
3785.29
1735.81
988.337
723.387
787.618
1252.02
2481.43
5312.25
11084.3
20877.8
34046.1
48527.3
65363
20528.8
6000.87
3566.06
2610.42
2215.81
2272.69
2872.15
4288.35
7110.66
12225.3
20533.3
32088.3
46964.6
82450.1
29705.1
10239.4
7284.34
6379.27
6124.19
6382.39
7266.4
9032.37
12173.1
17496.3
26463.8
39705.9
62303.3
103804
50426.6
20268
14380.6
13949.8
14710.4
16232.4
18549.3
21981.3
27161.6
34747.3
47770.9
64988.7
102554
134085
77269.9
37722.7
26158.7
26212.6
29144.2
33823.7
40175.3
48322.9
58725.1
70390.4
87871
107749
152831
173652
127691
77166.6
48293.7
43042.1
46907.2
55724.5
68219.5
83787.8
101928
119059
134944
151141
184245
49684.1
36189.9
33639.1
33664.5
35178.7
35757.3
34905.3
32033
28358.2
24778.3
23400.9
28699.5
43675.1
64449.2
29191.2
16548.1
12853.2
12269.4
13069.2
13959.8
14642.4
14403.3
13455.6
12246.4
12333.8
16642
28390.9
48893.6
17487.7
7654.29
4136.48
3367.86
3513.91
3917.37
4398.41
4687.06
4802.72
5005.65
6419.93
11540
24262.4
47489.9
14054.4
4973.55
1602.41
796.194
686.488
767.268
927.706
1113.98
1392.56
2046.53
3982.75
9452.84
22479.1
46716.2
14297.6
4448.61
1073.24
285.005
125.633
109.691
146.692
236.593
473.077
1184.32
3364.48
9437.93
23347.3
47880.3
15495.7
4425.08
984.968
221.232
56.5436
22.4298
31.6677
93.0684
323.314
1129.89
3648.51
10245
24105.1
46690.9
17015.3
4596.54
1041.42
254.962
71.7181
29.3249
38.5322
115.548
412.204
1414.63
4317.03
11232.4
24348.8
43824
19491.9
5151.44
1286.28
403.932
155.168
91.8133
109.533
230.238
637.395
1857.13
5023.31
11835.6
23561.2
39682.6
23244.2
6201.5
1826.11
795.738
434.759
320.518
345.776
536.929
1085.68
2492.55
5737.76
12093.3
22237.4
35418.4
29936.8
8016.8
2989.95
1753.8
1246.92
1037.79
1041.45
1298.76
1979.63
3505.55
6629.57
12314.1
21100.1
32552.7
37192.1
11002.9
5404.29
3984.78
3379.81
3090.07
3057.21
3352.47
4134.98
5753.04
8791.14
14178.2
22615.7
34723.7
49617.2
19330.8
10400.3
8737.8
8284.42
8227.48
8430.92
8974.39
10065.5
12114.7
15644.2
21955.5
31876.8
49123.4
67278
33933.4
19925.7
17348.5
17608
18645.7
20085.6
21901
24285.4
27840.4
32807.7
41513.1
53493.6
82048
101011
66791.8
38948.3
31532.3
31820.9
34867.1
39219.8
44390.8
50186.2
56928.3
63760.2
73439.2
84926.9
118560
18995.3
12047
10306.9
10163.1
11284.5
12732
14245
15082.5
15097.4
14301.4
13403.2
13581
17349.6
25204
12384.9
5761.26
3657.35
3229.96
3486.57
4005.53
4672.18
5208.49
5519.7
5590.88
5701.81
6709.63
10367.1
17782.7
9432.86
3296.12
1244.89
815.713
804.169
923.112
1112.95
1305.48
1488.93
1731.5
2312.9
3932.83
7907.65
15879.4
8897.39
2593.41
614.869
211.042
144.078
151.696
189.652
245.897
342.77
574.086
1193.86
2808.8
6718.31
15134
8655.21
2266.5
477.771
109.318
34.2555
20.5215
25.7332
46.6979
109.754
307.48
908.4
2619.99
6994.61
16547.8
8376.57
2056.67
444.079
99.4831
23.2869
6.43857
6.38573
20.0742
76.1342
282.926
973.078
2995.42
8041.35
18471.5
8162.36
2004.6
466.139
110.852
28.5592
9.93096
10.0231
26.8246
98.2882
365.43
1243.8
3702.37
9413.55
20308.3
8466.69
2194.66
565.137
163.15
57.4104
32.2663
34.5903
62.8696
168.665
530.313
1632.84
4484.47
10581.4
21295.1
9426.69
2607.03
793.37
317.471
162.558
119.391
124.509
176.03
338.572
821.03
2139.64
5277.06
11466.5
21538.6
11400.1
3299.46
1365.81
760.692
510.696
414.373
407.845
490.006
731.339
1350.9
2855.51
6112.21
12120.1
21353.6
13677.8
4715.09
2743.6
1970.49
1564.42
1342.15
1269.68
1356.13
1677.13
2432.23
4054.01
7300.2
13001.6
21573.9
19000.4
8099.95
5824.16
4923.75
4357.87
3954.5
3734.09
3742.89
4083.16
4941.42
6631.42
9834.81
15334.8
23807.4
27005.2
15146.3
11969
11032
10572.9
10208.3
9918.76
9817.93
10088.4
11035.1
12893.6
16462.9
22215.4
33038.9
44973
30515.9
22848.4
21611.2
21873.2
22417
22795.4
23049.7
23354.4
24451.1
26364.1
30646.3
36176.9
50674.8
8785.8
4447.75
3078.59
2671.98
2887.01
3473.45
4405.04
5439.47
6376.75
6946.42
7037.39
6904.59
7684.47
10478.9
6594.81
2372.89
1035.52
736.829
742.487
878.206
1138.61
1470.27
1825.34
2138.39
2385.27
2757.62
3922.37
6776.46
5669.65
1597.45
384.098
165.794
141.36
162.164
213.751
286.657
378.981
505.704
735.314
1271.46
2540.24
5199.25
5337.79
1310.76
236.119
52.5127
23.6895
21.5839
28.4266
41.9677
69.0954
136.038
313.483
768.328
1858.93
4338.7
4783.69
1073.27
200.455
40.5414
9.55777
3.22873
3.2248
7.03633
20.6138
66.0821
207.626
618.151
1741.52
4595.81
4179.41
902.682
187.104
40.2134
8.71538
1.90151
1.14216
3.52716
14.4776
56.9514
206.966
690.29
2095.6
5700.18
3687.02
841.148
194.898
43.6088
10.3423
3.28258
2.64101
5.55272
19.2408
75.0409
279.652
945.356
2833.45
7412.61
3588.62
915.37
232.29
60.8129
20.0745
11.3932
11.3385
16.8527
39.4755
126.327
428.813
1357.12
3807.03
9254.71
3885.17
1100.41
325.709
119.973
58.8542
43.9275
44.3696
56.4713
98.0769
237.205
677.335
1913.35
4898.94
10935.9
4554.21
1442.87
602.482
319.278
203.544
161.899
154.702
177.429
253.743
470.283
1074.13
2615.21
5984.73
12199.4
5411.64
2309.06
1379.16
951.542
700.566
562.627
502.796
521.418
645.784
965.741
1737.03
3512.67
7093.57
13200
7743.78
4432.92
3322.89
2707.72
2207.58
1820.03
1565.91
1482.46
1610.71
2029.44
2929.43
4781.1
8318.12
14183.8
12353.8
8748.66
7441.8
6763.11
6030.87
5263.28
4585.4
4144.01
4051.2
4454.01
5463.37
7412.31
10831.1
16743.6
22164.3
17443
14886.7
14522.8
13991.7
13179.5
12084
11008.1
10218
10143.7
10999.8
13190.4
16344.1
22683.6
4744.91
1890.85
985.548
714.383
695.423
828.244
1127.76
1579.08
2120.08
2633.79
2972.94
3123.87
3420.44
4583.06
3723.07
1077.91
315.919
168.208
151.51
175.913
240.066
344.257
481.242
631.81
773.073
952.848
1424.84
2701.77
3192.14
745.063
125.211
33.8164
23.5685
26.6435
36.9367
54.2299
79.0799
115.268
182.09
351.016
795.786
1807.19
2817.57
582.45
85.4725
14.1819
4.19229
2.98013
3.98843
6.45174
11.7599
26.0171
68.6842
192.894
521.565
1305.87
2320.57
447.244
74.859
13.7347
2.75627
0.619378
0.414463
0.976877
3.29787
12.0191
42.3331
139.359
427.576
1225.33
1865.55
362.995
70.8731
13.9318
2.70076
0.505516
0.200357
0.53027
2.32283
10.0185
40.1791
148.564
504.132
1559.88
1564.13
340.569
74.1128
14.6329
3.00669
0.846489
0.592966
1.01018
3.26036
13.5804
56.5541
217.31
751.419
2314.03
1519.69
378.991
86.976
19.0379
5.41943
3.00844
2.96401
3.94452
8.16142
26.3299
99.2758
362.034
1191.13
3446.65
1699.26
463.055
119.262
36.7727
16.5394
12.6816
13.033
15.8731
25.4338
60.2437
185.872
602.755
1810.96
4784.62
2065.21
624.446
230.824
108.303
64.9817
51.889
50.2655
57.1479
79.2062
144.955
349.32
960.324
2566.66
6117.41
2561.71
1095.96
608.746
383.413
262.3
203.056
179.416
186.653
232.114
350.918
659.525
1477.29
3427.96
7335.7
3961.96
2396.39
1719.41
1302.21
976.714
751.492
616.663
576.409
638.854
835.806
1268.19
2252.52
4403.16
8470.93
7094.94
5237.92
4386.97
3765.25
3109.99
2505.46
2022.11
1739.08
1700
1956.6
2541.74
3682.45
5891.96
10029.3
13382.8
10952.7
9658.14
9049.92
8233.62
7195.36
6062.54
5095.41
4506.1
4525.8
5212.96
6625.98
8811.63
12832.1
2574.4
811.77
300.083
179.073
160.308
186.049
257.367
380.598
555.66
763.518
960.439
1131.54
1350.67
1912.41
1989.01
473.235
91.9996
33.1
27.0207
31.4583
43.8817
65.6705
97.7734
138.832
187.599
265.401
462.736
1028.77
1610.56
315.86
39.8729
6.33844
3.20296
3.5813
5.14842
7.88899
12.1402
19.2762
35.6025
85.3319
235.851
629.022
1303.31
231.61
29.9279
4.0853
0.801585
0.334292
0.401287
0.683398
1.40529
3.86344
13.05
45.2567
144.77
410.8
990.994
171.745
27.2089
4.52929
0.777771
0.124568
0.0388657
0.0881864
0.385856
1.78472
7.69912
30.0678
105.541
335.914
764.452
142.378
26.707
4.67976
0.77208
0.121043
0.0312249
0.0602213
0.291553
1.48832
7.02618
30.0265
115.799
403.87
650.588
140.4
28.6506
4.92929
0.847315
0.207885
0.132239
0.180154
0.489825
2.13318
10.0799
44.4867
176.528
625.359
668.544
161.878
33.6747
6.20146
1.50631
0.791213
0.764996
0.92938
1.6151
4.83427
19.5659
81.1132
308.909
1049.96
788.725
200.112
45.6885
11.8988
4.89787
3.71258
3.81697
4.47752
6.4562
13.785
43.1128
155.825
542.58
1697.63
984.958
276.076
90.9772
37.7045
21.2764
16.7323
16.4449
18.6512
24.6346
41.7703
98.4903
292.902
898.152
2522.63
1280.26
520.814
265.692
149.237
95.2188
71.1535
63.9967
68.3385
84.7501
124.038
227.744
535.505
1398.92
3472.89
2139.6
1275.67
847.277
575.572
395.987
286.885
234.463
227.291
261.113
345.565
524.891
964.467
2069.91
4495.4
4192.79
3094.28
2427.13
1895.23
1428.14
1061.88
820.48
713.097
734.613
888.968
1195
1787.54
3069.91
5753.79
8464.39
6772
5867.13
5113.28
4300.63
3458.87
2707.23
2186.18
1970.69
2116.12
2605.61
3457.22
4866.52
7616
1250.48
325.791
86.3134
41.4908
35.3884
40.2281
53.8408
78.2853
117.175
171.38
235.974
313.901
433.38
727.158
891.457
177.689
24.8198
5.84611
4.43874
5.35605
7.4573
10.976
16.4269
24.3335
36.133
61.1347
136.866
379.341
656.197
109.7
11.5226
1.25262
0.423759
0.459924
0.673686
1.01832
1.56773
2.71193
6.28572
19.9004
68.6097
217.262
490.818
77.4219
9.44708
1.17961
0.176155
0.0416778
0.0385582
0.0650655
0.152514
0.556374
2.45663
10.4743
39.7288
131.037
360.181
59.3476
9.23275
1.4148
0.203453
0.0258342
0.00436072
0.00789334
0.0447182
0.260981
1.37446
6.3924
26.1323
94.5913
284.349
52.9249
9.61452
1.53096
0.209657
0.0272458
0.00564945
0.00732054
0.0338462
0.202392
1.14373
5.76072
25.6614
101.372
259.355
55.8663
10.6648
1.64101
0.229417
0.0482338
0.0306683
0.0366335
0.0732398
0.295732
1.57195
8.0821
37.1714
151.166
288.753
66.5704
12.4655
1.94423
0.382204
0.197785
0.20311
0.240184
0.340753
0.80695
3.2451
15.2098
67.2401
266.093
359.318
82.7941
16.086
3.35191
1.25409
1.0262
1.13059
1.33043
1.72002
2.97925
8.40834
32.7
131.61
485.893
460.6
113.071
30.2712
10.713
5.90589
5.04044
5.33836
6.18125
7.73185
11.4576
23.8972
72.571
252.596
835.381
620.095
216.054
94.0032
47.462
29.1809
22.9378
22.2411
24.7255
30.1641
41.2273
69.2075
160.564
462.307
1333.13
1086.17
584.113
343.097
209.701
134.951
98.1235
85.0754
87.6248
102.655
133.556
195.219
352.795
808.06
1988.32
2346.34
1597.72
1127.19
790.881
546.055
389.667
307.644
284.722
309.988
384.737
520.305
780.366
1396.66
2867.66
4964.99
3836.44
3058.14
2428.64
1867.99
1402.06
1066.64
887.07
859.405
985.512
1265.99
1722.88
2517.12
4187.63
577.363
132.881
27.0962
9.9862
7.65807
8.29018
10.5333
14.5206
21.3387
32.2213
48.4984
74.5709
126.668
271.332
363.942
65.795
7.8594
1.20838
0.734702
0.872144
1.19907
1.71397
2.52833
3.88347
6.57762
14.3994
43.1969
146.388
243.195
38.4771
4.10429
0.392368
0.0750575
0.058846
0.0856902
0.130341
0.205976
0.413212
1.28875
5.33947
22.1275
81.5272
173.035
27.5632
3.68375
0.475253
0.0610823
0.00842235
0.00399646
0.00672833
0.019762
0.0974119
0.541901
2.76019
12.223
46.2363
128.866
22.631
3.77647
0.58143
0.0749404
0.00808693
0.000860586
0.000907218
0.00649883
0.0468056
0.294306
1.5944
7.43399
29.9992
109.507
21.9579
4.08628
0.638778
0.0775854
0.00840622
0.00137685
0.00124024
0.00512457
0.0346244
0.22536
1.28345
6.34352
27.3498
112.66
25.0481
4.69849
0.697529
0.0833568
0.0140044
0.00799143
0.00855362
0.013634
0.049018
0.279336
1.59041
8.06527
35.9415
138.058
31.219
5.58
0.802694
0.125567
0.0579375
0.0581313
0.0649216
0.0805133
0.15254
0.567706
2.84658
13.952
61.426
181.287
39.6541
7.06043
1.22487
0.391459
0.323398
0.355024
0.402948
0.482535
0.707705
1.68601
6.4915
28.6131
118.83
241.302
54.0732
12.1607
3.55667
1.89044
1.69231
1.81841
2.07131
2.48636
3.34975
5.98045
16.7557
61.8666
230.317
336.05
99.2626
35.9
16.033
9.66836
8.00767
8.06539
9.04599
10.8875
14.2436
21.6798
45.376
132.659
424.278
589.493
270.273
137.194
74.8421
46.3311
34.84
31.9877
34.3369
40.8499
52.7294
74.0597
124.118
279.294
742.144
1319.95
786.897
485.444
303.753
196.997
140.301
116.89
116.21
133.107
168.818
228.846
334.416
586.544
1256.79
2914.57
2022.74
1436.52
1022.33
724.296
521.544
405.579
364.033
385.173
467.838
620.394
853.918
1255.33
2135.61
184639
223919
265811
316734
350118
304728
173263
215621
257923
301054
332600
317368
173904
222362
267295
306937
333276
333536
174570
224452
270661
308162
329167
337201
160423
210816
259834
297157
320723
324930
137857
184966
233990
272537
311426
317097
112437
152281
197197
237789
298511
322424
88015.4
117423
156513
208682
281515
319053
71383.2
91562.7
125819
190106
269811
296667
67100
81748.4
112268
181194
273685
272395
76996.7
90383.5
118346
186111
289511
253785
98084.5
113087
139401
203743
306797
231991
123538
140731
167676
225438
306585
220399
147445
167025
194574
242746
292863
221071
141618
178262
208014
232532
245937
248763
128907
170188
204368
232944
252468
262531
129572
175611
213254
242625
259822
267109
129927
177341
216134
243218
253536
253186
122126
167314
205493
230471
238243
231779
108373
148528
184367
213310
229649
221048
91821.3
125274
159840
196462
225671
215112
75259.6
101294
133162
177229
216779
204531
61775.9
81236.2
109717
161719
204925
190292
55559.9
70882.9
97458.5
152399
197363
179794
59769.6
74221.5
100495
153484
195944
177140
75155
91703.9
119164
164646
197600
177325
98110.7
117432
144752
179881
198313
177532
119820
141017
164562
188837
196556
182506
76776.1
107720
137623
162210
177027
191027
66512
101857
137338
168880
193019
216044
68157.1
108709
148728
185385
217884
243354
69887.7
113837
157180
198794
234670
255087
70810.1
114073
157462
200937
232500
240765
68539.3
107880
148709
188928
216481
218953
63204
96430.7
132426
169639
200520
204108
55639.9
82816.7
113039
149222
187945
189650
47941.6
69495
94460.1
131475
176802
172278
41876.6
59047.2
80088.5
118861
165337
156323
39708.8
54164.3
74343.3
112884
154934
146804
43185.9
56971.2
79046.1
115104
148317
141375
54422.8
70171.3
94925.4
125388
146155
138550
69177.4
88284.6
113430
135975
144729
138584
29725.4
45818.9
67264.6
91978.1
114697
137312
23799.8
41667
66029
95344.6
125043
156331
23885.1
45200.1
74403
109576
147597
188908
25157.9
50416.7
85128.1
126470
172755
222552
28053.5
56828.3
94795.7
140056
192402
242659
30781.3
61171.8
99733.6
146468
199680
240047
32817
62363.2
98460.2
142663
190455
219044
32952.6
59482.7
90491.2
128191
170168
193070
31425.5
53624.5
78758.1
109911
148851
171461
28779.8
46787.2
66608.1
92391.7
128374
151719
26289.4
40526.3
56366.8
79060.5
112583
134029
24749.3
36188.1
50042.8
71255.3
101945
119014
25838.5
36210.4
50523.2
71146.1
96989.8
108492
29092.9
40507.7
57147.2
77030.4
95735.9
103139
12738.3
20383.7
32433.1
48549.4
68808
94079
8743.88
16533.6
28738.9
46433.5
70054.8
103210
7688.49
16203.5
30271.4
51729.4
82574.1
129305
7522.26
17587.9
35359.1
63423.6
105503
168987
8616.12
21432.9
44208.2
80164.9
133615
210507
10493
26452
54002.1
95822.2
155745
236717
12909.3
31442.6
61528.1
104788
165752
238733
15075.5
34447.8
63903.6
103845
157799
215679
16509
34849.2
60638.1
93371.5
136936
181516
16759.9
32643.3
53387.6
78068.8
111507
145469
16103.2
29021.9
44942.2
63158.1
88307.4
116643
15006.5
25068.8
37437.1
51883.7
71555.8
95998.5
14520.7
22545.8
33040.5
45767.8
62502.7
82512.5
14087.6
21161.5
31394.8
43672.7
59365.8
74946.4
6582.48
10790.9
18639.7
29932.1
45028
66295.5
3702.68
7586.72
14479.3
24991.8
40692.6
66527
2678.86
6266.93
12873.1
24156.2
43889.1
80207
2247.51
5883.82
13435.8
28272.6
56622.1
110398
2368.99
6881.12
17139.6
38457.9