/*--------------------------------*- C++ -*----------------------------------*\
| =========                 |                                                 |
| \\      /  F ield         | OpenFOAM: The Open Source CFD Toolbox           |
|  \\    /   O peration     | Version:  v2106                                 |
|   \\  /    A nd           | Website:  www.openfoam.com                      |
|    \\/     M anipulation  |                                                 |
\*---------------------------------------------------------------------------*/
FoamFile
{
    version     2.0;
    format      ascii;
    arch        "LSB;label=32;scalar=64";
    class       volScalarField;
    location    "0.000164";
    object      p;
}
// * * * * * * * * * * * * * * * * * * * * * * * * * * * * * * * * * * * * * //

dimensions      [1 -1 -2 0 0 0 0];

internalField   nonuniform List<scalar> 
144746
(
199320
199347
198602
198451
198086
197912
197665
197397
197244
197270
197380
197569
197930
198541
198468
198529
198093
198004
197770
197616
197476
197337
197238
197237
197282
197505
197962
198428
198017
198059
197819
197730
197569
197467
197342
197223
197098
197064
197048
197153
197372
197709
197540
197558
197487
197465
197375
197323
197238
197146
197068
196980
196937
196986
197198
197528
197113
197190
197216
197258
197215
197174
197116
197010
196930
196816
196739
196737
196866
197184
196770
196813
196903
196974
196990
196982
196950
196861
196783
196667
196577
196545
196633
196885
196619
196631
196751
196798
196822
196803
196759
196682
196604
196481
196372
196304
196332
196496
196642
196513
196564
196554
196579
196575
196544
196470
196389
196265
196151
196093
196125
196281
196768
196461
196415
196337
196323
196296
196271
196211
196144
196024
195932
195914
195978
196201
196968
196471
196299
196085
196027
195971
195945
195889
195845
195783
195766
195823
196017
196362
197282
196553
196254
195883
195721
195582
195544
195511
195547
195590
195723
195915
196236
196603
197493
196638
196227
195752
195450
195210
195150
195142
195276
195452
195731
196026
196594
196965
198219
197202
196413
195733
195265
194949
194834
194844
195076
195379
195850
196259
197236
197485
198692
197187
196570
195903
195343
194900
194685
194723
195034
195519
196142
196694
197792
198452
198530
198464
197809
197666
197363
197117
196888
196811
196918
197189
197349
197364
197444
197683
198159
198226
197874
197716
197509
197331
197187
197108
197153
197254
197361
197373
197510
197504
198172
198108
197939
197814
197671
197526
197364
197224
197172
197195
197205
197119
196984
196811
198129
198034
197940
197857
197740
197649
197497
197416
197289
197225
197129
197001
196835
196687
197998
197945
197918
197893
197810
197709
197588
197454
197338
197202
197064
196881
196636
196399
197801
197751
197800
197818
197792
197713
197618
197499
197376
197222
197046
196794
196485
196200
197738
197695
197800
197819
197819
197725
197626
197508
197369
197175
196972
196690
196384
196115
197798
197720
197812
197778
197787
197709
197620
197483
197350
197147
196952
196684
196450
196245
197957
197799
197836
197784
197763
197676
197595
197455
197305
197122
196939
196783
196636
196521
198197
197910
197884
197779
197733
197626
197514
197357
197244
197111
196988
196897
196889
196848
198539
198097
198011
197820
197710
197564
197452
197290
197161
197071
197047
197080
197220
197257
198726
198223
198064
197818
197617
197417
197239
197079
197030
197048
197124
197196
197562
197570
199410
198727
198220
197803
197516
197250
197030
196878
196884
196985
197177
197288
198005
197936
199777
198558
198206
197807
197439
197083
196800
196666
196770
197008
197340
197561
198293
198625
199309
199090
198068
197640
197092
196625
196320
196307
196608
196921
197310
197563
197637
197446
199563
199431
198687
198172
197761
197400
197146
197001
197245
197430
197644
197779
197711
197305
199668
199563
199078
198623
198270
197935
197663
197603
197505
197553
197463
197271
196857
196281
199532
199510
199232
198894
198632
198384
198108
197923
197789
197649
197396
197050
196499
195909
199267
199337
199227
199031
198831
198619
198336
198164
197931
197695
197336
196837
196173
195408
198849
199183
199191
199103
198960
198743
198530
198320
198071
197762
197287
196672
195873
194969
198581
198929
199084
199112
199028
198835
198661
198401
198066
197695
197180
196547
195674
194698
198493
198857
199033
199085
199009
198849
198702
198445
198153
197743
197267
196577
195761
194874
198556
198855
199075
199168
199087
198875
198701
198448
198165
197823
197356
196861
196200
195449
198746
198886
199070
199044
198931
198746
198551
198330
198085
197795
197465
197069
196656
196005
199094
199058
199168
199042
198831
198490
198264
198036
197828
197641
197453
197264
197167
196636
199204
199162
199204
198926
198531
198147
197845
197610
197449
197368
197318
197244
197473
197065
199927
199630
199282
198778
198228
197659
197237
196959
196844
196847
196954
196982
197693
197299
200155
199317
199062
198521
197862
197169
196614
196265
196249
196417
196717
196836
197728
197929
199907
200860
201308
202093
202230
202809
198622
199497
200209
201227
201967
202871
198457
199604
200410
201536
202082
203069
198113
199134
199799
201081
201646
202819
197801
198855
199549
200998
201573
203026
197360
198319
199042
200575
201419
203076
196883
197924
198837
200617
201552
203165
196565
197560
198530
200371
201540
203331
196593
197570
198726
200533
201834
203348
196920
197892
199150
200788
202184
203478
197447
198432
199685
201163
202489
203611
198039
199074
200306
201714
202925
204115
198754
199823
200885
202220
203294
204348
199387
200429
201291
202519
203469
204339
198539
199164
199388
199915
200191
200711
197090
197488
197998
198799
199674
200652
196863
197366
198008
199091
199781
201276
196445
196805
197280
198783
199601
201868
196139
196651
197243
198948
199503
203306
195937
196456
197018
198655
199469
203754
195914
196484
197249
199126
200022
203429
196174
196651
197426
199284
200284
203767
196593
197099
198064
199876
201028
203956
197114
197690
198728
200378
201626
204041
197849
198467
199411
200800
201995
203940
198348
198958
199799
201063
202196
203677
198908
199451
200155
201311
202342
203545
199110
199638
200366
201477
202402
203354
198785
198735
198093
197242
196491
194998
196400
196466
196434
195894
195873
194126
196028
196095
196292
196077
196455
194820
195331
195021
195037
195223
196145
195417
194633
194291
194314
195217
196185
197617
194060
193554
193648
195419
196984
200302
193803
193384
193686
196022
197741
202830
194060
193774
194222
196624
198448
203840
194794
194694
195271
197372
199316
204309
195718
195803
196516
198114
199769
203565
196779
196955
197792
198925
199926
202370
197513
197783
198577
199389
199922
201337
198140
198518
199032
199529
199928
200524
198154
198421
198945
199516
199923
200287
199565
201009
201582
202645
203282
204114
197947
199517
200514
201987
203082
204594
197359
198861
199930
201604
202606
204739
196448
197692
198935
200860
202614
204649
195817
197067
198502
200624
202686
205440
195198
196351
198035
200370
202306
205896
195049
196225
197808
200205
202033
205209
194983
196061
197716
200251
202029
204929
195314
196513
198195
200564
202167
204483
195879
197170
198775
200944
202392
204481
196649
197921
199446
201384
202857
204499
197507
198749
200021
201721
203152
204628
198324
199641
200667
202223
203340
204559
199083
200234
201079
202495
203482
204526
199401
200443
200814
201892
202365
203518
198092
199122
199947
201571
202240
204250
197922
198961
199815
201568
202227
204366
197403
198123
199001
200695
201929
204231
197015
197805
198681
200453
201399
204561
196599
197220
198082
200084
200822
205022
196539
197164
197925
199973
200524
205313
196617
197161
197982
200017
200479
206099
196984
197578
198421
200498
201085
205372
197492
198123
198935
200878
201576
205385
198095
198779
199648
201335
202181
204395
198689
199376
200151
201635
202720
204520
199344
200183
200750
202080
202913
204226
199702
200472
201106
202448
203266
204479
198766
199616
199675
200182
200209
200680
196999
197981
198520
199566
199865
201238
196761
197564
198164
199363
200357
202446
196234
196509
197097
198866
200675
204148
195811
195991
196659
198808
200677
205579
195513
195318
195857
198288
200493
206570
195530
195244
195905
198360
200275
206380
195943
195639
196373
198809
200614
206684
196669
196623
197443
199570
201040
206486
197529
197753
198548
200063
201226
205859
198475
198867
199591
200800
201507
205026
199301
199681
200226
201288
201700
203292
199828
200316
200580
201360
201518
202698
199561
200184
200580
201740
202029
202839
204314
203370
202313
201205
200368
199538
204449
203143
202075
201027
200035
199344
204073
202807
201773
200395
199302
198512
204287
202401
201403
199815
198735
197889
204675
202234
201114
199228
198080
197298
205005
201952
200908
198904
197751
196938
205793
201864
200868
198699
197570
196747
205477
202175
200993
198837
197750
196842
205524
202756
201255
199126
197944
197011
205304
203289
201667
199818
198537
197360
204934
203335
201771
200039
198918
197714
204831
203015
202244
200612
199656
198163
204546
203001
202156
200616
199778
198359
204425
203387
202817
201734
201289
199850
202583
201559
200539
199506
198674
198272
203309
201775
200669
199814
198954
198799
203738
201931
201089
199909
198967
198558
205059
201795
201345
199824
198894
198414
205954
201489
201206
199425
198600
198152
206483
201232
200969
199105
198349
197938
206086
201055
200841
198855
198152
197789
205860
200978
200894
198871
198238
197803
205361
201003
200708
198885
198397
197929
204661
201315
200987
199480
198930
198240
204868
201751
201135
199760
199269
198586
205045
202156
201999
200577
199948
198990
204704
202611
202198
200715
200181
199103
204917
203299
202988
201963
201860
200606
198959
199075
199009
198926
198578
198722
201514
200992
200590
200449
200003
200261
204381
202096
201604
200871
200287
200180
207279
202753
201842
200716
199957
199797
208809
203236
202016
200187
199401
199238
210021
203293
201724
199441
198801
198732
210491
202995
201131
198626
198206
198296
210469
202748
200829
198309
197971
198076
210268
202815
200740
198228
198032
198074
209301
203006
201210
198815
198504
198236
207640
202755
201214
199202
198997
198541
206088
202960
201813
200125
199826
198897
204354
202390
201833
200433
200221
199104
203216
202596
202531
201734
202006
201059
203170
202301
201426
200564
199669
199068
202693
201855
201055
200251
199297
198811
203075
202018
200924
199844
198860
198257
202831
201717
200610
199388
198455
197858
203020
201606
200458
198985
198075
197536
203139
201479
200467
198893
198066
197461
203327
201460
200613
198976
198248
197598
203366
201632
200977
199315
198712
197956
203470
201713
201231
199726
199173
198298
203451
202045
201543
200154
199573
198576
203221
202185
201608
200383
199836
198913
203476
202537
202024
200850
200200
199125
203608
202502
201870
200828
200203
199325
203780
203289
203024
202172
201676
200707
201850
200877
199928
199066
198257
197987
202514
201265
200276
199450
198520
198335
203509
201814
200693
199519
198486
198064
204128
201813
200675
199235
198240
197811
204594
201507
200322
198603
197744
197343
204561
200869
199886
198022
197280
197015
204401
199808
199160
197406
196878
196687
203730
199189
198801
197197
196895
196693
202667
198985
198431
197161
197071
196866
201942
199126
198823
197690
197422
197096
201840
199470
199056
197962
197717
197370
201970
200314
199766
198679
198191
197730
201538
200415
199685
198816
198356
197925
202035
201336
201065
200418
200257
199705
196538
197162
197264
197342
196999
197307
199073
198782
198640
198560
198202
198437
201770
199965
199275
198716
198136
198154
204346
200710
199141
198175
197442
197552
205698
200727
198907
197244
196573
196764
206528
200303
198470
196223
195793
196164
206476
199759
197815
195340
195171
195641
205410
199217
197475
195125
194924
195431
203277
198524
197092
195173
195151
195706
200658
197884
196798
195664
195857
196275
198327
197256
196688
196358
196605
196923
197222
197779
197425
197620
197576
197566
196573
197337
197337
197832
197966
198096
197691
198495
199135
199878
200557
200511
201912
201350
200129
199364
198623
198067
197751
197672
197894
198467
199113
199818
200362
200918
201657
201318
200531
199825
199300
198801
198485
198439
198606
199023
199500
200025
200339
200586
201456
201190
200680
200136
199784
199410
199133
198998
199067
199216
199443
199612
199577
199265
201016
200909
200637
200271
200011
199699
199439
199335
199308
199349
199381
199272
198987
198500
200500
200553
200472
200298
200120
199833
199666
199544
199472
199420
199300
198967
198423
197652
200054
200255
200323
200258
200114
199931
199800
199643
199490
199361
199166
198632
197884
196890
199704
200014
200166
200200
200144
200017
199902
199722
199541
199268
198925
198330
197523
196385
199525
199869
200120
200171
200139
200020
199932
199763
199594
199331
198932
198332
197459
196268
199563
199942
200177
200208
200168
200057
199974
199814
199650
199405
199040
198489
197709
196692
199709
200043
200244
200294
200203
200065
199954
199800
199664
199495
199194
198788
198213
197374
200102
200267
200403
200353
200199
200004
199836
199671
199601
199459
199290
199072
198741
198079
200401
200518
200551
200346
200060
199784
199532
199349
199282
199250
199244
199266
199393
198835
201339
201027
200667
200243
199786
199330
198985
198745
198675
198738
198895
199079
199827
199430
201512
200739
200456
199950
199283
198602
198083
197803
197824
198069
198518
198791
199896
200258
203726
203263
202134
201359
200599
199897
199406
199217
199450
199832
200637
201520
202379
203350
203260
202979
202237
201586
201053
200550
200186
200054
200131
200579
201154
201839
202507
203152
202847
202651
202178
201701
201290
200902
200589
200459
200514
200775
201107
201499
201855
201956
202223
202219
201997
201681
201380
201042
200833
200713
200736
200881
201072
201197
201223
201110
201550
201753
201726
201587
201295
201138
200966
200844
200804
200846
200886
200846
200623
200242
201073
201401
201496
201458
201268
201155
201009
200892
200798
200697
200645
200434
199982
199368
200703
201138
201295
201337
201266
201167
201055
200946
200822
200695
200451
200074
199508
198758
200600
201062
201257
201315
201277
201179
201093
200990
200878
200724
200438
200008
199325
198456
200776
201181
201341
201388
201339
201235
201145
201048
200944
200807
200538
200112
199471
198509
201053
201361
201497
201492
201403
201273
201167
201072
200991
200898
200694
200414
199886
199092
201534
201652
201698
201628
201433
201248
201116
201016
200986
201022
200911
200818
200544
199851
202033
202027
201938
201687
201400
201095
200920
200806
200839
200987
201053
201179
201304
200772
202947
202523
202128
201633
201134
200730
200479
200363
200462
200749
201035
201397
201944
201590
202991
202310
201938
201276
200637
200073
199752
199674
199899
200337
200934
201459
202559
202536
205995
205514
204592
203799
203098
202494
202058
201885
201910
202291
203058
204074
205274
206479
205295
205000
204399
203821
203284
202831
202484
202369
202554
202912
203599
204370
205251
206186
204451
204418
204098
203738
203337
202992
202747
202656
202802
203071
203568
204129
204764
205328
203666
203849
203737
203543
203275
203047
202895
202828
202932
203136
203491
203853
204205
204478
203033
203351
203378
203327
203119
203049
202937
202892
202939
203052
203236
203462
203652
203727
202502
202959
203118
203142
203055
203013
202944
202916
202925
202965
203018
203142
203077
202908
202202
202646
202904
203017
203024
203011
202962
202941
202925
202910
202863
202763
202589
202248
202100
202606
202878
203005
203047
203037
203001
202981
202951
202900
202809
202639
202361
201851
202247
202719
202943
203070
203105
203091
203062
203045
203011
202958
202866
202674
202361
201768
202553
202935
203087
203163
203154
203126
203086
203087
203086
203071
203013
202831
202554
201941
202958
203176
203289
203269
203197
203135
203080
203089
203123
203171
203194
203147
202982
202413
203486
203556
203497
203366
203158
203026
202939
202958
203048
203279
203395
203524
203626
203130
204182
203907
203625
203279
202990
202764
202657
202655
202826
203159
203436
203816
204193
203880
204165
203722
203388
202887
202480
202171
202064
202132
202415
202895
203393
203958
204836
204794
207486
207069
206389
205759
205231
204755
204393
204236
204339
204645
205199
206050
207215
208474
206671
206509
206072
205644
205232
204892
204620
204532
204683
205035
205661
206407
207235
208132
205720
205868
205661
205411
205142
204880
204737
204698
204849
205137
205594
206189
206874
207531
204988
205288
205246
205144
204949
204839
204760
204754
204873
205119
205500
205966
206445
206861
204426
204770
204848
204873
204784
204761
204719
204743
204831
205023
205296
205635
206009
206323
203974
204393
204566
204666
204685
204702
204693
204726
204801
204939
205116
205354
205543
205659
203703
204139
204408
204585
204662
204701
204707
204736
204792
204900
204998
205103
205183
205137
203682
204115
204410
204603
204701
204745
204761
204789
204829
204898
204951
204979
204946
204771
203779
204185
204476
204682
204787
204829
204847
204875
204909
204952
204978
204949
204879
204596
204067
204440
204625
204773
204858
204893
204918
204956
205003
205065
205116
205085
204999
204542
204374
204643
204853
204908
204942
204947
204941
204995
205073
205160
205248
205215
205191
204754
204810
204923
204967
204962
204906
204904
204890
204953
205055
205216
205413
205523
205597
205196
205268
205186
205087
204938
204774
204710
204661
204769
204953
205281
205496
205759
206028
205794
205311
205045
204793
204513
204354
204251
204227
204367
204651
205089
205507
206014
206543
206574
208838
208538
208114
207659
207298
206979
206702
206634
206782
207054
207531
208246
209217
210358
207981
207952
207742
207469
207238
206996
206837
206818
206977
207286
207812
208492
209246
210057
207167
207393
207315
207200
207053
206924
206867
206892
207027
207318
207747
208299
208971
209677
206560
206904
206924
206936
206854
206849
206834
206897
207038
207304
207669
208160
208700
209226
206035
206459
206591
206700
206727
206765
206794
206872
207009
207243
207544
207951
208410
208880
205721
206150
206388
206564
206668
206739
206780
206858
206982
207181
207437
207752
208091
208405
205528
205996
206329
206550
206687
206766
206810
206878
206984
207153
207361
207596
207831
208051
205531
206013
206366
206606
206749
206834
206881
206943
207032
207165
207327
207493
207649
207746
205640
206101
206473
206717
206858
206939
206979
207032
207108
207215
207336
207455
207561
207563
205891
206318
206586
206814
206950
207021
207063
207120
207197
207302
207414
207516
207586
207493
206138
206537
206794
206931
207021
207056
207097
207176
207278
207406
207533
207614
207695
207459
206499
206705
206885
206953
207005
207021
207069
207171
207299
207451
207657
207764
207921
207673
206738
206825
206892
206874
206844
206848
206919
207053
207223
207482
207759
207957
208146
208017
206730
206655
206554
206447
206421
206474
206571
206792
207085
207464
207790
208170
208469
208548
210152
209900
209631
209312
209131
208891
208766
208814
208982
209281
209706
210256
211039
212006
209343
209390
209283
209136
209035
208873
208846
208925
209098
209403
209855
210448
211121
211778
208718
208945
208917
208917
208865
208820
208866
208967
209151
209435
209819
210320
210914
211575
208196
208525
208606
208698
208716
208773
208846
208975
209162
209442
209801
210256
210775
211276
207813
208183
208379
208537
208645
208747
208841
208980
209161
209423
209743
210141
210595
211058
207555
207961
208259
208480
208640
208761
208864
208999
209168
209409
209701
210054
210427
210777
207406
207889
208263
208513
208692
208818
208920
209043
209195
209410
209664
209959
210275
210557
207429
207927
208317
208580
208770
208896
208998
209110
209247
209433
209651
209894
210138
210327
207522
208014
208433
208699
208882
208997
209087
209186
209309
209471
209656
209854
210048
210190
207716
208192
208533
208802
208961
209067
209156
209257
209380
209526
209689
209843
210001
210091
207888
208357
208685
208877
209001
209096
209187
209299
209435
209576
209733
209862
210027
210011
208164
208498
208747
208866
208964
209055
209159
209294
209448
209602
209789
209926
210131
210045
208305
208533
208720
208795
208839
208927
209035
209198
209384
209569
209793
209991
210189
210196
208323
208368
208381
208393
208449
208600
208791
209014
209257
209547
209793
210082
210311
210489
211780
211609
211464
211273
211172
211035
211015
211120
211285
211557
211938
212438
213137
213982
211098
211168
211122
211092
211037
210998
211045
211187
211383
211680
212073
212600
213226
213833
210536
210780
210820
210892
210913
210962
211058
211222
211429
211718
212073
212521
213064
213667
210066
210413
210570
210719
210820
210941
211066
211249
211464
211751
212091
212508
212996
213500
209760
210159
210409
210616
210782
210943
211092
211281
211497
211771
212084
212452
212883
213339
209535
209990
210331
210588
210797
210976
211137
211325
211536
211795
212090
212425
212799
213175
209460
209957
210346
210625
210850
211037
211203
211386
211586
211826
212094
212385
212706
213024
209498
210002
210403
210690
210923
211108
211275
211452
211644
211864
212101
212362
212637
212888
209576
210084
210505
210789
211012
211185
211343
211512
211693
211894
212110
212335
212578
212776
209766
210229
210593
210867
211075
211234
211384
211546
211721
211909
212109
212313
212535
212697
209893
210366
210698
210925
211104
211245
211392
211550
211723
211906
212095
212279
212497
212646
210127
210483
210728
210905
211056
211199
211351
211514
211690
211870
212072
212240
212503
212613
210238
210514
210727
210850
210939
211076
211227
211409
211598
211781
212008
212212
212493
212700
210257
210333
210464
210548
210677
210830
211007
211231
211463
211698
211946
212221
212481
212806
213589
213484
213441
213326
213270
213209
213226
213344
213532
213815
214180
214645
215284
216059
212985
213118
213134
213158
213155
213177
213245
213406
213613
213918
214305
214805
215403
215993
212469
212764
212861
212981
213051
213149
213262
213448
213670
213965
214320
214753
215272
215844
212065
212443
212644
212836
212974
213135
213287
213492
213726
214021
214363
214773
215245
215749
211809
212225
212507
212757
212952
213155
213333
213548
213786
214071
214392
214756
215172
215622
211628
212103
212453
212748
212981
213199
213400
213619
213856
214127
214431
214769
215146
215537
211579
212091
212476
212787
213037
213269
213481
213701
213932
214188
214468
214770
215103
215436
211627
212137
212527
212842
213101
213335
213554
213776
214003
214247
214504
214777
215079
215370
211715
212219
212617
212925
213175
213403
213618
213836
214059
214288
214527
214777
215051
215308
211898
212330
212697
212981
213218
213434
213644
213859
214078
214298
214527
214765
215035
215261
212011
212454
212771
213016
213230
213425
213627
213837
214053
214271
214500
214734
215010
215214
212215
212547
212788
212999
213193
213379
213574
213780
213994
214209
214445
214669
214981
215173
212273
212563
212787
212938
213101
213277
213469
213672
213884
214099
214337
214587
214916
215214
212286
212436
212585
212730
212894
213080
213274
213501
213725
213962
214214
214517
214801
215214
215613
215639
215689
215676
215665
215667
215701
215811
215978
216236
216577
217000
217563
218283
215076
215320
215402
215494
215539
215614
215690
215839
216030
216312
216669
217135
217694
218272
214606
214977
215140
215316
215431
215566
215689
215867
216078
216354
216691
217104
217599
218149
214279
214704
214954
215183
215357
215540
215706
215908
216135
216415
216748
217145
217613
218115
214056
214511
214832
215116
215341
215560
215753
215969
216206
216481
216800
217161
217579
218023
213940
214425
214799
215118
215377
215613
215828
216053
216292
216559
216866
217207
217595
218000
213925
214427
214825
215154
215435
215691
215921
216153
216390
216647
216934
217245
217595
217949
213983
214471
214875
215208
215499
215764
216005
216241
216478
216727
216998
217289
217613
217932
214077
214555
214952
215276
215562
215828
216071
216310
216546
216789
217046
217321
217626
217907
214225
214636
215014
215317
215592
215849
216091
216332
216570
216811
217063
217331
217636
217902
214355
214746
215069
215341
215593
215832
216066
216302
216539
216782
217039
217311
217627
217884
214494
214806
215071
215319
215551
215776
216005
216238
216471
216713
216980
217255
217614
217852
214517
214822
215063
215255
215475
215688
215902
216128
216355
216594
216864
217155
217548
217888
214518
214719
214893
215103
215301
215508
215719
215949
216184
216436
216709
217045
217396
217873
203531
204760
205404
206433
208292
210208
200496
200990
201584
202803
204896
207762
199658
200041
200419
201387
203086
205680
198544
198334
198256
198868
200024
201456
197587
197012
196723
196952
197438
197816
196807
195856
195300
195405
195837
195816
196376
195241
194552
194646
195445
195328
196432
195241
194508
194692
196001
196293
197188
196071
195594
195963
198198
198884
198299
197467
197519
198117
200692
201814
199533
199055
199758
200629
203212
204742
200531
200556
201809
203016
205541
207221
201537
201821
203187
204443
207251
209307
200777
201352
202891
204857
207783
210313
205609
206986
207798
208407
209221
210641
202726
203276
204070
205229
206820
208569
201917
202366
202759
203401
204681
206254
200898
200934
200770
201011
201634
202615
199927
199406
198835
198622
198592
199122
198998
197903
197054
196513
196368
197067
198410
196985
195892
195146
195163
196030
198205
196658
195415
194560
194841
196133
198527
197287
196180
195559
196288
197680
199522
198585
197943
197703
198792
200361
200765
200241
200286
200613
201991
203725
202160
202058
202698
203488
205050
206898
203578
203808
204804
205792
207710
209758
202888
203383
204757
206561
209099
211074
207737
209352
210385
211368
212183
213024
205459
206411
207420
208777
210215
211420
204708
205405
206193
207164
208062
209162
203652
203907
204263
204503
204822
205408
202668
202529
202184
201670
201407
201276
201796
201293
200234
199375
198715
198486
201208
200394
198873
197753
196801
196729
201018
199840
198253
197005
196072
196425
201333
199959
198746
197619
197066
197752
202092
201012
200316
199483
199602
200530
203214
202584
202481
202315
203092
204255
204595
204510
204966
205338
206497
207810
206201
206500
207392
208323
209775
211321
206151
206587
207719
209281
211215
213113
208837
209955
210778
211601
212249
213039
207297
208212
209109
210114
211146
212254
206640
207312
207910
208599
209483
210536
205770
206052
206222
206606
207198
207615
205046
204910
204672
204620
204234
204129
204347
203754
203166
202385
201580
201006
203873
202974
202212
200870
199852
199117
203696
202639
201668
200035
198851
198008
203929
202887
201668
200257
199226
198614
204452
203505
202694
201779
201015
200834
205355
204759
204472
204054
203956
204236
206488
206355
206588
206642
207033
207732
207815
208134
208826
209395
210371
211405
208385
208852
209652
210756
212082
213544
209894
210677
211350
212105
212832
213598
208901
209645
210424
211271
212202
213170
208460
209103
209686
210348
211066
211770
207791
208149
208444
208766
209034
209429
207294
207336
207254
207115
207019
206683
206800
206481
205939
205379
204525
203877
206391
205873
205053
204308
203093
202274
206246
205577
204761
203815
202375
201416
206467
205798
205081
203831
202619
201765
206870
206356
205689
204719
203963
203281
207658
207224
206920
206502
206160
205960
208588
208472
208566
208534
208700
208925
209609
209861
210370
210845
211449
212186
210410
210885
211537
212243
213259
214382
210962
211568
212186
212813
213556
214275
210285
210909
211573
212353
213218
214063
210010
210578
211118
211807
212465
213140
209508
209875
210222
210636
210939
211258
209205
209308
209375
209377
209291
209099
208848
208723
208437
207968
207473
206430
208594
208274
207703
206929
205962
204889
208579
208117
207355
206580
205402
204263
208763
208341
207619
206922
205554
204580
209124
208811
208230
207606
206650
206073
209729
209545
209196
208857
208515
208175
210528
210486
210457
210503
210524
210559
211343
211564
211905
212305
212769
213209
212234
212670
213199
213781
214506
215387
212460
212927
213469
213988
214598
215250
212000
212542
213101
213777
214463
215238
211859
212360
212849
213443
214058
214649
211527
211873
212202
212572
212927
213227
211320
211468
211568
211643
211591
211614
211064
211001
210873
210601
210210
209597
210920
210698
210300
209628
209005
207747
210942
210635
210067
209170
208463
207063
211131
210807
210235
209468
208746
207376
211478
211235
210837
210207
209498
208578
212006
211872
211662
211254
210860
210507
212669
212720
212701
212633
212648
212658
213378
213621
213881
214179
214539
214875
214248
214672
215056
215551
216142
216691
214147
214510
214945
215378
215866
216368
213858
214309
214729
215323
215898
216545
213804
214206
214594
215149
215636
216167
213556
213847
214133
214520
214817
215164
213420
213551
213676
213810
213821
213954
213246
213218
213162
213054
212743
212466
213180
213027
212806
212371
211687
210948
213231
212986
212633
211994
211221
210208
213416
213184
212771
212088
211451
210239
213741
213614
213289
212775
212205
211115
214249
214222
214016
213728
213229
212626
214878
214974
214972
214882
214735
214615
215540
215791
215977
216199
216462
216733
216336
216744
217056
217486
217984
218439
216133
216440
216794
217158
217553
217931
215990
216391
216764
217281
217760
218314
216044
216396
216746
217248
217679
218160
215922
216194
216451
216823
217080
217390
215842
215988
216126
216297
216283
216289
215742
215761
215738
215664
215335
215103
215708
215624
215493
215194
214500
213959
215758
215586
215303
214826
214015
213341
215918
215741
215428
214892
214107
213368
216194
216083
215884
215445
214808
214150
216617
216623
216496
216246
215833
215310
217176
217304
217328
217252
217084
216860
217797
218039
218260
218369
218546
218681
218532
218893
219210
219574
220019
220427
202782
204269
205131
206427
208860
211278
199923
200878
201879
203474
206165
209928
199196
200015
201002
202522
204936
208924
198023
198257
198906
200201
202544
206169
196855
196710
197153
198299
200250
202468
195802
195167
195343
196525
198464
200111
195131
194130
194237
195513