/*--------------------------------*- C++ -*----------------------------------*\
| =========                 |                                                 |
| \\      /  F ield         | OpenFOAM: The Open Source CFD Toolbox           |
|  \\    /   O peration     | Version:  v2106                                 |
|   \\  /    A nd           | Website:  www.openfoam.com                      |
|    \\/     M anipulation  |                                                 |
\*---------------------------------------------------------------------------*/
FoamFile
{
    version     2.0;
    format      ascii;
    arch        "LSB;label=32;scalar=64";
    class       surfaceScalarField;
    location    "0.000171";
    object      phi;
}
// * * * * * * * * * * * * * * * * * * * * * * * * * * * * * * * * * * * * * //

dimensions      [1 0 -1 0 0 0 0];

internalField   nonuniform List<scalar> 
53252
(
-3.55955e-11
-3.6722e-11
-9.68435e-09
4.31076e-11
4.19096e-11
-3.20254e-11
-4.05853e-11
-9.68319e-09
4.94554e-11
-2.67051e-11
-3.58384e-11
-9.68141e-09
4.31485e-11
-2.09521e-11
-3.8357e-11
-9.67942e-09
4.51536e-11
-1.4521e-11
-3.90099e-11
-9.67837e-09
4.51201e-11
-7.80128e-12
-3.99945e-11
-9.67772e-09
4.5824e-11
-1.05471e-12
-4.05984e-11
-9.67763e-09
4.65036e-11
5.74453e-12
-4.04635e-11
-9.67758e-09
4.63243e-11
1.25228e-11
-4.00104e-11
-9.67762e-09
4.58068e-11
1.89867e-11
-3.90662e-11
-9.67819e-09
4.51909e-11
2.47488e-11
-3.84286e-11
-9.67916e-09
4.52654e-11
3.00678e-11
-3.592e-11
-9.68107e-09
4.32685e-11
3.36179e-11
-4.07326e-11
-9.68275e-09
4.96508e-11
-3.67978e-11
-9.68385e-09
4.32334e-11
3.99246e-11
-3.94677e-11
-3.30962e-11
-9.68318e-09
4.8307e-11
-3.34172e-11
-3.45145e-11
-9.68175e-09
-2.59654e-11
-3.09915e-11
-9.67982e-09
-1.92897e-11
-3.28054e-11
-9.67773e-09
-1.2945e-11
-3.31515e-11
-9.67634e-09
-6.924e-12
-3.3871e-11
-9.67505e-09
-1.09331e-12
-3.41952e-11
-9.67468e-09
4.79609e-12
-3.4117e-11
-9.67465e-09
1.08512e-11
-3.3893e-11
-9.67497e-09
1.72347e-11
-3.31848e-11
-9.67619e-09
2.39628e-11
-3.28595e-11
-9.67751e-09
3.14755e-11
-3.10669e-11
-9.67952e-09
3.7576e-11
-3.46543e-11
-9.68135e-09
-3.31639e-11
-9.68269e-09
4.64621e-11
-3.47163e-11
-2.77461e-11
-9.68137e-09
4.19944e-11
-2.99046e-11
-2.70528e-11
-9.67978e-09
-2.37223e-11
-2.47976e-11
-9.67716e-09
-1.79981e-11
-2.61905e-11
-9.67528e-09
-1.23009e-11
-2.65229e-11
-9.67388e-09
-6.69886e-12
-2.71825e-11
-9.67277e-09
-1.08087e-12
-2.7426e-11
-9.67246e-09
4.57101e-12
-2.73845e-11
-9.67243e-09
1.01829e-11
-2.71893e-11
-9.67269e-09
1.59106e-11
-2.65256e-11
-9.67375e-09
2.16781e-11
-2.62138e-11
-9.67507e-09
2.79038e-11
-2.48438e-11
-9.67687e-09
3.27503e-11
-2.71597e-11
-9.67939e-09
-2.78165e-11
-9.68089e-09
4.00969e-11
-3.72259e-11
-2.20104e-11
-9.67936e-09
4.39932e-11
-3.1713e-11
-2.04056e-11
-9.67767e-09
-2.51097e-11
-1.91081e-11
-9.67525e-09
-1.89509e-11
-2.0068e-11
-9.67348e-09
-1.287e-11
-2.03182e-11
-9.67217e-09
-6.97469e-12
-2.08186e-11
-9.67109e-09
-1.0713e-12
-2.09736e-11
-9.67079e-09
4.84476e-12
-2.09491e-11
-9.67076e-09
1.07369e-11
-2.08043e-11
-9.67103e-09
1.68414e-11
-2.02903e-11
-9.67205e-09
2.30348e-11
-2.00551e-11
-9.6733e-09
2.96781e-11
-1.91158e-11
-9.67499e-09
3.52304e-11
-2.04672e-11
-9.67731e-09
-2.20687e-11
-9.6789e-09
4.20759e-11
-3.78834e-11
-1.56515e-11
-9.67827e-09
4.39666e-11
-3.20661e-11
-1.41339e-11
-9.67625e-09
-2.54508e-11
-1.34917e-11
-9.67382e-09
-1.92074e-11
-1.40718e-11
-9.67213e-09
-1.30395e-11
-1.42394e-11
-9.67079e-09
-7.05987e-12
-1.45711e-11
-9.66974e-09
-1.05325e-12
-1.46571e-11
-9.66943e-09
4.95008e-12
-1.46345e-11
-9.66941e-09
1.09154e-11
-1.45301e-11
-9.66968e-09
1.70941e-11
-1.41753e-11
-9.67068e-09
2.33566e-11
-1.40126e-11
-9.67196e-09
3.00024e-11
-1.34494e-11
-9.67357e-09
3.5862e-11
-1.41391e-11
-9.6759e-09
-1.56787e-11
-9.67783e-09
4.20241e-11
-3.88521e-11
-9.03238e-12
-9.67759e-09
4.46624e-11
-3.27696e-11
-8.20025e-12
-9.67494e-09
-2.60979e-11
-7.97622e-12
-9.67269e-09
-1.96988e-11
-8.26413e-12
-9.67103e-09
-1.33642e-11
-8.35203e-12
-9.66972e-09
-7.21397e-12
-8.51215e-12
-9.66868e-09
-1.03353e-12
-8.53519e-12
-9.66838e-09
5.13173e-12
-8.50583e-12
-9.66835e-09
1.1253e-11
-8.43896e-12
-9.66862e-09
1.75775e-11
-8.24357e-12
-9.66962e-09
2.39729e-11
-8.14802e-12
-9.67087e-09
3.06578e-11
-7.87319e-12
-9.67244e-09
3.67724e-11
-8.13836e-12
-9.67461e-09
-9.01232e-12
-9.67716e-09
4.26542e-11
-3.95058e-11
-2.33804e-12
-9.67745e-09
4.53752e-11
-3.3137e-11
-2.42316e-12
-9.67453e-09
-2.63696e-11
-2.41309e-12
-9.67233e-09
-1.98698e-11
-2.41176e-12
-9.67069e-09
-1.34589e-11
-2.39764e-12
-9.66937e-09
-7.24093e-12
-2.3807e-12
-9.66833e-09
-1.00566e-12
-2.35347e-12
-9.66802e-09
5.20595e-12
-2.32697e-12
-9.66799e-09
1.13801e-11
-2.30909e-12
-9.66827e-09
1.77595e-11
-2.2922e-12
-9.66926e-09
2.42328e-11
-2.29151e-12
-9.67051e-09
3.09951e-11
-2.29867e-12
-9.67208e-09
3.73847e-11
-2.33171e-12
-9.67419e-09
-2.28525e-12
-9.67702e-09
4.33198e-11
-3.93058e-11
4.49578e-12
-9.67736e-09
4.50682e-11
-3.30349e-11
3.48334e-12
-9.67445e-09
-2.63261e-11
3.23453e-12
-9.67226e-09
-1.98498e-11
3.49203e-12
-9.67062e-09
-1.34409e-11
3.58728e-12
-9.6693e-09
-7.21394e-12
3.76772e-12
-9.66826e-09
-9.79782e-13
3.8365e-12
-9.66795e-09
5.22552e-12
3.85471e-12
-9.66792e-09
1.13958e-11
3.82238e-12
-9.66819e-09
1.77552e-11
3.66683e-12
-9.66917e-09
2.41852e-11
3.58961e-12
-9.67042e-09
3.08705e-11
3.33351e-12
-9.67199e-09
3.71499e-11
3.58149e-12
-9.67411e-09
4.56968e-12
-9.67693e-09
4.29702e-11
-3.89319e-11
1.12587e-11
-9.67737e-09
4.46658e-11
-3.28536e-11
9.51497e-12
-9.67475e-09
-2.61487e-11
8.81919e-12
-9.6725e-09
-1.97102e-11
9.36425e-12
-9.67086e-09
-1.33372e-11
9.53591e-12
-9.66955e-09
-7.14676e-12
9.87897e-12
-9.66851e-09
-9.63411e-13
9.99831e-12
-9.6682e-09
5.18971e-12
1.00108e-11
-9.66816e-09
1.13138e-11
9.93028e-12
-9.66842e-09
1.76248e-11
9.60644e-12
-9.6694e-09
2.40025e-11
9.45533e-12
-9.67065e-09
3.06702e-11
8.91665e-12
-9.67222e-09
3.67504e-11
9.62434e-12
-9.67439e-09
1.13463e-11
-9.67692e-09
4.2544e-11
-3.80288e-11
1.77048e-11
-9.67789e-09
4.4134e-11
-3.21641e-11
1.59074e-11
-9.67593e-09
-2.54961e-11
1.45642e-11
-9.6735e-09
-1.92026e-11
1.54979e-11
-9.67183e-09
-1.29864e-11
1.57494e-11
-9.6705e-09
-6.95417e-12
1.62474e-11
-9.66945e-09
-9.48154e-13
1.642e-11
-9.66913e-09
5.03183e-12
1.64144e-11
-9.66908e-09
1.09923e-11
1.62796e-11
-9.66935e-09
1.71395e-11
1.5787e-11
-9.67033e-09
2.33672e-11
1.55531e-11
-9.67159e-09
2.99936e-11
1.46311e-11
-9.67319e-09
3.586e-11
1.60002e-11
-9.67554e-09
1.77909e-11
-9.67742e-09
4.2021e-11
-3.7396e-11
2.34857e-11
-9.67883e-09
4.42278e-11
-3.18371e-11
2.27011e-11
-9.67722e-09
-2.51793e-11
2.0402e-11
-9.6748e-09
-1.89617e-11
2.17715e-11
-9.67305e-09
-1.28185e-11
2.20986e-11
-9.67175e-09
-6.85569e-12
2.27412e-11
-9.67066e-09
-9.47223e-13
2.2988e-11
-9.67035e-09
4.94619e-12
2.2949e-11
-9.6703e-09
1.08353e-11
2.27476e-11
-9.67055e-09
1.69049e-11
2.20985e-11
-9.67155e-09
2.3055e-11
2.17821e-11
-9.67279e-09
2.96657e-11
2.04288e-11
-9.67446e-09
3.52175e-11
2.27666e-11
-9.6768e-09
2.35616e-11
-9.67835e-09
4.21044e-11
-3.48896e-11
2.88659e-11
-9.68071e-09
4.22428e-11
-3.00404e-11
3.03208e-11
-9.6792e-09
-2.37997e-11
2.67323e-11
-9.67656e-09
-1.80113e-11
2.85284e-11
-9.6747e-09
-1.2247e-11
2.88636e-11
-9.67331e-09
-6.5758e-12
2.95563e-11
-9.67219e-09
-9.54497e-13
2.98744e-11
-9.67187e-09
4.67068e-12
2.97848e-11
-9.67181e-09
1.02784e-11
2.95353e-11
-9.67207e-09
1.59716e-11
2.88332e-11
-9.6731e-09
2.16985e-11
2.84976e-11
-9.67441e-09
2.78957e-11
2.67192e-11
-9.6762e-09
3.27437e-11
3.03516e-11
-9.67876e-09
2.89202e-11
-9.68021e-09
4.01562e-11
-3.97393e-11
3.2503e-11
-9.68235e-09
4.86531e-11
-3.36433e-11
3.65229e-11
-9.681e-09
-2.61139e-11
3.16784e-11
-9.67906e-09
-1.93566e-11
3.41892e-11
-9.67699e-09
-1.29311e-11
3.4834e-11
-9.67562e-09
-6.83014e-12
3.57815e-11
-9.67432e-09
-9.77628e-13
3.63683e-11
-9.67394e-09
4.90074e-12
3.62158e-11
-9.67389e-09
1.09636e-11
3.57267e-11
-9.6742e-09
1.73292e-11
3.47868e-11
-9.6754e-09
2.40353e-11
3.41347e-11
-9.6767e-09
3.15356e-11
3.16418e-11
-9.6787e-09
3.76463e-11
3.65315e-11
-9.68056e-09
3.257e-11
-9.68185e-09
4.65969e-11
-3.57541e-11
-9.68345e-09
3.88866e-11
4.2179e-11
-3.20959e-11
-9.6823e-09
4.54709e-11
-2.67372e-11
-9.68052e-09
3.91152e-11
-2.09494e-11
-9.67854e-09
4.11291e-11
-1.44794e-11
-9.67749e-09
4.10785e-11
-7.71683e-12
-9.67684e-09
4.17302e-11
-9.64647e-13
-9.67673e-09
4.23785e-11
5.81027e-12
-9.67667e-09
4.21819e-11
1.25751e-11
-9.6767e-09
4.16302e-11
1.90207e-11
-9.67726e-09
4.10117e-11
2.47627e-11
-9.67823e-09
4.10766e-11
3.00757e-11
-9.68013e-09
3.90946e-11
3.37082e-11
-9.68183e-09
4.55065e-11
-9.68293e-09
4.0141e-11
3.9014e-11
-4.03977e-11
-4.16767e-11
-1.09981e-08
4.85344e-11
4.72201e-11
-3.57314e-11
-4.59581e-11
-1.09973e-08
5.5527e-11
-2.96783e-11
-4.04973e-11
-1.09951e-08
4.84199e-11
-2.32184e-11
-4.32404e-11
-1.09928e-08
5.06273e-11
-1.60475e-11
-4.39868e-11
-1.09916e-08
5.06412e-11
-8.54778e-12
-4.50689e-11
-1.09909e-08
5.14075e-11
-1.11936e-12
-4.57775e-11
-1.09907e-08
5.2233e-11
6.4202e-12
-4.5692e-11
-1.09906e-08
5.20539e-11
1.40121e-11
-4.51898e-11
-1.09906e-08
5.1499e-11
2.12678e-11
-4.41812e-11
-1.09912e-08
5.08378e-11
2.7807e-11
-4.34822e-11
-1.09923e-08
5.08699e-11
3.39104e-11
-4.07557e-11
-1.09944e-08
4.86687e-11
3.85462e-11
-4.6251e-11
-1.09964e-08
5.58533e-11
-4.1866e-11
-1.09971e-08
4.86799e-11
4.5359e-11
-4.46731e-11
-3.69752e-11
-1.09972e-08
5.42054e-11
-3.7334e-11
-3.86251e-11
-1.0996e-08
-2.8916e-11
-3.45324e-11
-1.09937e-08
-2.14124e-11
-3.64999e-11
-1.09913e-08
-1.43265e-11
-3.68774e-11
-1.09898e-08
-7.60116e-12
-3.7657e-11
-1.09883e-08
-1.17997e-12
-3.80405e-11
-1.09878e-08
5.33726e-12
-3.80198e-11
-1.09877e-08
1.21527e-11
-3.77775e-11
-1.09881e-08
1.93515e-11
-3.70546e-11
-1.09894e-08
2.69807e-11
-3.67349e-11
-1.09908e-08
3.55111e-11
-3.48046e-11
-1.09931e-08
4.29246e-11
-3.89432e-11
-1.09952e-08
-3.72179e-11
-1.09962e-08
5.24937e-11
-3.92028e-11
-3.09031e-11
-1.0995e-08
4.71071e-11
-3.32486e-11
-3.01899e-11
-1.09937e-08
-2.62616e-11
-2.75259e-11
-1.09906e-08
-1.98579e-11
-2.90383e-11
-1.09884e-08
-1.35426e-11
-2.93855e-11
-1.09868e-08
-7.33622e-12
-3.00952e-11
-1.09855e-08
-1.20022e-12
-3.0377e-11
-1.09851e-08
5.00207e-12
-3.0377e-11
-1.0985e-08
1.12929e-11
-3.01767e-11
-1.09853e-08
1.77345e-11
-2.95081e-11
-1.09865e-08
2.42825e-11
-2.92179e-11
-1.09879e-08
3.13997e-11
-2.77515e-11
-1.09899e-08
3.74379e-11
-3.04729e-11
-1.09928e-08
-3.11371e-11
-1.0994e-08
4.53756e-11
-4.19282e-11
-2.44373e-11
-1.09927e-08
4.92851e-11
-3.52128e-11
-2.26825e-11
-1.09912e-08
-2.77716e-11
-2.1125e-11
-1.09883e-08
-2.09037e-11
-2.2178e-11
-1.09863e-08
-1.41771e-11
-2.2436e-11
-1.09848e-08
-7.65972e-12
-2.29725e-11
-1.09835e-08
-1.21761e-12
-2.31453e-11
-1.09831e-08
5.271e-12
-2.31407e-11
-1.09831e-08
1.18698e-11
-2.29964e-11
-1.09833e-08
1.87251e-11
-2.24801e-11
-1.09845e-08
2.574e-11
-2.22662e-11
-1.09858e-08
3.33199e-11
-2.12598e-11
-1.09877e-08
4.01378e-11
-2.28848e-11
-1.09904e-08
-2.46316e-11
-1.09917e-08
4.7568e-11
-4.26771e-11
-1.72911e-11
-1.09914e-08
4.93023e-11
-3.5598e-11
-1.56186e-11
-1.09896e-08
-2.81262e-11
-1.48384e-11
-1.09867e-08
-2.11652e-11
-1.54864e-11
-1.09847e-08
-1.43502e-11
-1.5662e-11
-1.09832e-08
-7.75553e-12
-1.6017e-11
-1.09819e-08
-1.21825e-12
-1.61047e-11
-1.09815e-08
5.35e-12
-1.60818e-11
-1.09815e-08
1.20136e-11
-1.59737e-11
-1.09818e-08
1.89418e-11
-1.56111e-11
-1.09829e-08
2.60357e-11
-1.54588e-11
-1.09843e-08
3.36398e-11
-1.48512e-11
-1.09861e-08
4.08222e-11
-1.57009e-11
-1.09888e-08
-1.74085e-11
-1.09905e-08
4.75367e-11
-4.37338e-11
-9.8419e-12
-1.09906e-08
5.00306e-11
-3.63667e-11
-8.94385e-12
-1.0988e-08
-2.88296e-11
-8.69072e-12
-1.09853e-08
-2.16968e-11
-9.0312e-12
-1.09834e-08
-1.46994e-11
-9.13446e-12
-1.09819e-08
-7.92483e-12
-9.30897e-12
-1.09807e-08
-1.20284e-12
-9.32625e-12
-1.09803e-08
5.53938e-12
-9.28345e-12
-1.09802e-08
1.23675e-11
-9.20488e-12
-1.09805e-08
1.94582e-11
-8.99344e-12
-1.09816e-08
2.67063e-11
-8.88876e-12
-1.0983e-08
3.43701e-11
-8.57802e-12
-1.09848e-08
4.18488e-11
-8.8938e-12
-1.09873e-08
-9.85622e-12
-1.09896e-08
4.82499e-11
-4.4498e-11
-2.4959e-12
-1.09903e-08
5.09211e-11
-3.67913e-11
-2.6042e-12
-1.09875e-08
-2.91378e-11
-2.63622e-12
-1.09848e-08
-2.1884e-11
-2.665e-12
-1.09829e-08
-1.47924e-11
-2.67056e-12
-1.09814e-08
-7.94251e-12
-2.65396e-12
-1.09801e-08
-1.15742e-12
-2.60609e-12
-1.09797e-08
5.63388e-12
-2.54749e-12
-1.09797e-08
1.25046e-11
-2.50375e-12
-1.098e-08
1.96446e-11
-2.45797e-12
-1.09811e-08
2.69697e-11
-2.42813e-12
-1.09825e-08
3.47183e-11
-2.41711e-12
-1.09843e-08
4.25239e-11
-2.43567e-12
-1.09868e-08
-2.40316e-12
-1.09894e-08
4.90503e-11
-4.43823e-11
5.02902e-12
-1.09901e-08
5.06419e-11
-3.67715e-11
3.877e-12
-1.09873e-08
-2.91452e-11
3.51837e-12
-1.09846e-08
-2.18828e-11
3.77832e-12
-1.09827e-08
-1.47674e-11
3.85648e-12
-1.09812e-08
-7.89496e-12
4.0556e-12
-1.09799e-08
-1.09702e-12
4.15717e-12
-1.09795e-08
5.69471e-12
4.22104e-12
-1.09795e-08
1.25548e-11
4.22406e-12
-1.09798e-08
1.96733e-11
4.10068e-12
-1.09809e-08
2.69603e-11
4.0638e-12
-1.09823e-08
3.46434e-11
3.80078e-12
-1.09841e-08
4.23318e-11
4.12868e-12
-1.09866e-08
5.21389e-12
-1.09892e-08
4.86889e-11
-4.39352e-11
1.26005e-11
-1.099e-08
5.01895e-11
-3.65557e-11
1.06743e-11
-1.09875e-08
-2.89508e-11
9.79657e-12
-1.09847e-08
-2.17317e-11
1.03783e-11
-1.09828e-08
-1.46466e-11
1.05319e-11
-1.09813e-08
-7.80486e-12
1.09074e-11
-1.09801e-08
-1.04825e-12
1.10564e-11
-1.09797e-08
5.69514e-12
1.11134e-11
-1.09797e-08
1.25017e-11
1.10659e-11
-1.098e-08
1.95588e-11
1.07652e-11
-1.09811e-08
2.67701e-11
1.0662e-11
-1.09825e-08
3.44044e-11
1.00916e-11
-1.09842e-08
4.1849e-11
1.09604e-11
-1.09868e-08
1.28354e-11
-1.09891e-08
4.8204e-11
-4.2957e-11
1.98573e-11
-1.09905e-08
4.95929e-11
-3.58443e-11
1.78992e-11
-1.09887e-08
-2.82808e-11
1.62777e-11
-1.09857e-08
-2.12039e-11
1.72875e-11
-1.09838e-08
-1.42681e-11
1.7525e-11
-1.09823e-08
-7.57977e-12
1.80742e-11
-1.0981e-08
-9.94614e-13
1.82745e-11
-1.09807e-08
5.57225e-12
1.83134e-11
-1.09806e-08
1.22002e-11
1.82032e-11
-1.09809e-08
1.90725e-11
1.77154e-11
-1.09821e-08
2.61026e-11
1.75286e-11
-1.09835e-08
3.36587e-11
1.65417e-11
-1.09852e-08
4.0813e-11
1.81761e-11
-1.0988e-08
2.00983e-11
-1.09896e-08
4.75447e-11
-4.22592e-11
2.64326e-11
-1.09914e-08
4.96422e-11
-3.55144e-11
2.55978e-11
-1.099e-08
-2.79705e-11
2.29064e-11
-1.09871e-08
-2.09639e-11
2.43951e-11
-1.0985e-08
-1.40894e-11
2.47184e-11
-1.09835e-08
-7.45651e-12
2.54314e-11
-1.09823e-08
-9.54301e-13
2.57033e-11
-1.09819e-08
5.53399e-12
2.57089e-11
-1.09819e-08
1.2093e-11
2.5515e-11
-1.09822e-08
1.88833e-11
2.48412e-11
-1.09833e-08
2.58223e-11
2.45602e-11
-1.09847e-08
3.33428e-11
2.31013e-11
-1.09865e-08
4.01241e-11
2.58251e-11
-1.09893e-08
2.66477e-11
-1.09905e-08
4.75957e-11
-3.95178e-11
3.26013e-11
-1.09934e-08
4.74375e-11
-3.35631e-11
3.42315e-11
-1.09921e-08
-2.64728e-11
3.01255e-11
-1.09889e-08
-1.99225e-11
3.20847e-11
-1.09868e-08
-1.34502e-11
3.24337e-11
-1.09852e-08
-7.12642e-12
3.32141e-11
-1.09839e-08
-9.33793e-13
3.35563e-11
-1.09835e-08
5.26139e-12
3.35088e-11
-1.09835e-08
1.15092e-11
3.32457e-11
-1.09838e-08
1.78867e-11
3.24856e-11
-1.0985e-08
2.436e-11
3.21649e-11
-1.09864e-08
3.14193e-11
3.02389e-11
-1.09884e-08
3.74096e-11
3.43916e-11
-1.09913e-08
3.27756e-11
-1.09925e-08
4.5408e-11
-4.50385e-11
3.72765e-11
-1.09953e-08
5.46932e-11
-3.76981e-11
4.17333e-11
-1.09941e-08
-2.91695e-11
3.62459e-11
-1.09918e-08
-2.15207e-11
3.89972e-11
-1.09894e-08
-1.42778e-11
3.97051e-11
-1.09878e-08
-7.42759e-12
4.07835e-11
-1.09864e-08
-9.39745e-13
4.14304e-11
-1.09859e-08
5.58048e-12
4.12997e-11
-1.09859e-08
1.23653e-11
4.07608e-11
-1.09862e-08
1.95128e-11
3.97001e-11
-1.09876e-08
2.7086e-11
3.90038e-11
-1.0989e-08
3.55856e-11
3.62844e-11
-1.09912e-08
4.2963e-11
4.1825e-11
-1.09934e-08
3.74192e-11
-1.09944e-08
5.26778e-11
-4.05853e-11
-1.09959e-08
4.41902e-11
4.73988e-11
-3.59384e-11
-1.0995e-08
5.143e-11
-2.98132e-11
-1.09929e-08
4.42744e-11
-2.32608e-11
-1.09906e-08
4.65139e-11
-1.59906e-11
-1.09894e-08
4.64854e-11
-8.40615e-12
-1.09886e-08
4.72382e-11
-9.35737e-13
-1.09885e-08
4.79915e-11
6.59993e-12
-1.09884e-08
4.77598e-11
1.41596e-11
-1.09885e-08
4.71634e-11
2.13658e-11
-1.09891e-08
4.64455e-11
2.78573e-11
-1.09902e-08
4.64841e-11
3.39383e-11
-1.09923e-08
4.42889e-11
3.85564e-11
-1.09943e-08
5.15424e-11
-1.0995e-08
4.54186e-11
4.43021e-11
-4.57339e-11
-4.66081e-11
-1.24811e-08
5.44394e-11
5.3692e-11
-3.99556e-11
-5.1222e-11
-1.24807e-08
6.19107e-11
-3.28613e-11
-4.49886e-11
-1.24782e-08
5.40551e-11
-2.54466e-11
-4.78742e-11
-1.24757e-08
5.64336e-11
-1.73423e-11
-4.86108e-11
-1.24743e-08
5.63939e-11
-8.93844e-12
-4.97965e-11
-1.24735e-08
5.72353e-11
-6.2631e-13
-5.05607e-11
-1.24733e-08
5.81184e-11
7.77746e-12
-5.05583e-11
-1.24732e-08
5.80457e-11
1.62617e-11
-5.00032e-11
-1.24733e-08
5.74105e-11
2.44571e-11
-4.89181e-11
-1.2474e-08
5.6669e-11
3.1951e-11
-4.82458e-11
-1.24752e-08
5.6764e-11
3.90877e-11
-4.53645e-11
-1.24776e-08
5.43777e-11
4.48043e-11
-5.15732e-11
-1.24801e-08
6.22674e-11
-4.68403e-11
-1.24804e-08
5.46196e-11
5.27138e-11
-5.03608e-11
-4.08961e-11
-1.24807e-08
6.1151e-11
-4.17931e-11
-4.27809e-11
-1.24799e-08
-3.20902e-11
-3.80405e-11
-1.24772e-08
-2.34702e-11
-4.00885e-11
-1.24746e-08
-1.54218e-11
-4.04056e-11
-1.24729e-08
-7.88427e-12
-4.12345e-11
-1.24712e-08
-7.12697e-13
-4.16444e-11
-1.24707e-08
6.55178e-12
-4.16945e-11
-1.24706e-08
1.42068e-11
-4.14595e-11
-1.2471e-08
2.23989e-11
-4.07334e-11
-1.24725e-08
3.11494e-11
-4.04855e-11
-1.24741e-08
4.09362e-11
-3.84561e-11
-1.24766e-08
4.95267e-11
-4.31735e-11
-1.24792e-08
-4.12068e-11
-1.24799e-08
6.03223e-11
-4.41168e-11
-3.3836e-11
-1.24782e-08
5.33439e-11
-3.70434e-11
-3.31113e-11
-1.24772e-08
-2.89158e-11
-2.99381e-11
-1.24737e-08
-2.15536e-11
-3.14998e-11
-1.24713e-08
-1.44259e-11
-3.17833e-11
-1.24695e-08
-7.54541e-12
-3.25286e-11
-1.24681e-08
-7.83269e-13
-3.28352e-11
-1.24676e-08
6.05822e-12
-3.28991e-11
-1.24675e-08
1.30799e-11
-3.27374e-11
-1.24678e-08
2.03961e-11
-3.20932e-11
-1.24691e-08
2.7949e-11
-3.18831e-11
-1.24707e-08
3.6217e-11
-3.03482e-11
-1.2473e-08
4.33489e-11
-3.35069e-11
-1.24765e-08
-3.41567e-11
-1.24774e-08
5.25625e-11
-4.69952e-11
-2.63766e-11
-1.24756e-08
5.57067e-11
-3.90922e-11
-2.44401e-11
-1.24746e-08
-3.04765e-11
-2.25181e-11
-1.24713e-08
-2.26357e-11
-2.3602e-11
-1.24691e-08
-1.50935e-11
-2.38113e-11
-1.24674e-08
-7.90848e-12
-2.43808e-11
-1.2466e-08
-8.50761e-13
-2.45827e-11
-1.24656e-08
6.28377e-12
-2.46391e-11
-1.24655e-08
1.36386e-11
-2.45531e-11
-1.24658e-08
2.14122e-11
-2.40734e-11
-1.2467e-08
2.94926e-11
-2.39324e-11
-1.24685e-08
3.82972e-11
-2.28773e-11
-1.24706e-08
4.63042e-11
-2.48007e-11
-1.24738e-08
-2.66681e-11
-1.24748e-08
5.50201e-11
-4.77209e-11
-1.81784e-11
-1.24743e-08
5.5658e-11
-3.94079e-11
-1.62773e-11
-1.24729e-08
-3.07601e-11
-1.52717e-11
-1.24695e-08
-2.28459e-11
-1.59388e-11
-1.24674e-08
-1.52484e-11
-1.60903e-11
-1.24658e-08
-8.02285e-12
-1.64823e-11
-1.24644e-08
-9.08699e-13
-1.66039e-11
-1.2464e-08
6.28186e-12
-1.66385e-11
-1.24639e-08
1.36946e-11
-1.65948e-11
-1.24642e-08
2.15515e-11
-1.62689e-11
-1.24654e-08
2.97401e-11
-1.61711e-11
-1.24669e-08
3.86163e-11
-1.55317e-11
-1.24689e-08
4.70671e-11
-1.65546e-11
-1.24721e-08
-1.84124e-11
-1.24734e-08
5.50464e-11
-4.88818e-11
-9.66375e-12
-1.24734e-08
5.64536e-11
-4.02245e-11
-8.61608e-12
-1.24712e-08
-3.14965e-11
-8.26596e-12
-1.24681e-08
-2.34097e-11
-8.6236e-12
-1.2466e-08
-1.56414e-11
-8.73029e-12
-1.24644e-08
-8.2464e-12
-8.94415e-12
-1.2463e-08
-9.54849e-13
-8.9914e-12
-1.24626e-08
6.41522e-12
-8.9914e-12
-1.24625e-08
1.40113e-11
-8.96629e-12
-1.24629e-08
2.20623e-11
-8.77807e-12
-1.24641e-08
3.04509e-11
-8.70006e-12
-1.24656e-08
3.94376e-11
-8.36719e-12
-1.24675e-08
4.8256e-11
-8.74545e-12
-1.24705e-08
-9.79446e-12
-1.24726e-08
5.59007e-11
-4.96443e-11
-1.26524e-12
-1.24732e-08
5.73369e-11
-4.06319e-11
-1.33013e-12
-1.24707e-08
-3.17963e-11
-1.37727e-12
-1.24675e-08
-2.35995e-11
-1.42662e-12
-1.24655e-08
-1.57511e-11
-1.46732e-12
-1.24638e-08
-8.29047e-12
-1.49386e-12
-1.24625e-08
-9.42385e-13
-1.47255e-12
-1.24621e-08
6.47546e-12
-1.44078e-12
-1.24621e-08
1.41186e-11
-1.431e-12
-1.24624e-08
2.2231e-11
-1.39084e-12
-1.24636e-08
3.07156e-11
-1.35523e-12
-1.24651e-08
3.98077e-11
-1.32933e-12
-1.2467e-08
4.89919e-11
-1.31514e-12
-1.247e-08
-1.28206e-12
-1.24724e-08
5.67735e-11
-4.95866e-11
7.22826e-12
-1.2473e-08
5.7154e-11
-4.06543e-11
6.02864e-12
-1.24704e-08
-3.18415e-11
5.56307e-12
-1.24673e-08
-2.36371e-11
5.81702e-12
-1.24653e-08
-1.57666e-11
5.84233e-12
-1.24636e-08
-8.27915e-12
6.00536e-12
-1.24623e-08
-9.08422e-13
6.08774e-12
-1.24619e-08
6.52189e-12
6.14371e-12
-1.24619e-08
1.41676e-11
6.13595e-12
-1.24622e-08
2.22736e-11
6.02211e-12
-1.24635e-08
3.07395e-11
6.01608e-12
-1.2465e-08
3.97893e-11
5.74831e-12
-1.24669e-08
4.88881e-11
6.18538e-12
-1.24698e-08
7.33621e-12
-1.24722e-08
5.6549e-11
-4.90061e-11
1.57353e-11
-1.24729e-08
5.65139e-11
-4.0395e-11
1.37091e-11
-1.24707e-08
-3.16572e-11
1.26114e-11
-1.24675e-08
-2.35263e-11
1.32034e-11
-1.24654e-08
-1.56972e-11
1.32941e-11
-1.24638e-08
-8.2344e-12
1.36509e-11
-1.24625e-08
-8.87983e-13
1.37938e-11
-1.24621e-08
6.51294e-12
1.38673e-11
-1.24621e-08
1.41222e-11
1.3832e-11
-1.24624e-08
2.21735e-11
1.35559e-11
-1.24637e-08
3.0556e-11
1.35071e-11
-1.24652e-08
3.95296e-11
1.29133e-11
-1.24671e-08
4.83187e-11
1.39845e-11
-1.24701e-08
1.59525e-11
-1.24722e-08
5.59289e-11
-4.78896e-11
2.39123e-11
-1.24735e-08
5.57457e-11
-3.96343e-11
2.1883e-11
-1.2472e-08
-3.09762e-11
1.99115e-11
-1.24686e-08
-2.30077e-11
2.09619e-11
-1.24664e-08
-1.53304e-11
2.11352e-11
-1.24648e-08
-8.00998e-12
2.1688e-11
-1.24635e-08
-8.22492e-13
2.18941e-11
-1.24631e-08
6.40749e-12
2.19707e-11
-1.24631e-08
1.38433e-11
2.18825e-11
-1.24635e-08
2.17007e-11
2.14246e-11
-1.24648e-08
2.98777e-11
2.13052e-11
-1.24663e-08
3.87358e-11
2.0265e-11
-1.24683e-08
4.71554e-11
2.22126e-11
-1.24715e-08
2.41882e-11
-1.24728e-08
5.51118e-11
-4.71741e-11
3.1369e-11
-1.24746e-08
5.57852e-11
-3.93513e-11
3.05838e-11
-1.24734e-08
-3.07336e-11
2.7406e-11
-1.247e-08
-2.28327e-11
2.8975e-11
-1.24678e-08
-1.51961e-11
2.92446e-11
-1.24661e-08
-7.89619e-12
2.99886e-11
-1.24648e-08
-7.57452e-13
3.02812e-11
-1.24645e-08
6.4168e-12
3.03468e-11
-1.24645e-08
1.38042e-11
3.0169e-11
-1.24648e-08
2.15831e-11
2.95174e-11
-1.24662e-08
2.96516e-11
2.93043e-11
-1.24677e-08
3.84354e-11
2.77537e-11
-1.24698e-08
4.64042e-11
3.09136e-11
-1.2473e-08
3.16552e-11
-1.24739e-08
5.51073e-11
-4.42546e-11
3.84504e-11
-1.24768e-08
5.3358e-11
-3.72921e-11
4.03033e-11
-1.24758e-08
-2.91705e-11
3.55853e-11
-1.24721e-08
-2.17506e-11
3.76759e-11
-1.24697e-08
-1.45287e-11
3.79976e-11
-1.2468e-08
-7.53378e-12
3.88353e-11
-1.24666e-08
-7.01728e-13
3.92157e-11
-1.24663e-08
6.16991e-12
3.92504e-11
-1.24663e-08
1.3225e-11
3.89853e-11
-1.24667e-08
2.05524e-11
3.82246e-11
-1.2468e-08
2.80986e-11
3.79569e-11
-1.24697e-08
3.63499e-11
3.58886e-11
-1.24719e-08
4.34285e-11
4.06002e-11
-1.24754e-08
3.86977e-11
-1.24763e-08
5.26228e-11
-5.04778e-11
4.40616e-11
-1.24792e-08
6.12901e-11
-4.20193e-11
4.87977e-11
-1.24783e-08
-3.233e-11
4.25933e-11
-1.24755e-08
-2.36708e-11
4.55505e-11
-1.24729e-08
-1.55441e-11
4.62964e-11
-1.24712e-08
-7.89598e-12
4.7485e-11
-1.24696e-08
-6.62276e-13
4.82123e-11
-1.24692e-08
6.63544e-12
4.8182e-11
-1.24692e-08
1.43256e-11
4.75941e-11
-1.24696e-08
2.25307e-11
4.64618e-11
-1.24712e-08
3.12832e-11
4.57641e-11
-1.24728e-08
4.10738e-11
4.28268e-11
-1.24753e-08
4.96178e-11
4.90412e-11
-1.24779e-08
4.42691e-11
-1.24786e-08
6.0476e-11
-4.57138e-11
-1.24794e-08
5.19236e-11
5.35431e-11
-4.00983e-11
-1.2479e-08
5.95701e-11
-3.30373e-11
-1.24764e-08
5.1693e-11
-2.55906e-11
-1.24738e-08
5.41306e-11
-1.74385e-11
-1.24725e-08
5.41176e-11
-8.96694e-12
-1.24717e-08
5.49618e-11
-6.30618e-13
-1.24716e-08
5.58121e-11
7.81104e-12
-1.24716e-08
5.56818e-11
1.63341e-11
-1.24717e-08
5.5019e-11
2.45488e-11
-1.24725e-08
5.42284e-11
3.20538e-11
-1.24737e-08
5.42899e-11
3.91697e-11
-1.24761e-08
5.18711e-11
4.4817e-11
-1.24786e-08
5.97791e-11
-1.24789e-08
5.26921e-11
5.20359e-11
-5.20537e-11
-5.26497e-11
-1.41563e-08
6.25482e-11
6.23751e-11
-4.55112e-11
-5.77335e-11
-1.41548e-08
7.0634e-11
-3.7113e-11
-5.08309e-11
-1.41525e-08
6.21247e-11
-2.84278e-11
-5.40149e-11
-1.41498e-08
6.4815e-11
-1.90713e-11
-5.47808e-11
-1.41484e-08
6.47595e-11
-9.45738e-12
-5.60724e-11
-1.41476e-08
6.5662e-11
-6.16477e-16
-5.68481e-11
-1.41475e-08
6.65477e-11
9.44237e-12
-5.68914e-11
-1.41474e-08
6.65712e-11
1.90029e-11
-5.61289e-11
-1.41474e-08
6.56857e-11
2.82942e-11
-5.48587e-11
-1.41481e-08
6.47655e-11
3.68957e-11
-5.40762e-11
-1.41495e-08
6.47932e-11
4.52041e-11
-5.08463e-11
-1.41521e-08
6.20535e-11
5.15968e-11
-5.76869e-11
-1.41545e-08
7.05847e-11
-5.25312e-11
-1.4156e-08
6.24133e-11
6.18481e-11
-5.71831e-11
-4.63667e-11
-1.41548e-08
7.04556e-11
-4.77125e-11
-4.86138e-11
-1.41529e-08
-3.64325e-11
-4.33293e-11
-1.41504e-08
-2.63501e-11
-4.55979e-11
-1.41477e-08
-1.69725e-11
-4.59081e-11
-1.41459e-08
-8.25766e-12
-4.68022e-11
-1.41442e-08
-3.69122e-14
-4.72129e-11
-1.41437e-08
8.17605e-12
-4.72785e-11
-1.41436e-08
1.6884e-11
-4.69372e-11
-1.4144e-08
2.62304e-11
-4.60935e-11
-1.41455e-08
3.62487e-11
-4.57761e-11
-1.41472e-08
4.74354e-11
-4.34554e-11
-1.41499e-08
5.67952e-11
-4.8644e-11
-1.41524e-08
-4.63214e-11
-1.41544e-08
6.9998e-11
-5.03006e-11
-3.8132e-11
-1.41525e-08
6.20669e-11
-4.2409e-11
-3.7519e-11
-1.41504e-08
-3.28137e-11
-3.3908e-11
-1.4147e-08
-2.41039e-11
-3.56287e-11
-1.41446e-08
-1.5764e-11
-3.58964e-11
-1.41428e-08
-7.811e-12
-3.66997e-11
-1.41414e-08
-9.92255e-14
-3.70329e-11
-1.4141e-08
7.62324e-12
-3.71229e-11
-1.41408e-08
1.56138e-11
-3.69291e-11
-1.41411e-08
2.39829e-11
-3.62156e-11
-1.41424e-08
3.26935e-11
-3.59641e-11
-1.4144e-08
4.22405e-11
-3.41823e-11
-1.41464e-08
5.00381e-11
-3.76617e-11
-1.41498e-08
-3.81291e-11
-1.41519e-08
6.16681e-11
-5.34809e-11
-2.939e-11
-1.41498e-08
6.4787e-11
-4.46657e-11
-2.73602e-11
-1.41477e-08
-3.45303e-11
-2.50889e-11
-1.41446e-08
-2.53058e-11
-2.62782e-11
-1.41424e-08
-1.65223e-11
-2.64771e-11
-1.41408e-08
-8.23339e-12
-2.71134e-11
-1.41394e-08
-1.94067e-13
-2.73799e-11
-1.4139e-08
7.87837e-12
-2.74964e-11
-1.41389e-08
1.62587e-11
-2.74369e-11
-1.4139e-08
2.5149e-11
-2.69367e-11
-1.41403e-08
3.44521e-11
-2.67798e-11
-1.41417e-08
4.46012e-11
-2.55286e-11
-1.41439e-08
5.33581e-11
-2.76499e-11
-1.4147e-08
-2.9482e-11
-1.41492e-08
6.45336e-11
-5.42181e-11
-1.97794e-11
-1.41485e-08
6.47219e-11
-4.49514e-11
-1.76671e-11
-1.4146e-08
-3.47782e-11
-1.63982e-11
-1.41429e-08
-2.55004e-11
-1.71138e-11
-1.41408e-08
-1.66958e-11
-1.72639e-11
-1.41392e-08
-8.40163e-12
-1.77349e-11
-1.41379e-08
-3.1588e-13
-1.79646e-11
-1.41375e-08
7.83279e-12
-1.81035e-11
-1.41373e-08
1.62952e-11
-1.81321e-11
-1.41375e-08
2.53172e-11
-1.78407e-11
-1.41387e-08
3.47888e-11
-1.77579e-11
-1.41401e-08
4.50727e-11
-1.69874e-11
-1.41421e-08
5.43447e-11
-1.81093e-11
-1.41452e-08
-1.99899e-11
-1.41477e-08
6.47405e-11
-5.54248e-11
-9.79344e-12
-1.41476e-08
6.55466e-11
-4.57857e-11
-8.48189e-12
-1.41443e-08
-3.55451e-11
-7.95012e-12
-1.41414e-08
-2.61219e-11
-8.30452e-12
-1.41394e-08
-1.71854e-11
-8.42252e-12
-1.41379e-08
-8.76696e-12
-8.72736e-12
-1.41366e-08
-4.91399e-13
-8.93275e-12
-1.41362e-08
7.8951e-12
-9.09712e-12
-1.41361e-08
1.6581e-11
-9.16415e-12
-1.41362e-08
2.5861e-11
-9.05168e-12
-1.41374e-08
3.56082e-11
-9.01565e-12
-1.41388e-08
4.60706e-11
-8.62031e-12
-1.41407e-08
5.57871e-11
-9.02599e-12
-1.41435e-08
-1.00922e-11
-1.41469e-08
6.58295e-11
-5.61037e-11
1.04967e-13
-1.41475e-08
6.63276e-11
-4.60981e-11
2.30374e-13
-1.41438e-08
-3.57954e-11
2.76587e-13
-1.4141e-08
-2.63156e-11
2.60713e-13
-1.4139e-08
-1.73504e-11
1.92602e-13
-1.41375e-08
-8.93285e-12
8.52608e-14
-1.41362e-08
-6.15697e-13
-5.83322e-14
-1.41358e-08
7.82697e-12
-1.84921e-13
-1.41357e-08
1.65844e-11
-2.92944e-13
-1.41359e-08
2.59943e-11
-3.66944e-13
-1.4137e-08
3.591e-11
-3.94699e-13
-1.41384e-08
4.65328e-11
-3.74326e-13
-1.41403e-08
5.66601e-11
-3.3004e-13
-1.4143e-08
-2.80725e-13
-1.41468e-08
6.68245e-11
-5.60019e-11
9.94436e-12
-1.41474e-08
6.61346e-11
-4.60617e-11
8.81746e-12
-1.41436e-08
-3.58161e-11
8.37379e-12
-1.41408e-08
-2.63873e-11
8.70818e-12
-1.41388e-08
-1.74506e-11
8.71039e-12
-1.41373e-08
-9.02929e-12
8.81413e-12
-1.4136e-08
-7.40735e-13
8.75975e-12
-1.41356e-08
7.69593e-12
8.6952e-12
-1.41356e-08
1.65166e-11
8.5619e-12
-1.41358e-08
2.59831e-11
8.31877e-12
-1.41369e-08
3.59419e-11
8.22735e-12
-1.41383e-08
4.65896e-11
7.87157e-12
-1.41402e-08
5.67075e-11
8.36726e-12
-1.4143e-08
9.55337e-12
-1.41467e-08
6.6819e-11
-5.50726e-11
1.96536e-11
-1.41473e-08
6.50905e-11
-4.56048e-11
1.76912e-11
-1.41439e-08
-3.55611e-11
1.65142e-11
-1.41409e-08
-2.63078e-11
1.72167e-11
-1.41389e-08
-1.74903e-11
1.72876e-11
-1.41373e-08
-9.12914e-12
1.76057e-11
-1.41361e-08
-8.70252e-13
1.76277e-11
-1.41357e-08
7.56563e-12
1.75935e-11
-1.41357e-08
1.63773e-11
1.74735e-11
-1.4136e-08
2.58047e-11
1.70841e-11
-1.41372e-08
3.56816e-11
1.6953e-11
-1.41386e-08
4.6224e-11
1.62203e-11
-1.41405e-08
5.59616e-11
1.74126e-11
-1.41434e-08
1.93959e-11
-1.41468e-08
6.59722e-11
-5.36826e-11
2.89211e-11
-1.4148e-08
6.40042e-11
-4.46764e-11
2.6979e-11
-1.41453e-08
-3.47874e-11
2.4784e-11
-1.41421e-08
-2.5762e-11
2.59659e-11
-1.414e-08
-1.71537e-11
2.61328e-11
-1.41384e-08
-8.96782e-12
2.66841e-11
-1.41371e-08
-8.89916e-13
2.68197e-11
-1.41368e-08
7.35165e-12
2.68381e-11
-1.41368e-08
1.5989e-11
2.66931e-11
-1.41371e-08
2.52244e-11
2.61398e-11
-1.41383e-08
3.48955e-11
2.59503e-11
-1.41399e-08
4.53042e-11
2.47365e-11
-1.41419e-08
5.46054e-11
2.69017e-11
-1.4145e-08
2.88086e-11
-1.41476e-08
6.49467e-11
-5.28046e-11
3.73418e-11
-1.41492e-08
6.38658e-11
-4.43153e-11
3.67281e-11
-1.41469e-08
-3.45259e-11
3.31632e-11
-1.41437e-08
-2.56124e-11
3.4882e-11
-1.41414e-08
-1.70797e-11
3.51658e-11
-1.41398e-08
-8.92601e-12
3.5948e-11
-1.41385e-08
-8.92423e-13
3.62317e-11
-1.41382e-08
7.3003e-12
3.62988e-11
-1.41382e-08
1.58918e-11
3.60889e-11
-1.41385e-08
2.504e-11
3.53673e-11