/*--------------------------------*- C++ -*----------------------------------*\
| =========                 |                                                 |
| \\      /  F ield         | OpenFOAM: The Open Source CFD Toolbox           |
|  \\    /   O peration     | Version:  v2106                                 |
|   \\  /    A nd           | Website:  www.openfoam.com                      |
|    \\/     M anipulation  |                                                 |
\*---------------------------------------------------------------------------*/
FoamFile
{
    version     2.0;
    format      ascii;
    arch        "LSB;label=32;scalar=64";
    class       volScalarField;
    location    "0.000176";
    object      alphat;
}
// * * * * * * * * * * * * * * * * * * * * * * * * * * * * * * * * * * * * * //

dimensions      [1 -1 -1 0 0 0 0];

internalField   nonuniform List<scalar> 
18109
(
3.83139e-07
1.81126e-07
1.07983e-07
7.77797e-08
6.71414e-08
6.48328e-08
6.90501e-08
1.83438e-07
5.54531e-08
2.32538e-08
1.55096e-08
1.37292e-08
1.35386e-08
1.46256e-08
1.05037e-07
2.27332e-08
5.35792e-09
2.50363e-09
2.09292e-09
2.0905e-09
2.36916e-09
7.90301e-08
1.68049e-08
3.10651e-09
6.46022e-10
2.7436e-10
2.49332e-10
3.65765e-10
7.19154e-08
1.65571e-08
3.25392e-09
5.46024e-10
8.78804e-11
3.99604e-11
1.13374e-10
7.44646e-08
1.75728e-08
3.46662e-09
5.54089e-10
7.38021e-11
2.45661e-11
8.8936e-11
8.70859e-08
2.01468e-08
3.77499e-09
5.75022e-10
9.14445e-11
5.06336e-11
1.27338e-10
1.09564e-07
2.41748e-08
4.31922e-09
7.46045e-10
2.66867e-10
2.52359e-10
3.75641e-10
2.32161e-07
9.92359e-08
5.34636e-08
3.49046e-08
2.76263e-08
2.48024e-08
2.47478e-08
2.6253e-08
3.19986e-08
4.87787e-08
9.89194e-08
2.42081e-07
6.02536e-07
1.38481e-06
1.07823e-07
2.84064e-08
9.79302e-09
5.56306e-09
4.474e-09
4.14226e-09
4.28759e-09
4.83267e-09
7.1902e-09
1.63373e-08
4.87906e-08
1.48542e-07
4.08848e-07
9.83351e-07
6.15772e-08
1.25819e-08
2.45665e-09
7.84358e-10
5.28206e-10
4.92598e-10
5.60355e-10
8.69279e-10
2.32616e-09
8.32832e-09
2.98692e-08
9.6632e-08
2.74505e-07
6.81055e-07
4.9964e-08
1.09865e-08
2.03653e-09
3.45312e-10
7.66778e-11
4.7869e-11
8.2778e-11
2.83375e-10
1.23528e-09
5.16561e-09
1.93173e-08
6.37885e-08
1.85738e-07
4.774e-07
4.96612e-08
1.16282e-08
2.28637e-09
3.74155e-10
5.00736e-11
1.11067e-11
3.21179e-11
1.70461e-10
8.37152e-10
3.6264e-09
1.37987e-08
4.62982e-08
1.37745e-07
3.66477e-07
5.47012e-08
1.27663e-08
2.47174e-09
3.86621e-10
4.79988e-11
9.86454e-12
2.69952e-11
1.42076e-10
6.9489e-10
3.0013e-09
1.14121e-08
3.84712e-08
1.16131e-07
3.17858e-07
6.688e-08
1.50896e-08
2.74461e-09
4.06727e-10
6.14478e-11
2.79833e-11
4.75302e-11
1.67706e-10
7.31095e-10
3.04275e-09
1.13943e-08
3.82063e-08
1.15582e-07
3.18942e-07
8.6364e-08
1.84361e-08
3.17029e-09
5.27242e-10
1.83878e-10
1.66737e-10
2.03192e-10
3.68607e-10
1.09328e-09
3.95635e-09
1.404e-08
4.57323e-08
1.35237e-07
3.64764e-07
1.11976e-07
2.31998e-08
4.34256e-09
1.22865e-09
8.9185e-10
9.52349e-10
1.0875e-09
1.44202e-09
2.66862e-09
7.05557e-09
2.16034e-08
6.50633e-08
1.81594e-07
4.64557e-07
1.49135e-07
3.41464e-08
9.22987e-09
4.56075e-09
4.11464e-09
4.5114e-09
5.16733e-09
6.392e-09
9.26903e-09
1.74634e-08
4.15669e-08
1.07872e-07
2.72484e-07
6.42686e-07
2.23326e-07
6.92807e-08
2.84848e-08
1.78048e-08
1.62935e-08
1.78261e-08
2.0677e-08
2.54608e-08
3.40171e-08
5.23175e-08
9.66834e-08
2.05915e-07
4.54193e-07
9.68608e-07
4.05695e-07
1.75426e-07
9.16252e-08
6.1849e-08
5.52162e-08
5.9638e-08
6.99603e-08
8.68569e-08
1.13337e-07
1.58821e-07
2.46926e-07
4.34597e-07
8.19574e-07
1.55822e-06
8.1275e-07
4.38251e-07
2.60346e-07
1.8398e-07
1.61353e-07
1.71432e-07
2.02373e-07
2.53459e-07
3.29211e-07
4.43866e-07
6.27859e-07
9.55927e-07
1.55313e-06
2.62742e-06
1.59798e-06
9.80573e-07
6.33173e-07
4.69875e-07
4.12819e-07
4.31944e-07
5.0827e-07
6.37605e-07
8.2676e-07
1.09689e-06
1.47878e-06
2.03895e-06
2.9001e-06
4.33038e-06
8.98562e-07
2.0169e-06
4.23778e-06
7.9764e-06
1.35892e-05
2.17591e-05
5.67886e-07
1.37728e-06
3.10271e-06
6.15259e-06
1.08298e-05
1.74822e-05
3.52823e-07
1.05116e-06
2.66146e-06
5.60188e-06
1.00822e-05
1.68373e-05
2.34294e-07
7.9763e-07
2.17692e-06
4.80246e-06
9.10946e-06
1.66369e-05
1.62219e-07
5.98221e-07
1.73138e-06
4.05168e-06
8.34216e-06
1.68173e-05
1.26143e-07
4.78909e-07
1.43334e-06
3.54062e-06
7.8965e-06
1.73389e-05
1.09995e-07
4.14687e-07
1.2557e-06
3.25183e-06
7.75099e-06
1.7979e-05
1.06827e-07
3.93952e-07
1.19567e-06
3.1895e-06
7.89647e-06
1.86193e-05
1.12148e-07
4.04335e-07
1.22454e-06
3.29673e-06
8.19208e-06
1.89904e-05
1.33363e-07
4.65741e-07
1.37925e-06
3.63137e-06
8.72492e-06
1.91969e-05
1.81615e-07
6.03232e-07
1.69518e-06
4.20261e-06
9.39682e-06
1.90388e-05
2.82427e-07
8.62604e-07
2.2315e-06
5.05913e-06
1.02591e-05
1.87733e-05
4.91857e-07
1.33145e-06
3.08458e-06
6.26759e-06
1.13851e-05
1.87314e-05
9.0839e-07
2.1131e-06
4.31701e-06
7.81924e-06
1.27659e-05
1.90877e-05
1.65185e-06
3.23166e-06
5.76759e-06
9.36704e-06
1.40549e-05
1.99483e-05
2.90334e-06
4.66818e-06
7.13491e-06
1.04051e-05
1.48295e-05
2.12993e-05
2.075e-06
3.65537e-06
6.01966e-06
9.46424e-06
1.47669e-05
2.35058e-05
1.48626e-06
2.86695e-06
5.15162e-06
8.94435e-06
1.55528e-05
2.73335e-05
1.09024e-06
2.32346e-06
4.64834e-06
9.00546e-06
1.71399e-05
3.19089e-05
8.84441e-07
2.0622e-06
4.51071e-06
9.43331e-06
1.88931e-05
3.58763e-05
8.00063e-07
1.98323e-06
4.58393e-06
9.9489e-06
2.0299e-05
3.83583e-05
8.10921e-07
2.04712e-06
4.78986e-06
1.03964e-05
2.10041e-05
3.88638e-05
9.04945e-07
2.23422e-06
5.09665e-06
1.07678e-05
2.11007e-05
3.7965e-05
1.09641e-06
2.57136e-06
5.577e-06
1.1234e-05
2.10403e-05
3.64329e-05
1.41308e-06
3.08031e-06
6.25075e-06
1.18595e-05
2.10749e-05
3.48623e-05
1.95324e-06
3.90225e-06
7.32369e-06
1.29456e-05
2.16085e-05
3.38137e-05
2.86665e-06
5.23334e-06
9.03234e-06
1.47593e-05
2.29409e-05
3.39999e-05
4.44091e-06
7.33821e-06
1.15664e-05
1.74262e-05
2.52701e-05
3.5977e-05
6.79249e-06
1.01103e-05
1.45377e-05
2.03306e-05
2.8151e-05
3.98651e-05
6.36147e-06
1.01695e-05
1.49409e-05
2.10467e-05
2.985e-05
4.38874e-05
5.24372e-06
8.66369e-06
1.31213e-05
1.94437e-05
2.98133e-05
4.76971e-05
4.11459e-06
7.09594e-06
1.1292e-05
1.80379e-05
3.03094e-05
5.25758e-05
3.152e-06
5.70848e-06
9.67982e-06
1.67735e-05
3.04501e-05
5.56301e-05
2.39019e-06
4.55972e-06
8.28726e-06
1.54501e-05
2.97881e-05
5.68489e-05
1.81445e-06
3.64282e-06
7.07149e-06
1.40024e-05
2.81742e-05
5.54709e-05
1.40553e-06
2.95795e-06
6.09258e-06
1.26586e-05
2.62202e-05
5.2041e-05
1.12792e-06
2.47887e-06
5.36559e-06
1.15028e-05
2.39659e-05
4.73713e-05
9.65915e-07
2.19383e-06
4.8887e-06
1.06393e-05
2.2026e-05
4.29413e-05
9.23978e-07
2.11529e-06
4.72664e-06
1.01754e-05
2.06119e-05
3.88966e-05
1.02509e-06
2.25553e-06
4.89739e-06
1.01774e-05
1.96727e-05
3.56749e-05
1.3183e-06
2.6812e-06
5.41485e-06
1.06375e-05
1.94145e-05
3.3993e-05
1.91919e-06
3.59558e-06
6.63555e-06
1.18858e-05
2.05301e-05
3.40782e-05
2.9359e-06
5.10023e-06
8.67017e-06
1.42773e-05
2.25957e-05
3.45918e-05
3.06262e-07
9.2205e-07
2.45829e-06
5.87569e-06
1.25848e-05
2.50357e-05
3.5567e-07
9.94105e-07
2.50348e-06
5.68685e-06
1.16652e-05
2.24584e-05
4.28689e-07
1.06707e-06
2.56732e-06
5.63463e-06
1.12754e-05
2.16105e-05
5.55804e-07
1.21896e-06
2.82405e-06
6.09318e-06
1.21364e-05
2.17869e-05
2.08944e-06
4.07745e-06
8.33808e-06
1.48563e-05
2.28209e-05
3.40071e-05
1.37894e-06
3.36184e-06
7.51834e-06
1.34344e-05
2.09489e-05
3.30607e-05
9.81533e-07
2.82216e-06
6.45343e-06
1.14693e-05
1.8399e-05
3.20637e-05
7.50683e-07
2.27617e-06
5.23218e-06
9.49599e-06
1.62656e-05
3.14833e-05
5.89903e-07
1.78114e-06
4.11838e-06
7.76115e-06
1.45205e-05
3.10825e-05
4.56201e-07
1.36193e-06
3.16986e-06
6.3502e-06
1.31853e-05
3.03874e-05
3.44583e-07
1.02659e-06
2.44192e-06
5.31021e-06
1.21345e-05
2.89712e-05
2.58321e-07
7.73017e-07
1.93262e-06
4.62662e-06
1.12663e-05
2.68007e-05
2.0542e-07
6.20475e-07
1.66049e-06
4.28749e-06
1.06114e-05
2.43796e-05
1.84273e-07
5.65418e-07
1.58522e-06
4.16758e-06
1.00202e-05
2.18265e-05
1.91407e-07
5.885e-07
1.63939e-06
4.15366e-06
9.43193e-06
1.94452e-05
2.26643e-07
6.64429e-07
1.7549e-06
4.18008e-06
8.94265e-06
1.76378e-05
2.83154e-07
7.52424e-07
1.88696e-06
4.28093e-06
8.77551e-06
1.7015e-05
3.57553e-07
8.50012e-07
2.08452e-06
4.67161e-06
9.52537e-06
1.74919e-05
2.7188e-05
6.70116e-05
0.000191227
0.000181426
0.00015265
2.8949e-05
7.7232e-05
0.000201211
0.000173792
0.000146801
3.21297e-05
8.79399e-05
0.00020213
0.000170488
0.000148734
3.53275e-05
9.81278e-05
0.000198575
0.000170727
0.00015115
3.81397e-05
0.000105371
0.00019204
0.000170448
0.000152388
3.96733e-05
0.00010549
0.000180748
0.000167946
0.000151918
4.00529e-05
9.87209e-05
0.000165048
0.000166159
0.000157417
3.88374e-05
8.86293e-05
0.000148141
0.00016634
0.000163299
0.000187271
3.64637e-05
7.75375e-05
0.000131466
0.000166096
0.000166931
0.000193439
3.32841e-05
6.70466e-05
0.000115704
0.000163937
0.000168523
0.000198875
3.00121e-05
5.77408e-05
0.000103435
0.000160078
0.000166735
0.000202634
0.000248507
2.73918e-05
5.11813e-05
9.72816e-05
0.000157913
0.000163296
0.000200121
0.000297302
0.00030546
2.61535e-05
5.01206e-05
0.000102076
0.0001588
0.000162084
0.000194786
0.000321107
0.000728288
2.73332e-05
5.75474e-05
0.000120734
0.000160794
0.000163258
0.000189804
0.000235827
0.000693803
3.13569e-05
7.20787e-05
0.000144726
0.000158168
0.000160168
0.000184126
0.000214607
0.000576549
3.79551e-05
8.7755e-05
0.000158032
0.000152406
0.000157059
0.00018779
0.00021391
0.000533877
4.69407e-05
0.000103307
0.000164678
0.000151483
0.000161421
0.000198981
0.000227484
0.000328029
5.55519e-05
0.000114595
0.000167284
0.000156431
0.000168006
0.000204987
0.000219459
0.000458147
6.17039e-05
0.000118725
0.000166396
0.000162774
0.000172975
0.00020513
0.000205183
0.000425497
6.4369e-05
0.000116005
0.000162536
0.000169445
0.00017752
0.000208606
0.000198251
0.000325189
6.34212e-05
0.000108295
0.000156776
0.000177908
0.000186846
0.000223241
0.000216943
0.000143205
6.01534e-05
0.000100307
0.000154007
0.000188185
0.000192775
0.000231056
0.000233766
0.000159439
5.56277e-05
9.32373e-05
0.000153906
0.000196266
0.000194872
0.000230751
5.15001e-05
8.83223e-05
0.00015891
0.000198097
0.000192924
0.000234283
4.85283e-05
8.6857e-05
0.000168252
0.000191582
0.00018607
0.00023879
4.79157e-05
9.21096e-05
0.000180757
0.000179932
0.000177287
0.000234711
5.08735e-05
0.000105453
0.000192145
0.000166334
0.00017055
0.000228512
5.77509e-05
0.00012492
0.000197544
0.000156323
0.000164092
6.68147e-05
0.000145814
0.00019446
0.000151733
0.000160196
7.71008e-05
0.000164857
0.000186149
0.000151175
0.000160951
8.79315e-05
0.000180167
0.000180008
0.000154715
0.000168002
9.46575e-05
0.000182357
0.000176711
0.000162869
0.000174653
9.93906e-05
0.000170999
0.000172989
0.000170584
0.000176151
9.7996e-05
0.000151807
0.000166593
0.000178672
0.000178918
9.09274e-05
0.000132279
0.000160457
0.000188684
0.000186828
8.09941e-05
0.000115618
0.00015907
0.000200385
0.00018943
7.13666e-05
0.00010259
0.000164548
0.000210606
0.000186631
6.28844e-05
9.22649e-05
0.000178822
0.000214098
0.000179509
5.58893e-05
8.66517e-05
0.000199596
0.000205938
0.000169498
5.0786e-05
9.03331e-05
0.000221445
0.00019272
0.000161851
4.8718e-05
0.000104396
0.000238618
0.000181651
0.000157264
5.02517e-05
0.000126217
0.000240492
0.000178006
0.000156433
5.39643e-05
0.000148793
0.000232666
0.000177231
0.00015354
5.87552e-05
0.000170439
0.000223041
0.000173854
0.00015205
6.57551e-05
0.000184312
0.000216452
0.000171971
0.000155951
7.22514e-05
0.000182418
0.000209113
0.000172863
0.00015891
7.65057e-05
0.000170031
0.000198697
0.000172871
0.000159327
7.6224e-05
0.000150023
0.00018344
0.000172222
0.00016054
7.13165e-05
0.000127994
0.000164561
0.000172904
0.000167756
6.34679e-05
0.000107638
0.000145684
0.000175236
0.000172134
5.47724e-05
9.00056e-05
0.000128538
0.000178217
0.000172997
4.64254e-05
7.49048e-05
0.00011443
0.000180569
0.00017177
3.90907e-05
6.24161e-05
0.00010618
0.000181546
0.000168319
3.32123e-05
5.33668e-05
0.000109687
0.000183025
0.000165688
2.92209e-05
5.03184e-05
0.000130165
0.000184659
0.000164729
2.72425e-05
5.60058e-05
0.000163083
0.000185406
0.0001618
1.60206e-07
6.6328e-08
3.49322e-08
2.1878e-08
1.62357e-08
1.35495e-08
1.25253e-08
1.21883e-08
1.40652e-08
2.2687e-08
5.22279e-08
1.42622e-07
3.84328e-07
9.41455e-07
7.2684e-08
1.79607e-08
5.7159e-09
2.96804e-09
2.17381e-09
1.854e-09
1.77921e-09
1.87525e-09
2.89878e-09
7.77392e-09
2.65603e-08
8.81916e-08
2.59673e-07
6.63623e-07
4.24531e-08
8.5664e-09
1.57051e-09
3.95226e-10
2.04569e-10
1.66814e-10
1.80219e-10
3.11901e-10
1.04479e-09
4.31653e-09
1.67766e-08
5.77043e-08
1.73486e-07
4.55143e-07
3.75146e-08
8.4076e-09
1.56864e-09
2.54083e-10
4.02842e-11
1.35936e-11
2.6235e-11
1.19427e-10
5.96766e-10
2.69872e-09
1.073e-08
3.74889e-08
1.15269e-07
3.12548e-07
3.98659e-08
9.29775e-09
1.81478e-09
2.95602e-10
3.81285e-11
5.60414e-12
1.25644e-11
7.33995e-11
3.89149e-10
1.80846e-09
7.3527e-09
2.62347e-08
8.24838e-08
2.3001e-07
4.56045e-08
1.04735e-08
1.99324e-09
3.08408e-10
3.77885e-11
6.23866e-12
1.11449e-11
5.76122e-11
2.99796e-10
1.39402e-09
5.69317e-09
2.04397e-08
6.49533e-08
1.84994e-07
5.73141e-08
1.26681e-08
2.25386e-09
3.29123e-10
5.00915e-11
2.26268e-11
2.87672e-11
7.31601e-11
2.97332e-10
1.29346e-09
5.16749e-09
1.84067e-08
5.8617e-08
1.69138e-07
7.52488e-08
1.57332e-08
2.63105e-09
4.28567e-10
1.53934e-10
1.45928e-10
1.67776e-10
2.33297e-10
5.07234e-10
1.65005e-09
5.95894e-09
2.04107e-08
6.37645e-08
1.81734e-07
9.91674e-08
2.00226e-08
3.5676e-09
9.7429e-10
7.34644e-10
8.24153e-10
9.49046e-10
1.15265e-09
1.68249e-09
3.48664e-09
9.73888e-09
2.96859e-08
8.69411e-08
2.35116e-07
1.33671e-07
2.90795e-08
7.20517e-09
3.47707e-09
3.29283e-09
3.79555e-09
4.44785e-09
5.37818e-09
7.03337e-09
1.10266e-08
2.2539e-08
5.58462e-08
1.43789e-07
3.53146e-07
1.9811e-07
5.64822e-08
2.13784e-08
1.32388e-08
1.27014e-08
1.45819e-08
1.73611e-08
2.13436e-08
2.7412e-08
3.85561e-08
6.36046e-08
1.26418e-07
2.75523e-07
5.99108e-07
3.49681e-07
1.38928e-07
6.80288e-08
4.53687e-08
4.21051e-08
4.7647e-08
5.74336e-08
7.18605e-08
9.26642e-08
1.25367e-07
1.83875e-07
3.06688e-07
5.63942e-07
1.07625e-06
6.85857e-07
3.45369e-07
1.93815e-07
1.34435e-07
1.21242e-07
1.34578e-07
1.63466e-07
2.0753e-07
2.69903e-07
3.60431e-07
4.98536e-07
7.38123e-07
1.17259e-06
1.97604e-06
1.34914e-06
7.81106e-07
4.7691e-07
3.4463e-07
3.06968e-07
3.33791e-07
4.05285e-07
5.18912e-07
6.79683e-07
9.04514e-07
1.21473e-06
1.66012e-06
2.33031e-06
3.44896e-06
5.44909e-08
2.77524e-08
1.81008e-08
1.21193e-08
8.49248e-09
6.41164e-09
5.33062e-09
4.56599e-09
4.27296e-09
5.38599e-09
1.18419e-08
3.68309e-08
1.17788e-07
3.4025e-07
2.07577e-08
5.63504e-09
2.44405e-09
1.46364e-09
9.95555e-10
7.62193e-10
6.60216e-10
5.96194e-10
6.8228e-10
1.56707e-09
6.02124e-09
2.38493e-08
8.35031e-08
2.51217e-07
1.44587e-08
3.04121e-09
6.02271e-10
1.63424e-10
7.79351e-11
5.65982e-11
5.24713e-11
6.60217e-11
1.90793e-10
9.07515e-10
4.24647e-09
1.73545e-08
6.10453e-08
1.8485e-07
1.76161e-08
3.91671e-09
7.11469e-10
1.12536e-10
1.64092e-11
3.63122e-12
4.11902e-12
1.84642e-11
1.12597e-10
6.25254e-10
2.98939e-09
1.22893e-08
4.36078e-08
1.34043e-07
2.19905e-08
4.85795e-09
8.90732e-10
1.38493e-10
1.73476e-11
1.82932e-12
1.64759e-12
1.16659e-11
7.7315e-11
4.38279e-10
2.12562e-09
8.86386e-09
3.1939e-08
9.99627e-08
2.75023e-08
5.89785e-09
1.03296e-09
1.49452e-10
1.75954e-11
2.26232e-12
1.92366e-12
9.49232e-12
5.92321e-11
3.32901e-10
1.61317e-09
6.73546e-09
2.43788e-08
7.72689e-08
3.65082e-08
7.50979e-09
1.22154e-09
1.63924e-10
2.29235e-11
9.21835e-12
9.53405e-12
1.60411e-11
5.66274e-11
2.7609e-10
1.2926e-09
5.3439e-09
1.94063e-08
6.27821e-08
4.97014e-08
9.68543e-09
1.45692e-09
2.06469e-10
6.6377e-11
6.2831e-11
7.04888e-11
8.24321e-11
1.26796e-10
3.35687e-10
1.26892e-09
4.96218e-09
1.79045e-08
5.86698e-08
6.74912e-08
1.25306e-08
1.87615e-09
4.17085e-10
3.17209e-10
3.71161e-10
4.32144e-10
4.98213e-10
6.12656e-10
9.31664e-10
2.12322e-09
6.60743e-09
2.20099e-08
6.95399e-08
9.19088e-08
1.69759e-08
3.16578e-09
1.38355e-09
1.46515e-09
1.79209e-09
2.14621e-09
2.54674e-09
3.09111e-09
4.01488e-09
6.32046e-09
1.36709e-08
3.68739e-08
1.03089e-07
1.289e-07
2.74966e-08
8.0823e-09
5.21635e-09
5.83338e-09
7.21444e-09
8.84373e-09
1.08042e-08
1.33516e-08
1.69217e-08
2.31734e-08
3.85554e-08
8.05352e-08
1.87926e-07
2.02826e-07
5.93394e-08
2.52011e-08
1.82349e-08
1.99264e-08
2.463e-08
3.07868e-08
3.85484e-08
4.85472e-08
6.17162e-08
8.06693e-08
1.17023e-07
1.99196e-07
3.86832e-07
3.64412e-07
1.46799e-07
7.5355e-08
5.62333e-08
5.90903e-08
7.22985e-08
9.16584e-08
1.17039e-07
1.49807e-07
1.92325e-07
2.48487e-07
3.36707e-07
4.9768e-07
8.26196e-07
7.16583e-07
3.55084e-07
2.00685e-07
1.52966e-07
1.55213e-07
1.86104e-07
2.36783e-07
3.06156e-07
3.96973e-07
5.15138e-07
6.66307e-07
8.70452e-07
1.16531e-06
1.67176e-06
1.48955e-08
7.48002e-09
4.96173e-09
3.35792e-09
2.30216e-09
1.62591e-09
1.30118e-09
1.08246e-09
9.37161e-10
9.34074e-10
1.76697e-09
6.1312e-09
2.35647e-08
8.21785e-08
5.45518e-09
1.35557e-09
5.5892e-10
3.33822e-10
2.20948e-10
1.5646e-10
1.29827e-10
1.12033e-10
1.09872e-10
2.02981e-10
8.5512e-10
4.08498e-09
1.71991e-08
6.17189e-08
5.35312e-09
1.10437e-09
1.9451e-10
3.954e-11
1.41007e-11
8.50881e-12
7.29194e-12
7.82597e-12
1.99972e-11
1.10538e-10
6.35627e-10
3.15378e-09
1.32622e-08
4.737e-08
7.87535e-09
1.66423e-09
2.89366e-10
4.27473e-11
5.61473e-12
7.13839e-13
3.15407e-13
1.50422e-12
1.18338e-11
8.26847e-11
4.86e-10
2.40719e-09
1.01085e-08
3.62029e-08
1.05935e-08
2.19489e-09
3.84379e-10
5.54482e-11
6.7459e-12
6.64069e-13
1.58066e-13
1.06148e-12
8.92503e-12
6.29598e-11
3.71717e-10
1.84905e-09
7.80296e-09
2.81231e-08
1.40414e-08
2.79058e-09
4.6663e-10
6.22225e-11
7.00245e-12
8.14966e-13
3.49427e-13
1.0517e-12
7.19084e-12
4.94261e-11
2.91023e-10
1.44827e-09
6.11606e-09
2.20713e-08
1.95338e-08
3.70903e-09
5.77537e-10
7.05968e-11
8.62109e-12
2.87937e-12
2.74837e-12
3.42651e-12
8.37115e-12
4.19368e-11
2.32641e-10
1.14053e-09
4.79211e-09
1.73415e-08
2.75316e-08
4.9527e-09
7.06049e-10
8.55082e-11
2.12357e-11
1.93814e-11
2.21585e-11
2.45356e-11
2.99142e-11
5.808e-11
2.11932e-10
9.37439e-10
3.87391e-09
1.42464e-08
3.84583e-08
6.55799e-09
8.81106e-10
1.45314e-10
9.82414e-11
1.20051e-10
1.43512e-10
1.62486e-10
1.83042e-10
2.2532e-10
3.92921e-10
1.13676e-09
4.15166e-09
1.50487e-08
5.31808e-08
8.7209e-09
1.27233e-09
4.2373e-10
4.75423e-10
6.17346e-10
7.57601e-10
8.85554e-10
1.01737e-09
1.18207e-09
1.5252e-09
2.70463e-09
7.13921e-09
2.24903e-08
7.207e-08
1.26863e-08
2.68425e-09
1.60139e-09
2.01408e-09
2.65937e-09
3.33552e-09
4.01344e-09
4.73703e-09
5.57119e-09
6.77562e-09
9.63847e-09
1.86184e-08
4.66214e-08
1.05067e-07
2.44552e-08
8.10663e-09
5.95827e-09
7.34568e-09
9.72075e-09
1.24312e-08
1.53471e-08
1.85599e-08
2.22734e-08
2.69486e-08
3.52306e-08
5.56795e-08
1.12362e-07
1.73344e-07
6.01159e-08
2.62752e-08
2.01255e-08
2.34021e-08
3.05476e-08
3.96118e-08
5.00089e-08
6.1816e-08
7.57356e-08
9.25559e-08
1.17054e-07
1.63328e-07
2.74636e-07
3.34161e-07
1.56042e-07
7.94733e-08
6.135e-08
6.68057e-08
8.43212e-08
1.09385e-07
1.40234e-07
1.76647e-07
2.20693e-07
2.73911e-07
3.43303e-07
4.44488e-07
6.3748e-07
3.27765e-09
1.20993e-09
7.00603e-10
4.76024e-10
3.29749e-10
2.45597e-10
2.05809e-10
1.78346e-10
1.54669e-10
1.30484e-10
1.67787e-10
5.56202e-10
2.53188e-09
1.07063e-08
1.73133e-09
3.25093e-10
7.76657e-11
3.61018e-11
2.29075e-11
1.73202e-11
1.52804e-11
1.3774e-11
1.27511e-11
1.69111e-11
6.72935e-11
3.83626e-10
1.95541e-09
8.42138e-09
2.21905e-09
4.44607e-10
6.90638e-11
1.01305e-11
1.70085e-12
6.1052e-13
4.9124e-13
5.18684e-13
1.17728e-12
7.42079e-12
5.2744e-11
3.20242e-10
1.62582e-09
6.93584e-09
3.39061e-09
6.97399e-10
1.1104e-10
1.59369e-11
1.93211e-12
2.02183e-13
2.28463e-14
6.42158e-14
6.71244e-13
5.99792e-12
4.39591e-11
2.66249e-10
1.34471e-09
5.71784e-09
4.68147e-09
9.45121e-10
1.47361e-10
2.04453e-11
2.34278e-12
2.31856e-13
2.48388e-14
5.41249e-14
5.52591e-13
4.9472e-12
3.63604e-11
2.2078e-10
1.11782e-09
4.7659e-09
6.27133e-09
1.2327e-09
1.80701e-10
2.28869e-11
2.39474e-12
2.66869e-13
8.35001e-14
1.08747e-13
5.17572e-13
4.14193e-12
3.01074e-11
1.82849e-10
9.27713e-10
3.96431e-09
8.59702e-09
1.65379e-09
2.24794e-10
2.55389e-11
2.74306e-12
7.97757e-13
7.36831e-13
7.99796e-13
1.13739e-12
4.0878e-12
2.52989e-11
1.49949e-10
7.57436e-10
3.2333e-09
1.16795e-08
2.18765e-09
2.75096e-10
2.9433e-11
5.83493e-12
5.17156e-12
6.03482e-12
6.61945e-12
7.1413e-12
9.57858e-12
2.6549e-11
1.25938e-10
6.08555e-10
2.57938e-09
1.54219e-08
2.82154e-09
3.37418e-10
4.38236e-11
2.58583e-11
3.29082e-11
4.01192e-11
4.52592e-11
4.88518e-11
5.31302e-11
7.01788e-11
1.62494e-10
6.05898e-10
2.43852e-09
1.98985e-08
3.59544e-09
4.50521e-10
1.13212e-10
1.29545e-10
1.76848e-10
2.20057e-10
2.55061e-10
2.82608e-10
3.06692e-10
3.44486e-10
4.81645e-10
1.084e-09
3.50745e-09
2.5266e-08
4.78758e-09
8.03145e-10
4.22498e-10
5.78086e-10
8.02098e-10
1.01512e-09
1.20561e-09
1.37026e-09
1.52023e-09
1.69149e-09
2.06521e-09
3.36622e-09
8.13719e-09
3.41854e-08
8.10968e-09
2.22716e-09
1.64792e-09
2.23297e-09
3.10109e-09
3.98795e-09
4.84263e-09
5.63051e-09
6.39453e-09
7.22138e-09
8.53319e-09
1.18906e-08
2.28582e-08
5.42812e-08
1.87558e-08
7.50585e-09
5.99955e-09
7.5664e-09
1.03351e-08
1.34594e-08
1.66829e-08
1.98126e-08
2.30161e-08
2.65246e-08
3.12298e-08
3.99413e-08
6.44017e-08
1.09451e-07
5.06049e-08
2.50808e-08
2.01374e-08
2.31298e-08
3.02356e-08
3.93808e-08
4.96269e-08
6.01648e-08
7.14627e-08
8.41708e-08
1.0003e-07
1.22255e-07
1.71182e-07
6.76769e-10
1.63749e-10
6.27011e-11
3.84173e-11
2.66666e-11
2.08499e-11
1.93829e-11
1.83143e-11
1.67136e-11
1.38773e-11
1.30042e-11
3.54447e-11
1.86531e-10
9.46459e-10
4.59314e-10
8.85203e-11
1.40144e-11
2.63049e-12
1.06755e-12
8.23681e-13
8.82311e-13
9.41491e-13
9.56942e-13
1.08619e-12
3.71864e-12
2.47831e-11
1.52057e-10
7.82244e-10
6.71521e-10
1.48296e-10
2.50472e-11
3.4028e-12
4.35948e-13
5.15236e-14
1.45966e-14
1.82318e-14
4.76516e-14
3.40931e-13
2.96065e-12
2.19049e-11
1.33943e-10
6.81386e-10
1.01662e-09
2.27254e-10
3.94702e-11
5.43728e-12
6.91803e-13
7.11829e-14
6.62321e-15
2.80039e-15
2.53122e-14
2.80404e-13
2.5646e-12
1.90866e-11
1.16819e-10
5.94512e-10
1.39544e-09
3.07586e-10
5.30604e-11
7.04104e-12
8.51577e-13
8.24344e-14
7.64888e-15
2.78102e-15
2.15826e-14
2.40847e-13
2.22332e-12
1.6671e-11
1.02672e-10
5.25438e-10
1.85094e-09
3.97586e-10
6.59334e-11
8.04332e-12
8.9183e-13
8.80309e-14
1.86965e-14
1.44507e-14
2.94686e-14
2.14589e-13
1.91169e-12
1.43888e-11
8.92712e-11
4.60115e-10
2.47651e-09
5.17495e-10
8.16946e-11
9.04951e-12
9.68112e-13
1.83637e-13
1.38485e-13
1.39345e-13
1.47824e-13
2.9527e-13
1.71856e-12
1.22933e-11
7.61776e-11
3.94389e-10
3.25997e-09
6.59714e-10
9.88604e-11
1.02326e-11
1.54614e-12
9.96542e-13
1.10758e-12
1.17172e-12
1.17928e-12
1.26676e-12
2.37639e-12
1.09793e-11
6.32639e-11
3.23679e-10
4.15523e-09
8.14816e-10
1.17461e-10
1.33031e-11
5.36518e-12
6.29827e-12
7.46903e-12
8.12377e-12
8.35883e-12
8.43973e-12
9.30697e-12
1.67614e-11
6.2343e-11
2.88291e-10
5.19062e-09
9.96922e-10
1.46629e-10
2.73041e-11
2.60336e-11
3.49724e-11
4.23292e-11
4.71624e-11
4.98147e-11
5.11167e-11
5.25864e-11
6.17848e-11
1.15327e-10
3.74988e-10
6.37994e-09
1.25922e-09
2.24049e-10
9.02653e-11
1.20151e-10
1.66333e-10
2.04416e-10
2.32886e-10
2.51952e-10
2.6453e-10
2.74632e-10
2.98973e-10
4.07353e-10
9.06762e-10
8.40754e-09
1.98521e-09
5.301e-10
3.4778e-10
4.87288e-10
6.80907e-10
8.50056e-10
9.89103e-10
1.09344e-09
1.17397e-09
1.2437e-09
1.34666e-09
1.63877e-09
2.88038e-09
1.33422e-08
4.41715e-09
1.69492e-09
1.2952e-09
1.73333e-09
2.41584e-09
3.06598e-09
3.64282e-09
4.10994e-09
4.5092e-09
4.88709e-09
5.35527e-09
6.19075e-09
9.2329e-09
2.80972e-08
1.21699e-08
5.76867e-09
4.50508e-09
5.50736e-09
7.49242e-09
9.63172e-09
1.16855e-08
1.34588e-08
1.50898e-08
1.67462e-08
1.8721e-08
2.1214e-08
2.8013e-08
1.3252e-10
2.60274e-11
5.9543e-12
2.54786e-12
1.77513e-12
1.60557e-12
1.78782e-12
1.94568e-12
1.95518e-12
1.69583e-12
1.37104e-12
3.04335e-12
1.77771e-11
1.02827e-10
1.07069e-10
2.23591e-11
3.84304e-12
5.46625e-13
9.75804e-14
5.30184e-14
6.99605e-14
9.53509e-14
1.15338e-13
1.27652e-13
3.13649e-13
2.1795e-12
1.51697e-11
8.83239e-11
1.66985e-10
3.85302e-11
7.22388e-12
1.06613e-12
1.38885e-13
1.66813e-14
4.00602e-15
4.55591e-15
7.44913e-15
2.65963e-14
2.28021e-13
1.94443e-12
1.36814e-11
7.93969e-11
2.51291e-10
5.84097e-11
1.11948e-11
1.69305e-12
2.18097e-13
2.37236e-14
2.31595e-15
5.35699e-16
1.67175e-15
1.80103e-14
1.93129e-13
1.69203e-12
1.20331e-11
7.05485e-11
3.40658e-10
7.80228e-11
1.47621e-11
2.18094e-12
2.67482e-13
2.7517e-14
2.55491e-15
4.67356e-16
1.28643e-15
1.50005e-14
1.65278e-13
1.47231e-12
1.0632e-11
6.32329e-11
4.43918e-10
9.87417e-11
1.78807e-11
2.47382e-12
2.78974e-13
2.78715e-14
4.19456e-15
2.33545e-15
2.85094e-15
1.40763e-14
1.41274e-13
1.26788e-12
9.30208e-12
5.61854e-11
5.81276e-10
1.2517e-10
2.14818e-11
2.74476e-12
2.89724e-13
4.13386e-14
2.27506e-14
2.17343e-14
2.12153e-14
2.90028e-14
1.34898e-13
1.09752e-12
8.05861e-12
4.91601e-11
7.50522e-10
1.55947e-10
2.53379e-11
3.03281e-12
3.77424e-13
1.67692e-13
1.75174e-13
1.82332e-13
1.78756e-13
1.76434e-13
2.52737e-13
1.043e-12
6.86224e-12
4.1354e-11
9.3685e-10
1.87874e-10
2.91928e-11
3.58349e-12
9.88224e-13
1.02562e-12
1.20321e-12
1.28788e-12
1.2944e-12
1.2636e-12
1.28334e-12
1.93817e-12
6.98195e-12
3.67749e-11
1.14341e-09
2.22781e-10
3.44916e-11
5.94772e-12
4.48476e-12
5.89197e-12
7.07478e-12
7.73134e-12
7.96047e-12
7.93665e-12
7.8354e-12
8.49835e-12
1.39731e-11
4.56974e-11
1.36152e-09
2.67222e-10
4.72325e-11
1.69088e-11
2.13918e-11
2.95152e-11
3.58501e-11
3.99194e-11
4.20104e-11
4.28317e-11
4.29237e-11
4.45615e-11
5.48019e-11
1.13333e-10
1.72396e-09
3.87971e-10
9.82494e-11
6.36856e-11
9.17864e-11
1.28483e-10
1.57809e-10
1.78847e-10
1.91919e-10
1.99783e-10
2.04436e-10
2.13328e-10
2.40974e-10
3.92996e-10
2.66752e-09
8.15053e-10
2.99095e-10
2.40968e-10
3.46016e-10
4.87422e-10
6.06811e-10
7.00192e-10
7.65504e-10
8.13297e-10
8.51133e-10
9.02528e-10
9.86028e-10
1.38425e-09
5.69954e-09
2.25676e-09
1.02664e-09
8.53219e-10
1.1529e-09
1.61745e-09
2.04453e-09
2.40421e-09
2.67756e-09
2.90257e-09
3.10823e-09
3.36695e-09
3.65096e-09
4.61577e-09
2.7797e-11
5.5475e-12
1.19213e-12
4.22183e-13
2.77171e-13
2.69313e-13
3.22773e-13
3.74096e-13
3.96223e-13
3.55655e-13
2.62286e-13
3.37109e-13
1.76541e-12
1.1021e-11
2.51775e-11
5.47651e-12
1.0044e-12
1.55205e-13
2.68531e-14
1.29825e-14
1.73301e-14
2.46762e-14
3.10614e-14
3.27066e-14
4.13758e-14
2.07945e-13
1.53671e-12
9.76964e-12
4.07865e-11
9.55787e-12
1.8724e-12
2.99727e-13
4.16257e-14
5.32533e-15
1.32449e-15
1.47386e-15
2.14142e-15
3.74647e-15
2.07367e-14
1.84123e-13
1.42019e-12
9.03309e-12
6.10538e-11
1.44105e-11
2.87885e-12
4.69974e-13
6.479e-14
7.53608e-15
8.2052e-16
2.27332e-16
2.96507e-16
1.57989e-15
1.67725e-14
1.6121e-13
1.26514e-12
8.17211e-12
8.2067e-11
1.90897e-11
3.75475e-12
5.97714e-13
7.91067e-14
8.72774e-15
8.81319e-16
1.86582e-16
1.99457e-16
1.26811e-15
1.43757e-14
1.41298e-13
1.13083e-12
7.44956e-12
1.05325e-10
2.37107e-11
4.44766e-12
6.63932e-13
8.17978e-14
8.61934e-15
1.13228e-15
5.029e-16
4.80768e-16
1.32973e-15
1.24343e-14
1.22466e-13
9.99656e-13
6.72548e-12
1.35113e-10
2.92957e-11
5.18377e-12
7.14966e-13
8.2532e-14
1.05531e-14
4.29447e-15
3.80637e-15
3.56538e-15
3.92533e-15
1.30147e-14
1.07601e-13
8.76566e-13
5.98088e-12
1.70927e-10
3.56182e-11
5.94606e-12
7.66025e-13
9.6597e-14
3.22978e-14
3.0761e-14
3.12177e-14
2.98903e-14
2.79714e-14
3.30568e-14
1.10053e-13
7.60606e-13
5.12009e-12
2.0956e-10
4.20542e-11
6.69683e-12
8.65015e-13
2.04773e-13
1.84776e-13
2.12128e-13
2.22377e-13
2.18287e-13
2.06134e-13
1.97207e-13
2.52559e-13
8.09856e-13
4.59293e-12
2.51824e-10
4.89666e-11
7.70255e-12
1.30388e-12
8.48984e-13
1.07405e-12
1.27298e-12
1.36161e-12
1.3674e-12
1.32178e-12
1.25536e-12
1.26485e-12
1.8072e-12
5.6352e-12
2.94637e-10
5.72229e-11
9.99887e-12
3.39409e-12
4.08003e-12
5.54087e-12
6.63812e-12
7.22708e-12
7.40949e-12
7.32521e-12
7.07736e-12
6.97787e-12
7.78112e-12
1.44345e-11
3.62248e-10
7.86239e-11
1.91594e-11
1.25769e-11
1.8117e-11
2.50584e-11
3.02755e-11
3.34961e-11
3.4974e-11
3.52762e-11
3.47756e-11
3.46825e-11
3.64495e-11
5.38054e-11
5.4598e-10
1.56463e-10
5.58049e-11
4.8124e-11
7.11871e-11
9.94022e-11
1.21362e-10
1.36477e-10
1.45011e-10
1.49107e-10
1.50119e-10
1.52495e-10
1.57381e-10
2.0381e-10
1.17072e-09
4.29061e-10
1.9091e-10
1.72252e-10
2.47121e-10
3.46769e-10
4.28862e-10
4.90146e-10
5.2951e-10
5.54658e-10
5.70629e-10
5.92071e-10
6.11911e-10
7.27031e-10
5.04968e-12
1.0292e-12
2.25466e-13
7.83332e-14
5.30906e-14
5.56326e-14
7.02983e-14
8.49614e-14
9.34557e-14
8.67776e-14
6.32846e-14
4.86022e-14
1.62853e-13
1.05489e-12
5.15166e-12
1.14773e-12
2.19434e-13
3.62703e-14
6.63601e-15
3.25811e-15
4.40713e-15
6.41126e-15
8.27315e-15
8.8127e-15
7.92457e-15
1.95508e-14
1.40083e-13
9.64056e-13
8.6681e-12
2.04941e-12
4.13305e-13
6.99161e-14
1.04045e-14
1.46662e-15
4.40347e-16
4.91447e-16
6.76443e-16
8.62728e-16
2.0501e-15
1.58572e-14
1.31964e-13
9.16111e-13
1.30565e-11
3.11658e-12
6.40427e-13
1.09828e-13
1.61897e-14
2.04298e-15
2.96089e-16
1.35537e-16
1.39872e-16
2.28698e-16
1.39733e-15
1.38031e-14
1.18715e-13
8.42373e-13
1.75402e-11
4.12833e-12
8.34121e-13
1.39366e-13
1.9795e-14
2.36688e-15
3.1004e-16
1.19845e-16
1.09079e-16
1.77749e-16
1.18928e-15
1.21198e-14
1.0676e-13
7.77123e-13
2.22562e-11
5.05538e-12
9.72692e-13
1.52962e-13
2.03742e-14
2.31008e-15
3.33226e-16
1.58756e-16
1.43386e-16
1.95373e-16
1.04635e-15
1.05086e-14
9.46838e-14
7.0797e-13
2.80377e-11
6.11066e-12
1.10707e-12
1.61663e-13
2.01423e-14
2.46135e-15
7.47866e-16
5.97956e-16
5.45148e-16
5.30605e-16
1.19986e-15
9.32029e-15
8.34192e-14
6.35111e-13
3.48094e-11
7.2728e-12
1.24137e-12
1.69948e-13
2.17041e-14
5.39703e-15
4.41173e-15
4.32987e-15
4.0425e-15
3.6226e-15
3.76338e-15
1.01987e-14
7.29765e-14
5.47376e-13
4.19399e-11
8.43173e-12
1.37062e-12
1.85416e-13
3.69212e-14
2.72051e-14
3.02141e-14
3.09657e-14
2.96135e-14
2.69842e-14
2.45923e-14
2.79931e-14
8.05482e-14
4.91747e-13
4.95555e-11
9.63895e-12
1.53494e-12
2.52417e-13
1.32942e-13
1.59031e-13
1.85877e-13
1.94456e-13