/*--------------------------------*- C++ -*----------------------------------*\
| =========                 |                                                 |
| \\      /  F ield         | OpenFOAM: The Open Source CFD Toolbox           |
|  \\    /   O peration     | Version:  v2106                                 |
|   \\  /    A nd           | Website:  www.openfoam.com                      |
|    \\/     M anipulation  |                                                 |
\*---------------------------------------------------------------------------*/
FoamFile
{
    version     2.0;
    format      ascii;
    arch        "LSB;label=32;scalar=64";
    class       volScalarField;
    location    "0.000176";
    object      epsilon;
}
// * * * * * * * * * * * * * * * * * * * * * * * * * * * * * * * * * * * * * //

dimensions      [0 2 -3 0 0 0 0];

internalField   nonuniform List<scalar> 
18109
(
303.959
132.26
73.345
50.9186
44.9683
46.6103
54.3831
144.773
39.9665
15.2166
9.58188
8.52233
8.88963
10.4344
79.0665
14.9996
3.13547
1.43513
1.22164
1.27954
1.55644
51.5083
8.73411
1.29576
0.270097
0.141358
0.142796
0.219392
39.0922
7.11767
1.1711
0.180238
0.0314458
0.0198478
0.0609638
35.8315
7.18297
1.27897
0.191245
0.0247778
0.0110872
0.0477351
40.8074
8.54723
1.4947
0.214693
0.0329684
0.0223245
0.0721489
53.7779
11.08
1.87671
0.305053
0.101749
0.104741
0.200487
179.74
70.3575
34.4919
20.7815
15.8386
14.5317
15.7371
18.6273
24.8301
38.7562
76.5011
183.265
457.579
1079.05
82.2111
19.7536
6.10576
3.15248
2.4029
2.23432
2.4769
3.09765
4.98286
11.3984
33.6417
103.03
289.896
726.055
42.7968
7.46958
1.26137
0.394149
0.266709
0.250756
0.304289
0.515465
1.42965
5.14417
18.6917
62.092
184.042
489.686
27.9963
4.84657
0.730829
0.115073
0.0303303
0.0229227
0.0433095
0.154137
0.683197
2.91841
11.2792
39.1517
122.969
355.181
23.0084
4.46203
0.774919
0.11777
0.0153616
0.00448533
0.0157341
0.0859511
0.43559
1.97023
7.96303
29.0786
97.298
303.471
23.7284
4.94402
0.888776
0.131348
0.0155723
0.00374793
0.0127637
0.0713011
0.369169
1.71162
7.12672
26.9629
93.8629
304.048
29.91
6.25475
1.07195
0.150194
0.0214521
0.0105423
0.0222396
0.0915694
0.439681
2.00633
8.33955
31.5306
109.104
347.667
41.6094
8.35579
1.36572
0.2129
0.067413
0.063004
0.0900087
0.208406
0.747684
3.05337
11.999
43.3272
142.665
429.372
59.2144
11.8434
2.17861
0.560543
0.349192
0.371169
0.469793
0.760387
1.80579
5.75569
19.8553
65.612
199.638
555.793
88.4011
20.6701
5.66125
2.40279
1.77638
1.85519
2.26143
3.20283
5.67314
13.2048
36.7207
105.649
289.264
734.375
150.689
49.4614
20.2048
10.7803
7.97645
7.93655
9.41821
12.7066
19.4912
35.5185
77.0207
184.576
443.917
1018.47
305.133
138.618
71.5477
42.6938
31.3469
29.7047
34.125
44.6901
64.0262
101.048
178.642
352.282
727.881
1493.57
658.331
370.67
220.27
143.598
107.62
99.1266
109.985
139.452
191.493
279.602
433.605
724.658
1283.18
2347.06
1370.25
879.925
577.459
411.298
324.546
299.915
324.529
396.021
521.643
723.397
1034.95
1526.39
2329.78
3748.58
723.639
1684.44
3780.42
8039.74
17053.1
37931.1
446.142
1116.85
2656.96
5808.23
12277.5
26854.4
255.331
798.763
2200
5382.88
12503.8
30031.4
157.757
577.977
1784.42
4853.22
12621.7
33523.1
103.351
423.881
1455.47
4421.87
12747.3
36163.8
79.4104
347.147
1282.06
4207.19
12903.4
38022.5
72.3865
322.394
1226.39
4179.93
13090.8
38625.9
77.3686
340.19
1284.18
4332.67
13314.9
38190.8
90.6927
385.628
1406.42
4553.3
13352.7
36460.3
117.127
470.755
1613.71
4881.19
13336.5
33859.8
163.04
605.63
1900.33
5229.83
12991.7
30018.5
246.316
821.363
2310.74
5690.17
12671.3
26299.7
410.135
1191.97
2957.65
6473.37
12930.8
24294.1
732.689
1814.16
3967.52
7828.11
14418.1
25519.7
1319.46
2750.02
5345.43
9809.6
17556.6
31348.2
2392.04
4155.44
7154.05
12415.7
22259.5
41376.6
1651.17
3271.83
6425.88
12812.6
26217.4
53967
1205.18
2760.66
6244.99
14156.6
32017
70405.8
967.787
2560.63
6558.34
16259
38549.7
86315.5
897.17
2601.03
7094.1
18194.1
43584.9
96934.7
922.581
2758.75
7620.59
19432.2
45898.6
99911.9
1023.66
2988.13
8009.77
19705.2
44960.7
94851.4
1187.22
3267.81
8266.4
19297.8
42024
85945.5
1424.49
3625.16
8515.83
18610.5
38322.1
75672.2
1732.28
4021.74
8701.03
17727.1
34638.7
66220.9
2200.18
4626.87
9184.3
17436.1
32485.6
60405
2953.54
5651.43
10358.4
18551.5
33603.5
62521.1
4290.07
7509.03
12922.1
22446.4
40395.1
75699.4
6439.1
10473.6
17273.1
29578.6
53143.5
99221.2
5724.87
10437.5
18709
34251.2
64442.2
121806
4459.11
8616.2
16681
33545.3
69086.6
140643
3334.55
6956.19
14775.7
32769.2
73423.7
160021
2458.95
5591.07
13015.5
31122.7
73514.7
166175
1816.55
4495.23
11298.7
28350.1
69287.2
162671
1363.34
3621.25
9595.93
24716.4
61163.9
146605
1070.65
2989.2
8171.25
21239.7
52562.4
125447
895.848
2565.91
7082.79
18264.1
44036.4
104001
820.839
2332.29
6304.64
15934.9
37254.5
86741
848.72
2291.43
5903.58
14242.4
32041.1
72024.3
994.856
2434.3
5841.22
13216.9
28041.5
60814.5
1290.12
2803.79
6068.59
12782.3
25543.8
55443.9
1823.62
3585.83
6981.33
13410.9
26402.1
58847.8
2653.65
4816.73
8678.09
15769
30791.8
68053.4
244.878
847.909
2553.2
6743.62
15878.9
37350.5
296.267
900.668
2457.62
6001.45
13370.8
30415.8
352.956
926.569
2362.33
5498.59
12028
28662.2
446.739
1013.41
2469.26
5714.67
13258.9
31896.1
1794.3
3624
7992.42
16577.4
33776
74764.9
1101.12
2759.05
6773.88
14700.6
32573.7
77811.3
717.304
2150.91
5504.23
12376.2
29232.8
77008.8
500.182
1613.81
4241.62
10243.6
26477.1
74995.9
359.781
1177.17
3216.82
8484.61
23909.8
72042.7
256.54
848.875
2450.96
7177.15
21747.5
67180.7
180.747
622.739
1959.54
6271.92
19703
60039.3
130.639
484.033
1682.09
5679.78
17672.2
51415.1
108.773
431.56
1581.13
5326.72
15775.1
42884.3
112.642
446.838
1590.41
5028.91
13782.6
34713.2
138.33
506.851
1645.82
4705.82
11792.4
27813.9
180.045
583.15
1691.59
4368.56
10124.7
22936.8
227.551
641.669
1713.04
4126.41
9130.49
21139.2
281.278
693.941
1787.1
4257.16
9797.65
23114.9
61408
245192
966216
794881
504091
75390.9
291651
1.0052e+06
749186
481405
90425.7
332913
1.001e+06
727510
489312
101299
370060
985862
744664
519923
107345
392349
946269
753722
542243
105883
375513
860790
736812
547012
99798.9
322812
725056
698322
559594
89038.3
261074
595747
684981
587424
740326
75627.3
204185
481319
675521
611678
810643
61108.1
156941
379071
632111
592465
836931
48748.6
121283
310463
568275
522965
798163
1.29762e+06
41655.9
105460
287936
521427
434547
668438
1.47675e+06
1.88442e+06
42844.8
118116
327134
508117
385035
492655
1.3723e+06
4.55972e+06
54824.8
165012
430119
515470
392761
442454
684574
2.70248e+06
77169.6
237155
549782
506387
398218
460628
671181
3.03639e+06
107009
307392
608710
474327
389613
496970
733838
2.4635e+06
143331
373115
640388
470858
412361
552329
770233
3.04525e+06
173765
417161
662109
507587
460768
619903
722901
1.14544e+06
190492
424372
663284
550459
505859
682629
762775
684733
191031
397451
643667
587285
535862
744366
843451
566341
176852
347008
604865
622314
574499
826753
979342
897839
156548
305927
596020
677920
616865
922817
1.17358e+06
670045
133424
275897
601484
717610
649646
1.02498e+06
115636
262084
630662
705329
634284
1.08134e+06
107596
268938
673570
632739
559667
1.05868e+06
114524
309648
729116
541361
457896
898867
138843
385951
771433
460569
384797
682842
178868
490415
789227
425586
363473
224419
600563
777039
426526
382081
270898
694130
738481
439530
399295
316297
765114
718493
471738
438878
335784
759379
720530
541829
496841
343719
684052
722265
618301
545173
317442
564258
699909
683810
571789
268782
451282
677992
743739
595268
215996
368184
699203
827355
619539
173446
313080
766316
895906
620547
141556
277974
881029
897673
570123
120069
276874
1.01401e+06
809785
498663
112192
329053
1.13467e+06
714704
442183
121680
427870
1.21407e+06
656886
429552
145264
557661
1.19908e+06
667629
458039
170259
674233
1.15381e+06
699158
480562
192121
774287
1.10164e+06
694592
483336
218427
835571
1.06831e+06
689363
502322
236653
808837
1.03566e+06
723815
544251
243065
722492
978862
755915
575884
228260
586031
869745
769552
595271
195639
444351
719461
768167
615339
156288
329395
584280
787477
633200
119955
242870
477393
812940
639171
89976.1
176812
400063
808808
602165
67280.2
131570
373229
778809
542912
52092.9
111752
425277
762018
500163
46138.8
126257
574811
769509
499041
50215.2
178182
791956
794591
514687
122.044
46.2378
22.0251
12.5205
8.60472
6.9054
6.54827
7.03738
9.36498
16.5748
38.6177
104.631
283.201
707.566
54.0868
12.1734
3.47164
1.61888
1.08032
0.867746
0.840084
0.979955
1.76192
5.07169
17.5835
59.0517
177.109
466.102
27.7225
4.68768
0.732491
0.180378
0.0939718
0.073542
0.0821162
0.163717
0.599721
2.54503
10.0685
35.4129
109.873
302.762
18.9755
3.375
0.525932
0.0777404
0.0129807
0.00553806
0.0127383
0.0615845
0.314518
1.44995
5.91272
21.4256
69.5598
205.427
17.0471
3.40315
0.602091
0.0919945
0.0113332
0.00194437
0.00580293
0.0348519
0.189025
0.90573
3.84564
14.6095
50.3205
160.122
19.0223
3.98063
0.71057
0.104319
0.0121765
0.0021399
0.00472801
0.0258937
0.140651
0.690169
3.02992
11.9918
43.3665
145.716
25.2595
5.20846
0.875718
0.121115
0.0173342
0.00801742
0.0115788
0.0335992
0.149428
0.706179
3.11148
12.4902
45.8621
155.545
36.0411
7.09589
1.12788
0.172153
0.0556367
0.0533933
0.0674491
0.10951
0.285675
1.06845
4.3208
16.5903
58.5858
189.848
52.2533
10.1511
1.77184
0.439073
0.282192
0.313792
0.389189
0.537018
0.94991
2.42807
7.92126
27.0485
87.6079
261.198
78.773
17.3674
4.36293
1.79928
1.38575
1.52499
1.88269
2.51931
3.82142
7.27676
17.9037
50.6343
143.67
383.926
132.318
39.8271
15.0435
7.85869
6.02147
6.31634
7.69297
10.2306
14.7034
23.9392
46.4999
106.152
256.55
606.71
260.067
108.872
52.7431
30.6775
23.0259
22.9327
27.239
35.9
50.3804
75.8489
125.795
236.586
481.659
1000.46
549.791
289.841
162.576
102.78
77.7396
74.6751
85.9927
111.205
152.998
220.639
333.483
541.954
941.424
1721.49
1145.56
694.727
430.381
295.521
232.06
221.119
248.37
312.774
419.325
585.134
834.096
1218.89
1835.26
2922.4
39.7016
18.6793
11.1943
6.86303
4.45144
3.17332
2.58389
2.3037
2.45426
3.65651
8.58681
26.5798
85.0668
249.643
14.1873
3.53733
1.43882
0.793892
0.492226
0.346289
0.285918
0.2654
0.358285
0.969325
3.87613
15.539
55.2917
170.348
7.56697
1.31049
0.243216
0.0727714
0.0355999
0.0241477
0.0214528
0.0301101
0.103294
0.517992
2.46956
10.2866
37.1127
116.583
7.09497
1.3271
0.216225
0.032595
0.0049352
0.00132246
0.00182354
0.00911967
0.0573766
0.324237
1.58199
6.68801
24.7173
80.8999
8.38014
1.66649
0.284975
0.0420512
0.00503501
0.000542454
0.000719853
0.00532645
0.0359294
0.208293
1.04249
4.55292
17.5879
61.1898
10.9696
2.18448
0.361465
0.0497407
0.0055829
0.000716224
0.000742845
0.00397171
0.0256192
0.149633
0.765616
3.45747
13.9974
51.8037
15.7623
3.04067
0.468031
0.0595113
0.00778529
0.0031133
0.00351388
0.00649766
0.0245351
0.127683
0.652554
3.03288
12.7911
49.5295
23.4575
4.30389
0.613912
0.0813584
0.0231261
0.021979
0.0265999
0.0342855
0.0593844
0.178742
0.765349
3.42208
14.3359
55.1112
34.9638
6.18079
0.896105
0.180274
0.115722
0.135077
0.168217
0.212643
0.294453
0.531163
1.47186
5.36879
20.3942
72.8344
52.6074
9.58856
1.81584
0.676108
0.581112
0.688209
0.868206
1.11933
1.5054
2.24746
4.29045
11.2505
34.9358
108.818
82.3217
18.3181
5.50352
2.92477
2.59973
2.9926
3.77202
4.93659
6.66096
9.41008
14.8832
29.3509
71.049
185.39
144.204
45.1115
19.202
11.7582
10.2925
11.4211
14.2092
18.6435
25.1983
34.9217
50.7252
83.5111
161.496
349.715
282.934
121.363
62.5788
41.5963
36.2616
39.1329
47.7462
61.9825
83.0678
113.64
158.597
235.454
384.317
702.557
595.36
312.824
180.248
128.892
114.488
122.468
147.012
187.492
246.635
330.973
448.875
623.332
895.967
1387.95
10.3861
4.82863
2.92791
1.79209
1.10849
0.707697
0.525234
0.425907
0.397557
0.502604
1.18203
4.27432
16.5096
58.4013
3.34393
0.767045
0.308187
0.171773
0.102595
0.0647481
0.0488868
0.0403815
0.0446098
0.110977
0.522967
2.55341
10.9186
39.9156
2.26808
0.38379
0.0631543
0.0146822
0.0058481
0.00334296
0.00263276
0.00298681
0.00985971
0.0600062
0.35329
1.78307
7.64394
27.9446
2.78243
0.513815
0.0821826
0.0115101
0.00148184
0.000202874
0.000123624
0.000707514
0.00576505
0.040925
0.244423
1.23423
5.31088
19.6477
3.77408
0.716747
0.118319
0.0162249
0.00188796
0.000180098
5.97304e-05
0.000461272
0.0039386
0.0282158
0.169809
0.866351
3.78794
14.3899
5.36285
0.995521
0.15803
0.020038
0.00214975
0.000243913
0.000120388
0.00041006
0.00289407
0.0203192
0.123059
0.63759
2.85891
11.3045
8.13738
1.45178
0.214634
0.0248631
0.00283636
0.000922357
0.00095384
0.00129203
0.00327575
0.0166704
0.0964501
0.506906
2.35959
9.87036
12.5643
2.12793
0.287832
0.0326324
0.00706491
0.00640609
0.00790286
0.00954308
0.012616
0.0257931
0.0992881
0.484487
2.30092
10.0707
19.2592
3.10652
0.399644
0.0596393
0.0334892
0.0411536
0.0527728
0.0650917
0.0804594
0.11027
0.220807
0.743431
3.14505
13.2579
29.2998
4.63872
0.674783
0.192493
0.174406
0.222591
0.289211
0.366159
0.460211
0.593612
0.886096
1.91557
6.04687
21.842
43.9257
7.85381
1.72426
0.836735
0.827823
1.03229
1.34018
1.726
2.21228
2.85879
3.91312
6.55617
15.1533
43.7606
71.1562
17.6289
6.00467
3.63931
3.52077
4.21257
5.39215
6.97515
9.03498
11.7741
15.6957
23.2012
42.3975
97.7701
129.585
48.2164
21.5507
14.4088
13.5632
15.5315
19.3635
24.7828
32.0095
41.8158
55.2718
76.8382
119.807
225.599
270.806
135.05
71.1774
51.139
47.8253
53.0045
64.0211
79.9602
101.288
130.748
171.14
230.339
324.761
510.527
2.1459
0.730534
0.385483
0.235936
0.146086
0.0968031
0.0730979
0.0585922
0.0495974
0.0482418
0.0905793
0.356176
1.66071
7.1348
0.95624
0.155717
0.0362422
0.0168131
0.00977647
0.00654639
0.00516129
0.00426771
0.00399428
0.00741442
0.0376138
0.223632
1.15924
5.07707
0.845675
0.136328
0.0183587
0.00264138
0.000509839
0.000206536
0.000157654
0.000166798
0.000511773
0.00374019
0.0273668
0.168933
0.872491
3.79294
1.13249
0.203457
0.0297303
0.00403764
0.000468258
4.74225e-05
6.35715e-06
2.82231e-05
0.000306457
0.00277948
0.0206628
0.127146
0.653885
2.83997
1.59395
0.293987
0.0430195
0.00567899
0.000621734
5.92491e-05
6.97508e-06
2.17174e-05
0.000228633
0.00207466
0.0154721
0.0955679
0.494022
2.16285
2.28261
0.419167
0.0581139
0.0070012
0.000697194
7.52801e-05
2.60185e-05
3.86728e-05
0.000194481
0.00157851
0.0116611
0.0723526
0.377821
1.6821
3.39453
0.616785
0.0794283
0.00855382
0.000857458
0.000239993
0.000239848
0.000284153
0.000426623
0.001497
0.00922997
0.0562871
0.298656
1.37438
5.02428
0.894178
0.106589
0.0106894
0.00183013
0.00159666
0.00201601
0.00241356
0.00283124
0.00396184
0.0105994
0.0506833
0.264101
1.26677
7.24242
1.26605
0.144387
0.0169565
0.00812547
0.0104805
0.0137715
0.0169345
0.0199827
0.0237343
0.0338919
0.0839903
0.344907
1.59423
10.2264
1.78928
0.220243
0.0472011
0.0431403
0.0587921
0.0779989
0.0981213
0.118732
0.14133
0.176357
0.285009
0.761003
2.86087
14.3238
2.72496
0.473549
0.200288
0.213157
0.28377
0.375218
0.479153
0.592212
0.719014
0.883702
1.23013
2.38993
6.81929
21.5991
5.405
1.55067
0.919221
0.953125
1.20554
1.56649
2.00835
2.51516
3.11
3.8514
5.07678
8.14549
18.1781
38.3362
14.2316
5.88346
3.98673
3.91495
4.63643
5.81726
7.37066
9.24639
11.571
14.505
18.7689
26.8522
48.9279
84.7715
42.0498
21.6861
15.8847
15.0145
16.6369
19.8124
24.2985
30.015
37.5673
47.4967
61.2999
82.2979
127.59
0.410224
0.0912223
0.0317345
0.0175013
0.0107705
0.00740382
0.00615293
0.00529162
0.00448337
0.00374742
0.00504899
0.0200289
0.11256
0.582539
0.212193
0.0339188
0.00459055
0.000896927
0.00038783
0.00027354
0.000261655
0.00025299
0.000245195
0.000367307
0.00186253
0.0133332
0.0834069
0.436496
0.217941
0.0407787
0.00606938
0.000757687
9.26861e-05
1.09657e-05
3.48238e-06
4.70899e-06
1.78307e-05
0.000157926
0.00142556
0.010724
0.0666373
0.344973
0.301756
0.0614811
0.00996752
0.00129909
0.000158514
1.56848e-05
1.43408e-06
9.58817e-07
1.0616e-05
0.000121091
0.00112356
0.00848217
0.0527379
0.273152
0.429989
0.0892652
0.0146263
0.00184571
0.000213892
1.98694e-05
1.8354e-06
9.27659e-07
8.30039e-06
9.4298e-05
0.000881735
0.00670585
0.0419744
0.21891
0.615005
0.126248
0.0200202
0.00232377
0.000246103
2.32946e-05
5.27337e-06
4.64356e-06
1.03226e-05
7.63916e-05
0.000687492
0.00525189
0.0331924
0.175102
0.896105
0.180053
0.0272468
0.00286657
0.000289029
5.14681e-05
4.15174e-05
4.57379e-05
5.25002e-05
0.000104413
0.000578947
0.00415509
0.0263619
0.141451
1.28737
0.25111
0.036102
0.0035231
0.000467821
0.000283002
0.000340096
0.000393207
0.000432118
0.000496103
0.00089165
0.00379886
0.0221209
0.119979
1.79289
0.339547
0.0470848
0.00487737
0.00155921
0.0018266
0.0023467
0.00278779
0.00313756
0.00345698
0.00408108
0.00735904
0.027106
0.133934
2.45061
0.45795
0.0657232
0.0104202
0.00770246
0.0104683
0.0136455
0.0165694
0.0191375
0.0214925
0.0242114
0.0314454
0.0658238
0.239271
3.32247
0.654891
0.117802
0.0373484
0.0381362
0.0520488
0.0679807
0.0839701
0.0991478
0.113932
0.129649
0.156837
0.247555
0.64801
4.8929
1.2069
0.330521
0.165281
0.173166
0.227458
0.294639
0.367746
0.441622
0.51818
0.600906
0.71747
0.990086
2.02248
8.73881
3.08964
1.20317
0.728898
0.723019
0.892251
1.12964
1.41036
1.71116
2.04323
2.4186
2.90561
3.7353
6.29926
20.2901
9.38787
4.54552
3.03165
2.82741
3.22448
3.90906
4.80434
5.8306
7.04658
8.50226
10.3765
12.9331
18.9597
0.0731377
0.013162
0.00273899
0.00106335
0.000651703
0.00051275
0.000511223
0.000506524
0.000467497
0.00038651
0.000411051
0.00155666
0.0101122
0.0597936
0.041225
0.00718208
0.00103227
0.000129378
2.46389e-05
1.45312e-05
1.79862e-05
2.25512e-05
2.56173e-05
3.35851e-05
0.000139965
0.00110737
0.0078827
0.0466452
0.0465547
0.00952482
0.00163111
0.000224635
2.795e-05
3.30488e-06
8.65453e-07
9.99251e-07
1.91751e-06
1.06614e-05
0.000103804
0.000905587
0.00646806
0.0381269
0.0669541
0.0145981
0.00265675
0.000383219
4.73876e-05
4.96211e-06
4.67866e-07
1.21833e-07
6.00343e-07
7.35079e-06
8.0628e-05
0.000715934
0.00516265
0.0307358
0.0960853
0.0210682
0.00382455
0.000541028
6.36345e-05
6.28792e-06
5.67001e-07
1.18646e-07
4.50746e-07
5.59166e-06
6.25025e-05
0.000563758
0.00412742
0.0249357
0.136108
0.0292261
0.00509802
0.000675821
7.28897e-05
6.97808e-06
1.08056e-06
6.88667e-07
9.32162e-07
4.78679e-06
4.84069e-05
0.00043955
0.00327226
0.020115
0.194707
0.0406043
0.00672143
0.000822104
8.22833e-05
1.10183e-05
6.37856e-06
6.68637e-06
7.11207e-06
1.00512e-05
4.36778e-05
0.000349963
0.00260545
0.0162633
0.274603
0.0553008
0.00866708
0.000988486
0.000111013
4.4887e-05
5.03712e-05
5.73202e-05
6.1417e-05
6.55536e-05
9.29357e-05
0.00033858
0.00216566
0.0134245
0.374386
0.0727845
0.0109114
0.00124753
0.000274845
0.00027724
0.000353085
0.00041316
0.000454302
0.000484316
0.000529219
0.000794
0.0026372
0.0139518
0.499379
0.0946736
0.0142125
0.00211529
0.00121524
0.00162948
0.00212148
0.00253226
0.00285304
0.00311266
0.00335555
0.00396547
0.00702281
0.0243189
0.6545
0.127262
0.0222001
0.0061342
0.00601489
0.00842671
0.0110166
0.0133649
0.0153804
0.0171718
0.0188292
0.0215012
0.0299471
0.0715116
0.925739
0.214726
0.0540756
0.0253091
0.0278774
0.038343
0.0499586
0.0613427
0.0718326
0.0818837
0.0917214
0.105024
0.132897
0.249761
1.61809
0.522493
0.187927
0.110746
0.11819
0.155343
0.199956
0.247193
0.293488
0.341
0.390564
0.453468
0.547967
0.865087
3.82481
1.60405
0.719007
0.466848
0.464599
0.570597
0.715162
0.881974
1.05592
1.24694
1.4594
1.72879
2.06003
2.88345
0.0141711
0.00258526
0.000507014
0.000164747
9.50373e-05
8.02999e-05
8.66126e-05
9.16374e-05
8.89098e-05
7.38206e-05
6.02084e-05
0.000146416
0.000956907
0.00614491
0.00840651
0.00154944
0.000243345
3.36456e-05
6.07117e-06
3.30124e-06
4.23276e-06
5.58056e-06
6.50838e-06
6.86919e-06
1.43173e-05
9.99607e-05
0.000768948
0.0049634
0.0102614
0.0021921
0.000400138
6.05832e-05
8.07696e-06
1.01718e-06
2.73814e-07
3.06142e-07
4.45442e-07
1.12965e-06
8.85094e-06
8.27449e-05
0.000647838
0.00417691
0.015177
0.00340698
0.000651711
0.000102128
1.3559e-05
1.51886e-06
1.57916e-07
4.26462e-08
7.42663e-08
5.90281e-07
6.75844e-06
6.59861e-05
0.000524103
0.00342959
0.0218449
0.00489751
0.000928457
0.000142196
1.81081e-05
1.91948e-06
1.84377e-07
3.75482e-08
5.22525e-08
4.4411e-07
5.26076e-06
5.23653e-05
0.000423926
0.00282892
0.0305904
0.00667362
0.00120958
0.000173721
2.05487e-05
2.07451e-06
2.69957e-07
1.32639e-07
1.40077e-07
4.28893e-07
4.12505e-06
4.10663e-05
0.000339136
0.00231325
0.0429145
0.00903589
0.00154597
0.000204893
2.25726e-05
2.72148e-06
1.14548e-06
1.11461e-06
1.13801e-06
1.32591e-06
4.14495e-06
3.31445e-05
0.000271834
0.00188437
0.059292
0.0120018
0.00193676
0.000238805
2.77554e-05
8.37125e-06
8.47763e-06
9.39916e-06
9.82718e-06
9.98093e-06
1.2032e-05
3.49163e-05
0.000226828
0.00154157
0.0793274
0.0154584
0.00237788
0.000288376
5.60153e-05
4.78844e-05
5.95949e-05
6.8269e-05
7.32459e-05
7.54819e-05
7.7945e-05
0.000100317
0.000284493
0.00153814
0.104042
0.0196829
0.0029937
0.000441687
0.000219526
0.000282959
0.00036453
0.000425982
0.000467783
0.000494238
0.00051149
0.000558149
0.000840524
0.00263473
0.133664
0.0255923
0.00435029
0.0011293
0.00106739
0.00149604
0.00194067
0.00230536
0.00258419
0.00279495
0.00294836
0.00317667
0.00394502
0.00827679
0.183247
0.0405803
0.00957533
0.00439053
0.00499208
0.00698992
0.00906268
0.0109065
0.0124388
0.0137327
0.0147968
0.0161261
0.0187878
0.0316054
0.312514
0.0937896
0.0316283
0.0188457
0.0213423
0.0290272
0.0374111
0.0454696
0.052639
0.059231
0.0652195
0.0723809
0.0821488
0.118795
0.742576
0.286059
0.120516
0.0788279
0.0838774
0.108447
0.137629
0.167898
0.196555
0.224964
0.253127
0.287036
0.325075
0.425755
0.0023865
0.000443823
8.935e-05
2.88342e-05
1.72374e-05
1.58282e-05
1.81319e-05
2.00855e-05
2.02612e-05
1.71974e-05
1.22521e-05
1.55235e-05
8.31023e-05
0.000567467
0.00151914
0.000291987
4.89416e-05
7.39634e-06
1.41303e-06
7.88424e-07
1.03871e-06
1.40881e-06
1.6828e-06
1.67972e-06
1.91358e-06
8.50973e-06
6.77978e-05
0.000474627
0.00201798
0.000443714
8.45498e-05
1.36594e-05
1.96074e-06
2.71865e-07
8.66466e-08
9.72791e-08
1.28957e-07
1.84414e-07
7.50827e-07
6.87269e-06
5.84774e-05
0.000411033
0.00307959
0.000705064
0.000139512
2.30772e-05
3.28616e-06
3.98244e-07
5.37105e-08
2.30713e-08
2.49097e-08
6.13188e-08
5.28279e-07
5.48936e-06
4.7839e-05
0.000343325
0.00446042
0.00101586
0.000198485
3.20269e-05
4.39022e-06
5.02541e-07
6.00506e-08
2.05242e-08
1.92168e-08
4.59948e-08
4.11028e-07
4.36856e-06
3.89557e-05
0.000286707
0.00618652
0.00136498
0.000254376
3.86185e-05
4.95458e-06
5.355e-07
7.11584e-08
3.27457e-08
3.06625e-08
4.9387e-08
3.27511e-07
3.42617e-06
3.12509e-05
0.000236349
0.00852441
0.00180732
0.000317225
4.46603e-05
5.336e-06
6.14294e-07
1.85116e-07
1.60281e-07
1.57683e-07
1.63271e-07
3.68153e-07
2.7908e-06
2.50855e-05
0.00019325
0.0115523
0.00234828
0.000388146
5.10707e-05
6.11418e-06
1.36925e-06
1.16886e-06
1.25092e-06
1.27249e-06
1.23685e-06
1.33638e-06
3.18626e-06
2.08999e-05
0.000156469
0.0151715
0.00296556
0.000466283
5.97747e-05
1.01074e-05
6.83658e-06
8.19307e-06
9.16701e-06
9.56916e-06
9.50362e-06
9.35981e-06
1.08316e-05
2.69017e-05
0.000150206
0.0195321
0.00369557
0.000568353
8.31638e-05
3.35324e-05
4.03602e-05
5.13123e-05
5.86236e-05
6.25864e-05
6.38226e-05
6.35665e-05
6.54743e-05
8.71178e-05
0.000249909
0.024493
0.00462591
0.000764499
0.000181887
0.000157884
0.000219147
0.000281771
0.000327295
0.000356565
0.000372657
0.000379001
0.000390189
0.000443662
0.000827462
0.0321665
0.00677196
0.00148016
0.000648788
0.000748666
0.00105837
0.00136287
0.00160441
0.00177854
0.00189901
0.00197293
0.00206308
0.00224831
0.003421
0.0518841
0.0143371
0.00450111
0.00272084
0.0032605
0.00454444
0.00583912
0.00695416
0.00783232
0.0085287
0.00904903
0.00964744
0.0103746
0.0138554
0.120355
0.0423743
0.0168258
0.0112993
0.0129653
0.0174835
0.0222878
0.0267401
0.030508
0.0338008
0.0366196
0.039875
0.0431006
0.0530492
0.000357875
6.79186e-05
1.42747e-05
4.81939e-06
3.13655e-06
3.14903e-06
3.78932e-06
4.3485e-06
4.51984e-06
3.93161e-06
2.71051e-06
2.0957e-06
6.83674e-06
4.77577e-05
0.000247591
4.9314e-05
8.71935e-06
1.42572e-06
3.03442e-07
1.8871e-07
2.52313e-07
3.44316e-07
4.15966e-07
4.14763e-07
3.55942e-07
7.50077e-07
5.46532e-06
4.12609e-05
0.000356367
8.01426e-05
1.57792e-05
2.68629e-06
4.14507e-07
7.15089e-08
3.31128e-08
3.65873e-08
4.44768e-08
5.03951e-08
8.45102e-08
5.37167e-07
4.7951e-06
3.66921e-05
0.000560375
0.000130419
2.64814e-05
4.57655e-06
6.91067e-07
9.83248e-08
2.44339e-08
1.76164e-08
1.77671e-08
2.0287e-08
5.19692e-08
4.26047e-07
3.95817e-06
3.11057e-05
0.000817939
0.000188742
3.77324e-05
6.35861e-06
9.22985e-07
1.21619e-07
2.57967e-08
1.68013e-08
1.62223e-08
1.78544e-08
4.26841e-08
3.41172e-07
3.23439e-06
2.61966e-05
0.00112442
0.000250395
4.7691e-05
7.60259e-06
1.03607e-06
1.28235e-07
2.70035e-08
1.80812e-08
1.74053e-08
1.84211e-08
3.7098e-08
2.69279e-07
2.59092e-06
2.1669e-05
0.00152165
0.000324292
5.81048e-05
8.65271e-06
1.09695e-06
1.35216e-07
3.92043e-08
3.19841e-08
3.09882e-08
3.04047e-08
4.32972e-08
2.23329e-07
2.07849e-06
1.77457e-05
0.00202217
0.000412181
6.94964e-05
9.70589e-06
1.19525e-06
2.19495e-07
1.50956e-07
1.5389e-07
1.52538e-07
1.43783e-07
1.43587e-07
2.74812e-07
1.73117e-06
1.42491e-05
0.00260414
0.000510014
8.17215e-05
1.10139e-05
1.67642e-06
8.65561e-07
9.7564e-07
1.0644e-06
1.08251e-06
1.04044e-06
9.84927e-07
1.04989e-06
2.29318e-06
1.32427e-05
0.00328693
0.000621958
9.67687e-05
1.41203e-05
4.56922e-06
4.97573e-06
6.21386e-06
6.94718e-06
7.22681e-06
7.13556e-06
6.86303e-06
6.73787e-06
8.07857e-06
2.13241e-05
0.00401969
0.000751168
0.000121814
2.64591e-05
2.03714e-05
2.77146e-05
3.52794e-05
4.0134e-05
4.26087e-05
4.3148e-05
4.24098e-05
4.18838e-05
4.41544e-05
7.37637e-05
0.0050498
0.00101667
0.000207655
8.51413e-05
9.79039e-05
0.000138756
0.000177326
0.000204545
0.000220977
0.000228681
0.000229501
0.000230566
0.000236516
0.000327716
0.00759455
0.0019355
0.00056906
0.000347898
0.000437326
0.000619177
0.000791529
0.000924334
0.00101471
0.0010708
0.00109617
0.00112255
0.00114659
0.00142081
0.016785
0.00541832
0.00205345
0.00143892
0.00177843
0.00247325
0.00315107
0.00371295
0.00413022
0.0044314
0.00462454
0.00483121
0.00498588
0.00577207
4.77035e-05
9.26196e-06
2.06166e-06
7.62838e-07
5.60003e-07
6.10643e-07
7.59637e-07
8.92093e-07
9.45653e-07
8.39589e-07
5.8289e-07
3.61428e-07
5.86458e-07
3.74524e-06
3.61938e-05
7.43906e-06
1.3796e-06
2.50011e-07
6.83702e-08
5.15883e-08
6.62951e-08
8.66858e-08
1.02946e-07
1.03354e-07
8.41083e-08
9.07227e-08
4.25642e-07
3.31672e-06
5.61287e-05
1.28408e-05
2.59372e-06
4.68503e-07
8.56797e-08
2.62076e-08
1.95673e-08
2.05581e-08
2.23797e-08
2.33222e-08
2.44508e-08
5.3939e-08
3.75009e-07
3.02098e-06
9.09066e-05
2.14036e-05
4.42735e-06
8.00622e-07
1.35448e-07
3.09865e-08
1.74924e-08
1.62127e-08
1.62544e-08
1.64686e-08
1.8403e-08
4.41461e-08
3.13598e-07
2.59694e-06
0.000133916
3.11616e-05
6.33013e-06
1.11297e-06
1.77659e-07
3.54579e-08
1.77509e-08
1.60083e-08
1.58846e-08
1.59791e-08
1.7524e-08
3.81058e-08
2.59261e-07
2.20485e-06
0.000182728
4.09216e-05
7.92164e-06
1.3201e-06
1.97458e-07
3.66877e-08
1.78752e-08
1.61246e-08
1.59877e-08
1.60334e-08
1.71799e-08
3.30757e-08
2.09935e-07
1.83045e-06
0.00024306
5.19363e-05
9.46301e-06
1.47726e-06
2.05654e-07
3.6987e-08
1.89677e-08
1.7448e-08
1.72613e-08
1.71338e-08
1.78423e-08
3.0049e-08
1.70902e-07
1.50295e-06
0.000316915
6.46155e-05
1.10933e-05
1.62404e-06
2.15751e-07
4.49305e-08
3.00575e-08
2.94321e-08
2.89298e-08
2.76854e-08
2.69281e-08
3.52525e-08
1.44514e-07
1.2008e-06
0.000400411
7.83348e-05
1.27991e-05
1.79161e-06
2.65631e-07
1.11873e-07
1.15287e-07
1.2186e-07
1.20992e-07
1.13636e-07
1.04757e-07
1.04626e-07
1.91634e-07
1.08442e-06
0.000495557
9.35171e-05
1.4801e-05
2.15324e-06
5.80161e-07
5.56566e-07
6.76957e-07
7.4063e-07
7.51005e-07
7.18697e-07
6.67882e-07
6.28881e-07
6.89984e-07
1.6742e-06
0.000591297
0.000109403
1.76773e-05
3.51587e-06
2.3574e-06
3.1131e-06
3.91649e-06
4.36807e-06
4.52068e-06
4.43417e-06
4.20875e-06
3.99672e-06
3.94692e-06
5.96041e-06
0.000711727
0.000138417
2.67877e-05
1.01003e-05
1.1395e-05
1.61099e-05
2.0413e-05
2.30901e-05
2.4316e-05
2.4376e-05
2.36192e-05
2.28251e-05
2.21604e-05
2.81858e-05
0.000992893
0.000236219
6.51941e-05
4.01209e-05
5.23442e-05
7.47537e-05
9.48929e-05
0.000108649
0.00011624
0.000118813
0.000117338
0.000115493
0.000112307
0.000129843
0.0020475
0.000615012
0.000224222
0.000166139
0.000219164
0.000310854
0.000394136
0.000455457
0.000493609
0.000512547
0.00051519
0.000516351
0.000508893
0.000555793
5.71849e-06
1.15024e-06
2.83409e-07
1.24994e-07
1.05999e-07
1.21619e-07
1.51527e-07
1.7843e-07
1.9046e-07
1.72428e-07
1.24372e-07
7.66585e-08
6.91536e-08
2.87187e-07
4.80606e-06
1.02177e-06
2.06105e-07
5.00299e-08
2.44437e-08
2.25901e-08
2.56309e-08
2.96563e-08
3.28753e-08
3.30403e-08
2.89841e-08
2.55106e-08
4.55422e-08
2.59142e-07
7.96814e-06
1.85006e-06
3.89449e-07
8.27954e-08
2.6397e-08
1.74983e-08
1.6541e-08
1.67838e-08
1.716e-08
1.7336e-08
1.72059e-08
1.87347e-08
4.08954e-08
2.42718e-07
1.32668e-05
3.14942e-06
6.68222e-07
1.33903e-07
3.41592e-08
1.82103e-08
1.60965e-08
1.58957e-08
1.59117e-08
1.59419e-08
1.60481e-08
1.7664e-08
3.65931e-08
2.13196e-07
1.97229e-05
4.61372e-06
9.56012e-07
1.82056e-07
4.08544e-08
1.89535e-08
1.6142e-08
1.58557e-08
1.58378e-08
1.58473e-08
1.594e-08
1.72458e-08
3.27966e-08
1.84227e-07
2.6725e-05
6.00527e-06
1.18493e-06
2.12538e-07
4.39066e-08
1.91627e-08
1.61608e-08
1.58702e-08
1.58504e-08
1.58554e-08
1.59242e-08
1.69252e-08
2.92943e-08
1.55543e-07
3.49525e-05
7.47705e-06
1.38983e-06
2.32953e-07
4.48335e-08
1.91265e-08
1.62453e-08
1.59872e-08
1.59624e-08
1.59507e-08
1.59876e-08
1.67477e-08
2.65458e-08
1.30258e-07
4.46964e-05
9.1043e-06
1.59492e-06
2.50196e-07
4.55763e-08
1.97407e-08
1.72179e-08
1.70368e-08
1.69609e-08
1.68262e-08
1.67183e-08
1.71909e-08
2.46887e-08
1.06286e-07
5.53408e-05
1.07999e-05
1.79922e-06
2.6805e-07
4.99201e-08
2.58618e-08
2.50396e-08
2.53806e-08
2.50657e-08
2.41529e-08
2.31109e-08
2.27061e-08
2.8217e-08
9.50674e-08
6.70683e-05
1.26254e-05
2.02791e-06
3.04428e-07
8.0141e-08
6.86492e-08
7.85802e-08
8.32729e-08
8.25252e-08
7.75686e-08
7.10355e-08
6.56957e-08
6.67399e-08
1.33631e-07
7.80908e-05
1.43651e-05
2.31399e-06
4.37391e-07
2.58133e-07
3.24482e-07
3.99558e-07
4.3581e-07
4.39558e-07