/*--------------------------------*- C++ -*----------------------------------*\
| =========                 |                                                 |
| \\      /  F ield         | OpenFOAM: The Open Source CFD Toolbox           |
|  \\    /   O peration     | Version:  v2106                                 |
|   \\  /    A nd           | Website:  www.openfoam.com                      |
|    \\/     M anipulation  |                                                 |
\*---------------------------------------------------------------------------*/
FoamFile
{
    version     2.0;
    format      ascii;
    arch        "LSB;label=32;scalar=64";
    class       volScalarField;
    location    "0.000176";
    object      k;
}
// * * * * * * * * * * * * * * * * * * * * * * * * * * * * * * * * * * * * * //

dimensions      [0 2 -2 0 0 0 0];

internalField   nonuniform List<scalar> 
18109
(
0.0227552
0.0103217
0.00593474
0.00419734
0.00366527
0.00366752
0.00408902
0.0108699
0.0031403
0.00125468
0.000813146
0.000721537
0.000731904
0.000824317
0.00608151
0.00123217
0.000273461
0.000126462
0.000106676
0.000109125
0.000128147
0.00426035
0.000808802
0.000133914
2.78782e-05
1.31426e-05
1.25936e-05
1.89099e-05
0.00354276
0.000725154
0.000130362
2.09467e-05
3.50978e-06
1.88041e-06
5.55197e-06
0.00345365
0.000750945
0.000140698
2.17484e-05
2.85678e-06
1.1026e-06
4.35387e-06
0.00398872
0.000877694
0.000158832
2.34915e-05
3.67078e-06
2.24786e-06
6.4096e-06
0.0051399
0.0010955
0.000190522
3.19221e-05
1.1026e-05
1.08795e-05
1.83673e-05
0.0136021
0.00556367
0.00285893
0.00179311
0.00139269
0.00126411
0.00131422
0.00147296
0.00187793
0.00289742
0.00579806
0.0140428
0.0350139
0.0815522
0.00627191
0.00157785
0.000514974
0.000278869
0.000218322
0.000202578
0.000217024
0.000257722
0.000398813
0.000909533
0.00270124
0.00825206
0.0229738
0.0564239
0.00342153
0.000645975
0.000117267
3.70336e-05
2.49966e-05
2.34066e-05
2.75029e-05
4.45938e-05
0.000121522
0.000436331
0.00157578
0.00516848
0.0150048
0.0385803
0.00249431
0.000486474
8.13068e-05
1.32822e-05
3.21283e-06
2.20681e-06
3.98923e-06
1.3927e-05
6.12347e-05
0.0002589
0.00098469
0.00333571
0.0100939
0.0275259
0.00225569
0.000480493
8.87555e-05
1.39934e-05
1.84853e-06
4.70405e-07
1.49832e-06
8.06903e-06
4.02654e-05
0.000178293
0.000699498
0.00245001
0.00773579
0.0223044
0.00240561
0.00053026
9.88842e-05
1.50307e-05
1.82323e-06
4.05473e-07
1.23787e-06
6.71298e-06
3.37889e-05
0.000151253
0.0006021
0.00215166
0.00698059
0.0208051
0.00298842
0.000648823
0.000114509
1.64967e-05
2.42289e-06
1.14614e-06
2.16957e-06
8.27045e-06
3.78462e-05
0.000164982
0.000651206
0.00232018
0.00751308
0.0223
0.00400818
0.000829495
0.000139014
2.23793e-05
7.43577e-06
6.84489e-06
9.03167e-06
1.85122e-05
6.03984e-05
0.000232257
0.000867744
0.00297786
0.00930002
0.0265214
0.00544873
0.00110875
0.000205665
5.54827e-05
3.73046e-05
3.97422e-05
4.77804e-05
7.00043e-05
0.000146783
0.000426223
0.00138586
0.00437458
0.0127584
0.0340766
0.00768924
0.00177875
0.000483813
0.000221544
0.000180916
0.000193593
0.000228763
0.000302818
0.000485397
0.00101675
0.00261698
0.00715453
0.0188286
0.0461048
0.0122962
0.00392373
0.00160758
0.000928301
0.000763826
0.000796931
0.00093504
0.00120527
0.00172569
0.00288961
0.00578659
0.0130781
0.0301394
0.0666933
0.0236078
0.0104643
0.00543218
0.00344755
0.00279128
0.00282395
0.00327849
0.00418063
0.00571667
0.00850283
0.0141006
0.0262759
0.0518894
0.102498
0.0491416
0.0270816
0.0160896
0.0109208
0.00885456
0.0087594
0.0100256
0.0126345
0.0168748
0.0236789
0.0350748
0.0559519
0.0949231
0.166957
0.0995148
0.0624708
0.040671
0.0295739
0.0246299
0.0242218
0.0273359
0.0338239
0.0442058
0.0599605
0.0832724
0.118739
0.174969
0.271163
0.0537746
0.122889
0.266871
0.533902
1.01499
1.91568
0.0335172
0.0825655
0.191145
0.397943
0.767733
1.44265
0.0199856
0.0610107
0.161139
0.365808
0.748402
1.4994
0.0128007
0.0452133
0.131294
0.321796
0.715087
1.5751
0.00862133
0.0335365
0.105765
0.282191
0.687694
1.64478
0.00666439
0.0271581
0.0903278
0.257309
0.673107
1.711
0.00594227
0.0243555
0.0826907
0.245749
0.671341
1.7539
0.0060549
0.0243849
0.0825575
0.247692
0.682641
1.7724
0.00671765
0.0263022
0.0874131
0.257986
0.695512
1.74674
0.00832559
0.0311861
0.0993264
0.280066
0.716364
1.69016
0.0114637
0.0402503
0.119435
0.311579
0.733053
1.58359
0.0175727
0.0560452
0.151045
0.356392
0.756213
1.47169
0.0299316
0.0838908
0.200933
0.423204
0.805137
1.41359
0.0543833
0.130419
0.275445
0.520217
0.901333
1.46452
0.0984691
0.19872
0.36999
0.638433
1.04573
1.66315
0.175851
0.293772
0.476536
0.758024
1.21173
1.97925
0.12368
0.231086
0.41575
0.736226
1.31558
2.37989
0.0894932
0.188216
0.379734
0.75366
1.49491
2.93524
0.0687336
0.163354
0.370129
0.811589
1.72415
3.51414
0.0596424
0.15523
0.379542
0.879457
1.92577
3.95068
0.0575618
0.156896
0.396815
0.933979
2.04866
4.14873
0.0610834
0.166007
0.416093
0.961581
2.06211
4.06878
0.0695378
0.181459
0.436165
0.968339
1.99801
3.82766
0.0838891
0.205116
0.463108
0.971031
1.90467
3.51748
0.105074
0.236506
0.495471
0.973369
1.81178
3.2186
0.139275
0.285533
0.550867
1.00843
1.77672
3.02789
0.195594
0.365517
0.649833
1.1111
1.86329
3.09172
0.293525
0.499144
0.822048
1.32977
2.14815
3.50769
0.445218
0.693001
1.06777
1.65297
2.60756
4.24018
0.406528
0.694265
1.12732
1.81179
2.96206
4.93935
0.325876
0.582894
0.999382
1.72737
3.07211
5.54403
0.249687
0.474287
0.873369
1.64597
3.19555
6.21147
0.187711
0.381556
0.75934
1.54759
3.20606
6.51305
0.140516
0.305844
0.654784
1.41763
3.07794
6.51314
0.106067
0.245382
0.557327
1.25955
2.81045
6.10238
0.0827189
0.200856
0.477142
1.10925
2.51006
5.45996
0.0677717
0.170286
0.416582
0.979389
2.19316
4.73612
0.060016
0.152638
0.374793
0.878422
1.93066
4.10996
0.0596703
0.148461
0.356237
0.811197
1.73015
3.56066
0.0680179
0.157891
0.36035
0.780868
1.58035
3.13203
0.0878137
0.184646
0.385995
0.784935
1.49848
2.9203
0.125914
0.241696
0.458157
0.849895
1.56717
3.0146
0.187861
0.333608
0.584041
1.01076
1.77781
3.27076
0.0182873
0.0590225
0.167087
0.419168
0.939895
2.03
0.0216616
0.0631106
0.165306
0.388868
0.830346
1.7355
0.025946
0.0662911
0.164088
0.37056
0.774715
1.65437
0.0332265
0.0740762
0.17596
0.393066
0.844938
1.75544
0.130259
0.258685
0.549594
1.05706
1.87131
3.40007
0.082823
0.204831
0.480344
0.946797
1.76153
3.42158
0.0563426
0.165579
0.400912
0.802344
1.56274
3.34816
0.041104
0.128691
0.316624
0.663506
1.39681
3.26912
0.0308751
0.0971411
0.244417
0.54534
1.25234
3.17796
0.0229079
0.0720682
0.186979
0.453111
1.13588
3.02757
0.0166978
0.05354
0.146564
0.386674
1.03491
2.78766
0.0122819
0.0409185
0.12065
0.342846
0.942329
2.47472
0.00998613
0.0345792
0.108273
0.319023
0.86217
2.15035
0.00961782
0.0335551
0.105953
0.305111
0.781787
1.82764
0.0108544
0.036425
0.10948
0.294275
0.700899
1.54305
0.0134653
0.0414783
0.114736
0.284242
0.632191
1.33458
0.0169113
0.0462749
0.119673
0.279533
0.594846
1.25942
0.0211187
0.0511256
0.128449
0.296666
0.642579
1.33711
2.71823
8.47591
28.1153
24.3306
17.2289
3.11047
9.93566
29.5169
23.2499
16.5934
3.58753
11.335
29.5765
22.7116
16.7449
3.97968
12.633
29.1436
23.0437
17.4683
4.25272
13.4816
28.1013
23.2116
18.0067
4.30378
13.1951
26.0339
22.8364
18.1602
4.19294
11.823
22.7957
22.0334
18.5383
3.89574
10.0582
19.5358
21.7913
19.316
22.2606
3.47478
8.30582
16.5073
21.6231
20.0102
23.8831
2.98177
6.75887
13.6984
20.6994
19.7317
24.6517
2.52773
5.50508
11.68
19.2906
18.3193
24.1655
33.4412
2.2326
4.82848
10.8745
18.2412
16.391
21.7418
38.1714
42.9462
2.2147
5.05882
11.8514
17.9788
15.2519
18.1237
37.007
96.9968
2.56683
6.41354
14.7714
18.2226
15.4798
16.9906
22.5542
74.8986
3.27032
8.61216
18.3191
18.0198
15.6272
17.4006
21.9514
75.305
4.24527
10.8422
20.2465
17.229
15.3954
18.2808
23.0651
65.5205
5.468
12.9943
21.302
17.1873
16.0337
19.6132
23.6694
55.4044
6.55981
14.5285
21.9443
18.2278
17.3878
21.2062
22.6466
39.3907
7.24789
14.9643
21.9912
19.4642
18.6487
22.5927
22.9654
30.698
7.42058
14.3461
21.4707
20.5669
19.495
23.8899
24.0442
24.8062
7.08922
12.9583
20.4289
21.6325
20.5202
25.6008
26.4199
20.2981
6.49596
11.6996
20.0581
23.1712
21.5888
27.6343
30.0057
17.8756
5.7633
10.69
20.0738
24.2637
22.336
29.5387
5.15855
10.1151
20.7905
24.0231
21.8484
30.5222
4.82836
10.1446
22.0161
22.2354
20.0144
30.2143
4.95445
11.2147
23.7052
19.8783
17.5589
27.3173
5.63532
13.4204
25.1894
17.6623
15.7057
23.0831
6.83384
16.5192
25.9727
16.5779
15.0748
8.25389
19.8388
25.7549
16.504
15.5163
9.76295
22.7782
24.7265
16.8177
15.9553
11.2863
25.1
24.1056
17.6899
17.0258
12.0847
25.2336
24.0307
19.5616
18.5769
12.5367
23.2235
23.8797
21.5326
19.8291
11.952
19.8562
23.0518
23.1723
20.4836
10.572
16.5337
22.1702
24.6463
21.0226
8.92579
13.9163
22.3004
26.6429
21.53
7.49005
12.0402
23.6139
28.2544
21.4022
6.34036
10.7192
26.2531
28.3002
19.9837
5.49892
10.3444
29.6338
26.2302
18.04
5.06817
11.5119
32.9924
23.8391
16.5124
5.17363
14.1245
35.4907
22.2662
16.0477
5.74956
17.7623
35.5328
22.3261
16.6282
6.45427
21.2465
34.4208
22.9276
17.0724
7.15669
24.4006
33.0366
22.704
17.0531
8.06734
26.3758
32.0892
22.4735
17.4667
8.79433
25.8266
31.1087
23.1455
18.4407
9.15549
23.5417
29.4913
23.7169
19.1468
8.83325
19.8645
26.6517
23.8708
19.5801
7.88684
15.9172
22.8448
23.7293
20.0668
6.63002
12.5147
19.2712
24.0674
20.5281
5.38153
9.79103
16.2939
24.5817
20.7057
4.28227
7.59863
14.0167
24.5544
19.9111
3.39455
5.97249
13.0015
24.031
18.5819
2.75299
5.08817
14.0826
23.7553
17.5585
2.43327
5.25752
17.8232
23.931
17.4094
2.45574
6.59624
23.4346
24.4276
17.6295
0.00928051
0.00367484
0.00184008
0.0010978
0.000783914
0.000641537
0.000600681
0.00061434
0.000761373
0.00128652
0.00297957
0.00810496
0.0218887
0.0541595
0.00416362
0.000981631
0.000295643
0.000145452
0.00010167
8.41432e-05
8.11033e-05
8.99353e-05
0.000149946
0.000416656
0.00143419
0.00479016
0.0142372
0.0369381
0.00227959
0.000420898
7.12118e-05
1.77222e-05
9.20096e-06
7.34932e-06
8.07164e-06
1.49945e-05
5.25298e-05
0.000219985
0.000862762
0.00300154
0.00916948
0.0246656
0.0017741
0.000354012
6.03375e-05
9.33311e-06
1.51821e-06
5.75964e-07
1.21343e-06
5.69265e-06
2.87594e-05
0.000131332
0.000528917
0.0018825
0.00594976
0.0168455
0.00173456
0.000374056
6.94779e-05
1.09567e-05
1.38081e-06
2.19228e-07
5.67017e-07
3.35854e-06
1.80105e-05
8.49975e-05
0.000353215
0.00130081
0.00428243
0.012764
0.00196101
0.000429637
7.91505e-05
1.19249e-05
1.4257e-06
2.42795e-07
4.82284e-07
2.56595e-06
1.36421e-05
6.5169e-05
0.000275993
0.00104068
0.00352951
0.0109255
0.00253492
0.000540847
9.34968e-05
1.32823e-05
1.95975e-06
8.95558e-07
1.2133e-06
3.29563e-06
1.40108e-05
6.35302e-05
0.000266589
0.00100839
0.00344993
0.0107995
0.00347175
0.000704007
0.000114722
1.80833e-05
6.15933e-06
5.87348e-06
7.0771e-06
1.06322e-05
2.53197e-05
8.83203e-05
0.000337579
0.00122463
0.00406973
0.0123761
0.00480232
0.00095065
0.000167567
4.35785e-05
3.03286e-05
3.38663e-05
4.04663e-05
5.23777e-05
8.41577e-05
0.000193698
0.000584815
0.00188734
0.005816
0.0165249
0.00685067
0.0014998
0.000374009
0.000166809
0.000142427
0.000160379
0.000192876
0.000245305
0.000345473
0.000596932
0.00133892
0.00354536
0.00958779
0.0245762
0.0108184
0.00316855
0.00119755
0.000680973
0.000583749
0.000640479
0.000771166
0.000985923
0.00133939
0.0020269
0.00362887
0.00773162
0.0177538
0.0402758
0.0201691
0.00822478
0.00400461
0.00249367
0.00208105
0.00220894
0.00264287
0.00339342
0.00456452
0.00651424
0.0101612
0.0179996
0.0348448
0.0693879
0.0411195
0.0211855
0.0118834
0.00786774
0.00649766
0.00670857
0.00793371
0.0101646
0.0135957
0.0188665
0.02728
0.0423178
0.0703234
0.123446
0.083328
0.0493676
0.0303626
0.0213886
0.0178892
0.0182092
0.0212654
0.0270001
0.0357748
0.0487443
0.067438
0.0953015
0.13858
0.212771
0.00306471
0.0014996
0.000937213
0.000600312
0.000404625
0.000296808
0.000244185
0.00021338
0.000213047
0.000291936
0.000663269
0.00205765
0.00658132
0.0191595
0.00113137
0.0002942
0.000123528
7.09855e-05
4.60877e-05
3.38179e-05
2.85958e-05
2.61781e-05
3.25351e-05
8.1095e-05
0.000317838
0.00126642
0.00446968
0.0136082
0.000690075
0.000131629
2.52255e-05
7.18499e-06
3.46948e-06
2.43454e-06
2.20907e-06
2.93525e-06
9.24092e-06
4.51274e-05
0.000213125
0.000879283
0.00313228
0.00966146
0.000738026
0.000150408
2.58657e-05
3.99257e-06
5.93073e-07
1.44385e-07
1.80539e-07
8.54652e-07
5.29294e-06
2.96464e-05
0.000143175
0.00059686
0.0021615
0.00685731
0.000896741
0.000187829
3.32455e-05
5.03372e-06
6.16276e-07
6.56692e-08
7.17755e-08
5.19409e-07
3.47218e-06
1.99017e-05
9.80431e-05
0.000418394
0.00156107
0.00515244
0.00114807
0.000237101
4.03451e-05
5.69048e-06
6.53929e-07
8.39599e-08
7.88252e-08
4.04776e-07
2.56742e-06
1.47071e-05
7.3225e-05
0.000317961
0.00121725
0.00417013
0.00158654
0.00031585
4.99532e-05
6.52263e-06
8.81919e-07
3.5355e-07
3.81872e-07
6.73381e-07
2.45786e-06
1.2378e-05
6.05414e-05
0.000265383
0.00103872
0.0036775
0.00225951
0.000427009
6.2518e-05
8.56438e-06
2.58809e-06
2.454e-06
2.85859e-06
3.50856e-06
5.72525e-06
1.6158e-05
6.49995e-05
0.000271803
0.00105692
0.00375242
0.00321652
0.000582425
8.57696e-05
1.81317e-05
1.26648e-05
1.47965e-05
1.78119e-05
2.14967e-05
2.80437e-05
4.64371e-05
0.000116685
0.000393149
0.0013988
0.00470011
0.00460701
0.000844931
0.000158715
6.40022e-05
6.10436e-05
7.34501e-05
9.02575e-05
0.000111607
0.000142557
0.000198472
0.000344047
0.000819412
0.00237203
0.00700134
0.00683036
0.00148751
0.000441887
0.000258711
0.000257875
0.000307617
0.000382284
0.000483266
0.000623889
0.000834658
0.00122833
0.00222511
0.005005
0.0123517
0.0113492
0.00343219
0.0014589
0.000970844
0.000949359
0.00111164
0.001386
0.00177613
0.00231675
0.00307456
0.00423641
0.00654732
0.0118837
0.0243707
0.0213312
0.00886381
0.00455936
0.00321047
0.00307252
0.0035302
0.00438992
0.00565093
0.00739968
0.00980472
0.0131652
0.0186731
0.0290142
0.0505437
0.043427
0.0221517
0.0126412
0.00933205
0.00885995
0.0100339
0.0123995
0.0159202
0.0207872
0.0274254
0.0363218
0.0489226
0.0678848
0.101221
0.000813234
0.000392785
0.000249004
0.000160211
0.000104299
7.00172e-05
5.39477e-05
4.4299e-05
3.9814e-05
4.46816e-05
9.4219e-05
0.000333654
0.00128516
0.0045129
0.000279415
6.66766e-05
2.71282e-05
1.56471e-05
9.83501e-06
6.57297e-06
5.20125e-06
4.39014e-06
4.5683e-06
9.79095e-06
4.36124e-05
0.000210571
0.000893252
0.00323474
0.000228091
4.25928e-05
7.24846e-06
1.57521e-06
5.93499e-07
3.48467e-07
2.86194e-07
3.15702e-07
9.16623e-07
5.31497e-06
3.09164e-05
0.00015467
0.000656556
0.00237211
0.000306591
6.05308e-05
1.00907e-05
1.45095e-06
1.88621e-07
2.48773e-08
1.29044e-08
6.73964e-08
5.39431e-07
3.7979e-06
2.24956e-05
0.000112473
0.000478004
0.0017397
0.000414354
8.21479e-05
1.3962e-05
1.96301e-06
2.33488e-07
2.26188e-08
6.35302e-09
4.57351e-08
3.87384e-07
2.75297e-06
1.64052e-05
8.2624e-05
0.000354844
0.00131288
0.000568934
0.00010922
1.77874e-05
2.31208e-06
2.53968e-07
2.91745e-08
1.34164e-08
4.2942e-08
2.98195e-07
2.07082e-06
1.23624e-05
6.27588e-05
0.000273055
0.00103139
0.000826974
0.000152132
2.30729e-05
2.74459e-06
3.23834e-07
1.06688e-07
1.05959e-07
1.37648e-07
3.4245e-07
1.72851e-06
9.78975e-06
4.96819e-05
0.000219691
0.000854712
0.00122045
0.000212929
2.95562e-05
3.46209e-06
8.02515e-07
7.29814e-07
8.66437e-07
1.00153e-06
1.27105e-06
2.53153e-06
9.48517e-06
4.40581e-05
0.000195164
0.000782962
0.00178664
0.000296184
3.89245e-05
6.10445e-06
3.76001e-06
4.60617e-06
5.70111e-06
6.73491e-06
7.94464e-06
1.03157e-05
1.92716e-05
6.0137e-05
0.000236368
0.000923921
0.00259256
0.000417572
6.08114e-05
1.87378e-05
1.88871e-05
2.43073e-05
3.06842e-05
3.73155e-05
4.48253e-05
5.48584e-05
7.61164e-05
0.000149013
0.000430141
0.0014509
0.00369752
0.000655723
0.000141284
7.59972e-05
8.47529e-05
0.000108724
0.000138701
0.000172609
0.000212239
0.000261575
0.000337433
0.000520885
0.00110069
0.00295963
0.00568539
0.00136483
0.000458508
0.000305951
0.000334068
0.00042027
0.000537573
0.000679152
0.000849777
0.00106243
0.00134909
0.00187532
0.00318744
0.00687516
0.00986264
0.0035416
0.00156511
0.00111984
0.00117144
0.00143197
0.00182033
0.00231329
0.00292219
0.00369599
0.00469692
0.00622763
0.00918714
0.0163454
0.0198071
0.00955558
0.00495081
0.00368683
0.00372047
0.0043999
0.00550659
0.00696613
0.00879715
0.0111689
0.0142344
0.0184876
0.0249829
0.0375125
0.000172051
6.0966e-05
3.3688e-05
2.17171e-05
1.42184e-05
9.98563e-06
7.94094e-06
6.61621e-06
5.66704e-06
5.13195e-06
7.97163e-06
2.87717e-05
0.000132507
0.000564636
8.35166e-05
1.45972e-05
3.44088e-06
1.59731e-06
9.69927e-07
6.89909e-07
5.75197e-07
4.9642e-07
4.61919e-07
7.24518e-07
3.25414e-06
1.89388e-05
9.73204e-05
0.000422547
8.89609e-05
1.59804e-05
2.31049e-06
3.35535e-07
6.03819e-08
2.30173e-08
1.80322e-08
1.90519e-08
5.02585e-08
3.40992e-07
2.4582e-06
1.50441e-05
7.70113e-05
0.000331553
0.000127311
2.44616e-05
3.72986e-06
5.20555e-07
6.17032e-08
6.34977e-09
7.81215e-10
2.7586e-09
2.93781e-08
2.64374e-07
1.95075e-06
1.19051e-05
6.06564e-05
0.000260594
0.000177544
3.42449e-05
5.17076e-06
6.99539e-07
7.83241e-08
7.60361e-09
8.5358e-10
2.22247e-09
2.30323e-08
2.07519e-07
1.53583e-06
9.40266e-06
4.80897e-05
0.000207713
0.000245994
4.67167e-05
6.65754e-06
8.22099e-07
8.3888e-08
9.19866e-09
3.0238e-09
4.20542e-09
2.05662e-08
1.6569e-07
1.21376e-06
7.44848e-06
3.83293e-05
0.000167141
0.000351339
6.56603e-05
8.68406e-06
9.60237e-07
9.96027e-08
2.8407e-08
2.7282e-08
3.09259e-08
4.51718e-08
1.60359e-07
9.9026e-07
5.95184e-06
3.08056e-05
0.000136505
0.000498351
9.09565e-05
1.11323e-05
1.15276e-06
2.12303e-07
1.86621e-07
2.26444e-07
2.59393e-07
2.91699e-07
3.99492e-07
1.08754e-06
5.17816e-06
2.5978e-05
0.000117107
0.000687736
0.000122952
1.43542e-05
1.77222e-06
9.42055e-07
1.20655e-06
1.52656e-06
1.79733e-06
2.0277e-06
2.30385e-06
3.16319e-06
7.57533e-06
2.96371e-05
0.0001278
0.000928554
0.000165052
2.04923e-05
4.75418e-06
4.8604e-06
6.62731e-06
8.51222e-06
1.0275e-05
1.18935e-05
1.35136e-05
1.59946e-05
2.40374e-05
5.8916e-05
0.000205436
0.00123871
0.000235121
4.01351e-05
1.89264e-05
2.28325e-05
3.10223e-05
4.0118e-05
4.93899e-05
5.85197e-05
6.78983e-05
7.93825e-05
0.000103468
0.000184103
0.000483402
0.00176983
0.000431121
0.000120992
8.01131e-05
9.4938e-05
0.000125792
0.000162561
0.00020277
0.000244608
0.000289789
0.000342633
0.000427545
0.000639232
0.00132371
0.00297225
0.00106432
0.000432853
0.000318504
0.000354385
0.000450627
0.000575867
0.000721458
0.000880358
0.0010612
0.00127527
0.00157381
0.00212874
0.00364785
0.00627733
0.00300606
0.00151978
0.0011654
0.00121417
0.00146102
0.00181914
0.00226088
0.00276598
0.00337168
0.00411378
0.00509404
0.00652505
0.0096113
3.39704e-05
7.87703e-06
2.87411e-06
1.67017e-06
1.09125e-06
7.9974e-07
7.0269e-07
6.33206e-07
5.56592e-07
4.63518e-07
5.20652e-07
1.71149e-06
9.30482e-06
4.76694e-05
2.01348e-05
3.5328e-06
5.16982e-07
9.89734e-08
4.14469e-08
3.0564e-08
3.09265e-08
3.14011e-08
3.11541e-08
4.06091e-08
1.6914e-07
1.1679e-06
7.2333e-06
3.752e-05
2.46813e-05
5.01538e-06
7.9497e-07
1.03497e-07
1.29522e-08
1.53101e-09
4.59041e-10
5.96336e-10
1.87526e-09
1.49221e-08
1.32069e-07
9.8496e-07
6.06955e-06
3.11383e-05
3.57428e-05
7.62555e-06
1.27923e-06
1.71356e-07
2.13436e-08
2.15283e-09
1.98487e-10
1.0549e-10
1.05489e-09
1.18534e-08
1.09157e-07
8.17931e-07
5.04414e-06
2.5889e-05
4.99992e-05
1.06924e-05
1.79714e-06
2.32487e-07
2.75146e-08
2.6082e-09
2.41373e-10
1.0343e-10
8.61553e-10
9.69713e-09
9.00631e-08
6.79902e-07
4.22016e-06
2.17956e-05
6.888e-05
1.44599e-05
2.34427e-06
2.78874e-07
3.02101e-08
2.91905e-09
6.39816e-10
5.27635e-10
1.12299e-09
8.24094e-09
7.37663e-08
5.59184e-07
3.50057e-06
1.82475e-05
9.61888e-05
1.97046e-05
3.04477e-06
3.28603e-07
3.41171e-08
6.26813e-09
4.88705e-09
5.14344e-09
5.67376e-09
1.13049e-08
6.42031e-08
4.59893e-07
2.88282e-06
1.51895e-05
0.000132295
2.62781e-05
3.85612e-06
3.87445e-07
5.48636e-08
3.42467e-08
3.95652e-08
4.37417e-08
4.59878e-08
5.10548e-08
9.37232e-08
4.1571e-07
2.40738e-06
1.26776e-05
0.000176284
3.39646e-05
4.80099e-06
5.19874e-07
1.86614e-07
2.18772e-07
2.69947e-07
3.06751e-07
3.30002e-07
3.4797e-07
3.96933e-07
7.15128e-07
2.6463e-06
1.26453e-05
0.000230375
4.36362e-05
6.33842e-06
1.08882e-06
9.13822e-07
1.23438e-06
1.54999e-06
1.80233e-06
1.99014e-06
2.13588e-06
2.29881e-06
2.83905e-06
5.61061e-06
1.92823e-05
0.000297417
5.86536e-05
1.04912e-05
3.74866e-06
4.36916e-06
6.00391e-06
7.60439e-06
9.01832e-06
1.01902e-05
1.11903e-05
1.21604e-05
1.39518e-05
2.04558e-05
4.93604e-05
0.000414363
9.99877e-05
2.7035e-05
1.54819e-05
1.87535e-05
2.54002e-05
3.22918e-05
3.89046e-05
4.48151e-05
5.02891e-05
5.57291e-05
6.33512e-05
8.20785e-05
0.000155468
0.000697651
0.000238661
9.22473e-05
6.2755e-05
7.22896e-05
9.47837e-05
0.000120115
0.000146257
0.000171078
0.000195772
0.000221702
0.000254317
0.000309966
0.000491383
0.00154269
0.00069061
0.00033085
0.000238753
0.000254891
0.00031742
0.00039616
0.000483626
0.000571646
0.000665284
0.0007697
0.000898869
0.00106803
0.00148543
6.31996e-06
1.18788e-06
2.59128e-07
1.05588e-07
6.89762e-08
5.81684e-08
6.12689e-08
6.36001e-08
6.12294e-08
5.1833e-08
4.80481e-08
1.39267e-07
8.57638e-07
5.01424e-06
4.26571e-06
8.13445e-07
1.27826e-07
1.70627e-08
3.14511e-09
1.77978e-09
2.27378e-09
2.97128e-09
3.48175e-09
4.19259e-09
1.34119e-08
9.94133e-08
6.99556e-07
4.10479e-06
5.66191e-06
1.22991e-06
2.20332e-07
3.14041e-08
3.997e-09
4.76177e-10
1.19372e-10
1.36739e-10
2.42122e-10
1.0784e-09
9.84956e-09
8.49266e-08
6.0187e-07
3.51903e-06
8.3304e-06
1.87494e-06
3.50098e-07
5.1696e-08
6.52274e-09
6.95914e-10
6.67432e-11
1.63746e-11
6.41889e-11
7.36975e-10
7.99014e-09
7.04511e-08
5.0436e-07
2.97874e-06
1.16201e-05
2.60352e-06
4.82405e-07
6.97225e-08
8.37165e-09
8.43789e-10
7.71814e-11
1.5095e-11
4.87972e-11
5.86698e-10
6.509e-09
5.83268e-08
4.23972e-07
2.54053e-06
1.57883e-05
3.44983e-06
6.13011e-07
8.29989e-08
9.15096e-09
8.94679e-10
1.36536e-10
8.13063e-11
1.0448e-10
5.25929e-10
5.29687e-09
4.78021e-08
3.53172e-07
2.15126e-06
2.16087e-05
4.57836e-06
7.71537e-07
9.64289e-08
9.90889e-09
1.36925e-09
7.72635e-10
7.72946e-10
7.87364e-10
1.0941e-09
4.91748e-09
3.96919e-08
2.93376e-07
1.80971e-06
2.91593e-05
5.96388e-06
9.51518e-07
1.1115e-07
1.3137e-08
5.56659e-09
6.02525e-09
6.55556e-09
6.71708e-09
6.89255e-09
9.81985e-09
3.80655e-08
2.46864e-07
1.50828e-06
3.80386e-05
7.50966e-06
1.14597e-06
1.35733e-07
3.34484e-08
3.42148e-08
4.18108e-08
4.678e-08
4.91657e-08
5.01437e-08
5.28121e-08
7.94757e-08
2.74826e-07
1.4502e-06
4.85319e-05
9.32627e-06
1.42161e-06
2.27701e-07
1.49834e-07
1.9882e-07
2.48529e-07
2.83778e-07
3.05577e-07
3.18627e-07
3.28634e-07
3.71963e-07
6.34536e-07
2.13454e-06
6.06243e-05
1.18419e-05
2.0791e-06
6.5379e-07
7.28034e-07
1.01197e-06
1.27494e-06
1.4815e-06
1.63004e-06
1.73873e-06
1.82226e-06
1.98355e-06
2.59522e-06
5.76486e-06
8.11261e-05
1.85335e-05
4.6799e-06
2.57729e-06
3.24667e-06
4.504e-06
5.69656e-06
6.71852e-06
7.52984e-06
8.20078e-06
8.77801e-06
9.59252e-06
1.1465e-05
2.00633e-05
0.000133408
4.19016e-05
1.52216e-05
1.04869e-05
1.29798e-05
1.76581e-05
2.23488e-05
2.6687e-05
3.0399e-05
3.3768e-05
3.6962e-05
4.10007e-05
4.7095e-05
7.00783e-05
0.000299806
0.000122165
5.51635e-05
4.05172e-05
4.69773e-05
6.16528e-05
7.75862e-05
9.34139e-05
0.000107845
0.000121994
0.000136545
0.000154633
0.000175715
0.000233643
1.27071e-06
2.42419e-07
4.97584e-08
1.68758e-08
1.03831e-08
9.40563e-09
1.06914e-08
1.18362e-08
1.19957e-08
1.03531e-08
8.02754e-09
1.41882e-08
8.29824e-08
5.25233e-07
9.31419e-07
1.86466e-07
3.16416e-08
4.62412e-09
8.16868e-10
4.18732e-10
5.47678e-10
7.50205e-10
9.08742e-10
9.57745e-10
1.5548e-09
9.20727e-09
6.94012e-08
4.44417e-07
1.30974e-06
2.93003e-07
5.53989e-08
8.62296e-09
1.17309e-09
1.48868e-10
3.85105e-11
4.29447e-11
6.24248e-11
1.31456e-10
8.65463e-10
7.88277e-09
6.12398e-08
3.92023e-07
1.94877e-06
4.48517e-07
8.76659e-08
1.40193e-08
1.89626e-09
2.16403e-10
2.30191e-11
6.295e-12
9.48487e-12
6.17086e-11
6.80156e-10
6.58683e-09
5.19878e-08
3.3787e-07
2.71051e-06
6.18912e-07
1.19496e-07
1.86552e-08
2.42142e-09
2.61803e-10
2.57783e-11
5.3513e-12
6.52531e-12
4.79547e-11
5.55557e-10
5.49347e-09
4.42045e-08
2.92978e-07
3.6335e-06
8.05143e-07
1.48439e-07
2.17312e-08
2.62289e-09
2.70472e-10
3.53554e-11
1.65123e-11
1.65873e-11
4.82579e-11
4.57529e-10
4.52908e-09
3.71735e-08
2.51727e-07
4.87395e-06
1.0413e-06
1.8116e-07
2.44896e-08
2.76123e-09
3.42774e-10
1.41832e-10
1.31687e-10
1.28751e-10
1.45783e-10
4.69214e-10
3.81396e-09
3.11648e-08
2.1425e-07
6.44304e-06
1.32315e-06
2.17149e-07
2.73646e-08
3.31231e-09
1.05167e-09
1.03264e-09
1.09512e-09
1.09546e-09
1.06771e-09
1.27406e-09
3.95892e-09
2.65181e-08
1.79296e-07
8.25091e-06
1.63151e-06
2.55324e-07
3.19522e-08
6.85069e-09
6.01577e-09
7.18944e-09
7.87698e-09
8.08189e-09
7.97074e-09
7.92028e-09
1.01654e-08
3.06437e-08
1.6962e-07
1.0357e-05
1.98631e-06
3.07212e-07
4.8545e-08
2.76122e-08
3.52545e-08
4.35555e-08
4.86859e-08
5.11162e-08
5.16457e-08
5.11885e-08
5.36577e-08
7.86787e-08
2.45886e-07
1.26962e-05
2.44815e-06
4.21892e-07
1.25224e-07
1.33462e-07
1.84104e-07
2.29472e-07
2.60917e-07
2.79652e-07
2.89106e-07
2.91787e-07
3.00645e-07
3.53662e-07
6.97429e-07
1.64812e-05
3.61308e-06
8.66334e-07
4.75249e-07
6.08146e-07
8.46205e-07
1.05893e-06
1.22168e-06
1.33287e-06
1.4062e-06
1.44886e-06
1.51004e-06
1.67025e-06
2.63095e-06
2.64203e-05
7.74774e-06
2.68686e-06
1.92583e-06
2.49231e-06
3.43415e-06
4.30715e-06
5.03452e-06
5.58255e-06
6.00341e-06
6.31913e-06
6.70727e-06
7.25623e-06
9.92554e-06
5.96317e-05
2.24045e-05
9.69994e-06
7.45098e-06
9.20485e-06
1.23966e-05
1.5528e-05
1.83318e-05
2.06115e-05
2.2563e-05
2.4269e-05
2.6316e-05
2.84593e-05
3.54859e-05
2.21918e-07
4.31994e-08
9.07096e-09
3.03689e-09
1.93278e-09
1.89561e-09
2.2803e-09
2.63799e-09
2.77831e-09
2.46599e-09
1.77714e-09
1.75257e-09
7.42071e-09
4.93361e-08
1.78809e-07
3.69973e-08
6.62235e-09
1.04653e-09
1.95631e-10
1.02378e-10
1.36648e-10
1.91912e-10
2.38222e-10
2.4559e-10
2.48516e-10
8.22929e-10
6.21589e-09
4.31292e-08
2.67292e-07
6.09382e-08
1.19446e-08
1.9744e-09
2.88534e-10
4.03325e-11
1.24748e-11
1.39617e-11
1.88562e-11
2.54601e-11
7.91751e-11
6.66018e-10
5.60281e-09
3.91232e-08
4.05202e-07
9.47175e-08
1.90976e-08
3.2162e-09
4.65919e-10
5.76102e-11
8.05333e-12
3.57052e-12
3.76827e-12
7.5584e-12
5.48257e-11
5.55299e-10
4.80608e-09
3.42838e-08
5.65151e-07
1.30838e-07
2.5994e-08
4.26769e-09
5.95434e-10
6.96525e-11
8.71313e-12
3.16651e-12
2.92264e-12
5.7707e-12
4.46114e-11
4.64149e-10
4.11239e-09
3.00888e-08
7.49641e-07
1.67811e-07
3.17743e-08
4.90915e-09
6.41682e-10
7.1027e-11
9.83233e-12
4.60309e-12
4.23239e-12
6.26862e-12
3.73488e-11
3.82712e-10
3.46834e-09
2.60719e-08
9.8753e-07
2.1227e-07
3.78506e-08
5.42673e-09
6.62063e-10
7.85173e-11
2.37558e-11
1.97626e-11
1.87127e-11
1.87814e-11
4.23988e-11
3.25252e-10
2.91634e-09
2.23263e-08
1.28076e-06
2.63933e-07
4.43299e-08
5.9493e-09
7.35578e-10
1.73565e-10
1.44969e-10
1.4855e-10
1.4474e-10
1.35053e-10
1.43044e-10
3.63491e-10
2.48937e-09
1.86476e-08
1.61083e-06
3.19315e-07
5.10474e-08
6.72201e-09
1.23337e-09
8.70635e-10
1.0043e-09
1.07527e-09
1.07413e-09
1.02157e-09
9.6756e-10
1.11014e-09
2.96666e-09
1.73144e-08
1.98644e-06
3.81062e-07
5.96322e-08
9.24975e-09
4.26222e-09
5.11383e-09
6.23298e-09
6.8131e-09
6.95806e-09
6.78958e-09
6.48176e-09
6.42437e-09
8.37772e-09
2.45477e-08
2.3808e-06
4.53998e-07
7.64431e-08
2.0684e-08
2.02203e-08
2.74988e-08
3.39115e-08
3.76949e-08
3.9279e-08
3.92619e-08
3.82377e-08
3.77313e-08
4.08853e-08
7.24146e-08
2.96714e-06
6.22181e-07
1.39739e-07
7.38401e-08
9.44193e-08
1.31151e-07
1.62387e-07
1.83077e-07
1.9414e-07
1.98177e-07
1.97032e-07
1.97364e-07
2.05027e-07
2.93739e-07
4.49989e-06
1.22208e-06
4.01737e-07
2.98073e-07
3.99502e-07
5.53935e-07
6.87721e-07
7.85716e-07
8.4701e-07
8.81601e-07
8.94663e-07
9.13287e-07
9.38479e-07
1.18955e-06
9.89726e-06
3.4154e-06
1.42631e-06
1.16174e-06
1.52065e-06
2.08239e-06
2.58744e-06
2.98809e-06
3.26737e-06
3.46065e-06
3.5846e-06
3.73504e-06
3.86146e-06
4.53426e-06
3.44682e-08
6.85023e-09
1.49504e-09
5.20954e-10
3.59888e-10
3.83662e-10
4.82884e-10
5.77489e-10
6.26002e-10
5.70411e-10
4.07615e-10
2.81798e-10
6.44914e-10
4.22152e-09
3.06845e-08
6.51799e-09
1.21759e-09
2.06206e-10
4.2808e-11
2.50844e-11
3.37868e-11
4.74901e-11
5.9472e-11
6.17748e-11
5.2345e-11
8.12654e-11
5.10763e-10
3.79827e-09
4.85599e-08
1.12426e-08
2.26585e-09
3.93416e-10
6.17716e-11
1.08071e-11
4.96135e-12
5.45289e-12
6.70488e-12
7.64422e-12
1.07573e-11
5.41096e-11
4.65612e-10
3.53473e-09
7.51791e-08
1.7815e-08
3.67846e-09
6.46163e-10
9.9279e-11
1.453e-11
3.79548e-12
2.78933e-12
2.81181e-12
3.09847e-12
6.31936e-12
4.43636e-11
4.02591e-10
3.14188e-09
1.0545e-07
2.47013e-08
5.01466e-09
8.58675e-10
1.26902e-10
1.72663e-11
3.93799e-12
2.6658e-12
2.57958e-12
2.75397e-12
5.41007e-12
3.7319e-11
3.45551e-10
2.77979e-09
1.38568e-07
3.1281e-08
6.04721e-09
9.79786e-10
1.36113e-10
1.74925e-11
4.02767e-12
2.81388e-12
2.71372e-12
2.82075e-12
4.91859e-12
3.10139e-11
2.91048e-10
2.41722e-09
1.79287e-07
3.87126e-08
7.04061e-09
1.06636e-09
1.38104e-10
1.78038e-11
5.50316e-12
4.48104e-12
4.2781e-12
4.1482e-12
5.63238e-12
2.68463e-11
2.44841e-10
2.07621e-09
2.28076e-07
4.71006e-08
8.06338e-09
1.14683e-09
1.45352e-10
2.83018e-11
1.94178e-11
1.9053e-11
1.81965e-11
1.6591e-11
1.62044e-11
3.20347e-11
2.09595e-10
1.72924e-09
2.81445e-07
5.58663e-08
9.0951e-09
1.25454e-09
2.04017e-10
1.11574e-10
1.21608e-10
1.27082e-10
1.23849e-10
1.14182e-10
1.04047e-10
1.09383e-10
2.57647e-10
1.57876e-09
3.40533e-07
6.5323e-08
1.034e-08
1.58271e-09
5.823e-10
6.39103e-10
7.65534e-10
8.19214e-10
8.15811e-10
7.71451e-10
7.11886e-10
6.73407e-10
7.94039e-10
2.1861e-09
3.98667e-07
7.5353e-08
1.24783e-08
3.04857e-09
2.652e-09
3.53146e-09
4.30746e-09
4.68983e-09
4.76499e-09
4.61841e-09
4.35108e-09
4.12604e-09
4.16405e-09
6.66789e-09
4.76569e-07
9.61009e-08
2.03237e-08
1.00565e-08
1.26636e-08
1.75015e-08
2.14566e-08
2.36945e-08
2.44955e-08
2.42518e-08
2.33129e-08
2.24693e-08
2.20439e-08
2.89062e-08
6.74957e-07
1.70153e-07
5.3231e-08
4.03911e-08
5.54995e-08
7.71232e-08
9.48421e-08
1.06119e-07
1.11497e-07
1.12528e-07
1.10271e-07
1.08259e-07
1.05895e-07
1.24931e-07
1.41154e-06
4.4929e-07
1.83556e-07