/*--------------------------------*- C++ -*----------------------------------*\
| =========                 |                                                 |
| \\      /  F ield         | OpenFOAM: The Open Source CFD Toolbox           |
|  \\    /   O peration     | Version:  v2106                                 |
|   \\  /    A nd           | Website:  www.openfoam.com                      |
|    \\/     M anipulation  |                                                 |
\*---------------------------------------------------------------------------*/
FoamFile
{
    version     2.0;
    format      ascii;
    arch        "LSB;label=32;scalar=64";
    class       volScalarField;
    location    "0.000176";
    object      p;
}
// * * * * * * * * * * * * * * * * * * * * * * * * * * * * * * * * * * * * * //

dimensions      [1 -1 -2 0 0 0 0];

internalField   nonuniform List<scalar> 
18109
(
214020
213966
213987
213912
213855
213774
213713
213856
213827
213869
213829
213798
213708
213623
213626
213663
213699
213685
213672
213594
213504
213300
213382
213436
213455
213457
213393
213294
212935
213021
213111
213160
213195
213156
213059
212524
212626
212747
212807
212848
212813
212712
212054
212194
212321
212376
212417
212384
212282
211575
211719
211848
211883
211909
211865
211759
214860
214894
214975
214961
214957
214910
214863
214771
214659
214528
214404
214205
214052
213723
214631
214687
214778
214810
214849
214825
214774
214666
214534
214357
214169
213893
213638
213211
214369
214488
214600
214665
214714
214702
214651
214539
214391
214195
213969
213668
213385
212972
214032
214187
214321
214418
214493
214503
214454
214344
214192
213989
213740
213406
213070
212640
213675
213823
214001
214130
214234
214266
214232
214130
213978
213770
213510
213162
212789
212343
213287
213447
213658
213792
213902
213940
213921
213829
213683
213475
213205
212849
212446
211989
212848
213055
213259
213392
213502
213546
213538
213456
213322
213120
212848
212498
212081
211621
212408
212624
212824
212935
213032
213067
213056
212983
212863
212675
212409
212078
211661
211219
211940
212123
212328
212412
212486
212508
212486
212425
212319
212153
211908
211609
211212
210806
211467
211581
211771
211814
211856
211857
211822
211770
211677
211535
211318
211069
210713
210375
210934
210956
211111
211130
211138
211129
211083
211037
210963
210861
210691
210510
210212
209992
210339
210335
210448
210427
210379
210340
210285
210244
210188
210118
209989
209885
209642
209557
209620
209597
209655
209641
209566
209539
209469
209416
209360
209306
209238
209217
209075
209065
208973
209038
209032
208966
208838
208760
208654
208589
208540
208517
208484
208477
208368
208385
213934
214047
214001
214031
213995
213804
214820
214947
214904
214925
214814
214757
214860
214888
214811
214651
214292
213825
214927
214883
214719
214424
213998
213379
214949
214884
214731
214367
213922
213015
214956
214881
214731
214390
213829
213125
214931
214885
214734
214435
213928
213469
214899
214901
214782
214544
214300
213958
214844
214883
214852
214737
214679
214561
214792
214892
214997
215082
215270
215453
214716
214894
215132
215419
215812
216264
214613
214879
215240
215683
216183
216772
214409
214736
215131
215635
216184
216885
214188
214534
214877
215324
215771
216391
213811
214099
214253
214526
214831
215348
213559
213805
213833
213945
213951
214065
212837
212839
212667
212618
212536
212523
212483
212252
211898
211644
211261
211099
212134
211743
211229
210785
210193
209882
211817
211326
210736
210135
209429
208927
211455
210884
210285
209545
208928
208296
211075
210468
209816
209166
208698
208136
210670
210068
209455
208953
208551
208289
210298
209712
209212
208906
208714
208797
209930
209435
209131
208989
209038
209282
209589
209236
209110
209060
209253
209577
209147
208968
208888
208893
209045
209357
208778
208601
208396
208276
208200
208253
208095
207743
207307
207014
206823
206528
207803
207526
207113
206589
205834
205017
207643
206995
206238
205377
204344
203291
207599
206789
205860
204806
203593
202368
207562
206660
205643
204439
203064
201736
207563
206620
205536
204329
202971
201660
207600
206634
205643
204531
203286
202129
207698
206766
205874
204904
203957
203000
207801
206962
206160
205398
204748
204031
207948
207204
206550
206137
205711
205478
208067
207453
206967
206721
206509
206517
208226
207732
207372
207218
207127
207225
208275
207908
207620
207436
207387
207373
208422
208102
207796
207537
207402
207228
208379
208123
207700
207261
206826
206495
213282
213439
213698
214138
214598
215234
213638
213855
214096
214481
214889
215432
213830
214056
214240
214536
214820
215166
213992
214215
214254
214360
214330
214431
208649
208318
207927
207524
206967
206256
209235
208794
208255
207582
206699
205693
209870
209349
208786
207950
207017
205916
210506
209970
209411
208613
207521
206427
211074
210570
210023
209247
208231
207269
211607
211161
210689
209996
209297
208494
212120
211772
211401
210960
210531
209987
212593
212370
212125
211957
211771
211657
213067
212958
212887
212967
213058
213355
213503
213502
213608
213844
214163
214699
213923
214001
214199
214561
214951
215563
214301
214448
214644
214999
215375
215914
214552
214728
214889
215169
215484
215779
214786
214970
215024
215165
215168
215292
213974
213962
214905
220162
228669
212871
212278
212699
217858
227893
212367
211360
212199
219113
233203
212143
210993
212150
219373
232385
212389
211350
212867
219343
228967
212821
212081
213405
219100
225918
213675
213444
215416
221878
230910
214672
215203
217565
223628
232449
244294
215950
216979
219438
223856
229519
238001
217057
218674
221449
225617
231172
237790
217853
219944
223268
227871
234849
243138
249107
218087
220542
224482
230307
239308
251248
265705
274834
217679
219934
224098
231024
243568
262229
290222
325326
216332
218254
222203
228943
241624
259054
283609
298748
214329
216080
219090
224662
234316
246379
259791
266873
212152
213290
215465
221641
232305
246867
255307
263656
210603
211045
213265
220789
234826
255495
277342
285481
208983
208987
211364
219158
232616
251647
271778
297446
207998
207775
210296
216755
226004
238482
252439
259672
207504
207247
209727
215923
224204
234972
241666
247198
207642
207788
210917
217639
228931
245290
258834
260408
208233
209091
212335
218255
227853
241429
257884
283250
209212
210685
213916
218402
223979
230490
210111
212051
215356
219654
225390
231889
210557
212619
216349
221637
229329
239636
210061
211647
215894
222563
233901
248203
208421
209623
213846
221961
238637
261146
206289
206854
210787
219130
236137
204157
203943
207435
215087
227065
202253
201582
204737
213041
225902
200778
199708
202790
211963
228719
199703
198344
200764
209326
224946
199392
197823
199416
205398
214394
200105
198745
200471
205683
213362
201661
200842
203385
209396
221124
203384
203303
206159
211205
220789
205266
205830
208567
212204
217343
206731
207787
210235
213965
218952
207658
208750
211372
215614
222738
207667
208358
211014
216040
227684
207154
207179
209641
215459
230483
206010
205539
207887
214494
229636
205149
204034
206198
212534
223667
204403
203117
204853
212022
224558
204308
202881
204823
213432
229999
204598
202954
204637
212818
227396
205594
203963
205301
211704
221116
207284
206007
207444
212576
219550
209375
208876
211047
216553
226668
211666
212090
214575
219481
229058
213802
214914
217305
220744
226447
215555
217146
219605
222776
228748
216621
218436
221099
225136
232760
216985
218626
221219
226973
237914
216460
217475
220095
226725
241410
215389
215936
217856
224142
238251
216859
216965
217130
217193
217257
217263
217247
217205
217173
217152
217155
217126
217114
216988
216567
216714
216853
216940
217025
217078
217088
217051
217023
216985
216928
216826
216724
216457
216197
216408
216602
216753
216865
216935
216956
216920
216876
216806
216719
216586
216444
216183
215783
216047
216264
216449
216586
216678
216723
216710
216673
216598
216491
216330
216144
215863
215373
215659
215909
216125
216288
216403
216474
216489
216462
216393
216279
216110
215897
215607
214956
215258
215529
215757
215937
216072
216171
216213
216199
216143
216027
215851
215616
215312
214545
214854
215138
215364
215551
215700
215811
215874
215881
215838
215729
215553
215302
214988
214147
214436
214730
214931
215111
215257
215366
215447
215472
215438
215334
215161
214894
214581
213716
213978
214271
214451
214613
214750
214849
214937
214973
214948
214852
214691
214417
214110
213286
213487
213760
213900
214026
214141
214229
214316
214358
214343
214250
214111
213841
213563
212784
212906
213153
213274
213367
213468
213535
213611
213659
213666
213593
213493
213222
213020
212239
212322
212511
212594
212628
212700
212743
212811
212869
212896
212839
212779
212488
212397
211541
211615
211762
211851
211864
211910
211919
211968
212012
212035
212013
212003
211788
211776
210967
211128
211150
211137
211082
211064
211034
211070
211127
211193
211216
211203
211049
210949
221350
221574
221770
221908
222034
222107
222167
222204
222249
222313
222425
222550
222702
222774
221020
221268
221446
221614
221749
221852
221932
221998
222063
222139
222234
222308
222365
222350
220575
220885
221086
221300
221459
221595
221696
221783
221857
221927
221999
222048
222077
222030
220165
220504
220720
220950
221125
221283
221410
221524
221621
221699
221756
221779
221766
221667
219736
220094
220339
220587
220783
220961
221112
221251
221372
221462
221514
221524
221493
221377
219340
219693
219969
220225
220437
220629
220800
220958
221102
221208
221259
221258
221209
221080
218966
219311
219608
219863
220084
220283
220467
220638
220797
220917
220971
220962
220896
220757
218617
218944
219247
219489
219704
219900
220087
220263
220429
220560
220614
220598
220516
220376
218249
218551
218849
219079
219276
219462
219641
219816
219979
220112
220162
220140
220040
219914
217887
218148
218411
218616
218780
218942
219106
219271
219426
219553
219593
219572
219451
219363
217422
217672
217885
218064
218193
218328
218469
218619
218767
218889
218925
218914
218758
218717
216950
217178
217323
217466
217544
217636
217743
217871
218009
218123
218147
218145
217926
217923
216331
216574
216681
216786
216803
216847
216918
217024
217152
217268
217314
217328
217132
217152
215846
216076
216085
216122
216069
216047
216066
216143
216268
216396
216434
216427
216258
216138
226218
226420
226653
226832
227016
227174
227324
227469
227625
227793
227981
228179
228386
228528
225830
226094
226307
226500
226685
226858
227026
227194
227367
227545
227734
227920
228089
228218
225433
225736
225948
226162
226358
226550
226736
226922
227111
227299
227488
227667
227823
227936
225064
225374
225594
225817
226020
226221
226422
226626
226831
227027
227215
227379
227513
227606
224707
225018
225255
225486
225697
225907
226120
226337
226554
226758
226943
227097
227208
227279
224387
224692
224943
225176
225392
225607
225827
226052
226277
226486
226666
226807
226896
226955
224097
224392
224651
224883
225101
225317
225539
225767
225994
226204
226377
226506
226581
226632
223839
224117
224370
224592
224803
225013
225232
225456
225680
225887
226051
226168
226231
226281
223571
223831
224070
224281
224479
224679
224886
225103
225319
225519
225670
225773
225820
225880
223301
223536
223745
223934
224108
224287
224479
224684
224889
225079
225215
225300
225319
225395
222953
223178
223356
223523
223670
223826
223997
224188
224379
224559
224680
224749
224731
224824
222622
222816
222939
223065
223167
223292
223439
223617
223797
223968
224071
224122
224052
224159
222161
222376
222455
222539
222597
222686
222807
222967
223134
223297
223391
223439
223365
223473
221813
221996
221986
222011
222002
222043
222132
222285
222451
222613
222682
222702
222616
222630
231195
231427
231634
231842
232041
232238
232431
232624
232825
233030
233247
233467
233698
233878
230832
231094
231305
231521
231733
231947
232162
232379
232602
232826
233053
233278
233490
233685
230492
230764
230982
231210
231435
231664
231897
232133
232372
232608
232841
233065
233273
233464
230190
230459
230686
230917
231148
231385
231629
231876
232125
232366
232596
232812
233006
233189
229929
230190
230422
230651
230884
231123
231373
231626
231879
232120
232344
232549
232729
232901
229699
229950
230182
230408
230638
230878
231128
231383
231635
231871
232085
232276
232441
232603
229499
229736
229965
230185
230412
230648
230895
231148
231394
231623
231824
232002
232151
232307
229319
229539
229757
229969
230189
230419
230660
230906
231144
231363
231551
231716
231852
232006
229141
229347
229549
229750
229959
230181
230412
230649
230877
231085
231259
231412
231536
231693
228967
229153
229330
229514
229708
229918
230137
230363
230578
230776
230936
231078
231187
231350
228782
228948
229096
229258
229429
229620
229824
230037
230240
230427
230575
230707
230797
230968
228622
228748
228846
228972
229111
229279
229468
229670
229863
230040
230175
230299
230365
230549
228400
228501
228565
228662
228765
228903
229070
229258
229437
229602
229726
229844
229903
230101
228293
228317
228307
228347
228396
228495
228641
228821
228996
229159
229275
229381
229426
229613
235212
235414
235594
235799
236014
236241
236477
236716
236953
237186
237408
237619
237823
238006
234961
235166
235348
235553
235774
236012
236263
236520
236776
237024
237256
237480
237678
237886
234737
234941
235126
235333
235559
235803
236062
236329
236594
236850
237087
237312
237516
237722
234558
234752
234938
235142
235368
235613
235876
236145
236410
236663
236895
237115
237315
237525
234408
234592
234777
234978
235201
235444
235703
235969
236227
236471
236692
236902
237096
237305
234285
234459
234640
234835
235053
235290
235542
235799
236045
236275
236480
236677
236861
237071
234184
234347
234522
234711
234922
235151
235393
235638
235869
236081
236269
236452
236626
236837
234098
234248
234415
234596
234799
235019
235249
235479
235694
235889
236059
236230
236395
236610
234022
234158
234313
234485
234679
234890
235107
235322
235520
235699
235855
236015
236173
236395
233955
234074
234213
234373
234557
234757
234962
235163
235345
235511
235655
235808
235961
236195
233906
234004
234118
234259
234428
234614
234806
234994
235164
235319
235455
235605
235752
235998
233863
233939
234019
234136
234285
234458
234639
234818
234979
235128
235258
235407
235549
235806
233822
233876
233925
234015
234137
234290
234458
234628
234781
234923
235048
235200
235340
235620
233822
233816
233812
233867
233960
234096
234257
234426
234580
234723
234850
234997
235138
235403
238029
238182
238326
238504
238701
238916
239141
239373
239597
239816
240019
240219
240414
240611
237905
238057
238199
238372
238570
238788
239020
239260
239495
239725
239936
240151
240343
240574
237804
237950
238093
238263
238460
238677
238910
239152
239390
239623
239839
240056
240259
240487
237731
237869
238010
238178
238373
238589
238821
239061
239296
239526
239740
239956
240159
240391
237679
237809
237947
238112
238303
238516
238743
238976
239203
239424
239631
239841
240044
240276
237650
237771
237906
238066
238251
238457
238674
238897
239110
239319
239514
239716
239918
240152
237643
237755
237884
238036
238215
238410
238616
238824
239023
239216
239399
239592
239792
240029
237653
237757
237878
238022
238189
238373
238565
238758
238940
239119
239290
239475
239673
239913
237677
237771
237883
238018
238174
238345
238522
238698
238865
239030
239190
239369
239567
239814
237709
237793
237893
238018
238164
238323
238485
238647
238800
238953
239104
239280
239480
239738
237759
237827
237910
238022
238157
238304
238454
238602
238742
238886
239032
239210
239412
239689
237806
237859
237921
238019
238141
238279
238420
238561
238694
238833
238978
239160
239367
239656
237855
237894
237940
238024
238133
238259
238392
238527
238655
238793
238936
239128
239339
239663
237880
237909
237931
238005
238101
238222
238354
238490
238623
238762
238909
239096
239321
239626
239798
239918
240030
240170
240323
240484
240649
240819
240983
241155
241315
241501
241686
241912
239816
239925
240029
240159
240303
240460
240623
240794
240963
241141
241310
241509
241695
241947
239824
239924
240025
240150
240291
240443
240601
240769
240936
241114
241290
241492
241689
241941
239846
239935
240031
240151
240288
240438
240594
240759
240926
241105
241285
241492
241695
241949
239875
239956
240047
240161
240292
240437
240591
240753
240919
241098
241280
241487
241697
241952
239917
239990
240075
240183
240307
240446
240594
240753
240916
241093
241276
241483
241699
241955
239973
240040
240118
240217
240333
240464
240606
240758
240917
241091
241274
241480
241703
241959
240042
240102
240171
240262
240371
240493
240627
240772
240926
241095
241278
241482
241712
241968
240123
240173
240236
240319
240419
240533
240658
240796
240944
241108
241291
241494
241732
241990
240211
240254
240309
240384
240476
240582
240699
240829
240972
241132
241316
241519
241767
242028
240303
240340
240386
240455
240540
240639
240750
240876
241016
241174
241360
241569
241824
242095
240389
240426
240462
240525
240604
240700
240808
240930
241069
241226
241415
241628
241894
242172
240473
240506
240535
240596
240673
240769
240878
241004
241144
241308
241500
241727
241993
242297
240527
240578
240596
240658
240736
240837
240951
241079
241220
241381
241572
241793
242070
242364
240822
240914
241003
241101
241203
241309
241418
241538
241658
241799
241935
242113
242289
242524
240921
240997
241072
241158
241249
241347
241449
241564
241683
241825
241972
242162
242348
242596
241001
241068
241137
241214
241296
241385
241481
241589
241704
241844
241993
242183
242378
242632
241084
241141
241201
241271
241345
241429
241519
241625
241741
241882
242037
242232
242436
242691
241166
241215
241268
241330
241398
241475
241563
241667
241786
241930
242092
242291
242503
242760
241252
241293
241339
241393
241454
241527
241613
241718
241840
241990
242159
242363
242583
242840
241342
241376
241414
241461
241517
241587
241673
241780
241907
242061
242240
242447
242677
242932
241439
241466
241497
241539
241591
241659
241745
241853
241985
242145
242332
242542
242782
243033
241538
241561
241587
241625
241676
241743
241830
241942
242080
242245
242440
242654
242903
243149
241643
241667
241688
241724
241773
241840
241930
242045
242188
242356
242560
242776
243035
243277
241743
241770
241789
241826
241877
241948
242043
242164
242315
242490
242701
242922
243186
243427
241850
241883
241899
241939
241993
242070
242170
242295
242449
242625
242842
243066
243337
243577
241953
241987
242004
242050
242109
242195
242305
242441
242605
242791
243012
243245
243513
243762
242050
242106
242122
242174
242241
242335
242452
242591
242755
242938
243154
243381
243653
243902
241495
241565
241621
241676
241734
241798
241869
241960
242058
242185
242316
242483
242644
242850
241622
241670
241714
241756
241802
241856
241919
242003
242100
242228
242368
242542
242711
242918
241732
241768
241802
241835
241872
241919
241975
242052
242145
242268
242407
242582
242759
242973
241840
241865
241890
241916
241945
241986
242037
242111
242203
242327
242469
242646
242829
243046
241947
241961
241978
241997
242022
242058
242109
242183
242278
242405
242552
242732
242920
243138
242054
242059
242069
242083
242104
242140
242192
242269
242369
242501
242655
242838
243031
243247
242158
242158
242163
242174
242195
242232
242289
242371
242480
242618
242780
242966
243164
243375
242266
242266
242267
242277
242299
242339
242403
242492
242609
242754
242925
243111
243314
243518
242370
242374
242375
242388
242414
242461
242533
242632
242759
242912
243089
243276
243482
243676
242483
242494
242496
242514
242547
242602
242683
242789
242926
243083
243266
243452
243661
243846
242590
242611
242617
242645
242687
242752
242846
242963
243109
243272
243459
243644
243851
244026
242711
242743
242754
242791
242843
242919
243021
243144
243296
243460
243648
243831
244038
244204
242823
242865
242884
242933
242995
243084
243199
243333
243492
243662
243851
244036
244235
244396
242945
243008
243033
243090
243163
243261
243381
243518
243675
243842
244025
244204
244399
244556
241724
241782
241824
241866
241909
241961
242021
242098
242186
242297
242419
242565
242709
242891
241853
241889
241922
241956
241992
242038
242093
242165
242250
242360
242482
242629
242774
242945
241973
241995
242022
242050
242080
242122
242173
242242
242324
242431
242549
242694
242840
243012
242092
242106
242126
242149
242176
242213
242261
242328
242409
242515
242633
242776
242923
243092
242213
242217
242234
242251
242276
242312
242360
242427
242510
242616
242736
242879
243027
243195
242335
242334
242348
242362
242387
242422
242471
242540
242626
242735
242858
243001
243152
243316
242454
242453
242465
242479
242505
242543
242597
242670
242761
242872
242999
243143
243295
243456
242577
242578
242591
242606
242637
242679
242739
242817
242913
243028
243159
243303
243458
243612
242696
242703
242717
242739
242776
242825
242894
242978
243082
243201
243337
243480
243635
243781
242819
242835
242852
242882
242927
242984
243061
243153
243263
243386
243526
243668
243825
243960
242935
242964
242985
243026
243080
243147
243235
243335
243454
243582
243726
243867
244021
244144
243059
243100
243128
243180
243242
243319
243414
243521
243645
243778
243923
244062
244213
244326
243172
243228
243263
243326
243397
243485
243590
243708
243840
243978
244124
244263
244407
244511
243298
243366
243410
243480
243559
243655
243766
243888
244021
244157
244299
244433
244572
244673
241676
241732
241775
241818
241860
241912
241971
242043
242126
242220
242322
242434
242540
242663
241808
241841
241873
241910
241948
241998
242055
242127
242209
242304
242407
242519
242626
242748
241930
241951
241979
242011
242046
242093
242149
242220
242302
242398
242500
242611
242717
242838
242055
242068
242092
242119
242153
242198
242254
242325
242407
242503
242605
242715
242822
242940
242181
242190
242212
242237
242271
242316
242373
242444
242526
242620
242722
242832
242938
243054
242310
242317
242340
242365
242401
242448
242506
242578
242660
242754
242855
242964
243071
243183
242438
242447
242472
242500
242540
242590
242651
242725
242809
242902
243002
243108
243214
243322
242566
242580
242610
242643
242688
242742
242808
242884
242970
243063
243163
243267
243374
243475
242689
242712
242746
242786
242838
242899
242971
243051
243140
243234
243334
243435
243541
243634
242809
242846
242884
242931
242992
243059
243137
243222
243314
243410
243512
243611
243717
243802
242924
242973
243016
243072
243140
243216
243302
243393
243490
243589
243692
243790
243894
243971
243039
243099
243149
243215
243290
243373
243464
243561
243662
243764
243869
243965
244069
244140
243143
243213
243270
243346
243428
243521
243620
243724
243832
243938
244045
244142
244242
244309
243252
243329
243396
243480
243569
243667
243771
243878
243989
244097
244203
244300
244397
244466
241240
241274
241313
241361
241411
241471
241538
241614
241697
241783
241873
241963
242048
242139
241374
241397
241431
241474
241524
241584
241652
241729
241813
241901
241991
242082
242166
242257
241508
241528
241563
241604
241654
241713
241780
241855
241938
242025
242113
242201
242283
242371
241644
241663
241698
241739
241791
241850
241917
241993
242075
242161
242248
242335
242416
242500
241781
241804
241842
241885
241938
241998
242065
242140
242221
242305
242390
242473
242552
242632
241922
241948
241989
242035
242091
242152
242222
242297
242376
242459
242542
242623
242699
242775
242061
242091
242138
242188
242248
242312
242383
242459
242538
242619
242699
242776
242850
242921
242201
242237
242286
242342
242406
242474
242549
242625
242705
242784
242863
242936
243008
243072
242332
242377
242430
242492
242561
242634
242712
242791
242872
242950
243027
243096
243166
243223
242460
242515
242572
242640
242714
242792
242874
242955
243037
243114
243189
243256
243324
243374
242581
242643
242705
242779
242859
242942
243028
243113
243197
243274
243348
243412
243479
243521
242694
242765
242834
242915
243000
243089
243178
243265
243349
243426
243500
243563
243629
243666
242794
242874
242948
243037
243129
243223
243317
243408
243495
243574
243648
243711
243775
243809
242890
242978
243062
243159
243256
243354
243450
243542
243630
243710
243784
243848
243908
243946
240687
240718
240760
240807
240859
240915
240977
241042
241110
241178
241245
241310
241371
241431
240822
240844
240888
240934
240987
241045
241109
241176
241245
241314
241382
241447
241506
241569
240961
240981
241028
241074
241129
241188
241252
241319
241386
241454
241520
241583
241638
241700
241096
241118
241167
241215
241274
241336
241402
241470
241539
241606
241670
241732
241786
241843
241229
241259
241310
241362
241424
241489
241557
241626
241694
241760
241823
241882
241934
241986
241364
241400
241453
241510
241576
241644
241715
241785
241854
241919
241980
242037
242088
242137
241494
241537
241594
241657
241727
241799
241872
241943
242011
242076
242135
242189
242239
242285
241624
241674
241735
241803
241877
241952
242027
242099
242167
242230
242289
242341
242390
242432
241747
241804
241870
241944
242021
242099
242176
242249
242318
242380
242437
242487
242535
242573
241869
241933
242004
242083
242163
242243
242321
242393
242462
242523
242581
242629
242677
242709
241982
242053
242129
242212
242295
242378
242458
242532
242601
242662
242719
242765
242814
242840
242092
242171
242253
242340
242426
242510
242591
242665
242734
242794
242850
242896
242945
242969
242191
242276
242363
242454
242545
242633
242717
242793
242864
242925
242981
243027
243074
243097
242284
242381
242476
242573
242667
242756
242841
242917
242987
243047
243103
243150
243195
243225
240033
240046
240080
240117
240164
240216
240271
240325
240380
240432
240482
240530
240576
240620
240179
240182
240217
240255
240305
240359
240415
240471
240524
240575
240623
240670
240713
240757
240312
240319
240358
240400
240453
240508
240565
240619
240671
240721
240767
240811
240850
240893
240440
240455
240496
240543
240599
240657
240716
240772
240824
240874
240918
240961
240999
241040
240560
240588
240634
240686
240746
240806
240866
240923
240976
241025
241069
241111
241148
241187
240683
240721
240771
240828
240891
240953
241015
241073
241128
241177
241222
241263
241301
241338
240803
240850
240906
240967
241033
241098
241161
241220
241275
241325
241370
241412
241449
241485
240927
240981
241041
241106
241173
241240
241304
241364
241420
241470
241516
241557
241597
241631
241046
241107
241172
241240
241310
241378
241443
241504
241560
241611
241658
241698
241739
241770
241168
241235
241303
241374
241445
241514
241579
241640
241697
241747
241795
241836
241878
241906
241282
241355
241428
241502
241575
241645
241712
241773
241831
241882
241930
241970
242014
242037
241400
241479
241555
241632
241706
241777
241843
241904
241962
242012
242060
242101
242147
242169
241507
241589
241671
241751
241829
241902
241972
242034
242093
242144
242193
242235
242281
242304
241622
241713
241798
241881
241960
242033
242102
242164
242221
242272
242320
242362
242408
242440
239493
239479
239496
239521
239555
239591
239628
239666
239704
239740
239777
239813
239848
239884
239628
239615
239636
239662
239696
239733
239771
239807
239843
239877
239910
239942
239972
240006
239749
239748
239774
239803
239838
239875
239911
239947
239980
240012
240041
240071
240097
240130
239870
239882
239911
239943
239978
240014
240051
240086
240119
240151
240179
240207
240232
240264
239987
240009
240042
240077
240114
240152
240189
240224
240257
240287
240315
240343
240368
240399
240108
240138
240173
240210
240249
240288
240326
240362
240395
240426
240455
240483
240509
240538
240225
240261
240301
240341
240381
240422
240460
240497
240531
240562
240592
240620
240648
240677
240343
240385
240428
240470
240513
240554
240594
240632
240667
240699
240731
240760
240790
240817
240458
240506
240552
240598
240642
240685
240726
240765
240801
240835
240867
240897
240929
240954
240576
240629
240678
240726
240772
240816
240858
240898
240935
240970
241005
241035
241070
241092
240691
240749
240801
240852
240900
240946
240990
241030
241069
241105
241141
241172
241209
241227
240813
240874
240928
240981
241031
241078
241122
241163
241202
241239
241277
241310
241349
241367
240928
240992
241049
241105
241158
241208
241254
241296
241337
241376
241414
241449
241490
241509
241062
241127
241185
241241
241294
241343
241389
241431
241471
241510
241548
241584
241626
241655
239239
239221
239222
239224
239231
239239
239248
239258
239271
239285
239302
239322
239345
239368
239355
239338
239341
239345
239353
239361
239370
239380
239391
239403
239417
239434
239450
239472
239460
239448
239455
239462
239471
239480
239489
239497
239506
239516
239526
239539
239552
239573
239566
239561
239570
239578
239587
239597
239605
239613
239621
239630
239639
239650
239661
239679
239665
239669
239681
239690
239700
239710
239719
239727
239734
239742
239750
239760
239770
239787
239766
239776
239791
239802
239812
239823
239832
239840
239848
239856
239864
239874
239883
239899
239865
239881
239898
239911
239923
239933
239944
239953
239962
239970
239978
239987
239998
240011
239965
239985
240004
240019
240032
240044
240056
240067
240077
240086
240094
240104
240117
240128
240065
240089
240109
240127
240142
240155
240169
240181
240192
240202
240212
240221
240237
240246
240168
240195
240216
240235
240252
240268
240283
240296
240309
240320
240332
240343
240361
240368
240271
240301
240324
240346
240365
240382
240399
240413
240427
240440
240454
240466
240487
240489
240384
240413
240437
240459
240480
240498
240516
240532
240547
240562
240578
240594
240617
240618
240494
240524
240550
240575
240597
240617
240636
240653
240670
240686
240703
240721
240745
240749
240623
240647
240675
240697
240719
240739
240758
240775
240793
240811
240830
240851
240877
240892
239131
239116
239102
239089
239081
239073
239069
239066
239070
239079
239278
239255
239246
239232
239219
239204
239191
239178
239169
239161
239156
239153
239152
239164
239348
239330
239324
239312
239302
239289
239276
239264
239253
239243
239236
239231
239227
239236
239422
239409
239404
239393
239383
239371
239359
239346
239335
239324
239315
239311
239305
239310
239493
239485
239481
239472
239462
239451
239439
239427
239415
239404
239393
239387
239380
239383
239567
239562
239559
239551
239541
239530
239518
239506
239494
239483
239472
239465
239457