/*--------------------------------*- C++ -*----------------------------------*\
| =========                 |                                                 |
| \\      /  F ield         | OpenFOAM: The Open Source CFD Toolbox           |
|  \\    /   O peration     | Version:  v2106                                 |
|   \\  /    A nd           | Website:  www.openfoam.com                      |
|    \\/     M anipulation  |                                                 |
\*---------------------------------------------------------------------------*/
FoamFile
{
    version     2.0;
    format      ascii;
    arch        "LSB;label=32;scalar=64";
    class       volScalarField;
    location    "0.000166";
    object      nut;
}
// * * * * * * * * * * * * * * * * * * * * * * * * * * * * * * * * * * * * * //

dimensions      [0 2 -1 0 0 0 0];

internalField   nonuniform List<scalar> 
144746
(
2.88115e-05
2.57089e-05
2.33391e-05
2.18228e-05
2.10563e-05
2.0023e-05
1.90031e-05
1.86558e-05
1.92022e-05
1.98869e-05
2.06231e-05
2.22843e-05
2.64418e-05
3.42355e-05
2.28738e-05
1.84747e-05
1.46232e-05
1.15015e-05
9.79666e-06
8.9309e-06
8.86197e-06
9.71916e-06
1.13288e-05
1.31836e-05
1.51426e-05
1.80442e-05
2.36164e-05
3.30051e-05
2.03351e-05
1.4884e-05
9.88882e-06
5.92961e-06
3.84264e-06
3.12043e-06
3.29583e-06
4.26132e-06
5.9505e-06
8.13694e-06
1.07978e-05
1.48996e-05
2.21002e-05
3.3288e-05
1.92777e-05
1.24465e-05
6.65758e-06
2.84857e-06
1.26319e-06
8.40618e-07
9.96613e-07
1.65268e-06
2.89782e-06
4.83259e-06
7.80765e-06
1.29302e-05
2.16735e-05
3.44849e-05
1.83811e-05
9.97948e-06
4.13017e-06
1.35136e-06
4.87176e-07
2.57511e-07
3.35073e-07
7.08974e-07
1.55107e-06
3.23184e-06
6.51158e-06
1.25837e-05
2.24131e-05
3.55817e-05
1.76713e-05
8.03677e-06
2.88697e-06
1.11416e-06
4.84897e-07
2.41653e-07
2.60882e-07
5.42733e-07
1.29429e-06
3.03574e-06
6.64784e-06
1.31434e-05
2.29023e-05
3.50072e-05
1.79509e-05
7.37753e-06
3.02661e-06
1.56472e-06
8.16028e-07
4.89574e-07
5.14145e-07
8.98044e-07
1.87339e-06
3.96936e-06
7.9047e-06
1.42989e-05
2.3112e-05
3.32789e-05
1.96136e-05
8.17008e-06
4.2906e-06
2.63419e-06
1.61428e-06
1.12693e-06
1.17528e-06
1.77789e-06
3.1271e-06
5.62153e-06
9.67481e-06
1.55633e-05
2.30626e-05
3.12735e-05
2.33759e-05
1.02382e-05
6.5572e-06
4.60356e-06
3.21699e-06
2.43534e-06
2.41224e-06
3.20495e-06
4.87228e-06
7.57567e-06
1.14785e-05
1.6843e-05
2.33718e-05
3.00002e-05
3.08952e-05
1.47535e-05
1.00164e-05
7.96584e-06
6.23934e-06
4.98955e-06
4.58553e-06
5.27162e-06
7.02523e-06
9.84542e-06
1.36288e-05
1.90898e-05
2.44422e-05
2.95942e-05
3.79534e-05
2.09092e-05
1.46709e-05
1.30387e-05
1.15839e-05
1.00635e-05
9.06542e-06
9.37431e-06
1.10173e-05
1.43989e-05
1.8229e-05
2.29142e-05
2.73899e-05
3.19203e-05
4.3437e-05
2.75783e-05
2.04788e-05
1.90331e-05
1.92367e-05
1.88968e-05
1.82419e-05
1.9009e-05
2.09994e-05
2.44286e-05
2.75096e-05
3.12324e-05
3.46397e-05
3.83789e-05
4.88571e-05
3.40853e-05
2.62791e-05
2.43704e-05
2.58913e-05
2.83372e-05
3.07455e-05
3.36324e-05
3.69456e-05
4.07072e-05
4.32021e-05
4.52813e-05
4.70174e-05
4.94335e-05
5.42823e-05
4.0268e-05
3.21165e-05
2.94372e-05
3.09613e-05
3.47433e-05
4.00368e-05
4.57402e-05
5.10111e-05
5.57884e-05
5.94796e-05
6.10172e-05
6.17017e-05
6.3335e-05
3.26014e-05
3.00506e-05
2.85559e-05
2.7738e-05
2.67996e-05
2.42492e-05
2.12426e-05
1.90151e-05
1.79126e-05
1.77094e-05
1.87416e-05
2.19463e-05
2.84425e-05
3.90279e-05
2.30473e-05
1.9009e-05
1.60098e-05
1.38186e-05
1.27169e-05
1.15228e-05
1.05768e-05
1.03554e-05
1.08581e-05
1.1986e-05
1.41482e-05
1.8467e-05
2.64223e-05
3.88666e-05
1.73901e-05
1.25741e-05
8.822e-06
6.08945e-06
4.77626e-06
4.1747e-06
4.10036e-06
4.60773e-06
5.74588e-06
7.63053e-06
1.06605e-05
1.61613e-05
2.5734e-05
4.00625e-05
1.45207e-05
9.0649e-06
4.9939e-06
2.44527e-06
1.39009e-06
1.10711e-06
1.23508e-06
1.75615e-06
2.82049e-06
4.73015e-06
8.19e-06
1.46508e-05
2.55392e-05
4.10511e-05
1.3233e-05
6.99925e-06
2.93882e-06
1.02608e-06
4.04393e-07
2.61539e-07
3.59105e-07
7.13629e-07
1.54266e-06
3.36089e-06
7.21016e-06
1.44163e-05
2.56832e-05
4.03108e-05
1.29538e-05
5.88101e-06
2.1121e-06
7.73017e-07
3.05387e-07
1.55969e-07
2.06688e-07
4.90842e-07
1.2695e-06
3.17006e-06
7.20257e-06
1.43162e-05
2.45657e-05
3.69422e-05
1.39235e-05
5.78118e-06
2.25972e-06
1.05067e-06
5.0135e-07
3.01562e-07
3.64355e-07
7.34407e-07
1.69632e-06
3.83926e-06
7.89883e-06
1.43485e-05
2.28981e-05
3.257e-05
1.63741e-05
6.75622e-06
3.20235e-06
1.77996e-06
1.03572e-06
7.38383e-07
8.45364e-07
1.4022e-06
2.64987e-06
5.01811e-06
8.90064e-06
1.44285e-05
2.1226e-05
2.86534e-05
2.05968e-05
8.78683e-06
4.88941e-06
3.16337e-06
2.15391e-06
1.68473e-06
1.80074e-06
2.55063e-06
4.03836e-06
6.46538e-06
1.00026e-05
1.48026e-05
2.06148e-05
2.66708e-05
2.88436e-05
1.26966e-05
7.52051e-06
5.55412e-06
4.28661e-06
3.54965e-06
3.50589e-06
4.29204e-06
5.88085e-06
8.34249e-06
1.16511e-05
1.6611e-05
2.16972e-05
2.68166e-05
3.67164e-05
1.88141e-05
1.12529e-05
9.19329e-06
8.01855e-06
7.15093e-06
6.87381e-06
7.62568e-06
9.33601e-06
1.2285e-05
1.59158e-05
2.07716e-05
2.53851e-05
3.01819e-05
4.30768e-05
2.60348e-05
1.72495e-05
1.43916e-05
1.37492e-05
1.33697e-05
1.33981e-05
1.47228e-05
1.73514e-05
2.12841e-05
2.48362e-05
2.92353e-05
3.32748e-05
3.75363e-05
4.93857e-05
3.34319e-05
2.37628e-05
1.97726e-05
1.95957e-05
2.07748e-05
2.274e-05
2.5845e-05
3.0294e-05
3.5637e-05
3.96241e-05
4.30676e-05
4.59297e-05
4.90199e-05
5.54301e-05
4.03809e-05
3.06751e-05
2.58292e-05
2.52716e-05
2.73383e-05
3.15147e-05
3.7286e-05
4.38389e-05
5.07676e-05
5.6494e-05
5.9527e-05
6.13239e-05
6.3663e-05
3.5287e-05
3.31016e-05
3.21494e-05
3.14118e-05
2.95113e-05
2.55931e-05
2.11127e-05
1.74176e-05
1.53386e-05
1.48121e-05
1.65147e-05
2.13071e-05
2.94332e-05
4.09662e-05
2.34634e-05
1.97149e-05
1.75099e-05
1.59968e-05
1.50901e-05
1.3378e-05
1.14781e-05
9.90656e-06
9.41419e-06
9.9311e-06
1.24306e-05
1.80613e-05
2.75186e-05
4.09089e-05
1.53023e-05
1.09631e-05
8.31318e-06
6.58414e-06
5.89525e-06
5.27369e-06
4.77407e-06
4.50921e-06
4.86791e-06
6.35476e-06
9.73647e-06
1.6342e-05
2.71862e-05
4.20785e-05
1.08051e-05
6.38584e-06
3.72039e-06
2.23937e-06
1.68562e-06
1.49106e-06
1.49338e-06
1.70257e-06
2.36531e-06
4.07771e-06
7.79829e-06
1.50663e-05
2.67511e-05
4.1944e-05
9.16038e-06
4.5244e-06
1.90997e-06
7.6736e-07
3.93312e-07
3.14154e-07
3.89401e-07
6.49945e-07
1.33334e-06
3.07479e-06
7.10559e-06
1.47014e-05
2.59442e-05
3.9479e-05
9.13578e-06
4.00027e-06
1.40197e-06
4.83465e-07
1.76064e-07
9.76936e-08
1.5213e-07
3.90454e-07
1.0849e-06
2.89554e-06
6.88698e-06
1.3897e-05
2.35142e-05
3.4371e-05
1.02632e-05
4.2215e-06
1.52966e-06
6.08139e-07
2.50336e-07
1.46392e-07
2.09901e-07
5.03873e-07
1.31441e-06
3.22224e-06
6.97067e-06
1.29407e-05
2.05375e-05
2.86471e-05
1.26843e-05
5.16889e-06
2.13751e-06
1.02366e-06
5.36568e-07
3.82186e-07
4.84584e-07
9.01318e-07
1.87338e-06
3.83171e-06
7.21581e-06
1.20746e-05
1.7867e-05
2.39579e-05
1.68198e-05
6.96455e-06
3.22638e-06
1.85094e-06
1.18989e-06
9.51922e-07
1.09536e-06
1.65899e-06
2.77291e-06
4.69807e-06
7.68676e-06
1.17179e-05
1.64518e-05
2.19105e-05
2.42315e-05
1.01876e-05
4.99297e-06
3.33232e-06
2.49042e-06
2.13393e-06
2.26322e-06
2.92766e-06
4.1791e-06
6.09195e-06
8.82217e-06
1.27035e-05
1.74395e-05
2.28843e-05
3.1313e-05
1.54161e-05
7.61471e-06
5.765e-06
4.87476e-06
4.46291e-06
4.57946e-06
5.37948e-06
6.88383e-06
9.10961e-06
1.20345e-05
1.67661e-05
2.16151e-05
2.70786e-05
3.73833e-05
2.25308e-05
1.33034e-05
9.73058e-06
8.82147e-06
8.57806e-06
9.03366e-06
1.04226e-05
1.27833e-05
1.61035e-05
1.95896e-05
2.46018e-05
2.92109e-05
3.42184e-05
4.37009e-05
2.99981e-05
1.98546e-05
1.48041e-05
1.38145e-05
1.41793e-05
1.56006e-05
1.82849e-05
2.22526e-05
2.74942e-05
3.17161e-05
3.60559e-05
3.98159e-05
4.35568e-05
4.9046e-05
3.69806e-05
2.75769e-05
2.17315e-05
1.9849e-05
2.02357e-05
2.2717e-05
2.7232e-05
3.32156e-05
4.00891e-05
4.60459e-05
4.95844e-05
5.2317e-05
5.50927e-05
4.56897e-05
5.64213e-05
7.14102e-05
9.67687e-05
0.000140081
5.61934e-05
4.59105e-05
5.85537e-05
7.35453e-05
9.5101e-05
0.000130231
6.15095e-05
4.74254e-05
6.16949e-05
7.67716e-05
9.5605e-05
0.000125173
6.64972e-05
4.93074e-05
6.41393e-05
7.86169e-05
9.54187e-05
0.00011936
7.18631e-05
4.93894e-05
6.31646e-05
7.63821e-05
9.2628e-05
0.000116726
7.82444e-05
4.67136e-05
5.84889e-05
7.07616e-05
8.82987e-05
0.000117295
8.55893e-05
4.21372e-05
5.15814e-05
6.32071e-05
8.2625e-05
0.000119269
9.33881e-05
3.76159e-05
4.48717e-05
5.5311e-05
7.49523e-05
0.000117788
0.00010074
3.46914e-05
4.01183e-05
4.89239e-05
6.73252e-05
0.000114372
0.000105298
3.39539e-05
3.84685e-05
4.60997e-05
6.32582e-05
0.000112429
0.000105957
3.64842e-05
4.09278e-05
4.82115e-05
6.45316e-05
0.000114176
0.000102757
4.30868e-05
4.7811e-05
5.53861e-05
7.13818e-05
0.000119799
9.55773e-05
5.3445e-05
5.8507e-05
6.67392e-05
8.28799e-05
0.000127251
8.37227e-05
6.55175e-05
7.10613e-05
7.98468e-05
9.52732e-05
0.000129697
6.65492e-05
5.39426e-05
6.57892e-05
7.83596e-05
9.28838e-05
0.000114378
6.10347e-05
5.53785e-05
7.00263e-05
8.43634e-05
9.76645e-05
0.000113093
6.86591e-05
5.76345e-05
7.39863e-05
8.90761e-05
0.000101914
0.000114102
7.6156e-05
5.84266e-05
7.50447e-05
8.98084e-05
0.000102306
0.000111988
8.44395e-05
5.5567e-05
7.05142e-05
8.3975e-05
9.75289e-05
0.000111248
9.3116e-05
4.90784e-05
6.11796e-05
7.31405e-05
8.91798e-05
0.000112521
0.000101323
4.12162e-05
5.01632e-05
6.05734e-05
7.82185e-05
0.000111048
0.000107936
3.4703e-05
4.10071e-05
4.96166e-05
6.62701e-05
0.000103878
0.000111562
3.11444e-05
3.5697e-05
4.27812e-05
5.76999e-05
9.5627e-05
0.000111529
3.1037e-05
3.49213e-05
4.12621e-05
5.49122e-05
9.11483e-05
0.000108036
3.47013e-05
3.87556e-05
4.5135e-05
5.80584e-05
9.24125e-05
0.000101655
4.22356e-05
4.68752e-05
5.38288e-05
6.62959e-05
9.85484e-05
9.29116e-05
5.32021e-05
5.84543e-05
6.60768e-05
7.79628e-05
0.000106971
8.17217e-05
6.58926e-05
7.16136e-05
7.90754e-05
8.91746e-05
0.000111586
6.80531e-05
5.62253e-05
6.82604e-05
8.05169e-05
9.12422e-05
9.52855e-05
6.75652e-05
5.77267e-05
7.26563e-05
8.73062e-05
9.84881e-05
0.000101103
7.90717e-05
5.94276e-05
7.61754e-05
9.18681e-05
0.000103616
0.000107278
9.03154e-05
5.84606e-05
7.52244e-05
9.02986e-05
0.000101746
0.000107971
0.000100205
5.34354e-05
6.7941e-05
8.03908e-05
9.13902e-05
0.00010329
0.000107459
4.51084e-05
5.61776e-05
6.59474e-05
7.70172e-05
9.52147e-05
0.000111496
3.62381e-05
4.40616e-05
5.18399e-05
6.30208e-05
8.56402e-05
0.000112038
2.92715e-05
3.46812e-05
4.11938e-05
5.22409e-05
7.65536e-05
0.000109208
2.61921e-05
2.98872e-05
3.56776e-05
4.64539e-05
7.05842e-05
0.00010433
2.67784e-05
2.99355e-05
3.52962e-05
4.57448e-05
6.96132e-05
9.84684e-05
3.08889e-05
3.41117e-05
3.9437e-05
4.97376e-05
7.30073e-05
9.2021e-05
3.76762e-05
4.14842e-05
4.74053e-05
5.77532e-05
7.97009e-05
8.52831e-05
4.65232e-05
5.13221e-05
5.84398e-05
6.85735e-05
8.72651e-05
7.81754e-05
5.69683e-05
6.30467e-05
7.082e-05
7.89535e-05
9.06526e-05
7.01275e-05
7.58231e-05
8.29385e-05
9.14675e-05
0.000104185
0.00011924
5.48956e-05
7.31403e-05
7.94837e-05
8.6347e-05
9.80018e-05
0.0001092
6.19406e-05
7.06907e-05
7.51433e-05
8.06648e-05
9.27727e-05
0.000106092
7.05698e-05
6.67533e-05
6.91915e-05
7.38533e-05
8.71126e-05
0.000105974
8.05303e-05
6.089e-05
6.20742e-05
6.66236e-05
8.09971e-05
0.000106884
9.10972e-05
5.46281e-05
5.53041e-05
5.97095e-05
7.41875e-05
0.000106408
0.000101359
4.81703e-05
4.90805e-05
5.31957e-05
6.70849e-05
0.000102699
0.000110064
4.22032e-05
4.36148e-05
4.76442e-05
6.06109e-05
9.7505e-05
0.000115721
3.7264e-05
3.92744e-05
4.3843e-05
5.66799e-05
9.42643e-05
0.000117785
3.40631e-05
3.71081e-05
4.29738e-05
5.66117e-05
9.5724e-05
0.000116367
3.38421e-05
3.84662e-05
4.5944e-05
6.10713e-05
0.000103265
0.000111593
3.78098e-05
4.4093e-05
5.33697e-05
7.02423e-05
0.000114704
0.000103157
4.63752e-05
5.4274e-05
6.5246e-05
8.31591e-05
0.000125346
8.98168e-05
5.85789e-05
6.82134e-05
7.99371e-05
9.6441e-05
0.000128874
7.0789e-05
7.71877e-05
8.38831e-05
8.94991e-05
9.61445e-05
0.00010569
6.38651e-05
7.38599e-05
8.07372e-05
8.55564e-05
9.21012e-05
9.95043e-05
7.42668e-05
7.09499e-05
7.61716e-05
7.9565e-05
8.67372e-05
9.77487e-05
8.52405e-05
6.60545e-05
6.91503e-05
7.12377e-05
7.96542e-05
9.66251e-05
9.63143e-05
5.86863e-05
6.04993e-05
6.21821e-05
7.16887e-05
9.45491e-05
0.000106243
5.08277e-05
5.21446e-05
5.40138e-05
6.36316e-05
8.99124e-05
0.000113748
4.29068e-05
4.45902e-05
4.73562e-05
5.69028e-05
8.33585e-05
0.000117838
3.59648e-05
3.84371e-05
4.23683e-05
5.21446e-05
7.79328e-05
0.000118533
3.14055e-05
3.46212e-05
3.97154e-05
5.03516e-05
7.62664e-05
0.000116562
2.98567e-05
3.39463e-05
4.02795e-05
5.22091e-05
7.91153e-05
0.000112299
3.16216e-05
3.69294e-05
4.46351e-05
5.81361e-05
8.73818e-05
0.000106113
3.71687e-05
4.38543e-05
5.33e-05
6.83176e-05
9.92332e-05
9.76855e-05
4.67917e-05
5.51301e-05
6.63977e-05
8.15678e-05
0.000110174
8.59855e-05
5.98889e-05
7.03465e-05
8.21108e-05
9.41055e-05
0.000113629
7.09646e-05
6.76899e-05
7.5686e-05
8.18398e-05
8.49848e-05
8.56484e-05
7.16176e-05
6.41544e-05
7.27749e-05
7.87534e-05
8.19002e-05
8.39683e-05
8.31557e-05
6.11709e-05
6.88853e-05
7.29936e-05
7.58667e-05
8.25718e-05
9.39801e-05
5.66908e-05
6.28541e-05
6.51549e-05
6.78163e-05
7.85511e-05
0.000103028
4.94878e-05
5.50285e-05
5.6536e-05
5.95101e-05
7.3145e-05
0.000109243
4.19135e-05
4.69953e-05
4.90236e-05
5.27984e-05
6.73816e-05
0.000111753
3.45643e-05
3.94056e-05
4.30078e-05
4.85262e-05
6.3582e-05
0.000110628
2.86097e-05
3.33223e-05
3.85509e-05
4.62775e-05
6.17454e-05
0.000108033
2.53358e-05
3.01188e-05
3.63556e-05
4.58652e-05
6.29125e-05
0.000104932
2.5369e-05
3.02303e-05
3.69827e-05
4.77735e-05
6.70689e-05
0.0001011
2.83958e-05
3.36107e-05
4.07024e-05
5.24976e-05
7.44766e-05
9.60675e-05
3.38055e-05
3.96921e-05
4.78135e-05
6.06646e-05
8.40106e-05
8.94838e-05
4.1819e-05
4.87367e-05
5.87844e-05
7.21595e-05
9.33143e-05
8.14007e-05
5.22298e-05
6.13778e-05
7.30132e-05
8.41049e-05
9.64837e-05
7.18131e-05
7.20483e-05
0.000130481
7.27666e-05
5.04902e-05
3.8534e-05
3.14835e-05
8.61904e-05
0.000106005
5.65713e-05
3.95715e-05
3.12025e-05
2.63033e-05
9.58445e-05
8.70042e-05
4.79438e-05
3.46982e-05
2.8298e-05
2.41901e-05
0.000102786
7.7336e-05
4.5332e-05
3.43907e-05
2.88023e-05
2.4457e-05
0.000107428
7.52542e-05
4.7183e-05
3.75512e-05
3.19346e-05
2.61507e-05
0.000109614
7.7551e-05
5.20827e-05
4.3249e-05
3.72305e-05
2.89887e-05
0.00010885
8.17139e-05
5.8323e-05
5.01601e-05
4.40868e-05
3.31196e-05
0.000105304
8.68283e-05
6.47858e-05
5.74498e-05
5.22361e-05
3.85215e-05
9.9151e-05
9.13381e-05
7.09765e-05
6.45469e-05
6.05381e-05
4.59206e-05
9.12017e-05
9.4816e-05
7.71981e-05
7.14112e-05
6.74586e-05
5.25617e-05
8.24675e-05
9.79032e-05
8.37519e-05
7.81672e-05
7.35396e-05
5.88382e-05
7.36979e-05
0.000101977
9.07684e-05
8.41849e-05
7.78961e-05
6.29731e-05
6.54269e-05
0.000107985
9.77191e-05
8.89821e-05
8.08101e-05
6.67059e-05
5.82528e-05
0.000118819
0.000105345
9.39211e-05
8.4264e-05
7.16862e-05
7.04543e-05
0.000113173
7.63088e-05
5.74651e-05
4.42484e-05
3.57355e-05
8.25228e-05
9.2921e-05
5.81125e-05
4.22055e-05
3.29093e-05
2.71636e-05
9.13724e-05
7.55593e-05
4.67387e-05
3.36597e-05
2.66981e-05
2.19645e-05
9.84894e-05
6.60241e-05
4.16945e-05
3.06527e-05
2.45096e-05
1.97879e-05
0.000104247
6.28532e-05
4.16357e-05
3.18331e-05
2.5551e-05
1.98652e-05
0.000108386
6.40508e-05
4.53657e-05
3.66771e-05
2.96921e-05
2.19488e-05
0.000110529
6.78022e-05
5.13561e-05
4.42292e-05
3.67044e-05
2.60657e-05
0.000110457
7.32239e-05
5.8315e-05
5.35102e-05
4.62356e-05
3.21158e-05
0.000107652
7.9089e-05
6.54034e-05
6.31208e-05
5.71177e-05
4.0277e-05
0.000101837
8.42967e-05
7.30029e-05
7.21299e-05
6.66846e-05
4.93813e-05
9.37337e-05
8.8351e-05
8.08193e-05
8.05648e-05
7.49961e-05
5.79931e-05
8.46458e-05
9.2088e-05
8.84534e-05
8.78264e-05
8.08717e-05
6.36068e-05
7.52315e-05
9.62569e-05
9.50857e-05
9.27181e-05
8.42575e-05
6.81957e-05
6.57289e-05
0.000103847
0.000100678
9.65931e-05
8.8064e-05
7.42089e-05
6.96932e-05
9.7453e-05
7.59839e-05
5.92906e-05
4.65243e-05
3.79902e-05
7.7954e-05
8.23491e-05
5.75491e-05
4.28157e-05
3.35574e-05
2.75516e-05
8.51807e-05
6.93285e-05
4.53828e-05
3.2688e-05
2.54566e-05
2.02948e-05
9.10409e-05
5.99083e-05
3.94168e-05
2.80636e-05
2.14018e-05
1.62908e-05
9.55227e-05
5.52519e-05
3.82441e-05
2.76726e-05
2.07018e-05
1.5102e-05
9.9066e-05
5.43058e-05
4.08469e-05
3.11971e-05
2.32165e-05
1.62069e-05
0.000102085
5.589e-05
4.58769e-05
3.80723e-05
2.88388e-05
1.93354e-05
0.000104747
5.92023e-05
5.20943e-05
4.74482e-05
3.73172e-05
2.44499e-05
0.000106464
6.35355e-05
5.86206e-05
5.74339e-05
4.75703e-05
3.1733e-05
0.00010542
6.93674e-05
6.58138e-05
6.6188e-05
5.70684e-05
4.07448e-05
0.000100378
7.5528e-05
7.36606e-05
7.40473e-05
6.53446e-05
4.92913e-05
9.2232e-05
8.08904e-05
8.1043e-05
8.02207e-05
7.05916e-05
5.43763e-05
8.24256e-05
8.42853e-05
8.6882e-05
8.46178e-05
7.39514e-05
5.89707e-05
7.19417e-05
8.81537e-05
9.16328e-05
8.79573e-05
7.75012e-05
6.44426e-05
6.8884e-05
0.000131693
7.5761e-05
5.38864e-05
4.29367e-05
3.6527e-05
8.36165e-05
0.00011585
6.0892e-05
4.2808e-05
3.44497e-05
2.96587e-05
9.33904e-05
0.00010406
5.38125e-05
3.76975e-05
3.0389e-05
2.60062e-05
0.000100051
9.94856e-05
5.34416e-05
3.77143e-05
3.01313e-05
2.52311e-05
0.000103669
0.000100864
5.84835e-05
4.21314e-05
3.29201e-05
2.62867e-05
0.000104044
0.000105129
6.74585e-05
5.0052e-05
3.80825e-05
2.82627e-05
0.000101094
0.00010925
7.78364e-05
5.98685e-05
4.46652e-05
3.06515e-05
9.59023e-05
0.00011042
8.64003e-05
6.97333e-05
5.18526e-05
3.3635e-05
8.96572e-05
0.000110244
9.24116e-05
7.75922e-05
5.76402e-05
3.64333e-05
8.31487e-05
0.000112645
9.67021e-05
8.18322e-05
6.01045e-05
3.77496e-05
7.68895e-05
0.000118476
9.90059e-05
8.16339e-05
5.90757e-05
3.76224e-05
7.10533e-05
0.000127852
9.79312e-05
7.72108e-05
5.57743e-05
3.70282e-05
6.54671e-05
0.000135849
9.65854e-05
7.24234e-05
5.31396e-05
3.76706e-05
5.99247e-05
0.000146753
9.6131e-05
6.88176e-05
5.15266e-05
3.909e-05
6.6867e-05
0.000106374
7.39504e-05
5.89262e-05
4.85626e-05
4.14534e-05
7.93834e-05
9.19564e-05
5.81415e-05
4.44797e-05
3.65605e-05
3.16787e-05
8.94281e-05
8.14152e-05
4.85101e-05
3.58951e-05
2.94853e-05
2.54961e-05
9.77751e-05
7.74375e-05
4.54355e-05
3.30262e-05
2.68507e-05
2.28243e-05
0.000104317
8.00676e-05
4.85716e-05
3.54733e-05
2.81564e-05
2.29302e-05
0.000108437
8.78742e-05
5.75494e-05
4.32958e-05
3.34534e-05
2.53372e-05
0.000109387
9.73063e-05
7.09002e-05
5.57718e-05
4.22864e-05
2.96183e-05
0.000106962
0.000103697
8.51167e-05
7.08805e-05
5.35552e-05
3.54343e-05
0.000101704
0.000105858
9.67299e-05
8.47781e-05
6.4345e-05
4.17674e-05
9.48657e-05
0.000107164
0.000105322
9.45427e-05
7.15538e-05
4.64467e-05
8.72564e-05
0.000110585
0.000110602
9.78988e-05
7.33408e-05
4.80366e-05
7.9438e-05
0.000117132
0.000109645
9.38546e-05
7.01996e-05
4.71066e-05
7.19407e-05
0.000120782
0.000104625
8.68711e-05
6.58005e-05
4.65699e-05
6.42764e-05
0.000125114
9.90607e-05
7.98523e-05
6.21528e-05
4.69694e-05
6.57792e-05
9.02031e-05
7.30574e-05
5.99636e-05
4.99124e-05
4.28152e-05
7.32072e-05
7.78615e-05
5.61281e-05
4.42134e-05
3.68489e-05
3.21481e-05
8.02912e-05
6.67583e-05
4.4583e-05
3.3991e-05
2.83113e-05
2.46246e-05
8.73296e-05
6.05299e-05
3.91182e-05
2.9093e-05
2.3858e-05
2.03821e-05
9.41105e-05
5.88887e-05
3.93128e-05
2.90991e-05
2.3244e-05
1.92151e-05
0.000100586
6.23159e-05
4.47759e-05
3.44578e-05
2.68716e-05
2.09361e-05
0.00010643
7.06779e-05
5.51003e-05
4.51362e-05
3.49827e-05
2.5373e-05
0.00011047
8.16895e-05
6.8982e-05
5.96913e-05
4.6521e-05
3.23748e-05
0.000110993
9.28328e-05
8.4474e-05
7.5246e-05
5.88582e-05
4.04853e-05
0.000107675
0.000103031
9.89777e-05
8.85869e-05
6.90056e-05
4.74366e-05
0.000101233
0.000109984
0.000108731
9.60873e-05
7.41295e-05
5.12944e-05
9.2362e-05
0.000112019
0.00011003
9.53817e-05
7.33296e-05
5.14901e-05
8.19139e-05
0.000108478
0.000104527
8.93297e-05
6.94276e-05
5.08407e-05
7.08299e-05
0.000104641
9.74152e-05
8.22725e-05
6.58152e-05
5.09907e-05
2.65778e-05
2.40425e-05
2.26509e-05
2.1853e-05
2.04998e-05
1.83209e-05
1.57855e-05
1.32974e-05
1.1439e-05
1.08064e-05
1.20882e-05
1.5964e-05
2.21724e-05
3.06359e-05
1.74204e-05
1.39442e-05
1.21636e-05
1.12256e-05
1.06886e-05
9.77656e-06
8.6656e-06
7.4907e-06
6.5256e-06
6.49213e-06
8.15256e-06
1.24523e-05
1.95391e-05
2.93261e-05
1.0718e-05
7.02041e-06
5.24494e-06
4.40382e-06
4.16591e-06
3.91495e-06
3.61962e-06
3.2713e-06
3.10879e-06
3.66287e-06
5.9062e-06
1.0705e-05
1.85815e-05
2.93853e-05
7.03665e-06
3.56047e-06
1.94893e-06
1.30643e-06
1.14248e-06
1.09275e-06
1.08713e-06
1.12335e-06
1.36702e-06
2.25444e-06
4.62973e-06
9.63788e-06
1.78877e-05
2.88813e-05
5.98684e-06
2.49759e-06
9.19953e-07
3.80203e-07
2.34842e-07
2.11247e-07
2.46396e-07
3.62486e-07
7.11668e-07
1.72152e-06
4.2448e-06
9.32941e-06
1.73128e-05
2.73774e-05
6.30221e-06
2.42167e-06
7.53996e-07
2.30823e-07
7.67946e-08
4.40701e-08
7.05257e-08
1.87672e-07
5.65724e-07
1.6429e-06
4.18866e-06
8.98156e-06
1.60635e-05
2.45264e-05
7.25023e-06
2.71478e-06
8.62868e-07
2.74045e-07
9.14727e-08
4.81195e-08
7.73324e-08
2.19008e-07
6.57236e-07
1.80655e-06
4.28612e-06
8.57654e-06
1.4493e-05
2.11447e-05
8.86962e-06
3.35565e-06
1.1612e-06
4.46566e-07
1.97164e-07
1.34466e-07
1.80221e-07
3.74707e-07
8.95193e-07
2.09246e-06
4.41517e-06
8.11981e-06
1.2901e-05
1.80598e-05
1.14353e-05
4.42339e-06
1.67096e-06
8.25833e-07
4.95076e-07
4.00485e-07
4.75031e-07
7.4706e-07
1.34635e-06
2.52948e-06
4.62648e-06
7.78456e-06
1.17513e-05
1.61438e-05
1.55561e-05
6.25186e-06
2.54188e-06
1.56691e-06
1.16677e-06
1.04957e-06
1.16596e-06
1.53363e-06
2.22545e-06
3.39838e-06
5.27737e-06
8.03947e-06
1.16025e-05
1.61311e-05
1.94911e-05
9.22387e-06
4.07665e-06
2.94837e-06
2.53244e-06
2.44801e-06
2.64724e-06
3.14317e-06
3.98487e-06
5.2702e-06
7.18611e-06
1.00789e-05
1.37516e-05
1.93327e-05
2.3883e-05
1.42481e-05
7.55416e-06
5.44832e-06
5.04813e-06
5.11828e-06
5.58516e-06
6.40994e-06
7.65702e-06
9.4067e-06
1.17076e-05
1.51861e-05
1.93495e-05
2.49896e-05
2.91263e-05
2.00056e-05
1.24777e-05
9.28266e-06
8.94288e-06
9.30547e-06
1.03423e-05
1.18603e-05
1.38825e-05
1.64386e-05
1.92188e-05
2.29288e-05
2.68635e-05
3.15924e-05
3.40517e-05
2.66942e-05
1.97291e-05
1.54503e-05
1.42744e-05
1.47322e-05
1.62131e-05
1.87113e-05
2.17934e-05
2.53854e-05
2.89407e-05
3.19544e-05
3.51917e-05
3.86536e-05
1.69775e-05
1.46695e-05
1.36977e-05
1.33072e-05
1.29692e-05
1.22887e-05
1.13043e-05
1.00856e-05
8.87648e-06
8.10635e-06
8.63552e-06
1.09397e-05
1.49733e-05
2.0162e-05
1.10499e-05
8.12806e-06
6.84544e-06
6.34801e-06
6.24946e-06
6.06992e-06
5.78346e-06
5.30274e-06
4.76115e-06
4.49055e-06
5.24614e-06
7.75618e-06
1.22277e-05
1.84142e-05
6.87453e-06
3.98061e-06
2.72232e-06
2.28534e-06
2.21295e-06
2.2049e-06
2.20228e-06
2.13687e-06
2.08159e-06
2.30753e-06
3.40799e-06
6.20453e-06
1.11928e-05
1.81941e-05
4.85641e-06
2.13772e-06
9.95581e-07
6.35268e-07
5.55403e-07
5.57848e-07
5.96442e-07
6.59193e-07
8.16185e-07
1.28369e-06
2.55897e-06
5.44704e-06
1.06461e-05
1.79596e-05
4.43153e-06
1.65793e-06
5.38459e-07
1.9931e-07
1.11667e-07
9.99155e-08
1.23243e-07
1.91633e-07
3.82188e-07
9.16537e-07
2.31202e-06
5.37474e-06
1.06581e-05
1.77227e-05
4.6809e-06
1.65386e-06
4.88699e-07
1.4069e-07
4.23464e-08
2.15622e-08
3.44544e-08
9.49779e-08
2.93105e-07
8.79894e-07
2.37459e-06
5.46598e-06
1.04901e-05
1.689e-05
5.23349e-06
1.82926e-06
5.593e-07
1.63682e-07
5.05835e-08
2.4905e-08
3.87468e-08
1.11294e-07
3.47793e-07
1.01327e-06
2.58604e-06
5.58452e-06
1.01244e-05
1.5657e-05
6.13621e-06
2.2003e-06
7.29079e-07
2.57377e-07
1.0658e-07
7.1504e-08
9.44148e-08
1.966e-07
4.91393e-07
1.23581e-06
2.82603e-06
5.61572e-06
9.58017e-06
1.4245e-05
7.57332e-06
2.81778e-06
1.03483e-06
4.81762e-07
2.80524e-07
2.2865e-07
2.70745e-07
4.23142e-07
7.87096e-07
1.57273e-06
3.09487e-06
5.60256e-06
9.03109e-06
1.29972e-05
9.87123e-06
3.7782e-06
1.59746e-06
9.66113e-07
7.13382e-07
6.41097e-07
7.06869e-07
9.22264e-07
1.35748e-06
2.16537e-06
3.56979e-06
5.78658e-06
8.8245e-06
1.25322e-05
1.24284e-05
5.32971e-06
2.63623e-06
1.94631e-06
1.67765e-06
1.6075e-06
1.70802e-06
1.99465e-06
2.5186e-06
3.38141e-06
4.75214e-06
6.87383e-06
9.78952e-06
1.37801e-05
1.58591e-05
8.63791e-06
4.65382e-06
3.76379e-06
3.56932e-06
3.60693e-06
3.83617e-06
4.27062e-06
4.97641e-06
6.04682e-06
7.6033e-06
9.98e-06
1.30229e-05
1.77304e-05
2.02889e-05
1.29932e-05
8.1915e-06
6.81347e-06
6.71159e-06
7.04813e-06
7.61257e-06
8.40781e-06
9.49231e-06
1.09536e-05
1.27988e-05
1.54651e-05
1.85561e-05
2.33482e-05
2.50933e-05
1.91193e-05
1.40602e-05
1.16667e-05
1.125e-05
1.18019e-05
1.29031e-05
1.42953e-05
1.59447e-05
1.78602e-05
1.98924e-05
2.22511e-05
2.5064e-05
2.8606e-05
9.39032e-06
7.35132e-06
6.63215e-06
6.42468e-06
6.57348e-06
6.68989e-06
6.7032e-06
6.46368e-06
6.04889e-06
5.57848e-06
5.48484e-06
6.52925e-06
8.82819e-06
1.2053e-05
5.98233e-06
3.8041e-06
2.95653e-06
2.71478e-06
2.76224e-06
2.8734e-06
2.98686e-06
2.98504e-06
2.87644e-06
2.7482e-06
2.96783e-06
4.09774e-06
6.46184e-06
1.00236e-05
3.90705e-06
1.88232e-06
1.09516e-06
8.86662e-07
8.73073e-07
9.22126e-07
9.94891e-07
1.04695e-06
1.09282e-06
1.21786e-06
1.70705e-06
2.98466e-06
5.49914e-06
9.48477e-06
3.13375e-06
1.17036e-06
4.36673e-07
2.42179e-07
2.04329e-07
2.12886e-07
2.42222e-07
2.85755e-07
3.74358e-07
5.96418e-07
1.16794e-06
2.47915e-06
5.0585e-06
9.28525e-06
3.00136e-06
9.98705e-07
2.91204e-07
9.43452e-08
4.43179e-08
3.70925e-08
4.73501e-08
7.81865e-08
1.63553e-07
3.97752e-07
1.00886e-06
2.42905e-06
5.20603e-06
9.63691e-06
3.04811e-06
9.83394e-07
2.82842e-07
7.78708e-08
2.14277e-08
9.0604e-09
1.36327e-08
3.90557e-08
1.23932e-07
3.80229e-07
1.06338e-06
2.60583e-06
5.48212e-06
9.85185e-06
3.19484e-06
1.051e-06
3.15093e-07
8.67797e-08
2.49926e-08
1.12062e-08
1.60828e-08
4.61357e-08
1.4911e-07
4.55272e-07
1.23425e-06
2.88814e-06
5.77053e-06
9.91365e-06
3.55831e-06
1.23294e-06
3.93927e-07
1.27668e-07
5.04041e-08
3.35804e-08
4.2366e-08
8.53118e-08
2.19234e-07
5.86241e-07
1.45117e-06
3.15835e-06
5.94824e-06
9.75252e-06
4.20295e-06
1.53165e-06
5.47868e-07
2.39609e-07
1.3719e-07
1.13964e-07
1.3145e-07
1.97831e-07
3.72688e-07
7.95091e-07
1.70972e-06
3.40434e-06
6.03616e-06
9.5077e-06
5.24237e-06
1.96911e-06
8.72682e-07
5.141e-07
3.76321e-07
3.38772e-07
3.66536e-07
4.66893e-07
6.89671e-07
1.15687e-06
2.07064e-06
3.6765e-06
6.12549e-06
9.33852e-06
6.55616e-06
2.70272e-06
1.54253e-06
1.14075e-06
9.65732e-07
9.04749e-07
9.3666e-07
1.07503e-06
1.35663e-06
1.87348e-06
2.78467e-06
4.32504e-06
6.63065e-06
9.71287e-06
8.8759e-06
4.31235e-06
2.8514e-06
2.43222e-06
2.24982e-06
2.18765e-06
2.2301e-06
2.40513e-06
2.75793e-06
3.3649e-06
4.33048e-06
5.88274e-06
8.1118e-06
1.12565e-05
1.20441e-05
7.26323e-06
5.21861e-06
4.72707e-06
4.64484e-06
4.68489e-06
4.81654e-06
5.0693e-06
5.51137e-06
6.25192e-06
7.34642e-06
9.05118e-06
1.1249e-05
1.47599e-05
1.63805e-05
1.21252e-05
9.26757e-06
8.40154e-06
8.37746e-06
8.70361e-06
9.12534e-06
9.62058e-06
1.02254e-05
1.10645e-05
1.21477e-05
1.38258e-05
1.58573e-05
1.93784e-05
4.74148e-06
3.25474e-06
2.71459e-06
2.54745e-06
2.66304e-06
2.86662e-06
3.12661e-06
3.32164e-06
3.408e-06
3.35657e-06
3.30454e-06
3.59868e-06
4.67268e-06
6.55634e-06
3.08489e-06
1.61765e-06
1.08648e-06
9.41494e-07
9.55286e-07
1.02862e-06
1.13883e-06
1.24003e-06
1.31693e-06
1.36463e-06
1.485e-06
1.94978e-06
3.09984e-06
4.98348e-06
2.26643e-06
8.67371e-07
3.85162e-07
2.71859e-07
2.58026e-07
2.7498e-07
3.08105e-07
3.45552e-07
3.93848e-07
4.83896e-07
7.17197e-07
1.28316e-06
2.41472e-06
4.32149e-06
2.02609e-06
6.38486e-07
1.83535e-07
7.60377e-08
5.37984e-08
5.31297e-08
6.11889e-08
7.65519e-08
1.12431e-07
2.06687e-07
4.43412e-07
9.7729e-07
2.06143e-06
4.04004e-06
1.90435e-06
5.68277e-07
1.51873e-07
4.24562e-08
1.43482e-08
8.54465e-09
1.03441e-08
1.94734e-08
4.84183e-08
1.32964e-07
3.58107e-07
9.02108e-07
2.07477e-06
4.27225e-06
1.80973e-06
5.44544e-07
1.53596e-07
4.02508e-08
9.95354e-09
2.95427e-09
3.39992e-09
1.07218e-08
3.75511e-08
1.23628e-07
3.69015e-07
9.815e-07
2.29647e-06
4.69574e-06
1.79308e-06
5.71777e-07
1.67025e-07
4.30804e-08
1.14231e-08
4.39318e-09
5.01139e-09
1.33901e-08
4.5089e-08
1.4882e-07
4.4452e-07
1.16462e-06
2.64491e-06
5.21339e-06
1.94379e-06
6.63101e-07
1.99562e-07
5.92616e-08
2.22661e-08
1.44778e-08
1.63567e-08
2.86065e-08
7.13948e-08
2.04036e-07
5.64713e-07
1.39827e-06
3.01731e-06
5.66811e-06
2.26497e-06
8.05256e-07
2.69091e-07
1.09432e-07
6.13317e-08
5.16318e-08
5.68508e-08
7.75633e-08
1.38608e-07
3.09112e-07
7.38208e-07
1.67375e-06
3.38971e-06
6.04462e-06
2.74962e-06
1.01479e-06
4.43052e-07
2.51266e-07
1.80816e-07
1.6331e-07
1.73278e-07
2.09963e-07
2.99331e-07
5.1481e-07
1.00813e-06
2.00847e-06
3.75122e-06
6.34247e-06
3.31515e-06
1.43723e-06
8.56439e-07
6.19499e-07
5.07925e-07
4.65369e-07
4.72976e-07
5.32003e-07
6.64145e-07
9.32112e-07
1.47144e-06
2.49775e-06
4.21945e-06
6.71011e-06
4.46549e-06
2.37194e-06
1.74359e-06
1.46901e-06
1.29905e-06
1.20508e-06
1.18477e-06
1.25365e-06
1.43303e-06
1.76854e-06
2.35003e-06
3.36548e-06
5.00855e-06
7.38295e-06
6.56009e-06
4.16866e-06
3.41082e-06
3.13738e-06
2.94109e-06
2.80268e-06
2.72839e-06
2.76233e-06
2.9496e-06
3.35011e-06
4.01511e-06
5.08145e-06
6.63862e-06
8.98598e-06
9.98183e-06
7.44358e-06
6.25272e-06
5.91746e-06
5.82808e-06
5.75723e-06
5.68192e-06
5.65784e-06
5.75713e-06
6.12062e-06
6.7992e-06
7.9777e-06
9.47387e-06
1.18989e-05
2.42904e-06
1.39645e-06
1.03001e-06
9.04444e-07
9.26431e-07
1.02885e-06
1.20664e-06
1.41978e-06
1.63236e-06
1.7729e-06
1.83283e-06
1.90617e-06
2.33567e-06
3.39962e-06
1.68272e-06
6.88274e-07
3.60706e-07
2.81456e-07
2.78025e-07
3.06138e-07
3.62419e-07
4.37008e-07
5.21332e-07
5.97246e-07
6.80614e-07
8.67673e-07
1.3823e-06
2.42669e-06
1.35725e-06
4.14606e-07
1.25999e-07
6.86525e-08
6.14236e-08
6.67029e-08
7.99593e-08
9.88974e-08
1.25481e-07
1.69028e-07
2.64953e-07
4.95608e-07
9.95553e-07
1.9158e-06
1.23539e-06
3.36443e-07
7.67417e-08
2.22358e-08
1.15397e-08
1.04828e-08
1.27327e-08
1.77177e-08
2.95984e-08
6.16411e-08
1.45864e-07
3.46882e-07
7.79539e-07
1.63582e-06
1.10819e-06
2.99661e-07
7.40944e-08
1.83185e-08
4.70137e-09
1.73307e-09
1.84016e-09
4.11558e-09
1.2146e-08
3.74869e-08
1.0929e-07
2.93731e-07