/*--------------------------------*- C++ -*----------------------------------*\
| =========                 |                                                 |
| \\      /  F ield         | OpenFOAM: The Open Source CFD Toolbox           |
|  \\    /   O peration     | Version:  v2106                                 |
|   \\  /    A nd           | Website:  www.openfoam.com                      |
|    \\/     M anipulation  |                                                 |
\*---------------------------------------------------------------------------*/
FoamFile
{
    version     2.0;
    format      ascii;
    arch        "LSB;label=32;scalar=64";
    class       volScalarField;
    location    "0.000166";
    object      p;
}
// * * * * * * * * * * * * * * * * * * * * * * * * * * * * * * * * * * * * * //

dimensions      [1 -1 -2 0 0 0 0];

internalField   nonuniform List<scalar> 
144746
(
199702
199559
198870
198673
198341
198112
197857
197680
197601
197646
197693
197772
198037
198668
199047
199069
198593
198395
198170
198052
197920
197819
197741
197702
197706
197825
198207
198547
198814
198726
198452
198268
198112
198016
197929
197822
197736
197650
197578
197573
197650
197905
198510
198404
198235
198105
197981
197940
197877
197828
197714
197610
197459
197400
197441
197684
198120
198099
198018
197929
197821
197773
197727
197670
197576
197436
197269
197125
197094
197238
197727
197743
197719
197665
197571
197523
197499
197454
197370
197225
197042
196849
196736
196748
197418
197472
197517
197438
197333
197260
197211
197167
197092
196931
196727
196492
196316
196258
197208
197206
197250
197157
197051
196934
196886
196818
196729
196548
196348
196132
195975
195927
197148
197027
197016
196893
196765
196583
196507
196406
196308
196114
195941
195771
195670
195738
197167
196889
196802
196582
196418
196187
196072
195933
195822
195673
195560
195477
195529
195740
197318
196875
196670
196334
196070
195741
195579
195411
195325
195270
195318
195414
195594
195851
197460
196909
196596
196169
195756
195309
195069
194900
194929
195025
195243
195487
195939
196118
198150
197419
196733
196110
195553
195071
194728
194549
194677
194928
195346
195748
196499
196619
198663
197389
196830
196216
195577
195019
194572
194422
194621
195042
195606
196121
197075
197410
198538
198469
197994
197858
197644
197412
197279
197287
197442
197542
197521
197358
197251
197386
198449
198546
198193
198034
197913
197802
197697
197670
197691
197725
197707
197578
197576
197338
198585
198546
198430
198293
198213
198108
198002
197898
197880
197819
197701
197465
197132
196829
198653
198595
198539
198440
198362
198299
198218
198115
198018
197904
197691
197395
197008
196700
198595
198573
198558
198492
198413
198356
198263
198194
198076
197921
197674
197316
196854
196458
198425
198435
198475
198433
198369
198323
198263
198199
198091
197917
197646
197229
196719
196266
198297
198300
198389
198331
198282
198237
198183
198130
198024
197821
197537
197099
196621
196179
198210
198208
198334
198269
198216
198127
198081
197989
197882
197676
197414
197018
196608
196214
198215
198170
198248
198182
198126
198026
197965
197847
197709
197495
197250
196967
196644
196373
198298
198135
198186
198123
198055
197908
197807
197659
197520
197325
197129
196928
196778
196609
198507
198217
198197
198081
197974
197811
197679
197477
197311
197162
197055
196960
196929
196796
198677
198298
198204
198032
197837
197599
197398
197191
197095
197026
197012
197010
197257
197080
199285
198696
198326
198006
197733
197433
197146
196908
196856
196885
197038
197103
197606
197416
199685
198662
198375
198032
197657
197264
196884
196641
196691
196838
197131
197277
197916
197913
199175
198921
198199
197876
197541
197290
197159
197265
197517
197720
197877
197718
197346
196866
199701
199546
198967
198585
198351
198202
198059
198050
198249
198264
198251
197999
197638
196909
200072
199883
199544
199170
198975
198765
198730
198615
198618
198493
198239
197748
197046
196194
200204
200042
199843
199570
199445
199275
199169
199062
198925
198652
198233
197589
196755
195824
200084
200007
199917
199739
199631
199469
199359
199233
199049
198730
198213
197477
196524
195474
199792
199877
199850
199778
199725
199564
199485
199339
199139
198784
198180
197387
196324
195178
199371
199609
199660
199705
199654
199556
199468
199293
198999
198641
198073
197316
196257
195111
199099
199406
199487
199541
199521
199433
199337
199168
198938
198583
198072
197298
196415
195419
198989
199239
199393
199494
199452
199324
199197
199009
198783
198459
198009
197455
196682
195881
198998
199111
199293
199330
199255
199098
198912
198727
198525
198251
197911
197483
196991
196350
199184
199152
199302
199262
199090
198761
198521
198320
198119
197915
197706
197466
197237
196682
199303
199209
199306
199073
198741
198364
198071
197823
197605
197454
197326
197205
197282
196849
199913
199577
199367
198954
198465
197875
197417
197080
196884
196800
196800
196773
197264
196839
200225
199424
199222
198751
198085
197361
196795
196340
196177
196255
196433
196482
197246
197220
199756
200656
201016
201786
201976
202655
198659
199565
200167
201266
201868
202788
198503
199619
200149
201302
201752
202896
198068
199055
199647
201065
201559
203035
197602
198632
199384
200945
201558
203119
196901
197788
198580
200465
201410
203266
196374
197348
198261
200134
201175
203234
195994
196861
197951
199936
201152
203035
195971
196863
198068
199936
201300
202954
196187
197077
198334
200034
201419
202846
196565
197488
198762
200304
201636
203121
197089
198032
199130
200501
201705
202898
197813
198666
199641
200864
201870
202925
198224
199127
199989
201205
202062
202991
197922
198464
198768
199440
199797
200596
196844
197327
197805
198868
199548
200815
196707
197263
197683
198999
199714
201580
196331
196761
197329
198963
199557
202300
196105
196625
197273
198821
199527
202443
195810
196101
196776
198613
199269
203506
195877
196133
196732
198530
199274
203200
195953
196226
196900
198691
199581
203095
196245
196603
197346
198892
199874
202787
196689
197022
197788
199059
200034
202404
197137
197491
198234
199361
200282
202087
197638
198024
198538
199545
200486
201894
198197
198510
199069
200007
200785
201907
198342
198765
199378
200428
201166
202181
197690
197375
196894
196130
195539
194061
195905
195852
195728
195318
195485
194226
195580
195398
195338
195313
195907
195281
194885
194397
194316
194966
195740
197219
194453
193967
193964
195288
196726
199612
194019
193371
193493
195518
197219
201925
194016
193471
193719
195902
197540
202943
194401
193926
194267
196383
198162
203092
195101
194772
195104
196768
198472
202634
195916
195781
196174
197302
198372
201299
196640
196620
197152
197871
198322
199959
197097
197197
197630
198050
198318
199060
197486
197621
197923
198277
198485
198714
197357
197511
197970
198466
198683
198907
198623
199861
200379
201331
201973
203278
197091
198437
199392
200795
201764
203381
196699
198080
199236
200756
202193
203856
195869
197046
198393
200378
202398
204675
195397
196732
198124
200275
201870
204880
194877
196196
197755
200316
201673
205269
194808
196092
197655
200287
201757
206007
194933
196226
197920
200537
202179
205529
195429
196741
198391
200826
202435
205427
196056
197367
198936
201298
202907
205481
196879
198141
199529
201516
203099
204827
197566
198785
199941
201769
203152
204710
198437
199593
200448
201947
202837
204219
198921
199891
200762
202196
202895
204183
198813
199577
199898
200996
201506
202912
197601
198424
199155
200770
201531
203357
197496
198424
199190
200608
201525
203574
196980
197589
198352
200007
200996
204005
196727
197452
198159
199846
200331
204099
196444
197015
197786
199974
200275
204626
196462
196990
197823
199972
200183
204904
196694
197149
197957
199918
200148
205471
197163
197649
198378
200267
200561
204553
197704
198277
198947
200690
201177
204758
198277
198941
199690
201204
201950
204014
198783
199549
200165
201564
202433
204226
199426
200168
200683
201897
202566
204097
199636
200306
200953
202285
202795
204539
197886
198646
198692
199310
199423
199737
196442
197243
197826
198904
199728
201130
196205
196834
197538
199025
200404
202785
195790
195933
196455
198294
200164
204342
195533
195496
196051
198177
200199
205656
195371
195010
195508
197862
200029
206152
195572
195171
195686
197999
199967
205948
196129
195818
196391
198643
200348
205835
196912
196861
197473
199371
200710
205308
197796
197998
198621
199922
200911
204890
198735
199075
199712
200927
201232
203440
199427
199882
200261
201105
201322
202510
199981
200532
200696
201643
201682
202392
199634
200247
200629
201933
202153
202911
203822
202898
201978
200948
200260
199649
204143
203057
202008
201090
200257
199788
204204
202959
201957
200904
199970
199343
204828
202819
201959
200524
199577
198854
205052
202381
201631
199937
198989
198280
205746
201763
201110
199363
198456
197839
205860
201696
200894
198887
198008
197417
205493
201889
200904
198731
197896
197205
205470
202114
200832
198619
197770
197102
205224
202446
201044
199123
198082
197235
205017
202829
201217
199416
198303
197411
204597
202857
201683
200222
199075
197831
204252
202560
201744
200240
199335
198051
204493
202904
202409
201395
200951
199588
202099
201150
200310
199351
198701
198364
202797
201574
200576
199820
199057
198988
203288
201480
200723
199858
199089
198902
204098
201398
200972
199811
199070
198822
205324
201103
201025
199595
198944
198637
205843
201100
200900
199294
198688
198457
205819
201036
200858
199043
198448
198251
205835
200848
200882
198918
198355
198105
205506
200831
200884
198869
198361
198053
204934
200996
200929
199259
198750
198173
204305
201239
200907
199404
198963
198365
204233
201778
201526
200285
199665
198734
204665
201942
201746
200404
199838
198905
204458
202628
202543
201584
201510
200414
197890
198339
198438
198504
198279
198585
200046
200126
200156
200460
200102
200364
203136
201868
201402
200999
200553
200581
206224
202684
202043
201258
200598
200481
208022
203370
202569
201070
200296
200155
209759
203794
202475
200419
199817
199699
210719
203672
202036
199650
199223
199206
210899
203303
201499
199053
198752
198821
210786
203193
201165
198754
198549
198600
210085
203443
201529
199049
198741
198557
208815
203242
201484
199258
199041
198663
207062
203313
202017
200138
199712
198863
205573
202910
201907
200424
200193
199061
203791
202730
202632
201779
202023
200990
202686
201872
201073
200272
199530
199038
202495
201490
200602
199877
199095
198741
201884
200941
200146
199355
198598
198267
201818
200598
199754
198857
198217
197929
201874
200422
199588
198473
197889
197632
202112
200318
199544
198250
197729
197513
202438
200373
199664
198235
197790
197532
202806
200687
200114
198610
198158
197780
203025
200772
200407
198942
198612
198153
203044
201233
201023
199630
199202
198516
203025
201371
201154
199919
199545
198857
203174
201980
201567
200464
200060
199170
203019
202094
201555
200531
200125
199370
203492
202902
202702
201946
201773
200908
200632
199803
198991
198253
197645
197556
201291
200089
199142
198545
197957
197954
201573
200191
199329
198544
197808
197795
202373
200401
199451
198424
197742
197692
203038
200145
199324
198055
197458
197423
203438
199818
199130
197629
197107
197176
203739
199182
198795
197203
196799
196981
203514
198783
198545
197066
196788
196885
202564
198673
198383
197039
196930
196970
202240
198905
198591
197553
197445
197248
201824
198948
198886
197924
197750
197452
201936
199847
199489
198498
198339
197770
201763
200326
199690
198642
198389
197851
202042
201171
200810
200185
199945
199464
194722
195694
195962
196286
196150
196714
196784
197072
197239
197708
197607
198050
198849
198245
198044
197977
197751
198122
201730
199203
198414
197937
197539
197895
203828
199735
198236
197231
196915
197411
205126
199746
198187
196462
196283
196874
205949
199553
197904
195737
195748
196465
206095
199459
197705
195419
195525
196222
205399
199125
197491
195304
195450
196176
203187
198811
197620
195916
195991
196495
200759
198111
197242
196186
196487
196902
198414
198192
197491
197230
197442
197497
197453
197659
197375
197584
197751
197821
197522
198126
198611
199365
199842
200158
201261
200641
199761
199219
198794
198571
198431
198419
198839
199180
199661
199913
200004
200043
201336
200990
200348
199861
199530
199287
199181
199325
199393
199679
199926
200049
199987
199568
201472
201136
200756
200369
200162
199968
199880
199761
199850
199921
199946
199781
199314
198619
201327
201110
200886
200626
200473
200286
200226
200170
200130
200046
199886
199479
198810
197893
200975
200953
200843
200751
200614
200482
200436
200360
200303
200151
199861
199256
198379
197260
200638
200666
200700
200707
200634
200601
200538
200440
200293
200078
199750
199022
198061
196788
200270
200473
200535
200593
200600
200582
200543
200432
200278
199990
199577
198854
197898
196546
199995
200171
200360
200440
200479
200458
200444
200341
200209
199962
199543
198923
197941
196691
199820
200025
200198
200292
200339
200326
200302
200207
200086
199872
199548
198996
198286
197251
199759
199963
200150
200215
200189
200134
200086
200006
199921
199803
199523
199135
198560
197800
199921
199999
200139
200096
200031
199891
199802
199714
199669
199573
199420
199225
198928
198367
200207
200200
200222
200039
199822
199583
199407
199275
199223
199188
199144
199184
199252
198792
200962
200669
200328
199927
199522
199124
198857
198644
198542
198535
198587
198754
199400
199031
201300
200540
200243
199755
199118
198511
198036
197733
197635
197781
198072
198315
199287
199630
202966
202474
201668
201105
200577
200159
199939
199935
200132
200521
201057
201575
201973
202306
202853
202538
201945
201503
201158
200878
200729
200666
200841
201067
201412
201729
201978
202005
202773
202497
202095
201759
201509
201288
201162
201103
201172
201280
201400
201435
201321
201038
202434
202322
202086
201882
201672
201534
201454
201404
201407
201381
201324
201124
200762
200259
202003
202073
201958
201876
201721
201674
201603
201539
201473
201378
201234
200877
200291
199552
201538
201724
201770
201779
201737
201714
201661
201591
201485
201286
201016
200565
199847
198988
201269
201479
201576
201644
201658
201661
201633
201574
201451
201262
200912
200394
199604
198686
200925
201218
201360
201470
201523
201536
201530
201483
201392
201226
200916
200402
199628
198644
200772
201045
201201
201314
201381
201388
201382
201355
201280
201156
200898
200492
199879
198947
200790
201001
201110
201182
201211
201202
201176
201150
201116
201065
200940
200706
200262
199551
201029
201088
201159
201130
201032
200956
200899
200888
200893
200946
200917
200884
200699
200174
201450
201355
201258
201057
200872
200658
200549
200518
200570
200684
200822
201002
201188
200806
202206
201822
201437
201006
200611
200292
200090
200006
200088
200285
200571
200951
201558
201369
202524
201814
201435
200817
200239
199729
199444
199341
199474
199806
200311
200823
201899
202050
204961
204419
203709
203120
202662
202311
202171
202196
202292
202673
203217
203892
204668
205290
204673
204291
203756
203337
203006
202757
202640
202664
202859
203141
203514
203978
204461
204877
204234
204047
203700
203445
203190
203043
202984
202985
203127
203241
203475
203708
203912
204048
203780
203772
203585
203481
203269
203229
203199
203192
203273
203297
203388
203410
203348
203226
203335
203484
203428
203368
203320
203327
203316
203312
203321
203264
203240
203150
202901
202563
202895
203113
203207
203246
203282
203338
203354
203357
203320
203220
203035
202813
202450
201952
202569
202824
202995
203093
203172
203255
203298
203323
203281
203163
202967
202643
202190
201554
202204
202519
202753
202901
203021
203116
203175
203219
203190
203090
202915
202589
202142
201413
201964
202297
202515
202702
202833
202938
203008
203075
203075
203020
202905
202649
202266
201635
201917
202183
202352
202495
202612
202698
202775
202866
202915
202926
202892
202755
202515
201953
202100
202248
202344
202348
202407
202470
202543
202629
202717
202817
202921
202954
202904
202478
202480
202459
202384
202321
202215
202177
202215
202313
202448
202678
202880
203104
203316
203044
203047
202786
202485
202194
202004
201865
201822
201912
202096
202371
202707
203144
203654
203593
203306
202827
202450
201986
201629
201383
201334
201394
201648
202022
202482
203052
203950
204095
206334
205869
205344
204891
204577
204312
204210
204261
204483
204730
205221
205775
206629
207296
206075
205754
205325
204999
204766
204591
204543
204597
204824
205076
205470
205869
206362
206792
205517
205454
205213
205041
204858
204785
204766
204814
204986
205132
205358
205634
205908
206151
205090
205163
205055
204971
204881
204887
204903
204956
205063
205139
205262
205364
205446
205477
204681
204849
204841
204802
204851
204909
204959
205014
205067
205070
205086
205125
205071
204934
204221
204493
204587
204650
204750
204851
204934
205005
205043
205038
204977
204851
204677
204412
203838
204139
204312
204454
204599
204734
204843
204936
204982
204979
204889
204717
204440
204043
203484
203803
204025
204221
204402
204565
204706
204826
204893
204904
204819
204635
204331
203882
203170
203455
203744
203982
204183
204371
204536
204689
204788
204835
204810
204679
204454
203986
203053
203267
203507
203753
203952
204153
204336
204513
204651
204756
204805
204742
204584
204131
203151
203332
203458
203599
203778
203955
204115
204305
204478
204638
204796
204842
204879
204513
203392
203413
203490
203516
203592
203729
203886
204067
204255
204474
204805
204991
205196
204988
203761
203646
203514
203431
203402
203445
203551
203742
203975
204333
204660
205038
205460
205463
204048
203719
203419
203166
203078
203064
203110
203306
203575
203989
204446
205023
205680
205899
207727
207407
207076
206739
206504
206314
206258
206329
206610
206876
207336
207895
208605
209297
207489
207288
207042
206834
206658
206526
206513
206587
206848
207089
207510
207917
208395
208869
206979
207020
206912
206813
206687
206671
206683
206760
206945
207115
207397
207687
208069
208403
206623
206746
206706
206678
206683
206717
206762
206854
206996
207128
207317
207509
207706
207867
206183
206410
206450
206518
206588
206677
206765
206875
206989
207087
207168
207262
207373
207426
205721
206026
206168
206308
206446
206578
206700
206828
206934
207012
207058
207076
207035
206972
205332
205641
205869
206061
206255
206429
206590
206740
206854
206933
206955
206918
206819
206629
204937
205272
205558
205799
206032
206248
206452
206635
206772
206861
206876
206822
206686
206423
204605
204949
205291
205564
205829
206079
206314
206528
206693
206804
206845
206822
206708
206459
204514
204754
205076
205364
205644
205909
206161
206403
206604
206763
206877
206911
206857
206581
204513
204813
205004
205241
205490
205741
205992
206254
206495
206710
206895
206991
207071
206809
204660
204783
204966
205136
205348
205576
205811
206079
206343
206598
206901
207135
207361
207175
204812
204880
204949
205032
205159
205357
205576
205827
206101
206449
206860
207186
207532
207572
204972
204853
204774
204751
204876
205027
205235
205511
205834
206263
206700
207229
207685
207904
209122
208931
208757
208527
208385
208257
208240
208317
208594
208851
209285
209757
210440
211073
208893
208807
208707
208590
208503
208410
208428
208517
208748
209009
209411
209849
210297
210733
208493
208593
208578
208556
208479
208497
208539
208638
208827
209051
209349
209687
210059
210427
208138
208318
208350
208400
208428
208487
208558
208681
208849
209054
209295
209566
209816
210009
207689
207956
208079
208191
208299
208404
208514
208659
208818
209002
209178
209369
209559
209697
207270
207568
207779
207950
208122
208273
208425
208591
208755
208924
209069
209202
209289
209308
206836
207178
207463
207693
207916
208116
208312
208506
208682
208844
208957
209041
209072
209020
206429
206818
207160
207434
207705
207955
208198
208423
208617
208776
208877
208938
208928
208822
206137
206533
206922
207244
207549
207835
208107
208355
208567
208734
208845
208898
208888
208749
206035
206354
206750
207095
207409
207722
208017
208291
208532
208721
208866
208941
208968
208834
205987
206361
206669
206982
207297
207611
207914
208210
208486
208718
208921
209045
209138
208976
206039
206313
206607
206876
207162
207474
207783
208094
208398
208674
208959
209156
209355
209219
206074
206322
206537
206775
207038
207311
207589
207899
208222
208549
208921
209237
209497
209521
206143
206267
206342
206530
206739
207021
207310
207619
207964
208371
208801
209255
209576
209820
210734
210680
210630
210509
210469
210380
210407
210490
210677
210917
211286
211732
212340
212975
210480
210520
210541
210519
210501
210497
210539
210637
210821
211082
211433
211868
212310
212730
210152
210315
210390
210456
210456
210518
210580
210696
210869
211113
211402
211765
212155
212558
209779
210027
210158
210279
210360
210453
210545
210685
210864
211104
211372
211688
212009
212282
209358
209682
209882
210057
210200
210336
210465
210628
210813
211043
211279
211533
211798
212035
208950
209312
209579
209804
210004
210185
210356
210544
210741
210962
211178
211393
211588
211724
208550
208949
209281
209554
209806
210031
210244
210459
210669
210884
211078
211246
211388
211468
208198
208635
209017
209337
209636
209904
210156
210396
210618
210827
211004
211142
211244
211264
207945
208407
208835
209193
209523
209819
210097
210354
210588
210799
210972
211095
211173
211150
207858
208270
208717
209091
209438
209750
210044
210317
210569
210795
210982
211107
211178
211134
207817
208269
208650
209016
209360
209679
209992
210284
210557
210803
211021
211171
211290
211235
207837
208229
208590
208920
209253
209575
209892
210200
210507
210791
211071
211264
211445
211375
207833
208202
208531
208836
209125
209416
209716
210035
210370
210701
211047
211347
211574
211646
207883
208130
208378
208638
208888
209167
209443
209763
210132
210549
210987
211405
211674
211893
212395
212438
212486
212440
212462
212439
212498
212613
212798
213045
213358
213763
214303
214899
212139
212276
212383
212438
212481
212533
212616
212737
212923
213189
213526
213939
214372
214779
211844
212082
212228
212353
212427
212529
212629
212773
212958
213216
213517
213879
214272
214674
211486
211808
211998
212181
212307
212444
212567
212736
212937
213202
213501
213845
214192
214502
211111
211495
211741
211972
212142
212315
212469
212659
212873
213139
213423
213722
214020
214288
210766
211170
211475
211746
211961
212167
212355
212567
212797
213060
213329
213602
213865
214073
210410
210864
211225
211538
211799
212038
212261
212492
212732
212987
213236
213471
213683
213848
210129
210614
211024
211375
211677
211949
212202
212449
212693
212938
213167
213369
213541
213657
209949
210460
210912
211291
211617
211909
212177
212434
212681
212919
213135
213314
213457
213523
209888
210381
210845
211231
211569
211872
212153
212423
212685
212930
213145
213311
213433
213445
209863
210370
210797
211182
211525
211838
212131
212416
212691
212949
213180
213341
213466
213446
209900
210362
210754
211117
211446
211759
212060
212365
212670
212957
213226
213403
213577
213544
209874
210322
210699
211022
211317
211609
211910
212232
212574
212906
213227
213484
213677
213762
209909
210251
210562
210833
211105
211364
211649
211986
212366
212779
213184
213559
213769
213959
214229
214355
214467
214510
214575
214639
214735
214878
215078
215337
215637
215991
216455
216987
214016
214225
214380
214501
214601
214721
214842
215006
215211
215487
215806
216196
216592
216965
213751
214056
214242
214425
214557
214713
214862
215050
215261
215528
215830
216175
216534
216900
213445
213823
214052
214281
214453
214639
214810
215022
215254
215533
215837
216170
216509
216812
213128
213550
213834
214101
214313
214523
214722
214951
215201
215487
215785
216087
216385
216637
212833
213276
213615
213914
214163
214396
214619
214866
215132
215418
215709
215994
216270
216500
212535
213022
213414
213747
214033
214293
214540
214800
215071
215351
215627
215883
216119
216305
212325
212834
213271
213634
213950
214232
214495
214760
215029
215299
215558
215786
215987
216136
212205
212739
213204
213587
213917
214209
214479
214745
215009
215270
215512
215718
215891
215996
212168
212696
213165
213553
213887
214182
214457
214731
215002
215263
215498
215687
215839
215899
212199
212710
213156
213537
213870
214166
214446
214725
215001
215267
215502
215684
215825
215841
212246
212732
213132
213489
213806
214100
214389
214688
214986
215270
215522
215700
215865
215858
212236
212711
213084
213392
213680
213966
214261
214582
214914
215230
215512
215723
215906
216013
212278
212643
212945
213203
213458
213719
214013
214364
214743
215127
215479
215765
215952
216144
202590
203359
203521
204501
206013
207751
199615
199798
200204
201092
202755
205157
198986
199075
199122
199706
200833
202177
198079
197631
197311
197650
198045
198367
197533
196834
196403
196531
196917
196760
197138
196037
195304
195341
196006
195811
197046
195837
195026
195136
196065
196528
197421
196218
195386
195673
197383
198004
198163
197149
196727
197220
199487
200416
199028
198324
198455
199180
201591
202925
199861
199466
200239
201314
203725
205184
200377
200387
201417
202426
205172
206992
200897
201002
202125
203215
205775
208281
199739
200191
201596
203280
206150
208936
204500
205374
205689
205952
206545
207840
201768
202001
202442
203123
204119
205507
201195
201353
201287
201609
202173
203092
200426
200072
199525
199420
199346
199789
199740
198915
198192
197828
197668
198249
199189
197916
196891
196270
196290
197133
198916
197463
196295
195536
195740
197104
198997
197649
196489
195698
196211
197677
199484
198432
197593
197178
198111
199725
200250
199556
199280
199328
200538
202200
201178
200841
201085
201690
203135
204898
202063
202047
202760
203606
205328
207253
203011
203101
203997
204986
206862
208900
201875
202252
203488
205220
207553
209519
206357
207566
208270
208918
209378
210030
204097
204571
205200
206193
207135
208048
203460
203726
204036
204354
204657
205324
202627
202530
202316
201940
201749
201768
201970
201589
200748
200112
199647
199488
201453
200872
199565
198714
197980
197778
201226
200437
198930
197898
196987
197219
201390
200374
198997
197994
197159
197807
201884
200775
199955
199135
198924
199831
202568
201823
201519
201145
201611
202689
203436
203090
203273
203444
204519
205780
204380
204523
205124
205725
207068
208508
205600
205918
206813
207823
209274
210910
205035
205433
206510
208113
210049
211879
207268
208045
208528
209026
209432
210092
205760
206224
206685
207248
207950
208954
205243
205471
205602
205918
206426
207025
204594
204492
204278
204349
204268
204217
204142
203668
203165
202769
202145
201932
203719
203016
202422
201471
200665
200106
203606
202674
202028
200644
199696
199035
203779
202803
201915
200504
199580
199040
204061
203286
202348
201400
200626
200333
204677
204026
203613
203006
202653
202718
205368
205082
205061
204947
205144
205722
206192
206290
206723
206992
207593
208510
207254
207647
208360
209021
210108
211196
207275
207739
208471
209615
210951
212432
208356
208900
209255
209647
210074
210657
207420
207767
208128
208559
209094
209758
207051
207262
207409
207587
207820
208180
206543
206519
206408
206286
206212
206242
206238
205983
205542
205122
204620
204194
205939
205465
204792
204257
203387
202903
205828
205221
204470
203942
202797
202064
205940
205373
204680
203777
202685
202062
206281
205656
205160
204163
203372
202826
206764
206326
205910
205386
204837
204495
207463
207230
207144
206913
206816
206867
208183
208268
208489
208648
208969
209452
209029
209380
209904
210398
211056
211971
209351
209813
210442
211197
212214
213262
209536
209920
210233
210598
210985
211441
208952
209193
209429
209850
210322
210884
208726
208868
208949
209169
209371
209744
208358
208315
208236
208187
208099
208144
208174
207975
207649
207245
206931
206201
208009
207645
207111
206550
205825
205013
207939
207481
206799
206174
205359
204543
208011
207563
206954
206383
205216
204442
208338
207940
207303
206730
205712
205185
208708
208426
208041
207537
207018
206623
209355
209178
208972
208802
208575
208477
209981
210037
210114
210271
210404
210631
210672
210985
211335
211777
212245
212826
211208
211646
212158
212750
213496
214381
211071
211319
211557
211826
212139
212598
210720
210891
211060
211371
211723
212263
210631
210734
210792
210934
211113
211382
210409
210337
210238
210165
210094
210116
210318
210110
209854
209516
209161
208755
210188
209897
209455
208856
208341
207370
210149
209766
209242
208481
207897
206819
210214
209834
209285
208622
207968
206766
210495
210162
209674
209055
208341
207529
210805
210535
210192
209758
209237
208873
211325
211187
211029
210757
210609
210509
211885
211917
211987
212036
212152
212289
212473
212726
213006
213322
213696
214087
213099
213489
213858
214323
214892
215530
212643
212798
212975
213205
213492
213857
212468
212578
212666
212975
213273
213776
212490
212534
212548
212744
212851
213146
212347
212247
212135
212125
211999
212102
212324
212109
211873
211665
211325
211142
212257
211989
211636
211172
210566
209975
212275
211894
211473
210854
210247
209426
212371
211995
211534
210862
210332
209319
212602
212313
211901
211331
210720
209747
212919
212699
212318
211923
211364
210801
213383
213226
213003
212774
212474
212297
213894
213872
213864
213832
213871
213948
214387
214555
214739
214942
215251
215556
214979
215309
215563
215919
216374
216837
214439
214537
214653
214839
215060
215373
214396
214475
214540
214814
215081
215535
214486
214510
214532
214734
214863
215161
214438
214347
214272
214324
214250
214297
214463
214271
214077
213930
213641
213490
214455
214197
213908
213581
212965
212507
214518
214175
213764
213269
212590
212091
214651
214283
213853
213293
212672
212037
214882
214571
214228
213695
213110
212487
215186
214957
214652
214210
213759
213264
215593
215442
215216
214963
214658
214403
216071
216021
215964
215844
215788
215779
216507
216597
216709
216807
217010
217254
217011
217267
217442
217712
218081
218460
201675
202555
203027
204361
206578
209236
198708
199300
200154
201534
203940
207524
198077
198423
199117
200320
202385
205606
196886
196635
196922
197905
199607
201642
196062
195490
195551
196528
198092
199602
195321
194221
194008
195010
196794
198179
195025
193737
193521
194685