/*--------------------------------*- C++ -*----------------------------------*\
| =========                 |                                                 |
| \\      /  F ield         | OpenFOAM: The Open Source CFD Toolbox           |
|  \\    /   O peration     | Version:  v2106                                 |
|   \\  /    A nd           | Website:  www.openfoam.com                      |
|    \\/     M anipulation  |                                                 |
\*---------------------------------------------------------------------------*/
FoamFile
{
    version     2.0;
    format      ascii;
    arch        "LSB;label=32;scalar=64";
    class       volScalarField;
    location    "0.000166";
    object      T;
}
// * * * * * * * * * * * * * * * * * * * * * * * * * * * * * * * * * * * * * //

dimensions      [0 0 0 1 0 0 0];

internalField   nonuniform List<scalar> 
144746
(
292.295
292.109
291.685
291.537
291.423
291.41
291.405
291.461
291.611
291.859
292.102
292.298
292.461
292.706
292.018
292.015
291.864
291.826
291.77
291.76
291.751
291.775
291.847
291.987
292.156
292.339
292.491
292.478
291.845
291.912
291.961
292.046
292.082
292.091
292.08
292.063
292.075
292.124
292.173
292.204
292.158
292.06
291.563
291.722
291.934
292.127
292.224
292.27
292.269
292.266
292.247
292.245
292.187
292.093
291.962
291.873
291.184
291.512
291.883
292.152
292.272
292.322
292.33
292.324
292.309
292.266
292.164
291.984
291.801
291.716
290.808
291.299
291.808
292.134
292.262
292.313
292.332
292.334
292.322
292.268
292.137
291.922
291.719
291.631
290.503
291.137
291.773
292.127
292.257
292.297
292.31
292.315
292.307
292.24
292.089
291.862
291.661
291.581
290.262
290.962
291.681
292.072
292.217
292.244
292.263
292.263
292.251
292.173
292.023
291.815
291.647
291.582
290.064
290.776
291.54
291.963
292.115
292.125
292.144
292.138
292.126
292.042
291.906
291.722
291.58
291.543
289.85
290.552
291.324
291.725
291.871
291.861
291.869
291.848
291.82
291.743
291.636
291.517
291.448
291.429
289.632
290.307
291.055
291.386
291.47
291.396
291.342
291.281
291.245
291.199
291.17
291.139
291.121
291.079
289.424
290.059
290.764
291.026
291.003
290.809
290.622
290.499
290.474
290.459
290.47
290.455
290.525
290.454
289.471
290.033
290.547
290.725
290.632
290.347
290.008
289.795
289.754
289.726
289.742
289.708
289.87
289.835
289.514
289.816
290.308
290.528
290.453
290.145
289.72
289.446
289.359
289.33
289.314
289.272
289.458
289.545
290.894
290.634
290.132
289.864
289.708
289.659
289.687
289.839
290.157
290.556
290.88
290.997
290.984
290.987
290.91
290.93
290.755
290.65
290.581
290.538
290.51
290.543
290.653
290.84
291.014
291.057
291.016
290.651
290.888
290.981
291.103
291.184
291.223
291.203
291.153
291.098
291.1
291.107
291.104
290.974
290.612
290.053
290.681
290.931
291.231
291.431
291.516
291.531
291.496
291.432
291.375
291.315
291.179
290.879
290.346
289.768
290.296
290.792
291.25
291.519
291.615
291.634
291.604
291.564
291.502
291.412
291.214
290.819
290.215
289.656
289.868
290.601
291.218
291.53
291.632
291.651
291.636
291.606
291.552
291.448
291.223
290.786
290.186
289.668
289.523
290.43
291.182
291.518
291.626
291.644
291.63
291.608
291.555
291.434
291.198
290.762
290.218
289.788
289.243
290.274
291.132
291.497
291.61
291.614
291.612
291.581
291.53
291.403
291.173
290.773
290.321
289.995
289.002
290.106
291.015
291.41
291.533
291.541
291.547
291.514
291.454
291.321
291.099
290.774
290.416
290.181
288.757
289.862
290.81
291.233
291.359
291.355
291.355
291.316
291.255
291.132
290.948
290.699
290.442
290.238
288.52
289.581
290.504
290.895
291.001
290.986
290.956
290.879
290.799
290.697
290.567
290.399
290.22
290.013
288.3
289.286
290.113
290.412
290.436
290.337
290.201
290.063
289.974
289.885
289.788
289.673
289.66
289.465
288.334
289.17
289.76
289.915
289.838
289.598
289.306
289.071
288.941
288.852
288.792
288.688
288.803
288.675
288.378
288.912
289.395
289.508
289.366
289.018
288.601
288.304
288.183
288.095
288.027
287.896
288.048
288.093
290.326
289.989
289.337
288.989
288.765
288.665
288.643
288.82
289.249
289.792
290.257
290.428
290.307
290.011
290.648
290.671
290.442
290.287
290.186
290.108
290.04
290.048
290.222
290.384
290.505
290.5
290.306
289.649
290.77
290.927
291.026
291.033
291.051
290.988
290.945
290.864
290.841
290.785
290.674
290.4
289.82
288.815
290.648
291.003
291.287
291.401
291.472
291.443
291.379
291.298
291.196
291.044
290.808
290.33
289.467
288.287
290.298
290.953
291.374
291.54
291.595
291.555
291.499
291.422
291.323
291.164
290.856
290.261
289.251
288.003
289.827
290.822
291.371
291.582
291.644
291.593
291.551
291.475
291.381
291.213
290.85
290.193
289.137
287.908
289.324
290.603
291.296
291.563
291.614
291.587
291.544
291.459
291.325
291.15
290.793
290.143
289.115
287.944
288.931
290.381
291.172
291.478
291.546
291.529
291.491
291.413
291.304
291.115
290.77
290.129
289.235
288.22
288.618
290.135
291.031
291.395
291.475
291.458
291.42
291.34
291.226
291.033
290.697
290.177
289.438
288.659
288.316
289.829
290.793
291.171
291.257
291.242
291.194
291.123
291.018
290.833
290.543
290.111
289.569
288.976
288.035
289.478
290.433
290.787
290.85
290.775
290.704
290.628
290.522
290.37
290.154
289.852
289.489
288.992
287.743
289.069
289.911
290.123
290.097
289.969
289.827
289.694
289.558
289.426
289.262
289.072
288.943
288.569
287.759
288.842
289.369
289.384
289.185
288.811
288.478
288.224
288.043
287.918
287.824
287.716
287.851
287.621
287.794
288.447
288.791
288.67
288.218
287.592
287.074
286.696
286.504
286.414
286.354
286.246
286.534
286.618
293.065
293.463
293.735
294.313
294.745
295.229
292.381
292.741
293.101
293.788
294.328
294.888
292.061
292.471
292.853
293.619
294.15
294.795
291.847
292.247
292.689
293.6
294.197
294.994
291.779
292.278
292.841
293.878
294.571
295.402
291.675
292.18
292.82
294.073
294.956
295.921
291.642
292.219
292.932
294.196
295.136
296.218
291.581
292.076
292.861
294.174
295.195
296.217
291.566
291.969
292.707
293.936
295.041
296.01
291.472
291.726
292.293
293.339
294.447
295.385
291.143
291.262
291.644
292.482
293.531
294.517
290.595
290.682
290.939
291.638
292.557
293.377
290.078
290.219
290.556
291.25
292.048
292.731
289.702
289.986
290.465
291.268
291.996
292.577
291.127
291.261
291.249
291.6
292.033
292.572
290.161
290.227
290.265
290.76
291.246
291.907
289.657
289.774
289.953
290.642
291.182
292.058
289.382
289.587
289.975
290.977
291.662
293.03
289.379
289.724
290.322
291.557
292.602
294.215
289.384
289.679
290.465
292.075
293.369
295.674
289.609
289.906
290.688
292.398
293.882
296.108
289.87
290.154
290.883
292.523
294.076
296.185
290.102
290.32
290.928
292.327
293.841
295.702
290.184
290.246
290.636
291.634
292.87
294.436
289.978
289.901
290.032
290.631
291.511
292.675
289.486
289.32
289.203
289.481
290.05
290.892
288.81
288.599
288.483
288.665
289.054
289.682
288.116
288.048
288.061
288.348
288.755
289.291
290.185
289.795
289.238
288.656
288.191
287.413
288.654
288.158
287.663
287.159
286.979
286.242
287.754
287.128
286.79
286.647
286.721
286.184
287.127
286.501
286.368
286.64
286.93
287.444
286.907
286.455
286.548
287.423
288.543
290.062
286.813
286.33
286.587
288.241
290.293
293.088
286.961
286.572
286.944
288.946
291.486
294.898
287.387
287.11
287.527
289.496
292.093
295.322
288.027
287.839
288.179
289.727
291.99
294.717
288.573
288.411
288.627
289.607
290.995
292.861
288.767
288.561
288.65
289.003
289.409
290.278
288.451
288.148
287.92
287.673
287.454
287.633
287.674
287.239
286.69
286.133
285.703
285.608
286.478
286.004
285.517
285.095
284.748
284.675
289.72
290.355
290.91
291.668
292.271
292.966
289.168
289.859
290.676
291.786
292.698
293.599
289.22
289.929
290.971
292.299
293.513
294.475
289.147
289.778
290.954
292.626
294.176
295.397
289.242
289.941
291.173
292.956
294.458
296.027
289.275
289.973
291.25
293.221
294.736
296.661
289.494
290.175
291.375
293.329
294.927
297.141
289.824
290.472
291.543
293.365
294.952
296.776
290.217
290.723
291.557
293.092
294.525
296.179
290.438
290.742
291.267
292.47
293.704
295.176
290.474
290.592
290.769
291.548
292.585
293.647
290.171
290.185
290.183
290.834
291.756
292.704
289.76
289.801
289.835
290.508
291.349
292.231
289.309
289.461
289.701
290.562
291.436
292.308
288.011
288.208
288.296
288.785
289.188
289.878
287.501
287.832
288.294
289.372
290.241
291.26
287.596
288.104
288.909
290.303
291.625
292.898
287.637
288.101
289.165
290.973
292.627
294.426
287.761
288.318
289.487
291.489
293.133
295.373
287.824
288.293
289.463
291.782
293.511
296.116
287.983
288.4
289.515
291.767
293.546
296.385
288.312
288.628
289.514
291.497
293.254
296.397
288.772
288.981
289.522
291.113
292.622
295.112
289.14
289.219
289.393
290.407
291.465
293.556
289.279
289.226
289.146
289.595
290.123
291.237
289.116
288.899
288.583
288.721
288.894
289.681
288.712
288.365
287.935
288.012
288.161
288.848
288.016
287.762
287.471
287.76
288.061
288.961
285.882
285.673
285.233
285.104
284.796
284.697
285.212
285.024
284.868
285.199
285.578
286.128
285.226
285.017
285.179
286.212
287.532
288.878
285.22
284.918
285.316
287.106
289.52
292.138
285.305
285.022
285.586
287.908
291.106
294.775
285.349
284.937
285.543
288.12
291.708
295.952
285.527
285.073
285.695
288.211
291.731
295.975
285.957
285.533
286.074
288.329
291.434
295.318
286.651
286.358
286.734
288.401
290.723
293.82
287.477
287.293
287.46
288.322
289.597
291.786
288.137
287.909
287.869
288.169
288.124
288.927
288.326
287.975
287.489
287.015
286.301
286.418
288.066
287.554
286.581
285.729
284.768
284.68
287.104
286.452
285.364
284.669
283.929
283.954
294.952
294.297
293.501
292.845
292.507
292.27
295.737
294.925
293.875
293.037
292.537
292.323
296.216
295.258
294.045
292.987
292.333
292.03
296.65
295.3
293.972
292.649
291.932
291.604
296.622
294.949
293.548
292.068
291.358
291.07
296.626
294.333
292.909
291.42
290.793
290.588
296.171
293.823
292.363
290.836
290.318
290.16
295.388
293.367
291.942
290.426
290.015
289.858
294.607
292.817
291.532
290.117
289.723
289.61
293.754
292.353
291.256
290.061
289.568
289.404
293.211
292.113
290.987
289.852
289.341
289.179
292.946
291.993
290.992
289.935
289.384
289.057
292.846
291.799
290.805
289.724
289.274
288.9
292.784
291.818
290.982
290.127
289.815
289.384
292.584
292.011
291.494
291.049
290.835
290.808
294.354
293.495
292.48
291.677
291.165
291.14
295.602
294.262
292.918
291.773
291.123
290.997
296.367
294.429
292.931
291.463
290.728
290.604
296.688
294.079
292.493
290.764
290.046
289.961
296.517
293.596
291.772
289.945
289.319
289.339
296.04
293.008
291.164
289.306
288.749
288.84
295.482
292.402
290.739
288.88
288.385
288.475
294.602
291.787
290.3
288.528
288.109
288.185
293.389
291.062
289.749
288.276
287.94
287.932
291.981
290.23
289.052
287.843
287.639
287.691
290.831
289.475
288.612
287.71
287.564
287.534
290.143
288.735
288.045
287.318
287.357
287.352
289.359
288.405
288.046
287.636
287.921
287.884
288.904
289.272
289.57
289.749
289.736
290.058
291.966
291.882
291.5
291.154
290.768
290.899
294.743
293.599
292.292
291.275
290.824
290.86
296.561
293.991
292.126
290.819
290.31
290.411
297.205
293.877
291.456
289.705
289.233
289.579
297.659
293.478
290.404
288.353
288.061
288.673
297.717
292.921
289.462
287.252
287.107
287.906
297.325
292.305
288.719
286.503
286.459
287.34
296.489
291.644
288.089
285.965
286.025
286.924
294.802
290.679
287.548
285.549
285.695
286.581
292.064
288.836
286.489
284.977
285.354
286.292
288.519
286.655
285.519
284.744
285.293
286.109
285.562
284.655
284.575
284.492
285.29
286.008
283.96
283.84
284.477
285.09
286.206
286.861
295.761
295.14
294.293
293.573
293.117
292.91
296.033
295.325
294.409
293.633
293.065
292.831
295.912
295.232
294.32
293.451
292.818
292.555
295.847
294.996
293.992
293.04
292.444
292.211
295.664
294.659
293.59
292.537
292.004
291.827
295.426
294.263
293.169
292.071
291.639
291.51
295.186
293.912
292.834
291.739
291.411
291.291
294.945
293.666
292.689
291.619
291.341
291.209
294.642
293.357
292.512
291.505
291.305
291.189
294.276
293.24
292.562
291.615
291.371
291.192
293.966
293.012
292.397
291.575
291.414
291.275
293.886
293.132
292.487
291.773
291.67
291.498
293.766
293.216
292.675
292.101
292.027
291.851
294.219
293.811
293.461
293.014
292.989
292.706
293.759
293.112
292.306
291.656
291.236
291.17
295.078
294.174
293.023
292.097
291.507
291.389
295.823
294.691
293.315
292.154
291.43
291.261
296.353
294.839
293.253
291.908
291.162
290.976
296.452
294.54
292.852
291.299
290.573
290.441
296.223
293.947
292.225
290.532
289.881
289.852
295.666
293.017
291.452
289.811
289.285
289.381
294.681
292.07
290.746
289.321
288.949
289.08
293.406
291.282
290.172
288.986
288.772
288.944
292.422
290.665
289.811
288.949
288.817
288.939
291.554
290.071
289.482
288.806
288.796
288.999
291.061
290.029
289.447
288.91
289.095
289.351
290.64
289.938
289.6
289.324
289.648
289.912
291.2
290.767
290.68
290.689
290.928
291.087
289.732
290.071
289.998
289.941
289.813
290.038
292.338
292.128
291.519
291.036
290.629
290.72
294.296
293.423
292.161
291.14
290.644
290.686
295.992
293.931
292
290.705
290.161
290.266
296.831
293.833
291.18
289.519
289.016
289.328
296.889
293.112
290.112
288.098
287.726
288.272
296.336
292.014
288.878
286.797
286.671
287.48
294.843
290.634
287.73
285.849
285.986
287.044
292.325
288.775
286.636
285.192
285.587
286.878
288.955
286.793
285.792
285.049
285.601
286.942
286.115
285.219
285.079
284.926
285.73
287.183
284.684
284.967
285.117
285.539
286.561
287.824
284.898
285.27
285.73
286.663
287.758
288.735
286.364
286.896
287.698
288.754
289.758
290.447
291.065
290.611
289.992
289.585
289.276
289.106
289.035
289.087
289.481
289.994
290.608
291.036
291.195
291.13
291.25
291.287
291.136
290.985
290.836
290.671
290.573
290.617
290.677
290.862
291.042
291.143
291.052
290.499
291.349
291.558
291.677
291.675
291.671
291.581
291.491
291.412
291.42
291.408
291.362
291.17
290.64
289.542
291.207
291.65
291.896
291.959
291.98
291.909
291.851
291.805
291.759
291.689
291.548
291.163
290.319
288.828
290.875
291.636
291.964
292.067
292.062
292.009
291.963
291.914
291.882
291.807
291.627
291.1
289.992
288.286
290.524
291.525
291.955
292.075
292.067
292.045
291.998
291.944
291.883
291.792
291.589
290.931
289.688
287.935
290.156
291.389
291.896
292.04
292.054
292.035
291.998
291.941
291.881
291.752
291.47
290.75
289.494
287.776
289.826
291.162
291.786
291.968
292.005
291.987
291.965
291.911
291.851
291.711
291.375
290.68
289.464
287.897
289.536
290.962
291.642
291.869
291.929
291.93
291.919
291.867
291.789
291.624
291.288
290.624
289.626
288.36
289.262
290.731
291.462
291.722
291.786
291.794
291.794
291.752
291.667
291.509
291.163
290.593
289.789
288.883
289.002
290.388
291.124
291.391
291.48
291.482
291.483
291.443
291.371
291.215
290.917
290.467
289.892
289.236
288.775
289.958
290.581
290.783
290.832
290.811
290.776
290.718
290.656
290.543
290.325
290.046
289.757
289.266
288.848
289.613
289.881
289.86
289.727
289.551
289.427
289.313
289.232
289.164
289.067
288.974
289.128
288.864
288.865
289.102
289.121
288.84
288.319
287.818
287.478
287.251
287.141
287.135
287.179
287.255
287.798
288.112
292.064
291.82
291.459
291.181
290.838
290.489
290.272
290.232
290.347
290.633
291.097
291.595
291.95
292.132
292.178
292.28
292.238
292.171
292.024
291.811
291.651
291.586
291.638
291.704
291.826
291.932
291.985
291.744
292.245
292.525
292.602
292.601
292.542
292.412
292.306
292.254
292.256
292.242
292.199
292.075
291.776
291.019
292.127
292.597
292.738
292.766
292.709
292.627
292.565
292.528
292.51
292.466
292.375
292.126
291.577
290.418
291.912
292.585
292.763
292.801
292.734
292.676
292.622
292.589
292.564
292.526
292.434
292.098
291.303
289.81
291.661
292.487
292.733
292.771
292.732
292.682
292.635
292.602
292.57
292.502
292.355
291.907
290.895
289.23
291.479
292.382
292.666
292.716
292.694
292.661
292.626
292.595
292.554
292.48
292.256
291.68
290.531
288.849
291.251
292.232
292.565
292.641
292.64
292.621
292.597
292.567
292.526
292.434
292.169
291.536
290.378
288.726
291.083
292.081
292.448
292.563
292.591
292.582
292.564
292.535
292.477
292.358
292.055
291.441
290.384
288.86
290.935
291.917
292.304
292.447
292.502
292.517
292.505
292.469
292.399
292.258
291.962
291.41
290.499
289.273
290.746
291.642
292.069
292.243
292.307
292.335
292.334
292.315
292.247
292.113
291.816
291.349
290.692
289.832
290.529
291.217
291.585
291.759
291.857
291.881
291.896
291.896
291.87
291.773
291.54
291.188
290.83
290.301
290.476
290.754
290.872
290.874
290.863
290.868
290.889
290.912
290.954
290.964
290.871
290.712
290.702
290.475
290.34
290.209
290.018
289.625
289.279
289.089
289.051
289.072
289.184
289.353
289.524
289.669
290.18
290.34
293.177
293.089
292.986
292.846
292.62
292.328
292.136
292.077
292.052
292.154
292.382
292.74
293.149
293.464
293.245
293.338
293.326
293.283
293.167
293.005
292.897
292.874
292.908
292.956
293.026
293.141
293.261
293.308
293.224
293.465
293.48
293.468
293.378
293.285
293.233
293.222
293.257
293.252
293.266
293.255
293.209
292.99
293.145
293.499
293.531
293.533
293.431
293.374
293.344
293.34
293.369
293.359
293.359
293.292
293.105
292.632
293.028
293.475
293.528
293.499
293.441
293.398
293.375
293.374
293.386
293.371
293.364
293.272
292.957
292.231
292.887
293.373
293.465
293.445
293.409
293.389
293.378
293.381
293.38
293.363
293.297
293.125
292.667
291.711
292.774
293.271
293.384
293.371
293.351
293.35
293.353
293.364
293.359
293.329
293.233
292.957
292.351
291.204
292.622
293.138
293.285
293.295
293.297
293.305
293.313
293.326
293.32
293.277
293.157
292.819
292.127
290.867
292.482
292.992
293.165
293.225
293.249
293.267
293.275
293.289
293.276
293.22
293.077
292.718
292.009
290.775
292.37
292.844
293.03
293.124
293.185
293.215
293.229
293.24
293.219
293.146
292.98
292.622
291.962
290.81
292.215
292.651
292.87
292.976
293.072
293.145
293.18
293.182
293.149
293.062
292.892
292.56
292.021
291.106
291.951
292.291
292.527
292.713
292.823
292.909
292.974
293.011
292.996
292.945
292.772
292.479
292.115
291.53
291.687
291.794
291.925
292.052
292.194
292.31
292.417
292.535
292.611
292.62
292.518
292.32
292.145
291.891
291.384
291.204
291.042
290.89
290.874
290.97
291.172
291.392
291.644
291.839
291.924
291.938
292.132
292.143
294.001
293.995
294.011
293.975
293.893
293.745
293.637
293.619
293.652
293.653
293.762
293.895
294.172
294.426
294.11
294.184
294.144
294.091
294.015
293.936
293.91
293.93
294.004
294.052
294.127
294.198
294.304
294.375
294.066
294.235
294.195
294.14
294.05
294.002
293.99
294.015
294.084
294.123
294.161
294.213
294.27
294.302
294.026
294.233
294.197
294.127
294.046
294.016
294.011
294.037
294.092
294.132
294.176
294.196
294.202
294.156
293.945
294.168
294.137
294.057
294.017
294.006
294.013
294.037
294.076
294.099
294.13
294.159
294.13
293.981
293.815
294.049
294.023
293.971
293.953
293.964
293.989
294.022
294.055
294.078
294.086
294.069
293.983
293.694
293.704
293.912
293.897
293.875
293.879
293.906
293.942
293.986
294.025
294.046
294.041
293.992
293.809
293.346
293.576
293.774
293.781
293.786
293.81
293.849
293.894
293.945
293.989
294.012
293.997
293.913
293.645
293.041
293.411
293.597
293.67
293.713
293.756
293.806
293.855
293.909
293.951
293.976
293.965
293.856
293.553
292.846
293.28
293.447
293.548
293.642
293.71
293.775
293.827
293.876
293.911
293.93
293.908
293.772
293.439
292.69
293.126
293.334
293.457
293.57
293.682
293.761
293.807
293.851
293.871
293.869
293.838
293.683
293.398
292.699
292.85
293.077
293.294
293.446
293.581
293.7
293.781
293.82
293.825
293.805
293.792
293.631
293.387
292.828
292.523
292.709
292.906
293.101
293.277
293.435
293.568
293.678
293.733
293.764
293.697
293.556
293.386
293.04
292.172
292.142
292.149
292.236
292.445
292.689
292.925
293.179
293.38
293.497
293.499
293.458
293.43
293.279
294.845
294.841
294.856
294.828
294.788
294.733
294.71
294.733
294.816
294.867
294.972
295.096
295.265
295.446
294.944
294.977
294.928
294.862
294.792
294.741
294.745
294.791
294.914
295.009
295.142
295.239
295.341
295.418
294.902
295
294.942
294.857
294.769
294.745
294.749
294.793
294.89
294.976
295.085
295.17
295.286
295.385
294.859
294.97
294.895
294.796
294.74
294.732
294.743
294.787
294.864
294.939
295.025
295.106
295.202
295.306
294.735
294.857
294.778
294.707
294.678
294.692
294.723
294.773
294.833
294.891
294.945
295.021
295.131
295.226
294.58
294.686
294.628
294.594
294.601
294.635
294.683
294.741
294.794
294.844
294.901
294.971
295.038
295.07
294.455
294.505
294.482
294.478
294.514
294.57
294.634
294.699
294.756
294.815
294.871
294.922
294.953
294.878
294.309
294.342
294.351
294.378
294.436
294.506
294.582
294.656
294.725
294.794
294.846
294.875
294.861
294.681
294.136
294.19
294.253
294.314
294.389
294.467
294.545
294.625
294.702
294.779
294.831
294.85
294.796
294.533
294.012
294.069
294.174
294.275
294.368
294.449
294.525
294.607
294.688
294.768
294.825
294.833
294.748
294.392
293.846
294.023
294.139
294.264
294.367
294.452
294.526
294.603
294.68
294.753
294.801
294.779
294.698
294.303
293.625
293.862
294.07
294.227
294.365
294.466
294.54
294.612
294.675
294.727
294.778
294.753
294.684
294.291
293.343
293.628
293.879
294.076
294.253
294.413
294.528
294.607
294.658
294.71
294.754
294.708
294.635
294.341
293.032
293.153
293.342
293.562
293.827
294.08
294.303
294.488
294.621
294.699
294.696
294.678
294.604
294.416
295.631
295.61
295.597
295.55
295.525
295.498
295.501
295.549
295.675
295.767
295.907
296.054
296.257
296.401
295.703
295.7
295.648
295.571
295.514
295.473
295.488
295.54
295.661
295.797
295.973
296.132
296.257
296.334
295.655
295.703
295.637
295.549
295.472
295.463
295.478
295.528
295.63
295.758
295.908
296.043
296.165
296.262
295.564
295.621
295.542
295.464
295.424
295.432
295.457
295.514
295.6
295.707
295.823
295.942
296.055
296.16
295.403
295.444
295.389
295.351
295.352
295.379
295.425
295.491
295.565
295.649
295.731
295.831
295.965
296.122
295.24
295.243
295.227
295.228
295.267
295.321
295.385
295.457
295.527
295.601
295.674
295.772
295.898
296.037
295.054
295.058
295.074
295.113
295.182
295.259
295.339
295.419
295.493
295.567
295.641
295.737
295.851
295.934
294.872
294.898
294.951
295.018
295.107
295.2
295.293
295.383
295.465
295.548
295.63
295.723
295.797
295.818
294.708
294.772
294.873
294.971
295.071
295.167
295.264
295.359
295.451
295.542
295.634
295.717
295.764
295.712
294.589
294.686
294.833
294.956
295.057
295.154
295.249
295.348
295.453
295.556
295.655
295.725
295.755
295.647
294.461
294.668
294.832
294.966
295.073
295.166
295.254
295.352
295.465
295.578
295.68
295.73
295.75
295.572
294.337
294.607
294.822
294.973
295.093
295.195
295.281
295.371
295.477
295.585
295.688
295.725
295.754
295.545
294.179
294.505
294.749
294.951
295.112
295.226
295.307
295.393
295.484
295.574
295.67
295.713
295.725
295.549
293.973
294.204
294.447
294.703
294.921
295.12
295.283
295.403
295.492
295.572
295.624
295.662
295.634
295.543
296.433
296.418
296.388
296.333
296.322
296.295
296.317
296.372
296.475
296.592
296.748
296.924
297.155
297.33
296.454
296.444
296.398
296.334
296.294
296.283
296.301
296.351
296.451
296.595
296.778
296.973
297.138
297.244
296.389
296.396
296.347
296.293
296.251
296.262
296.284
296.337
296.426
296.56
296.719
296.89
297.037
297.157
296.243
296.257
296.22
296.197
296.192
296.217
296.254
296.317
296.401
296.517
296.647
296.789
296.923
297.042
296.05
296.068
296.061
296.079
296.116
296.165
296.219
296.288
296.368
296.467
296.567
296.676
296.808
296.971
295.86
295.879
295.907
295.962
296.033
296.107
296.178
296.256
296.334
296.421
296.506
296.605
296.736
296.903
295.674
295.709
295.774
295.859
295.955
296.047
296.134
296.221
296.302
296.385
296.466
296.562
296.697
296.86
295.5
295.571
295.673
295.782
295.894
295.998
296.097
296.192
296.279
296.365
296.45
296.553
296.682
296.803
295.355
295.48
295.623
295.749
295.865
295.97
296.072
296.172
296.267
296.362
296.458
296.563
296.673
296.731
295.27
295.434
295.612
295.746
295.859
295.959
296.058
296.16
296.267
296.377
296.49
296.594
296.672
296.682
295.21
295.453
295.635
295.772
295.875
295.964
296.058
296.163
296.281
296.408
296.535
296.634
296.701
296.657
295.174
295.457
295.664
295.801
295.901
295.982
296.068
296.169
296.293
296.429
296.572
296.665
296.729
296.638
295.109
295.438
295.672
295.832
295.932
296.007
296.086
296.181
296.297
296.426
296.568
296.676
296.731
296.665
295.014
295.284
295.534
295.735
295.886
296.014
296.105
296.195
296.298
296.42
296.542
296.641
296.668
296.655
297.187
297.174
297.148
297.095
297.087
297.071
297.099
297.161
297.264
297.397
297.553
297.732
297.961
298.175
297.162
297.154
297.125
297.087
297.073
297.079
297.108
297.161
297.252
297.392
297.575
297.78
297.971
298.11
297.06
297.066
297.044
297.034
297.031
297.062
297.1
297.158
297.242
297.369
297.53
297.713
297.884
298.021
296.891
296.908
296.907
296.936
296.97
297.019
297.07
297.139
297.224
297.343
297.482
297.64
297.784
297.908
296.701
296.734
296.767
296.834
296.899
296.969
297.033
297.11
297.196
297.305
297.422
297.545
297.669
297.805
296.525
296.571
296.643
296.739
296.827
296.914
296.992
297.077
297.166
297.266
297.367
297.472
297.592
297.74
296.349
296.434
296.542
296.659
296.765
296.864
296.955
297.046
297.138
297.231
297.321
297.415
297.536
297.701
296.201
296.329
296.471
296.604
296.722
296.829
296.929
297.026
297.119
297.211
297.299
297.392
297.52
297.68
296.102
296.277
296.446
296.588
296.707
296.813
296.914
297.014
297.112
297.207
297.299
297.398
297.528
297.66
296.063
296.27
296.455
296.593
296.704
296.804
296.902
297.007
297.115
297.222
297.327
297.432
297.546
297.625
296.053
296.309
296.49
296.618
296.715
296.804
296.9
297.008
297.128
297.251
297.376
297.483
297.576
297.599
296.074
296.355
296.534
296.649
296.729
296.807
296.896
297.007
297.138
297.278
297.426
297.538
297.623
297.597
296.056
296.366
296.562
296.672
296.745
296.816
296.897
297.002
297.135
297.284
297.444
297.574
297.647
297.637
296.025
296.291
296.496
296.643
296.755
296.831
296.903
296.998
297.123
297.277
297.433
297.569
297.62
297.652
297.944
297.939
297.931
297.909
297.912
297.924
297.96
298.026
298.124
298.258
298.41
298.582
298.789
299.008
297.903
297.906
297.897
297.894
297.906
297.94
297.983
298.048
298.138
298.27
298.435
298.634
298.821
298.973
297.784
297.806
297.808
297.839
297.874
297.931
297.988
298.061
298.147
298.266
298.414
298.588
298.758
298.901
297.622
297.661
297.693
297.759
297.824
297.899
297.968
298.051
298.143
298.259
298.395
298.547
298.694
298.814
297.452
297.513
297.582
297.678
297.767
297.856
297.936
298.027
298.124
298.238
298.36
298.484
298.602
298.71
297.299
297.385
297.489
297.606
297.71
297.808
297.899
297.997
298.099
298.208
298.317
298.422
298.53
298.649
297.149
297.277
297.414
297.545
297.662
297.768
297.867
297.97
298.074
298.177
298.274
298.365
298.466
298.596
297.038
297.203
297.367
297.508
297.633
297.743
297.847
297.952
298.054
298.154
298.245
298.331
298.437
298.577
296.977
297.177
297.358
297.503
297.625
297.733
297.835
297.94
298.044
298.143
298.234
298.322
298.436
298.569
296.964
297.187
297.373
297.511
297.622
297.722
297.822
297.93
298.041
298.148
298.246
298.34
298.455
298.563
296.997
297.241
297.415
297.536
297.631
297.72
297.817
297.928
298.046
298.165
298.277
298.38
298.484
298.546
297.044
297.302
297.454
297.554
297.631
297.71
297.805
297.921
298.049
298.183
298.315
298.423
298.522
298.539
297.052
297.327
297.478
297.563
297.633
297.705
297.791
297.905
298.04
298.186
298.331
298.453
298.548
298.577
297.054
297.288
297.445
297.554
297.637
297.704
297.778
297.886
298.022
298.178
298.331
298.459
298.536
298.591
291.258
290.892
290.128
289.477
288.813
287.656
289.255
288.096
286.819
285.769
284.914
283.747
288.105
286.335
284.632
283.38
282.338
281.123
287.22
284.988
283.243
282.224
281.31
280.293
286.77
284.506
283.031
282.353
282.282
282.227
286.587
284.328
283.12
283.025
284.048
285.02
286.655
284.61
283.683
284.138
286.092
288.311
287.104
285.388
284.668
285.504
288.25
291.226
287.972
286.698
286.378
287.446
290.578
293.81
289.157
288.38
288.506
289.752
292.771
295.654
290.392
290.035
290.554
291.948
294.54
296.711
291.216
291.155
291.762
292.975
295.193
296.803
291.602
291.549
292.128
293.087
294.688
295.732
290.997
291.007
291.483
292.175
293.107
293.376
292.406
292.19
291.52
290.373
289.148
287.955
290.829
289.825
288.468
286.829
285.123
283.541
290
288.297
286.12
283.982
281.992
280.439
289.269
286.883
284.241
282.051
280.385
279.32
288.629
285.841
283.267
281.533
280.674
280.651
288.142
285.21
282.899
281.785
281.687
282.543
287.939
285.124
283.201
282.561
283.091
285.003
288.031
285.525
284.005
283.625
284.682
287.293
288.477
286.49
285.501
285.488
287.046
289.994
289.297
287.99
287.526
287.841
289.7
292.574
290.411
289.751
289.686
290.286
292.104
294.487
291.536
291.258
291.441
292.094
293.62
295.303
292.276
292.101
292.274
292.79
293.963
295.09
291.851
291.707
291.853
292.23
292.925
293.255
293.576
293.816
293.641
293.217
292.367
291.351
292.614
292.259
291.568
290.571
289.04
287.268
292.306
291.354
289.8
287.722
285.318
283.107
291.851
290.291
287.911
285.031
282.387
280.407
291.318
289.241
286.27
283.345
281.146
279.987
290.753
288.35
285.163
282.584
281.035
280.697
290.393
287.811
284.749
282.601
281.633
282.157
290.334
287.688
284.953
283.312
282.836
283.929
290.481
287.958
285.848
284.789
284.878
286.377
290.85
288.848
287.424
286.852
287.405
289.192
291.504
290.185
289.414
289.167
290.061
291.906
292.367
291.735
291.49
291.527
292.524
294.075
293.257
293.055
293.081
293.363
294.247
295.314
293.25
293.272
293.443
293.821
294.426
295.009
294.226
294.445
294.458
294.432
294.273
294.016
293.772
293.795
293.649
293.33
292.768
291.83
293.814
293.58
292.945
291.877
290.329
288.208
293.669
293.109
291.849
289.908
287.187
284.223
293.446
292.45
290.52
287.71
284.34
281.718
293.088
291.675
289.231
285.843
282.769
281.087
292.81
291.013
288.251
284.769
282.381
281.434
292.709
290.661
287.732
284.594
282.827
282.508
292.678
290.595
287.724
285.276
284.188
284.427
292.791
290.78
288.436
286.729
286.251
286.877
293.006
291.373
289.68
288.703
288.705
289.559
293.39
292.351
291.45
290.984
291.263
292.289
293.997