/*--------------------------------*- C++ -*----------------------------------*\
| =========                 |                                                 |
| \\      /  F ield         | OpenFOAM: The Open Source CFD Toolbox           |
|  \\    /   O peration     | Version:  v2106                                 |
|   \\  /    A nd           | Website:  www.openfoam.com                      |
|    \\/     M anipulation  |                                                 |
\*---------------------------------------------------------------------------*/
FoamFile
{
    version     2.0;
    format      ascii;
    arch        "LSB;label=32;scalar=64";
    class       volScalarField;
    location    "0.000186";
    object      k;
}
// * * * * * * * * * * * * * * * * * * * * * * * * * * * * * * * * * * * * * //

dimensions      [0 2 -2 0 0 0 0];

internalField   nonuniform List<scalar> 
18273
(
15.5257
12.2125
8.81828
5.51806
3.54512
2.81077
3.29861
5.1013
8.51597
13.4009
17.5612
18.1118
15.6099
13.0351
16.4674
11.7117
7.26547
3.97716
2.32946
1.67044
1.76239
2.68079
4.6939
7.95152
12.0355
14.4453
13.5967
11.4557
14.2887
8.81211
4.75836
2.38957
1.35392
0.92297
0.901705
1.36109
2.51771
4.50553
7.2315
9.9947
10.7267
10.0177
9.67455
5.17077
2.51062
1.20213
0.671032
0.454441
0.44327
0.692687
1.35498
2.52912
4.15175
6.05055
7.3178
7.7884
5.34735
2.50868
1.10859
0.506676
0.278974
0.19675
0.214013
0.377827
0.79666
1.55688
2.61393
3.823
4.96253
6.08865
2.57496
1.06684
0.427155
0.183064
0.10029
0.0804055
0.113598
0.240167
0.537548
1.07302
1.81969
2.65982
3.66006
5.20355
1.22246
0.458882
0.166668
0.0677578
0.0390124
0.0417989
0.0814171
0.191289
0.427131
0.837518
1.41288
2.1103
3.31125
5.66835
0.752469
0.276939
0.1025
0.0469412
0.0321523
0.0421803
0.0861131
0.190727
0.396067
0.736873
1.22376
1.9866
3.81446
7.52417
0.765873
0.29745
0.13026
0.075434
0.0583051
0.0692473
0.116617
0.220736
0.411479
0.72225
1.21209
2.41671
5.42252
10.9571
1.22143
0.478879
0.23445
0.158021
0.128572
0.134247
0.183173
0.292079
0.490305
0.837787
1.5832
3.79711
8.39952
15.2282
2.74624
1.11684
0.479695
0.33757
0.287073
0.282152
0.334374
0.466546
0.729558
1.29946
2.68394
6.44315
12.1991
18.1771
5.96117
3.66638
1.78582
0.889191
0.642904
0.6007
0.666393
0.864889
1.29635
2.33318
4.79061
9.64105
14.741
18.0083
9.72052
7.97967
5.12842
2.7511
1.60232
1.24406
1.26265
1.55814
2.25047
3.84596
7.02579
11.3723
14.3499
15.4764
12.7551
12.5436
10.344
6.95041
4.26246
2.81482
2.34151
2.55221
3.39035
5.25913
8.10523
10.9341
12.2264
13.0255
13.902
10.0311
6.75816
4.12579
2.69317
2.14177
2.45511
3.74901
6.24386
9.83496
13.729
15.8204
15.2961
13.5124
13.2429
8.74269
5.24765
2.94528
1.81474
1.33288
1.37638
2.05691
3.59561
5.96408
8.81665
11.3665
11.9874
11.1671
10.4396
6.23284
3.40226
1.81534
1.08659
0.762605
0.735505
1.09079
2.0185
3.55111
5.49416
7.51515
8.77593
9.05475
6.65828
3.59451
1.82337
0.941913
0.554455
0.385466
0.372016
0.574958
1.13455
2.10972
3.361
4.64237
5.78136
6.57415
3.54103
1.70547
0.807184
0.403939
0.236153
0.170052
0.182162
0.319558
0.680137
1.32882
2.19154
3.09661
3.97285
4.93301
1.62178
0.689934
0.301735
0.144426
0.0850277
0.0690623
0.0958932
0.203025
0.458624
0.916749
1.54496
2.23245
2.95732
4.02473
0.730145
0.274891
0.107235
0.0481634
0.0297864
0.0328047
0.0653369
0.157543
0.357507
0.70506
1.19148
1.76819
2.53476
4.05744
0.448882
0.160375
0.0578123
0.0258278
0.0185189
0.0277692
0.063104
0.148727
0.319459
0.605135
1.01556
1.57721
2.66395
4.99041
0.480324
0.177698
0.0712113
0.0383661
0.0303873
0.0412317
0.0789993
0.162856
0.320297
0.581266
0.992051
1.73103
3.49778
7.02764
0.772368
0.293458
0.133261
0.0852232
0.0700258
0.0794192
0.120336
0.20936
0.375562
0.670633
1.22256
2.47525
5.28381
9.88421
1.6883
0.649647
0.281292
0.195761
0.166584
0.172545
0.222186
0.336062
0.55994
0.994682
1.88737
4.05063
7.80992
12.867
4.00407
2.21193
1.00758
0.496657
0.383761
0.377841
0.448161
0.620126
0.960788
1.65265
3.15228
6.16493
10.3257
14.832
7.43737
5.31032
3.08516
1.53418
0.911033
0.780443
0.855081
1.10749
1.61716
2.64409
4.65744
8.10237
11.8178
14.8732
11.1255
9.35206
6.72384
4.0861
2.39253
1.66086
1.53341
1.80423
2.4532
3.7389
6.0451
9.25754
11.9321
13.9693
9.63256
6.48262
4.26914
2.74186
1.92099
1.55243
1.63791
2.26829
3.60134
5.59474
8.10074
10.7852
12.9389
13.8426
7.8386
5.05328
3.0971
1.88295
1.26778
0.96952
0.963171
1.33808
2.2717
3.75351
5.5991
7.49767
9.02922
10.0936
5.49611
3.34985
1.97292
1.15941
0.748035
0.551793
0.527819
0.744212
1.35646
2.4021
3.73173
5.15085
6.42345
7.59096
3.29048
1.91664
1.0637
0.603168
0.379298
0.277206
0.268792
0.403823
0.796845
1.5076
2.44983
3.47035
4.42849
5.40233
1.72405
0.912818
0.472653
0.258922
0.161555
0.121674
0.130841
0.22665
0.486327
0.969115
1.64469
2.41029
3.18332
4.08221
0.797463
0.366957
0.17342
0.0917416
0.0581072
0.0487193
0.0675546
0.143411
0.328228
0.67005
1.16962
1.77109
2.42805
3.24571
0.373475
0.143819
0.0584672
0.0287444
0.019193
0.0216741
0.0441697
0.109523
0.254495
0.515625
0.905716
1.40728
2.01913
2.89455
0.248192
0.0834145
0.0282072
0.0122516
0.00928081
0.0157693
0.0398336
0.100297
0.224913
0.442241
0.771573
1.2267
1.86496
2.96688
0.275971
0.0927349
0.0328435
0.0160031
0.0130413
0.0208996
0.0466793
0.106442
0.223463
0.424593
0.742475
1.23615
2.06241
3.6429
0.438084
0.153934
0.0640611
0.0384796
0.0318955
0.0399549
0.0688384
0.133573
0.2588
0.482529
0.87105
1.55162
2.77213
4.88399
0.923825
0.335092
0.145882
0.0983464
0.0836257
0.0914219
0.128483
0.213161
0.381453
0.697975
1.27612
2.29672
4.06167
6.64485
2.14851
1.08213
0.477831
0.24834
0.206938
0.215492
0.272405
0.403603
0.661087
1.13925
1.99163
3.4576
5.73997
8.96928
4.23662
2.62263
1.40146
0.686975
0.465728
0.464999
0.551756
0.75044
1.12244
1.78422
2.92398
4.8487
7.64711
11.2218
6.829
4.83273
3.08765
1.76121
1.10262
0.927187
1.01264
1.27522
1.75341
2.5816
4.02316
6.4938
9.73382
13.3137
11.8041
12.5917
14.2192
17.8623
25.9499
50.185
10.1717
10.7859
12.1905
15.4741
23.5158
48.3249
9.12004
9.49562
10.8481
13.8202
21.6161
46.4156
7.88052
8.76314
10.4261
13.1246
20.491
44.5912
7.22364
8.81256
10.9275
13.4114
20.2029
42.9624
7.42814
9.92574
12.407
14.5402
20.4792
41.5323
9.07263
12.4239
14.8038
16.1619
20.9286
40.5127
12.1526
15.9
17.2692
17.3676
20.9572
40.3517
15.9832
18.6865
18.216
17.3226
20.377
40.8857
18.5902
19.0073
17.2642
16.388
19.6276
42.0381
18.46
17.274
15.6269
15.5331
19.3579
43.8372
16.487
15.2092
14.4116
15.2022
19.6188
46.3586
14.2413
13.686
13.766
15.2424
20.4734
49.212
12.6583
12.7488
13.3289
15.5246
21.959
52.014
12.0855
12.8473
13.8646
16.344
23.05
46.5418
10.1684
10.9204
12.1472
14.4678
20.6223
43.5613
8.70945
9.53129
11.0104
13.3247
19.0205
41.1321
7.07951
8.41996
10.4801
12.9895
18.5455
39.1924
6.0426
7.88581
10.5997
13.4696
19.1601
37.745
5.73746
8.21359
11.5503
14.6066
20.1795
36.8447
6.49724
9.75316
13.6655
16.4399
20.8565
36.3954
8.35575
12.4941
16.6234
18.3104
20.7246
36.7484
11.124
15.6696
18.9673
18.916
19.8254
37.8067
13.9494
17.7851
19.3417
18.0624
18.6924
39.1515
15.6925
17.9778
18.1431
16.8515
18.1431
40.6817
15.9081
16.8892
16.7368
16.1443
18.3675
42.5603
15.1122
15.5588
15.695
15.9788
19.1781
44.5372
14.052
14.6468
14.9814
16.0618
20.4578
46.4326
14.0435
15.6441
16.469
17.4377
20.9632
38.1419
10.5732
12.3776
14.1526
15.8194
19.0986
35.0685
8.56321
10.4335
12.6482
14.7585
18.0342
33.077
6.622
8.69678
11.4362
14.2457
18.0023
31.9233
5.35154
7.5523
10.7577
14.1811
18.7448
31.4854
4.54241
6.90777
10.5657
14.5609
19.9569
31.4683
4.40727
7.13661
11.4072
15.7283
20.7723
31.6485
4.86601
8.20502
13.2577
17.6721
20.8237
32.0421
5.93802
9.95934
15.6941
19.4207
20.403
32.8837
7.49777
12.0008
17.7366
20.095
19.8485
34.2408
9.20539
13.8041
18.8137
20.1711
19.6894
35.9125
10.8792
15.1462
19.366
20.3891
20.3172
37.6248
12.626
16.4102
19.9166
20.8629
21.5913
39.0776
14.3399
17.9206
20.5497
21.11
22.914
40.0948
11.5746
12.15
13.2443
16.3745
24.4503
54.4497
10.3797
10.7147
11.7358
14.4469
21.7703
51.8036
9.45346
9.51965
10.6355
13.237
19.8791
49.31
7.76217
8.29698
10.0052
12.756
18.9611
47.0714
6.01864
7.24647
9.76229
12.9878
18.9636
45.1699
4.69901
6.74626
10.0838
13.8633
19.6083
43.5335
4.28379
7.1601
11.311
15.3539
20.5782
42.1406
4.79396
8.76542
13.6874
17.3269
21.2078
41.1687
6.40338
11.568
16.6757
18.8956
20.9409
40.6563
9.02656
14.6671
18.691
19.0872
19.904
40.8038
11.9128
16.6116
18.7416
18.0145
18.8384
41.6086
13.8922
16.7392
17.446
16.7269
18.3996
43.2494
14.2127
15.5188
15.6788
15.6524
18.5867
45.4471
13.2487
13.8124
13.8466
14.7255
19.3202
47.9664
12.7498
13.704
14.4882
16.498
22.246
48.1685
10.8078
11.777
13.1147
15.1614
20.2691
45.3495
9.04211
10.1384
11.9356
14.3208
18.9486
42.9424
6.78523
8.2497
10.7708
13.8802
18.6023
40.8387
4.8442
6.5503
9.698
13.7158
19.0821
39.0882
3.55707
5.46032
9.05753
13.8921
20.0086
37.9814
2.97932
5.19548
9.28404
14.7056
21.218
37.2853
3.02107
5.86372
10.798
16.508
22.0856
36.7862
3.83442
7.6538
13.6029
18.7501
21.9266
36.665
5.49984
10.2382
16.4807
19.9604
20.7952
37.0625
7.78277
12.7047
17.9169
19.5295
19.3791
37.8272
10.1166
14.2444
17.751
18.3419
18.6833
39.0162
11.7767
14.619
16.5947
16.9504
18.5458
40.5977
12.279
14.0338
14.8469
15.3726
18.6309
42.4754
15.408
18.0589
19.7637
20.8167
23.692
40.4885
10.9393
13.6586
16.6655
19.3384
22.6095
38.3481
7.96801
10.6754
14.2678
17.9301
21.6281
36.6345
5.45443
7.92378
11.8757
16.6073
21.1669
35.1186
3.72541
5.77572
9.78009
15.2974
20.9703
33.9293
2.69382
4.44542
8.1563
14.0634
21.0239
33.1871
2.10878
3.74047
7.25639
13.3668
21.5357
32.723
1.84963
3.53372
7.19952
13.6989
21.9886
32.2159
1.94632
3.93857
8.25454
15.1281
21.9448
31.7797
2.48576
4.93086
10.0903
16.783
21.2654
31.6343
3.48234
6.33814
11.9227
17.6488
20.2921
32.0307
4.89366
7.89101
13.1812
17.8182
19.8632
33.1325
6.49859
9.4243
13.8726
17.4749
20.0144
34.7337
7.93795
10.6588
14.0393
16.6313
20.273
36.3209
47.9784
22.8838
17.7431
16.4476
16.1759
15.736
46.3888
23.1448
19.4077
18.9369
18.5292
17.5857
45.5499
24.9223
21.6086
21.0339
19.4433
17.0318
45.4174
27.7429
23.3499
21.1621
17.4316
13.5252
45.4265
29.8466
22.5624
17.9874
12.8925
8.85129
45.0658
29.0182
18.7151
12.9378
8.23482
5.08485
44.5202
25.3156
14.0767
8.66241
5.06674
2.84121
43.78
20.8134
10.7089
6.2491
3.56126
1.88546
43.333
17.2593
8.96558
5.40372
3.28122
1.81835
43.563
15.4085
8.51394
5.72979
4.04548
2.55482
44.5159
15.1161
9.03566
6.89892
5.72368
4.37263
46.1561
16.0763
10.2368
8.511
7.83214
6.97456
48.2351
18.2358
12.0885
10.37
9.86417
9.3078
50.5321
20.9119
14.2688
12.2789
11.9195
11.4577
44.5073
21.3237
16.9677
16.1453
15.6299
14.5323
43.7823
22.1839
19.0712
18.3997
16.8452
14.866
43.3759
23.9679
21.2591
19.5373
16.1034
12.9063
42.9986
26.8543
22.4108
18.4037
13.1567
9.41533
42.4923
29.115
20.724
14.6443
9.11323
5.85564
41.4642
28.2441
16.5024
10.0737
5.64289
3.23586
40.0947
24.5899
12.2264
6.60715
3.4479
1.75657
38.8558
20.3797
9.47107
4.83622
2.45538
1.17853
37.9474
17.0562
8.29294
4.39895
2.36063
1.19234
37.5328
15.1265
8.28099
4.97182
3.04806
1.71021
38.3146
14.4972
9.04485
6.36164
4.63482
3.07911
39.8551
15.0622
10.3417
8.30684
6.93841
5.42971
41.8681
16.846
12.1357
10.4913
9.45669
8.13616
44.2468
18.9667
14.1616
12.9348
12.4827
11.3654
37.5845
20.6571
17.1216
15.2603
12.7212
10.3044
37.8687
21.6354
18.1111
15.3093
11.5413
8.84098
37.7077
22.633
18.587
14.278
9.40476
6.62942
37.3645
24.3296
17.99
12.0173
6.86397
4.41393
36.9348
25.0327
15.7433
8.96037
4.56974
2.67791
36.1579
23.744
12.5228
6.1543
2.90217
1.51717
34.9828
21.0962
9.73871
4.29613
1.9368
0.893722
33.7057
18.4575
8.16194
3.50122
1.56473
0.681212
32.7227
16.6521
7.70775
3.45592
1.62232
0.734754
32.2546
15.82
8.13873
4.06502
2.11778
1.04506
32.4733
15.8119
9.14304
5.3099
3.22668
1.88552
33.4757
16.4586
10.7722
7.31935
5.06615
3.42212
35.0987
17.9369
12.9817
9.90108
7.51725
5.61069
36.9878
19.8062
15.6629
13.3711
11.0935
8.77549
48.0323
23.9344
17.3678
14.5122
13.3228
12.8795
45.8088
23.2307
17.6694
15.5435
14.8783
14.9256
44.1449
23.7497
18.7869
17.3953
17.2249
17.4875
43.3642
25.6298
20.7149
19.7674
19.4187
18.8317
43.0248
27.9698
22.2924
20.7907
19.0309
16.7926
42.6124
29.0643
21.387
18.4906
15.2762
12.2444
42.2475
27.7761
17.7995
13.9265
10.5264
7.93975
42.0854
24.68
13.9182
9.99502
7.17733
5.28606
42.3845
21.3376
11.4271
7.89711
5.71656
4.26372
42.9914
18.826
10.3723
7.40681
5.81097
4.70823
44.1399
18.3186
10.6305
8.12753
7.058
6.30953
45.75
19.3561
12.0346
9.76348
9.0659
8.71558
47.69
21.5101
14.3599
12.0628
11.3339
10.8959
49.6664
24.1386
16.9862
14.5191
13.8446
13.4189
45.7849
21.8083
16.4696
14.6911
14.0009
13.5123
44.8062
21.5376
17.2761
16.1782
15.713
15.3808
43.7999
22.2397
18.8185
18.1884
17.5225
16.6235
42.8642
24.1691
20.9969
20.0988
18.183
15.9867
41.7661
26.8567
22.3339
19.9298
16.1556
12.981
40.4676
28.4883
20.7371
16.6638
12.1357
9.02558
38.9621
27.3215
16.8144
12.096
8.18985
5.77521
37.7836
24.3744
13.0689
8.60865
5.6248
3.86597
37.3578
21.0113
10.8294
6.89611
4.57209
3.19247
37.5025
18.2409
10.0148
6.68198
4.82692
3.61997
38.3152
16.7648
10.211
7.53992
6.08482
5.01483
39.8103
17.1972
11.3284
9.1873
8.12911
7.29527
42.0063
19.0039
13.2863
11.3748
10.4847
9.72111
44.7622
21.4175
15.6452
13.952
13.5235
12.8927
39.4302
20.8045
18.1708
17.4846
16.1356
14.1643
40.0718
20.96
19.0822
18.0923
15.8344
13.563
40.0047
21.7121
20.0973
18.4455
14.9831
12.0022
38.9829
22.9781
20.9849
18.0386
13.1456
9.81909
37.6214
24.3397
20.5711
15.8578
10.4782
7.32503
36.0961
24.7454
17.975
12.4276
7.69476
5.075
34.5229
23.4147
14.402
9.06684
5.43411
3.43486
33.1313
21.276
11.5967
6.85055
4.076
2.55405
32.0089
19.1678
10.306
5.9299
3.61598
2.32841
31.385
17.3723
10.0908
6.11658
3.98292
2.71937
31.3574
16.352
10.5689
7.07063
4.99322
3.65971
32.1324
16.5378
11.7369
8.81005
6.77467
5.30088
33.8022
17.9274
13.5924
11.0472
9.07515
7.45941
36.3423
19.9987
16.0769
14.2619
12.6666
10.8271
3.66828
2.4981
1.75178
1.26463
1.03336
0.90646
0.885951
0.982026
1.29342
1.88045
2.79
4.15571
6.21951
9.13362
2.22409
1.53319
1.05088
0.739535
0.588802
0.505328
0.485627
0.547805
0.776105
1.24379
1.99935
3.10727
4.65677
6.6439
1.26533
0.846946
0.560438
0.385271
0.301353
0.254775
0.24515
0.292158
0.461024
0.820624
1.41292
2.26298
3.41454
4.90588
0.670798
0.407965
0.254785
0.172229
0.134009
0.113117
0.113215
0.152056
0.276637
0.543885
0.993409
1.64487
2.5178
3.66834
0.332816
0.170338
0.0973078
0.0651845
0.0507958
0.0441735
0.0500392
0.0830873
0.176605
0.375153
0.717945
1.22812
1.93152
2.90419
0.166016
0.0660124
0.0323865
0.0209686
0.0165369
0.0161928
0.0243998
0.0531838
0.127119
0.281104
0.551302
0.967101
1.56051
2.41225
0.0995199
0.0300615
0.0110934
0.00616385
0.00509944
0.00701445
0.0159989
0.0424072
0.105905
0.235055
0.462256
0.820519
1.35071
2.14226
0.0848892
0.0223521
0.00620253
0.0025473
0.00237862
0.00511352
0.0146199
0.0403894
0.0994884
0.216474
0.420372
0.744839
1.23642
1.99374
0.0976325
0.0265469
0.00786217
0.0034873
0.00330784
0.00656658
0.0170028
0.0437932
0.102746
0.216107
0.410888
0.722222
1.20529
1.97296
0.139379
0.0422256
0.0166858
0.00986422
0.00892255
0.0127231
0.0248701
0.0544521
0.116756
0.233166
0.430904
0.748432
1.25096
2.06459
0.244347
0.0851481
0.0425598
0.0300388
0.0269042
0.0313838
0.0470487
0.0833836
0.15647
0.289702
0.514673
0.874983
1.44455
2.34918
0.51623
0.208765
0.108485
0.0840093
0.0766405
0.0826301
0.106098
0.158125
0.257802
0.43401
0.725172
1.18204
1.88196
2.92636
1.08327
0.49612
0.26681
0.207974
0.195646
0.205898
0.244875
0.326964
0.476852
0.732539
1.14752
1.79029
2.78992
4.14265
1.90215
1.01483
0.618579
0.472831
0.443491
0.463282
0.528755
0.659398
0.888432
1.26977
1.88991
2.89651
4.54706
6.69016
1.52556
1.14526
0.890719
0.703568
0.627826
0.58668
0.581276
0.610333
0.721607
0.97045
1.41001
2.08445
3.17678
5.09418
0.845216
0.626
0.475257
0.370605
0.328493
0.304313
0.299422
0.318531
0.398822
0.593113
0.961844
1.56525
2.51942
4.02738
0.452023
0.308084
0.223147
0.173537
0.153434
0.141611
0.140566
0.157715
0.221229
0.37595
0.678549
1.18559
1.97262
3.15382
0.233041
0.134295
0.0908665
0.0703458
0.0622662
0.0578826
0.0600226
0.0760646
0.127029
0.248498
0.488989
0.900184
1.5375
2.48209
0.119491
0.0537811
0.0324335
0.0245058
0.0217089
0.0209425
0.0246993
0.039437
0.0810353
0.177442
0.369102
0.703385
1.23191
2.03085
0.0674299
0.0225433
0.0107834
0.00747206
0.0066397
0.00729964
0.0115934
0.0252001
0.0609493
0.14165
0.3012
0.582125
1.03424
1.73117
0.0473077
0.0125124
0.00414531
0.0022237
0.00204049
0.00321325
0.00774906
0.0209965
0.054319
0.127559
0.270028
0.519805
0.925176
1.55999
0.0435146
0.0107304
0.00277373
0.0010594
0.00107372
0.0025234
0.00745005
0.0212103
0.054596
0.125723
0.260609
0.493327
0.869223
1.46063
0.0492948
0.012848
0.00371533
0.00164456
0.00166299
0.00342036
0.00907275
0.0241905
0.0594655
0.132016
0.265595
0.491502
0.85356
1.42551
0.0651875
0.0197546
0.00808937
0.00491219
0.0046435
0.00678935
0.0136137
0.03092
0.0694093
0.145494
0.281144
0.505526
0.862346
1.43111
0.10073
0.03868
0.0217346
0.0158314
0.0144829
0.0170312
0.0258241
0.0468236
0.0907478
0.173712
0.316866
0.549381
0.919199
1.51288
0.188581
0.0865124
0.0582885
0.0470583
0.0431159
0.0460622
0.0584597
0.0864843
0.141085
0.239124
0.402844
0.661988
1.06484
1.70071
0.3845
0.194198
0.142284
0.123675
0.116125
0.120395
0.140114
0.182497
0.259801
0.392164
0.606436
0.934281
1.41825
2.11525
0.700116
0.410318
0.313582
0.284246
0.276478
0.287509
0.323148
0.394635
0.519148
0.726842
1.05473
1.54615
2.26585
3.21781
0.567157
0.446164
0.380437
0.334556
0.324821
0.32315
0.329968
0.34314
0.3811
0.473072
0.665203
1.00048
1.56916
2.60861
0.293706
0.216554
0.180369
0.158152
0.154517
0.154298
0.157919
0.166519
0.194326
0.266585
0.424941
0.720384
1.23833
2.13929
0.147932
0.0955357
0.0759324
0.0662655
0.0651751
0.0654657
0.0680063
0.0753917
0.0987335
0.158987
0.291963
0.54793
1.00122
1.7708
0.0751656
0.0389793
0.0282007
0.0242012
0.0238777
0.024323
0.0265223
0.0332231
0.0529022
0.102537
0.212444
0.428757
0.816009
1.467
0.0415796
0.0159177
0.009467
0.007693
0.00755934
0.00804095
0.0100672
0.0162087
0.0332448
0.075252
0.167987
0.35233
0.685429
1.24802
0.0271176
0.00769578
0.0032063
0.00220578
0.00214697
0.0026509
0.00457803
0.0103795
0.0260478
0.0640352
0.146849
0.310145
0.603761
1.09873
0.0215254
0.00522477
0.00145989
0.000678357
0.000666241
0.00122008
0.00321278
0.00915638
0.0249127
0.0622703
0.141596
0.29424
0.563871
1.01353
0.0208851
0.00499485
0.00118372
0.000400101
0.000422662
0.00108204
0.0033448
0.00993421
0.0269112
0.0658152
0.145441
0.293556
0.548499
0.965133
0.0237596
0.00605986
0.00167553
0.00073098
0.000767081
0.00161171
0.0043811
0.0121141
0.0312257
0.0731816
0.155633
0.303521
0.551346
0.948988
0.030466
0.00928176
0.00378616
0.00233433
0.00227021
0.00337626
0.00691726
0.0162368
0.0380692
0.0837954
0.170109
0.319582
0.56359
0.949806
0.0450514
0.0187452
0.0108755
0.00800417
0.00739404
0.00875292
0.0134534
0.0250042
0.0502942
0.100551
0.19156
0.344141
0.588446
0.974588
0.0799399
0.0441298
0.0313468
0.0253203
0.0230725
0.0244529
0.0309588
0.0460544
0.0765122
0.133434
0.23217
0.39293
0.646554
1.04854
0.154067
0.102267
0.0814847
0.0705647
0.0653434
0.0666808
0.0764839
0.0982381
0.138631
0.20929
0.326289
0.510545
0.793255
1.23451
0.290894
0.216489
0.184601
0.170071
0.163635
0.167676
0.185472
0.221749
0.284388
0.387542
0.548927
0.790196
1.13959
1.65061
0.213896
0.167591
0.146491
0.138531
0.144731
0.154011
0.165454
0.177864
0.198636
0.241152
0.330879
0.498986
0.799756
1.35993
0.104096
0.0738499
0.0625011
0.05926
0.0626739
0.0673723
0.0729799
0.0796853
0.0930823
0.124657
0.19625
0.33991
0.610984
1.11645
0.0510697
0.0300502
0.023814
0.0224652
0.0239627
0.0260492
0.0287954
0.0330589
0.0432348
0.0689461
0.128857
0.253478
0.494535
0.943901
0.0269027
0.0118364
0.00813058
0.00746066
0.00797392
0.00882941
0.0102989
0.0134117
0.021621
0.0428069
0.0928522
0.199855
0.411529
0.808236
0.0163328
0.00510666
0.00261569
0.00218561
0.00231653
0.00269888
0.00365264
0.00620826
0.013273
0.0315816
0.0750615
0.169357
0.357873
0.711514
0.011728
0.00287749
0.000951447
0.000601694
0.000621977
0.000862611
0.00164998
0.00401829
0.0106968
0.0279673
0.0687043
0.15637
0.329444
0.648786
0.0099717
0.00226854
0.000534474
0.000201476
0.000203079
0.000430962
0.00124446
0.00376882
0.0108568
0.0288548
0.0701669
0.156431
0.32163
0.617779
0.0100916
0.0023213
0.000501856
0.000148912
0.000158949
0.000434613
0.00140696
0.00437834
0.0124996
0.0323956
0.0761439
0.163608
0.324666
0.603499
0.0117196
0.00285271
0.000733878
0.000309105
0.000331642
0.000706623
0.00197095
0.00567422
0.0153637
0.0380148
0.0854486
0.175907
0.336083
0.60505
0.0151383
0.00443601
0.00173202
0.00106131
0.0010517
0.00158328
0.00330564
0.0080294
0.0196874
0.0455357
0.0971478
0.19139
0.352743
0.617294
0.0228286
0.00947251
0.00537434
0.00390563
0.00362128
0.00433018
0.00676155
0.0129072
0.0269624
0.0563412
0.112407
0.211144
0.375761
0.641246
0.0421675
0.0239896
0.0167148
0.013197
0.0119098
0.0126466
0.0161835
0.0245312
0.0419366
0.0758954
0.137777
0.243377
0.415737
0.691465
0.0853414
0.0591676
0.0462928
0.0389309
0.035399
0.0358847
0.0412799
0.0535348
0.0768322
0.118826
0.191216
0.310283
0.500789
0.80523
0.168211
0.130585
0.110274
0.0988093
0.0930413
0.0941721
0.103682
0.123871
0.159267
0.217896
0.311279
0.455973
0.678244
1.03218
0.0938419
0.0693881
0.057626
0.0544036
0.058025
0.0645402
0.0733755
0.0837551
0.0990571
0.126032
0.178585
0.276652
0.454842
0.790001
0.0433459
0.0279654
0.0222481
0.0210492
0.0227413
0.0255774
0.0293605
0.0341598
0.0425777
0.0603569
0.0992463
0.178354
0.331986
0.62986
0.020873
0.0105638
0.00767011
0.00719553
0.00783422
0.00890865
0.0104739
0.0129406
0.0183391
0.0314033
0.0620172
0.127839
0.261137
0.523377
0.0112612
0.00405918
0.00240755
0.00216253
0.00235268
0.00272831
0.00341977
0.00489816
0.00874426
0.0187799
0.0433229
0.0984492
0.21414
0.44543
0.0071962
0.0018739
0.000757101
0.000582536
0.00062345
0.000769707
0.0011531
0.00222274
0.00529581
0.013621
0.0344917
0.0826931
0.186005
0.394033
0.0054473
0.00120777
0.000313557
0.000157353
0.000158566
0.000243499
0.000538246
0.00148031
0.00429707
0.012024
0.0314752
0.0764736
0.172483
0.363446
0.00489142
0.00106327
0.000218503
6.14246e-05
5.60722e-05
0.000135895
0.000439375
0.00144336
0.00444639
0.0125794
0.0326101
0.0777276
0.171193
0.351563
0.00521372
0.00114841
0.000226795
5.6895e-05
5.53512e-05
0.00015578
0.000529853
0.00174409
0.00528052
0.0145486
0.0364792
0.0837679
0.177635
0.351731
0.00627299
0.00143475
0.000335907
0.000131782
0.000137359
0.000283415
0.000794883
0.00237688
0.00678412
0.0178187
0.0426828
0.0936885
0.190515
0.363403
0.00830605
0.00226807
0.000819078
0.000490068
0.000485696
0.000714379
0.00146445
0.00361404
0.00924359
0.0225888
0.0511504
0.106939
0.208645
0.3845
0.0129737
0.00507514
0.00271679
0.00193163
0.00179805
0.00215334
0.00333782
0.00639957
0.0137381
0.0299832
0.0629076
0.124451
0.232819
0.415283
0.0251887
0.0136614
0.00901199
0.00690394
0.00621834
0.00668738
0.0086665
0.013301
0.0232165
0.0433976
0.0820137
0.151402
0.270155
0.466647
0.0536241
0.0355589
0.0263311
0.0213249
0.0191847
0.0196588
0.0230949
0.0306594
0.0450977
0.0717661
0.119514
0.201656
0.338466
0.562201
0.110021
0.0819334
0.0656925
0.0564846
0.0522183
0.0530258
0.0594135
0.0727221
0.0958931
0.134491
0.197488
0.298982
0.462427
0.729666
0.0486105
0.0329628
0.0247599
0.0215142
0.0218755
0.0244662
0.0291444
0.0356934
0.046125
0.0644936
0.0994473
0.164176
0.281306
0.499697
0.0210048
0.0120127
0.00852361
0.00742176
0.00767923
0.00871327
0.0105219
0.0132515
0.0183594
0.0291707
0.0528337
0.101591
0.197436
0.384139
0.00967104
0.00414434
0.0026001
0.00224079
0.00235325
0.00271577
0.00339234
0.00464135
0.00753508
0.0146878
0.0318562
0.0698183
0.148521
0.306242
0.00516202
0.00154009
0.000737356
0.000594998
0.000627897
0.000748279
0.00102314
0.0016931
0.00354242
0.00856607
0.0213413
0.0511777
0.116062
0.250498
0.00338362
0.000768903
0.000234419
0.000145901
0.000149482
0.000195896
0.000339562
0.000781979
0.00213465
0.00599878
0.0161832
0.0409123
0.0966949
0.21524
0.00270541
0.000568436
0.000120444
4.12262e-05
3.63565e-05
6.37217e-05
0.000169905
0.000535869
0.00170133
0.00509709
0.0141697
0.0365037
0.0874201
0.195779
0.00262243
0.000556251
0.000103704
2.13074e-05
1.50624e-05
4.12928e-05
0.000149312
0.000530205
0.00174332
0.00524786
0.0144804
0.0368122
0.0866684
0.190173
0.00300432
0.000636782
0.000116066
2.45903e-05
1.9835e-05
5.41109e-05
0.000189978
0.000658055
0.0021106
0.00618385
0.0165432
0.0406094
0.0921389
0.194758
0.00379341
0.000815376
0.000173265
6.24917e-05
6.10194e-05
0.000115066
0.00031142
0.000951563
0.00284891
0.00793587
0.0202659
0.0474866
0.102973
0.208752
0.00518922
0.00130394
0.000427399
0.000248221
0.000244446
0.000342063
0.000660022
0.00160195
0.00420449
0.010782
0.0258625
0.0574185
0.118815
0.231286
0.00836126
0.00298145
0.00147153
0.00102351
0.000962979
0.00115091
0.00173298
0.00323556
0.00696302
0.0156624
0.0343994
0.0716573
0.141127
0.263858
0.0167506
0.00831443
0.0050868
0.00377972
0.00343555
0.00377806
0.00494834
0.00758497
0.01327
0.0252392
0.0492565
0.0947067
0.176214
0.315989
0.0367616
0.0224527
0.0154363
0.0120168
0.0108158
0.0113882
0.0138287
0.0188605
0.028319
0.0459691
0.0784768
0.136685
0.23717
0.40531
0.0776117
0.0535806
0.0399527
0.03281
0.0300189
0.0311022
0.0361659
0.0460781
0.0629476
0.0908683
0.136923
0.213201
0.339696
0.54914
0.029425
0.0186497
0.0126166
0.00968052
0.00885223
0.00945541
0.0114068
0.0148473
0.0212129
0.0333698
0.0573821
0.102732
0.184858
0.335715
0.0118014
0.00613647
0.00385661
0.0029473
0.00275552
0.0030136
0.00372891
0.0050847
0.00799919
0.0146231
0.0297077
0.0617349
0.125541
0.249514
0.00510163
0.00192542
0.00103787
0.000778424
0.00074519
0.000841307
0.00110315
0.001699
0.00324816
0.00732345
0.0175309
0.0408978
0.09029
0.189991
0.00264955
0.000694354
0.000269159
0.000181904
0.000176137
0.000211188
0.000319397
0.000628906
0.00155862
0.00422688
0.0113121
0.0284637
0.0667168
0.147547
0.00179086
0.000381078
9.29113e-05
4.20282e-05
3.81321e-05
5.34207e-05
0.000111129
0.000307232
0.00094507
0.00286132
0.00814023
0.021466
0.052569
0.120976
0.0015491
0.000321946
6.12414e-05
1.42779e-05
9.44916e-06
1.91193e-05
6.11565e-05
0.000215378
0.000732788
0.00231757
0.00676031
0.0182116
0.0455391
0.106574
0.00165181
0.000346106
6.11505e-05
1.02197e-05
5.00825e-06
1.42847e-05
5.56848e-05
0.000209488
0.000725183
0.00229669
0.00666935
0.0178462
0.0442544
0.102372
0.00203871
0.000417663
7.16954e-05
1.35271e-05
8.79812e-06
2.11253e-05
7.28821e-05
0.000260295
0.000873448
0.0026915
0.00759818
0.0197189
0.0473595
0.106013
0.00269837
0.000548966
0.00010731
3.61601e-05
3.31263e-05
5.44405e-05
0.00013259
0.00039742
0.00122323
0.00356364
0.00958932
0.0237565
0.0545883
0.117224
0.00381159
0.000882944
0.000261539
0.000148004
0.000145862
0.000192253
0.000333932
0.000755546
0.00196367
0.0051764
0.0129904
0.0304033
0.0664709
0.136684
0.0062598
0.00200796
0.000903572
0.000618817
0.000594973
0.000709789
0.0010201
0.00178945
0.0037117
0.00836853
0.018946
0.0412766
0.0853989
0.16767
0.0126234
0.00563798
0.0031722
0.00230282
0.00214286
0.0024234
0.00318453
0.00478806
0.00817132
0.0154052
0.0305036
0.0605526
0.117173
0.218467
0.0279052
0.0154876
0.00981045
0.0073889
0.00676281
0.00740524
0.00929068
0.0128943
0.0194463
0.0316328
0.0545127
0.09688
0.17257
0.302465
0.0598747
0.0378692
0.0260023
0.0204701
0.0188272
0.0202505
0.0246414
0.0326286
0.0457485
0.0672073
0.102726
0.162511
0.26337
0.432188
0.00643303
0.0100387
0.017882
0.0343926
0.0667604
0.126403
0.235673
0.00203049
0.00364974
0.00776638
0.0176886
0.0395794
0.0841774
0.171258
0.000662015
0.00151859
0.0039704
0.0104138
0.0256968
0.0587295
0.125932
0.000259706
0.000764754
0.00230574
0.00657015
0.0172294
0.0415273
0.0935149
0.000136291
0.000468315
0.00151672
0.00451813
0.0123362
0.0310533
0.0731289
9.5072e-05
0.000346375
0.00115435
0.0035167
0.00983877
0.0254663
0.0616431
8.72208e-05
0.000319394
0.00106618
0.00325292
0.00911994
0.0236659
0.0573214
0.000105169
0.000368475
0.00119746
0.00357082
0.00978705
0.0248275
0.0587409
0.00225346
0.000440158
8.10574e-05
2.61227e-05
2.2789e-05
3.19855e-05
6.38458e-05
0.000173561
0.000532747
0.00161198
0.00456484
0.01196
0.0291246
0.0663129
0.00326134
0.000708764
0.00019311
0.000107184
0.000106403
0.000133251
0.000202869
0.000398995
0.000968564
0.00255253
0.00662746
0.0162816
0.0375466
0.081501
0.00538855
0.00157769
0.000654633
0.000444655
0.000438655
0.000524257
0.000716568
0.00114923
0.00219711
0.00478681
0.0109323
0.0246083
0.0530663
0.1089
0.0107386
0.00436698
0.00228659
0.00163898
0.00157025
0.00182349
0.00238879
0.00347896
0.00566637
0.0103155
0.0202571
0.0408318
0.0812094
0.156341
0.0234817
0.011989
0.00708541
0.00522655
0.00490667
0.00557926
0.0071567
0.00997115
0.0148789
0.0238541
0.0407907
0.0728202
0.131619
0.23511
0.0506296
0.0296531
0.0189391
0.0144669
0.0135287
0.0151491
0.0191081
0.0259191
0.0367667
0.0541929
0.0828057
0.131135
0.213805
0.354343
5.6497
7.98756
11.1162
15.1151
19.7132
24.8536
3.82713
5.64424
8.36397
12.4023
17.7404
23.8171
2.74376
4.27128
6.76618
10.7894
16.4487
23.1491
2.03949
3.33397
5.64962
9.7216
15.8254
23.0697
1.71133
2.92496
5.20089
9.3479
15.8004
23.4382
1.53841
2.72998
5.03432
9.30726
16.1724
24.3048
1.54349
2.8319
5.31898
9.75141
16.8564
25.4739
1.72287
3.23412
6.0508
10.7104
17.7436
26.2382
2.18077
4.05195
7.35318
12.2914
18.6958
26.0757
2.92767
5.22281
9.06713
14.1733
19.5674
25.3592
3.95033
6.66237
10.9574
16.0948
20.669
25.2333
5.22718
8.27
12.8261
17.914
21.8504
25.6612
6.99235
10.36
14.9761
19.7552
22.631
25.5702
9.48346
13.4964
17.7459
21.1198
22.5261
24.1062
2.63661
4.01032
6.16553
9.45508
14.0301
19.6801
1.9502
3.0915
4.93501
7.9754
12.8184
19.2084
1.52959
2.53711
4.23885
7.23579
12.2396
18.8394
1.23609
2.13406
3.75288
6.79431
11.896
18.3111
1.11555
1.99845
3.64783
6.7855
11.7984
17.6553
1.05455
1.9428
3.64283
6.84671
11.6947
17.0878
1.06106
2.00122
3.81275
7.03952
11.6244
16.7594
1.12572
2.16466
4.11542
7.34205
11.6393
16.512
1.30927
2.51289
4.63682
7.8367
11.8992
16.2194
1.65883
3.06729
5.38549
8.63141
12.4495
16.0485
2.20857
3.85146
6.45527
9.95225
13.7158
16.8117
2.93681
4.85329
7.84441
11.8547
15.9592