/*--------------------------------*- C++ -*----------------------------------*\
| =========                 |                                                 |
| \\      /  F ield         | OpenFOAM: The Open Source CFD Toolbox           |
|  \\    /   O peration     | Version:  v2106                                 |
|   \\  /    A nd           | Website:  www.openfoam.com                      |
|    \\/     M anipulation  |                                                 |
\*---------------------------------------------------------------------------*/
FoamFile
{
    version     2.0;
    format      ascii;
    arch        "LSB;label=32;scalar=64";
    class       surfaceScalarField;
    location    "0.000186";
    object      phi;
}
// * * * * * * * * * * * * * * * * * * * * * * * * * * * * * * * * * * * * * //

dimensions      [1 0 -1 0 0 0 0];

internalField   nonuniform List<scalar> 
51992
(
-6.51692e-06
8.61242e-06
-5.59711e-06
7.78638e-06
-9.73291e-06
-5.55165e-06
5.99799e-06
-5.74534e-06
-6.80527e-06
-4.83752e-06
3.92592e-06
-6.25869e-06
-4.48262e-06
-4.60439e-06
2.31358e-06
-6.7121e-06
-2.41291e-06
-4.61176e-06
1.53002e-06
-7.05171e-06
-1.40769e-06
-4.79231e-06
1.23839e-06
-7.23528e-06
-9.58404e-07
-5.18146e-06
1.186e-06
-7.30358e-06
-7.00643e-07
-5.73266e-06
1.33756e-06
-7.25378e-06
-6.85523e-07
-6.37382e-06
1.22276e-06
-6.97473e-06
-4.35549e-07
-7.06741e-06
5.68738e-07
-6.38622e-06
3.2647e-07
-7.77494e-06
-7.20431e-07
-5.56239e-06
1.68017e-06
-8.59561e-06
-2.64891e-06
-4.7497e-06
3.74449e-06
-9.70324e-06
-4.94535e-06
-4.15846e-06
6.29066e-06
-8.21551e-06
-4.13071e-06
-1.0889e-05
9.58147e-06
-3.82068e-06
7.45972e-06
-5.86665e-06
5.11498e-06
-2.93195e-06
5.23902e-06
-6.22837e-06
-2.44195e-06
3.55641e-06
-6.56965e-06
-2.40004e-06
2.37498e-06
-6.85884e-06
-2.57827e-06
1.8124e-06
-7.06361e-06
-2.86698e-06
1.61259e-06
-7.17793e-06
-3.26336e-06
1.66736e-06
-7.2544e-06
-3.66973e-06
1.82901e-06
-7.25886e-06
-4.13965e-06
1.80216e-06
-7.12388e-06
-4.69461e-06
1.27423e-06
-6.76748e-06
-5.33544e-06
1.32353e-07
-6.17424e-06
-6.08993e-06
-1.63676e-06
-5.45118e-06
-6.86369e-06
-3.92561e-06
-4.77695e-06
-7.32672e-06
-4.40665e-06
-7.57163e-06
-2.13022e-06
6.50347e-06
-6.3789e-06
3.1817e-06
-1.42635e-06
4.59954e-06
-6.68831e-06
-1.084e-06
3.27784e-06
-6.89135e-06
-1.088e-06
2.44639e-06
-7.03008e-06
-1.25383e-06
2.06092e-06
-7.12892e-06
-1.51591e-06
1.94877e-06
-7.16492e-06
-1.82023e-06
2.04353e-06
-7.21238e-06
-2.11463e-06
2.18803e-06
-7.22074e-06
-2.40874e-06
2.17347e-06
-7.15377e-06
-2.75681e-06
1.74242e-06
-6.95282e-06
-3.18814e-06
7.55728e-07
-6.56251e-06
-3.73442e-06
-8.38771e-07
-6.00509e-06
-4.32169e-06
-3.07806e-06
-5.42534e-06
-6.4239e-06
-5.10891e-06
-5.02871e-06
-8.92597e-07
5.77964e-06
-6.85812e-06
1.65162e-06
-4.9131e-07
4.21317e-06
-7.03864e-06
-3.52921e-07
3.1454e-06
-7.10128e-06
-4.19784e-07
2.54541e-06
-7.12349e-06
-5.59874e-07
2.26e-06
-7.14426e-06
-7.48898e-07
2.20171e-06
-7.14602e-06
-9.47697e-07
2.30485e-06
-7.16514e-06
-1.11693e-06
2.41134e-06
-7.16356e-06
-1.24601e-06
2.36521e-06
-7.12613e-06
-1.38924e-06
1.98061e-06
-7.01207e-06
-1.593e-06
1.11481e-06
-6.78048e-06
-1.85905e-06
-3.59539e-07
-6.41662e-06
-2.10095e-06
-2.59654e-06
-6.00807e-06
-5.77654e-06
-5.76401e-06
-2.54837e-06
-3.43827e-07
5.21207e-06
-7.17258e-06
8.92005e-07
-1.13207e-07
3.95356e-06
-7.20776e-06
-8.4563e-08
3.0927e-06
-7.19234e-06
-1.59696e-07
2.62277e-06
-7.15572e-06
-2.60541e-07
2.40195e-06
-7.14253e-06
-3.73286e-07
2.37912e-06
-7.1303e-06
-4.76406e-07
2.47816e-06
-7.12666e-06
-5.51303e-07
2.55026e-06
-7.11338e-06
-5.87173e-07
2.46344e-06
-7.08593e-06
-6.10938e-07
2.08572e-06
-7.01941e-06
-6.55171e-07
1.29016e-06
-6.88972e-06
-7.08263e-07
-1.23988e-07
-6.67017e-06
-7.81541e-07
-2.30984e-06
-6.42503e-06
-5.28957e-06
-6.28951e-06
-1.07005e-06
-2.62128e-07
4.80524e-06
-7.30073e-06
6.17513e-07
-1.20266e-07
3.77051e-06
-7.25744e-06
-1.04097e-07
3.05093e-06
-7.21046e-06
-1.30798e-07
2.65355e-06
-7.15969e-06
-2.02296e-07
2.50963e-06
-7.12846e-06
-2.70353e-07
2.51563e-06
-7.10436e-06
-3.06134e-07
2.58963e-06
-7.0858e-06
-3.1403e-07
2.62945e-06
-7.0678e-06
-2.87131e-07
2.50917e-06
-7.04939e-06
-2.40253e-07
2.12672e-06
-7.00919e-06
-1.63332e-07
1.34533e-06
-6.93201e-06
-7.52856e-08
-4.23725e-08
-6.81462e-06
-1.02411e-08
-2.17702e-06
-6.68485e-06
-5.03147e-06
-6.57921e-06
-6.51092e-08
-4.30972e-07
4.46094e-06
-7.30923e-06
7.20472e-07
-2.42657e-07
3.54757e-06
-7.2421e-06
-1.71251e-07
2.96792e-06
-7.19533e-06
-1.89672e-07
2.68158e-06
-7.14272e-06
-2.38777e-07
2.5916e-06
-7.10064e-06
-2.71655e-07
2.60632e-06
-7.06977e-06
-2.77054e-07
2.65629e-06
-7.04464e-06
-2.56473e-07
2.67025e-06
-7.02692e-06
-2.11985e-07
2.53306e-06
-7.01265e-06
-1.49926e-07
2.15156e-06
-6.98772e-06
-3.89369e-08
1.35552e-06
-6.94519e-06
1.30407e-07
-5.54822e-08
-6.89394e-06
3.55077e-07
-2.21253e-06
-6.8089e-06
-5.05471e-06
-6.68084e-06
5.8933e-07
-6.10903e-07
4.2874e-06
-7.2685e-06
7.53915e-07
-4.40002e-07
3.37186e-06
-7.20555e-06
-3.2704e-07
2.869e-06
-7.16696e-06
-2.88922e-07
2.66551e-06
-7.1178e-06
-2.87366e-07
2.61901e-06
-7.07176e-06
-2.92368e-07
2.64903e-06
-7.038e-06
-3.01201e-07
2.70034e-06
-7.00803e-06
-2.90929e-07
2.70276e-06
-6.99066e-06
-2.42369e-07
2.54627e-06
-6.98186e-06
-1.42498e-07
2.14095e-06
-6.96805e-06
3.56885e-08
1.30565e-06
-6.95419e-06
2.87666e-07
-1.44522e-07
-6.92937e-06
6.26156e-07
-2.35024e-06
-6.84541e-06
-5.2606e-06
-6.65938e-06
1.07135e-06
-7.18742e-07
4.23886e-06
-7.19257e-06
7.62896e-07
-5.74388e-07
3.25253e-06
-7.15066e-06
-4.45097e-07
2.77664e-06
-7.13089e-06
-3.60063e-07
2.6122e-06
-7.08914e-06
-3.12306e-07
2.59949e-06
-7.04428e-06
-2.86863e-07
2.65166e-06
-7.008e-06
-2.84112e-07
2.71993e-06
-6.97565e-06
-2.7625e-07
2.72935e-06
-6.95917e-06
-2.3285e-07
2.56286e-06
-6.95277e-06
-1.26486e-07
2.12245e-06
-6.94433e-06
8.17094e-08
1.22343e-06
-6.93928e-06
4.20265e-07
-3.1544e-07
-6.90848e-06
9.12552e-07
-2.62319e-06
-6.76865e-06
-5.54504e-06
-6.43307e-06
1.48395e-06
-4.94775e-07
4.36561e-06
-7.08435e-06
4.01457e-07
-4.22275e-07
3.23275e-06
-7.08433e-06
-3.4265e-07
2.74578e-06
-7.08624e-06
-2.77077e-07
2.57598e-06
-7.0513e-06
-2.21795e-07
2.56432e-06
-7.01257e-06
-1.7707e-07
2.62812e-06
-6.98016e-06
-1.50611e-07
2.7127e-06
-6.9483e-06
-1.30923e-07
2.74103e-06
-6.9281e-06
-8.01621e-08
2.56973e-06
-6.91894e-06
4.88451e-08
2.0833e-06
-6.90664e-06
3.25771e-07
1.08066e-06
-6.8866e-06
7.96735e-07
-5.97862e-07
-6.79824e-06
1.4273e-06
-2.99675e-06
-6.52395e-06
-5.87036e-06
-5.95469e-06
2.08784e-06
1.32319e-07
4.72338e-06
-6.87788e-06
-4.29218e-07
4.53921e-08
3.3783e-06
-6.95757e-06
1.87683e-08
2.81607e-06
-7.00444e-06
2.46307e-08
2.58895e-06
-7.003e-06
4.86784e-08
2.54945e-06
-6.98459e-06
9.2752e-08
2.59683e-06
-6.96292e-06
1.3897e-07
2.68621e-06
-6.92925e-06
1.82232e-07
2.7348e-06
-6.89882e-06
2.67029e-07
2.55169e-06
-6.88011e-06
4.68538e-07
1.98023e-06
-6.84187e-06
8.69436e-07
8.28045e-07
-6.76263e-06
1.50465e-06
-1.01477e-06
-6.5491e-06
2.28404e-06
-3.48749e-06
-6.08566e-06
-6.28158e-06
-5.31902e-06
3.05602e-06
1.54157e-06
5.52405e-06
-6.57188e-06
-2.24713e-06
1.09515e-06
3.89231e-06
-6.77822e-06
8.01428e-07
3.1495e-06
-6.91628e-06
6.79907e-07
2.72474e-06
-6.96216e-06
6.3665e-07
2.60254e-06
-6.96461e-06
6.35799e-07
2.61721e-06
-6.95167e-06
6.9302e-07
2.66263e-06
-6.91833e-06
7.81277e-07
2.70341e-06
-6.87686e-06
9.33151e-07
2.49021e-06
-6.82743e-06
1.25052e-06
1.79727e-06
-6.73591e-06
1.80015e-06
4.71313e-07
-6.54247e-06
2.62871e-06
-1.57197e-06
-6.15614e-06
3.62174e-06
-4.1707e-06
-5.52725e-06
-6.99085e-06
-4.71677e-06
4.69028e-06
3.51917e-06
6.6854e-06
-6.16571e-06
-4.55607e-06
2.69499e-06
4.80042e-06
-6.52699e-06
2.10698e-06
3.78666e-06
-6.76505e-06
1.80886e-06
3.04624e-06
-6.90449e-06
1.69916e-06
2.7418e-06
-6.95222e-06
1.62512e-06
2.72836e-06
-6.94739e-06
1.66498e-06
2.67671e-06
-6.90529e-06
1.78857e-06
2.66307e-06
-6.83571e-06
2.00398e-06
2.39097e-06
-6.72099e-06
2.43538e-06
1.5358e-06
-6.55405e-06
3.05738e-06
7.08115e-08
-6.22503e-06
4.01345e-06
-2.25486e-06
-5.66879e-06
5.17433e-06
-5.05419e-06
-4.96441e-06
-8.16453e-06
-4.2609e-06
6.63857e-06
6.2253e-06
-6.06801e-06
8.0543e-06
-7.47642e-06
5.06602e-06
-6.20835e-06
6.07171e-06
4.22334e-06
-6.50307e-06
4.71724e-06
3.71108e-06
-6.76171e-06
3.60995e-06
3.40456e-06
-6.90736e-06
3.08501e-06
3.30233e-06
-6.94314e-06
2.87774e-06
3.33025e-06
-6.91035e-06
2.70572e-06
3.55108e-06
-6.83076e-06
2.52398e-06
3.9545e-06
-6.65993e-06
2.10417e-06
4.62584e-06
-6.40552e-06
1.02986e-06
5.46263e-06
-5.92657e-06
-5.62725e-07
6.59653e-06
-5.27006e-06
-3.17213e-06
7.77511e-06
-4.55128e-06
-6.03043e-06
-4.27397e-06
9.40817e-06
-9.58635e-06
-4.75509e-06
7.80576e-06
-6.13654e-06
6.26279e-06
-8.70955e-06
-3.79125e-06
5.53415e-06
-6.2275e-06
-5.94455e-06
-3.2873e-06
3.84538e-06
-6.54864e-06
-3.98347e-06
-3.2854e-06
2.57667e-06
-6.84834e-06
-2.35922e-06
-3.54111e-06
1.9518e-06
-7.07999e-06
-1.57991e-06
-3.97608e-06
1.68707e-06
-7.2011e-06
-1.19456e-06
-4.60864e-06
1.77847e-06
-7.25125e-06
-1.10636e-06
-5.3327e-06
1.96188e-06
-7.2074e-06
-1.19037e-06
-6.10169e-06
1.93679e-06
-7.02068e-06
-1.02866e-06
-6.83581e-06
1.38132e-06
-6.65406e-06
-2.95915e-07
-7.45236e-06
3.13541e-07
-6.15474e-06
9.7167e-07
-8.07984e-06
-1.44083e-06
-5.58544e-06
2.97693e-06
-8.81467e-06
-3.58576e-06
-5.03464e-06
5.27277e-06
-6.69882e-06
-4.75372e-06
-9.72103e-06
8.30602e-06
-2.54913e-06
6.95649e-06
-6.33651e-06
3.92454e-06
-1.79179e-06
5.14224e-06
-6.53592e-06
-1.53518e-06
3.79499e-06
-6.71255e-06
-1.71146e-06
2.86452e-06
-6.89637e-06
-2.0645e-06
2.37551e-06
-7.05001e-06
-2.5269e-06
2.18e-06
-7.12241e-06
-3.04075e-06
2.30169e-06
-7.17731e-06
-3.56236e-06
2.48238e-06
-7.17516e-06
-4.09932e-06
2.51445e-06
-7.08822e-06
-4.66984e-06
2.11718e-06
-6.86314e-06
-5.16581e-06
1.22184e-06
-6.52386e-06
-5.60387e-06
-3.13515e-07
-6.07918e-06
-5.92409e-06
-2.44653e-06
-5.53201e-06
-5.54212e-06
-5.00856e-06
-6.41069e-06
-1.27658e-06
6.14841e-06
-6.6003e-06
2.35753e-06
-7.28355e-07
4.70378e-06
-6.74857e-06
-6.17887e-07
3.71248e-06
-6.86566e-06
-8.21767e-07
3.06851e-06
-6.96353e-06
-1.14002e-06
2.6963e-06
-7.05002e-06
-1.52903e-06
2.56067e-06
-7.07316e-06
-1.91352e-06
2.66326e-06
-7.10655e-06
-2.28059e-06
2.81405e-06
-7.1107e-06
-2.60137e-06
2.82357e-06
-7.07776e-06
-2.9588e-06
2.54001e-06
-6.95593e-06
-3.30015e-06
1.80213e-06
-6.74101e-06
-3.61677e-06
4.75972e-07
-6.41893e-06
-3.87303e-06
-1.544e-06
-6.01165e-06
-4.54207e-06
-5.63771e-06
-4.28077e-06
-4.68332e-07
5.47404e-06
-6.80221e-06
1.1291e-06
-2.1759e-07
4.34509e-06
-6.89929e-06
-2.50632e-07
3.61168e-06
-6.93315e-06
-4.48823e-07
3.16822e-06
-6.97349e-06
-7.01664e-07
2.8963e-06
-7.01929e-06
-9.88792e-07
2.80891e-06
-7.02526e-06
-1.24746e-06
2.88062e-06
-7.04281e-06
-1.45469e-06
2.97502e-06
-7.04585e-06
-1.60434e-06
2.94153e-06
-7.03229e-06
-1.75529e-06
2.70498e-06
-6.9667e-06
-1.89506e-06
2.0647e-06
-6.84512e-06
-2.00094e-06
8.76043e-07
-6.65198e-06
-2.00546e-06
-1.06982e-06
-6.41641e-06
-3.92959e-06
-6.19065e-06
-2.12687e-06
-1.92916e-07
4.86007e-06
-6.93871e-06
6.07471e-07
-9.62552e-08
4.02749e-06
-6.96303e-06
-2.07492e-07
3.51275e-06
-6.95364e-06
-3.67946e-07
3.17243e-06
-6.95616e-06
-5.49894e-07
2.97852e-06
-6.97987e-06
-7.40855e-07
2.92986e-06
-6.98254e-06
-8.94194e-07
2.97475e-06
-6.98855e-06
-9.85671e-07
3.01223e-06
-6.98658e-06
-1.03935e-06
2.95573e-06
-6.98e-06
-1.06506e-06
2.71832e-06
-6.94705e-06
-1.06292e-06
2.12707e-06
-6.89404e-06
-1.00709e-06
1.01613e-06
-6.79948e-06
-8.94805e-07
-8.45072e-07
-6.69153e-06
-3.55517e-06
-6.59898e-06
-8.88135e-07
-3.10072e-07
4.35277e-06
-7.00224e-06
5.49344e-07
-2.28667e-07
3.68946e-06
-6.9754e-06
-2.86006e-07
3.33339e-06
-6.94118e-06
-4.17194e-07
3.12147e-06
-6.93495e-06
-5.65277e-07
2.99584e-06
-6.9407e-06
-6.91241e-07
2.95883e-06
-6.94034e-06
-7.63412e-07
2.97521e-06
-6.94213e-06
-7.83225e-07
2.97664e-06
-6.94072e-06
-7.80571e-07
2.90907e-06
-6.9382e-06
-7.5319e-07
2.66032e-06
-6.91975e-06
-6.74548e-07
2.07015e-06
-6.89409e-06
-5.16106e-07
9.71856e-07
-6.85899e-06
-2.87139e-07
-8.48612e-07
-6.83599e-06
-3.468e-06
-6.80385e-06
-7.53197e-08
-5.82156e-07
3.90307e-06
-7.00427e-06
7.59986e-07
-4.8077e-07
3.34252e-06
-6.96245e-06
-4.67281e-07
3.09357e-06
-6.92782e-06
-5.24826e-07
2.98831e-06
-6.90559e-06
-6.15432e-07
2.93995e-06
-6.904e-06
-6.90741e-07
2.9211e-06
-6.90316e-06
-7.29107e-07
2.93236e-06
-6.90409e-06
-7.40745e-07
2.92439e-06
-6.90335e-06
-7.19228e-07
2.83796e-06
-6.90239e-06
-6.69098e-07
2.57391e-06
-6.89555e-06
-5.57757e-07
1.96627e-06
-6.89098e-06
-3.40802e-07
8.29972e-07
-6.89677e-06
-5.51662e-09
-1.01357e-06
-6.9024e-06
-3.59861e-06
-6.87926e-06
4.05114e-07
-8.28373e-07
3.5821e-06
-7.00865e-06
9.34842e-07
-7.17141e-07
3.03381e-06
-6.96027e-06
-6.46359e-07
2.823e-06
-6.91591e-06
-6.36614e-07
2.79337e-06
-6.88176e-06
-6.58786e-07
2.8104e-06
-6.8732e-06
-7.01381e-07
2.84172e-06
-6.87253e-06
-7.35327e-07
2.87356e-06
-6.8717e-06
-7.58498e-07
2.87392e-06
-6.87034e-06
-7.57179e-07
2.7779e-06
-6.8703e-06
-7.16174e-07
2.48736e-06
-6.8688e-06
-5.85194e-07
1.82277e-06
-6.87993e-06
-3.16728e-07
6.05065e-07
-6.90053e-06
1.14753e-07
-1.30349e-06
-6.90776e-06
-3.9279e-06
-6.86252e-06
7.30207e-07
-9.14949e-07
3.38784e-06
-6.98218e-06
9.55692e-07
-8.17689e-07
2.78773e-06
-6.94231e-06
-7.40225e-07
2.5765e-06
-6.90247e-06
-6.80711e-07
2.57082e-06
-6.87118e-06
-6.5829e-07
2.64341e-06
-6.85463e-06
-6.76114e-07
2.74153e-06
-6.85125e-06
-7.11339e-07
2.82009e-06
-6.84903e-06
-7.52271e-07
2.84529e-06
-6.84734e-06
-7.84404e-07
2.75093e-06
-6.84577e-06
-7.65155e-07
2.42655e-06
-6.85055e-06
-6.35608e-07
1.6846e-06
-6.86907e-06
-3.43699e-07
3.66634e-07
-6.88982e-06
1.90908e-07
-1.66142e-06
-6.86657e-06
-4.3418e-06
-6.74073e-06
9.97698e-07
-7.07389e-07
3.31817e-06
-6.9344e-06
6.93035e-07
-6.57454e-07
2.64616e-06
-6.92344e-06
-6.28586e-07
2.41695e-06
-6.89116e-06
-5.92019e-07
2.40234e-06
-6.86302e-06
-5.61265e-07
2.49021e-06
-6.84305e-06
-5.73496e-07
2.65353e-06
-6.83734e-06
-6.23913e-07
2.79641e-06
-6.83146e-06
-6.83473e-07
2.8465e-06
-6.82701e-06
-7.35525e-07
2.75185e-06
-6.82077e-06
-7.19484e-07
2.38285e-06
-6.82682e-06
-5.49921e-07
1.52715e-06
-6.83679e-06
-1.41681e-07
5.4572e-08
-6.82366e-06
5.45443e-07
-2.06507e-06
-6.73116e-06
-4.69174e-06
-6.49678e-06
1.51909e-06
-2.01993e-07
3.44164e-06
-6.80256e-06
6.82536e-08
-2.58367e-07
2.6557e-06
-6.8444e-06
-2.89822e-07
2.35785e-06
-6.85267e-06
-2.98503e-07
2.31479e-06
-6.85068e-06
-3.15283e-07
2.4111e-06
-6.8384e-06
-3.64935e-07
2.61929e-06
-6.83089e-06
-4.45336e-07
2.81321e-06
-6.82021e-06
-5.11743e-07
2.87024e-06
-6.81217e-06
-5.6467e-07
2.77122e-06
-6.80098e-06
-5.08897e-07
2.33358e-06
-6.79672e-06
-2.45003e-07
1.33498e-06
-6.77259e-06
3.02346e-07
-2.81822e-07
-6.69357e-06
1.15728e-06
-2.42327e-06
-6.51017e-06
-4.97637e-06
-6.16333e-06
2.36543e-06
9.07676e-07
3.95604e-06
-6.60554e-06
-1.33237e-06
5.9195e-07
2.9666e-06
-6.717e-06
3.43398e-07
2.54319e-06
-6.79669e-06
2.29415e-07
2.34212e-06
-6.82161e-06
1.19303e-07
2.42846e-06
-6.81799e-06
4.57386e-09
2.65013e-06
-6.81401e-06
-1.01665e-07
2.8599e-06
-6.80965e-06
-1.65397e-07
2.90277e-06
-6.79987e-06
-1.83507e-07
2.7914e-06
-6.78068e-06
-3.61289e-08
2.25581e-06
-6.75005e-06
3.69695e-07
1.1139e-06
-6.66445e-06
1.11673e-06
-6.20318e-07
-6.49856e-06
2.23429e-06
-2.77794e-06
-6.22178e-06
-5.46872e-06
-5.78101e-06
3.86597e-06
2.48219e-06
4.96533e-06
-6.41691e-06
-3.19955e-06
1.87286e-06
3.65633e-06
-6.56604e-06
1.367e-06
3.04429e-06
-6.71621e-06
1.06718e-06
2.59313e-06
-6.80831e-06
8.66869e-07
2.55869e-06
-6.83069e-06
6.85202e-07
2.76376e-06
-6.82474e-06
5.47869e-07
2.95584e-06
-6.81095e-06
4.95354e-07
2.95487e-06
-6.78368e-06
5.40832e-07
2.82251e-06
-6.74368e-06
7.9757e-07
2.17769e-06
-6.67592e-06
1.32266e-06
9.49614e-07
-6.52662e-06
2.29574e-06
-9.54383e-07
-6.24687e-06
3.61675e-06
-3.15678e-06
-5.84537e-06
-6.2051e-06
-5.37246e-06
5.53248e-06
4.62541e-06
-6.39976e-06
6.36057e-06
-5.65758e-06
3.74123e-06
-6.4321e-06
4.79769e-06
2.9969e-06
-6.55539e-06
3.88054e-06
2.47084e-06
-6.70698e-06
3.1072e-06
2.10213e-06
-6.78255e-06
2.85189e-06
1.85088e-06
-6.81643e-06
2.93843e-06
1.70695e-06
-6.81605e-06
3.05286e-06
1.7091e-06
-6.78622e-06
2.95316e-06
1.91805e-06
-6.74153e-06
2.74292e-06
2.39608e-06
-6.6307e-06
1.97731e-06
3.1548e-06
-6.36009e-06
6.80395e-07
4.39835e-06
-5.92703e-06
-1.48232e-06
5.93608e-06
-5.35909e-06
-3.82852e-06
-5.13874e-06
7.87113e-06
-7.2182e-06
-1.78929e-06
7.36151e-06
2.92884e-06
-8.26014e-06
-6.29432e-06
-1.12044e-06
5.93479e-06
-6.44243e-06
-6.29737e-06
-8.87696e-07
4.72862e-06
-4.96817e-06
-6.43383e-06
-1.11696e-06
3.93511e-06
-3.87278e-06
-6.55915e-06
-1.56089e-06
3.62093e-06
-3.45688e-06
-6.66438e-06
-2.25668e-06
3.47425e-06
-3.15955e-06
-6.68137e-06
-3.09891e-06
3.69506e-06
-3.28114e-06
-6.68141e-06
-4.06593e-06
3.92608e-06
-3.36949e-06
-6.65285e-06
-5.02142e-06
4.09831e-06
-3.40001e-06
-6.62387e-06
-5.95138e-06
3.94118e-06
-3.00488e-06
-6.53238e-06
-6.8118e-06
3.40555e-06
-2.22242e-06
-6.35749e-06
-7.73431e-06
2.31009e-06
-7.26058e-07
-6.13787e-06
-8.72563e-06
8.25075e-07
1.0833e-06
-5.83855e-06
-1.5924e-06
-9.70973e-06
3.55948e-06
-5.6205e-06
-5.19923e-07
6.47149e-06
1.49452e-06
-6.34389e-06
-9.26183e-09
5.396e-06
-6.42533e-06
3.81568e-08
4.56064e-06
-6.50051e-06
-2.82139e-07
4.01072e-06
-6.54855e-06
-7.62752e-07
3.7704e-06
-6.60401e-06
-1.39763e-06
3.71127e-06
-6.60397e-06
-2.10012e-06
3.95237e-06
-6.60428e-06
-2.87483e-06
4.24036e-06
-6.5845e-06
-3.64062e-06
4.48095e-06
-6.57886e-06
-4.40035e-06
4.48651e-06
-6.53294e-06
-5.10427e-06
4.12947e-06
-6.43712e-06
-5.81022e-06
3.33897e-06
-6.30351e-06
-6.40642e-06
2.05945e-06
-6.07007e-06
-2.5449e-07
-6.9417e-06
-5.70495e-06
2.18269e-07
5.72041e-06
4.70686e-07
-6.46423e-06
5.41498e-07
4.90913e-06
-6.51412e-06
4.77422e-07
4.35371e-06
-6.5186e-06
1.21898e-07
4.00388e-06
-6.51576e-06
-3.75185e-07
3.85333e-06
-6.53683e-06
-9.47951e-07
3.8543e-06
-6.53595e-06
-1.5303e-06
4.0806e-06
-6.53716e-06
-2.11451e-06
4.36146e-06
-6.53304e-06
-2.66321e-06
4.60991e-06
-6.54921e-06
-3.18749e-06
4.69255e-06
-6.53691e-06
-3.6699e-06
4.46062e-06
-6.49313e-06
-4.12914e-06
3.87917e-06
-6.40496e-06
-4.47237e-06
2.75231e-06
-6.26357e-06
6.73919e-07
-4.90884e-06
-6.03e-06
8.21652e-07
5.11971e-06
-4.58533e-07
-6.49388e-06
8.43678e-07
4.54958e-06
-6.50128e-06
6.27784e-07
4.18199e-06
-6.48689e-06
2.26741e-07
3.97083e-06
-6.47429e-06
-2.54044e-07
3.87483e-06
-6.48022e-06
-7.53144e-07
3.9009e-06
-6.47924e-06
-1.21474e-06
4.08726e-06
-6.4868e-06
-1.62869e-06
4.3229e-06
-6.49425e-06
-1.97811e-06
4.53365e-06
-6.51293e-06
-2.26243e-06
4.61149e-06
-6.51194e-06
-2.5119e-06
4.45319e-06
-6.5003e-06
-2.7228e-06
3.99277e-06
-6.46334e-06
-2.84669e-06
2.96129e-06
-6.40279e-06
1.02912e-06
-2.99298e-06
-6.29747e-06
1.00095e-06
4.60627e-06
-8.94705e-07
-6.46773e-06
8.62181e-07
4.24169e-06
-6.46301e-06
5.81049e-07
4.01259e-06
-6.45446e-06
1.77008e-07
3.90722e-06
-6.43771e-06
-2.74804e-07
3.84096e-06
-6.43279e-06
-7.09902e-07
3.85594e-06
-6.4293e-06
-1.07945e-06
3.98845e-06
-6.44116e-06
-1.36194e-06
4.15746e-06
-6.45966e-06
-1.56094e-06
4.31679e-06
-6.48509e-06
-1.68399e-06
4.36283e-06
-6.49467e-06
-1.78904e-06
4.25577e-06
-6.50597e-06
-1.84622e-06
3.85639e-06
-6.50934e-06
-1.85918e-06
2.89331e-06
-6.50675e-06
1.0677e-06
-1.8994e-06
-6.49235e-06
8.43749e-07
4.1011e-06
-8.38454e-07
-6.44333e-06
6.78217e-07
3.90737e-06
-6.42497e-06
4.00314e-07
3.81076e-06
-6.41669e-06
2.98772e-08
3.78567e-06
-6.39964e-06
-3.6923e-07
3.74122e-06
-6.39494e-06
-7.46014e-07
3.73784e-06
-6.3913e-06
-1.05274e-06
3.81759e-06
-6.4046e-06
-1.25837e-06
3.91521e-06
-6.42816e-06
-1.37871e-06
4.02255e-06
-6.45606e-06
-1.42114e-06
4.03153e-06
-6.47339e-06
-1.42894e-06
3.9417e-06
-6.49167e-06
-1.37511e-06
3.55349e-06
-6.51325e-06
-1.28561e-06
2.61273e-06
-6.53963e-06
8.32914e-07
-1.18951e-06
-6.55907e-06
5.59889e-07
3.60888e-06
-5.96059e-07
-6.42157e-06
4.07095e-07
3.53363e-06
-6.38765e-06
1.7452e-07
3.5383e-06
-6.37659e-06
-1.15845e-07
3.56986e-06
-6.35859e-06
-4.53536e-07
3.5727e-06
-6.35967e-06
-7.90139e-07
3.57097e-06
-6.35979e-06
-1.0762e-06
3.61845e-06
-6.37582e-06
-1.27841e-06
3.66397e-06
-6.40146e-06
-1.39888e-06
3.72144e-06
-6.42807e-06
-1.4459e-06
3.69724e-06
-6.4486e-06
-1.40192e-06
3.55378e-06
-6.4703e-06
-1.27417e-06
3.12715e-06
-6.50202e-06
-1.08755e-06
2.1698e-06
-6.544e-06
3.92494e-07
-8.40712e-07
-6.58303e-06
2.89369e-07
3.13714e-06
-3.51819e-07
-6.42271e-06
1.63948e-07
3.11381e-06
-6.37017e-06
2.32487e-09
3.16949e-06
-6.34276e-06
-2.04002e-07
3.2546e-06
-6.32168e-06
-4.84115e-07
3.33911e-06
-6.32572e-06
-8.00759e-07
3.37673e-06
-6.33047e-06
-1.10452e-06
3.43003e-06
-6.34804e-06
-1.35408e-06
3.45082e-06
-6.37153e-06
-1.52448e-06
3.4585e-06
-6.39356e-06
-1.59743e-06
3.37471e-06
-6.41243e-06
-1.5549e-06
3.13343e-06
-6.42782e-06
-1.39818e-06
2.62118e-06
-6.45982e-06
-1.13376e-06
1.59589e-06
-6.50149e-06
-2.46064e-07
-7.18054e-07
-6.54145e-06
1.3307e-07
2.71576e-06
-2.20073e-07
-6.42076e-06
3.29715e-08
2.67174e-06
-6.35715e-06
-7.59856e-08
2.73279e-06
-6.31947e-06
-2.34441e-07
2.87422e-06
-6.2981e-06
-4.74979e-07
3.0529e-06
-6.2987e-06
-7.97402e-07
3.18069e-06
-6.30624e-06
-1.14563e-06
3.28006e-06
-6.32475e-06
-1.46785e-06
3.30482e-06
-6.34699e-06
-1.71379e-06
3.26447e-06
-6.36464e-06
-1.83971e-06
3.09129e-06
-6.38291e-06
-1.83203e-06
2.72315e-06
-6.39333e-06
-1.65957e-06
2.07363e-06
-6.42692e-06
-1.30799e-06
9.39385e-07
-6.46851e-06
-9.88447e-07
-7.1739e-07
-6.49365e-06
2.0829e-07
2.41205e-06
-3.66876e-07
-6.41933e-06
6.99321e-08
2.27353e-06
-6.34529e-06
-5.22335e-08
2.30072e-06
-6.30214e-06
-2.26016e-07
2.4985e-06
-6.28239e-06
-4.75003e-07
2.76277e-06
-6.27808e-06
-8.20873e-07
2.99953e-06
-6.28667e-06
-1.21082e-06
3.1697e-06
-6.30709e-06
-1.5947e-06
3.22326e-06
-6.32948e-06
-1.90772e-06
3.14059e-06
-6.34218e-06
-2.08918e-06
2.86287e-06
-6.35829e-06
-2.10714e-06
2.34014e-06
-6.36273e-06
-1.87531e-06
1.49256e-06
-6.39061e-06
-1.3406e-06
1.83596e-07
-6.42087e-06
-1.82786e-06
-4.86301e-07
-6.4211e-06
4.85932e-07
2.25531e-06
-7.0005e-07
-6.3816e-06
3.10503e-07
1.96309e-06
-6.32213e-06
1.24467e-07
1.9543e-06
-6.28896e-06
-1.21794e-07
2.19585e-06
-6.27243e-06
-4.4969e-07
2.53781e-06
-6.25871e-06
-8.41228e-07
2.85605e-06
-6.27064e-06
-1.26144e-06
3.0898e-06
-6.29393e-06
-1.67402e-06
3.17492e-06
-6.31871e-06
-2.02173e-06
3.05866e-06
-6.3292e-06
-2.22656e-06
2.67759e-06
-6.34662e-06
-2.21417e-06
1.97483e-06
-6.34658e-06
-1.86436e-06
8.91432e-07
-6.36403e-06
-1.10395e-06
-6.42575e-07
-6.36077e-06
-2.71038e-06
-6.55403e-09
-6.29227e-06
1.09102e-06
2.52249e-06
-1.58922e-06
-6.33223e-06
7.51185e-07
1.91751e-06
-6.30048e-06
3.8696e-07
1.81556e-06
-6.26469e-06
4.00416e-09
2.02694e-06
-6.24343e-06
-4.06347e-07
2.38502e-06
-6.22951e-06
-8.35604e-07
2.75179e-06
-6.25271e-06
-1.26264e-06
3.02171e-06
-6.28126e-06
-1.66203e-06
3.12105e-06
-6.30784e-06
-1.98686e-06
2.97175e-06
-6.32128e-06
-2.16477e-06
2.4993e-06
-6.33232e-06
-2.04875e-06
1.59073e-06
-6.32505e-06
-1.49103e-06
2.16671e-07
-6.30702e-06
-4.64465e-07
-1.56654e-06
-6.2471e-06
-3.71751e-06
9.54179e-07
-6.11187e-06
2.08352e-06
3.21677e-06
-2.9152e-06
-6.24488e-06
1.42798e-06
2.30492e-06
-6.26986e-06
8.34365e-07
1.95342e-06
-6.23568e-06
2.95599e-07
1.99122e-06
-6.21111e-06
-2.22355e-07
2.30577e-06
-6.2084e-06
-7.03029e-07
2.67546e-06
-6.23876e-06
-1.13704e-06
2.95177e-06
-6.27246e-06
-1.49242e-06
3.03417e-06
-6.3003e-06
-1.73504e-06
2.84013e-06
-6.31735e-06
-1.83628e-06
2.30231e-06
-6.31672e-06
-1.65915e-06
1.25333e-06
-6.2978e-06
-1.02491e-06
-3.67073e-07
-6.22617e-06
1.33148e-07
-2.38719e-06
-6.11146e-06
-4.81737e-06
1.86555e-06
-5.92722e-06
3.4106e-06
4.15522e-06
-4.50846e-06
-6.20531e-06
2.4121e-06
3.07945e-06
-6.17922e-06
1.55519e-06
2.41892e-06
-6.13958e-06
8.68217e-07
2.12774e-06
-6.13514e-06
2.5272e-07
2.31511e-06
-6.1547e-06
-2.77347e-07
2.62067e-06
-6.20677e-06
-7.1295e-07
2.85585e-06
-6.25443e-06
-9.90857e-07
2.8612e-06
-6.29675e-06
-1.10635e-06
2.58555e-06
-6.31936e-06
-1.03403e-06
1.97217e-06
-6.31192e-06
-6.68363e-07
8.23134e-07
-6.22739e-06
2.6052e-07
-1.06039e-06
-6.09103e-06
1.64891e-06
-3.18072e-06
-5.88355e-06
3.50136e-06
-5.9104e-06
-5.83024e-06
-9.89844e-06
-1.21159e-05
-2.67141e-06
1.11753e-05
-8.42743e-06
-1.4322e-05
-3.08063e-06
1.28708e-05
-6.60826e-06
-1.61387e-05
-3.2996e-06
1.42385e-05
-4.54075e-06
-1.7495e-05
-3.6307e-06
1.5231e-05
-2.35723e-06
-1.80375e-05
-3.96531e-06
1.55871e-05
-1.83926e-05
-4.37875e-06
1.57896e-05
-7.71001e-06
-1.19232e-05
-3.47202e-06
-6.95118e-06
-1.50687e-05
-4.03312e-06
-5.48335e-06
-1.76671e-05
-4.39125e-06
-3.72378e-06
-1.94656e-05
-4.7851e-06
-1.95264e-06
-2.01668e-05
-5.16449e-06
-2.06417e-05
-5.77194e-06
-5.50138e-06
-1.13538e-05
-4.75634e-06
-5.10439e-06
-1.54339e-05
-5.2894e-06
-4.04909e-06
-1.87379e-05
-5.51995e-06
-2.6717e-06
-2.10643e-05
-5.76618e-06
-1.41303e-06
-2.18128e-05
-6.08264e-06
-2.23798e-05
-6.73965e-06
-2.96263e-06
-1.07812e-05
-5.95711e-06
-2.94706e-06
-1.53699e-05
-6.37289e-06
-2.48258e-06
-1.91791e-05
-6.45784e-06
-1.64696e-06
-2.20518e-05
-6.58189e-06
-9.13621e-07
-2.29439e-05
-6.70147e-06
-2.35915e-05
-7.31604e-06
-1.24117e-06
-1.03994e-05
-7.00936e-06
-1.20455e-06
-1.5259e-05
-7.34471e-06
-1.0125e-06
-1.92654e-05
-7.25477e-06
-6.19893e-07
-2.24654e-05
-7.18833e-06
-4.09577e-07
-2.3513e-05
-6.99829e-06
-2.43036e-05
-7.39096e-06
4.19903e-08
-1.02559e-05
-7.63367e-06
1.82673e-07
-1.5167e-05
-7.86206e-06
2.83119e-07
-1.91639e-05
-7.59994e-06
3.7734e-07
-2.24067e-05
-7.38696e-06
2.62154e-07
-2.35137e-05
-6.98853e-06
-2.45202e-05
-6.85664e-06
1.01701e-06
-1.03944e-05
-7.86649e-06
1.29796e-06
-1.51215e-05
-7.8405e-06
1.38967e-06
-1.89619e-05
-7.28747e-06
1.27032e-06
-2.20516e-05
-6.82655e-06
8.66164e-07
-2.32694e-05
-6.24322e-06
-2.40394e-05
-6.20893e-06
1.51458e-06
-1.04765e-05
-7.62228e-06
1.6386e-06
-1.48337e-05
-7.17576e-06
1.6164e-06
-1.86062e-05
-6.3047e-06
1.40433e-06
-2.16141e-05
-5.66588e-06
8.62697e-07
-2.29207e-05
-5.10451e-06
-2.34217e-05
-5.33261e-06
1.84213e-06
-1.04179e-05
-6.85075e-06
1.87362e-06
-1.44299e-05
-6.05214e-06
1.7587e-06
-1.81789e-05
-5.08318e-06
1.36861e-06
-2.10506e-05
-4.50687e-06
6.90105e-07
-2.23865e-05
-4.06985e-06
-2.28714e-05
-4.33244e-06
2.43237e-06
-1.03493e-05
-5.71336e-06
2.44113e-06
-1.40542e-05
-4.85419e-06
2.17626e-06
-1.76637e-05
-4.05505e-06
1.63559e-06
-2.03917e-05
-3.67717e-06
8.29744e-07
-2.17589e-05
-3.40722e-06
-2.22138e-05
-3.73195e-06
3.49724e-06
-1.043e-05
-4.54776e-06
3.50005e-06
-1.37592e-05
-3.89851e-06
3.07809e-06
-1.70734e-05
-3.41683e-06
2.29119e-06
-1.96091e-05
-3.29203e-06
1.19032e-06
-2.08976e-05
-3.33168e-06
-2.12268e-05
-3.76629e-06
5.16998e-06
-1.06372e-05
-3.61597e-06
5.01876e-06
-1.34279e-05
-3.30804e-06
4.29305e-06
-1.62903e-05
-3.20129e-06
3.11113e-06
-1.85369e-05
-3.2722e-06
1.53505e-06
-1.96198e-05
-3.42362e-06
-1.99234e-05
-3.87757e-06
7.09336e-06
-1.09376e-05
-2.95848e-06
6.70944e-06
-1.2957e-05
-3.051e-06
5.63368e-06
-1.52415e-05
-3.23412e-06
4.02204e-06
-1.71122e-05
-3.43324e-06
2.01278e-06
-1.79365e-05
-3.58151e-06
-1.82146e-05
-3.96496e-06
8.96295e-06
-2.40185e-06
-1.04187e-05
8.30659e-06
-2.76896e-06
-1.23028e-05
7.01044e-06
-3.11132e-06
-1.40584e-05
4.98318e-06
-3.41955e-06
-1.53142e-05
2.49349e-06
-3.60652e-06
-1.57874e-05
-3.95626e-06
-1.60604e-05
-8.87764e-06
-1.06058e-05
-2.80337e-06
9.94653e-06
-7.57839e-06
-1.31885e-05
-3.07323e-06
1.19302e-05
-5.84427e-06
-1.55624e-05
-3.18546e-06
1.37576e-05
-3.7752e-06
-1.7435e-05
-3.35252e-06
1.51255e-05
-1.94506e-06
-1.81132e-05
-3.25093e-06
1.55959e-05
-1.86417e-05
-3.54651e-06
1.59009e-05
-6.69312e-06
-1.00302e-05
-3.70819e-06
-6.19912e-06
-1.36079e-05
-4.05121e-06
-4.94193e-06
-1.69126e-05
-4.24734e-06
-3.12463e-06
-1.94604e-05
-4.53575e-06
-1.5858e-06
-2.04054e-05
-4.39538e-06
-2.11752e-05
-4.80529e-06
-4.59359e-06
-9.31773e-06
-5.09563e-06
-4.27517e-06
-1.37534e-05
-5.40164e-06
-3.36261e-06
-1.78215e-05
-5.46644e-06
-1.91403e-06
-2.10392e-05
-5.58267e-06
-9.04913e-07
-2.21871e-05
-5.2751e-06
-2.31793e-05
-5.60777e-06
-2.23957e-06
-8.73146e-06
-6.3637e-06
-2.06866e-06
-1.35989e-05
-6.62834e-06
-1.56762e-06
-1.81585e-05
-6.55544e-06
-7.51576e-07
-2.19151e-05
-6.4415e-06
-2.60055e-07
-2.33532e-05
-5.98009e-06
-2.45487e-05
-6.08985e-06
-7.05944e-07
-8.42477e-06
-7.41765e-06
-3.72659e-07
-1.35006e-05
-7.69084e-06
3.92504e-08
-1.82211e-05
-7.51529e-06
3.58807e-07
-2.21785e-05
-7.12806e-06
3.41113e-07
-2.39092e-05
-6.36041e-06
-2.53141e-05
-6.07698e-06
3.91454e-07
-8.40152e-06
-8.03636e-06
9.3333e-07
-1.34935e-05
-8.31273e-06
1.43977e-06
-1.81566e-05
-8.05445e-06
1.48651e-06
-2.20187e-05
-7.45388e-06
9.93518e-07
-2.37867e-05
-6.48116e-06
-2.55185e-05
-5.48793e-06
1.18308e-06
-8.63893e-06
-8.31113e-06
2.0182e-06
-1.35801e-05
-8.48352e-06
2.66511e-06
-1.7942e-05
-8.03093e-06
2.51607e-06
-2.15292e-05
-7.0214e-06
1.93696e-06
-2.33056e-05
-5.98291e-06
-2.47766e-05
-4.7998e-06
1.62798e-06
-8.86823e-06
-8.19126e-06
2.43648e-06
-1.33262e-05
-8.12836e-06
3.00107e-06
-1.73608e-05
-7.32245e-06
2.75348e-06
-2.08648e-05
-5.92198e-06
2.06269e-06
-2.26636e-05
-4.87911e-06
-2.36787e-05
-4.203e-06
1.94074e-06
-8.8714e-06
-7.68821e-06
2.69458e-06
-1.27018e-05
-7.3141e-06
3.03673e-06
-1.64941e-05
-6.15093e-06
2.53277e-06
-1.99873e-05
-4.71154e-06
1.61327e-06
-2.17347e-05
-3.869e-06
-2.26074e-05
-3.51706e-06
2.50028e-06
-8.61715e-06
-6.85438e-06
3.18049e-06
-1.19166e-05
-6.20962e-06
3.27285e-06
-1.55604e-05
-4.94792e-06
2.64498e-06
-1.90925e-05
-3.78193e-06
1.68445e-06
-2.07601e-05
-3.20896e-06
-2.1507e-05
-2.88727e-06
3.43801e-06
-8.36659e-06
-5.78694e-06
4.1237e-06
-1.13125e-05
-5.08925e-06
4.12267e-06
-1.48265e-05
-4.03359e-06
3.36361e-06
-1.82252e-05
-3.27711e-06
2.02606e-06
-1.97365e-05
-2.8704e-06
-2.03971e-05
-2.68164e-06
4.96596e-06
-8.3124e-06
-4.70075e-06
5.49035e-06
-1.08783e-05
-4.18732e-06
5.18141e-06
-1.41394e-05
-3.49651e-06
4.04362e-06
-1.71976e-05
-3.0793e-06
2.21584e-06
-1.85706e-05
-2.67125e-06
-1.91917e-05
-2.76683e-06
6.6244e-06
-8.59806e-06
-3.71006e-06
6.88182e-06
-1.06186e-05
-3.51783e-06
6.26764e-06
-1.34463e-05
-3.25856e-06
4.77783e-06
-1.60044e-05
-3.08468e-06
2.54573e-06
-1.7137e-05
-2.73497e-06
-1.76827e-05
-2.86623e-06
8.0707e-06