/*--------------------------------*- C++ -*----------------------------------*\
| =========                 |                                                 |
| \\      /  F ield         | OpenFOAM: The Open Source CFD Toolbox           |
|  \\    /   O peration     | Version:  v2106                                 |
|   \\  /    A nd           | Website:  www.openfoam.com                      |
|    \\/     M anipulation  |                                                 |
\*---------------------------------------------------------------------------*/
FoamFile
{
    version     2.0;
    format      ascii;
    arch        "LSB;label=32;scalar=64";
    class       volScalarField;
    location    "0.000186";
    object      rho;
}
// * * * * * * * * * * * * * * * * * * * * * * * * * * * * * * * * * * * * * //

dimensions      [1 -3 0 0 0 0 0];

internalField   nonuniform List<scalar> 
18273
(
2.38488
2.38181
2.3757
2.37172
2.36848
2.36673
2.36213
2.35924
2.35427
2.34962
2.34556
2.34431
2.34157
2.3481
2.37955
2.3784
2.37365
2.37033
2.36658
2.36336
2.35917
2.35525
2.35068
2.34582
2.34245
2.34147
2.3413
2.34785
2.38221
2.37876
2.37401
2.3693
2.36502
2.36087
2.35704
2.35295
2.3487
2.34396
2.34068
2.33913
2.33803
2.34265
2.38201
2.37701
2.37217
2.36751
2.36334
2.35902
2.3552
2.35102
2.34712
2.34295
2.34046
2.33916
2.33891
2.34273
2.38211
2.37614
2.37091
2.36583
2.36196
2.358
2.35412
2.34997
2.34631
2.3431
2.3411
2.3401
2.34033
2.34387
2.38084
2.37409
2.36892
2.36478
2.36122
2.35788
2.35415
2.35009
2.34647
2.34354
2.3417
2.34111
2.34195
2.3455
2.37989
2.37321
2.36799
2.36378
2.36063
2.35772
2.3542
2.35029
2.34691
2.34457
2.34325
2.34299
2.34416
2.34661
2.3799
2.37322
2.36806
2.36397
2.36078
2.35779
2.3542
2.35035
2.34707
2.34477
2.34341
2.34308
2.34402
2.34708
2.38001
2.37351
2.36848
2.36432
2.36087
2.35769
2.35399
2.35016
2.34698
2.34482
2.34359
2.34321
2.34412
2.34641
2.38107
2.37518
2.36995
2.36508
2.36103
2.35756
2.3538
2.34991
2.34672
2.34445
2.34306
2.3425
2.34338
2.34588
2.38244
2.37707
2.37172
2.36646
2.36205
2.35833
2.35458
2.35065
2.34742
2.34517
2.34379
2.34315
2.34369
2.34525
2.38549
2.37981
2.37527
2.36934
2.36433
2.36041
2.35671
2.35267
2.34929
2.34707
2.34596
2.34568
2.34657
2.34704
2.38831
2.3817
2.37777
2.37214
2.36742
2.36345
2.35996
2.35598
2.35233
2.3495
2.34767
2.34625
2.34709
2.34538
2.38944
2.38012
2.37978
2.37579
2.37268
2.36835
2.36588
2.36169
2.35793
2.35507
2.35335
2.35274
2.35638
2.35479
2.38735
2.38565
2.38189
2.37921
2.37741
2.37512
2.37272
2.37033
2.36678
2.36299
2.36022
2.35979
2.3563
2.35931
2.38375
2.38284
2.37981
2.37728
2.37491
2.37227
2.36992
2.36724
2.36396
2.36052
2.35813
2.35775
2.35615
2.35927
2.38289
2.38036
2.37747
2.37451
2.37184
2.36909
2.36694
2.36434
2.36162
2.35914
2.35723
2.35682
2.35545
2.35714
2.37965
2.37676
2.37419
2.37137
2.36873
2.3663
2.36439
2.36211
2.36015
2.35837
2.35741
2.35757
2.35737
2.35869
2.37695
2.37377
2.37108
2.36901
2.36687
2.36506
2.36323
2.3612
2.35975
2.35851
2.35829
2.35886
2.35925
2.36099
2.37525
2.37198
2.36951
2.36761
2.36602
2.36454
2.36296
2.36124
2.36011
2.35936
2.35981
2.36087
2.36194
2.36395
2.37481
2.37137
2.3689
2.36707
2.36582
2.36448
2.36308
2.36161
2.36064
2.36016
2.36071
2.3618
2.36312
2.36472
2.3749
2.37162
2.36914
2.36724
2.36571
2.36442
2.36313
2.36179
2.36103
2.36066
2.36146
2.36254
2.36395
2.36578
2.37569
2.37212
2.36942
2.36753
2.36593
2.3644
2.363
2.36155
2.36093
2.36044
2.36099
2.36196
2.36346
2.36532
2.3782
2.37435
2.371
2.36816
2.36622
2.36454
2.36291
2.36116
2.36064
2.35999
2.36027
2.36097
2.36209
2.36402
2.38055
2.37651
2.37291
2.36966
2.36733
2.36527
2.3634
2.36119
2.36059
2.35963
2.35954
2.35986
2.36063
2.36243
2.38412
2.37927
2.37592
2.37175
2.36929
2.36688
2.36475
2.36251
2.36151
2.36041
2.36008
2.36047
2.3612
2.36254
2.38632
2.38113
2.3786
2.37509
2.37248
2.36997
2.36725
2.36506
2.3628
2.36132
2.36014
2.35931
2.35934
2.35842
2.38744
2.38186
2.3822
2.3795
2.37685
2.374
2.37073
2.36884
2.36559
2.3638
2.36191
2.36123
2.36218
2.36212
2.40518
2.40262
2.39887
2.39541
2.39225
2.38786
2.38415
2.37984
2.37569
2.37273
2.37132
2.37037
2.36878
2.36845
2.40018
2.39754
2.39382
2.39023
2.38694
2.38311
2.37964
2.37568
2.37213
2.36958
2.36858
2.36865
2.36808
2.36775
2.39577
2.39278
2.38894
2.38531
2.38198
2.37826
2.37497
2.37138
2.36846
2.36646
2.36588
2.36599
2.36537
2.36456
2.39225
2.38887
2.38513
2.38199
2.37876
2.37528
2.37211
2.36873
2.366
2.36404
2.36359
2.36394
2.36402
2.36327
2.39009
2.38672
2.38339
2.3803
2.37726
2.374
2.37085
2.36745
2.36479
2.36292
2.36292
2.36345
2.36376
2.36349
2.38941
2.38586
2.38257
2.37967
2.37691
2.37384
2.37076
2.36741
2.3647
2.36262
2.36261
2.363
2.36365
2.36396
2.3891
2.38571
2.38263
2.37956
2.37692
2.37394
2.37094
2.36781
2.36532
2.36352
2.36362
2.36398
2.36433
2.36451
2.38934
2.386
2.38291
2.37972
2.377
2.37401
2.3711
2.36829
2.366
2.36436
2.36451
2.36481
2.36538
2.36578
2.39021
2.38658
2.38331
2.38008
2.37704
2.3741
2.37123
2.36863
2.36651
2.36525
2.36543
2.36583
2.3664
2.36667
2.39217
2.38768
2.38398
2.38047
2.3772
2.37428
2.37141
2.36891
2.3669
2.36597
2.366
2.36641
2.3668
2.36677
2.39432
2.38912
2.385
2.38124
2.37776
2.37482
2.37194
2.36941
2.36743
2.36659
2.36635
2.36656
2.36666
2.36631
2.39748
2.39063
2.38639
2.38236
2.37863
2.37555
2.37276
2.37034
2.3685
2.36764
2.36739
2.36768
2.36775
2.36719
2.40045
2.39344
2.38936
2.38515
2.38128
2.37791
2.37502
2.37247
2.37059
2.36919
2.36815
2.36742
2.36748
2.36582
2.40223
2.3953
2.39238
2.38842
2.38447
2.38078
2.3779
2.37545
2.37374
2.37208
2.3709
2.37072
2.37044
2.36978
2.36214
2.3744
2.3781
2.38753
2.39107
2.40231
2.3451
2.35905
2.36913
2.38621
2.3929
2.41225
2.34531
2.36094
2.37164
2.39112
2.39881
2.42521
2.34582
2.35926
2.37012
2.39165
2.40273
2.43525
2.34799
2.36089
2.37247
2.39475
2.40615
2.44128
2.35028
2.36156
2.37208
2.39411
2.4063
2.44017
2.35064
2.36212
2.37398
2.39579
2.40749
2.43802
2.35163
2.36219
2.37347
2.39331
2.40672
2.43326
2.351
2.36064
2.37146
2.38908
2.40227
2.42733
2.3506
2.35919
2.36906
2.38307
2.39243
2.41588
2.35037
2.35812
2.36713
2.37925
2.3859
2.40638
2.3509
2.3577
2.36647
2.37685
2.38204
2.39904
2.35487
2.36194
2.36971
2.37928
2.38379
2.39789
2.35353
2.36075
2.37322
2.38634
2.39051
2.4027
2.36855
2.37617
2.37475
2.37807
2.37613
2.38666
2.35252
2.36075
2.36456
2.3771
2.37654
2.39582
2.3553
2.36305
2.368
2.38321
2.38248
2.40759
2.35808
2.36417
2.36991
2.38525
2.38617
2.41662
2.36205
2.36831
2.37471
2.38941
2.3897
2.42311
2.36571
2.37172
2.37742
2.39098
2.3937
2.42289
2.36646
2.3731
2.38065
2.39465
2.39812
2.42085
2.36782
2.37384
2.38092
2.39386
2.39774
2.41724
2.3674
2.37293
2.37904
2.39031
2.39371
2.41398
2.36617
2.37053
2.37485
2.38303
2.38335
2.40257
2.3646
2.36715
2.36994
2.37645
2.37311
2.39258
2.3627
2.36288
2.36443
2.37063
2.366
2.38345
2.36075
2.36134
2.36349
2.36907
2.365
2.37857
2.35266
2.3524
2.35826
2.36892
2.36811
2.37928
2.37765
2.38494
2.38365
2.38319
2.38463
2.3914
2.35835
2.36183
2.36492
2.3738
2.37972
2.39915
2.35919
2.36041
2.36363
2.37469
2.38279
2.40862
2.35936
2.35828
2.36118
2.37374
2.38255
2.41114
2.36117
2.35992
2.3627
2.37585
2.38543
2.41337
2.36322
2.36303
2.36547
2.37773
2.3873
2.4119
2.36388
2.36492
2.36874
2.38235
2.39038
2.41072
2.36562
2.36795
2.37192
2.38454
2.39057
2.40904
2.36704
2.3688
2.37276
2.38429
2.3901
2.4084
2.36716
2.36843
2.37203
2.38115
2.3854
2.40534
2.3668
2.3675
2.37055
2.37683
2.37873
2.40152
2.36698
2.3665
2.36782
2.37123
2.37284
2.39343
2.36722
2.36517
2.36566
2.37026
2.37263
2.38735
2.35832
2.35438
2.35561
2.36369
2.37122
2.38383
2.36642
2.37981
2.38449
2.39473
2.39851
2.41059
2.34974
2.36441
2.37452
2.39364
2.40215
2.42383
2.35349
2.36902
2.37863
2.39916
2.40785
2.4365
2.35648
2.37074
2.38124
2.40207
2.41158
2.44429
2.36115
2.3752
2.38762
2.40904
2.41707
2.45328
2.36523
2.37848
2.39095
2.41164
2.42092
2.45505
2.36972
2.38301
2.39488
2.41548
2.42547
2.45677
2.37335
2.3853
2.39732
2.41758
2.42759
2.4543
2.37607
2.38785
2.39945
2.41843
2.42777
2.4532
2.37875
2.38855
2.399
2.41593
2.42509
2.44995
2.38081
2.38904
2.39838
2.41241
2.42274
2.44691
2.38335
2.38892
2.39655
2.40947
2.41967
2.43817
2.38525
2.3909
2.39868
2.41016
2.41734
2.43287
2.38278
2.38848
2.39753
2.41069
2.41684
2.42931
2.36663
2.37446
2.37387
2.37776
2.37596
2.38653
2.35318
2.36029
2.36333
2.37597
2.37772
2.39867
2.35786
2.36397
2.36784
2.3825
2.3838
2.41054
2.36101
2.36629
2.37105
2.38583
2.3886
2.41831
2.36584
2.37136
2.378
2.39408
2.39724
2.42904
2.3693
2.3756
2.38328
2.39894
2.40458
2.4336
2.37423
2.38162
2.38983
2.40588
2.41267
2.43831
2.37592
2.38504
2.39417
2.41105
2.41836
2.43765
2.38011
2.3897
2.39863
2.4143
2.41937
2.43772
2.3827
2.39114
2.39923
2.41347
2.41679
2.43806
2.38439
2.39143
2.39796
2.40923
2.41082
2.43363
2.3853
2.3898
2.39354
2.40191
2.40443
2.42443
2.38611
2.3885
2.39104
2.39783
2.4008
2.41914
2.37903
2.38071
2.38446
2.39457
2.3984
2.40416
2.37505
2.3819
2.38174
2.38251
2.38231
2.39207
2.36364
2.36593
2.36683
2.37359
2.37792
2.39974
2.36821
2.36902
2.36933
2.37752
2.38442
2.4107
2.37082
2.37186
2.3728
2.38177
2.38898
2.41605
2.3744
2.37617
2.37891
2.38998
2.39775
2.42669
2.37721
2.38004
2.38446
2.3968
2.40562
2.43035
2.37952
2.38513
2.39158
2.40536
2.41566
2.43948
2.38244
2.38888
2.39781
2.41422
2.42533
2.44537
2.38634
2.39498
2.40468
2.4219
2.43219
2.4522
2.39036
2.39966
2.40908
2.4256
2.43439
2.45321
2.39457
2.40284
2.4114
2.42545
2.43233
2.45334
2.39867
2.40494
2.41185
2.42197
2.42703
2.44802
2.40187
2.40667
2.41197
2.41939
2.42413
2.44072
2.39622
2.40078
2.40531
2.41215
2.41552
2.4232
2.42483
2.41409
2.40706
2.39834
2.38837
2.38387
2.43388
2.41972
2.41204
2.40267
2.39329
2.38848
2.4445
2.42301
2.41244
2.40211
2.39345
2.38794
2.45026
2.42742
2.41825
2.4053
2.39567
2.38884
2.45009
2.42957
2.42054
2.40682
2.39698
2.38871
2.45077
2.43076
2.42312
2.40914
2.3994
2.38877
2.45058
2.42899
2.42239
2.40873
2.39886
2.38787
2.4495
2.42497
2.41908
2.40688
2.39844
2.38784
2.44495
2.4201
2.41572
2.40388
2.39597
2.38739
2.44296
2.4154
2.41383
2.40133
2.39419
2.38666
2.43528
2.41243
2.4117
2.39908
2.39265
2.38546
2.43212
2.41305
2.41284
2.40018
2.39442
2.38586
2.42982
2.41406
2.41301
2.40059
2.39403
2.38239
2.42865
2.41897
2.41772
2.41109
2.40852
2.39635
2.40563
2.4024
2.39649
2.38916
2.38211
2.38122
2.41743
2.41133
2.40429
2.3969
2.3911
2.3889
2.4299
2.41071
2.40522
2.39627
2.39013
2.38618
2.4343
2.41722
2.41047
2.39802
2.38986
2.38406
2.43371
2.42012
2.4114
2.39757
2.38847
2.38149
2.43327
2.41998
2.41007
2.39598
2.38791
2.38027
2.42876
2.41431
2.40641
2.39399
2.38683
2.37981
2.42228
2.4068
2.4005
2.39086
2.38503
2.37939
2.41514
2.39818
2.39576
2.389
2.38556
2.38046
2.41304
2.39194
2.39153
2.38642
2.38447
2.38152
2.4062
2.38944
2.39053
2.38541
2.38426
2.38249
2.40385
2.39028
2.39248
2.38639
2.38543
2.3839
2.40375
2.39057
2.39396
2.38753
2.38575
2.38214
2.40572
2.39964
2.40183
2.39985
2.39993
2.39423
2.42237
2.42
2.41481
2.40829
2.40305
2.4009
2.43581
2.43125
2.42569
2.41787
2.41111
2.4069
2.43912
2.43282
2.4254
2.41601
2.40689
2.40151
2.43674
2.43379
2.42322
2.41455
2.40367
2.39828
2.42829
2.42993
2.41835
2.41013
2.40018
2.39468
2.41864
2.42391
2.41217
2.40594
2.39875
2.39348
2.40863
2.41547
2.40597
2.40264
2.39769
2.39308
2.40119
2.40873
2.40163
2.40023
2.39683
2.39338
2.39883
2.40526
2.4003
2.40053
2.39749
2.3942
2.40116
2.40379
2.40141
2.40139
2.39991
2.39691
2.40425
2.4044
2.40281
2.4023
2.40154
2.39842
2.4088
2.40609
2.4061
2.40549
2.40471
2.4005
2.41522
2.40949
2.41048
2.40783
2.40604
2.40011
2.41984
2.41913
2.42181
2.41996
2.41825
2.41092
2.39945
2.38832
2.38235
2.37109
2.36055
2.35361
2.39904
2.38496
2.37894
2.37024
2.36073
2.35385
2.40567
2.38539
2.37733
2.36729
2.35813
2.35199
2.41455
2.39231
2.38196
2.36948
2.35975
2.35239
2.42177
2.39964
2.3869
2.37184
2.36236
2.355
2.42538
2.40257
2.39226
2.3755
2.36627
2.35856
2.43153
2.40414
2.3953
2.379
2.37151
2.36357
2.43319
2.40349
2.39654
2.38074
2.37349
2.36569
2.42861
2.40029
2.3956
2.38258
2.37661
2.37032
2.429
2.39527
2.39581
2.38321
2.37693
2.37035
2.42393
2.39655
2.397
2.38443
2.37916
2.37208
2.4187
2.3995
2.39972
2.38823
2.38367
2.37494
2.41723
2.40271
2.40252
2.39214
2.38664
2.37504
2.4199
2.41088
2.40965
2.40546
2.40559
2.39636
2.38385
2.3734
2.37365
2.3652
2.35872
2.35718
2.38783
2.37412
2.37531
2.36951
2.3647
2.36274
2.39595
2.37714
2.37487
2.36883
2.36527
2.36283
2.40804
2.38687
2.38211
2.37337
2.36807
2.36398
2.41262
2.39355
2.38765
2.3769
2.37094
2.36622
2.41654
2.39935
2.39238
2.38024
2.37449
2.36977
2.41867
2.39972
2.39273
2.38182
2.37741
2.37341
2.41814
2.39816
2.39254
2.38147
2.37736
2.37453
2.41193
2.39273
2.38944
2.38079
2.37915
2.37695
2.40539
2.38742
2.38748
2.37896
2.3781
2.37772
2.40807
2.3785
2.38344
2.37745
2.37814
2.3782
2.4014
2.38313
2.38663
2.38041
2.3804
2.37965
2.40002
2.38674
2.38976
2.38392
2.38257
2.37879
2.40411
2.39788
2.39941
2.39994
2.40123
2.39591
2.38722
2.37812
2.37004
2.3634
2.35761
2.36109
2.39376
2.3817
2.37902
2.37501
2.37195
2.37284
2.39668
2.38338
2.38089
2.37637
2.3725
2.37218
2.40234
2.394
2.38718
2.38129
2.3755
2.37437
2.39892
2.40075
2.39042
2.3853
2.37824
2.37617
2.39885
2.40277
2.39361
2.38931
2.38242
2.38002
2.39944
2.40112
2.39342
2.39138
2.38683
2.38418
2.39907
2.39963
2.39315
2.39277
2.39067
2.3882
2.39847
2.39769
2.39347
2.39361
2.39301
2.39138
2.40201
2.396
2.3947
2.39543
2.39654
2.39559
2.39911
2.3965
2.39731
2.39835
2.39912
2.39798
2.40092
2.40305
2.40456
2.40443
2.40299
2.40062
2.40685
2.41092
2.41164
2.40928
2.40605
2.40172
2.41509
2.42107
2.42411
2.42637
2.42487
2.41536
2.42395
2.42018
2.41541
2.40962
2.40509
2.39991
2.39506
2.39003
2.38574
2.38259
2.38116
2.38098
2.38245
2.38257
2.41525
2.41015
2.40486
2.40075
2.39691
2.39264
2.38855
2.38419
2.38024
2.37739
2.37622
2.37679
2.37827
2.37933
2.40801
2.40302
2.3981
2.39455
2.39088
2.38701
2.38327
2.3794
2.37599
2.37355
2.37273
2.37323
2.37418
2.37535
2.40338
2.39878
2.3942
2.39069
2.38717
2.38353
2.37994
2.37624
2.3729
2.37052
2.36977
2.36993
2.37103
2.37171
2.40076
2.39613
2.39176
2.38828
2.38496
2.3815
2.37802
2.37444
2.37122
2.3688
2.36776
2.36768
2.36901
2.36996
2.39921
2.39441
2.39029
2.38686
2.38376
2.38042
2.37697
2.37343
2.37029
2.36785
2.3666
2.36649
2.3674
2.36803
2.39841
2.39344
2.38947
2.38609
2.38312
2.37992
2.37661
2.37317
2.37001
2.36752
2.3662
2.3663
2.36709
2.36786
2.39833
2.39315
2.38903
2.38552
2.38255
2.3794
2.37621
2.37295
2.36988
2.36748
2.36606
2.36626
2.36686
2.36759
2.39869
2.39307
2.38869
2.38505
2.382
2.37887
2.37572
2.37256
2.36963
2.36743
2.36607
2.36631
2.36672
2.36752
2.39959
2.39336
2.38866
2.38487
2.38161
2.37848
2.37532
2.37213
2.36926
2.36708
2.36573
2.36593
2.36611
2.36682
2.40089
2.39405
2.38888
2.38488
2.38132
2.37811
2.37487
2.3717
2.36892
2.3667
2.36555
2.36553
2.36563
2.36599
2.40299
2.39509
2.38934
2.38523
2.38156
2.37825
2.37494
2.3719
2.36915
2.36691
2.36581
2.36552
2.36585
2.366
2.40537
2.39696
2.39105
2.38662
2.38276
2.37933
2.37606
2.37321
2.37064
2.3688
2.36766
2.36677
2.36704
2.36593
2.40642
2.39889
2.39305
2.38846
2.38457
2.3811
2.37797
2.37561
2.37352
2.37254
2.37229
2.37228
2.37203
2.3706
2.42998
2.42478
2.42013
2.41502
2.41103
2.40665
2.4026
2.39842
2.39401
2.38994
2.38676
2.3848
2.38487
2.38571
2.42377
2.41826
2.41279
2.40829
2.40415
2.39983
2.39582
2.39177
2.38767
2.38379
2.3806
2.37868
2.3787
2.38132
2.41832
2.41273
2.40733
2.40287
2.39876
2.3946
2.39061
2.38666
2.38277
2.37902
2.37595
2.37397
2.37395
2.37732
2.41419
2.40866
2.40353
2.39908
2.39488
2.39066
2.38659
2.38255
2.3787
2.37501
2.37201
2.3701
2.37002
2.37308
2.4112
2.40571
2.40087
2.39649
2.39244
2.38825
2.3841
2.37987
2.3759
2.3722
2.36933
2.36752
2.36748
2.37012
2.40901
2.40346
2.39886
2.39466
2.39076
2.38665
2.38249
2.3782
2.37418
2.37041
2.3675
2.36579
2.36606
2.36811
2.40754
2.40183
2.39737
2.39327
2.38949
2.38549
2.3814
2.37718
2.37323
2.36957
2.36678
2.36526
2.36574
2.36748
2.40662
2.40069
2.39623
2.39214
2.38835
2.38439
2.38038
2.3763
2.3725
2.36903
2.36648
2.36524
2.36578
2.36708
2.40612
2.39995
2.39531
2.39113
2.38725
2.38329
2.37931
2.37533
2.37167
2.36847
2.36622
2.36536
2.3659
2.36683
2.40596
2.39957
2.3946
2.39026
2.38619
2.38219
2.37823
2.37432
2.3708
2.36789
2.36591
2.36521
2.36547
2.36617
2.40621
2.39951
2.39415
2.38965
2.3854
2.38132
2.37734
2.37351
2.37006
2.36725
2.36528
2.36478
2.36465
2.36533
2.40681
2.39955
2.39384
2.38925
2.38483
2.38063
2.37659
2.37279
2.36943
2.36673
2.36501
2.36435
2.36416
2.36469
2.408
2.40052
2.39457
2.38973
2.38507
2.38068
2.37652
2.3727
2.36937
2.36683
2.36522
2.36429
2.36405
2.36341
2.40837
2.40106
2.39505
2.39017
2.38577
2.38154
2.3776
2.37411
2.37115
2.36912
2.36794
2.36741
2.36693
2.36545
2.43922
2.43441
2.42955
2.42475
2.42044
2.41614
2.41211
2.40795
2.40365
2.39919
2.39503
2.39163
2.38997
2.38922
2.43361
2.42806
2.42285
2.41804
2.41349
2.40916
2.40512
2.40103
2.3968
2.3924
2.38834
2.38513
2.38358
2.38388
2.42874
2.42306
2.4177
2.41279
2.40822
2.4038
2.39963
2.39553
2.39142
2.3872
2.38316
2.37991
2.37837
2.37906
2.42491
2.41921
2.41398
2.40909
2.40451
2.39997
2.39557
2.39122
2.38689
2.38258
2.37857
2.37544
2.37398
2.37467
2.42179
2.41598
2.41088
2.40609
2.40159
2.39704
2.39257
2.38809
2.38361
2.37925
2.37522
2.37213
2.37074
2.37168
2.41925
2.41333
2.40831
2.40359
2.39915
2.39464
2.39017
2.3857
2.38118
2.37685
2.37283
2.3698
2.36834
2.3694
2.41719
2.41113
2.40616
2.40147
2.39706
2.39258
2.38819
2.38381
2.3794
2.37524
2.3714
2.36866
2.36734
2.36847
2.41554
2.40934
2.40432
2.39961
2.39518
2.39073
2.38642
2.38217
2.37794
2.37402
2.37049
2.3681
2.36703
2.36797
2.41427
2.40794
2.40275
2.39795
2.39342
2.38896
2.38469
2.38058
2.37659
2.37297
2.36984
2.36784
2.36698
2.36756
2.41314
2.40671
2.40129
2.39637
2.39175
2.38729
2.38307
2.37907
2.37528
2.37196
2.3692
2.36749
2.36664
2.36677
2.41234
2.40578
2.4001
2.39502
2.39026
2.38573
2.38149
2.37754
2.37393
2.37083
2.36831
2.36667
2.36567
2.36536
2.41165
2.40475
2.39888
2.39377
2.38897
2.38445
2.38021
2.37628
2.3727
2.36967
2.36725
2.36558
2.36447
2.36378
2.41154
2.40442
2.39845
2.3932
2.3882
2.38352
2.37918
2.37521
2.3717
2.3688
2.36644
2.36474
2.36325
2.36217
2.4108
2.40318
2.39744
2.39249
2.38773
2.38318
2.379
2.37506
2.37162
2.36886
2.36703
2.36568
2.36424
2.36202
2.44701
2.44198
2.43695
2.43214
2.4279
2.42392
2.42014
2.41623
2.41214
2.40777
2.40332
2.39885
2.39538
2.39265
2.4419
2.43705
2.43178
2.42674
2.42213
2.41775
2.41367
2.40969
2.4056
2.40127
2.39679
2.39263
2.38938
2.38754
2.43732
2.43201
2.42672
2.42176
2.4172
2.41279
2.40861
2.40451
2.40035
2.39607
2.39165
2.38757
2.38438
2.38283
2.43349
2.42796
2.42271
2.41784
2.41331
2.40881
2.40446
2.40017
2.39582
2.3914
2.38699
2.38289
2.37982
2.37848
2.4301
2.42432
2.41911
2.41428
2.40978
2.4053
2.40098
2.3967
2.39234
2.38781
2.38334
2.37924
2.37624
2.37513
2.42724
2.42127
2.41595
2.41107
2.40656
2.4021
2.39783
2.39364
2.38935
2.38488
2.38045
2.37641
2.37341
2.37247
2.42473
2.41855
2.41326
2.4083
2.40372
2.39926
2.39509
2.39102
2.38689
2.38261
2.37838
2.3746
2.37178
2.37118
2.42256
2.41627
2.41089
2.40582
2.40119
2.39678
2.39271
2.38877
2.38481
2.38077
2.37683
2.37343
2.37091
2.37044
2.42059
2.41423
2.40875
2.40362
2.39896
2.3946
2.39061
2.38679
2.38301
2.37925
2.37564
2.37266
2.37039
2.36996
2.41866
2.41229
2.40674
2.40158
2.3969
2.39258
2.38865
2.38495
2.38138
2.37789
2.37459
2.37199
2.36994
2.36938
2.4169
2.41051
2.40487
2.39968
2.39494
2.39063
2.38671
2.38307
2.37964
2.37641
2.37342
2.37103
2.36909
2.36809
2.41495
2.40851
2.40291
2.39782
2.39311
2.3888
2.38488
2.38126
2.37794
2.37489
2.37212
2.36978
2.36768
2.36614
2.41347
2.40709
2.40146
2.39635
2.39157
2.38721
2.38325
2.3796
2.37629
2.37331
2.37055
2.3681
2.36582
2.36359
2.41162
2.40481
2.39965
2.39492
2.39037
2.38607
2.38218
2.37853
2.37526
2.37235
2.36972
2.36761
2.36485
2.36161
2.45393
2.44949
2.44444
2.43971
2.43543
2.4315
2.42794
2.42445
2.4208
2.41689
2.41251
2.40772
2.40303
2.3988
2.44891
2.44466
2.43955
2.43477
2.43037
2.4262
2.42227
2.41849
2.41468
2.41071
2.40638
2.40177
2.3974
2.39384
2.44451
2.43964
2.43457
2.42995
2.4257
2.42157
2.4176
2.4137
2.40979
2.40574
2.40143
2.39693
2.39281
2.38953
2.44064
2.43543
2.43042
2.42589
2.42166
2.41747
2.41344
2.40943
2.40541
2.40122
2.39689
2.39236
2.38829
2.38519
2.43719
2.43162
2.42657
2.42197
2.41769
2.41352
2.40956
2.40563
2.4017
2.39746
2.39305
2.38853
2.38451
2.38176
2.4342
2.42839
2.42315
2.41835
2.41392
2.40972
2.40585
2.40204
2.39821
2.39407
2.38968
2.38527
2.38133
2.37881
2.43125
2.42511
2.41976
2.41482
2.41037
2.40622
2.4025
2.39888
2.3952
2.39122
2.38697
2.38278
2.37903
2.3769
2.42851
2.42229
2.41689
2.41182
2.40734
2.40325
2.39962
2.39612
2.39256
2.38877
2.38474
2.38083
2.37735
2.37558
2.42585
2.41959
2.41421
2.40914
2.40471
2.40072
2.39717
2.39377
2.39031
2.3867
2.38293
2.37939
2.37624
2.37481
2.42323
2.41703
2.41171
2.4067
2.40236
2.39848
2.39502
2.39174
2.38841
2.38498
2.38146
2.37828
2.37534
2.37402
2.42074
2.41459
2.40929
2.40433
2.40003
2.39619
2.39277
2.38958
2.38642
2.38325
2.37997
2.37701
2.37419
2.37262
2.41802
2.41198
2.4068
2.40194
2.39768
2.39388
2.39051
2.38742
2.38443
2.38149
2.37841
2.37557
2.37264
2.37028
2.41559
2.4097
2.40452
2.39975
2.3955
2.39175
2.3884
2.38528
2.38232
2.37945
2.37644
2.37345
2.37046
2.36731
2.41257
2.40679
2.40219
2.39774
2.39363
2.3899
2.3866
2.38348
2.38054
2.37771
2.37482
2.37193
2.36839
2.3642
2.45888
2.45517
2.45075
2.44658
2.44259
2.4388
2.43546
2.43238
2.42932
2.42603
2.42223
2.41773
2.41313
2.40728
2.45453
2.45082
2.44633
2.44204
2.43795
2.43401
2.4304
2.427
2.42371
2.42024
2.41638
2.41204
2.40769
2.4026
2.45083
2.4464
2.44188
2.43768
2.43367
2.42974
2.42606
2.4226
2.41923
2.41567
2.41177
2.40744
2.40297
2.39849
2.44737
2.44248
2.43787
2.43361
2.42955
2.4256
2.42192
2.41841
2.41496
2.41127
2.40728
2.40292
2.39839
2.39423
2.44404
2.43879
2.43401
2.4296
2.42547
2.42154
2.41794
2.41451
2.41112
2.40742
2.40333
2.39893
2.3945
2.39071
2.44076
2.43518
2.43019
2.42559
2.42138
2.41749
2.41401
2.41066
2.40733
2.40367
2.39959
2.39524
2.39092
2.38733
2.43728
2.43153
2.42645
2.42177
2.41751
2.4137
2.41033
2.40715
2.40392
2.40035
2.39632
2.39209
2.38801
2.38471
2.43384
2.428
2.4229
2.41812
2.414
2.41031
2.40709
2.40402
2.40085
2.39734
2.39342
2.38931
2.38547
2.38246
2.43044
2.42468
2.41976
2.41507
2.41107
2.40746
2.40429
2.40124
2.39809
2.39464
2.39086
2.38703
2.38334
2.38088
2.42714
2.42152
2.41678
2.41226
2.40845
2.40498
2.40192
2.39892
2.39579
2.39241
2.38871
2.38513
2.38154
2.37947
2.42395
2.41847
2.41387
2.40948
2.40583
2.40249
2.39951
2.39659
2.39355
2.39029
2.38671
2.38335
2.37989
2.37784
2.42065
2.41538
2.41091
2.40666
2.40311
2.39989
2.39703
2.39421
2.39132
2.3883
2.38488
2.38159
2.37796
2.37533
2.41755
2.41235
2.40793
2.40384
2.40041
2.3973
2.39449
2.39174
2.38892
2.38601
2.38265
2.37933
2.37562
2.37242
2.4136
2.409
2.40499
2.40128
2.39796
2.39499
2.39231
2.38966
2.38685
2.38391
2.38058
2.37725
2.37338
2.36875
2.46345
2.46056
2.45706
2.45355
2.44987
2.44622
2.44301
2.44023
2.43783
2.4353
2.43227
2.42835
2.42365
2.41739
2.46034
2.45716
2.45335
2.44953
2.44561
2.44177
2.43834
2.43537
2.43271
2.42993
2.4267
2.42289
2.41835
2.41302
2.45734
2.45343
2.44949
2.44557
2.44161
2.43776
2.4343
2.43128
2.42857
2.42575
2.42242
2.41852
2.41379
2.40896
2.45437
2.4499
2.4457
2.44159
2.43758
2.43375
2.43032
2.42725
2.42438
2.42136
2.41791
2.41394
2.40935
2.40467
2.451
2.44618
2.44174
2.43748
2.43347
2.42976
2.42647
2.42345
2.42055
2.41743
2.41388
2.40981
2.40536
2.40095
2.44717
2.44215
2.43758
2.43327
2.42933
2.42575
2.4226
2.41963
2.41669
2.41349
2.40987
2.40576
2.4014
2.39721
2.44304
2.438
2.43344
2.42918
2.42535
2.42192
2.41888
2.41598
2.41305
2.40985
2.40618
2.4021
2.39788
2.39397
2.43896
2.43397
2.42956
2.42543
2.42172
2.41837
2.41534
2.41253
2.4096
2.40641
2.40276
2.39878
2.39464
2.391
2.43501
2.43017
2.42598
2.42187
2.41834
2.41509
2.41221
2.40939
2.40643
2.40318
2.39949
2.39561
2.3917
2.38848
2.43118
2.42651
2.42256
2.41869
2.41539
2.41225
2.40942
2.40657
2.40355
2.40031
2.39665
2.39293
2.38895
2.38628
2.42743
2.42291
2.41916
2.41547
2.41238
2.40943
2.40673
2.40393
2.4009
2.39764
2.39395
2.39031
2.38643
2.384
2.42364
2.41927
2.41569
2.41219
2.40929
2.40651
2.40391
2.40123
2.39835
2.39525
2.39166
2.38812
2.38426
2.38148
2.41996
2.4156
2.41213
2.40883
2.40608
2.40345
2.40097
2.39845
2.39568
2.3927
2.38915
2.38559
2.38164
2.37833
2.4156
2.41183
2.40873
2.40577
2.40321
2.40082
2.39849
2.39607
2.39329
2.39034
2.38686
2.38333
2.37907
2.37454
2.44878
2.44675
2.44481
2.44248
2.43907
2.43443
2.42809
2.44412
2.44183
2.43956
2.43695
2.4336
2.42932
2.42405
2.44018
2.43784
2.43551
2.43283
2.4294
2.42499
2.42003
2.43623
2.43372
2.43114
2.42827
2.42478
2.42052
2.41569
2.43244
2.42983
2.42708
2.424
2.42036
2.41616
2.41157
2.4286
2.42583
2.4229
2.41963
2.41586
2.41168
2.40732
2.42482
2.422
2.41895
2.41557
2.41172
2.40755
2.40342
2.42107
2.4182
2.41512
2.41165
2.40781
2.40361
2.39969
2.43991
2.43614
2.43264
2.42917
2.42602
2.42301
2.42024
2.41747
2.41457
2.41143
2.40778
2.40409
2.39991
2.39643
2.43563
2.43198
2.42869
2.4254
2.42243
2.41952
2.4168
2.41405
2.41111
2.40798
2.40439
2.40071
2.39658
2.39353
2.43141
2.42784
2.42471
2.42158
2.41881
2.41606
2.41348
2.4108
2.40791
2.40477
2.40121
2.39751
2.39343
2.39083
2.42712
2.42357
2.4206
2.41768
2.41519
2.41264
2.4102
2.40772
2.40491
2.40182
2.3983
2.39472
2.3908
2.388
2.42285
2.41927
2.41648
2.41375
2.41141
2.40914
2.40699
2.40464
2.40192
2.3989
2.39542
2.39181
2.38781
2.38483
2.41784
2.415
2.41261
2.41037
2.40831
2.40617
2.40397
2.40166
2.39894
2.39599
2.39257
2.38922
2.3852
2.38095
2.43994
2.45561
2.46746
2.47734
2.48485
2.48953
2.42835
2.44072
2.45064
2.46186
2.47354
2.47623
2.4251
2.43735
2.44697
2.45703
2.46802
2.47248
2.41913
2.43027
2.43871
2.44796
2.46125
2.4728
2.41432
2.4238
2.43114
2.43905
2.45485
2.47818
2.40791
2.41576
2.42198
2.43004
2.44775
2.47901
2.40221
2.40888
2.41447
2.42271
2.44274
2.47569
2.39645
2.40262
2.40884
2.41772
2.44049
2.47334
2.39179
2.39769
2.40618
2.41505
2.441
2.46785
2.38813
2.39323
2.40405
2.4135
2.4384
2.45643
2.3868
2.39043
2.40245
2.41121
2.43272
2.44497
2.38597
2.38815
2.39762
2.40455
2.42222
2.42959
2.38903
2.38816
2.3933
2.39914
2.41366
2.41915
2.37712
2.3723
2.37708
2.38637
2.39998
2.4075
2.44336
2.45883
2.47343
2.48748
2.49607
2.50359
2.43415
2.44815
2.45992
2.47362
2.48509
2.49396
2.43161
2.44605
2.45886
2.47105
2.48139
2.49118
2.42609
2.43956
2.45179
2.46369
2.47567
2.4912
2.42203
2.43453
2.44586
2.4572
2.47083
2.49201
2.41667
2.4277
2.43789
2.44882
2.46483
2.48975
2.41166
2.42126
2.43046
2.44093
2.45862
2.48438
2.40637
2.41474
2.42367
2.43462
2.4536
2.48003
2.40119
2.40883
2.41867
2.43084
2.45116
2.47525
2.3967
2.40397
2.41531
2.42871
2.44926
2.46886
2.39393
2.40053
2.41362
2.42677
2.44542
2.45942
2.39255
2.39778
2.41071
2.42105
2.43474
2.44613
2.39429
2.39787
2.40707
2.41298
2.42319
2.43271
2.38531
2.38517
2.39084
2.39599
2.40588
2.4155
2.44916
2.46155
2.47717
2.49312
2.50457
2.51376
2.44311
2.4555
2.46967
2.4849
2.49839
2.50998
2.44037
2.45412
2.46929
2.48354
2.49542
2.50767
2.43509
2.4494
2.46398
2.47817
2.49074
2.50579
2.4308
2.44493
2.45889
2.47271
2.48637
2.50369
2.4261
2.43911
2.45185
2.4648
2.47976
2.49942
2.42142
2.43279
2.44405
2.45618
2.47142
2.49422
2.41645
2.42597
2.43586
2.4471
2.46313
2.4861
2.41114
2.41905
2.42812
2.43932
2.45609
2.47904
2.40576
2.41257
2.42187
2.43372
2.45218
2.47249
2.4015
2.40785
2.41853
2.43129
2.45005
2.46559
2.39875
2.40506
2.41691
2.4289
2.44488
2.45599
2.39919
2.40475
2.41689
2.42564
2.43664
2.4462
2.39251
2.39648
2.40638
2.41282
2.42163
2.43112
2.45498
2.46352
2.47353
2.48722
2.49993
2.51
2.4505
2.4602
2.47094
2.48457
2.4978
2.50899
2.44655
2.45776
2.47011
2.48449
2.49724
2.50841
2.44166
2.45389
2.46724
2.48212
2.49545
2.50846
2.43733
2.45008
2.46382
2.47856
2.49244
2.50738
2.43296
2.44526
2.45843
2.47226
2.48635
2.50204
2.42869
2.43995
2.45166
2.4638
2.47741
2.49425
2.42414
2.43399
2.44361
2.45393
2.46646
2.48383
2.41902
2.42725
2.43481
2.4437
2.45516
2.47374
2.41377
2.42053
2.42686
2.43493
2.44701
2.46526
2.40886
2.41425
2.42063
2.42953
2.44335
2.46001
2.40441
2.40895
2.41656
2.42663
2.44136
2.4544
2.40181
2.40539
2.41525
2.42564
2.43942
2.44902
2.39571
2.39896
2.40863
2.41802
2.42879
2.43622
2.45951
2.46617
2.4739
2.48318
2.49427
2.50522
2.45609
2.46402
2.47257
2.48265
2.49467
2.50628
2.45191
2.4613
2.47143
2.48304
2.49549
2.50703
2.44757
2.45801
2.46952
2.48239
2.49533
2.50751
2.44351
2.45464
2.46715
2.48112
2.49487
2.50793
2.43952
2.45064
2.46317
2.47703
2.49084
2.50492
2.43582
2.44627
2.4579
2.47056
2.48358
2.49787
2.432
2.44115
2.45095
2.46127
2.47247
2.48674
2.42763
2.43517
2.44275
2.45079
2.46039
2.47476
2.42274
2.42865
2.43408
2.44007
2.4483
2.46255
2.41738
2.42188
2.42607
2.43139
2.44001
2.45491
2.41207
2.41547
2.41936
2.42548
2.436
2.44998
2.40759
2.40972
2.41494
2.42348
2.43632
2.44826
2.40186
2.40238
2.40889
2.41801
2.43067
2.44053
2.46283
2.46761
2.47323
2.48014
2.4891
2.49896
2.46051
2.46667
2.47351
2.48144
2.49107
2.50131
2.45675
2.46433
2.47271
2.48207
2.49256
2.503
2.45311
2.46183
2.47163
2.48242
2.49402
2.50485
2.44937
2.45898
2.47005
2.48226
2.4948
2.50667
2.44568
2.45561
2.4672
2.48009
2.49322
2.50611
2.44231
2.45199
2.46322
2.47569
2.48839
2.50183
2.4391
2.44782
2.45753
2.46797
2.47873
2.49124
2.43566
2.44295
2.45047
2.45836
2.46718
2.47928
2.43163
2.43719
2.44233
2.44762
2.45508
2.46704
2.42684
2.43074
2.43421
2.43762
2.44301
2.45395
2.42156
2.42383
2.4254
2.42839
2.43442
2.44666
2.41641
2.41657
2.41849
2.42299
2.43183
2.44395
2.40949
2.40872
2.41113
2.41701
2.42685
2.43829
2.4659
2.46886
2.47261
2.47765
2.48423
2.49364
2.46484
2.46892
2.47356
2.47943
2.48742
2.49708
2.46197
2.46748
2.47366
2.48104
2.49003
2.49936
2.45907
2.46578
2.47354
2.48244
2.49242
2.50192
2.45575
2.46357
2.47281
2.48332
2.49454
2.50508
2.45234
2.46088
2.47116
2.48282
2.4949
2.5064
2.44924
2.45793
2.46859
2.48072
2.49346
2.50612
2.44637
2.45462
2.46449
2.47556
2.48718
2.49927
2.44368
2.45084
2.45884
2.46776
2.47716
2.48843
2.44051
2.44623
2.45193
2.45816
2.46494
2.47524
2.43658
2.44044
2.44388
2.44772
2.45244
2.46078
2.43175
2.4338
2.43495
2.4363
2.43925
2.44759
2.42681
2.4268
2.42661
2.4271
2.43211
2.44128
2.41887
2.41743