/*--------------------------------*- C++ -*----------------------------------*\
| =========                 |                                                 |
| \\      /  F ield         | OpenFOAM: The Open Source CFD Toolbox           |
|  \\    /   O peration     | Version:  v2106                                 |
|   \\  /    A nd           | Website:  www.openfoam.com                      |
|    \\/     M anipulation  |                                                 |
\*---------------------------------------------------------------------------*/
FoamFile
{
    version     2.0;
    format      ascii;
    arch        "LSB;label=32;scalar=64";
    class       volScalarField;
    location    "0.000186";
    object      Ttot;
}
// * * * * * * * * * * * * * * * * * * * * * * * * * * * * * * * * * * * * * //

dimensions      [0 0 0 1 0 0 0];

internalField   nonuniform List<scalar> 
18273
(
293.9
293.758
294.306
295.187
296.122
296.803
297.082
297.15
296.558
295.339
293.768
292.512
291.961
292.783
293.799
294.298
294.879
295.659
296.32
296.81
297.094
297.191
296.909
296.024
294.649
293.262
292.423
292.594
294.764
295.363
295.932
296.463
296.881
297.113
297.3
297.356
297.205
296.576
295.429
294.028
292.934
292.839
295.975
296.472
296.889
297.193
297.418
297.506
297.586
297.568
297.429
296.955
296.095
294.922
293.876
293.533
297.048
297.348
297.604
297.767
297.871
297.88
297.874
297.802
297.635
297.252
296.586
295.648
294.77
294.404
297.625
297.784
297.994
298.151
298.204
298.176
298.121
298.019
297.828
297.462
296.856
296.121
295.424
294.977
297.813
297.959
298.18
298.323
298.363
298.321
298.253
298.141
297.938
297.596
297.066
296.45
295.805
295.195
297.766
297.936
298.201
298.372
298.414
298.367
298.289
298.168
297.957
297.615
297.109
296.517
295.851
295.157
297.513
297.752
298.096
298.313
298.373
298.33
298.248
298.122
297.909
297.578
297.093
296.476
295.678
294.645
297.066
297.427
297.882
298.16
298.258
298.231
298.154
298.019
297.782
297.406
296.848
296.065
294.986
293.635
296.283
296.793
297.395
297.824
298.038
298.067
297.998
297.832
297.529
297.041
296.302
295.23
293.889
292.458
295.398
295.958
296.748
297.328
297.661
297.771
297.72
297.508
297.091
296.421
295.43
294.092
292.739
291.571
294.623
295.105
295.897
296.624
297.078
297.266
297.23
296.95
296.387
295.521
294.335
292.918
291.871
291.103
294.658
294.356
295.019
295.791
296.431
296.651
296.704
296.402
295.759
294.825
293.594
292.471
291.992
292.022
293.937
293.895
294.553
295.371
296.18
296.789
297.187
297.283
296.889
295.913
294.465
293.001
291.974
292.06
294.339
294.815
295.348
295.949
296.518
296.946
297.296
297.417
297.207
296.494
295.273
293.805
292.545
291.982
295.356
295.897
296.374
296.793
297.167
297.382
297.585
297.647
297.507
296.981
295.991
294.673
293.354
292.633
296.438
296.895
297.197
297.451
297.674
297.773
297.872
297.875
297.745
297.334
296.562
295.477
294.326
293.56
297.274
297.537
297.681
297.849
297.997
298.062
298.093
298.055
297.93
297.58
296.969
296.099
295.164
294.542
297.664
297.809
297.907
298.037
298.145
298.197
298.207
298.161
298.041
297.725
297.214
296.543
295.842
295.304
297.711
297.832
297.964
298.092
298.193
298.242
298.25
298.203
298.061
297.761
297.314
296.79
296.232
295.719
297.616
297.782
297.948
298.078
298.17
298.222
298.227
298.172
298.026
297.739
297.352
296.89
296.383
295.862
297.342
297.599
297.842
298.024
298.132
298.17
298.169
298.104
297.953
297.665
297.275
296.817
296.266
295.584
296.915
297.332
297.692
297.916
298.045
298.091
298.084
297.991
297.822
297.497
297.057
296.511
295.793
294.838
296.21
296.8
297.34
297.702
297.894
297.949
297.937
297.8
297.588
297.167
296.596
295.85
294.878
293.72
295.427
296.136
296.871
297.332
297.608
297.681
297.666
297.5
297.189
296.642
295.878
294.892
293.687
292.58
294.691
295.423
296.22
296.858
297.232
297.333
297.249
297.012
296.524
295.845
294.9
293.719
292.536
291.671
294.614
294.77
295.453
296.174
296.66
296.842
296.721
296.449
295.86
295.086
293.972
292.808
291.877
291.765
295.9
295.688
295.92
296.25
296.605
296.774
296.951
296.944
296.746
296.091
294.931
293.54
292.283
291.734
296.369
296.632
296.782
296.935
297.108
297.147
297.235
297.199
297.036
296.495
295.502
294.208
292.851
291.639
297.227
297.508
297.563
297.574
297.61
297.545
297.523
297.432
297.276
296.822
295.995
294.804
293.456
292.195
297.902
298.051
298.001
297.954
297.903
297.791
297.72
297.605
297.43
296.994
296.275
295.271
294.12
292.976
298.238
298.286
298.217
298.111
298
297.866
297.772
297.646
297.471
297.065
296.487
295.676
294.724
293.791
298.338
298.32
298.24
298.127
297.996
297.852
297.749
297.624
297.446
297.07
296.565
295.888
295.153
294.423
298.281
298.258
298.203
298.08
297.952
297.804
297.691
297.567
297.399
297.071
296.637
296.076
295.469
294.878
298.202
298.203
298.148
298.026
297.904
297.757
297.632
297.498
297.321
297.002
296.599
296.109
295.605
295.107
298.006
298.091
298.074
297.981
297.859
297.721
297.589
297.448
297.25
296.946
296.548
296.096
295.629
295.126
297.722
297.91
297.956
297.905
297.808
297.686
297.552
297.402
297.168
296.867
296.456
295.989
295.491
294.897
297.262
297.597
297.77
297.789
297.72
297.624
297.487
297.311
297.034
296.709
296.267
295.74
295.119
294.322
296.784
297.186
297.482
297.552
297.51
297.444
297.307
297.091
296.774
296.389
295.874
295.239
294.446
293.485
296.339
296.793
297.145
297.268
297.272
297.207
297.028
296.721
296.33
295.824
295.181
294.374
293.495
292.532
296.232
296.308
296.526
296.703
296.781
296.77
296.577
296.204
295.739
295.123
294.298
293.372
292.465
292.156
294.199
295.467
296.187
297.384
298.152
298.983
292.92
294.249
295.054
296.442
297.304
298.552
293.304
294.524
294.908
295.909
296.199
297.454
293.559
294.248
294.306
295.029
294.933
296.185
294.148
294.392
294.108
294.551
294.105
295.234
294.414
294.217
293.602
293.844
293.272
294.35
294.421
293.865
293.082
293.189
292.598
293.581
294.093
293.112
292.305
292.427
292.138
292.965
293.261
292.216
291.8
292.26
292.406
293.344
292.242
291.545
291.615
292.497
293.293
294.602
291.438
291.236
291.829
293.257
294.601
296.085
291.112
291.386
292.448
294.15
295.629
296.998
291.462
292.077
293.253
295.016
296.43
297.649
291.929
292.815
294.112
295.871
297.071
298.069
292.672
293.732
294.501
295.678
296.276
297.18
291.66
292.638
293.412
294.878
295.392
296.775
292.553
293.133
293.43
294.528
294.426
295.835
293.231
293.313
293.107
293.763
293.343
294.776
294.107
293.885
293.337
293.439
292.615
293.822
294.708
294.19
293.269
292.938
291.98
292.823
295.047
294.298
293.069
292.386
291.391
292.007
295.012
293.861
292.393
291.62
290.832
291.431
294.401
292.942
291.622
291.27
290.867
291.7
293.393
291.954
291.073
291.338
291.4
292.432
292.316
291.246
290.898
291.743
292.244
293.638
291.472
290.839
290.976
292.249
293.03
294.522
291.021
290.841
291.332
292.739
293.736
295.078
290.737
290.928
291.789
293.346
294.389
295.491
291.65
292.314
292.791
293.935
295.152
295.99
290.546
290.955
291.624
293.05
294.177
295.574
291.358
291.431
291.987
292.978
293.305
294.468
292.126
291.782
291.915
292.479
292.285
293.174
293.02
292.447
292.216
292.224
291.517
292
293.709
293.026
292.41
291.791
290.642
290.768
294.223
293.451
292.463
291.346
289.855
289.811
294.491
293.532
292.058
290.479
289.043
289.122
294.409
293.068
291.289
289.741
288.637
288.97
293.935
292.267
290.513
289.386
288.779
289.513
293.096
291.371
289.953
289.492
289.503
290.678
292.18
290.676
289.688
289.831
290.537
291.9
291.367
290.273
289.728
290.331
291.541
292.882
290.634
289.812
289.714
290.861
292.437
293.593
293.152
294.48
295.185
296.297
296.937
297.748
291.901
293.197
294.044
295.461
296.035
297.226
292.493
293.561
294.047
295.165
295.202
296.435
293.089
293.519
293.568
294.429
294.28
295.632
294.166
294.155
293.824
294.219
293.691
295.004
294.954
294.489
293.695
293.617
292.919
294.146
295.539
294.861
293.727
293.312
292.407
293.447
295.731
294.787
293.32
292.633
291.712
292.615
295.633
294.438
292.865
292.179
291.385
292.268
295.231
293.822
292.44
292.028
291.524
292.392
294.548
293.293
292.404
292.421
292.358
293.24
294.002
293.108
292.705
293.184
293.449
294.204
293.743
293.352
293.414
294.177
294.681
295.486
293.649
293.785
294.293
295.429
296.085
296.736
291.711
292.532
293.06
294.089
294.576
295.484
290.976
291.565
292.103
293.476
293.882
295.234
292.088
292.2
292.405
293.491
293.387
294.746
293.057
292.643
292.399
293.077
292.724
294.1
294.227
293.531
292.904
293.078
292.351
293.568
295.023
294.131
293.079
292.711
291.781
292.686
295.641
294.671
293.366
292.625
291.379
291.969
295.856
294.836
293.204
292.108
290.826
291.192
295.978
294.736
292.796
291.584
290.43
290.837
295.637
294.129
292.216
291.275
290.413
291.117
294.983
293.447
291.888
291.442
290.989
291.94
294.282
292.998
291.975
292.038
291.976
292.915
293.81
292.968
292.468
292.909
293.148
293.949
293.351
292.884
292.963
293.964
294.594
294.47
291.456
291.318
291.318
292.165
293.311
294.27
290.898
290.478
290.495
291.616
292.669
294.047
292.056
291.284
291.166
292.014
292.535
293.657
293.101
292.091
291.637
292.016
292.022
292.933
294.143
293.098
292.411
292.264
291.725
292.344
294.92
293.911
292.959
292.217
291.169
291.392
295.51
294.624
293.501
292.322
290.774
290.734
295.948
295.03
293.745
292.211
290.332
290.061
296.168
295.307
293.747
291.934
290.038
289.939
296.112
295.185
293.468
291.689
290.074
290.145
296.003
294.925
293.236
291.772
290.62
291.145
295.847
294.687
293.236
292.205
291.566
292.395
295.569
294.565
293.477
292.962
292.786
293.317
295.059
294.336
293.589
293.614
293.887
293.752
297.559
296.86
295.966
294.805
293.833
293.411
296.045
295.313
294.685
293.929
293.49
293.617
294.836
293.953
293.702
293.526
293.658
294.212
294.166
293.38
293.667
293.87
294.457
295.274
294.23
293.588
294.242
294.73
295.614
296.414
295.057
294.587
295.517
295.999
296.824
297.236
296.224
295.774
296.794
296.955
297.413
297.534
297.567
296.993
297.745
297.5
297.61
297.556
298.732
297.849
298.094
297.497
297.4
297.309
299.875
298.378
298.254
297.282
297.018
296.834
300.239
298.615
297.906
296.594
296.209
295.959
300.129
298.638
297.696
296.158
295.628
295.055
299.414
298.028
296.919
295.31
294.705
293.892
298.06
297.351
296.649
295.648
295.358
294.503
295.62
295.699
294.858
293.766
293.094
293.142
294.215
294.186
293.803
293.278
293.266
293.742
293.236
292.659
292.934
293.033
293.646
294.552
292.468
292.171
292.945
293.503
294.53
295.626
292.43
292.496
293.563
294.483
295.693
296.657
293.088
293.499
294.693
295.655
296.711
297.314
294.165
294.772
295.871
296.481
297.157
297.511
295.446
295.976
296.606
296.72
297.08
297.392
296.59
296.691
296.878
296.602
296.792
297.054
297.718
296.934
296.795
296.251
296.242
296.492
298.073
297.009
296.429
295.545
295.418
295.681
297.947
296.833
296.108
294.919
294.641
294.827
297.232
296.004
295.222
293.979
293.712
293.721
296.007
295.515
295.043
294.297
294.229
294.168
294.122
294.693
294.055
293.896
294.286
295.017
292.764
293.354
293.433
293.979
294.851
295.752
291.596
292.111
292.923
294.149
295.477
296.594
290.641
291.686
292.965
294.893
296.379
297.47
290.264
291.994
293.662
295.939
297.237
297.957
290.805
293.015
294.791
296.903
297.824
298.175
291.87
294.442
295.892
297.492
298.029
298.215
293.142
295.704
296.529
297.57
297.936
298.141
294.525
296.383
296.851
297.457
297.63
297.844
295.822
296.947
296.9
297.087
297.178
297.44
296.641
296.946
296.458
296.326
296.41
296.747
296.811
296.496
295.775
295.488
295.703
296.08
296.314
295.539
294.749
294.423
294.898
295.352
295.229
294.99
294.656
294.66
295.29
295.799
298.916
298.042
296.883
295.315
294.073
293.128
298.36
297.317
296.024
294.473
293.266
292.557
297.629
296.286
295.06
293.742
292.812
292.502
296.425
295.247
294.5
293.648
293.161
293.294
295.393
294.559
294.426
294.089
294.16
294.662
295.398
294.73
295.133
295.134
295.594
296.043
296.396
295.761
296.47
296.484
296.962
297
297.643
297.076
297.776
297.404
297.512
297.11
299.026
298.232
298.401
297.651
297.486
296.946
300.548
298.833
298.528
297.442
296.997
296.288
301.253
299.317
298.439
296.932
296.143
295.221
301.162
299.564
298.45
296.685
295.624
294.329
300.467
299.059
297.733
295.879
294.669
293.326
299.086
298.294
297.328
296.047
295.4
294.367
297.1
296.114
295.001
293.375
292.212
291.675
296.687
295.451
294.327
292.788
291.962
291.794
295.806
294.447
293.558
292.444
292.127
292.423
294.592
293.502
293.222
292.702
292.893
293.621
293.6
293.003
293.332
293.433
294.131
295.108
293.755
293.682
294.357
294.753
295.559
296.374
294.449
294.95
295.792
296.137
296.651
297.113
295.615
296.331
297.09
296.896
296.982
297.136
296.991
297.441
297.679
296.983
296.856
296.8
298.414
298.191
297.852
296.685
296.26
296.159
299.755
298.01
297.545
296.068
295.35
295.175
299.619
298.173
297.396
295.703
294.651
294.21
298.878
297.606
296.555
294.811
293.737
293.092
297.533
296.942
296.217
295.091
294.524
293.888
295.374
294.407
292.745
291.305
290.674
290.916
294.693
293.469
292.21
291.304
291.222
291.733
293.326
292.354
291.806
291.564
291.926
292.777
292.014
291.749
291.853
292.32
293.042
294.112
291.176
291.877
292.398
293.57
294.404
295.463
291.38
292.766
293.671
295.115
295.698
296.436
292.316
294.193
295.114
296.33
296.552
296.83
293.772
295.835
296.237
296.924
296.893
296.89
295.416
296.964
296.841
296.947
296.763
296.648
297.429
297.59
297.054
296.696
296.452
296.361
298.499
297.996
296.89
296.096
295.785
295.812
298.576
298.061
296.687
295.592
295.235
295.314
297.798
297.213
295.741
294.638
294.564
294.701
296.285
296.217
295.433
295.078
295.38
295.476
297.65
297.564
297.524
297.386
297.358
297.222
297.127
297.002
296.883
296.578
295.961
294.969
293.839
293.177
297.917
298.061
297.996
297.849
297.72
297.524
297.365
297.189
297.024
296.737
296.269
295.518
294.446
293.135
298.203
298.312
298.225
298.072
297.899
297.695
297.52
297.344
297.189
296.932
296.544
295.906
294.881
293.57
298.3
298.338
298.249
298.094
297.914
297.716
297.549
297.391
297.248
297.02
296.677
296.1
295.205
294.027
298.272
298.266
298.176
298.007
297.82
297.628
297.483
297.363
297.252
297.059
296.744
296.217
295.471
294.492
298.212
298.173
298.064
297.867
297.671
297.483
297.356
297.262
297.175
297.02
296.726
296.242
295.561
294.702
298.133
298.068
297.949
297.731
297.526
297.338
297.22
297.138
297.065
296.928
296.646
296.206
295.597
294.863
298.063
297.994
297.867
297.641
297.43
297.243
297.121
297.028
296.94
296.793
296.502
296.081
295.504
294.844
297.962
297.916
297.804
297.593
297.385
297.203
297.074
296.96
296.84
296.668
296.357
295.951
295.403
294.771
297.828
297.833
297.743
297.564
297.367
297.193
297.055
296.923
296.765
296.557
296.212
295.8
295.254
294.614
297.625
297.715
297.661
297.528
297.334
297.173
297.03
296.88
296.691
296.449
296.085
295.654
295.066
294.335
297.406
297.555
297.522
297.433
297.26
297.115
296.962
296.792
296.57
296.285
295.898
295.397
294.732
293.858
297.172
297.339
297.315
297.239
297.098
296.964
296.794
296.589
296.322
295.99
295.564
294.986
294.287
293.293
296.849
296.897
296.874
296.829
296.738
296.627
296.445
296.215
295.883
295.489
294.964
294.347
293.668
293.099
298.393
298.312
298.193
297.97
297.816
297.597
297.41
297.25
297.109
296.923
296.629
296.018
295.183
294.424
298.504
298.52
298.412
298.202
297.997
297.761
297.541
297.332
297.167
296.984
296.777
296.358
295.626
294.505
298.473
298.475
298.37
298.18
297.989
297.783
297.58
297.382
297.225
297.072
296.909
296.549
295.853
294.769
298.398
298.354
298.25
298.076
297.889
297.686
297.497
297.321
297.191
297.068
296.922
296.594
295.941
294.941
298.304
298.22
298.097
297.901
297.708
297.512
297.347
297.21
297.123
297.035
296.911
296.594
295.982
295.088
298.218
298.101
297.944
297.714
297.501
297.304
297.158
297.053
296.998
296.939
296.827
296.511
295.928
295.103
298.139
298.005
297.823
297.563
297.33
297.129
296.993
296.905
296.865
296.814
296.696
296.378
295.829
295.079
298.066
297.939
297.742
297.469
297.223
297.02
296.885
296.795
296.743
296.676
296.528
296.195
295.669
294.984
297.977
297.884
297.69
297.422
297.176
296.977
296.838
296.736
296.661
296.563
296.377
296.032
295.527
294.898
297.87
297.817
297.641
297.398
297.16
296.968
296.827
296.715
296.617
296.493
296.269
295.909
295.394
294.78
297.732
297.724
297.579
297.375
297.154
296.98
296.841
296.721
296.6
296.454
296.181
295.818
295.263
294.618
297.556
297.585
297.472
297.307
297.112
296.957
296.823
296.698
296.556
296.371
296.078
295.676
295.076
294.319
297.355
297.389
297.292
297.161
296.999
296.865
296.732
296.59
296.408
296.173
295.853
295.413
294.761
293.842
297.065
297.066
296.987
296.881
296.761
296.642
296.502
296.338
296.099
295.794
295.39
294.89
294.28
293.572
298.862
298.778
298.649
298.468
298.271
298.022
297.767
297.522
297.326
297.143
296.971
296.669
296.21
295.634
298.798
298.727
298.614
298.44
298.245
298.018
297.778
297.529
297.313
297.119
296.98
296.802
296.424
295.655
298.646
298.557
298.439
298.272
298.096
297.903
297.705
297.495
297.311
297.148
297.023
296.858
296.478
295.704
298.489
298.373
298.235
298.053
297.875
297.695
297.523
297.353
297.213
297.095
296.998
296.84
296.462
295.698
298.359
298.212
298.041
297.827
297.634
297.452
297.297
297.164
297.066
296.994
296.93
296.785
296.412
295.697
298.262
298.083
297.875
297.628
297.413
297.223
297.075
296.965
296.893
296.852
296.806
296.665
296.283
295.61
298.185
297.981
297.743
297.468
297.235
297.039
296.896
296.8
296.742
296.713
296.668
296.518
296.123
295.495
298.112
297.9
297.64
297.351
297.107
296.908
296.767
296.675
296.618
296.584
296.517
296.337
295.924
295.339
298.033
297.828
297.56
297.276
297.036
296.84
296.7
296.606
296.538
296.486
296.388
296.168
295.739
295.193
297.933
297.751
297.493
297.231
297.002
296.816
296.675
296.575
296.493
296.417
296.284
296.033
295.584
295.052
297.813
297.666
297.434
297.2
296.987
296.814
296.676
296.569
296.473
296.374
296.205
295.928
295.465
294.913
297.641
297.534
297.341
297.152
296.969
296.824
296.696
296.583
296.467
296.334
296.12
295.813
295.343
294.725
297.44
297.365
297.206
297.058
296.908
296.784
296.662
296.542
296.401
296.228
295.976
295.641
295.139
294.421
297.188
297.072
296.954
296.853
296.747
296.645
296.53
296.4
296.218
295.981
295.676
295.303
294.815
294.163
299.072
298.951
298.837
298.689
298.521
298.307
298.065
297.798
297.543
297.31
297.131
296.953
296.733
296.348
298.9
298.799
298.673
298.526
298.376
298.199
297.996
297.751
297.507
297.276
297.096
296.95
296.756
296.316
298.7
298.568
298.429
298.273
298.13
297.975
297.809
297.614
297.414
297.219
297.064
296.931
296.735
296.284
298.534
298.381
298.21
298.025
297.862
297.702
297.551
297.392
297.237
297.093
296.984
296.871
296.678
296.23
298.408
298.222
298.016
297.796
297.61
297.44
297.294
297.158
297.04
296.936
296.868
296.784
296.602
296.163
298.315
298.093
297.848
297.6
297.395
297.213
297.066
296.941
296.845
296.768
296.723
296.658
296.472
296.03
298.234
297.978
297.708
297.439
297.22
297.033
296.886
296.769
296.688
296.628
296.595
296.536
296.327
295.885
298.149
297.877
297.587
297.305
297.077
296.888
296.744
296.634
296.563
296.511
296.473
296.396
296.148
295.701
298.051
297.776
297.482
297.203
296.972
296.785
296.643
296.538
296.471
296.421
296.366
296.251
295.952
295.506
297.929
297.673
297.394
297.134
296.913
296.732
296.591
296.486
296.411
296.349
296.264
296.108
295.768
295.33
297.792
297.568
297.318
297.089
296.886
296.716
296.576
296.465
296.373
296.289
296.169
295.983
295.627
295.194
297.62
297.436
297.235
297.049
296.876
296.729
296.595
296.477
296.362
296.248
296.088
295.87
295.508
295.055
297.448
297.302
297.136
296.992
296.852
296.727
296.601
296.481
296.348
296.2
295.997
295.735
295.382
294.859
297.203
297.039
296.92
296.825
296.729
296.633
296.53
296.423
296.279
296.1
295.847
295.551
295.15
294.606
299.173
299.074
298.967
298.847
298.712
298.548
298.355
298.111
297.848
297.586
297.364
297.186
297.036
296.773
298.957
298.863
298.734
298.601
298.476
298.337
298.178
297.975
297.749
297.507
297.294
297.125
296.986
296.716
298.758
298.617
298.461
298.312
298.185
298.057
297.923
297.759
297.579
297.377
297.198
297.051
296.929
296.665
298.608
298.436
298.246
298.063
297.91
297.768
297.637
297.492
297.343
297.186
297.06
296.95
296.848
296.594
298.495
298.28
298.055
297.84
297.662
297.505
297.371
297.236
297.11
296.988
296.904
296.834
296.754
296.519
298.406
298.15
297.889
297.648
297.453
297.284
297.142
297.008
296.896
296.799
296.738
296.695
296.622
296.39
298.303
298.009
297.724
297.47
297.271
297.099
296.959
296.831
296.729
296.65
296.604
296.572
296.487
296.244
298.186
297.877
297.582
297.322
297.118
296.945
296.806
296.686
296.596
296.53
296.489
296.45
296.327
296.054
298.055
297.745
297.454
297.198
296.992
296.819
296.681
296.569
296.488
296.432
296.387
296.327
296.147
295.838
297.913
297.62
297.349
297.107
296.904
296.731
296.593
296.485
296.405
296.35
296.291
296.197
295.954
295.611
297.77
297.506
297.263
297.045
296.855
296.69
296.551
296.439
296.349
296.279
296.189
296.061
295.776
295.416
297.603
297.386
297.186
297.001
296.836
296.69
296.556
296.442
296.335
296.235
296.098
295.925
295.622
295.243
297.438
297.266
297.1
296.955
296.824
296.7
296.573
296.458
296.331
296.2
296.019
295.791
295.489
295.098
297.181
297.025
296.918
296.828
296.741
296.653
296.558
296.457
296.325
296.175
295.961
295.691
295.339
294.896
299.196
299.116
299.025
298.93
298.823
298.693
298.547
298.361
298.15
297.903
297.667
297.462
297.312
297.089
299.001
298.915
298.791
298.668
298.552
298.431
298.306
298.149
297.975
297.763
297.549
297.359
297.221
297.021
298.852
298.707
298.549
298.399
298.267
298.143
298.028
297.897
297.757
297.585
297.409
297.251
297.13
296.97
298.736
298.549
298.354
298.17
298.012
297.872
297.75
297.623
297.495
297.351
297.22
297.107
297.018
296.892
298.638
298.408
298.18
297.969
297.794
297.64
297.508
297.378
297.256
297.132
297.034
296.961
296.908
296.812
298.54
298.266
298.009
297.783
297.6
297.44
297.301
297.166
297.043
296.933
296.856
296.807
296.77
296.676
298.408
298.11
297.838
297.609
297.424
297.264
297.126
296.994
296.876
296.778
296.712
296.675
296.642
296.531
298.253
297.945
297.67
297.439
297.261
297.106
296.973
296.848
296.741
296.654
296.594
296.553
296.498
296.342
298.089
297.785
297.524
297.3
297.124
296.966
296.833
296.715
296.619
296.543
296.487
296.437
296.331
296.127
297.93
297.644
297.404
297.192
297.016
296.854
296.72
296.608
296.518
296.45
296.385
296.316
296.139
295.887
297.785
297.527
297.312
297.113
296.944
296.785
296.651
296.537
296.439
296.362
296.275
296.177
295.947
295.661
297.623
297.415
297.235
297.059
296.907
296.764
296.636
296.522
296.41
296.312
296.184
296.036
295.762
295.446
297.452
297.283
297.137
296.998
296.882
296.767
296.653
296.541
296.413
296.285
296.108
295.901
295.6
295.271
297.19
297.075
296.98
296.897
296.826
296.76
296.672
296.571
296.434
296.287
296.072
295.808
295.473
295.079
299.254
299.201
299.132
299.055
298.958
298.841
298.717
298.571
298.42
298.224
298.011
297.804
297.627
297.411
299.117
299.039
298.925
298.807
298.687
298.564
298.449
298.324
298.197
298.035
297.851
297.665
297.493
297.32
299.015
298.872
298.721
298.567
298.425
298.294
298.179
298.067
297.96
297.829
297.678
297.524
297.38
297.258
298.929
298.736
298.545
298.36
298.196
298.052
297.928
297.811
297.7
297.577
297.456
297.34
297.241
297.153
298.83
298.597
298.376
298.172
297.999
297.85
297.72
297.594
297.476
297.356
297.255
297.171
297.112
297.048
298.701
298.437
298.198
297.991
297.822
297.673
297.541
297.407
297.281
297.163
297.072
297.006
296.965
296.907
298.532
298.255
298.013
297.813
297.654
297.511
297.38
297.245
297.118
297.005
296.921
296.866
296.831
296.767
298.347
298.07
297.836
297.646
297.493
297.353
297.222
297.094
296.974
296.872
296.795
296.743
296.69
296.596
298.162
297.894
297.675
297.486
297.336
297.195
297.071
296.949
296.839
296.746
296.669
296.612
296.534
296.401
297.987
297.737
297.539
297.358
297.208
297.059
296.931
296.813
296.711
296.629
296.552
296.488
296.351
296.172
297.83
297.604
297.428
297.255
297.107
296.956
296.825
296.709
296.604
296.521
296.428
296.337
296.146
295.932
297.664
297.479
297.335
297.18
297.046
296.907
296.781
296.665
296.548
296.448
296.325
296.194
295.957
295.702
297.483
297.33
297.222
297.102
297.001
296.894
296.783
296.67
296.538
296.41
296.239
296.047
295.769
295.489
297.235
297.127
297.073
297.008
296.952
296.895
296.801
296.698
296.564
296.425
296.216
295.966
295.637
295.289
298.79
298.68
298.538
298.367
298.172
297.979
297.755
298.525
298.427
298.305
298.16
297.993
297.824
297.655
298.272
298.184
298.082
297.965
297.825
297.686
297.566
298.031
297.934
297.83
297.726
297.616
297.516
297.428
297.833
297.721
297.609
297.509
297.419
297.351
297.293
297.657
297.531
297.41
297.309
297.228
297.175
297.132
297.497
297.365
297.24
297.142
297.068
297.021
296.979
297.338
297.209
297.09
296.994
296.923
296.863
296.802
298.253
298.03
297.85
297.694
297.561
297.429
297.306
297.178
297.056
296.944
296.846
296.782
296.702
296.62
298.07
297.862
297.697
297.541
297.404
297.266
297.142
297.022
296.909
296.81
296.716
296.646
296.53
296.407
297.908
297.715
297.564
297.409
297.272
297.129
297.002
296.887
296.78
296.69
296.591
296.499
296.331
296.178
297.734
297.571
297.448
297.307
297.182
297.047
296.918
296.808
296.693
296.597
296.48
296.36
296.15
295.948
297.544
297.402
297.315
297.206
297.11
297.01
296.9
296.792
296.664
296.546
296.392
296.216
295.957
295.729
297.285
297.19
297.162
297.112
297.062
297.003
296.909
296.813
296.679
296.542
296.351
296.132
295.831
295.524
297.427
296.998
296.294
296.158
297.02
298.769
296.723
296.186
295.54
295.937
297.857
300.392
296.811
296.46
296.126
296.851
298.912
301.138
296.839
296.647
296.592
297.436
299.252
300.635
297.006
296.949
297.117
297.881
299.09
299.431
296.972
296.984
297.218
297.792
298.329
297.671
296.941
296.928
297.087
297.286
297.227
295.772
296.835
296.728
296.63
296.246
295.533
293.744
296.682
296.353
295.827
294.686
293.707
292.014
296.205
295.471
294.576
293.074
292.3
290.884
295.344
294.231
293.182
291.902
291.78
291.047
294.21
292.995
292.033
291.272
291.825
291.828
293.035
291.956
291.272
291.13
292.274
293.434
291.939
290.888
290.607
291.28
292.977
294.948
298.292
297.872
296.965
296.214
295.876
296.799
297.795
297.201
296.286
295.811
296.26
298.073
297.728
297.19
296.576
296.415
297.225
299.208
297.571
297.136
296.764
296.861
297.794
299.44
297.515
297.224
297.048
297.264
298.018
298.96
297.356
297.163
297.112
297.317
297.759
297.829
297.226
297.094
297.073
297.091
297.059
295.973
297.092
296.976
296.878
296.564
295.746
293.903
296.95
296.759
296.456
295.601
294.115
292.082
296.697
296.3
295.634
294.242
292.537
290.924
296.264
295.476
294.473
292.805
291.416
290.48
295.463
294.307
293.103
291.602
290.877
290.775
294.327
293.016
291.828
290.778
290.764
291.607
293.176
291.749
290.776
290.298
290.965
292.476
298.862
298.644
298.033
297.186
296.393
296.117
298.59
298.271
297.606
296.939
296.517
296.894
298.52
298.171
297.624
297.209
297.073
297.784
298.322
298.021
297.612
297.408
297.53
298.396
298.124
297.885
297.637
297.589
297.843
298.675
297.873
297.686
297.542
297.564
297.813
298.362
297.625
297.486
297.401
297.391
297.495
297.393
297.393
297.286
297.195
297.062
296.803
295.756
297.212
297.098
296.923
296.522
295.692
294.032
297.017
296.827
296.473
295.657
294.356
292.554
296.802
296.395
295.771
294.517
292.995
291.513
296.379
295.653
294.75
293.242
291.909
290.954
295.677
294.618
293.44
292.007
291.09
290.741
294.793
293.492
292.19
291.037
290.552
290.752
299.174
299.114
298.689
297.925
297.03
296.426
299.037
298.953
298.515
297.811
297.11
296.666
298.942
298.838
298.423
297.858
297.356
297.169
298.762
298.658
298.303
297.925
297.633
297.757
298.546
298.44
298.166
297.951
297.861
298.245
298.276
298.158
297.961
297.846
297.883
298.326
297.992
297.876
297.745
297.688
297.742
297.983
297.707
297.603
297.508
297.44
297.39
297.071
297.463
297.394
297.286
297.139
296.735
295.807
297.253
297.202
297.034
296.656
295.765
294.344
297.082
296.949
296.629
295.901
294.563
292.973
296.86
296.52
295.937
294.812
293.292
291.843
296.52
295.875
294.95
293.506
292.097
291.04
295.922
295.035
293.766
292.219
290.942
290.219
299.318
299.36
299.22
298.769
297.95
297.181
299.259
299.304
299.125
298.635
297.849
297.194
299.18
299.235
299.033
298.568
297.952
297.506
299.048
299.096
298.896
298.539
298.157
297.943
298.876
298.904
298.718
298.485
298.306
298.343
298.648
298.634
298.466
298.333
298.315
298.552
298.392
298.336
298.208
298.163
298.239
298.532
298.109
298.017
297.919
297.913
297.974
298.047
297.835
297.75
297.674
297.668
297.593
297.217
297.57
297.519
297.446
297.366
296.975
296.027
297.348
297.309
297.195
296.915
296.044
294.676
297.169
297.069
296.786
296.108
294.811
293.233
296.984
296.719
296.124
295.011
293.469
292.011
296.625
296.097
295.174
293.739
292.184
290.994
299.33
299.427
299.416
299.244
298.706
297.911
299.336
299.464
299.445
299.211
298.609
297.819
299.278
299.432
299.4
299.146
298.56
297.887
299.192
299.358
299.318
299.075
298.611
298.164
299.068
299.223
299.173
298.968
298.692
298.476
298.9
299.007
298.935
298.779
298.662
298.657
298.696
298.745
298.664
298.563
298.557
298.712
298.451
298.437
298.339
298.272
298.294
298.445
298.202
298.153
298.054
298.022
297.99
297.973
297.934
297.885
297.799
297.754
297.648
297.316
297.681
297.651
297.585
297.486
297.071
296.129
297.466
297.429
297.281
296.971
296.066
294.698
297.3
297.167
296.87
296.19
294.871
293.316
297.043
296.746
296.151
295.091
293.489
292.012
299.342
299.441
299.47
299.414
299.059
298.437
299.403
299.524
299.556
299.449
299.037
298.354
299.376
299.54
299.58
299.445
298.997
298.324
299.329
299.527
299.559
299.406
299.008
298.475
299.233
299.444
299.46
299.317
299.031
298.694
299.096
299.286
299.277
299.155
298.986
298.827
298.933
299.071
299.051
298.966
298.913
298.935
298.732
298.803
298.764
298.706
298.72
298.822
298.532
298.547
298.489
298.466
298.475
298.564
298.295
298.295
298.231
298.228
298.164
298.129
298.049
298.047
297.992
297.973
297.82
297.422
297.82
297.813
297.727
297.599
297.146
296.237
297.658
297.595
297.417
297.063
296.246
294.913
297.401