/*--------------------------------*- C++ -*----------------------------------*\
| =========                 |                                                 |
| \\      /  F ield         | OpenFOAM: The Open Source CFD Toolbox           |
|  \\    /   O peration     | Version:  v2106                                 |
|   \\  /    A nd           | Website:  www.openfoam.com                      |
|    \\/     M anipulation  |                                                 |
\*---------------------------------------------------------------------------*/
FoamFile
{
    version     2.0;
    format      ascii;
    arch        "LSB;label=32;scalar=64";
    class       volVectorField;
    location    "0.000171";
    object      U;
}
// * * * * * * * * * * * * * * * * * * * * * * * * * * * * * * * * * * * * * //

dimensions      [0 1 -1 0 0 0 0];

internalField   nonuniform List<vector> 
17927
(
(0.0189429 0.0189361 -0.988504)
(0.0159902 0.0187743 -0.987758)
(0.013303 0.0195926 -0.986713)
(0.010406 0.0198181 -0.98591)
(0.00750342 0.0201126 -0.985258)
(0.00453661 0.0202795 -0.98487)
(0.00151094 0.0203007 -0.9848)
(0.0187823 0.0159839 -0.987758)
(0.0161033 0.0160969 -0.987149)
(0.0135742 0.0168034 -0.986021)
(0.0107951 0.0171464 -0.985066)
(0.00788872 0.0174846 -0.98422)
(0.00482093 0.017754 -0.983658)
(0.00160693 0.0178473 -0.983527)
(0.0195992 0.013296 -0.986713)
(0.0168094 0.0135676 -0.98602)
(0.0142254 0.0142183 -0.984663)
(0.011293 0.0145647 -0.983763)
(0.00823129 0.0148498 -0.982991)
(0.00501363 0.0151028 -0.982524)
(0.00166257 0.0152094 -0.982453)
(0.0198231 0.0103968 -0.985913)
(0.0171516 0.010786 -0.985065)
(0.0145718 0.0112827 -0.983763)
(0.0116718 0.0116611 -0.982897)
(0.00856279 0.0119202 -0.982184)
(0.00525095 0.0121839 -0.981682)
(0.00174104 0.0123059 -0.981593)
(0.0201176 0.00749181 -0.985261)
(0.0174898 0.00787683 -0.98422)
(0.0148563 0.00821793 -0.982991)
(0.0119302 0.00854855 -0.982184)
(0.00876351 0.00874965 -0.981594)
(0.00538608 0.00897142 -0.981131)
(0.00178456 0.00908097 -0.981061)
(0.0202824 0.00452314 -0.984873)
(0.0177571 0.00480687 -0.983657)
(0.0151074 0.00499856 -0.982523)
(0.0121923 0.00523459 -0.981681)
(0.00898434 0.00536927 -0.981131)
(0.00553785 0.00552065 -0.980685)
(0.00183891 0.00559743 -0.980623)
(0.0203057 0.00149624 -0.984806)
(0.0178508 0.00159165 -0.98353)
(0.0152129 0.00164672 -0.982454)
(0.0123121 0.00172447 -0.981594)
(0.00909203 0.00176858 -0.981062)
(0.00561392 0.00182007 -0.980624)
(0.00186567 0.00184586 -0.980565)
(0.0203073 -0.00151249 -0.98481)
(0.0178499 -0.00160559 -0.983532)
(0.0152118 -0.00165912 -0.982455)
(0.0123113 -0.00173428 -0.981593)
(0.00909219 -0.00177498 -0.981059)
(0.00561472 -0.00182349 -0.98062)
(0.00186779 -0.00184529 -0.980561)
(0.0202843 -0.0045361 -0.984881)
(0.0177599 -0.0048186 -0.983665)
(0.0151119 -0.00501024 -0.982529)
(0.0121977 -0.0052444 -0.981684)
(0.00899063 -0.00537653 -0.981131)
(0.00554422 -0.00552571 -0.980684)
(0.00184743 -0.00559887 -0.98062)
(0.0232673 0.0232569 -1.00469)
(0.0196994 0.0231231 -1.00383)
(0.016446 0.0241653 -1.00254)
(0.0128915 0.0245217 -1.0016)
(0.00932167 0.02499 -1.0008)
(0.00563723 0.0252598 -1.00036)
(0.00187641 0.0253184 -1.00029)
(-0.00188472 0.0253192 -1.0003)
(-0.00564834 0.0252602 -1.00037)
(-0.00933565 0.024991 -1.00082)
(-0.0129064 0.0245207 -1.00163)
(-0.0164638 0.0241628 -1.00257)
(-0.0197143 0.0231158 -1.00386)
(-0.0232782 0.023244 -1.00472)
(0.0231334 0.0196889 -1.00384)
(0.0198658 0.0198558 -1.00312)
(0.0167927 0.0208012 -1.00179)
(0.0133887 0.0213145 -1.0007)
(0.00982502 0.0218374 -0.999702)
(0.00602345 0.0222407 -0.999065)
(0.00201811 0.0223913 -0.998937)
(-0.0020225 0.0223929 -0.998942)
(-0.00603277 0.0222456 -0.999077)
(-0.009839 0.0218437 -0.999721)
(-0.0134059 0.0213202 -1.00073)
(-0.0168123 0.0208049 -1.00182)
(-0.0198839 0.0198556 -1.00315)
(-0.0231484 0.0196855 -1.00387)
(0.024176 0.0164347 -1.00255)
(0.0208115 0.0167828 -1.0018)
(0.017679 0.0176686 -1.00023)
(0.0140917 0.018187 -0.999237)
(0.01031 0.0186372 -0.998356)
(0.00629738 0.019032 -0.997881)
(0.00210749 0.0192005 -0.997864)
(-0.00210782 0.0192038 -0.99787)
(-0.00630301 0.0190417 -0.997892)
(-0.0103229 0.0186506 -0.998374)
(-0.0141101 0.0182023 -0.999261)
(-0.0177033 0.0176838 -1.00025)
(-0.0208351 0.0167931 -1.00183)
(-0.0241989 0.0164436 -1.00258)
(0.024532 0.0128786 -1.00161)
(0.0213249 0.0133773 -1.00071)
(0.0181975 0.0140803 -0.999239)
(0.014651 0.0146397 -0.99834)
(0.0107929 0.015036 -0.997597)
(0.00663916 0.0154308 -0.997113)
(0.00223291 0.0156083 -0.997095)
(-0.00222458 0.0156135 -0.9971)
(-0.00663799 0.0154448 -0.997124)
(-0.0108003 0.0150555 -0.997615)
(-0.0146682 0.014662 -0.998363)
(-0.0182231 0.0141028 -0.999267)
(-0.0213541 0.0133967 -1.00074)
(-0.0245614 0.0128942 -1.00164)
(0.0250023 0.00930766 -1.00081)
(0.0218492 0.00981222 -0.999707)
(0.0186479 0.0102971 -0.998359)
(0.015047 0.01078 -0.997598)
(0.0110983 0.0110859 -0.997069)
(0.00683807 0.0114207 -0.99667)
(0.00230794 0.0115762 -0.996696)
(-0.00228992 0.0115825 -0.996701)
(-0.00682834 0.011437 -0.99668)
(-0.0111003 0.0111091 -0.997086)
(-0.0150626 0.0108074 -0.99762)
(-0.0186739 0.0103263 -0.998386)
(-0.0218826 0.00983889 -0.999738)
(-0.0250381 0.00933055 -1.00084)
(0.0252718 0.00562312 -1.00037)
(0.0222525 0.00600994 -0.999071)
(0.0190426 0.00628344 -0.997886)
(0.0154418 0.00662493 -0.997116)
(0.0114333 0.00682385 -0.996672)
(0.00706494 0.00704993 -0.996301)
(0.00239701 0.00715353 -0.996352)
(-0.00236686 0.00715938 -0.996358)
(-0.00704457 0.00706499 -0.996312)
(-0.0114283 0.00684596 -0.996689)
(-0.015454 0.00665176 -0.99714)
(-0.0190683 0.00631184 -0.997915)
(-0.0222888 0.00603726 -0.999103)
(-0.0253122 0.0056474 -1.0004)
(0.0253314 0.0018618 -1.00031)
(0.0224033 0.00200356 -0.998943)
(0.0192099 0.00209341 -0.99787)
(0.015617 0.00221877 -0.997098)
(0.0115867 0.00229303 -0.996699)
(0.00716727 0.00237881 -0.996353)
(0.00243662 0.00241875 -0.996439)
(-0.00240118 0.00242267 -0.996444)
(-0.00714221 0.0023891 -0.996361)
(-0.0115787 0.00230879 -0.996713)
(-0.0156274 0.00223836 -0.997119)
(-0.0192346 0.00211492 -0.997897)
(-0.0224398 0.00202443 -0.998975)
(-0.0253745 0.00188124 -1.00034)
(0.0253352 -0.00189399 -1.00031)
(0.0224051 -0.002033 -0.998948)
(0.0192119 -0.0021187 -0.997872)
(0.0156194 -0.00223841 -0.997101)
(0.0115898 -0.00230675 -0.9967)
(0.00717064 -0.00238613 -0.996354)
(0.00243947 -0.00242177 -0.996439)
(-0.00239898 -0.00242058 -0.996443)
(-0.0071407 -0.00238286 -0.996362)
(-0.0115783 -0.0023015 -0.996714)
(-0.0156278 -0.00223041 -0.997122)
(-0.0192359 -0.00210757 -0.9979)
(-0.022441 -0.00201948 -0.99898)
(-0.0253758 -0.00187909 -1.00034)
(0.025274 -0.00565223 -1.00037)
(0.022257 -0.00603778 -0.99908)
(0.0190497 -0.00630936 -0.997895)
(0.0154504 -0.00664688 -0.997126)
(0.011443 -0.00684142 -0.996681)
(0.00707433 -0.00706244 -0.996309)
(0.00240478 -0.00716274 -0.996358)
(-0.00236184 -0.00716435 -0.996363)
(-0.00704111 -0.00706601 -0.996319)
(-0.0114279 -0.00684583 -0.996697)
(-0.0154559 -0.0066506 -0.99715)
(-0.0190722 -0.00631185 -0.997926)
(-0.0222944 -0.00603932 -0.999116)
(-0.0253196 -0.00565166 -1.00041)
(0.0250048 -0.00933533 -1.00082)
(0.0218553 -0.00983976 -0.999723)
(0.0186582 -0.0103243 -0.998376)
(0.0150593 -0.0108044 -0.997616)
(0.011112 -0.0111085 -0.997086)
(0.00685125 -0.0114413 -0.996686)
(0.00232024 -0.011595 -0.996708)
(-0.00228391 -0.0115993 -0.996713)
(-0.00682342 -0.0114517 -0.996694)
(-0.0110995 -0.0111224 -0.997101)
(-0.0150648 -0.010819 -0.997638)
(-0.0186786 -0.0103378 -0.998405)
(-0.0218896 -0.00985227 -0.999758)
(-0.0250471 -0.00934405 -1.00086)
(0.024534 -0.012903 -1.00162)
(0.0213312 -0.0134035 -1.00073)
(0.0182085 -0.014108 -0.999262)
(0.014664 -0.0146675 -0.998364)
(0.0108074 -0.015065 -0.997621)
(0.00665318 -0.015461 -0.997136)
(0.00224517 -0.0156379 -0.997114)
(-0.0022159 -0.0156435 -0.997119)
(-0.00663119 -0.0154749 -0.997145)
(-0.0107975 -0.0150841 -0.997636)
(-0.0146692 -0.0146883 -0.998386)
(-0.0182278 -0.0141291 -0.999291)
(-0.0213616 -0.0134227 -1.00076)
(-0.0245723 -0.012918 -1.00166)
(0.0241752 -0.016457 -1.00257)
(0.0208155 -0.0168073 -1.00182)
(0.0176891 -0.0176973 -1.00025)
(0.0141037 -0.018218 -0.999268)
(0.0103235 -0.0186713 -0.998386)
(0.00630996 -0.0190693 -0.99791)
(0.00211569 -0.0192385 -0.99789)
(-0.00209585 -0.0192442 -0.997895)
(-0.00629591 -0.0190839 -0.997918)
(-0.0103184 -0.0186912 -0.9984)
(-0.0141102 -0.0182409 -0.999288)
(-0.0177072 -0.0177211 -1.00028)
(-0.0208419 -0.0168281 -1.00186)
(-0.0242093 -0.0164742 -1.00261)
(0.0231283 -0.0197079 -1.00386)
(0.0198662 -0.0198783 -1.00315)
(0.0167992 -0.0208287 -1.00183)
(0.0133978 -0.0213468 -1.00074)
(0.00983561 -0.0218753 -0.999737)
(0.00603392 -0.0222831 -0.999098)
(0.00202268 -0.0224361 -0.998967)
(-0.00201168 -0.0224414 -0.998972)
(-0.00602656 -0.0222967 -0.999105)
(-0.00983497 -0.0218939 -0.99975)
(-0.0134052 -0.0213668 -1.00076)
(-0.016815 -0.0208487 -1.00185)
(-0.0198888 -0.0198951 -1.00318)
(-0.0231557 -0.0197202 -1.0039)
(0.0232586 -0.0232743 -1.00471)
(0.0196954 -0.0231436 -1.00387)
(0.0164483 -0.0241926 -1.00258)
(0.0128953 -0.0245538 -1.00164)
(0.00932728 -0.025028 -1.00084)
(0.00564335 -0.025302 -1.0004)
(0.00187873 -0.0253652 -1.00033)
(-0.00187656 -0.0253711 -1.00033)
(-0.00564165 -0.0253127 -1.0004)
(-0.00932904 -0.0250428 -1.00085)
(-0.0129015 -0.0245683 -1.00166)
(-0.0164612 -0.0242073 -1.0026)
(-0.0197132 -0.0231539 -1.00389)
(-0.0232817 -0.0232807 -1.00474)
(0.0278304 0.027814 -1.0197)
(0.0236958 0.0277957 -1.01875)
(0.0198605 0.0290279 -1.01719)
(0.0156179 0.0295192 -1.01606)
(0.0113209 0.030182 -1.01505)
(0.00684484 0.0305668 -1.01453)
(0.00227768 0.0306595 -1.01447)
(-0.00231086 0.0306617 -1.01448)
(-0.00687802 0.03057 -1.01455)
(-0.0113506 0.0301856 -1.01507)
(-0.0156367 0.0295191 -1.01608)
(-0.019875 0.0290228 -1.01721)
(-0.0236977 0.0277812 -1.01877)
(-0.027816 0.0277907 -1.01971)
(0.0278112 0.0236785 -1.01876)
(0.0239262 0.0239078 -1.01791)
(0.0202809 0.0250821 -1.01635)
(0.0161725 0.0257026 -1.01511)
(0.011882 0.0263273 -1.01393)
(0.00728139 0.0267993 -1.0132)
(0.00244707 0.0269491 -1.01307)
(-0.00247913 0.0269515 -1.01308)
(-0.00731508 0.0268042 -1.01322)
(-0.0119104 0.0263325 -1.01395)
(-0.0161944 0.0257068 -1.01514)
(-0.0202975 0.0250844 -1.01638)
(-0.0239326 0.0239051 -1.01793)
(-0.0278054 0.0236698 -1.01876)
(0.0290441 0.0198413 -1.0172)
(0.0251002 0.0202642 -1.01636)
(0.0213686 0.0213502 -1.01456)
(0.0170073 0.0219249 -1.01346)
(0.0124489 0.0224393 -1.01243)
(0.00758964 0.0228691 -1.01194)
(0.00256095 0.0230172 -1.01198)
(-0.00258946 0.0230214 -1.01199)
(-0.00762125 0.0228794 -1.01196)
(-0.0124778 0.022452 -1.01246)
(-0.0170336 0.0219377 -1.0135)
(-0.0213882 0.0213616 -1.01459)
(-0.0251114 0.0202717 -1.01637)
(-0.0290492 0.0198465 -1.0172)
(0.0295357 0.0155996 -1.01607)
(0.0257206 0.0161539 -1.01511)
(0.0219431 0.0169886 -1.01347)
(0.0176006 0.0175821 -1.01252)
(0.0129373 0.0180093 -1.01171)
(0.00793882 0.0184452 -1.0112)
(0.00270755 0.018594 -1.01124)
(-0.00272878 0.0185997 -1.01125)
(-0.00796422 0.0184593 -1.01122)
(-0.0129636 0.0180287 -1.01174)
(-0.0176273 0.0176039 -1.01256)
(-0.0219662 0.0170091 -1.0135)
(-0.0257371 0.016169 -1.01514)
(-0.0295525 0.0156108 -1.01607)
(0.0301998 0.0113063 -1.01506)
(0.0263458 0.0118652 -1.01394)
(0.0224582 0.0124314 -1.01244)
(0.0180283 0.01292 -1.01171)
(0.0132508 0.0132329 -1.01115)
(0.00813587 0.0135952 -1.01072)
(0.00279817 0.0137179 -1.01081)
(-0.00281005 0.0137243 -1.01082)
(-0.00815285 0.0136109 -1.01075)
(-0.0132721 0.0132555 -1.01118)
(-0.0180542 0.0129463 -1.01175)
(-0.0224843 0.0124565 -1.01248)
(-0.0263672 0.0118853 -1.01396)
(-0.0302244 0.0113226 -1.01507)
(0.0305844 0.00683434 -1.01454)
(0.0268172 0.00726911 -1.01321)
(0.0228878 0.00757589 -1.01195)
(0.0184641 0.00792382 -1.01121)
(0.0136131 0.00811953 -1.01073)
(0.00838314 0.00836612 -1.01027)
(0.00290761 0.00844784 -1.01038)
(-0.00290869 0.00845371 -1.01039)
(-0.00839065 0.0083808 -1.0103)
(-0.0136284 0.00814114 -1.01076)
(-0.0184887 0.00794972 -1.01125)
(-0.0229169 0.00760151 -1.01199)
(-0.0268445 0.00729009 -1.01325)
(-0.0306138 0.00685046 -1.01456)
(0.0306729 0.00227139 -1.01448)
(0.0269638 0.00244122 -1.01308)
(0.0230318 0.00255334 -1.01199)
(0.0186091 0.00269688 -1.01125)
(0.0137328 0.00278435 -1.01082)
(0.00846288 0.00289061 -1.01038)
(0.0029491 0.00293168 -1.01056)
(-0.00294289 0.00293689 -1.01056)
(-0.00846404 0.00290362 -1.01041)
(-0.0137442 0.00280285 -1.01085)
(-0.0186328 0.0027182 -1.01129)
(-0.0230636 0.00257324 -1.01203)
(-0.0269969 0.00245703 -1.01312)
(-0.0307049 0.002281 -1.0145)
(0.0306755 -0.00230957 -1.01448)
(0.0269645 -0.00248556 -1.01309)
(0.0230338 -0.00259891 -1.01199)
(0.0186119 -0.00274066 -1.01125)
(0.0137364 -0.00282361 -1.01082)
(0.00846679 -0.00292335 -1.01039)
(0.00295374 -0.00295757 -1.01056)
(-0.00294096 -0.0029564 -1.01057)
(-0.00846213 -0.00292064 -1.01041)
(-0.0137439 -0.00281942 -1.01086)
(-0.0186336 -0.00273501 -1.01129)
(-0.0230655 -0.00259292 -1.01204)
(-0.026999 -0.00247908 -1.01312)
(-0.0307082 -0.0023048 -1.0145)
(0.0305802 -0.00687002 -1.01454)
(0.0268121 -0.00731074 -1.01322)
(0.0228888 -0.00762163 -1.01197)
(0.0184701 -0.00796932 -1.01123)
(0.013622 -0.00816219 -1.01075)
(0.00839302 -0.00840351 -1.01029)
(0.00291953 -0.00847936 -1.0104)
(-0.00290465 -0.00847956 -1.01041)
(-0.00838655 -0.00840415 -1.01032)
(-0.0136287 -0.0081635 -1.01078)
(-0.0184923 -0.00797136 -1.01127)
(-0.0229225 -0.00762479 -1.01201)
(-0.0268491 -0.00731408 -1.01326)
(-0.0306176 -0.00687459 -1.01457)
(0.0301908 -0.0113398 -1.01506)
(0.0263375 -0.0119036 -1.01395)
(0.0224587 -0.0124751 -1.01246)
(0.0180369 -0.0129653 -1.01174)
(0.0132643 -0.0132777 -1.01118)
(0.00815134 -0.0136373 -1.01076)
(0.00281609 -0.013756 -1.01084)
(-0.00280466 -0.0137585 -1.01085)
(-0.00814768 -0.0136437 -1.01077)
(-0.0132728 -0.0132866 -1.01121)
(-0.0180592 -0.0129753 -1.01178)
(-0.0224915 -0.0124852 -1.0125)
(-0.0263737 -0.0119132 -1.01399)
(-0.0302286 -0.0113492 -1.01509)
(0.0295188 -0.0156269 -1.01607)
(0.0257074 -0.0161874 -1.01513)
(0.0219406 -0.0170287 -1.01349)
(0.0176083 -0.0176257 -1.01255)
(0.0129522 -0.0180559 -1.01175)
(0.00795768 -0.0184932 -1.01124)
(0.00272889 -0.0186398 -1.01128)
(-0.00272174 -0.0186435 -1.01129)
(-0.00795757 -0.0185026 -1.01126)
(-0.0129628 -0.0180687 -1.01177)
(-0.0176304 -0.0176393 -1.01259)
(-0.0219716 -0.0170419 -1.01353)
(-0.0257415 -0.0161986 -1.01516)
(-0.0295542 -0.0156371 -1.0161)
(0.0290167 -0.019863 -1.0172)
(0.0250822 -0.0202924 -1.01637)
(0.0213622 -0.0213839 -1.01458)
(0.0170113 -0.0219632 -1.0135)
(0.0124603 -0.022483 -1.01248)
(0.0076074 -0.0229172 -1.01199)
(0.00258145 -0.0230658 -1.01202)
(-0.0025805 -0.0230699 -1.01203)
(-0.00761226 -0.022927 -1.012)
(-0.0124732 -0.0224956 -1.0125)
(-0.0170329 -0.0219757 -1.01352)
(-0.0213909 -0.0213958 -1.01461)
(-0.0251131 -0.0203007 -1.0164)
(-0.0290493 -0.0198719 -1.01722)
(0.0277758 -0.0236908 -1.01875)
(0.0239025 -0.0239269 -1.01792)
(0.0202719 -0.0251076 -1.01637)
(0.0161703 -0.0257335 -1.01514)
(0.0118888 -0.0263641 -1.01396)
(0.00729551 -0.0268411 -1.01324)
(0.00246419 -0.0269952 -1.01311)
(-0.00246805 -0.0269984 -1.01311)
(-0.00730337 -0.0268489 -1.01325)
(-0.0119025 -0.0263731 -1.01398)
(-0.0161901 -0.0257413 -1.01516)
(-0.0202959 -0.0251138 -1.01639)
(-0.0239299 -0.0239303 -1.01794)
(-0.0278004 -0.0236885 -1.01877)
(0.0277857 -0.0278127 -1.0197)
(0.0236672 -0.0278026 -1.01875)
(0.0198457 -0.0290441 -1.0172)
(0.0156122 -0.0295455 -1.01608)
(0.011326 -0.0302169 -1.01507)
(0.00685476 -0.030607 -1.01455)
(0.00228849 -0.0307005 -1.01449)
(-0.00229685 -0.0307042 -1.01449)
(-0.0068651 -0.0306121 -1.01456)
(-0.0113391 -0.0302233 -1.01508)
(-0.0156283 -0.0295492 -1.01609)
(-0.0198666 -0.0290455 -1.01722)
(-0.0236876 -0.0277972 -1.01877)
(-0.027804 -0.0278007 -1.01971)
(0.034314 0.0342935 -1.03095)
(0.0294477 0.0345381 -1.0301)
(0.0248287 0.0360693 -1.02828)
(0.0195457 0.0366573 -1.02698)
(0.0142011 0.0374312 -1.02572)
(0.00857644 0.0378069 -1.02512)
(0.00285889 0.0378752 -1.02505)
(-0.00291837 0.037876 -1.02505)
(-0.00862624 0.0378049 -1.02513)
(-0.0142284 0.0374246 -1.02572)
(-0.0195502 0.0366423 -1.02698)
(-0.0248114 0.0360529 -1.02826)
(-0.0294045 0.0345153 -1.03006)
(-0.034252 0.0342621 -1.03088)
(0.0345551 0.0294215 -1.0301)
(0.0298238 0.0297984 -1.02925)
(0.0252438 0.0311018 -1.02746)
(0.0200641 0.0317293 -1.02605)
(0.0146848 0.032348 -1.02468)
(0.00896487 0.0327639 -1.02385)
(0.00303373 0.0328535 -1.02371)
(-0.00309873 0.0328549 -1.02372)
(-0.00901988 0.0327658 -1.02387)
(-0.0147179 0.032347 -1.02469)
(-0.0200708 0.0317257 -1.02606)
(-0.0252202 0.0310939 -1.02745)
(-0.0297806 0.0297846 -1.02921)
(-0.0345043 0.0294036 -1.03004)
(0.0360847 0.0248034 -1.02828)
(0.0311273 0.0252164 -1.02746)
(0.026391 0.0263619 -1.02541)
(0.0209275 0.0268529 -1.02416)
(0.0152555 0.0272952 -1.02295)
(0.0092613 0.0276126 -1.0224)
(0.00315917 0.0276557 -1.02245)
(-0.00322658 0.0276575 -1.02246)
(-0.00932016 0.0276167 -1.02242)
(-0.0152937 0.0273026 -1.02298)
(-0.0209398 0.0268583 -1.02418)
(-0.0263755 0.0263629 -1.02541)
(-0.0310892 0.0252073 -1.02744)
(-0.036036 0.0247981 -1.02822)
(0.0366687 0.0195233 -1.02699)
(0.0317521 0.0200394 -1.02605)
(0.02688 0.0209001 -1.02417)
(0.0213892 0.021362 -1.02311)
(0.0155944 0.0216382 -1.02215)
(0.00948096 0.0219004 -1.02156)
(0.00327116 0.0219207 -1.02164)
(-0.00333694 0.0219234 -1.02165)
(-0.00953716 0.0219071 -1.02158)
(-0.0156321 0.0216484 -1.02218)
(-0.0214078 0.0213767 -1.02314)
(-0.026873 0.0209089 -1.02418)
(-0.0317219 0.0200399 -1.02603)
(-0.0366137 0.019522 -1.02693)
(0.0374412 0.0141865 -1.02572)
(0.0323691 0.0146673 -1.02468)
(0.027322 0.015235 -1.02295)
(0.0216659 0.0155722 -1.02215)
(0.0157307 0.0157066 -1.02145)
(0.00952803 0.0158757 -1.02096)
(0.0033198 0.0158739 -1.02114)
(-0.00338052 0.0158774 -1.02115)
(-0.00957953 0.0158841 -1.02099)
(-0.0157637 0.0157191 -1.02148)
(-0.0216823 0.0155883 -1.02218)
(-0.0273213 0.0152508 -1.02298)
(-0.0323463 0.0146733 -1.02467)
(-0.0373929 0.0141881 -1.02568)
(0.0378134 0.00857648 -1.02512)
(0.0327829 0.00895945 -1.02386)
(0.0276355 0.00925146 -1.02241)
(0.0219257 0.00946665 -1.02156)
(0.015899 0.00950995 -1.02096)
(0.0096292 0.00960982 -1.02043)
(0.00338623 0.00960691 -1.02061)
(-0.00344024 0.00961068 -1.02062)
(-0.0096751 0.00961925 -1.02046)
(-0.0159289 0.00952367 -1.021)
(-0.0219419 0.00948239 -1.0216)
(-0.0276356 0.00926731 -1.02243)
(-0.0327679 0.00896593 -1.02386)
(-0.0377726 0.0085754 -1.02509)
(0.0378738 0.00287114 -1.02504)
(0.0328639 0.00304363 -1.02371)
(0.0276718 0.00316335 -1.02245)
(0.0219408 0.00326869 -1.02164)
(0.0158944 0.00331143 -1.02114)
(0.00962549 0.00337412 -1.02061)
(0.00340631 0.00339298 -1.02082)
(-0.00345385 0.00339727 -1.02082)
(-0.00966637 0.00338501 -1.02064)
(-0.0159219 0.00332586 -1.02118)
(-0.0219574 0.00328338 -1.02167)
(-0.0276775 0.00317366 -1.02248)
(-0.0328594 0.00304605 -1.02372)
(-0.037846 0.00286656 -1.02502)
(0.0378696 -0.00289849 -1.02504)
(0.0328603 -0.00308976 -1.02371)
(0.0276688 -0.003224 -1.02245)
(0.0219389 -0.00333926 -1.02164)
(0.0158941 -0.00338746 -1.02114)
(0.00962694 -0.00345078 -1.02062)
(0.00341006 -0.00346592 -1.02082)
(-0.00345011 -0.00346291 -1.02083)
(-0.0096622 -0.00344318 -1.02065)
(-0.0159188 -0.00337793 -1.02118)
(-0.0219556 -0.00333014 -1.02168)
(-0.0276769 -0.00321917 -1.02248)
(-0.0328602 -0.00309039 -1.02373)
(-0.0378469 -0.00291087 -1.02502)
(0.0377887 -0.00860012 -1.02511)
(0.0327623 -0.00899907 -1.02385)
(0.0276211 -0.00930665 -1.02241)
(0.0219174 -0.00953008 -1.02157)
(0.0158969 -0.00957844 -1.02098)
(0.0096331 -0.00967879 -1.02045)
(0.00339647 -0.00967216 -1.02063)
(-0.00343079 -0.00966955 -1.02064)
(-0.00966528 -0.00967236 -1.02048)
(-0.0159228 -0.00957139 -1.02102)
(-0.0219395 -0.00952539 -1.02161)
(-0.0276366 -0.00930937 -1.02244)
(-0.0327697 -0.00900521 -1.02387)
(-0.0377746 -0.00861314 -1.02509)
(0.0374002 -0.0142048 -1.02569)
(0.0323371 -0.0146982 -1.02467)
(0.0273017 -0.015281 -1.02296)
(0.0216547 -0.0156257 -1.02217)
(0.015729 -0.0157622 -1.02146)
(0.00953546 -0.0159312 -1.02099)
(0.00333564 -0.0159254 -1.02117)
(-0.00336706 -0.0159239 -1.02118)
(-0.00956604 -0.0159273 -1.02101)
(-0.0157554 -0.015758 -1.0215)
(-0.0216795 -0.0156241 -1.0222)
(-0.0273231 -0.0152853 -1.02299)
(-0.0323475 -0.0147038 -1.02468)
(-0.0373915 -0.0142154 -1.02568)
(0.0366144 -0.019533 -1.02695)
(0.0317083 -0.0200573 -1.02603)
(0.0268509 -0.0209313 -1.02416)
(0.0213779 -0.0214044 -1.02312)
(0.015595 -0.0216819 -1.02217)
(0.00949225 -0.0219439 -1.02159)
(0.00329196 -0.0219595 -1.02166)
(-0.00332012 -0.0219586 -1.02167)
(-0.00952095 -0.0219414 -1.0216)
(-0.0156227 -0.0216791 -1.0222)
(-0.0214052 -0.0214035 -1.02316)
(-0.0268725 -0.0209308 -1.02419)
(-0.0317199 -0.0200573 -1.02604)
(-0.0366075 -0.0195366 -1.02693)
(0.036025 -0.0248046 -1.02823)
(0.0310722 -0.0252177 -1.02742)
(0.0263514 -0.0263753 -1.02539)
(0.020907 -0.0268749 -1.02417)
(0.0152557 -0.027324 -1.02297)
(0.00927646 -0.0276397 -1.02242)
(0.00318299 -0.0276796 -1.02247)
(-0.00320848 -0.0276791 -1.02247)
(-0.00930357 -0.027637 -1.02244)
(-0.0152821 -0.0273208 -1.02299)
(-0.0209313 -0.0268693 -1.02419)
(-0.0263708 -0.026369 -1.0254)
(-0.031083 -0.0252081 -1.02742)
(-0.0360253 -0.0247994 -1.0282)
(0.0344893 -0.0294059 -1.03003)
(0.0297632 -0.0297867 -1.02919)
(0.0251961 -0.0310962 -1.02742)
(0.0200381 -0.0317295 -1.02603)
(0.0146792 -0.0323533 -1.02467)
(0.00897673 -0.0327738 -1.02385)
(0.00305749 -0.032863 -1.02371)
(-0.00307867 -0.0328622 -1.02372)
(-0.00899876 -0.032771 -1.02386)
(-0.0147006 -0.032346 -1.02468)
(-0.0200579 -0.0317181 -1.02603)
(-0.02521 -0.0310819 -1.02742)
(-0.0297696 -0.0297682 -1.02918)
(-0.034489 -0.0293856 -1.03001)
(0.0342322 -0.0342583 -1.03086)
(0.0293828 -0.0345127 -1.03003)
(0.0247884 -0.0360465 -1.02822)
(0.0195214 -0.0366279 -1.02693)
(0.014195 -0.0374062 -1.02568)
(0.00858762 -0.0377855 -1.02509)
(0.00288077 -0.0378543 -1.02501)
(-0.00289799 -0.0378539 -1.02502)
(-0.00860545 -0.0377797 -1.02509)
(-0.0142108 -0.0373959 -1.02568)
(-0.019536 -0.0366107 -1.02693)
(-0.0247995 -0.0360277 -1.02821)
(-0.0293871 -0.0344888 -1.03001)
(-0.0342269 -0.0342268 -1.03084)
(0.040243 0.040233 -1.03869)
(0.0347973 0.0408254 -1.0378)
(0.0294486 0.0425064 -1.03559)
(0.0231885 0.0429997 -1.03403)
(0.0168189 0.0436923 -1.03243)
(0.0101387 0.0439043 -1.03167)
(0.00340783 0.0438392 -1.03152)
(-0.00345443 0.043829 -1.03151)
(-0.0101655 0.0438843 -1.03165)
(-0.0168093 0.0436583 -1.03239)
(-0.0231369 0.0429551 -1.03397)
(-0.0293599 0.0424553 -1.03551)
(-0.0346796 0.0407808 -1.0377)
(-0.0401099 0.0401906 -1.03855)
(0.0408324 0.0347777 -1.0378)
(0.0352194 0.0352003 -1.03676)
(0.0296244 0.0364665 -1.0346)
(0.0233277 0.0367887 -1.03292)
(0.0169104 0.0371181 -1.03124)
(0.0102448 0.0372405 -1.03018)
(0.0034885 0.0371104 -1.02995)
(-0.00354822 0.0371037 -1.02994)
(-0.0102808 0.0372231 -1.03016)
(-0.0169054 0.0370899 -1.03121)
(-0.0232782 0.036754 -1.03286)
(-0.0295343 0.0364268 -1.03452)
(-0.0350991 0.0351627 -1.03666)
(-0.0407008 0.0347378 -1.03766)
(0.042509 0.0294256 -1.03558)
(0.0364853 0.0296026 -1.03459)
(0.0305132 0.0304891 -1.03212)
(0.0238256 0.0305495 -1.03057)
(0.0171341 0.0306051 -1.02888)
(0.010288 0.0305823 -1.02797)
(0.00352938 0.0303763 -1.02793)
(-0.00360097 0.0303717 -1.02792)
(-0.0103345 0.0305686 -1.02795)
(-0.0171397 0.030584 -1.02884)
(-0.0237838 0.030519 -1.03052)
(-0.0304239 0.0304526 -1.03206)
(-0.0363606 0.0295672 -1.0345)
(-0.0423618 0.0293877 -1.03546)
(0.042996 0.0231728 -1.03401)
(0.0368029 0.0233097 -1.0329)
(0.0305704 0.0238026 -1.03056)
(0.0238068 0.023784 -1.02905)
(0.0170415 0.023632 -1.02761)
(0.010204 0.0235327 -1.02683)
(0.00354417 0.023305 -1.02694)
(-0.00362576 0.0233034 -1.02694)
(-0.0102603 0.0235244 -1.02682)
(-0.0170525 0.0236142 -1.02759)
(-0.0237746 0.0237642 -1.02898)
(-0.0304836 0.0237721 -1.0305)
(-0.0366797 0.0232775 -1.03281)
(-0.0428367 0.0231345 -1.03391)
(0.0436825 0.0168155 -1.03241)
(0.0371275 0.0169032 -1.03122)
(0.0306241 0.017121 -1.02887)
(0.0236541 0.0170257 -1.0276)
(0.0167874 0.0167696 -1.02662)
(0.00999163 0.0166516 -1.02606)
(0.00350515 0.0164489 -1.02634)
(-0.00359031 0.0164492 -1.02634)
(-0.0100539 0.0166488 -1.02605)
(-0.0168071 0.0167604 -1.02662)
(-0.0236225 0.0170064 -1.02757)
(-0.0305448 0.0170975 -1.0288)
(-0.0370075 0.0168723 -1.03114)
(-0.0435231 0.0167815 -1.03231)
(0.0438884 0.0101525 -1.03164)
(0.0372451 0.0102521 -1.03015)
(0.0305951 0.010288 -1.02795)
(0.0235512 0.0101991 -1.02681)
(0.0166678 0.00998337 -1.02605)
(0.00990239 0.00989339 -1.02547)
(0.00350112 0.00975381 -1.02578)
(-0.00358631 0.00975514 -1.02578)
(-0.00996683 0.00989396 -1.02548)
(-0.0166934 0.00998032 -1.02605)
(-0.0235283 0.0101886 -1.0268)
(-0.0305188 0.0102696 -1.0279)
(-0.0371306 0.010226 -1.03007)
(-0.0437318 0.0101211 -1.03156)
(0.0438133 0.00343028 -1.03148)
(0.0371026 0.00350439 -1.0299)
(0.0303796 0.00353873 -1.02789)
(0.0233181 0.00354846 -1.02691)
(0.0164632 0.00350555 -1.02632)
(0.00976374 0.00350082 -1.02577)
(0.00346836 0.00346754 -1.02605)
(-0.00355292 0.00347056 -1.02605)
(-0.00982863 0.00350781 -1.02578)
(-0.0164914 0.00351242 -1.02633)
(-0.0233014 0.00355196 -1.02691)
(-0.0303102 0.00353601 -1.02786)
(-0.0370007 0.00349423 -1.02984)
(-0.0436686 0.0034115 -1.0314)
(0.0437972 -0.00341185 -1.03147)
(0.0370904 -0.00351231 -1.02989)
(0.0303687 -0.00357567 -1.02788)
(0.0233109 -0.00360871 -1.0269)
(0.0164596 -0.00358067 -1.02631)
(0.00976342 -0.00358263 -1.02576)
(0.00346964 -0.00355471 -1.02605)
(-0.0035493 -0.00355291 -1.02605)
(-0.00982544 -0.00357719 -1.02578)
(-0.0164875 -0.0035756 -1.02633)
(-0.0232972 -0.00360772 -1.02691)
(-0.0303053 -0.00358426 -1.02786)
(-0.0369964 -0.00353372 -1.02983)
(-0.043662 -0.00344328 -1.0314)
(0.0438436 -0.0101285 -1.0316)
(0.0372009 -0.010249 -1.03011)
(0.0305571 -0.0103101 -1.0279)
(0.0235227 -0.0102426 -1.02678)
(0.0166518 -0.0100426 -1.02602)
(0.00989776 -0.0099593 -1.02545)
(0.00350339 -0.00982318 -1.02576)
(-0.00357447 -0.00982025 -1.02577)
(-0.00995531 -0.00994931 -1.02547)
(-0.0166809 -0.01003 -1.02604)
(-0.0235158 -0.0102306 -1.02679)
(-0.0305074 -0.0103044 -1.02788)
(-0.037119 -0.010253 -1.03005)
(-0.0437203 -0.0101415 -1.03154)
(0.0436132 -0.0167836 -1.03235)
(0.0370625 -0.016886 -1.03116)
(0.0305674 -0.0171246 -1.0288)
(0.0236086 -0.0170423 -1.02755)
(0.0167608 -0.0168009 -1.02658)
(0.00998309 -0.0166901 -1.02602)
(0.00350801 -0.0164888 -1.02631)
(-0.00357311 -0.0164851 -1.02632)
(-0.0100359 -0.0166775 -1.02604)
(-0.0167871 -0.0167834 -1.0266)
(-0.0236021 -0.0170222 -1.02755)
(-0.0305274 -0.0171103 -1.02877)
(-0.0369902 -0.0168781 -1.03111)
(-0.0435019 -0.0167828 -1.03228)
(0.0429087 -0.0231271 -1.03394)
(0.0367225 -0.0232764 -1.03282)
(0.0304991 -0.0237816 -1.03048)
(0.0237557 -0.0237761 -1.02895)
(0.0170048 -0.0236257 -1.02754)
(0.0101906 -0.0235328 -1.02677)
(0.00354875 -0.0233051 -1.02689)
(-0.00360489 -0.0233004 -1.0269)
(-0.0102359 -0.0235176 -1.02678)
(-0.0170267 -0.0236027 -1.02755)
(-0.0237542 -0.0237525 -1.02893)
(-0.0304634 -0.0237567 -1.03046)
(-0.0366602 -0.023257 -1.03277)
(-0.0428114 -0.0231134 -1.03386)
(0.0424129 -0.0293689 -1.03548)
(0.0363932 -0.0295501 -1.03449)
(0.0304322 -0.0304395 -1.03203)
(0.0237633 -0.0305024 -1.03047)
(0.0170964 -0.030562 -1.02878)
(0.0102726 -0.0305368 -1.02788)
(0.00353581 -0.030325 -1.02785)
(-0.00358023 -0.0303191 -1.02785)
(-0.0103077 -0.030518 -1.02788)
(-0.0171127 -0.0305357 -1.02878)
(-0.0237576 -0.0304687 -1.03046)
(-0.030399 -0.0304052 -1.032)
(-0.0363373 -0.0295206 -1.03444)
(-0.0423278 -0.0293448 -1.0354)
(0.0407418 -0.0347078 -1.03767)
(0.0351303 -0.03513 -1.03664)
(0.0295461 -0.036392 -1.03448)
(0.0232675 -0.0367126 -1.0328)
(0.0168724 -0.0370378 -1.03112)
(0.0102312 -0.0371584 -1.03007)
(0.00349841 -0.0370247 -1.02984)
(-0.00352859 -0.0370178 -1.02984)
(-0.0102544 -0.037139 -1.03007)
(-0.0168803 -0.0370065 -1.03112)
(-0.0232582 -0.0366739 -1.03278)
(-0.0295145 -0.0363515 -1.03445)
(-0.0350804 -0.0350939 -1.03658)
(-0.0406718 -0.0346757 -1.03759)
(0.0401507 -0.0401466 -1.03854)
(0.0347088 -0.0407352 -1.03766)
(0.0293694 -0.0423996 -1.03545)
(0.0231275 -0.0428816 -1.0339)
(0.0167831 -0.0435658 -1.03231)
(0.0101274 -0.0437736 -1.03155)
(0.0034202 -0.043704 -1.03141)
(-0.00343784 -0.0436965 -1.03141)
(-0.010141 -0.0437514 -1.03155)
(-0.016784 -0.0435319 -1.03231)
(-0.0231142 -0.0428381 -1.03388)
(-0.0293389 -0.042355 -1.03542)
(-0.0346621 -0.0406939 -1.0376)
(-0.0400852 -0.0401103 -1.03845)
(0.0465018 0.0465135 -1.03962)
(0.0404349 0.0474564 -1.0386)
(0.0341577 0.0490375 -1.03601)
(0.0268813 0.0492865 -1.034)
(0.0194944 0.0498008 -1.03185)
(0.0117511 0.0498153 -1.03074)
(0.00402663 0.0495696 -1.03042)
(-0.00399103 0.0495468 -1.03038)
(-0.0117001 0.0497928 -1.03065)
(-0.0194173 0.049766 -1.03171)
(-0.0267752 0.0492447 -1.03383)
(-0.0340323 0.0490022 -1.03582)
(-0.0402973 0.0474385 -1.03842)
(-0.0463757 0.0465088 -1.03946)
(0.0474451 0.0404442 -1.03857)
(0.0407999 0.0408106 -1.03699)
(0.0340396 0.0418674 -1.03422)
(0.0265556 0.0417595 -1.03211)
(0.0190868 0.0417393 -1.03)
(0.0114697 0.041565 -1.02867)
(0.00396808 0.0411672 -1.02834)
(-0.0039461 0.0411547 -1.0283)
(-0.0114258 0.0415407 -1.02857)
(-0.0190106 0.0417007 -1.02985)
(-0.0264488 0.0417158 -1.03192)
(-0.0339116 0.0418253 -1.03401)
(-0.0406574 0.0407822 -1.0368)
(-0.0473146 0.0404197 -1.03839)
(0.0490222 0.0341688 -1.03597)
(0.0418566 0.0340538 -1.0342)
(0.0346038 0.0346156 -1.031)
(0.0266696 0.0341654 -1.02903)
(0.0189449 0.0337523 -1.02694)
(0.0112252 0.0333229 -1.0259)
(0.00388814 0.0327952 -1.0258)
(-0.00388188 0.0327863 -1.02577)
(-0.011196 0.0332953 -1.0258)
(-0.0188807 0.0337053 -1.02679)
(-0.0265668 0.0341102 -1.02884)
(-0.0344647 0.0345593 -1.03079)
(-0.0416975 0.0340151 -1.03399)
(-0.0488674 0.0341244 -1.03578)
(0.0492625 0.0268998 -1.03394)
(0.0417445 0.0265751 -1.03207)
(0.0341498 0.0266846 -1.02901)
(0.0261127 0.0261295 -1.02723)
(0.0184165 0.0254959 -1.02544)
(0.0108672 0.0250715 -1.02433)
(0.00379129 0.0245182 -1.02432)
(-0.00379562 0.0245107 -1.02428)
(-0.0108507 0.0250472 -1.02423)
(-0.0183658 0.0254563 -1.0253)