/*--------------------------------*- C++ -*----------------------------------*\
| =========                 |                                                 |
| \\      /  F ield         | OpenFOAM: The Open Source CFD Toolbox           |
|  \\    /   O peration     | Version:  v2106                                 |
|   \\  /    A nd           | Website:  www.openfoam.com                      |
|    \\/     M anipulation  |                                                 |
\*---------------------------------------------------------------------------*/
FoamFile
{
    version     2.0;
    format      ascii;
    arch        "LSB;label=32;scalar=64";
    class       volVectorField;
    location    "0.000212";
    object      U;
}
// * * * * * * * * * * * * * * * * * * * * * * * * * * * * * * * * * * * * * //

dimensions      [0 1 -1 0 0 0 0];

internalField   nonuniform List<vector> 
17924
(
(-0.432501 1.98151 26.9296)
(-0.379228 1.94948 26.8976)
(-0.328161 1.95389 26.8461)
(-0.271234 1.94478 26.7972)
(-0.579982 1.82499 27.4103)
(-0.536447 1.8133 27.3722)
(-0.485117 1.8337 27.3427)
(-0.433675 1.8414 27.297)
(-0.37428 1.85346 27.2635)
(-0.31747 1.84031 27.2271)
(-0.26176 1.82655 27.1899)
(-0.587846 1.85065 27.3976)
(-0.536573 1.86125 27.327)
(-0.463129 1.86507 27.2902)
(-0.418195 1.87303 27.2374)
(-0.361553 1.88196 27.2076)
(-0.313598 1.8727 27.1754)
(-0.267216 1.86578 27.147)
(-0.560602 1.8645 27.3651)
(-0.521204 1.90017 27.296)
(-0.449533 1.91202 27.258)
(-0.414727 1.92656 27.2072)
(-0.36608 1.92944 27.179)
(-0.328174 1.91817 27.149)
(-0.291118 1.90465 27.1211)
(-0.53776 1.88515 27.3098)
(-0.508587 1.92155 27.2542)
(-0.44699 1.93557 27.2168)
(-0.41691 1.95323 27.1716)
(-0.373149 1.95174 27.146)
(-0.34167 1.94203 27.1175)
(-0.310177 1.9295 27.0924)
(-0.508045 1.89701 27.256)
(-0.484857 1.9361 27.2166)
(-0.436825 1.95406 27.1826)
(-0.412289 1.97464 27.1462)
(-0.375175 1.97108 27.1227)
(-0.350639 1.96339 27.0943)
(-0.32595 1.94999 27.0692)
(-0.487975 1.91014 27.2133)
(-0.468049 1.94587 27.1828)
(-0.431682 1.96369 27.1527)
(-0.410361 1.98218 27.1229)
(-0.37996 1.97674 27.1011)
(-0.361137 1.97259 27.0737)
(-0.341306 1.96265 27.0488)
(-0.47171 1.90867 27.1815)
(-0.450305 1.9475 27.1575)
(-0.418667 1.96514 27.13)
(-0.39898 1.98332 27.1043)
(-0.375067 1.97952 27.0813)
(-0.363274 1.97944 27.054)
(-0.350241 1.97203 27.0284)
(-0.466669 1.90208 27.1543)
(-0.434769 1.93288 27.1371)
(-0.411686 1.95342 27.1092)
(-0.390239 1.9719 27.0866)
(-0.373864 1.97377 27.0608)
(-0.365098 1.97902 27.0341)
(-0.356705 1.97662 27.008)
(-0.444155 1.89061 27.1351)
(-0.409533 1.91624 27.118)
(-0.395121 1.94144 27.0883)
(-0.374518 1.9627 27.0655)
(-0.366244 1.97015 27.0382)
(-0.359738 1.97771 27.0123)
(-0.357172 1.97815 26.9862)
(-0.424764 1.87217 27.1062)
(-0.390621 1.89432 27.0894)
(-0.383235 1.92116 27.062)
(-0.363683 1.94357 27.0397)
(-0.359487 1.95682 27.0138)
(-0.353342 1.96796 26.9887)
(-0.354449 1.97469 26.9632)
(-0.403051 1.85539 27.069)
(-0.36711 1.87864 27.0533)
(-0.362842 1.90837 27.0274)
(-0.344693 1.93209 27.0051)
(-0.343612 1.94864 26.9825)
(-0.339127 1.96085 26.9601)
(-0.344216 1.96962 26.9381)
(-0.375994 1.83141 27.0381)
(-0.340931 1.85192 27.0247)
(-0.339055 1.88272 26.9994)
(-0.321931 1.90802 26.9752)
(-0.323981 1.92785 26.9536)
(-0.321765 1.94376 26.9319)
(-0.331908 1.9585 26.9121)
(-0.344102 1.81543 27.0173)
(-0.305931 1.83724 27.0076)
(-0.307585 1.8694 26.9812)
(-0.292801 1.89759 26.9521)
(-0.298616 1.91945 26.9281)
(-0.298509 1.93712 26.9065)
(-0.310479 1.95283 26.8898)
(-0.319265 1.77404 27.0247)
(-0.284437 1.79424 27.0165)
(-0.290253 1.8297 26.9888)
(-0.274466 1.86046 26.9552)
(-0.281701 1.88529 26.926)
(-0.285523 1.90753 26.8983)
(-0.302143 1.93046 26.8738)
(-0.668904 1.56254 27.765)
(-0.637713 1.56699 27.7281)
(-0.592198 1.59356 27.714)
(-0.549824 1.60977 27.679)
(-0.498509 1.62531 27.6562)
(-0.446524 1.61889 27.6302)
(-0.392668 1.61421 27.6046)
(-0.340219 1.59488 27.5778)
(-0.286954 1.57107 27.5535)
(-0.233576 1.5386 27.5328)
(-0.174405 1.50513 27.5142)
(-0.121058 1.46517 27.4844)
(-0.0535835 1.42802 27.4701)
(-0.0243834 1.39129 27.4228)
(-0.681802 1.60944 27.7374)
(-0.644491 1.63661 27.672)
(-0.572618 1.64629 27.6411)
(-0.531506 1.65892 27.5969)
(-0.481331 1.67032 27.5764)
(-0.436378 1.66742 27.5562)
(-0.391886 1.66807 27.5383)
(-0.34667 1.6581 27.5224)
(-0.300352 1.64343 27.5087)
(-0.253741 1.61708 27.4997)
(-0.20462 1.58534 27.491)
(-0.158476 1.54443 27.4771)
(-0.0959421 1.50995 27.4702)
(-0.0669845 1.4587 27.4265)
(-0.646992 1.63945 27.676)
(-0.622839 1.68631 27.6153)
(-0.554025 1.70431 27.5817)
(-0.52265 1.72629 27.5403)
(-0.479896 1.73225 27.5199)
(-0.443539 1.72739 27.5016)
(-0.407006 1.72088 27.4829)
(-0.368512 1.70486 27.466)
(-0.327841 1.68531 27.4497)
(-0.28565 1.65718 27.4404)
(-0.24196 1.62521 27.4327)
(-0.202281 1.58479 27.4282)
(-0.146172 1.55036 27.4241)
(-0.116492 1.49176 27.3936)
(-0.62354 1.68145 27.5967)
(-0.605446 1.7251 27.55)
(-0.547828 1.74326 27.5169)
(-0.521325 1.76624 27.4806)
(-0.483105 1.7679 27.4614)
(-0.452019 1.76356 27.4437)
(-0.420441 1.75674 27.4267)
(-0.386792 1.74332 27.4116)
(-0.351058 1.72737 27.3967)
(-0.313221 1.70358 27.3879)
(-0.272591 1.67669 27.3807)
(-0.237105 1.6373 27.3777)
(-0.185486 1.60038 27.3696)
(-0.160802 1.53608 27.3517)
(-0.592574 1.70667 27.5176)
(-0.577892 1.75031 27.4842)
(-0.53338 1.77151 27.4546)
(-0.512058 1.79668 27.4272)
(-0.479885 1.79662 27.4099)
(-0.455078 1.79411 27.3918)
(-0.430022 1.78591 27.3747)
(-0.40404 1.77162 27.3587)
(-0.375621 1.75502 27.3435)
(-0.344987 1.73142 27.3337)
(-0.308822 1.70693 27.3254)
(-0.276848 1.66927 27.3198)
(-0.228507 1.63466 27.3101)
(-0.205661 1.5731 27.3013)
(-0.570482 1.73352 27.4513)
(-0.556886 1.77209 27.4245)
(-0.524013 1.79179 27.3979)
(-0.505598 1.81289 27.376)
(-0.479865 1.81053 27.3598)
(-0.461237 1.81033 27.3413)
(-0.441387 1.80452 27.3246)
(-0.421835 1.79394 27.3085)
(-0.39932 1.78115 27.295)
(-0.375837 1.76051 27.2852)
(-0.345665 1.73847 27.2777)
(-0.318951 1.70322 27.271)
(-0.274714 1.67089 27.2621)
(-0.251891 1.61244 27.2568)
(-0.551374 1.74438 27.3933)
(-0.533881 1.78501 27.3736)
(-0.505587 1.8036 27.3495)
(-0.489365 1.8236 27.3308)
(-0.470007 1.82244 27.3133)
(-0.459605 1.82461 27.2938)
(-0.446811 1.82031 27.2766)
(-0.435415 1.81195 27.26)
(-0.419871 1.80101 27.2477)
(-0.40449 1.7824 27.2388)
(-0.381361 1.76201 27.234)
(-0.361429 1.72884 27.2294)
(-0.322147 1.69803 27.2236)
(-0.296909 1.64416 27.217)
(-0.544396 1.74887 27.3418)
(-0.515522 1.78079 27.3263)
(-0.495091 1.80156 27.3024)
(-0.478827 1.82099 27.2857)
(-0.465854 1.8237 27.2663)
(-0.459544 1.82978 27.2471)
(-0.450766 1.82842 27.2291)
(-0.443334 1.82495 27.2123)
(-0.431853 1.81821 27.2007)
(-0.421161 1.80396 27.1929)
(-0.403863 1.78615 27.191)
(-0.388028 1.75584 27.188)
(-0.355742 1.72211 27.184)
(-0.324972 1.67384 27.1741)
(-0.521271 1.75094 27.2981)
(-0.48916 1.7764 27.2827)
(-0.478968 1.80204 27.2581)
(-0.463924 1.82276 27.2413)
(-0.458939 1.82895 27.2206)
(-0.455756 1.83563 27.2013)
(-0.452229 1.83502 27.1825)
(-0.448835 1.83439 27.1659)
(-0.441874 1.83057 27.1547)
(-0.434774 1.82057 27.1486)
(-0.422779 1.80593 27.1505)
(-0.408333 1.77882 27.1494)
(-0.386532 1.74079 27.1459)
(-0.347795 1.70362 27.1327)
(-0.502657 1.74209 27.2479)
(-0.472004 1.76424 27.2327)
(-0.469047 1.7904 27.2101)
(-0.45537 1.81133 27.1935)
(-0.454585 1.8214 27.1739)
(-0.452394 1.83029 27.1552)
(-0.451625 1.83325 27.1363)
(-0.449835 1.83738 27.1197)
(-0.444854 1.83881 27.1085)
(-0.436849 1.83446 27.1035)
(-0.426895 1.8226 27.1068)
(-0.409293 1.79782 27.105)
(-0.400663 1.75473 27.0941)
(-0.360788 1.72235 27.0748)
(-0.479349 1.74123 27.1936)
(-0.449057 1.76359 27.1788)
(-0.449769 1.79084 27.1575)
(-0.438461 1.81181 27.1408)
(-0.441422 1.82284 27.1241)
(-0.441813 1.83073 27.1071)
(-0.444893 1.83331 27.0899)
(-0.446015 1.83776 27.0737)
(-0.445727 1.84075 27.0619)
(-0.440643 1.83923 27.0565)
(-0.434607 1.8296 27.0582)
(-0.41838 1.80992 27.0526)
(-0.42308 1.77568 27.0342)
(-0.392031 1.75673 27.0106)
(-0.455176 1.72511 27.143)
(-0.427217 1.74516 27.1291)
(-0.43058 1.77151 27.1079)
(-0.421024 1.7925 27.0894)
(-0.426211 1.80605 27.0745)
(-0.429425 1.81671 27.0595)
(-0.437243 1.82426 27.0443)
(-0.441375 1.83468 27.0279)
(-0.445077 1.84496 27.0146)
(-0.442607 1.85038 27.007)
(-0.438939 1.84342 27.0031)
(-0.42683 1.82814 26.9912)
(-0.442104 1.80245 26.9667)
(-0.415065 1.78684 26.9354)
(-0.430129 1.72368 27.1073)
(-0.399638 1.74547 27.0948)
(-0.405916 1.77263 27.0703)
(-0.397287 1.79438 27.0454)
(-0.404086 1.80891 27.0281)
(-0.408806 1.81932 27.0139)
(-0.419086 1.82513 27.0007)
(-0.428326 1.83021 26.9836)
(-0.438713 1.83695 26.9669)
(-0.443841 1.84219 26.9537)
(-0.447626 1.83778 26.9434)
(-0.445636 1.8317 26.9263)
(-0.467145 1.82435 26.9048)
(-0.453341 1.82636 26.8813)
(-0.401849 1.69615 27.1041)
(-0.376318 1.71571 27.0897)
(-0.385424 1.74322 27.058)
(-0.378335 1.76543 27.0236)
(-0.388722 1.78125 26.9979)
(-0.398928 1.7953 26.9776)
(-0.412202 1.81174 26.9594)
(-0.424402 1.83194 26.9393)
(-0.436193 1.84953 26.9186)
(-0.443857 1.86144 26.9007)
(-0.449224 1.86652 26.8878)
(-0.450616 1.87181 26.8768)
(-0.460586 1.86955 26.8637)
(-0.448254 1.87401 26.8473)
(-0.71576 1.25263 27.987)
(-0.693931 1.25935 27.9582)
(-0.657942 1.28255 27.9522)
(-0.623961 1.29865 27.933)
(-0.581365 1.31277 27.9235)
(-0.533103 1.31148 27.9106)
(-0.480806 1.31453 27.8987)
(-0.425829 1.30591 27.8845)
(-0.368445 1.29471 27.8722)
(-0.308985 1.27541 27.8609)
(-0.244416 1.25685 27.8493)
(-0.176899 1.23932 27.8286)
(-0.10092 1.21138 27.8182)
(-0.0472818 1.20244 27.7805)
(-0.730563 1.30327 27.9541)
(-0.704868 1.3335 27.9035)
(-0.644535 1.34535 27.8796)
(-0.608238 1.35893 27.8497)
(-0.564873 1.3695 27.8395)
(-0.521196 1.37078 27.8314)
(-0.475775 1.37697 27.8243)
(-0.426405 1.37475 27.8184)
(-0.374186 1.37049 27.8143)
(-0.319465 1.35731 27.8148)
(-0.262158 1.34013 27.8148)
(-0.201322 1.31768 27.8106)
(-0.131901 1.29053 27.8121)
(-0.0817503 1.2623 27.7723)
(-0.698798 1.33983 27.8817)
(-0.684806 1.38421 27.8352)
(-0.626122 1.40235 27.8081)
(-0.59712 1.42684 27.7803)
(-0.558439 1.43468 27.7693)
(-0.521003 1.43599 27.7636)
(-0.481214 1.43653 27.7555)
(-0.436953 1.42924 27.749)
(-0.38888 1.4194 27.7429)
(-0.337398 1.4024 27.7434)
(-0.283589 1.38189 27.7446)
(-0.22812 1.3574 27.7502)
(-0.164989 1.33233 27.7568)
(-0.116916 1.29037 27.7284)
(-0.679559 1.39214 27.795)
(-0.668365 1.43384 27.7601)
(-0.619496 1.45193 27.734)
(-0.594555 1.47684 27.7105)
(-0.559057 1.48126 27.6989)
(-0.525099 1.48196 27.6931)
(-0.488615 1.48053 27.6856)
(-0.447603 1.47413 27.6806)
(-0.402759 1.46563 27.6758)
(-0.354354 1.45076 27.6772)
(-0.303278 1.43258 27.6793)
(-0.252147 1.40722 27.6871)
(-0.191945 1.38021 27.6915)
(-0.150122 1.32626 27.6743)
(-0.652785 1.42733 27.7063)
(-0.643143 1.46856 27.6812)
(-0.604634 1.48948 27.6584)
(-0.583313 1.51623 27.643)
(-0.55187 1.51916 27.6325)
(-0.522397 1.52093 27.6263)
(-0.491409 1.51702 27.618)
(-0.456914 1.50858 27.6119)
(-0.418781 1.49753 27.6071)
(-0.376928 1.48077 27.6079)
(-0.330488 1.46254 27.6098)
(-0.283382 1.43612 27.6161)
(-0.225133 1.40949 27.6184)
(-0.185008 1.35355 27.6128)
(-0.632175 1.46729 27.6312)
(-0.622024 1.50395 27.6104)
(-0.593452 1.52339 27.5897)
(-0.574191 1.54454 27.5774)
(-0.548499 1.54444 27.567)
(-0.524412 1.54678 27.5593)
(-0.49875 1.54316 27.5511)
(-0.470389 1.53629 27.5446)
(-0.438462 1.52654 27.5414)
(-0.403303 1.5103 27.5423)
(-0.362692 1.49252 27.5458)
(-0.320207 1.46624 27.5511)
(-0.265208 1.43821 27.553)
(-0.224716 1.38286 27.5551)
(-0.61278 1.49343 27.5625)
(-0.597845 1.53143 27.5479)
(-0.573025 1.55012 27.5292)
(-0.556391 1.56902 27.5178)
(-0.537049 1.56895 27.5064)
(-0.520671 1.57117 27.4955)
(-0.502108 1.56736 27.4865)
(-0.481419 1.56046 27.4786)
(-0.456574 1.55028 27.4766)
(-0.428943 1.53319 27.4779)
(-0.394935 1.51475 27.4841)
(-0.358536 1.48643 27.4902)
(-0.307684 1.45657 27.4947)
(-0.265971 1.40329 27.4993)
(-0.605447 1.51378 27.5)
(-0.580107 1.54377 27.4872)
(-0.561961 1.5637 27.4683)
(-0.546562 1.58095 27.4572)
(-0.532398 1.58244 27.4444)
(-0.520572 1.58601 27.432)
(-0.505718 1.58284 27.422)
(-0.489062 1.57775 27.413)
(-0.46814 1.56927 27.4117)
(-0.445028 1.55389 27.4139)
(-0.416573 1.53552 27.4228)
(-0.384807 1.50666 27.4301)
(-0.340637 1.47185 27.4386)
(-0.296121 1.42251 27.4416)
(-0.585472 1.53422 27.4454)
(-0.556568 1.55721 27.4316)
(-0.548812 1.58079 27.4119)
(-0.536028 1.59776 27.3998)
(-0.528512 1.59997 27.3852)
(-0.521126 1.60195 27.3713)
(-0.510683 1.59758 27.3597)
(-0.497937 1.59293 27.3497)
(-0.480385 1.58517 27.3484)
(-0.460963 1.57119 27.3521)
(-0.436669 1.55427 27.3641)
(-0.408378 1.52459 27.3728)
(-0.372832 1.48498 27.3856)
(-0.32266 1.44291 27.385)
(-0.570024 1.5406 27.3841)
(-0.543552 1.56042 27.37)
(-0.542948 1.58339 27.3513)
(-0.532572 1.59929 27.3388)
(-0.528899 1.60266 27.3245)
(-0.52307 1.60501 27.3105)
(-0.514572 1.60109 27.2979)
(-0.503118 1.59846 27.2867)
(-0.486332 1.59308 27.2843)
(-0.466921 1.58303 27.2889)
(-0.44495 1.56713 27.3024)
(-0.414739 1.53932 27.3112)
(-0.391891 1.49177 27.3225)
(-0.338019 1.45269 27.3159)
(-0.54794 1.55766 27.3227)
(-0.524863 1.57732 27.3087)
(-0.528137 1.59887 27.2907)
(-0.521531 1.61322 27.2775)
(-0.52293 1.61537 27.2643)
(-0.520674 1.61442 27.2508)
(-0.516209 1.60822 27.2381)
(-0.508382 1.60408 27.2258)
(-0.494952 1.59826 27.221)
(-0.478238 1.58984 27.2252)
(-0.460483 1.57503 27.238)
(-0.429374 1.55297 27.2461)
(-0.418819 1.50732 27.2498)
(-0.370076 1.47743 27.2362)
(-0.530702 1.55391 27.259)
(-0.511465 1.57132 27.2462)
(-0.516627 1.59069 27.2287)
(-0.512908 1.60431 27.2142)
(-0.516626 1.60777 27.2025)
(-0.517593 1.60754 27.1911)
(-0.516398 1.6041 27.1794)
(-0.512206 1.6031 27.1668)
(-0.502572 1.60217 27.1584)
(-0.487472 1.59834 27.1599)
(-0.473611 1.58196 27.1678)
(-0.444686 1.56144 27.1726)
(-0.444797 1.52001 27.1651)
(-0.399781 1.49717 27.144)
(-0.51242 1.5712 27.2128)
(-0.491994 1.58726 27.2001)
(-0.498625 1.6063 27.1796)
(-0.496989 1.61836 27.1594)
(-0.502295 1.6211 27.1456)
(-0.506454 1.61867 27.1342)
(-0.510114 1.61255 27.1225)
(-0.513649 1.60695 27.1088)
(-0.512281 1.60428 27.0972)
(-0.503714 1.59757 27.0937)
(-0.49567 1.58214 27.0946)
(-0.475155 1.56977 27.0966)
(-0.479029 1.54561 27.0856)
(-0.447641 1.54037 27.0672)
(-0.488582 1.56101 27.1943)
(-0.470777 1.57404 27.1773)
(-0.479725 1.59165 27.1499)
(-0.48351 1.60037 27.1212)
(-0.494186 1.60276 27.1001)
(-0.504772 1.60463 27.0836)
(-0.510905 1.60972 27.0673)
(-0.517437 1.6142 27.0517)
(-0.519041 1.62075 27.0369)
(-0.511972 1.61855 27.0257)
(-0.503128 1.60549 27.0185)
(-0.48341 1.59813 27.0189)
(-0.475309 1.58021 27.0119)
(-0.44783 1.58794 26.9955)
(-0.720955 0.950856 28.0469)
(-0.709026 0.95398 28.0277)
(-0.682846 0.969722 28.0255)
(-0.655952 0.981184 28.0203)
(-0.621079 0.992611 28.021)
(-0.576842 0.994645 28.0188)
(-0.527139 1.00248 28.0169)
(-0.47228 1.00191 28.0115)
(-0.414619 1.00059 28.0064)
(-0.353825 0.992686 27.9997)
(-0.28795 0.987048 27.9904)
(-0.217279 0.987933 27.9724)
(-0.136163 0.970222 27.9583)
(-0.0726915 0.989301 27.9323)
(-0.735858 0.994677 28.0149)
(-0.722062 1.0191 27.9786)
(-0.675591 1.02956 27.9623)
(-0.644002 1.03945 27.9458)
(-0.60647 1.04814 27.9444)
(-0.564753 1.05207 27.9456)
(-0.519142 1.06187 27.9467)
(-0.467749 1.06604 27.9473)
(-0.412736 1.07016 27.9483)
(-0.354271 1.06836 27.9526)
(-0.292986 1.06547 27.9555)
(-0.226734 1.0604 27.9524)
(-0.152514 1.04113 27.9537)
(-0.0919329 1.04096 27.9202)
(-0.712213 1.02874 27.9423)
(-0.707024 1.06363 27.9098)
(-0.660681 1.07827 27.8912)
(-0.633675 1.09995 27.8767)
(-0.59783 1.10795 27.8744)
(-0.559892 1.11294 27.8781)
(-0.517012 1.11861 27.8787)
(-0.468478 1.11866 27.879)
(-0.415585 1.11726 27.8781)
(-0.358676 1.11095 27.8824)
(-0.298697 1.1034 27.8865)
(-0.234981 1.09419 27.8925)
(-0.166627 1.07736 27.9008)
(-0.106675 1.05969 27.8733)
(-0.70059 1.0822 27.859)
(-0.695724 1.11603 27.8366)
(-0.656857 1.13071 27.8195)
(-0.63232 1.15245 27.8091)
(-0.597782 1.15743 27.8052)
(-0.561335 1.16066 27.8084)
(-0.519555 1.16323 27.8087)
(-0.472164 1.1628 27.8099)
(-0.420094 1.16124 27.8104)
(-0.363929 1.1556 27.8161)
(-0.304637 1.14833 27.8211)
(-0.242737 1.13732 27.8302)
(-0.176384 1.12036 27.8382)
(-0.120102 1.08828 27.8169)
(-0.681065 1.12126 27.7722)
(-0.676519 1.15514 27.7575)
(-0.644766 1.17253 27.7437)
(-0.622429 1.19604 27.7412)
(-0.589432 1.19972 27.7381)
(-0.555301 1.20299 27.741)
(-0.517051 1.20193 27.74)
(-0.474377 1.19822 27.7399)
(-0.427372 1.1925 27.7405)
(-0.376044 1.18314 27.7459)
(-0.320247 1.17329 27.7515)
(-0.261299 1.15892 27.7599)
(-0.195865 1.14264 27.7658)
(-0.138655 1.10409 27.7553)
(-0.664427 1.16916 27.6994)
(-0.659095 1.19943 27.6874)
(-0.635292 1.21539 27.6751)
(-0.614023 1.23216 27.674)
(-0.585535 1.23217 27.6706)
(-0.555195 1.23479 27.6718)
(-0.521218 1.2321 27.6706)
(-0.483351 1.22795 27.6697)
(-0.441395 1.22126 27.672)
(-0.395155 1.21012 27.6777)
(-0.343806 1.19842 27.6854)
(-0.288314 1.18242 27.6938)
(-0.224437 1.1625 27.6982)
(-0.164631 1.12102 27.6984)
(-0.648406 1.20598 27.6306)
(-0.638712 1.23755 27.6235)
(-0.617408 1.25315 27.6133)
(-0.59826 1.2669 27.6118)
(-0.575617 1.26565 27.6074)
(-0.551399 1.26657 27.605)
(-0.523833 1.26177 27.6026)
(-0.492304 1.25551 27.6001)
(-0.45647 1.24595 27.6034)
(-0.416344 1.23124 27.6095)
(-0.370524 1.21642 27.6207)
(-0.31962 1.19564 27.6305)
(-0.2583 1.17039 27.6375)
(-0.198687 1.12544 27.6456)
(-0.64469 1.23914 27.5671)
(-0.625799 1.26335 27.5598)
(-0.609638 1.27956 27.5497)
(-0.592127 1.2909 27.5466)
(-0.573572 1.28946 27.5415)
(-0.553226 1.28949 27.5365)
(-0.529183 1.28316 27.5332)
(-0.500938 1.27625 27.5296)
(-0.468361 1.26599 27.5338)
(-0.431729 1.25016 27.5412)
(-0.390198 1.2328 27.5561)
(-0.342913 1.20858 27.568)
(-0.286463 1.1765 27.5802)
(-0.227649 1.13098 27.591)
(-0.629921 1.27296 27.5095)
(-0.609338 1.29104 27.5006)
(-0.602326 1.30954 27.49)
(-0.588531 1.31956 27.4844)
(-0.575344 1.31707 27.478)
(-0.559824 1.31373 27.4703)
(-0.53961 1.30464 27.4655)
(-0.514193 1.2957 27.4608)
(-0.483863 1.28356 27.4652)
(-0.449489 1.26638 27.4746)
(-0.410517 1.24784 27.4931)
(-0.365769 1.21981 27.5069)
(-0.314596 1.18303 27.5255)
(-0.254159 1.13805 27.5347)
(-0.619414 1.29173 27.4426)
(-0.603566 1.30801 27.4339)
(-0.60306 1.32506 27.4238)
(-0.591907 1.3332 27.4177)
(-0.581514 1.33017 27.4113)
(-0.568056 1.32518 27.4027)
(-0.549337 1.31413 27.3966)
(-0.524545 1.30415 27.3908)
(-0.494368 1.29177 27.3946)
(-0.459763 1.27539 27.4056)
(-0.421972 1.25486 27.426)
(-0.375818 1.22731 27.4408)
(-0.336183 1.18252 27.4643)
(-0.271816 1.13916 27.4697)
(-0.60279 1.32278 27.375)
(-0.591515 1.33887 27.3676)
(-0.596485 1.35237 27.3584)
(-0.590292 1.358 27.3521)
(-0.585007 1.35232 27.347)
(-0.576409 1.34211 27.3379)
(-0.561595 1.32717 27.3302)
(-0.539926 1.31387 27.3235)
(-0.512359 1.29945 27.3251)
(-0.480488 1.28249 27.3364)
(-0.445395 1.26177 27.3562)
(-0.39963 1.23766 27.3716)
(-0.365247 1.19336 27.3945)
(-0.301207 1.15459 27.395)
(-0.593922 1.33273 27.3001)
(-0.585852 1.34534 27.2945)
(-0.5937 1.35562 27.2877)
(-0.592012 1.36038 27.2819)
(-0.58879 1.35482 27.2795)
(-0.58253 1.34353 27.2724)
(-0.570604 1.32899 27.264)
(-0.552647 1.31554 27.257)
(-0.528876 1.30286 27.255)
(-0.500466 1.288 27.2643)
(-0.469296 1.26488 27.2797)
(-0.425148 1.24075 27.2946)
(-0.397171 1.19237 27.3124)
(-0.333533 1.15781 27.304)
(-0.58088 1.36552 27.2442)
(-0.57394 1.37578 27.2383)
(-0.584266 1.38372 27.23)
(-0.586538 1.38542 27.2206)
(-0.585238 1.37622 27.217)
(-0.583479 1.36069 27.2097)
(-0.578653 1.34326 27.2004)
(-0.569575 1.32605 27.1936)
(-0.553051 1.31207 27.1878)
(-0.531482 1.2951 27.1941)
(-0.504424 1.27218 27.202)
(-0.463913 1.25297 27.2169)
(-0.438115 1.2113 27.229)
(-0.385673 1.19269 27.2195)
(-0.567338 1.36618 27.2057)
(-0.561043 1.36951 27.1966)
(-0.574511 1.37781 27.1823)
(-0.585502 1.37445 27.1685)
(-0.591196 1.36644 27.1586)
(-0.592933 1.35766 27.1487)
(-0.589743 1.34945 27.1368)
(-0.58371 1.33673 27.1285)
(-0.570349 1.32689 27.1184)
(-0.549334 1.31165 27.1187)
(-0.522057 1.28534 27.1168)
(-0.48093 1.25928 27.1277)
(-0.450804 1.2217 27.1401)
(-0.398821 1.23074 27.1321)
(-0.704527 0.670961 27.9718)
(-0.699891 0.671246 27.9633)
(-0.679358 0.682392 27.9634)
(-0.65773 0.690854 27.9654)
(-0.628644 0.700725 27.9716)
(-0.590172 0.705355 27.9755)
(-0.546828 0.716076 27.979)
(-0.497767 0.721622 27.9776)
(-0.445648 0.727424 27.9756)
(-0.389399 0.728744 27.9701)
(-0.327813 0.732918 27.9599)
(-0.262902 0.748056 27.9403)
(-0.182939 0.742634 27.9214)
(-0.121049 0.779034 27.8993)
(-0.718613 0.707391 27.9404)
(-0.712555 0.726492 27.9168)
(-0.674351 0.735457 27.9074)
(-0.647715 0.742236 27.8974)
(-0.615245 0.749636 27.9014)
(-0.578246 0.755333 27.9076)
(-0.537186 0.766914 27.9128)
(-0.489972 0.775971 27.9153)
(-0.438317 0.786443 27.9172)
(-0.38207 0.794297 27.9208)
(-0.322748 0.803763 27.9226)
(-0.260102 0.814915 27.916)
(-0.186383 0.806734 27.9138)
(-0.128035 0.825656 27.883)
(-0.700576 0.736936 27.8703)
(-0.700663 0.764462 27.8498)
(-0.662737 0.77615 27.8387)
(-0.63901 0.793975 27.8302)
(-0.606286 0.801159 27.8338)
(-0.570747 0.807808 27.8421)
(-0.529819 0.816127 27.8472)
(-0.483225 0.821695 27.8494)
(-0.431973 0.827279 27.8495)
(-0.375787 0.83069 27.8527)
(-0.315795 0.835541 27.8547)
(-0.252134 0.841372 27.8554)
(-0.18296 0.834514 27.8599)
(-0.123448 0.836901 27.8323)
(-0.694519 0.788281 27.792)
(-0.694001 0.815596 27.7796)
(-0.661844 0.827283 27.7703)
(-0.63898 0.844053 27.766)
(-0.606344 0.847886 27.7679)
(-0.570698 0.851836 27.7752)
(-0.52891 0.856653 27.7795)
(-0.481253 0.860994 27.7821)
(-0.428496 0.865955 27.7831)
(-0.370704 0.869502 27.7878)
(-0.309173 0.874275 27.7901)
(-0.244221 0.878357 27.7937)
(-0.175502 0.872938 27.798)
(-0.116901 0.864188 27.7722)
(-0.681001 0.8277 27.7083)
(-0.680348 0.855039 27.702)
(-0.653194 0.868792 27.696)
(-0.631078 0.887048 27.7004)
(-0.598015 0.889447 27.7032)
(-0.562781 0.892646 27.7101)
(-0.522579 0.89354 27.7131)
(-0.477581 0.893913 27.714)
(-0.427813 0.894088 27.7151)
(-0.372945 0.892996 27.7196)
(-0.31351 0.894125 27.7223)
(-0.249627 0.892927 27.7257)
(-0.181604 0.889549 27.7268)
(-0.119823 0.872936 27.708)
(-0.668854 0.878658 27.637)
(-0.666904 0.902722 27.6327)
(-0.645845 0.914176 27.6282)
(-0.624437 0.924639 27.634)
(-0.594694 0.92342 27.6371)
(-0.561637 0.92537 27.6425)
(-0.524021 0.923758 27.6448)
(-0.481922 0.922467 27.6453)
(-0.43518 0.920441 27.6479)
(-0.383438 0.916397 27.6529)
(-0.326646 0.914256 27.6578)
(-0.264915 0.909872 27.6616)
(-0.197713 0.904072 27.6602)
(-0.130191 0.882203 27.6515)
(-0.657806 0.920424 27.5673)
(-0.651205 0.945611 27.5668)
(-0.631259 0.956456 27.5652)
(-0.61147 0.963794 27.5712)
(-0.586691 0.960279 27.574)
(-0.557996 0.959731 27.5764)
(-0.524772 0.95489 27.5777)
(-0.48668 0.950099 27.5772)
(-0.443829 0.943738 27.5809)
(-0.396137 0.93467 27.5865)
(-0.343035 0.927745 27.5949)
(-0.284578 0.917291 27.6007)
(-0.219008 0.904978 27.6002)
(-0.150719 0.873784 27.602)
(-0.658273 0.960172 27.5017)
(-0.64426 0.978336 27.4997)
(-0.627906 0.989276 27.4989)
(-0.608842 0.994311 27.5036)
(-0.586971 0.989112 27.5069)
(-0.560366 0.98601 27.5074)
(-0.529006 0.978057 27.5083)
(-0.492291 0.970993 27.508)
(-0.450856 0.962381 27.5133)
(-0.404809 0.950185 27.5208)
(-0.353719 0.938827 27.5337)
(-0.297249 0.923342 27.5421)
(-0.23397 0.903959 27.5456)
(-0.168253 0.867414 27.5529)
(-0.648821 1.00098 27.4402)
(-0.636891 1.01467 27.4362)
(-0.626719 1.02563 27.434)
(-0.610711 1.02881 27.4367)
(-0.593277 1.02122 27.4406)
(-0.569828 1.01352 27.4399)
(-0.540616 1.00166 27.4405)
(-0.504845 0.990853 27.4403)
(-0.463808 0.978519 27.4468)
(-0.418072 0.962764 27.4569)
(-0.367652 0.9475 27.4748)
(-0.311681 0.927064 27.4861)
(-0.249702 0.903431 27.4954)
(-0.184128 0.863267 27.5037)
(-0.646622 1.0299 27.3687)
(-0.638326 1.0396 27.3651)
(-0.633015 1.04874 27.3623)
(-0.618899 1.05086 27.3641)
(-0.603713 1.04112 27.3694)
(-0.580989 1.02946 27.3697)
(-0.552069 1.01383 27.3705)
(-0.516146 0.999777 27.3712)
(-0.474567 0.985282 27.3787)
(-0.427887 0.967582 27.3922)
(-0.37677 0.947893 27.4143)
(-0.319692 0.923733 27.4286)
(-0.262681 0.893875 27.4442)
(-0.194694 0.854191 27.4509)
(-0.638518 1.07026 27.2984)
(-0.633186 1.07849 27.2948)
(-0.634154 1.08284 27.2919)
(-0.625384 1.08205 27.2932)
(-0.614996 1.06818 27.2994)
(-0.595837 1.04925 27.3014)
(-0.569673 1.02905 27.3031)
(-0.536227 1.01061 27.3052)
(-0.496098 0.992153 27.3122)
(-0.450545 0.971424 27.3281)
(-0.400272 0.948973 27.352)
(-0.343532 0.925046 27.3681)
(-0.286857 0.895677 27.3866)
(-0.217138 0.859062 27.3914)
(-0.639968 1.08928 27.2216)
(-0.63643 1.09484 27.217)
(-0.641518 1.09693 27.2153)
(-0.635807 1.09288 27.2167)
(-0.625511 1.07843 27.2256)
(-0.607269 1.0569 27.2304)
(-0.582874 1.0347 27.2344)
(-0.553241 1.01313 27.2387)
(-0.516474 0.992822 27.2444)
(-0.474527 0.970619 27.2613)
(-0.427261 0.94418 27.2834)
(-0.371886 0.91872 27.3008)
(-0.317157 0.882989 27.321)
(-0.244651 0.847082 27.3243)
(-0.63699 1.12979 27.1662)
(-0.633778 1.13334 27.1583)
(-0.642975 1.1315 27.1516)
(-0.637984 1.12196 27.1481)
(-0.62876 1.1023 27.1548)
(-0.618379 1.07529 27.1613)
(-0.601324 1.05034 27.1683)
(-0.580322 1.02532 27.1765)
(-0.549258 1.0014 27.1806)
(-0.512299 0.976431 27.1968)
(-0.467234 0.94867 27.2132)
(-0.414405 0.92416 27.2322)
(-0.3579 0.890942 27.2522)
(-0.289246 0.862059 27.2574)
(-0.636377 1.14227 27.1271)
(-0.632678 1.136 27.117)
(-0.646748 1.13212 27.0996)
(-0.651721 1.11606 27.0887)
(-0.644619 1.10191 27.0856)
(-0.636673 1.08266 27.092)
(-0.620794 1.06038 27.0996)
(-0.602493 1.03402 27.1094)
(-0.573628 1.00849 27.1116)
(-0.538256 0.981978 27.1246)
(-0.494727 0.947816 27.1342)
(-0.437476 0.916817 27.1515)
(-0.378937 0.87429 27.1762)
(-0.304961 0.872484 27.1841)
(-0.678739 0.401114 27.8255)
(-0.68029 0.399997 27.8186)
(-0.663911 0.407837 27.8139)
(-0.647204 0.413379 27.8137)
(-0.625034 0.42239 27.8177)
(-0.594416 0.429019 27.8212)
(-0.558872 0.441585 27.8242)
(-0.517335 0.45116 27.8226)
(-0.472892 0.461504 27.8207)
(-0.424823 0.469094 27.8159)
(-0.372135 0.479158 27.8052)
(-0.317834 0.502457 27.7847)
(-0.245675 0.507784 27.7624)
(-0.193456 0.551683 27.7427)
(-0.690071 0.432742 27.7927)
(-0.692336 0.445312 27.7734)
(-0.659806 0.453777 27.7614)
(-0.639632 0.457852 27.7498)
(-0.613938 0.464308 27.7516)
(-0.584149 0.471069 27.7564)
(-0.549845 0.483381 27.7604)
(-0.509034 0.495318 27.7608)
(-0.463309 0.509417 27.761)
(-0.413038 0.523675 27.7624)
(-0.359809 0.541184 27.7626)
(-0.305656 0.563568 27.7533)
(-0.237649 0.566415 27.747)
(-0.187865 0.59676 27.7195)
(-0.67789 0.456768 27.7243)
(-0.683878 0.476576 27.7069)
(-0.652043 0.487358 27.6942)
(-0.632967 0.499974 27.6827)
(-0.605867 0.506773 27.6853)
(-0.575379 0.514322 27.692)
(-0.539444 0.524441 27.6963)
(-0.497666 0.533796 27.6962)
(-0.451207 0.544212 27.6948)
(-0.399822 0.554583 27.6951)
(-0.344391 0.568021 27.6943)
(-0.286087 0.584392 27.6895)
(-0.219458 0.586619 27.6888)
(-0.164947 0.602808 27.6624)
(-0.676595 0.503568 27.6501)
(-0.680873 0.524511 27.6378)
(-0.654824 0.535125 27.6274)
(-0.634962 0.546009 27.6195)
(-0.606722 0.548885 27.6213)
(-0.574599 0.552992 27.6268)
(-0.536566 0.559695 27.6298)
(-0.492419 0.567792 27.6292)
(-0.442868 0.577758 27.6284)
(-0.387814 0.588288 27.6298)
(-0.328822 0.602249 27.6287)
(-0.266941 0.618086 27.6258)
(-0.199267 0.62267 27.6244)
(-0.144093 0.631028 27.5957)
(-0.670415 0.539943 27.57)
(-0.673077 0.561746 27.5618)
(-0.650674 0.573195 27.5545)
(-0.62886 0.585899 27.5555)
(-0.598754 0.587438 27.5583)
(-0.56547 0.590552 27.5633)
(-0.52749 0.593941 27.5645)
(-0.484381 0.598262 27.562)
(-0.436145 0.603867 27.5606)
(-0.382405 0.609828 27.5618)
(-0.324561 0.620742 27.5604)
(-0.261837 0.630872 27.5573)
(-0.194673 0.63823 27.5527)
(-0.135371 0.639144 27.5271)
(-0.663763 0.588843 27.5012)
(-0.663726 0.608162 27.4943)
(-0.645336 0.616311 27.488)
(-0.623979 0.621292 27.4904)
(-0.595882 0.619857 27.4933)
(-0.563506 0.621791 27.4963)
(-0.52642 0.623062 27.4966)
(-0.484413 0.62562 27.4937)
(-0.437456 0.629113 27.493)
(-0.385344 0.632378 27.4947)
(-0.32881 0.640082 27.4948)
(-0.266446 0.646014 27.4931)
(-0.199856 0.653242 27.4861)
(-0.131816 0.64852 27.4702)
(-0.658608 0.630615 27.4337)
(-0.652515 0.650387 27.4301)
(-0.633997 0.657803 27.4258)
(-0.613733 0.660784 27.4284)
(-0.589188 0.656781 27.4304)
(-0.559551 0.656463 27.4305)
(-0.524558 0.65461 27.4296)
(-0.484311 0.653539 27.4263)
(-0.439226 0.652888 27.4259)
(-0.389466 0.651462 27.428)
(-0.335028 0.654338 27.431)
(-0.274602 0.653645 27.4318)
(-0.20927 0.655126 27.4253)
(-0.13801 0.637553 27.4211)
(-0.661268 0.67138 27.3693)
(-0.650451 0.685036 27.3651)
(-0.634138 0.691703 27.3616)
(-0.614141 0.693449 27.3619)
(-0.590669 0.68716 27.3632)
(-0.56126 0.683947 27.3613)
(-0.526048 0.678706 27.36)
(-0.485314 0.675189 27.3577)
(-0.439857 0.672227 27.3587)
(-0.389983 0.667505 27.3623)
(-0.335348 0.665554 27.3698)
(-0.275186 0.659377 27.3739)
(-0.210271 0.654801 27.3709)
(-0.141206 0.628784 27.3741)
(-0.659388 0.716523 27.3078)
(-0.650793 0.725592 27.3033)
(-0.638504 0.729208 27.2995)
(-0.62052 0.729467 27.2968)
(-0.599051 0.720101 27.2971)
(-0.570391 0.712756 27.2939)
(-0.535056 0.703511 27.2916)
(-0.493223 0.696134 27.2902)
(-0.446137 0.689172 27.2924)
(-0.39463 0.68041 27.2984)
(-0.338709 0.673521 27.3115)
(-0.277451 0.66203 27.3193)
(-0.211844 0.654205 27.321)
(-0.143603 0.623298 27.327)
(-0.665497 0.750686 27.2366)
(-0.656844 0.756079 27.2329)
(-0.647558 0.755825 27.2312)
(-0.630689 0.755142 27.2281)
(-0.609602 0.742556 27.2282)
(-0.57982 0.730747 27.2244)
(-0.54328 0.717325 27.2214)
(-0.499961 0.70628 27.2214)
(-0.450897 0.696501 27.2254)
(-0.396945 0.685127 27.2351)
(-0.339009 0.673045 27.2542)
(-0.27645 0.656287 27.2658)
(-0.211851 0.644607 27.2722)
(-0.143255 0.612402 27.278)
(-0.666345 0.796737 27.1647)
(-0.658163 0.798882 27.1624)
(-0.654978 0.792985 27.1635)
(-0.640046 0.788077 27.1613)
(-0.622447 0.76938 27.1626)
(-0.594675 0.750682 27.1582)
(-0.559543 0.733208 27.1541)
(-0.517091 0.717742 27.1552)
(-0.467706 0.703153 27.16)
(-0.41236 0.687859 27.1729)
(-0.352909 0.671084 27.1956)
(-0.288918 0.654008 27.2094)
(-0.225934 0.643008 27.2186)