/*--------------------------------*- C++ -*----------------------------------*\
| =========                 |                                                 |
| \\      /  F ield         | OpenFOAM: The Open Source CFD Toolbox           |
|  \\    /   O peration     | Version:  v2106                                 |
|   \\  /    A nd           | Website:  www.openfoam.com                      |
|    \\/     M anipulation  |                                                 |
\*---------------------------------------------------------------------------*/
FoamFile
{
    version     2.0;
    format      ascii;
    arch        "LSB;label=32;scalar=64";
    class       volScalarField;
    location    "0.000201";
    object      nut;
}
// * * * * * * * * * * * * * * * * * * * * * * * * * * * * * * * * * * * * * //

dimensions      [0 2 -1 0 0 0 0];

internalField   nonuniform List<scalar> 
17924
(
4.05718e-17
3.70198e-17
3.62553e-17
3.61132e-17
3.65829e-17
3.61338e-17
3.60349e-17
3.60174e-17
3.60188e-17
3.60259e-17
3.60361e-17
3.70916e-17
3.62523e-17
3.60521e-17
3.60109e-17
3.60044e-17
3.6005e-17
3.60071e-17
3.79429e-17
3.64587e-17
3.60942e-17
3.60165e-17
3.60027e-17
3.60016e-17
3.60027e-17
3.8947e-17
3.66972e-17
3.61425e-17
3.60233e-17
3.60018e-17
3.59995e-17
3.60004e-17
3.98888e-17
3.68974e-17
3.61775e-17
3.60266e-17
3.6e-17
3.59972e-17
3.59982e-17
4.06743e-17
3.70293e-17
3.61924e-17
3.60254e-17
3.59974e-17
3.59947e-17
3.59958e-17
4.13951e-17
3.71237e-17
3.61964e-17
3.60219e-17
3.59945e-17
3.59923e-17
3.59934e-17
4.20725e-17
3.71941e-17
3.61951e-17
3.6018e-17
3.59923e-17
3.59908e-17
3.59921e-17
4.26469e-17
3.72374e-17
3.61914e-17
3.60171e-17
3.59953e-17
3.59961e-17
3.59985e-17
4.31202e-17
3.72617e-17
3.61943e-17
3.60331e-17
3.60254e-17
3.6037e-17
3.60453e-17
4.3467e-17
3.72859e-17
3.62366e-17
3.61275e-17
3.61807e-17
3.62439e-17
3.62815e-17
4.42894e-17
3.75004e-17
3.64615e-17
3.65437e-17
3.68532e-17
3.71437e-17
3.73151e-17
4.81595e-17
3.86854e-17
3.73903e-17
3.81443e-17
3.94494e-17
4.06652e-17
4.14153e-17
6.41328e-17
4.41258e-17
4.10293e-17
4.3783e-17
4.85505e-17
5.32196e-17
5.63068e-17
3.60602e-17
3.60072e-17
3.5996e-17
3.59943e-17
3.59948e-17
3.59963e-17
3.59983e-17
3.60006e-17
3.60025e-17
3.60035e-17
3.6003e-17
3.60016e-17
3.60011e-17
3.6005e-17
3.61241e-17
3.60206e-17
3.5996e-17
3.59911e-17
3.59905e-17
3.5991e-17
3.59919e-17
3.5993e-17
3.59942e-17
3.59955e-17
3.59966e-17
3.59971e-17
3.59984e-17
3.60046e-17
3.62307e-17
3.60447e-17
3.59989e-17
3.59893e-17
3.59879e-17
3.59883e-17
3.59892e-17
3.59904e-17
3.59916e-17
3.59929e-17
3.59941e-17
3.59949e-17
3.59968e-17
3.60046e-17
3.63574e-17
3.60729e-17
3.60026e-17
3.59879e-17
3.59856e-17
3.5986e-17
3.5987e-17
3.59883e-17
3.59895e-17
3.59907e-17
3.59918e-17
3.59927e-17
3.59946e-17
3.60034e-17
3.64741e-17
3.6096e-17
3.60048e-17
3.5986e-17
3.59832e-17
3.59838e-17
3.59849e-17
3.59862e-17
3.59876e-17
3.59888e-17
3.59899e-17
3.59907e-17
3.59926e-17
3.60021e-17
3.65652e-17
3.61097e-17
3.60043e-17
3.59837e-17
3.59809e-17
3.59815e-17
3.59828e-17
3.59842e-17
3.59855e-17
3.59868e-17
3.59878e-17
3.59887e-17
3.59905e-17
3.60005e-17
3.66417e-17
3.61178e-17
3.60024e-17
3.59812e-17
3.59785e-17
3.59793e-17
3.59806e-17
3.59821e-17
3.59835e-17
3.59848e-17
3.59859e-17
3.59869e-17
3.59885e-17
3.59986e-17
3.6706e-17
3.61221e-17
3.59998e-17
3.59786e-17
3.59762e-17
3.59772e-17
3.59785e-17
3.59801e-17
3.59814e-17
3.59828e-17
3.59838e-17
3.59849e-17
3.59865e-17
3.59957e-17
3.67512e-17
3.61225e-17
3.59968e-17
3.59763e-17
3.59744e-17
3.59756e-17
3.59771e-17
3.59786e-17
3.598e-17
3.59813e-17
3.59823e-17
3.59834e-17
3.59847e-17
3.59924e-17
3.67764e-17
3.61199e-17
3.59943e-17
3.59755e-17
3.59751e-17
3.59773e-17
3.59794e-17
3.5981e-17
3.5982e-17
3.59828e-17
3.59834e-17
3.59841e-17
3.59848e-17
3.59903e-17
3.67738e-17
3.61151e-17
3.59955e-17
3.59823e-17
3.59879e-17
3.59951e-17
3.59998e-17
3.60016e-17
3.60011e-17
3.59996e-17
3.59976e-17
3.5996e-17
3.59943e-17
3.59975e-17
3.67812e-17
3.61227e-17
3.6014e-17
3.60211e-17
3.60523e-17
3.60814e-17
3.60982e-17
3.61016e-17
3.60953e-17
3.60838e-17
3.60701e-17
3.60577e-17
3.60457e-17
3.60447e-17
3.69569e-17
3.61929e-17
3.60981e-17
3.61806e-17
3.63127e-17
3.64314e-17
3.64986e-17
3.65121e-17
3.64862e-17
3.64371e-17
3.63782e-17
3.63231e-17
3.62695e-17
3.62526e-17
3.79065e-17
3.64963e-17
3.64022e-17
3.67427e-17
3.7238e-17
3.76915e-17
3.79561e-17
3.80281e-17
3.79537e-17
3.77869e-17
3.75768e-17
3.73754e-17
3.7174e-17
3.70896e-17
3.59896e-17
3.59839e-17
3.59828e-17
3.59824e-17
3.59823e-17
3.59824e-17
3.59828e-17
3.59834e-17
3.59842e-17
3.5985e-17
3.59857e-17
3.59861e-17
3.59865e-17
3.59862e-17
3.59953e-17
3.59836e-17
3.59804e-17
3.59794e-17
3.59789e-17
3.59788e-17
3.5979e-17
3.59794e-17
3.59801e-17
3.59809e-17
3.5982e-17
3.59826e-17
3.59833e-17
3.59837e-17
3.60057e-17
3.59839e-17
3.59778e-17
3.59762e-17
3.59757e-17
3.59757e-17
3.59759e-17
3.59764e-17
3.59772e-17
3.5978e-17
3.5979e-17
3.59797e-17
3.59807e-17
3.59815e-17
3.60181e-17
3.59845e-17
3.59755e-17
3.59733e-17
3.59728e-17
3.59728e-17
3.59731e-17
3.59736e-17
3.59744e-17
3.59752e-17
3.59761e-17
3.59767e-17
3.59775e-17
3.59786e-17
3.60291e-17
3.59844e-17
3.5973e-17
3.59705e-17
3.597e-17
3.59701e-17
3.59705e-17
3.59711e-17
3.59719e-17
3.59727e-17
3.59736e-17
3.59741e-17
3.59748e-17
3.59759e-17
3.60367e-17
3.59834e-17
3.59705e-17
3.59679e-17
3.59674e-17
3.59676e-17
3.5968e-17
3.59687e-17
3.59695e-17
3.59704e-17
3.59712e-17
3.59719e-17
3.59724e-17
3.59736e-17
3.60424e-17
3.59819e-17
3.5968e-17
3.59654e-17
3.5965e-17
3.59653e-17
3.59658e-17
3.59665e-17
3.59674e-17
3.59684e-17
3.59692e-17
3.597e-17
3.59705e-17
3.59717e-17
3.60462e-17
3.59799e-17
3.59655e-17
3.59631e-17
3.59627e-17
3.59631e-17
3.59637e-17
3.59645e-17
3.59654e-17
3.59665e-17
3.59673e-17
3.59682e-17
3.59687e-17
3.59699e-17
3.60478e-17
3.59776e-17
3.59632e-17
3.59609e-17
3.59607e-17
3.59612e-17
3.59618e-17
3.59627e-17
3.59637e-17
3.59648e-17
3.59657e-17
3.59667e-17
3.59672e-17
3.59683e-17
3.60469e-17
3.59748e-17
3.59609e-17
3.59589e-17
3.59589e-17
3.59596e-17
3.59604e-17
3.59614e-17
3.59624e-17
3.59635e-17
3.59645e-17
3.59656e-17
3.59661e-17
3.59671e-17
3.60426e-17
3.59719e-17
3.59589e-17
3.59576e-17
3.59584e-17
3.59596e-17
3.59607e-17
3.59618e-17
3.59627e-17
3.59638e-17
3.59647e-17
3.59657e-17
3.5966e-17
3.59668e-17
3.60373e-17
3.59695e-17
3.59585e-17
3.59593e-17
3.59626e-17
3.59659e-17
3.59682e-17
3.59694e-17
3.59698e-17
3.59699e-17
3.59698e-17
3.59698e-17
3.59689e-17
3.59689e-17
3.60426e-17
3.59721e-17
3.59641e-17
3.59724e-17
3.59855e-17
3.59971e-17
3.60039e-17
3.60056e-17
3.60036e-17
3.59997e-17
3.5995e-17
3.59904e-17
3.59851e-17
3.59822e-17
3.60963e-17
3.59919e-17
3.59904e-17
3.60251e-17
3.60734e-17
3.61163e-17
3.614e-17
3.61444e-17
3.61347e-17
3.61164e-17
3.60946e-17
3.60734e-17
3.60521e-17
3.60383e-17
3.59747e-17
3.59738e-17
3.59733e-17
3.59728e-17
3.59723e-17
3.59721e-17
3.59721e-17
3.59723e-17
3.59727e-17
3.59733e-17
3.59742e-17
3.59749e-17
3.59756e-17
3.59753e-17
3.59733e-17
3.59718e-17
3.59706e-17
3.59698e-17
3.5969e-17
3.59686e-17
3.59684e-17
3.59685e-17
3.59688e-17
3.59694e-17
3.59703e-17
3.5971e-17
3.59718e-17
3.5972e-17
3.59723e-17
3.59692e-17
3.59673e-17
3.59664e-17
3.59656e-17
3.59652e-17
3.5965e-17
3.59651e-17
3.59654e-17
3.5966e-17
3.59668e-17
3.59675e-17
3.59685e-17
3.59689e-17
3.59709e-17
3.59664e-17
3.59642e-17
3.59632e-17
3.59624e-17
3.5962e-17
3.59618e-17
3.59618e-17
3.59621e-17
3.59626e-17
3.59632e-17
3.59637e-17
3.59647e-17
3.59652e-17
3.59692e-17
3.59635e-17
3.59612e-17
3.59601e-17
3.59593e-17
3.5959e-17
3.59588e-17
3.59588e-17
3.5959e-17
3.59595e-17
3.596e-17
3.59605e-17
3.59613e-17
3.59619e-17
3.59673e-17
3.59607e-17
3.59583e-17
3.59573e-17
3.59566e-17
3.59562e-17
3.5956e-17
3.5956e-17
3.59562e-17
3.59566e-17
3.59571e-17
3.59576e-17
3.59581e-17
3.59588e-17
3.59654e-17
3.59582e-17
3.59557e-17
3.59547e-17
3.5954e-17
3.59537e-17
3.59535e-17
3.59535e-17
3.59536e-17
3.5954e-17
3.59546e-17
3.59551e-17
3.59555e-17
3.59563e-17
3.59633e-17
3.59556e-17
3.59532e-17
3.59523e-17
3.59517e-17
3.59514e-17
3.59512e-17
3.59513e-17
3.59514e-17
3.59518e-17
3.59523e-17
3.59529e-17
3.59533e-17
3.5954e-17
3.59611e-17
3.59532e-17
3.59509e-17
3.59502e-17
3.59497e-17
3.59494e-17
3.59493e-17
3.59494e-17
3.59496e-17
3.595e-17
3.59505e-17
3.59511e-17
3.59515e-17
3.59522e-17
3.59588e-17
3.59507e-17
3.59488e-17
3.59482e-17
3.59478e-17
3.59476e-17
3.59476e-17
3.59478e-17
3.59481e-17
3.59485e-17
3.5949e-17
3.59498e-17
3.59502e-17
3.59508e-17
3.59565e-17
3.59486e-17
3.5947e-17
3.59465e-17
3.59463e-17
3.59463e-17
3.59464e-17
3.59467e-17
3.5947e-17
3.59475e-17
3.59482e-17
3.59491e-17
3.59493e-17
3.59499e-17
3.59537e-17
3.59464e-17
3.59453e-17
3.59452e-17
3.59454e-17
3.59457e-17
3.5946e-17
3.59464e-17
3.59467e-17
3.59473e-17
3.59479e-17
3.59487e-17
3.59487e-17
3.5949e-17
3.59516e-17
3.59445e-17
3.59444e-17
3.59451e-17
3.59463e-17
3.59474e-17
3.59483e-17
3.59488e-17
3.5949e-17
3.59492e-17
3.59494e-17
3.59495e-17
3.59487e-17
3.5948e-17
3.59528e-17
3.59438e-17
3.59451e-17
3.59486e-17
3.59533e-17
3.59574e-17
3.59599e-17
3.59604e-17
3.59599e-17
3.59585e-17
3.59569e-17
3.59548e-17
3.59524e-17
3.59502e-17
3.59652e-17
3.59646e-17
3.59642e-17
3.59637e-17
3.59632e-17
3.59629e-17
3.59628e-17
3.5963e-17
3.59633e-17
3.59639e-17
3.59647e-17
3.59655e-17
3.59664e-17
3.59662e-17
3.59631e-17
3.59626e-17
3.59616e-17
3.59609e-17
3.59602e-17
3.59597e-17
3.59595e-17
3.59595e-17
3.59598e-17
3.59603e-17
3.59611e-17
3.59617e-17
3.59626e-17
3.59628e-17
3.59609e-17
3.59598e-17
3.59586e-17
3.59578e-17
3.5957e-17
3.59565e-17
3.59563e-17
3.59563e-17
3.59565e-17
3.5957e-17
3.59577e-17
3.59583e-17
3.59593e-17
3.59597e-17
3.59581e-17
3.59568e-17
3.59556e-17
3.59548e-17
3.5954e-17
3.59535e-17
3.59532e-17
3.59531e-17
3.59533e-17
3.59536e-17
3.59542e-17
3.59546e-17
3.59556e-17
3.59561e-17
3.59551e-17
3.59538e-17
3.59526e-17
3.59518e-17
3.59511e-17
3.59506e-17
3.59503e-17
3.59502e-17
3.59503e-17
3.59506e-17
3.5951e-17
3.59515e-17
3.59523e-17
3.59528e-17
3.59522e-17
3.59509e-17
3.59499e-17
3.59491e-17
3.59484e-17
3.59479e-17
3.59476e-17
3.59474e-17
3.59474e-17
3.59477e-17
3.5948e-17
3.59485e-17
3.59491e-17
3.59497e-17
3.59496e-17
3.59484e-17
3.59473e-17
3.59466e-17
3.59459e-17
3.59455e-17
3.59451e-17
3.59449e-17
3.59449e-17
3.5945e-17
3.59454e-17
3.59459e-17
3.59463e-17
3.59471e-17
3.59471e-17
3.59459e-17
3.59449e-17
3.59444e-17
3.59437e-17
3.59433e-17
3.59429e-17
3.59427e-17
3.59425e-17
3.59427e-17
3.59429e-17
3.59434e-17
3.59438e-17
3.59447e-17
3.59448e-17
3.59436e-17
3.59429e-17
3.59424e-17
3.59418e-17
3.59413e-17
3.59409e-17
3.59407e-17
3.59406e-17
3.59406e-17
3.59408e-17
3.59414e-17
3.59418e-17
3.59426e-17
3.59428e-17
3.59416e-17
3.5941e-17
3.59406e-17
3.594e-17
3.59396e-17
3.59392e-17
3.5939e-17
3.59389e-17
3.59389e-17
3.59391e-17
3.59397e-17
3.594e-17
3.59409e-17
3.59411e-17
3.59398e-17
3.59395e-17
3.59391e-17
3.59386e-17
3.59382e-17
3.59379e-17
3.59376e-17
3.59375e-17
3.59376e-17
3.59378e-17
3.59385e-17
3.59387e-17
3.59395e-17
3.59394e-17
3.59381e-17
3.59381e-17
3.59378e-17
3.59375e-17
3.59371e-17
3.59369e-17
3.59366e-17
3.59365e-17
3.59366e-17
3.59369e-17
3.59374e-17
3.59374e-17
3.59379e-17
3.59375e-17
3.59365e-17
3.5937e-17
3.59368e-17
3.59367e-17
3.59365e-17
3.59364e-17
3.59362e-17
3.5936e-17
3.5936e-17
3.59362e-17
3.59364e-17
3.59358e-17
3.59355e-17
3.59358e-17
3.59349e-17
3.5936e-17
3.59362e-17
3.59367e-17
3.59369e-17
3.5937e-17
3.59368e-17
3.59365e-17
3.59362e-17
3.59359e-17
3.59352e-17
3.59342e-17
3.59332e-17
3.59536e-17
3.59538e-17
3.59538e-17
3.59537e-17
3.59535e-17
3.59535e-17
3.59536e-17
3.59538e-17
3.59542e-17
3.59548e-17
3.59556e-17
3.59564e-17
3.59573e-17
3.59572e-17
3.59518e-17
3.59521e-17
3.59518e-17
3.59515e-17
3.59511e-17
3.5951e-17
3.5951e-17
3.59511e-17
3.59515e-17
3.59521e-17
3.59529e-17
3.59535e-17
3.59542e-17
3.59544e-17
3.59499e-17
3.59499e-17
3.59493e-17
3.5949e-17
3.59486e-17
3.59484e-17
3.59484e-17
3.59486e-17
3.59489e-17
3.59495e-17
3.59502e-17
3.59508e-17
3.59518e-17
3.59521e-17
3.59474e-17
3.59473e-17
3.59468e-17
3.59465e-17
3.59461e-17
3.5946e-17
3.5946e-17
3.59461e-17
3.59463e-17
3.59467e-17
3.59473e-17
3.59478e-17
3.59487e-17
3.59492e-17
3.59448e-17
3.59447e-17
3.59442e-17
3.5944e-17
3.59437e-17
3.59436e-17
3.59435e-17
3.59436e-17
3.59439e-17
3.59442e-17
3.59447e-17
3.59452e-17
3.5946e-17
3.59465e-17
3.59422e-17
3.59422e-17
3.59419e-17
3.59417e-17
3.59414e-17
3.59413e-17
3.59413e-17
3.59413e-17
3.59414e-17
3.59418e-17
3.59422e-17
3.59427e-17
3.59433e-17
3.5944e-17
3.594e-17
3.594e-17
3.59397e-17
3.59396e-17
3.59394e-17
3.59392e-17
3.59391e-17
3.59391e-17
3.59392e-17
3.59395e-17
3.59399e-17
3.59404e-17
3.59409e-17
3.59418e-17
3.59378e-17
3.59379e-17
3.59377e-17
3.59377e-17
3.59374e-17
3.59373e-17
3.59371e-17
3.59371e-17
3.59372e-17
3.59374e-17
3.59377e-17
3.59382e-17
3.59387e-17
3.59397e-17
3.5936e-17
3.59361e-17
3.5936e-17
3.5936e-17
3.59358e-17
3.59356e-17
3.59354e-17
3.59353e-17
3.59353e-17
3.59355e-17
3.59357e-17
3.59363e-17
3.59368e-17
3.59378e-17
3.59346e-17
3.59345e-17
3.59345e-17
3.59345e-17
3.59343e-17
3.59341e-17
3.59339e-17
3.59337e-17
3.59336e-17
3.59338e-17
3.5934e-17
3.59346e-17
3.59351e-17
3.59361e-17
3.59335e-17
3.59332e-17
3.59333e-17
3.59333e-17
3.59331e-17
3.59328e-17
3.59326e-17
3.59324e-17
3.59323e-17
3.59323e-17
3.59326e-17
3.59333e-17
3.59337e-17
3.59347e-17
3.59323e-17
3.5932e-17
3.59323e-17
3.59323e-17
3.59321e-17
3.59318e-17
3.59315e-17
3.59312e-17
3.59311e-17
3.59311e-17
3.59314e-17
3.5932e-17
3.59322e-17
3.59328e-17
3.59311e-17
3.59309e-17
3.59316e-17
3.59315e-17
3.59314e-17
3.5931e-17
3.59307e-17
3.59304e-17
3.59301e-17
3.59301e-17
3.59302e-17
3.59306e-17
3.59302e-17
3.59302e-17
3.59299e-17
3.59299e-17
3.59309e-17
3.59309e-17
3.59309e-17
3.59306e-17
3.59303e-17
3.59299e-17
3.59295e-17
3.59292e-17
3.5929e-17
3.59285e-17
3.59277e-17
3.5927e-17
3.59372e-17
3.59385e-17
3.59395e-17
3.59403e-17
3.59408e-17
3.59412e-17
3.59417e-17
3.59423e-17
3.5943e-17
3.59438e-17
3.59447e-17
3.59455e-17
3.59462e-17
3.5946e-17
3.59364e-17
3.59377e-17
3.59384e-17
3.5939e-17
3.59394e-17
3.59398e-17
3.59404e-17
3.59409e-17
3.59416e-17
3.59424e-17
3.59434e-17
3.59441e-17
3.59448e-17
3.5945e-17
3.59353e-17
3.59364e-17
3.59369e-17
3.59375e-17
3.59379e-17
3.59383e-17
3.59388e-17
3.59394e-17
3.59402e-17
3.5941e-17
3.59419e-17
3.59426e-17
3.59436e-17
3.5944e-17
3.59337e-17
3.59348e-17
3.59354e-17
3.5936e-17
3.59364e-17
3.59369e-17
3.59374e-17
3.59379e-17
3.59386e-17
3.59393e-17
3.59401e-17
3.59408e-17
3.59417e-17
3.59424e-17
3.59319e-17
3.5933e-17
3.59336e-17
3.59343e-17
3.59348e-17
3.59353e-17
3.59358e-17
3.59364e-17
3.5937e-17
3.59377e-17
3.59384e-17
3.59391e-17
3.59399e-17
3.59406e-17
3.59302e-17
3.59313e-17
3.5932e-17
3.59327e-17
3.59333e-17
3.59338e-17
3.59343e-17
3.59348e-17
3.59354e-17
3.5936e-17
3.59366e-17
3.59373e-17
3.5938e-17
3.59388e-17
3.59287e-17
3.59299e-17
3.59306e-17
3.59313e-17
3.59318e-17
3.59323e-17
3.59328e-17
3.59333e-17
3.59338e-17
3.59343e-17
3.5935e-17
3.59357e-17
3.59363e-17
3.59372e-17
3.59273e-17
3.59285e-17
3.59293e-17
3.593e-17
3.59305e-17
3.5931e-17
3.59314e-17
3.59318e-17
3.59322e-17
3.59327e-17
3.59333e-17
3.5934e-17
3.59346e-17
3.59357e-17
3.59263e-17
3.59273e-17
3.59282e-17
3.59289e-17
3.59293e-17
3.59297e-17
3.59301e-17
3.59304e-17
3.59308e-17
3.59312e-17
3.59318e-17
3.59325e-17
3.59331e-17
3.59342e-17
3.59255e-17
3.59264e-17
3.59272e-17
3.59279e-17
3.59283e-17
3.59286e-17
3.59289e-17
3.59291e-17
3.59294e-17
3.59298e-17
3.59303e-17
3.59311e-17
3.59317e-17
3.59328e-17
3.59251e-17
3.59257e-17
3.59265e-17
3.59271e-17
3.59274e-17
3.59276e-17
3.59278e-17
3.5928e-17
3.59282e-17
3.59285e-17
3.59291e-17
3.59299e-17
3.59305e-17
3.59316e-17
3.59245e-17
3.5925e-17
3.59259e-17
3.59264e-17
3.59267e-17
3.59268e-17
3.59269e-17
3.59269e-17
3.59271e-17
3.59274e-17
3.59279e-17
3.59287e-17
3.5929e-17
3.59299e-17
3.5924e-17
3.59244e-17
3.59255e-17
3.59259e-17
3.59261e-17
3.5926e-17
3.5926e-17
3.59259e-17
3.5926e-17
3.59262e-17
3.59266e-17
3.59271e-17
3.59271e-17
3.59274e-17
3.59235e-17
3.59239e-17
3.59252e-17
3.59254e-17
3.59256e-17
3.59255e-17
3.59254e-17
3.59252e-17
3.59251e-17
3.5925e-17
3.59251e-17
3.59249e-17
3.59245e-17
3.59242e-17
3.5913e-17
3.59156e-17
3.59178e-17
3.59197e-17
3.59212e-17
3.59225e-17
3.59236e-17
3.59247e-17
3.59258e-17
3.5927e-17
3.59282e-17
3.59292e-17
3.59301e-17
3.59301e-17
3.59137e-17
3.59162e-17
3.59181e-17
3.59198e-17
3.59212e-17
3.59225e-17
3.59238e-17
3.5925e-17
3.59262e-17
3.59274e-17
3.59287e-17
3.59297e-17
3.59307e-17
3.59312e-17
3.59139e-17
3.59162e-17
3.5918e-17
3.59197e-17
3.59211e-17
3.59225e-17
3.59239e-17
3.59251e-17
3.59264e-17
3.59276e-17
3.59289e-17
3.59299e-17
3.5931e-17
3.59319e-17
3.59136e-17
3.59158e-17
3.59177e-17
3.59194e-17
3.5921e-17
3.59224e-17
3.59238e-17
3.5925e-17
3.59262e-17
3.59275e-17
3.59287e-17
3.59297e-17
3.59308e-17
3.59318e-17
3.59131e-17
3.59154e-17
3.59174e-17
3.59191e-17
3.59207e-17
3.59221e-17
3.59235e-17
3.59247e-17
3.59259e-17
3.59271e-17
3.59283e-17
3.59293e-17
3.59304e-17
3.59314e-17
3.59126e-17
3.59149e-17
3.59169e-17
3.59187e-17
3.59203e-17
3.59217e-17
3.5923e-17
3.59243e-17
3.59255e-17
3.59266e-17
3.59277e-17
3.59288e-17
3.59297e-17
3.59307e-17
3.59124e-17
3.59147e-17
3.59166e-17
3.59184e-17
3.59199e-17
3.59213e-17
3.59225e-17
3.59238e-17
3.59249e-17
3.5926e-17
3.59271e-17
3.59281e-17
3.5929e-17
3.59301e-17
3.59121e-17
3.59144e-17
3.59163e-17
3.5918e-17
3.59194e-17
3.59208e-17
3.5922e-17
3.59232e-17
3.59242e-17
3.59253e-17
3.59263e-17
3.59274e-17
3.59282e-17
3.59294e-17
3.59121e-17
3.59143e-17
3.59161e-17
3.59177e-17
3.59191e-17
3.59203e-17
3.59214e-17
3.59225e-17
3.59235e-17
3.59245e-17
3.59254e-17
3.59265e-17
3.59274e-17
3.59287e-17
3.59123e-17
3.59142e-17
3.59159e-17
3.59174e-17
3.59187e-17
3.59198e-17
3.59208e-17
3.59218e-17
3.59227e-17
3.59236e-17
3.59245e-17
3.59257e-17
3.59266e-17
3.59279e-17
3.59127e-17
3.59142e-17
3.59158e-17
3.59173e-17
3.59184e-17
3.59194e-17
3.59202e-17
3.5921e-17
3.59218e-17
3.59227e-17
3.59236e-17
3.59249e-17
3.59258e-17
3.59271e-17
3.59128e-17
3.59142e-17
3.59157e-17
3.5917e-17
3.5918e-17
3.59188e-17
3.59195e-17
3.59202e-17
3.5921e-17
3.59218e-17
3.59227e-17
3.59239e-17
3.59247e-17
3.59258e-17
3.59128e-17
3.59141e-17
3.59157e-17
3.59167e-17
3.59175e-17
3.59182e-17
3.59188e-17
3.59193e-17
3.59199e-17
3.59207e-17
3.59216e-17
3.59226e-17
3.5923e-17
3.59236e-17
3.59127e-17
3.59139e-17
3.59156e-17
3.59164e-17
3.59171e-17
3.59176e-17
3.59181e-17
3.59186e-17
3.5919e-17
3.59196e-17
3.59202e-17
3.59206e-17
3.59206e-17
3.59207e-17
3.58799e-17
3.58836e-17
3.58869e-17
3.58897e-17
3.58921e-17
3.58942e-17
3.58962e-17
3.5898e-17
3.58997e-17
3.59014e-17
3.59029e-17
3.59043e-17
3.59055e-17
3.59061e-17
3.58822e-17
3.58854e-17
3.58885e-17
3.58912e-17
3.58937e-17
3.58959e-17
3.58981e-17
3.59001e-17
3.59019e-17
3.59037e-17
3.59055e-17
3.59069e-17
3.59082e-17
3.59094e-17
3.5884e-17
3.58872e-17
3.58902e-17
3.58929e-17
3.58954e-17
3.58977e-17
3.58999e-17
3.5902e-17
3.59039e-17
3.59057e-17
3.59075e-17
3.5909e-17
3.59105e-17
3.59118e-17
3.58853e-17
3.58884e-17
3.58915e-17
3.58942e-17
3.58968e-17
3.58992e-17
3.59015e-17
3.59035e-17
3.59055e-17
3.59074e-17
3.59092e-17
3.59107e-17
3.59122e-17
3.59137e-17
3.58865e-17
3.58896e-17
3.58928e-17
3.58955e-17
3.58981e-17
3.59005e-17
3.59028e-17
3.59049e-17
3.59069e-17
3.59087e-17
3.59104e-17
3.5912e-17
3.59135e-17
3.59149e-17
3.58876e-17
3.58908e-17
3.58939e-17
3.58966e-17
3.58992e-17
3.59016e-17
3.59039e-17
3.5906e-17
3.59079e-17
3.59098e-17
3.59115e-17
3.5913e-17
3.59145e-17
3.59159e-17
3.58889e-17
3.58921e-17
3.5895e-17
3.58978e-17
3.59003e-17
3.59026e-17
3.59048e-17
3.59068e-17
3.59087e-17
3.59105e-17
3.59122e-17
3.59138e-17
3.59152e-17
3.59167e-17
3.58901e-17
3.58932e-17
3.5896e-17
3.58987e-17
3.59011e-17
3.59034e-17
3.59055e-17
3.59075e-17
3.59093e-17
3.59111e-17
3.59127e-17
3.59144e-17
3.59157e-17
3.59173e-17
3.58914e-17
3.58944e-17
3.5897e-17
3.58996e-17
3.59019e-17
3.59041e-17
3.5906e-17
3.59079e-17
3.59097e-17
3.59114e-17
3.5913e-17
3.59147e-17
3.59161e-17
3.59177e-17
3.58927e-17
3.58955e-17
3.58979e-17
3.59003e-17
3.59025e-17
3.59045e-17
3.59064e-17
3.59082e-17
3.59099e-17
3.59116e-17
3.59131e-17
3.59149e-17
3.59163e-17
3.5918e-17
3.58941e-17
3.58965e-17
3.58988e-17
3.5901e-17
3.5903e-17
3.59049e-17
3.59066e-17
3.59083e-17
3.59098e-17
3.59115e-17
3.59131e-17
3.5915e-17
3.59164e-17
3.59183e-17
3.58952e-17
3.58973e-17
3.58994e-17
3.59015e-17
3.59033e-17
3.5905e-17
3.59066e-17
3.59082e-17
3.59097e-17
3.59114e-17
3.5913e-17
3.59149e-17
3.59162e-17
3.59179e-17
3.58959e-17
3.58978e-17
3.59e-17
3.59018e-17
3.59034e-17
3.59049e-17
3.59064e-17
3.59079e-17
3.59093e-17
3.59109e-17
3.59125e-17
3.59142e-17
3.59153e-17
3.59166e-17
3.58962e-17
3.58981e-17
3.59002e-17
3.59018e-17
3.59034e-17
3.59048e-17
3.59062e-17
3.59075e-17
3.59089e-17
3.59103e-17
3.59118e-17
3.5913e-17
3.59138e-17
3.59147e-17
3.58422e-17
3.58458e-17
3.58494e-17
3.58526e-17
3.58555e-17
3.58582e-17
3.58607e-17
3.5863e-17
3.58651e-17
3.58672e-17
3.58691e-17
3.58709e-17
3.58725e-17
3.58735e-17
3.58456e-17
3.58488e-17
3.58523e-17
3.58554e-17
3.58585e-17
3.58613e-17
3.5864e-17
3.58665e-17
3.58688e-17
3.5871e-17
3.58732e-17
3.58751e-17
3.58769e-17
3.58786e-17
3.5849e-17
3.58521e-17
3.58556e-17
3.58587e-17
3.58617e-17
3.58646e-17
3.58674e-17
3.58699e-17
3.58723e-17
3.58746e-17
3.58768e-17
3.58788e-17
3.58807e-17
3.58826e-17
3.58518e-17
3.58549e-17
3.58584e-17
3.58616e-17
3.58647e-17
3.58676e-17
3.58705e-17
3.58731e-17
3.58756e-17
3.58779e-17
3.58802e-17
3.58823e-17
3.58842e-17
3.58863e-17
3.58546e-17
3.58578e-17
3.58613e-17
3.58645e-17
3.58676e-17
3.58706e-17
3.58734e-17
3.5876e-17
3.58786e-17
3.58809e-17
3.58832e-17
3.58853e-17
3.58874e-17
3.58893e-17
3.58574e-17
3.58607e-17
3.58641e-17
3.58672e-17
3.58703e-17
3.58733e-17
3.58761e-17
3.58788e-17
3.58813e-17
3.58838e-17
3.58861e-17
3.58882e-17
3.58902e-17
3.58922e-17
3.58602e-17
3.58636e-17
3.58668e-17
3.58699e-17
3.58729e-17
3.58758e-17
3.58786e-17
3.58813e-17
3.58838e-17
3.58862e-17
3.58886e-17
3.58908e-17
3.58928e-17
3.58947e-17
3.5863e-17
3.58663e-17
3.58693e-17
3.58724e-17
3.58753e-17
3.58782e-17
3.58809e-17
3.58836e-17
3.58861e-17
3.58885e-17
3.58908e-17
3.58931e-17
3.58951e-17
3.58972e-17
3.58657e-17
3.58688e-17
3.58717e-17
3.58747e-17
3.58775e-17
3.58803e-17
3.5883e-17
3.58856e-17
3.5888e-17
3.58905e-17
3.58928e-17
3.58951e-17
3.58971e-17
3.58993e-17
3.58683e-17
3.58712e-17
3.5874e-17
3.58768e-17
3.58795e-17
3.58822e-17
3.58848e-17
3.58874e-17
3.58898e-17
3.58922e-17
3.58945e-17
3.58969e-17
3.5899e-17
3.59013e-17
3.58708e-17
3.58735e-17
3.58761e-17
3.58788e-17
3.58814e-17
3.58839e-17
3.58864e-17
3.58889e-17
3.58913e-17
3.58937e-17
3.58961e-17
3.58986e-17
3.59008e-17
3.59033e-17
3.5873e-17
3.58754e-17
3.58779e-17
3.58805e-17
3.58829e-17
3.58854e-17
3.58878e-17
3.58903e-17
3.58927e-17
3.58951e-17
3.58975e-17
3.59001e-17
3.59023e-17
3.59047e-17
3.58747e-17
3.5877e-17
3.58795e-17
3.5882e-17
3.58843e-17
3.58867e-17
3.5889e-17
3.58914e-17
3.58937e-17
3.58961e-17
3.58986e-17
3.59012e-17
3.59032e-17
3.59054e-17
3.58759e-17
3.58782e-17
3.58807e-17
3.5883e-17
3.58854e-17
3.58877e-17
3.589e-17
3.58924e-17
3.58948e-17
3.58971e-17
3.58995e-17
3.59017e-17
3.59034e-17
3.59053e-17
3.58081e-17
3.58106e-17
3.58134e-17
3.58161e-17
3.58187e-17
3.58212e-17
3.58236e-17
3.58259e-17
3.58282e-17
3.58303e-17
3.58324e-17
3.58343e-17
3.58362e-17
3.58375e-17
3.58124e-17
3.58146e-17
3.58174e-17
3.58199e-17
3.58226e-17
3.58251e-17
3.58277e-17
3.58302e-17
3.58326e-17
3.58349e-17
3.58372e-17
3.58393e-17
3.58413e-17
3.58433e-17
3.58167e-17
3.58188e-17
3.58216e-17
3.58241e-17
3.58268e-17
3.58294e-17
3.58319e-17
3.58344e-17
3.58369e-17
3.58393e-17
3.58416e-17
3.58438e-17
3.58459e-17
3.58482e-17
3.58206e-17
3.58228e-17
3.58256e-17
3.58282e-17
3.58309e-17
3.58335e-17
3.58361e-17
3.58387e-17
3.58412e-17
3.58437e-17
3.58461e-17
3.58484e-17
3.58506e-17
3.5853e-17
3.58245e-17
3.58268e-17
3.58296e-17
3.58322e-17
3.58349e-17
3.58376e-17
3.58403e-17
3.58429e-17
3.58455e-17
3.5848e-17
3.58505e-17
3.58528e-17
3.58551e-17
3.58573e-17
3.58285e-17
3.58309e-17
3.58336e-17
3.58363e-17
3.58389e-17
3.58416e-17
3.58443e-17
3.5847e-17
3.58497e-17
3.58523e-17
3.58548e-17
3.58572e-17
3.58595e-17
3.58618e-17
3.58324e-17
3.58349e-17
3.58375e-17
3.58402e-17
3.58429e-17
3.58456e-17
3.58483e-17
3.5851e-17
3.58537e-17
3.58564e-17
3.58589e-17
3.58614e-17
3.58638e-17
3.5866e-17
3.58363e-17
3.58389e-17
3.58414e-17
3.5844e-17
3.58467e-17
3.58494e-17
3.58522e-17
3.58549e-17
3.58576e-17
3.58603e-17
3.58629e-17
3.58655e-17
3.58679e-17
3.58702e-17
3.584e-17
3.58426e-17
3.5845e-17
3.58477e-17
3.58503e-17
3.58531e-17
3.58559e-17
3.58586e-17
3.58614e-17
3.58641e-17
3.58667e-17
3.58693e-17
3.58718e-17
3.58742e-17
3.58438e-17
3.58462e-17
3.58486e-17
3.58513e-17
3.58539e-17
3.58566e-17
3.58594e-17
3.58622e-17
3.58649e-17
3.58677e-17
3.58704e-17
3.5873e-17
3.58756e-17
3.58781e-17
3.58473e-17
3.58496e-17
3.5852e-17
3.58546e-17
3.58572e-17
3.586e-17
3.58627e-17
3.58655e-17
3.58683e-17
3.58711e-17
3.58739e-17
3.58767e-17
3.58794e-17
3.5882e-17
3.58507e-17
3.58529e-17
3.58552e-17
3.58578e-17
3.58604e-17
3.58631e-17
3.58659e-17
3.58687e-17
3.58715e-17
3.58743e-17
3.58771e-17
3.58801e-17
3.58828e-17
3.58855e-17
3.58534e-17
3.58557e-17
3.58581e-17
3.58606e-17
3.58633e-17
3.5866e-17
3.58688e-17
3.58716e-17
3.58745e-17
3.58773e-17
3.58803e-17
3.58833e-17
3.58859e-17
3.58883e-17
3.58559e-17
3.58581e-17
3.58607e-17
3.58633e-17
3.5866e-17
3.58687e-17
3.58715e-17
3.58743e-17
3.58772e-17
3.58801e-17
3.5883e-17
3.58857e-17
3.58881e-17
3.58905e-17
3.5785e-17
3.57857e-17
3.57872e-17
3.57886e-17
3.57902e-17
3.57919e-17
3.57936e-17
3.57954e-17
3.57972e-17
3.57989e-17
3.58007e-17
3.58025e-17
3.58041e-17
3.58055e-17
3.57896e-17
3.57901e-17
3.57914e-17
3.57927e-17
3.57943e-17
3.57959e-17
3.57977e-17
3.57996e-17
3.58014e-17
3.58033e-17
3.58052e-17
3.58071e-17
3.58088e-17
3.58107e-17
3.57937e-17
3.57943e-17
3.57957e-17
3.57969e-17
3.57986e-17
3.58003e-17
3.58021e-17
3.58039e-17
3.58058e-17
3.58077e-17
3.58096e-17
3.58116e-17
3.58134e-17
3.58154e-17
3.57979e-17
3.57986e-17
3.58e-17
3.58013e-17
3.58029e-17
3.58047e-17
3.58065e-17
3.58084e-17
3.58104e-17
3.58124e-17
3.58143e-17
3.58163e-17
3.58182e-17
3.58203e-17
3.58019e-17
3.58028e-17
3.58043e-17
3.58057e-17
3.58074e-17
3.58092e-17
3.58111e-17
3.58131e-17
3.5815e-17
3.58171e-17
3.58191e-17
3.58211e-17
3.5823e-17
3.58251e-17
3.58062e-17
3.58073e-17
3.58087e-17
3.58102e-17
3.5812e-17
3.58138e-17
3.58158e-17
3.58178e-17
3.58198e-17
3.58219e-17
3.5824e-17
3.58261e-17
3.58281e-17
3.58301e-17
3.58103e-17
3.58116e-17
3.58131e-17
3.58147e-17
3.58165e-17
3.58184e-17
3.58204e-17
3.58225e-17
3.58246e-17
3.58268e-17
3.58289e-17
3.5831e-17
3.58331e-17
3.58351e-17
3.58146e-17
3.5816e-17
3.58175e-17
3.58192e-17
3.5821e-17
3.5823e-17
3.58251e-17
3.58272e-17
3.58294e-17
3.58316e-17
3.58339e-17
3.58361e-17
3.58382e-17
3.58402e-17
3.58188e-17
3.58203e-17
3.58218e-17
3.58236e-17
3.58255e-17
3.58276e-17
3.58297e-17
3.5832e-17
3.58342e-17
3.58365e-17
3.58388e-17
3.5841e-17
3.58432e-17
3.58453e-17
3.5823e-17
3.58245e-17
3.58261e-17
3.5828e-17
3.58299e-17
3.58321e-17
3.58343e-17
3.58366e-17
3.58389e-17
3.58413e-17
3.58436e-17
3.58459e-17
3.58483e-17
3.58504e-17
3.5827e-17
3.58286e-17
3.58302e-17
3.58322e-17
3.58343e-17
3.58365e-17
3.58388e-17
3.58412e-17
3.58436e-17
3.5846e-17
3.58484e-17
3.58508e-17
3.58533e-17
3.58554e-17
3.5831e-17
3.58326e-17
3.58343e-17
3.58364e-17
3.58385e-17
3.58408e-17
3.58431e-17
3.58456e-17
3.5848e-17
3.58505e-17
3.58531e-17
3.58556e-17
3.58582e-17
3.58604e-17
3.58345e-17
3.58361e-17
3.58381e-17
3.58402e-17
3.58425e-17
3.58448e-17
3.58473e-17
3.58498e-17
3.58524e-17
3.5855e-17
3.58576e-17
3.58603e-17
3.58629e-17
3.5865e-17
3.58379e-17
3.58396e-17
3.58418e-17
3.58441e-17
3.58465e-17
3.58489e-17
3.58514e-17
3.5854e-17
3.58566e-17
3.58592e-17
3.58618e-17
3.58643e-17
3.58667e-17
3.58689e-17
3.57729e-17
3.57726e-17
3.57728e-17
3.57731e-17
3.57736e-17
3.57742e-17
3.5775e-17
3.57758e-17
3.57768e-17
3.57778e-17
3.5779e-17
3.57801e-17
3.57812e-17
3.57823e-17
3.57769e-17
3.57763e-17
3.57765e-17
3.57767e-17
3.57771e-17
3.57777e-17
3.57784e-17
3.57793e-17
3.57803e-17
3.57814e-17
3.57825e-17
3.57837e-17
3.57848e-17
3.57861e-17
3.57803e-17
3.57798e-17
3.57801e-17
3.57803e-17
3.57808e-17
3.57814e-17
3.57821e-17
3.5783e-17
3.5784e-17
3.5785e-17
3.57862e-17
3.57874e-17
3.57885e-17
3.57899e-17
3.57839e-17
3.57836e-17
3.57839e-17
3.57841e-17
3.57846e-17
3.57852e-17
3.5786e-17
3.57869e-17
3.57879e-17
3.5789e-17
3.57901e-17
3.57913e-17
3.57924e-17
3.57939e-17
3.57874e-17
3.57873e-17
3.57877e-17
3.5788e-17
3.57886e-17
3.57893e-17
3.57901e-17
3.5791e-17
3.5792e-17
3.57931e-17
3.57942e-17
3.57954e-17
3.57966e-17
3.5798e-17
3.57912e-17
3.57913e-17
3.57916e-17
3.57921e-17
3.57927e-17
3.57934e-17
3.57943e-17
3.57952e-17
3.57963e-17
3.57974e-17
3.57986e-17
3.57998e-17
3.58011e-17
3.58023e-17
3.57949e-17
3.57952e-17
3.57956e-17
3.57961e-17
3.57968e-17
3.57976e-17
3.57986e-17
3.57996e-17
3.58007e-17
3.58019e-17
3.58031e-17
3.58043e-17
3.58057e-17
3.58069e-17
3.57987e-17
3.57991e-17
3.57996e-17
3.58003e-17
3.5801e-17
3.58019e-17
3.58029e-17
3.58041e-17
3.58053e-17
3.58065e-17
3.58078e-17
3.58091e-17
3.58105e-17
3.58116e-17
3.58025e-17
3.58031e-17
3.58036e-17
3.58044e-17
3.58053e-17
3.58063e-17
3.58074e-17
3.58086e-17
3.58099e-17
3.58112e-17
3.58125e-17
3.58139e-17
3.58153e-17
3.58165e-17
3.58064e-17
3.5807e-17
3.58077e-17
3.58086e-17
3.58096e-17
3.58107e-17
3.58119e-17
3.58133e-17
3.58146e-17
3.5816e-17
3.58174e-17
3.58188e-17
3.58203e-17
3.58215e-17
3.58102e-17
3.5811e-17
3.58118e-17
3.58128e-17
3.58139e-17
3.58151e-17
3.58165e-17
3.58179e-17
3.58194e-17
3.58208e-17
3.58223e-17
3.58237e-17
3.58253e-17
3.58266e-17
3.58141e-17
3.5815e-17
3.58159e-17
3.5817e-17
3.58183e-17
3.58196e-17
3.5821e-17
3.58226e-17
3.58241e-17
3.58256e-17
3.58272e-17
3.58287e-17
3.58305e-17
3.58317e-17
3.58177e-17
3.58187e-17
3.58198e-17
3.58211e-17
3.58225e-17
3.5824e-17
3.58255e-17
3.58272e-17
3.58288e-17
3.58304e-17
3.58321e-17
3.58338e-17
3.58355e-17
3.58367e-17
3.58215e-17
3.58225e-17
3.58239e-17
3.58253e-17
3.58268e-17