/*--------------------------------*- C++ -*----------------------------------*\
| =========                 |                                                 |
| \\      /  F ield         | OpenFOAM: The Open Source CFD Toolbox           |
|  \\    /   O peration     | Version:  v2106                                 |
|   \\  /    A nd           | Website:  www.openfoam.com                      |
|    \\/     M anipulation  |                                                 |
\*---------------------------------------------------------------------------*/
FoamFile
{
    version     2.0;
    format      ascii;
    arch        "LSB;label=32;scalar=64";
    class       volScalarField;
    location    "0.000201";
    object      T;
}
// * * * * * * * * * * * * * * * * * * * * * * * * * * * * * * * * * * * * * //

dimensions      [0 0 0 1 0 0 0];

internalField   nonuniform List<scalar> 
17924
(
308.725
308.739
308.751
308.764
308.642
308.65
308.658
308.667
308.677
308.688
308.698
308.614
308.623
308.632
308.642
308.653
308.665
308.676
308.587
308.597
308.606
308.617
308.63
308.642
308.654
308.559
308.57
308.58
308.592
308.605
308.618
308.631
308.532
308.543
308.554
308.566
308.58
308.593
308.607
308.503
308.514
308.525
308.539
308.553
308.567
308.58
308.472
308.483
308.496
308.509
308.524
308.538
308.551
308.44
308.451
308.464
308.478
308.492
308.507
308.52
308.406
308.417
308.43
308.444
308.459
308.473
308.487
308.37
308.38
308.394
308.408
308.423
308.437
308.451
308.333
308.342
308.356
308.37
308.385
308.399
308.412
308.294
308.302
308.316
308.329
308.344
308.358
308.371
308.252
308.259
308.273
308.286
308.3
308.314
308.328
308.208
308.215
308.228
308.241
308.255
308.269
308.284
308.556
308.557
308.558
308.56
308.565
308.57
308.576
308.582
308.589
308.596
308.602
308.607
308.613
308.619
308.525
308.528
308.529
308.532
308.537
308.543
308.55
308.557
308.565
308.572
308.579
308.585
308.59
308.594
308.497
308.5
308.501
308.505
308.511
308.518
308.526
308.534
308.543
308.55
308.557
308.563
308.568
308.571
308.469
308.472
308.474
308.48
308.486
308.494
308.503
308.512
308.521
308.529
308.537
308.542
308.547
308.549
308.442
308.445
308.448
308.454
308.461
308.47
308.48
308.49
308.5
308.509
308.516
308.522
308.526
308.528
308.415
308.418
308.422
308.428
308.437
308.446
308.457
308.468
308.479
308.488
308.496
308.501
308.504
308.506
308.388
308.39
308.395
308.403
308.412
308.422
308.434
308.445
308.456
308.466
308.474
308.479
308.482
308.483
308.359
308.362
308.368
308.376
308.386
308.397
308.409
308.422
308.433
308.442
308.45
308.456
308.459
308.46
308.33
308.334
308.34
308.349
308.359
308.371
308.384
308.396
308.408
308.418
308.426
308.432
308.434
308.436
308.3
308.303
308.311
308.32
308.331
308.344
308.357
308.37
308.381
308.392
308.4
308.406
308.409
308.411
308.269
308.272
308.28
308.29
308.302
308.315
308.329
308.342
308.354
308.365
308.373
308.38
308.383
308.386
308.235
308.239
308.248
308.259
308.271
308.285
308.299
308.312
308.325
308.336
308.345
308.352
308.356
308.359
308.2
308.204
308.214
308.225
308.239
308.253
308.268
308.283
308.296
308.308
308.318
308.326
308.33
308.334
308.163
308.168
308.179
308.192
308.207
308.222
308.237
308.252
308.266
308.279
308.289
308.296
308.302
308.304
308.474
308.467
308.463
308.46
308.459
308.459
308.461
308.464
308.468
308.472
308.478
308.484
308.493
308.501
308.44
308.437
308.432
308.429
308.427
308.427
308.428
308.431
308.436
308.44
308.447
308.452
308.46
308.464
308.411
308.407
308.401
308.398
308.396
308.397
308.398
308.401
308.406
308.41
308.417
308.422
308.429
308.432
308.382
308.378
308.372
308.369
308.368
308.368
308.37
308.373
308.378
308.383
308.389
308.394
308.401
308.403
308.354
308.349
308.344
308.341
308.34
308.341
308.343
308.347
308.352
308.358
308.364
308.369
308.375
308.378
308.327
308.322
308.317
308.315
308.314
308.316
308.318
308.323
308.329
308.335
308.341
308.346
308.351
308.355
308.3
308.295
308.29
308.289
308.289
308.291
308.295
308.3
308.307
308.313
308.319
308.325
308.33
308.333
308.274
308.268
308.265
308.264
308.266
308.268
308.273
308.279
308.286
308.293
308.299
308.305
308.309
308.312
308.247
308.242
308.24
308.24
308.242
308.246
308.252
308.259
308.266
308.273
308.28
308.286
308.29
308.293
308.22
308.216
308.216
308.216
308.22
308.225
308.231
308.239
308.247
308.255
308.262
308.268
308.272
308.275
308.193
308.19
308.19
308.193
308.198
308.204
308.212
308.22
308.229
308.237
308.244
308.251
308.254
308.257
308.166
308.163
308.165
308.17
308.177
308.184
308.193
308.202
308.211
308.22
308.228
308.234
308.238
308.241
308.138
308.136
308.141
308.147
308.155
308.165
308.175
308.185
308.195
308.205
308.213
308.219
308.223
308.226
308.11
308.11
308.117
308.125
308.135
308.146
308.157
308.169
308.179
308.189
308.198
308.204
308.209
308.21
308.393
308.383
308.374
308.369
308.365
308.363
308.362
308.363
308.365
308.369
308.375
308.381
308.391
308.401
308.36
308.353
308.344
308.337
308.332
308.329
308.327
308.328
308.33
308.333
308.338
308.344
308.353
308.358
308.33
308.323
308.313
308.306
308.3
308.296
308.294
308.294
308.295
308.298
308.303
308.308
308.317
308.321
308.301
308.293
308.283
308.275
308.269
308.265
308.263
308.262
308.263
308.265
308.269
308.274
308.282
308.286
308.273
308.264
308.254
308.246
308.24
308.236
308.233
308.232
308.232
308.234
308.238
308.243
308.25
308.255
308.246
308.236
308.227
308.219
308.213
308.209
308.206
308.204
308.204
308.206
308.21
308.214
308.221
308.226
308.219
308.209
308.2
308.193
308.187
308.183
308.181
308.179
308.179
308.181
308.184
308.189
308.194
308.199
308.193
308.183
308.175
308.169
308.163
308.16
308.158
308.157
308.157
308.159
308.162
308.166
308.17
308.175
308.167
308.158
308.151
308.146
308.142
308.139
308.138
308.137
308.138
308.14
308.142
308.146
308.149
308.153
308.142
308.135
308.129
308.124
308.122
308.12
308.119
308.119
308.121
308.123
308.125
308.128
308.131
308.135
308.119
308.112
308.108
308.105
308.104
308.103
308.104
308.105
308.107
308.109
308.111
308.114
308.116
308.119
308.097
308.092
308.09
308.088
308.088
308.089
308.09
308.092
308.094
308.097
308.1
308.102
308.104
308.106
308.077
308.073
308.073
308.073
308.075
308.077
308.079
308.082
308.086
308.089
308.091
308.094
308.094
308.096
308.058
308.055
308.058
308.06
308.064
308.067
308.071
308.074
308.078
308.081
308.084
308.085
308.087
308.086
308.307
308.296
308.287
308.282
308.278
308.275
308.274
308.275
308.278
308.281
308.287
308.294
308.304
308.315
308.276
308.268
308.259
308.253
308.248
308.244
308.243
308.242
308.244
308.247
308.252
308.258
308.267
308.273
308.248
308.24
308.231
308.224
308.218
308.214
308.211
308.21
308.211
308.214
308.218
308.223
308.233
308.237
308.22
308.212
308.203
308.196
308.19
308.185
308.182
308.18
308.18
308.182
308.185
308.19
308.199
308.203
308.193
308.185
308.176
308.169
308.162
308.157
308.153
308.151
308.151
308.152
308.155
308.16
308.167
308.172
308.166
308.158
308.15
308.143
308.136
308.131
308.127
308.125
308.123
308.124
308.127
308.131
308.138
308.143
308.141
308.133
308.125
308.118
308.112
308.107
308.103
308.1
308.098
308.099
308.101
308.105
308.11
308.117
308.116
308.109
308.102
308.095
308.09
308.085
308.081
308.078
308.076
308.076
308.077
308.08
308.085
308.092
308.093
308.087
308.081
308.075
308.069
308.065
308.061
308.058
308.056
308.055
308.056
308.059
308.063
308.069
308.072
308.066
308.062
308.056
308.052
308.047
308.044
308.04
308.039
308.037
308.037
308.039
308.042
308.048
308.053
308.048
308.045
308.04
308.036
308.032
308.029
308.026
308.024
308.022
308.022
308.023
308.024
308.03
308.037
308.033
308.031
308.027
308.024
308.02
308.017
308.014
308.012
308.01
308.009
308.009
308.009
308.013
308.023
308.02
308.019
308.016
308.014
308.011
308.009
308.006
308.003
308.001
307.999
307.998
307.997
308
308.013
308.011
308.011
308.009
308.007
308.005
308.003
308
307.997
307.993
307.991
307.988
307.987
307.987
308.197
308.194
308.19
308.187
308.186
308.186
308.187
308.189
308.192
308.196
308.202
308.21
308.22
308.23
308.171
308.171
308.167
308.164
308.162
308.162
308.162
308.164
308.166
308.17
308.176
308.182
308.19
308.196
308.149
308.148
308.144
308.141
308.139
308.138
308.137
308.138
308.14
308.143
308.148
308.154
308.163
308.168
308.125
308.124
308.12
308.118
308.116
308.114
308.114
308.114
308.115
308.118
308.122
308.127
308.135
308.14
308.102
308.101
308.097
308.095
308.093
308.091
308.09
308.09
308.091
308.093
308.097
308.102
308.109
308.115
308.08
308.079
308.076
308.074
308.071
308.07
308.068
308.068
308.068
308.07
308.073
308.078
308.085
308.092
308.059
308.057
308.055
308.053
308.051
308.049
308.047
308.047
308.047
308.048
308.051
308.056
308.062
308.069
308.039
308.038
308.037
308.035
308.032
308.03
308.028
308.027
308.027
308.028
308.03
308.034
308.04
308.047
308.021
308.02
308.019
308.017
308.015
308.013
308.011
308.009
308.009
308.009
308.011
308.014
308.019
308.027
308.005
308.004
308.004
308.002
308
307.998
307.996
307.994
307.992
307.992
307.993
307.996
308
308.007
307.992
307.991
307.991
307.99
307.988
307.985
307.983
307.98
307.978
307.977
307.977
307.979
307.982
307.989
307.982
307.981
307.981
307.98
307.978
307.975
307.972
307.969
307.966
307.964
307.963
307.964
307.966
307.972
307.973
307.973
307.974
307.973
307.97
307.967
307.963
307.959
307.956
307.953
307.951
307.951
307.952
307.956
307.971
307.97
307.971
307.969
307.966
307.962
307.958
307.952
307.947
307.943
307.94
307.937
307.937
307.939
308.045
308.052
308.057
308.062
308.067
308.071
308.076
308.081
308.087
308.093
308.1
308.108
308.117
308.126
308.028
308.037
308.042
308.048
308.053
308.058
308.063
308.069
308.074
308.08
308.087
308.094
308.103
308.11
308.014
308.023
308.029
308.035
308.039
308.043
308.048
308.053
308.059
308.065
308.071
308.078
308.087
308.094
307.999
308.008
308.014
308.02
308.025
308.03
308.034
308.038
308.043
308.049
308.055
308.062
308.07
308.078
307.984
307.994
308
308.005
308.01
308.014
308.019
308.023
308.028
308.033
308.039
308.046
308.054
308.061
307.97
307.979
307.985
307.991
307.996
308
308.004
308.008
308.013
308.017
308.023
308.029
308.037
308.045
307.956
307.965
307.972
307.977
307.982
307.986
307.99
307.993
307.997
308.002
308.007
308.013
308.02
308.028
307.944
307.952
307.959
307.965
307.969
307.973
307.976
307.979
307.983
307.986
307.991
307.997
308.003
308.012
307.933
307.941
307.948
307.953
307.957
307.96
307.963
307.966
307.968
307.972
307.976
307.981
307.987
307.996
307.925
307.932
307.939
307.943
307.947
307.949
307.951
307.953
307.955
307.958
307.961
307.966
307.972
307.98
307.918
307.925
307.931
307.935
307.938
307.94
307.941
307.942
307.943
307.945
307.947
307.951
307.956
307.965
307.914
307.92
307.925
307.929
307.931
307.932
307.932
307.932
307.932
307.932
307.934
307.937
307.941
307.948
307.912
307.917
307.922
307.924
307.925
307.925
307.923
307.922
307.921
307.921
307.921
307.923
307.926
307.934
307.915
307.918
307.921
307.922
307.922
307.92
307.917
307.914
307.911
307.91
307.909
307.909
307.911
307.916
307.822
307.842
307.859
307.874
307.888
307.899
307.91
307.92
307.93
307.939
307.949
307.959
307.969
307.979
307.82
307.84
307.857
307.872
307.886
307.899
307.911
307.922
307.933
307.943
307.953
307.963
307.973
307.983
307.818
307.838
307.856
307.872
307.886
307.899
307.911
307.921
307.932
307.942
307.952
307.962
307.972
307.982
307.815
307.835
307.853
307.869
307.884
307.897
307.909
307.92
307.931
307.941
307.951
307.961
307.971
307.981
307.813
307.833
307.851
307.867
307.881
307.894
307.906
307.917
307.927
307.937
307.947
307.957
307.967
307.977
307.81
307.83
307.848
307.863
307.877
307.89
307.902
307.912
307.923
307.932
307.942
307.952
307.961
307.971
307.808
307.828
307.845
307.86
307.874
307.886
307.897
307.907
307.917
307.926
307.936
307.945
307.954
307.964
307.807
307.825
307.842
307.856
307.869
307.881
307.891
307.901
307.911
307.92
307.928
307.937
307.946
307.956
307.806
307.824
307.839
307.853
307.865
307.876
307.885
307.895
307.903
307.911
307.92
307.928
307.937
307.947
307.807
307.823
307.838
307.85
307.861
307.871
307.88
307.888
307.895
307.903
307.91
307.918
307.926
307.937
307.808
307.823
307.836
307.848
307.857
307.866
307.873
307.88
307.887
307.894
307.9
307.908
307.916
307.926
307.811
307.824
307.836
307.846
307.854
307.861
307.867
307.873
307.878
307.884
307.89
307.897
307.904
307.914
307.814
307.825
307.835
307.844
307.85
307.856
307.86
307.864
307.869
307.874
307.879
307.885
307.892
307.902
307.82
307.83
307.837
307.843
307.847
307.851
307.854
307.856
307.859
307.863
307.867
307.872
307.879
307.888
307.523
307.553
307.58
307.603
307.625
307.644
307.662
307.678
307.694
307.707
307.721
307.733
307.745
307.76
307.536
307.563
307.591
307.615
307.638
307.659
307.679
307.696
307.713
307.728
307.743
307.756
307.769
307.784
307.55
307.577
307.606
307.63
307.654
307.675
307.694
307.712
307.729
307.744
307.759
307.773
307.786
307.8
307.562
307.589
307.618
307.642
307.666
307.687
307.708
307.726
307.743
307.759
307.774
307.788
307.802
307.816
307.574
307.602
307.63
307.654
307.678
307.699
307.719
307.738
307.755
307.771
307.786
307.8
307.813
307.827
307.586
307.613
307.64
307.665
307.688
307.709
307.729
307.747
307.765
307.78
307.796
307.81
307.823
307.837
307.598
307.625
307.651
307.675
307.697
307.718
307.737
307.755
307.771
307.787
307.802
307.816
307.829
307.842
307.61
307.636
307.66
307.683
307.705
307.724
307.743
307.76
307.777
307.792
307.806
307.82
307.834
307.847
307.621
307.646
307.669
307.691
307.711
307.73
307.747
307.764
307.779
307.794
307.808
307.822
307.835
307.849
307.633
307.656
307.677
307.698
307.716
307.734
307.751
307.766
307.781
307.795
307.809
307.822
307.835
307.849
307.643
307.666
307.685
307.704
307.72
307.737
307.752
307.766
307.78
307.794
307.807
307.821
307.833
307.847
307.654
307.674
307.691
307.708
307.723
307.738
307.752
307.766
307.779
307.792
307.804
307.818
307.83
307.844
307.663
307.681
307.696
307.711
307.724
307.738
307.751
307.763
307.775
307.787
307.8
307.812
307.824
307.839
307.673
307.689
307.701
307.714
307.725
307.737
307.748
307.759
307.771
307.782
307.794
307.806
307.819
307.834
307.186
307.215
307.245
307.272
307.298
307.323
307.345
307.366
307.385
307.402
307.419
307.435
307.451
307.467
307.21
307.237
307.269
307.297
307.325
307.35
307.375
307.397
307.417
307.436
307.455
307.472
307.488
307.508
307.238
307.266
307.298
307.326
307.354
307.379
307.404
307.426
307.447
307.467
307.485
307.503
307.52
307.54
307.265
307.292
307.324
307.352
307.38
307.406
307.431
307.454
307.476
307.496
307.516
307.534
307.552
307.572
307.291
307.32
307.35
307.378
307.406
307.432
307.457
307.48
307.502
307.523
307.543
307.562
307.58
307.598
307.318
307.346
307.376
307.403
307.43
307.456
307.481
307.505
307.527
307.548
307.568
307.587
307.606
307.624
307.344
307.372
307.4
307.427
307.454
307.479
307.503
307.527
307.549
307.57
307.59
307.61
307.628
307.646
307.37
307.397
307.423
307.449
307.475
307.5
307.524
307.547
307.569
307.59
307.61
307.63
307.649
307.667
307.393
307.42
307.445
307.47
307.494
307.519
307.542
307.565
307.586
307.607
307.628
307.647
307.666
307.684
307.416
307.442
307.465
307.489
307.512
307.536
307.558
307.581
307.602
307.623
307.643
307.662
307.682
307.7
307.437
307.461
307.483
307.506
307.528
307.551
307.573
307.594
307.615
307.636
307.656
307.676
307.696
307.714
307.457
307.48
307.5
307.522
307.543
307.564
307.585
307.606
307.627
307.647
307.667
307.687
307.707
307.727
307.475
307.496
307.515
307.535
307.555
307.576
307.596
307.616
307.637
307.657
307.677
307.697
307.717
307.739
307.492
307.512
307.528
307.547
307.566
307.585
307.605
307.625
307.645
307.665
307.685
307.706
307.726
307.749
306.882
306.902
306.927
306.95
306.973
306.995
307.016
307.037
307.057
307.076
307.094
307.111
307.129
307.146
306.917
306.935
306.96
306.984
307.007
307.03
307.053
307.075
307.096
307.116
307.135
307.155
307.173
307.194
306.954
306.972
306.997
307.021
307.044
307.067
307.09
307.112
307.133
307.154
307.174
307.194
307.212
307.234
306.99
307.009
307.034
307.057
307.081
307.104
307.127
307.15
307.172
307.193
307.214
307.235
307.254
307.276
307.026
307.046
307.07
307.093
307.117
307.14
307.163
307.186
307.209
307.231
307.253
307.274
307.293
307.315
307.063
307.083
307.107
307.129
307.153
307.176
307.2
307.223
307.246
307.269
307.291
307.313
307.333
307.355
307.098
307.119
307.142
307.164
307.188
307.211
307.235
307.259
307.282
307.305
307.328
307.35
307.371
307.391
307.134
307.155
307.176
307.199
307.222
307.245
307.269
307.293
307.317
307.34
307.363
307.386
307.408
307.428
307.167
307.188
307.209
307.231
307.254
307.278
307.302
307.326
307.35
307.374
307.397
307.42
307.442
307.462
307.2
307.221
307.241
307.263
307.286
307.31
307.334
307.358
307.382
307.406
307.43
307.452
307.475
307.495
307.23
307.251
307.27
307.293
307.315
307.339
307.363
307.387
307.412
307.436
307.46
307.483
307.507
307.526
307.26
307.28
307.3
307.321
307.344
307.367
307.391
307.415
307.44
307.464
307.488
307.511
307.536
307.557
307.287
307.307
307.325
307.347
307.369
307.393
307.417
307.442
307.467
307.492
307.517
307.54
307.565
307.587
307.314
307.333
307.351
307.373
307.395
307.418
307.442
307.466
307.491
307.515
307.54
307.565
307.59
307.616
306.677
306.683
306.695
306.707
306.721
306.736
306.751
306.767
306.783
306.799
306.814
306.83
306.845
306.861
306.716
306.719
306.731
306.743
306.757
306.772
306.788
306.804
306.82
306.837
306.854
306.87
306.886
306.905
306.753
306.757
306.769
306.781
306.795
306.81
306.826
306.842
306.859
306.876
306.892
306.91
306.925
306.945
306.79
306.796
306.808
306.82
306.834
306.85
306.866
306.883
306.899
306.917
306.934
306.952
306.968
306.988
306.828
306.835
306.847
306.86
306.874
306.89
306.906
306.923
306.941
306.958
306.976
306.994
307.011
307.031
306.866
306.875
306.886
306.9
306.915
306.931
306.948
306.965
306.983
307.001
307.02
307.038
307.056
307.075
306.904
306.914
306.926
306.94
306.955
306.972
306.989
307.007
307.026
307.044
307.063
307.082
307.101
307.119
306.942
306.953
306.965
306.98
306.996
307.013
307.031
307.049
307.068
307.088
307.107
307.127
307.146
307.164
306.98
306.991
307.004
307.019
307.036
307.053
307.072
307.091
307.111
307.131
307.151
307.17
307.191
307.208
307.017
307.029
307.042
307.058
307.075
307.093
307.113
307.132
307.153
307.173
307.194
307.214
307.235
307.252
307.052
307.065
307.079
307.095
307.113
307.132
307.152
307.173
307.194
307.215
307.236
307.256
307.279
307.294
307.087
307.101
307.115
307.133
307.151
307.171
307.191
307.212
307.234
307.255
307.277
307.298
307.321
307.337
307.119
307.134
307.149
307.167
307.186
307.207
307.228
307.25
307.273
307.295
307.318
307.34
307.363
307.38
307.154
307.168
307.184
307.202
307.222
307.243
307.265
307.287
307.309
307.332
307.355
307.377
307.4
307.422
306.57
306.565
306.566
306.569
306.573
306.578
306.585
306.593
306.601
306.611
306.621
306.632
306.642
306.653
306.603
306.597
306.599
306.601
306.604
306.61
306.616
306.624
306.633
306.642
306.652
306.663
306.674
306.686
306.634
306.629
306.631
306.633
306.637
306.643
306.649
306.657
306.665
306.675
306.685
306.695
306.705
306.718
306.666
306.663
306.665
306.668
306.672
306.677
306.684
306.692
306.7
306.71
306.72
306.73
306.741
306.754
306.699
306.697
306.7
306.703
306.707
306.713
306.72
306.728
306.737
306.747
306.757
306.767
306.778
306.79
306.733
306.733
306.735
306.739
306.744
306.75
306.758
306.766
306.775
306.785
306.795
306.806
306.817
306.829
306.767
306.768
306.771
306.775
306.781
306.788
306.796
306.805
306.814
306.825
306.835
306.846
306.858
306.869
306.801
306.803
306.807
306.812
306.819
306.826
306.835
306.845
306.855
306.866
306.877
306.888
306.901
306.911
306.835
306.839
306.843
306.849
306.857
306.865
306.875
306.885
306.896
306.907
306.919
306.931
306.944
306.954
306.869
306.874
306.879
306.887
306.895
306.904
306.915
306.926
306.938
306.95
306.962
306.974
306.988
306.998
306.902
306.909
306.915
306.924
306.933
306.944
306.955
306.968
306.98
306.993
307.005
307.018
307.032
307.041
306.937
306.945
306.952
306.962
306.972
306.983
306.996
307.009
307.022
307.035
307.049
307.062
307.078
307.086
306.97
306.979
306.987
306.998
307.01
307.022
307.036
307.05
307.064
307.078
307.092
307.106
307.122
307.131
307.007
307.015
307.025
307.036
307.048
307.062
307.076
307.09
307.105
307.12
307.135
307.149
307.165
307.177
306.526
306.517
306.512
306.507
306.504
306.502
306.502
306.502
306.504
306.506
306.509
306.514
306.518
306.524
306.551
306.541
306.536
306.531
306.528
306.526
306.525
306.525
306.526
306.528
306.53
306.534
306.538
306.545
306.574
306.565
306.56
306.555
306.552
306.55
306.549
306.549
306.549
306.551
306.553
306.556
306.559
306.566
306.598
306.59
306.585
306.58
306.577
306.575
306.574
306.574
306.574
306.576
306.578
306.58
306.583
306.589
306.622
306.615
306.61
306.606
306.603
306.602
306.6
306.6
306.601
306.602
306.604
306.607
306.61
306.614
306.647
306.641
306.637
306.633
306.631
306.629
306.628
306.628
306.629
306.63
306.632
306.635
306.637
306.641
306.672
306.667
306.664
306.661
306.659
306.658
306.657
306.658
306.658
306.66
306.662
306.664
306.667
306.67
306.698
306.695
306.692
306.689
306.688
306.687
306.687
306.688
306.689
306.691
306.693
306.695
306.698
306.7
306.724
306.723
306.72
306.719
306.718
306.718
306.718
306.719
306.721
306.723
306.725
306.728
306.732
306.733
306.751
306.751
306.749
306.749
306.749
306.749
306.751
306.752
306.754
306.756
306.76
306.763
306.767
306.767
306.779
306.78
306.779
306.78
306.781
306.782
306.784
306.786
306.788
306.791
306.795
306.798
306.803
306.802
306.808
306.81
306.81
306.811
306.813
306.815
306.817
306.82
306.824
306.827
306.832
306.836
306.841
306.839
306.837
306.84
306.841
306.843
306.846
306.849
306.852
306.856
306.859
306.864
306.868
306.873
306.878
306.876
306.87
306.871
306.873
306.876
306.879
306.883
306.887
306.891
306.896
306.901
306.906
306.911
306.916
306.918
306.513
306.501
306.492
306.484
306.477
306.471
306.465
306.461
306.457
306.454
306.452
306.451
306.449
306.448
306.528
306.516
306.508
306.499
306.492
306.485
306.48
306.474
306.47
306.467
306.464
306.461
306.459
306.458
306.542
306.531
306.523
306.514
306.507
306.5
306.494
306.489
306.484
306.48
306.477
306.474
306.471
306.47
306.557
306.547
306.539
306.53
306.523
306.516
306.51
306.504
306.499
306.495
306.491
306.487
306.484
306.483
306.572
306.563
306.555
306.547
306.539
306.533
306.526
306.521
306.515
306.511
306.506
306.503
306.499
306.497
306.588
306.579
306.571
306.564
306.557
306.55
306.544
306.538
306.532
306.527
306.523
306.519
306.515
306.512
306.604
306.596
306.589
306.581
306.575
306.568
306.562
306.556
306.551
306.545
306.541
306.536
306.532
306.528
306.622
306.614
306.607
306.6
306.593
306.587
306.581
306.575
306.57
306.564
306.56
306.555
306.551
306.546
306.639
306.633
306.626
306.619
306.613
306.607
306.601
306.596
306.59
306.585
306.58
306.575
306.57
306.565
306.658
306.652
306.646
306.64
306.634
306.628
306.622
306.617
306.611
306.606
306.601
306.595
306.591
306.585
306.677
306.672
306.666
306.661
306.655
306.649
306.644
306.639
306.633
306.628
306.623
306.617
306.613
306.607
306.697
306.693
306.687
306.682
306.677
306.672
306.667
306.662
306.657
306.651
306.646
306.64
306.636
306.631
306.718
306.715
306.71
306.705
306.7
306.695
306.69
306.685
306.68
306.675
306.67
306.664
306.66
306.655
306.742
306.737
306.732
306.727
306.723
306.719
306.715
306.71
306.706
306.701
306.696
306.69
306.687
306.682
306.505
306.493
306.483
306.473
306.464
306.455
306.447
306.439
306.432
306.425
306.419
306.412
306.407
306.401
306.511
306.5
306.49
306.481
306.471
306.462
306.454
306.445
306.438
306.43
306.423
306.416
306.41
306.404
306.518
306.507
306.497
306.488
306.478
306.469
306.46
306.452
306.444
306.436
306.429
306.422
306.415
306.408
306.525
306.515
306.505
306.495
306.486
306.477
306.468
306.459
306.451
306.442
306.435
306.427
306.419
306.412
306.533
306.523
306.513
306.503
306.494
306.485
306.475
306.466
306.458
306.449
306.441
306.433
306.425
306.417
306.541
306.531
306.521
306.512
306.502
306.493
306.484
306.474
306.465
306.456
306.447
306.439
306.43
306.422
306.548
306.539
306.53
306.52
306.511
306.501
306.492
306.482
306.473
306.464
306.455
306.446
306.437
306.428
306.557
306.548
306.539
306.529
306.52
306.51
306.501
306.491
306.481
306.472
306.462
306.453
306.443
306.434
306.566
306.557
306.548
306.538
306.529
306.519
306.51
306.5
306.49
306.48
306.47
306.46
306.451
306.441
306.575
306.566
306.557
306.548
306.539
306.529
306.519
306.509
306.499
306.489
306.479
306.468
306.458
306.448
306.584
306.576
306.567
306.558
306.548
306.539
306.529
306.519
306.509
306.498
306.488
306.477
306.467
306.456
306.594
306.586
306.577
306.568
306.559
306.549
306.539
306.529
306.518
306.508
306.497
306.486
306.476
306.464
306.605
306.597
306.588
306.579
306.569
306.559
306.549
306.539
306.529
306.518
306.507
306.495
306.484
306.472
306.616
306.607
306.598
306.589
306.58
306.57
306.56
306.55
306.54
306.529
306.518
306.506
306.495
306.482
306.486
306.474
306.464
306.454
306.444
306.434
306.424
306.414
306.404
306.394
306.385
306.375
306.366
306.356
306.486
306.475
306.466
306.456
306.445
306.435
306.425
306.414
306.404
306.393
306.384
306.373
306.364
306.353
306.486
306.476
306.466
306.456
306.445
306.435
306.425
306.414
306.404
306.393
306.383
306.372
306.362
306.351
306.486
306.476
306.466
306.456
306.445
306.435
306.424
306.414
306.403
306.392
306.381
306.371
306.36
306.349
306.485
306.476
306.466
306.456
306.445
306.435
306.424
306.413
306.402
306.391
306.38
306.369
306.358
306.347
306.485
306.476
306.466
306.456
306.445
306.434
306.423
306.412
306.401
306.389
306.378
306.366
306.355
306.344
306.485
306.476
306.466
306.455
306.445
306.434
306.423
306.411
306.4
306.388
306.376
306.364
306.352
306.34
306.484
306.475
306.465
306.455
306.444
306.433
306.422
306.41
306.398
306.386
306.374
306.361
306.349
306.337
306.484
306.475
306.465
306.454
306.443
306.432
306.42
306.408
306.396
306.384
306.371
306.359
306.346
306.333
306.484
306.474
306.464
306.453
306.442
306.431
306.419
306.407
306.394
306.381
306.368
306.356
306.342
306.33
306.483
306.473
306.463
306.452
306.441
306.429
306.417
306.405
306.392
306.379
306.365
306.352
306.339
306.326
306.483
306.472
306.462
306.451
306.439
306.428
306.415
306.403
306.39
306.376
306.363
306.349
306.335
306.322
306.483
306.471
306.461
306.449
306.438
306.426
306.413
306.401
306.387
306.373
306.359
306.345
306.331
306.317
306.482
306.47
306.46
306.448
306.436
306.424
306.411
306.398
306.385
306.372
306.358
306.344
306.329
306.315
306.434
306.424
306.415
306.405
306.395
306.384
306.373
306.361
306.35
306.337
306.326
306.313
306.302
306.289
306.427
306.418
306.408
306.399
306.389
306.378
306.367
306.355
306.343
306.331
306.319
306.306
306.294
306.281
306.419
306.411
306.401
306.392
306.381
306.371
306.36
306.348
306.336
306.324
306.312
306.299
306.287
306.274
306.411
306.403
306.394
306.384
306.374
306.363
306.352
306.34
306.328
306.316
306.304
306.291
306.279
306.266
306.404
306.396
306.386
306.377
306.366
306.355
306.344
306.332
306.32
306.308
306.295
306.282
306.27
306.257
306.396
306.388
306.378
306.368
306.358
306.347
306.335
306.323
306.311
306.299
306.286
306.273
306.26
306.247
306.388
306.379
306.37
306.36
306.349
306.338
306.326
306.314
306.302
306.289
306.276
306.263
306.25
306.237
306.379
306.37
306.36
306.35
306.339
306.328
306.316
306.304
306.291
306.279
306.265
306.252
306.239
306.226
306.37
306.361
306.351
306.341
306.33
306.318
306.306
306.294
306.281
306.268
306.254
306.241
306.227
306.214
306.361
306.351
306.341
306.33
306.319
306.307
306.295
306.282
306.269
306.256
306.242
306.229
306.215
306.202
306.351
306.341
306.331
306.32
306.308
306.296
306.284
306.271
306.257
306.244
306.23
306.216
306.202
306.19
306.341
306.33
306.32
306.308
306.297
306.284
306.272
306.259
306.245
306.232
306.217
306.204
306.189
306.177
306.331
306.319
306.309
306.297
306.285
306.273
306.26
306.246
306.232
306.218
306.204
306.19
306.175
306.163
306.32
306.307
306.297
306.285
306.272
306.26
306.247
306.234
306.22
306.206
306.192
306.178
306.163
306.15
306.317
306.309
306.301
306.292
306.283
306.273
306.263
306.252
306.24
306.228
306.216
306.203
306.303
306.296
306.289
306.28
306.271
306.262
306.251
306.24
306.228
306.216
306.203
306.19
306.289
306.283
306.275
306.267
306.258
306.248
306.238
306.227
306.215
306.203
306.191
306.178
306.275
306.27
306.261
306.253
306.244
306.235
306.224
306.213
306.202
306.19
306.177
306.165
306.262
306.256
306.247
306.239
306.23
306.22
306.21
306.199
306.188
306.176
306.164
306.151
306.247
306.241
306.233
306.224
306.215
306.205
306.195
306.184
306.172
306.161
306.149
306.136
306.233
306.226
306.218
306.209
306.199
306.19
306.179
306.168
306.157
306.145
306.133
306.121
306.218
306.21
306.202
306.193
306.183
306.173
306.163
306.152
306.14
306.128
306.116
306.104
306.202
306.194
306.186
306.176
306.167
306.156
306.146
306.135
306.123
306.111
306.099
306.087
306.186
306.177
306.169
306.159
306.149
306.139
306.128
306.117
306.105
306.094
306.082
306.07
306.17
306.161
306.152
306.142
306.132
306.121
306.11
306.099
306.087
306.076
306.063
306.052
306.153
306.143
306.134
306.124
306.114
306.103
306.092
306.081
306.069
306.057
306.045
306.033
306.137
306.126
306.117
306.107
306.096
306.085
306.074
306.062
306.05
306.038
306.025
306.014
306.119
306.107
306.097
306.087
306.077
306.066
306.055
306.043
306.031
306.019
306.007
305.996
308.748
308.762
308.779
308.795
308.813
308.831
308.761
308.778
308.798
308.819
308.84
308.865
308.775
308.796
308.819
308.843
308.867
308.895
308.789
308.812
308.837
308.864
308.891
308.923
308.668
308.684
308.703
308.723
308.743
308.765
308.674
308.695
308.718
308.744
308.77
308.798
308.684
308.708
308.735
308.765
308.796
308.829
308.693
308.72
308.75
308.783
308.818
308.856
308.704
308.733
308.765
308.8
308.838
308.88
308.714
308.744
308.777
308.814
308.855
308.898
308.724
308.755
308.788
308.826
308.867
308.912
308.585
308.605
308.626
308.648
308.67
308.692
308.583
308.61
308.637
308.665
308.693
308.723
308.588
308.619
308.651
308.684
308.719
308.754
308.592
308.626
308.662
308.701
308.741
308.782
308.597
308.634