/*--------------------------------*- C++ -*----------------------------------*\
| =========                 |                                                 |
| \\      /  F ield         | OpenFOAM: The Open Source CFD Toolbox           |
|  \\    /   O peration     | Version:  v2106                                 |
|   \\  /    A nd           | Website:  www.openfoam.com                      |
|    \\/     M anipulation  |                                                 |
\*---------------------------------------------------------------------------*/
FoamFile
{
    version     2.0;
    format      ascii;
    arch        "LSB;label=32;scalar=64";
    class       volScalarField;
    location    "0.000201";
    object      k;
}
// * * * * * * * * * * * * * * * * * * * * * * * * * * * * * * * * * * * * * //

dimensions      [0 2 -2 0 0 0 0];

internalField   nonuniform List<scalar> 
18109
(
0.0968807
0.0715667
0.0518659
0.0384329
0.0302715
0.0267858
0.0280799
0.0443337
0.0327816
0.0233243
0.0167696
0.0127536
0.0108616
0.0110273
0.0196858
0.0140423
0.0097209
0.00677895
0.00500571
0.00414819
0.00414425
0.00862167
0.00565329
0.00374816
0.00252611
0.00181722
0.00147877
0.0014792
0.0038348
0.00217052
0.00134043
0.000866868
0.000608339
0.000490257
0.000502974
0.00188432
0.000840434
0.000453602
0.000275103
0.000187748
0.000151764
0.000166746
0.00119625
0.000385554
0.00015771
8.28345e-05
5.38382e-05
4.47671e-05
5.74144e-05
0.00109234
0.000268065
7.1946e-05
2.65744e-05
1.51928e-05
1.38791e-05
2.3914e-05
0.0864702
0.0643183
0.0465536
0.034004
0.0258643
0.0215412
0.0209097
0.0247612
0.0355039
0.0572548
0.0951123
0.154381
0.243704
0.376409
0.0388062
0.028974
0.0205966
0.0146183
0.0107578
0.00865699
0.00818421
0.00964561
0.0142145
0.0242778
0.0435502
0.0770932
0.132071
0.22035
0.0167227
0.012174
0.00843748
0.00581103
0.00415256
0.00325267
0.00303812
0.00363649
0.0056428
0.010412
0.0204288
0.0398507
0.0749709
0.137026
0.00698954
0.00477976
0.00319278
0.00212736
0.00148015
0.0011368
0.00106665
0.00133815
0.00227827
0.00469279
0.0102555
0.022162
0.0458494
0.0914468
0.00291159
0.00177148
0.00111662
0.000716204
0.000485984
0.000369072
0.000357152
0.000495743
0.00097911
0.0023152
0.00566028
0.0134207
0.0301052
0.0643398
0.0013262
0.00064969
0.000366386
0.000222448
0.000147017
0.000111988
0.000117589
0.000196244
0.000470649
0.00127641
0.00343009
0.00874096
0.0208495
0.0468862
0.000801973
0.000275967
0.000120742
6.50132e-05
4.12785e-05
3.25326e-05
4.09985e-05
8.99929e-05
0.000261642
0.000789047
0.00226881
0.00608782
0.0151897
0.0354782
0.000738446
0.000180403
5.03547e-05
1.9708e-05
1.13668e-05
1.00894e-05
1.77328e-05
5.17016e-05
0.000171646
0.000551885
0.00165501
0.00459327
0.0118188
0.0283508
0.000914419
0.000189012
3.71874e-05
9.65034e-06
5.39957e-06
6.39237e-06
1.37719e-05
4.23563e-05
0.00014236
0.000462376
0.00140206
0.00393569
0.0102507
0.0248742
0.00127734
0.000252581
4.87727e-05
1.60218e-05
1.36553e-05
1.77035e-05
2.89934e-05
6.36841e-05
0.000174983
0.00051742
0.00149744
0.00409509
0.0104986
0.025202
0.00187831
0.000395522
0.000101305
5.54866e-05
5.78127e-05
7.36395e-05
0.000103911
0.000172068
0.000350979
0.00084352
0.00215598
0.00546169
0.0133006
0.030691
0.00297745
0.000772752
0.000291003
0.00020805
0.000224539
0.000282635
0.000382699
0.000566256
0.00095207
0.00185702
0.00402798
0.00910211
0.0204561
0.0442688
0.0052595
0.00183912
0.0009075
0.000712399
0.000764495
0.000952733
0.00127354
0.00180858
0.00276534
0.00467803
0.00873723
0.0174071
0.0354828
0.0707311
0.010496
0.00478975
0.00269927
0.00217642
0.00230361
0.00284648
0.00378393
0.00527703
0.00767898
0.0118567
0.0195776
0.034358
0.0628415
0.114707
0.203789
0.340605
0.564022
0.927095
1.52826
2.55056
0.18448
0.313369
0.527438
0.878071
1.45221
2.39553
0.133523
0.244431
0.436169
0.76241
1.32243
2.31826
0.0980952
0.192642
0.364535
0.672051
1.23418
2.3242
0.0737802
0.155018
0.312565
0.615247
1.21536
2.48546
0.0581939
0.13091
0.283079
0.601721
1.29464
2.89143
0.0505783
0.121647
0.283936
0.657892
1.54706
3.71592
0.0511308
0.130337
0.32509
0.804399
2.00295
4.95089
0.0617278
0.161914
0.415624
1.0501
2.61798
6.35278
0.0869095
0.223561
0.561382
1.38065
3.32164
7.68691
0.132841
0.319846
0.752781
1.73836
3.92463
8.44902
0.204728
0.449277
0.971818
2.07712
4.34972
8.61869
0.307248
0.609311
1.2012
2.35412
4.53156
8.25732
0.450398
0.803449
1.43479
2.5657
4.53421
7.62199
0.653369
1.05375
1.70799
2.77222
4.43626
6.80766
0.427599
0.762572
1.37016
2.33531
3.78431
5.77565
0.308688
0.587234
1.08414
1.85991
3.04271
4.7922
0.234583
0.45976
0.855214
1.4941
2.51375
4.16678
0.178597
0.356599
0.672674
1.20523
2.10546
3.71761
0.134969
0.276433
0.536044
0.993208
1.81447
3.47979
0.10222
0.215731
0.432182
0.830449
1.58615
3.28597
0.0791607
0.171958
0.355888
0.709872
1.42622
3.19548
0.0641522
0.142554
0.303449
0.626625
1.32288
3.24098
0.0564291
0.126743
0.274623
0.583341
1.29243
3.44613
0.05622
0.125169
0.270749
0.581399
1.32295
3.64006
0.0655238
0.140466
0.294794
0.621541
1.40019
3.73812
0.0879705
0.175947
0.348026
0.697572
1.49357
3.66545
0.128335
0.235051
0.429953
0.800382
1.58353
3.48673
0.189775
0.316879
0.533207
0.914914
1.65032
3.20561
0.166447
0.255908
0.424854
0.746121
1.36887
2.61345
0.116206
0.196758
0.348721
0.640719
1.19286
2.26246
0.0765763
0.148621
0.286513
0.547264
1.03018
1.96324
0.051216
0.111743
0.228417
0.448274
0.861264
1.68814
0.0349443
0.0823276
0.175787
0.357011
0.710045
1.45013
0.0240918
0.059198
0.131216
0.27721
0.573881
1.22692
0.0167042
0.0419947
0.0964641
0.212753
0.461123
1.03676
0.0116586
0.0296988
0.0706058
0.162892
0.369991
0.875255
0.00842482
0.0216538
0.0531169
0.127926
0.304608
0.761439
0.00670999
0.0173879
0.0435599
0.107969
0.266269
0.697566
0.00664279
0.0172224
0.0427847
0.105548
0.261737
0.698273
0.00880152
0.0224148
0.0534042
0.125873
0.298765
0.767664
0.013743
0.0338529
0.0781146
0.173475
0.379664
0.881992
0.0197313
0.0457713
0.104654
0.2244
0.45808
0.967811
0.0161844
0.0512185
0.158026
0.451651
1.19916
2.94335
0.0302301
0.0831649
0.225651
0.57057
1.33794
2.8962
0.0575238
0.134827
0.314254
0.694778
1.44129
2.78667
0.109911
0.217583
0.427735
0.819627
1.51863
2.69006
0.0240201
0.0606986
0.136599
0.281023
0.545657
1.07642
0.0165387
0.0490171
0.11921
0.254917
0.515012
1.05798
0.0114539
0.0367717
0.0952381
0.212362
0.451055
0.98084
0.00791414
0.0261978
0.07101
0.167041
0.378126
0.885951
0.00544695
0.0183413
0.0510131
0.127122
0.311483
0.801626
0.0038105
0.0130341
0.0377035
0.100467
0.269933
0.78552
0.00289167
0.0100691
0.0309577
0.0910703
0.27636
0.909117
0.00268624
0.00953753
0.0316581
0.103017
0.341092
1.15696
0.00341147
0.0120977
0.0422128
0.14305
0.474815
1.52963
0.00576236
0.0195238
0.066776
0.216701
0.667661
1.93413
0.0113264
0.0350712
0.109924
0.32244
0.884475
2.25083
0.0231655
0.0633872
0.175277
0.454076
1.09272
2.42886
0.0473427
0.111918
0.266481
0.602613
1.2756
2.50617
0.0952268
0.191358
0.384438
0.751901
1.41425
2.51703
3.81943
14.3177
39.6841
40.4406
30.4441
4.01408
15.2439
43.1689
40.4369
29.7857
4.41815
16.9026
48.266
40.2669
29.732
5.18619
19.425
53.101
40.1998
30.4351
6.58796
23.1181
56.3562
39.6992
30.8412
8.80707
28.0244
56.13
37.7076
30.5597
11.5629
33.2948
52.6657
35.0306
30.4575
14.0944
36.4041
48.8909
34.0666
31.1402
34.2349
15.9621
37.0494
45.9502
33.733
31.5387
35.6051
16.2146
34.634
43.2569
33.0113
31.0191
36.648
15.2235
30.8978
41.5177
32.7059
29.9382
36.9938
46.5703
13.5113
26.5957
40.6865
33.6843
28.8963
35.0152
52.87
66.3263
11.514
22.3213
40.3937
36.0643
28.9769
31.2745
50.8792
125.557
9.67181
19.1427
41.3239
39.9808
31.2516
29.9899
36.1137
94.9431
8.26527
18.0287
44.0728
43.9736
33.9012
30.86
34.5947
92.2268
7.4004
18.3632
48.7264
46.7321
34.9201
32.0069
36.1072
80.0977
7.38203
19.7732
56.2803
48.8709
35.9717
33.8629
37.3315
70.1087
7.54712
22.7448
65.6967
51.3609
38.2082
36.2815
36.8765
55.9644
7.79341
27.418
74.2122
52.8468
38.8513
37.252
36.9873
48.2943
8.11258
32.9848
75.9482
50.9288
37.0955
37.0976
37.0685
42.967
8.75546
38.679
72.6327
47.613
35.6198
37.7789
39.0741
39.8817
9.86092
43.0823
69.4773
47.0076
36.3273
39.3753
43.0779
38.8728
11.0726
44.5843
66.3652
46.9423
36.6117
40.1062
11.4838
41.7687
60.9166
45.8726
35.7576
39.5536
10.7755
35.4209
52.7118
44.6027
34.5939
38.4642
9.57524
28.3954
44.1287
44.3975
33.9449
35.6012
8.40886
22.3527
36.3199
44.208
35.0176
32.0133
7.3349
18.0478
31.7571
45.3934
38.5507
6.42748
15.0977
30.023
49.0318
42.8284
5.71862
13.0299
30.1795
53.7629
45.0812
5.137
11.633
32.7104
59.7395
46.515
4.59352
10.8963
38.7794
68.7849
49.9533
4.11362
10.7439
48.6802
78.2646
50.7559
3.67869
10.831
59.6577
81.7979
47.2703
3.29159
11.3719
68.4622
80.0169
43.7203
2.98368
12.6208
73.1064
77.6654
42.9758
2.81226
14.1437
72.2835
73.6496
41.6172
2.78089
14.9034
62.9338
65.8353
39.908
2.89703
14.615
49.6147
56.7726
38.7812
3.1405
13.6113
37.9327
48.5521
38.0392
3.40676
12.4158
30.0936
42.5133
36.9738
3.58201
11.3069
26.1616
40.6376
37.0017
3.60672
10.3312
24.7923
41.7161
37.6164
3.47637
9.62113
25.5213
43.8087
36.5614
3.28279
9.30935
29.0229
47.3072
35.6382
3.09318
9.53164
36.0228
52.0421
35.7006
2.93336
10.2107
45.6802
55.2688
34.1205
2.87385
11.2821
55.5686
54.2824
30.8889
3.17785
12.8872
62.7198
50.6531
28.5602
3.78261
15.8167
63.6029
47.6837
27.8941
4.58589
18.4495
60.4982
44.9485
27.3094
5.09971
18.7528
54.6404
41.8432
26.8598
5.10958
17.0512
48.8545
39.9
26.6135
4.74508
14.6547
43.4823
38.8664
27.1672
4.31268
13.2844
39.3824
38.453
28.5613
3.97133
13.6509
38.0771
39.2887
29.9033
0.0768153
0.0574661
0.0417262
0.0303387
0.0227247
0.0183351
0.0169941
0.0191497
0.0266305
0.0429835
0.0733614
0.12373
0.202527
0.321829
0.0336651
0.025222
0.0179791
0.0127224
0.0092427
0.00722846
0.00656317
0.0073973
0.0106296
0.01822
0.0335847
0.061815
0.109908
0.189319
0.0140668
0.0103016
0.00716411
0.00492508
0.00348072
0.00265344
0.00238925
0.00275101
0.00420383
0.0078621
0.0159335
0.0323399
0.0632214
0.119729
0.00563501
0.00391501
0.00263306
0.00175448
0.00120944
0.000904586
0.000820644
0.000999036
0.00170199
0.00360399
0.00818448
0.0183874
0.0394504
0.0814369
0.00221789
0.00139504
0.000892561
0.000574334
0.000386891
0.000286378
0.000269219
0.000368329
0.000743637
0.00182828
0.00464957
0.0114172
0.026434
0.0582024
0.000944529
0.000486019
0.000282334
0.000173228
0.000114067
8.48821e-05
8.75084e-05
0.000147671
0.000368538
0.00104081
0.00289601
0.00760132
0.0186204
0.0429353
0.00054602
0.000193544
8.85142e-05
4.89591e-05
3.12308e-05
2.42225e-05
3.06718e-05
6.99316e-05
0.000212296
0.000662571
0.00196058
0.00539249
0.0137642
0.0328387
0.000505988
0.000120355
3.41976e-05
1.41094e-05
8.40558e-06
7.51908e-06
1.36768e-05
4.16408e-05
0.000143076
0.00047268
0.00145217
0.00411858
0.0108153
0.0264321
0.00064115
0.000124339
2.35939e-05
6.58493e-06
4.16247e-06
5.12891e-06
1.1165e-05
3.49244e-05
0.000120066
0.000399079
0.00123763
0.00354749
0.00942166
0.023268
0.000913225
0.00016688
3.14432e-05
1.2095e-05
1.16462e-05
1.53265e-05
2.47592e-05
5.36916e-05
0.000148192
0.000445845
0.00131818
0.00368346
0.00963582
0.0235532
0.00137833
0.000270463
7.20058e-05
4.57771e-05
5.08172e-05
6.53848e-05
9.1684e-05
0.000149716
0.00030247
0.000730672
0.00189808
0.00490837
0.0121994
0.0286748
0.00228599
0.000568084
0.000226132
0.000177616
0.000199983
0.000254645
0.000344419
0.000505448
0.000840818
0.00163429
0.00357461
0.00821422
0.0188185
0.0414818
0.00431184
0.00146988
0.00074483
0.000619469
0.000687545
0.000868022
0.00116216
0.00164319
0.00249279
0.00419484
0.00785956
0.0158598
0.0328997
0.0667477
0.00909624
0.00406487
0.00229188
0.0019218
0.00209302
0.00262315
0.00349872
0.00486733
0.00704296
0.0108219
0.0178624
0.0316064
0.0586565
0.108899
0.0626071
0.0470688
0.0344875
0.0250042
0.0184788
0.0144044
0.0125736
0.0128427
0.0163076
0.0250134
0.0432363
0.077329
0.135793
0.229159
0.0254168
0.018905
0.0135974
0.00961895
0.0069342
0.00526648
0.00452386
0.00463705
0.00614867
0.0101918
0.0192889
0.0377388
0.0723746
0.134248
0.00975128
0.00701837
0.00492645
0.00339692
0.00239594
0.00177971
0.00151642
0.00158894
0.00227467
0.00424044
0.00907198
0.0198135
0.0421446
0.0872295
0.0035113
0.00239713
0.00163232
0.00109591
0.000759012
0.00055448
0.000474554
0.000527012
0.000866146
0.00191087
0.00472465
0.0115609
0.0270799
0.0611653
0.0012172
0.00075773
0.000493562
0.00032187
0.000219672
0.000159217
0.00014057
0.000178358
0.0003675
0.000986881
0.00278041
0.00745449
0.0187765
0.0449556
0.00046744
0.000233608
0.000137851
8.61404e-05
5.79954e-05
4.24114e-05
4.12204e-05
6.81567e-05
0.000185944
0.000587904
0.00181088
0.00516437
0.0136824
0.0340596
0.000282843
8.81516e-05
3.83555e-05
2.13787e-05
1.40634e-05
1.08071e-05
1.34281e-05
3.29585e-05
0.000113563
0.000396101
0.00128574
0.0038192
0.0104882
0.0268524
0.000308776
6.12215e-05
1.42975e-05
5.47329e-06
3.38958e-06
3.11645e-06
6.05717e-06
2.08953e-05
8.09566e-05
0.000295576
0.000988814
0.00302093
0.00851403
0.0222484
0.000442122
7.22951e-05
1.0957e-05
2.83604e-06
2.10061e-06
2.70662e-06
5.74223e-06
1.87437e-05
7.03486e-05
0.000256376
0.000865102
0.00267718
0.00763187
0.0201117
0.00068326
0.000105516
1.67976e-05
7.3367e-06
8.03973e-06
1.05228e-05
1.58439e-05
3.22187e-05
9.00314e-05
0.00029039
0.000932634
0.0028239
0.00794179
0.0206986
0.00110109
0.000183908
4.42568e-05
3.17249e-05
3.78119e-05
4.89933e-05
6.66473e-05
0.000103146
0.000200908
0.000496581
0.00137531
0.00383552
0.010224
0.0255389
0.00194246
0.000416962
0.000154478
0.000130377
0.000154783
0.000200323
0.000268154
0.000382143
0.000614386
0.00118739
0.00268965
0.00656317
0.0160144
0.0373314
0.00379843
0.00115589
0.00055015
0.00047718
0.000550877
0.000707989
0.000945644
0.00131615
0.00195283
0.00325174
0.00618685
0.0130325
0.0285419
0.0609105
0.00809387
0.00343541
0.00182068
0.00155776
0.00174008
0.00221801
0.00296264
0.00408667
0.00583199
0.00888123
0.0146975
0.0266511
0.0515539
0.100189
0.0457289
0.0341328
0.0251649
0.0184202
0.0139217
0.0109994
0.00960683
0.00944063
0.0112422
0.0161192
0.0271109
0.0488506
0.0892859
0.157445
0.0168153
0.0122411
0.00883921
0.00629227
0.00464152
0.00358163
0.00309758
0.00308006
0.003865
0.00605818
0.011337
0.022674
0.0459781
0.0923399
0.00585324
0.0040663
0.00285912
0.00196967
0.00141822
0.00106653
0.000915935
0.000934129
0.00127979
0.00231227
0.00504294
0.0115706
0.0266387
0.0612251
0.00190733
0.00124432
0.000846836
0.000562839
0.000395288
0.000289597
0.000249075
0.000269978
0.000435484
0.000974728
0.00254842
0.00671569
0.0172814
0.0435579
0.000604781
0.000353785
0.000229073
0.000146197
0.000100038
7.15758e-05
6.33104e-05
8.03136e-05
0.000172858
0.000497741
0.00151976
0.00443939
0.012333
0.0328821
0.000233984
0.000101527
5.7435e-05
3.45683e-05
2.2952e-05
1.62468e-05
1.60238e-05
2.85694e-05
8.74631e-05
0.000305166
0.00102667
0.00320217
0.00935627
0.0258233
0.000175105
4.22978e-05
1.50808e-05
7.62296e-06
4.80365e-06
3.53763e-06
4.79936e-06
1.40206e-05
5.55189e-05
0.000214913
0.000765573
0.00249966
0.00757881
0.0214493
0.000233641
3.81249e-05
6.52904e-06
1.88576e-06
1.0668e-06
9.97492e-07
2.27659e-06
9.26233e-06
4.08304e-05
0.000166574
0.000618063
0.00209299
0.00652446
0.0187776
0.00037042
5.27701e-05
6.49173e-06
1.4286e-06
1.16991e-06
1.55295e-06
2.95406e-06
9.28899e-06
3.76534e-05
0.000153445
0.000579405
0.00199605
0.00627108
0.01803
0.000613315
8.45281e-05
1.14658e-05
5.0573e-06
5.99176e-06
8.01553e-06
1.13414e-05
2.05801e-05
5.53179e-05
0.00019055
0.00067629
0.00226023
0.00692426
0.0194089
0.00104896
0.000157812
3.3069e-05
2.39741e-05
2.99185e-05
3.99576e-05
5.38945e-05
7.95803e-05
0.000147187
0.000368144
0.00108911
0.00328626
0.00938091
0.0247962
0.00198073
0.000380672
0.000125067
0.000104846
0.000127443
0.00016925
0.000227618
0.000319261
0.000498884
0.00095932
0.00225116
0.00582566
0.0150573
0.0368208
0.0040157
0.00111111
0.000480726
0.000408345
0.000472024
0.000615952
0.000827133
0.00114568
0.00167779
0.00277989
0.00537764
0.0117983
0.0271541
0.0605645
0.00840706
0.00350517
0.00172198
0.00142348
0.001559
0.00199522
0.00267127
0.00368243
0.00523368
0.00796163
0.0132314
0.0244193
0.0488176
0.0988671
0.0259928
0.0190312
0.014281
0.0107167
0.00844411
0.00681461
0.00599539
0.00577478
0.00648983
0.00872253
0.0142606
0.0257393
0.0501451
0.0955181
0.00851311
0.00597651
0.00437321
0.00317536
0.00244614
0.00193362
0.00169385
0.00165001
0.00193968
0.00286772
0.00535805
0.011174
0.0249323
0.0564431
0.00261305
0.00172156
0.00122193
0.000855437
0.000643022
0.000495696
0.000431384
0.000428264
0.000546717
0.000956396
0.00219179
0.00554169
0.0145361
0.0384282
0.00074677
0.000450737
0.000307799
0.000207392
0.00015211
0.000114241
9.91175e-05
0.000103429
0.000158138
0.000368007
0.00107845
0.00325771
0.00967435
0.0280642
0.000225289
0.00011086
6.96715e-05
4.4907e-05
3.21233e-05
2.35674e-05
2.08339e-05
2.55505e-05
5.7004e-05
0.000187857
0.000667471
0.00226038
0.00724791
0.0222173
0.00011778
3.34437e-05
1.5038e-05
8.72077e-06
6.01913e-06
4.36904e-06
4.31201e-06
8.16684e-06
2.95097e-05
0.000122584
0.000481489
0.0017381
0.00584323
0.0184727
0.000135861
2.26951e-05
4.51201e-06
1.65183e-06
1.01551e-06
7.70405e-07
1.14568e-06
4.2007e-06
2.04696e-05
9.40131e-05
0.000389631
0.00146785
0.00509304
0.0163616
0.000216104
2.97022e-05
3.40819e-06
5.27745e-07
2.52734e-07
2.6667e-07
6.61763e-07
3.17968e-06
1.67181e-05
8.01873e-05
0.000344831
0.0013381
0.00471882
0.0151707
0.00036342
4.62197e-05
4.57498e-06
8.35841e-07
7.46855e-07
9.84783e-07
1.55905e-06
4.19808e-06
1.78781e-05
8.29181e-05
0.000357783
0.00139227
0.00486774
0.0153586
0.000631514
8.1269e-05
8.99815e-06
3.68821e-06
4.4903e-06
5.99283e-06
8.04391e-06
1.29351e-05
3.20298e-05
0.000115428
0.000452786
0.00167486
0.00560597
0.0169448
0.00112365
0.000161819
2.77685e-05
1.86813e-05
2.33112e-05
3.11903e-05
4.13763e-05
5.83726e-05
0.000101427
0.000250528
0.000783454
0.00255528
0.00784257
0.0221279
0.00222105
0.000399582
0.000111033
8.6817e-05
0.000103335
0.000136814
0.000181934
0.000249608
0.000376309
0.000704433
0.00168309
0.00460875
0.0127238
0.033161
0.00447296
0.00115208
0.000452374
0.000362951
0.000403331
0.000519723
0.000688142
0.000939259
0.00134767
0.00218513
0.00421384
0.00955392
0.0232636
0.0553657
0.00870447
0.00366087
0.00174429
0.00136624
0.00141801
0.00177565
0.00232892
0.0031616
0.00443429
0.00665301
0.0109253
0.0202939
0.0418905
0.0902208
0.00766258
0.00517782
0.00375271
0.00279724
0.00230242
0.00200761
0.00193448
0.0019964
0.00231422
0.00307272
0.00492891
0.00892456
0.0184489
0.0391386
0.00222923
0.00141763
0.00100006
0.000713728
0.000565618
0.000477806
0.000454534
0.000473848
0.000575222
0.000847631
0.00159804
0.00354637
0.00885992
0.0230246
0.000613034
0.000349831
0.00023929
0.000164216
0.000125578
0.000102305
9.55364e-05
0.000100973
0.000133645
0.000242158
0.000602464
0.00174108
0.00529335
0.0160794
0.000175232
7.90417e-05
5.06063e-05
3.34285e-05
2.47807e-05
1.94991e-05
1.79364e-05
1.99665e-05
3.32252e-05
8.87743e-05
0.000304897
0.00107786
0.00368814
0.0121532
8.03205e-05
2.08111e-05
9.836e-06
5.96746e-06
4.27554e-06
3.26987e-06
3.06579e-06
4.3037e-06
1.21164e-05
4.95102e-05
0.000207806
0.000814492
0.00298641
0.0104112
8.50933e-05
1.31185e-05
2.55727e-06
9.93198e-07
6.41264e-07
4.84181e-07
5.4906e-07
1.48894e-06
7.25041e-06
3.63625e-05
0.000165676
0.000686313
0.00263447
0.00948625
0.000132121
1.75179e-05
1.8454e-06
2.47693e-07
9.49029e-08
7.60454e-08
1.70323e-07
9.42452e-07
5.72833e-06
3.09358e-05
0.000148143
0.000641157
0.0025432
0.00928729
0.000231327
2.90749e-05
2.51272e-06
2.12445e-07
7.34627e-08
8.49111e-08
1.81098e-07
8.63546e-07
5.20909e-06
2.91295e-05
0.000145023
0.00064642
0.00259476
0.00939667
0.000412336
5.17179e-05
4.12768e-06
5.18846e-07
4.48874e-07
5.80601e-07
7.87655e-07
1.61593e-06
6.47533e-06
3.34345e-05
0.000165323
0.000733762
0.00289613
0.0101893
0.000752554
0.000102686
9.13248e-06
2.41625e-06
2.84143e-06
3.76035e-06
4.81497e-06
6.82914e-06
1.45461e-05
5.23328e-05
0.000226558
0.000939794
0.00350411
0.0116665
0.00136371
0.000210929
2.72596e-05
1.28086e-05
1.53399e-05
2.02892e-05
2.61465e-05
3.47512e-05
5.47331e-05
0.000127344
0.000416084
0.00148853
0.00503954
0.0155676
0.00251633
0.000487194
0.000104173
6.40347e-05
7.19246e-05
9.31842e-05
0.00012057
0.000159101
0.000225987
0.00039706
0.000940947
0.00272513
0.0081527
0.0230947
0.00456186
0.00122998
0.000423488
0.000292828
0.000303159
0.000377527
0.000483676
0.000638703
0.000882174
0.0013685
0.0025675
0.00592677
0.0152694
0.0393274
0.00836052
0.00355578
0.00171944
0.00121847
0.00116486
0.00139396
0.00175434
0.00230222
0.00314021
0.00459033
0.00734727
0.013464
0.0282626
0.0649108
0.000994396
0.00063401
0.000447043
0.000324791
0.000262934
0.000229213
0.000227148
0.000244902
0.000297119
0.000409439
0.000691558
0.00138694
0.00325088
0.00804573
0.000258875
0.00014897
0.000102656
7.21071e-05
5.61214e-05
4.69318e-05
4.49676e-05
4.78784e-05
5.98565e-05
9.33158e-05
0.000197938
0.000525311
0.00156927
0.004772
7.21518e-05
3.15165e-05
2.03918e-05
1.38938e-05
1.0506e-05
8.49076e-06
7.89367e-06
8.39544e-06
1.16697e-05
2.49221e-05
7.8608e-05
0.000283114
0.00101723
0.00349657
3.35119e-05
7.80534e-06
3.63051e-06
2.28614e-06
1.68091e-06
1.32495e-06
1.21654e-06
1.41365e-06
2.92559e-06
1.08233e-05
4.73277e-05
0.00019761
0.000762156
0.00275102
3.42879e-05
5.00117e-06
8.98292e-07
3.44128e-07
2.27006e-07
1.75187e-07
1.72756e-07
3.25047e-07
1.4133e-06
7.53094e-06
3.7074e-05
0.000163571
0.000660754
0.00251333
5.06175e-05
6.90054e-06
7.06434e-07
8.60491e-08
2.87965e-08
2.05735e-08
3.26202e-08
1.60205e-07
1.05323e-06
6.21045e-06
3.19433e-05
0.000146878
0.000621178
0.00246781
8.18543e-05
1.12708e-05
9.90868e-07
7.06412e-08
9.33393e-09
6.28843e-09
1.86716e-08
1.29796e-07
9.21744e-07
5.662e-06
3.0411e-05
0.000146653
0.000648243
0.00265209
0.000137771
1.93504e-05
1.58969e-06
1.02647e-07
3.06613e-08
3.46632e-08
5.11678e-08
1.58255e-07
9.28188e-07
5.7452e-06
3.21141e-05
0.000160857
0.000727429
0.0029792
0.000231536
3.34569e-05
2.77456e-06
2.62959e-07
2.1298e-07
2.7439e-07
3.41934e-07
5.10155e-07
1.47446e-06
7.44753e-06
4.04889e-05
0.000201958
0.000901087
0.0035917
0.000393296
5.98936e-05
5.85117e-06
1.22364e-06
1.39764e-06
1.83956e-06
2.28576e-06
2.90872e-06
4.80952e-06
1.43918e-05
6.33586e-05
0.000289191
0.0012104
0.00454566
0.00067536
0.000113379
1.62092e-05
6.73484e-06
7.94121e-06
1.03798e-05
1.30525e-05
1.64473e-05
2.28043e-05
4.4212e-05
0.000134132
0.000504226
0.00188137
0.00648974
0.00122482
0.000256174
6.23952e-05
3.62725e-05
3.97799e-05
5.04248e-05
6.34137e-05
8.06287e-05
0.000107056
0.000167848
0.000358232
0.00102367
0.00323797
0.0100245
0.00229416
0.00067779
0.000266725
0.000182518
0.000183176
0.000220529
0.000271248
0.000345434
0.000455639
0.000661756
0.00114255
0.00251207
0.00654471
0.0179684
0.00487277
0.0022577
0.00120108
0.000864181
0.000794607
0.000906509
0.00107466
0.00135555
0.00177813
0.00251077
0.00384944
0.00674556
0.0136055
0.0315541
6.97122e-05
4.27392e-05
3.02445e-05
2.20593e-05
1.73505e-05
1.44977e-05
1.36496e-05
1.4238e-05
1.71862e-05
2.48251e-05
4.69005e-05
0.000110525
0.000303516
0.000876893
1.68877e-05
8.39344e-06
5.71036e-06
4.08137e-06
3.15261e-06
2.57652e-06
2.36122e-06
2.40196e-06
2.95465e-06
5.08217e-06
1.34537e-05
4.5114e-05
0.00016025
0.000551826
6.59609e-06
1.78287e-06
9.23723e-07
6.21015e-07
4.71458e-07
3.80396e-07
3.44508e-07
3.57622e-07
5.46091e-07
1.59273e-06
6.72554e-06
2.90822e-05
0.000116871
0.000431553
6.38651e-06
1.0041e-06
2.02912e-07
8.42752e-08
5.75867e-08
4.56529e-08
4.24198e-08
5.71436e-08
1.82869e-07
9.53018e-07
4.94273e-06
2.28619e-05
9.43789e-05
0.000354986
9.12897e-06
1.32117e-06
1.56793e-07
2.15337e-08
6.826e-09
4.55495e-09
5.43832e-09
1.92553e-08
1.2533e-07
7.84026e-07
4.24538e-06
2.00655e-05
8.48715e-05
0.000330909
1.41205e-05
1.99965e-06
2.06949e-07
1.86867e-08
2.18937e-09
6.94957e-10
1.80041e-09
1.38492e-08
1.06038e-07
6.8697e-07
3.80504e-06
1.85011e-05
8.12892e-05
0.000332025
2.23822e-05
3.12649e-06
2.91435e-07
2.23158e-08
3.01911e-09
1.83874e-09
3.05506e-09
1.39575e-08
9.81369e-08
6.42993e-07
3.67644e-06
1.86567e-05
8.61241e-05
0.000368921
3.58573e-05
4.97343e-06
4.30017e-07
3.37393e-08
1.35012e-08
1.55032e-08
1.91286e-08
3.13859e-08
1.16128e-07
6.7866e-07
3.95312e-06
2.09193e-05
0.000100527
0.000442196
5.70252e-05
7.96043e-06
6.95567e-07
9.67497e-08
9.33601e-08
1.20851e-07
1.46854e-07
1.80956e-07
3.04832e-07
1.04261e-06
5.32792e-06
2.77428e-05
0.000133003
0.000578822
9.14265e-05
1.341e-05
1.48241e-06
4.91738e-07
6.02838e-07
7.91636e-07
9.75767e-07
1.17737e-06
1.5395e-06
2.94018e-06
9.98076e-06
4.43507e-05
0.000196646
0.000806294
0.000151536
2.59578e-05
4.89799e-06
2.83704e-06
3.44125e-06
4.44971e-06
5.52841e-06
6.75334e-06
8.43721e-06
1.24452e-05
2.72713e-05
8.96587e-05
0.000338411
0.00125139
0.000274456
6.62346e-05
2.2312e-05
1.58615e-05
1.78181e-05
2.22125e-05
2.74524e-05
3.39053e-05
4.23514e-05
5.74077e-05
9.563e-05
0.00022416
0.000666282
0.00212286
0.000547839
0.00020289
0.000101124
7.82673e-05
8.19899e-05
9.75884e-05
0.000118408
0.000146055
0.000183324
0.000242994
0.0003581
0.000655028
0.0015148
0.00408105
0.00133035
0.000699088
0.000429326
0.000347652
0.000345621
0.000392867
0.000462531
0.000562343
0.000703194
0.000924812
0.00129068
0.00201401
0.00361272
0.00786767
4.67901e-06
2.73813e-06
1.94209e-06
1.43818e-06
1.13446e-06
9.47298e-07
8.75388e-07
8.72411e-07
9.79955e-07
1.38929e-06
2.88297e-06
8.10717e-06
2.61002e-05
8.65163e-05
1.2488e-06
4.69944e-07
2.90136e-07
2.07006e-07
1.61503e-07
1.3449e-07
1.24107e-07
1.23563e-07
1.48138e-07
2.87908e-07
9.70392e-07
3.95452e-06
1.58499e-05
5.93751e-05
9.25571e-07
1.76133e-07
4.91212e-08
2.50699e-08
1.8174e-08
1.50261e-08
1.40598e-08
1.54399e-08
2.98901e-08
1.22935e-07
6.252e-07
2.97127e-06
1.26777e-05
4.89143e-05
1.30512e-06
2.13974e-07
3.16121e-08
5.55338e-09
1.96369e-09
1.34719e-09
1.37334e-09
2.82115e-09
1.45112e-08
9.04778e-08
5.07228e-07
2.47717e-06
1.06802e-05
4.1393e-05
1.98484e-06
3.1317e-07
4.16422e-08
5.05526e-09
6.72889e-10
1.55519e-10
2.30021e-10
1.50273e-09
1.16595e-08
7.82735e-08
4.47557e-07
2.21378e-06
9.67767e-06
3.82139e-05
3.01371e-06
4.50076e-07
5.4645e-08
5.88653e-09
6.727e-10
1.24998e-10
1.89891e-10
1.28318e-09
1.01196e-08
6.90378e-08
4.01823e-07
2.03052e-06
9.11899e-06
3.72514e-05
4.597e-06
6.49565e-07
7.12323e-08
6.93422e-09
1.08162e-09
6.41212e-10
7.83276e-10
1.79541e-09
9.77867e-09
6.4136e-08
3.80115e-07
1.98449e-06
9.29114e-06
3.98394e-05
6.99304e-06
9.42235e-07
9.50576e-08
1.01498e-08
4.50298e-09
5.15869e-09
6.16327e-09
7.72584e-09
1.59068e-08
7.05417e-08
3.98322e-07
2.13772e-06
1.04519e-05
4.68473e-05
1.05095e-05
1.38114e-06
1.40886e-07
2.85017e-08
2.88761e-08
3.74683e-08
4.53296e-08
5.2761e-08
6.78462e-08
1.41649e-07
5.65407e-07
2.83006e-06
1.37978e-05
6.22613e-05
1.59034e-05
2.2008e-06
3.02955e-07
1.41984e-07
1.78962e-07
2.34786e-07
2.86957e-07
3.36725e-07
4.00115e-07
5.6958e-07
1.32134e-06
4.98581e-06
2.17321e-05
9.2316e-05
2.51712e-05
4.40802e-06
1.10537e-06
7.92938e-07
9.93348e-07
1.28743e-06
1.58524e-06
1.8938e-06
2.25304e-06
2.88925e-06
4.74837e-06
1.21246e-05
4.18248e-05
0.000155867
4.53849e-05
1.2168e-05
4.9821e-06
3.99661e-06
4.72085e-06
5.95872e-06
7.33577e-06
8.87437e-06
1.06882e-05
1.33991e-05
1.89882e-05
3.58379e-05
9.32226e-05
0.000289762
9.64857e-05
4.0213e-05
2.1954e-05
1.82248e-05
2.01008e-05
2.43182e-05
2.95062e-05
3.5795e-05
4.35667e-05
5.47249e-05
7.33906e-05
0.000115983
0.000234497
0.00059976
0.000250528
0.000139072
8.95388e-05
7.63532e-05
7.95862e-05
9.17062e-05
0.000108236
0.000130166
0.000158958
0.000201023
0.00026509
0.000380918
0.000622905
0.00127038
5.47167e-07
2.78992e-07
1.89675e-07
1.38954e-07
1.09092e-07
9.16908e-08
8.50146e-08
8.34419e-08
8.9423e-08
1.24903e-07
2.85122e-07
9.30684e-07
3.35104e-06
1.19667e-05
2.01335e-07
5.43539e-08
2.52246e-08
1.63758e-08
1.25314e-08
1.05697e-08
9.9091e-09
9.94263e-09
1.22991e-08
2.8467e-08
1.1625e-07
5.27547e-07
2.24326e-06
8.71471e-06
2.24525e-07
4.1984e-08
8.0134e-09
2.24518e-09
1.19162e-09
9.4142e-10
9.08096e-10
1.12332e-09
2.97331e-09
1.5365e-08
8.51397e-08
4.22755e-07
1.86279e-06
7.3526e-06
3.35868e-07
6.09987e-08
9.7778e-09
1.48325e-09
2.49627e-10
8.37792e-11
8.4267e-11
2.73091e-10
1.79846e-09
1.20082e-08
7.00628e-08
3.54205e-07
1.57723e-06
6.26345e-06
4.92292e-07
8.61399e-08
1.31877e-08
1.83344e-09
2.29906e-10
3.07224e-11
2.61975e-11
1.83197e-10
1.47546e-09
1.0256e-08
6.09483e-08
3.13011e-07
1.41557e-06
5.71353e-06
7.03139e-07
1.15421e-07
1.63709e-08
2.1069e-09
2.54837e-10
4.53236e-11
4.08932e-11
1.71982e-10
1.26272e-09
8.81338e-09
5.32985e-08
2.7986e-07
1.29792e-06
5.39599e-06
1.00438e-06
1.53643e-07
1.99474e-08
2.40404e-09
3.87406e-10
2.1671e-10
2.42538e-10
3.71896e-10
1.3332e-09
8.07658e-09
4.88542e-08
2.63489e-07
1.26693e-06
5.5082e-06
1.42516e-06
2.03585e-07
2.464e-08
3.32487e-09
1.42771e-09
1.5956e-09
1.89216e-09
2.20239e-09
3.25503e-09
9.89269e-09
5.05601e-08
2.72515e-07
1.35636e-06
6.18007e-06
1.99826e-06
2.71858e-07
3.39131e-08
8.48768e-09
8.39649e-09
1.08337e-08
1.30799e-08
1.50044e-08
1.76727e-08
2.73246e-08
7.95442e-08
3.61714e-07
1.75271e-06
8.05755e-06
2.85036e-06
4.05667e-07
7.02474e-08
3.88389e-08
4.9025e-08
6.42751e-08
7.83568e-08
9.1255e-08
1.05335e-07
1.32958e-07
2.33247e-07
7.07247e-07
2.88197e-06
1.23031e-05
4.37246e-06
8.10289e-07
2.45909e-07
1.96578e-07
2.51824e-07
3.28617e-07
4.0443e-07
4.79628e-07
5.60164e-07
6.79283e-07
9.58172e-07
1.97739e-06
6.0194e-06
2.18872e-05
8.12863e-06
2.34828e-06
1.06294e-06
9.20043e-07
1.1272e-06
1.44155e-06
1.77631e-06
2.131e-06
2.521e-06
3.0474e-06
3.96905e-06
6.48624e-06
1.47775e-05
4.38272e-05
1.86698e-05
8.00973e-06
4.50465e-06
3.93861e-06
4.54497e-06
5.62269e-06
6.87205e-06
8.28917e-06
9.917e-06
1.20877e-05
1.5341e-05
2.21232e-05
4.00324e-05
9.64765e-05
5.06325e-05
2.75936e-05
1.77451e-05
1.56069e-05
1.69989e-05
2.01313e-05
2.41052e-05
2.89551e-05
3.4875e-05
4.30107e-05
5.45135e-05
7.41167e-05
0.000112787
0.000217915
8.19812e-08
3.27442e-08
1.99716e-08
1.41492e-08
1.10561e-08
9.47254e-09
8.96504e-09
8.8233e-09
9.15899e-09
1.25578e-08
3.11293e-08
1.14766e-07
4.49454e-07
1.6872e-06
4.61112e-08
1.01968e-08
3.04329e-09
1.49372e-09
1.06482e-09
9.13608e-10
8.85109e-10
9.15612e-10
1.20732e-09
3.29993e-09
1.53148e-08