/*--------------------------------*- C++ -*----------------------------------*\
| =========                 |                                                 |
| \\      /  F ield         | OpenFOAM: The Open Source CFD Toolbox           |
|  \\    /   O peration     | Version:  v2106                                 |
|   \\  /    A nd           | Website:  www.openfoam.com                      |
|    \\/     M anipulation  |                                                 |
\*---------------------------------------------------------------------------*/
FoamFile
{
    version     2.0;
    format      ascii;
    arch        "LSB;label=32;scalar=64";
    class       volScalarField;
    location    "0.000201";
    object      T;
}
// * * * * * * * * * * * * * * * * * * * * * * * * * * * * * * * * * * * * * //

dimensions      [0 0 0 1 0 0 0];

internalField   nonuniform List<scalar> 
18109
(
293.369
293.212
293.063
292.91
292.753
292.587
292.418
293.428
293.265
293.109
292.953
292.798
292.638
292.471
293.465
293.286
293.122
292.966
292.816
292.668
292.517
293.533
293.343
293.167
293.007
292.858
292.716
292.576
293.604
293.413
293.235
293.07
292.917
292.78
292.649
293.71
293.524
293.339
293.169
293.016
292.878
292.752
293.846
293.651
293.465
293.292
293.135
292.997
292.873
293.992
293.796
293.602
293.424
293.264
293.125
293.005
293.638
293.498
293.366
293.225
293.076
292.912
292.738
292.562
292.39
292.225
292.074
291.92
291.8
291.671
293.712
293.56
293.419
293.269
293.118
292.957
292.783
292.605
292.432
292.27
292.121
291.992
291.874
291.776
293.754
293.589
293.435
293.282
293.129
292.976
292.817
292.656
292.493
292.341
292.203
292.092
291.998
291.921
293.823
293.643
293.473
293.312
293.158
293.009
292.86
292.714
292.567
292.43
292.305
292.206
292.124
292.052
293.891
293.71
293.537
293.37
293.209
293.06
292.92
292.787
292.656
292.536
292.427
292.341
292.27
292.199
293.992
293.811
293.623
293.44
293.278
293.134
293.001
292.88
292.764
292.658
292.563
292.485
292.418
292.339
294.108
293.904
293.707
293.526
293.363
293.222
293.097
292.986
292.883
292.79
292.704
292.629
292.557
292.466
294.211
294
293.794
293.609
293.446
293.311
293.195
293.094
293.003
292.919
292.839
292.761
292.678
292.573
294.306
294.082
293.867
293.683
293.526
293.398
293.291
293.199
293.116
293.036
292.956
292.87
292.774
292.655
294.392
294.161
293.938
293.759
293.607
293.487
293.387
293.301
293.22
293.139
293.054
292.957
292.849
292.721
294.485
294.249
294.019
293.845
293.699
293.586
293.49
293.403
293.319
293.231
293.135
293.026
292.91
292.776
294.582
294.35
294.12
293.955
293.816
293.707
293.612
293.522
293.431
293.33
293.221
293.097
292.973
292.832
294.735
294.508
294.284
294.114
293.975
293.86
293.758
293.659
293.556
293.442
293.319
293.182
293.054
292.904
294.878
294.638
294.44
294.279
294.148
294.034
293.93
293.826
293.713
293.587
293.45
293.3
293.159
292.998
293.362
293.322
293.261
293.213
293.16
293.093
293.627
293.584
293.516
293.429
293.31
293.168
293.481
293.432
293.357
293.302
293.243
293.188
293.366
293.313
293.246
293.206
293.183
293.158
293.216
293.168
293.108
293.075
293.077
293.036
293.055
293.007
292.949
292.902
292.866
292.739
292.874
292.822
292.757
292.693
292.604
292.364
292.691
292.63
292.562
292.475
292.324
291.965
292.509
292.444
292.368
292.24
292.02
291.564
292.334
292.266
292.181
292.01
291.705
291.077
292.166
292.086
291.98
291.739
291.297
290.533
292.015
291.9
291.752
291.425
290.887
290.067
291.837
291.672
291.453
291.046
290.435
289.631
291.714
291.471
291.159
290.687
290.09
289.387
291.496
291.18
290.818
290.302
289.713
289.125
291.571
291.351
291.018
290.48
289.823
289.2
291.684
291.404
291.012
290.498
289.932
289.411
291.825
291.557
291.172
290.675
290.171
289.72
291.947
291.687
291.322
290.87
290.412
289.972
292.082
291.83
291.482
291.064
290.633
290.171
292.208
291.962
291.633
291.246
290.83
290.314
292.319
292.083
291.777
291.417
291.008
290.429
292.414
292.193
291.923
291.591
291.177
290.51
292.494
292.302
292.066
291.765
291.328
290.593
292.567
292.404
292.206
291.911
291.449
290.688
292.64
292.516
292.342
292.063
291.582
290.824
292.719
292.618
292.473
292.193
291.688
290.968
292.819
292.74
292.596
292.321
291.839
291.213
292.896
292.833
292.681
292.396
291.964
291.393
293.067
292.986
292.884
292.64
292.259
291.758
293.237
293.187
293.116
292.923
292.587
292.163
293.397
293.389
293.365
293.238
292.996
292.668
293.565
293.601
293.608
293.545
293.389
293.178
293.724
293.804
293.838
293.826
293.75
293.625
293.868
293.987
294.048
294.076
294.039
293.986
293.998
294.154
294.244
294.298
294.273
294.261
294.119
294.304
294.426
294.501
294.474
294.458
294.243
294.459
294.618
294.718
294.696
294.651
294.378
294.625
294.817
294.942
294.938
294.852
294.527
294.8
295.012
295.154
295.175
295.051
294.717
294.996
295.203
295.341
295.362
295.215
294.897
295.166
295.355
295.463
295.475
295.356
295.124
295.337
295.501
295.573
295.567
295.502
293.702
293.812
293.874
293.882
293.832
293.592
293.613
293.687
293.718
293.706
293.603
293.385
293.538
293.57
293.551
293.502
293.384
293.228
293.463
293.426
293.356
293.265
293.179
293.101
295.143
295.372
295.552
295.667
295.696
295.696
295.009
295.272
295.47
295.633
295.746
295.846
294.886
295.165
295.394
295.606
295.785
295.949
294.771
295.063
295.318
295.559
295.766
295.943
294.664
294.956
295.214
295.47
295.678
295.829
294.56
294.833
295.08
295.317
295.506
295.615
294.441
294.675
294.88
295.064
295.211
295.306
294.314
294.496
294.655
294.78
294.866
294.931
294.173
294.323
294.445
294.525
294.57
294.552
294.059
294.181
294.271
294.312
294.327
294.145
293.98
294.074
294.122
294.121
294.081
293.856
293.886
293.946
293.968
293.956
293.852
293.617
293.804
293.835
293.816
293.763
293.618
293.408
293.722
293.688
293.626
293.52
293.379
293.225
292.754
291.925
290.06
285.14
276.431
292.822
291.921
289.354
283.497
274.54
292.782
291.533
288.187
282.025
274.753
292.428
290.572
286.462
280.161
273.183
291.754
289.367
284.672
277.906
270.206
291.034
287.997
282.835
275.365
266.913
290.349
286.832
281.594
274.166
266.489
289.678
285.975
280.816
273.165
264.83
259.147
289.056
285.382
280.241
272.241
262.953
256.114
288.555
285.222
280.626
273.191
264.395
257.99
288.225
285.367
281.675
275.275
267.209
261.118
259.145
288.075
285.792
282.964
277.771
270.597
264.53
262.625
267.497
288.039
286.218
283.973
279.604
273.301
268.368
268.507
275.335
288.068
286.65
284.654
280.632
274.341
267.212
265.352
264.918
288.216
286.977
284.863
280.03
271.879
262.319
256.865
255.03
288.554
287.27
284.983
279.791
271.675
262.946
255.46
253.842
288.919
287.449
284.754
279.523
272.556
266.156
263.464
260.546
289.088
287.325
284.123
278.484
271.414
264.605
261.181
262.965
289.134
287.159
283.55
277.127
268.223
258.679
253.56
251.254
289.069
286.775
283.037
276.386
267.253
257.642
249.641
247.56
289.121
286.726
282.969
276.497
268.51
261.132
256.599
254.721
289.062
286.803
283.122
276.654
268.119
261.422
260.074
262.997
289.096
286.913
283.199
276.311
266.048
256.773
289.202
287.176
283.931
277.503
267.237
257.218
289.42
287.605
285.138
280.001
271.151
262.124
289.671
288.108
286.408
282.767
275.767
267.911
290.017
288.732
287.529
284.921
279.601
273.286
290.449
289.38
288.357
286.081
281.484
290.984
290.079
289.099
286.48
280.615
291.564
290.795
289.805
286.963
281.095
292.198
291.462
290.433
287.577
282.382
292.804
292.027
290.781
287.296
281.319
293.348
292.552
291.126
287.261
279.541
293.678
292.84
291.109
286.873
278.502
293.864
293.016
291.215
287.067
279.387
293.974
293.064
291.163
287.031
278.761
294.107
293.173
291.33
287.192
277.993
294.269
293.376
291.803
288.198
279.341
294.485
293.701
292.612
289.756
282.116
294.751
294.121
293.47
291.141
284.845
295.044
294.653
294.295
292.073
286.453
295.374
295.221
294.865
292.5
287.064
295.691
295.725
295.165
292.309
285.541
295.931
295.958
295.179
291.852
284.628
296.046
295.992
294.91
291.397
285.204
296.04
295.734
294.3
290.095
283.426
295.9
295.405
293.452
288.518
280.254
295.59
294.821
292.406
287.023
278.103
295.106
294.142
291.431
285.98
277.463
294.523
293.294
290.526
284.952
275.911
293.992
292.581
289.77
283.998
274.384
293.523
292.041
289.567
284.338
275.489
293.182
291.802
289.753
285.278
277.68
292.947
291.793
290.078
286.249
279.663
292.837
291.881
290.356
286.844
280.831
292.766
291.899
290.301
286.463
279.406
294.002
293.922
293.842
293.749
293.64
293.507
293.351
293.182
292.995
292.808
292.629
292.454
292.319
292.186
294.082
293.976
293.884
293.775
293.656
293.518
293.36
293.186
292.999
292.816
292.639
292.476
292.344
292.248
294.121
294.004
293.893
293.774
293.647
293.509
293.358
293.192
293.017
292.841
292.674
292.532
292.423
292.342
294.188
294.047
293.914
293.781
293.646
293.504
293.353
293.198
293.034
292.872
292.718
292.593
292.499
292.43
294.257
294.106
293.959
293.808
293.658
293.513
293.37
293.222
293.07
292.923
292.786
292.678
292.597
292.535
294.344
294.177
294.003
293.835
293.683
293.539
293.402
293.265
293.128
292.997
292.877
292.782
292.707
292.641
294.414
294.227
294.045
293.874
293.72
293.583
293.455
293.329
293.205
293.09
292.982
292.894
292.817
292.74
294.466
294.267
294.078
293.908
293.759
293.631
293.513
293.4
293.29
293.187
293.089
293.002
292.919
292.828
294.503
294.296
294.103
293.94
293.8
293.682
293.575
293.473
293.373
293.278
293.183
293.092
292.998
292.894
294.531
294.324
294.132
293.979
293.85
293.743
293.644
293.549
293.453
293.358
293.261
293.16
293.054
292.938
294.571
294.365
294.174
294.032
293.914
293.816
293.722
293.63
293.531
293.429
293.321
293.208
293.089
292.962
294.618
294.417
294.234
294.105
293.998
293.906
293.814
293.719
293.613
293.499
293.378
293.249
293.12
292.985
294.71
294.512
294.337
294.208
294.107
294.015
293.921
293.819
293.705
293.579
293.443
293.3
293.159
293.011
294.798
294.59
294.443
294.323
294.227
294.137
294.042
293.938
293.819
293.686
293.541
293.386
293.234
293.056
294.594
294.568
294.548
294.508
294.449
294.357
294.244
294.095
293.922
293.714
293.499
293.284
293.105
292.933
294.666
294.602
294.559
294.5
294.432
294.336
294.221
294.071
293.896
293.695
293.482
293.277
293.101
292.973
294.715
294.626
294.559
294.486
294.403
294.294
294.175
294.026
293.859
293.671
293.477
293.3
293.147
293.036
294.754
294.648
294.56
294.455
294.355
294.244
294.126
293.983
293.822
293.642
293.466
293.309
293.179
293.082
294.784
294.656
294.546
294.432
294.326
294.209
294.09
293.954
293.806
293.645
293.478
293.333
293.215
293.126
294.792
294.659
294.538
294.418
294.308
294.193
294.078
293.948
293.807
293.656
293.505
293.373
293.263
293.175
294.788
294.653
294.529
294.409
294.299
294.187
294.075
293.954
293.823
293.685
293.547
293.423
293.313
293.216
294.778
294.641
294.515
294.397
294.291
294.188
294.083
293.971
293.85
293.722
293.594
293.474
293.361
293.249
294.757
294.621
294.5
294.392
294.294
294.2
294.104
294
293.884
293.763
293.638
293.515
293.392
293.266
294.738
294.61
294.496
294.399
294.311
294.224
294.131
294.032
293.92
293.801
293.674
293.545
293.41
293.269
294.73
294.611
294.505
294.418
294.338
294.257
294.168
294.07
293.956
293.833
293.698
293.558
293.41
293.257
294.725
294.619
294.523
294.445
294.372
294.295
294.208
294.109
293.992
293.863
293.719
293.565
293.405
293.257
294.731
294.63
294.545
294.473
294.406
294.333
294.25
294.153
294.033
293.896
293.74
293.564
293.387
293.222
294.722
294.638
294.57
294.502
294.437
294.367
294.291
294.201
294.085
293.948
293.789
293.604
293.409
293.177
295.723
295.725
295.742
295.745
295.73
295.679
295.598
295.459
295.297
295.083
294.853
294.607
294.368
294.119
295.786
295.754
295.752
295.737
295.712
295.652
295.565
295.424
295.257
295.044
294.817
294.577
294.356
294.163
295.819
295.757
295.736
295.695
295.654
295.584
295.497
295.361
295.203
295.003
294.791
294.578
294.378
294.206
295.818
295.74
295.695
295.633
295.584
295.505
295.413
295.278
295.121
294.931
294.732
294.541
294.367
294.213
295.785
295.7
295.643
295.573
295.52
295.438
295.349
295.221
295.073
294.893
294.703
294.517
294.352
294.207
295.736
295.656
295.589
295.518
295.459
295.372
295.283
295.156
295.011
294.841
294.662
294.486
294.327
294.181
295.68
295.602
295.529
295.461
295.397
295.312
295.222
295.099
294.958
294.796
294.627
294.46
294.303
294.155
295.626
295.54
295.469
295.399
295.332
295.251
295.161
295.04
294.903
294.748
294.587
294.427
294.269
294.113
295.56
295.474
295.405
295.337
295.271
295.193
295.102
294.985
294.851
294.701
294.543
294.385
294.221
294.059
295.488
295.409
295.343
295.277
295.214
295.137
295.047
294.933
294.802
294.657
294.499
294.338
294.164
293.989
295.413
295.346
295.286
295.225
295.164
295.086
294.996
294.88
294.746
294.598
294.433
294.264
294.08
293.902
295.328
295.272
295.221
295.169
295.112
295.034
294.948
294.834
294.698
294.547
294.372
294.191
293.998
293.808
295.224
295.186
295.152
295.111
295.067
294.989
294.91
294.8
294.659
294.501
294.313
294.11
293.896
293.705
295.112
295.091
295.073
295.044
295.009
294.939
294.871
294.779
294.648
294.501
294.314
294.098
293.859
293.574
297.447
297.434
297.446
297.449
297.44
297.4
297.336
297.222
297.077
296.883
296.694
296.47
296.241
295.979
297.449
297.414
297.414
297.394
297.373
297.321
297.251
297.136
296.992
296.802
296.61
296.388
296.18
295.963
297.428
297.369
297.364
297.334
297.313
297.26
297.19
297.077
296.936
296.75
296.56
296.342
296.14
295.938
297.359
297.304
297.284
297.242
297.218
297.16
297.089
296.977
296.839
296.659
296.473
296.269
296.083
295.9
297.284
297.24
297.209
297.161
297.134
297.072
296.999
296.89
296.757
296.587
296.408
296.212
296.029
295.849
297.199
297.159
297.121
297.073
297.04
296.974
296.9
296.792
296.661
296.498
296.325
296.141
295.961
295.781
297.099
297.058
297.017
296.972
296.938
296.872
296.798
296.693
296.565
296.41
296.243
296.068
295.89
295.713
296.999
296.951
296.911
296.863
296.832
296.766
296.692
296.588
296.461
296.312
296.149
295.979
295.796
295.615
296.889
296.837
296.801
296.748
296.723
296.657
296.58
296.479
296.354
296.211
296.05
295.886
295.701
295.521
296.776
296.726
296.693
296.635
296.614
296.546
296.468
296.368
296.244
296.104
295.944
295.778
295.584
295.396
296.653
296.613
296.588
296.53
296.508
296.44
296.356
296.255
296.126
295.984
295.817
295.646
295.445
295.254
296.506
296.472
296.472
296.428
296.406
296.34
296.255
296.154
296.021
295.876
295.701
295.518
295.304
295.096
296.335
296.331
296.349
296.325
296.306
296.248
296.16
296.06
295.916
295.761
295.568
295.366
295.137
294.918
296.154
296.16
296.207
296.213
296.199
296.153
296.073
295.983
295.843
295.69
295.496
295.278
295.014
294.71
299.78
299.732
299.734
299.709
299.681
299.627
299.558
299.46
299.342
299.196
299.055
298.883
298.719
298.506
299.714
299.651
299.645
299.61
299.578
299.525
299.459
299.364
299.249
299.103
298.953
298.776
298.619
298.436
299.646
299.585
299.577
299.537
299.504
299.449
299.381
299.288
299.177
299.039
298.892
298.717
298.555
298.376
299.576
299.518
299.495
299.446
299.409
299.35
299.279
299.186
299.076
298.941
298.795
298.627
298.466
298.293
299.479
299.434
299.404
299.351
299.31
299.248
299.176
299.083
298.973
298.843
298.702
298.543
298.385
298.216
299.38
299.34
299.303
299.246
299.201
299.136
299.062
298.969
298.86
298.734
298.597
298.446
298.29
298.125
299.258
299.221
299.184
299.127
299.081
299.017
298.941
298.85
298.743
298.622
298.49
298.347
298.194
298.033
299.135
299.095
299.059
299.001
298.954
298.89
298.813
298.723
298.618
298.501
298.372
298.234
298.08
297.92
299.003
298.962
298.929
298.868
298.822
298.757
298.678
298.589
298.487
298.374
298.249
298.116
297.962
297.805
298.865
298.82
298.798
298.738
298.691
298.625
298.543
298.452
298.349
298.236
298.11
297.976
297.814
297.655
298.717
298.675
298.67
298.615
298.565
298.495
298.407
298.313
298.204
298.088
297.958
297.82
297.656
297.499
298.543
298.507
298.531
298.491
298.445
298.374
298.283
298.185
298.068
297.944
297.805
297.655
297.475
297.309
298.358
298.358
298.389
298.361
298.327
298.26
298.163
298.058
297.925
297.786
297.629
297.46
297.277
297.084
298.139
298.172
298.229
298.224
298.204
298.146
298.052
297.948
297.807
297.659
297.489
297.297
297.078
296.827
302.322
302.224
302.184
302.119
302.057
301.984
301.913
301.84
301.768
301.693
301.621
301.536
301.455
301.352
302.205
302.122
302.077
302.007
301.942
301.871
301.802
301.73
301.66
301.583
301.503
301.407
301.316
301.202
302.127
302.04
301.989
301.915
301.848
301.776
301.707
301.636
301.566
301.491
301.411
301.317
301.222
301.106
302.032
301.945
301.886
301.809
301.74
301.667
301.597
301.525
301.453
301.376
301.294
301.199
301.099
300.982
301.926
301.844
301.782
301.704
301.635
301.561
301.489
301.415
301.342
301.264
301.182
301.09
300.989
300.877
301.813
301.735
301.67
301.592
301.521
301.446
301.373
301.297
301.222
301.144
301.062
300.972
300.873
300.765
301.687
301.612
301.552
301.475
301.404
301.328
301.253
301.178
301.102
301.025
300.945
300.86
300.763
300.66
301.561
301.486
301.43
301.355
301.282
301.206
301.129
301.053
300.976
300.901
300.822
300.741
300.646
300.546
301.43
301.356
301.308
301.234
301.159
301.082
301.002
300.926
300.85
300.776
300.7
300.622
300.528
300.434
301.302
301.233
301.191
301.118
301.041
300.962
300.878
300.799
300.72
300.646
300.569
300.49
300.394
300.3
301.171
301.113
301.076
301.007
300.929
300.847
300.757
300.674
300.591
300.513
300.434
300.354
300.258
300.166
301.033
300.983
300.963
300.904
300.829
300.747
300.65
300.56
300.467
300.382
300.294
300.205
300.1
300.005
300.903
300.875
300.854
300.799
300.73
300.65
300.547
300.449
300.343
300.246
300.147
300.046
299.942
299.821
300.724
300.73
300.737
300.695
300.639
300.565
300.46
300.36
300.244
300.136
300.021
299.901
299.77
299.625
304.52
304.414
304.338
304.245
304.154
304.059
303.973
303.896
303.837
303.791
303.765
303.743
303.733
303.715
304.409
304.31
304.231
304.134
304.04
303.944
303.857
303.782
303.724
303.679
303.65
303.621
303.598
303.551
304.312
304.215
304.133
304.034
303.94
303.846
303.761
303.689
303.632
303.587
303.555
303.524
303.495
303.442
304.211
304.111
304.026
303.927
303.833
303.74
303.657
303.584
303.526
303.48
303.442
303.406
303.367
303.31
304.104
304.007
303.922
303.825
303.733
303.642
303.559
303.487
303.427
303.378
303.337
303.297
303.254
303.197
303.993
303.898
303.814
303.72
303.629
303.539
303.456
303.383
303.322
303.27
303.226
303.184
303.138
303.083
303.878
303.787
303.707
303.616
303.526
303.438
303.355
303.282
303.219
303.167
303.122
303.08
303.034
302.983
303.764
303.675
303.601
303.513
303.423
303.335
303.252
303.178
303.115
303.063
303.018
302.978
302.933
302.886
303.651
303.564
303.498
303.413
303.324
303.236
303.152
303.078
303.014
302.963
302.92
302.882
302.84
302.799
303.543
303.46
303.401
303.319
303.23
303.142
303.056
302.981
302.916
302.865
302.823
302.787
302.746
302.71
303.439
303.364
303.309
303.23
303.142
303.055
302.967
302.89
302.825
302.773
302.732
302.698
302.659
302.628
303.35
303.282
303.227
303.152
303.066
302.98
302.89
302.811
302.741
302.687
302.642
302.605
302.566
302.537
303.253
303.202
303.146
303.075
302.994
302.912
302.822
302.741
302.668
302.611
302.562
302.522
302.481
302.439
303.17
303.119
303.071
303.009
302.934
302.859
302.772
302.691
302.615
302.552
302.495
302.446
302.393
302.357
306.142
306.053
305.967
305.874
305.78
305.68
305.583
305.493
305.418
305.36
305.329
305.31
305.326
305.327
306.056
305.962
305.876
305.778
305.68
305.577
305.479
305.389
305.316
305.261
305.229
305.213
305.22
305.216
305.956
305.87
305.781
305.683
305.586
305.485
305.391
305.307
305.238
305.185
305.153
305.135
305.137
305.13
305.858
305.771
305.682
305.586
305.491
305.393
305.302
305.221
305.153
305.102
305.066
305.045
305.038
305.028
305.755
305.672
305.587
305.495
305.403
305.311
305.224
305.146
305.081
305.029
304.991
304.966
304.951
304.938
305.651
305.569
305.49
305.402
305.315
305.227
305.144
305.069
305.005
304.952
304.911
304.883
304.861
304.845
305.548
305.469
305.397
305.314
305.232
305.149
305.069
304.997
304.933
304.881
304.838
304.807
304.781
304.764
305.45
305.373
305.308
305.229
305.15
305.071
304.994
304.924
304.861
304.808
304.764
304.732
304.704
304.688
305.359
305.284
305.225
305.15
305.074
304.998
304.923
304.854
304.791
304.74
304.696
304.665
304.637
304.623
305.277
305.204
305.149
305.078
305.004
304.93
304.855
304.787
304.725
304.675
304.632
304.602
304.575
304.566
305.205
305.136
305.084
305.015
304.942
304.869
304.795
304.728
304.667
304.617
304.577
304.549
304.525
304.522
305.145
305.078
305.028
304.961
304.89
304.819
304.746
304.68
304.619
304.571
304.531
304.505
304.482
304.483
305.09
305.026
304.979
304.915
304.847
304.781
304.71
304.646
304.588
304.543
304.505
304.482
304.458
304.453
305.056
304.977
304.935
304.879
304.817
304.758
304.692
304.635
304.581
304.539
304.501
304.477
304.444
304.454
307.219
307.158
307.082
307.008
306.929
306.843
306.753
306.66
306.571
306.487
306.423
306.367
306.35
306.327
307.139
307.073
306.999
306.923
306.841
306.753
306.661
306.567
306.478
306.397
306.335
306.285
306.267
306.248
307.041
306.982
306.908
306.833
306.753
306.668
306.579
306.491
306.407
306.332
306.273
306.225
306.204
306.189
306.946
306.887
306.817
306.744
306.667
306.585
306.5
306.415
306.334
306.263
306.203
306.156
306.131
306.116
306.847
306.791
306.726
306.658
306.586
306.509
306.43
306.351
306.275
306.206
306.147
306.099
306.07
306.052
306.751
306.694
306.636
306.572
306.505
306.434
306.36
306.286
306.213
306.147
306.086
306.039
306.005
305.984
306.66
306.604
306.552
306.491
306.43
306.364
306.296
306.227
306.157
306.093
306.033
305.985
305.947
305.924
306.578
306.52
306.472
306.414
306.357
306.296
306.232
306.167
306.1
306.038
305.977
305.93
305.888
305.867
306.506
306.447
306.401
306.344
306.29
306.231
306.17
306.109
306.045
305.985
305.926
305.879
305.836
305.818
306.447
306.385
306.34
306.283
306.229
306.171
306.112
306.053
305.992
305.934
305.876
305.831
305.788
305.773
306.4
306.335
306.29
306.232
306.176
306.118
306.059
306.002
305.942
305.887
305.831
305.789
305.748
305.738
306.367
306.3
306.254
306.193
306.135
306.076
306.017
305.96
305.902
305.849
305.795
305.756
305.716
305.71
306.344
306.274
306.228
306.167
306.108
306.049
305.988
305.932
305.876
305.826
305.775
305.739
305.701
305.692
306.344
306.25
306.21
306.149
306.091
306.035
305.978
305.925
305.872
305.826
305.777
305.745
305.696
305.702
307.903
307.866
307.805
307.751
307.689
307.624
307.554
307.477
307.397
307.312
307.233
307.154
307.102
307.039
307.817
307.777
307.72
307.665
307.603
307.537
307.464
307.386
307.304
307.219
307.142
307.07
307.024
306.968
307.719
307.684
307.626
307.574
307.513
307.449
307.379
307.304
307.227
307.147
307.077
307.01
306.966
306.917
307.626
307.589
307.536
307.483
307.425
307.362
307.294
307.221
307.146
307.07
307.002
306.939
306.898
306.856
307.535
307.495
307.445
307.394
307.338
307.279
307.214
307.146
307.075
307.004
306.94
306.881
306.84
306.802
307.446
307.403
307.356
307.306
307.253
307.196
307.135
307.071
307.003
306.937
306.874
306.819
306.777
306.744
307.366
307.318
307.273
307.223
307.172
307.119
307.061
307.001
306.937
306.875
306.814
306.761
306.719
306.691
307.292
307.24
307.195
307.144
307.095
307.044
306.989
306.933
306.871
306.813
306.753
306.704
306.66
306.637
307.228
307.171
307.125
307.072
307.024
306.973
306.921
306.867
306.808
306.753
306.695
306.649
306.605
306.586
307.175
307.112
307.064
307.008
306.959
306.908
306.856
306.804
306.747
306.695
306.638
306.597
306.552
306.538
307.132
307.065
307.013
306.954
306.902
306.849
306.795
306.744
306.688
306.639
306.585
306.547
306.504
306.495
307.101
307.028
306.974
306.909
306.853
306.797
306.742
306.69
306.635
306.588
306.536
306.503
306.462
306.457
307.079
307.003
306.947
306.879
306.818
306.758
306.7
306.647
306.591
306.544
306.495
306.465
306.429
306.425
307.07
306.972
306.918
306.847
306.787
306.726
306.668
306.615
306.56
306.515
306.468
306.439
306.4
306.412
308.307
308.284
308.237
308.198
308.151
308.105
308.054
307.999
307.942
307.877
307.812
307.74
307.676
307.595
308.216
308.192
308.147
308.108
308.061
308.013
307.961
307.904
307.845
307.779
307.714
307.644
307.585
307.511
308.122
308.098
308.051
308.012
307.965
307.918
307.867
307.811
307.755
307.692
307.632
307.566
307.512
307.446
308.033
308.004
307.959
307.917
307.87
307.822
307.771
307.716
307.659
307.597
307.539
307.478
307.428
307.372
307.947
307.912
307.866
307.823
307.776
307.728
307.677
307.623
307.568
307.51
307.455
307.399
307.355
307.309
307.863
307.822
307.776
307.73
307.682
307.634
307.584
307.531
307.477
307.422
307.37
307.32
307.281
307.246
307.786
307.738
307.69
307.641
307.592
307.544
307.494
307.443
307.392
307.341
307.292
307.249
307.213
307.188
307.712
307.657
307.608
307.555
307.506
307.457
307.407
307.359
307.309
307.262
307.217
307.18
307.148
307.13
307.644
307.583
307.531
307.476
307.425
307.375
307.326
307.28
307.232
307.19
307.147
307.116
307.087
307.075
307.582
307.516
307.462
307.403
307.35
307.299
307.25
307.206
307.16
307.122
307.081
307.056
307.028
307.023
307.526
307.457
307.4
307.338
307.284
307.231
307.182
307.139
307.094
307.058
307.021
306.998
306.974
306.976
307.479
307.404
307.345
307.28
307.223
307.169
307.119
307.076
307.032
306.999
306.964
306.946
306.925
306.933
307.439
307.364
307.303
307.236
307.177
307.121
307.068
307.024
306.98
306.948
306.916
306.9
306.885
306.894
307.401
307.312
307.255
307.188
307.131
307.075
307.022
306.978
306.934
306.904
306.873
306.86
306.845
306.863
308.544
308.532
308.497
308.47
308.435
308.401
308.365
308.327
308.289
308.246
308.203
308.155
308.107
308.043
308.455
308.441
308.406
308.377
308.341
308.305
308.268
308.228
308.189
308.144
308.1
308.05
308.004
307.939
308.367
308.351
308.312
308.281
308.243
308.207
308.169
308.13
308.091
308.048
308.006
307.957
307.913
307.85
308.282
308.259
308.22
308.185
308.146
308.108
308.069
308.029
307.989
307.945
307.903
307.855
307.813
307.758
308.2
308.17
308.129
308.091
308.05
308.01
307.97
307.929
307.889
307.846
307.806
307.761
307.722
307.675
308.118
308.081
308.039
307.997
307.955
307.913
307.872
307.83
307.79
307.748
307.708
307.667
307.632
307.595
308.04
307.996
307.953
307.907
307.863
307.82
307.777
307.735
307.694
307.654
307.616
307.58
307.55
307.523
307.963
307.914
307.868
307.82
307.773
307.729
307.685
307.643
307.603
307.565
307.53
307.5
307.474
307.456
307.888
307.835
307.787
307.737
307.689
307.643
307.598
307.558
307.518
307.484
307.452
307.428
307.407
307.397
307.817
307.76
307.711
307.658
307.609
307.562
307.517
307.478
307.441
307.41
307.381
307.363
307.346
307.344
307.749
307.69
307.64
307.585
307.536
307.489
307.445
307.408
307.372
307.345
307.32
307.307
307.295
307.299
307.686
307.623
307.573
307.517
307.468
307.421
307.378
307.344
307.31
307.288
307.266
307.258
307.251
307.258
307.629
307.567
307.515
307.459
307.41
307.365
307.323
307.29
307.259
307.239
307.223
307.218
307.216
307.227
307.572
307.502
307.453
307.399
307.353
307.311
307.272
307.242
307.214
307.198
307.184
307.181
307.18
307.196
308.691
308.694
308.677
308.66
308.64
308.619
308.597
308.575
308.554
308.531
308.508
308.481
308.457
308.426
308.615
308.614
308.594
308.575
308.552
308.529
308.505
308.481
308.458
308.433
308.408
308.378
308.352
308.314
308.541
308.534
308.509
308.487
308.462
308.436
308.411
308.385
308.362
308.336
308.311
308.28
308.254
308.21
308.464
308.45
308.423
308.397
308.37
308.343
308.316
308.288
308.263
308.236
308.209
308.178
308.149
308.106
308.387
308.368
308.338
308.309
308.279
308.25
308.221
308.192
308.165
308.137
308.109
308.077
308.048
308.01
308.309
308.283
308.252
308.221
308.189
308.158
308.127
308.097
308.069
308.039
308.01
307.979
307.95
307.916
308.232
308.201
308.169
308.135
308.101
308.068
308.036
308.005
307.975
307.945
307.916
307.887
307.859
307.831
308.155
308.12
308.086
308.051
308.016
307.982
307.948
307.916
307.885
307.856
307.827
307.801
307.776
307.754
308.079
308.041
308.006
307.969
307.933
307.899
307.864
307.832
307.801
307.773
307.746
307.723
307.702
307.687
308.005
307.964
307.929
307.892
307.855
307.821
307.786
307.755
307.725
307.698
307.674
307.655
307.637
307.627
307.933
307.89
307.855
307.818
307.782
307.748
307.714
307.685
307.656
307.633
307.611
307.596
307.581
307.577
307.864
307.82
307.786
307.748
307.713
307.681
307.649
307.621
307.596
307.575
307.557
307.546
307.535
307.534
307.8
307.756
307.722
307.686
307.652
307.621
307.591
307.567
307.545
307.527
307.513
307.505
307.498
307.501
307.734
307.69
307.657
307.623
307.592
307.565
307.539
307.519
307.501
307.488
307.477
307.472
307.466
307.469
308.782
308.791
308.791
308.79
308.788
308.784
308.778
308.771
308.763
308.754
308.745
308.735
308.727
308.713
308.726
308.731
308.73
308.726
308.722
308.715
308.707
308.697
308.687
308.676
308.666
308.653
308.642
308.624
308.666
308.67
308.666
308.659
308.652
308.642
308.632
308.62
308.609
308.596
308.584
308.57
308.556
308.535
308.602
308.604
308.597
308.588
308.578
308.566
308.554
308.541
308.528
308.514
308.499
308.482
308.466
308.441
308.537
308.535
308.527
308.516
308.503
308.49
308.476
308.46
308.445
308.429
308.412
308.393
308.373
308.347
308.47
308.464
308.454
308.441
308.427
308.412
308.396
308.379
308.361
308.343
308.324
308.302
308.28
308.254
308.403
308.393
308.38
308.366
308.351
308.333
308.315
308.297
308.278
308.258
308.236
308.213
308.189
308.164
308.334
308.321
308.306
308.291
308.274
308.255
308.236
308.216
308.195
308.174
308.151
308.127
308.103
308.08
308.265
308.249
308.233
308.216
308.198
308.179
308.159
308.138
308.117
308.095
308.071
308.048
308.025
308.006
308.196
308.178
308.161
308.144
308.125
308.106
308.086
308.065
308.043
308.02
307.997
307.975
307.954
307.938
308.127
308.109
308.092
308.075
308.056
308.038
308.018
307.997
307.975
307.953
307.93
307.91
307.891
307.879
308.06
308.043
308.026
308.009
307.991
307.973
307.953
307.933
307.913
307.892
307.872
307.854
307.838
307.828
307.998
307.981
307.964
307.947
307.93
307.912
307.894
307.875
307.856
307.837
307.82
307.804
307.79
307.784
307.934
307.918
307.903
307.888
307.872
307.856
307.839
307.823
307.807
307.791
307.776
307.762
307.75
307.743
308.806
308.82
308.83
308.839