/*--------------------------------*- C++ -*----------------------------------*\
| =========                 |                                                 |
| \\      /  F ield         | OpenFOAM: The Open Source CFD Toolbox           |
|  \\    /   O peration     | Version:  v2106                                 |
|   \\  /    A nd           | Website:  www.openfoam.com                      |
|    \\/     M anipulation  |                                                 |
\*---------------------------------------------------------------------------*/
FoamFile
{
    version     2.0;
    format      ascii;
    arch        "LSB;label=32;scalar=64";
    class       volScalarField;
    location    "0.000172";
    object      alphat;
}
// * * * * * * * * * * * * * * * * * * * * * * * * * * * * * * * * * * * * * //

dimensions      [1 -1 -1 0 0 0 0];

internalField   nonuniform List<scalar> 
17924
(
9.84492e-17
9.84408e-17
9.84329e-17
9.84218e-17
9.84336e-17
9.8428e-17
9.84196e-17
9.84088e-17
9.83962e-17
9.83817e-17
9.83655e-17
9.84224e-17
9.84182e-17
9.84095e-17
9.83991e-17
9.83866e-17
9.83727e-17
9.8357e-17
9.84144e-17
9.84095e-17
9.83998e-17
9.83892e-17
9.83768e-17
9.83634e-17
9.83485e-17
9.84077e-17
9.8401e-17
9.83909e-17
9.83806e-17
9.83685e-17
9.83555e-17
9.8341e-17
9.84022e-17
9.83939e-17
9.83835e-17
9.83731e-17
9.8361e-17
9.83482e-17
9.83341e-17
9.83975e-17
9.83879e-17
9.83774e-17
9.83667e-17
9.83545e-17
9.83417e-17
9.83276e-17
9.8394e-17
9.83833e-17
9.83724e-17
9.83612e-17
9.83488e-17
9.83356e-17
9.83214e-17
9.83914e-17
9.83796e-17
9.83682e-17
9.83563e-17
9.83433e-17
9.83297e-17
9.8315e-17
9.83901e-17
9.83774e-17
9.8365e-17
9.83522e-17
9.83384e-17
9.83241e-17
9.83089e-17
9.83888e-17
9.83749e-17
9.83616e-17
9.83479e-17
9.83333e-17
9.83182e-17
9.83022e-17
9.83886e-17
9.83736e-17
9.83591e-17
9.83443e-17
9.83286e-17
9.83125e-17
9.82955e-17
9.83873e-17
9.83713e-17
9.83557e-17
9.83397e-17
9.8323e-17
9.8306e-17
9.82881e-17
9.83852e-17
9.83682e-17
9.83519e-17
9.83351e-17
9.83173e-17
9.82992e-17
9.82801e-17
9.83811e-17
9.83636e-17
9.83469e-17
9.8329e-17
9.83104e-17
9.82911e-17
9.82709e-17
9.83776e-17
9.83712e-17
9.83617e-17
9.83511e-17
9.83383e-17
9.83239e-17
9.83074e-17
9.82893e-17
9.82693e-17
9.82474e-17
9.82242e-17
9.81983e-17
9.81726e-17
9.81416e-17
9.83606e-17
9.83549e-17
9.83451e-17
9.83342e-17
9.83211e-17
9.83066e-17
9.82899e-17
9.82715e-17
9.82511e-17
9.82289e-17
9.82053e-17
9.81798e-17
9.81542e-17
9.81269e-17
9.83453e-17
9.83394e-17
9.83284e-17
9.83169e-17
9.83034e-17
9.82889e-17
9.82724e-17
9.82544e-17
9.82344e-17
9.82126e-17
9.81895e-17
9.81648e-17
9.81401e-17
9.81137e-17
9.83304e-17
9.8323e-17
9.83115e-17
9.82998e-17
9.82862e-17
9.82716e-17
9.8255e-17
9.82368e-17
9.82168e-17
9.81952e-17
9.81725e-17
9.81483e-17
9.81242e-17
9.80986e-17
9.83157e-17
9.8307e-17
9.82952e-17
9.8283e-17
9.82691e-17
9.82542e-17
9.82375e-17
9.82193e-17
9.81996e-17
9.81783e-17
9.81559e-17
9.81322e-17
9.81084e-17
9.80834e-17
9.8301e-17
9.8291e-17
9.82788e-17
9.82661e-17
9.82518e-17
9.82364e-17
9.82194e-17
9.82011e-17
9.81812e-17
9.816e-17
9.81379e-17
9.81145e-17
9.8091e-17
9.80665e-17
9.82869e-17
9.82756e-17
9.82628e-17
9.82493e-17
9.82345e-17
9.82185e-17
9.82012e-17
9.81825e-17
9.81626e-17
9.81414e-17
9.81194e-17
9.80964e-17
9.80731e-17
9.80492e-17
9.8272e-17
9.82593e-17
9.82459e-17
9.82316e-17
9.82161e-17
9.81995e-17
9.81818e-17
9.81628e-17
9.81426e-17
9.81214e-17
9.80992e-17
9.80765e-17
9.80531e-17
9.80299e-17
9.82579e-17
9.82439e-17
9.82296e-17
9.82143e-17
9.81979e-17
9.81805e-17
9.8162e-17
9.81425e-17
9.81217e-17
9.81003e-17
9.80777e-17
9.80552e-17
9.80315e-17
9.80094e-17
9.82422e-17
9.82268e-17
9.82116e-17
9.81951e-17
9.81779e-17
9.81598e-17
9.81408e-17
9.81208e-17
9.80997e-17
9.8078e-17
9.8055e-17
9.80324e-17
9.80081e-17
9.79868e-17
9.82276e-17
9.82105e-17
9.81942e-17
9.81766e-17
9.81583e-17
9.81391e-17
9.8119e-17
9.80981e-17
9.8076e-17
9.80536e-17
9.80301e-17
9.80073e-17
9.79826e-17
9.79625e-17
9.82097e-17
9.81915e-17
9.81742e-17
9.81556e-17
9.81363e-17
9.81163e-17
9.80956e-17
9.80742e-17
9.80517e-17
9.80289e-17
9.80049e-17
9.79818e-17
9.79562e-17
9.79363e-17
9.81926e-17
9.81733e-17
9.81549e-17
9.81353e-17
9.81148e-17
9.80936e-17
9.80714e-17
9.80485e-17
9.80247e-17
9.80007e-17
9.79758e-17
9.79519e-17
9.79256e-17
9.79056e-17
9.81699e-17
9.81501e-17
9.8131e-17
9.81108e-17
9.80895e-17
9.80677e-17
9.80451e-17
9.80222e-17
9.79983e-17
9.79742e-17
9.79492e-17
9.79247e-17
9.78982e-17
9.78749e-17
9.82547e-17
9.82461e-17
9.82347e-17
9.82231e-17
9.82102e-17
9.81966e-17
9.81815e-17
9.81653e-17
9.81473e-17
9.8128e-17
9.81068e-17
9.80839e-17
9.80598e-17
9.80321e-17
9.82334e-17
9.82248e-17
9.82125e-17
9.82004e-17
9.81868e-17
9.81723e-17
9.81563e-17
9.8139e-17
9.81199e-17
9.80995e-17
9.80775e-17
9.80539e-17
9.80293e-17
9.80032e-17
9.8212e-17
9.82029e-17
9.81894e-17
9.81764e-17
9.8162e-17
9.81471e-17
9.81306e-17
9.81131e-17
9.80939e-17
9.80733e-17
9.80513e-17
9.80278e-17
9.8004e-17
9.79787e-17
9.81902e-17
9.818e-17
9.81658e-17
9.81522e-17
9.81372e-17
9.81216e-17
9.81045e-17
9.80863e-17
9.80665e-17
9.80454e-17
9.80231e-17
9.79994e-17
9.79758e-17
9.79508e-17
9.81678e-17
9.81562e-17
9.81416e-17
9.81273e-17
9.81116e-17
9.80954e-17
9.80778e-17
9.80592e-17
9.80392e-17
9.8018e-17
9.79958e-17
9.79723e-17
9.79488e-17
9.79242e-17
9.81444e-17
9.81314e-17
9.81164e-17
9.81014e-17
9.80852e-17
9.80683e-17
9.80502e-17
9.8031e-17
9.80107e-17
9.79893e-17
9.7967e-17
9.79438e-17
9.79205e-17
9.78965e-17
9.81205e-17
9.81062e-17
9.80907e-17
9.80748e-17
9.8058e-17
9.80404e-17
9.80218e-17
9.80022e-17
9.79817e-17
9.79603e-17
9.79382e-17
9.79155e-17
9.78925e-17
9.78693e-17
9.80945e-17
9.8079e-17
9.80632e-17
9.80466e-17
9.80293e-17
9.80111e-17
9.79921e-17
9.79722e-17
9.79514e-17
9.793e-17
9.79079e-17
9.78857e-17
9.7863e-17
9.78408e-17
9.80684e-17
9.80517e-17
9.80354e-17
9.80179e-17
9.79999e-17
9.79811e-17
9.79616e-17
9.79413e-17
9.79203e-17
9.78989e-17
9.78769e-17
9.78553e-17
9.78331e-17
9.78125e-17
9.80399e-17
9.80221e-17
9.80053e-17
9.7987e-17
9.79686e-17
9.79493e-17
9.79296e-17
9.79091e-17
9.7888e-17
9.78667e-17
9.78448e-17
9.78236e-17
9.78017e-17
9.77829e-17
9.8012e-17
9.79928e-17
9.79754e-17
9.79563e-17
9.79372e-17
9.79172e-17
9.78969e-17
9.78759e-17
9.78544e-17
9.78331e-17
9.78114e-17
9.77908e-17
9.77695e-17
9.77528e-17
9.79806e-17
9.79605e-17
9.79426e-17
9.7923e-17
9.79034e-17
9.78831e-17
9.78625e-17
9.78416e-17
9.78202e-17
9.77991e-17
9.77776e-17
9.77574e-17
9.77364e-17
9.77212e-17
9.79509e-17
9.79298e-17
9.79111e-17
9.78908e-17
9.78702e-17
9.78491e-17
9.78277e-17
9.7806e-17
9.77841e-17
9.77626e-17
9.7741e-17
9.77211e-17
9.77007e-17
9.76868e-17
9.79136e-17
9.78936e-17
9.78742e-17
9.7854e-17
9.78333e-17
9.78124e-17
9.77912e-17
9.777e-17
9.77486e-17
9.77277e-17
9.77066e-17
9.76869e-17
9.76667e-17
9.76514e-17
9.80616e-17
9.80499e-17
9.80361e-17
9.80237e-17
9.80115e-17
9.79995e-17
9.79874e-17
9.79751e-17
9.79621e-17
9.79485e-17
9.7934e-17
9.79192e-17
9.79025e-17
9.78854e-17
9.80344e-17
9.80239e-17
9.80094e-17
9.79963e-17
9.79829e-17
9.79698e-17
9.79563e-17
9.79426e-17
9.79283e-17
9.79134e-17
9.7898e-17
9.78819e-17
9.78645e-17
9.78458e-17
9.80072e-17
9.79959e-17
9.79804e-17
9.79667e-17
9.79524e-17
9.79387e-17
9.79246e-17
9.79103e-17
9.78955e-17
9.78802e-17
9.78645e-17
9.78481e-17
9.7831e-17
9.78124e-17
9.79794e-17
9.79672e-17
9.79513e-17
9.79369e-17
9.79219e-17
9.79073e-17
9.78924e-17
9.78773e-17
9.78618e-17
9.78458e-17
9.78295e-17
9.78126e-17
9.77956e-17
9.77773e-17
9.79508e-17
9.79372e-17
9.7921e-17
9.7906e-17
9.78903e-17
9.78751e-17
9.78595e-17
9.78439e-17
9.7828e-17
9.78118e-17
9.77954e-17
9.77785e-17
9.77617e-17
9.77439e-17
9.79208e-17
9.7906e-17
9.78896e-17
9.78741e-17
9.7858e-17
9.78422e-17
9.78261e-17
9.781e-17
9.77937e-17
9.77773e-17
9.77607e-17
9.77439e-17
9.77272e-17
9.77099e-17
9.78898e-17
9.7874e-17
9.78574e-17
9.78412e-17
9.78248e-17
9.78085e-17
9.7792e-17
9.77756e-17
9.77592e-17
9.77428e-17
9.77264e-17
9.771e-17
9.76937e-17
9.76774e-17
9.78566e-17
9.784e-17
9.78236e-17
9.7807e-17
9.77905e-17
9.77738e-17
9.77572e-17
9.77407e-17
9.77242e-17
9.77079e-17
9.76917e-17
9.76756e-17
9.76598e-17
9.76446e-17
9.7823e-17
9.78056e-17
9.77893e-17
9.77723e-17
9.77556e-17
9.77387e-17
9.7722e-17
9.77054e-17
9.7689e-17
9.7673e-17
9.76571e-17
9.76417e-17
9.76267e-17
9.76133e-17
9.77874e-17
9.77694e-17
9.77533e-17
9.77361e-17
9.77196e-17
9.77027e-17
9.76861e-17
9.76696e-17
9.76535e-17
9.76378e-17
9.76223e-17
9.76075e-17
9.75932e-17
9.75818e-17
9.77524e-17
9.77337e-17
9.77177e-17
9.77003e-17
9.76836e-17
9.76666e-17
9.765e-17
9.76336e-17
9.76177e-17
9.76025e-17
9.75877e-17
9.75739e-17
9.75606e-17
9.75516e-17
9.7715e-17
9.76957e-17
9.768e-17
9.76628e-17
9.76463e-17
9.76296e-17
9.76133e-17
9.75972e-17
9.75817e-17
9.7567e-17
9.7553e-17
9.75403e-17
9.75276e-17
9.75205e-17
9.76798e-17
9.76604e-17
9.76442e-17
9.76269e-17
9.761e-17
9.75931e-17
9.75767e-17
9.75606e-17
9.75452e-17
9.75308e-17
9.75175e-17
9.75064e-17
9.74949e-17
9.74895e-17
9.7637e-17
9.76204e-17
9.76039e-17
9.75876e-17
9.75712e-17
9.75551e-17
9.75395e-17
9.75243e-17
9.75098e-17
9.7496e-17
9.74833e-17
9.74725e-17
9.74621e-17
9.74573e-17
9.78095e-17
9.77971e-17
9.77836e-17
9.77726e-17
9.77625e-17
9.77538e-17
9.77459e-17
9.77388e-17
9.77322e-17
9.7726e-17
9.772e-17
9.7714e-17
9.77084e-17
9.77032e-17
9.7778e-17
9.7768e-17
9.77542e-17
9.77425e-17
9.77315e-17
9.77217e-17
9.77129e-17
9.77049e-17
9.76973e-17
9.76901e-17
9.76832e-17
9.76762e-17
9.76702e-17
9.7662e-17
9.77471e-17
9.77367e-17
9.77224e-17
9.77104e-17
9.76988e-17
9.76886e-17
9.76793e-17
9.76708e-17
9.76627e-17
9.7655e-17
9.76479e-17
9.76406e-17
9.76345e-17
9.7626e-17
9.77156e-17
9.77047e-17
9.76905e-17
9.76781e-17
9.76661e-17
9.76554e-17
9.76456e-17
9.76365e-17
9.7628e-17
9.76199e-17
9.76124e-17
9.76047e-17
9.75978e-17
9.75893e-17
9.76842e-17
9.76723e-17
9.76579e-17
9.76452e-17
9.76329e-17
9.76218e-17
9.76115e-17
9.76022e-17
9.75934e-17
9.75852e-17
9.75775e-17
9.75699e-17
9.75632e-17
9.7555e-17
9.76517e-17
9.76388e-17
9.76246e-17
9.76117e-17
9.75993e-17
9.7588e-17
9.75776e-17
9.7568e-17
9.75591e-17
9.75508e-17
9.75431e-17
9.75357e-17
9.7529e-17
9.75212e-17
9.76189e-17
9.76052e-17
9.75912e-17
9.75781e-17
9.75657e-17
9.75543e-17
9.75437e-17
9.7534e-17
9.75251e-17
9.7517e-17
9.75095e-17
9.75026e-17
9.74961e-17
9.74894e-17
9.75848e-17
9.75706e-17
9.75572e-17
9.75441e-17
9.75319e-17
9.75205e-17
9.751e-17
9.75004e-17
9.74917e-17
9.74838e-17
9.74765e-17
9.747e-17
9.74638e-17
9.74583e-17
9.7551e-17
9.75363e-17
9.75233e-17
9.75103e-17
9.74984e-17
9.74872e-17
9.74769e-17
9.74675e-17
9.74591e-17
9.74515e-17
9.74447e-17
9.74388e-17
9.74333e-17
9.74293e-17
9.75163e-17
9.75014e-17
9.74891e-17
9.74765e-17
9.7465e-17
9.74542e-17
9.74442e-17
9.74352e-17
9.74272e-17
9.742e-17
9.74135e-17
9.74082e-17
9.74032e-17
9.7401e-17
9.74827e-17
9.74676e-17
9.74558e-17
9.74435e-17
9.74324e-17
9.74219e-17
9.74124e-17
9.74037e-17
9.73962e-17
9.73896e-17
9.73838e-17
9.7379e-17
9.73748e-17
9.73748e-17
9.74481e-17
9.74331e-17
9.74219e-17
9.74102e-17
9.73998e-17
9.73899e-17
9.73809e-17
9.73728e-17
9.73659e-17
9.73599e-17
9.73547e-17
9.73506e-17
9.7347e-17
9.73481e-17
9.74154e-17
9.74012e-17
9.73899e-17
9.73787e-17
9.73684e-17
9.73588e-17
9.73502e-17
9.73425e-17
9.73361e-17
9.73309e-17
9.73266e-17
9.73235e-17
9.7321e-17
9.73235e-17
9.73779e-17
9.73666e-17
9.73556e-17
9.73456e-17
9.73363e-17
9.73275e-17
9.73198e-17
9.73129e-17
9.73073e-17
9.73028e-17
9.72992e-17
9.72965e-17
9.72948e-17
9.72971e-17
9.75169e-17
9.75085e-17
9.74993e-17
9.74929e-17
9.74874e-17
9.74832e-17
9.74801e-17
9.74785e-17
9.74782e-17
9.74787e-17
9.74803e-17
9.74826e-17
9.74873e-17
9.74908e-17
9.74856e-17
9.74797e-17
9.74706e-17
9.74641e-17
9.74585e-17
9.7454e-17
9.74507e-17
9.74488e-17
9.74482e-17
9.74485e-17
9.74497e-17
9.74513e-17
9.74553e-17
9.74553e-17
9.74564e-17
9.74505e-17
9.74413e-17
9.74347e-17
9.74289e-17
9.74243e-17
9.74208e-17
9.74187e-17
9.74179e-17
9.74179e-17
9.7419e-17
9.74204e-17
9.74244e-17
9.74236e-17
9.74266e-17
9.74204e-17
9.74117e-17
9.74052e-17
9.73993e-17
9.73946e-17
9.73911e-17
9.7389e-17
9.73881e-17
9.73881e-17
9.7389e-17
9.73901e-17
9.73934e-17
9.73925e-17
9.73978e-17
9.73909e-17
9.73825e-17
9.73758e-17
9.73698e-17
9.73651e-17
9.73615e-17
9.73594e-17
9.73585e-17
9.73585e-17
9.73594e-17
9.73608e-17
9.73636e-17
9.73637e-17
9.73689e-17
9.73613e-17
9.73533e-17
9.73466e-17
9.73407e-17
9.73361e-17
9.73327e-17
9.73307e-17
9.73298e-17
9.73298e-17
9.73308e-17
9.73323e-17
9.73347e-17
9.73358e-17
9.73406e-17
9.73324e-17
9.73247e-17
9.7318e-17
9.73123e-17
9.73078e-17
9.73046e-17
9.73028e-17
9.7302e-17
9.73022e-17
9.73032e-17
9.73051e-17
9.73073e-17
9.73096e-17
9.73125e-17
9.7304e-17
9.72967e-17
9.72902e-17
9.72848e-17
9.72806e-17
9.72776e-17
9.7276e-17
9.72753e-17
9.72756e-17
9.72768e-17
9.7279e-17
9.72812e-17
9.72842e-17
9.72851e-17
9.72763e-17
9.72695e-17
9.72634e-17
9.72584e-17
9.72545e-17
9.72518e-17
9.72504e-17
9.725e-17
9.72506e-17
9.72521e-17
9.72546e-17
9.72569e-17
9.72608e-17
9.72581e-17
9.72492e-17
9.7243e-17
9.72374e-17
9.72329e-17
9.72294e-17
9.72271e-17
9.72259e-17
9.72258e-17
9.72267e-17
9.72285e-17
9.72312e-17
9.72338e-17
9.72383e-17
9.72323e-17
9.7223e-17
9.72175e-17
9.72124e-17
9.72084e-17
9.72054e-17
9.72036e-17
9.72029e-17
9.72031e-17
9.72044e-17
9.72066e-17
9.72097e-17
9.72127e-17
9.7218e-17
9.72061e-17
9.71974e-17
9.71926e-17
9.7188e-17
9.71847e-17
9.71823e-17
9.71811e-17
9.71808e-17
9.71814e-17
9.71832e-17
9.71856e-17
9.71891e-17
9.71925e-17
9.71982e-17
9.71818e-17
9.71736e-17
9.71691e-17
9.71649e-17
9.71621e-17
9.71603e-17
9.71595e-17
9.71597e-17
9.7161e-17
9.71633e-17
9.71664e-17
9.71704e-17
9.71747e-17
9.71811e-17
9.71555e-17
9.71492e-17
9.7145e-17
9.71418e-17
9.71399e-17
9.71388e-17
9.71387e-17
9.71396e-17
9.71416e-17
9.71445e-17
9.7148e-17
9.71524e-17
9.7157e-17
9.71631e-17
9.71997e-17
9.71989e-17
9.71971e-17
9.71968e-17
9.71972e-17
9.71987e-17
9.72011e-17
9.72045e-17
9.72091e-17
9.72149e-17
9.72217e-17
9.72298e-17
9.72397e-17
9.72494e-17
9.71755e-17
9.71763e-17
9.71752e-17
9.71751e-17
9.71757e-17
9.71775e-17
9.71802e-17
9.7184e-17
9.71888e-17
9.71948e-17
9.72017e-17
9.72093e-17
9.72183e-17
9.72255e-17
9.71545e-17
9.7155e-17
9.71536e-17
9.71537e-17
9.71542e-17
9.71562e-17
9.71591e-17
9.7163e-17
9.71678e-17
9.71738e-17
9.71806e-17
9.71881e-17
9.71971e-17
9.7204e-17
9.71331e-17
9.71333e-17
9.71321e-17
9.71325e-17
9.71333e-17
9.71355e-17
9.71384e-17
9.71424e-17
9.71474e-17
9.71534e-17
9.71603e-17
9.71678e-17
9.71763e-17
9.71831e-17
9.71125e-17
9.71124e-17
9.71113e-17
9.71118e-17
9.71127e-17
9.71149e-17
9.7118e-17
9.71222e-17
9.71273e-17
9.71334e-17
9.71405e-17
9.7148e-17
9.71564e-17
9.71637e-17
9.70925e-17
9.70922e-17
9.70914e-17
9.7092e-17
9.70931e-17
9.70954e-17
9.70985e-17
9.71027e-17
9.71079e-17
9.71141e-17
9.71212e-17
9.71289e-17
9.7137e-17
9.71448e-17
9.70734e-17
9.70727e-17
9.70723e-17
9.70729e-17
9.70742e-17
9.70765e-17
9.70798e-17
9.70841e-17
9.70895e-17
9.70958e-17
9.71029e-17
9.71106e-17
9.71186e-17
9.71268e-17
9.70548e-17
9.7054e-17
9.70541e-17
9.70549e-17
9.70565e-17
9.70589e-17
9.70624e-17
9.70668e-17
9.70722e-17
9.70785e-17
9.70855e-17
9.70932e-17
9.71009e-17
9.71093e-17
9.7037e-17
9.70361e-17
9.70366e-17
9.70376e-17
9.70396e-17
9.70424e-17
9.70461e-17
9.70507e-17
9.70562e-17
9.70625e-17
9.70695e-17
9.70771e-17
9.70846e-17
9.70932e-17
9.70198e-17
9.70189e-17
9.70198e-17
9.70212e-17
9.70237e-17
9.70269e-17
9.7031e-17
9.70358e-17
9.70414e-17
9.70477e-17
9.70545e-17
9.7062e-17
9.70694e-17
9.7078e-17
9.70037e-17
9.70025e-17
9.70039e-17
9.70057e-17
9.70087e-17
9.70124e-17
9.70168e-17
9.70219e-17
9.70277e-17
9.7034e-17
9.70409e-17
9.70484e-17
9.70556e-17
9.70643e-17
9.69886e-17
9.69871e-17
9.69889e-17
9.69911e-17
9.69945e-17
9.69985e-17
9.70033e-17
9.70088e-17
9.70149e-17
9.70214e-17
9.70283e-17
9.70357e-17
9.70428e-17
9.70515e-17
9.69737e-17
9.69728e-17
9.69748e-17
9.69775e-17
9.69812e-17
9.69858e-17
9.6991e-17
9.6997e-17
9.70034e-17
9.70103e-17
9.70173e-17
9.70249e-17
9.70324e-17
9.70408e-17
9.69593e-17
9.69589e-17
9.69614e-17
9.69646e-17
9.69688e-17
9.69737e-17
9.69792e-17
9.69855e-17
9.69922e-17
9.69994e-17
9.70067e-17
9.70144e-17
9.7022e-17
9.70304e-17
9.68666e-17
9.68729e-17
9.68785e-17
9.68848e-17
9.68911e-17
9.68976e-17
9.69045e-17
9.69119e-17
9.69199e-17
9.69283e-17
9.69373e-17
9.69472e-17
9.69575e-17
9.69696e-17
9.68551e-17
9.68619e-17
9.6868e-17
9.68747e-17
9.68813e-17
9.68882e-17
9.68954e-17
9.6903e-17
9.69113e-17
9.69203e-17
9.69299e-17
9.69402e-17
9.69505e-17
9.69611e-17
9.68456e-17
9.68526e-17
9.68583e-17
9.68648e-17
9.68712e-17
9.68782e-17
9.68856e-17
9.68936e-17
9.69022e-17
9.69114e-17
9.69213e-17
9.69317e-17
9.69424e-17
9.69527e-17
9.6836e-17
9.68429e-17
9.68487e-17
9.68553e-17
9.68619e-17
9.6869e-17
9.68765e-17
9.68844e-17
9.6893e-17
9.69023e-17
9.69122e-17
9.69228e-17
9.69335e-17
9.69439e-17
9.6827e-17
9.68333e-17
9.68391e-17
9.68456e-17
9.68524e-17
9.68596e-17
9.68673e-17
9.68755e-17
9.68841e-17
9.68934e-17
9.69033e-17
9.69137e-17
9.69245e-17
9.6935e-17
9.68178e-17
9.6824e-17
9.683e-17
9.68368e-17
9.68437e-17
9.68511e-17
9.68588e-17
9.6867e-17
9.68757e-17
9.68849e-17
9.68946e-17
9.69049e-17
9.69154e-17
9.69261e-17
9.68093e-17
9.68153e-17
9.68215e-17
9.68284e-17
9.68354e-17
9.68429e-17
9.68508e-17
9.6859e-17
9.68677e-17
9.68768e-17
9.68865e-17
9.68965e-17
9.69067e-17
9.69173e-17
9.68011e-17
9.68071e-17
9.68137e-17
9.68206e-17
9.68279e-17
9.68355e-17
9.68434e-17
9.68517e-17
9.68603e-17
9.68693e-17
9.68787e-17
9.68885e-17
9.68984e-17
9.69088e-17
9.67935e-17
9.67994e-17
9.68061e-17
9.68132e-17
9.68206e-17
9.68284e-17
9.68365e-17
9.68448e-17
9.68534e-17
9.68623e-17
9.68715e-17
9.6881e-17
9.68906e-17
9.69008e-17
9.67863e-17
9.67921e-17
9.67991e-17
9.68062e-17
9.68139e-17
9.68219e-17
9.68301e-17
9.68385e-17
9.6847e-17
9.68558e-17
9.68648e-17
9.6874e-17
9.68833e-17
9.68932e-17
9.67797e-17
9.67855e-17
9.67926e-17
9.67999e-17
9.68076e-17
9.68158e-17
9.68241e-17
9.68326e-17
9.68412e-17
9.68498e-17
9.68586e-17
9.68677e-17
9.68767e-17
9.68862e-17
9.67736e-17
9.67796e-17
9.67869e-17
9.67942e-17
9.6802e-17
9.68101e-17
9.68185e-17
9.68272e-17
9.68358e-17
9.68444e-17
9.68531e-17
9.6862e-17
9.68708e-17
9.688e-17
9.67676e-17
9.6774e-17
9.67812e-17
9.67888e-17
9.67967e-17
9.68052e-17
9.68138e-17
9.68227e-17
9.68316e-17
9.68404e-17
9.6849e-17
9.68577e-17
9.68662e-17
9.68753e-17
9.67632e-17
9.67692e-17
9.67765e-17
9.67844e-17
9.67924e-17
9.6801e-17
9.68094e-17
9.68182e-17
9.6827e-17
9.6836e-17
9.68447e-17
9.68533e-17
9.68619e-17
9.68708e-17
9.65199e-17
9.65301e-17
9.65402e-17
9.65499e-17
9.65596e-17
9.65689e-17
9.65782e-17
9.65873e-17
9.65966e-17
9.66057e-17
9.66151e-17
9.66245e-17
9.66339e-17
9.6644e-17
9.65193e-17
9.65299e-17
9.65402e-17
9.65504e-17
9.65606e-17
9.65705e-17
9.65804e-17
9.659e-17
9.65996e-17
9.6609e-17
9.66185e-17
9.66281e-17
9.66377e-17
9.66478e-17
9.65214e-17
9.65315e-17
9.6542e-17
9.65522e-17
9.65625e-17
9.65724e-17
9.65823e-17
9.65919e-17
9.66015e-17
9.66111e-17
9.66207e-17
9.66305e-17
9.66403e-17
9.66504e-17
9.65227e-17
9.65329e-17
9.65434e-17
9.65536e-17
9.6564e-17
9.65741e-17
9.65841e-17
9.65939e-17
9.66037e-17
9.66134e-17
9.66231e-17
9.66331e-17
9.6643e-17
9.66532e-17
9.65243e-17
9.65345e-17
9.6545e-17
9.65553e-17
9.65657e-17
9.65758e-17
9.65858e-17
9.65956e-17
9.66053e-17
9.66149e-17
9.66246e-17
9.66346e-17
9.66445e-17
9.66546e-17
9.65254e-17
9.65357e-17
9.65463e-17
9.65567e-17
9.65671e-17
9.65773e-17
9.65874e-17
9.65973e-17
9.6607e-17
9.66166e-17
9.66263e-17
9.66361e-17
9.66459e-17
9.6656e-17
9.65265e-17
9.65371e-17
9.65476e-17
9.65581e-17
9.65686e-17
9.65788e-17
9.65888e-17
9.65987e-17
9.66083e-17
9.66178e-17
9.66273e-17
9.66369e-17
9.66465e-17
9.66563e-17
9.65276e-17
9.65382e-17
9.65487e-17
9.65593e-17
9.65698e-17
9.658e-17
9.65901e-17
9.65999e-17
9.66095e-17
9.66189e-17
9.66283e-17
9.66376e-17
9.66471e-17
9.66566e-17
9.65287e-17
9.65393e-17
9.65498e-17
9.65604e-17
9.65708e-17
9.65811e-17
9.65911e-17
9.66009e-17
9.66104e-17
9.66197e-17
9.66289e-17
9.6638e-17
9.66472e-17
9.66564e-17
9.65299e-17
9.65403e-17
9.65508e-17
9.65614e-17
9.65718e-17
9.65821e-17
9.6592e-17
9.66018e-17
9.66112e-17
9.66203e-17
9.66294e-17
9.66383e-17
9.66473e-17
9.66561e-17
9.65312e-17
9.65415e-17
9.65519e-17
9.65624e-17
9.65726e-17
9.65829e-17
9.65928e-17
9.66025e-17
9.66118e-17
9.66209e-17
9.66298e-17
9.66385e-17
9.66473e-17
9.66558e-17
9.65325e-17
9.65429e-17
9.65532e-17
9.65636e-17
9.65737e-17
9.65839e-17
9.65936e-17
9.66032e-17
9.66125e-17
9.66214e-17
9.66302e-17
9.66388e-17
9.66473e-17
9.66556e-17
9.65339e-17
9.65443e-17
9.65544e-17
9.65649e-17
9.65749e-17
9.6585e-17
9.65947e-17
9.66043e-17
9.66135e-17
9.66224e-17
9.6631e-17
9.66394e-17
9.66476e-17
9.6656e-17
9.65368e-17
9.6547e-17
9.65568e-17
9.65671e-17
9.65768e-17
9.65867e-17
9.6596e-17
9.66053e-17
9.66141e-17
9.66227e-17
9.6631e-17
9.66393e-17
9.66477e-17
9.66564e-17
9.61585e-17
9.61683e-17
9.61792e-17
9.61893e-17
9.61995e-17
9.62091e-17
9.62185e-17
9.62274e-17
9.62358e-17
9.62438e-17
9.62514e-17
9.62587e-17
9.62654e-17
9.62735e-17
9.61666e-17
9.61765e-17
9.61876e-17
9.61981e-17
9.62088e-17
9.62189e-17
9.62287e-17
9.6238e-17
9.62467e-17
9.62549e-17
9.62627e-17
9.62701e-17
9.6277e-17
9.6285e-17
9.61761e-17
9.61862e-17
9.61977e-17
9.62083e-17
9.62191e-17
9.62292e-17
9.62389e-17
9.6248e-17
9.62566e-17
9.62648e-17
9.62725e-17
9.62801e-17
9.62873e-17
9.62948e-17
9.61846e-17
9.61951e-17
9.62067e-17
9.62174e-17
9.62284e-17
9.62386e-17
9.62486e-17
9.62579e-17
9.62666e-17
9.62749e-17
9.62827e-17
9.62904e-17
9.62977e-17
9.6305e-17
9.61932e-17
9.62042e-17
9.62159e-17
9.62268e-17
9.62378e-17
9.6248e-17
9.62579e-17
9.62671e-17
9.62759e-17
9.62841e-17
9.62919e-17
9.62994e-17
9.63067e-17
9.63139e-17
9.62013e-17
9.62127e-17
9.62244e-17
9.62354e-17
9.62464e-17
9.62567e-17
9.62666e-17
9.6276e-17
9.62848e-17
9.6293e-17
9.63008e-17
9.63083e-17
9.63156e-17
9.63228e-17
9.62092e-17
9.6221e-17
9.62325e-17
9.62437e-17
9.62546e-17
9.62649e-17
9.62748e-17
9.62841e-17
9.62928e-17
9.6301e-17
9.63088e-17
9.63162e-17
9.63234e-17
9.63304e-17
9.62168e-17
9.62287e-17
9.62401e-17
9.62513e-17
9.62621e-17
9.62724e-17
9.62822e-17
9.62915e-17
9.63003e-17
9.63085e-17
9.63162e-17
9.63236e-17
9.63309e-17
9.63377e-17
9.6224e-17
9.6236e-17
9.62472e-17
9.62584e-17
9.62691e-17
9.62793e-17
9.6289e-17
9.62983e-17
9.63069e-17
9.63151e-17
9.63228e-17
9.63301e-17
9.63373e-17
9.6344e-17
9.62311e-17
9.62429e-17
9.6254e-17
9.62651e-17
9.62756e-17
9.62858e-17
9.62953e-17
9.63045e-17
9.6313e-17
9.63211e-17
9.63288e-17
9.63361e-17
9.63433e-17
9.63498e-17
9.62378e-17
9.62495e-17
9.62604e-17
9.62714e-17
9.62817e-17
9.62917e-17
9.63011e-17
9.63101e-17
9.63186e-17
9.63266e-17
9.63342e-17
9.63413e-17
9.63485e-17
9.6355e-17
9.62447e-17
9.62562e-17
9.62669e-17
9.62777e-17
9.62877e-17
9.62976e-17
9.63067e-17
9.63155e-17
9.63237e-17
9.63316e-17
9.63391e-17
9.63461e-17
9.63533e-17
9.63597e-17
9.62512e-17
9.62626e-17
9.6273e-17
9.62837e-17
9.62935e-17
9.63031e-17
9.6312e-17
9.63206e-17
9.63286e-17
9.63363e-17
9.63436e-17
9.63506e-17
9.63575e-17
9.63643e-17
9.62588e-17
9.62701e-17
9.628e-17
9.62903e-17
9.62997e-17
9.63088e-17
9.63173e-17
9.63255e-17
9.63332e-17
9.63405e-17
9.63475e-17
9.63544e-17
9.63615e-17
9.63687e-17
9.57961e-17
9.5803e-17
9.58114e-17
9.58193e-17
9.58272e-17
9.58347e-17
9.58418e-17
9.58485e-17
9.58546e-17
9.58602e-17
9.58652e-17
9.58698e-17
9.5874e-17
9.58796e-17
9.5807e-17
9.58142e-17
9.58229e-17
9.58311e-17
9.58395e-17
9.58473e-17
9.58547e-17
9.58616e-17
9.58679e-17
9.58736e-17
9.58788e-17
9.58835e-17
9.58875e-17
9.58929e-17
9.58188e-17
9.58264e-17
9.58356e-17
9.5844e-17
9.58524e-17
9.58602e-17
9.58677e-17
9.58745e-17
9.58807e-17
9.58864e-17
9.58914e-17
9.58961e-17
9.59001e-17
9.59049e-17
9.583e-17
9.58381e-17
9.58475e-17
9.5856e-17
9.58646e-17
9.58726e-17
9.58801e-17
9.58871e-17
9.58935e-17
9.58992e-17
9.59044e-17
9.5909e-17
9.59131e-17
9.59176e-17
9.58411e-17
9.58498e-17
9.58593e-17
9.5868e-17
9.58767e-17
9.58847e-17
9.58923e-17
9.58992e-17
9.59056e-17
9.59114e-17
9.59165e-17
9.59211e-17
9.59253e-17
9.59294e-17
9.5852e-17
9.58612e-17
9.58706e-17
9.58795e-17
9.58881e-17
9.58962e-17
9.59038e-17
9.59109e-17
9.59173e-17
9.59231e-17
9.59283e-17
9.5933e-17
9.59373e-17
9.59412e-17
9.58625e-17
9.58721e-17
9.58815e-17
9.58905e-17
9.58991e-17
9.59072e-17
9.59148e-17
9.59219e-17
9.59283e-17
9.59341e-17
9.59394e-17
9.59441e-17
9.59484e-17
9.59522e-17
9.58728e-17
9.58827e-17
9.5892e-17
9.5901e-17
9.59095e-17
9.59176e-17
9.59252e-17
9.59322e-17
9.59386e-17
9.59445e-17
9.59498e-17
9.59546e-17
9.59591e-17
9.59628e-17
9.58827e-17
9.58927e-17
9.59019e-17
9.59109e-17
9.59193e-17
9.59274e-17
9.59349e-17
9.59418e-17
9.59482e-17
9.59541e-17
9.59595e-17
9.59643e-17
9.59688e-17
9.59725e-17
9.58925e-17
9.59025e-17
9.59115e-17
9.59204e-17
9.59287e-17
9.59366e-17
9.5944e-17
9.59508e-17
9.59572e-17
9.59631e-17
9.59684e-17
9.59733e-17
9.59779e-17
9.59816e-17
9.59018e-17
9.59117e-17
9.59205e-17
9.59294e-17
9.59375e-17
9.59453e-17
9.59525e-17
9.59592e-17
9.59655e-17
9.59713e-17
9.59767e-17
9.59815e-17
9.59862e-17
9.599e-17
9.59113e-17
9.59209e-17
9.59295e-17
9.59382e-17
9.59461e-17
9.59537e-17
9.59606e-17
9.59671e-17
9.59732e-17
9.59789e-17
9.59842e-17
9.5989e-17
9.59938e-17
9.59978e-17
9.59199e-17
9.59295e-17
9.59378e-17
9.59464e-17
9.5954e-17
9.59614e-17
9.59681e-17
9.59745e-17
9.59804e-17
9.59859e-17
9.59911e-17
9.59959e-17
9.60006e-17
9.60049e-17
9.59296e-17
9.59388e-17
9.59468e-17
9.59549e-17
9.59621e-17
9.5969e-17
9.59753e-17
9.59813e-17
9.59869e-17
9.59921e-17
9.59971e-17
9.60019e-17
9.60068e-17
9.60117e-17
9.54499e-17
9.54532e-17
9.54579e-17
9.54624e-17
9.54668e-17
9.5471e-17
9.54749e-17
9.54785e-17
9.54817e-17
9.54846e-17
9.54871e-17
9.54893e-17
9.54912e-17
9.54943e-17
9.54596e-17
9.54631e-17
9.54681e-17
9.54728e-17
9.54774e-17
9.54818e-17
9.54858e-17
9.54895e-17
9.54928e-17
9.54958e-17
9.54983e-17
9.55005e-17
9.55021e-17
9.55051e-17
9.54695e-17
9.54734e-17
9.54787e-17
9.54835e-17
9.54883e-17
9.54927e-17
9.54967e-17
9.55004e-17
9.55037e-17
9.55066e-17
9.55091e-17
9.55111e-17
9.55126e-17
9.55153e-17
9.54794e-17
9.54837e-17
9.54891e-17
9.54941e-17
9.54989e-17
9.55033e-17
9.55075e-17
9.55112e-17
9.55146e-17
9.55175e-17
9.552e-17
9.55221e-17
9.55237e-17
9.55259e-17
9.5489e-17
9.54939e-17
9.54994e-17
9.55045e-17
9.55094e-17
9.55138e-17
9.5518e-17
9.55218e-17
9.55252e-17
9.55282e-17
9.55307e-17
9.55327e-17
9.55344e-17
9.55362e-17
9.54987e-17
9.5504e-17
9.55096e-17
9.55147e-17
9.55196e-17
9.55241e-17
9.55283e-17
9.55321e-17
9.55356e-17
9.55386e-17
9.55412e-17
9.55433e-17
9.5545e-17
9.55465e-17
9.55082e-17
9.55139e-17
9.55194e-17
9.55246e-17
9.55295e-17
9.55341e-17
9.55383e-17
9.55422e-17
9.55456e-17
9.55487e-17
9.55513e-17
9.55535e-17
9.55552e-17
9.55565e-17
9.55177e-17
9.55236e-17
9.5529e-17
9.55343e-17
9.55392e-17
9.55438e-17
9.5548e-17
9.55518e-17
9.55553e-17
9.55584e-17
9.55611e-17
9.55633e-17
9.55652e-17
9.55663e-17
9.55269e-17
9.5533e-17
9.55384e-17
9.55437e-17
9.55485e-17
9.55531e-17
9.55573e-17
9.55611e-17
9.55646e-17
9.55677e-17
9.55704e-17
9.55727e-17
9.55746e-17
9.55756e-17
9.5536e-17
9.55423e-17
9.55475e-17
9.55528e-17
9.55575e-17
9.5562e-17
9.55661e-17
9.557e-17
9.55735e-17
9.55766e-17
9.55793e-17
9.55815e-17
9.55835e-17
9.55845e-17
9.55448e-17
9.55511e-17
9.55562e-17
9.55614e-17
9.55661e-17
9.55706e-17
9.55746e-17
9.55784e-17
9.55818e-17
9.55849e-17
9.55876e-17
9.55897e-17
9.55917e-17
9.55928e-17
9.55536e-17
9.55597e-17
9.55647e-17
9.55698e-17
9.55744e-17
9.55786e-17
9.55826e-17
9.55862e-17
9.55896e-17
9.55926e-17
9.55952e-17
9.55974e-17
9.55995e-17
9.56008e-17
9.55617e-17
9.55678e-17
9.55726e-17
9.55776e-17
9.5582e-17
9.55862e-17
9.559e-17
9.55935e-17
9.55968e-17
9.55997e-17
9.56022e-17
9.56045e-17
9.56065e-17
9.5608e-17
9.55707e-17
9.55762e-17
9.55808e-17
9.55853e-17
9.55895e-17
9.55933e-17
9.55969e-17
9.56002e-17
9.56033e-17
9.5606e-17
9.56085e-17
9.56108e-17
9.56131e-17
9.56154e-17
9.51282e-17
9.51292e-17
9.51305e-17
9.5132e-17
9.51333e-17
9.51345e-17
9.51356e-17
9.51365e-17
9.51373e-17
9.51379e-17
9.51384e-17
9.51386e-17
9.51388e-17
9.51396e-17
9.5135e-17
9.51358e-17
9.51373e-17
9.51387e-17
9.51401e-17
9.51413e-17
9.51424e-17
9.51433e-17
9.51441e-17
9.51448e-17
9.51452e-17
9.51455e-17
9.51455e-17
9.51462e-17
9.51414e-17
9.51423e-17
9.5144e-17
9.51455e-17
9.51469e-17
9.51481e-17
9.51492e-17
9.51502e-17
9.51509e-17
9.51515e-17
9.51519e-17
9.51521e-17
9.5152e-17
9.51526e-17
9.51479e-17
9.51491e-17
9.51509e-17
9.51523e-17
9.51537e-17
9.5155e-17
9.51561e-17
9.5157e-17
9.51578e-17
9.51583e-17
9.51587e-17
9.51589e-17
9.51588e-17
9.51592e-17
9.51543e-17
9.51558e-17
9.51576e-17
9.51591e-17
9.51605e-17
9.51618e-17
9.51629e-17
9.51638e-17
9.51646e-17
9.51652e-17
9.51655e-17
9.51657e-17
9.51655e-17
9.51657e-17
9.51608e-17
9.51625e-17
9.51643e-17
9.51659e-17
9.51673e-17
9.51686e-17
9.51697e-17
9.51706e-17
9.51714e-17
9.5172e-17
9.51723e-17
9.51725e-17
9.51723e-17
9.51723e-17
9.51672e-17
9.51691e-17
9.5171e-17
9.51726e-17
9.5174e-17
9.51753e-17
9.51764e-17
9.51774e-17
9.51782e-17
9.51787e-17
9.51791e-17
9.51792e-17
9.51791e-17
9.51787e-17
9.51736e-17
9.51757e-17
9.51775e-17
9.51792e-17
9.51807e-17
9.5182e-17
9.51831e-17
9.5184e-17
9.51848e-17
9.51854e-17
9.51857e-17
9.51858e-17
9.51857e-17
9.51852e-17
9.51799e-17
9.51822e-17
9.5184e-17
9.51857e-17
9.51872e-17
9.51885e-17
9.51896e-17
9.51905e-17
9.51913e-17
9.51918e-17
9.51922e-17
9.51922e-17
9.51922e-17
9.51915e-17
9.51861e-17
9.51885e-17
9.51902e-17
9.5192e-17
9.51935e-17
9.51948e-17
9.51959e-17
9.51968e-17
9.51976e-17
9.51981e-17
9.51984e-17
9.51984e-17
9.51985e-17
9.51977e-17
9.51921e-17
9.51946e-17
9.51962e-17
9.5198e-17
9.51995e-17
9.52008e-17
9.5202e-17
9.52029e-17
9.52036e-17
9.52041e-17
9.52044e-17
9.52044e-17
9.52045e-17
9.52037e-17
9.5198e-17
9.52004e-17
9.5202e-17
9.52037e-17
9.52052e-17
9.52065e-17
9.52076e-17
9.52085e-17
9.52092e-17
9.52097e-17
9.521e-17
9.521e-17
9.52102e-17
9.52094e-17
9.52036e-17
9.52059e-17
9.52075e-17
9.52092e-17
9.52106e-17
9.52119e-17
9.52129e-17
9.52138e-17
9.52145e-17
9.52149e-17
9.52152e-17
9.52153e-17
9.52154e-17
9.52147e-17
9.52094e-17
9.52113e-17
9.52128e-17
9.52142e-17
9.52155e-17
9.52167e-17