/*--------------------------------*- C++ -*----------------------------------*\
| =========                 |                                                 |
| \\      /  F ield         | OpenFOAM: The Open Source CFD Toolbox           |
|  \\    /   O peration     | Version:  v2106                                 |
|   \\  /    A nd           | Website:  www.openfoam.com                      |
|    \\/     M anipulation  |                                                 |
\*---------------------------------------------------------------------------*/
FoamFile
{
    version     2.0;
    format      ascii;
    arch        "LSB;label=32;scalar=64";
    class       volScalarField;
    location    "0.000172";
    object      T;
}
// * * * * * * * * * * * * * * * * * * * * * * * * * * * * * * * * * * * * * //

dimensions      [0 0 0 1 0 0 0];

internalField   nonuniform List<scalar> 
17924
(
307.399
307.393
307.385
307.375
307.386
307.38
307.372
307.362
307.35
307.338
307.323
307.374
307.37
307.362
307.353
307.342
307.329
307.315
307.365
307.361
307.352
307.343
307.332
307.32
307.307
307.357
307.353
307.344
307.335
307.324
307.313
307.3
307.352
307.346
307.337
307.328
307.317
307.306
307.293
307.347
307.34
307.331
307.322
307.311
307.299
307.287
307.344
307.336
307.326
307.316
307.305
307.293
307.281
307.341
307.332
307.322
307.311
307.3
307.287
307.274
307.34
307.329
307.318
307.307
307.295
307.282
307.268
307.338
307.327
307.315
307.303
307.29
307.276
307.262
307.338
307.325
307.312
307.299
307.285
307.271
307.255
307.336
307.323
307.309
307.294
307.28
307.264
307.248
307.335
307.32
307.305
307.29
307.274
307.258
307.241
307.333
307.316
307.3
307.284
307.267
307.25
307.231
307.334
307.327
307.318
307.308
307.296
307.284
307.269
307.252
307.234
307.214
307.193
307.17
307.147
307.12
307.316
307.311
307.302
307.292
307.281
307.268
307.253
307.236
307.217
307.197
307.176
307.153
307.129
307.105
307.301
307.296
307.286
307.276
307.264
307.251
307.236
307.22
307.202
307.182
307.161
307.138
307.116
307.092
307.287
307.281
307.271
307.26
307.248
307.235
307.22
307.204
307.186
307.166
307.145
307.123
307.101
307.078
307.274
307.266
307.256
307.245
307.232
307.219
307.204
307.187
307.17
307.15
307.13
307.108
307.087
307.064
307.26
307.252
307.241
307.229
307.216
307.203
307.187
307.171
307.153
307.133
307.113
307.092
307.071
307.049
307.247
307.237
307.226
307.214
307.2
307.186
307.17
307.153
307.135
307.116
307.096
307.075
307.054
307.033
307.233
307.222
307.21
307.197
307.183
307.168
307.152
307.135
307.117
307.098
307.078
307.057
307.036
307.015
307.22
307.208
307.195
307.181
307.166
307.151
307.134
307.116
307.098
307.078
307.058
307.037
307.016
306.996
307.206
307.192
307.178
307.163
307.148
307.132
307.114
307.096
307.077
307.058
307.037
307.016
306.994
306.975
307.192
307.176
307.162
307.146
307.13
307.112
307.094
307.075
307.056
307.035
307.014
306.993
306.971
306.952
307.175
307.159
307.143
307.127
307.109
307.091
307.073
307.053
307.033
307.012
306.991
306.97
306.946
306.928
307.16
307.143
307.126
307.108
307.09
307.071
307.051
307.03
307.008
306.987
306.964
306.942
306.919
306.901
307.141
307.122
307.104
307.086
307.067
307.047
307.026
307.006
306.984
306.962
306.94
306.918
306.894
306.873
307.22
307.211
307.201
307.19
307.179
307.166
307.153
307.138
307.122
307.104
307.085
307.064
307.043
307.019
307.199
307.191
307.18
307.169
307.157
307.144
307.13
307.114
307.097
307.078
307.058
307.037
307.014
306.991
307.179
307.171
307.159
307.147
307.134
307.121
307.106
307.09
307.073
307.054
307.034
307.013
306.991
306.968
307.159
307.15
307.137
307.125
307.112
307.098
307.082
307.066
307.048
307.028
307.008
306.987
306.965
306.942
307.139
307.128
307.115
307.102
307.088
307.074
307.058
307.041
307.023
307.003
306.983
306.962
306.941
306.918
307.117
307.106
307.092
307.079
307.064
307.049
307.032
307.015
306.997
306.977
306.957
306.936
306.915
306.893
307.095
307.083
307.068
307.054
307.039
307.023
307.006
306.989
306.97
306.95
306.93
306.91
306.889
306.868
307.072
307.058
307.043
307.028
307.013
306.996
306.979
306.961
306.942
306.923
306.903
306.883
306.862
306.842
307.048
307.032
307.018
307.002
306.986
306.969
306.951
306.933
306.914
306.894
306.874
306.855
306.835
306.816
307.021
307.005
306.99
306.974
306.957
306.94
306.922
306.903
306.884
306.865
306.845
306.826
306.806
306.789
306.996
306.978
306.963
306.945
306.928
306.91
306.892
306.873
306.853
306.834
306.814
306.796
306.776
306.761
306.967
306.949
306.933
306.915
306.897
306.879
306.86
306.841
306.822
306.803
306.783
306.765
306.746
306.732
306.94
306.921
306.904
306.886
306.867
306.848
306.829
306.809
306.789
306.77
306.75
306.732
306.713
306.701
306.907
306.888
306.871
306.852
306.833
306.815
306.795
306.776
306.757
306.738
306.719
306.701
306.683
306.669
307.043
307.032
307.019
307.008
306.997
306.986
306.975
306.964
306.952
306.94
306.927
306.913
306.898
306.884
307.017
307.008
306.994
306.983
306.971
306.959
306.947
306.934
306.921
306.908
306.894
306.879
306.863
306.846
306.992
306.982
306.968
306.956
306.943
306.93
306.918
306.905
306.891
306.877
306.863
306.848
306.832
306.816
306.966
306.956
306.941
306.929
306.915
306.902
306.888
306.874
306.86
306.846
306.831
306.816
306.8
306.783
306.941
306.929
306.914
306.9
306.886
306.872
306.858
306.844
306.83
306.815
306.8
306.785
306.769
306.753
306.913
306.9
306.885
306.871
306.856
306.842
306.828
306.813
306.798
306.783
306.768
306.753
306.738
306.722
306.885
306.871
306.856
306.841
306.826
306.811
306.796
306.782
306.767
306.752
306.737
306.722
306.707
306.692
306.855
306.84
306.825
306.81
306.795
306.78
306.765
306.75
306.735
306.72
306.705
306.691
306.676
306.662
306.824
306.808
306.793
306.778
306.763
306.748
306.732
306.717
306.703
306.688
306.674
306.66
306.646
306.634
306.791
306.775
306.761
306.745
306.73
306.715
306.7
306.685
306.67
306.656
306.642
306.628
306.615
306.605
306.759
306.742
306.728
306.712
306.697
306.682
306.667
306.652
306.637
306.624
306.61
306.598
306.585
306.577
306.725
306.708
306.694
306.678
306.663
306.648
306.633
306.619
306.605
306.591
306.578
306.567
306.555
306.549
306.693
306.676
306.661
306.645
306.63
306.615
306.6
306.585
306.571
306.558
306.546
306.536
306.525
306.521
306.655
306.639
306.624
306.61
306.595
306.58
306.566
306.552
306.539
306.526
306.515
306.505
306.496
306.491
306.812
306.801
306.788
306.779
306.769
306.761
306.754
306.748
306.742
306.736
306.731
306.725
306.72
306.716
306.783
306.774
306.761
306.751
306.741
306.732
306.724
306.717
306.71
306.704
306.697
306.691
306.685
306.678
306.755
306.745
306.733
306.722
306.711
306.702
306.693
306.686
306.678
306.671
306.665
306.658
306.653
306.645
306.726
306.716
306.703
306.692
306.681
306.671
306.663
306.654
306.647
306.639
306.632
306.625
306.619
306.611
306.698
306.687
306.674
306.662
306.651
306.641
306.631
306.623
306.615
306.607
306.6
306.594
306.588
306.58
306.668
306.656
306.643
306.631
306.62
306.61
306.6
306.592
306.584
306.576
306.569
306.562
306.556
306.549
306.638
306.625
306.613
306.601
306.589
306.579
306.569
306.561
306.553
306.545
306.538
306.532
306.526
306.52
306.607
306.594
306.582
306.57
306.559
306.548
306.539
306.53
306.522
306.515
306.508
306.502
306.497
306.492
306.576
306.562
306.551
306.539
306.528
306.518
306.508
306.5
306.492
306.485
306.479
306.474
306.469
306.465
306.544
306.531
306.519
306.508
306.498
306.488
306.479
306.47
306.463
306.457
306.451
306.446
306.441
306.439
306.513
306.5
306.489
306.478
306.468
306.458
306.449
306.442
306.435
306.429
306.423
306.419
306.415
306.415
306.482
306.468
306.458
306.447
306.438
306.429
306.421
306.413
306.407
306.402
306.397
306.393
306.39
306.391
306.452
306.439
306.429
306.418
306.409
306.4
306.393
306.386
306.38
306.375
306.371
306.368
306.366
306.368
306.418
306.408
306.398
306.388
306.38
306.372
306.365
306.359
306.353
306.349
306.346
306.344
306.342
306.344
306.545
306.537
306.529
306.523
306.518
306.514
306.511
306.51
306.509
306.51
306.511
306.513
306.517
306.521
306.516
306.511
306.502
306.496
306.491
306.487
306.484
306.483
306.482
306.482
306.483
306.485
306.488
306.489
306.489
306.484
306.476
306.47
306.464
306.46
306.457
306.455
306.454
306.454
306.455
306.456
306.46
306.459
306.462
306.457
306.449
306.443
306.437
306.433
306.43
306.428
306.427
306.427
306.428
306.429
306.432
306.431
306.436
306.43
306.422
306.416
306.41
306.406
306.403
306.401
306.4
306.4
306.401
306.402
306.405
306.405
306.409
306.402
306.395
306.389
306.384
306.379
306.376
306.374
306.374
306.374
306.374
306.376
306.378
306.379
306.383
306.376
306.369
306.363
306.358
306.353
306.351
306.349
306.348
306.348
306.349
306.351
306.353
306.355
306.358
306.35
306.343
306.337
306.332
306.329
306.326
306.324
306.324
306.324
306.325
306.327
306.329
306.332
306.333
306.325
306.318
306.313
306.308
306.305
306.302
306.301
306.301
306.301
306.302
306.305
306.307
306.31
306.308
306.3
306.294
306.289
306.285
306.282
306.28
306.279
306.278
306.279
306.281
306.283
306.286
306.29
306.284
306.276
306.271
306.266
306.262
306.26
306.258
306.257
306.258
306.259
306.261
306.263
306.266
306.271
306.261
306.253
306.248
306.244
306.241
306.239
306.237
306.237
306.238
306.239
306.241
306.245
306.248
306.253
306.238
306.231
306.226
306.223
306.22
306.218
306.218
306.218
306.219
306.221
306.224
306.227
306.231
306.237
306.214
306.208
306.204
306.202
306.2
306.199
306.199
306.199
306.201
306.204
306.207
306.211
306.215
306.221
306.254
306.254
306.252
306.252
306.252
306.253
306.255
306.259
306.263
306.268
306.274
306.281
306.29
306.3
306.232
306.233
306.232
306.232
306.232
306.234
306.236
306.24
306.244
306.25
306.256
306.263
306.271
306.278
306.213
306.214
306.212
306.212
306.213
306.214
306.217
306.22
306.225
306.23
306.237
306.243
306.252
306.258
306.193
306.194
306.192
306.193
306.193
306.195
306.198
306.202
306.206
306.212
306.218
306.225
306.233
306.239
306.175
306.174
306.173
306.174
306.174
306.176
306.179
306.183
306.188
306.193
306.2
306.207
306.214
306.221
306.156
306.156
306.155
306.156
306.157
306.159
306.161
306.165
306.17
306.176
306.182
306.189
306.196
306.203
306.139
306.138
306.137
306.138
306.139
306.141
306.144
306.148
306.153
306.159
306.165
306.172
306.179
306.187
306.122
306.121
306.121
306.121
306.123
306.125
306.128
306.132
306.137
306.143
306.149
306.156
306.163
306.171
306.105
306.104
306.105
306.106
306.107
306.11
306.113
306.117
306.122
306.128
306.134
306.141
306.148
306.156
306.089
306.089
306.089
306.091
306.093
306.096
306.099
306.104
306.109
306.115
306.121
306.128
306.134
306.142
306.074
306.073
306.075
306.076
306.079
306.082
306.086
306.091
306.096
306.102
306.108
306.115
306.122
306.129
306.061
306.059
306.061
306.063
306.066
306.07
306.074
306.079
306.084
306.09
306.097
306.103
306.11
306.118
306.047
306.046
306.048
306.05
306.054
306.058
306.063
306.068
306.074
306.08
306.087
306.093
306.1
306.108
306.034
306.034
306.036
306.039
306.042
306.047
306.052
306.057
306.063
306.07
306.077
306.084
306.091
306.098
305.949
305.955
305.96
305.966
305.971
305.977
305.983
305.99
305.997
306.005
306.013
306.022
306.032
306.043
305.939
305.945
305.95
305.956
305.962
305.968
305.975
305.982
305.99
305.998
306.007
306.016
306.025
306.035
305.93
305.936
305.941
305.947
305.953
305.959
305.966
305.973
305.981
305.989
305.998
306.008
306.018
306.027
305.921
305.927
305.932
305.938
305.944
305.951
305.958
305.965
305.973
305.981
305.99
306
306.01
306.019
305.912
305.918
305.923
305.929
305.935
305.942
305.949
305.956
305.964
305.973
305.982
305.991
306.001
306.011
305.904
305.91
305.915
305.921
305.927
305.934
305.941
305.949
305.957
305.965
305.974
305.983
305.993
306.002
305.896
305.901
305.907
305.913
305.92
305.927
305.934
305.941
305.949
305.957
305.966
305.975
305.985
305.994
305.889
305.894
305.9
305.906
305.913
305.92
305.927
305.934
305.942
305.95
305.959
305.968
305.977
305.986
305.881
305.887
305.893
305.899
305.906
305.913
305.921
305.928
305.936
305.944
305.952
305.961
305.97
305.979
305.875
305.88
305.886
305.893
305.9
305.907
305.915
305.922
305.93
305.938
305.946
305.955
305.963
305.972
305.869
305.874
305.88
305.887
305.894
305.901
305.909
305.917
305.925
305.932
305.94
305.949
305.957
305.965
305.863
305.868
305.875
305.882
305.889
305.896
305.904
305.912
305.92
305.927
305.935
305.943
305.951
305.96
305.857
305.863
305.87
305.877
305.884
305.892
305.899
305.908
305.916
305.924
305.931
305.939
305.947
305.955
305.853
305.859
305.865
305.873
305.88
305.888
305.895
305.903
305.911
305.919
305.927
305.935
305.943
305.951
305.631
305.64
305.649
305.658
305.667
305.675
305.684
305.692
305.701
305.709
305.717
305.726
305.735
305.744
305.63
305.64
305.649
305.658
305.668
305.677
305.686
305.695
305.703
305.712
305.721
305.729
305.738
305.748
305.632
305.641
305.651
305.66
305.669
305.678
305.688
305.696
305.705
305.714
305.722
305.731
305.74
305.75
305.633
305.642
305.652
305.661
305.671
305.68
305.689
305.698
305.707
305.716
305.725
305.734
305.743
305.752
305.634
305.644
305.653
305.663
305.672
305.681
305.691
305.699
305.708
305.717
305.726
305.735
305.744
305.753
305.635
305.645
305.654
305.664
305.673
305.683
305.692
305.701
305.71
305.718
305.727
305.736
305.745
305.754
305.636
305.646
305.655
305.665
305.675
305.684
305.693
305.702
305.711
305.719
305.728
305.737
305.746
305.754
305.637
305.647
305.656
305.666
305.676
305.685
305.694
305.703
305.712
305.72
305.729
305.737
305.746
305.755
305.638
305.648
305.657
305.667
305.676
305.686
305.695
305.704
305.713
305.721
305.729
305.738
305.746
305.754
305.639
305.649
305.658
305.668
305.677
305.687
305.696
305.705
305.713
305.721
305.73
305.738
305.746
305.754
305.64
305.649
305.659
305.669
305.678
305.687
305.696
305.705
305.714
305.722
305.73
305.738
305.746
305.753
305.641
305.651
305.66
305.67
305.679
305.688
305.697
305.706
305.714
305.722
305.73
305.738
305.746
305.753
305.642
305.652
305.661
305.671
305.68
305.689
305.698
305.707
305.715
305.723
305.731
305.738
305.746
305.753
305.645
305.654
305.663
305.673
305.681
305.69
305.699
305.707
305.715
305.723
305.731
305.738
305.746
305.754
305.298
305.307
305.317
305.327
305.336
305.345
305.353
305.361
305.369
305.376
305.383
305.39
305.396
305.404
305.306
305.315
305.325
305.335
305.344
305.354
305.363
305.371
305.379
305.387
305.394
305.401
305.407
305.414
305.315
305.324
305.334
305.344
305.354
305.363
305.372
305.38
305.388
305.395
305.403
305.409
305.416
305.423
305.322
305.332
305.342
305.352
305.362
305.372
305.381
305.389
305.397
305.405
305.412
305.419
305.425
305.432
305.33
305.34
305.351
305.361
305.371
305.38
305.389
305.398
305.406
305.413
305.42
305.427
305.434
305.44
305.337
305.348
305.358
305.368
305.378
305.388
305.397
305.406
305.414
305.421
305.428
305.435
305.442
305.448
305.344
305.355
305.366
305.376
305.386
305.395
305.404
305.413
305.421
305.428
305.435
305.442
305.449
305.455
305.351
305.362
305.373
305.383
305.393
305.402
305.411
305.42
305.428
305.435
305.442
305.449
305.455
305.462
305.358
305.369
305.379
305.389
305.399
305.408
305.417
305.426
305.434
305.441
305.448
305.455
305.461
305.467
305.364
305.375
305.385
305.395
305.405
305.414
305.423
305.431
305.439
305.446
305.453
305.46
305.467
305.472
305.37
305.381
305.391
305.401
305.41
305.42
305.428
305.436
305.444
305.451
305.458
305.465
305.471
305.477
305.376
305.387
305.397
305.407
305.416
305.425
305.433
305.441
305.449
305.456
305.463
305.469
305.476
305.481
305.382
305.393
305.402
305.412
305.421
305.43
305.438
305.446
305.453
305.46
305.467
305.473
305.479
305.485
305.389
305.4
305.409
305.418
305.427
305.435
305.443
305.45
305.457
305.464
305.47
305.476
305.483
305.489
304.965
304.971
304.979
304.986
304.993
305
305.007
305.013
305.018
305.023
305.028
305.032
305.036
305.041
304.975
304.981
304.989
304.997
305.004
305.012
305.018
305.025
305.03
305.036
305.04
305.045
305.048
305.053
304.985
304.992
305.001
305.008
305.016
305.023
305.03
305.036
305.042
305.047
305.052
305.056
305.06
305.064
304.996
305.003
305.012
305.019
305.027
305.035
305.042
305.048
305.054
305.059
305.064
305.068
305.072
305.076
305.006
305.014
305.022
305.03
305.038
305.046
305.053
305.059
305.065
305.07
305.075
305.079
305.083
305.087
305.016
305.024
305.033
305.041
305.049
305.056
305.063
305.07
305.076
305.081
305.086
305.09
305.094
305.097
305.025
305.034
305.043
305.051
305.059
305.066
305.073
305.08
305.085
305.091
305.096
305.1
305.104
305.107
305.035
305.044
305.052
305.06
305.068
305.076
305.083
305.089
305.095
305.1
305.105
305.109
305.114
305.117
305.044
305.053
305.061
305.069
305.077
305.085
305.091
305.098
305.104
305.109
305.114
305.118
305.122
305.126
305.052
305.062
305.07
305.078
305.086
305.093
305.1
305.106
305.112
305.117
305.122
305.126
305.131
305.134
305.061
305.07
305.078
305.086
305.094
305.101
305.107
305.114
305.119
305.125
305.129
305.134
305.138
305.141
305.069
305.078
305.086
305.094
305.101
305.108
305.115
305.121
305.126
305.131
305.136
305.141
305.145
305.149
305.077
305.086
305.094
305.102
305.109
305.115
305.121
305.127
305.133
305.138
305.142
305.147
305.151
305.155
305.086
305.095
305.102
305.109
305.116
305.122
305.128
305.133
305.139
305.143
305.148
305.152
305.157
305.161
304.645
304.648
304.652
304.656
304.66
304.664
304.668
304.671
304.674
304.677
304.679
304.681
304.683
304.686
304.654
304.657
304.662
304.666
304.67
304.674
304.678
304.681
304.684
304.687
304.689
304.691
304.693
304.696
304.663
304.666
304.671
304.676
304.68
304.684
304.688
304.691
304.694
304.697
304.699
304.701
304.702
304.705
304.672
304.676
304.681
304.685
304.69
304.694
304.698
304.701
304.704
304.707
304.709
304.711
304.713
304.715
304.681
304.685
304.69
304.695
304.699
304.703
304.707
304.711
304.714
304.717
304.719
304.721
304.722
304.724
304.689
304.694
304.699
304.704
304.709
304.713
304.717
304.72
304.723
304.726
304.729
304.73
304.732
304.733
304.698
304.703
304.708
304.713
304.718
304.722
304.726
304.729
304.733
304.735
304.738
304.74
304.741
304.743
304.707
304.712
304.717
304.722
304.727
304.731
304.735
304.738
304.741
304.744
304.747
304.749
304.75
304.752
304.715
304.721
304.726
304.731
304.735
304.739
304.743
304.747
304.75
304.753
304.755
304.757
304.759
304.76
304.724
304.729
304.734
304.739
304.743
304.747
304.751
304.755
304.758
304.761
304.763
304.765
304.767
304.768
304.732
304.737
304.742
304.747
304.751
304.755
304.759
304.762
304.766
304.768
304.771
304.773
304.775
304.776
304.74
304.745
304.75
304.754
304.759
304.763
304.766
304.77
304.773
304.775
304.778
304.78
304.782
304.783
304.747
304.752
304.757
304.762
304.766
304.769
304.773
304.776
304.779
304.782
304.784
304.786
304.788
304.789
304.755
304.76
304.764
304.769
304.772
304.776
304.779
304.782
304.785
304.788
304.79
304.792
304.794
304.796
304.347
304.348
304.349
304.35
304.351
304.353
304.354
304.354
304.355
304.356
304.356
304.356
304.357
304.357
304.353
304.354
304.355
304.356
304.358
304.359
304.36
304.361
304.361
304.362
304.362
304.363
304.363
304.363
304.359
304.36
304.361
304.363
304.364
304.365
304.366
304.367
304.368
304.368
304.369
304.369
304.369
304.369
304.365
304.366
304.368
304.369
304.37
304.371
304.372
304.373
304.374
304.374
304.375
304.375
304.375
304.375
304.371
304.372
304.374
304.375
304.376
304.378
304.379
304.38
304.38
304.381
304.381
304.381
304.381
304.381
304.377
304.378
304.38
304.381
304.383
304.384
304.385
304.386
304.386
304.387
304.387
304.387
304.387
304.387
304.382
304.384
304.386
304.387
304.389
304.39
304.391
304.392
304.393
304.393
304.394
304.394
304.394
304.393
304.388
304.39
304.392
304.394
304.395
304.396
304.397
304.398
304.399
304.399
304.4
304.4
304.4
304.399
304.394
304.396
304.398
304.399
304.401
304.402
304.403
304.404
304.405
304.405
304.406
304.406
304.406
304.405
304.4
304.402
304.404
304.405
304.407
304.408
304.409
304.41
304.41
304.411
304.411
304.411
304.411
304.411
304.405
304.408
304.409
304.411
304.412
304.413
304.414
304.415
304.416
304.416
304.417
304.417
304.417
304.416
304.411
304.413
304.414
304.416
304.417
304.419
304.42
304.42
304.421
304.422
304.422
304.422
304.422
304.421
304.416
304.418
304.419
304.421
304.422
304.423
304.424
304.425
304.426
304.426
304.427
304.427
304.427
304.426
304.421
304.423
304.424
304.426
304.427
304.428
304.429
304.43
304.43
304.431
304.431
304.431
304.431
304.431
304.067
304.067
304.066
304.066
304.066
304.065
304.065
304.064
304.063
304.063
304.062
304.061
304.06
304.059
304.07
304.07
304.07
304.069
304.069
304.068
304.068
304.067
304.066
304.065
304.065
304.064
304.063
304.062
304.073
304.073
304.073
304.072
304.072
304.071
304.071
304.07
304.069
304.068
304.067
304.066
304.065
304.064
304.076
304.076
304.076
304.075
304.075
304.074
304.073
304.073
304.072
304.071
304.07
304.069
304.068
304.067
304.079
304.079
304.079
304.078
304.078
304.077
304.076
304.076
304.075
304.074
304.073
304.072
304.071
304.07
304.082
304.082
304.082
304.081
304.081
304.08
304.079
304.079
304.078
304.077
304.076
304.075
304.074
304.072
304.085
304.085
304.085
304.084
304.084
304.083
304.082
304.081
304.081
304.08
304.079
304.078
304.076
304.075
304.088
304.088
304.088
304.087
304.087
304.086
304.085
304.084
304.083
304.083
304.081
304.08
304.079
304.078
304.091
304.091
304.09
304.09
304.089
304.089
304.088
304.087
304.086
304.085
304.084
304.083
304.082
304.08
304.093
304.093
304.093
304.093
304.092
304.091
304.091
304.09
304.089
304.088
304.087
304.086
304.084
304.083
304.096
304.096
304.095
304.095
304.094
304.094
304.093
304.092
304.092
304.091
304.09
304.088
304.087
304.085
304.098
304.098
304.098
304.097
304.097
304.096
304.096
304.095
304.094
304.093
304.092
304.091
304.089
304.087
304.1
304.1
304.1
304.099
304.099
304.098
304.098
304.097
304.096
304.095
304.094
304.093
304.092
304.09
304.101
304.101
304.101
304.101
304.1
304.1
304.099
304.099
304.098
304.097
304.096
304.095
304.094
304.092
303.798
303.798
303.797
303.796
303.795
303.794
303.793
303.792
303.791
303.789
303.788
303.786
303.785
303.783
303.8
303.799
303.798
303.798
303.797
303.796
303.794
303.793
303.792
303.79
303.789
303.787
303.786
303.784
303.801
303.8
303.8
303.799
303.798
303.797
303.795
303.794
303.793
303.791
303.79
303.788
303.787
303.785
303.802
303.801
303.801
303.8
303.799
303.798
303.796
303.795
303.794
303.792
303.791
303.789
303.787
303.786
303.803
303.802
303.801
303.801
303.8
303.798
303.797
303.796
303.794
303.793
303.791
303.79
303.788
303.786
303.804
303.803
303.802
303.801
303.8
303.799
303.798
303.797
303.795
303.794
303.792
303.79
303.789
303.787
303.804
303.804
303.803
303.802
303.801
303.8
303.798
303.797
303.796
303.794
303.792
303.791
303.789
303.787
303.805
303.804
303.803
303.802
303.801
303.8
303.799
303.798
303.796
303.795
303.793
303.791
303.789
303.787
303.805
303.805
303.804
303.803
303.802
303.801
303.799
303.798
303.796
303.795
303.793
303.791
303.79
303.787
303.805
303.805
303.804
303.803
303.802
303.801
303.8
303.798
303.797
303.795
303.794
303.792
303.79
303.788
303.805
303.805
303.804
303.803
303.802
303.801
303.8
303.798
303.797
303.795
303.794
303.792
303.79
303.788
303.805
303.804
303.803
303.803
303.802
303.801
303.8
303.798
303.797
303.795
303.794
303.792
303.79
303.788
303.804
303.804
303.803
303.802
303.801
303.8
303.799
303.798
303.797
303.795
303.794
303.792
303.79
303.788
303.803
303.803
303.802
303.801
303.801
303.8
303.799
303.798
303.797
303.795
303.794
303.792
303.79
303.788
303.536
303.536
303.536
303.536
303.535
303.534
303.533
303.532
303.531
303.529
303.528
303.526
303.525
303.522
303.537
303.537
303.537
303.536
303.536
303.535
303.534
303.533
303.531
303.53
303.528
303.527
303.525
303.523
303.537
303.537
303.537
303.537
303.536
303.535
303.534
303.533
303.532
303.53
303.529
303.527
303.525
303.523
303.538
303.537
303.537
303.537
303.536
303.535
303.534
303.533
303.532
303.53
303.529
303.527
303.525
303.523
303.538
303.537
303.537
303.537
303.536
303.535
303.534
303.533
303.532
303.53
303.529
303.527
303.525
303.523
303.537
303.537
303.537
303.536
303.536
303.535
303.534
303.533
303.532
303.53
303.528
303.527
303.525
303.522
303.537
303.537
303.537
303.536
303.535
303.535
303.534
303.532
303.531
303.53
303.528
303.526
303.524
303.522
303.536
303.536
303.536
303.535
303.535
303.534
303.533
303.532
303.53
303.529
303.527
303.525
303.523
303.521
303.535
303.535
303.535
303.534
303.534
303.533
303.532
303.531
303.53
303.528
303.526
303.524
303.522
303.52
303.534
303.534
303.534
303.533
303.533
303.532
303.531
303.53
303.529
303.527
303.525
303.523
303.521
303.519
303.533
303.533
303.532
303.532
303.531
303.531
303.53
303.529
303.527
303.526
303.524
303.522
303.52
303.518
303.531
303.531
303.531
303.53
303.53
303.529
303.528
303.527
303.526
303.525
303.523
303.521
303.519
303.517
303.529
303.529
303.529
303.529
303.528
303.528
303.527
303.526
303.525
303.523
303.522
303.52
303.518
303.515
303.527
303.527
303.527
303.527
303.526
303.526
303.525
303.524
303.523
303.522
303.52
303.518
303.516
303.514
303.283
303.284
303.285
303.285
303.285
303.284
303.284
303.283
303.282
303.281
303.28
303.278
303.277
303.275
303.284
303.285
303.285
303.285
303.285
303.285
303.285
303.284
303.283
303.282
303.28
303.279
303.277
303.275
303.284
303.285
303.285
303.286
303.286
303.285
303.285
303.284
303.283
303.282
303.281
303.279
303.277
303.275
303.285
303.285
303.286
303.286
303.286
303.286
303.285
303.284
303.283
303.282
303.281
303.279
303.277
303.276
303.284
303.285
303.285
303.286
303.286
303.285
303.285
303.284
303.283
303.282
303.281
303.279
303.277
303.275
303.284
303.285
303.285
303.285
303.285
303.285
303.284
303.284
303.283
303.282
303.28
303.279
303.277
303.275
303.283
303.284
303.284
303.285
303.285
303.284
303.284
303.283
303.282
303.281
303.28
303.278
303.276
303.274
303.283
303.283
303.283
303.284
303.284
303.283
303.283
303.282
303.281
303.28
303.279
303.277
303.275
303.274
303.281
303.282
303.282
303.282
303.282
303.282
303.282
303.281
303.28
303.279
303.278
303.276
303.274
303.272
303.28
303.28
303.281
303.281
303.281
303.281
303.281
303.28
303.279
303.278
303.276
303.275
303.273
303.271
303.279
303.279
303.279
303.279
303.28
303.279
303.279
303.278
303.277
303.276
303.275
303.273
303.271
303.27
303.277
303.277
303.277
303.278
303.278
303.278
303.277
303.277
303.276
303.275
303.273
303.272
303.27
303.268
303.275
303.275
303.275
303.276
303.276
303.276
303.275
303.275
303.274
303.273
303.272
303.27
303.268
303.266
303.272
303.273
303.273
303.274
303.274
303.274
303.273
303.273
303.272
303.271
303.27
303.268
303.267
303.265
303.046
303.047
303.048
303.048
303.048
303.049
303.048
303.048
303.048
303.047
303.046
303.045
303.044
303.042
303.047
303.048
303.048
303.049
303.049
303.049
303.049
303.049
303.048
303.047
303.046
303.045
303.044
303.043
303.047
303.048
303.049
303.049
303.049
303.049
303.049
303.049
303.048
303.048
303.047
303.046
303.045
303.043
303.047
303.048
303.049
303.049
303.049
303.05
303.05
303.049
303.049
303.048
303.047
303.046
303.045
303.044
303.047
303.048
303.049
303.049
303.049
303.05
303.05
303.049
303.049
303.048
303.047
303.046
303.045
303.044
303.047
303.048
303.048
303.049
303.049
303.049
303.049
303.049
303.049
303.048
303.047
303.046
303.045
303.043
303.047
303.047
303.048
303.049
303.049
303.049
303.049
303.049
303.048
303.047
303.047
303.045
303.044
303.043
303.046
303.047
303.047
303.048
303.048
303.048
303.048
303.048
303.048
303.047
303.046
303.045
303.044
303.042
303.045
303.046
303.047
303.047
303.047
303.048
303.048
303.047
303.047
303.046
303.045
303.044
303.043
303.042
303.044
303.045
303.046
303.046
303.046
303.047
303.047
303.046
303.046
303.045
303.044
303.043
303.042
303.041
303.043
303.044
303.044
303.045
303.045
303.045
303.045
303.045
303.045
303.044
303.043
303.042
303.041
303.04
303.042
303.042
303.043
303.044
303.044
303.044
303.044
303.044
303.043
303.043
303.042
303.041
303.04
303.038
303.04
303.041
303.042
303.042
303.043
303.043
303.043
303.042
303.042
303.041
303.04
303.039
303.038
303.037
303.039
303.039
303.04
303.041
303.041
303.041
303.041
303.041
303.04
303.04
303.039
303.038
303.037
303.036
302.83
302.83
302.83
302.831
302.831
302.831
302.831
302.831
302.831
302.83
302.83
302.83
302.83
302.83
302.83
302.831
302.831
302.831
302.831
302.831
302.831
302.83
302.83
302.83
302.83
302.83
302.83
302.831
302.831
302.831
302.831
302.831
302.831
302.831
302.83
302.83
302.83
302.83
302.83
302.831
302.831
302.831
302.831
302.831
302.831
302.831
302.83
302.83
302.83
302.83
302.83
302.831
302.831
302.831
302.831
302.831
302.831
302.831
302.83
302.83
302.829
302.83
302.83
302.83
302.831
302.831
302.831
302.831
302.831
302.83
302.83
302.83
302.829
302.83
302.83
302.83
302.83
302.831
302.831
302.831
302.83
302.83
302.83
302.83
302.829
302.829
302.83
302.83
302.83
302.83
302.83
302.83
302.83
302.83
302.83
302.829
302.829
302.829
302.829
302.83
302.83
302.83
302.83
302.83
302.83
302.83
302.829
302.829
302.828
302.829
302.829
302.829
302.829
302.83
302.83
302.829
302.829
302.829
302.829
302.828
302.828
302.828
302.829
302.829
302.829
302.829
302.829
302.829
302.829
302.829
302.828
302.828
302.827
302.828
302.828
302.828
302.828
302.828
302.828
302.828
302.828
302.828
302.828
302.827
302.827
302.827
302.827
302.828
302.828
302.828
302.828
302.828
302.828
302.827
302.827
302.827
302.826
302.827
302.827
302.827
302.827
302.827
302.827
302.827
302.827
302.827
302.826
302.826
307.407
307.412
307.419
307.426
307.433
307.44
307.4
307.41
307.42
307.431
307.442
307.455
307.393
307.404
307.416
307.43
307.445
307.461
307.384
307.394
307.407
307.422
307.439
307.457
307.396
307.405
307.413
307.422
307.429
307.438
307.391
307.404
307.417
307.43
307.443
307.456
307.385
307.401
307.417
307.434
307.452
307.469
307.376
307.393
307.412
307.432
307.452
307.473
307.365
307.382
307.402
307.422
307.445
307.467
307.351
307.367
307.386
307.406
307.427
307.449
307.335
307.349
307.365
307.383
307.402
307.421
307.346
307.357
307.368
307.378
307.387
307.396
307.341
307.356
307.371
307.386
307.399
307.413
307.336
307.355
307.373
307.391
307.409
307.427
307.327
307.349
307.371
307.392
307.413
307.435