/*--------------------------------*- C++ -*----------------------------------*\
| =========                 |                                                 |
| \\      /  F ield         | OpenFOAM: The Open Source CFD Toolbox           |
|  \\    /   O peration     | Version:  v2106                                 |
|   \\  /    A nd           | Website:  www.openfoam.com                      |
|    \\/     M anipulation  |                                                 |
\*---------------------------------------------------------------------------*/
FoamFile
{
    version     2.0;
    format      ascii;
    arch        "LSB;label=32;scalar=64";
    class       volScalarField;
    location    "0.000133";
    object      Ttot;
}
// * * * * * * * * * * * * * * * * * * * * * * * * * * * * * * * * * * * * * //

dimensions      [0 0 0 1 0 0 0];

internalField   nonuniform List<scalar> 
18273
(
304.203
304.326
304.303
304.293
304.184
304.069
303.95
303.838
303.776
303.721
303.704
303.711
303.724
303.672
304.446
304.711
304.692
304.712
304.606
304.493
304.362
304.22
304.109
304.004
303.945
303.912
303.889
303.775
304.419
304.711
304.699
304.744
304.647
304.558
304.445
304.326
304.217
304.116
304.068
304.032
304.003
303.892
304.347
304.621
304.634
304.673
304.586
304.515
304.434
304.352
304.272
304.205
304.174
304.154
304.135
304.041
304.278
304.57
304.593
304.615
304.531
304.467
304.407
304.349
304.288
304.238
304.219
304.211
304.203
304.122
304.219
304.54
304.586
304.608
304.537
304.459
304.402
304.353
304.309
304.281
304.273
304.278
304.282
304.204
304.155
304.526
304.601
304.605
304.528
304.457
304.39
304.343
304.31
304.303
304.298
304.296
304.292
304.211
304.17
304.606
304.698
304.673
304.577
304.489
304.416
304.369
304.332
304.317
304.319
304.314
304.299
304.207
304.201
304.691
304.793
304.748
304.633
304.54
304.467
304.415
304.371
304.351
304.359
304.348
304.319
304.207
304.262
304.783
304.886
304.839
304.711
304.604
304.524
304.478
304.439
304.408
304.404
304.389
304.352
304.228
304.308
304.858
304.967
304.912
304.775
304.668
304.591
304.541
304.498
304.465
304.47
304.444
304.392
304.246
304.331
304.87
304.971
304.917
304.785
304.688
304.624
304.587
304.569
304.545
304.538
304.489
304.427
304.261
304.364
304.894
305.004
304.948
304.817
304.733
304.675
304.635
304.628
304.603
304.589
304.512
304.441
304.261
304.261
304.658
304.758
304.744
304.647
304.59
304.555
304.527
304.541
304.513
304.48
304.363
304.257
304.109
303.408
303.394
303.472
303.603
303.804
303.92
304.109
304.184
304.306
304.372
304.478
304.561
304.538
304.207
304.608
304.814
304.799
304.801
304.846
304.756
304.721
304.59
304.568
304.55
304.6
304.693
304.68
304.352
305.194
305.439
305.358
305.298
305.202
305.002
304.823
304.648
304.567
304.495
304.576
304.683
304.716
304.453
305.242
305.513
305.38
305.304
305.135
304.915
304.71
304.549
304.449
304.439
304.55
304.7
304.791
304.636
305.122
305.407
305.264
305.151
304.898
304.691
304.52
304.411
304.352
304.356
304.532
304.704
304.807
304.71
304.829
305.237
305.176
305.093
304.854
304.642
304.456
304.324
304.252
304.325
304.485
304.674
304.808
304.799
304.464
305.034
305.107
305.054
304.842
304.648
304.453
304.319
304.246
304.35
304.524
304.709
304.848
304.864
304.286
305.084
305.289
305.21
304.988
304.778
304.564
304.427
304.349
304.446
304.604
304.757
304.902
304.934
303.953
304.989
305.454
305.419
305.216
304.983
304.777
304.65
304.57
304.647
304.771
304.884
305.002
305.019
303.771
305.065
305.697
305.708
305.493
305.237
305.046
304.938
304.858
304.903
304.981
305.054
305.136
305.116
303.543
305.038
305.861
305.957
305.744
305.482
305.297
305.177
305.085
305.12
305.187
305.237
305.302
305.252
303.49
305.12
305.986
306.088
305.871
305.649
305.476
305.372
305.293
305.29
305.366
305.379
305.426
305.362
303.496
305.274
306.122
306.233
306.014
305.823
305.615
305.447
305.382
305.429
305.482
305.434
305.42
305.308
303.49
304.87
305.678
305.887
305.729
305.608
305.422
305.253
305.263
305.268
305.237
305.095
304.955
304.864
303.213
303.185
303.392
303.352
303.587
303.556
303.788
303.904
304.4
304.934
305.502
306.032
306.21
305.8
304.997
305.088
305.288
305.059
304.949
304.66
304.565
304.382
304.499
304.803
305.256
305.76
306.033
305.88
306.1
305.994
305.95
305.613
305.272
304.872
304.616
304.398
304.462
304.606
304.977
305.5
305.936
305.94
306.263
306.063
305.802
305.449
305.095
304.753
304.523
304.358
304.323
304.472
304.811
305.301
305.713
305.776
305.794
305.624
305.361
305.054
304.759
304.479
304.309
304.208
304.217
304.339
304.662
305.105
305.517
305.656
305.106
305.121
305.027
304.857
304.614
304.383
304.223
304.13
304.143
304.3
304.611
304.993
305.315
305.416
304.078
304.487
304.736
304.723
304.556
304.374
304.213
304.135
304.141
304.307
304.596
304.95
305.242
305.368
303.49
304.397
304.956
304.931
304.764
304.504
304.306
304.231
304.222
304.383
304.63
304.93
305.161
305.325
302.786
304.207
305.061
305.161
304.981
304.694
304.491
304.436
304.418
304.567
304.766
305.024
305.273
305.496
302.619
304.42
305.429
305.556
305.292
304.969
304.767
304.746
304.721
304.861
305.004
305.198
305.44
305.691
302.285
304.348
305.64
305.888
305.612
305.279
305.076
305.081
305.07
305.261
305.405
305.595
305.829
306.05
302.388
304.542
305.896
306.165
305.869
305.564
305.36
305.374
305.39
305.66
305.802
305.979
306.133
306.354
302.288
304.397
305.797
306.28
306.066
305.813
305.578
305.529
305.521
305.826
305.947
306.12
306.124
306.302
302.341
304.111
305.639
306.365
306.208
305.971
305.641
305.479
305.459
305.68
305.646
305.75
305.539
305.47
303.392
302.792
301.882
300.567
299.071
297.195
303.516
302.817
301.838
300.433
298.975
297.178
303.61
302.879
301.814
300.352
298.826
297.121
303.766
302.98
301.821
300.227
298.674
296.965
303.839
303.034
301.848
300.203
298.623
296.878
303.917
303.106
301.95
300.326
298.716
296.871
303.943
303.169
302.117
300.579
298.935
296.928
303.964
303.247
302.298
300.842
299.18
296.999
303.965
303.291
302.408
301.006
299.35
297.057
303.985
303.32
302.468
301.07
299.411
297.035
303.976
303.311
302.458
301.145
299.619
297.179
303.974
303.306
302.447
301.097
299.449
297.019
303.927
303.265
302.405
301.101
299.47
297.138
303.767
303.096
302.188
300.791
299.17
297.027
303.508
302.385
301.35
300.025
298.995
297.238
303.757
302.511
301.354
299.87
298.84
297.091
303.777
302.498
301.237
299.632
298.523
296.861
304.014
302.681
301.265
299.508
298.32
296.634
304.156
302.864
301.378
299.521
298.263
296.584
304.361
303.155
301.709
299.846
298.522
296.748
304.52
303.487
302.216
300.444
299.055
297.126
304.731
303.924
302.849
301.145
299.656
297.473
304.894
304.23
303.301
301.633
300.028
297.579
304.983
304.296
303.443
301.853
300.177
297.547
305.057
304.302
303.429
301.846
300.205
297.438
305.102
304.112
303.178
301.633
300.061
297.494
304.972
303.904
302.938
301.343
299.857
297.508
304.521
303.361
302.229
300.585
299.321
297.29
304.708
303.02
301.224
299.1
298.042
293.648
305.08
303.241
301.327
299.048
297.792
292.871
305
303.109
301.119
298.73
297.364
292.625
305.036
303.235
301.31
298.819
297.327
292.88
305.113
303.376
301.482
299.004
297.448
293.563
305.06
303.622
301.976
299.644
298.197
294.789
305.167
304.029
302.734
300.736
299.535
296.372
305.301
304.611
303.796
302.131
300.976
297.796
305.651
305.241
304.766
303.222
301.905
298.425
306.029
305.669
305.253
303.675
302.308
298.499
306.281
305.812
305.229
303.521
302.249
298.088
306.26
305.599
304.691
302.675
301.377
297.045
306.051
304.867
303.672
301.605
300.556
296.049
304.858
303.337
301.795
299.616
298.783
294.231
303.676
302.961
301.931
300.517
298.92
297
303.844
302.972
301.837
300.294
298.736
296.873
303.988
303.063
301.825
300.221
298.587
296.819
304.12
303.143
301.828
300.118
298.462
296.664
304.183
303.206
301.879
300.133
298.44
296.587
304.246
303.295
302.017
300.283
298.564
296.606
304.266
303.393
302.214
300.51
298.771
296.685
304.301
303.488
302.377
300.723
298.997
296.81
304.326
303.568
302.543
300.93
299.198
296.959
304.354
303.553
302.535
300.981
299.425
297.145
304.406
303.568
302.545
301.056
299.463
297.349
304.315
303.456
302.435
301.036
299.529
297.541
304.113
303.243
302.159
300.727
299.305
297.569
303.693
302.8
301.608
300.126
298.905
297.531
304.044
302.671
301.459
300.005
298.927
297.088
304.239
302.787
301.448
299.838
298.723
296.919
304.268
302.701
301.205
299.504
298.393
296.676
304.427
302.835
301.257
299.427
298.257
296.481
304.551
303.068
301.474
299.565
298.338
296.461
304.739
303.437
301.97
300.075
298.77
296.756
304.879
303.827
302.612
300.811
299.404
297.179
305.177
304.273
303.249
301.48
299.951
297.472
305.385
304.538
303.637
301.887
300.288
297.657
305.442
304.572
303.686
301.878
300.298
297.537
305.51
304.35
303.325
301.537
300.019
297.49
305.121
303.697
302.492
300.724
299.439
297.216
304.126
302.453
301.124
299.406
298.428
296.737
302.6
300.921
299.549
298.042
297.36
296.096
304.181
302.171
300.298
298.269
297.6
292.659
304.464
302.471
300.501
298.306
297.407
291.974
304.451
302.381
300.358
298.053
296.98
291.826
304.422
302.48
300.5
298.155
296.936
292.175
304.515
302.734
300.871
298.536
297.286
293.054
304.632
303.16
301.631
299.527
298.429
294.584
304.971
303.835
302.741
300.884
299.916
296.237
305.465
304.685
304.053
302.334
301.244
297.392
306.088
305.412
304.852
303.114
301.977
297.841
306.399
305.618
304.988
303.179
302.159
297.573
306.274
305.311
304.428
302.47
301.498
296.739
305.22
303.846
302.831
300.967
300.342
295.276
303.646
301.915
300.604
298.647
298.111
292.993
301.409
299.625
298.21
296.278
295.428
290.35
298.006
299.336
300.514
301.903
302.964
303.718
298.099
299.75
301.068
302.358
303.279
303.988
298.067
299.86
301.258
302.457
303.309
304.033
297.892
299.819
301.156
302.396
303.223
303.974
297.627
299.55
300.992
302.251
303.1
303.884
297.337
299.191
300.659
302.006
302.941
303.829
297.08
298.754
300.198
301.636
302.672
303.675
296.874
298.305
299.63
301.103
302.279
303.48
296.747
297.952
299.13
300.594
301.908
303.303
296.746
297.771
298.821
300.283
301.714
303.229
296.816
297.762
298.776
300.255
301.739
303.222
297.057
297.965
298.994
300.457
301.912
303.314
297.318
298.289
299.306
300.734
302.076
303.37
297.523
298.709
299.853
301.266
302.527
303.531
296.223
297.475
298.197
299.705
301.076
302.6
296.94
298.512
299.478
301.125
302.43
303.928
297.656
299.601
300.761
302.347
303.421
304.655
298.061
300.313
301.612
303.108
303.935
304.937
298.337
300.769
302.101
303.442
304.086
304.912
298.399
300.673
301.957
303.261
303.857
304.648
298.188
300.196
301.327
302.615
303.24
304.062
297.796
299.405
300.243
301.473
302.249
303.395
297.202
298.393
298.959
300.176
301.15
302.651
296.468
297.399
297.9
299.148
300.306
302.073
295.883
296.685
297.24
298.575
299.818
301.674
295.536
296.354
296.967
298.332
299.642
301.533
295.437
296.383
297.032
298.353
299.634
301.548
295.743
296.893
297.621
298.963
300.163
301.76
290.703
295.39
296.885
299.029
300.496
302.248
293.489
298.138
299.304
301.385
302.659
304.254
296.309
300.777
301.672
303.5
304.408
305.47
298.062
302.262
303.165
304.755
305.503
306.174
299.34
303.257
304.156
305.515
305.648
306.075
299.843
303.205
304.052
305.117
305.105
305.307
299.746
302.683
303.258
303.929
303.641
303.904
298.999
301.404
301.642
302.141
301.978
302.676
297.416
299.46
299.572
300.164
300.366
301.44
295.174
297.337
297.601
298.494
299.237
300.756
292.814
295.501
296.253
297.513
298.514
300.174
290.818
294.172
295.368
297.035
298.352
300.124
289.441
293.618
295.116
297.017
298.23
300.107
289.016
293.706
295.192
297.445
298.961
300.555
297.304
299.357
300.892
302.138
302.908
303.448
297.318
299.52
301.036
302.201
302.92
303.461
297.346
299.694
301.104
302.194
302.875
303.446
297.361
299.557
300.975
302.058
302.757
303.384
297.252
299.311
300.73
301.87
302.63
303.37
297.142
298.99
300.361
301.562
302.412
303.31
297.061
298.652
299.916
301.159
302.146
303.213
296.987
298.298
299.426
300.728
301.899
303.145
297.029
298.096
299.099
300.452
301.772
303.156
297.156
298.069
299.013
300.414
301.817
303.228
297.331
298.164
299.113
300.51
301.936
303.325
297.563
298.385
299.362
300.743
302.125
303.418
297.745
298.669
299.614
300.979
302.297
303.483
297.944
299.077
300.13
301.455
302.657
303.609
297.564
299.467
300.623
301.998
302.911
303.819
297.765
299.909
301.194
302.48
303.296
304.212
297.737
300.162
301.53
302.796
303.531
304.312
297.945
300.427
301.825
303.027
303.629
304.322
298.023
300.344
301.704
302.946
303.525
304.235
298.036
300.057
301.282
302.508
303.115
303.936
297.88
299.509
300.498
301.681
302.418
303.49
297.468
298.672
299.436
300.652
301.64
303.04
296.903
297.733
298.376
299.679
300.931
302.619
296.383
296.99
297.623
299.008
300.441
302.269
295.984
296.577
297.274
298.671
300.111
301.985
295.695
296.408
297.124
298.528
299.969
301.776
295.539
296.479
297.171
298.545
299.922
301.745
295.762
296.903
297.679
299.059
300.333
301.888
295.339
299.431
300.452
302.485
303.913
305.088
297.009
301.087
302.278
304.18
305.088
305.871
298.115
302.155
303.368
304.892
305.485
305.952
299.343
303.075
304.233
305.462
305.52
305.828
299.907
303.205
304.148
305.101
305.105
305.287
299.958
302.789
303.514
304.196
304.163
304.474
299.654
301.787
302.153
302.643
302.743
303.496
298.589
300.164
300.338
300.929
301.404
302.734
296.929
298.255
298.402
299.263
300.232
301.96
294.973
296.516
296.875
298.058
299.417
301.487
293.004
295.203
295.923
297.354
298.864
301.01
291.221
294.17
295.335
297.093
298.766
300.896
289.876
293.635
295.188
297.175
298.824
300.9
289.36
293.633
295.477
297.786
299.503
301.367
304.117
303.402
303.186
302.677
302.65
302.626
302.876
303.111
303.612
304.273
305.169
306.077
306.955
307.167
305.662
305.112
304.782
304.22
303.891
303.554
303.524
303.482
303.678
304.053
304.688
305.452
306.292
306.647
306.337
305.781
305.349
304.79
304.341
303.927
303.725
303.528
303.608
303.858
304.304
304.974
305.849
306.449
306.155
305.563
305.045
304.562
304.139
303.789
303.594
303.462
303.51
303.659
304.009
304.558
305.24
305.764
305.39
304.949
304.554
304.222
303.894
303.629
303.471
303.377
303.411
303.543
303.827
304.288
304.872
305.385
304.484
304.336
304.192
304.019
303.77
303.57
303.429
303.348
303.373
303.488
303.726
304.096
304.525
304.918
303.453
303.743
303.939
303.869
303.718
303.557
303.435
303.376
303.388
303.503
303.72
304.053
304.43
304.773
302.649
303.575
304.045
304.089
303.895
303.671
303.515
303.456
303.453
303.571
303.76
304.05
304.351
304.671
301.968
303.363
304.082
304.254
304.042
303.799
303.632
303.594
303.588
303.73
303.92
304.225
304.541
304.954
301.964
303.634
304.554
304.678
304.371
304.054
303.846
303.823
303.807
303.989
304.182
304.516
304.886
305.385
302.04
303.9
304.968
305.072
304.697
304.333
304.103
304.122
304.13
304.414
304.66
305.091
305.542
306.118
302.745
304.585
305.625
305.619
305.106
304.655
304.395
304.466
304.519
304.932
305.232
305.808
306.286
306.995
303.027
305.006
306.051
306.107
305.555
305.007
304.677
304.745
304.848
305.401
305.801
306.518
306.984
307.718
303.768
305.601
306.567
306.63
306.03
305.401
304.972
304.959
305.063
305.653
306.058
306.839
307.008
307.555
302.842
302.056
301.865
301.504
301.608
301.825
302.224
302.629
303.059
303.584
304.315
305.067
305.885
306.258
304.572
304.045
303.716
303.247
303.038
302.9
302.948
303.032
303.22
303.517
303.969
304.523
305.181
305.619
305.273
304.686
304.314
303.893
303.602
303.357
303.26
303.173
303.203
303.392
303.685
304.106
304.713
305.288
305.06
304.576
304.186
303.843
303.561
303.341
303.222
303.15
303.179
303.283
303.471
303.765
304.185
304.638
304.355
304.084
303.859
303.668
303.466
303.287
303.187
303.128
303.143
303.209
303.336
303.553
303.867
304.231
303.639
303.635
303.608
303.522
303.394
303.272
303.19
303.14
303.141
303.18
303.26
303.412
303.615
303.864
302.719
303.124
303.366
303.374
303.318
303.247
303.19
303.157
303.148
303.183
303.245
303.375
303.543
303.732
301.831
302.822
303.316
303.442
303.379
303.283
303.216
303.183
303.166
303.205
303.263
303.381
303.513
303.658
300.896
302.379
303.206
303.446
303.397
303.298
303.23
303.217
303.199
303.261
303.335
303.472
303.624
303.822
300.399
302.289
303.384
303.635
303.538
303.391
303.286
303.275
303.248
303.339
303.432
303.616
303.811
304.115
300.225
302.338
303.57
303.81
303.66
303.477
303.35
303.362
303.344
303.496
303.642
303.933
304.228
304.635
300.667
302.735
303.954
304.129
303.859
303.591
303.418
303.461
303.458
303.685
303.896
304.329
304.708
305.309
300.938
303.088
304.241
304.43
304.071
303.712
303.469
303.506
303.535
303.865
304.193
304.812
305.304
306.062
301.734
303.635
304.746
304.828
304.321
303.828
303.512
303.474
303.509
303.914
304.329
305.068
305.414
306.116
302.879
302.285
302.161
301.933
302.065
302.197
302.453
302.783
303.047
303.375
303.799
304.232
304.781
305.118
304.253
303.881
303.618
303.281
303.16
303.043
303.035
303.092
303.191
303.361
303.608
303.899
304.282
304.543
304.648
304.277
304.006
303.703
303.496
303.308
303.207
303.176
303.174
303.255
303.42
303.632
303.967
304.289
304.502
304.199
303.945
303.71
303.49
303.328
303.231
303.186
303.181
303.215
303.301
303.423
303.632
303.883
304.06
303.891
303.753
303.606
303.453
303.325
303.24
303.192
303.176
303.186
303.226
303.304
303.448
303.653
303.616
303.64
303.63
303.517
303.429
303.335
303.267
303.221
303.198
303.193
303.201
303.242
303.312
303.45
303.013
303.319
303.456
303.428
303.39
303.332
303.275
303.236
303.212
303.209
303.208
303.239
303.289
303.394
302.398
303.078
303.403
303.441
303.403
303.343
303.289
303.254
303.225
303.232
303.241
303.284
303.339
303.419
301.677
302.711
303.293
303.413
303.389
303.337
303.289
303.266
303.237
303.261
303.288
303.35
303.431
303.522
301.133
302.571
303.336
303.496
303.446
303.367
303.297
303.275
303.24
303.28
303.333
303.428
303.552
303.706
300.815
302.541
303.424
303.589
303.506
303.392
303.301
303.286
303.248
303.318
303.408
303.577
303.789
304.055
300.916
302.732
303.644
303.77
303.611
303.429
303.292
303.284
303.24
303.346
303.484
303.76
304.027
304.451
301
302.895
303.786
303.936
303.713
303.467
303.27
303.249
303.203
303.362
303.574
304.001
304.358
304.924
301.519
303.196
304.073
304.141
303.782
303.49
303.214
303.136
303.095
303.299
303.56
304.065
304.365
304.942
303.649
303.194
303.102
302.917
302.92
302.927
303
303.168
303.295
303.499
303.732
303.932
304.276
304.553
304.357
304.074
303.844
303.569
303.438
303.32
303.303
303.327
303.41
303.479
303.596
303.698
303.903
304.043
304.468
304.182
303.962
303.749
303.616
303.493
303.42
303.383
303.361
303.386
303.456
303.512
303.679
303.845
304.329
304.11
303.931
303.775
303.624
303.504
303.434
303.389
303.378
303.355
303.381
303.394
303.465
303.573
304.025
303.91
303.806
303.716
303.608
303.522
303.46
303.414
303.386
303.355
303.341
303.333
303.36
303.444
303.748
303.776
303.749
303.652
303.589
303.528
303.481
303.438
303.406
303.371
303.336
303.313
303.295
303.334
303.362
303.538
303.627
303.572
303.556
303.52
303.479
303.445
303.414
303.386
303.35
303.328
303.306
303.324
302.986
303.401
303.545
303.563
303.545
303.517
303.474
303.446
303.417
303.4
303.377
303.374
303.379
303.397
302.557
303.183
303.463
303.517
303.511
303.489
303.455
303.435
303.408
303.405
303.404
303.419
303.451
303.482
302.25
303.103
303.479
303.539
303.518
303.478
303.432
303.41
303.379
303.387
303.41
303.452
303.52
303.616
302.069
303.091
303.522
303.568
303.526
303.457
303.396
303.374
303.334
303.361
303.416
303.518
303.667
303.849
302.094
303.222
303.659
303.667
303.56
303.444
303.349
303.318
303.261
303.31
303.394
303.565
303.763
304.076
302.12
303.316
303.745
303.77
303.596
303.43
303.276
303.226
303.161
303.247
303.381
303.66
303.915
304.331
302.434
303.487
303.919
303.9
303.622
303.405
303.204
303.123
303.049
303.156
303.318
303.667
303.888
304.371
304.401
304.039
303.974
303.785
303.681
303.593
303.587
303.631
303.691
303.799
303.949
304.039
304.278
304.477
304.714
304.392
304.189
303.954
303.831
303.727
303.698
303.686
303.733
303.76
303.822
303.85
303.964
304.05
304.641
304.369
304.186
304.02
303.911
303.806
303.74
303.694
303.669
303.658
303.695
303.697
303.778
303.857
304.513
304.325
304.174
304.043
303.922
303.82
303.757
303.705
303.683
303.644
303.635
303.611
303.622
303.648
304.292
304.187
304.092
304
303.913
303.838
303.782
303.731
303.695
303.65
303.61
303.571
303.551
303.564
304.107
304.096
304.059
303.952
303.901
303.847
303.805
303.758
303.716
303.667
303.613
303.563
303.516
303.502
303.863
303.937
303.973
303.892
303.878
303.84
303.807
303.769
303.728
303.684
303.63
303.583
303.536
303.52
303.668
303.848
303.903
303.88
303.862
303.836
303.802
303.772
303.735
303.699
303.657
303.632
303.614
303.616
303.479
303.715
303.834
303.83
303.827
303.811
303.781
303.759
303.73
303.706
303.682
303.67
303.673
303.71
303.374
303.682
303.84
303.832
303.815
303.786
303.75
303.728
303.701
303.689
303.687
303.699
303.738
303.83
303.287
303.675
303.826
303.819
303.789
303.742
303.701
303.68
303.649
303.654
303.684
303.748
303.852
303.999
303.3
303.78
303.894
303.868
303.791
303.711
303.644
303.611
303.565
303.588
303.639
303.756
303.901
304.14
303.286
303.856
303.955
303.921
303.791
303.676
303.562
303.514
303.453
303.502
303.593
303.791
303.988
304.326
303.481
304.003
304.118
304.035
303.814
303.661
303.491
303.405
303.336
303.401
303.512
303.764
303.94
304.359
304.932
304.609
304.538
304.332
304.198
304.081
304.073
304.054
304.092
304.151
304.265
304.319
304.485
304.64
305.022
304.693
304.521
304.32
304.208
304.109
304.076
304.054
304.079
304.094
304.133
304.142
304.217
304.272
304.904
304.649
304.487
304.337
304.235
304.142
304.083
304.036
304.001
303.98
304.008
304.001
304.048
304.096
304.779
304.613
304.473
304.348
304.243
304.153
304.092
304.04
304.01
303.966
303.95
303.924
303.918
303.918
304.61
304.497
304.401
304.303
304.23
304.162
304.109
304.058
304.017
303.968
303.924
303.885
303.857
303.848
304.468
304.425
304.376
304.273
304.226
304.171
304.128
304.079
304.033
303.981
303.926
303.878
303.831
303.803
304.312
304.312
304.305
304.232
304.207
304.165
304.132
304.09
304.046
303.997
303.941
303.895
303.849
303.827
304.202
304.243
304.257
304.225
304.195
304.16
304.132
304.097
304.057
304.014
303.969
303.941
303.924
303.931
304.111
304.164
304.191
304.178
304.167
304.139
304.115
304.09
304.061
304.03
304
303.983
303.985
304.024
304.089
304.154
304.191
304.168
304.147
304.117
304.089
304.067
304.044
304.025
304.013
304.019
304.049
304.143
304.053
304.123
304.157
304.139
304.111
304.075
304.045
304.027
304.008
304.005
304.024
304.07
304.156
304.287
304.109
304.195
304.187
304.161
304.099
304.041
303.993
303.97
303.94
303.955
303.997
304.08
304.2
304.385
304.099
304.263
304.223
304.188
304.086
304.011
303.926
303.891
303.847
303.882
303.954
304.1
304.268
304.541
304.265
304.447
304.379
304.283
304.106
303.996
303.86
303.8
303.739
303.785
303.866
304.055
304.224
304.6
305.359
305.026
304.951
304.758
304.625
304.525
304.511
304.483
304.518
304.549
304.64
304.689
304.811
304.945
305.337
305.039
304.888
304.71
304.61
304.525
304.486
304.461
304.473
304.474
304.508
304.518
304.585
304.634
305.229
305.007
304.855
304.714
304.619
304.533
304.476
304.425
304.384
304.367
304.387
304.386
304.427
304.476
305.116
304.965
304.836
304.715
304.619
304.534
304.471
304.416
304.38
304.337
304.322
304.305
304.305
304.313
304.98
304.861
304.767
304.669
304.598
304.53
304.473
304.417
304.373
304.323
304.287
304.259
304.24
304.239
304.865
304.804
304.748
304.651
304.6
304.538
304.485
304.429
304.379
304.326
304.278
304.243
304.212
304.196
304.747
304.724
304.69
304.607
304.578
304.53
304.486
304.436
304.386
304.336
304.287
304.252
304.223
304.214
304.671
304.668
304.654
304.606
304.567
304.527
304.487
304.443
304.397
304.354
304.315
304.293
304.29
304.309
304.602
304.596
304.599
304.576
304.538
304.508
304.474
304.441
304.407
304.375
304.351
304.343
304.354
304.403
304.599
304.585
304.584
304.558
304.524
304.492
304.459
304.431
304.404
304.381
304.372
304.387
304.428
304.522
304.586
304.555
304.552
304.534
304.499
304.465
304.433
304.412
304.389
304.383
304.402
304.447
304.535
304.657
304.66
304.607
304.58
304.551
304.493
304.448
304.405
304.382
304.354
304.366
304.403
304.472
304.588
304.746
304.675
304.653
304.611
304.57
304.486
304.429
304.365
304.334
304.296
304.325
304.39
304.51
304.668
304.89
304.824
304.86
304.758
304.655
304.512
304.424
304.317
304.268
304.212
304.254
304.326
304.485
304.648
304.977
304.888
304.902
304.924
305
305.056
305.156
305.284
304.846
304.85
304.842
304.875
304.903
304.966
305.013
304.791
304.758
304.749
304.768
304.78
304.818
304.869
304.768
304.733
304.7
304.696
304.696
304.705
304.729
304.755
304.713
304.672
304.651
304.642
304.638
304.653
304.752
304.705
304.662
304.63
304.616
304.606
304.611
304.753
304.706
304.665
304.631
304.617
304.613
304.624
304.761
304.718
304.683
304.657
304.654
304.672
304.704
305
304.99
304.968
304.924
304.879
304.843
304.802
304.767
304.735
304.712
304.7
304.711
304.739
304.796
304.996
304.968
304.948
304.916
304.868
304.839
304.8
304.771
304.745
304.732
304.738
304.765
304.821
304.911
304.997
304.954
304.937
304.913
304.862
304.831
304.791
304.768
304.746
304.749
304.781
304.833
304.931
305.045
305.08
305.011
304.976
304.938
304.872
304.832
304.789
304.769
304.749
304.764
304.808
304.878
304.997
305.143
305.117
305.052
305.013
304.963
304.878
304.828
304.777
304.753
304.73
304.758
304.822
304.928
305.083
305.276
305.268
305.236
305.14
305.036
304.916
304.834
304.753
304.716
304.68
304.721
304.795
304.939
305.091
305.378
302.468
301.237
299.188
297.842
296.094
294.749
300.916
299.023
297.114
296.1
294.785
293.771
300.6
298.769
297.008
296.129
295.136
294.626
300.108
298.291
296.854
296.447
296.065
295.927
300.4
298.707
297.599
297.534
297.665
297.807
300.83
299.544
298.964
299.287
299.876
300.367
301.696
300.943
300.908
301.607
302.493
303.206
302.636
302.464
302.943
303.971
304.968
305.851
303.752
304.109
305.002
306.108
307.021
307.768
304.753
305.499
306.608
307.528
308.258
308.781
305.782
306.725
307.736
308.446
308.719
309.078
306.477
307.376
308.018
308.458
308.583
308.813
307.122
307.881
308.143
308.143
308.1
308.197
306.699
307.344
307.132
306.949
306.734
306.494
300.89
299.304
296.921
295.468
293.916
292.877
299.145
296.989
294.618
293.419
292.285
291.51
298.934
296.816
294.702
293.629
292.692
292.194
298.614
296.355
294.51
293.892
293.621
293.674
299.023
296.838
295.323
295.122
295.45
296.014
299.695
297.776
296.761
296.991
297.912
298.862
300.718
299.348
298.911
299.511
300.94
302.06
301.851
301.277
301.431
302.353
304.048
305.165
302.922
303.017
303.682
304.889
306.427
307.368
303.86
304.397
305.424
306.642
307.869
308.582
304.815
305.659
306.712
307.681
308.439
308.873
305.494
306.324
307.189
307.901
308.286
308.553
306.078
306.754
307.333
307.7
307.66
307.645
305.849
306.54
306.583
306.485
306.044
305.79
301.119
299.309
296.495
294.704
293.248
292.518
299.589
297.159
294.214
292.364
291.044
290.603
299.463
296.897
294.045
292.253
291.115
290.898
299.369
296.683
293.971
292.411
291.764
292.038
299.847
297.261
294.868
293.682
293.51
294.192
300.475
298.241
296.316
295.575
295.911
297.048
301.287
299.657
298.441
298.195
298.992
300.531
302.12
301.313
300.906
301.152
302.296
304.044
302.863
302.729
302.888
303.618
304.98
306.671
303.515
303.83
304.428
305.433
306.715
308.184
304.115
304.698
305.473
306.475
307.537
308.735
304.572
305.193
305.878
306.779
307.626
308.612
305.014
305.538
306.138
306.836
307.297
307.863
304.932
305.468
305.695
305.984
305.964
306.027
302.552
301.283
298.688
296.481
294.501
293.286
301.361
299.335
296.264
293.694
291.654
290.608
301.209
298.866
295.702
293.055
291.092
290.161
301.118
298.655
295.514
292.868
291.124
290.565
301.353
299.091
296.265
293.912
292.545
292.414
301.719
299.835
297.491
295.634
294.797
295.136
302.204
300.829
299.257
298.095
297.871
298.533
302.697
301.991
301.255
300.844
301.137
302.036
303.171
302.967
302.877
303.046
303.75
304.856
303.565
303.74
304.087
304.657
305.604
306.682
303.951
304.335
304.876
305.639
306.613
307.625
304.203
304.685
305.244
306.045
306.925
307.83
304.523
304.966
305.519
306.31
307.005
307.629
304.527
304.977
305.361
305.923
306.128
306.229
303.816
303.365
301.639
299.65
297.385
295.745
303.06
301.832
299.459
296.846
294.204
292.348
302.912
301.301
298.709
295.854
293.132
291.279
302.788
301.091
298.501
295.512
292.778
291.019
302.815
301.271
298.942
296.184
293.766
292.368
302.907
301.678
299.758
297.532
295.676
294.843
303.127
302.237
300.945
299.493
298.388
298.181
303.393
302.952
302.308
301.615
301.264
301.483
303.652
303.53
303.395
303.333
303.542
304.087
303.882
304.036
304.269
304.603
305.174
305.942
304.139
304.441
304.842
305.381
306.084
306.916
304.283
304.68
305.132
305.755
306.451
307.265
304.5
304.877
305.336
305.968
306.606
307.305
304.513
304.911
305.281
305.802
306.135
306.423
304.676
304.799
303.983
302.784
301.038
299.358
304.211
303.764
302.405
300.508
297.997
295.687
304.067
303.31
301.68
299.397
296.546
294.089
303.928
303.122
301.438
299.039
296.112
293.593
303.849
303.087
301.515
299.289
296.638
294.429
303.835
303.179
301.909
300.091
298.053
296.436
303.913
303.429
302.569
301.374
300.095
299.199
304.001
303.799
303.398
302.79
302.225
301.997
304.127
304.119
304.063
303.96
303.983
304.185
304.262
304.427
304.636
304.871
305.241
305.757
304.447
304.712
305.044
305.457
305.98
306.634
304.542
304.879
305.258
305.759
306.331
307.021
304.691
305.015
305.395
305.901
306.453
307.11
304.713
305.072
305.388
305.848
306.237
306.618
305.289
305.575
305.373
304.936
304.037
302.917
304.889
304.919
304.4
303.423
301.793
299.879
304.747
304.562
303.824
302.456
300.368
297.993
304.601
304.327
303.548
302.052
299.895
297.354
304.523
304.211
303.444
301.983
300.005
297.696
304.469
304.198
303.547
302.344
300.773
299.067
304.501
304.322
303.86
303.066
302.065
301.058
304.509
304.474
304.301
303.935
303.475
303.064
304.583
304.646
304.686
304.663
304.67
304.739
304.665
304.832
305.042
305.261
305.552
305.921
304.811
305.046
305.336
305.683
306.106
306.627
304.886
305.17
305.497
305.911
306.392
306.972
305.007
305.285
305.605
306.021
306.488