/*--------------------------------*- C++ -*----------------------------------*\
| =========                 |                                                 |
| \\      /  F ield         | OpenFOAM: The Open Source CFD Toolbox           |
|  \\    /   O peration     | Version:  v2106                                 |
|   \\  /    A nd           | Website:  www.openfoam.com                      |
|    \\/     M anipulation  |                                                 |
\*---------------------------------------------------------------------------*/
FoamFile
{
    version     2.0;
    format      ascii;
    arch        "LSB;label=32;scalar=64";
    class       volScalarField;
    location    "0.000187";
    object      k;
}
// * * * * * * * * * * * * * * * * * * * * * * * * * * * * * * * * * * * * * //

dimensions      [0 2 -2 0 0 0 0];

internalField   nonuniform List<scalar> 
18109
(
0.0218192
0.0137917
0.0088485
0.00613486
0.00492439
0.00468398
0.00532263
0.00807193
0.00424099
0.00252402
0.00171677
0.00139278
0.00135481
0.00160028
0.00318505
0.00122477
0.000627717
0.000412747
0.000340127
0.000344377
0.00044605
0.00155131
0.000411015
0.000151689
8.80475e-05
7.29424e-05
8.06634e-05
0.000129444
0.00106338
0.000228262
5.29773e-05
1.96237e-05
1.4728e-05
2.0274e-05
4.83264e-05
0.000988482
0.000206378
3.82024e-05
7.55854e-06
3.71739e-06
7.66539e-06
2.73044e-05
0.00113874
0.000235146
4.03562e-05
6.21603e-06
2.22987e-06
5.78164e-06
2.32606e-05
0.00148507
0.000294656
4.84756e-05
8.59498e-06
4.72783e-06
9.30503e-06
2.95689e-05
0.0183748
0.0117313
0.00738793
0.0048186
0.00349434
0.00293463
0.00298433
0.00378464
0.00612593
0.011688
0.0238352
0.048403
0.0948331
0.180561
0.00637176
0.0033941
0.00197561
0.00124509
0.000899034
0.00076669
0.000819431
0.00116102
0.00223693
0.00514639
0.0123406
0.0285872
0.0624035
0.129534
0.00233265
0.000908554
0.000453609
0.000271389
0.000195778
0.000173423
0.000210753
0.000382956
0.000962914
0.00268386
0.0072926
0.0184387
0.043022
0.0938763
0.00109663
0.000289488
0.000101742
5.19296e-05
3.6824e-05
3.63767e-05
6.0032e-05
0.000157862
0.000499822
0.00156566
0.00455949
0.0121689
0.0298273
0.0681405
0.000786142
0.000168572
3.68895e-05
1.11737e-05
6.63737e-06
8.77101e-06
2.37711e-05
8.47553e-05
0.000303539
0.00100721
0.00305194
0.00845971
0.021612
0.0515764
0.000786188
0.000163877
2.95891e-05
5.11477e-06
1.74084e-06
3.51791e-06
1.38956e-05
5.63373e-05
0.000211461
0.000722134
0.00224679
0.00640956
0.0169099
0.0416877
0.000961949
0.000195813
3.29066e-05
4.81642e-06
1.30623e-06
2.83311e-06
1.14909e-05
4.68002e-05
0.00017655
0.000608203
0.00191457
0.00553514
0.0148067
0.0369322
0.00130756
0.000253404
4.05596e-05
6.98578e-06
3.49371e-06
5.56571e-06
1.51915e-05
5.27121e-05
0.000187694
0.000630774
0.001957
0.00559073
0.0147819
0.0363813
0.00185336
0.000348553
6.11153e-05
1.9334e-05
1.69855e-05
2.23774e-05
3.86677e-05
9.31454e-05
0.000275008
0.00084285
0.0024704
0.00674965
0.0171691
0.0407776
0.00274288
0.000560219
0.000141976
7.89492e-05
8.08257e-05
0.000100637
0.000143171
0.00025226
0.000562928
0.00144434
0.00379356
0.00959787
0.0229445
0.0516557
0.00451807
0.00120629
0.000469324
0.000324109
0.000332789
0.00040532
0.000543643
0.00082561
0.00147628
0.00307915
0.00695957
0.0158609
0.0350005
0.0737815
0.00877626
0.00325625
0.00162435
0.00118269
0.00118201
0.00141594
0.0018632
0.00266492
0.0042006
0.00741562
0.0143413
0.0289718
0.0584417
0.114837
0.0188178
0.00891439
0.00503911
0.00374879
0.00366326
0.00432589
0.00564735
0.00788133
0.0116538
0.0184637
0.031347
0.0560364
0.102355
0.185638
0.0407129
0.0223466
0.0135867
0.0103597
0.010028
0.0117009
0.0151631
0.0208592
0.0297279
0.0438674
0.0670838
0.106446
0.174826
0.292609
0.0583086
0.12385
0.250217
0.476981
0.87867
1.65301
0.0513432
0.111361
0.228607
0.440584
0.820078
1.54034
0.0352118
0.0860878
0.192544
0.396256
0.774729
1.5135
0.0233142
0.0632238
0.15381
0.340056
0.705696
1.44772
0.0157131
0.0462315
0.120995
0.286753
0.63382
1.38795
0.0115393
0.0357353
0.0986611
0.247821
0.582154
1.3531
0.00965821
0.0305564
0.087099
0.228325
0.563923
1.37808
0.0096159
0.0302836
0.0869478
0.232113
0.588582
1.47139
0.0116223
0.035569
0.0998183
0.26238
0.66038
1.62825
0.0172518
0.0501137
0.133473
0.334018
0.803093
1.88386
0.0292534
0.0788718
0.194622
0.451395
1.00737
2.19858
0.0524345
0.128825
0.290286
0.616559
1.26576
2.55583
0.0938859
0.20788
0.426296
0.833197
1.5903
2.9907
0.164396
0.326605
0.614179
1.12062
2.01904
3.56892
0.278188
0.498226
0.871249
1.50119
2.55358
4.23517
0.340181
0.581429
0.987515
1.67174
2.79866
4.53561
0.262324
0.476911
0.854651
1.51364
2.64291
4.47152
0.196807
0.386718
0.738423
1.37379
2.492
4.34981
0.148716
0.314422
0.635879
1.23331
2.30782
4.13457
0.117054
0.262095
0.553768
1.10872
2.12734
3.91684
0.0970371
0.225419
0.4904
1.004
1.96746
3.7342
0.086435
0.203435
0.448206
0.930127
1.84872
3.64899
0.0837537
0.194879
0.42705
0.888132
1.79312
3.71808
0.0906872
0.204352
0.438856
0.909858
1.88315
4.0628
0.10974
0.23601
0.490487
1.00499
2.10383
4.58907
0.148012
0.299283
0.593443
1.18129
2.42763
5.17545
0.215781
0.403808
0.751904
1.4272
2.8155
5.72312
0.3229
0.556013
0.965504
1.72588
3.22724
6.19911
0.478108
0.757118
1.22124
2.03906
3.55853
6.37514
0.356062
0.567513
0.984881
1.75425
3.197
5.77134
0.259857
0.456911
0.829092
1.49673
2.73456
5.03779
0.192499
0.367304
0.683756
1.2512
2.31906
4.40044
0.142069
0.285915
0.54623
1.02506
1.95108
3.81511
0.103078
0.215925
0.42703
0.83205
1.63711
3.31591
0.0738362
0.159863
0.328498
0.668031
1.36421
2.85472
0.0529256
0.118091
0.252547
0.535928
1.1342
2.43692
0.03854
0.0883757
0.196719
0.433696
0.94521
2.09217
0.0295083
0.0692711
0.159653
0.363162
0.811823
1.87885
0.025067
0.0597633
0.14073
0.324915
0.736531
1.76453
0.0255775
0.0604786
0.140917
0.321109
0.719371
1.74148
0.0326136
0.0734502
0.162089
0.353201
0.75553
1.8213
0.0508494
0.106613
0.218654
0.444746
0.912308
2.08851
0.0851105
0.165652
0.317213
0.599921
1.13542
2.33062
0.00561179
0.018526
0.0591072
0.177144
0.492984
1.36638
0.00798772
0.0231489
0.0718288
0.209895
0.565103
1.45337
0.0134506
0.0328508
0.0942411
0.262025
0.660263
1.55927
0.026805
0.0576592
0.142756
0.350347
0.783088
1.66767
0.06864
0.140427
0.308558
0.630221
1.19278
2.3484
0.043675
0.113419
0.273857
0.57203
1.10055
2.21648
0.0284394
0.0880629
0.223732
0.476521
0.950098
1.99661
0.0193696
0.0653171
0.171191
0.37657
0.790634
1.7528
0.0134673
0.0464212
0.124667
0.286936
0.64324
1.52055
0.00929964
0.0320573
0.0880583
0.214397
0.517626
1.31023
0.00631566
0.0218661
0.0621716
0.162226
0.422265
1.12966
0.00441783
0.0154463
0.0461876
0.129708
0.357604
0.989235
0.00349985
0.0123484
0.0387392
0.114281
0.321339
0.894956
0.00337824
0.0118394
0.0377967
0.112051
0.311208
0.876164
0.0040242
0.0133547
0.041891
0.123926
0.340875
0.944304
0.00589534
0.0171159
0.0524481
0.152073
0.409507
1.07574
0.0105445
0.0258332
0.0744841
0.208432
0.531245
1.27312
0.0223657
0.0489598
0.124047
0.309017
0.693265
1.47042
2.96403
10.8427
34.2775
30.8513
21.867
3.13556
11.733
32.372
29.661
21.7354
3.35082
12.1373
30.7004
28.9429
22.1789
3.50851
12.1445
29.7839
29.3948
23.213
3.58359
11.9184
29.042
29.8476
23.9502
3.54376
11.3563
27.9605
29.6054
23.9568
3.54546
10.921
27.3946
28.6859
23.7307
3.75758
10.8307
27.0081
27.6522
23.8255
28.7158
4.13925
11.6402
27.1855
26.3304
23.8582
30.4887
4.54695
12.5765
27.0598
24.1426
22.9626
31.4431
4.94698
13.4457
26.287
21.6861
21.0975
30.9279
42.646
5.38788
14.1162
25.7086
20.1083
18.9299
28.3512
48.3397
58.1847
5.97725
14.841
26.2985
20.1204
17.827
23.9108
46.0897
119.585
6.60679
15.5009
27.8377
21.7231
18.6031
21.8239
28.9821
88.1092
7.0109
15.6605
29.187
23.8915
20.1043
22.2933
27.2719
84.254
7.11945
15.5093
29.1331
25.3847
21.2235
23.4514
28.1351
69.9244
7.04768
15.4926
28.9211
26.7501
22.4972
24.9135
28.729
57.8061
6.97126
15.3938
30.0198
28.6639
24.2
26.8319
27.9386
42.2657
6.93869
15.6368
32.4358
30.0901
25.4252
28.6279
28.5626
34.2884
6.83471
16.2359
35.813
30.2531
25.4972
30.1149
29.7654
28.9216
6.89113
17.4583
39.8475
28.9425
25.4045
31.9209
32.529
25.6709
7.46114
19.5987
42.8195
27.5805
25.9378
34.2631
36.9851
24.7779
8.54787
22.9352
42.4372
26.0854
26.2259
35.9777
9.66474
25.8045
38.3587
24.1213
25.3847
36.0783
10.4715
26.6605
34.0692
21.9067
23.1353
35.1918
10.9035
26.571
32.0752
20.9187
20.5811
31.7819
11.0657
26.0459
30.9701
21.3067
19.0478
26.4461
10.7535
25.7834
30.9909
23.8413
19.6168
10.0892
24.73
30.9373
26.9308
21.5359
9.54829
22.0314
29.4591
28.7474
22.8176
9.11136
18.9725
27.9292
30.2912
23.7507
8.37938
16.4511
27.6613
32.8298
25.2039
7.63134
14.7667
29.0312
35.7263
26.1125
6.81634
13.5224
31.9938
37.8936
25.6898
6.07014
12.7282
36.8806
38.4992
24.3764
5.43567
12.4715
44.0604
39.123
23.9274
4.918
12.8317
51.4966
39.1943
23.1947
4.55825
14.0095
54.8365
37.8078
21.8054
4.41088
15.8859
52.3279
35.6914
20.8642
4.55301
18.0375
47.5743
34.5978
21.0432
4.97356
19.663
42.7248
33.9543
22.2706
5.39121
20.5108
40.248
34.4722
23.8118
5.59771
20.1107
37.4457
34.3762
24.5833
5.67401
18.4511
33.0614
32.6394
24.2479
5.53923
16.0956
29.1299
31.5474
24.2247
5.21033
13.8812
26.4296
31.9369
24.9509
4.82176
12.2641
24.8323
33.3008
25.3523
4.36097
10.8531
23.7669
34.4636
24.5927
3.86906
9.62349
23.3748
34.8764
23.0764
3.38912
8.55751
24.3376
35.4709
22.1024
2.96011
7.77621
26.7597
35.5339
21.1213
2.67716
7.57121
29.4669
33.9349
20.0553
2.52962
7.85042
31.5377
31.6337
19.3053
2.54736
8.33998
33.197
30.5165
19.2196
2.7062
8.94352
34.6742
30.202
20.1377
2.88541
9.67593
35.3764
30.7168
21.2689
0.0166763
0.0109003
0.00689032
0.00435697
0.00292703
0.00219076
0.00197636
0.00231252
0.00368148
0.0072779
0.0157276
0.0340364
0.0707788
0.141916
0.00549598
0.00305076
0.00179043
0.00108392
0.000715273
0.000536737
0.000509885
0.000684896
0.001358
0.00333018
0.00850563
0.0208515
0.0478369
0.103265
0.00187489
0.000774602
0.000394724
0.000225424
0.000146722
0.000113025
0.000124815
0.000229422
0.000616639
0.00182477
0.00520045
0.0137223
0.0333018
0.0750895
0.000843933
0.000231984
8.37236e-05
4.07541e-05
2.57287e-05
2.2209e-05
3.58478e-05
0.00010059
0.000336504
0.00109578
0.00330062
0.00911867
0.0231376
0.0544874
0.000623369
0.000134676
2.94257e-05
8.43261e-06
4.34502e-06
5.25477e-06
1.49722e-05
5.62385e-05
0.000208399
0.000712131
0.00222321
0.00636081
0.0167649
0.0411216
0.00065843
0.000136104
2.4219e-05
4.01494e-06
1.14631e-06
2.14835e-06
8.82813e-06
3.69854e-05
0.000143059
0.000503743
0.00161795
0.0047656
0.0129513
0.0327459
0.000842588
0.000168297
2.77055e-05
3.94522e-06
9.42194e-07
1.77056e-06
7.105e-06
2.96181e-05
0.000115391
0.000411354
0.00134039
0.00400413
0.0110259
0.0281805
0.00118483
0.000224092
3.49132e-05
5.83634e-06
2.79936e-06
4.00251e-06
9.74282e-06
3.26843e-05
0.000118364
0.000410812
0.0013208
0.00390369
0.010641
0.0268661
0.00172735
0.000314998
5.29435e-05
1.62375e-05
1.42827e-05
1.82274e-05
2.86743e-05
6.25054e-05
0.000177514
0.000548731
0.00165153
0.00465075
0.0121815
0.0296671
0.00260232
0.000506747
0.000120947
6.63565e-05
6.89376e-05
8.56503e-05
0.000117023
0.000191016
0.000396574
0.000987549
0.00260447
0.00671457
0.0164214
0.0377872
0.00426743
0.00106434
0.000393516
0.000272603
0.000285117
0.000350186
0.000463044
0.000676699
0.00114531
0.00228526
0.00507471
0.0116103
0.025974
0.0556661
0.00809847
0.00281166
0.00135433
0.000994439
0.0010143
0.00123163
0.00161641
0.00227282
0.00347321
0.00591989
0.0111739
0.022435
0.0455686
0.090867
0.0169958
0.00765388
0.0042036
0.00315251
0.0031463
0.00377943
0.00495306
0.00687319
0.0100182
0.0155506
0.0259053
0.0459091
0.0841983
0.155129
0.036648
0.0193165
0.0113899
0.0087257
0.00862838
0.0102702
0.0134311
0.0185025
0.0262605
0.0384118
0.0580925
0.0913481
0.149867
0.253763
0.0110396
0.00772947
0.00514439
0.00332747
0.00220149
0.00152071
0.00117486
0.00109293
0.00142486
0.00269184
0.00632817
0.0154486
0.0362632
0.0808376
0.00312851
0.00195347
0.00123418
0.000763774
0.000492207
0.000334981
0.000265113
0.000273882
0.000465617
0.00119888
0.0035021
0.00983174
0.0254106
0.0604395
0.000867298
0.000421054
0.00024178
0.000143295
9.05482e-05
6.15806e-05
5.33823e-05
7.62341e-05
0.000203583
0.000687176
0.00226436
0.00678754
0.018372
0.0453582
0.000373934
0.000109754
4.37316e-05
2.24675e-05
1.36605e-05
9.80472e-06
1.18248e-05
3.09464e-05
0.000117473
0.000444404
0.00153017
0.0047379
0.0132716
0.0340369
0.000344903
7.24176e-05
1.50787e-05
4.09208e-06
1.8687e-06
1.68389e-06
4.24317e-06
1.80555e-05
7.84204e-05
0.000308656
0.00108771
0.00345033
0.00994953
0.0263989
0.000438899
8.53604e-05
1.40817e-05
2.08236e-06
4.24168e-07
5.5324e-07
2.52889e-06
1.25203e-05
5.62246e-05
0.000225224
0.00080923
0.0026279
0.00777982
0.0211882
0.000625845
0.000115109
1.73214e-05
2.20051e-06
3.88844e-07
4.96182e-07
2.05986e-06
9.87363e-06
4.42522e-05
0.000178889
0.000652342
0.00215536
0.00649224
0.017936
0.000934504
0.000161171
2.2454e-05
3.24033e-06
1.36129e-06
1.6367e-06
3.24496e-06
1.05019e-05
4.17746e-05
0.000163977
0.000594925
0.00196535
0.00592028
0.0163157
0.00140525
0.000230406
3.30398e-05
8.75194e-06
7.6318e-06
9.34321e-06
1.28843e-05
2.34765e-05
6.25773e-05
0.000206004
0.000691816
0.00218286
0.00634951
0.0169842
0.00213851
0.000357358
6.92496e-05
3.61424e-05
3.91941e-05
4.87372e-05
6.34466e-05
9.19085e-05
0.000166179
0.000392468
0.00108158
0.00304568
0.00820386
0.0207378
0.00340106
0.000685129
0.000213674
0.000153085
0.000170859
0.000214129
0.000279494
0.000385318
0.000590028
0.00107263
0.00231888
0.00552068
0.0132587
0.0308452
0.00607623
0.00170825
0.00073991
0.000577939
0.000636729
0.000799479
0.00105199
0.00143813
0.00207231
0.00327614
0.00587318
0.0118085
0.0249881
0.0530458
0.012129
0.00468164
0.00238141
0.00190279
0.00206028
0.00258414
0.00342173
0.00468091
0.00659707
0.00975667
0.0155487
0.027151
0.050798
0.0984341
0.0262618
0.012482
0.00681591
0.00550458
0.0058877
0.00737244
0.00980169
0.0134277
0.018711
0.0265985
0.0389466
0.0598221
0.0979437
0.172164
0.0045631
0.00312638
0.00211764
0.00137981
0.000921725
0.000634233
0.00048895
0.000438536
0.000523836
0.000923845
0.00218544
0.005695
0.0146408
0.0357636
0.00112783
0.000686406
0.00044748
0.000278538
0.000180108
0.00011899
9.06432e-05
8.5905e-05
0.000131502
0.0003393
0.00108117
0.00339772
0.00983526
0.0258513
0.000289684
0.000129291
7.51154e-05
4.44648e-05
2.80027e-05
1.8043e-05
1.4379e-05
1.83731e-05
4.98449e-05
0.000188319
0.00070218
0.00236459
0.00711264
0.0192402
0.000165552
3.97939e-05
1.29137e-05
5.91393e-06
3.42579e-06
2.23005e-06
2.41969e-06
6.61867e-06
2.9103e-05
0.000126557
0.000491665
0.00169126
0.00519964
0.0145146
0.000201612
3.82232e-05
6.57923e-06
1.25582e-06
4.00544e-07
2.88048e-07
7.80163e-07
3.98679e-06
2.02837e-05
9.12813e-05
0.000361114
0.00126778
0.00401162
0.0116595
0.000287139
5.12491e-05
7.68316e-06
9.68466e-07
1.27835e-07
9.25888e-08
4.83373e-07
2.84375e-06
1.48412e-05
6.78001e-05
0.000273507
0.000986621
0.00323355
0.00977928
0.000436232
7.33809e-05
1.0086e-05
1.14237e-06
1.65624e-07
1.32563e-07
4.42293e-07
2.26893e-06
1.16242e-05
5.36761e-05
0.00022152
0.0008239
0.00279593
0.00873722
0.000679061
0.00010696
1.34395e-05
1.67806e-06
6.57773e-07
7.41738e-07
1.11536e-06
2.76346e-06
1.08934e-05
4.78634e-05
0.000199023
0.000756192
0.00262317
0.0083286
0.00105183
0.000156585
1.94588e-05
4.39308e-06
3.96058e-06
4.97952e-06
6.38259e-06
9.3282e-06
1.98108e-05
6.33648e-05
0.000236329
0.000862426
0.0029181
0.0090591
0.00163491
0.000242526
3.83845e-05
1.85435e-05
2.15393e-05
2.79141e-05
3.59501e-05
4.77788e-05
7.29971e-05
0.00015023
0.000415447
0.00129504
0.00397422
0.0114908
0.00260552
0.00045135
0.000115959
8.28564e-05
9.88724e-05
0.000129173
0.00016942
0.000225239
0.000316687
0.000517853
0.00106364
0.00263127
0.00689274
0.0177938
0.00460663
0.0011192
0.000419957
0.000332737
0.000386741
0.000503749
0.000668805
0.000898106
0.00123661
0.00183528
0.00312323
0.00628228
0.0139474
0.0318731
0.00903933
0.00316636
0.00145152
0.00117377
0.00131827
0.00169937
0.00226705
0.00306912
0.00421261
0.00601488
0.00923826
0.0159087
0.0304179
0.0622248
0.0197186
0.00898836
0.00451468
0.00366571
0.00399686
0.00508704
0.00678593
0.00922422
0.012654
0.0177145
0.0255012
0.0385963
0.0627911
0.112859
0.00111603
0.000716044
0.000491082
0.000329513
0.000227603
0.000161734
0.000126064
0.000109311
0.000115883
0.000177685
0.000415971
0.00119627
0.0035337
0.00995391
0.000247439
0.000130766
8.57415e-05
5.5499e-05
3.71541e-05
2.54793e-05
1.92911e-05
1.67753e-05
2.13815e-05
5.25147e-05
0.0001889
0.00069592
0.00234831
0.00709579
8.28334e-05
2.48324e-05
1.19294e-05
7.03777e-06
4.52933e-06
3.03067e-06
2.32356e-06
2.55443e-06
6.62347e-06
2.89647e-05
0.00012823
0.000505466
0.00175118
0.00536863
8.34443e-05
1.57688e-05
2.99436e-06
8.72429e-07
4.224e-07
2.70023e-07
2.68216e-07
7.55447e-07
3.99878e-06
2.09457e-05
9.59034e-05
0.000381418
0.00133132
0.00414178
0.000121103
2.13821e-05
3.06561e-06
4.11989e-07
6.36844e-08
2.5917e-08
7.42357e-08
4.83325e-07
3.01675e-06
1.61837e-05
7.46842e-05
0.000300225
0.00106892
0.00344399
0.000180927
3.03678e-05
4.02205e-06
4.5787e-07
4.6601e-08
1.23921e-08
5.29085e-08
3.7354e-07
2.35026e-06
1.26841e-05
5.92531e-05
0.000243377
0.000896241
0.00302664
0.000280895
4.44454e-05
5.36646e-06
5.52266e-07
7.45001e-08
4.67448e-08
8.51018e-08
3.4555e-07
1.9403e-06
1.04046e-05
4.96286e-05
0.000211247
0.000815557
0.00290374
0.000439378
6.52337e-05
7.17616e-06
8.11404e-07
3.35227e-07
3.89972e-07
4.99825e-07
7.94567e-07
2.25752e-06
9.93498e-06
4.65271e-05
0.0002035
0.000815443
0.00300036
0.000680824
9.56403e-05
1.04158e-05
2.23553e-06
2.16894e-06
2.83828e-06
3.59759e-06
4.61261e-06
7.06683e-06
1.70904e-05
6.20701e-05
0.000252149
0.000984291
0.00355253
0.00107328
0.000149494
2.10063e-05
1.01207e-05
1.2278e-05
1.64149e-05
2.12745e-05
2.7231e-05
3.63519e-05
5.91151e-05
0.000137889
0.000432932
0.00147217
0.0048624
0.00176756
0.000281477
6.64406e-05
4.81012e-05
5.85034e-05
7.79227e-05
0.000102678
0.00013394
0.000176504
0.000253922
0.000445683
0.00103255
0.00281473
0.00800016
0.00316889
0.000704848
0.000253119
0.000204922
0.000238613
0.000312528
0.000414512
0.000547853
0.00072492
0.00100232
0.00153231
0.00283224
0.00620101
0.0149391
0.00594091
0.00202851
0.00092657
0.000773429
0.000858197
0.00109461
0.00144371
0.00191351
0.00254067
0.00347022
0.00497862
0.0079794
0.0146049
0.0303771
0.0124562
0.00603098
0.00308942
0.0026041
0.0027776
0.00344525
0.00449105
0.00593552
0.00788231
0.0106965
0.014817
0.0215148
0.0333003
0.0582125
0.000139179
7.82374e-05
5.26672e-05
3.59856e-05
2.52374e-05
1.83453e-05
1.46288e-05
1.25244e-05
1.21466e-05
1.62577e-05
3.78268e-05
0.000123996
0.00043305
0.00144368
3.54677e-05
1.23089e-05
6.95971e-06
4.53685e-06
3.11075e-06
2.22953e-06
1.76796e-06
1.52118e-06
1.72591e-06
4.07911e-06
1.69573e-05
7.45023e-05
0.00029654
0.00104539
2.5288e-05
4.87849e-06
1.12463e-06
4.48233e-07
2.6785e-07
1.8642e-07
1.51149e-07
1.64867e-07
4.52588e-07
2.37123e-06
1.25881e-05
5.85529e-05
0.000236256
0.000833677
3.6607e-05
6.62101e-06
9.90417e-07
1.39277e-07
2.75759e-08
1.15466e-08
1.18767e-08
4.33033e-08
2.92462e-07
1.86307e-06
1.01475e-05
4.72909e-05
0.000190543
0.000672225
5.65563e-05
9.82842e-06
1.40659e-06
1.67556e-07
1.85593e-08
2.22594e-09
3.67065e-09
3.10769e-08
2.40324e-07
1.55497e-06
8.49306e-06
3.96907e-05
0.000160974
0.000576048
8.8765e-05
1.42272e-05
1.89893e-06
2.04405e-07
2.08299e-08
3.06079e-09
4.21024e-09
2.6844e-08
1.99575e-07
1.28973e-06
7.08709e-06
3.34955e-05
0.000138471
0.000511064
0.000143146
2.09139e-05
2.55019e-06
2.49567e-07
3.37189e-08
1.86754e-08
2.22082e-08
4.27797e-08
1.88072e-07
1.10953e-06
6.10011e-06
2.95174e-05
0.000126813
0.000493885
0.000226105
3.05604e-05
3.39901e-06
3.64765e-07
1.45596e-07
1.66029e-07
2.00164e-07
2.44862e-07
3.96902e-07
1.2546e-06
5.93278e-06
2.87505e-05
0.000128694
0.000528922
0.000345298
4.59876e-05
4.88933e-06
9.598e-07
9.02393e-07
1.17892e-06
1.46284e-06
1.75588e-06
2.17483e-06
3.46958e-06
9.4663e-06
3.8142e-05
0.000164611
0.000676102
0.000521649
7.47146e-05
9.66894e-06
4.19168e-06
5.00136e-06
6.65989e-06
8.44021e-06
1.03558e-05
1.25966e-05
1.65772e-05
2.86722e-05
7.76562e-05
0.000275396
0.00102491
0.000798005
0.000139567
2.98414e-05
1.98364e-05
2.37918e-05
3.13659e-05
4.02091e-05
5.02858e-05
6.19548e-05
7.87731e-05
0.000113769
0.000222207
0.000593725
0.00184765
0.00132217
0.000336445
0.000114232
8.72501e-05
9.95524e-05
0.000127734
0.000163732
0.000206899
0.000258127
0.000327502
0.000442375
0.000713206
0.00147597
0.00374642
0.00243465
0.000943647
0.000434838
0.000349429
0.000377585
0.000465588
0.000588421
0.000742203
0.000931044
0.00118638
0.00156457
0.00227617
0.00389616
0.00821711
0.00532663
0.00279549
0.00154715
0.0012773
0.00132477
0.00156632
0.00193175
0.0024023
0.00299788
0.0038187
0.00498316
0.00685101
0.0101478
0.0176647
1.30846e-05
4.94098e-06
2.96202e-06
2.01131e-06
1.46042e-06
1.13231e-06
9.82391e-07
8.77123e-07
8.03566e-07
9.19163e-07
2.1359e-06
8.4763e-06
3.59433e-05
0.00014113
6.42331e-06
1.16466e-06
3.3076e-07
1.65426e-07
1.12771e-07
8.76715e-08
7.79871e-08
7.22078e-08
8.29529e-08
2.19794e-07
1.12275e-06
5.87332e-06
2.71027e-05
0.000109148
7.96017e-06
1.33624e-06
2.10622e-07
3.26939e-08
8.06195e-09
4.36687e-09
3.93298e-09
5.47886e-09
2.20319e-08
1.47972e-07
9.30912e-07
5.01587e-06
2.31741e-05
9.26609e-05
1.24238e-05
2.11602e-06
3.32789e-07
4.40279e-08
5.22839e-09
6.16698e-10
2.93892e-10
1.82797e-09
1.61774e-08
1.23211e-07
7.86174e-07
4.24426e-06
1.9612e-05
7.83368e-05
1.8786e-05
3.15375e-06
4.72709e-07
5.97864e-08
6.57758e-09
6.39174e-10
2.03569e-10
1.49443e-09
1.37689e-08
1.05997e-07
6.80705e-07
3.69304e-06
1.71471e-05
6.89313e-05
2.80181e-05
4.59406e-06
6.2285e-07
7.19599e-08
7.44546e-09
1.04556e-09
6.64335e-10
1.76603e-09
1.20962e-08
9.0426e-08
5.83295e-07
3.19358e-06
1.5004e-05
6.13344e-05
4.18947e-05
6.70872e-06
8.09266e-07
8.58469e-08
1.1186e-08
5.69642e-09
6.25422e-09
7.76527e-09
1.69149e-08
8.47135e-08
5.15596e-07
2.83824e-06
1.36201e-05
5.75546e-05
6.14464e-05
9.59977e-06
1.03975e-06
1.16338e-07
3.96626e-08
4.41937e-08
5.33153e-08
6.1227e-08
7.43595e-08
1.40533e-07
5.441e-07
2.76024e-06
1.3433e-05
5.9306e-05
8.73882e-05
1.34022e-05
1.40557e-06
2.57387e-07
2.23382e-07
2.94829e-07
3.64957e-07
4.25733e-07
4.85341e-07
6.0714e-07
1.13252e-06
3.86594e-06
1.70772e-05
7.53806e-05
0.000122662
1.93497e-05
2.49396e-06
1.00876e-06
1.21452e-06
1.63965e-06
2.0579e-06
2.44964e-06
2.82473e-06
3.32367e-06
4.53765e-06
9.52235e-06
3.13524e-05
0.000122876
0.000176591
3.29611e-05
7.10401e-06
4.68243e-06
5.82275e-06
7.77494e-06
9.82171e-06
1.18809e-05
1.39437e-05
1.64402e-05
2.06736e-05
3.31486e-05
7.84695e-05
0.000248224
0.00028533
7.66925e-05
2.70552e-05
2.09279e-05
2.48391e-05
3.22187e-05
4.05881e-05
4.95692e-05
5.90568e-05
7.05083e-05
8.69099e-05
0.00012261
0.000225668
0.000565329
0.000551554
0.000222132
0.000106625
8.66058e-05
9.6512e-05
0.000119759
0.00014856
0.000181483
0.000218295
0.000264094
0.000325732
0.000433056
0.00067244
0.00136542
0.00130984
0.000688837
0.000399042
0.000331823
0.000349353
0.000410868
0.000494688
0.000596821
0.000718115
0.000876201
0.00108822
0.00141431
0.0019701
0.00331396
2.00215e-06
4.39032e-07
1.72494e-07
1.04238e-07
7.57321e-08
6.25913e-08
5.94653e-08
5.69654e-08
5.36489e-08
6.05808e-08
1.56587e-07
7.57218e-07
3.73701e-06
1.64319e-05
1.43974e-06
2.42842e-07
4.01043e-08
8.23343e-09
3.48718e-09
2.73595e-09
2.83715e-09
3.07459e-09
4.29772e-09
1.52871e-08
9.50421e-08
5.68201e-07
2.93303e-06
1.30593e-05
2.0452e-06
3.74676e-07
6.23999e-08
8.88305e-09
1.17355e-09
1.85086e-10
1.02412e-10
2.23931e-10
1.39334e-09
1.12373e-08
8.04952e-08
4.88969e-07
2.53042e-06
1.12518e-05
3.12375e-06
5.78207e-07
9.84354e-08
1.41204e-08
1.77164e-09
1.89498e-10
2.84299e-11
1.08013e-10
1.07865e-09
9.34214e-09
6.7612e-08
4.12609e-07
2.14684e-06
9.61112e-06
4.51427e-06
8.13934e-07
1.33733e-07
1.83998e-08
2.19497e-09
2.29572e-10
4.01062e-11
1.02297e-10
9.22101e-10
8.00018e-09
5.84977e-08
3.60416e-07
1.89167e-06
8.54183e-06
6.38308e-06
1.10399e-06
1.68096e-07
2.13561e-08
2.4297e-09
3.60096e-10
2.00635e-10
2.63803e-10
9.55989e-10
6.96526e-09
5.03962e-08
3.1343e-07
1.6653e-06
7.62513e-06
9.01676e-06
1.49895e-06
2.07916e-07
2.45622e-08
3.39171e-09
1.60085e-09
1.72223e-09
1.94131e-09
2.62944e-09
7.85929e-09
4.57457e-08
2.78413e-07
1.49662e-06
7.00239e-06
1.25019e-05
1.99706e-06
2.54961e-07
3.15907e-08
1.0171e-08
1.08839e-08
1.31459e-08
1.4895e-08
1.66367e-08
2.22767e-08
5.78477e-08
2.75617e-07
1.43794e-06
6.87497e-06
1.68933e-05
2.61807e-06
3.28208e-07
6.29197e-08
5.16559e-08
6.79341e-08
8.40497e-08
9.70568e-08
1.08015e-07
1.2262e-07
1.71694e-07
4.35354e-07
1.80944e-06
8.32877e-06
2.26548e-05
3.5891e-06
5.44161e-07
2.23467e-07
2.68995e-07
3.65167e-07
4.56486e-07
5.36496e-07
6.06779e-07
6.82395e-07
8.17231e-07
1.32308e-06
3.61171e-06
1.38576e-05
3.15619e-05
5.95564e-06
1.45055e-06
9.8692e-07
1.26293e-06
1.70421e-06
2.14125e-06
2.55298e-06
2.93553e-06
3.34237e-06
3.89563e-06
5.30972e-06
1.03857e-05
3.06377e-05
5.13239e-05
1.4047e-05
5.35933e-06
4.29541e-06
5.3136e-06
7.01144e-06
8.80075e-06
1.05967e-05
1.2358e-05
1.42844e-05
1.66661e-05
2.12154e-05
3.37261e-05
7.77159e-05
0.00010606
4.22901e-05
2.10154e-05
1.74763e-05
2.03488e-05
2.58796e-05
3.21703e-05
3.88843e-05
4.58415e-05
5.37766e-05
6.33829e-05
7.85385e-05
0.00010978
0.000205002
0.000268772
0.000135427
7.89297e-05
6.63155e-05
7.23782e-05
8.75219e-05
0.000106403
0.000127915
0.000151612
0.0001801
0.000215218
0.000265877
0.000345592
0.000545129
4.45644e-07
8.40247e-08
2.07046e-08
9.25156e-09
6.41715e-09
5.78179e-09
6.12729e-09
6.38707e-09
6.23802e-09
6.67951e-09
1.63629e-08
8.52537e-08
4.54521e-07
2.11625e-06
3.68122e-07
6.93568e-08
1.12983e-08
1.72105e-09
3.67862e-10
2.27919e-10
2.80988e-10
3.63611e-10
5.30176e-10
1.70038e-09
1.06664e-08
6.75798e-08
3.70064e-07
1.73576e-06
5.48788e-07
1.11852e-07
1.97381e-08
2.97764e-09
4.03327e-10
5.33094e-11
1.80273e-11
3.06363e-11
1.51076e-10
1.20344e-09
9.11085e-09
5.90043e-08
3.25099e-07
1.53026e-06
8.26397e-07
1.69512e-07
3.04613e-08
4.62314e-09
6.13842e-10
6.99547e-11
9.81684e-12
1.34333e-11
1.10534e-10
9.97947e-10
7.71955e-09
5.04751e-08
2.8087e-07
1.33881e-06
1.16725e-06
2.32666e-07
4.06417e-08
5.92533e-09
7.50825e-10
8.32443e-11
1.36809e-11
1.51045e-11
9.63054e-11
8.54196e-10
6.69159e-09
4.43738e-08
2.50227e-07
1.20893e-06
1.60229e-06
3.04463e-07
5.00608e-08
6.7849e-09
8.17675e-10
1.15315e-10
5.41405e-11
5.79447e-11
1.26612e-10
7.6711e-10
5.78782e-09
3.87492e-08
2.21854e-07
1.09025e-06
2.18891e-06
3.94674e-07
6.05038e-08
7.64942e-09
1.03747e-09
3.98662e-10
4.05756e-10
4.44933e-10
5.22079e-10
1.07563e-09
5.43522e-09
3.44827e-08
1.98835e-07
9.95938e-07
2.93616e-06
5.02316e-07
7.24943e-08
9.33847e-09
2.51884e-09
2.43704e-09
2.91883e-09
3.26832e-09
3.54263e-09
4.16833e-09
8.23635e-09
3.50317e-08
1.88502e-07
9.51468e-07
3.84131e-06
6.29435e-07
8.97924e-08
1.61573e-08
1.14054e-08
1.47032e-08
1.81268e-08
2.06727e-08
2.2588e-08
2.45791e-08
3.03816e-08
6.22924e-08
2.37337e-07
1.1096e-06
4.98584e-06
8.19235e-07
1.35834e-07
4.9941e-08
5.76702e-08
7.82385e-08
9.73368e-08
1.12791e-07
1.25255e-07
1.37069e-07
1.54994e-07
2.18313e-07
5.07598e-07
1.85469e-06
6.7167e-06
1.27853e-06
3.20116e-07
2.08491e-07
2.69333e-07
3.65537e-07
4.56756e-07
5.3662e-07
6.0551e-07
6.73302e-07
7.55354e-07
9.48158e-07
1.61542e-06
4.3749e-06
1.07704e-05
2.88522e-06
1.10773e-06
8.90074e-07
1.13342e-06
1.51341e-06
1.89153e-06
2.24544e-06
2.56917e-06
2.90321e-06
3.28326e-06
3.96252e-06
5.70502e-06
1.20579e-05
2.27645e-05
8.6251e-06
4.25516e-06
3.57795e-06
4.32726e-06
5.6165e-06
6.98504e-06
8.35067e-06
9.67008e-06
1.10984e-05
1.27147e-05
1.51561e-05
1.97569e-05
3.42073e-05
5.93763e-05
2.78568e-05
1.59194e-05
1.34461e-05
1.52516e-05
1.89822e-05
2.32647e-05
2.78119e-05
3.24762e-05
3.78086e-05
4.39904e-05
5.26388e-05
6.5094e-05
9.6848e-05
9.99745e-08
1.87501e-08
3.89273e-09
1.37112e-09
9.13761e-10
9.08627e-10
1.06552e-09
1.19854e-09
1.22114e-09
1.1719e-09
1.92452e-09
8.89545e-09
4.95871e-08
2.4254e-07
9.09469e-08
1.81315e-08
3.11633e-09
4.85146e-10
9.1675e-11
4.93874e-11
6.38296e-11
8.67e-11
1.12804e-10
2.21424e-10
1.10465e-09
7.16437e-09
4.14814e-08
2.04872e-07
1.38073e-07
2.97232e-08
5.49594e-09
8.73005e-10
1.24952e-10
1.83316e-11
6.87338e-12
8.38715e-12
2.03691e-11
1.21051e-10
9.23348e-10
6.32414e-09
3.69763e-08
1.8405e-07
2.06577e-07
4.4993e-08
8.44368e-09
1.34457e-09
1.88171e-10
2.37696e-11
4.63021e-12
3.69142e-12
1.24084e-11
9.74502e-11
7.85452e-10
5.46521e-09
3.23874e-08
1.64013e-07
2.87459e-07
6.12843e-08
1.11866e-08
1.71519e-09
2.29437e-10
2.77305e-11
5.49915e-12
4.1663e-12
1.13179e-11
8.35993e-11
6.80085e-10
4.81195e-09
2.9016e-08
1.49686e-07
3.85289e-07
7.88575e-08
1.35897e-08
1.94876e-09
2.46798e-10
3.39098e-11
1.34103e-11
1.26615e-11
1.86908e-11
7.92121e-11
5.90125e-10
4.20086e-09
2.57968e-08
1.35906e-07
5.116e-07
9.99985e-08
1.61298e-08
2.16286e-09
2.88415e-10
8.67637e-11
7.97055e-11
8.50046e-11
9.26996e-11
1.4373e-10
5.83899e-10
3.74821e-09
2.30577e-08
1.23779e-07
6.6704e-07
1.24632e-07
1.89675e-08
2.52677e-09
5.62816e-10
4.64407e-10
5.44403e-10
6.00298e-10
6.36519e-10
6.93255e-10
1.09779e-09
3.97668e-09
2.17169e-08
1.1596e-07
8.47989e-07
1.52638e-07
2.2739e-08
3.83029e-09
2.20458e-09
2.73046e-09
3.33965e-09
3.75293e-09
4.02949e-09
4.24521e-09
4.82353e-09
8.17204e-09
2.77479e-08
1.30831e-07
1.06754e-06
1.91403e-07
3.16131e-08
1.00781e-08
1.07929e-08
1.45388e-08
1.79665e-08
2.05018e-08
2.23593e-08
2.38463e-08
2.57987e-08
3.25258e-08
6.43133e-08
2.19071e-07
1.3857e-06
2.76582e-07
6.48805e-08
3.9166e-08
5.04213e-08
6.85974e-08
8.51672e-08
9.85349e-08
1.09102e-07
1.18352e-07
1.28249e-07
1.50173e-07
2.25379e-07
5.49709e-07
2.14022e-06
5.6798e-07
2.0534e-07
1.6393e-07
2.13789e-07
2.88106e-07
3.58241e-07
4.18979e-07
4.70052e-07
5.18028e-07
5.67479e-07
6.51287e-07
8.57046e-07
1.64026e-06
4.46739e-06
1.61576e-06
7.64619e-07
6.53244e-07
8.20617e-07
1.08426e-06
1.34652e-06
1.58947e-06
1.80507e-06
2.01953e-06
2.24258e-06
2.56678e-06
3.13778e-06
4.99575e-06
1.17101e-05
5.15816e-06
2.83668e-06
2.43567e-06
2.89068e-06
3.70085e-06
4.55871e-06
5.40062e-06
6.19263e-06
7.02917e-06
7.92766e-06
9.14703e-06
1.07763e-05
1.5021e-05
2.0313e-08
3.92587e-09