/*--------------------------------*- C++ -*----------------------------------*\
| =========                 |                                                 |
| \\      /  F ield         | OpenFOAM: The Open Source CFD Toolbox           |
|  \\    /   O peration     | Version:  v2106                                 |
|   \\  /    A nd           | Website:  www.openfoam.com                      |
|    \\/     M anipulation  |                                                 |
\*---------------------------------------------------------------------------*/
FoamFile
{
    version     2.0;
    format      ascii;
    arch        "LSB;label=32;scalar=64";
    class       volScalarField;
    location    "0.000187";
    object      nut;
}
// * * * * * * * * * * * * * * * * * * * * * * * * * * * * * * * * * * * * * //

dimensions      [0 2 -1 0 0 0 0];

internalField   nonuniform List<scalar> 
18109
(
1.64225e-07
1.05993e-07
6.9002e-08
4.79464e-08
3.78379e-08
3.47499e-08
3.794e-08
6.18582e-08
3.33569e-08
2.02666e-08
1.39002e-08
1.11314e-08
1.04695e-08
1.18955e-08
2.49536e-08
9.8701e-09
5.16517e-09
3.43255e-09
2.79927e-09
2.74683e-09
3.44394e-09
1.28814e-08
3.53916e-09
1.30667e-09
7.52455e-10
6.14337e-10
6.61237e-10
1.04206e-09
9.72776e-09
2.22492e-09
5.15937e-10
1.78692e-10
1.27383e-10
1.71424e-10
4.06568e-10
9.7015e-09
2.15144e-09
4.09767e-10
7.79225e-11
3.38011e-11
6.65698e-11
2.33116e-10
1.13106e-08
2.43584e-09
4.30734e-10
6.69728e-11
2.12451e-11
4.9605e-11
1.91869e-10
1.43788e-08
2.94721e-09
4.98158e-10
9.03308e-11
4.66921e-11
8.05927e-11
2.3487e-10
1.37903e-07
8.98387e-08
5.75149e-08
3.78658e-08
2.73762e-08
2.25187e-08
2.20787e-08
2.7086e-08
4.3377e-08
8.33985e-08
1.71425e-07
3.46704e-07
6.63553e-07
1.20121e-06
4.88206e-08
2.66568e-08
1.58736e-08
1.01748e-08
7.37075e-09
6.1732e-09
6.35784e-09
8.73189e-09
1.67415e-08
3.88191e-08
9.32097e-08
2.13171e-07
4.50709e-07
8.81628e-07
1.83652e-08
7.33574e-09
3.74347e-09
2.2857e-09
1.66192e-09
1.44956e-09
1.7035e-09
3.0332e-09
7.62509e-09
2.12369e-08
5.70439e-08
1.40617e-07
3.14073e-07
6.39374e-07
9.29289e-09
2.53298e-09
8.86559e-10
4.51978e-10
3.21526e-10
3.13296e-10
5.0522e-10
1.31597e-09
4.14004e-09
1.27876e-08
3.63289e-08
9.33381e-08
2.16473e-07
4.57874e-07
7.43563e-09
1.69099e-09
3.70027e-10
1.05762e-10
6.00128e-11
7.77599e-11
2.07847e-10
7.31584e-10
2.57135e-09
8.30296e-09
2.4234e-08
6.39192e-08
1.53203e-07
3.38027e-07
7.89131e-09
1.73177e-09
3.21334e-10
5.48208e-11
1.68246e-11
3.19166e-11
1.23306e-10
4.8797e-10
1.77651e-09
5.83887e-09
1.73339e-08
4.67553e-08
1.15621e-07
2.65342e-07
9.61691e-09
2.03104e-09
3.50942e-10
5.23281e-11
1.32405e-11
2.56391e-11
9.93933e-11
3.90752e-10
1.41927e-09
4.68301e-09
1.40435e-08
3.84917e-08
9.72748e-08
2.28846e-07
1.26377e-08
2.52628e-09
4.15154e-10
7.35852e-11
3.60756e-11
5.16784e-11
1.27588e-10
4.16386e-10
1.41893e-09
4.57665e-09
1.36126e-08
3.72239e-08
9.41312e-08
2.21659e-07
1.71332e-08
3.30055e-09
5.91076e-10
1.96704e-10
1.75687e-10
2.17479e-10
3.36053e-10
7.28519e-10
2.0105e-09
5.8924e-09
1.6645e-08
4.39216e-08
1.07972e-07
2.48002e-07
2.40597e-08
4.94223e-09
1.27486e-09
7.68688e-10
8.20367e-10
9.91515e-10
1.3063e-09
2.07668e-09
4.23057e-09
1.02085e-08
2.57218e-08
6.29613e-08
1.46065e-07
3.19493e-07
3.74075e-08
9.87006e-09
3.9512e-09
2.99321e-09
3.26468e-09
3.95043e-09
5.04951e-09
7.12159e-09
1.17215e-08
2.27891e-08
4.89654e-08
1.07484e-07
2.29777e-07
4.70047e-07
6.90928e-08
2.52976e-08
1.30109e-08
1.03028e-08
1.10539e-08
1.34218e-08
1.71881e-08
2.33932e-08
3.46789e-08
5.75506e-08
1.05593e-07
2.04482e-07
3.97634e-07
7.53843e-07
1.42996e-07
6.69298e-08
3.86463e-08
3.07172e-08
3.2218e-08
3.91767e-08
5.06816e-08
6.85631e-08
9.71803e-08
1.46889e-07
2.38065e-07
4.0747e-07
7.13473e-07
1.23689e-06
3.00486e-07
1.62886e-07
9.9997e-08
7.98097e-08
8.20333e-08
9.93053e-08
1.29474e-07
1.75481e-07
2.43658e-07
3.4807e-07
5.13098e-07
7.811e-07
1.22177e-06
1.92851e-06
4.26761e-07
8.73105e-07
1.66755e-06
2.92294e-06
4.79464e-06
7.79851e-06
3.73603e-07
7.7824e-07
1.50557e-06
2.66154e-06
4.41089e-06
7.22e-06
2.59861e-07
6.04763e-07
1.26051e-06
2.35502e-06
4.09162e-06
7.03383e-06
1.73623e-07
4.43986e-07
9.96858e-07
1.99054e-06
3.68893e-06
6.74627e-06
1.17187e-07
3.22372e-07
7.73958e-07
1.65783e-06
3.30162e-06
6.50216e-06
8.52827e-08
2.4554e-07
6.2087e-07
1.41692e-06
3.02908e-06
6.37953e-06
6.97875e-08
2.05108e-07
5.37513e-07
1.29196e-06
2.93136e-06
6.50333e-06
6.72052e-08
1.97632e-07
5.26661e-07
1.30382e-06
3.05588e-06
6.91195e-06
7.89122e-08
2.27539e-07
5.99282e-07
1.47329e-06
3.42604e-06
7.57495e-06
1.15857e-07
3.19372e-07
8.03173e-07
1.87974e-06
4.13571e-06
8.56951e-06
1.97506e-07
5.06809e-07
1.17994e-06
2.53855e-06
5.10662e-06
9.71282e-06
3.56592e-07
8.32314e-07
1.75719e-06
3.41622e-06
6.23121e-06
1.09179e-05
6.36149e-07
1.32835e-06
2.51991e-06
4.44104e-06
7.47459e-06
1.23105e-05
1.08621e-06
2.00763e-06
3.4395e-06
5.6095e-06
8.95961e-06
1.41431e-05
1.73722e-06
2.85593e-06
4.51975e-06
7.00624e-06
1.07651e-05
1.63242e-05
2.0874e-06
3.24292e-06
4.9705e-06
7.61315e-06
1.16421e-05
1.74593e-05
1.6217e-06
2.67137e-06
4.32492e-06
6.96157e-06
1.11517e-05
1.74802e-05
1.21138e-06
2.15753e-06
3.7426e-06
6.37942e-06
1.06874e-05
1.73234e-05
9.05022e-07
1.74524e-06
3.23907e-06
5.8161e-06
1.012e-05
1.68416e-05
7.01583e-07
1.44867e-06
2.84331e-06
5.32366e-06
9.5488e-06
1.62659e-05
5.73495e-07
1.24517e-06
2.54736e-06
4.92082e-06
9.03629e-06
1.57368e-05
5.05794e-07
1.12794e-06
2.36258e-06
4.65343e-06
8.6626e-06
1.54552e-05
4.89057e-07
1.09072e-06
2.29047e-06
4.53043e-06
8.49483e-06
1.55518e-05
5.33858e-07
1.16214e-06
2.39907e-06
4.70325e-06
8.85082e-06
1.63886e-05
6.59414e-07
1.37384e-06
2.73448e-06
5.21596e-06
9.66211e-06
1.77811e-05
9.13858e-07
1.78418e-06
3.34897e-06
6.0764e-06
1.08408e-05
1.95228e-05
1.36133e-06
2.43732e-06
4.22784e-06
7.18645e-06
1.22417e-05
2.13274e-05
2.04046e-06
3.32103e-06
5.30176e-06
8.43627e-06
1.37286e-05
2.30197e-05
2.94013e-06
4.36643e-06
6.45807e-06
9.6774e-06
1.49798e-05
2.39163e-05
2.32878e-06
3.51132e-06
5.53367e-06
8.69456e-06
1.39238e-05
2.24241e-05
1.79525e-06
2.96524e-06
4.82817e-06
7.65774e-06
1.23491e-05
2.03174e-05
1.38489e-06
2.4557e-06
4.0757e-06
6.56279e-06
1.08101e-05
1.83899e-05
1.05293e-06
1.95237e-06
3.31349e-06
5.49113e-06
9.36154e-06
1.65061e-05
7.82548e-07
1.49832e-06
2.62476e-06
4.5353e-06
8.06007e-06
1.47556e-05
5.71716e-07
1.12252e-06
2.04128e-06
3.70325e-06
6.88889e-06
1.30561e-05
4.15386e-07
8.34479e-07
1.58262e-06
3.02124e-06
5.87697e-06
1.14628e-05
3.03557e-07
6.24389e-07
1.24064e-06
2.48846e-06
5.03221e-06
1.01127e-05
2.29366e-07
4.8496e-07
1.01104e-06
2.12274e-06
4.43882e-06
9.26415e-06
1.8864e-07
4.11786e-07
8.9561e-07
1.94143e-06
4.14553e-06
8.87834e-06
1.8484e-07
4.10886e-07
9.06254e-07
1.96948e-06
4.17911e-06
8.94083e-06
2.30466e-07
4.99754e-07
1.06406e-06
2.23547e-06
4.53611e-06
9.41887e-06
3.60575e-07
7.36341e-07
1.46867e-06
2.87364e-06
5.45818e-06
1.03684e-05
6.1373e-07
1.16412e-06
2.15114e-06
3.82672e-06
6.48157e-06
1.09988e-05
4.41364e-08
1.37912e-07
4.13822e-07
1.16344e-06
2.9689e-06
7.0596e-06
6.1256e-08
1.71505e-07
5.08229e-07
1.39675e-06
3.39107e-06
7.38877e-06
1.02255e-07
2.43777e-07
6.71822e-07
1.74323e-06
3.88921e-06
7.71331e-06
2.01173e-07
4.21921e-07
1.00023e-06
2.26968e-06
4.45285e-06
7.98557e-06
5.03933e-07
1.00394e-06
2.09892e-06
3.93996e-06
6.56255e-06
1.08408e-05
3.30849e-07
8.34087e-07
1.89954e-06
3.59289e-06
6.00675e-06
1.02329e-05
2.2328e-07
6.67905e-07
1.58649e-06
3.01978e-06
5.18705e-06
9.31637e-06
1.58488e-07
5.12142e-07
1.24202e-06
2.40726e-06
4.33501e-06
8.30741e-06
1.14989e-07
3.77106e-07
9.25976e-07
1.85052e-06
3.55189e-06
7.32308e-06
8.27651e-08
2.6947e-07
6.67323e-07
1.39168e-06
2.88714e-06
6.42361e-06
5.83303e-08
1.88368e-07
4.74611e-07
1.05405e-06
2.38611e-06
5.66715e-06
4.15987e-08
1.33035e-07
3.47691e-07
8.39556e-07
2.0566e-06
5.10084e-06
3.21679e-08
1.02464e-07
2.8304e-07
7.39294e-07
1.8944e-06
4.76321e-06
2.89718e-08
9.29083e-08
2.69387e-07
7.32673e-07
1.89163e-06
4.7782e-06
3.21614e-08
1.00711e-07
2.96623e-07
8.24798e-07
2.11216e-06
5.15184e-06
4.5465e-08
1.27551e-07
3.74053e-07
1.02672e-06
2.53019e-06
5.71939e-06
8.02399e-08
1.91914e-07
5.32158e-07
1.39524e-06
3.17427e-06
6.44475e-06
1.67451e-07
3.56758e-07
8.63217e-07
1.98667e-06
3.92743e-06
7.07676e-06
1.21446e-05
3.64632e-05
9.27718e-05
8.67389e-05
6.97958e-05
1.28147e-05
3.93096e-05
8.77263e-05
8.44715e-05
6.97194e-05
1.36669e-05
4.06502e-05
8.32877e-05
8.3151e-05
7.06981e-05
1.43388e-05
4.07036e-05
8.03705e-05
8.39132e-05
7.26961e-05
1.47066e-05
4.00017e-05
7.827e-05
8.4959e-05
7.40393e-05
1.46618e-05
3.84628e-05
7.62001e-05
8.51026e-05
7.39562e-05
1.4652e-05
3.70454e-05
7.55265e-05
8.41864e-05
7.3377e-05
1.52104e-05
3.62414e-05
7.54694e-05
8.28784e-05
7.3391e-05
7.65917e-05
1.61949e-05
3.7728e-05
7.6796e-05
8.07588e-05
7.32986e-05
7.94292e-05
1.72722e-05
4.01042e-05
7.80218e-05
7.71836e-05
7.20929e-05
8.15752e-05
1.84037e-05
4.27804e-05
7.81647e-05
7.3396e-05
7.01391e-05
8.23094e-05
9.39386e-05
1.9766e-05
4.5236e-05
7.86017e-05
7.10827e-05
6.86598e-05
8.07236e-05
0.000106641
0.000109008
2.1633e-05
4.78174e-05
8.1093e-05
7.13035e-05
6.87236e-05
7.73284e-05
0.000106622
0.000213798
2.37339e-05
5.02385e-05
8.50403e-05
7.46601e-05
7.04513e-05
7.5066e-05
8.19087e-05
0.000203282
2.52925e-05
5.14823e-05
8.77655e-05
7.92953e-05
7.32541e-05
7.50842e-05
7.71509e-05
0.000177668
2.6057e-05
5.20239e-05
8.69093e-05
8.25092e-05
7.52469e-05
7.64186e-05
7.67622e-05
0.000161938
2.62256e-05
5.23647e-05
8.53719e-05
8.53062e-05
7.74103e-05
7.8234e-05
7.69749e-05
9.1649e-05
2.62699e-05
5.16513e-05
8.6428e-05
8.89367e-05
8.02381e-05
8.07172e-05
7.57923e-05
0.000125833
2.62402e-05
5.11841e-05
9.05115e-05
9.15248e-05
8.1825e-05
8.24529e-05
7.35391e-05
0.000130968
2.58437e-05
5.14513e-05
9.71488e-05
9.17645e-05
8.09745e-05
8.34957e-05
7.22592e-05
0.000105659
2.56524e-05
5.33105e-05
0.000105619
8.92659e-05
7.97207e-05
8.52086e-05
7.52952e-05
4.77209e-05
2.66214e-05
5.7558e-05
0.000112219
8.65421e-05
7.96466e-05
8.82739e-05
8.18457e-05
5.63348e-05
2.89869e-05
6.51283e-05
0.000112153
8.36268e-05
7.91462e-05
8.95709e-05
3.1837e-05
7.27022e-05
0.000105655
7.99504e-05
7.70718e-05
8.91957e-05
3.43995e-05
7.66667e-05
9.9343e-05
7.64342e-05
7.41198e-05
8.89141e-05
3.62318e-05
7.8484e-05
9.67949e-05
7.52747e-05
7.21699e-05
8.60304e-05
3.7326e-05
7.91646e-05
9.55475e-05
7.60291e-05
7.20648e-05
8.1422e-05
3.69804e-05
7.98731e-05
9.53885e-05
8.08256e-05
7.35855e-05
3.56901e-05
7.82105e-05
9.40525e-05
8.67034e-05
7.67676e-05
3.47661e-05
7.20202e-05
8.94567e-05
8.96223e-05
7.85484e-05
3.39551e-05
6.41032e-05
8.41662e-05
9.16606e-05
7.95032e-05
3.21615e-05
5.67467e-05
8.09514e-05
9.53482e-05
8.13601e-05
2.99389e-05
5.10741e-05
8.12512e-05
9.98558e-05
8.20978e-05
2.73011e-05
4.65802e-05
8.55337e-05
0.000103476
8.04161e-05
2.47115e-05
4.33673e-05
9.46034e-05
0.000104741
7.73077e-05
2.24359e-05
4.16861e-05
0.000108939
0.000105981
7.5929e-05
2.0602e-05
4.18209e-05
0.000124664
0.000106275
7.4304e-05
1.92816e-05
4.43592e-05
0.0001339
0.000104229
7.19117e-05
1.85369e-05
4.92649e-05
0.000132795
0.000101015
7.06469e-05
1.86014e-05
5.54812e-05
0.000125591
9.93001e-05
7.16418e-05
1.96322e-05
6.07745e-05
0.000116139
9.80598e-05
7.39317e-05
2.09371e-05
6.374e-05
0.00010942
9.81871e-05
7.64752e-05
2.1812e-05
6.31888e-05
0.000102115
9.68125e-05
7.7349e-05
2.23156e-05
5.93648e-05
9.21426e-05
9.2566e-05
7.614e-05
2.21081e-05
5.35247e-05
8.26724e-05
8.92964e-05
7.54811e-05
2.11774e-05
4.74897e-05
7.51885e-05
8.86145e-05
7.61211e-05
1.98732e-05
4.25727e-05
7.00784e-05
9.00718e-05
7.61827e-05
1.82886e-05
3.83228e-05
6.66544e-05
9.19231e-05
7.43232e-05
1.66119e-05
3.46733e-05
6.51008e-05
9.31084e-05
7.1254e-05
1.49898e-05
3.14547e-05
6.65667e-05
9.46336e-05
6.91124e-05
1.35384e-05
2.87767e-05
7.14478e-05
9.50753e-05
6.70249e-05
1.24454e-05
2.71386e-05
7.77879e-05
9.25239e-05
6.50232e-05
1.15981e-05
2.699e-05
8.39771e-05
8.86907e-05
6.42239e-05
1.12283e-05
2.80956e-05
8.97966e-05
8.68847e-05
6.47327e-05
1.14201e-05
3.00694e-05
9.46982e-05
8.62456e-05
6.65149e-05
1.1856e-05
3.27096e-05
9.62581e-05
8.6909e-05
6.8615e-05
1.24147e-07
8.25947e-08
5.29627e-08
3.37981e-08
2.27576e-08
1.68915e-08
1.48726e-08
1.68778e-08
2.65194e-08
5.27519e-08
1.14772e-07
2.47064e-07
5.01772e-07
9.58378e-07
4.19103e-08
2.37777e-08
1.42486e-08
8.77424e-09
5.84253e-09
4.36223e-09
4.0396e-09
5.2653e-09
1.03535e-08
2.54927e-08
6.49712e-08
1.56844e-07
3.48141e-07
7.09378e-07
1.47444e-08
6.22003e-09
3.23273e-09
1.88534e-09
1.24486e-09
9.57153e-10
1.03191e-09
1.85677e-09
4.96474e-09
1.46106e-08
4.10321e-08
1.05356e-07
2.4458e-07
5.15239e-07
7.21787e-09
2.03018e-09
7.25222e-10
3.53007e-10
2.25163e-10
1.94194e-10
3.07839e-10
8.52803e-10
2.8224e-09
9.03625e-09
2.6506e-08
7.0406e-08
1.68937e-07
3.68687e-07
5.99378e-09
1.3626e-09
2.95558e-10
8.00029e-11
3.9582e-11
4.72801e-11
1.32849e-10
4.91428e-10
1.78412e-09
5.92548e-09
1.77996e-08
4.84054e-08
1.19624e-07
2.71401e-07
6.65981e-09
1.44179e-09
2.62983e-10
4.32426e-11
1.12965e-11
1.97836e-11
7.94344e-11
3.24659e-10
1.21716e-09
4.12078e-09
1.26122e-08
3.5077e-08
8.92729e-08
2.10092e-07
8.41547e-09
1.74067e-09
2.94356e-10
4.27782e-11
9.7692e-12
1.64219e-11
6.26949e-11
2.51752e-10
9.42665e-10
3.21238e-09
9.95085e-09
2.813e-08
7.30869e-08
1.76101e-07
1.13957e-08
2.22296e-09
3.55526e-10
6.1306e-11
2.9351e-11
3.84936e-11
8.44351e-11
2.63841e-10
9.09591e-10
3.02018e-09
9.28578e-09
2.62202e-08
6.82798e-08
1.64882e-07
1.58655e-08
2.96683e-09
5.09459e-10
1.64863e-10
1.48706e-10
1.81032e-10
2.58226e-10
5.03531e-10
1.32066e-09
3.8776e-09
1.12113e-08
3.04397e-08
7.69962e-08
1.8138e-07
2.26832e-08
4.45198e-09
1.08029e-09
6.44369e-10
7.01346e-10
8.52227e-10
1.09178e-09
1.6199e-09
3.05066e-09
7.07507e-09
1.77965e-08
4.4273e-08
1.04976e-07
2.34768e-07
3.51727e-08
8.67424e-09
3.29153e-09
2.50806e-09
2.7966e-09
3.42639e-09
4.34734e-09
5.94616e-09
9.284e-09
1.71819e-08
3.60549e-08
7.91637e-08
1.71297e-07
3.563e-07
6.35517e-08
2.17394e-08
1.07749e-08
8.62087e-09
9.46277e-09
1.16738e-08
1.49679e-08
2.01244e-08
2.903e-08
4.65084e-08
8.30373e-08
1.59338e-07
3.11469e-07
5.99171e-07
1.28784e-07
5.71873e-08
3.20221e-08
2.56749e-08
2.75352e-08
3.40912e-08
4.43736e-08
5.98648e-08
8.38747e-08
1.24387e-07
1.97756e-07
3.35147e-07
5.88624e-07
1.03638e-06
2.69587e-07
1.40124e-07
8.32685e-08
6.67397e-08
7.00488e-08
8.64508e-08
1.13836e-07
1.54776e-07
2.14465e-07
3.04238e-07
4.44155e-07
6.70669e-07
1.04837e-06
1.67415e-06
8.06809e-08
5.73029e-08
3.84926e-08
2.49287e-08
1.63954e-08
1.12103e-08
8.52527e-09
7.75529e-09
9.99126e-09
1.91137e-08
4.56173e-08
1.114e-07
2.56414e-07
5.47388e-07
2.35466e-08
1.49744e-08
9.6225e-09
6.01859e-09
3.8865e-09
2.63181e-09
2.0511e-09
2.06808e-09
3.48853e-09
9.0702e-09
2.65208e-08
7.33714e-08
1.83587e-07
4.134e-07
6.83136e-09
3.34448e-09
1.94633e-09
1.17179e-09
7.47375e-10
5.08953e-10
4.35695e-10
6.11057e-10
1.6259e-09
5.46607e-09
1.77366e-08
5.16604e-08
1.33586e-07
3.08255e-07
3.37635e-09
9.80994e-10
3.75196e-10
1.90781e-10
1.16773e-10
8.43221e-11
1.00978e-10
2.61439e-10
9.81721e-10
3.64764e-09
1.22061e-08
3.6241e-08
9.5725e-08
2.27191e-07
3.50411e-09
7.60561e-10
1.54131e-10
3.86613e-11
1.67494e-11
1.5019e-11
3.76188e-11
1.57651e-10
6.70002e-10
2.55834e-09
8.65061e-09
2.59897e-08
7.00141e-08
1.71458e-07
4.48761e-09
9.05248e-10
1.52507e-10
2.24978e-11
4.25618e-12
5.12296e-12
2.28508e-11
1.1022e-10
4.78797e-10
1.83868e-09
6.27043e-09
1.91407e-08
5.28528e-08
1.33667e-07
6.18291e-09
1.17497e-09
1.81439e-10
2.36159e-11
4.14968e-12
4.75632e-12
1.84623e-11
8.46909e-11
3.63045e-10
1.39552e-09
4.81072e-09
1.49622e-08
4.23523e-08
1.10055e-07
8.83881e-09
1.57341e-09
2.25109e-10
3.36706e-11
1.44975e-11
1.64819e-11
2.93748e-11
8.64068e-11
3.2239e-10
1.2e-09
4.1365e-09
1.29928e-08
3.72791e-08
9.81371e-08
1.26943e-08
2.13994e-09
3.13791e-10
8.82584e-11
7.98969e-11
9.49047e-11
1.21613e-10
1.97398e-10
4.7162e-10
1.44572e-09
4.62277e-09
1.40068e-08
3.92836e-08
1.01637e-07
1.83944e-08
3.11338e-09
6.11364e-10
3.48869e-10
3.98361e-10
4.88199e-10
6.06091e-10
8.11544e-10
1.31955e-09
2.82807e-09
7.30407e-09
1.97033e-08
5.13445e-08
1.2617e-07
2.77746e-08
5.53826e-09
1.7601e-09
1.39621e-09
1.66483e-09
2.08885e-09
2.64092e-09
3.45384e-09
4.91395e-09
8.20208e-09
1.64685e-08
3.71999e-08
8.59847e-08
1.93923e-07
4.72609e-08
1.30181e-08
5.77176e-09
4.93885e-09
5.8609e-09
7.48859e-09
9.68428e-09
1.27708e-08
1.75113e-08
2.60405e-08
4.38057e-08
8.3378e-08
1.68814e-07
3.45107e-07
9.08296e-08
3.43303e-08
1.77157e-08
1.51692e-08
1.76468e-08
2.28083e-08
3.01208e-08
4.03259e-08
5.49884e-08
7.79798e-08
1.18457e-07
1.96948e-07
3.51527e-07
6.50306e-07
1.90578e-07
8.86917e-08
4.85036e-08
4.09087e-08
4.63675e-08
6.00494e-08
8.05365e-08
1.09443e-07
1.49758e-07
2.07491e-07
2.94263e-07
4.34859e-07
6.7914e-07
1.12639e-06
3.36295e-08
2.36548e-08
1.6357e-08
1.07529e-08
7.11856e-09
4.77775e-09
3.5596e-09
3.07287e-09
3.57441e-09
6.35684e-09
1.54356e-08
4.08073e-08
1.04389e-07
2.4883e-07
8.51252e-09
5.32385e-09
3.56792e-09
2.26903e-09
1.47617e-09
9.64778e-10
7.14798e-10
6.50382e-10
9.718e-10
2.53482e-09
8.1622e-09
2.55301e-08
7.24418e-08
1.83513e-07
2.34307e-09
1.04606e-09
6.15516e-10
3.73441e-10
2.39139e-10
1.54446e-10
1.20675e-10
1.48912e-10
3.98912e-10
1.50486e-09
5.5585e-09
1.83437e-08
5.3334e-08
1.36784e-07
1.60883e-09
3.84148e-10
1.16189e-10
5.1762e-11
3.02066e-11
1.98358e-11
2.11805e-11
5.65889e-11
2.4586e-10
1.05404e-09
4.00513e-09
1.33208e-08
3.89516e-08
1.01229e-07
2.09561e-09
4.12509e-10
7.08455e-11
1.27729e-11
3.77225e-12
2.64495e-12
7.03791e-12
3.53858e-11
1.76768e-10
7.75572e-10
2.95969e-09
9.88107e-09
2.92228e-08
7.80284e-08
2.9194e-09
5.39533e-10
8.28251e-11
1.06138e-11
1.37224e-12
8.88441e-13
4.4716e-12
2.57036e-11
1.30265e-10
5.72251e-10
2.19264e-09
7.41129e-09
2.24819e-08
6.24642e-08
4.25584e-09
7.39534e-10
1.04264e-10
1.21223e-11
1.79306e-12
1.34515e-12
4.13851e-12
2.02014e-11
9.88873e-11
4.33014e-10
1.67889e-09
5.82152e-09
1.83509e-08
5.33499e-08
6.33274e-09
1.0301e-09
1.32851e-10
1.72055e-11
7.02364e-12
7.68944e-12
1.07452e-11
2.39746e-11
8.68465e-11
3.57381e-10
1.39705e-09
4.99481e-09
1.6351e-08
4.92412e-08
9.365e-09
1.43573e-09
1.82185e-10
4.36862e-11
4.13613e-11
5.09939e-11
6.22825e-11
8.34521e-11
1.56185e-10
4.50232e-10
1.57122e-09
5.45726e-09
1.77097e-08
5.30047e-08
1.38699e-08
2.08991e-09
3.32237e-10
1.75461e-10
2.16952e-10
2.7922e-10
3.47161e-10
4.35772e-10
6.07094e-10
1.1115e-09
2.80344e-09
8.25676e-09
2.43761e-08
6.83555e-08
2.10088e-08
3.60231e-09
9.26214e-10
7.33763e-10
9.45954e-10
1.24763e-09
1.59842e-09
2.03887e-09
2.69678e-09
4.05051e-09
7.60435e-09
1.75774e-08
4.39628e-08
1.09646e-07
3.53767e-08
8.37251e-09
3.15698e-09
2.73391e-09
3.45415e-09
4.62152e-09
6.08159e-09
7.94189e-09
1.04875e-08
1.47042e-08
2.33808e-08
4.41064e-08
9.30483e-08
2.0418e-07
6.66564e-08
2.2703e-08
1.03912e-08
8.93452e-09
1.08238e-08
1.45013e-08
1.94727e-08
2.60131e-08
3.47812e-08
4.78313e-08
7.0079e-08
1.1456e-07
2.08354e-07
4.06978e-07
1.40486e-07
6.23519e-08
3.09408e-08
2.59364e-08
2.9905e-08
3.95573e-08
5.36618e-08
7.29682e-08
9.9025e-08
1.35813e-07
1.90027e-07
2.77483e-07
4.32529e-07
7.38453e-07
8.33687e-09
5.56141e-09
3.9576e-09
2.74006e-09
1.92063e-09
1.35091e-09
1.01277e-09
8.2728e-10
8.22071e-10
1.22696e-09
2.93518e-09
8.64728e-09
2.56848e-08
7.15792e-08
1.89929e-09
1.03477e-09
7.03451e-10
4.72896e-10
3.2559e-10
2.25498e-10
1.67458e-10
1.38168e-10
1.64841e-10
3.98256e-10
1.4476e-09
5.33847e-09
1.78277e-08
5.27765e-08
7.26359e-10
2.15972e-10
1.01472e-10
6.12198e-11
4.0692e-11
2.78589e-11
2.12337e-11
2.21605e-11
5.46873e-11
2.3669e-10
1.04046e-09
4.04807e-09
1.37302e-08
4.07282e-08
8.57334e-10
1.69227e-10
3.08653e-11
8.27859e-12
3.91716e-12
2.54591e-12
2.49371e-12
6.67878e-12
3.46514e-11
1.79376e-10
8.08727e-10
3.14427e-09
1.06068e-08
3.13457e-08
1.26178e-09
2.32753e-10
3.42326e-11
4.61222e-12
6.77126e-13
2.52969e-13
6.89968e-13
4.41033e-12
2.71468e-11
1.4301e-10
6.43002e-10
2.48856e-09
8.38775e-09
2.50502e-08
1.82697e-09
3.17778e-10
4.32342e-11
5.04069e-12
5.21947e-13
1.2866e-13
5.07484e-13
3.50601e-12
2.15714e-11
1.12917e-10
5.05485e-10
1.9589e-09
6.68821e-09
2.06242e-08
2.72053e-09
4.44801e-10
5.51547e-11
5.83118e-12
8.10594e-13
4.9629e-13
8.4614e-13
3.2432e-12
1.74363e-11
8.90155e-11
3.9937e-10
1.57905e-09
5.61106e-09
1.83408e-08
4.06959e-09
6.23669e-10
7.03977e-11
8.25168e-12
3.58338e-12
4.08964e-12
5.01314e-12
7.41429e-12
1.9157e-11
7.78184e-11
3.39479e-10
1.38408e-09
5.17891e-09
1.78878e-08
6.02111e-09
8.6977e-10
9.61836e-11
2.17879e-11
2.24996e-11
2.91226e-11
3.56222e-11
4.32805e-11
6.03584e-11
1.28416e-10
4.22957e-10
1.6104e-09
5.97563e-09
2.06596e-08
9.04316e-09
1.2759e-09
1.76933e-10
9.23458e-11
1.21477e-10
1.63249e-10
2.06147e-10
2.53144e-10
3.17267e-10
4.65824e-10
9.65192e-10
2.78829e-09
9.00026e-09
2.86392e-08
1.41512e-08
2.22143e-09
5.11352e-10
4.05567e-10
5.41862e-10
7.40165e-10
9.63288e-10
1.21859e-09
1.53455e-09
2.06371e-09
3.30582e-09
7.0183e-09
1.79738e-08
4.89347e-08
2.41495e-08
5.2001e-09
1.83054e-09
1.59179e-09
2.03173e-09
2.77797e-09
3.70234e-09
4.81205e-09
6.17283e-09
8.15469e-09
1.17225e-08
2.02012e-08
4.15782e-08
9.55082e-08
4.33413e-08
1.42873e-08
6.39134e-09
5.56084e-09
6.64299e-09
8.9071e-09
1.19927e-08
1.5892e-08
2.07872e-08
2.75984e-08
3.80465e-08
5.80005e-08
1.00739e-07
1.99768e-07
8.75202e-08
4.10307e-08
2.0455e-08
1.74768e-08
1.95342e-08
2.52727e-08
3.38398e-08
4.52977e-08
6.02429e-08
8.08831e-08
1.09803e-07
1.54715e-07
2.30922e-07
3.87041e-07
1.07129e-09
6.275e-10
4.4158e-10
3.15919e-10
2.31305e-10
1.73975e-10
1.4015e-10
1.16532e-10
1.03922e-10
1.2497e-10
2.80134e-10
9.28919e-10
3.26525e-09
1.08252e-08
2.91305e-10
1.02765e-10
5.938e-11
4.03459e-11
2.89709e-11
2.16691e-11
1.76074e-11
1.49263e-11
1.54888e-11
3.32585e-11
1.35616e-10
5.94085e-10
2.34847e-09
8.18449e-09
2.50803e-10
5.08703e-11
1.11217e-11
4.1814e-12
2.53969e-12
1.84303e-12
1.53645e-12
1.61e-12
3.99181e-12
2.02036e-11
1.06212e-10
4.8944e-10
1.95018e-09
6.76132e-09
3.93273e-10
7.51313e-11
1.15587e-11
1.60609e-12
2.95273e-13
1.17704e-13
1.1809e-13
3.99781e-13
2.63069e-12
1.6588e-11
8.94239e-11
4.11182e-10
1.62589e-09
5.58019e-09
5.99887e-10
1.08537e-10
1.5971e-11
1.94798e-12
2.19085e-13
2.53324e-14
3.55125e-14
2.94093e-13
2.25253e-12
1.44105e-11
7.75105e-11
3.5442e-10
1.39223e-09
4.7522e-09
9.05988e-10
1.50425e-10
2.05904e-11
2.2725e-12
2.36748e-13
3.44546e-14
4.29644e-14
2.64053e-13
1.93256e-12
1.22593e-11
6.56313e-11
2.98821e-10
1.1715e-09
4.02042e-09
1.3976e-09
2.11301e-10
2.64071e-11
2.65495e-12
3.71243e-13
2.04306e-13
2.32602e-13
4.27561e-13
1.81834e-12
1.03813e-11
5.4614e-11
2.49187e-10
9.93466e-10
3.54029e-09
2.11148e-09
2.94858e-10
3.35485e-11
3.72094e-12
1.57753e-12
1.78071e-12
2.06982e-12
2.41963e-12
3.69526e-12
1.08954e-11
4.81735e-11
2.17467e-10
9.01817e-10
3.42833e-09
3.08432e-09
4.21588e-10
4.52471e-11
9.28137e-12
9.4535e-12
1.2336e-11
1.4853e-11
1.71132e-11
2.00561e-11
2.91884e-11
7.09853e-11
2.62367e-10
1.06086e-09
4.11961e-09
4.45125e-09
6.43368e-10
8.11592e-11
3.7674e-11
4.96842e-11
6.73155e-11
8.36615e-11
9.91759e-11
1.15265e-10
1.41645e-10
2.19599e-10
5.31881e-10
1.75205e-09
6.20618e-09
6.48796e-09
1.11455e-09
2.28017e-10
1.64434e-10
2.19896e-10
3.01424e-10
3.84961e-10
4.69904e-10
5.58126e-10
6.74356e-10
9.02231e-10
1.59727e-09
3.92637e-09
1.1554e-08
1.02252e-08
2.50761e-09
8.1987e-10
6.66812e-10
8.41136e-10
1.14219e-09
1.4876e-09
1.86329e-09
2.26776e-09
2.76979e-09
3.54702e-09
5.32556e-09
1.02326e-08
2.4503e-08
1.79499e-08
6.68365e-09
2.98017e-09
2.47561e-09
2.88677e-09
3.78614e-09
4.94931e-09
6.31024e-09
7.85567e-09
9.77723e-09
1.24306e-08
1.72018e-08
2.77914e-08
5.55706e-08
3.77165e-08
1.9063e-08
1.01946e-08
8.46508e-09
9.17789e-09
1.14083e-08
1.46488e-08
1.87308e-08
2.3688e-08
3.00589e-08
3.85115e-08
5.12679e-08
7.29413e-08
1.21558e-07
1.06607e-10
4.1519e-11
2.59181e-11
1.84827e-11
1.41277e-11
1.15277e-11
1.04134e-11
9.48179e-12
8.44388e-12
8.49512e-12
1.73566e-11
6.71731e-11
2.84007e-10
1.10738e-09
5.91961e-11
1.13106e-11
3.13861e-12
1.55987e-12
1.10586e-12
9.06257e-13
8.42776e-13
7.9598e-13
8.51226e-13
1.9397e-12
9.45502e-12
4.89977e-11
2.24483e-10
8.96147e-10
8.62497e-11
1.56991e-11
2.56489e-12
3.89044e-13
8.77043e-14
4.63982e-14
4.28958e-14
5.66476e-14
2.02327e-13
1.31379e-12
8.18764e-12
4.37781e-11
2.0046e-10
7.92642e-10
1.39715e-10
2.50322e-11
4.05212e-12
5.48362e-13
6.60277e-14
7.64943e-15
3.06554e-15
1.73319e-14
1.50979e-13
1.14149e-12
7.22948e-12
3.86803e-11
1.767e-10
6.95011e-10
2.06623e-10
3.59338e-11
5.51881e-12
7.13803e-13
8.01195e-14
7.88663e-15
2.15965e-15
1.47067e-14
1.34315e-13
1.02606e-12
6.52649e-12
3.49612e-11
1.59489e-10
6.25004e-10
2.9647e-10
4.9994e-11
6.93809e-12
8.201e-13
8.67576e-14
1.22237e-14
7.27805e-15
1.82465e-14
1.22674e-13
9.06769e-13
5.76214e-12
3.08885e-11
1.40789e-10
5.50883e-10
4.25153e-10
6.97679e-11
8.61609e-12
9.36597e-13
1.26413e-13
6.44091e-14
6.79331e-14
8.08892e-14
1.7178e-13
8.50748e-13
5.05991e-12
2.68627e-11
1.22566e-10
4.84269e-10
5.97672e-10
9.5456e-11
1.05729e-11
1.21956e-12
4.43887e-13
4.91181e-13
5.71437e-13
6.29392e-13
7.31839e-13
1.32931e-12
4.95039e-12
2.38539e-11
1.0876e-10
4.44733e-10
8.13943e-10
1.27028e-10
1.34746e-11
2.58166e-12
2.43764e-12
3.20948e-12
3.85158e-12
4.3186e-12
4.70651e-12
5.5568e-12
9.52064e-12
2.98114e-11
1.22774e-10
5.08032e-10
1.09142e-09
1.72874e-10
2.18273e-11
9.50063e-12
1.2664e-11
1.7337e-11
2.129e-11
2.44714e-11
2.70593e-11
3.02313e-11
3.81404e-11
7.17048e-11
2.15541e-10
7.94593e-10
1.49319e-09
2.72583e-10
5.6429e-11
4.08694e-11
5.69347e-11
7.87927e-11
9.87958e-11
1.16348e-10
1.31598e-10
1.48285e-10
1.75486e-10
2.57514e-10
5.53814e-10
1.63469e-09
2.28245e-09
5.88344e-10
2.01104e-10
1.68519e-10
2.23528e-10
3.07014e-10
3.91511e-10
4.71771e-10
5.46303e-10
6.27497e-10
7.36831e-10
9.74042e-10
1.65615e-09
3.87296e-09
4.18432e-09
1.61536e-09
7.55108e-10
6.44676e-10
7.88026e-10
1.04859e-09
1.34566e-09
1.65354e-09
1.9605e-09
2.30381e-09
2.73293e-09
3.45736e-09
5.05325e-09
9.66536e-09
9.52827e-09
4.82143e-09
2.71205e-09
2.29992e-09
2.57724e-09
3.23872e-09
4.09813e-09
5.08447e-09
6.15617e-09
7.40967e-09
8.95587e-09
1.12029e-08
1.49065e-08
2.38904e-08
1.73061e-11
3.91639e-12
1.57757e-12
9.94236e-13
7.63145e-13
6.68329e-13
6.66297e-13
6.612e-13
6.2458e-13
6.26309e-13
1.3475e-12
6.22229e-12
3.04569e-11
1.32928e-10
1.47489e-11
2.70455e-12
4.6668e-13
9.19427e-14
3.70721e-14
3.00795e-14
3.27515e-14
3.64265e-14
4.64056e-14
1.3892e-13
8.24694e-13
4.88269e-12
2.50334e-11
1.10616e-10
2.39332e-11
4.64873e-12
8.03355e-13
1.17316e-13
1.56416e-14
2.37753e-15
1.22701e-15
2.35481e-15
1.30462e-14
1.02495e-13
7.28278e-13
4.39468e-12
2.25754e-11
9.95053e-11
3.69232e-11
7.06924e-12
1.23219e-12
1.80473e-13
2.30595e-14
2.50819e-15
3.45923e-16
1.05943e-15
1.03491e-14
8.902e-14
6.40293e-13
3.87972e-12
2.00133e-11
8.8618e-11
5.17239e-11
9.55899e-12
1.60321e-12
2.25125e-13
2.73754e-14
2.90886e-15
4.78408e-16
1.05337e-15
9.26058e-15
7.97625e-14
5.79021e-13
3.53541e-12
1.83374e-11
8.14674e-11
7.01991e-11
1.23959e-11
1.92512e-12
2.49748e-13
2.90216e-14
4.32552e-15
2.28312e-15
2.84103e-15
9.98226e-15
7.21512e-14
5.17194e-13
3.17355e-12
1.65444e-11
7.3724e-11
9.50356e-11
1.61026e-11
2.27811e-12
2.75243e-13
3.93127e-14
1.86356e-14
1.92653e-14
2.08116e-14
2.72568e-14
8.14052e-14
4.7253e-13
2.81894e-12
1.46731e-11
6.55949e-11
1.26285e-10
2.05376e-11
2.67171e-12
3.40929e-13
1.17323e-13
1.24909e-13
1.45379e-13
1.57981e-13
1.69091e-13
2.18645e-13
5.59746e-13
2.60561e-12
1.30001e-11
5.84612e-11
1.63413e-10
2.56916e-11
3.256e-12
6.56676e-13
5.86877e-13
7.66995e-13
9.17959e-13
1.01824e-12
1.08516e-12
1.17499e-12
1.55264e-12
3.6815e-12
1.43932e-11
6.23293e-11
2.0926e-10
3.31881e-11
4.96993e-12
2.22514e-12
2.95233e-12
4.03147e-12
4.90911e-12
5.55994e-12
6.03072e-12
6.47535e-12
7.31262e-12
1.0842e-11
2.6908e-11
9.63948e-11
2.76349e-10
5.07901e-11
1.20757e-11
9.20973e-12
1.31681e-11
1.82204e-11
2.2551e-11
2.60611e-11
2.88259e-11
3.14136e-11
3.47774e-11
4.41118e-11
7.84978e-11
2.13847e-10
4.23124e-10
1.10793e-10
4.17471e-11
3.71983e-11
5.17131e-11
7.15439e-11
8.99226e-11
1.05986e-10
1.19559e-10
1.32724e-10
1.47901e-10
1.77829e-10
2.62191e-10
5.60403e-10
8.27817e-10
3.16657e-10
1.55835e-10
1.40008e-10
1.81758e-10
2.47106e-10
3.1411e-10
3.77388e-10
4.34561e-10
4.92388e-10
5.57035e-10
6.57947e-10
8.67273e-10
1.52092e-09
2.01622e-09
9.78406e-10
5.60932e-10
4.92882e-10
5.86678e-10
7.64929e-10
9.71539e-10
1.18547e-09
1.39411e-09
1.61549e-09
1.86524e-09
2.21068e-09
2.73917e-09
4.10507e-09
4.02039e-12
7.89392e-13
1.9948e-13
9.16578e-14
6.72325e-14
6.45314e-14
7.19409e-14
7.81019e-14
7.7791e-14
7.54742e-14
1.46835e-13
7.16335e-13
3.77961e-12
1.74819e-11
4.05056e-12
8.2263e-13
1.427e-13
2.23379e-14
4.53376e-15
2.71898e-15
3.4643e-15
4.59469e-15
6.17739e-15
1.61243e-14
9.44811e-14
5.917e-13
3.22117e-12
1.50152e-11
6.70851e-12
1.42685e-12
2.5975e-13
4.01287e-14
5.53241e-15
7.3584e-16
2.38307e-16
3.55266e-16
1.47665e-15
1.11937e-14
8.38591e-14
5.39944e-13
2.95733e-12
1.3826e-11
1.00623e-11
2.11711e-12
3.88559e-13
6.01281e-14
8.12743e-15
9.44359e-16
1.32673e-16
1.44364e-16
1.08554e-15
9.66496e-15
7.43266e-14
4.83231e-13
2.67124e-12
1.26309e-11
1.37262e-11
2.79078e-12
4.96814e-13
7.38459e-14
9.53485e-15
1.07709e-15
1.74465e-16
1.6801e-16
9.89405e-16
8.65559e-15
6.73821e-14
4.43816e-13
2.48161e-12
1.18573e-11
1.80664e-11
3.49354e-12
5.84997e-13
8.08787e-14
9.94977e-15
1.41848e-15
6.35037e-16
6.44134e-16
1.34884e-15
8.08036e-15
6.05944e-14
4.01962e-13
2.27206e-12
1.09678e-11
2.36515e-11
4.33623e-12
6.76869e-13
8.742e-14
1.22281e-14
4.74129e-15
4.63815e-15
4.87252e-15
5.5017e-15
1.12567e-14
5.74982e-14
3.61612e-13
2.04226e-12
9.92066e-12
3.04167e-11
5.28892e-12
7.76728e-13
1.02871e-13
2.95892e-14
2.86068e-14
3.29957e-14
3.54283e-14
3.67959e-14
4.17211e-14
8.1746e-14
3.47467e-13
1.82203e-12
8.79917e-12
3.81334e-11
6.33604e-12
9.15568e-13
1.73278e-13
1.33297e-13
1.7033e-13
2.02742e-13
2.21961e-13
2.32296e-13
2.41644e-13
2.84575e-13
5.55039e-13
2.02152e-12
8.99964e-12
4.72949e-11
7.79502e-12
1.28971e-12
5.18807e-13
6.57506e-13
8.90578e-13
1.07516e-12
1.19862e-12
1.27603e-12
1.33496e-12