/*--------------------------------*- C++ -*----------------------------------*\
| =========                 |                                                 |
| \\      /  F ield         | OpenFOAM: The Open Source CFD Toolbox           |
|  \\    /   O peration     | Version:  v2106                                 |
|   \\  /    A nd           | Website:  www.openfoam.com                      |
|    \\/     M anipulation  |                                                 |
\*---------------------------------------------------------------------------*/
FoamFile
{
    version     2.0;
    format      ascii;
    arch        "LSB;label=32;scalar=64";
    class       volScalarField;
    location    "0.000175";
    object      p;
}
// * * * * * * * * * * * * * * * * * * * * * * * * * * * * * * * * * * * * * //

dimensions      [1 -1 -2 0 0 0 0];

internalField   nonuniform List<scalar> 
17924
(
239296
239272
239254
239230
239310
239284
239261
239231
239201
239169
239137
239325
239301
239281
239254
239226
239195
239165
239341
239322
239301
239274
239248
239219
239191
239364
239347
239325
239300
239274
239247
239219
239390
239374
239352
239327
239301
239274
239247
239421
239403
239381
239357
239331
239304
239277
239455
239437
239414
239389
239363
239336
239308
239492
239473
239449
239424
239397
239369
239341
239532
239511
239486
239461
239432
239404
239375
239574
239552
239526
239499
239470
239441
239411
239619
239596
239567
239539
239509
239479
239448
239667
239642
239612
239582
239551
239520
239488
239718
239693
239660
239629
239595
239562
239528
239778
239741
239706
239672
239639
239605
239571
239302
239279
239254
239223
239190
239153
239116
239076
239036
238995
238957
238915
238877
238837
239290
239270
239246
239217
239185
239150
239113
239074
239035
238994
238956
238917
238882
238846
239280
239264
239239
239210
239178
239145
239110
239073
239037
238999
238963
238927
238893
238858
239277
239261
239235
239207
239176
239144
239110
239075
239040
239004
238969
238934
238901
238866
239279
239260
239234
239206
239175
239143
239110
239076
239042
239007
238973
238938
238905
238870
239282
239263
239236
239208
239177
239145
239112
239078
239044
239009
238975
238940
238907
238872
239290
239268
239240
239212
239180
239148
239115
239081
239046
239011
238976
238941
238906
238870
239300
239276
239247
239218
239186
239153
239118
239083
239047
239012
238976
238939
238903
238866
239313
239286
239256
239225
239192
239158
239122
239087
239049
239012
238975
238937
238898
238860
239327
239298
239266
239233
239199
239164
239127
239090
239051
239013
238973
238933
238891
238852
239344
239313
239279
239244
239207
239170
239131
239093
239052
239012
238970
238928
238883
238841
239361
239328
239292
239255
239216
239177
239137
239096
239053
239011
238966
238922
238873
238829
239379
239342
239305
239265
239224
239183
239141
239099
239055
239009
238962
238914
238863
238813
239398
239352
239314
239273
239232
239190
239146
239102
239057
239011
238962
238913
238859
238807
239236
239214
239189
239158
239124
239086
239044
239000
238953
238903
238852
238797
238747
238689
239200
239183
239158
239129
239096
239059
239018
238974
238927
238878
238829
238776
238726
238672
239169
239154
239127
239099
239065
239029
238990
238948
238903
238856
238809
238759
238711
238659
239142
239126
239099
239070
239037
239002
238963
238922
238878
238833
238787
238739
238692
238643
239119
239100
239072
239044
239010
238975
238937
238897
238855
238810
238765
238718
238672
238623
239098
239076
239048
239018
238985
238949
238911
238871
238829
238785
238740
238694
238648
238600
239079
239055
239025
238994
238960
238924
238886
238845
238803
238759
238715
238669
238622
238574
239061
239034
239003
238970
238935
238898
238859
238818
238775
238731
238686
238639
238592
238544
239046
239015
238982
238948
238911
238873
238833
238791
238746
238701
238654
238607
238557
238510
239029
238995
238960
238924
238886
238846
238804
238761
238715
238669
238620
238572
238519
238472
239014
238977
238940
238902
238861
238819
238775
238730
238682
238633
238582
238532
238477
238429
238996
238955
238917
238876
238834
238790
238744
238697
238648
238597
238544
238492
238433
238385
238978
238934
238894
238851
238806
238761
238712
238662
238609
238556
238500
238444
238383
238333
238956
238909
238867
238822
238775
238727
238676
238625
238572
238518
238461
238404
238343
238284
239040
239019
238992
238965
238932
238895
238855
238810
238761
238709
238654
238594
238536
238471
238988
238971
238944
238917
238884
238848
238807
238761
238712
238659
238603
238544
238487
238426
238941
238925
238896
238868
238834
238798
238758
238713
238665
238614
238559
238502
238446
238387
238895
238877
238848
238819
238785
238749
238708
238664
238616
238565
238512
238456
238402
238343
238852
238831
238801
238771
238736
238699
238658
238615
238567
238517
238466
238411
238358
238301
238808
238783
238753
238721
238686
238648
238607
238563
238516
238467
238415
238362
238309
238253
238765
238737
238705
238672
238636
238597
238555
238511
238464
238415
238364
238311
238258
238204
238720
238689
238655
238620
238583
238543
238501
238456
238409
238360
238309
238256
238203
238150
238676
238641
238607
238569
238531
238489
238446
238400
238352
238302
238250
238198
238144
238093
238628
238590
238554
238514
238474
238431
238387
238340
238292
238241
238189
238137
238081
238032
238582
238540
238502
238460
238418
238374
238327
238279
238228
238176
238122
238070
238013
237967
238529
238485
238444
238401
238357
238311
238263
238214
238163
238110
238055
238002
237943
237898
238481
238432
238389
238344
238297
238249
238198
238146
238092
238037
237980
237925
237866
237822
238420
238370
238325
238278
238230
238180
238129
238077
238023
237968
237912
237856
237798
237747
238667
238645
238617
238590
238561
238529
238493
238455
238413
238368
238319
238268
238216
238159
238605
238586
238558
238531
238500
238467
238429
238389
238345
238297
238248
238195
238142
238087
238545
238527
238496
238468
238436
238402
238364
238323
238279
238233
238184
238132
238080
238026
238486
238465
238434
238405
238371
238336
238297
238256
238211
238164
238115
238063
238012
237958
238427
238403
238371
238340
238305
238269
238229
238187
238143
238096
238048
237997
237947
237894
238366
238338
238305
238272
238237
238200
238160
238117
238073
238026
237978
237928
237878
237827
238303
238272
238238
238204
238167
238129
238088
238046
238001
237955
237907
237858
237810
237760
238237
238202
238168
238132
238095
238056
238015
237972
237927
237881
237833
237785
237737
237690
238169
238132
238097
238059
238021
237981
237939
237895
237850
237804
237757
237711
237664
237620
238097
238057
238021
237982
237943
237902
237860
237816
237771
237726
237679
237634
237587
237546
238026
237984
237946
237905
237865
237823
237780
237735
237690
237644
237598
237554
237508
237472
237949
237904
237865
237823
237782
237739
237696
237652
237607
237562
237516
237472
237427
237395
237877
237829
237788
237745
237701
237657
237612
237567
237521
237475
237429
237386
237342
237314
237789
237743
237700
237657
237613
237569
237525
237480
237435
237391
237347
237304
237262
237231
238122
238096
238067
238042
238017
237992
237966
237939
237911
237881
237849
237818
237784
237752
238051
238031
238002
237976
237949
237921
237893
237863
237833
237800
237767
237733
237698
237660
237984
237963
237932
237905
237876
237848
237818
237788
237756
237723
237690
237656
237622
237583
237915
237893
237862
237833
237804
237774
237743
237711
237679
237645
237611
237576
237542
237504
237847
237821
237789
237760
237729
237698
237666
237634
237601
237567
237533
237499
237465
237429
237774
237746
237714
237684
237652
237621
237589
237556
237523
237489
237455
237420
237387
237352
237701
237670
237637
237606
237574
237542
237510
237477
237444
237410
237376
237343
237311
237278
237623
237590
237558
237526
237494
237462
237430
237397
237364
237331
237298
237265
237234
237204
237545
237510
237478
237445
237413
237380
237348
237316
237283
237251
237219
237188
237158
237132
237463
237426
237394
237361
237329
237297
237265
237233
237201
237170
237139
237110
237081
237059
237382
237343
237312
237278
237246
237213
237181
237150
237119
237089
237060
237032
237005
236988
237298
237257
237226
237192
237160
237128
237097
237066
237036
237007
236979
236954
236929
236917
237218
237178
237145
237110
237077
237044
237013
236983
236953
236925
236898
236876
236854
236848
237125
237090
237056
237023
236990
236959
236929
236900
236872
236845
236821
236799
236780
236775
237440
237416
237391
237371
237353
237338
237324
237311
237300
237289
237279
237269
237259
237253
237367
237350
237324
237304
237284
237267
237252
237238
237224
237211
237200
237187
237177
237162
237298
237281
237255
237233
237213
237195
237179
237163
237149
237135
237122
237109
237100
237083
237228
237210
237184
237162
237141
237123
237106
237090
237074
237060
237046
237033
237021
237005
237159
237138
237112
237090
237069
237050
237032
237016
237000
236985
236971
236958
236947
236932
237087
237064
237039
237017
236996
236977
236959
236942
236926
236912
236898
236885
236873
236860
237015
236991
236966
236944
236923
236904
236886
236869
236854
236839
236826
236814
236803
236792
236941
236915
236892
236870
236849
236830
236813
236796
236782
236768
236756
236745
236734
236725
236868
236840
236818
236796
236776
236757
236740
236725
236711
236698
236687
236677
236668
236663
236793
236765
236743
236722
236702
236685
236668
236654
236641
236630
236619
236611
236603
236602
236720
236691
236670
236649
236630
236613
236598
236584
236573
236563
236554
236548
236541
236544
236647
236618
236598
236577
236559
236543
236528
236516
236505
236497
236491
236486
236481
236486
236578
236550
236529
236510
236492
236475
236461
236450
236441
236434
236430
236428
236425
236433
236501
236479
236458
236440
236424
236408
236396
236386
236378
236373
236370
236369
236370
236375
236669
236656
236641
236632
236625
236621
236620
236621
236624
236630
236638
236647
236661
236675
236602
236595
236582
236573
236566
236562
236560
236561
236564
236569
236577
236584
236596
236602
236544
236536
236523
236514
236507
236502
236500
236500
236502
236507
236514
236520
236533
236537
236483
236475
236463
236454
236447
236443
236440
236441
236443
236447
236454
236460
236470
236473
236426
236416
236404
236395
236388
236384
236382
236382
236384
236388
236394
236401
236410
236415
236368
236357
236346
236337
236330
236326
236325
236325
236327
236331
236337
236344
236352
236359
236311
236299
236288
236279
236273
236270
236268
236269
236272
236276
236283
236290
236298
236306
236255
236242
236232
236223
236218
236215
236214
236215
236218
236223
236230
236238
236246
236256
236200
236186
236176
236169
236163
236161
236161
236162
236167
236173
236180
236189
236198
236209
236145
236132
236123
236116
236111
236109
236109
236112
236117
236124
236132
236142
236152
236165
236093
236079
236071
236065
236061
236060
236061
236064
236070
236078
236087
236099
236109
236125
236043
236028
236022
236016
236014
236013
236015
236019
236026
236035
236045
236057
236069
236086
235996
235982
235975
235971
235969
235969
235972
235977
235985
235995
236007
236020
236034
236053
235947
235936
235930
235927
235927
235928
235931
235938
235946
235957
235970
235985
236000
236019
235844
235846
235848
235852
235858
235866
235877
235889
235904
235921
235940
235962
235987
236014
235801
235805
235807
235812
235819
235828
235840
235853
235868
235885
235905
235926
235949
235970
235764
235767
235769
235774
235781
235790
235802
235815
235830
235848
235867
235887
235910
235931
235725
235729
235731
235737
235744
235754
235765
235779
235794
235812
235831
235851
235873
235893
235689
235692
235694
235700
235707
235717
235729
235743
235759
235776
235796
235816
235837
235857
235653
235656
235659
235665
235672
235682
235694
235708
235724
235742
235761
235781
235802
235823
235619
235621
235625
235630
235638
235648
235660
235675
235691
235709
235728
235749
235769
235790
235586
235588
235592
235598
235606
235616
235629
235643
235660
235678
235697
235718
235738
235759
235555
235557
235561
235567
235575
235586
235599
235614
235631
235649
235669
235689
235710
235731
235525
235527
235533
235539
235548
235559
235572
235587
235604
235623
235643
235663
235684
235705
235497
235500
235506
235513
235523
235534
235547
235563
235581
235599
235619
235640
235660
235682
235471
235474
235481
235489
235499
235511
235525
235541
235559
235578
235598
235619
235640
235662
235446
235450
235458
235467
235478
235491
235506
235523
235541
235561
235581
235603
235623
235646
235424
235429
235438
235448
235460
235473
235488
235505
235523
235543
235563
235585
235607
235631
234987
235003
235019
235036
235053
235070
235089
235108
235129
235151
235174
235199
235223
235252
234972
234990
235005
235023
235040
235058
235078
235098
235119
235142
235166
235192
235218
235245
234961
234978
234993
235010
235027
235046
235065
235086
235108
235131
235155
235181
235207
235234
234948
234965
234980
234998
235015
235034
235054
235075
235097
235120
235145
235170
235196
235223
234938
234953
234969
234985
235003
235022
235043
235064
235087
235110
235134
235159
235185
235211
234926
234942
234958
234975
234993
235012
235032
235054
235076
235100
235124
235149
235174
235200
234917
234932
234947
234964
234983
235002
235022
235044
235067
235090
235114
235139
235164
235189
234907
234923
234939
234956
234974
234993
235014
235035
235058
235081
235105
235130
235154
235179
234899
234914
234931
234948
234966
234986
235006
235028
235050
235074
235097
235121
235146
235170
234893
234908
234924
234942
234960
234980
235000
235022
235044
235067
235091
235114
235138
235161
234886
234901
234919
234937
234956
234976
234996
235018
235040
235063
235086
235109
235132
235154
234880
234896
234914
234933
234952
234973
234993
235015
235037
235059
235082
235104
235127
235149
234876
234893
234910
234930
234949
234971
234992
235014
235036
235058
235080
235103
235124
235147
234876
234893
234911
234931
234950
234970
234991
235013
235034
235056
235077
235099
235121
235144
234108
234130
234153
234174
234196
234218
234239
234260
234281
234302
234323
234345
234366
234390
234116
234138
234161
234183
234206
234228
234251
234273
234295
234317
234339
234360
234382
234406
234127
234148
234172
234194
234217
234240
234262
234284
234306
234328
234350
234372
234394
234417
234136
234158
234181
234204
234227
234250
234273
234295
234318
234340
234362
234385
234407
234431
234147
234168
234192
234214
234238
234260
234283
234306
234328
234350
234373
234395
234417
234440
234156
234178
234201
234224
234247
234270
234293
234316
234338
234361
234383
234406
234428
234451
234165
234188
234211
234234
234257
234280
234303
234325
234348
234370
234392
234415
234437
234459
234175
234198
234221
234244
234267
234290
234313
234335
234357
234380
234402
234424
234446
234467
234184
234208
234231
234254
234277
234300
234323
234345
234367
234388
234410
234431
234453
234474
234194
234218
234241
234264
234287
234310
234332
234355
234376
234398
234419
234439
234461
234480
234204
234227
234250
234274
234297
234320
234342
234364
234386
234406
234427
234447
234468
234487
234214
234238
234260
234284
234307
234330
234353
234374
234395
234415
234435
234455
234475
234493
234224
234247
234270
234294
234317
234340
234363
234384
234405
234425
234444
234463
234482
234500
234238
234262
234283
234307
234329
234352
234373
234394
234414
234433
234452
234470
234489
234509
233217
233236
233258
233279
233299
233319
233338
233356
233374
233390
233405
233420
233433
233450
233239
233258
233280
233301
233323
233344
233364
233383
233401
233417
233433
233448
233461
233478
233263
233282
233306
233327
233349
233369
233389
233408
233425
233442
233458
233473
233486
233502
233285
233305
233328
233350
233372
233393
233413
233432
233450
233467
233483
233498
233513
233528
233307
233328
233352
233374
233396
233417
233437
233456
233473
233490
233506
233522
233536
233551
233328
233351
233374
233396
233419
233439
233459
233478
233496
233513
233529
233545
233560
233574
233348
233372
233396
233418
233440
233461
233481
233500
233518
233534
233550
233566
233581
233595
233369
233393
233416
233439
233461
233482
233502
233520
233538
233555
233571
233586
233601
233615
233389
233413
233436
233459
233481
233502
233521
233540
233557
233574
233590
233605
233620
233633
233408
233433
233456
233479
233500
233521
233540
233558
233576
233592
233607
233622
233637
233650
233427
233451
233474
233497
233518
233539
233558
233576
233593
233609
233624
233638
233653
233665
233446
233470
233492
233515
233536
233556
233575
233592
233609
233625
233639
233653
233667
233680
233463
233487
233509
233531
233552
233572
233590
233608
233624
233640
233654
233667
233681
233693
233484
233508
233528
233550
233569
233588
233606
233623
233639
233653
233667
233680
233694
233707
232349
232361
232376
232391
232405
232419
232432
232444
232455
232464
232473
232480
232487
232496
232373
232385
232401
232416
232432
232446
232459
232472
232483
232493
232501
232509
232515
232524
232398
232411
232428
232444
232459
232473
232487
232499
232510
232520
232528
232536
232542
232550
232422
232437
232454
232470
232485
232500
232513
232526
232537
232547
232556
232563
232569
232577
232446
232462
232479
232496
232512
232526
232540
232552
232563
232573
232581
232589
232596
232602
232469
232487
232504
232521
232537
232551
232565
232577
232588
232598
232607
232614
232621
232628
232492
232510
232528
232545
232561
232575
232589
232601
232612
232622
232631
232639
232645
232652
232515
232534
232551
232568
232584
232598
232612
232624
232635
232645
232654
232661
232669
232674
232537
232556
232573
232590
232606
232620
232634
232646
232657
232667
232675
232683
232690
232696
232558
232577
232594
232611
232626
232641
232654
232666
232677
232686
232695
232703
232710
232716
232579
232598
232614
232631
232646
232660
232673
232685
232696
232705
232714
232721
232729
232734
232599
232618
232634
232650
232665
232678
232691
232703
232713
232722
232731
232739
232746
232752
232618
232636
232652
232668
232682
232696
232708
232719
232729
232738
232747
232754
232761
232768
232639
232657
232672
232686
232700
232712
232724
232734
232744
232753
232761
232769
232776
232784
231531
231537
231544
231551
231558
231565
231570
231576
231580
231584
231587
231589
231590
231594
231551
231556
231564
231572
231579
231586
231592
231597
231601
231605
231608
231610
231611
231614
231570
231576
231585
231593
231600
231607
231613
231618
231622
231626
231628
231630
231631
231634
231589
231596
231605
231613
231621
231627
231633
231639
231643
231646
231649
231651
231651
231653
231607
231615
231625
231633
231641
231648
231654
231659
231663
231667
231669
231671
231671
231673
231626
231635
231644
231653
231661
231667
231674
231679
231683
231687
231689
231691
231691
231692
231644
231654
231663
231672
231680
231687
231693
231698
231702
231706
231708
231710
231711
231711
231662
231672
231682
231690
231698
231705
231711
231716
231721
231724
231727
231728
231729
231729
231680
231690
231699
231708
231715
231722
231728
231734
231738
231741
231744
231746
231747
231746
231697
231708
231716
231725
231732
231739
231745
231750
231754
231758
231760
231762
231764
231763
231713
231724
231732
231741
231748
231754
231760
231765
231770
231773
231776
231778
231780
231779
231729
231740
231748
231756
231763
231769
231775
231780
231784
231787
231790
231792
231794
231793
231744
231755
231762
231770
231777
231783
231788
231793
231797
231800
231803
231805
231807
231807
231761
231770
231777
231784
231790
231796
231800
231805
231808
231812
231815
231817
231819
231820
230770
230772
230773
230775
230776
230777
230777
230777
230777
230776
230775
230774
230772
230770
230783
230784
230785
230787
230788
230789
230789
230789
230789
230788
230787
230785
230783
230782
230794
230795
230797
230799
230800
230801
230801
230801
230801
230800
230798
230796
230794
230793
230806
230807
230809
230811
230812
230813
230813
230813
230813
230811
230810
230808
230805
230803
230817
230818
230820
230822
230823
230824
230825
230825
230824
230823
230821
230819
230817
230814
230828
230830
230832
230834
230835
230836
230836
230836
230835
230834
230833
230831
230828
230825
230838
230841
230843
230845
230846
230847
230847
230847
230847
230845
230844
230842
230839
230835
230849
230852
230854
230855
230857
230857
230858
230858
230857
230856
230855
230852
230850
230846
230859
230862
230864
230866
230867
230868
230868
230868
230867
230866
230865
230862
230860
230856
230869
230872
230874
230875
230877
230877
230878
230878
230877
230876
230874
230872
230870
230866
230878
230881
230883
230885
230886
230887
230887
230887
230886
230885
230883
230881
230879
230875
230887
230890
230892
230893
230894
230895
230895
230895
230894
230893
230892
230890
230887
230883
230895
230898
230900
230901
230902
230903
230903
230902
230902
230901
230899
230897
230895
230892
230903
230906
230907
230908
230909
230909
230909
230909
230908
230907
230906
230904
230902
230899
230052
230052
230051
230050
230048
230046
230044
230041
230039
230036
230032
230029
230025
230021
230059
230058
230057
230055
230053
230051
230049
230046
230043
230040
230037
230033
230030
230026
230064
230063
230062
230060
230058
230056
230054
230051
230048
230045
230042
230038
230034
230030
230069
230068
230067
230065
230063
230061
230058
230056
230053
230049
230046
230042
230038
230034
230073
230072
230071
230070
230068
230065
230063
230060
230057
230054
230050
230046
230042
230038
230078
230077
230076
230074
230072
230070
230067
230064
230061
230058
230054
230051
230046
230041
230082
230081
230080
230078
230076
230074
230071
230068
230065
230062
230058
230054
230050
230045
230086
230085
230084
230082
230080
230078
230075
230072
230069
230066
230062
230058
230054
230049
230089
230088
230087
230085
230083
230081
230078
230076
230072
230069
230065
230061
230057
230052
230092
230091
230090
230088
230086
230084
230082
230079
230076
230072
230068
230064
230060
230055
230095
230094
230093
230091
230089
230087
230084
230081
230078
230075
230071
230067
230063
230057
230097
230096
230095
230093
230091
230089
230087
230084
230081
230077
230074
230069
230065
230060
230098
230098
230096
230095
230093
230091
230088
230085
230082
230079
230076
230071
230067
230062
230098
230098
230096
230095
230093
230091
230089
230086
230084
230080
230077
230073
230069
230063
229362
229362
229361
229359
229357
229355
229352
229349
229346
229343
229339
229335
229331
229326
229365
229365
229363
229362
229359
229357
229354
229351
229348
229344
229340
229336
229332
229327
229367
229366
229365
229363
229361
229358
229356
229353
229349
229346
229342
229338
229333
229328
229368
229368
229366
229364
229362
229359
229357
229354
229350
229347
229343
229338
229334
229329
229369
229368
229367
229365
229363
229360
229357
229354
229351
229347
229343
229339
229334
229329
229370
229369
229367
229365
229363
229360
229358
229354
229351
229347
229343
229339
229334
229329
229370
229369
229367
229365
229363
229360
229357
229354
229351
229347
229343
229339
229334
229328
229370
229368
229367
229365
229363
229360
229357
229354
229350
229347
229342
229338
229333
229328
229369
229367
229366
229364
229362
229359
229356
229353
229350
229346
229342
229337
229332
229327
229367
229366
229365
229363
229360
229358
229355
229352
229348
229345
229340
229336
229331
229325
229365
229364
229363
229361
229359
229356
229353
229350
229347
229343
229339
229334
229329
229324
229362
229361
229360
229358
229356
229354
229351
229348
229345
229341
229337
229332
229327
229322
229359
229358
229357
229355
229354
229351
229349
229346
229343
229339
229335
229330
229325
229320
229355
229354
229353
229351
229350
229348
229346
229343
229340
229337
229333
229328
229323
229317
228697
228698
228698
228698
228697
228696
228694
228692
228689
228686
228683
228679
228675
228670
228699
228700
228700
228699
228699
228697
228695
228693
228690
228687
228684
228680
228676
228671
228699
228700
228700
228700
228699
228698
228696
228694
228691
228688
228684
228680
228676
228671
228700
228701
228701
228700
228700
228698
228696
228694
228691
228688
228685
228681
228676
228672
228700
228700
228701
228700
228699
228698
228696
228694
228691
228688
228684
228680
228676
228671
228699
228699
228700
228699
228698
228697
228695
228693
228690
228687
228683
228679
228675
228670
228698
228698
228698
228698
228697
228695
228694
228691
228689
228685
228682
228678
228673
228668
228696
228696
228696
228696
228695
228694
228692
228689
228687
228683
228680
228676
228671
228666
228693
228693
228694
228693
228692
228691
228689
228687
228684
228681
228677
228673
228668
228663
228690
228690
228690
228690
228689
228688
228686
228684
228681
228678
228674
228670
228665
228660
228686
228686
228686
228686
228685
228684
228683
228681
228678
228675
228671
228667
228662
228657
228682
228682
228682
228682
228681
228680
228679
228677
228674
228671
228667
228663
228658
228653
228677
228677
228677
228677
228676
228676
228674
228672
228670
228667
228663
228659
228654
228649
228671
228670
228671
228671
228671
228671
228669
228668
228666
228663
228659
228655
228651
228645
228066
228069
228070
228071
228072
228071
228071
228069
228068
228065
228063
228060
228068
228070
228071
228073
228073
228073
228072
228071
228069
228067
228064
228061
228069
228071
228073
228074
228074
228074
228074
228072
228071
228068
228066
228062
228069
228072
228073
228074
228075
228075
228074
228073
228071
228069
228066
228063
228070
228072
228073
228074
228075
228075
228074
228073
228071
228069
228066
228063
228069
228071
228073
228074
228074
228074
228074
228072
228071
228069
228066
228062
228068
228070
228071
228072
228073
228073
228072
228071
228070
228067
228064
228061
228066
228068
228069
228070
228071
228071
228071
228069
228068
228066
228063
228059
228064
228065
228067
228068
228069
228069
228068
228067
228065
228063
228060
228057
228061
228062
228064
228065
228066
228066
228065
228064
228063
228060
228058
228054
228057
228058
228060
228061
228062
228062
228062
228061
228059
228057
228054
228051
228053
228054
228056
228057
228058
228058
228058
228057
228056
228053
228051
228047
228048
228049
228051
228052
228053
228054
228054
228053
228051
228049
228047
228043
228043
228044
228046
228048
228049
228049
228049
228048
228047
228045
228043
228039
239261
239243
239221
239204
239189
239178
239230
239202
239173
239150
239132
239120
239202
239162
239122
239087
239059
239036
239171
239119
239064
239013
238969
238928
239308
239309
239307
239310
239312
239316
239278
239281
239283
239290
239299
239310
239252
239250
239252
239258
239269
239285
239218
239213
239210
239213
239221
239233
239183
239169
239160
239154
239154
239154
239145
239122
239102
239083
239068
239051
239106
239073
239041
239007
238972
238934
239322
239338
239355
239374
239390
239407
239299
239325
239350
239377
239403
239430
239278
239304
239334
239367
239400
239434
239247
239274
239305
239339
239375
239414
239211
239234
239263
239294
239328
239362
239169
239188
239210
239234
239260
239286
239125
239136
239148
239160
239175
239189
239078
239079
239079
239078
239078
239075
239031
239022
239007
238992
238975
238955
238983
238963
238936
238907
238875
238839
238939
238907
238872
238832
238786
238735
238893
238853
238811
238764
238710
238652
238856
238809
238766
238717
238659
238597
238812
238766
238724
238676
238624
238568
239266
239294
239318
239343
239365
239386
239247
239285
239320
239358
239393
239427
239228
239271
239316
239361
239407
239452
239200
239247
239296
239349
239400
239452
239165
239213
239263
239316
239370
239425
239124
239169
239217
239267
239318
239370
239078
239117
239158
239201
239246
239291
239028
239057
239089
239123
239158
239192
238974
238992
239012
239034
239057
239077
238917
238922
238931
238939
238947
238952
238859
238853
238848
238843
238835
238828
238797
238781
238766
238747
238727
238708
238744
238716
238692
238663
238632
238600
238683
238646
238616
238580
238544
238506
239080
239115
239147
239179
239206
239233
239063
239110
239152
239197
239236
239276
239046
239103
239156
239210
239259
239309
239022
239085
239146
239208
239266
239324
238991
239058
239124
239190
239256
239320
238954
239022
239088
239156
239222
239288
238912
238976
239040
239104
239168
239232
238863
238920
238979
239036
239094
239152
238809
238856
238906
238954
239002
239052
238751
238786
238825
238860
238898
238937
238690
238711
238736
238759
238782
238808
238624
238631
238644
238653
238663
238675
238560
238553
238552
238547
238543
238540
238487
238469
238455
238439
238424
238408
238717
238762
238802
238840
238875
238910
238697
238752
238801
238852
238896
238940
238680
238746
238805
238865
238918
238970
238658
238733
238801
238869
238932
238994
238633
238714
238790
238866
238937
239008
238603
238688
238769
238850
238929
239007
238569
238654
238737
238821
238904
238986
238529
238611
238693
238776
238859
238941
238484
238559
238637
238715
238793
238872
238435
238500
238570
238639
238709
238780
238381
238433
238492
238549
238606
238666
238325
238362
238407
238450
238493
238537
238264
238285
238313
238340
238368
238396
238205
238205
238219
238229
238240
238250
238181
238236
238284
238332
238375
238420
238155
238219
238274
238333
238385
238436
238137
238211
238275
238340
238397
238454
238117
238199
238272
238344
238410
238473
238097
238185
238267
238346
238421
238493
238076
238169
238258
238345
238428
238508
238052
238149
238243
238336
238427
238515
238026
238123
238220
238316
238411
238506
237997
238091
238187
238283
238379
238475
237965
238053
238144
238236
238327
238420
237928
238007
238089
238172
238254
238339
237892
237957
238027
238097
238166
238238
237848
237898
237952
238006
238059
238114
237815
237844
237880
237913
237946
237981
237504
237564
237615
237667
237715
237764
237476
237543
237602
237665
237722
237777
237461
237535
237603
237670
237732
237791
237446
237527
237601
237674
237741
237805
237433
237519
237600
237679
237752
237820
237421
237512
237599
237683
237762
237837
237410
237504
237597
237686
237771
237852
237398
237495
237591
237684
237775
237862
237387
237483
237579
237675
237768
237860
237374
237468
237562
237656
237749
237841
237360
237447
237535
237624
237712
237802
237346
237425