/*--------------------------------*- C++ -*----------------------------------*\
| =========                 |                                                 |
| \\      /  F ield         | OpenFOAM: The Open Source CFD Toolbox           |
|  \\    /   O peration     | Version:  v2106                                 |
|   \\  /    A nd           | Website:  www.openfoam.com                      |
|    \\/     M anipulation  |                                                 |
\*---------------------------------------------------------------------------*/
FoamFile
{
    version     2.0;
    format      ascii;
    arch        "LSB;label=32;scalar=64";
    class       volScalarField;
    location    "0.000192";
    object      k;
}
// * * * * * * * * * * * * * * * * * * * * * * * * * * * * * * * * * * * * * //

dimensions      [0 2 -2 0 0 0 0];

internalField   nonuniform List<scalar> 
144746
(
9.71798
7.42814
5.45747
3.67609
2.84101
2.92872
4.16991
6.79281
10.6917
14.6425
16.2608
14.7071
12.3314
10.7377
10.7723
7.635
4.87065
2.81863
1.85796
1.62699
2.12108
3.49059
5.81065
8.75611
11.3163
11.9295
10.4667
9.20456
10.6646
6.73777
3.74024
1.93977
1.16551
0.897279
1.04624
1.71397
3.00263
4.81369
6.7447
8.33593
8.33855
8.07424
8.70456
4.75315
2.35309
1.15254
0.661768
0.476592
0.513686
0.83889
1.55402
2.63328
3.85274
5.01449
5.7149
6.35466
5.7471
2.74577
1.25872
0.591541
0.329708
0.234159
0.252275
0.428799
0.848831
1.53117
2.35239
3.13939
3.96833
5.202
3.16959
1.36527
0.574248
0.257106
0.141362
0.105382
0.128191
0.244074
0.517706
0.985148
1.5869
2.20547
2.98725
4.68467
1.56217
0.602818
0.231819
0.0989518
0.0552005
0.0482384
0.0761204
0.166902
0.368147
0.714963
1.18493
1.73654
2.68954
5.29269
0.781476
0.277277
0.100407
0.0429899
0.0266848
0.0312326
0.0623189
0.143123
0.308942
0.588982
0.986658
1.55833
2.99984
7.02608
0.540179
0.194316
0.0763571
0.0392647
0.0293031
0.0374714
0.0709197
0.148582
0.298124
0.547614
0.934804
1.72602
4.14137
9.85499
0.656196
0.253064
0.116278
0.073346
0.0593429
0.0665693
0.10183
0.181388
0.331493
0.594639
1.10043
2.4683
6.2874
12.8795
1.3125
0.555327
0.246464
0.163984
0.136879
0.139212
0.177549
0.269813
0.452592
0.818586
1.6538
4.08455
8.88342
14.5417
2.98658
1.83384
0.914557
0.459956
0.326069
0.304952
0.349644
0.475272
0.738957
1.32483
2.76335
6.25118
10.67
14.3291
5.3655
4.35592
2.82434
1.52716
0.883821
0.678728
0.68921
0.859958
1.24541
2.11161
4.04596
7.53975
10.656
12.86
7.72448
7.41628
6.07618
4.17397
2.59966
1.72066
1.41492
1.51589
1.97747
3.03343
5.00546
7.73411
9.68322
11.3475
8.27909
5.88269
4.08648
2.73333
2.09873
2.06393
2.76288
4.28201
6.57129
9.22338
11.4577
12.4215
12.0875
11.4467
8.07108
5.36269
3.37121
2.03599
1.40501
1.22336
1.52084
2.38904
3.85959
5.72319
7.52817
8.9032
9.15981
9.02692
7.03791
4.33404
2.48837
1.39888
0.897065
0.708032
0.80659
1.27022
2.17816
3.43117
4.76617
5.91689
6.74092
7.22668
5.23572
2.9495
1.59127
0.855858
0.520519
0.386627
0.41487
0.659837
1.20889
2.03586
2.96347
3.79645
4.50659
5.30898
3.30879
1.73053
0.869245
0.446654
0.263524
0.192692
0.207401
0.346475
0.68295
1.23396
1.89873
2.54634
3.1669
4.1351
1.80232
0.856453
0.399429
0.196971
0.114751
0.087106
0.104589
0.196214
0.416066
0.794702
1.28987
1.82309
2.39933
3.45216
0.869953
0.366603
0.157571
0.07481
0.0442196
0.0385143
0.0594064
0.130043
0.289442
0.567684
0.954466
1.41866
2.02895
3.40682
0.432541
0.160392
0.0622332
0.0284233
0.018237
0.0216193
0.044634
0.106424
0.236097
0.459703
0.785117
1.22806
2.0025
3.99531
0.311242
0.109467
0.0411066
0.020028
0.0151414
0.0217159
0.0463884
0.105428
0.222537
0.422762
0.734991
1.24898
2.41432
5.31561
0.397475
0.145982
0.0615875
0.036231
0.0294054
0.0363169
0.0630711
0.124428
0.243778
0.455325
0.828021
1.57056
3.44525
7.12209
0.790238
0.311319
0.134535
0.0872377
0.0723623
0.077443
0.108589
0.18194
0.328219
0.605154
1.14329
2.37064
4.95314
8.93785
1.87845
1.02991
0.476706
0.238629
0.178871
0.176081
0.216263
0.317883
0.522986
0.927296
1.77469
3.59057
6.59599
10.4172
3.70875
2.61521
1.51766
0.76603
0.456683
0.389762
0.432288
0.575335
0.866076
1.43755
2.59408
4.86531
7.91559
11.1835
5.88557
4.84602
3.47475
2.14579
1.27634
0.900798
0.842199
1.0009
1.37305
2.08812
3.45699
5.92059
8.74745
11.5336
5.79864
3.95958
2.75116
1.93228
1.55138
1.45124
1.69907
2.31612
3.31685
4.61453
6.14543
7.91368
9.98869
11.9379
4.59233
3.03344
2.00912
1.33444
0.994407
0.862225
0.969294
1.3606
2.08955
3.10083
4.32338
5.66394
7.04298
8.43215
3.35021
2.17932
1.38401
0.875105
0.613374
0.497985
0.532664
0.766631
1.26873
2.01969
2.94163
3.9584
4.99075
6.17005
2.23648
1.41548
0.853801
0.515449
0.344077
0.267654
0.278561
0.414255
0.744663
1.27892
1.95738
2.71213
3.49376
4.44959
1.36785
0.810644
0.457247
0.263141
0.169615
0.130048
0.13819
0.22087
0.432909
0.802536
1.29967
1.87815
2.51777
3.39317
0.762743
0.404206
0.209346
0.114853
0.0725326
0.0570176
0.0673572
0.123339
0.264101
0.520907
0.891427
1.35336
1.90888
2.71761
0.400432
0.181167
0.0835995
0.0432799
0.0272483
0.0238793
0.0360767
0.0793895
0.181911
0.371603
0.660816
1.04985
1.56615
2.37717
0.23176
0.086283
0.0333827
0.0155645
0.0101225
0.0118242
0.0251193
0.06315
0.147562
0.302379
0.54618
0.898401
1.41709
2.31303
0.189435
0.0623875
0.0209438
0.00903017
0.00653545
0.0101271
0.0244827
0.0615732
0.140116
0.281761
0.51155
0.870447
1.45988
2.54303
0.241641
0.0821745
0.0299319
0.0152061
0.011922
0.016117
0.0322103
0.0720455
0.154453
0.303547
0.557687
0.984753
1.72698
3.08558
0.437458
0.1663
0.0674368
0.039407
0.0317556
0.0357587
0.0555413
0.1045
0.205477
0.392647
0.72373
1.29023
2.24658
3.927
0.947063
0.469771
0.211569
0.110032
0.0846184
0.0870925
0.114755
0.183829
0.32399
0.583733
1.0405
1.79967
3.05577
5.35835
1.87987
1.14011
0.614856
0.317886
0.212492
0.203288
0.242945
0.342935
0.538128
0.893048
1.50814
2.54046
4.34772
7.07139
3.19981
2.197
1.39913
0.824688
0.530521
0.447217
0.486768
0.620883
0.877908
1.33271
2.12038
3.603
6.22246
9.18953
10.202
11.2852
12.981
16.2256
24.2239
53.8829
8.95828
10.2231
12.0991
14.96
22.0206
50.4516
8.23502
9.82939
12.0917
14.6943
20.819
47.6518
7.50523
10.0288
12.9
15.0688
20.1679
45.5037
7.42646
11.1006
14.5136
15.9563
19.8199
43.9321
8.25529
13.358
16.7299
16.9033
19.5317
43.0108
10.4331
16.4158
18.541
17.2267
19.0896
42.9181
13.4597
18.8483
18.8766
16.6368
18.4423
43.7871
16.1075
19.3011
17.6498
15.6138
17.9865
45.1431
16.9617
17.8346
15.9517
14.8963
17.9428
46.8759
15.8859
15.7214
14.7235
14.6631
18.1029
48.9602
14.1515
14.0334
13.9395
14.6342
18.6881
51.1106
12.5296
12.7999
13.3219
14.7073
19.6573
53.163
11.3788
11.9712
12.8916
15.053
21.2353
55.2175
11.3077
12.6696
13.9075
15.9238
21.6484
46.8683
9.20598
10.833
12.8038
15.0316
20.0032
43.8694
7.83659
9.75688
12.4547
15.0597
19.3766
41.6302
6.45931
8.97633
12.6505
15.6755
19.4471
39.9573
5.72397
8.92715
13.6509
16.8739
19.8996
38.609
5.59893
9.88966
15.5937
18.3043
19.9506
37.9585
6.39483
11.8401
17.9402
19.3345
19.5216
38.0669
7.92346
14.158
19.5971
19.433
18.7429
38.8343
9.81188
15.8669
19.7345
18.6128
17.9811
39.9424
11.3845
16.2545
18.661
17.6749
17.8218
41.2744
12.1051
15.5358
17.3849
17.2341
18.2879
42.9821
12.2093
14.6548
16.5695
17.2738
19.1702
44.7979
12.2704
14.194
16.1319
17.4169
20.215
46.5233
12.3429
14.215
15.8511
17.3871
21.3294
48.2656
13.8832
16.4921
17.9927
18.5741
21.1596
36.8905
10.0135
12.6779
15.3058
17.1928
20.164
34.9954
7.84193
10.5328
13.7649
16.5284
19.9068
33.9831
5.98582
8.73321
12.5733
16.3767
20.2872
33.4971
4.87484
7.69405
12.073
16.7598
20.897
33.1929
4.13865
7.14015
12.3841
17.847
21.1397
32.751
3.90719
7.3034
13.6202
19.1018
21.158
32.7226
4.05848
8.0817
15.2089
20.3051
21.1451
33.3179
4.57148
9.2122
16.5928
21.0599
21.1166
34.5663
5.39768
10.2492
17.3123
21.3335
21.2981
36.1185
6.30055
10.9451
17.5491
21.6818
22.218
37.9841
7.19759
11.5811
17.8988
22.4635
23.7785
39.9556
8.65298
12.8619
18.8223
23.3047
25.2881
41.526
10.6111
15.1126
20.2713
23.3924
25.8933
42.577
10.3851
11.4132
12.9251
16.1199
23.9934
57.289
8.73834
9.70108
11.541
14.5842
21.514
53.6013
7.35045
8.32376
10.6099
13.8779
19.9928
50.4022
5.52974
6.99126
10.0376
13.6896
19.2942
47.7244
4.07354
6.04231
9.87012
14.0481
19.1167
45.5233
3.23373
5.83835
10.4278
14.8924
19.1905
43.7166
3.06979
6.45485
11.8227
15.9867
19.1587
42.4175
3.53787
7.92367
13.7645
16.9213
18.744
41.9598
4.67343
9.84324
15.2149
16.9811
17.9793
42.2553
6.27649
11.3495
15.4176
16.1919
17.264
43.3806
7.80373
11.8069
14.4893
15.087
16.9065
45.2929
8.70904
11.3809
13.1697
14.0028
16.9367
47.61
8.84439
10.4377
11.6991
12.9285
17.2558
50.3588
8.41945
9.47122
10.4319
12.1267
17.8671
52.6956
11.723
13.6766
15.3239
17.5024
22.9109
50.1765
8.73902
10.6003
13.0198
15.7953
21.0009
47.0119
6.49046
8.2848
11.2208
14.7049
19.8026
44.2369
4.36265
6.13977
9.61846
14.0039
19.383
41.7255
3.01843
4.76121
8.42938
13.5921
19.387
39.5991
2.23623
4.03637
7.97191
13.6753
19.4979
38.0532
1.89289
3.92841
8.39506
14.3337
19.4533
36.9472
1.92184
4.4615
9.66031
15.3509
19.0817
36.42
2.38505
5.56359
11.1774
15.9712
18.3109
36.5308
3.28286
6.82376
12.074
15.7343
17.425
37.3096
4.42356
7.75309
12.0188
14.9048
17.0452
38.8496
5.5165
8.22145
11.4446
13.9554
17.2067
40.9466
6.33113
8.31697
10.6544
13.0029
17.6481
43.2984
6.73125
8.30119
10.0921
12.3947
17.9272
45.097
12.3219
16.1837
19.7895
22.2802
25.9398
43.1515
7.79077
10.8622
14.8927
18.9892
23.8799
40.7727
4.97364
7.51608
11.5103
16.4142
22.0499
38.5813
3.07086
4.95696
8.79229
14.3638
20.7877
36.4847
2.07853
3.53209
6.85775
12.6401
19.956
34.6051
1.49805
2.73745
5.65867
11.3633
19.3741
32.9124
1.16686
2.30707
5.08116
10.7474
18.6826
31.2825
1.01921
2.18101
5.09838
10.7553
17.9585
29.9736
1.05096
2.36029
5.61499
11.1218
17.1581
29.2876
1.28842
2.782
6.23335
11.3128
16.4388
29.59
1.7398
3.31529
6.63642
11.2297
16.4109
31.1995
2.35346
3.8824
6.84485
11.0959
17.408
33.7991
3.05794
4.50549
7.16331
11.293
18.834
36.344
3.76166
5.24289
7.85468
12.0592
20.0848
37.9255
52.9728
20.2985
13.852
11.6945
10.7286
10.0067
51.5092
19.7343
14.5586
13.0507
12.1656
11.3524
49.6544
19.984
15.9019
14.8441
13.682
12.1367
48.3988
21.1242
17.701
16.593
14.3258
11.4498
47.6775
22.8147
19.3729
17.1884
13.0418
9.00595
47.2734
24.5866
19.6272
15.4613
9.96223
5.88894
47.0037
25.1435
17.5584
11.8243
6.57578
3.42436
47.0844
23.8278
14.119
8.24497
4.15268
1.98158
47.4389
21.3838
11.2017
5.98082
2.96229
1.40597
47.8671
18.8857
9.5107
5.14817
2.79655
1.48289
48.6089
17.1791
8.95456
5.35994
3.45103
2.2478
50.0544
16.8766
9.28874
6.29993
4.75977
3.74319
52.2902
17.9798
10.4558
7.7567
6.42496
5.49446
55.374
19.7049
12.1615
9.6323
8.48618
7.51159
45.4556
19.5827
13.8676
11.6595
10.1251
8.81735
44.7508
19.3266
14.3525
12.2885
10.461
8.94922
44.1705
19.7069
15.3131
13.1816
10.5708
8.37244
43.0322
20.5864
16.6402
13.7574
9.8473
6.97312
42.4045
22.2706
17.4939
13.0975
8.08733
5.02689
42.3145
24.1408
16.7961
10.8824
5.7878
3.18312
42.287
24.6556
14.4246
7.97692
3.77594
1.835
42.141
23.5122
11.6144
5.61228
2.47766
1.08587
41.9983
21.4132
9.54792
4.30852
1.89817
0.827474
42.0543
19.2139
8.57643
4.01254
1.94844
0.94137
42.3331
17.5038
8.56187
4.52611
2.59227
1.5051
43.226
16.6721
9.25547
5.73724
3.87064
2.69424
44.7954
17.1957
10.585
7.4557
5.62675
4.3531
47.2772
18.6914
12.377
9.68077
8.00262
6.55778
36.3502
20.1451
15.078
11.091
8.10592
6.06488
36.5061
19.9503
14.2414
9.91598
6.84102
4.9762
36.1648
19.7913
13.6056
9.11916
5.74394
3.90477
35.4744
20.1969
13.2102
8.33094
4.71722
2.9122
35.2253
20.8677
12.7419
7.27145
3.67964
2.03009
35.6438
21.3045
11.8191
5.94789
2.71592
1.32908
36.4243
21.2537
10.4964
4.65204
1.94934
0.846957
37.0355
20.6836
9.24843
3.7587
1.48781
0.59071
37.0937
19.5142
8.41986
3.35074
1.32183
0.518515
36.677
18.3557
8.18722
3.41822
1.44532
0.613169
36.2201
17.6797
8.4335
3.89275
1.8876
0.933785
36.1598
17.7586
9.38344
4.97714
2.80502
1.63288
36.8385
19.0361
10.9692
6.55155
4.14702
2.72762
38.4476
21.2459
13.2782
8.83075
6.12131
4.33902
52.4034
21.5612
14.9672
12.4739
11.3532
10.801
50.8867
20.3175
14.7432
12.8414
12.161
11.9866
49.4176
19.989
15.1802
13.8206
13.628
13.8475
48.1012
20.5144
16.2019
15.5308
15.898
16.1245
47.1511
21.7388
17.9914
18.0657
18.3157
17.2686
46.4249
23.5568
20.251
20.2616
18.7307
15.2354
45.7432
25.3939
21.3797
19.7399
15.7589
11.0595
45.3167
26.2525
19.8466
16.1013
11.2757
7.23639
45.7653
25.6015
16.6182
11.9511
7.78987
4.94649
46.5899
23.7699
13.8732
9.30574
6.12084
4.17375
47.6185
21.7197
12.3659
8.28816
5.8497
4.48761
49.231
20.4285
11.9259
8.41374
6.56204
5.65858
51.5449
20.8724
12.6121
9.41442
7.86851
7.02462
54.6487
22.4337
14.2275
11.1278
9.76083
8.89896
46.0059
19.9974
15.3484
13.9033
12.9311
11.8708
45.2698
19.2279
15.5076
14.3665
13.3686
12.4905
44.8002
19.0891
16.0586
15.3255
14.2809
13.0537
44.3404
19.5504
17.2167
16.948
15.5136
13.3746
43.9197
20.763
19.1002
18.8377
16.0091
12.2866
43.1265
22.9325
21.0446
19.4529
14.3962
9.85763
42.1736
25.1703
21.1058
17.2157
11.1607
6.95291
41.5581
26.3283
18.5221
13.1977
7.87167
4.65925
41.2133
25.8331
15.2305
9.68157
5.66327
3.38892
41.2686
24.0279
13.0186
7.91035
4.81175
3.10094
41.5298
21.9391
12.0896
7.54773
4.9754
3.53521
42.3299
20.2879
11.9982
8.16404
5.97889
4.7051
43.9013
19.6234
12.6601
9.41339
7.48216
6.20861
46.3262
20.9158
14.1141
11.3239
9.70698
8.37605
37.2475
20.6755
19.0907
18.1782
15.7385
12.599
37.8261
20.6243
19.3767
17.2834
13.898
10.8946
38.3681
20.5597
19.3297
16.8205
12.5733
9.21042
38.3509
20.8197
19.5738
16.6021
11.6552
8.00133
37.6797
21.468
19.8273
16.0575
10.4612
6.62707
36.8996
22.5642
19.4437
14.4378
8.75931
5.16508
36.3222
23.2093
17.6502
11.8609
6.83592
3.83438
35.9776
23.1539
15.2094
9.35405
5.27164
2.90907
35.4509
22.5446
13.2961
7.67971
4.31617
2.43632
34.7984
21.5765
12.3951
7.11714
4.11702
2.4486
34.2535
20.5093
12.2431
7.29829
4.45052
2.83378
34.114
19.9665
12.778
8.28469
5.47789
3.76456
34.5502
20.1407
13.87
9.73854
6.94367
5.07608
35.893
21.296
15.7742
12.1075
9.33298
7.17646
2.45701
1.72272
1.27654
0.994373
0.893328
0.856785
0.900859
1.01669
1.25283
1.62628
2.17084
2.9672
4.46019
7.27991
1.3735
0.989961
0.724773
0.553096
0.484473
0.456782
0.473763
0.535318
0.684156
0.953862
1.38856
2.0768
3.2847
5.2728
0.769643
0.545962
0.389911
0.291488
0.250677
0.233233
0.24001
0.276236
0.37611
0.577702
0.923186
1.47904
2.38234
3.79138
0.434859
0.282525
0.191657
0.140261
0.119272
0.11023
0.114329
0.138689
0.209561
0.361422
0.632348
1.06793
1.74679
2.78278
0.248471
0.136053
0.0843924
0.0601868
0.0508549
0.0472184
0.0510859
0.0694011
0.121645
0.236077
0.446278
0.789334
1.31921
2.14278
0.147128
0.0626578
0.0334387
0.0228509
0.0192296
0.0184408
0.0224457
0.0372919
0.0775471
0.165907
0.331646
0.608653
1.04545
1.73521
0.0959072
0.0304935
0.0126416
0.0078044
0.00655206
0.0070351
0.0111433
0.0241978
0.0578297
0.130892
0.269112
0.504718
0.884997
1.49972
0.0755388
0.0190755
0.0055894
0.0026763
0.00226954
0.00329985
0.00760545
0.0201907
0.0512418
0.11728
0.241377
0.454187
0.802042
1.37202
0.0730214
0.0173577
0.00425825
0.00159088
0.00140222
0.00274715
0.0074907
0.0206676
0.0520281
0.11693
0.236681
0.440673
0.77476
1.32626
0.0864644
0.0222874
0.00649383
0.0030163
0.00267771
0.00432436
0.00988543
0.0246267
0.0583948
0.125983
0.247427
0.451149
0.78293
1.33182
0.124606
0.0381904
0.0150299
0.00911532
0.00801462
0.00999008
0.0170151
0.0346925
0.0731999
0.147193
0.2761
0.488299
0.831744
1.3969
0.22616
0.0838137
0.0396906
0.0274944
0.0242933
0.0265978
0.0363686
0.0596335
0.10699
0.193649
0.339572
0.572973
0.939976
1.52466
0.439673
0.194143
0.10273
0.0753825
0.0677116
0.0704525
0.0853766
0.119186
0.183519
0.296309
0.481867
0.77088
1.21244
1.89058
0.805452
0.410659
0.241041
0.183604
0.168036
0.172977
0.198298
0.252803
0.351594
0.520025
0.793608
1.22255
1.929
3.1522
1.10588
0.82549
0.662782
0.557019
0.535632
0.53784
0.566967
0.618824
0.72455
0.910533
1.2103
1.64634
2.41393
4.05554
0.572435
0.432084
0.344408
0.287003
0.273551
0.273238
0.286788
0.31383
0.37601
0.500312
0.722022
1.08496
1.7448
3.03033
0.304294
0.216753
0.168199
0.139117
0.132242
0.1317
0.138131
0.15361
0.193927
0.282923
0.455977
0.761143
1.30588
2.28196
0.16776
0.103347
0.075511
0.0617975
0.0587586
0.0585834
0.0621564
0.0723877
0.101057
0.168119
0.305551
0.557621
0.998419
1.74788
0.0974829
0.0474733
0.0309527
0.0247493
0.0235025
0.0236538
0.0261743
0.0339652
0.0559242
0.108306
0.218159
0.4241
0.782794
1.38446
0.0618364
0.022254
0.0118187
0.00891754
0.0084165
0.00876574
0.0108846
0.0174401
0.0354375
0.0782747
0.168579
0.339582
0.638308
1.13982
0.0445252
0.0119926
0.00456659
0.00295809
0.0027593
0.00322891
0.00524174
0.0113342
0.0275447
0.0654933
0.14459
0.293725
0.554363
0.992529
0.0376829
0.00852615
0.00223389
0.00103428
0.000958797
0.00153042
0.00364807
0.00989016
0.0259848
0.0626199
0.137058
0.274813
0.512838
0.910133
0.0371057
0.00820808
0.00188062
0.000681282
0.000647589
0.00135229
0.00378376
0.0107105
0.0279573
0.0658593
0.140342
0.274465
0.501645
0.876734
0.0421454
0.0103066
0.00295764
0.00141026
0.00132718
0.00222278
0.00520646
0.0133167
0.0326707
0.0735497
0.150917
0.28604
0.510062
0.876072
0.0548982
0.0166776
0.00704172
0.00450022
0.00410528
0.00523556
0.00911576
0.0190413
0.0414294
0.0865701
0.168707
0.308111
0.535854
0.904929
0.08779
0.034427
0.0193034
0.0143129
0.0129025
0.0142362
0.0196293
0.0325153
0.059483
0.110838
0.200494
0.347758
0.583928
0.962136
0.158728
0.0773037
0.050792
0.0410261
0.0373962
0.0389378
0.0470681
0.0652844
0.100382
0.16331
0.268629
0.435636
0.69354
1.08987
0.288676
0.166275
0.11964
0.102743
0.0966157
0.0996923
0.11383
0.143332
0.196292
0.286154
0.429895
0.649328
0.975818
1.44604
0.439448
0.345792
0.29842
0.273269
0.279054
0.29292
0.315834
0.347466
0.401268
0.494088
0.655524
0.911496
1.33899
2.16181
0.220732
0.169367
0.144691
0.132153
0.135133
0.141926
0.153029
0.169025
0.199445
0.258352
0.370486
0.565783
0.917838
1.60502
0.112769
0.0788966
0.0653428
0.0595894
0.0612168
0.0644974
0.0698727
0.0784238
0.0972636
0.138334
0.223009
0.382651
0.680682
1.24743
0.0603937
0.0351528
0.0271863
0.0245923
0.0253606
0.0268861
0.0296173
0.0348182
0.0477881
0.0785748
0.145654
0.278626
0.529684
0.992537
0.0353781
0.0155372
0.0104435
0.00918381
0.00946817
0.010182
0.0117519
0.0154438
0.0252896
0.0496639
0.10437
0.215871
0.427564
0.811965
0.0236462
0.00744241
0.00383232
0.00311027
0.00318496
0.00356786
0.00465746
0.00766393
0.0158859
0.0364575
0.0829855
0.178566
0.359892
0.686536
0.0182921
0.00438879
0.00150849
0.000989218
0.000997936
0.00127693
0.00222088
0.00503515
0.0127428
0.0318238
0.0743592
0.160635
0.322312
0.609744
0.0163542
0.00346063
0.000818464
0.000352696
0.000352031
0.000631754
0.00162098
0.00460489
0.0126276
0.031934
0.0736193
0.15575
0.306003
0.567192
0.0166438
0.00353948
0.000771946
0.000271253
0.000276647
0.000618457
0.00179954
0.00527127
0.0142899
0.0351278
0.0782767
0.160158
0.305558
0.552128
0.0190014
0.0045417
0.0013044
0.000644009
0.000637243
0.00109646
0.00262242
0.00688344
0.0174367
0.0407104
0.0868662
0.17115
0.316448
0.557259
0.0241829
0.00755543
0.00335372
0.00221143
0.00207179
0.00269431
0.00477234
0.0101789
0.0227726
0.0491767
0.0994448
0.18812
0.33711
0.579445
0.0368447
0.0162818
0.00987296
0.00744274
0.00677915
0.00756765
0.0105756
0.0177957
0.0333002
0.0638848
0.119611
0.214681
0.370814
0.620487
0.0653477
0.0380597
0.0274191
0.0223562
0.0203982
0.0213312
0.0259904
0.0363772
0.056711
0.0940613
0.158676
0.265052
0.434671
0.702115
0.123472
0.0848763
0.0672225
0.0584693
0.0548128
0.0565059
0.0647033
0.0815882
0.111686
0.162736
0.245329
0.374247
0.570993
0.872633
0.187024
0.146511
0.127165
0.121074
0.128255
0.141268
0.16059
0.18599
0.223414
0.281888
0.377244
0.531841
0.792334
1.25956
0.0897677
0.0673096
0.0574297
0.054559
0.058242
0.0644479
0.0734209
0.0855678
0.105151
0.139705
0.202649
0.314328
0.5165
0.901016
0.0438507
0.0293008
0.0240533
0.0228338
0.0246117
0.0274445
0.0315205
0.0374399
0.048391
0.070672
0.116101
0.204072
0.372319
0.698363
0.0228904
0.0122931
0.00929326
0.00875247
0.0095086
0.0107154
0.0125624
0.0156902
0.0225231
0.0382601
0.0731448
0.145043
0.287069
0.562046
0.0134506
0.00525552
0.00334769
0.00305133
0.00332435
0.00381837
0.00471818
0.00663237
0.0114542
0.0234656
0.051441
0.111427
0.232339
0.466438
0.00915494
0.00255703
0.0011867
0.000975401
0.00105671
0.00127585
0.0018069
0.00321505
0.00708163
0.0170676
0.0408104
0.0926183
0.197725
0.400023
0.00725564
0.00161421
0.000485164
0.000300794
0.000320058
0.000453051
0.000874327
0.00214492
0.00574059
0.0150462
0.0370251
0.0846285
0.180102
0.360591
0.00671531
0.00137704
0.000297076
0.000113312
0.000118973
0.000242832
0.000680481
0.00204405
0.00586668
0.0155299
0.0376774
0.0842331
0.175025
0.341784
0.00711864
0.00147826
0.000310241
0.000106525
0.000114971
0.000268857
0.000807435
0.00244867
0.00690318
0.0177348
0.0415128
0.0894549
0.179633
0.339957
0.00845315
0.00197323
0.000569092
0.000293895
0.000303798
0.000524482
0.00125772
0.0033728
0.00883987
0.0215042
0.0480235
0.0991814
0.192024
0.35205
0.0113314
0.00356317
0.00161587
0.00109151
0.0010522
0.00138686
0.00246325
0.00531678
0.0122042
0.027291
0.0574694
0.11338
0.211635
0.376338
0.0185467
0.00847029
0.00515655
0.00388364
0.00359183
0.00409104
0.00580103
0.00989544
0.018881
0.0372637
0.0722746
0.134757
0.241461
0.415759
0.0357281
0.021426
0.0152129
0.0122046
0.0111797
0.0118991
0.0148071
0.0211601
0.0336691
0.0572216
0.0995528
0.172287
0.292744
0.485364
0.0722459
0.0504417
0.0391727
0.0332987
0.0310554
0.0323466
0.0377368
0.0486117
0.0679113
0.100856
0.155551
0.244205
0.385534
0.607593
0.0952902
0.0710238
0.0578792
0.0532684
0.0560366
0.0636351
0.0766462
0.0953259
0.123366
0.166087
0.232899
0.340327
0.5186
0.823408
0.0433789
0.0304865
0.0242696
0.0222997
0.0236609
0.0270028
0.0325694
0.0408075
0.0543401
0.0777425
0.119206
0.192359
0.322519
0.562671
0.0200781
0.0123093
0.0093615
0.00859974
0.00923323
0.0106375
0.0129663
0.0166586
0.0235733
0.0374407
0.0653653
0.119561
0.22292
0.422901
0.0100097
0.00480844
0.00332282
0.00302575
0.00328382
0.00383581
0.00480592
0.00658301
0.0105051
0.0195181
0.039598
0.0816122
0.165884
0.332508
0.00570807
0.00196621
0.00111113
0.000969901
0.00105844
0.00126907
0.00170295
0.00268713
0.00521801
0.0116233
0.0268754
0.0605528
0.130653
0.271246
0.00386288
0.000973392
0.000382479
0.000288686
0.000313108
0.000401973
0.000638976
0.00130305
0.0031913
0.00822613
0.0206405
0.0489111
0.109006
0.230117
0.00315298
0.000668479
0.000169494
8.68808e-05
9.13634e-05
0.000144202
0.000323042
0.000890356
0.00256727
0.00709518
0.0183078
0.0439175
0.0982906
0.206857
0.00309711
0.000624592
0.000121623
3.70195e-05
3.77241e-05
8.75623e-05
0.000271627
0.000871919
0.0026347
0.00731111
0.0186343
0.0439002
0.0963305
0.198501
0.00350905
0.00071262
0.000141258
4.59902e-05
4.93379e-05
0.000114249
0.000346966
0.00108438
0.00318041
0.00854661
0.0210472
0.0478824
0.101634
0.20302
0.0044113
0.000997635
0.000279051
0.000147789
0.000155367
0.000257467
0.000594591
0.00159377
0.00428868
0.0108691
0.0255019
0.0555251
0.113364
0.218677
0.00631055
0.0019302
0.000853124
0.000584375
0.000578077
0.000758844
0.0013084
0.00277231
0.006423
0.0148126
0.032547
0.0673291
0.131838
0.245126
0.0111764
0.00492948
0.00288032
0.00215778
0.00204404
0.00238309
0.00339177
0.00574426
0.0109869
0.0221009
0.0442774
0.085876
0.160256
0.286407
0.0230311
0.0131697
0.00887315
0.0069812
0.00649657
0.00713831
0.00913795
0.0132898
0.021418
0.037019
0.0660764
0.118011
0.207301
0.353598
0.0487586
0.0323152
0.0237429
0.0196022
0.0183672
0.0196755
0.0237978
0.0316633
0.0453582
0.0688073
0.108674
0.175505
0.285542
0.46047
0.0585765
0.0411436
0.0306577
0.0257256
0.0253192
0.028418
0.0354495
0.0471311
0.0665833
0.098267
0.148919
0.229852
0.361266
0.576988
0.0250044
0.0164239
0.0118803
0.00991269
0.00983284
0.0111287
0.013967
0.0188337
0.0276642
0.0438673
0.0732451
0.125258
0.216507
0.380017
0.0107786
0.00609661
0.0041828
0.00348117
0.00350394
0.00402627
0.00515273
0.00722694
0.011476
0.0204332
0.0389024
0.0751422
0.143969
0.275613
0.00501041
0.00218838
0.00134755
0.00110871
0.00113529
0.00133584
0.00178569
0.00273754
0.00500339
0.0104355
0.02285
0.0492943
0.102732
0.208778
0.00272147
0.000847555
0.000414363
0.000322242
0.000334375
0.000411367
0.000607741
0.00111022
0.00248118
0.00608734
0.0149237
0.0349159
0.0773513
0.164094
0.00184896
0.000433499
0.000140967
8.88192e-05
9.16733e-05
0.000125599
0.000231479
0.000553757
0.00151427
0.00417664
0.0109683
0.0269452
0.0620363
0.135263
0.00160886
0.000332859
7.16947e-05
2.70783e-05
2.62934e-05
4.75825e-05
0.000126087
0.000388459
0.00119784
0.00347977
0.0093761
0.0234343
0.0546542
0.120004
0.00172722
0.000344324
6.12941e-05
1.45522e-05
1.33157e-05
3.40939e-05
0.000114162
0.000385677
0.00121794
0.00353375
0.00942831
0.0232751
0.0535693
0.115877
0.002112
0.000418146
7.80825e-05
2.43631e-05
2.49882e-05
5.34525e-05
0.000156935
0.00049528
0.00149821
0.00419462
0.0108205
0.0258644
0.0577593
0.121399
0.00281544
0.000610675
0.000162353
8.76027e-05
9.25462e-05
0.00014286
0.000303575
0.000786494
0.00213689
0.00559372
0.0137028
0.0313161
0.0672235
0.136266
0.00426709
0.0012304
0.000515656
0.000357918
0.000363986
0.000471657
0.000768986
0.00154617
0.00352279
0.00825437
0.0187765
0.0405766
0.0832003
0.161755
0.00793614
0.00325224
0.00179112
0.00133968
0.00131047
0.00156333
0.0022055
0.00363249
0.00680251
0.0137109
0.0280963
0.0564027
0.109343
0.202497
0.0169332
0.00894896
0.00565502
0.00438269
0.00418964
0.00478278
0.00627237
0.00918356
0.0147719
0.025609
0.0463816
0.0848384
0.153215
0.267953
0.036749
0.0225783
0.0155178
0.0124787
0.011887
0.0132479
0.0166647
0.0228295
0.0333055
0.0511952
0.0820007
0.134913
0.224079
0.367715
0.0427444
0.0291103
0.0202432
0.0153696
0.0135632
0.0141265
0.0172725
0.0238393
0.0363768
0.0588371
0.0970594
0.159543
0.2599
0.420249
0.0171832
0.0109236
0.00733411
0.00548842
0.00485023
0.00509413
0.00631029
0.00895205
0.0144573
0.0254673
0.0465209
0.0848498
0.152148
0.27065
0.00688043
0.00376279
0.0023816
0.00175963
0.00157026
0.00168098
0.00215385
0.00325983
0.00584618
0.0117153
0.0243592
0.0498527
0.0986614
0.191287
0.00295548
0.00124658
0.000702343
0.000506492
0.00045876
0.000508756
0.000701133
0.00120907
0.00255943
0.0059904
0.0141158
0.0318629
0.0681784
0.140371
0.00153516
0.000459669
0.000200399
0.000132978
0.000121953
0.000145375
0.000234147
0.000503537
0.001299
0.00348613
0.00901116
0.0218111
0.049434
0.106527
0.00107801
0.000246627
6.91984e-05
3.4221e-05
3.07686e-05
4.34215e-05
9.36669e-05
0.000263417
0.000797782
0.00233631
0.00638344
0.0161567
0.0381243
0.0849761
0.00102645
0.000211628
4.11454e-05
1.1248e-05
8.86399e-06
1.78281e-05
5.49624e-05
0.000186799
0.000612375
0.00186117
0.00520825
0.0134632
0.0324154
0.0734456
0.00120472
0.000238198
4.03118e-05
8.0249e-06
5.93372e-06
1.49424e-05
5.15939e-05
0.000181457
0.000597917
0.00181071
0.00503894
0.0129595
0.0310722
0.0700571
0.00157263
0.000304334
5.45343e-05
1.65345e-05
1.57186e-05
2.88511e-05
7.65203e-05
0.000236927
0.000732584
0.00212901
0.0057364
0.0143611
0.0336397
0.0741951
0.00220162
0.000458192
0.000115628
6.28228e-05
6.60706e-05
9.35719e-05
0.000174468
0.000415981
0.00111048
0.00296622
0.00754297
0.0180373
0.0406304
0.0864906
0.00346214
0.000931557
0.000368124
0.000258549
0.000269374
0.000342847
0.000519706
0.000958546
0.00207486
0.00483179
0.0112446
0.0252271
0.0539588
0.109518
0.00652488
0.00246266
0.00128161
0.000964009
0.000974868
0.00118308
0.00163718
0.00257853
0.00461796
0.00912205
0.0188212
0.038736
0.0775484
0.148371
0.0139468
0.00681686
0.00406995
0.00314161
0.00310224
0.00366288
0.00486353
0.00707147
0.0111787
0.0191272
0.034633
0.064204
0.118395
0.211349
0.0304852
0.0174505
0.0112911
0.00894472
0.00873952
0.0101286
0.0131204
0.0182631
0.0267623
0.0411532
0.0660534
0.109432
0.184092
0.305947
0.0357811
0.0243126
0.0163444
0.0115574
0.00914044
0.00844636
0.00945701
0.0127715
0.0202574
0.035117
0.0625154
0.110099
0.188192
0.312554
0.0137383
0.0087386
0.0056552
0.00390308
0.00305861
0.00283432
0.0032356
0.00457579
0.0078662
0.0151039
0.0299051
0.0583098
0.109722
0.201383
0.00515576
0.00284575
0.00173244
0.00116546
0.000911489
0.000858501
0.0010303
0.00161093
0.0031833
0.00705211
0.015851
0.034386
0.0709502
0.141394
0.00205417
0.000882131
0.000477012
0.000308362
0.00024181
0.000237195
0.000318395
0.000600154
0.00143708
0.00369621
0.00927513
0.0219064
0.0484715
0.102124
0.00102782
0.000310457
0.000127846
7.39894e-05
5.79495e-05
6.27554e-05
0.000106164
0.000262141
0.000757435
0.00218014
0.00589729
0.0147801
0.0344551
0.0758566
0.000753907
0.000172454
4.46308e-05
1.79806e-05
1.33435e-05
1.83101e-05
4.48227e-05
0.000143012
0.000468028
0.00143948
0.00407924
0.0106534
0.0258469
0.0589933
0.000779881
0.000160296
2.95859e-05
6.47452e-06
3.85374e-06
7.99621e-06
2.74046e-05
0.000100271
0.000346322
0.00109803
0.00319015
0.00853837
0.0212384
0.0495827
0.000980352
0.000191209
3.13758e-05
5.69144e-06
3.43272e-06
7.67337e-06
2.59268e-05
9.34222e-05
0.000320302
0.00101306
0.00294473
0.00789928
0.0197149
0.0461375
0.00134236
0.000253285
4.38947e-05
1.3122e-05
1.1877e-05
1.87319e-05
4.27041e-05
0.000124849
0.000389461
0.00117222
0.00329864
0.00863654
0.0211316
0.0485544
0.00194014
0.000387715
9.36314e-05
5.12189e-05
5.40563e-05
7.20681e-05
0.000118309
0.000251129
0.000639096
0.00171604
0.00449391
0.0111677
0.026192
0.0579973
0.00309444
0.000783521
0.000295862
0.000210699
0.000224343
0.000282837
0.000404526
0.000683427
0.00137811
0.00312424
0.00731924
0.0168257
0.0371232
0.0778906
0.00580556
0.00204784
0.00102443
0.000779985
0.000811126
0.000996896
0.00135575
0.00204706
0.00348798
0.00666601
0.013636
0.0283712
0.0580136
0.113795
0.0122978
0.00565775
0.00325049
0.0025242
0.0025641
0.00309846
0.00412979
0.00593066
0.00916934
0.0153742
0.0275562
0.0512194
0.0956288
0.173466
0.0268847
0.0146013
0.00905474
0.00715507
0.0071668
0.00854141
0.0112403
0.0157165
0.0229393
0.0350289
0.0558996
0.092515
0.156661
0.262988
0.0322487
0.02217
0.0147137
0.00994807
0.00723133
0.00596463
0.00598241
0.00758933
0.0120104
0.0216491
0.0408346
0.0766561
0.138601
0.240519
0.0120278
0.00777121
0.0049511
0.00324345
0.00231632
0.00190568
0.00195854
0.00265125
0.00466173
0.00947584