/*--------------------------------*- C++ -*----------------------------------*\
| =========                 |                                                 |
| \\      /  F ield         | OpenFOAM: The Open Source CFD Toolbox           |
|  \\    /   O peration     | Version:  v2106                                 |
|   \\  /    A nd           | Website:  www.openfoam.com                      |
|    \\/     M anipulation  |                                                 |
\*---------------------------------------------------------------------------*/
FoamFile
{
    version     2.0;
    format      ascii;
    arch        "LSB;label=32;scalar=64";
    class       volScalarField;
    location    "0.000192";
    object      rho;
}
// * * * * * * * * * * * * * * * * * * * * * * * * * * * * * * * * * * * * * //

dimensions      [1 -3 0 0 0 0 0];

internalField   nonuniform List<scalar> 
144746
(
2.36151
2.36119
2.35636
2.35232
2.34942
2.3445
2.34143
2.33654
2.33176
2.32766
2.3247
2.32449
2.32372
2.32983
2.3579
2.35837
2.3552
2.35165
2.34817
2.34322
2.33983
2.33538
2.33073
2.32666
2.32405
2.32439
2.32444
2.33177
2.36078
2.35891
2.35543
2.35125
2.34726
2.3429
2.33924
2.33496
2.33033
2.32634
2.32358
2.32324
2.32301
2.32811
2.36161
2.3587
2.35504
2.35103
2.3466
2.3428
2.33886
2.3348
2.33058
2.32703
2.32466
2.32418
2.32445
2.32828
2.36331
2.35951
2.3556
2.35156
2.34732
2.34334
2.33933
2.33534
2.33138
2.32828
2.32617
2.32558
2.32608
2.3292
2.36505
2.36064
2.35673
2.35264
2.34852
2.34444
2.34051
2.33674
2.33299
2.33021
2.3284
2.3279
2.32834
2.33065
2.36746
2.36211
2.3578
2.35352
2.34949
2.3458
2.34213
2.33865
2.33526
2.33273
2.33078
2.33014
2.33066
2.33214
2.36949
2.36399
2.35913
2.35488
2.35094
2.34742
2.34399
2.34069
2.33755
2.33497
2.33325
2.33236
2.33218
2.33312
2.37193
2.36594
2.36058
2.35619
2.35238
2.3491
2.34591
2.34266
2.33967
2.33711
2.33519
2.33392
2.33345
2.33389
2.37396
2.36781
2.3622
2.3576
2.35395
2.35082
2.34788
2.34469
2.34179
2.33926
2.33732
2.3358
2.33501
2.33474
2.37688
2.37088
2.36482
2.35974
2.3557
2.35261
2.34988
2.34683
2.34395
2.34146
2.33959
2.33804
2.33721
2.33608
2.38051
2.37412
2.3683
2.36239
2.35804
2.35482
2.35218
2.34945
2.34669
2.34447
2.34308
2.34204
2.34213
2.34014
2.38448
2.37723
2.37209
2.36617
2.3614
2.3581
2.35556
2.35304
2.35031
2.34814
2.34664
2.34521
2.34515
2.34183
2.38541
2.37651
2.37442
2.36974
2.36603
2.36275
2.3608
2.35852
2.35594
2.3541
2.35307
2.35306
2.35582
2.35248
2.36912
2.36927
2.36698
2.36441
2.36285
2.35987
2.35791
2.35443
2.35078
2.34797
2.34568
2.34542
2.34213
2.34531
2.36822
2.36788
2.36584
2.36361
2.36155
2.35864
2.35628
2.3531
2.34968
2.3472
2.34552
2.34562
2.34403
2.34697
2.36891
2.36691
2.36454
2.36216
2.35974
2.35719
2.35471
2.35179
2.34883
2.34662
2.34495
2.34463
2.34373
2.34538
2.36739
2.36477
2.36254
2.36026
2.35801
2.3558
2.35342
2.35084
2.34843
2.34675
2.34557
2.34542
2.34523
2.34641
2.36749
2.36474
2.36191
2.35955
2.35731
2.35516
2.35285
2.35058
2.34859
2.3472
2.34628
2.34608
2.34638
2.34779
2.3668
2.36406
2.36148
2.3593
2.35724
2.35513
2.35305
2.35096
2.34929
2.34819
2.3478
2.3481
2.34863
2.34989
2.36696
2.36438
2.36176
2.35973
2.35768
2.35565
2.35376
2.35185
2.3503
2.34931
2.34899
2.34901
2.34974
2.35068
2.36774
2.36507
2.36265
2.36049
2.35848
2.35647
2.35469
2.35292
2.35142
2.35056
2.35032
2.35064
2.35114
2.35199
2.36869
2.36588
2.36344
2.36143
2.35944
2.35744
2.3557
2.35409
2.35255
2.35168
2.35134
2.35162
2.35199
2.35263
2.37091
2.36749
2.36471
2.36259
2.36068
2.35872
2.35683
2.35523
2.35366
2.35278
2.35232
2.35245
2.35264
2.35281
2.37343
2.36983
2.36646
2.36424
2.36224
2.36024
2.35805
2.35635
2.35487
2.35401
2.3535
2.35329
2.3533
2.35281
2.37746
2.37272
2.36934
2.36623
2.36409
2.36192
2.35966
2.35791
2.3564
2.35565
2.35517
2.35507
2.3554
2.35429
2.38105
2.37562
2.37227
2.36902
2.36674
2.36454
2.36211
2.36021
2.3585
2.35752
2.35673
2.35609
2.35566
2.35292
2.38301
2.37773
2.37584
2.37278
2.37021
2.36791
2.36551
2.36381
2.36186
2.36059
2.35965
2.35944
2.35977
2.35864
2.37356
2.37466
2.37319
2.3704
2.36871
2.36657
2.36387
2.36088
2.35771
2.35458
2.35181
2.3494
2.34579
2.34343
2.3753
2.37402
2.37249
2.36986
2.36812
2.36572
2.36295
2.35995
2.35703
2.35471
2.35285
2.3516
2.34871
2.34713
2.37531
2.37369
2.37158
2.36904
2.36718
2.36459
2.36176
2.35882
2.3562
2.35424
2.35242
2.3509
2.34828
2.34674
2.37508
2.37359
2.37113
2.36887
2.36662
2.36396
2.36116
2.35829
2.3557
2.35359
2.35189
2.35059
2.34874
2.3472
2.37576
2.37379
2.3717
2.36919
2.36689
2.36415
2.36133
2.35841
2.35574
2.35347
2.35168
2.35047
2.34928
2.34826
2.37676
2.37469
2.37265
2.37009
2.36775
2.36497
2.36217
2.35924
2.35648
2.35406
2.35208
2.35071
2.34984
2.34946
2.37767
2.37579
2.37366
2.37128
2.36897
2.36627
2.36352
2.36061
2.35784
2.35544
2.3535
2.35229
2.35147
2.35104
2.37904
2.37708
2.37483
2.37245
2.37024
2.36765
2.36493
2.36207
2.3593
2.3569
2.35504
2.35398
2.35339
2.35321
2.38057
2.37849
2.37619
2.37374
2.37154
2.36906
2.36636
2.36355
2.36084
2.35852
2.35681
2.35585
2.3554
2.35527
2.38262
2.3803
2.37773
2.37509
2.37279
2.37035
2.36769
2.36495
2.36239
2.36023
2.35869
2.35769
2.35711
2.35703
2.38516
2.38224
2.37944
2.37666
2.37407
2.37164
2.36904
2.36641
2.36389
2.36178
2.36049
2.35943
2.35873
2.35823
2.38886
2.38443
2.38117
2.37833
2.37555
2.37304
2.37039
2.36775
2.36522
2.36321
2.36225
2.36161
2.36135
2.36001
2.39252
2.38729
2.38378
2.38059
2.37757
2.37478
2.37198
2.36922
2.36667
2.36492
2.36366
2.36271
2.36244
2.35985
2.39428
2.38951
2.38646
2.38332
2.38016
2.37698
2.37392
2.37132
2.36898
2.36772
2.36677
2.36668
2.36607
2.36366
2.34533
2.35854
2.3636
2.37531
2.38267
2.39705
2.32798
2.34177
2.35257
2.37118
2.3811
2.40554
2.32955
2.34353
2.3539
2.37305
2.38351
2.40764
2.33078
2.34222
2.35206
2.37103
2.38189
2.40828
2.33289
2.34332
2.3536
2.37233
2.3831
2.40973
2.33431
2.34288
2.35314
2.37113
2.38309
2.4071
2.33492
2.34331
2.35283
2.36905
2.38119
2.40383
2.33545
2.34244
2.35095
2.36507
2.37571
2.39641
2.33575
2.34199
2.34986
2.3625
2.37075
2.39151
2.3365
2.34156
2.34911
2.36136
2.3671
2.38718
2.338
2.34402
2.35261
2.36444
2.36918
2.38753
2.34227
2.34796
2.35645
2.36902
2.37425
2.39034
2.34818
2.35501
2.36383
2.37716
2.38259
2.39789
2.3475
2.35566
2.36921
2.38708
2.39509
2.40976
2.35488
2.36366
2.36449
2.37086
2.37192
2.38299
2.3408
2.34925
2.35564
2.36822
2.37014
2.39184
2.34438
2.35207
2.35886
2.37217
2.37412
2.39713
2.34685
2.3526
2.3586
2.37113
2.37604
2.39773
2.3498
2.35526
2.36142
2.37457
2.3793
2.39884
2.35159
2.35634
2.36225
2.375
2.37911
2.3984
2.35242
2.3579
2.36303
2.3747
2.37767
2.39665
2.35328
2.35786
2.36154
2.37052
2.37234
2.38986
2.35365
2.35733
2.3595
2.3667
2.36626
2.38467
2.35367
2.35584
2.35685
2.36289
2.36039
2.3791
2.35351
2.35439
2.35577
2.36225
2.35894
2.37744
2.35411
2.35409
2.35517
2.36181
2.36059
2.37551
2.35469
2.35596
2.35805
2.36624
2.36685
2.37987
2.34651
2.3483
2.35339
2.36789
2.37435
2.38771
2.35072
2.35722
2.35565
2.35383
2.35705
2.35572
2.33824
2.33969
2.34167
2.34914
2.35364
2.36655
2.3417
2.34162
2.344
2.35451
2.36011
2.37856
2.34464
2.34345
2.34495
2.35511
2.36198
2.38214
2.3474
2.34691
2.3493
2.3608
2.36925
2.38891
2.34939
2.34994
2.353
2.3645
2.37137
2.39083
2.35092
2.35301
2.3567
2.36847
2.37493
2.39776
2.35346
2.35559
2.35917
2.36953
2.37559
2.39592
2.35577
2.35781
2.3608
2.36927
2.37315
2.39596
2.35753
2.35883
2.36073
2.36608
2.36776
2.39132
2.3587
2.35887
2.35986
2.36352
2.36489
2.38745
2.36043
2.35922
2.35908
2.36175
2.36309
2.37956
2.36139
2.35991
2.35971
2.36361
2.36631
2.38034
2.35182
2.3509
2.35147
2.35899
2.3674
2.38178
2.36681
2.38025
2.38556
2.39795
2.40573
2.41907
2.35034
2.36581
2.37641
2.39526
2.40401
2.42662
2.35477
2.37027
2.38078
2.40057
2.40738
2.43506
2.35751
2.3704
2.38112
2.40053
2.40877
2.43722
2.36113
2.37323
2.38519
2.40495
2.41264
2.44203
2.3637
2.37522
2.3872
2.4062
2.41433
2.44104
2.36665
2.37801
2.38939
2.40822
2.41686
2.44132
2.36849
2.37854
2.38971
2.40726
2.41647
2.43661
2.36975
2.37958
2.38966
2.40542
2.41305
2.43439
2.37201
2.38005
2.38731
2.40019
2.40803
2.43004
2.37476
2.3811
2.3874
2.39804
2.40483
2.42395
2.37767
2.38145
2.38582
2.3952
2.40172
2.42377
2.38171
2.38619
2.39022
2.39873
2.4042
2.41519
2.37881
2.38319
2.39045
2.40287
2.40852
2.41441
2.36591
2.37451
2.37499
2.38211
2.3844
2.39583
2.35373
2.36202
2.3661
2.37887
2.38247
2.4029
2.35862
2.36564
2.371
2.38573
2.38833
2.41353
2.36133
2.36742
2.37384
2.38838
2.39278
2.41655
2.3645
2.3708
2.37906
2.3945
2.39949
2.42371
2.36667
2.37388
2.38327
2.39887
2.4052
2.42447
2.36945
2.37741
2.38671
2.40293
2.40886
2.42747
2.3709
2.37956
2.3891
2.40441
2.40952
2.42491
2.37358
2.38195
2.39056
2.40407
2.40668
2.42313
2.37537
2.3829
2.38982
2.40024
2.40138
2.41969
2.37757
2.38379
2.38888
2.39615
2.39821
2.41391
2.37955
2.38405
2.38678
2.39153
2.39503
2.40935
2.38229
2.38597
2.38814
2.39218
2.39363
2.4041
2.37803
2.38017
2.38296
2.38959
2.39273
2.40066
2.37105
2.37636
2.37712
2.37995
2.38048
2.38901
2.36221
2.36648
2.3679
2.3751
2.37842
2.3921
2.36577
2.36925
2.37153
2.38133
2.38618
2.40362
2.36759
2.37111
2.37516
2.38645
2.39335
2.41134
2.37018
2.37414
2.38038
2.39426
2.40378
2.4255
2.37252
2.37791
2.38641
2.40208
2.4132
2.43209
2.37484
2.38109
2.39131
2.40826
2.41932
2.44012
2.37815
2.38552
2.39596
2.4137
2.42392
2.4434
2.38163
2.39026
2.40024
2.41698
2.42499
2.44254
2.38499
2.39408
2.40307
2.41749
2.42347
2.43978
2.38883
2.39693
2.40455
2.41542
2.42101
2.43281
2.39243
2.39861
2.40426
2.41018
2.41426
2.42023
2.39617
2.40002
2.40334
2.40572
2.40813
2.41161
2.39271
2.39516
2.39747
2.39937
2.40055
2.4009
2.39078
2.38501
2.38134
2.3717
2.36337
2.35872
2.3967
2.38773
2.38124
2.3738
2.36854
2.36475
2.41152
2.38925
2.38118
2.37266
2.36656
2.36409
2.42005
2.39838
2.38909
2.3779
2.37052
2.36614
2.42579
2.40488
2.39628
2.38325
2.37456
2.36852
2.42735
2.41214
2.40345
2.38896
2.37896
2.37111
2.4307
2.4173
2.40858
2.39331
2.38309
2.37415
2.43605
2.42052
2.41123
2.39546
2.38575
2.37631
2.43542
2.41784
2.41015
2.39561
2.38773
2.37898
2.43701
2.4165
2.4097
2.39646
2.38903
2.38068
2.43423
2.41094
2.407
2.39563
2.38954
2.38192
2.43322
2.41099
2.40828
2.39652
2.39112
2.3831
2.42494
2.40954
2.40729
2.39634
2.39081
2.38126
2.42177
2.41284
2.4119
2.40566
2.40352
2.39354
2.37684
2.37153
2.36934
2.3638
2.36103
2.36338
2.38663
2.37797
2.37612
2.37273
2.37119
2.37167
2.39435
2.38443
2.38125
2.37548
2.37237
2.37127
2.40794
2.39185
2.38719
2.38022
2.37527
2.37187
2.41042
2.39894
2.39334
2.38367
2.37638
2.37156
2.41338
2.40602
2.39768
2.38612
2.37721
2.37113
2.41784
2.40869
2.39841
2.38587
2.37711
2.37109
2.41934
2.40881
2.39815
2.38572
2.37769
2.37186
2.41702
2.4057
2.39653
2.38512
2.3783
2.37271
2.41393
2.4026
2.39513
2.38569
2.38032
2.37521
2.40945
2.39819
2.3934
2.3854
2.38117
2.37659
2.40722
2.39554
2.3935
2.38685
2.38402
2.37965
2.40217
2.39428
2.39277
2.38741
2.38506
2.37988
2.40323
2.39725
2.39855
2.39583
2.39566
2.38952
2.32999
2.34807
2.35032
2.35704
2.36109
2.36766
2.34644
2.36203
2.36643
2.37276
2.37477
2.37868
2.35963
2.37297
2.37666
2.37991
2.37799
2.37853
2.37894
2.38698
2.38574
2.38538
2.38036
2.37925
2.38758
2.39583
2.39104
2.38803
2.38108
2.37909
2.3936
2.4007
2.39313
2.38897
2.38176
2.37923
2.39435
2.40128
2.39247
2.38848
2.38239
2.37992
2.39344
2.40083
2.39108
2.388
2.3836
2.38135
2.38993
2.39806
2.38949
2.38776
2.38511
2.38301
2.38822
2.3962
2.38949
2.38908
2.38744
2.38515
2.38876
2.39552
2.39104
2.39146
2.3904
2.38804
2.39154
2.3979
2.39533
2.39565
2.39465
2.39151
2.3963
2.40032
2.39924
2.39886
2.39789
2.394
2.40172
2.40463
2.40685
2.40754
2.40656
2.40176
2.38892
2.37647
2.3688
2.35358
2.33992
2.33121
2.38136
2.36735
2.36116
2.34991
2.34045
2.33374
2.37843
2.36308
2.35679
2.34597
2.33648
2.32977
2.38204
2.36305
2.35672
2.3453
2.33551
2.32943
2.38674
2.36563
2.35754
2.34616
2.33745
2.33125
2.3951
2.37389
2.36276
2.3495
2.34083
2.33474
2.40194
2.37967
2.36814
2.35361
2.3452
2.33902
2.40433
2.38293
2.37351
2.35857
2.35062
2.34397
2.40622
2.38577
2.37632
2.36053
2.35297
2.34642
2.4081
2.38554
2.37757
2.36276
2.35725
2.35151
2.40509
2.38177
2.37737
2.36382
2.35845
2.35272
2.40609
2.37921
2.38002
2.36818
2.36302
2.35552
2.39807
2.37992
2.38017
2.36988
2.36399
2.35531
2.39461
2.38498
2.38586
2.38165
2.38007
2.37177
2.37416
2.36421
2.36105
2.34804
2.34102
2.33912
2.37264
2.35749
2.3571
2.35151
2.34803
2.34707
2.37108
2.35574
2.3553
2.34942
2.34627
2.3465
2.37822
2.35872
2.35903
2.35245
2.34887
2.34795
2.38406
2.36433
2.36266
2.35609
2.35218
2.35004
2.39193
2.37458
2.36966
2.36138
2.35634
2.35317
2.39291
2.38098
2.37498
2.36525
2.35991
2.35636
2.39766
2.38601
2.37893
2.36784
2.36324
2.35986
2.39873
2.38501
2.37846
2.36785
2.36409
2.36104
2.3976
2.38221
2.37665
2.36718
2.36521
2.36364
2.39307
2.37599
2.37317
2.36564
2.36439
2.36367
2.38941
2.37215
2.37215
2.36568
2.36502
2.36471
2.38619
2.36663
2.3693
2.36508
2.36439
2.36315
2.37834
2.37367
2.37698
2.37611
2.37751
2.37454
2.34304
2.34196
2.33217
2.32661
2.32366
2.33147
2.34354
2.34414
2.33931
2.33988
2.34065
2.34707
2.3429
2.34371
2.3408
2.34157
2.343
2.34888
2.35224
2.34695
2.34613
2.34686
2.34786
2.35209
2.35429
2.35481
2.35243
2.35317
2.35245
2.35513
2.35671
2.3642
2.35821
2.35903
2.35715
2.35859
2.35882
2.36741
2.36094
2.36223
2.36068
2.36169
2.36097
2.368
2.36219
2.36408
2.36343
2.36444
2.35989
2.36601
2.36134
2.36371
2.3647
2.36669
2.35836
2.36466
2.36009
2.36319
2.36524
2.36811
2.35326
2.36045
2.35795
2.36242
2.36572
2.36947
2.34406
2.35601
2.35697
2.363
2.36694
2.37066
2.33699
2.35295
2.35596
2.36309
2.3675
2.37062
2.33416
2.3532
2.36233
2.3731
2.37754
2.37815
2.40051
2.39776
2.39257
2.38799
2.38453
2.38027
2.37636
2.37228
2.36848
2.36482
2.36141
2.35838
2.35626
2.35386
2.39915
2.39417
2.38938
2.38567
2.38217
2.37825
2.37443
2.37037
2.36644
2.36281
2.35953
2.35719
2.35528
2.35371
2.39635
2.39176
2.38741
2.38389
2.38043
2.3767
2.37288
2.36891
2.36502
2.36145
2.35843
2.35615
2.35381
2.35224
2.39457
2.39077
2.38688
2.38333
2.3798
2.37601
2.3721
2.36809
2.36418
2.36047
2.35741
2.35482
2.35299
2.35111
2.39367
2.39032
2.3867
2.3832
2.37968
2.37593
2.37207
2.36807
2.36416
2.36036
2.35716
2.35419
2.35236
2.35042
2.39336
2.39004
2.38667
2.38324
2.3798
2.37615
2.37237
2.36837
2.36447
2.3606
2.35726
2.35422
2.35246
2.35046
2.39324
2.38982
2.38666
2.38341
2.38016
2.37664
2.37291
2.3689
2.36498
2.36109
2.35774
2.35479
2.35316
2.35142
2.39362
2.39001
2.38684
2.38367
2.38054
2.37712
2.37345
2.36948
2.36553
2.3617
2.35839
2.35558
2.35394
2.35244
2.39429
2.39047
2.38717
2.38399
2.3809
2.37755
2.37393
2.37004
2.36612
2.3624
2.35918
2.35653
2.35504
2.35386
2.39579
2.39149
2.38779
2.38448
2.38129
2.37794
2.37433
2.37051
2.36665
2.363
2.35986
2.35735
2.35597
2.35513
2.39782
2.39293
2.38871
2.38514
2.38168
2.37825
2.37462
2.37087
2.3671
2.36353
2.36045
2.35821
2.3569
2.35632
2.40061
2.39467
2.38991
2.38604
2.38227
2.37868
2.37501
2.37128
2.36752
2.36399
2.36114
2.35931
2.35844
2.35814
2.4041
2.3976
2.39203
2.38767
2.3834
2.37943
2.37545
2.37162
2.36786
2.36443
2.3619
2.36036
2.36
2.35848
2.40696
2.39999
2.39403
2.38914
2.3845
2.38033
2.37631
2.37267
2.36944
2.367
2.36549
2.3647
2.36448
2.36183
2.41101
2.40643
2.40196
2.39663
2.39234
2.38766
2.38306
2.3784
2.37372
2.36924
2.36497
2.36141
2.35847
2.35621
2.40935
2.4042
2.39957
2.39495
2.39068
2.38612
2.38144
2.3767
2.37183
2.36703
2.36238
2.35833
2.35509
2.35391
2.40768
2.40297
2.39852
2.39402
2.38967
2.38516
2.38054
2.37596
2.37124
2.36632
2.36133
2.35662
2.35318
2.35231
2.40654
2.40202
2.39791
2.39356
2.38921
2.3847
2.38012
2.37552
2.37076
2.36575
2.36072
2.35586
2.35209
2.35051
2.40573
2.4013
2.39736
2.39315
2.38888
2.38448
2.38
2.3754
2.37066
2.3656
2.36051
2.35569
2.35194
2.34987
2.40508
2.40082
2.39707
2.39312
2.38904
2.38472
2.38022
2.37552
2.37068
2.36559
2.36049
2.35578
2.35204
2.34967
2.40465
2.40044
2.39679
2.39305
2.38917
2.38498
2.38051
2.37575
2.37079
2.36568
2.36064
2.35614
2.35254
2.35011
2.40463
2.40035
2.39664
2.3929
2.38908
2.38494
2.38051
2.37578
2.37087
2.36584
2.3609
2.35655
2.35304
2.35072
2.40501
2.40058
2.39666
2.39282
2.38896
2.3848
2.38038
2.37568
2.37081
2.36593
2.36118
2.35702
2.35357
2.35151
2.40604
2.40116
2.39688
2.39284
2.38885
2.38464
2.38022
2.37555
2.37075
2.36597
2.3614
2.35745
2.35418
2.35233
2.4076
2.40216
2.39741
2.39303
2.38879
2.38444
2.37997
2.37534
2.37064
2.36604
2.36171
2.35793
2.35503
2.35324
2.40964
2.40336
2.398
2.39329
2.38874
2.38425
2.37978
2.37524
2.3707
2.36623
2.36218
2.35863
2.35629
2.35472
2.41225
2.40555
2.39953
2.3943
2.38922
2.38437
2.3797
2.37515
2.37072
2.36651
2.36277
2.35977
2.35763
2.35579
2.4144
2.40708
2.40039
2.39487
2.38958
2.38462
2.37995
2.37557
2.37153
2.36797
2.36494
2.36261
2.36072
2.35795
2.42732
2.42227
2.41717
2.41138
2.40593
2.4004
2.3948
2.3892
2.3837
2.37831
2.37327
2.36855
2.36463
2.36129
2.42525
2.41959
2.41482
2.4096
2.40424
2.39869
2.39302
2.38738
2.38175
2.37602
2.37038
2.36508
2.36082
2.35825
2.42275
2.4175
2.41284
2.40785
2.40267
2.39732
2.39186
2.38644
2.38093
2.37513
2.36916
2.36328
2.3584
2.35565
2.42093
2.41598
2.41145
2.40663
2.40159
2.39634
2.39104
2.38569
2.38018
2.37429
2.36816
2.36213
2.357
2.35357
2.41952
2.41479
2.41043
2.40583
2.40099
2.39587
2.39061
2.38517
2.37958
2.37361
2.36743
2.36137
2.35612
2.35233
2.41834
2.4137
2.40948
2.40511
2.40051
2.39556
2.39037
2.38489
2.37912
2.37301
2.36683
2.36081
2.35555
2.35159
2.41746
2.41282
2.40861
2.40437
2.39992
2.39511
2.39001
2.38455
2.37874
2.3726
2.36644
2.36049
2.3553
2.35133
2.41687
2.41211
2.40779
2.40354
2.39913
2.39438
2.38934
2.38393
2.37818
2.37214
2.36613
2.36038
2.3553
2.35127
2.41673
2.41173
2.40717
2.40276
2.39824
2.39342
2.38838
2.38303
2.3774
2.37159
2.36582
2.36035
2.3555
2.35152
2.41696
2.41156
2.40666
2.40203
2.39734
2.39243
2.38736
2.38206
2.37657
2.37099
2.36551
2.36036
2.35579
2.35184
2.41767
2.41187
2.40658
2.40156
2.39656
2.39146
2.38633
2.38108
2.37574
2.37042
2.36523
2.36036
2.35605
2.35227
2.41859
2.41225
2.40639
2.40098
2.39569
2.39048
2.3854
2.3803
2.37518
2.37009
2.36517
2.36052
2.35631
2.35281
2.42021
2.4134
2.40706
2.40115
2.3954
2.38985
2.38461
2.37949
2.37453
2.36972
2.36507
2.36073
2.35689
2.3535
2.42127
2.41328
2.40644
2.40042
2.3947
2.38926
2.38408
2.37913
2.37449
2.37011
2.36596
2.36219
2.3588
2.35528
2.43672
2.43255
2.42778
2.42253
2.41689
2.41101
2.40497
2.39893
2.3928
2.38667
2.38057
2.37465
2.36943
2.36478
2.4349
2.43028
2.42558
2.42046
2.41502
2.40921
2.40321
2.3972
2.39101
2.38474
2.3783
2.37207
2.36639
2.36243
2.43258
2.42807
2.42352
2.41855
2.4132
2.4075
2.40163
2.39576
2.38973
2.38357
2.37709
2.37062
2.36468
2.36003
2.43101
2.42648
2.42204
2.41718
2.41197
2.40636
2.40053
2.39464
2.38859
2.38239
2.37585
2.36928
2.36318
2.35819
2.42943
2.42491
2.42056
2.41587
2.41088
2.40545
2.39973
2.39383
2.38768
2.38129
2.37469
2.36805
2.36185
2.35656
2.42801
2.42343
2.4191
2.41455
2.40972
2.40449
2.39891
2.39305
2.38689
2.38039
2.37371
2.36697
2.3607
2.35517
2.4268
2.42211
2.41774
2.41323
2.40849
2.40337
2.3979
2.39209
2.38598
2.37949
2.37286
2.36617
2.35995
2.3543
2.42588
2.42099
2.4165
2.41194
2.40719
2.40208
2.39667
2.39092
2.38488
2.3785
2.37201
2.36548
2.35934
2.3537
2.42537
2.42023
2.41549
2.41072
2.40582
2.40064
2.39521
2.38949
2.38358
2.37741
2.37115
2.36488
2.35888
2.35334
2.42505
2.41956
2.41449
2.40947
2.40438
2.39908
2.39362
2.38799
2.38225
2.37635
2.37035
2.36435
2.35855
2.35319
2.42507
2.4192
2.41373
2.40832
2.40289
2.39742
2.39193
2.3864
2.38085
2.37519
2.36948
2.36379
2.35824
2.3531
2.42504
2.41862
2.41269
2.40695
2.40129
2.39576
2.39036
2.38503
2.37969
2.37425
2.36882
2.3634
2.35807
2.35301
2.42564
2.41867
2.4122
2.40597
2.39997
2.39424
2.38879
2.38354
2.3784
2.37328
2.36815
2.36304
2.35788
2.35283
2.42532
2.4174
2.41045
2.40423
2.39833
2.39283
2.38758
2.38254
2.37772
2.37295
2.36821
2.36319
2.35833
2.35323
2.44475
2.44056
2.43595
2.43122
2.42613
2.42063
2.41462
2.40826
2.40167
2.39505
2.38834
2.38162
2.37556
2.37002
2.44275
2.43866
2.4343
2.42957
2.42433
2.41859
2.41253
2.40619
2.39961
2.39293
2.3861
2.37931
2.37303
2.36776
2.44079
2.43659
2.43227
2.42763
2.42251
2.41683
2.41075
2.40441
2.39787
2.39123
2.38441
2.3777
2.37136
2.36594
2.43907
2.43486
2.43062
2.42603
2.42099
2.41537
2.4093
2.40292
2.39633
2.38961
2.38274
2.37595
2.36952
2.36378
2.43737
2.43298
2.42872
2.42422
2.41931
2.41384
2.40791
2.4016
2.395
2.3882
2.38127
2.37433
2.36778
2.36181
2.43567
2.43121
2.42692
2.42243
2.41757
2.4122
2.4064
2.40021
2.39368
2.38687
2.37991
2.3729
2.36626
2.36007
2.43427
2.42964
2.42525
2.42068
2.4158
2.41046
2.40475
2.39867
2.39224
2.38551
2.37859
2.37162
2.36499
2.35879
2.43321
2.42837
2.42378
2.41903
2.41403
2.40865
2.40298
2.397
2.39069
2.38411
2.37733
2.3705
2.36394
2.35781
2.43251
2.42739
2.42251
2.41745
2.41222
2.40673
2.40106
2.39518
2.38903
2.38268
2.37613
2.36955
2.36311
2.35705
2.43189
2.4264
2.42116
2.41575
2.41031
2.40474
2.39911
2.39335
2.38742
2.38136
2.37508
2.36881
2.3625
2.35652
2.43134
2.42539
2.41965
2.41384
2.40814
2.40248
2.39687
2.39132
2.38566
2.37994
2.37401
2.36808
2.36194
2.35598
2.43036
2.42381
2.41764
2.41155
2.40573
2.40014
2.39474
2.38947
2.38412
2.37867
2.37304
2.36734
2.36138
2.35535
2.42946
2.42241
2.41575
2.40935
2.40339
2.39783
2.3926
2.38753
2.38246
2.37731
2.37194
2.36646
2.3606
2.35442
2.42736
2.41954
2.41286
2.40668
2.401
2.39574
2.39083
2.38604
2.38126
2.37639
2.37146
2.366
2.36001
2.35356
2.4511
2.44689
2.44256
2.43818
2.43344
2.4283
2.42266
2.41634
2.40965
2.4028
2.39575
2.38882
2.38199
2.37574
2.44881
2.44504
2.44095
2.4366
2.43174
2.42631
2.42037
2.41398
2.40724
2.4003
2.39331
2.38623
2.37957
2.37339
2.44697
2.44292
2.43884
2.43453
2.42977
2.42441
2.41849
2.41205
2.40528
2.39831
2.39129
2.38427
2.37755
2.37163
2.44497
2.44092
2.43683
2.43255
2.42783
2.42248
2.41656
2.41011
2.40331
2.39631
2.38919
2.38211
2.37529
2.3691
2.44311
2.43885
2.43467
2.43032
2.42558
2.42031
2.41448
2.40813
2.40137
2.39437
2.3872
2.38005
2.37315
2.36684
2.44141
2.43699
2.43264
2.42815
2.42333
2.41801
2.41223
2.40599
2.39935
2.39241
2.38523
2.37801
2.37106
2.3647
2.44012
2.43543
2.43088
2.42612
2.42109
2.41567
2.4099
2.40376
2.39726
2.39043
2.38331
2.37612
2.36922
2.36292
2.43909
2.43412
2.42928
2.4242
2.41892
2.41336
2.40758
2.40153
2.39516
2.38847
2.38148
2.37442
2.36765
2.36149
2.43826
2.43287
2.42769
2.42224
2.41672
2.41104
2.40528
2.39934
2.39311
2.38661
2.37985
2.37306
2.36646
2.36041
2.43717
2.43133
2.42579
2.42003
2.41439
2.40872
2.40307
2.39731
2.39129
2.38504
2.37854
2.37206
2.3656
2.35964
2.43574
2.42938
2.42341
2.41741
2.41173
2.40615
2.40064
2.39507
2.38935
2.38345
2.37734
2.37122
2.36492
2.35895
2.4333
2.42656
2.4204
2.41435
2.40877
2.40343
2.39825
2.39304
2.38768
2.38214
2.37636
2.37055
2.36433
2.35809
2.43059
2.42362
2.41728
2.41124
2.40577
2.40068
2.39576
2.39088
2.38586
2.38065
2.37519
2.36946
2.36344
2.3569
2.42669
2.41949
2.41349
2.40794
2.40287
2.39819
2.39372
2.38925
2.3846
2.37966
2.37434
2.36882
2.36264
2.35547
2.45625
2.45183
2.44759
2.44341
2.43905
2.43436
2.42924
2.42344
2.41716
2.41053
2.4037
2.39678
2.3902
2.38267
2.45365
2.44977
2.44577
2.44165
2.43724
2.43236
2.42693
2.42091
2.41443
2.40768
2.40086
2.39393
2.38756
2.38058
2.45162
2.44754
2.4435
2.43942
2.43503
2.43014
2.42471
2.41866
2.41214
2.40533
2.39846
2.3915
2.3851
2.3784
2.44957
2.44544
2.44131
2.43716
2.4327
2.42773
2.42219
2.4161
2.40958
2.40279
2.39588
2.38886
2.38223
2.37561
2.44777
2.4434
2.43911
2.43475
2.43007
2.42497
2.4194
2.41334
2.40688
2.40012
2.39319
2.38613
2.37938
2.37285
2.44635
2.4417
2.43709
2.43232
2.42736
2.42205
2.41639
2.41036
2.404
2.39732
2.39041
2.38332
2.37653
2.37004
2.44521
2.44017
2.4352
2.43005
2.4247
2.41915
2.4134
2.40739
2.40112
2.39453
2.38767
2.38061
2.3738
2.36746
2.44405
2.43861
2.43327
2.42776
2.42214
2.4164
2.41058
2.40458
2.39835
2.39183
2.38503
2.37808
2.37128
2.36524
2.44267
2.43678
2.43116
2.42535
2.41961
2.4138
2.40798
2.40202
2.39583
2.38939
2.38271
2.37597
2.36941
2.36353
2.44061
2.43438
2.42857
2.42264
2.41696
2.4113
2.40565
2.39985
2.39381
2.38748
2.38094
2.37439
2.36798
2.36219
2.43784
2.43136
2.42544
2.41956
2.41408
2.40868
2.40327
2.39768
2.39185
2.3858
2.37955
2.37329
2.36699
2.36114
2.43412
2.42761
2.42179
2.4161
2.41092
2.4059
2.40088
2.39569
2.39024
2.38452
2.37857
2.37256
2.36629
2.36019
2.4304
2.42381
2.41807
2.4126
2.4077
2.40305
2.39834
2.39349
2.38841
2.38306
2.37743
2.37167
2.36553
2.35912
2.42533
2.41907
2.41396
2.40902
2.40453
2.40031
2.39611
2.3918
2.3872
2.3822
2.37681
2.37098
2.36496
2.35778
2.46034
2.45561
2.45132
2.44722
2.44314
2.43889
2.43442
2.42935
2.42372
2.41763
2.41125
2.40455
2.39814
2.39022
2.45777
2.45364
2.44948
2.44536
2.44122
2.43678
2.43194
2.42653
2.42068
2.41451
2.40818
2.40172
2.39551
2.38832
2.4558
2.45154
2.44737
2.44326
2.43902
2.43444
2.42945
2.42394
2.41802
2.41182
2.40546
2.39904
2.39272
2.38593
2.45404
2.44966
2.44534
2.44107
2.43664
2.43182
2.42659
2.42093
2.41498
2.40879
2.40243
2.39596
2.38948
2.38292
2.45252
2.44791
2.44334
2.43869
2.43385
2.42875
2.42335
2.41762
2.41168
2.40551
2.39912
2.39258
2.38605
2.37969
2.45125
2.44627
2.44123
2.43609
2.43083
2.42542
2.41986
2.41408
2.40816
2.40202
2.39563
2.38902
2.38251
2.37624
2.44981
2.44439
2.43895
2.4334
2.42777
2.42211
2.41643
2.41061
2.40468
2.39855
2.39214
2.3855
2.37899
2.37287
2.44783
2.4421
2.43642
2.43061
2.4248
2.419
2.41323
2.40737
2.40138
2.39523
2.3888
2.3822
2.3757
2.36978
2.44527
2.43931
2.43358
2.42772
2.42194
2.41617
2.41041
2.40455
2.39847
2.39224
2.38577
2.37923
2.37289
2.36718
2.44194
2.43598
2.43035
2.42463
2.41907
2.41352
2.40792
2.40217
2.39613
2.38988
2.38341
2.37692
2.37068
2.36508
2.43808
2.4322
2.42677
2.42131
2.41611
2.41092
2.40559
2.40003
2.3941
2.3879
2.38151
2.37512
2.36889
2.36332
2.43367
2.428
2.42287
2.41773
2.41294
2.40811
2.40313
2.39786
2.39223
2.38629
2.38016
2.37396
2.36769
2.36178
2.42957
2.4238
2.41892
2.41411
2.40968
2.40522
2.40058
2.39564
2.39035
2.38475
2.3789
2.37296
2.36673
2.36066
2.42413
2.41894
2.41476
2.41036
2.40632
2.40229
2.39812
2.39374
2.38894
2.38373
2.37815
2.37227
2.36626
2.35947
2.4637
2.45905
2.45469
2.45059
2.44659
2.44255
2.43848
2.43396
2.42902
2.4236
2.41783
2.4117
2.40568
2.39779
2.46185
2.45746
2.45306
2.44879
2.44462
2.44032
2.43587
2.43092
2.42572
2.42026
2.41465
2.40891
2.40315
2.39611
2.46029
2.45577
2.45132
2.44693
2.44257
2.43802
2.43328
2.42818
2.4229
2.41747
2.4119
2.40622
2.40031
2.39374
2.45887
2.45415
2.44947
2.44483
2.44015
2.43528
2.43023
2.42493
2.41961
2.41423
2.40872
2.40303
2.39704
2.39075
2.45732
2.45241
2.44741
2.44235
2.43724
2.43207
2.42681
2.42143
2.41609
2.41071
2.40516
2.3994
2.39337
2.38728
2.45546
2.45025
2.44486
2.43943
2.43396
2.42852
2.42311
2.41767
2.41232
2.40692
2.40131
2.39544
2.38939
2.38341
2.45301
2.44754
2.44193
2.43626
2.43058
2.42498
2.41946
2.41398
2.40856
2.4031
2.39737
2.39139
2.38534
2.37948
2.4499
2.44432
2.4387
2.43298
2.42728
2.42163
2.41603
2.41048
2.40491
2.39932
2.39345
2.38742
2.38141
2.37573
2.44623
2.4407
2.43526
2.42971
2.42418
2.41864
2.41306
2.40746
2.40172
2.39593
2.3899
2.38378
2.37777
2.37225
2.44207
2.43674
2.43164
2.42642
2.4212
2.4159
2.41045
2.40487
2.39904
2.39307
2.3869
2.38069
2.37471
2.36939
2.43779
2.43271
2.42794
2.42308
2.41828
2.4133
2.40809
2.40264
2.3968
2.39075
2.38448
2.37821
2.37218
2.3669
2.43339
2.42864
2.42417
2.41966
2.41524
2.41052
2.40557
2.40031
2.39457
2.38862
2.38252
2.37642
2.37032
2.36489
2.42949
2.42465
2.42043
2.41622
2.41215
2.40771
2.40306
2.39802
2.39254
2.3868
2.38081
2.37486
2.36889
2.36317
2.42468
2.42028
2.41661
2.41261
2.40876
2.40466
2.40039
2.39577
2.3907
2.38536
2.37971
2.37393
2.36795
2.36134
2.41016
2.41935
2.42718
2.43101
2.44018
2.45156
2.39982
2.40455
2.4071
2.41216
2.42809
2.44827
2.39577
2.39942
2.4015
2.40655
2.42385
2.45075
2.38987
2.39256
2.39392
2.39931
2.41881
2.44972
2.38626
2.38801
2.38885
2.39386
2.41329
2.44563
2.38179
2.3831
2.3838
2.38815
2.40699
2.4354
2.37794
2.3791
2.38043
2.38399
2.40184
2.42317
2.37403
2.37524
2.37788
2.38032
2.39523
2.40914
2.37038
2.37129
2.37534
2.377
2.38876
2.39656
2.36675
2.36659
2.37131
2.3722
2.38092
2.38562
2.36341
2.36207
2.36543
2.36584
2.37399
2.37895
2.36003
2.35693
2.35818
2.359
2.36733
2.37404
2.35848
2.3535
2.35291
2.35463
2.36458
2.37324
2.34397
2.33599
2.33597
2.34197
2.35624
2.37061
2.41992
2.43076
2.44129
2.44992
2.45503
2.46404
2.41
2.41717
2.42322
2.43275
2.44402
2.46038
2.4061
2.41231
2.41837
2.42716
2.44001
2.46071
2.39983
2.40442
2.40922
2.41788
2.4332
2.45701
2.39548
2.39916
2.40358
2.41174
2.42811
2.45341
2.3903
2.39311
2.39728
2.40534
2.42156
2.4453
2.38528
2.38767
2.39218
2.4003
2.41538
2.43486
2.38029
2.38266
2.388
2.39598
2.40893
2.42298
2.37572
2.37847
2.38491
2.39242
2.40271
2.41195
2.37168
2.3745
2.38182
2.38796
2.39533
2.40156
2.36848
2.37062
2.37826
2.38167
2.38732
2.39294
2.36568
2.36607
2.37155
2.37294
2.37718
2.38351
2.36458
2.36273
2.36471
2.36471
2.36977
2.37809
2.35261
2.34781
2.34741
2.34963
2.35671
2.36997
2.435
2.44588
2.45756
2.46822
2.47665
2.48532
2.42682
2.43532
2.44517
2.45474
2.46535
2.47854
2.42268
2.43082
2.43948
2.44821
2.45882
2.47408
2.41542
2.42264
2.42933
2.43774
2.44949
2.46812
2.4093
2.41576
2.42108
2.42938
2.44205
2.46361
2.40291
2.40831
2.41247
2.4206
2.43387
2.45572
2.39676
2.40107
2.40464
2.41267
2.42556
2.44446
2.39088
2.3942
2.39789
2.40576
2.41734
2.43197
2.38533
2.38806
2.39286
2.40079
2.41138
2.42143
2.38017
2.38282
2.38912
2.39707
2.40657
2.4136
2.37601
2.37884
2.38663
2.39382
2.40225
2.40862
2.37256
2.37511
2.38294
2.38778
2.39431
2.40131
2.37169
2.37167
2.37788
2.37976
2.38484
2.39301
2.36142
2.36009
2.36341
2.36563
2.37062
2.37938
2.44379
2.45097
2.45939
2.46991
2.47879
2.48806
2.43793
2.44569
2.45391
2.46417
2.4739
2.48525
2.43342
2.44084
2.44906
2.45824
2.46747
2.47897
2.4272
2.4338
2.44104
2.44896
2.45825
2.47093
2.42095
2.42664
2.43256
2.43938
2.44863
2.46308
2.41427
2.41882
2.42319
2.42889
2.43801
2.45425
2.40739
2.41087
2.41387
2.41875
2.42783
2.44405
2.4005
2.4031
2.40521
2.40995
2.41882
2.43253
2.39375
2.39564
2.39761
2.40285
2.41126
2.42246
2.38738
2.38869
2.39131
2.3972
2.40561
2.41485
2.38169
2.38275
2.38687
2.3933
2.40234
2.41019
2.37664
2.37754
2.38309
2.38922
2.39812
2.40528
2.37363
2.37396
2.3804