/*--------------------------------*- C++ -*----------------------------------*\
| =========                 |                                                 |
| \\      /  F ield         | OpenFOAM: The Open Source CFD Toolbox           |
|  \\    /   O peration     | Version:  v2106                                 |
|   \\  /    A nd           | Website:  www.openfoam.com                      |
|    \\/     M anipulation  |                                                 |
\*---------------------------------------------------------------------------*/
FoamFile
{
    version     2.0;
    format      ascii;
    arch        "LSB;label=32;scalar=64";
    class       volScalarField;
    location    "0.000216";
    object      T;
}
// * * * * * * * * * * * * * * * * * * * * * * * * * * * * * * * * * * * * * //

dimensions      [0 0 0 1 0 0 0];

internalField   nonuniform List<scalar> 
18273
(
288.245
288.244
288.279
288.441
288.597
288.743
288.83
288.872
288.88
288.858
288.763
288.655
288.514
288.553
288.32
288.48
288.576
288.762
288.916
289.051
289.15
289.205
289.226
289.203
289.115
288.971
288.771
288.676
288.503
288.699
288.84
289.025
289.172
289.303
289.397
289.451
289.471
289.455
289.389
289.25
289.022
288.81
288.67
288.872
289.03
289.205
289.349
289.464
289.543
289.597
289.623
289.625
289.595
289.495
289.301
289.044
288.79
289.001
289.171
289.324
289.435
289.519
289.58
289.635
289.677
289.702
289.706
289.663
289.536
289.296
288.861
289.084
289.268
289.399
289.476
289.53
289.573
289.623
289.678
289.725
289.746
289.74
289.675
289.478
288.896
289.132
289.319
289.43
289.485
289.518
289.548
289.587
289.647
289.703
289.74
289.759
289.723
289.562
288.921
289.167
289.344
289.442
289.477
289.498
289.522
289.559
289.615
289.669
289.71
289.734
289.708
289.568
288.928
289.184
289.349
289.434
289.458
289.472
289.496
289.535
289.587
289.635
289.667
289.679
289.658
289.53
288.902
289.169
289.332
289.411
289.431
289.445
289.474
289.517
289.566
289.605
289.62
289.607
289.554
289.414
288.837
289.121
289.286
289.364
289.398
289.422
289.46
289.504
289.544
289.566
289.564
289.524
289.426
289.249
288.737
289.019
289.197
289.289
289.343
289.388
289.435
289.475
289.502
289.507
289.474
289.397
289.264
289.054
288.663
288.902
289.069
289.185
289.265
289.33
289.377
289.404
289.411
289.387
289.319
289.195
289.045
288.836
288.585
288.716
288.89
289.034
289.142
289.215
289.253
289.273
289.253
289.194
289.084
288.94
288.803
288.695
288.592
288.8
288.868
288.992
289.125
289.249
289.332
289.381
289.409
289.427
289.411
289.396
289.345
289.491
288.579
288.899
289.106
289.3
289.443
289.545
289.618
289.671
289.715
289.749
289.763
289.759
289.669
289.712
288.729
289.075
289.319
289.529
289.675
289.764
289.828
289.873
289.917
289.956
289.978
289.983
289.904
289.86
288.89
289.214
289.458
289.677
289.83
289.914
289.967
290.006
290.05
290.089
290.125
290.149
290.114
290.056
289.017
289.312
289.549
289.766
289.91
289.993
290.048
290.089
290.13
290.176
290.224
290.255
290.257
290.224
289.107
289.392
289.619
289.818
289.944
290.025
290.081
290.131
290.184
290.236
290.288
290.326
290.336
290.318
289.155
289.438
289.654
289.82
289.925
290.004
290.068
290.136
290.209
290.279
290.339
290.371
290.377
290.35
289.19
289.469
289.675
289.818
289.906
289.976
290.045
290.127
290.218
290.305
290.369
290.395
290.387
290.346
289.201
289.481
289.677
289.8
289.875
289.94
290.013
290.106
290.21
290.31
290.38
290.407
290.392
290.333
289.179
289.466
289.66
289.77
289.843
289.911
289.99
290.089
290.196
290.299
290.368
290.401
290.381
290.306
289.131
289.416
289.612
289.723
289.805
289.884
289.973
290.075
290.179
290.276
290.331
290.365
290.335
290.255
289.057
289.332
289.526
289.655
289.761
289.863
289.966
290.068
290.16
290.231
290.262
290.285
290.238
290.141
288.982
289.203
289.41
289.568
289.704
289.825
289.937
290.035
290.108
290.147
290.152
290.134
290.077
289.954
288.831
289.004
289.253
289.454
289.614
289.744
289.857
289.941
289.989
289.995
289.975
289.926
289.863
289.787
288.858
289.265
289.417
289.587
289.731
289.875
289.987
290.082
290.155
290.217
290.276
290.325
290.314
290.478
289.012
289.459
289.685
289.887
290.039
290.166
290.261
290.347
290.428
290.52
290.621
290.699
290.695
290.786
289.298
289.655
289.921
290.141
290.295
290.408
290.491
290.57
290.651
290.74
290.842
290.918
290.93
290.968
289.504
289.81
290.08
290.307
290.462
290.572
290.65
290.723
290.803
290.898
291.003
291.085
291.123
291.149
289.66
289.942
290.208
290.425
290.578
290.685
290.764
290.838
290.92
291.014
291.121
291.211
291.275
291.3
289.81
290.075
290.324
290.517
290.657
290.76
290.841
290.919
291.006
291.106
291.217
291.316
291.392
291.42
289.928
290.188
290.41
290.579
290.704
290.802
290.888
290.979
291.077
291.185
291.3
291.402
291.48
291.514
290.051
290.295
290.488
290.634
290.743
290.835
290.923
291.023
291.134
291.256
291.377
291.482
291.553
291.589
290.14
290.371
290.547
290.673
290.77
290.859
290.953
291.061
291.184
291.32
291.451
291.56
291.622
291.655
290.188
290.409
290.579
290.705
290.806
290.903
291.004
291.119
291.247
291.387
291.52
291.63
291.684
291.715
290.21
290.418
290.581
290.717
290.837
290.951
291.067
291.192
291.323
291.461
291.585
291.689
291.731
291.754
290.228
290.412
290.574
290.723
290.867
291.006
291.141
291.274
291.402
291.526
291.629
291.711
291.74
291.736
290.24
290.389
290.545
290.705
290.872
291.036
291.189
291.327
291.448
291.554
291.636
291.696
291.707
291.701
290.117
290.336
290.515
290.71
290.894
291.064
291.218
291.353
291.463
291.546
291.601
291.619
291.615
291.571
288.585
288.467
287.911
287.528
287.136
287.491
288.153
287.965
287.496
287.363
287.124
287.338
288.378
288.098
287.641
287.533
287.252
287.651
288.633
288.26
287.775
287.627
287.362
287.822
288.907
288.471
287.948
287.739
287.43
287.981
289.112
288.655
288.08
287.803
287.488
288.029
289.216
288.766
288.18
287.891
287.515
287.828
289.235
288.777
288.171
287.848
287.474
287.738
289.21
288.755
288.128
287.752
287.353
287.542
289.101
288.644
287.986
287.515
287.121
287.239
288.928
288.472
287.827
287.296
286.918
287.002
288.722
288.25
287.614
287.086
286.761
286.79
288.514
288.076
287.504
287.009
286.691
286.663
288.177
287.773
287.213
286.74
286.474
286.494
289.639
289.444
288.938
288.607
288.271
288.381
289.301
289.107
288.611
288.471
288.249
288.294
289.532
289.294
288.854
288.735
288.522
288.482
289.787
289.519
289.099
288.885
288.674
288.618
290.02
289.756
289.354
289.074
288.846
288.766
290.156
289.886
289.481
289.136
288.876
288.795
290.206
289.934
289.519
289.11
288.799
288.75
290.201
289.921
289.49
289.039
288.687
288.64
290.177
289.879
289.425
288.921
288.546
288.5
290.133
289.811
289.33
288.779
288.404
288.327
290.065
289.719
289.235
288.656
288.295
288.187
289.959
289.583
289.095
288.502
288.174
288.054
289.78
289.391
288.902
288.378
288.102
287.97
289.433
289.05
288.588
288.117
287.885
287.777
290.71
290.528
290.107
289.762
289.46
289.447
290.488
290.319
289.858
289.664
289.481
289.545
290.701
290.472
290.075
289.923
289.772
289.826
290.954
290.72
290.372
290.18
290.009
289.963
291.184
290.981
290.677
290.419
290.169
289.993
291.361
291.2
290.936
290.614
290.254
289.936
291.475
291.36
291.134
290.77
290.301
289.831
291.545
291.465
291.266
290.863
290.308
289.689
291.602
291.536
291.332
290.91
290.301
289.595
291.661
291.576
291.356
290.94
290.313
289.572
291.696
291.596
291.368
290.966
290.33
289.581
291.68
291.573
291.372
290.945
290.267
289.494
291.645
291.504
291.337
290.867
290.199
289.401
291.44
291.263
291.067
290.556
289.862
289.106
288.5
288.21
287.566
287.089
286.727
286.819
288.322
287.975
287.309
286.884
286.525
286.48
288.494
288.068
287.377
286.928
286.581
286.625
288.679
288.201
287.505
286.992
286.649
286.63
288.853
288.371
287.722
287.207
286.927
286.963
288.96
288.507
287.942
287.495
287.276
287.346
289.011
288.607
288.156
287.827
287.713
287.849
289.02
288.666
288.317
288.063
287.988
288.125
289.006
288.69
288.393
288.172
288.118
288.238
288.96
288.664
288.395
288.163
288.095
288.182
288.886
288.587
288.286
288.019
287.888
287.972
288.764
288.437
288.062
287.744
287.523
287.56
288.564
288.197
287.745
287.411
287.172
287.306
288.129
287.708
287.251
286.991
286.83
286.968
289.661
289.362
288.832
288.361
288.1
288.078
289.541
289.223
288.681
288.226
287.942
287.762
289.623
289.269
288.742
288.284
288.056
287.962
289.701
289.346
288.842
288.394
288.205
288.101
289.756
289.412
288.951
288.572
288.479
288.466
289.767
289.446
289.056
288.793
288.782
288.764
289.739
289.449
289.152
288.986
289.06
289.061
289.68
289.422
289.203
289.083
289.18
289.143
289.594
289.347
289.171
289.078
289.195
289.111
289.482
289.208
289.052
288.934
288.987
288.863
289.344
289.039
288.871
288.663
288.559
288.412
289.169
288.827
288.602
288.293
288.03
287.814
288.965
288.594
288.261
287.896
287.618
287.493
288.507
288.112
287.729
287.409
287.173
287.039
291.579
291.48
291.344
290.768
290.029
289.157
291.529
291.429
291.298
290.748
290.057
289.139
291.533
291.414
291.299
290.828
290.223
289.219
291.534
291.429
291.332
290.955
290.427
289.341
291.501
291.413
291.327
291.03
290.556
289.39
291.429
291.363
291.296
291.032
290.586
289.329
291.327
291.272
291.218
290.938
290.441
289.039
291.197
291.158
291.092
290.749
290.139
288.562
291.045
291.016
290.912
290.429
289.65
287.915
290.878
290.821
290.677
289.968
288.986
287.115
290.715
290.56
290.36
289.393
288.252
286.36
290.56
290.219
289.898
288.734
287.528
285.671
290.419
289.847
289.347
288.096
286.926
285.353
289.874
289.124
288.474
287.289
286.322
284.95
287.621
287.146
287.305
287.261
287.458
287.762
287.624
287.424
287.668
287.812
288.069
288.318
287.473
287.308
287.571
287.784
288.137
288.424
288.002
287.419
287.726
287.933
288.274
288.549
288.48
287.641
287.912
288.064
288.324
288.603
288.325
288.014
288.166
288.211
288.371
288.634
288.346
288.02
288.152
288.186
288.359
288.637
288.234
287.864
288.004
288.074
288.304
288.624
287.856
287.531
287.645
287.787
288.144
288.565
287.451
287.19
287.294
287.49
287.961
288.473
287.058
286.856
286.989
287.249
287.802
288.355
287.068
286.823
286.999
287.235
287.784
288.248
286.974
286.811
287.014
287.243
287.804
288.181
287.259
287.117
287.36
287.667
288.087
288.407
287.138
286.7
286.979
287.213
287.573
288.017
287.016
286.837
287.262
287.735
288.201
288.597
286.932
286.782
287.221
287.74
288.254
288.66
287.284
287
287.502
287.991
288.399
288.748
287.592
287.374
287.837
288.205
288.487
288.802
287.898
287.732
288.087
288.36
288.568
288.844
288.043
287.839
288.115
288.346
288.555
288.843
288.006
287.832
288.054
288.271
288.514
288.845
287.815
287.662
287.827
288.065
288.398
288.821
287.581
287.459
287.601
287.873
288.28
288.768
287.322
287.237
287.415
287.742
288.203
288.706
287.244
287.245
287.44
287.746
288.2
288.638
287.172
287.211
287.459
287.807
288.273
288.603
287.382
287.549
287.869
288.259
288.559
288.79
285.221
285.619
286.04
286.658
287.344
288.152
284.896
285.701
286.382
287.3
288.084
288.923
284.49
285.546
286.384
287.51
288.293
289.108
284.58
285.814
286.772
287.898
288.545
289.244
284.755
286.261
287.238
288.269
288.788
289.346
285.24
286.742
287.683
288.581
289.026
289.463
285.652
287.094
287.933
288.736
289.183
289.594
285.947
287.299
288.053
288.843
289.322
289.733
286.095
287.363
288.117
288.912
289.426
289.835
286.158
287.337
288.146
288.967
289.486
289.891
286.066
287.211
288.071
288.953
289.507
289.927
285.894
287.068
288.001
288.974
289.546
289.965
285.592
286.824
287.785
288.931
289.586
289.996
285.328
286.741
287.86
289.073
289.739
290.108
287.304
286.997
287.257
287.372
287.735
287.984
287.2
286.957
287.309
287.618
288.037
288.336
287.161
286.857
287.222
287.512
287.982
288.347
287.264
286.887
287.281
287.565
288.048
288.418
287.439
286.978
287.366
287.572
288.075
288.467
287.711
287.209
287.556
287.664
288.116
288.486
287.955
287.442
287.714
287.739
288.108
288.468
288.046
287.582
287.797
287.778
288.085
288.434
287.986
287.568
287.752
287.745
288.038
288.374
287.848
287.476
287.683
287.706
287.972
288.257
287.593
287.386
287.587
287.586
287.833
288.093
287.733
287.375
287.532
287.488
287.761
287.945
287.665
287.196
287.385
287.348
287.644
287.778
287.934
287.52
287.732
287.902
288.222
288.308
287.873
287.763
287.907
288.072
288.466
288.793
287.62
287.425
287.748
288.201
288.716
289.141
287.38
287.106
287.528
287.987
288.574
289.073
287.465
287.052
287.54
287.986
288.563
289.043
287.561
287.11
287.59
287.957
288.542
289.025
287.812
287.317
287.751
288.018
288.552
289.01
288.043
287.531
287.903
288.1
288.573
289
288.13
287.697
287.995
288.163
288.575
288.964
288.062
287.736
287.988
288.156
288.528
288.892
287.91
287.674
287.934
288.081
288.418
288.762
287.646
287.558
287.778
287.884
288.238
288.595
287.753
287.388
287.608
287.695
288.128
288.452
287.492
287.103
287.406
287.535
288.008
288.322
287.57
287.298
287.657
288.039
288.507
288.722
288.653
288.601
288.707
289.024
289.482
289.877
288.17
288.096
288.518
289.099
289.634
290.102
287.692
287.587
288.126
288.83
289.462
289.959
287.607
287.497
288.117
288.784
289.388
289.868
287.715
287.545
288.138
288.737
289.323
289.808
287.965
287.73
288.265
288.746
289.278
289.752
288.117
287.868
288.336
288.761
289.242
289.689
288.124
287.962
288.33
288.715
289.165
289.601
287.979
287.922
288.255
288.606
289.03
289.476
287.827
287.758
288.058
288.382
288.825
289.301
287.426
287.325
287.619
288.03
288.566
289.105
287.076
286.918
287.241
287.708
288.345
288.907
286.381
286.517
286.961
287.538
288.215
288.731
286.107
286.412
287.092
287.94
288.504
288.986
289.432
289.748
289.915
290.078
290.209
290.328
290.434
290.535
290.635
290.742
290.856
290.984
291.064
291.192
289.587
289.914
290.104
290.291
290.44
290.566
290.672
290.772
290.883
291.007
291.147
291.3
291.407
291.529
289.808
290.073
290.269
290.461
290.608
290.73
290.833
290.931
291.042
291.168
291.315
291.471
291.605
291.714
289.982
290.212
290.402
290.587
290.73
290.846
290.948
291.049
291.164
291.299
291.455
291.616
291.758
291.879
290.155
290.362
290.539
290.7
290.829
290.937
291.035
291.135
291.252
291.389
291.548
291.713
291.872
292.013
290.333
290.511
290.665
290.802
290.914
291.011
291.104
291.204
291.322
291.464
291.628
291.804
291.978
292.134
290.502
290.652
290.782
290.898
290.992
291.078
291.166
291.265
291.384
291.529
291.698
291.883
292.065
292.233
290.665
290.784
290.889
290.982
291.062
291.14
291.224
291.324
291.446
291.596
291.771
291.966
292.151
292.329
290.795
290.889
290.977
291.056
291.129
291.204
291.289
291.392
291.519
291.677
291.856
292.057
292.24
292.423
290.92
290.99
291.064
291.136
291.209
291.287
291.378
291.485
291.617
291.78
291.961
292.165
292.345
292.527
291.01
291.074
291.143
291.218
291.302
291.393
291.496
291.612
291.749
291.914
292.093
292.295
292.466
292.643
291.164
291.205
291.26
291.334
291.429
291.535
291.653
291.779
291.921
292.086
292.256
292.45
292.606
292.776
291.293
291.336
291.372
291.448
291.561
291.689
291.827
291.969
292.117
292.28
292.437
292.618
292.755
292.939
291.468
291.549
291.601
291.686
291.798
291.922
292.057
292.199
292.344
292.504
292.649
292.826
292.925
293.141
289.833
290.053
290.216
290.376
290.515
290.629
290.727
290.816
290.909
291.011
291.116
291.227
291.292
291.36
289.983
290.182
290.351
290.537
290.688
290.814
290.923
291.023
291.133
291.257
291.392
291.533
291.635
291.712
290.171
290.363
290.527
290.701
290.846
290.968
291.076
291.178
291.286
291.407
291.541
291.687
291.823
291.926
290.379
290.551
290.703
290.857
290.987
291.098
291.2
291.3
291.41
291.537
291.68
291.834
291.978
292.108
290.582
290.74
290.877
291.007
291.118
291.216
291.309
291.405
291.513
291.638
291.782
291.938
292.098
292.248
290.774
290.917
291.032
291.142
291.236
291.322
291.407
291.498
291.604
291.729
291.877
292.044
292.219
292.386
290.949
291.071
291.165
291.257
291.338
291.415
291.495
291.584
291.689
291.816
291.969
292.144
292.331
292.506
291.104
291.201
291.277
291.354
291.427
291.501
291.579
291.669
291.776
291.908
292.067
292.251
292.445
292.628
291.242
291.314
291.376
291.445
291.515
291.59
291.671
291.765
291.876
292.014
292.178
292.368
292.565
292.752
291.357
291.413
291.472
291.54
291.615
291.695
291.783
291.883
291.999
292.143
292.31
292.502
292.697
292.884
291.453
291.512
291.579
291.652
291.738
291.828
291.926
292.034
292.156
292.304
292.47
292.659
292.844
293.027
291.578
291.643
291.717
291.798
291.896
291.999
292.109
292.226
292.355
292.504
292.666
292.847
293.018
293.192
291.663
291.765
291.86
291.962
292.08
292.2
292.324
292.453
292.589
292.738
292.891
293.06
293.21
293.385
291.888
291.997
292.11
292.222
292.341
292.462
292.585
292.714
292.85
292.999
293.143
293.303
293.418
293.608
290.213
290.331
290.429
290.552
290.68
290.793
290.891
290.979
291.068
291.158
291.24
291.319
291.359
291.385
290.407
290.495
290.597
290.719
290.842
290.957
291.063
291.163
291.269
291.388
291.512
291.625
291.692
291.73
290.628
290.718
290.807
290.912
291.019
291.122
291.221
291.321
291.425
291.541
291.664
291.788
291.888
291.961
290.858
290.942
291.024
291.112
291.198
291.284
291.371
291.463
291.562
291.676
291.804
291.942
292.066
292.163
291.078
291.161
291.229
291.3
291.367
291.438
291.513
291.595
291.687
291.794
291.919
292.06
292.204
292.34
291.286
291.358
291.407
291.463
291.517
291.579
291.645
291.72
291.806
291.91
292.037
292.187
292.352
292.511
291.473
291.526
291.558
291.602
291.65
291.706
291.769
291.839
291.924
292.029
292.16
292.318
292.495
292.673
291.638
291.669
291.691
291.728
291.773
291.827
291.889
291.96
292.046
292.155
292.293
292.458
292.65
292.836
291.781
291.8
291.815
291.849
291.894
291.951
292.016
292.091
292.183
292.298
292.442
292.613
292.811
293
291.916
291.932
291.948
291.984
292.035
292.096
292.167
292.248
292.345
292.466
292.613
292.784
292.983
293.171
292.053
292.074
292.096
292.139
292.2
292.269
292.348
292.438
292.542
292.666
292.814
292.98
293.173
293.351
292.213
292.245
292.281
292.336
292.408
292.487
292.574
292.671
292.779
292.903
293.046
293.204
293.388
293.554
292.39
292.439
292.493
292.56
292.645
292.735
292.834
292.942
293.057
293.184
293.32
293.468
293.631
293.79
292.651
292.707
292.773
292.846
292.933
293.026
293.127
293.237
293.355
293.479
293.608
293.744
293.893
294.038
290.537
290.563
290.615
290.704
290.807
290.904
290.995
291.078
291.158
291.228
291.279
291.33
291.343
291.354
290.776
290.79
290.832
290.9
290.986
291.074
291.164
291.255
291.349
291.443
291.535
291.623
291.667
291.689
291.007
291.04
291.074
291.125
291.189
291.26
291.338
291.423
291.512
291.606
291.699
291.792
291.864
291.925
291.244
291.274
291.305
291.343
291.388
291.443
291.508
291.58
291.659
291.75
291.849
291.959
292.058
292.136
291.462
291.49
291.511
291.54
291.572
291.615
291.669
291.731
291.8
291.884
291.986
292.102
292.218
292.331
291.668
291.683
291.691
291.711
291.735
291.773
291.821
291.875
291.939
292.019
292.124
292.251
292.388
292.521
291.863
291.858
291.853
291.866
291.886
291.921
291.965
292.016
292.079
292.16
292.268
292.404
292.556
292.706
292.042
292.021
292.007
292.016
292.032
292.066
292.109
292.16
292.225
292.312
292.425
292.568
292.733
292.894
292.213
292.184
292.164
292.169
292.185
292.219
292.264
292.318
292.388
292.479
292.599
292.744
292.917
293.084
292.384
292.357
292.334
292.339
292.356
292.393
292.441
292.5
292.575
292.67
292.792
292.936
293.115
293.284
292.556
292.542
292.523
292.532
292.555
292.597
292.652
292.717
292.796
292.894
293.015
293.152
293.331
293.492
292.745
292.756
292.747
292.762
292.793
292.841
292.902
292.971
293.052
293.147
293.263
293.391
293.567
293.717
292.959
292.991
292.995
293.021
293.065
293.123
293.193
293.268
293.352
293.447
293.559
293.677
293.836
293.969
293.21
293.271
293.289
293.322
293.372
293.435
293.508
293.586
293.67
293.76
293.865
293.97
294.114
294.221
290.779
290.765
290.785
290.826
290.896
290.966
291.032
291.102
291.165
291.23
291.259
291.265
291.253
291.256
291.029
291.021
291.035
291.056
291.099
291.149
291.206
291.274
291.341
291.418
291.486
291.541
291.571
291.593
291.253
291.264
291.276
291.285
291.311
291.344
291.387
291.444
291.506
291.577
291.647
291.718
291.773
291.828
291.481
291.489
291.495
291.5
291.514
291.535
291.567
291.613
291.667
291.731
291.805
291.894
291.977
292.041
291.705
291.699
291.694
291.695
291.702
291.717
291.743
291.78
291.828
291.888
291.964
292.057
292.152
292.243
291.92
291.897
291.881
291.876
291.876
291.889
291.913
291.946
291.99
292.053
292.131
292.228
292.336
292.445
292.125
292.093
292.063
292.051
292.045
292.057
292.079
292.111
292.156
292.221
292.307
292.408
292.524
292.645
292.326
292.286
292.245
292.225
292.215
292.225
292.246
292.279
292.328
292.398
292.491
292.598
292.722
292.849
292.522
292.478
292.427
292.402
292.39
292.401
292.423
292.458
292.511
292.586
292.685
292.797
292.927
293.055
292.716
292.673
292.617
292.59
292.577
292.591
292.616
292.655
292.713
292.791
292.893
293.005
293.143
293.272
292.908
292.873
292.82
292.796
292.789
292.808
292.839
292.882
292.942
293.021
293.123
293.228
293.37
293.496
293.105
293.089
293.044
293.03
293.031
293.056
293.093
293.139
293.199
293.275
293.373
293.468
293.612
293.732
293.319
293.325
293.298
293.295
293.308
293.341
293.384
293.431
293.49
293.564
293.657
293.746
293.881
293.989
293.557
293.592
293.581
293.589
293.613
293.651
293.695
293.742
293.798
293.864
293.951
294.036
294.156
294.244
290.994
290.973
290.967
290.961
290.976
290.999
291.034
291.075
291.125
291.163
291.186
291.159
291.121
291.105
291.237
291.215
291.205
291.185
291.182
291.187
291.21
291.243
291.285
291.337
291.387
291.414
291.423
291.44
291.446
291.434
291.424
291.399
291.387
291.385
291.395
291.416
291.453
291.497
291.549
291.597
291.635
291.67
291.669
291.647
291.627
291.6
291.585
291.579
291.581
291.596
291.627
291.667
291.718
291.786
291.849
291.893
291.897
291.854
291.821
291.794
291.777
291.769
291.769
291.781
291.809
291.846
291.898
291.968
292.04
292.102
292.12
292.063
292.019
291.988
291.964
291.954
291.955
291.968
291.998
292.036
292.091
292.161
292.24
292.315
292.339
292.277
292.219
292.181
292.15
292.138
292.142
292.159
292.192
292.235
292.291
292.362
292.445
292.527
292.555
292.49
292.421
292.373
292.336
292.323
292.329
292.351
292.391
292.442
292.502
292.573
292.659
292.746
292.765
292.696
292.617
292.563
292.524
292.514
292.523
292.55
292.595
292.654
292.717
292.787
292.877
292.965
292.965
292.896
292.81
292.751
292.718
292.715
292.726
292.758
292.808
292.871
292.937
293.007
293.104
293.193
293.16
293.092
293.007
292.953
292.929
292.933
292.948
292.984
293.036
293.098
293.166
293.234
293.339
293.425
293.355
293.294
293.216
293.176
293.162
293.173
293.192
293.23
293.279
293.337
293.407
293.476
293.585
293.667
293.56
293.515
293.46
293.436
293.431
293.443
293.464
293.5
293.543
293.601
293.672
293.74
293.848
293.92
293.783
293.775
293.738
293.722
293.722
293.733
293.753
293.785
293.823
293.878
293.949
294.019
294.117
294.18
291.166
291.139
291.115
291.07
291.032
291.005
291.007
291.005
291.027
291.045
291.068
291.043
290.998
290.964
291.405
291.366
291.335
291.281
291.232
291.192
291.18
291.174
291.189
291.213
291.256
291.279
291.269
291.27
291.607
291.565
291.533
291.477
291.429
291.389
291.368
291.356
291.363
291.38
291.422
291.46
291.475
291.492
291.826
291.771
291.725
291.667
291.622
291.586
291.563
291.55
291.553
291.569
291.605
291.653
291.69
291.715
292.05
291.977
291.918
291.862
291.818
291.786
291.765
291.755
291.758
291.773
291.805
291.85
291.892
291.926
292.277
292.193
292.121
292.062
292.015
291.986
291.97
291.967
291.974
291.991
292.022
292.062
292.107
292.147
292.502
292.413
292.328
292.263
292.213
292.188
292.179
292.183
292.195
292.217
292.246
292.282
292.328
292.373
292.723
292.627
292.53
292.461
292.41
292.389
292.388
292.399
292.42
292.446
292.476
292.511
292.559
292.604
292.929
292.826
292.723
292.652
292.606
292.592
292.598
292.616
292.643
292.672
292.702
292.739
292.791
292.83
293.117
293.014
292.909
292.839
292.802
292.798
292.809
292.833
292.863
292.894
292.926
292.967
293.023
293.058
293.3
293.199
293.099
293.036
293.009
293.014
293.027
293.054
293.083
293.114
293.147
293.191
293.257
293.287
293.483
293.393
293.299
293.248
293.23
293.239
293.255
293.281
293.309
293.336
293.373
293.424
293.5
293.527
293.682
293.613
293.538
293.499
293.483
293.489
293.5
293.521
293.546
293.574
293.616
293.668
293.749
293.779
293.914
293.869
293.809
293.772
293.753
293.751
293.757
293.774
293.798
293.827
293.875
293.93
294.005
294.049
290.944
290.929
290.909
290.911
290.902
290.874
290.85
291.112
291.09
291.078
291.096
291.124
291.118
291.121
291.296
291.268
291.258
291.273
291.303
291.314
291.33
291.498
291.471
291.463
291.476
291.506
291.529
291.548
291.716
291.695
291.687
291.695
291.718
291.741
291.762
291.946
291.931
291.926
291.933
291.95
291.971
291.989
292.181
292.173
292.172
292.177
292.187
292.204
292.224
292.418
292.416
292.419
292.422
292.429
292.445
292.463
293.024
292.889
292.773
292.699
292.658
292.646
292.645
292.65
292.651
292.655
292.656
292.662
292.682
292.692
293.195
293.066
292.955
292.89
292.861
292.86
292.864
292.873
292.876
292.879
292.88
292.887
292.913
292.915
293.367
293.252
293.149
293.093
293.072
293.075
293.08
293.088
293.088
293.089
293.092
293.104
293.138
293.132
293.552
293.452
293.356
293.307
293.288
293.291
293.294
293.298
293.294
293.293
293.301
293.321
293.367
293.362
293.76
293.682
293.597
293.553
293.527
293.52
293.515
293.512
293.507
293.506
293.518
293.544
293.601
293.61
294.007
293.937
293.86
293.809
293.773
293.756
293.742
293.736
293.733
293.737
293.754
293.788
293.844
293.886
289.553
289.277
288.876
288.298
287.791
287.19
289.361
288.997
288.501
288.03
287.694
287.268
289.529
289.082
288.581
288.129
287.818
287.372
289.697
289.225
288.73
288.264
287.886
287.358
289.85
289.383
288.918
288.463
288.094
287.46
289.991
289.535
289.095
288.632
288.19
287.33
290.122
289.674
289.246
288.743
288.221
287.148
290.247
289.797
289.353
288.77
288.121
286.944
290.359
289.894
289.395
288.712
288.026
286.804
290.457
289.982
289.42
288.626
287.893
286.696
290.545
290.075
289.498
288.636
287.88
286.767
290.651
290.164
289.567
288.678
288.17
287.404
290.805
290.318
289.88
289.225
288.908
288.36
290.779
290.403
290.018
289.696
289.651
289.434
289.91
289.802
289.59
289.254
288.793
288.264
289.81
289.648
289.375
289.084
288.729
288.443
289.955
289.719
289.443
289.195
288.907
288.679
290.098
289.814
289.505
289.228
288.889
288.529
290.223
289.898
289.527
289.163
288.76
288.255
290.325
289.963
289.522
289.065
288.537
287.86
290.427
290.037
289.56
289.031
288.394
287.561
290.537
290.12
289.611
288.99
288.216
287.244
290.65
290.207
289.687
288.994
288.114
287.044
290.756
290.3
289.767
289.019
288.097
287.005
290.848
290.409
289.872
289.139
288.27
287.201
290.926
290.495
289.94
289.227
288.575
287.739
291.027
290.617
290.199
289.658
289.152
288.524
290.978
290.672
290.305
289.905
289.626
289.359
290.218
290.169
290.088
289.869
289.496
288.936
290.158
290.042
289.854
289.641
289.417
289.032
290.259
290.113
289.954
289.793
289.569
289.213
290.369
290.192
290.004
289.821
289.55
289.1
290.477
290.268
290.023
289.745
289.355
288.698
290.563
290.304
289.964
289.559
289.035
288.204
290.643
290.337
289.931
289.439
288.805
287.829
290.731
290.386
289.916
289.314
288.535
287.439
290.835
290.451
289.952
289.273
288.395
287.235
290.938
290.522
290.034
289.315
288.411
287.271
291.013
290.6
290.136
289.439
288.563
287.512
291.049
290.634
290.16
289.51
288.793
287.963
291.135
290.748
290.354
289.846
289.249
288.6
291.075
290.77
290.423
290.001
289.632
289.318
290.457
290.392
290.361
290.217
289.912
289.412
290.394
290.283
290.144
289.965
289.73
289.348
290.453
290.336
290.194
289.99
289.692
289.302
290.526
290.375
290.19
289.966
289.68
289.253
290.617
290.44
290.199
289.926
289.572
288.917
290.698
290.489
290.19
289.814
289.308
288.398
290.773
290.527
290.165
289.701
289.051
287.973
290.844
290.553
290.132
289.586
288.796
287.614
290.93
290.601
290.129
289.508
288.64
287.413
291.009
290.64
290.156
289.5
288.617
287.425
291.067
290.672
290.22
289.578
288.697
287.597
291.078
290.667
290.209
289.592
288.853
287.957
291.144
290.77
290.369
289.832
289.176
288.431
291.077
290.749
290.382
289.914
289.438
288.98
290.665
290.598
290.569
290.502
290.297
289.92
290.588
290.478
290.375
290.281
290.075
289.718
290.61
290.481
290.362
290.21
289.928
289.488
290.641
290.483
290.326
290.127
289.799
289.288
290.708
290.527
290.323
290.051
289.661
289.015
290.771
290.568
290.307
289.97
289.467
288.574
290.832
290.607
290.308
289.879
289.228
288.122
290.89
290.636
290.269
289.769
288.996
287.785
290.951
290.662
290.235
289.663
288.799
287.565
291.018
290.683
290.2
289.577
288.712
287.552
291.052
290.662
290.203
289.588
288.734
287.67
291.037
290.626
290.165
289.555
288.827
287.959
291.071
290.685
290.275
289.734
289.078
288.323
290.964
290.609
290.227
289.748
289.258
288.747
290.892
290.811
290.785
290.738
290.633
290.384
290.81
290.702
290.617
290.554
290.4
290.111
290.799
290.672
290.56
290.45
290.21
289.8
290.779
290.621
290.468
290.31
290.013
289.51
290.79
290.61
290.426
290.196
289.839
289.229
290.809
290.609
290.385
290.08
289.649
288.861
290.844
290.633
290.372
290.002
289.431
288.447
290.885
290.658
290.332
289.879
289.188
288.085
290.928
290.664
290.281
289.764
288.964
287.819
290.967
290.672
290.216
289.637
288.829
287.77
290.992
290.634
290.167
289.565
288.795
287.816
290.951
290.55
290.085
289.49
288.805
288
290.944
290.56
290.138
289.614
288.994
288.271
290.801
290.429
290.044
289.584
289.11
288.615
291.087
290.998
290.966
290.932
290.886
290.717
290.999
290.901
290.827
290.781
290.684
290.446
290.971
290.863
290.763
290.672
290.471
290.097
290.909
290.774
290.64
290.51
290.215
289.722
290.862
290.702
290.539
290.355
290.003
289.406
290.824
290.643
290.447
290.196
289.803
289.091
290.823
290.625
290.396
290.086
289.601
288.759
290.823
290.616
290.339
289.946
289.356
288.415
290.847
290.619
290.288
289.831
289.131
288.127
290.865
290.606
290.209
289.686
288.964
288.038
290.894
290.578
290.147
289.576
288.865
287.976
290.854
290.481
290.029
289.459
288.814
288.041
290.829
290.462
290.041
289.534
288.953