/*--------------------------------*- C++ -*----------------------------------*\
| =========                 |                                                 |
| \\      /  F ield         | OpenFOAM: The Open Source CFD Toolbox           |
|  \\    /   O peration     | Version:  v2106                                 |
|   \\  /    A nd           | Website:  www.openfoam.com                      |
|    \\/     M anipulation  |                                                 |
\*---------------------------------------------------------------------------*/
FoamFile
{
    version     2.0;
    format      ascii;
    arch        "LSB;label=32;scalar=64";
    class       volScalarField;
    location    "0.000198";
    object      epsilon;
}
// * * * * * * * * * * * * * * * * * * * * * * * * * * * * * * * * * * * * * //

dimensions      [0 2 -3 0 0 0 0];

internalField   nonuniform List<scalar> 
17920
(
1.22464e-08
1.22455e-08
1.22447e-08
1.22438e-08
1.22432e-08
1.22423e-08
1.22415e-08
1.22406e-08
1.22398e-08
1.2239e-08
1.2238e-08
1.22373e-08
1.22362e-08
1.22356e-08
1.22344e-08
1.22338e-08
1.22326e-08
1.22321e-08
1.22307e-08
1.22303e-08
1.22289e-08
1.22286e-08
1.22271e-08
1.22268e-08
1.22253e-08
1.22251e-08
1.22235e-08
1.22233e-08
1.22257e-08
1.22257e-08
1.22256e-08
1.22256e-08
1.22256e-08
1.22256e-08
1.22255e-08
1.22254e-08
1.22253e-08
1.22251e-08
1.22249e-08
1.22247e-08
1.22245e-08
1.22242e-08
1.22243e-08
1.22244e-08
1.22243e-08
1.22243e-08
1.22243e-08
1.22242e-08
1.22242e-08
1.22241e-08
1.22239e-08
1.22238e-08
1.22236e-08
1.22233e-08
1.22231e-08
1.22227e-08
1.2223e-08
1.22231e-08
1.2223e-08
1.2223e-08
1.2223e-08
1.22229e-08
1.22228e-08
1.22227e-08
1.22226e-08
1.22224e-08
1.22223e-08
1.2222e-08
1.22218e-08
1.22215e-08
1.22217e-08
1.22217e-08
1.22217e-08
1.22217e-08
1.22216e-08
1.22216e-08
1.22215e-08
1.22214e-08
1.22212e-08
1.22211e-08
1.22209e-08
1.22207e-08
1.22205e-08
1.22201e-08
1.22203e-08
1.22204e-08
1.22203e-08
1.22203e-08
1.22203e-08
1.22202e-08
1.22201e-08
1.222e-08
1.22199e-08
1.22197e-08
1.22196e-08
1.22194e-08
1.22192e-08
1.22189e-08
1.2219e-08
1.2219e-08
1.2219e-08
1.22189e-08
1.22189e-08
1.22188e-08
1.22187e-08
1.22186e-08
1.22185e-08
1.22184e-08
1.22182e-08
1.2218e-08
1.22178e-08
1.22176e-08
1.22176e-08
1.22176e-08
1.22176e-08
1.22175e-08
1.22175e-08
1.22174e-08
1.22173e-08
1.22172e-08
1.22171e-08
1.2217e-08
1.22168e-08
1.22167e-08
1.22165e-08
1.22163e-08
1.22162e-08
1.22162e-08
1.22162e-08
1.22161e-08
1.22161e-08
1.2216e-08
1.22159e-08
1.22158e-08
1.22157e-08
1.22156e-08
1.22155e-08
1.22153e-08
1.22152e-08
1.2215e-08
1.22149e-08
1.22148e-08
1.22148e-08
1.22147e-08
1.22147e-08
1.22146e-08
1.22145e-08
1.22144e-08
1.22143e-08
1.22142e-08
1.22141e-08
1.2214e-08
1.22138e-08
1.22138e-08
1.22135e-08
1.22134e-08
1.22133e-08
1.22133e-08
1.22132e-08
1.22132e-08
1.22131e-08
1.2213e-08
1.22129e-08
1.22128e-08
1.22127e-08
1.22126e-08
1.22125e-08
1.22125e-08
1.22121e-08
1.2212e-08
1.22119e-08
1.22119e-08
1.22118e-08
1.22118e-08
1.22117e-08
1.22116e-08
1.22115e-08
1.22115e-08
1.22114e-08
1.22113e-08
1.22112e-08
1.22113e-08
1.22107e-08
1.22105e-08
1.22105e-08
1.22104e-08
1.22104e-08
1.22103e-08
1.22103e-08
1.22102e-08
1.22101e-08
1.22101e-08
1.221e-08
1.22099e-08
1.22098e-08
1.221e-08
1.22094e-08
1.22092e-08
1.22092e-08
1.22091e-08
1.2209e-08
1.22089e-08
1.22089e-08
1.22088e-08
1.22088e-08
1.22087e-08
1.22086e-08
1.22086e-08
1.22086e-08
1.22087e-08
1.2208e-08
1.22078e-08
1.22077e-08
1.22076e-08
1.22076e-08
1.22076e-08
1.22075e-08
1.22075e-08
1.22074e-08
1.22074e-08
1.22073e-08
1.22073e-08
1.22073e-08
1.22073e-08
1.21944e-08
1.21947e-08
1.21949e-08
1.21953e-08
1.21956e-08
1.21959e-08
1.21962e-08
1.21966e-08
1.21969e-08
1.21971e-08
1.21974e-08
1.21976e-08
1.21979e-08
1.21981e-08
1.21937e-08
1.2194e-08
1.21943e-08
1.21946e-08
1.21949e-08
1.21953e-08
1.21956e-08
1.21959e-08
1.21962e-08
1.21964e-08
1.21967e-08
1.21969e-08
1.21971e-08
1.21972e-08
1.2193e-08
1.21933e-08
1.21936e-08
1.2194e-08
1.21943e-08
1.21946e-08
1.21949e-08
1.21952e-08
1.21955e-08
1.21958e-08
1.2196e-08
1.21962e-08
1.21964e-08
1.21965e-08
1.21923e-08
1.21927e-08
1.21929e-08
1.21933e-08
1.21936e-08
1.21939e-08
1.21942e-08
1.21945e-08
1.21948e-08
1.21951e-08
1.21953e-08
1.21955e-08
1.21957e-08
1.21958e-08
1.21916e-08
1.2192e-08
1.21923e-08
1.21926e-08
1.21929e-08
1.21932e-08
1.21935e-08
1.21938e-08
1.21941e-08
1.21944e-08
1.21946e-08
1.21948e-08
1.21951e-08
1.21952e-08
1.2191e-08
1.21913e-08
1.21916e-08
1.21919e-08
1.21922e-08
1.21925e-08
1.21928e-08
1.21931e-08
1.21934e-08
1.21937e-08
1.21939e-08
1.21942e-08
1.21944e-08
1.21945e-08
1.21903e-08
1.21906e-08
1.21909e-08
1.21912e-08
1.21915e-08
1.21918e-08
1.21921e-08
1.21924e-08
1.21927e-08
1.2193e-08
1.21932e-08
1.21935e-08
1.21937e-08
1.21939e-08
1.21895e-08
1.21898e-08
1.21902e-08
1.21905e-08
1.21908e-08
1.21911e-08
1.21914e-08
1.21917e-08
1.2192e-08
1.21923e-08
1.21925e-08
1.21928e-08
1.2193e-08
1.21932e-08
1.21888e-08
1.21891e-08
1.21894e-08
1.21898e-08
1.21901e-08
1.21904e-08
1.21907e-08
1.2191e-08
1.21913e-08
1.21916e-08
1.21918e-08
1.21921e-08
1.21923e-08
1.21926e-08
1.21881e-08
1.21884e-08
1.21887e-08
1.2189e-08
1.21893e-08
1.21897e-08
1.219e-08
1.21903e-08
1.21906e-08
1.21909e-08
1.21911e-08
1.21914e-08
1.21916e-08
1.21919e-08
1.21874e-08
1.21877e-08
1.2188e-08
1.21883e-08
1.21886e-08
1.21889e-08
1.21892e-08
1.21895e-08
1.21898e-08
1.21902e-08
1.21904e-08
1.21907e-08
1.2191e-08
1.21913e-08
1.21867e-08
1.21869e-08
1.21873e-08
1.21876e-08
1.21879e-08
1.21882e-08
1.21885e-08
1.21888e-08
1.21891e-08
1.21895e-08
1.21898e-08
1.21901e-08
1.21903e-08
1.21907e-08
1.2186e-08
1.21862e-08
1.21865e-08
1.21868e-08
1.21871e-08
1.21875e-08
1.21878e-08
1.21881e-08
1.21884e-08
1.21887e-08
1.21891e-08
1.21894e-08
1.21897e-08
1.21901e-08
1.21853e-08
1.21855e-08
1.21858e-08
1.21861e-08
1.21864e-08
1.21867e-08
1.21871e-08
1.21874e-08
1.21877e-08
1.2188e-08
1.21884e-08
1.21887e-08
1.2189e-08
1.21894e-08
1.21624e-08
1.21628e-08
1.21632e-08
1.21637e-08
1.21642e-08
1.21647e-08
1.21652e-08
1.21657e-08
1.21662e-08
1.21667e-08
1.21672e-08
1.21677e-08
1.21682e-08
1.21687e-08
1.21622e-08
1.21627e-08
1.21631e-08
1.21636e-08
1.21641e-08
1.21647e-08
1.21652e-08
1.21657e-08
1.21662e-08
1.21667e-08
1.21672e-08
1.21677e-08
1.21682e-08
1.21686e-08
1.21622e-08
1.21626e-08
1.21631e-08
1.21636e-08
1.21641e-08
1.21646e-08
1.21651e-08
1.21656e-08
1.21661e-08
1.21666e-08
1.21671e-08
1.21676e-08
1.21681e-08
1.21685e-08
1.21621e-08
1.21626e-08
1.21631e-08
1.21636e-08
1.21641e-08
1.21646e-08
1.21651e-08
1.21656e-08
1.21661e-08
1.21666e-08
1.21671e-08
1.21676e-08
1.2168e-08
1.21684e-08
1.21621e-08
1.21625e-08
1.2163e-08
1.21635e-08
1.2164e-08
1.21646e-08
1.21651e-08
1.21656e-08
1.21661e-08
1.21666e-08
1.2167e-08
1.21675e-08
1.2168e-08
1.21684e-08
1.2162e-08
1.21625e-08
1.2163e-08
1.21635e-08
1.2164e-08
1.21645e-08
1.2165e-08
1.21655e-08
1.2166e-08
1.21665e-08
1.2167e-08
1.21675e-08
1.21679e-08
1.21683e-08
1.21619e-08
1.21624e-08
1.21629e-08
1.21634e-08
1.21639e-08
1.21645e-08
1.2165e-08
1.21655e-08
1.2166e-08
1.21665e-08
1.21669e-08
1.21674e-08
1.21678e-08
1.21683e-08
1.21619e-08
1.21624e-08
1.21629e-08
1.21634e-08
1.21639e-08
1.21644e-08
1.21649e-08
1.21654e-08
1.21659e-08
1.21664e-08
1.21669e-08
1.21673e-08
1.21678e-08
1.21682e-08
1.21618e-08
1.21623e-08
1.21628e-08
1.21633e-08
1.21638e-08
1.21643e-08
1.21648e-08
1.21653e-08
1.21658e-08
1.21663e-08
1.21668e-08
1.21673e-08
1.21677e-08
1.21682e-08
1.21617e-08
1.21622e-08
1.21627e-08
1.21632e-08
1.21637e-08
1.21642e-08
1.21647e-08
1.21653e-08
1.21658e-08
1.21663e-08
1.21667e-08
1.21672e-08
1.21677e-08
1.21681e-08
1.21616e-08
1.21621e-08
1.21626e-08
1.21631e-08
1.21636e-08
1.21641e-08
1.21647e-08
1.21652e-08
1.21657e-08
1.21662e-08
1.21667e-08
1.21672e-08
1.21676e-08
1.21681e-08
1.21615e-08
1.2162e-08
1.21625e-08
1.2163e-08
1.21635e-08
1.2164e-08
1.21646e-08
1.21651e-08
1.21656e-08
1.21661e-08
1.21666e-08
1.21671e-08
1.21675e-08
1.2168e-08
1.21614e-08
1.21619e-08
1.21624e-08
1.21629e-08
1.21634e-08
1.21639e-08
1.21645e-08
1.2165e-08
1.21655e-08
1.2166e-08
1.21665e-08
1.2167e-08
1.21675e-08
1.2168e-08
1.21613e-08
1.21618e-08
1.21623e-08
1.21628e-08
1.21633e-08
1.21638e-08
1.21644e-08
1.21649e-08
1.21654e-08
1.21659e-08
1.21664e-08
1.21669e-08
1.21674e-08
1.21679e-08
1.21312e-08
1.21316e-08
1.2132e-08
1.21324e-08
1.21329e-08
1.21334e-08
1.21339e-08
1.21344e-08
1.21349e-08
1.21354e-08
1.21359e-08
1.21365e-08
1.21371e-08
1.21376e-08
1.21314e-08
1.21318e-08
1.21323e-08
1.21328e-08
1.21333e-08
1.21337e-08
1.21343e-08
1.21348e-08
1.21353e-08
1.21358e-08
1.21363e-08
1.21369e-08
1.21374e-08
1.2138e-08
1.21318e-08
1.21322e-08
1.21327e-08
1.21331e-08
1.21336e-08
1.21341e-08
1.21346e-08
1.21351e-08
1.21357e-08
1.21362e-08
1.21367e-08
1.21372e-08
1.21378e-08
1.21383e-08
1.21321e-08
1.21325e-08
1.2133e-08
1.21335e-08
1.2134e-08
1.21345e-08
1.2135e-08
1.21355e-08
1.21361e-08
1.21366e-08
1.21371e-08
1.21376e-08
1.21382e-08
1.21387e-08
1.21325e-08
1.21329e-08
1.21334e-08
1.21339e-08
1.21344e-08
1.21349e-08
1.21354e-08
1.21359e-08
1.21364e-08
1.2137e-08
1.21375e-08
1.2138e-08
1.21385e-08
1.2139e-08
1.21328e-08
1.21333e-08
1.21338e-08
1.21343e-08
1.21348e-08
1.21353e-08
1.21358e-08
1.21363e-08
1.21368e-08
1.21373e-08
1.21379e-08
1.21384e-08
1.21389e-08
1.21394e-08
1.21332e-08
1.21336e-08
1.21341e-08
1.21346e-08
1.21351e-08
1.21356e-08
1.21362e-08
1.21367e-08
1.21372e-08
1.21377e-08
1.21382e-08
1.21387e-08
1.21392e-08
1.21397e-08
1.21335e-08
1.2134e-08
1.21345e-08
1.2135e-08
1.21355e-08
1.2136e-08
1.21365e-08
1.21371e-08
1.21376e-08
1.21381e-08
1.21386e-08
1.21391e-08
1.21396e-08
1.21401e-08
1.21339e-08
1.21344e-08
1.21348e-08
1.21354e-08
1.21359e-08
1.21364e-08
1.21369e-08
1.21374e-08
1.21379e-08
1.21385e-08
1.2139e-08
1.21395e-08
1.21399e-08
1.21404e-08
1.21342e-08
1.21347e-08
1.21352e-08
1.21357e-08
1.21362e-08
1.21368e-08
1.21373e-08
1.21378e-08
1.21383e-08
1.21388e-08
1.21393e-08
1.21398e-08
1.21403e-08
1.21408e-08
1.21346e-08
1.2135e-08
1.21355e-08
1.21361e-08
1.21366e-08
1.21371e-08
1.21376e-08
1.21382e-08
1.21387e-08
1.21392e-08
1.21397e-08
1.21402e-08
1.21407e-08
1.21411e-08
1.21349e-08
1.21354e-08
1.21359e-08
1.21364e-08
1.21369e-08
1.21375e-08
1.2138e-08
1.21385e-08
1.2139e-08
1.21396e-08
1.21401e-08
1.21405e-08
1.2141e-08
1.21415e-08
1.21352e-08
1.21357e-08
1.21362e-08
1.21368e-08
1.21373e-08
1.21378e-08
1.21383e-08
1.21389e-08
1.21394e-08
1.21399e-08
1.21404e-08
1.21409e-08
1.21414e-08
1.21419e-08
1.21356e-08
1.21361e-08
1.21366e-08
1.21371e-08
1.21376e-08
1.21382e-08
1.21387e-08
1.21392e-08
1.21397e-08
1.21403e-08
1.21408e-08
1.21413e-08
1.21418e-08
1.21423e-08
1.21017e-08
1.21019e-08
1.21022e-08
1.21025e-08
1.21028e-08
1.21032e-08
1.21035e-08
1.21038e-08
1.21042e-08
1.21046e-08
1.2105e-08
1.21054e-08
1.21059e-08
1.21064e-08
1.21021e-08
1.21023e-08
1.21026e-08
1.21029e-08
1.21033e-08
1.21036e-08
1.2104e-08
1.21043e-08
1.21047e-08
1.21051e-08
1.21055e-08
1.2106e-08
1.21064e-08
1.21069e-08
1.21025e-08
1.21028e-08
1.21031e-08
1.21034e-08
1.21038e-08
1.21041e-08
1.21045e-08
1.21048e-08
1.21052e-08
1.21056e-08
1.2106e-08
1.21065e-08
1.21069e-08
1.21074e-08
1.2103e-08
1.21032e-08
1.21036e-08
1.21039e-08
1.21042e-08
1.21046e-08
1.2105e-08
1.21053e-08
1.21057e-08
1.21061e-08
1.21066e-08
1.2107e-08
1.21074e-08
1.21079e-08
1.21034e-08
1.21037e-08
1.21041e-08
1.21044e-08
1.21047e-08
1.21051e-08
1.21055e-08
1.21059e-08
1.21062e-08
1.21067e-08
1.21071e-08
1.21075e-08
1.21079e-08
1.21084e-08
1.21039e-08
1.21042e-08
1.21046e-08
1.21049e-08
1.21053e-08
1.21056e-08
1.2106e-08
1.21064e-08
1.21068e-08
1.21072e-08
1.21076e-08
1.2108e-08
1.21085e-08
1.21089e-08
1.21044e-08
1.21048e-08
1.21051e-08
1.21054e-08
1.21058e-08
1.21061e-08
1.21065e-08
1.21069e-08
1.21073e-08
1.21077e-08
1.21081e-08
1.21085e-08
1.2109e-08
1.21094e-08
1.2105e-08
1.21053e-08
1.21056e-08
1.2106e-08
1.21063e-08
1.21067e-08
1.21071e-08
1.21074e-08
1.21078e-08
1.21082e-08
1.21086e-08
1.21091e-08
1.21095e-08
1.21099e-08
1.21055e-08
1.21058e-08
1.21061e-08
1.21065e-08
1.21068e-08
1.21072e-08
1.21076e-08
1.2108e-08
1.21084e-08
1.21088e-08
1.21092e-08
1.21096e-08
1.211e-08
1.21104e-08
1.2106e-08
1.21063e-08
1.21067e-08
1.2107e-08
1.21074e-08
1.21078e-08
1.21082e-08
1.21085e-08
1.21089e-08
1.21093e-08
1.21097e-08
1.21101e-08
1.21105e-08
1.21109e-08
1.21065e-08
1.21069e-08
1.21072e-08
1.21076e-08
1.2108e-08
1.21083e-08
1.21087e-08
1.21091e-08
1.21095e-08
1.21099e-08
1.21103e-08
1.21107e-08
1.21111e-08
1.21114e-08
1.21071e-08
1.21074e-08
1.21078e-08
1.21081e-08
1.21085e-08
1.21089e-08
1.21093e-08
1.21097e-08
1.21101e-08
1.21105e-08
1.21108e-08
1.21112e-08
1.21116e-08
1.2112e-08
1.21076e-08
1.2108e-08
1.21083e-08
1.21087e-08
1.21091e-08
1.21095e-08
1.21099e-08
1.21102e-08
1.21106e-08
1.2111e-08
1.21114e-08
1.21118e-08
1.21122e-08
1.21125e-08
1.21082e-08
1.21085e-08
1.21089e-08
1.21093e-08
1.21097e-08
1.211e-08
1.21104e-08
1.21108e-08
1.21112e-08
1.21116e-08
1.2112e-08
1.21123e-08
1.21127e-08
1.21132e-08
1.20742e-08
1.20743e-08
1.20744e-08
1.20746e-08
1.20747e-08
1.20749e-08
1.2075e-08
1.20752e-08
1.20754e-08
1.20756e-08
1.20758e-08
1.20761e-08
1.20763e-08
1.20766e-08
1.20746e-08
1.20746e-08
1.20748e-08
1.20749e-08
1.20751e-08
1.20752e-08
1.20754e-08
1.20756e-08
1.20758e-08
1.2076e-08
1.20762e-08
1.20765e-08
1.20768e-08
1.20771e-08
1.20749e-08
1.2075e-08
1.20752e-08
1.20753e-08
1.20754e-08
1.20756e-08
1.20758e-08
1.2076e-08
1.20762e-08
1.20764e-08
1.20766e-08
1.20769e-08
1.20772e-08
1.20775e-08
1.20753e-08
1.20754e-08
1.20755e-08
1.20757e-08
1.20758e-08
1.2076e-08
1.20762e-08
1.20764e-08
1.20766e-08
1.20768e-08
1.20771e-08
1.20773e-08
1.20776e-08
1.20779e-08
1.20757e-08
1.20758e-08
1.2076e-08
1.20761e-08
1.20762e-08
1.20764e-08
1.20766e-08
1.20768e-08
1.2077e-08
1.20772e-08
1.20775e-08
1.20778e-08
1.2078e-08
1.20784e-08
1.20762e-08
1.20763e-08
1.20764e-08
1.20765e-08
1.20767e-08
1.20768e-08
1.2077e-08
1.20772e-08
1.20774e-08
1.20777e-08
1.20779e-08
1.20782e-08
1.20785e-08
1.20788e-08
1.20766e-08
1.20767e-08
1.20768e-08
1.2077e-08
1.20771e-08
1.20773e-08
1.20775e-08
1.20777e-08
1.20779e-08
1.20781e-08
1.20784e-08
1.20786e-08
1.20789e-08
1.20792e-08
1.20771e-08
1.20772e-08
1.20773e-08
1.20774e-08
1.20776e-08
1.20778e-08
1.20779e-08
1.20781e-08
1.20784e-08
1.20786e-08
1.20788e-08
1.20791e-08
1.20794e-08
1.20797e-08
1.20775e-08
1.20777e-08
1.20778e-08
1.20779e-08
1.20781e-08
1.20783e-08
1.20784e-08
1.20786e-08
1.20789e-08
1.20791e-08
1.20793e-08
1.20796e-08
1.20798e-08
1.20801e-08
1.2078e-08
1.20782e-08
1.20783e-08
1.20784e-08
1.20786e-08
1.20788e-08
1.20789e-08
1.20791e-08
1.20794e-08
1.20796e-08
1.20798e-08
1.20801e-08
1.20803e-08
1.20806e-08
1.20785e-08
1.20787e-08
1.20788e-08
1.2079e-08
1.20791e-08
1.20793e-08
1.20795e-08
1.20797e-08
1.20799e-08
1.20801e-08
1.20803e-08
1.20806e-08
1.20808e-08
1.2081e-08
1.2079e-08
1.20792e-08
1.20793e-08
1.20795e-08
1.20797e-08
1.20798e-08
1.208e-08
1.20802e-08
1.20804e-08
1.20806e-08
1.20809e-08
1.20811e-08
1.20813e-08
1.20815e-08
1.20796e-08
1.20797e-08
1.20799e-08
1.208e-08
1.20802e-08
1.20804e-08
1.20806e-08
1.20808e-08
1.2081e-08
1.20812e-08
1.20814e-08
1.20816e-08
1.20818e-08
1.2082e-08
1.20802e-08
1.20803e-08
1.20804e-08
1.20806e-08
1.20808e-08
1.20809e-08
1.20811e-08
1.20813e-08
1.20815e-08
1.20817e-08
1.20819e-08
1.20821e-08
1.20824e-08
1.20826e-08
1.20491e-08
1.20491e-08
1.20491e-08
1.20491e-08
1.20491e-08
1.20491e-08
1.20492e-08
1.20492e-08
1.20492e-08
1.20493e-08
1.20493e-08
1.20494e-08
1.20495e-08
1.20496e-08
1.20493e-08
1.20493e-08
1.20493e-08
1.20493e-08
1.20493e-08
1.20493e-08
1.20493e-08
1.20494e-08
1.20494e-08
1.20495e-08
1.20495e-08
1.20496e-08
1.20497e-08
1.20498e-08
1.20495e-08
1.20495e-08
1.20495e-08
1.20495e-08
1.20495e-08
1.20495e-08
1.20495e-08
1.20496e-08
1.20496e-08
1.20497e-08
1.20498e-08
1.20499e-08
1.205e-08
1.20501e-08
1.20497e-08
1.20497e-08
1.20497e-08
1.20497e-08
1.20497e-08
1.20497e-08
1.20498e-08
1.20498e-08
1.20499e-08
1.20499e-08
1.205e-08
1.20501e-08
1.20502e-08
1.20503e-08
1.205e-08
1.205e-08
1.20499e-08
1.20499e-08
1.20499e-08
1.205e-08
1.205e-08
1.205e-08
1.20501e-08
1.20502e-08
1.20502e-08
1.20503e-08
1.20505e-08
1.20506e-08
1.20503e-08
1.20502e-08
1.20502e-08
1.20502e-08
1.20502e-08
1.20502e-08
1.20502e-08
1.20503e-08
1.20503e-08
1.20504e-08
1.20505e-08
1.20506e-08
1.20507e-08
1.20509e-08
1.20505e-08
1.20505e-08
1.20505e-08
1.20505e-08
1.20505e-08
1.20505e-08
1.20505e-08
1.20506e-08
1.20506e-08
1.20507e-08
1.20508e-08
1.20509e-08
1.2051e-08
1.20511e-08
1.20508e-08
1.20508e-08
1.20508e-08
1.20508e-08
1.20508e-08
1.20508e-08
1.20508e-08
1.20509e-08
1.20509e-08
1.2051e-08
1.20511e-08
1.20512e-08
1.20513e-08
1.20514e-08
1.20511e-08
1.20511e-08
1.20511e-08
1.20511e-08
1.20511e-08
1.20511e-08
1.20511e-08
1.20512e-08
1.20512e-08
1.20513e-08
1.20514e-08
1.20515e-08
1.20516e-08
1.20517e-08
1.20515e-08
1.20515e-08
1.20514e-08
1.20514e-08
1.20514e-08
1.20514e-08
1.20515e-08
1.20515e-08
1.20516e-08
1.20516e-08
1.20517e-08
1.20518e-08
1.20519e-08
1.2052e-08
1.20518e-08
1.20518e-08
1.20518e-08
1.20518e-08
1.20518e-08
1.20518e-08
1.20518e-08
1.20518e-08
1.20519e-08
1.2052e-08
1.2052e-08
1.20521e-08
1.20522e-08
1.20523e-08
1.20521e-08
1.20521e-08
1.20521e-08
1.20521e-08
1.20521e-08
1.20521e-08
1.20522e-08
1.20522e-08
1.20522e-08
1.20523e-08
1.20524e-08
1.20525e-08
1.20525e-08
1.20526e-08
1.20525e-08
1.20525e-08
1.20525e-08
1.20525e-08
1.20525e-08
1.20525e-08
1.20525e-08
1.20526e-08
1.20526e-08
1.20527e-08
1.20527e-08
1.20528e-08
1.20529e-08
1.20529e-08
1.20529e-08
1.20529e-08
1.20529e-08
1.20529e-08
1.20529e-08
1.20529e-08
1.20529e-08
1.20529e-08
1.2053e-08
1.2053e-08
1.20531e-08
1.20531e-08
1.20532e-08
1.20533e-08
1.20262e-08
1.20262e-08
1.20261e-08
1.20261e-08
1.2026e-08
1.2026e-08
1.20259e-08
1.20259e-08
1.20258e-08
1.20258e-08
1.20258e-08
1.20257e-08
1.20257e-08
1.20257e-08
1.20263e-08
1.20262e-08
1.20262e-08
1.20261e-08
1.20261e-08
1.2026e-08
1.2026e-08
1.20259e-08
1.20259e-08
1.20259e-08
1.20258e-08
1.20258e-08
1.20257e-08
1.20257e-08
1.20264e-08
1.20263e-08
1.20263e-08
1.20262e-08
1.20262e-08
1.20261e-08
1.20261e-08
1.2026e-08
1.2026e-08
1.20259e-08
1.20259e-08
1.20259e-08
1.20258e-08
1.20258e-08
1.20265e-08
1.20264e-08
1.20264e-08
1.20263e-08
1.20263e-08
1.20262e-08
1.20262e-08
1.20261e-08
1.20261e-08
1.2026e-08
1.2026e-08
1.2026e-08
1.20259e-08
1.20259e-08
1.20266e-08
1.20265e-08
1.20265e-08
1.20264e-08
1.20264e-08
1.20263e-08
1.20262e-08
1.20262e-08
1.20262e-08
1.20261e-08
1.20261e-08
1.20261e-08
1.2026e-08
1.2026e-08
1.20267e-08
1.20266e-08
1.20266e-08
1.20265e-08
1.20265e-08
1.20264e-08
1.20263e-08
1.20263e-08
1.20263e-08
1.20262e-08
1.20262e-08
1.20262e-08
1.20261e-08
1.20261e-08
1.20268e-08
1.20268e-08
1.20267e-08
1.20266e-08
1.20266e-08
1.20265e-08
1.20265e-08
1.20264e-08
1.20264e-08
1.20263e-08
1.20263e-08
1.20263e-08
1.20262e-08
1.20262e-08
1.20269e-08
1.20269e-08
1.20268e-08
1.20267e-08
1.20267e-08
1.20266e-08
1.20266e-08
1.20265e-08
1.20265e-08
1.20264e-08
1.20264e-08
1.20264e-08
1.20264e-08
1.20263e-08
1.20271e-08
1.2027e-08
1.20269e-08
1.20269e-08
1.20268e-08
1.20267e-08
1.20267e-08
1.20266e-08
1.20266e-08
1.20266e-08
1.20265e-08
1.20265e-08
1.20265e-08
1.20265e-08
1.20272e-08
1.20271e-08
1.20271e-08
1.2027e-08
1.20269e-08
1.20269e-08
1.20268e-08
1.20268e-08
1.20267e-08
1.20267e-08
1.20267e-08
1.20266e-08
1.20266e-08
1.20266e-08
1.20273e-08
1.20273e-08
1.20272e-08
1.20271e-08
1.20271e-08
1.2027e-08
1.2027e-08
1.20269e-08
1.20269e-08
1.20268e-08
1.20268e-08
1.20268e-08
1.20267e-08
1.20267e-08
1.20275e-08
1.20274e-08
1.20273e-08
1.20273e-08
1.20272e-08
1.20271e-08
1.20271e-08
1.2027e-08
1.2027e-08
1.20269e-08
1.20269e-08
1.20269e-08
1.20269e-08
1.20268e-08
1.20276e-08
1.20276e-08
1.20275e-08
1.20274e-08
1.20273e-08
1.20273e-08
1.20272e-08
1.20272e-08
1.20271e-08
1.20271e-08
1.2027e-08
1.2027e-08
1.2027e-08
1.20269e-08
1.20278e-08
1.20277e-08
1.20276e-08
1.20276e-08
1.20275e-08
1.20274e-08
1.20274e-08
1.20273e-08
1.20273e-08
1.20272e-08
1.20272e-08
1.20271e-08
1.20271e-08
1.20271e-08
1.20054e-08
1.20053e-08
1.20053e-08
1.20052e-08
1.20052e-08
1.20051e-08
1.20051e-08
1.2005e-08
1.2005e-08
1.20049e-08
1.20048e-08
1.20047e-08
1.20046e-08
1.20045e-08
1.20054e-08
1.20054e-08
1.20053e-08
1.20053e-08
1.20052e-08
1.20052e-08
1.20051e-08
1.2005e-08
1.2005e-08
1.20049e-08
1.20048e-08
1.20047e-08
1.20046e-08
1.20045e-08
1.20054e-08
1.20054e-08
1.20054e-08
1.20053e-08
1.20053e-08
1.20052e-08
1.20051e-08
1.20051e-08
1.2005e-08
1.20049e-08
1.20048e-08
1.20047e-08
1.20046e-08
1.20045e-08
1.20055e-08
1.20054e-08
1.20054e-08
1.20053e-08
1.20053e-08
1.20052e-08
1.20052e-08
1.20051e-08
1.2005e-08
1.20049e-08
1.20048e-08
1.20047e-08
1.20046e-08
1.20045e-08
1.20055e-08
1.20055e-08
1.20054e-08
1.20054e-08
1.20053e-08
1.20053e-08
1.20052e-08
1.20051e-08
1.2005e-08
1.2005e-08
1.20049e-08
1.20048e-08
1.20046e-08
1.20045e-08
1.20055e-08
1.20055e-08
1.20054e-08
1.20054e-08
1.20053e-08
1.20053e-08
1.20052e-08
1.20051e-08
1.20051e-08
1.2005e-08
1.20049e-08
1.20048e-08
1.20047e-08
1.20045e-08
1.20055e-08
1.20055e-08
1.20054e-08
1.20054e-08
1.20053e-08
1.20053e-08
1.20052e-08
1.20051e-08
1.20051e-08
1.2005e-08
1.20049e-08
1.20048e-08
1.20047e-08
1.20046e-08
1.20055e-08
1.20055e-08
1.20054e-08
1.20054e-08
1.20053e-08
1.20053e-08
1.20052e-08
1.20051e-08
1.20051e-08
1.2005e-08
1.20049e-08
1.20048e-08
1.20047e-08
1.20046e-08
1.20055e-08
1.20055e-08
1.20054e-08
1.20054e-08
1.20053e-08
1.20053e-08
1.20052e-08
1.20051e-08
1.20051e-08
1.2005e-08
1.20049e-08
1.20048e-08
1.20047e-08
1.20046e-08
1.20055e-08
1.20055e-08
1.20054e-08
1.20054e-08
1.20053e-08
1.20053e-08
1.20052e-08
1.20051e-08
1.2005e-08
1.2005e-08
1.20049e-08
1.20048e-08
1.20047e-08
1.20046e-08
1.20055e-08
1.20054e-08
1.20054e-08
1.20054e-08
1.20053e-08
1.20052e-08
1.20052e-08
1.20051e-08
1.2005e-08
1.20049e-08
1.20048e-08
1.20047e-08
1.20046e-08
1.20045e-08
1.20054e-08
1.20054e-08
1.20054e-08
1.20053e-08
1.20053e-08
1.20052e-08
1.20051e-08
1.20051e-08
1.2005e-08
1.20049e-08
1.20048e-08
1.20047e-08
1.20046e-08
1.20045e-08
1.20054e-08
1.20054e-08
1.20053e-08
1.20053e-08
1.20052e-08
1.20052e-08
1.20051e-08
1.2005e-08
1.20049e-08
1.20049e-08
1.20048e-08
1.20047e-08
1.20046e-08
1.20045e-08
1.20054e-08
1.20054e-08
1.20053e-08
1.20052e-08
1.20052e-08
1.20051e-08
1.20051e-08
1.2005e-08
1.20049e-08
1.20048e-08
1.20047e-08
1.20046e-08
1.20046e-08
1.20045e-08
1.19862e-08
1.19862e-08
1.19862e-08
1.19862e-08
1.19862e-08
1.19862e-08
1.19862e-08
1.19861e-08
1.19861e-08
1.1986e-08
1.19859e-08
1.19858e-08
1.19857e-08
1.19856e-08
1.19863e-08
1.19863e-08
1.19863e-08
1.19863e-08
1.19863e-08
1.19863e-08
1.19862e-08
1.19862e-08
1.19861e-08
1.1986e-08
1.19859e-08
1.19858e-08
1.19857e-08
1.19855e-08
1.19863e-08
1.19863e-08
1.19863e-08
1.19863e-08
1.19863e-08
1.19863e-08
1.19863e-08
1.19862e-08
1.19862e-08
1.19861e-08
1.1986e-08
1.19858e-08
1.19857e-08
1.19856e-08
1.19863e-08
1.19864e-08
1.19864e-08
1.19864e-08
1.19864e-08
1.19863e-08
1.19863e-08
1.19862e-08
1.19862e-08
1.19861e-08
1.1986e-08
1.19859e-08
1.19857e-08
1.19856e-08
1.19863e-08
1.19864e-08
1.19864e-08
1.19864e-08
1.19864e-08
1.19864e-08
1.19863e-08
1.19863e-08
1.19862e-08
1.19861e-08
1.1986e-08
1.19859e-08
1.19857e-08
1.19856e-08
1.19863e-08
1.19864e-08
1.19864e-08
1.19864e-08
1.19864e-08
1.19863e-08
1.19863e-08
1.19862e-08
1.19862e-08
1.19861e-08
1.1986e-08
1.19858e-08
1.19857e-08
1.19856e-08
1.19863e-08
1.19863e-08
1.19863e-08
1.19864e-08
1.19863e-08
1.19863e-08
1.19863e-08
1.19862e-08
1.19861e-08
1.1986e-08
1.19859e-08
1.19858e-08
1.19857e-08
1.19855e-08
1.19862e-08
1.19863e-08
1.19863e-08
1.19863e-08
1.19863e-08
1.19863e-08
1.19862e-08
1.19862e-08
1.19861e-08
1.1986e-08
1.19859e-08
1.19858e-08
1.19856e-08
1.19855e-08
1.19862e-08
1.19862e-08
1.19862e-08
1.19863e-08
1.19862e-08
1.19862e-08
1.19862e-08
1.19861e-08
1.1986e-08
1.19859e-08
1.19858e-08
1.19857e-08
1.19856e-08
1.19854e-08
1.19861e-08
1.19861e-08
1.19862e-08
1.19862e-08
1.19862e-08
1.19861e-08
1.19861e-08
1.1986e-08
1.1986e-08
1.19859e-08
1.19858e-08
1.19856e-08
1.19855e-08
1.19854e-08
1.1986e-08
1.1986e-08
1.19861e-08
1.19861e-08
1.19861e-08
1.1986e-08
1.1986e-08
1.19859e-08
1.19859e-08
1.19858e-08
1.19857e-08
1.19856e-08
1.19854e-08
1.19853e-08
1.19859e-08
1.19859e-08
1.1986e-08
1.1986e-08
1.1986e-08
1.19859e-08
1.19859e-08
1.19858e-08
1.19858e-08
1.19857e-08
1.19856e-08
1.19854e-08
1.19853e-08
1.19852e-08
1.19858e-08
1.19858e-08
1.19858e-08
1.19858e-08
1.19858e-08
1.19858e-08
1.19858e-08
1.19857e-08
1.19856e-08
1.19855e-08
1.19854e-08
1.19853e-08
1.19852e-08
1.19851e-08
1.19857e-08
1.19857e-08
1.19857e-08
1.19857e-08
1.19857e-08
1.19857e-08
1.19856e-08
1.19856e-08
1.19855e-08
1.19854e-08
1.19853e-08
1.19852e-08
1.19851e-08
1.1985e-08
1.19686e-08
1.19687e-08
1.19688e-08
1.19688e-08
1.19688e-08
1.19688e-08
1.19688e-08
1.19688e-08
1.19688e-08
1.19687e-08
1.19686e-08
1.19685e-08
1.19684e-08
1.19683e-08
1.19687e-08
1.19688e-08
1.19688e-08
1.19689e-08
1.19689e-08
1.19689e-08
1.19689e-08
1.19689e-08
1.19689e-08
1.19688e-08
1.19687e-08
1.19686e-08
1.19685e-08
1.19683e-08
1.19688e-08
1.19688e-08
1.19689e-08
1.1969e-08
1.1969e-08
1.1969e-08
1.1969e-08
1.1969e-08
1.19689e-08
1.19689e-08
1.19688e-08
1.19687e-08
1.19685e-08
1.19684e-08
1.19688e-08
1.19689e-08
1.1969e-08
1.1969e-08
1.1969e-08
1.1969e-08
1.1969e-08
1.1969e-08
1.1969e-08
1.19689e-08
1.19688e-08
1.19687e-08
1.19686e-08
1.19684e-08
1.19688e-08
1.19689e-08
1.1969e-08
1.1969e-08
1.19691e-08
1.19691e-08
1.19691e-08
1.1969e-08
1.1969e-08
1.19689e-08
1.19688e-08
1.19687e-08
1.19686e-08
1.19684e-08
1.19688e-08
1.19689e-08
1.1969e-08
1.1969e-08
1.19691e-08
1.19691e-08
1.19691e-08
1.1969e-08
1.1969e-08
1.19689e-08
1.19688e-08
1.19687e-08
1.19686e-08
1.19684e-08
1.19688e-08
1.19689e-08
1.1969e-08
1.1969e-08
1.19691e-08
1.19691e-08
1.19691e-08
1.1969e-08
1.1969e-08
1.19689e-08
1.19688e-08
1.19687e-08
1.19686e-08
1.19684e-08
1.19688e-08
1.19689e-08
1.19689e-08
1.1969e-08
1.1969e-08
1.1969e-08
1.1969e-08
1.1969e-08
1.19689e-08
1.19689e-08
1.19688e-08
1.19687e-08
1.19685e-08
1.19684e-08
1.19687e-08
1.19688e-08
1.19689e-08
1.19689e-08
1.1969e-08
1.1969e-08
1.1969e-08
1.19689e-08
1.19689e-08
1.19688e-08
1.19687e-08
1.19686e-08
1.19685e-08
1.19683e-08
1.19686e-08
1.19687e-08
1.19688e-08
1.19688e-08
1.19689e-08
1.19689e-08
1.19689e-08
1.19688e-08
1.19688e-08
1.19687e-08
1.19686e-08
1.19685e-08
1.19684e-08
1.19683e-08
1.19685e-08
1.19686e-08
1.19687e-08
1.19687e-08
1.19688e-08
1.19688e-08
1.19688e-08
1.19687e-08
1.19687e-08
1.19686e-08
1.19685e-08
1.19684e-08
1.19683e-08
1.19682e-08
1.19684e-08
1.19685e-08
1.19686e-08
1.19686e-08
1.19686e-08
1.19687e-08
1.19686e-08
1.19686e-08
1.19686e-08
1.19685e-08
1.19684e-08
1.19683e-08
1.19682e-08
1.19681e-08
1.19683e-08
1.19684e-08
1.19684e-08
1.19685e-08
1.19685e-08
1.19685e-08
1.19685e-08
1.19685e-08
1.19684e-08
1.19684e-08
1.19683e-08
1.19682e-08
1.19681e-08
1.1968e-08
1.19682e-08
1.19682e-08
1.19683e-08
1.19683e-08
1.19683e-08
1.19684e-08
1.19683e-08
1.19683e-08
1.19683e-08
1.19682e-08
1.19681e-08
1.1968e-08
1.19679e-08
1.19678e-08
1.19524e-08
1.19525e-08
1.19526e-08
1.19527e-08
1.19527e-08
1.19527e-08
1.19528e-08
1.19528e-08
1.19527e-08
1.19527e-08
1.19526e-08
1.19526e-08
1.19525e-08
1.19524e-08
1.19525e-08
1.19526e-08
1.19527e-08
1.19528e-08
1.19528e-08
1.19529e-08
1.19529e-08
1.19529e-08
1.19528e-08
1.19528e-08
1.19527e-08
1.19527e-08
1.19526e-08
1.19524e-08
1.19526e-08
1.19527e-08
1.19528e-08
1.19529e-08
1.19529e-08
1.19529e-08
1.1953e-08
1.1953e-08
1.19529e-08
1.19529e-08
1.19528e-08
1.19527e-08
1.19526e-08
1.19525e-08
1.19526e-08
1.19528e-08
1.19528e-08
1.19529e-08
1.1953e-08
1.1953e-08
1.1953e-08
1.1953e-08
1.1953e-08
1.1953e-08
1.19529e-08
1.19528e-08
1.19527e-08
1.19526e-08
1.19527e-08
1.19528e-08
1.19529e-08
1.1953e-08
1.1953e-08
1.19531e-08
1.19531e-08
1.19531e-08
1.19531e-08
1.1953e-08
1.19529e-08
1.19529e-08
1.19527e-08
1.19526e-08
1.19527e-08
1.19528e-08
1.19529e-08
1.1953e-08
1.19531e-08
1.19531e-08
1.19531e-08
1.19531e-08
1.19531e-08
1.1953e-08
1.1953e-08
1.19529e-08
1.19528e-08
1.19526e-08
1.19527e-08
1.19528e-08
1.19529e-08
1.1953e-08
1.19531e-08
1.19531e-08
1.19531e-08
1.19531e-08
1.19531e-08
1.1953e-08
1.1953e-08
1.19529e-08
1.19528e-08
1.19526e-08
1.19527e-08
1.19528e-08
1.19529e-08
1.1953e-08
1.19531e-08
1.19531e-08
1.19531e-08
1.19531e-08
1.19531e-08
1.1953e-08
1.1953e-08
1.19529e-08
1.19528e-08
1.19526e-08
1.19527e-08
1.19528e-08
1.19529e-08
1.1953e-08
1.1953e-08
1.19531e-08
1.19531e-08
1.19531e-08
1.1953e-08
1.1953e-08
1.19529e-08
1.19528e-08
1.19527e-08
1.19526e-08
1.19526e-08
1.19527e-08
1.19528e-08
1.19529e-08
1.1953e-08
1.1953e-08
1.1953e-08
1.1953e-08
1.1953e-08
1.19529e-08
1.19529e-08
1.19528e-08
1.19527e-08
1.19526e-08
1.19525e-08
1.19526e-08
1.19527e-08
1.19528e-08
1.19529e-08
1.19529e-08
1.19529e-08
1.19529e-08
1.19529e-08
1.19529e-08
1.19528e-08
1.19527e-08
1.19526e-08
1.19525e-08
1.19524e-08
1.19525e-08
1.19526e-08
1.19527e-08
1.19528e-08
1.19528e-08
1.19528e-08
1.19528e-08
1.19528e-08
1.19528e-08
1.19527e-08
1.19526e-08
1.19525e-08
1.19524e-08
1.19523e-08
1.19524e-08
1.19525e-08
1.19526e-08
1.19527e-08
1.19527e-08
1.19527e-08
1.19527e-08
1.19527e-08
1.19526e-08
1.19526e-08
1.19525e-08
1.19524e-08
1.19523e-08
1.19522e-08
1.19523e-08
1.19524e-08
1.19525e-08
1.19525e-08
1.19525e-08
1.19526e-08
1.19526e-08
1.19525e-08
1.19525e-08
1.19524e-08
1.19524e-08
1.19523e-08
1.19522e-08
1.19374e-08
1.19375e-08
1.19376e-08
1.19376e-08
1.19377e-08
1.19377e-08
1.19377e-08
1.19378e-08
1.19377e-08
1.19377e-08
1.19377e-08
1.19376e-08
1.19375e-08
1.19375e-08
1.19375e-08
1.19376e-08
1.19377e-08
1.19377e-08
1.19378e-08
1.19378e-08
1.19379e-08
1.19379e-08
1.19379e-08
1.19378e-08
1.19378e-08
1.19377e-08
1.19377e-08
1.19376e-08
1.19375e-08
1.19376e-08
1.19377e-08
1.19378e-08
1.19379e-08
1.19379e-08
1.1938e-08
1.1938e-08
1.1938e-08
1.19379e-08
1.19379e-08
1.19378e-08
1.19377e-08
1.19377e-08
1.19376e-08
1.19377e-08
1.19378e-08
1.19379e-08
1.1938e-08
1.1938e-08
1.1938e-08
1.1938e-08
1.1938e-08
1.1938e-08
1.1938e-08
1.19379e-08
1.19378e-08
1.19377e-08
1.19377e-08
1.19378e-08
1.19379e-08
1.1938e-08
1.1938e-08
1.19381e-08
1.19381e-08
1.19381e-08
1.19381e-08
1.19381e-08
1.1938e-08