/*--------------------------------*- C++ -*----------------------------------*\
| =========                 |                                                 |
| \\      /  F ield         | OpenFOAM: The Open Source CFD Toolbox           |
|  \\    /   O peration     | Version:  v2106                                 |
|   \\  /    A nd           | Website:  www.openfoam.com                      |
|    \\/     M anipulation  |                                                 |
\*---------------------------------------------------------------------------*/
FoamFile
{
    version     2.0;
    format      ascii;
    arch        "LSB;label=32;scalar=64";
    class       volScalarField;
    location    "0.000198";
    object      nut;
}
// * * * * * * * * * * * * * * * * * * * * * * * * * * * * * * * * * * * * * //

dimensions      [0 2 -1 0 0 0 0];

internalField   nonuniform List<scalar> 
17920
(
3.57554e-17
3.57544e-17
3.57535e-17
3.57525e-17
3.57517e-17
3.57507e-17
3.57498e-17
3.57489e-17
3.57479e-17
3.5747e-17
3.57459e-17
3.5745e-17
3.57438e-17
3.57431e-17
3.57418e-17
3.57411e-17
3.57397e-17
3.57391e-17
3.57376e-17
3.57371e-17
3.57355e-17
3.57351e-17
3.57334e-17
3.57331e-17
3.57314e-17
3.57311e-17
3.57293e-17
3.57291e-17
3.57269e-17
3.57269e-17
3.57268e-17
3.57268e-17
3.57268e-17
3.57268e-17
3.57268e-17
3.57267e-17
3.57265e-17
3.57264e-17
3.57262e-17
3.57259e-17
3.57257e-17
3.57254e-17
3.57253e-17
3.57254e-17
3.57254e-17
3.57254e-17
3.57254e-17
3.57253e-17
3.57253e-17
3.57252e-17
3.5725e-17
3.57248e-17
3.57246e-17
3.57243e-17
3.57241e-17
3.57237e-17
3.57238e-17
3.57239e-17
3.57239e-17
3.57239e-17
3.57239e-17
3.57238e-17
3.57238e-17
3.57237e-17
3.57235e-17
3.57233e-17
3.57232e-17
3.57229e-17
3.57226e-17
3.57223e-17
3.57223e-17
3.57224e-17
3.57224e-17
3.57224e-17
3.57224e-17
3.57223e-17
3.57222e-17
3.57221e-17
3.5722e-17
3.57218e-17
3.57216e-17
3.57214e-17
3.57211e-17
3.57208e-17
3.57208e-17
3.57209e-17
3.57209e-17
3.57209e-17
3.57208e-17
3.57208e-17
3.57207e-17
3.57206e-17
3.57204e-17
3.57203e-17
3.57201e-17
3.57199e-17
3.57197e-17
3.57193e-17
3.57193e-17
3.57193e-17
3.57193e-17
3.57193e-17
3.57193e-17
3.57192e-17
3.57191e-17
3.5719e-17
3.57189e-17
3.57187e-17
3.57186e-17
3.57184e-17
3.57182e-17
3.57179e-17
3.57178e-17
3.57178e-17
3.57177e-17
3.57177e-17
3.57177e-17
3.57176e-17
3.57175e-17
3.57174e-17
3.57173e-17
3.57172e-17
3.5717e-17
3.57168e-17
3.57167e-17
3.57164e-17
3.57162e-17
3.57162e-17
3.57162e-17
3.57161e-17
3.57161e-17
3.5716e-17
3.57159e-17
3.57158e-17
3.57157e-17
3.57156e-17
3.57155e-17
3.57153e-17
3.57151e-17
3.5715e-17
3.57146e-17
3.57146e-17
3.57145e-17
3.57145e-17
3.57145e-17
3.57144e-17
3.57143e-17
3.57142e-17
3.57141e-17
3.5714e-17
3.57139e-17
3.57138e-17
3.57136e-17
3.57136e-17
3.57131e-17
3.57129e-17
3.57129e-17
3.57129e-17
3.57128e-17
3.57128e-17
3.57127e-17
3.57127e-17
3.57126e-17
3.57125e-17
3.57124e-17
3.57123e-17
3.57121e-17
3.57121e-17
3.57115e-17
3.57113e-17
3.57113e-17
3.57113e-17
3.57112e-17
3.57112e-17
3.57111e-17
3.57111e-17
3.5711e-17
3.57109e-17
3.57108e-17
3.57107e-17
3.57106e-17
3.57107e-17
3.571e-17
3.57097e-17
3.57097e-17
3.57097e-17
3.57096e-17
3.57096e-17
3.57095e-17
3.57095e-17
3.57094e-17
3.57093e-17
3.57093e-17
3.57092e-17
3.57091e-17
3.57092e-17
3.57085e-17
3.57082e-17
3.57082e-17
3.57081e-17
3.5708e-17
3.5708e-17
3.57079e-17
3.57079e-17
3.57078e-17
3.57078e-17
3.57077e-17
3.57077e-17
3.57076e-17
3.57078e-17
3.57068e-17
3.57066e-17
3.57065e-17
3.57065e-17
3.57065e-17
3.57064e-17
3.57064e-17
3.57063e-17
3.57063e-17
3.57063e-17
3.57062e-17
3.57062e-17
3.57062e-17
3.57063e-17
3.56867e-17
3.56871e-17
3.56874e-17
3.56878e-17
3.56882e-17
3.56886e-17
3.56889e-17
3.56893e-17
3.56897e-17
3.569e-17
3.56903e-17
3.56906e-17
3.56909e-17
3.56911e-17
3.5686e-17
3.56863e-17
3.56867e-17
3.56871e-17
3.56874e-17
3.56878e-17
3.56882e-17
3.56886e-17
3.56889e-17
3.56892e-17
3.56895e-17
3.56898e-17
3.569e-17
3.56901e-17
3.56852e-17
3.56856e-17
3.56859e-17
3.56863e-17
3.56867e-17
3.56871e-17
3.56875e-17
3.56878e-17
3.56881e-17
3.56884e-17
3.56887e-17
3.5689e-17
3.56893e-17
3.56894e-17
3.56844e-17
3.56848e-17
3.56852e-17
3.56856e-17
3.5686e-17
3.56863e-17
3.56867e-17
3.5687e-17
3.56874e-17
3.56877e-17
3.5688e-17
3.56882e-17
3.56885e-17
3.56886e-17
3.56837e-17
3.56841e-17
3.56844e-17
3.56848e-17
3.56852e-17
3.56856e-17
3.56859e-17
3.56863e-17
3.56866e-17
3.56869e-17
3.56872e-17
3.56875e-17
3.56877e-17
3.56879e-17
3.56829e-17
3.56833e-17
3.56836e-17
3.5684e-17
3.56844e-17
3.56848e-17
3.56851e-17
3.56855e-17
3.56858e-17
3.56861e-17
3.56864e-17
3.56867e-17
3.56869e-17
3.56871e-17
3.56821e-17
3.56825e-17
3.56829e-17
3.56832e-17
3.56836e-17
3.5684e-17
3.56843e-17
3.56847e-17
3.5685e-17
3.56853e-17
3.56856e-17
3.56859e-17
3.56862e-17
3.56864e-17
3.56813e-17
3.56817e-17
3.56821e-17
3.56824e-17
3.56828e-17
3.56832e-17
3.56835e-17
3.56839e-17
3.56842e-17
3.56846e-17
3.56849e-17
3.56852e-17
3.56854e-17
3.56857e-17
3.56805e-17
3.56809e-17
3.56813e-17
3.56816e-17
3.5682e-17
3.56824e-17
3.56827e-17
3.56831e-17
3.56834e-17
3.56838e-17
3.56841e-17
3.56844e-17
3.56846e-17
3.56849e-17
3.56797e-17
3.568e-17
3.56804e-17
3.56808e-17
3.56812e-17
3.56815e-17
3.56819e-17
3.56823e-17
3.56826e-17
3.5683e-17
3.56833e-17
3.56836e-17
3.56839e-17
3.56842e-17
3.56789e-17
3.56792e-17
3.56796e-17
3.568e-17
3.56804e-17
3.56807e-17
3.56811e-17
3.56815e-17
3.56818e-17
3.56822e-17
3.56825e-17
3.56829e-17
3.56831e-17
3.56835e-17
3.56781e-17
3.56784e-17
3.56788e-17
3.56792e-17
3.56795e-17
3.56799e-17
3.56803e-17
3.56806e-17
3.5681e-17
3.56814e-17
3.56817e-17
3.56821e-17
3.56824e-17
3.56828e-17
3.56773e-17
3.56776e-17
3.5678e-17
3.56783e-17
3.56787e-17
3.56791e-17
3.56795e-17
3.56798e-17
3.56802e-17
3.56806e-17
3.56809e-17
3.56813e-17
3.56817e-17
3.56821e-17
3.56765e-17
3.56768e-17
3.56771e-17
3.56775e-17
3.56779e-17
3.56783e-17
3.56786e-17
3.5679e-17
3.56794e-17
3.56798e-17
3.56802e-17
3.56805e-17
3.56809e-17
3.56813e-17
3.5646e-17
3.56465e-17
3.5647e-17
3.56476e-17
3.56482e-17
3.56487e-17
3.56493e-17
3.56499e-17
3.56505e-17
3.56511e-17
3.56517e-17
3.56523e-17
3.56528e-17
3.56534e-17
3.56459e-17
3.56464e-17
3.5647e-17
3.56475e-17
3.56481e-17
3.56487e-17
3.56493e-17
3.56499e-17
3.56505e-17
3.56511e-17
3.56516e-17
3.56522e-17
3.56527e-17
3.56533e-17
3.56458e-17
3.56464e-17
3.56469e-17
3.56475e-17
3.56481e-17
3.56487e-17
3.56493e-17
3.56499e-17
3.56505e-17
3.5651e-17
3.56516e-17
3.56522e-17
3.56527e-17
3.56532e-17
3.56458e-17
3.56463e-17
3.56469e-17
3.56475e-17
3.56481e-17
3.56487e-17
3.56493e-17
3.56499e-17
3.56504e-17
3.5651e-17
3.56516e-17
3.56521e-17
3.56526e-17
3.56531e-17
3.56458e-17
3.56463e-17
3.56469e-17
3.56475e-17
3.56481e-17
3.56487e-17
3.56493e-17
3.56498e-17
3.56504e-17
3.5651e-17
3.56515e-17
3.56521e-17
3.56526e-17
3.56531e-17
3.56457e-17
3.56463e-17
3.56468e-17
3.56474e-17
3.5648e-17
3.56486e-17
3.56492e-17
3.56498e-17
3.56504e-17
3.56509e-17
3.56515e-17
3.5652e-17
3.56525e-17
3.5653e-17
3.56456e-17
3.56462e-17
3.56468e-17
3.56474e-17
3.5648e-17
3.56486e-17
3.56492e-17
3.56498e-17
3.56503e-17
3.56509e-17
3.56514e-17
3.5652e-17
3.56525e-17
3.5653e-17
3.56456e-17
3.56461e-17
3.56467e-17
3.56473e-17
3.56479e-17
3.56485e-17
3.56491e-17
3.56497e-17
3.56503e-17
3.56508e-17
3.56514e-17
3.56519e-17
3.56524e-17
3.56529e-17
3.56455e-17
3.56461e-17
3.56467e-17
3.56472e-17
3.56478e-17
3.56484e-17
3.5649e-17
3.56496e-17
3.56502e-17
3.56508e-17
3.56513e-17
3.56519e-17
3.56524e-17
3.56529e-17
3.56454e-17
3.5646e-17
3.56466e-17
3.56472e-17
3.56478e-17
3.56484e-17
3.5649e-17
3.56496e-17
3.56501e-17
3.56507e-17
3.56513e-17
3.56518e-17
3.56523e-17
3.56528e-17
3.56453e-17
3.56459e-17
3.56465e-17
3.56471e-17
3.56477e-17
3.56483e-17
3.56489e-17
3.56495e-17
3.565e-17
3.56506e-17
3.56512e-17
3.56517e-17
3.56522e-17
3.56528e-17
3.56452e-17
3.56458e-17
3.56463e-17
3.56469e-17
3.56475e-17
3.56482e-17
3.56488e-17
3.56494e-17
3.565e-17
3.56505e-17
3.56511e-17
3.56517e-17
3.56522e-17
3.56527e-17
3.56451e-17
3.56457e-17
3.56462e-17
3.56468e-17
3.56474e-17
3.56481e-17
3.56487e-17
3.56493e-17
3.56499e-17
3.56504e-17
3.5651e-17
3.56516e-17
3.56521e-17
3.56527e-17
3.5645e-17
3.56456e-17
3.56461e-17
3.56467e-17
3.56473e-17
3.56479e-17
3.56485e-17
3.56492e-17
3.56498e-17
3.56503e-17
3.56509e-17
3.56515e-17
3.5652e-17
3.56526e-17
3.56066e-17
3.5607e-17
3.56075e-17
3.5608e-17
3.56085e-17
3.56091e-17
3.56096e-17
3.56102e-17
3.56108e-17
3.56114e-17
3.5612e-17
3.56127e-17
3.56133e-17
3.5614e-17
3.56069e-17
3.56073e-17
3.56078e-17
3.56084e-17
3.56089e-17
3.56095e-17
3.56101e-17
3.56107e-17
3.56113e-17
3.56119e-17
3.56125e-17
3.56131e-17
3.56137e-17
3.56144e-17
3.56073e-17
3.56077e-17
3.56083e-17
3.56088e-17
3.56094e-17
3.561e-17
3.56106e-17
3.56111e-17
3.56117e-17
3.56123e-17
3.56129e-17
3.56135e-17
3.56141e-17
3.56148e-17
3.56077e-17
3.56081e-17
3.56087e-17
3.56093e-17
3.56098e-17
3.56104e-17
3.5611e-17
3.56116e-17
3.56122e-17
3.56128e-17
3.56134e-17
3.5614e-17
3.56146e-17
3.56152e-17
3.56081e-17
3.56086e-17
3.56091e-17
3.56097e-17
3.56103e-17
3.56109e-17
3.56115e-17
3.56121e-17
3.56126e-17
3.56132e-17
3.56138e-17
3.56144e-17
3.5615e-17
3.56156e-17
3.56085e-17
3.5609e-17
3.56096e-17
3.56101e-17
3.56107e-17
3.56113e-17
3.56119e-17
3.56125e-17
3.56131e-17
3.56137e-17
3.56143e-17
3.56149e-17
3.56155e-17
3.5616e-17
3.56089e-17
3.56094e-17
3.561e-17
3.56106e-17
3.56112e-17
3.56118e-17
3.56123e-17
3.56129e-17
3.56135e-17
3.56141e-17
3.56147e-17
3.56153e-17
3.56159e-17
3.56164e-17
3.56093e-17
3.56099e-17
3.56104e-17
3.5611e-17
3.56116e-17
3.56122e-17
3.56128e-17
3.56134e-17
3.5614e-17
3.56146e-17
3.56152e-17
3.56157e-17
3.56163e-17
3.56168e-17
3.56097e-17
3.56103e-17
3.56108e-17
3.56114e-17
3.5612e-17
3.56126e-17
3.56132e-17
3.56138e-17
3.56144e-17
3.5615e-17
3.56156e-17
3.56162e-17
3.56167e-17
3.56172e-17
3.56101e-17
3.56107e-17
3.56113e-17
3.56118e-17
3.56124e-17
3.5613e-17
3.56137e-17
3.56143e-17
3.56148e-17
3.56154e-17
3.5616e-17
3.56166e-17
3.56171e-17
3.56176e-17
3.56105e-17
3.56111e-17
3.56116e-17
3.56123e-17
3.56129e-17
3.56135e-17
3.56141e-17
3.56147e-17
3.56153e-17
3.56159e-17
3.56164e-17
3.5617e-17
3.56175e-17
3.56181e-17
3.56109e-17
3.56115e-17
3.56121e-17
3.56127e-17
3.56133e-17
3.56139e-17
3.56145e-17
3.56151e-17
3.56157e-17
3.56163e-17
3.56169e-17
3.56174e-17
3.5618e-17
3.56185e-17
3.56113e-17
3.56119e-17
3.56124e-17
3.56131e-17
3.56137e-17
3.56143e-17
3.56149e-17
3.56155e-17
3.56161e-17
3.56167e-17
3.56173e-17
3.56178e-17
3.56184e-17
3.5619e-17
3.56117e-17
3.56123e-17
3.56128e-17
3.56135e-17
3.56141e-17
3.56147e-17
3.56153e-17
3.56159e-17
3.56165e-17
3.56171e-17
3.56177e-17
3.56182e-17
3.56188e-17
3.56194e-17
3.55692e-17
3.55695e-17
3.55698e-17
3.55702e-17
3.55705e-17
3.55709e-17
3.55713e-17
3.55717e-17
3.55721e-17
3.55726e-17
3.5573e-17
3.55735e-17
3.5574e-17
3.55746e-17
3.55696e-17
3.55699e-17
3.55703e-17
3.55707e-17
3.5571e-17
3.55714e-17
3.55719e-17
3.55723e-17
3.55727e-17
3.55732e-17
3.55737e-17
3.55742e-17
3.55747e-17
3.55752e-17
3.55702e-17
3.55705e-17
3.55708e-17
3.55712e-17
3.55716e-17
3.5572e-17
3.55724e-17
3.55729e-17
3.55733e-17
3.55738e-17
3.55742e-17
3.55747e-17
3.55752e-17
3.55758e-17
3.55707e-17
3.5571e-17
3.55714e-17
3.55718e-17
3.55722e-17
3.55726e-17
3.5573e-17
3.55734e-17
3.55739e-17
3.55744e-17
3.55748e-17
3.55753e-17
3.55758e-17
3.55764e-17
3.55713e-17
3.55716e-17
3.5572e-17
3.55724e-17
3.55728e-17
3.55732e-17
3.55736e-17
3.5574e-17
3.55745e-17
3.55749e-17
3.55754e-17
3.55759e-17
3.55764e-17
3.55769e-17
3.55718e-17
3.55722e-17
3.55726e-17
3.5573e-17
3.55734e-17
3.55738e-17
3.55742e-17
3.55746e-17
3.55751e-17
3.55756e-17
3.5576e-17
3.55765e-17
3.5577e-17
3.55775e-17
3.55724e-17
3.55728e-17
3.55732e-17
3.55736e-17
3.5574e-17
3.55744e-17
3.55748e-17
3.55753e-17
3.55757e-17
3.55762e-17
3.55766e-17
3.55771e-17
3.55776e-17
3.55781e-17
3.5573e-17
3.55734e-17
3.55738e-17
3.55742e-17
3.55746e-17
3.5575e-17
3.55754e-17
3.55759e-17
3.55763e-17
3.55768e-17
3.55773e-17
3.55777e-17
3.55782e-17
3.55787e-17
3.55736e-17
3.5574e-17
3.55744e-17
3.55748e-17
3.55752e-17
3.55756e-17
3.55761e-17
3.55765e-17
3.5577e-17
3.55774e-17
3.55779e-17
3.55783e-17
3.55788e-17
3.55792e-17
3.55742e-17
3.55746e-17
3.5575e-17
3.55754e-17
3.55758e-17
3.55763e-17
3.55767e-17
3.55771e-17
3.55776e-17
3.5578e-17
3.55785e-17
3.55789e-17
3.55794e-17
3.55798e-17
3.55748e-17
3.55752e-17
3.55756e-17
3.5576e-17
3.55765e-17
3.55769e-17
3.55773e-17
3.55778e-17
3.55782e-17
3.55787e-17
3.55791e-17
3.55796e-17
3.558e-17
3.55804e-17
3.55755e-17
3.55759e-17
3.55763e-17
3.55767e-17
3.55771e-17
3.55776e-17
3.5578e-17
3.55784e-17
3.55789e-17
3.55793e-17
3.55798e-17
3.55802e-17
3.55807e-17
3.55811e-17
3.55761e-17
3.55765e-17
3.55769e-17
3.55773e-17
3.55778e-17
3.55782e-17
3.55787e-17
3.55791e-17
3.55795e-17
3.558e-17
3.55804e-17
3.55808e-17
3.55813e-17
3.55817e-17
3.55767e-17
3.55772e-17
3.55775e-17
3.5578e-17
3.55784e-17
3.55789e-17
3.55793e-17
3.55798e-17
3.55802e-17
3.55806e-17
3.55811e-17
3.55815e-17
3.55819e-17
3.55824e-17
3.55344e-17
3.55345e-17
3.55347e-17
3.55348e-17
3.5535e-17
3.55352e-17
3.55354e-17
3.55356e-17
3.55358e-17
3.5536e-17
3.55363e-17
3.55365e-17
3.55368e-17
3.55372e-17
3.55348e-17
3.55349e-17
3.55351e-17
3.55352e-17
3.55354e-17
3.55356e-17
3.55358e-17
3.5536e-17
3.55362e-17
3.55365e-17
3.55368e-17
3.5537e-17
3.55373e-17
3.55377e-17
3.55353e-17
3.55354e-17
3.55355e-17
3.55357e-17
3.55358e-17
3.5536e-17
3.55362e-17
3.55365e-17
3.55367e-17
3.55369e-17
3.55372e-17
3.55375e-17
3.55378e-17
3.55382e-17
3.55357e-17
3.55358e-17
3.5536e-17
3.55361e-17
3.55363e-17
3.55365e-17
3.55367e-17
3.55369e-17
3.55372e-17
3.55374e-17
3.55377e-17
3.5538e-17
3.55383e-17
3.55387e-17
3.55362e-17
3.55363e-17
3.55364e-17
3.55366e-17
3.55368e-17
3.5537e-17
3.55372e-17
3.55374e-17
3.55376e-17
3.55379e-17
3.55382e-17
3.55385e-17
3.55388e-17
3.55392e-17
3.55367e-17
3.55368e-17
3.55369e-17
3.55371e-17
3.55373e-17
3.55375e-17
3.55377e-17
3.55379e-17
3.55382e-17
3.55384e-17
3.55387e-17
3.5539e-17
3.55393e-17
3.55397e-17
3.55372e-17
3.55373e-17
3.55375e-17
3.55376e-17
3.55378e-17
3.5538e-17
3.55382e-17
3.55384e-17
3.55387e-17
3.55389e-17
3.55392e-17
3.55395e-17
3.55398e-17
3.55402e-17
3.55377e-17
3.55379e-17
3.5538e-17
3.55382e-17
3.55383e-17
3.55385e-17
3.55387e-17
3.5539e-17
3.55392e-17
3.55395e-17
3.55398e-17
3.55401e-17
3.55404e-17
3.55407e-17
3.55383e-17
3.55384e-17
3.55386e-17
3.55387e-17
3.55389e-17
3.55391e-17
3.55393e-17
3.55395e-17
3.55398e-17
3.554e-17
3.55403e-17
3.55406e-17
3.55409e-17
3.55412e-17
3.55388e-17
3.5539e-17
3.55391e-17
3.55393e-17
3.55395e-17
3.55397e-17
3.55399e-17
3.55401e-17
3.55404e-17
3.55406e-17
3.55409e-17
3.55412e-17
3.55414e-17
3.55417e-17
3.55394e-17
3.55396e-17
3.55397e-17
3.55399e-17
3.55401e-17
3.55403e-17
3.55405e-17
3.55407e-17
3.5541e-17
3.55412e-17
3.55415e-17
3.55417e-17
3.5542e-17
3.55422e-17
3.554e-17
3.55402e-17
3.55403e-17
3.55405e-17
3.55407e-17
3.55409e-17
3.55411e-17
3.55413e-17
3.55416e-17
3.55418e-17
3.55421e-17
3.55423e-17
3.55426e-17
3.55428e-17
3.55406e-17
3.55408e-17
3.55409e-17
3.55411e-17
3.55413e-17
3.55415e-17
3.55417e-17
3.5542e-17
3.55422e-17
3.55424e-17
3.55427e-17
3.55429e-17
3.55432e-17
3.55434e-17
3.55413e-17
3.55414e-17
3.55416e-17
3.55418e-17
3.5542e-17
3.55422e-17
3.55424e-17
3.55426e-17
3.55428e-17
3.55431e-17
3.55433e-17
3.55435e-17
3.55438e-17
3.5544e-17
3.55025e-17
3.55025e-17
3.55025e-17
3.55025e-17
3.55026e-17
3.55026e-17
3.55026e-17
3.55027e-17
3.55027e-17
3.55027e-17
3.55028e-17
3.55029e-17
3.5503e-17
3.55031e-17
3.55028e-17
3.55027e-17
3.55028e-17
3.55028e-17
3.55028e-17
3.55028e-17
3.55028e-17
3.55029e-17
3.55029e-17
3.5503e-17
3.55031e-17
3.55031e-17
3.55032e-17
3.55034e-17
3.5503e-17
3.5503e-17
3.5503e-17
3.5503e-17
3.5503e-17
3.5503e-17
3.55031e-17
3.55031e-17
3.55032e-17
3.55032e-17
3.55033e-17
3.55034e-17
3.55035e-17
3.55037e-17
3.55033e-17
3.55033e-17
3.55033e-17
3.55033e-17
3.55033e-17
3.55033e-17
3.55033e-17
3.55034e-17
3.55034e-17
3.55035e-17
3.55036e-17
3.55037e-17
3.55038e-17
3.5504e-17
3.55036e-17
3.55035e-17
3.55035e-17
3.55035e-17
3.55035e-17
3.55036e-17
3.55036e-17
3.55036e-17
3.55037e-17
3.55038e-17
3.55039e-17
3.5504e-17
3.55041e-17
3.55043e-17
3.55039e-17
3.55039e-17
3.55038e-17
3.55038e-17
3.55038e-17
3.55039e-17
3.55039e-17
3.55039e-17
3.5504e-17
3.55041e-17
3.55042e-17
3.55043e-17
3.55044e-17
3.55046e-17
3.55042e-17
3.55042e-17
3.55042e-17
3.55042e-17
3.55042e-17
3.55042e-17
3.55042e-17
3.55043e-17
3.55043e-17
3.55044e-17
3.55045e-17
3.55046e-17
3.55047e-17
3.55049e-17
3.55046e-17
3.55045e-17
3.55045e-17
3.55045e-17
3.55045e-17
3.55045e-17
3.55045e-17
3.55046e-17
3.55047e-17
3.55047e-17
3.55048e-17
3.55049e-17
3.55051e-17
3.55052e-17
3.55049e-17
3.55049e-17
3.55049e-17
3.55049e-17
3.55049e-17
3.55049e-17
3.55049e-17
3.55049e-17
3.5505e-17
3.55051e-17
3.55052e-17
3.55053e-17
3.55054e-17
3.55055e-17
3.55053e-17
3.55053e-17
3.55052e-17
3.55052e-17
3.55052e-17
3.55052e-17
3.55053e-17
3.55053e-17
3.55054e-17
3.55055e-17
3.55055e-17
3.55056e-17
3.55058e-17
3.55059e-17
3.55056e-17
3.55057e-17
3.55056e-17
3.55056e-17
3.55056e-17
3.55056e-17
3.55057e-17
3.55057e-17
3.55058e-17
3.55058e-17
3.55059e-17
3.5506e-17
3.55061e-17
3.55062e-17
3.5506e-17
3.55061e-17
3.5506e-17
3.5506e-17
3.5506e-17
3.5506e-17
3.55061e-17
3.55061e-17
3.55062e-17
3.55062e-17
3.55063e-17
3.55064e-17
3.55065e-17
3.55065e-17
3.55064e-17
3.55065e-17
3.55064e-17
3.55064e-17
3.55065e-17
3.55065e-17
3.55065e-17
3.55065e-17
3.55066e-17
3.55066e-17
3.55067e-17
3.55068e-17
3.55069e-17
3.55069e-17
3.55069e-17
3.55069e-17
3.55069e-17
3.55069e-17
3.55069e-17
3.55069e-17
3.55069e-17
3.5507e-17
3.5507e-17
3.5507e-17
3.55071e-17
3.55072e-17
3.55072e-17
3.55073e-17
3.54734e-17
3.54734e-17
3.54733e-17
3.54732e-17
3.54732e-17
3.54732e-17
3.54731e-17
3.54731e-17
3.5473e-17
3.54729e-17
3.54729e-17
3.54728e-17
3.54728e-17
3.54728e-17
3.54735e-17
3.54735e-17
3.54734e-17
3.54733e-17
3.54733e-17
3.54732e-17
3.54732e-17
3.54731e-17
3.54731e-17
3.5473e-17
3.5473e-17
3.54729e-17
3.54729e-17
3.54728e-17
3.54736e-17
3.54736e-17
3.54735e-17
3.54734e-17
3.54734e-17
3.54733e-17
3.54733e-17
3.54732e-17
3.54732e-17
3.54731e-17
3.54731e-17
3.5473e-17
3.5473e-17
3.54729e-17
3.54738e-17
3.54737e-17
3.54736e-17
3.54736e-17
3.54735e-17
3.54734e-17
3.54734e-17
3.54733e-17
3.54733e-17
3.54732e-17
3.54732e-17
3.54731e-17
3.54731e-17
3.5473e-17
3.54739e-17
3.54738e-17
3.54737e-17
3.54737e-17
3.54736e-17
3.54735e-17
3.54735e-17
3.54734e-17
3.54734e-17
3.54733e-17
3.54733e-17
3.54732e-17
3.54732e-17
3.54732e-17
3.5474e-17
3.54739e-17
3.54739e-17
3.54738e-17
3.54737e-17
3.54737e-17
3.54736e-17
3.54735e-17
3.54735e-17
3.54734e-17
3.54734e-17
3.54734e-17
3.54733e-17
3.54733e-17
3.54741e-17
3.54741e-17
3.5474e-17
3.54739e-17
3.54738e-17
3.54738e-17
3.54737e-17
3.54737e-17
3.54736e-17
3.54736e-17
3.54735e-17
3.54735e-17
3.54735e-17
3.54734e-17
3.54743e-17
3.54742e-17
3.54741e-17
3.54741e-17
3.5474e-17
3.54739e-17
3.54739e-17
3.54738e-17
3.54738e-17
3.54737e-17
3.54737e-17
3.54736e-17
3.54736e-17
3.54736e-17
3.54744e-17
3.54743e-17
3.54743e-17
3.54742e-17
3.54741e-17
3.54741e-17
3.5474e-17
3.54739e-17
3.54739e-17
3.54738e-17
3.54738e-17
3.54738e-17
3.54737e-17
3.54737e-17
3.54746e-17
3.54745e-17
3.54744e-17
3.54743e-17
3.54743e-17
3.54742e-17
3.54741e-17
3.54741e-17
3.5474e-17
3.5474e-17
3.54739e-17
3.54739e-17
3.54739e-17
3.54738e-17
3.54747e-17
3.54746e-17
3.54746e-17
3.54745e-17
3.54744e-17
3.54743e-17
3.54743e-17
3.54742e-17
3.54742e-17
3.54741e-17
3.54741e-17
3.5474e-17
3.5474e-17
3.5474e-17
3.54749e-17
3.54748e-17
3.54747e-17
3.54746e-17
3.54746e-17
3.54745e-17
3.54744e-17
3.54744e-17
3.54743e-17
3.54743e-17
3.54742e-17
3.54742e-17
3.54741e-17
3.54741e-17
3.5475e-17
3.5475e-17
3.54749e-17
3.54748e-17
3.54747e-17
3.54747e-17
3.54746e-17
3.54745e-17
3.54745e-17
3.54744e-17
3.54744e-17
3.54743e-17
3.54743e-17
3.54742e-17
3.54752e-17
3.54751e-17
3.5475e-17
3.5475e-17
3.54749e-17
3.54748e-17
3.54747e-17
3.54747e-17
3.54746e-17
3.54746e-17
3.54745e-17
3.54744e-17
3.54744e-17
3.54744e-17
3.54468e-17
3.54468e-17
3.54467e-17
3.54467e-17
3.54466e-17
3.54466e-17
3.54465e-17
3.54464e-17
3.54464e-17
3.54463e-17
3.54462e-17
3.54461e-17
3.54459e-17
3.54458e-17
3.54469e-17
3.54468e-17
3.54468e-17
3.54467e-17
3.54467e-17
3.54466e-17
3.54465e-17
3.54465e-17
3.54464e-17
3.54463e-17
3.54462e-17
3.54461e-17
3.54459e-17
3.54458e-17
3.54469e-17
3.54469e-17
3.54468e-17
3.54468e-17
3.54467e-17
3.54467e-17
3.54466e-17
3.54465e-17
3.54464e-17
3.54463e-17
3.54462e-17
3.54461e-17
3.5446e-17
3.54458e-17
3.54469e-17
3.54469e-17
3.54469e-17
3.54468e-17
3.54468e-17
3.54467e-17
3.54466e-17
3.54465e-17
3.54465e-17
3.54463e-17
3.54462e-17
3.54461e-17
3.5446e-17
3.54458e-17
3.5447e-17
3.54469e-17
3.54469e-17
3.54468e-17
3.54468e-17
3.54467e-17
3.54467e-17
3.54466e-17
3.54465e-17
3.54464e-17
3.54463e-17
3.54461e-17
3.5446e-17
3.54459e-17
3.5447e-17
3.5447e-17
3.54469e-17
3.54469e-17
3.54468e-17
3.54467e-17
3.54467e-17
3.54466e-17
3.54465e-17
3.54464e-17
3.54463e-17
3.54461e-17
3.5446e-17
3.54459e-17
3.5447e-17
3.5447e-17
3.54469e-17
3.54469e-17
3.54468e-17
3.54468e-17
3.54467e-17
3.54466e-17
3.54465e-17
3.54464e-17
3.54463e-17
3.54462e-17
3.5446e-17
3.54459e-17
3.5447e-17
3.5447e-17
3.54469e-17
3.54469e-17
3.54468e-17
3.54468e-17
3.54467e-17
3.54466e-17
3.54465e-17
3.54464e-17
3.54463e-17
3.54462e-17
3.5446e-17
3.54459e-17
3.5447e-17
3.54469e-17
3.54469e-17
3.54469e-17
3.54468e-17
3.54467e-17
3.54467e-17
3.54466e-17
3.54465e-17
3.54464e-17
3.54463e-17
3.54461e-17
3.5446e-17
3.54459e-17
3.5447e-17
3.54469e-17
3.54469e-17
3.54468e-17
3.54468e-17
3.54467e-17
3.54466e-17
3.54466e-17
3.54465e-17
3.54464e-17
3.54462e-17
3.54461e-17
3.5446e-17
3.54459e-17
3.54469e-17
3.54469e-17
3.54469e-17
3.54468e-17
3.54468e-17
3.54467e-17
3.54466e-17
3.54465e-17
3.54464e-17
3.54463e-17
3.54462e-17
3.54461e-17
3.5446e-17
3.54459e-17
3.54469e-17
3.54469e-17
3.54468e-17
3.54468e-17
3.54467e-17
3.54467e-17
3.54466e-17
3.54465e-17
3.54464e-17
3.54463e-17
3.54462e-17
3.54461e-17
3.5446e-17
3.54458e-17
3.54469e-17
3.54468e-17
3.54468e-17
3.54467e-17
3.54467e-17
3.54466e-17
3.54465e-17
3.54464e-17
3.54463e-17
3.54462e-17
3.54461e-17
3.5446e-17
3.54459e-17
3.54458e-17
3.54469e-17
3.54468e-17
3.54467e-17
3.54467e-17
3.54466e-17
3.54465e-17
3.54465e-17
3.54464e-17
3.54463e-17
3.54462e-17
3.54461e-17
3.5446e-17
3.54459e-17
3.54458e-17
3.54224e-17
3.54224e-17
3.54224e-17
3.54224e-17
3.54224e-17
3.54224e-17
3.54223e-17
3.54223e-17
3.54222e-17
3.54221e-17
3.5422e-17
3.54219e-17
3.54217e-17
3.54216e-17
3.54224e-17
3.54225e-17
3.54225e-17
3.54225e-17
3.54225e-17
3.54224e-17
3.54224e-17
3.54223e-17
3.54222e-17
3.54222e-17
3.5422e-17
3.54219e-17
3.54218e-17
3.54216e-17
3.54225e-17
3.54225e-17
3.54225e-17
3.54225e-17
3.54225e-17
3.54225e-17
3.54224e-17
3.54224e-17
3.54223e-17
3.54222e-17
3.54221e-17
3.54219e-17
3.54218e-17
3.54216e-17
3.54225e-17
3.54225e-17
3.54225e-17
3.54226e-17
3.54225e-17
3.54225e-17
3.54225e-17
3.54224e-17
3.54223e-17
3.54222e-17
3.54221e-17
3.54219e-17
3.54218e-17
3.54216e-17
3.54225e-17
3.54225e-17
3.54226e-17
3.54226e-17
3.54226e-17
3.54225e-17
3.54225e-17
3.54224e-17
3.54223e-17
3.54222e-17
3.54221e-17
3.5422e-17
3.54218e-17
3.54216e-17
3.54225e-17
3.54225e-17
3.54226e-17
3.54226e-17
3.54226e-17
3.54225e-17
3.54225e-17
3.54224e-17
3.54223e-17
3.54222e-17
3.54221e-17
3.54219e-17
3.54218e-17
3.54216e-17
3.54224e-17
3.54225e-17
3.54225e-17
3.54225e-17
3.54225e-17
3.54225e-17
3.54224e-17
3.54224e-17
3.54223e-17
3.54222e-17
3.5422e-17
3.54219e-17
3.54217e-17
3.54216e-17
3.54224e-17
3.54224e-17
3.54225e-17
3.54225e-17
3.54225e-17
3.54224e-17
3.54224e-17
3.54223e-17
3.54222e-17
3.54221e-17
3.5422e-17
3.54219e-17
3.54217e-17
3.54215e-17
3.54223e-17
3.54224e-17
3.54224e-17
3.54224e-17
3.54224e-17
3.54224e-17
3.54223e-17
3.54223e-17
3.54222e-17
3.54221e-17
3.54219e-17
3.54218e-17
3.54216e-17
3.54215e-17
3.54222e-17
3.54223e-17
3.54223e-17
3.54223e-17
3.54223e-17
3.54223e-17
3.54222e-17
3.54222e-17
3.54221e-17
3.5422e-17
3.54218e-17
3.54217e-17
3.54215e-17
3.54214e-17
3.54221e-17
3.54222e-17
3.54222e-17
3.54222e-17
3.54222e-17
3.54222e-17
3.54221e-17
3.5422e-17
3.5422e-17
3.54218e-17
3.54217e-17
3.54216e-17
3.54214e-17
3.54213e-17
3.5422e-17
3.5422e-17
3.54221e-17
3.54221e-17
3.54221e-17
3.5422e-17
3.5422e-17
3.54219e-17
3.54218e-17
3.54217e-17
3.54216e-17
3.54215e-17
3.54213e-17
3.54212e-17
3.54219e-17
3.54219e-17
3.54219e-17
3.54219e-17
3.54219e-17
3.54219e-17
3.54218e-17
3.54218e-17
3.54217e-17
3.54216e-17
3.54214e-17
3.54213e-17
3.54212e-17
3.54211e-17
3.54217e-17
3.54217e-17
3.54218e-17
3.54218e-17
3.54217e-17
3.54217e-17
3.54217e-17
3.54216e-17
3.54215e-17
3.54214e-17
3.54213e-17
3.54212e-17
3.5421e-17
3.54209e-17
3.53998e-17
3.53999e-17
3.54e-17
3.54e-17
3.54001e-17
3.54001e-17
3.54001e-17
3.54001e-17
3.54e-17
3.53999e-17
3.53999e-17
3.53997e-17
3.53996e-17
3.53994e-17
3.53999e-17
3.54e-17
3.54001e-17
3.54001e-17
3.54002e-17
3.54002e-17
3.54002e-17
3.54002e-17
3.54001e-17
3.54e-17
3.53999e-17
3.53998e-17
3.53997e-17
3.53995e-17
3.54e-17
3.54001e-17
3.54002e-17
3.54002e-17
3.54003e-17
3.54003e-17
3.54003e-17
3.54002e-17
3.54002e-17
3.54001e-17
3.54e-17
3.53999e-17
3.53997e-17
3.53996e-17
3.54e-17
3.54001e-17
3.54002e-17
3.54003e-17
3.54003e-17
3.54003e-17
3.54003e-17
3.54003e-17
3.54002e-17
3.54002e-17
3.54e-17
3.53999e-17
3.53998e-17
3.53996e-17
3.54001e-17
3.54002e-17
3.54003e-17
3.54003e-17
3.54004e-17
3.54004e-17
3.54004e-17
3.54003e-17
3.54003e-17
3.54002e-17
3.54001e-17
3.53999e-17
3.53998e-17
3.53996e-17
3.54001e-17
3.54002e-17
3.54003e-17
3.54003e-17
3.54004e-17
3.54004e-17
3.54004e-17
3.54003e-17
3.54003e-17
3.54002e-17
3.54001e-17
3.54e-17
3.53998e-17
3.53996e-17
3.54e-17
3.54002e-17
3.54002e-17
3.54003e-17
3.54003e-17
3.54004e-17
3.54003e-17
3.54003e-17
3.54003e-17
3.54002e-17
3.54001e-17
3.53999e-17
3.53998e-17
3.53996e-17
3.54e-17
3.54001e-17
3.54002e-17
3.54003e-17
3.54003e-17
3.54003e-17
3.54003e-17
3.54003e-17
3.54002e-17
3.54001e-17
3.54e-17
3.53999e-17
3.53997e-17
3.53996e-17
3.53999e-17
3.54e-17
3.54001e-17
3.54002e-17
3.54002e-17
3.54002e-17
3.54002e-17
3.54002e-17
3.54001e-17
3.54001e-17
3.53999e-17
3.53998e-17
3.53997e-17
3.53995e-17
3.53998e-17
3.53999e-17
3.54e-17
3.54001e-17
3.54001e-17
3.54001e-17
3.54001e-17
3.54001e-17
3.54e-17
3.54e-17
3.53999e-17
3.53997e-17
3.53996e-17
3.53994e-17
3.53997e-17
3.53998e-17
3.53999e-17
3.54e-17
3.54e-17
3.54e-17
3.54e-17
3.54e-17
3.53999e-17
3.53998e-17
3.53997e-17
3.53996e-17
3.53995e-17
3.53993e-17
3.53996e-17
3.53997e-17
3.53998e-17
3.53998e-17
3.53999e-17
3.53999e-17
3.53999e-17
3.53998e-17
3.53998e-17
3.53997e-17
3.53996e-17
3.53995e-17
3.53993e-17
3.53992e-17
3.53994e-17
3.53995e-17
3.53996e-17
3.53997e-17
3.53997e-17
3.53997e-17
3.53997e-17
3.53997e-17
3.53996e-17
3.53995e-17
3.53994e-17
3.53993e-17
3.53992e-17
3.5399e-17
3.53993e-17
3.53993e-17
3.53994e-17
3.53995e-17
3.53995e-17
3.53995e-17
3.53995e-17
3.53995e-17
3.53994e-17
3.53993e-17
3.53992e-17
3.53991e-17
3.5399e-17
3.53989e-17
3.5379e-17
3.53791e-17
3.53792e-17
3.53793e-17
3.53794e-17
3.53794e-17
3.53794e-17
3.53794e-17
3.53794e-17
3.53794e-17
3.53793e-17
3.53792e-17
3.53791e-17
3.5379e-17
3.53791e-17
3.53793e-17
3.53794e-17
3.53794e-17
3.53795e-17
3.53795e-17
3.53796e-17
3.53796e-17
3.53795e-17
3.53795e-17
3.53794e-17
3.53793e-17
3.53792e-17
3.53791e-17
3.53792e-17
3.53794e-17
3.53795e-17
3.53796e-17
3.53796e-17
3.53797e-17
3.53797e-17
3.53797e-17
3.53797e-17
3.53796e-17
3.53795e-17
3.53794e-17
3.53793e-17
3.53792e-17
3.53793e-17
3.53794e-17
3.53795e-17
3.53796e-17
3.53797e-17
3.53797e-17
3.53798e-17
3.53798e-17
3.53797e-17
3.53797e-17
3.53796e-17
3.53795e-17
3.53794e-17
3.53792e-17
3.53794e-17
3.53795e-17
3.53796e-17
3.53797e-17
3.53798e-17
3.53798e-17
3.53798e-17
3.53798e-17
3.53798e-17
3.53797e-17
3.53797e-17
3.53796e-17
3.53794e-17
3.53793e-17
3.53794e-17
3.53795e-17
3.53796e-17
3.53797e-17
3.53798e-17
3.53798e-17
3.53799e-17
3.53799e-17
3.53798e-17
3.53798e-17
3.53797e-17
3.53796e-17
3.53795e-17
3.53793e-17
3.53794e-17
3.53795e-17
3.53796e-17
3.53797e-17
3.53798e-17
3.53798e-17
3.53799e-17
3.53799e-17
3.53798e-17
3.53798e-17
3.53797e-17
3.53796e-17
3.53795e-17
3.53793e-17
3.53794e-17
3.53795e-17
3.53796e-17
3.53797e-17
3.53798e-17
3.53798e-17
3.53799e-17
3.53798e-17
3.53798e-17
3.53798e-17
3.53797e-17
3.53796e-17
3.53794e-17
3.53793e-17
3.53793e-17
3.53795e-17
3.53796e-17
3.53797e-17
3.53797e-17
3.53798e-17
3.53798e-17
3.53798e-17
3.53798e-17
3.53797e-17
3.53796e-17
3.53795e-17
3.53794e-17
3.53793e-17
3.53793e-17
3.53794e-17
3.53795e-17
3.53796e-17
3.53797e-17
3.53797e-17
3.53797e-17
3.53797e-17
3.53797e-17
3.53797e-17
3.53796e-17
3.53795e-17
3.53793e-17
3.53792e-17
3.53792e-17
3.53793e-17
3.53794e-17
3.53795e-17
3.53796e-17
3.53796e-17
3.53796e-17
3.53796e-17
3.53796e-17
3.53796e-17
3.53795e-17
3.53794e-17
3.53793e-17
3.53791e-17
3.53791e-17
3.53792e-17
3.53793e-17
3.53794e-17
3.53795e-17
3.53795e-17
3.53795e-17
3.53795e-17
3.53795e-17
3.53794e-17
3.53794e-17
3.53793e-17
3.53791e-17
3.5379e-17
3.53789e-17
3.53791e-17
3.53792e-17
3.53792e-17
3.53793e-17
3.53794e-17
3.53794e-17
3.53794e-17
3.53793e-17
3.53793e-17
3.53792e-17
3.53791e-17
3.5379e-17
3.53789e-17
3.53788e-17
3.53789e-17
3.5379e-17
3.53791e-17
3.53792e-17
3.53792e-17
3.53792e-17
3.53792e-17
3.53792e-17
3.53791e-17
3.53791e-17
3.5379e-17
3.53789e-17
3.53788e-17
3.53597e-17
3.53598e-17
3.53599e-17
3.536e-17
3.53601e-17
3.53601e-17
3.53602e-17
3.53602e-17
3.53602e-17
3.53601e-17
3.53601e-17
3.536e-17
3.53599e-17
3.53598e-17
3.53598e-17
3.536e-17
3.53601e-17
3.53601e-17
3.53602e-17
3.53603e-17
3.53603e-17
3.53603e-17
3.53603e-17
3.53603e-17
3.53602e-17
3.53601e-17
3.53601e-17
3.536e-17
3.53599e-17
3.53601e-17
3.53602e-17
3.53603e-17
3.53603e-17
3.53604e-17
3.53604e-17
3.53604e-17
3.53604e-17
3.53604e-17
3.53603e-17
3.53602e-17
3.53602e-17
3.536e-17
3.536e-17
3.53601e-17
3.53603e-17
3.53603e-17
3.53604e-17
3.53605e-17
3.53605e-17
3.53605e-17
3.53605e-17
3.53605e-17
3.53604e-17
3.53603e-17
3.53602e-17
3.53601e-17
3.53601e-17
3.53602e-17
3.53603e-17
3.53604e-17
3.53605e-17
3.53605e-17
3.53606e-17
3.53606e-17
3.53606e-17
3.53605e-17
3.53605e-17
3.53604e-17