/*--------------------------------*- C++ -*----------------------------------*\
| =========                 |                                                 |
| \\      /  F ield         | OpenFOAM: The Open Source CFD Toolbox           |
|  \\    /   O peration     | Version:  v2106                                 |
|   \\  /    A nd           | Website:  www.openfoam.com                      |
|    \\/     M anipulation  |                                                 |
\*---------------------------------------------------------------------------*/
FoamFile
{
    version     2.0;
    format      ascii;
    arch        "LSB;label=32;scalar=64";
    class       volScalarField;
    location    "0.000198";
    object      Ttot;
}
// * * * * * * * * * * * * * * * * * * * * * * * * * * * * * * * * * * * * * //

dimensions      [0 0 0 1 0 0 0];

internalField   nonuniform List<scalar> 
17920
(
306.141
306.131
306.123
306.114
306.107
306.098
306.09
306.081
306.072
306.064
306.054
306.046
306.035
306.028
306.016
306.01
305.997
305.992
305.978
305.973
305.959
305.955
305.939
305.936
305.92
305.918
305.901
305.899
305.869
305.869
305.869
305.869
305.869
305.869
305.868
305.867
305.866
305.864
305.862
305.86
305.857
305.855
305.855
305.856
305.856
305.856
305.856
305.855
305.855
305.854
305.853
305.851
305.849
305.846
305.844
305.84
305.842
305.843
305.843
305.843
305.842
305.842
305.841
305.84
305.839
305.837
305.835
305.833
305.83
305.827
305.828
305.829
305.829
305.829
305.829
305.828
305.827
305.826
305.825
305.823
305.822
305.819
305.817
305.814
305.815
305.816
305.815
305.815
305.815
305.814
305.813
305.812
305.811
305.81
305.808
305.806
305.804
305.8
305.801
305.801
305.801
305.801
305.801
305.8
305.799
305.798
305.797
305.795
305.794
305.792
305.79
305.787
305.787
305.787
305.787
305.787
305.786
305.786
305.785
305.784
305.783
305.781
305.78
305.778
305.776
305.774
305.773
305.773
305.772
305.772
305.772
305.771
305.77
305.769
305.768
305.767
305.766
305.764
305.763
305.761
305.759
305.758
305.758
305.757
305.757
305.757
305.756
305.755
305.754
305.753
305.752
305.75
305.749
305.748
305.745
305.743
305.743
305.743
305.742
305.742
305.741
305.74
305.739
305.739
305.737
305.736
305.735
305.735
305.731
305.729
305.729
305.728
305.728
305.727
305.726
305.726
305.725
305.724
305.723
305.722
305.721
305.722
305.716
305.714
305.714
305.713
305.713
305.712
305.712
305.711
305.711
305.71
305.709
305.708
305.707
305.709
305.702
305.7
305.7
305.699
305.698
305.698
305.697
305.697
305.696
305.696
305.695
305.694
305.694
305.696
305.687
305.686
305.685
305.684
305.684
305.683
305.683
305.682
305.682
305.682
305.681
305.681
305.68
305.681
305.493
305.496
305.5
305.503
305.506
305.51
305.513
305.516
305.52
305.522
305.525
305.528
305.53
305.532
305.486
305.49
305.493
305.497
305.5
305.503
305.507
305.51
305.513
305.516
305.518
305.521
305.523
305.524
305.48
305.483
305.486
305.49
305.493
305.497
305.5
305.503
305.506
305.509
305.511
305.514
305.516
305.517
305.473
305.477
305.48
305.483
305.487
305.49
305.493
305.496
305.499
305.502
305.505
305.507
305.509
305.51
305.466
305.47
305.473
305.476
305.48
305.483
305.486
305.489
305.492
305.495
305.498
305.5
305.502
305.503
305.459
305.463
305.466
305.469
305.473
305.476
305.479
305.482
305.485
305.488
305.491
305.493
305.495
305.497
305.452
305.456
305.459
305.462
305.466
305.469
305.472
305.475
305.478
305.481
305.484
305.486
305.488
305.49
305.445
305.448
305.452
305.455
305.458
305.462
305.465
305.468
305.471
305.474
305.477
305.479
305.481
305.484
305.438
305.441
305.444
305.448
305.451
305.454
305.458
305.461
305.464
305.467
305.47
305.472
305.475
305.477
305.431
305.434
305.437
305.44
305.444
305.447
305.45
305.453
305.457
305.46
305.462
305.465
305.468
305.471
305.423
305.426
305.43
305.433
305.436
305.44
305.443
305.446
305.449
305.452
305.455
305.458
305.461
305.464
305.416
305.419
305.422
305.425
305.429
305.432
305.435
305.439
305.442
305.445
305.448
305.451
305.454
305.458
305.408
305.411
305.414
305.418
305.421
305.424
305.428
305.431
305.435
305.438
305.441
305.444
305.447
305.451
305.401
305.404
305.407
305.411
305.414
305.417
305.42
305.424
305.427
305.43
305.434
305.437
305.44
305.444
305.114
305.119
305.124
305.129
305.134
305.139
305.144
305.149
305.154
305.16
305.165
305.17
305.175
305.18
305.113
305.118
305.123
305.128
305.133
305.139
305.144
305.149
305.155
305.16
305.165
305.17
305.175
305.18
305.113
305.118
305.123
305.128
305.133
305.139
305.144
305.149
305.154
305.159
305.164
305.169
305.174
305.179
305.113
305.118
305.123
305.128
305.133
305.139
305.144
305.149
305.154
305.159
305.164
305.169
305.174
305.178
305.112
305.117
305.122
305.128
305.133
305.138
305.144
305.149
305.154
305.159
305.164
305.169
305.173
305.177
305.112
305.117
305.122
305.127
305.133
305.138
305.143
305.149
305.154
305.159
305.164
305.168
305.173
305.177
305.111
305.116
305.122
305.127
305.132
305.138
305.143
305.148
305.153
305.158
305.163
305.168
305.172
305.177
305.111
305.116
305.121
305.126
305.132
305.137
305.142
305.148
305.153
305.158
305.163
305.167
305.172
305.176
305.11
305.115
305.12
305.126
305.131
305.136
305.142
305.147
305.152
305.157
305.162
305.167
305.171
305.176
305.109
305.115
305.12
305.125
305.13
305.136
305.141
305.146
305.152
305.157
305.162
305.166
305.171
305.175
305.108
305.114
305.119
305.124
305.129
305.135
305.14
305.146
305.151
305.156
305.161
305.166
305.17
305.175
305.107
305.113
305.118
305.123
305.128
305.134
305.139
305.145
305.15
305.155
305.16
305.165
305.17
305.174
305.106
305.111
305.116
305.122
305.127
305.133
305.138
305.144
305.149
305.154
305.159
305.164
305.169
305.174
305.105
305.111
305.116
305.121
305.126
305.132
305.137
305.143
305.148
305.153
305.158
305.163
305.168
305.174
304.749
304.753
304.757
304.762
304.767
304.771
304.776
304.781
304.787
304.792
304.797
304.803
304.809
304.814
304.752
304.756
304.76
304.765
304.77
304.775
304.78
304.786
304.791
304.796
304.802
304.807
304.813
304.819
304.755
304.76
304.764
304.769
304.774
304.779
304.785
304.79
304.795
304.8
304.806
304.811
304.816
304.822
304.759
304.763
304.768
304.773
304.778
304.783
304.789
304.794
304.799
304.804
304.81
304.815
304.82
304.826
304.763
304.767
304.772
304.777
304.782
304.787
304.793
304.798
304.803
304.808
304.814
304.819
304.824
304.829
304.766
304.771
304.776
304.781
304.786
304.791
304.797
304.802
304.807
304.812
304.818
304.823
304.828
304.833
304.77
304.775
304.78
304.785
304.79
304.795
304.801
304.806
304.811
304.816
304.822
304.827
304.832
304.837
304.773
304.778
304.783
304.789
304.794
304.799
304.805
304.81
304.815
304.82
304.826
304.831
304.836
304.84
304.777
304.782
304.787
304.792
304.798
304.803
304.808
304.814
304.819
304.824
304.829
304.834
304.839
304.844
304.781
304.786
304.791
304.796
304.801
304.807
304.812
304.818
304.823
304.828
304.833
304.838
304.843
304.848
304.784
304.789
304.794
304.8
304.805
304.811
304.816
304.821
304.827
304.832
304.837
304.842
304.847
304.851
304.788
304.793
304.798
304.803
304.809
304.814
304.82
304.825
304.83
304.836
304.841
304.846
304.851
304.855
304.791
304.796
304.801
304.807
304.812
304.818
304.823
304.829
304.834
304.839
304.844
304.849
304.854
304.859
304.795
304.8
304.805
304.811
304.816
304.821
304.827
304.832
304.838
304.843
304.848
304.853
304.858
304.863
304.403
304.406
304.409
304.412
304.415
304.419
304.422
304.426
304.429
304.433
304.437
304.442
304.446
304.451
304.408
304.41
304.413
304.417
304.42
304.423
304.427
304.431
304.435
304.439
304.443
304.448
304.452
304.457
304.412
304.415
304.418
304.422
304.425
304.429
304.432
304.436
304.44
304.444
304.448
304.452
304.457
304.462
304.417
304.42
304.423
304.426
304.43
304.434
304.437
304.441
304.445
304.449
304.454
304.458
304.462
304.467
304.422
304.425
304.428
304.432
304.435
304.439
304.443
304.446
304.45
304.455
304.459
304.463
304.467
304.472
304.427
304.43
304.433
304.437
304.44
304.444
304.448
304.452
304.456
304.46
304.464
304.468
304.473
304.477
304.432
304.435
304.439
304.442
304.446
304.45
304.453
304.457
304.461
304.465
304.47
304.474
304.478
304.482
304.438
304.441
304.444
304.448
304.451
304.455
304.459
304.463
304.467
304.471
304.475
304.479
304.483
304.487
304.443
304.446
304.45
304.453
304.457
304.461
304.464
304.468
304.472
304.476
304.48
304.485
304.489
304.493
304.448
304.452
304.455
304.459
304.462
304.466
304.47
304.474
304.478
304.482
304.486
304.49
304.494
304.498
304.454
304.457
304.461
304.464
304.468
304.472
304.476
304.48
304.484
304.488
304.492
304.496
304.5
304.503
304.459
304.463
304.466
304.47
304.474
304.478
304.482
304.486
304.49
304.493
304.497
304.501
304.505
304.509
304.465
304.468
304.472
304.476
304.48
304.484
304.488
304.492
304.495
304.499
304.503
304.507
304.511
304.514
304.471
304.474
304.478
304.482
304.486
304.489
304.493
304.497
304.501
304.505
304.509
304.513
304.517
304.521
304.083
304.084
304.085
304.086
304.088
304.089
304.091
304.093
304.095
304.097
304.099
304.101
304.104
304.107
304.086
304.087
304.088
304.09
304.091
304.093
304.095
304.097
304.099
304.101
304.103
304.106
304.108
304.112
304.09
304.091
304.092
304.094
304.095
304.097
304.099
304.1
304.103
304.105
304.107
304.11
304.112
304.116
304.094
304.095
304.096
304.098
304.099
304.101
304.103
304.105
304.107
304.109
304.111
304.114
304.117
304.12
304.098
304.099
304.1
304.102
304.103
304.105
304.107
304.109
304.111
304.113
304.116
304.118
304.121
304.124
304.103
304.104
304.105
304.106
304.108
304.109
304.111
304.113
304.115
304.118
304.12
304.123
304.126
304.129
304.107
304.108
304.109
304.111
304.112
304.114
304.116
304.118
304.12
304.122
304.125
304.128
304.13
304.133
304.112
304.113
304.114
304.116
304.117
304.119
304.121
304.123
304.125
304.127
304.13
304.132
304.135
304.138
304.117
304.118
304.119
304.121
304.122
304.124
304.126
304.128
304.13
304.132
304.134
304.137
304.14
304.142
304.122
304.123
304.124
304.126
304.127
304.129
304.131
304.133
304.135
304.137
304.139
304.142
304.145
304.147
304.127
304.128
304.129
304.131
304.133
304.134
304.136
304.138
304.14
304.142
304.145
304.147
304.15
304.152
304.132
304.133
304.135
304.136
304.138
304.14
304.142
304.144
304.146
304.148
304.15
304.152
304.155
304.156
304.137
304.139
304.14
304.142
304.144
304.145
304.147
304.149
304.151
304.153
304.155
304.158
304.16
304.162
304.143
304.144
304.146
304.148
304.149
304.151
304.153
304.155
304.157
304.159
304.161
304.163
304.165
304.167
303.788
303.788
303.788
303.788
303.788
303.789
303.789
303.789
303.79
303.79
303.791
303.791
303.792
303.793
303.79
303.79
303.79
303.79
303.79
303.791
303.791
303.791
303.792
303.792
303.793
303.794
303.794
303.796
303.793
303.792
303.792
303.792
303.792
303.793
303.793
303.793
303.794
303.794
303.795
303.796
303.797
303.798
303.795
303.795
303.795
303.795
303.795
303.795
303.795
303.795
303.796
303.797
303.797
303.798
303.799
303.801
303.797
303.797
303.797
303.797
303.797
303.797
303.797
303.798
303.798
303.799
303.8
303.801
303.802
303.803
303.8
303.8
303.8
303.8
303.8
303.8
303.8
303.8
303.801
303.802
303.803
303.804
303.805
303.806
303.803
303.803
303.803
303.802
303.802
303.803
303.803
303.803
303.804
303.805
303.805
303.806
303.807
303.809
303.806
303.806
303.806
303.805
303.805
303.806
303.806
303.806
303.807
303.807
303.808
303.809
303.81
303.812
303.809
303.809
303.809
303.809
303.809
303.809
303.809
303.809
303.81
303.811
303.811
303.812
303.813
303.814
303.812
303.812
303.812
303.812
303.812
303.812
303.812
303.813
303.813
303.814
303.815
303.815
303.817
303.817
303.816
303.816
303.816
303.815
303.815
303.816
303.816
303.816
303.817
303.817
303.818
303.819
303.82
303.82
303.819
303.819
303.819
303.819
303.819
303.819
303.819
303.82
303.82
303.821
303.821
303.822
303.823
303.823
303.823
303.823
303.823
303.823
303.823
303.823
303.823
303.823
303.824
303.824
303.825
303.826
303.826
303.827
303.827
303.827
303.826
303.826
303.827
303.827
303.827
303.827
303.828
303.828
303.828
303.829
303.83
303.83
303.519
303.519
303.518
303.518
303.518
303.517
303.517
303.516
303.516
303.515
303.515
303.514
303.514
303.513
303.521
303.52
303.519
303.519
303.518
303.518
303.517
303.517
303.516
303.516
303.515
303.515
303.515
303.514
303.522
303.521
303.52
303.52
303.519
303.519
303.518
303.518
303.517
303.517
303.516
303.516
303.515
303.515
303.523
303.522
303.521
303.521
303.52
303.52
303.519
303.519
303.518
303.518
303.517
303.517
303.516
303.516
303.524
303.523
303.522
303.522
303.521
303.521
303.52
303.52
303.519
303.519
303.518
303.518
303.517
303.517
303.525
303.524
303.523
303.523
303.522
303.522
303.521
303.521
303.52
303.52
303.519
303.519
303.519
303.518
303.526
303.525
303.524
303.524
303.523
303.523
303.522
303.522
303.521
303.521
303.52
303.52
303.52
303.519
303.527
303.526
303.526
303.525
303.524
303.524
303.523
303.523
303.522
303.522
303.521
303.521
303.521
303.521
303.528
303.528
303.527
303.526
303.526
303.525
303.525
303.524
303.524
303.523
303.523
303.522
303.522
303.522
303.53
303.529
303.528
303.528
303.527
303.526
303.526
303.525
303.525
303.524
303.524
303.524
303.523
303.523
303.531
303.53
303.53
303.529
303.528
303.528
303.527
303.526
303.526
303.526
303.525
303.525
303.524
303.524
303.532
303.532
303.531
303.53
303.53
303.529
303.528
303.528
303.527
303.527
303.526
303.526
303.526
303.525
303.534
303.533
303.532
303.532
303.531
303.53
303.53
303.529
303.529
303.528
303.528
303.527
303.527
303.526
303.535
303.534
303.534
303.533
303.532
303.532
303.531
303.53
303.53
303.529
303.529
303.528
303.528
303.527
303.274
303.273
303.273
303.273
303.272
303.272
303.271
303.27
303.27
303.269
303.268
303.267
303.266
303.265
303.274
303.274
303.274
303.273
303.273
303.272
303.272
303.271
303.27
303.269
303.268
303.267
303.266
303.265
303.275
303.274
303.274
303.274
303.273
303.273
303.272
303.271
303.27
303.269
303.268
303.267
303.266
303.265
303.275
303.275
303.274
303.274
303.273
303.273
303.272
303.271
303.271
303.27
303.269
303.268
303.266
303.265
303.275
303.275
303.275
303.274
303.274
303.273
303.272
303.272
303.271
303.27
303.269
303.268
303.267
303.265
303.275
303.275
303.275
303.274
303.274
303.273
303.273
303.272
303.271
303.27
303.269
303.268
303.267
303.265
303.275
303.275
303.275
303.274
303.274
303.273
303.273
303.272
303.271
303.27
303.269
303.268
303.267
303.265
303.275
303.275
303.275
303.274
303.274
303.273
303.273
303.272
303.271
303.27
303.269
303.268
303.267
303.266
303.275
303.275
303.275
303.274
303.274
303.273
303.273
303.272
303.271
303.27
303.269
303.268
303.267
303.266
303.275
303.275
303.274
303.274
303.274
303.273
303.272
303.272
303.271
303.27
303.269
303.268
303.267
303.265
303.275
303.275
303.274
303.274
303.273
303.273
303.272
303.271
303.27
303.269
303.268
303.267
303.266
303.265
303.275
303.274
303.274
303.273
303.273
303.272
303.272
303.271
303.27
303.269
303.268
303.267
303.266
303.265
303.274
303.274
303.274
303.273
303.272
303.272
303.271
303.27
303.269
303.269
303.268
303.267
303.266
303.264
303.274
303.273
303.273
303.272
303.272
303.271
303.27
303.27
303.269
303.268
303.267
303.266
303.265
303.264
303.048
303.048
303.048
303.048
303.048
303.048
303.048
303.047
303.046
303.046
303.045
303.044
303.042
303.041
303.048
303.049
303.049
303.049
303.049
303.049
303.048
303.048
303.047
303.046
303.045
303.044
303.042
303.041
303.049
303.049
303.049
303.049
303.049
303.049
303.049
303.048
303.047
303.046
303.045
303.044
303.043
303.041
303.049
303.049
303.05
303.05
303.05
303.049
303.049
303.048
303.048
303.047
303.046
303.044
303.043
303.041
303.049
303.049
303.05
303.05
303.05
303.05
303.049
303.049
303.048
303.047
303.046
303.044
303.043
303.041
303.049
303.049
303.05
303.05
303.05
303.049
303.049
303.048
303.048
303.047
303.045
303.044
303.043
303.041
303.049
303.049
303.049
303.049
303.049
303.049
303.049
303.048
303.047
303.046
303.045
303.044
303.042
303.041
303.048
303.049
303.049
303.049
303.049
303.049
303.048
303.048
303.047
303.046
303.045
303.043
303.042
303.04
303.047
303.048
303.048
303.048
303.048
303.048
303.048
303.047
303.046
303.045
303.044
303.043
303.041
303.04
303.047
303.047
303.047
303.047
303.047
303.047
303.047
303.046
303.045
303.044
303.043
303.042
303.041
303.039
303.046
303.046
303.046
303.046
303.046
303.046
303.046
303.045
303.044
303.043
303.042
303.041
303.04
303.038
303.045
303.045
303.045
303.045
303.045
303.045
303.044
303.044
303.043
303.042
303.041
303.04
303.039
303.037
303.043
303.044
303.044
303.044
303.044
303.044
303.043
303.042
303.042
303.041
303.04
303.039
303.037
303.036
303.042
303.042
303.042
303.042
303.042
303.042
303.041
303.041
303.04
303.039
303.038
303.037
303.036
303.035
302.839
302.84
302.841
302.841
302.841
302.842
302.842
302.841
302.841
302.84
302.84
302.839
302.837
302.836
302.84
302.841
302.842
302.842
302.842
302.843
302.843
302.842
302.842
302.841
302.84
302.839
302.838
302.836
302.841
302.842
302.842
302.843
302.843
302.843
302.843
302.843
302.843
302.842
302.841
302.84
302.838
302.837
302.841
302.842
302.843
302.843
302.844
302.844
302.844
302.844
302.843
302.842
302.841
302.84
302.839
302.837
302.842
302.842
302.843
302.844
302.844
302.844
302.844
302.844
302.843
302.843
302.842
302.841
302.839
302.838
302.842
302.843
302.843
302.844
302.844
302.844
302.844
302.844
302.844
302.843
302.842
302.841
302.839
302.838
302.841
302.842
302.843
302.844
302.844
302.844
302.844
302.844
302.843
302.843
302.842
302.84
302.839
302.837
302.841
302.842
302.843
302.843
302.844
302.844
302.844
302.844
302.843
302.842
302.841
302.84
302.839
302.837
302.84
302.841
302.842
302.843
302.843
302.843
302.843
302.843
302.842
302.842
302.841
302.839
302.838
302.836
302.839
302.84
302.841
302.842
302.842
302.842
302.842
302.842
302.841
302.841
302.84
302.839
302.837
302.836
302.838
302.839
302.84
302.841
302.841
302.841
302.841
302.841
302.84
302.84
302.839
302.838
302.836
302.835
302.837
302.838
302.839
302.839
302.84
302.84
302.84
302.839
302.839
302.838
302.837
302.836
302.835
302.834
302.836
302.837
302.837
302.838
302.838
302.838
302.838
302.838
302.837
302.837
302.836
302.835
302.834
302.832
302.834
302.835
302.836
302.836
302.836
302.837
302.836
302.836
302.836
302.835
302.834
302.833
302.832
302.831
302.646
302.648
302.648
302.649
302.65
302.65
302.65
302.65
302.65
302.65
302.649
302.648
302.647
302.646
302.648
302.649
302.65
302.65
302.651
302.651
302.652
302.652
302.651
302.651
302.65
302.649
302.648
302.647
302.648
302.65
302.651
302.651
302.652
302.652
302.653
302.653
302.652
302.652
302.651
302.65
302.649
302.648
302.649
302.65
302.651
302.652
302.653
302.653
302.653
302.653
302.653
302.653
302.652
302.651
302.65
302.649
302.65
302.651
302.652
302.653
302.653
302.654
302.654
302.654
302.654
302.653
302.652
302.652
302.65
302.649
302.65
302.651
302.652
302.653
302.654
302.654
302.654
302.654
302.654
302.654
302.653
302.652
302.651
302.649
302.65
302.651
302.652
302.653
302.654
302.654
302.654
302.654
302.654
302.654
302.653
302.652
302.651
302.649
302.65
302.651
302.652
302.653
302.654
302.654
302.654
302.654
302.654
302.653
302.653
302.652
302.651
302.649
302.649
302.651
302.652
302.653
302.653
302.654
302.654
302.654
302.654
302.653
302.652
302.651
302.65
302.649
302.649
302.65
302.651
302.652
302.653
302.653
302.653
302.653
302.653
302.652
302.652
302.651
302.65
302.648
302.648
302.649
302.65
302.651
302.652
302.652
302.652
302.652
302.652
302.652
302.651
302.65
302.649
302.648
302.647
302.648
302.649
302.65
302.651
302.651
302.651
302.651
302.651
302.651
302.65
302.649
302.648
302.647
302.646
302.647
302.648
302.649
302.649
302.65
302.65
302.65
302.65
302.649
302.649
302.648
302.647
302.645
302.644
302.646
302.647
302.647
302.648
302.648
302.648
302.648
302.648
302.648
302.647
302.646
302.645
302.644
302.467
302.469
302.47
302.47
302.471
302.471
302.472
302.472
302.472
302.471
302.471
302.47
302.469
302.468
302.468
302.47
302.471
302.471
302.472
302.473
302.473
302.473
302.473
302.472
302.472
302.471
302.471
302.47
302.469
302.471
302.472
302.472
302.473
302.474
302.474
302.474
302.474
302.474
302.473
302.472
302.472
302.471
302.47
302.471
302.472
302.473
302.474
302.474
302.475
302.475
302.475
302.474
302.474
302.473
302.472
302.471
302.471
302.472
302.473
302.474
302.475
302.475
302.475
302.475
302.475
302.475
302.475
302.474
302.473
302.472
302.471
302.472
302.473
302.474
302.475
302.475
302.476
302.476
302.476
302.475
302.475
302.474
302.473
302.472
302.471
302.473
302.474
302.475
302.475
302.476
302.476
302.476
302.476
302.476
302.475
302.474
302.474
302.472
302.471
302.473
302.474
302.475
302.475
302.476
302.476
302.476
302.476
302.476
302.475
302.475
302.474
302.472
302.471
302.472
302.474
302.474
302.475
302.476
302.476
302.476
302.476
302.476
302.475
302.474
302.473
302.472
302.471
302.472
302.473
302.474
302.475
302.475
302.476
302.476
302.476
302.475
302.475
302.474
302.473
302.472
302.47
302.472
302.473
302.474
302.474
302.475
302.475
302.475
302.475
302.475
302.474
302.473
302.473
302.471
302.47
302.471
302.472
302.473
302.473
302.474
302.474
302.474
302.474
302.474
302.473
302.473
302.472
302.471
302.469
302.47
302.471
302.472
302.472
302.473
302.473
302.473
302.473
302.473
302.473
302.472
302.471
302.47
302.468
302.469
302.47
302.471
302.471
302.472
302.472
302.472
302.472
302.472
302.472
302.471
302.47
302.469
302.3
302.301
302.302
302.303
302.303
302.303
302.304
302.304
302.304
302.303
302.303
302.303
302.302
302.301
302.301
302.302
302.303
302.303
302.304
302.304
302.305
302.305
302.304
302.304
302.304
302.304
302.303
302.302
302.302
302.303
302.304
302.304
302.305
302.305
302.305
302.305
302.305
302.305
302.305
302.304
302.304
302.303
302.302
302.303
302.304
302.305
302.305
302.306
302.306
302.306
302.306
302.306
302.305
302.305
302.304
302.304
302.303
302.304
302.305
302.305
302.306
302.306
302.306
302.307
302.307
302.306
302.306
302.306
302.305
302.304
302.303
302.304
302.305
302.306
302.306
302.307
302.307
302.307
302.307
302.307
302.306
302.306
302.305
302.305
302.304
302.304
302.305
302.306
302.306
302.307
302.307
302.307
302.307
302.307
302.307
302.306
302.306
302.305
302.304
302.305
302.305
302.306
302.307
302.307
302.307
302.307
302.307
302.307
302.307
302.306
302.306
302.305
302.304
302.305
302.305
302.306
302.306
302.307
302.307
302.307
302.307
302.307
302.307
302.306
302.306
302.305
302.303
302.304
302.305
302.306
302.306
302.307
302.307
302.307
302.307
302.307
302.306
302.306
302.305
302.305
302.303
302.304
302.305
302.305
302.306
302.306
302.307
302.307
302.307
302.307
302.306
302.306
302.305
302.304
302.303
302.303
302.304
302.305
302.305
302.306
302.306
302.306
302.306
302.306
302.306
302.305
302.305
302.304
302.302
302.303
302.304
302.304
302.305
302.305
302.306
302.306
302.306
302.306
302.305
302.305
302.304
302.303
302.301
302.302
302.303
302.304
302.304
302.305
302.305
302.305
302.305
302.305
302.305
302.304
302.303
302.303
302.144
302.144
302.145
302.145
302.145
302.145
302.145
302.145
302.145
302.145
302.145
302.145
302.145
302.144
302.144
302.145
302.145
302.145
302.146
302.146
302.146
302.146
302.146
302.146
302.145
302.145
302.145
302.145
302.144
302.145
302.145
302.146
302.146
302.146
302.146
302.146
302.146
302.146
302.146
302.146
302.145
302.145
302.145
302.145
302.146
302.146
302.146
302.146
302.146
302.146
302.146
302.146
302.146
302.146
302.146
302.146
302.145
302.145
302.146
302.146
302.146
302.146
302.147
302.147
302.147
302.147
302.146
302.146
302.146
302.146
302.145
302.146
302.146
302.146
302.146
302.147
302.147
302.147
302.147
302.147
302.147
302.146
302.146
302.146
302.145
302.146
302.146
302.146
302.147
302.147
302.147
302.147
302.147
302.147
302.147
302.146
302.146
302.146
302.145
302.146
302.146
302.146
302.147
302.147
302.147
302.147
302.147
302.147
302.147
302.146
302.146
302.146
302.145
302.146
302.146
302.146
302.147
302.147
302.147
302.147
302.147
302.147
302.147
302.146
302.146
302.146
302.145
302.146
302.146
302.146
302.146
302.147
302.147
302.147
302.147
302.147
302.147
302.146
302.146
302.146
302.145
302.145
302.146
302.146
302.146
302.147
302.147
302.147
302.147
302.147
302.146
302.146
302.146
302.146
302.145
302.145
302.146
302.146
302.146
302.146
302.146
302.147
302.147
302.146
302.146
302.146
302.146
302.145
302.145
302.145
302.145
302.146
302.146
302.146
302.146
302.146
302.146
302.146
302.146
302.146
302.145
302.145
302.144
302.144
302.145
302.145
302.146
302.146
302.146
302.146
302.146
302.146
302.146
302.146
302.145
302.145
301.997
301.997
301.997
301.997
301.997
301.997
301.997
301.997
301.997
301.997
301.997
301.997
301.997
301.997
301.997
301.997
301.997
301.997
301.997
301.997
301.997
301.997
301.997
301.997
301.997
301.997
301.997
301.997
301.997
301.997
301.997
301.997
301.997
301.997
301.997
301.997
301.997
301.997
301.997
301.997
301.997
301.997
301.997
301.997
301.997
301.997
301.997
301.997
301.997
301.997
301.997
301.997
301.997
301.997
301.997
301.997
301.997
301.997
301.997
301.997
301.997
301.996
301.996
301.996
301.996
301.996
301.997
301.997
301.997
301.997
301.997
301.997
301.997
301.997
301.996
301.996
301.996
301.996
301.996
301.996
301.996
301.997
301.997
301.997
301.997
301.997
301.997
301.996
301.996
301.996
301.996
301.996
301.996
301.996
301.996
301.996
301.997
301.997
301.997
301.997
301.997
301.996
301.996
301.996
301.996
301.996
301.996
301.996
301.996
301.996
301.997
301.997
301.997
301.997
301.996
301.996
301.996
301.996
301.996
301.996
301.996
301.996
301.996
301.996
301.996
301.997
301.997
301.997
301.996
301.996
301.996
301.996
301.996
301.996
301.996
301.996
301.996
301.996
301.996
301.996
301.997
301.997
301.996
301.996
301.996
301.996
301.996
301.996
301.996
301.996
301.996
301.996
301.996
301.996
301.997
301.997
301.996
301.996
301.996
301.996
301.996
301.996
301.996
301.996
301.996
301.996
301.996
301.996
301.997
301.996
301.996
301.996
301.996
301.996
301.996
301.996
301.996
301.996
301.996
301.996
301.996
301.996
301.997
301.997
301.996
301.996
301.996
301.996
301.996
301.996
301.996
301.996
301.996
301.996
301.997
301.996
301.861
301.861
301.86
301.86
301.86
301.859
301.859
301.859
301.859
301.859
301.859
301.86
301.86
301.86
301.86
301.86
301.86
301.859
301.859
301.859
301.859
301.859
301.859
301.859
301.859
301.859
301.859
301.86
301.86
301.86
301.859
301.859
301.859
301.858
301.858
301.858
301.858
301.858
301.858
301.859
301.859
301.859
301.86
301.859
301.859
301.858
301.858
301.858
301.858
301.858
301.858
301.858
301.858
301.858
301.859
301.859
301.859
301.859
301.858
301.858
301.858
301.858
301.857
301.857
301.857
301.858
301.858
301.858
301.858
301.859
301.859
301.859
301.858
301.858
301.857
301.857
301.857
301.857
301.857
301.857
301.857
301.858
301.858
301.858
301.859
301.858
301.858
301.858
301.857
301.857
301.857
301.857
301.857
301.857
301.857
301.858
301.858
301.858
301.859
301.858
301.858
301.857
301.857
301.857
301.857
301.857
301.857
301.857
301.857
301.857
301.858
301.858
301.859
301.858
301.858
301.857
301.857
301.857
301.857
301.857
301.857
301.857
301.857
301.857
301.858
301.858
301.859
301.858
301.858
301.857
301.857
301.857
301.857
301.857
301.857
301.857
301.857
301.857
301.858
301.858
301.859
301.858
301.858
301.858
301.857
301.857
301.857
301.857
301.857
301.857
301.857
301.858
301.858
301.858
301.859
301.859
301.858
301.858
301.858
301.857
301.857
301.857
301.857
301.857
301.857
301.858
301.858
301.858
301.859
301.859
301.858
301.858
301.858
301.858
301.857
301.857
301.857
301.858
301.858
301.858
301.858
301.859
301.86
301.859
301.859
301.858
301.858
301.858
301.858
301.858
301.858
301.858
301.858
301.858
301.859
301.859
301.735
301.734
301.734
301.733
301.733
301.733
301.733
301.733
301.733
301.733
301.733
301.733
301.734
301.734
301.734
301.734
301.733
301.733
301.732
301.732
301.732
301.732
301.732
301.732
301.732
301.733
301.733
301.733
301.734
301.733
301.733
301.732
301.732
301.732
301.731
301.731
301.731
301.732
301.732
301.732
301.732
301.733
301.733
301.733
301.732
301.732
301.731
301.731
301.731
301.731
301.731
301.731
301.731
301.732
301.732
301.732
301.733
301.732
301.732
301.731
301.731
301.731
301.731
301.73
301.731
301.731
301.731
301.731
301.732
301.732
301.733
301.732
301.731
301.731
301.731
301.73
301.73
301.73
301.73
301.73
301.731
301.731
301.731
301.732
301.732
301.732
301.731
301.731
301.73
301.73
301.73
301.73
301.73
301.73
301.73
301.731
301.731
301.732
301.732
301.732
301.731
301.731
301.73
301.73
301.73
301.73
301.73
301.73
301.73
301.731
301.731
301.731
301.732
301.732
301.731
301.731
301.73
301.73
301.73
301.73
301.73
301.73
301.73
301.73
301.731
301.731
301.732
301.732
301.731
301.731
301.73
301.73
301.73
301.73
301.73
301.73
301.73
301.731
301.731
301.731
301.732
301.732
301.731
301.731
301.73
301.73
301.73
301.73
301.73
301.73
301.73
301.731
301.731
301.732
301.733
301.732
301.731
301.731
301.731
301.73
301.73
301.73
301.73
301.73
301.731
301.731
301.731
301.732
301.733
301.732
301.732
301.731
301.731
301.731
301.731
301.731
301.731
301.731
301.731
301.731
301.732
301.732
301.733
301.733
301.732
301.732
301.731
301.731
301.731
301.731
301.731
301.731
301.731
301.732
301.732
301.732
306.153
306.16
306.167
306.174
306.179
306.184
306.143
306.146
306.15
306.153
306.155
306.157
305.88
305.887
305.894
305.9
305.906
305.912
305.88
305.89
305.9
305.908
305.917
305.924
305.882
305.894
305.906
305.917
305.926
305.935
305.883
305.897
305.911
305.923
305.935
305.945
305.884
305.9
305.915
305.929
305.942
305.953
305.884
305.901
305.917
305.932
305.946
305.959
305.884
305.901
305.918
305.934
305.949
305.962
305.883
305.9
305.917
305.933
305.948
305.962
305.881
305.898
305.915
305.93
305.945
305.959
305.879
305.895
305.91
305.925
305.939
305.952
305.876
305.89
305.904
305.917
305.929
305.941
305.873
305.885
305.896
305.907
305.917
305.927
305.868
305.878
305.886
305.895
305.903
305.911
305.865
305.871
305.877
305.883
305.887
305.892
305.498
305.499
305.502
305.504
305.505
305.507
305.501
305.504
305.507
305.51
305.512
305.515
305.505
305.509
305.513
305.517
305.52
305.523
305.509
305.514
305.519
305.524
305.528
305.532
305.513
305.519
305.526
305.531
305.536